{
	 "smiles": "NNC1=C2C=CC=CC2=NC2=C1C=CC=C2", 
	 "Tm": 450.15, 
	 "num_atms": 27, 
	 "gaussian": { 
		 "optdone": 1, 
		 "sigma_profile": "yes", 
		 "theory": "DFT", 
		 "functional": "B3LYP", 
		 "basiset": "6-31G**", 
		 "properties": { 
			 "R2extent": 3759.2316, 
			 "electric_dipole_moment_norm": 4.69424864488, 
			 "electric_quadrupole_moment_norm": 17.3119668935, 
			 "total_energy": -666.237844592, 
			 "HOMO_LUMO_gap": 0.12866, 
			 "cosmo_polarized_energy": -16.25, 
			 "cosmo_cavitation_energy": 29.97, 
			 "cosmo_dispersion_energy": -22.69, 
			 "cosmo_repulsion_energy": 1.73, 
			 "cosmo_total_nonelectrostatic_energy": 9.01, 
			 "SMD_solvation_energy": 3.65 
		},
		"coords": [
			{
				"x": -2.5688544737,
				"y": 0.6454206463,
				"z": 2.6666513453,
				"element": "N" 
			},
			{
				"x": -1.3926392855,
				"y": -0.0500800036,
				"z": 2.2885434441,
				"element": "N" 
			},
			{
				"x": -0.6319231716,
				"y": 0.4359228218,
				"z": 1.2229414077,
				"element": "C" 
			},
			{
				"x": -1.2139956792,
				"y": 0.7971451548,
				"z": -0.0212798151,
				"element": "C" 
			},
			{
				"x": -2.6136228388,
				"y": 0.7212205815,
				"z": -0.3047702788,
				"element": "C" 
			},
			{
				"x": -3.1052132426,
				"y": 1.0677141311,
				"z": -1.5375150658,
				"element": "C" 
			},
			{
				"x": -2.2327711146,
				"y": 1.5166456167,
				"z": -2.567552115,
				"element": "C" 
			},
			{
				"x": -0.8842221545,
				"y": 1.5853118905,
				"z": -2.3432581865,
				"element": "C" 
			},
			{
				"x": -0.3245374262,
				"y": 1.2142906272,
				"z": -1.0798262513,
				"element": "C" 
			},
			{
				"x": 1.0144567482,
				"y": 1.2535471565,
				"z": -0.9690781901,
				"element": "N" 
			},
			{
				"x": 1.5561747983,
				"y": 0.8927497145,
				"z": 0.202775291,
				"element": "C" 
			},
			{
				"x": 0.7837076957,
				"y": 0.4911507653,
				"z": 1.3543092656,
				"element": "C" 
			},
			{
				"x": 1.490572503,
				"y": 0.1894124299,
				"z": 2.5611917877,
				"element": "C" 
			},
			{
				"x": 2.8599280517,
				"y": 0.2408083737,
				"z": 2.6229992807,
				"element": "C" 
			},
			{
				"x": 3.619105872,
				"y": 0.6044118829,
				"z": 1.4761390201,
				"element": "C" 
			},
			{
				"x": 2.9835480523,
				"y": 0.9264236791,
				"z": 0.3075607327,
				"element": "C" 
			},
			{
				"x": -3.2197804354,
				"y": -0.0247351046,
				"z": 3.0645264799,
				"element": "H" 
			},
			{
				"x": -2.3603075104,
				"y": 1.3538934487,
				"z": 3.3706418168,
				"element": "H" 
			},
			{
				"x": -0.8267168198,
				"y": -0.3613677734,
				"z": 3.0676823948,
				"element": "H" 
			},
			{
				"x": -3.2856591415,
				"y": 0.4005922768,
				"z": 0.4780621772,
				"element": "H" 
			},
			{
				"x": -4.1718023994,
				"y": 0.997991833,
				"z": -1.7310613838,
				"element": "H" 
			},
			{
				"x": -2.641657449,
				"y": 1.79594497,
				"z": -3.5347240637,
				"element": "H" 
			},
			{
				"x": -0.1865243355,
				"y": 1.9074582148,
				"z": -3.1092154997,
				"element": "H" 
			},
			{
				"x": 0.9520637012,
				"y": -0.0691815747,
				"z": 3.4689534642,
				"element": "H" 
			},
			{
				"x": 3.3681705529,
				"y": 0.012469035,
				"z": 3.5551421485,
				"element": "H" 
			},
			{
				"x": 4.7031119845,
				"y": 0.6358608131,
				"z": 1.53825097,
				"element": "H" 
			},
			{
				"x": 3.5288875181,
				"y": 1.2217783932,
				"z": -0.5827901766,
				"element": "H" 
			}
		],
		 "valence_orbital": [ 
			{
				"type": "occ",
				"energy": -0.25541,
				"method": "rhf"
			},
			{
				"type": "occ",
				"energy": -0.24555,
				"method": "rhf"
			},
			{
				"type": "occ",
				"energy": -0.23992,
				"method": "rhf"
			},
			{
				"type": "occ",
				"energy": -0.23634,
				"method": "rhf"
			},
			{
				"type": "occ",
				"energy": -0.18929,
				"method": "rhf"
			},
			{
				"type": "unocc",
				"energy": -0.06063,
				"method": "rhf"
			},
			{
				"type": "unocc",
				"energy": -0.00886,
				"method": "rhf"
			},
			{
				"type": "unocc",
				"energy": 0.01162,
				"method": "rhf"
			},
			{
				"type": "unocc",
				"energy": 0.04008,
				"method": "rhf"
			},
			{
				"type": "unocc",
				"energy": 0.05747,
				"method": "rhf"
			}
		],
		"cosmo_sigma_profile": { 
			"-0.025": 0.0,
			"-0.024": 0.0,
			"-0.023": 0.0,
			"-0.022": 0.0,
			"-0.021": 0.0,
			"-0.02": 0.0,
			"-0.019": 0.0,
			"-0.018": 0.0,
			"-0.017": 0.0,
			"-0.016": 0.0,
			"-0.015": 0.0307128722224,
			"-0.014": 1.01988531343,
			"-0.013": 1.42624729007,
			"-0.012": 2.35470181487,
			"-0.011": 5.84449687759,
			"-0.01": 5.85634235626,
			"-0.009": 4.50277255443,
			"-0.008": 3.4280194281,
			"-0.007": 2.95339962605,
			"-0.006": 9.61698812824,
			"-0.005": 13.6100157447,
			"-0.004": 15.606583709,
			"-0.003": 15.4085086494,
			"-0.002": 12.513078497,
			"-0.001": 10.6057264634,
			"0.0": 10.1127256196,
			"0.001": 15.7049973137,
			"0.002": 16.8317336477,
			"0.003": 22.0013818982,
			"0.004": 25.8381073805,
			"0.005": 19.7290118589,
			"0.006": 6.44212828889,
			"0.007": 3.53386184083,
			"0.008": 3.29819064216,
			"0.009": 2.76773510201,
			"0.01": 2.58331554413,
			"0.011": 1.38753952547,
			"0.012": 1.77529297589,
			"0.013": 0.988671818215,
			"0.014": 0.496006286776,
			"0.015": 0.773163838965,
			"0.016": 0.864960705354,
			"0.017": 0.206933440084,
			"0.018": 0.0,
			"0.019": 0.0,
			"0.02": 0.0,
			"0.021": 0.0,
			"0.022": 0.0,
			"0.023": 0.0,
			"0.024": 0.0,
			"0.025": 0.0
		}
	}
}
