{
	 "smiles": "CC(Cl)C(=O)N1C2=C(SC3=C1C=CC=C3)C=CC=C2", 
	 "Tm": 392.15, 
	 "num_atms": 31, 
	 "gaussian": { 
		 "optdone": 1, 
		 "sigma_profile": "yes", 
		 "theory": "DFT", 
		 "functional": "B3LYP", 
		 "basiset": "6-31G**", 
		 "properties": { 
			 "R2extent": 5685.9, 
			 "electric_dipole_moment_norm": 3.17488244034, 
			 "electric_quadrupole_moment_norm": 9.9474646212, 
			 "total_energy": -1567.19627195, 
			 "HOMO_LUMO_gap": 0.18086, 
			 "cosmo_polarized_energy": -10.92, 
			 "cosmo_cavitation_energy": 37.02, 
			 "cosmo_dispersion_energy": -26.44, 
			 "cosmo_repulsion_energy": 1.98, 
			 "cosmo_total_nonelectrostatic_energy": 12.57, 
			 "SMD_solvation_energy": 5.93 
		},
		"coords": [
			{
				"x": 1.425802397,
				"y": 3.3555169539,
				"z": -0.3212396619,
				"element": "C" 
			},
			{
				"x": 0.1435788623,
				"y": 2.6940989356,
				"z": 0.1604899359,
				"element": "C" 
			},
			{
				"x": -1.2883293036,
				"y": 3.788167515,
				"z": -0.1965117943,
				"element": "Cl" 
			},
			{
				"x": -0.0802075782,
				"y": 1.3633701365,
				"z": -0.5758443386,
				"element": "C" 
			},
			{
				"x": 0.1378305549,
				"y": 1.2825331056,
				"z": -1.7718991706,
				"element": "O" 
			},
			{
				"x": -0.4700799888,
				"y": 0.25792852,
				"z": 0.18235131,
				"element": "N" 
			},
			{
				"x": -0.8180333541,
				"y": 0.2934473142,
				"z": 1.5723860073,
				"element": "C" 
			},
			{
				"x": -0.1411859115,
				"y": -0.5618678273,
				"z": 2.4581448115,
				"element": "C" 
			},
			{
				"x": 1.1023910367,
				"y": -1.6648761088,
				"z": 1.8169515134,
				"element": "S" 
			},
			{
				"x": 0.3123135294,
				"y": -2.0478527724,
				"z": 0.2613170652,
				"element": "C" 
			},
			{
				"x": -0.4001149874,
				"y": -1.0476524359,
				"z": -0.4157356931,
				"element": "C" 
			},
			{
				"x": -1.0252312103,
				"y": -1.3394389595,
				"z": -1.6307656896,
				"element": "C" 
			},
			{
				"x": -0.9050240549,
				"y": -2.6143341031,
				"z": -2.1815559622,
				"element": "C" 
			},
			{
				"x": -0.1842878381,
				"y": -3.607207882,
				"z": -1.5142835486,
				"element": "C" 
			},
			{
				"x": 0.4125255891,
				"y": -3.3305558906,
				"z": -0.2853812472,
				"element": "C" 
			},
			{
				"x": -0.4543373149,
				"y": -0.5476783059,
				"z": 3.8204739295,
				"element": "C" 
			},
			{
				"x": -1.4363639562,
				"y": 0.3180488991,
				"z": 4.3008707428,
				"element": "C" 
			},
			{
				"x": -2.1387419631,
				"y": 1.1384699764,
				"z": 3.4158419721,
				"element": "C" 
			},
			{
				"x": -1.8487599112,
				"y": 1.1091777797,
				"z": 2.0518065868,
				"element": "C" 
			},
			{
				"x": 1.4097067294,
				"y": 3.4617799895,
				"z": -1.4066040915,
				"element": "H" 
			},
			{
				"x": 1.5479823839,
				"y": 4.3346415857,
				"z": 0.1467607136,
				"element": "H" 
			},
			{
				"x": 2.2804651644,
				"y": 2.7269007792,
				"z": -0.0467337054,
				"element": "H" 
			},
			{
				"x": 0.1381638088,
				"y": 2.5755477748,
				"z": 1.2417777328,
				"element": "H" 
			},
			{
				"x": -1.5728032556,
				"y": -0.5612728938,
				"z": -2.1465638744,
				"element": "H" 
			},
			{
				"x": -1.3796506087,
				"y": -2.8314008424,
				"z": -3.1333754161,
				"element": "H" 
			},
			{
				"x": -0.0980394191,
				"y": -4.6014403267,
				"z": -1.9420616681,
				"element": "H" 
			},
			{
				"x": 0.9513440761,
				"y": -4.1027332893,
				"z": 0.2547626316,
				"element": "H" 
			},
			{
				"x": 0.0660427968,
				"y": -1.2206123983,
				"z": 4.4948859881,
				"element": "H" 
			},
			{
				"x": -1.6692646454,
				"y": 0.3316553025,
				"z": 5.3612094615,
				"element": "H" 
			},
			{
				"x": -2.9244560383,
				"y": 1.7921242533,
				"z": 3.781285058,
				"element": "H" 
			},
			{
				"x": -2.4011355895,
				"y": 1.7318152151,
				"z": 1.3567404015,
				"element": "H" 
			}
		],
		 "valence_orbital": [ 
			{
				"type": "occ",
				"energy": -0.27343,
				"method": "rhf"
			},
			{
				"type": "occ",
				"energy": -0.26476,
				"method": "rhf"
			},
			{
				"type": "occ",
				"energy": -0.25613,
				"method": "rhf"
			},
			{
				"type": "occ",
				"energy": -0.24368,
				"method": "rhf"
			},
			{
				"type": "occ",
				"energy": -0.2187,
				"method": "rhf"
			},
			{
				"type": "unocc",
				"energy": -0.03784,
				"method": "rhf"
			},
			{
				"type": "unocc",
				"energy": -0.02464,
				"method": "rhf"
			},
			{
				"type": "unocc",
				"energy": -0.02131,
				"method": "rhf"
			},
			{
				"type": "unocc",
				"energy": -0.01087,
				"method": "rhf"
			},
			{
				"type": "unocc",
				"energy": -0.00379,
				"method": "rhf"
			}
		],
		"cosmo_sigma_profile": { 
			"-0.025": 0.0,
			"-0.024": 0.0,
			"-0.023": 0.0,
			"-0.022": 0.0,
			"-0.021": 0.0,
			"-0.02": 0.0,
			"-0.019": 0.0,
			"-0.018": 0.0,
			"-0.017": 0.0,
			"-0.016": 0.0,
			"-0.015": 0.0,
			"-0.014": 0.0,
			"-0.013": 0.0,
			"-0.012": 0.0,
			"-0.011": 0.0,
			"-0.01": 0.0,
			"-0.009": 0.0,
			"-0.008": 0.375858608748,
			"-0.007": 9.10978759925,
			"-0.006": 20.0441363875,
			"-0.005": 25.2819411736,
			"-0.004": 23.0456419242,
			"-0.003": 20.8259804974,
			"-0.002": 18.9728569527,
			"-0.001": 22.8941296105,
			"0.0": 23.3038712957,
			"0.001": 21.0892607623,
			"0.002": 27.1546259827,
			"0.003": 27.0699763813,
			"0.004": 23.0919470688,
			"0.005": 12.7058606901,
			"0.006": 8.78824704092,
			"0.007": 4.19099046967,
			"0.008": 1.76514888031,
			"0.009": 2.11142772469,
			"0.01": 1.81628491026,
			"0.011": 2.86518126122,
			"0.012": 3.80644109494,
			"0.013": 0.411781037036,
			"0.014": 0.0,
			"0.015": 0.0,
			"0.016": 0.0,
			"0.017": 0.0,
			"0.018": 0.0,
			"0.019": 0.0,
			"0.02": 0.0,
			"0.021": 0.0,
			"0.022": 0.0,
			"0.023": 0.0,
			"0.024": 0.0,
			"0.025": 0.0
		}
	}
}
