{
	 "smiles": "CC1=NNC2=C1N=C(C)N(C1=CC=C(Cl)C=C1)C2=O", 
	 "Tm": 587.15, 
	 "num_atms": 30, 
	 "gaussian": { 
		 "optdone": 1, 
		 "sigma_profile": "yes", 
		 "theory": "DFT", 
		 "functional": "B3LYP", 
		 "basiset": "6-31G**", 
		 "properties": { 
			 "R2extent": 7592.5701, 
			 "electric_dipole_moment_norm": 2.00342211728, 
			 "electric_quadrupole_moment_norm": 11.5937646388, 
			 "total_energy": -1256.4438089, 
			 "HOMO_LUMO_gap": 0.1898, 
			 "cosmo_polarized_energy": -15.99, 
			 "cosmo_cavitation_energy": 36.74, 
			 "cosmo_dispersion_energy": -26.11, 
			 "cosmo_repulsion_energy": 2.03, 
			 "cosmo_total_nonelectrostatic_energy": 12.65, 
			 "SMD_solvation_energy": 4.32 
		},
		"coords": [
			{
				"x": -2.0740250916,
				"y": -1.7283499569,
				"z": 3.7578317825,
				"element": "C" 
			},
			{
				"x": -0.7841779131,
				"y": -1.2163999375,
				"z": 3.2022019349,
				"element": "C" 
			},
			{
				"x": 0.2800561705,
				"y": -1.0117261769,
				"z": 3.9811841551,
				"element": "N" 
			},
			{
				"x": 1.2638774244,
				"y": -0.5537191449,
				"z": 3.1740269336,
				"element": "N" 
			},
			{
				"x": 0.8556588817,
				"y": -0.4577671431,
				"z": 1.8842618437,
				"element": "C" 
			},
			{
				"x": -0.4699433471,
				"y": -0.8780658345,
				"z": 1.8525728001,
				"element": "C" 
			},
			{
				"x": -1.227560112,
				"y": -0.920227942,
				"z": 0.7083177631,
				"element": "N" 
			},
			{
				"x": -0.6333470908,
				"y": -0.5374162228,
				"z": -0.3825726421,
				"element": "C" 
			},
			{
				"x": -1.4072870489,
				"y": -0.5595192447,
				"z": -1.6727851319,
				"element": "C" 
			},
			{
				"x": 0.7024712666,
				"y": -0.0994710461,
				"z": -0.4317892937,
				"element": "N" 
			},
			{
				"x": 1.2975066089,
				"y": 0.3119108141,
				"z": -1.6814804262,
				"element": "C" 
			},
			{
				"x": 1.2269634717,
				"y": 1.647794421,
				"z": -2.0790747323,
				"element": "C" 
			},
			{
				"x": 1.8008671809,
				"y": 2.0506861121,
				"z": -3.2838506208,
				"element": "C" 
			},
			{
				"x": 2.4495069351,
				"y": 1.1045033218,
				"z": -4.0775735443,
				"element": "C" 
			},
			{
				"x": 3.1706063336,
				"y": 1.604113503,
				"z": -5.5976038949,
				"element": "Cl" 
			},
			{
				"x": 2.5381333125,
				"y": -0.2308883802,
				"z": -3.6840559514,
				"element": "C" 
			},
			{
				"x": 1.9606798789,
				"y": -0.623084052,
				"z": -2.4774461586,
				"element": "C" 
			},
			{
				"x": 1.5612180055,
				"y": -0.0247488896,
				"z": 0.7101328257,
				"element": "C" 
			},
			{
				"x": 2.7195206672,
				"y": 0.3604317079,
				"z": 0.6339116208,
				"element": "O" 
			},
			{
				"x": -2.8896789186,
				"y": -1.0203500436,
				"z": 3.5767732965,
				"element": "H" 
			},
			{
				"x": -2.358439614,
				"y": -2.6747105182,
				"z": 3.2857660903,
				"element": "H" 
			},
			{
				"x": -1.978874408,
				"y": -1.887078342,
				"z": 4.8339195169,
				"element": "H" 
			},
			{
				"x": 2.1702549869,
				"y": -0.3289532975,
				"z": 3.5538052162,
				"element": "H" 
			},
			{
				"x": -0.9416251716,
				"y": -1.2169190483,
				"z": -2.4137248872,
				"element": "H" 
			},
			{
				"x": -2.4106857979,
				"y": -0.9210888083,
				"z": -1.4504228478,
				"element": "H" 
			},
			{
				"x": -1.4728617831,
				"y": 0.4357236901,
				"z": -2.1235347548,
				"element": "H" 
			},
			{
				"x": 0.7275604,
				"y": 2.3717137385,
				"z": -1.4432114248,
				"element": "H" 
			},
			{
				"x": 1.7502364842,
				"y": 3.0857645608,
				"z": -3.6019760311,
				"element": "H" 
			},
			{
				"x": 3.0543545417,
				"y": -0.9499268173,
				"z": -4.3098788136,
				"element": "H" 
			},
			{
				"x": 2.0287337462,
				"y": -1.6554310228,
				"z": -2.1497246239,
				"element": "H" 
			}
		],
		 "valence_orbital": [ 
			{
				"type": "occ",
				"energy": -0.27956,
				"method": "rhf"
			},
			{
				"type": "occ",
				"energy": -0.27109,
				"method": "rhf"
			},
			{
				"type": "occ",
				"energy": -0.25881,
				"method": "rhf"
			},
			{
				"type": "occ",
				"energy": -0.2571,
				"method": "rhf"
			},
			{
				"type": "occ",
				"energy": -0.22653,
				"method": "rhf"
			},
			{
				"type": "unocc",
				"energy": -0.03673,
				"method": "rhf"
			},
			{
				"type": "unocc",
				"energy": -0.03233,
				"method": "rhf"
			},
			{
				"type": "unocc",
				"energy": -0.0305,
				"method": "rhf"
			},
			{
				"type": "unocc",
				"energy": -0.01316,
				"method": "rhf"
			},
			{
				"type": "unocc",
				"energy": 0.01886,
				"method": "rhf"
			}
		],
		"cosmo_sigma_profile": { 
			"-0.025": 0.0,
			"-0.024": 0.0,
			"-0.023": 0.0,
			"-0.022": 0.0,
			"-0.021": 0.0,
			"-0.02": 0.0,
			"-0.019": 0.0,
			"-0.018": 0.0050752552959,
			"-0.017": 0.797076887692,
			"-0.016": 1.37226405682,
			"-0.015": 0.913326811077,
			"-0.014": 0.860116376094,
			"-0.013": 0.705212641487,
			"-0.012": 0.872851720462,
			"-0.011": 1.06558371185,
			"-0.01": 0.606613188965,
			"-0.009": 0.493170987778,
			"-0.008": 5.62948376521,
			"-0.007": 10.5145905929,
			"-0.006": 13.9411002485,
			"-0.005": 18.7623909688,
			"-0.004": 20.3826407076,
			"-0.003": 20.3477338811,
			"-0.002": 22.4723251101,
			"-0.001": 26.4408675957,
			"0.0": 24.3128289448,
			"0.001": 24.9268789389,
			"0.002": 21.2886550884,
			"0.003": 15.5255621354,
			"0.004": 16.6194637844,
			"0.005": 8.33940351979,
			"0.006": 4.76200902349,
			"0.007": 4.77077287376,
			"0.008": 3.75476722724,
			"0.009": 3.75154840715,
			"0.01": 4.23536444713,
			"0.011": 3.58203666977,
			"0.012": 6.98936684006,
			"0.013": 5.43385385593,
			"0.014": 1.45408458694,
			"0.015": 0.519269985483,
			"0.016": 0.0,
			"0.017": 0.0,
			"0.018": 0.0,
			"0.019": 0.0,
			"0.02": 0.0,
			"0.021": 0.0,
			"0.022": 0.0,
			"0.023": 0.0,
			"0.024": 0.0,
			"0.025": 0.0
		}
	}
}
