{
	 "smiles": "NC1=C(Br)C=C(C=C1Br)[N+]([O-])=O", 
	 "Tm": 480.15, 
	 "num_atms": 16, 
	 "gaussian": { 
		 "optdone": 1, 
		 "sigma_profile": "yes", 
		 "theory": "DFT", 
		 "functional": "B3LYP", 
		 "basiset": "6-31G**", 
		 "properties": { 
			 "R2extent": 4978.9888, 
			 "electric_dipole_moment_norm": 5.68381862923, 
			 "electric_quadrupole_moment_norm": 8.61559577627, 
			 "total_energy": -5633.71336911, 
			 "HOMO_LUMO_gap": 0.15336, 
			 "cosmo_polarized_energy": -10.79, 
			 "cosmo_cavitation_energy": 25.61, 
			 "cosmo_dispersion_energy": -19.98, 
			 "cosmo_repulsion_energy": 1.59, 
			 "cosmo_total_nonelectrostatic_energy": 7.22, 
			 "SMD_solvation_energy": 4.44 
		},
		"coords": [
			{
				"x": 2.0317814415,
				"y": 1.5249165964,
				"z": -1.2860842231,
				"element": "N" 
			},
			{
				"x": 0.8699979095,
				"y": 1.2909346205,
				"z": -0.6294693235,
				"element": "C" 
			},
			{
				"x": 0.155087902,
				"y": 0.0729540392,
				"z": -0.7757178206,
				"element": "C" 
			},
			{
				"x": 0.8781916806,
				"y": -1.2836283156,
				"z": -1.9130964158,
				"element": "Br" 
			},
			{
				"x": -1.0412193793,
				"y": -0.1682764586,
				"z": -0.1271496221,
				"element": "C" 
			},
			{
				"x": -1.5664642727,
				"y": 0.8199196459,
				"z": 0.7047706,
				"element": "C" 
			},
			{
				"x": -0.9090092668,
				"y": 2.0352893434,
				"z": 0.8921096182,
				"element": "C" 
			},
			{
				"x": 0.2860210774,
				"y": 2.2552135006,
				"z": 0.233700953,
				"element": "C" 
			},
			{
				"x": 1.1902569923,
				"y": 3.9199348694,
				"z": 0.4940544276,
				"element": "Br" 
			},
			{
				"x": -2.8280621085,
				"y": 0.5766904756,
				"z": 1.3944041228,
				"element": "N" 
			},
			{
				"x": -3.2632475974,
				"y": 1.4709309675,
				"z": 2.1225075993,
				"element": "O" 
			},
			{
				"x": -3.3820067091,
				"y": -0.5083280684,
				"z": 1.2071663155,
				"element": "O" 
			},
			{
				"x": 2.5582280598,
				"y": 2.3587691053,
				"z": -1.0806651356,
				"element": "H" 
			},
			{
				"x": 2.4634467399,
				"y": 0.7810325523,
				"z": -1.8104480194,
				"element": "H" 
			},
			{
				"x": -1.5722228023,
				"y": -1.102474335,
				"z": -0.2512341531,
				"element": "H" 
			},
			{
				"x": -1.339179667,
				"y": 2.7822214614,
				"z": 1.5456510769,
				"element": "H" 
			}
		],
		 "valence_orbital": [ 
			{
				"type": "occ",
				"energy": -0.3073,
				"method": "rhf"
			},
			{
				"type": "occ",
				"energy": -0.30563,
				"method": "rhf"
			},
			{
				"type": "occ",
				"energy": -0.28939,
				"method": "rhf"
			},
			{
				"type": "occ",
				"energy": -0.26825,
				"method": "rhf"
			},
			{
				"type": "occ",
				"energy": -0.23985,
				"method": "rhf"
			},
			{
				"type": "unocc",
				"energy": -0.08649,
				"method": "rhf"
			},
			{
				"type": "unocc",
				"energy": -0.04253,
				"method": "rhf"
			},
			{
				"type": "unocc",
				"energy": -0.03645,
				"method": "rhf"
			},
			{
				"type": "unocc",
				"energy": 0.00307,
				"method": "rhf"
			},
			{
				"type": "unocc",
				"energy": 0.00568,
				"method": "rhf"
			}
		],
		"cosmo_sigma_profile": { 
			"-0.025": 0.0,
			"-0.024": 0.0,
			"-0.023": 0.0,
			"-0.022": 0.0,
			"-0.021": 0.0,
			"-0.02": 0.0,
			"-0.019": 0.0,
			"-0.018": 0.0,
			"-0.017": 0.0,
			"-0.016": 0.0,
			"-0.015": 0.0,
			"-0.014": 0.926758199499,
			"-0.013": 1.66618121481,
			"-0.012": 2.2761040206,
			"-0.011": 1.83103841603,
			"-0.01": 1.88696669278,
			"-0.009": 1.36423652262,
			"-0.008": 2.80350838176,
			"-0.007": 4.16114987543,
			"-0.006": 6.34653950985,
			"-0.005": 9.21518545891,
			"-0.004": 8.57747758175,
			"-0.003": 11.5782825029,
			"-0.002": 16.8855833888,
			"-0.001": 27.918250487,
			"0.0": 26.4303403823,
			"0.001": 17.1515655317,
			"0.002": 14.9070396193,
			"0.003": 16.6435299338,
			"0.004": 9.24132210337,
			"0.005": 2.92729141995,
			"0.006": 3.8034640857,
			"0.007": 4.7951392032,
			"0.008": 8.9256478932,
			"0.009": 5.57400013874,
			"0.01": 3.80011235075,
			"0.011": 0.975562996136,
			"0.012": 0.0,
			"0.013": 0.0,
			"0.014": 0.0,
			"0.015": 0.0,
			"0.016": 0.0,
			"0.017": 0.0,
			"0.018": 0.0,
			"0.019": 0.0,
			"0.02": 0.0,
			"0.021": 0.0,
			"0.022": 0.0,
			"0.023": 0.0,
			"0.024": 0.0,
			"0.025": 0.0
		}
	}
}
