{
	 "smiles": "CC1=CC2=C(C=CC=C2)N1CC(O)=O", 
	 "Tm": 458.15, 
	 "num_atms": 25, 
	 "gaussian": { 
		 "optdone": 1, 
		 "sigma_profile": "yes", 
		 "theory": "DFT", 
		 "functional": "B3LYP", 
		 "basiset": "6-31G**", 
		 "properties": { 
			 "R2extent": 3014.9549, 
			 "electric_dipole_moment_norm": 3.37564719721, 
			 "electric_quadrupole_moment_norm": 20.907088089, 
			 "total_energy": -631.015750597, 
			 "HOMO_LUMO_gap": 0.19257, 
			 "cosmo_polarized_energy": -14.39, 
			 "cosmo_cavitation_energy": 28.7, 
			 "cosmo_dispersion_energy": -20.36, 
			 "cosmo_repulsion_energy": 1.59, 
			 "cosmo_total_nonelectrostatic_energy": 9.93, 
			 "SMD_solvation_energy": 6.01 
		},
		"coords": [
			{
				"x": 2.7985473598,
				"y": -0.7589350994,
				"z": -1.5329763738,
				"element": "C" 
			},
			{
				"x": 1.8891667903,
				"y": -0.1528056522,
				"z": -0.513295879,
				"element": "C" 
			},
			{
				"x": 2.1707750337,
				"y": 0.3003756798,
				"z": 0.7484857734,
				"element": "C" 
			},
			{
				"x": 0.9522618053,
				"y": 0.7912715368,
				"z": 1.329304705,
				"element": "C" 
			},
			{
				"x": -0.0668375695,
				"y": 0.614035663,
				"z": 0.3561661097,
				"element": "C" 
			},
			{
				"x": -1.3938977308,
				"y": 0.9908771791,
				"z": 0.5859210036,
				"element": "C" 
			},
			{
				"x": -1.6959275229,
				"y": 1.5497563444,
				"z": 1.8246564819,
				"element": "C" 
			},
			{
				"x": -0.7014237186,
				"y": 1.7341477996,
				"z": 2.8047673232,
				"element": "C" 
			},
			{
				"x": 0.6167465762,
				"y": 1.3625376422,
				"z": 2.5680793564,
				"element": "C" 
			},
			{
				"x": 0.522987918,
				"y": 0.0431913793,
				"z": -0.7724895013,
				"element": "N" 
			},
			{
				"x": -0.1861699603,
				"y": -0.3688583698,
				"z": -1.9648089082,
				"element": "C" 
			},
			{
				"x": -0.2791972187,
				"y": 0.6899550106,
				"z": -3.0802121858,
				"element": "C" 
			},
			{
				"x": 0.2712019932,
				"y": 1.8888034067,
				"z": -2.8097956106,
				"element": "O" 
			},
			{
				"x": -0.8100694459,
				"y": 0.44642446,
				"z": -4.1341433291,
				"element": "O" 
			},
			{
				"x": 2.5235721561,
				"y": -1.793892784,
				"z": -1.7726863197,
				"element": "H" 
			},
			{
				"x": 2.8007077236,
				"y": -0.1948562212,
				"z": -2.4738003413,
				"element": "H" 
			},
			{
				"x": 3.8203706117,
				"y": -0.770548203,
				"z": -1.1485083233,
				"element": "H" 
			},
			{
				"x": 3.1481395127,
				"y": 0.284845842,
				"z": 1.2107602779,
				"element": "H" 
			},
			{
				"x": -2.1655305178,
				"y": 0.8637313223,
				"z": -0.1675206298,
				"element": "H" 
			},
			{
				"x": -2.7171287763,
				"y": 1.852567772,
				"z": 2.0354058347,
				"element": "H" 
			},
			{
				"x": -0.9723582688,
				"y": 2.1759384643,
				"z": 3.7590756141,
				"element": "H" 
			},
			{
				"x": 1.3783053148,
				"y": 1.5094392769,
				"z": 3.3287605948,
				"element": "H" 
			},
			{
				"x": 0.2869284389,
				"y": -1.2508959127,
				"z": -2.4026675967,
				"element": "H" 
			},
			{
				"x": -1.2073689071,
				"y": -0.6617278081,
				"z": -1.7050176082,
				"element": "H" 
			},
			{
				"x": 0.6174984023,
				"y": 1.8816212712,
				"z": -1.9014604681,
				"element": "H" 
			}
		],
		 "valence_orbital": [ 
			{
				"type": "occ",
				"energy": -0.31953,
				"method": "rhf"
			},
			{
				"type": "occ",
				"energy": -0.29124,
				"method": "rhf"
			},
			{
				"type": "occ",
				"energy": -0.27385,
				"method": "rhf"
			},
			{
				"type": "occ",
				"energy": -0.22888,
				"method": "rhf"
			},
			{
				"type": "occ",
				"energy": -0.2124,
				"method": "rhf"
			},
			{
				"type": "unocc",
				"energy": -0.01983,
				"method": "rhf"
			},
			{
				"type": "unocc",
				"energy": 0.00216,
				"method": "rhf"
			},
			{
				"type": "unocc",
				"energy": 0.01491,
				"method": "rhf"
			},
			{
				"type": "unocc",
				"energy": 0.05559,
				"method": "rhf"
			},
			{
				"type": "unocc",
				"energy": 0.0636,
				"method": "rhf"
			}
		],
		"cosmo_sigma_profile": { 
			"-0.025": 0.0,
			"-0.024": 0.0,
			"-0.023": 0.0,
			"-0.022": 0.0,
			"-0.021": 0.0,
			"-0.02": 0.0,
			"-0.019": 0.0,
			"-0.018": 0.0,
			"-0.017": 0.0,
			"-0.016": 0.0,
			"-0.015": 0.205083939482,
			"-0.014": 0.620520801752,
			"-0.013": 0.177645307419,
			"-0.012": 0.831714153668,
			"-0.011": 1.3281310214,
			"-0.01": 1.03846922478,
			"-0.009": 4.66653323018,
			"-0.008": 7.85297451113,
			"-0.007": 9.14185576763,
			"-0.006": 11.3022767449,
			"-0.005": 17.4014224424,
			"-0.004": 18.359547947,
			"-0.003": 17.7558254222,
			"-0.002": 16.2981314934,
			"-0.001": 14.4026053527,
			"0.0": 11.1662148852,
			"0.001": 9.07240047343,
			"0.002": 9.13258565876,
			"0.003": 10.0139315596,
			"0.004": 10.1420898936,
			"0.005": 12.8914578566,
			"0.006": 13.2876506405,
			"0.007": 8.59213439993,
			"0.008": 3.25476242316,
			"0.009": 3.68905130346,
			"0.01": 4.69239118805,
			"0.011": 4.97053477735,
			"0.012": 5.11280734633,
			"0.013": 1.28224568608,
			"0.014": 0.0,
			"0.015": 0.0,
			"0.016": 0.0,
			"0.017": 0.0,
			"0.018": 0.0,
			"0.019": 0.0,
			"0.02": 0.0,
			"0.021": 0.0,
			"0.022": 0.0,
			"0.023": 0.0,
			"0.024": 0.0,
			"0.025": 0.0
		}
	}
}
