{
	 "smiles": "FC(F)OCC(F)(F)C(F)(F)F", 
	 "Tm": 166.15, 
	 "num_atms": 15, 
	 "gaussian": { 
		 "optdone": 1, 
		 "sigma_profile": "yes", 
		 "theory": "DFT", 
		 "functional": "B3LYP", 
		 "basiset": "6-31G**", 
		 "properties": { 
			 "R2extent": 1937.3723, 
			 "electric_dipole_moment_norm": 2.6113919296, 
			 "electric_quadrupole_moment_norm": 7.73521998394, 
			 "total_energy": -928.320564865, 
			 "HOMO_LUMO_gap": 0.3736, 
			 "cosmo_polarized_energy": -7.13, 
			 "cosmo_cavitation_energy": 22.0, 
			 "cosmo_dispersion_energy": -15.21, 
			 "cosmo_repulsion_energy": 1.1, 
			 "cosmo_total_nonelectrostatic_energy": 7.89, 
			 "SMD_solvation_energy": 6.72 
		},
		"coords": [
			{
				"x": -1.9357110976,
				"y": 0.581540277,
				"z": 0.1654605699,
				"element": "F" 
			},
			{
				"x": -1.5310788542,
				"y": 0.9393065177,
				"z": -1.0786304304,
				"element": "C" 
			},
			{
				"x": -2.1920651605,
				"y": 2.0663927562,
				"z": -1.4087601428,
				"element": "F" 
			},
			{
				"x": -0.1888188176,
				"y": 1.2427548548,
				"z": -1.0821979449,
				"element": "O" 
			},
			{
				"x": 0.7047672754,
				"y": 0.2160088599,
				"z": -1.4640346322,
				"element": "C" 
			},
			{
				"x": 0.9592995462,
				"y": -0.8345959204,
				"z": -0.3837363469,
				"element": "C" 
			},
			{
				"x": -0.1705018053,
				"y": -1.5557802103,
				"z": -0.1467038771,
				"element": "F" 
			},
			{
				"x": 1.9094756343,
				"y": -1.6823496187,
				"z": -0.8724840956,
				"element": "F" 
			},
			{
				"x": 1.4719892375,
				"y": -0.301809708,
				"z": 0.9701797847,
				"element": "C" 
			},
			{
				"x": 1.8454401061,
				"y": -1.3217936173,
				"z": 1.7537282295,
				"element": "F" 
			},
			{
				"x": 0.5280019616,
				"y": 0.4028268995,
				"z": 1.5989161704,
				"element": "F" 
			},
			{
				"x": 2.5404269922,
				"y": 0.4910231561,
				"z": 0.7597508582,
				"element": "F" 
			},
			{
				"x": -1.7885706327,
				"y": 0.1343292285,
				"z": -1.7791729034,
				"element": "H" 
			},
			{
				"x": 1.6518058959,
				"y": 0.7023565191,
				"z": -1.7012040224,
				"element": "H" 
			},
			{
				"x": 0.3529397187,
				"y": -0.3273099942,
				"z": -2.3513112169,
				"element": "H" 
			}
		],
		 "valence_orbital": [ 
			{
				"type": "occ",
				"energy": -0.40518,
				"method": "rhf"
			},
			{
				"type": "occ",
				"energy": -0.39999,
				"method": "rhf"
			},
			{
				"type": "occ",
				"energy": -0.37868,
				"method": "rhf"
			},
			{
				"type": "occ",
				"energy": -0.36083,
				"method": "rhf"
			},
			{
				"type": "occ",
				"energy": -0.3247,
				"method": "rhf"
			},
			{
				"type": "unocc",
				"energy": 0.0489,
				"method": "rhf"
			},
			{
				"type": "unocc",
				"energy": 0.07034,
				"method": "rhf"
			},
			{
				"type": "unocc",
				"energy": 0.09434,
				"method": "rhf"
			},
			{
				"type": "unocc",
				"energy": 0.11727,
				"method": "rhf"
			},
			{
				"type": "unocc",
				"energy": 0.12945,
				"method": "rhf"
			}
		],
		"cosmo_sigma_profile": { 
			"-0.025": 0.0,
			"-0.024": 0.0,
			"-0.023": 0.0,
			"-0.022": 0.0,
			"-0.021": 0.0,
			"-0.02": 0.0,
			"-0.019": 0.0,
			"-0.018": 0.0,
			"-0.017": 0.0,
			"-0.016": 0.0,
			"-0.015": 0.0,
			"-0.014": 0.0,
			"-0.013": 0.00078676227479,
			"-0.012": 1.00889304327,
			"-0.011": 2.28370684566,
			"-0.01": 4.74322629671,
			"-0.009": 5.32917064125,
			"-0.008": 5.49121468817,
			"-0.007": 4.3718498734,
			"-0.006": 4.45001901626,
			"-0.005": 3.33498830186,
			"-0.004": 3.17058938689,
			"-0.003": 4.04646132782,
			"-0.002": 5.01529967965,
			"-0.001": 7.54781543809,
			"0.0": 14.1275472436,
			"0.001": 25.7792206744,
			"0.002": 34.884755744,
			"0.003": 21.9451665869,
			"0.004": 20.2204971899,
			"0.005": 2.97702235385,
			"0.006": 1.93116298347,
			"0.007": 1.41309588373,
			"0.008": 1.18802060646,
			"0.009": 0.250226404398,
			"0.01": 0.0,
			"0.011": 0.0,
			"0.012": 0.0,
			"0.013": 0.0,
			"0.014": 0.0,
			"0.015": 0.0,
			"0.016": 0.0,
			"0.017": 0.0,
			"0.018": 0.0,
			"0.019": 0.0,
			"0.02": 0.0,
			"0.021": 0.0,
			"0.022": 0.0,
			"0.023": 0.0,
			"0.024": 0.0,
			"0.025": 0.0
		}
	}
}
