{
	 "smiles": "CCN(CC)C(=O)C1=C(N)C=CC=C1", 
	 "Tm": 345.15, 
	 "num_atms": 30, 
	 "gaussian": { 
		 "optdone": 1, 
		 "sigma_profile": "yes", 
		 "theory": "DFT", 
		 "functional": "B3LYP", 
		 "basiset": "6-31G**", 
		 "properties": { 
			 "R2extent": 3303.279, 
			 "electric_dipole_moment_norm": 1.85563695264, 
			 "electric_quadrupole_moment_norm": 12.2494750892, 
			 "total_energy": -613.569450851, 
			 "HOMO_LUMO_gap": 0.17684, 
			 "cosmo_polarized_energy": -10.66, 
			 "cosmo_cavitation_energy": 31.28, 
			 "cosmo_dispersion_energy": -22.5, 
			 "cosmo_repulsion_energy": 1.78, 
			 "cosmo_total_nonelectrostatic_energy": 10.56, 
			 "SMD_solvation_energy": 5.42 
		},
		"coords": [
			{
				"x": 1.0774522601,
				"y": -1.3948208167,
				"z": 2.953452341,
				"element": "C" 
			},
			{
				"x": -0.3599400784,
				"y": -0.9247285694,
				"z": 2.7064730953,
				"element": "C" 
			},
			{
				"x": -0.5535200261,
				"y": -0.277520544,
				"z": 1.3991196467,
				"element": "N" 
			},
			{
				"x": -0.1764039091,
				"y": 1.1388440868,
				"z": 1.3151703734,
				"element": "C" 
			},
			{
				"x": -1.1802001636,
				"y": 2.0971218976,
				"z": 1.9642008142,
				"element": "C" 
			},
			{
				"x": -0.7008162044,
				"y": -1.1185189714,
				"z": 0.3194954003,
				"element": "C" 
			},
			{
				"x": -0.6305869623,
				"y": -2.3476447227,
				"z": 0.4752676352,
				"element": "O" 
			},
			{
				"x": -0.9740889477,
				"y": -0.5465475502,
				"z": -1.0396743132,
				"element": "C" 
			},
			{
				"x": -0.3683320575,
				"y": -1.1503452552,
				"z": -2.1769443521,
				"element": "C" 
			},
			{
				"x": 0.5282386196,
				"y": -2.1942521071,
				"z": -2.0409134363,
				"element": "N" 
			},
			{
				"x": -0.6590267389,
				"y": -0.6205902705,
				"z": -3.4499836561,
				"element": "C" 
			},
			{
				"x": -1.5564054129,
				"y": 0.4278550627,
				"z": -3.6072761909,
				"element": "C" 
			},
			{
				"x": -2.1990403323,
				"y": 0.9851678376,
				"z": -2.4977012524,
				"element": "C" 
			},
			{
				"x": -1.8969691724,
				"y": 0.4920855427,
				"z": -1.2317367806,
				"element": "C" 
			},
			{
				"x": 1.3551492567,
				"y": -2.1486033293,
				"z": 2.213994095,
				"element": "H" 
			},
			{
				"x": 1.1611514158,
				"y": -1.8398182598,
				"z": 3.950698729,
				"element": "H" 
			},
			{
				"x": 1.7923353543,
				"y": -0.5669049411,
				"z": 2.8980366074,
				"element": "H" 
			},
			{
				"x": -1.0376336444,
				"y": -1.778699253,
				"z": 2.7537645887,
				"element": "H" 
			},
			{
				"x": -0.6664978503,
				"y": -0.2098947688,
				"z": 3.4765519032,
				"element": "H" 
			},
			{
				"x": -0.0344138797,
				"y": 1.3965888343,
				"z": 0.2658012995,
				"element": "H" 
			},
			{
				"x": 0.80117674,
				"y": 1.2593590368,
				"z": 1.8018668076,
				"element": "H" 
			},
			{
				"x": -1.3257855185,
				"y": 1.8776823354,
				"z": 3.0262928463,
				"element": "H" 
			},
			{
				"x": -2.1577494528,
				"y": 2.0480647357,
				"z": 1.4762591889,
				"element": "H" 
			},
			{
				"x": -0.8125090458,
				"y": 3.1256928368,
				"z": 1.8870958911,
				"element": "H" 
			},
			{
				"x": 0.3702500218,
				"y": -2.7577974751,
				"z": -1.2125434615,
				"element": "H" 
			},
			{
				"x": 0.7066647854,
				"y": -2.7222768248,
				"z": -2.8826860712,
				"element": "H" 
			},
			{
				"x": -0.1791441513,
				"y": -1.0616644405,
				"z": -4.3204471871,
				"element": "H" 
			},
			{
				"x": -1.7685939093,
				"y": 0.8014995102,
				"z": -4.6054052382,
				"element": "H" 
			},
			{
				"x": -2.9229792029,
				"y": 1.784518041,
				"z": -2.6179504645,
				"element": "H" 
			},
			{
				"x": -2.4056817931,
				"y": 0.9014483419,
				"z": -0.3651788588,
				"element": "H" 
			}
		],
		 "valence_orbital": [ 
			{
				"type": "occ",
				"energy": -0.30455,
				"method": "rhf"
			},
			{
				"type": "occ",
				"energy": -0.25598,
				"method": "rhf"
			},
			{
				"type": "occ",
				"energy": -0.24149,
				"method": "rhf"
			},
			{
				"type": "occ",
				"energy": -0.23322,
				"method": "rhf"
			},
			{
				"type": "occ",
				"energy": -0.19797,
				"method": "rhf"
			},
			{
				"type": "unocc",
				"energy": -0.02113,
				"method": "rhf"
			},
			{
				"type": "unocc",
				"energy": 0.01508,
				"method": "rhf"
			},
			{
				"type": "unocc",
				"energy": 0.05385,
				"method": "rhf"
			},
			{
				"type": "unocc",
				"energy": 0.08113,
				"method": "rhf"
			},
			{
				"type": "unocc",
				"energy": 0.09703,
				"method": "rhf"
			}
		],
		"cosmo_sigma_profile": { 
			"-0.025": 0.0,
			"-0.024": 0.0,
			"-0.023": 0.0,
			"-0.022": 0.0,
			"-0.021": 0.0,
			"-0.02": 0.0,
			"-0.019": 0.0,
			"-0.018": 0.0,
			"-0.017": 0.0,
			"-0.016": 0.0,
			"-0.015": 0.0,
			"-0.014": 0.0,
			"-0.013": 0.207265539628,
			"-0.012": 1.19530443962,
			"-0.011": 1.42721661154,
			"-0.01": 1.34924047288,
			"-0.009": 1.46006917043,
			"-0.008": 1.93083672181,
			"-0.007": 2.33585070598,
			"-0.006": 6.02596134621,
			"-0.005": 13.0362983254,
			"-0.004": 21.2299105383,
			"-0.003": 26.8542114955,
			"-0.002": 27.8022041107,
			"-0.001": 25.3484793728,
			"0.0": 22.815799228,
			"0.001": 19.2653370171,
			"0.002": 11.9644619887,
			"0.003": 10.5714726085,
			"0.004": 9.56346044691,
			"0.005": 13.0473115921,
			"0.006": 9.19166725297,
			"0.007": 3.46044426269,
			"0.008": 2.6104967819,
			"0.009": 2.13697501887,
			"0.01": 1.77280438938,
			"0.011": 2.19471095914,
			"0.012": 2.04833796756,
			"0.013": 3.01961355531,
			"0.014": 2.32188165135,
			"0.015": 0.000833942722606,
			"0.016": 0.0,
			"0.017": 0.0,
			"0.018": 0.0,
			"0.019": 0.0,
			"0.02": 0.0,
			"0.021": 0.0,
			"0.022": 0.0,
			"0.023": 0.0,
			"0.024": 0.0,
			"0.025": 0.0
		}
	}
}
