{
	 "smiles": "C1=CC=NN=C1", 
	 "Tm": 265.15, 
	 "num_atms": 10, 
	 "gaussian": { 
		 "optdone": 1, 
		 "sigma_profile": "yes", 
		 "theory": "DFT", 
		 "functional": "B3LYP", 
		 "basiset": "6-31G**", 
		 "properties": { 
			 "R2extent": 414.0663, 
			 "electric_dipole_moment_norm": 4.08724389656, 
			 "electric_quadrupole_moment_norm": 4.55695308183, 
			 "total_energy": -264.287401434, 
			 "HOMO_LUMO_gap": 0.18164, 
			 "cosmo_polarized_energy": -10.56, 
			 "cosmo_cavitation_energy": 14.09, 
			 "cosmo_dispersion_energy": -10.75, 
			 "cosmo_repulsion_energy": 0.92, 
			 "cosmo_total_nonelectrostatic_energy": 4.27, 
			 "SMD_solvation_energy": 1.14 
		},
		"coords": [
			{
				"x": -0.4414298514,
				"y": -0.3657488924,
				"z": -1.2506312445,
				"element": "C" 
			},
			{
				"x": 0.6130914071,
				"y": -1.0290577,
				"z": -0.6467436707,
				"element": "C" 
			},
			{
				"x": 0.9833949807,
				"y": -0.5951357099,
				"z": 0.6302632853,
				"element": "C" 
			},
			{
				"x": 0.3807796524,
				"y": 0.4061626698,
				"z": 1.2788742572,
				"element": "N" 
			},
			{
				"x": -0.6361650782,
				"y": 1.0458593885,
				"z": 0.6964935741,
				"element": "N" 
			},
			{
				"x": -1.0326469397,
				"y": 0.6730128783,
				"z": -0.5242579659,
				"element": "C" 
			},
			{
				"x": -0.8016592311,
				"y": -0.6296518671,
				"z": -2.240175441,
				"element": "H" 
			},
			{
				"x": 1.1357997619,
				"y": -1.8483209032,
				"z": -1.1306791712,
				"element": "H" 
			},
			{
				"x": 1.801786486,
				"y": -1.0654893571,
				"z": 1.1698590293,
				"element": "H" 
			},
			{
				"x": -1.8657511877,
				"y": 1.2414694931,
				"z": -0.9304026527,
				"element": "H" 
			}
		],
		 "valence_orbital": [ 
			{
				"type": "occ",
				"energy": -0.41461,
				"method": "rhf"
			},
			{
				"type": "occ",
				"energy": -0.31007,
				"method": "rhf"
			},
			{
				"type": "occ",
				"energy": -0.30895,
				"method": "rhf"
			},
			{
				"type": "occ",
				"energy": -0.29453,
				"method": "rhf"
			},
			{
				"type": "occ",
				"energy": -0.23307,
				"method": "rhf"
			},
			{
				"type": "unocc",
				"energy": -0.05143,
				"method": "rhf"
			},
			{
				"type": "unocc",
				"energy": -0.03011,
				"method": "rhf"
			},
			{
				"type": "unocc",
				"energy": 0.08552,
				"method": "rhf"
			},
			{
				"type": "unocc",
				"energy": 0.12306,
				"method": "rhf"
			},
			{
				"type": "unocc",
				"energy": 0.12982,
				"method": "rhf"
			}
		],
		"cosmo_sigma_profile": { 
			"-0.025": 0.0,
			"-0.024": 0.0,
			"-0.023": 0.0,
			"-0.022": 0.0,
			"-0.021": 0.0,
			"-0.02": 0.0,
			"-0.019": 0.0,
			"-0.018": 0.0,
			"-0.017": 0.0,
			"-0.016": 0.0,
			"-0.015": 0.0,
			"-0.014": 0.0,
			"-0.013": 0.0,
			"-0.012": 0.0,
			"-0.011": 0.0,
			"-0.01": 0.0,
			"-0.009": 0.870136157065,
			"-0.008": 8.16145423865,
			"-0.007": 11.6570079066,
			"-0.006": 8.29900782651,
			"-0.005": 6.04866738062,
			"-0.004": 5.68920047035,
			"-0.003": 5.31963079018,
			"-0.002": 6.39111822336,
			"-0.001": 9.23912232564,
			"0.0": 14.6737552444,
			"0.001": 5.51081562094,
			"0.002": 2.51248333362,
			"0.003": 3.01698672628,
			"0.004": 1.61218296898,
			"0.005": 1.78517784902,
			"0.006": 2.41036899394,
			"0.007": 1.6760509704,
			"0.008": 1.80628145882,
			"0.009": 1.6528280733,
			"0.01": 2.27738380819,
			"0.011": 1.3277147933,
			"0.012": 2.37217453095,
			"0.013": 2.35618201095,
			"0.014": 2.92192995999,
			"0.015": 2.34454629534,
			"0.016": 1.78683200133,
			"0.017": 0.185992379257,
			"0.018": 0.0,
			"0.019": 0.0,
			"0.02": 0.0,
			"0.021": 0.0,
			"0.022": 0.0,
			"0.023": 0.0,
			"0.024": 0.0,
			"0.025": 0.0
		}
	}
}
