{
	 "smiles": "CC1=C(C)C2=C(N=CC=C2)C2=C1C=CC=N2", 
	 "Tm": 540.65, 
	 "num_atms": 28, 
	 "gaussian": { 
		 "optdone": 1, 
		 "sigma_profile": "yes", 
		 "theory": "DFT", 
		 "functional": "B3LYP", 
		 "basiset": "6-31G**", 
		 "properties": { 
			 "R2extent": 3782.3969, 
			 "electric_dipole_moment_norm": 3.84518496304, 
			 "electric_quadrupole_moment_norm": 12.5358537914, 
			 "total_energy": -650.242344676, 
			 "HOMO_LUMO_gap": 0.174, 
			 "cosmo_polarized_energy": -14.16, 
			 "cosmo_cavitation_energy": 30.26, 
			 "cosmo_dispersion_energy": -22.82, 
			 "cosmo_repulsion_energy": 1.71, 
			 "cosmo_total_nonelectrostatic_energy": 9.15, 
			 "SMD_solvation_energy": 2.36 
		},
		"coords": [
			{
				"x": -3.0347124383,
				"y": 2.6161209453,
				"z": 0.9331940683,
				"element": "C" 
			},
			{
				"x": -2.0797487813,
				"y": 1.5742525684,
				"z": 0.391971019,
				"element": "C" 
			},
			{
				"x": -1.3352998323,
				"y": 1.7488446824,
				"z": -0.7526244576,
				"element": "C" 
			},
			{
				"x": -1.388327378,
				"y": 3.0021102446,
				"z": -1.5993221398,
				"element": "C" 
			},
			{
				"x": -0.4398990533,
				"y": 0.6950710601,
				"z": -1.2024691353,
				"element": "C" 
			},
			{
				"x": -0.3126322213,
				"y": -0.5252348122,
				"z": -0.4821904892,
				"element": "C" 
			},
			{
				"x": 0.5079877029,
				"y": -1.5280643355,
				"z": -0.8675248145,
				"element": "N" 
			},
			{
				"x": 1.2263068154,
				"y": -1.3663004592,
				"z": -1.9661382266,
				"element": "C" 
			},
			{
				"x": 1.1839309523,
				"y": -0.2052136761,
				"z": -2.7584880044,
				"element": "C" 
			},
			{
				"x": 0.3482443446,
				"y": 0.8230981057,
				"z": -2.3714088112,
				"element": "C" 
			},
			{
				"x": -1.100372928,
				"y": -0.7100562291,
				"z": 0.7283704976,
				"element": "C" 
			},
			{
				"x": -1.9685513479,
				"y": 0.3364662074,
				"z": 1.1469685142,
				"element": "C" 
			},
			{
				"x": -2.7110606898,
				"y": 0.1053325421,
				"z": 2.3298788786,
				"element": "C" 
			},
			{
				"x": -2.5716888437,
				"y": -1.0864021224,
				"z": 3.0124949436,
				"element": "C" 
			},
			{
				"x": -1.6818556374,
				"y": -2.0486567224,
				"z": 2.5025902404,
				"element": "C" 
			},
			{
				"x": -0.9691208107,
				"y": -1.874652095,
				"z": 1.4022106988,
				"element": "N" 
			},
			{
				"x": -2.7507584247,
				"y": 2.9209947331,
				"z": 1.9472863385,
				"element": "H" 
			},
			{
				"x": -3.0739565264,
				"y": 3.5180092038,
				"z": 0.3262293224,
				"element": "H" 
			},
			{
				"x": -4.0557855167,
				"y": 2.2213155135,
				"z": 0.9921817191,
				"element": "H" 
			},
			{
				"x": -1.7036466237,
				"y": 2.7717357182,
				"z": -2.623744388,
				"element": "H" 
			},
			{
				"x": -2.0756910057,
				"y": 3.7514929293,
				"z": -1.2129522503,
				"element": "H" 
			},
			{
				"x": -0.4007772489,
				"y": 3.4733930223,
				"z": -1.6671180137,
				"element": "H" 
			},
			{
				"x": 1.8757534899,
				"y": -2.1955691288,
				"z": -2.2451166736,
				"element": "H" 
			},
			{
				"x": 1.7960526546,
				"y": -0.1257704302,
				"z": -3.651637266,
				"element": "H" 
			},
			{
				"x": 0.2999479832,
				"y": 1.7270646499,
				"z": -2.9672904704,
				"element": "H" 
			},
			{
				"x": -3.3913527172,
				"y": 0.8609890404,
				"z": 2.7050579587,
				"element": "H" 
			},
			{
				"x": -3.1324220886,
				"y": -1.2821888487,
				"z": 3.9213224807,
				"element": "H" 
			},
			{
				"x": -1.5496638291,
				"y": -2.9992823068,
				"z": 3.018468461,
				"element": "H" 
			}
		],
		 "valence_orbital": [ 
			{
				"type": "occ",
				"energy": -0.28382,
				"method": "rhf"
			},
			{
				"type": "occ",
				"energy": -0.2509,
				"method": "rhf"
			},
			{
				"type": "occ",
				"energy": -0.23774,
				"method": "rhf"
			},
			{
				"type": "occ",
				"energy": -0.23369,
				"method": "rhf"
			},
			{
				"type": "occ",
				"energy": -0.22159,
				"method": "rhf"
			},
			{
				"type": "unocc",
				"energy": -0.04759,
				"method": "rhf"
			},
			{
				"type": "unocc",
				"energy": -0.0461,
				"method": "rhf"
			},
			{
				"type": "unocc",
				"energy": -0.00281,
				"method": "rhf"
			},
			{
				"type": "unocc",
				"energy": 0.02894,
				"method": "rhf"
			},
			{
				"type": "unocc",
				"energy": 0.06431,
				"method": "rhf"
			}
		],
		"cosmo_sigma_profile": { 
			"-0.025": 0.0,
			"-0.024": 0.0,
			"-0.023": 0.0,
			"-0.022": 0.0,
			"-0.021": 0.0,
			"-0.02": 0.0,
			"-0.019": 0.0,
			"-0.018": 0.0,
			"-0.017": 0.0,
			"-0.016": 0.0,
			"-0.015": 0.0,
			"-0.014": 0.0,
			"-0.013": 0.0,
			"-0.012": 0.0,
			"-0.011": 0.0,
			"-0.01": 0.0,
			"-0.009": 0.0,
			"-0.008": 0.0,
			"-0.007": 4.97414755827,
			"-0.006": 16.292029692,
			"-0.005": 22.8625656252,
			"-0.004": 20.7867274291,
			"-0.003": 18.5933698202,
			"-0.002": 16.8756960516,
			"-0.001": 19.361027466,
			"0.0": 20.6828529037,
			"0.001": 23.5626366438,
			"0.002": 32.2363916611,
			"0.003": 17.9980814458,
			"0.004": 4.05758269585,
			"0.005": 2.5875612323,
			"0.006": 2.54463763341,
			"0.007": 1.7256623788,
			"0.008": 2.2862956696,
			"0.009": 1.82512859559,
			"0.01": 0.622398362478,
			"0.011": 1.90419631904,
			"0.012": 1.52861852259,
			"0.013": 1.22718277575,
			"0.014": 1.10246813618,
			"0.015": 0.902736924706,
			"0.016": 1.6234773991,
			"0.017": 0.656430198377,
			"0.018": 0.598078112028,
			"0.019": 1.19228634523,
			"0.02": 0.716505275063,
			"0.021": 0.763472253699,
			"0.022": 0.582488282594,
			"0.023": 0.0343319838072,
			"0.024": 0.0,
			"0.025": 0.0
		}
	}
}
