{
	 "smiles": "CC1=C(C=CO1)C(=O)NC1=CC=CC=C1", 
	 "Tm": 383.15, 
	 "num_atms": 26, 
	 "gaussian": { 
		 "optdone": 1, 
		 "sigma_profile": "yes", 
		 "theory": "DFT", 
		 "functional": "B3LYP", 
		 "basiset": "6-31G**", 
		 "properties": { 
			 "R2extent": 3362.7384, 
			 "electric_dipole_moment_norm": 3.124048023, 
			 "electric_quadrupole_moment_norm": 15.1714116832, 
			 "total_energy": -669.096865333, 
			 "HOMO_LUMO_gap": 0.19561, 
			 "cosmo_polarized_energy": -11.7, 
			 "cosmo_cavitation_energy": 30.12, 
			 "cosmo_dispersion_energy": -21.12, 
			 "cosmo_repulsion_energy": 1.65, 
			 "cosmo_total_nonelectrostatic_energy": 10.66, 
			 "SMD_solvation_energy": 6.83 
		},
		"coords": [
			{
				"x": 1.7669012676,
				"y": 0.948730508,
				"z": -0.4976815021,
				"element": "C" 
			},
			{
				"x": 1.8090772935,
				"y": -0.301700578,
				"z": -1.3043880667,
				"element": "C" 
			},
			{
				"x": 1.4652037862,
				"y": -1.6137489983,
				"z": -1.0761411754,
				"element": "C" 
			},
			{
				"x": 1.8307807441,
				"y": -2.3431275589,
				"z": -2.263738218,
				"element": "C" 
			},
			{
				"x": 2.3337771506,
				"y": -1.4305865057,
				"z": -3.1287289687,
				"element": "C" 
			},
			{
				"x": 2.334446415,
				"y": -0.1851698073,
				"z": -2.5563450347,
				"element": "O" 
			},
			{
				"x": 0.9766301293,
				"y": -2.2786543082,
				"z": 0.1540858782,
				"element": "C" 
			},
			{
				"x": 1.369643649,
				"y": -3.3983065194,
				"z": 0.4636283582,
				"element": "O" 
			},
			{
				"x": 0.1052359127,
				"y": -1.6029770311,
				"z": 1.0008432462,
				"element": "N" 
			},
			{
				"x": -0.874544152,
				"y": -0.6154247177,
				"z": 0.7320550379,
				"element": "C" 
			},
			{
				"x": -1.2962859722,
				"y": 0.1988982398,
				"z": 1.7940366818,
				"element": "C" 
			},
			{
				"x": -2.2887971794,
				"y": 1.1572887783,
				"z": 1.5980799711,
				"element": "C" 
			},
			{
				"x": -2.8620035797,
				"y": 1.3312103378,
				"z": 0.3370143662,
				"element": "C" 
			},
			{
				"x": -2.4441214567,
				"y": 0.5205109251,
				"z": -0.7201386883,
				"element": "C" 
			},
			{
				"x": -1.4694565635,
				"y": -0.4588157569,
				"z": -0.5285324119,
				"element": "C" 
			},
			{
				"x": 0.9257144666,
				"y": 1.5877032292,
				"z": -0.7911072246,
				"element": "H" 
			},
			{
				"x": 1.6554143337,
				"y": 0.7145413118,
				"z": 0.5615803988,
				"element": "H" 
			},
			{
				"x": 2.6900341218,
				"y": 1.5187455763,
				"z": -0.6392880934,
				"element": "H" 
			},
			{
				"x": 1.7191708123,
				"y": -3.4065719157,
				"z": -2.4123481658,
				"element": "H" 
			},
			{
				"x": 2.7261373937,
				"y": -1.4849756838,
				"z": -4.1319361441,
				"element": "H" 
			},
			{
				"x": -0.0144199993,
				"y": -2.1145431304,
				"z": 1.8677273707,
				"element": "H" 
			},
			{
				"x": -0.8362597306,
				"y": 0.0775139732,
				"z": 2.7711678079,
				"element": "H" 
			},
			{
				"x": -2.6060221278,
				"y": 1.7758590969,
				"z": 2.432711232,
				"element": "H" 
			},
			{
				"x": -3.6289815528,
				"y": 2.0835906178,
				"z": 0.1814877298,
				"element": "H" 
			},
			{
				"x": -2.894081348,
				"y": 0.633315954,
				"z": -1.7024299842,
				"element": "H" 
			},
			{
				"x": -1.1761938142,
				"y": -1.1025060368,
				"z": -1.3493144007,
				"element": "H" 
			}
		],
		 "valence_orbital": [ 
			{
				"type": "occ",
				"energy": -0.28027,
				"method": "rhf"
			},
			{
				"type": "occ",
				"energy": -0.25936,
				"method": "rhf"
			},
			{
				"type": "occ",
				"energy": -0.25247,
				"method": "rhf"
			},
			{
				"type": "occ",
				"energy": -0.22967,
				"method": "rhf"
			},
			{
				"type": "occ",
				"energy": -0.22212,
				"method": "rhf"
			},
			{
				"type": "unocc",
				"energy": -0.02651,
				"method": "rhf"
			},
			{
				"type": "unocc",
				"energy": -0.01119,
				"method": "rhf"
			},
			{
				"type": "unocc",
				"energy": 0.0023,
				"method": "rhf"
			},
			{
				"type": "unocc",
				"energy": 0.03059,
				"method": "rhf"
			},
			{
				"type": "unocc",
				"energy": 0.08732,
				"method": "rhf"
			}
		],
		"cosmo_sigma_profile": { 
			"-0.025": 0.0,
			"-0.024": 0.0,
			"-0.023": 0.0,
			"-0.022": 0.0,
			"-0.021": 0.0,
			"-0.02": 0.0,
			"-0.019": 0.0,
			"-0.018": 0.0,
			"-0.017": 0.0,
			"-0.016": 0.0,
			"-0.015": 0.0,
			"-0.014": 0.650035487678,
			"-0.013": 1.24178790377,
			"-0.012": 0.537439781454,
			"-0.011": 1.01816509122,
			"-0.01": 0.962621568203,
			"-0.009": 2.79892717947,
			"-0.008": 3.53286989287,
			"-0.007": 4.12839276444,
			"-0.006": 9.74825387329,
			"-0.005": 17.8475259708,
			"-0.004": 19.1475016318,
			"-0.003": 18.5691303563,
			"-0.002": 19.7859967327,
			"-0.001": 20.6188383245,
			"0.0": 18.8028125803,
			"0.001": 16.7058826373,
			"0.002": 16.8550377616,
			"0.003": 14.7253153073,
			"0.004": 13.8169338187,
			"0.005": 13.1364025932,
			"0.006": 4.68890175971,
			"0.007": 3.61701458044,
			"0.008": 2.33408515907,
			"0.009": 0.979301367117,
			"0.01": 1.71049740055,
			"0.011": 2.14832629739,
			"0.012": 2.3993147944,
			"0.013": 5.5184390943,
			"0.014": 2.55228549077,
			"0.015": 0.039730988193,
			"0.016": 0.0,
			"0.017": 0.0,
			"0.018": 0.0,
			"0.019": 0.0,
			"0.02": 0.0,
			"0.021": 0.0,
			"0.022": 0.0,
			"0.023": 0.0,
			"0.024": 0.0,
			"0.025": 0.0
		}
	}
}
