{
	 "smiles": "OC(=O)C1=C(O)C=CC(=C1)N=NC1=CC=C(C=C1)S(=O)(=O)NC1=NC=CC=C1", 
	 "Tm": 535.15, 
	 "num_atms": 42, 
	 "gaussian": { 
		 "optdone": 1, 
		 "sigma_profile": "yes", 
		 "theory": "DFT", 
		 "functional": "B3LYP", 
		 "basiset": "6-31G**", 
		 "properties": { 
			 "R2extent": 21498.8808, 
			 "electric_dipole_moment_norm": 5.72074360027, 
			 "electric_quadrupole_moment_norm": 38.4511483938, 
			 "total_energy": -1687.57423273, 
			 "HOMO_LUMO_gap": 0.13514, 
			 "cosmo_polarized_energy": -25.26, 
			 "cosmo_cavitation_energy": 50.44, 
			 "cosmo_dispersion_energy": -36.7, 
			 "cosmo_repulsion_energy": 2.69, 
			 "cosmo_total_nonelectrostatic_energy": 16.43, 
			 "SMD_solvation_energy": 7.62 
		},
		"coords": [
			{
				"x": 7.4499388061,
				"y": -2.7453376631,
				"z": -2.9764480259,
				"element": "O" 
			},
			{
				"x": 6.5342880712,
				"y": -2.5928151777,
				"z": -1.960379688,
				"element": "C" 
			},
			{
				"x": 6.8500945051,
				"y": -2.8026720442,
				"z": -0.8102492964,
				"element": "O" 
			},
			{
				"x": 5.2015611741,
				"y": -2.1659733941,
				"z": -2.4351187413,
				"element": "C" 
			},
			{
				"x": 4.8681697426,
				"y": -1.9268988261,
				"z": -3.7932094189,
				"element": "C" 
			},
			{
				"x": 5.7205136721,
				"y": -2.0576220532,
				"z": -4.8236532419,
				"element": "O" 
			},
			{
				"x": 3.5563081023,
				"y": -1.5215203895,
				"z": -4.1200750043,
				"element": "C" 
			},
			{
				"x": 2.6002294164,
				"y": -1.3560606226,
				"z": -3.1407120223,
				"element": "C" 
			},
			{
				"x": 2.9213247297,
				"y": -1.5915796966,
				"z": -1.7837764567,
				"element": "C" 
			},
			{
				"x": 4.2128202194,
				"y": -1.9916913089,
				"z": -1.4544232688,
				"element": "C" 
			},
			{
				"x": 2.0234784825,
				"y": -1.453639779,
				"z": -0.7060971059,
				"element": "N" 
			},
			{
				"x": 0.8595390238,
				"y": -1.08566131,
				"z": -1.0272633774,
				"element": "N" 
			},
			{
				"x": -0.0368258029,
				"y": -0.9515373228,
				"z": 0.0638454462,
				"element": "C" 
			},
			{
				"x": -1.3321148463,
				"y": -0.5333560913,
				"z": -0.2721253578,
				"element": "C" 
			},
			{
				"x": -2.2997162786,
				"y": -0.3660156306,
				"z": 0.7145664291,
				"element": "C" 
			},
			{
				"x": -1.950882771,
				"y": -0.622215078,
				"z": 2.0406466022,
				"element": "C" 
			},
			{
				"x": -0.6654304741,
				"y": -1.0503537079,
				"z": 2.3957354091,
				"element": "C" 
			},
			{
				"x": 0.2938335602,
				"y": -1.2127037144,
				"z": 1.4056714559,
				"element": "C" 
			},
			{
				"x": -3.1844732947,
				"y": -0.4529381836,
				"z": 3.3264032667,
				"element": "S" 
			},
			{
				"x": -4.5052293435,
				"y": -0.6314274639,
				"z": 2.731583224,
				"element": "O" 
			},
			{
				"x": -2.7523030829,
				"y": -1.2372777514,
				"z": 4.4877780111,
				"element": "O" 
			},
			{
				"x": -2.9894479352,
				"y": 1.1468415878,
				"z": 3.8966786565,
				"element": "N" 
			},
			{
				"x": -3.5573622662,
				"y": 2.2904755442,
				"z": 3.3173802589,
				"element": "C" 
			},
			{
				"x": -3.7594151526,
				"y": 2.2680477802,
				"z": 1.9987708758,
				"element": "N" 
			},
			{
				"x": -4.2683017794,
				"y": 3.3683534968,
				"z": 1.43013049,
				"element": "C" 
			},
			{
				"x": -4.5774067149,
				"y": 4.5315759481,
				"z": 2.1289772627,
				"element": "C" 
			},
			{
				"x": -4.351043254,
				"y": 4.5424340181,
				"z": 3.5084019015,
				"element": "C" 
			},
			{
				"x": -3.8393654989,
				"y": 3.4078474449,
				"z": 4.1235594136,
				"element": "C" 
			},
			{
				"x": 8.2827181696,
				"y": -3.0249980747,
				"z": -2.5617704886,
				"element": "H" 
			},
			{
				"x": 6.5900247927,
				"y": -2.3404683481,
				"z": -4.4868906934,
				"element": "H" 
			},
			{
				"x": 3.3313248283,
				"y": -1.3467868422,
				"z": -5.1668531057,
				"element": "H" 
			},
			{
				"x": 1.5919375145,
				"y": -1.0452328093,
				"z": -3.3894942783,
				"element": "H" 
			},
			{
				"x": 4.4659583885,
				"y": -2.1744884611,
				"z": -0.4161434792,
				"element": "H" 
			},
			{
				"x": -1.5577109627,
				"y": -0.3469934054,
				"z": -1.3169052091,
				"element": "H" 
			},
			{
				"x": -3.3028672436,
				"y": -0.0356383628,
				"z": 0.4768617146,
				"element": "H" 
			},
			{
				"x": -0.4389079517,
				"y": -1.2659269836,
				"z": 3.4340506454,
				"element": "H" 
			},
			{
				"x": 1.2971986774,
				"y": -1.544901843,
				"z": 1.6441289819,
				"element": "H" 
			},
			{
				"x": -2.8912943204,
				"y": 1.1306130849,
				"z": 4.905426714,
				"element": "H" 
			},
			{
				"x": -4.4290213332,
				"y": 3.3112582395,
				"z": 0.3552790495,
				"element": "H" 
			},
			{
				"x": -4.9819696271,
				"y": 5.3955528902,
				"z": 1.6133920317,
				"element": "H" 
			},
			{
				"x": -4.5790238228,
				"y": 5.4237826455,
				"z": 4.1007779176,
				"element": "H" 
			},
			{
				"x": -3.6632481197,
				"y": 3.3783496591,
				"z": 5.1945425019,
				"element": "H" 
			}
		],
		 "valence_orbital": [ 
			{
				"type": "occ",
				"energy": -0.27239,
				"method": "rhf"
			},
			{
				"type": "occ",
				"energy": -0.26245,
				"method": "rhf"
			},
			{
				"type": "occ",
				"energy": -0.23913,
				"method": "rhf"
			},
			{
				"type": "occ",
				"energy": -0.23616,
				"method": "rhf"
			},
			{
				"type": "occ",
				"energy": -0.2284,
				"method": "rhf"
			},
			{
				"type": "unocc",
				"energy": -0.09326,
				"method": "rhf"
			},
			{
				"type": "unocc",
				"energy": -0.0605,
				"method": "rhf"
			},
			{
				"type": "unocc",
				"energy": -0.02988,
				"method": "rhf"
			},
			{
				"type": "unocc",
				"energy": -0.01639,
				"method": "rhf"
			},
			{
				"type": "unocc",
				"energy": -0.01265,
				"method": "rhf"
			}
		],
		"cosmo_sigma_profile": { 
			"-0.025": 0.0,
			"-0.024": 0.0,
			"-0.023": 0.0,
			"-0.022": 0.0,
			"-0.021": 0.0,
			"-0.02": 0.0514108022363,
			"-0.019": 1.0598599174,
			"-0.018": 0.551959614534,
			"-0.017": 1.07848120874,
			"-0.016": 1.64627562344,
			"-0.015": 1.53846777684,
			"-0.014": 2.1600768892,
			"-0.013": 1.47670710066,
			"-0.012": 2.11675779006,
			"-0.011": 2.36844866267,
			"-0.01": 2.01872378274,
			"-0.009": 2.61066558654,
			"-0.008": 4.52662632654,
			"-0.007": 14.806882702,
			"-0.006": 22.6003483568,
			"-0.005": 22.7270190838,
			"-0.004": 21.0019992376,
			"-0.003": 21.5096835411,
			"-0.002": 20.4741934534,
			"-0.001": 22.8584894318,
			"0.0": 39.2797917094,
			"0.001": 52.2953555894,
			"0.002": 34.5154403998,
			"0.003": 24.5771723659,
			"0.004": 14.6090491933,
			"0.005": 9.58545825671,
			"0.006": 9.62107651823,
			"0.007": 10.115272146,
			"0.008": 6.83578475439,
			"0.009": 8.13925100235,
			"0.01": 14.2390424324,
			"0.011": 12.2348519119,
			"0.012": 1.08282647,
			"0.013": 0.0,
			"0.014": 0.0,
			"0.015": 0.0,
			"0.016": 0.0,
			"0.017": 0.0,
			"0.018": 0.0,
			"0.019": 0.0,
			"0.02": 0.0,
			"0.021": 0.0,
			"0.022": 0.0,
			"0.023": 0.0,
			"0.024": 0.0,
			"0.025": 0.0
		}
	}
}
