{
	 "smiles": "OC1=CC=C2C=CC=CC2=C1N=O", 
	 "Tm": 383.15, 
	 "num_atms": 20, 
	 "gaussian": { 
		 "optdone": 1, 
		 "sigma_profile": "yes", 
		 "theory": "DFT", 
		 "functional": "B3LYP", 
		 "basiset": "6-31G**", 
		 "properties": { 
			 "R2extent": 2360.8926, 
			 "electric_dipole_moment_norm": 5.53460401294, 
			 "electric_quadrupole_moment_norm": 16.2870052975, 
			 "total_energy": -590.396467061, 
			 "HOMO_LUMO_gap": 0.10308, 
			 "cosmo_polarized_energy": -16.99, 
			 "cosmo_cavitation_energy": 24.43, 
			 "cosmo_dispersion_energy": -18.44, 
			 "cosmo_repulsion_energy": 1.42, 
			 "cosmo_total_nonelectrostatic_energy": 7.42, 
			 "SMD_solvation_energy": 4.6 
		},
		"coords": [
			{
				"x": -1.9573366696,
				"y": -1.3828221433,
				"z": -1.6437052247,
				"element": "O" 
			},
			{
				"x": -0.9608274907,
				"y": -0.8906028925,
				"z": -0.877811117,
				"element": "C" 
			},
			{
				"x": -0.4802145862,
				"y": -1.6380334314,
				"z": 0.2261023085,
				"element": "C" 
			},
			{
				"x": 0.5315897215,
				"y": -1.1396389738,
				"z": 1.0038901416,
				"element": "C" 
			},
			{
				"x": 1.1259208273,
				"y": 0.1240210282,
				"z": 0.7357843953,
				"element": "C" 
			},
			{
				"x": 2.1710493,
				"y": 0.6113765937,
				"z": 1.5596207585,
				"element": "C" 
			},
			{
				"x": 2.7539584913,
				"y": 1.8341046507,
				"z": 1.3092070897,
				"element": "C" 
			},
			{
				"x": 2.2995655102,
				"y": 2.6032434219,
				"z": 0.2187214521,
				"element": "C" 
			},
			{
				"x": 1.2818796612,
				"y": 2.1575747945,
				"z": -0.6052397093,
				"element": "C" 
			},
			{
				"x": 0.6589819635,
				"y": 0.902223897,
				"z": -0.3759278812,
				"element": "C" 
			},
			{
				"x": -0.4105713032,
				"y": 0.3666422401,
				"z": -1.1909899111,
				"element": "C" 
			},
			{
				"x": -1.0242385136,
				"y": 0.955982403,
				"z": -2.3254346313,
				"element": "N" 
			},
			{
				"x": -0.6147434432,
				"y": 2.0602351995,
				"z": -2.6864551398,
				"element": "O" 
			},
			{
				"x": -2.223219582,
				"y": -2.2456734232,
				"z": -1.2980728209,
				"element": "H" 
			},
			{
				"x": -0.923154103,
				"y": -2.6069417496,
				"z": 0.4457215428,
				"element": "H" 
			},
			{
				"x": 0.8965085015,
				"y": -1.7169648013,
				"z": 1.8494577132,
				"element": "H" 
			},
			{
				"x": 2.5033601395,
				"y": -0.0007332524,
				"z": 2.3942564459,
				"element": "H" 
			},
			{
				"x": 3.5544517956,
				"y": 2.2032574206,
				"z": 1.943076128,
				"element": "H" 
			},
			{
				"x": 2.7562707449,
				"y": 3.5682424488,
				"z": 0.0175006611,
				"element": "H" 
			},
			{
				"x": 0.947269035,
				"y": 2.7596065697,
				"z": -1.4354022014,
				"element": "H" 
			}
		],
		 "valence_orbital": [ 
			{
				"type": "occ",
				"energy": -0.32346,
				"method": "rhf"
			},
			{
				"type": "occ",
				"energy": -0.28872,
				"method": "rhf"
			},
			{
				"type": "occ",
				"energy": -0.24887,
				"method": "rhf"
			},
			{
				"type": "occ",
				"energy": -0.22648,
				"method": "rhf"
			},
			{
				"type": "occ",
				"energy": -0.19416,
				"method": "rhf"
			},
			{
				"type": "unocc",
				"energy": -0.09108,
				"method": "rhf"
			},
			{
				"type": "unocc",
				"energy": -0.02519,
				"method": "rhf"
			},
			{
				"type": "unocc",
				"energy": -0.0156,
				"method": "rhf"
			},
			{
				"type": "unocc",
				"energy": 0.03496,
				"method": "rhf"
			},
			{
				"type": "unocc",
				"energy": 0.05222,
				"method": "rhf"
			}
		],
		"cosmo_sigma_profile": { 
			"-0.025": 0.0,
			"-0.024": 0.0,
			"-0.023": 0.0,
			"-0.022": 0.0,
			"-0.021": 0.0,
			"-0.02": 0.0688174283544,
			"-0.019": 1.33971647479,
			"-0.018": 0.81736484624,
			"-0.017": 1.77298207062,
			"-0.016": 0.909499863294,
			"-0.015": 0.779923088435,
			"-0.014": 1.30995554832,
			"-0.013": 0.938158389339,
			"-0.012": 0.860721241247,
			"-0.011": 1.24543606065,
			"-0.01": 1.00905388386,
			"-0.009": 1.17146914309,
			"-0.008": 4.88702422183,
			"-0.007": 6.79359162639,
			"-0.006": 10.1732955691,
			"-0.005": 9.68842076478,
			"-0.004": 10.5818705356,
			"-0.003": 7.92707816501,
			"-0.002": 8.791348488,
			"-0.001": 9.44746425991,
			"0.0": 16.9040671708,
			"0.001": 18.4314564446,
			"0.002": 17.4977184254,
			"0.003": 15.7177718473,
			"0.004": 13.6312789093,
			"0.005": 5.03586027461,
			"0.006": 3.02386859844,
			"0.007": 4.05368236397,
			"0.008": 2.95831405741,
			"0.009": 4.45304200537,
			"0.01": 3.66822090511,
			"0.011": 3.89276295526,
			"0.012": 2.98610117673,
			"0.013": 1.88647219312,
			"0.014": 1.04403024974,
			"0.015": 0.938847232551,
			"0.016": 0.155294988424,
			"0.017": 0.0,
			"0.018": 0.0,
			"0.019": 0.0,
			"0.02": 0.0,
			"0.021": 0.0,
			"0.022": 0.0,
			"0.023": 0.0,
			"0.024": 0.0,
			"0.025": 0.0
		}
	}
}
