{
	 "smiles": "CCCCCCCCCCCC(=O)OOC(=O)CCCCCCCCCCC", 
	 "Tm": 328.15, 
	 "num_atms": 74, 
	 "gaussian": { 
		 "optdone": 1, 
		 "sigma_profile": "yes", 
		 "theory": "DFT", 
		 "functional": "B3LYP", 
		 "basiset": "6-31G**", 
		 "properties": { 
			 "R2extent": 20808.0699, 
			 "electric_dipole_moment_norm": 1.38598157636, 
			 "electric_quadrupole_moment_norm": 16.7670256569, 
			 "total_energy": -1243.17263622, 
			 "HOMO_LUMO_gap": 0.26668, 
			 "cosmo_polarized_energy": -11.63, 
			 "cosmo_cavitation_energy": 73.0, 
			 "cosmo_dispersion_energy": -44.72, 
			 "cosmo_repulsion_energy": 3.58, 
			 "cosmo_total_nonelectrostatic_energy": 31.86, 
			 "SMD_solvation_energy": 10.66 
		},
		"coords": [
			{
				"x": -0.7206546315,
				"y": -3.4980788569,
				"z": -2.8730542894,
				"element": "C" 
			},
			{
				"x": 0.4877789832,
				"y": -3.9020412713,
				"z": -2.0173366105,
				"element": "C" 
			},
			{
				"x": 0.4895168704,
				"y": -3.3695443435,
				"z": -0.5678877516,
				"element": "C" 
			},
			{
				"x": -0.234446218,
				"y": -4.2362610826,
				"z": 0.4819018202,
				"element": "C" 
			},
			{
				"x": -1.7643279734,
				"y": -4.3650599071,
				"z": 0.3772881598,
				"element": "C" 
			},
			{
				"x": -2.5339688101,
				"y": -3.0512608046,
				"z": 0.5731688896,
				"element": "C" 
			},
			{
				"x": -4.0572255758,
				"y": -3.2386193462,
				"z": 0.5184832614,
				"element": "C" 
			},
			{
				"x": -4.8746257034,
				"y": -1.9885043441,
				"z": 0.8908141076,
				"element": "C" 
			},
			{
				"x": -4.6462193778,
				"y": -0.7454665528,
				"z": 0.0136307251,
				"element": "C" 
			},
			{
				"x": -5.0269190143,
				"y": -0.937005863,
				"z": -1.4606046185,
				"element": "C" 
			},
			{
				"x": -4.8738044833,
				"y": 0.3464734058,
				"z": -2.3022764234,
				"element": "C" 
			},
			{
				"x": -3.4616648645,
				"y": 0.8986110029,
				"z": -2.3238871095,
				"element": "C" 
			},
			{
				"x": -3.0856538618,
				"y": 1.9668120599,
				"z": -1.9241105246,
				"element": "O" 
			},
			{
				"x": -2.6375565292,
				"y": -0.0548479391,
				"z": -2.8956610771,
				"element": "O" 
			},
			{
				"x": -1.2585685564,
				"y": 0.3768580727,
				"z": -2.8983886544,
				"element": "O" 
			},
			{
				"x": -0.9873154156,
				"y": 1.170695394,
				"z": -4.0018520012,
				"element": "C" 
			},
			{
				"x": -1.8013204418,
				"y": 1.4838585866,
				"z": -4.8257964491,
				"element": "O" 
			},
			{
				"x": 0.4729133562,
				"y": 1.5687980956,
				"z": -3.9530825146,
				"element": "C" 
			},
			{
				"x": 0.6240214217,
				"y": 3.1018819275,
				"z": -3.8589194001,
				"element": "C" 
			},
			{
				"x": 0.0652093191,
				"y": 3.7251220351,
				"z": -2.5672919508,
				"element": "C" 
			},
			{
				"x": 0.7185646439,
				"y": 3.2616181589,
				"z": -1.2527865175,
				"element": "C" 
			},
			{
				"x": 2.2156256357,
				"y": 3.5830451154,
				"z": -1.1309032508,
				"element": "C" 
			},
			{
				"x": 2.857964348,
				"y": 3.15394116,
				"z": 0.2007468863,
				"element": "C" 
			},
			{
				"x": 2.3706478907,
				"y": 3.9388553055,
				"z": 1.4284056057,
				"element": "C" 
			},
			{
				"x": 3.0133828972,
				"y": 3.5079162961,
				"z": 2.7581472168,
				"element": "C" 
			},
			{
				"x": 4.5150171748,
				"y": 3.8038375897,
				"z": 2.8789540819,
				"element": "C" 
			},
			{
				"x": 5.097612853,
				"y": 3.4305401516,
				"z": 4.2484782716,
				"element": "C" 
			},
			{
				"x": 6.5954829075,
				"y": 3.7279278864,
				"z": 4.3711752513,
				"element": "C" 
			},
			{
				"x": -0.6146778549,
				"y": -3.8707112455,
				"z": -3.8979869546,
				"element": "H" 
			},
			{
				"x": -1.6618001344,
				"y": -3.8926371369,
				"z": -2.4792151373,
				"element": "H" 
			},
			{
				"x": -0.8171252098,
				"y": -2.408268081,
				"z": -2.9247473125,
				"element": "H" 
			},
			{
				"x": 1.3922053614,
				"y": -3.5351903717,
				"z": -2.5197482015,
				"element": "H" 
			},
			{
				"x": 0.5825831672,
				"y": -4.9968274315,
				"z": -2.0004900628,
				"element": "H" 
			},
			{
				"x": 1.5327982231,
				"y": -3.2832035053,
				"z": -0.237674139,
				"element": "H" 
			},
			{
				"x": 0.0933512676,
				"y": -2.3452625592,
				"z": -0.5565578242,
				"element": "H" 
			},
			{
				"x": 0.0067558578,
				"y": -3.8369305188,
				"z": 1.4772409134,
				"element": "H" 
			},
			{
				"x": 0.201956492,
				"y": -5.2442785971,
				"z": 0.4517292391,
				"element": "H" 
			},
			{
				"x": -2.0410748381,
				"y": -4.8136713722,
				"z": -0.5852330118,
				"element": "H" 
			},
			{
				"x": -2.0976996279,
				"y": -5.0807749977,
				"z": 1.1417462748,
				"element": "H" 
			},
			{
				"x": -2.2564922419,
				"y": -2.6148867432,
				"z": 1.5442181412,
				"element": "H" 
			},
			{
				"x": -2.2234986704,
				"y": -2.3239777543,
				"z": -0.1867835729,
				"element": "H" 
			},
			{
				"x": -4.3406404589,
				"y": -4.0464388997,
				"z": 1.2068084155,
				"element": "H" 
			},
			{
				"x": -4.3425009501,
				"y": -3.5911465182,
				"z": -0.4821015161,
				"element": "H" 
			},
			{
				"x": -5.9425843291,
				"y": -2.2459477722,
				"z": 0.8685005542,
				"element": "H" 
			},
			{
				"x": -4.6505699135,
				"y": -1.7200710751,
				"z": 1.9318666887,
				"element": "H" 
			},
			{
				"x": -5.2333308463,
				"y": 0.0859943261,
				"z": 0.4259453211,
				"element": "H" 
			},
			{
				"x": -3.596763516,
				"y": -0.4317405883,
				"z": 0.0836957835,
				"element": "H" 
			},
			{
				"x": -4.4233263397,
				"y": -1.7308435792,
				"z": -1.9120833323,
				"element": "H" 
			},
			{
				"x": -6.0728441256,
				"y": -1.2613246702,
				"z": -1.5307846401,
				"element": "H" 
			},
			{
				"x": -5.1749171088,
				"y": 0.1534089283,
				"z": -3.3380653597,
				"element": "H" 
			},
			{
				"x": -5.5012414835,
				"y": 1.1514452793,
				"z": -1.9104112733,
				"element": "H" 
			},
			{
				"x": 0.9753447046,
				"y": 1.0621770019,
				"z": -3.1256227316,
				"element": "H" 
			},
			{
				"x": 0.9216225732,
				"y": 1.2108135406,
				"z": -4.8863807126,
				"element": "H" 
			},
			{
				"x": 0.1108996603,
				"y": 3.544244683,
				"z": -4.7197372141,
				"element": "H" 
			},
			{
				"x": 1.6876078541,
				"y": 3.3397815852,
				"z": -3.9724108498,
				"element": "H" 
			},
			{
				"x": 0.1682938244,
				"y": 4.815362874,
				"z": -2.6500138845,
				"element": "H" 
			},
			{
				"x": -1.0107235708,
				"y": 3.5227051198,
				"z": -2.5085815358,
				"element": "H" 
			},
			{
				"x": 0.1722266131,
				"y": 3.7365659136,
				"z": -0.4295576491,
				"element": "H" 
			},
			{
				"x": 0.5644049985,
				"y": 2.182093205,
				"z": -1.1193162386,
				"element": "H" 
			},
			{
				"x": 2.3665884542,
				"y": 4.6632601912,
				"z": -1.2736969366,
				"element": "H" 
			},
			{
				"x": 2.7621330415,
				"y": 3.0938714282,
				"z": -1.9478785384,
				"element": "H" 
			},
			{
				"x": 2.6734647348,
				"y": 2.0815935314,
				"z": 0.3623178885,
				"element": "H" 
			},
			{
				"x": 3.9457122789,
				"y": 3.2628816674,
				"z": 0.1097421167,
				"element": "H" 
			},
			{
				"x": 2.5571705838,
				"y": 5.0107978852,
				"z": 1.267156843,
				"element": "H" 
			},
			{
				"x": 1.2830329261,
				"y": 3.8318091708,
				"z": 1.5210602837,
				"element": "H" 
			},
			{
				"x": 2.4902402264,
				"y": 4.014740259,
				"z": 3.580584944,
				"element": "H" 
			},
			{
				"x": 2.8423022048,
				"y": 2.4323667343,
				"z": 2.9107299102,
				"element": "H" 
			},
			{
				"x": 4.6884786913,
				"y": 4.8737600946,
				"z": 2.6916685968,
				"element": "H" 
			},
			{
				"x": 5.0699389048,
				"y": 3.2659376506,
				"z": 2.0988362504,
				"element": "H" 
			},
			{
				"x": 4.9197019868,
				"y": 2.3630313002,
				"z": 4.437877409,
				"element": "H" 
			},
			{
				"x": 4.5511595938,
				"y": 3.9714691979,
				"z": 5.0332300458,
				"element": "H" 
			},
			{
				"x": 7.1726060426,
				"y": 3.1726108346,
				"z": 3.6227898548,
				"element": "H" 
			},
			{
				"x": 6.8014678678,
				"y": 4.7939190408,
				"z": 4.2204819482,
				"element": "H" 
			},
			{
				"x": 6.9800962404,
				"y": 3.4518900415,
				"z": 5.3585960723,
				"element": "H" 
			}
		],
		 "valence_orbital": [ 
			{
				"type": "occ",
				"energy": -0.30155,
				"method": "rhf"
			},
			{
				"type": "occ",
				"energy": -0.29917,
				"method": "rhf"
			},
			{
				"type": "occ",
				"energy": -0.29563,
				"method": "rhf"
			},
			{
				"type": "occ",
				"energy": -0.28777,
				"method": "rhf"
			},
			{
				"type": "occ",
				"energy": -0.28117,
				"method": "rhf"
			},
			{
				"type": "unocc",
				"energy": -0.01449,
				"method": "rhf"
			},
			{
				"type": "unocc",
				"energy": -0.00415,
				"method": "rhf"
			},
			{
				"type": "unocc",
				"energy": 9e-05,
				"method": "rhf"
			},
			{
				"type": "unocc",
				"energy": 0.07009,
				"method": "rhf"
			},
			{
				"type": "unocc",
				"energy": 0.08192,
				"method": "rhf"
			}
		],
		"cosmo_sigma_profile": { 
			"-0.025": 0.0,
			"-0.024": 0.0,
			"-0.023": 0.0,
			"-0.022": 0.0,
			"-0.021": 0.0,
			"-0.02": 0.0,
			"-0.019": 0.0,
			"-0.018": 0.0,
			"-0.017": 0.0,
			"-0.016": 0.0,
			"-0.015": 0.0,
			"-0.014": 0.0,
			"-0.013": 0.00736792572067,
			"-0.012": 0.493878791047,
			"-0.011": 1.25205842666,
			"-0.01": 1.45668542536,
			"-0.009": 1.62146164522,
			"-0.008": 3.05696468568,
			"-0.007": 6.57005053843,
			"-0.006": 13.8365997201,
			"-0.005": 14.9110408695,
			"-0.004": 20.1614271093,
			"-0.003": 36.1091627975,
			"-0.002": 67.1116038261,
			"-0.001": 103.811395002,
			"0.0": 107.035247123,
			"0.001": 88.5168705029,
			"0.002": 40.6193276918,
			"0.003": 7.57494331574,
			"0.004": 5.74742871409,
			"0.005": 4.92864382483,
			"0.006": 5.1302740422,
			"0.007": 5.14478988404,
			"0.008": 3.90362355733,
			"0.009": 4.0393436262,
			"0.01": 6.33436736659,
			"0.011": 5.62318162883,
			"0.012": 1.35691908502,
			"0.013": 0.226924537693,
			"0.014": 0.0447743397576,
			"0.015": 0.0816332864502,
			"0.016": 0.00563999579215,
			"0.017": 0.0112890514514,
			"0.018": 0.527718092391,
			"0.019": 0.189137861894,
			"0.02": 0.0244067652635,
			"0.021": 0.0651634355107,
			"0.022": 0.329418861489,
			"0.023": 0.356922419543,
			"0.024": 2.73660334446,
			"0.025": 0.0
		}
	}
}
