{
	 "smiles": "OC(=O)C1=CN(N=N1)C1=C(F)C(Cl)=CC=C1", 
	 "Tm": 413.15, 
	 "num_atms": 21, 
	 "gaussian": { 
		 "optdone": 1, 
		 "sigma_profile": "yes", 
		 "theory": "DFT", 
		 "functional": "B3LYP", 
		 "basiset": "6-31G**", 
		 "properties": { 
			 "R2extent": 5422.1113, 
			 "electric_dipole_moment_norm": 8.54274216455, 
			 "electric_quadrupole_moment_norm": 22.2299103876, 
			 "total_energy": -1220.64209181, 
			 "HOMO_LUMO_gap": 0.20918, 
			 "cosmo_polarized_energy": -26.6, 
			 "cosmo_cavitation_energy": 29.99, 
			 "cosmo_dispersion_energy": -21.6, 
			 "cosmo_repulsion_energy": 1.67, 
			 "cosmo_total_nonelectrostatic_energy": 10.06, 
			 "SMD_solvation_energy": 5.49 
		},
		"coords": [
			{
				"x": 4.6568364834,
				"y": 0.7286812943,
				"z": -1.30723562,
				"element": "O" 
			},
			{
				"x": 3.578948425,
				"y": 0.2884696636,
				"z": -2.0199648334,
				"element": "C" 
			},
			{
				"x": 3.6755614281,
				"y": 0.0335326476,
				"z": -3.1910098082,
				"element": "O" 
			},
			{
				"x": 2.3117164551,
				"y": 0.1967567664,
				"z": -1.2465115539,
				"element": "C" 
			},
			{
				"x": 1.9104148199,
				"y": 0.891783433,
				"z": -0.122159891,
				"element": "C" 
			},
			{
				"x": 0.6507303723,
				"y": 0.4480913409,
				"z": 0.1184035567,
				"element": "N" 
			},
			{
				"x": 0.2889441092,
				"y": -0.4848353042,
				"z": -0.8214377585,
				"element": "N" 
			},
			{
				"x": 1.282429795,
				"y": -0.6224697794,
				"z": -1.6338037795,
				"element": "N" 
			},
			{
				"x": -0.2580525483,
				"y": 0.8692097645,
				"z": 1.1269504183,
				"element": "C" 
			},
			{
				"x": -0.8440457326,
				"y": -0.085506847,
				"z": 1.9652649132,
				"element": "C" 
			},
			{
				"x": -0.5294443223,
				"y": -1.3724743458,
				"z": 1.8263107326,
				"element": "F" 
			},
			{
				"x": -1.741106044,
				"y": 0.3140229347,
				"z": 2.9582260846,
				"element": "C" 
			},
			{
				"x": -2.4564196462,
				"y": -0.8921444826,
				"z": 3.9895994174,
				"element": "Cl" 
			},
			{
				"x": -2.0417028287,
				"y": 1.6665830899,
				"z": 3.1224496309,
				"element": "C" 
			},
			{
				"x": -1.4488076789,
				"y": 2.6165667894,
				"z": 2.2908372967,
				"element": "C" 
			},
			{
				"x": -0.5647904383,
				"y": 2.2221022281,
				"z": 1.2885959913,
				"element": "C" 
			},
			{
				"x": 4.472862663,
				"y": 0.6831798267,
				"z": -0.3585715009,
				"element": "H" 
			},
			{
				"x": 2.3823668617,
				"y": 1.6423060601,
				"z": 0.4932492622,
				"element": "H" 
			},
			{
				"x": -2.7393409868,
				"y": 1.9614485707,
				"z": 3.8981580657,
				"element": "H" 
			},
			{
				"x": -1.690187826,
				"y": 3.6664889592,
				"z": 2.4163552729,
				"element": "H" 
			},
			{
				"x": -0.1214133607,
				"y": 2.9489073898,
				"z": 0.616294103,
				"element": "H" 
			}
		],
		 "valence_orbital": [ 
			{
				"type": "occ",
				"energy": -0.30035,
				"method": "rhf"
			},
			{
				"type": "occ",
				"energy": -0.29328,
				"method": "rhf"
			},
			{
				"type": "occ",
				"energy": -0.28381,
				"method": "rhf"
			},
			{
				"type": "occ",
				"energy": -0.27664,
				"method": "rhf"
			},
			{
				"type": "occ",
				"energy": -0.27383,
				"method": "rhf"
			},
			{
				"type": "unocc",
				"energy": -0.06465,
				"method": "rhf"
			},
			{
				"type": "unocc",
				"energy": -0.0448,
				"method": "rhf"
			},
			{
				"type": "unocc",
				"energy": -0.03652,
				"method": "rhf"
			},
			{
				"type": "unocc",
				"energy": -0.02279,
				"method": "rhf"
			},
			{
				"type": "unocc",
				"energy": -0.00084,
				"method": "rhf"
			}
		],
		"cosmo_sigma_profile": { 
			"-0.025": 0.0,
			"-0.024": 0.0,
			"-0.023": 0.0,
			"-0.022": 0.0,
			"-0.021": 0.0,
			"-0.02": 0.210272871471,
			"-0.019": 1.28151738392,
			"-0.018": 1.09047017518,
			"-0.017": 0.993720352841,
			"-0.016": 1.25001229913,
			"-0.015": 1.80869526065,
			"-0.014": 1.15093896032,
			"-0.013": 1.95313944892,
			"-0.012": 2.74555920224,
			"-0.011": 2.1987074961,
			"-0.01": 2.39156540026,
			"-0.009": 4.37106300081,
			"-0.008": 9.68086559113,
			"-0.007": 9.26512298071,
			"-0.006": 9.68049706211,
			"-0.005": 9.13700736624,
			"-0.004": 9.38048148694,
			"-0.003": 13.3199348686,
			"-0.002": 14.3771613274,
			"-0.001": 16.4225987956,
			"0.0": 16.7651576853,
			"0.001": 15.3662635144,
			"0.002": 15.8728428907,
			"0.003": 19.0407310501,
			"0.004": 11.8961744661,
			"0.005": 4.53011885996,
			"0.006": 3.34160405022,
			"0.007": 6.06285474183,
			"0.008": 6.45001803176,
			"0.009": 7.48438050048,
			"0.01": 8.74791711849,
			"0.011": 8.54873490909,
			"0.012": 5.66936262715,
			"0.013": 1.78587080472,
			"0.014": 0.738685548084,
			"0.015": 0.0,
			"0.016": 0.0,
			"0.017": 0.0,
			"0.018": 0.0,
			"0.019": 0.0,
			"0.02": 0.0,
			"0.021": 0.0,
			"0.022": 0.0,
			"0.023": 0.0,
			"0.024": 0.0,
			"0.025": 0.0
		}
	}
}
