{
	 "smiles": "NC1=NC=CC(=C1)[N+]([O-])=O", 
	 "Tm": 370.15, 
	 "num_atms": 15, 
	 "gaussian": { 
		 "optdone": 1, 
		 "sigma_profile": "yes", 
		 "theory": "DFT", 
		 "functional": "B3LYP", 
		 "basiset": "6-31G**", 
		 "properties": { 
			 "R2extent": 1941.5765, 
			 "electric_dipole_moment_norm": 1.35785979394, 
			 "electric_quadrupole_moment_norm": 19.8448901763, 
			 "total_energy": -508.127659909, 
			 "HOMO_LUMO_gap": 0.16236, 
			 "cosmo_polarized_energy": -14.1, 
			 "cosmo_cavitation_energy": 20.43, 
			 "cosmo_dispersion_energy": -15.2, 
			 "cosmo_repulsion_energy": 1.24, 
			 "cosmo_total_nonelectrostatic_energy": 6.47, 
			 "SMD_solvation_energy": 4.42 
		},
		"coords": [
			{
				"x": -1.3726574502,
				"y": -0.7225459334,
				"z": 0.8386451849,
				"element": "N" 
			},
			{
				"x": -0.1402145514,
				"y": -0.0885965922,
				"z": 0.4761983979,
				"element": "C" 
			},
			{
				"x": 0.7393429813,
				"y": 0.0985703364,
				"z": 1.4671707679,
				"element": "N" 
			},
			{
				"x": 1.907888302,
				"y": 0.6868345482,
				"z": 1.1839612795,
				"element": "C" 
			},
			{
				"x": 2.2761566561,
				"y": 1.1232968819,
				"z": -0.0882726969,
				"element": "C" 
			},
			{
				"x": 1.3471036721,
				"y": 0.9182910925,
				"z": -1.1008243429,
				"element": "C" 
			},
			{
				"x": 0.1260364243,
				"y": 0.311886442,
				"z": -0.8437196411,
				"element": "C" 
			},
			{
				"x": 1.6628383616,
				"y": 1.3534030701,
				"z": -2.4790339255,
				"element": "N" 
			},
			{
				"x": 2.7536247408,
				"y": 1.8860546335,
				"z": -2.6657443589,
				"element": "O" 
			},
			{
				"x": 0.813259515,
				"y": 1.1528269804,
				"z": -3.3437579568,
				"element": "O" 
			},
			{
				"x": -2.1610467386,
				"y": -0.119355989,
				"z": 0.6173026767,
				"element": "H" 
			},
			{
				"x": -1.5010388587,
				"y": -1.5799279247,
				"z": 0.3068535814,
				"element": "H" 
			},
			{
				"x": 2.59126768,
				"y": 0.8182363061,
				"z": 2.0201038228,
				"element": "H" 
			},
			{
				"x": 3.2279318904,
				"y": 1.5964961824,
				"z": -0.290996754,
				"element": "H" 
			},
			{
				"x": -0.5861926247,
				"y": 0.1601299656,
				"z": -1.6452860349,
				"element": "H" 
			}
		],
		 "valence_orbital": [ 
			{
				"type": "occ",
				"energy": -0.31904,
				"method": "rhf"
			},
			{
				"type": "occ",
				"energy": -0.30695,
				"method": "rhf"
			},
			{
				"type": "occ",
				"energy": -0.28537,
				"method": "rhf"
			},
			{
				"type": "occ",
				"energy": -0.28149,
				"method": "rhf"
			},
			{
				"type": "occ",
				"energy": -0.2686,
				"method": "rhf"
			},
			{
				"type": "unocc",
				"energy": -0.10624,
				"method": "rhf"
			},
			{
				"type": "unocc",
				"energy": -0.04057,
				"method": "rhf"
			},
			{
				"type": "unocc",
				"energy": -0.01633,
				"method": "rhf"
			},
			{
				"type": "unocc",
				"energy": 0.07315,
				"method": "rhf"
			},
			{
				"type": "unocc",
				"energy": 0.08382,
				"method": "rhf"
			}
		],
		"cosmo_sigma_profile": { 
			"-0.025": 0.0,
			"-0.024": 0.0,
			"-0.023": 0.0,
			"-0.022": 0.0,
			"-0.021": 0.0,
			"-0.02": 0.0,
			"-0.019": 0.0,
			"-0.018": 0.0,
			"-0.017": 0.0,
			"-0.016": 0.0,
			"-0.015": 0.0,
			"-0.014": 0.0,
			"-0.013": 0.136196887039,
			"-0.012": 2.39961965447,
			"-0.011": 3.55726002182,
			"-0.01": 2.3913230928,
			"-0.009": 4.60563545556,
			"-0.008": 9.01121505602,
			"-0.007": 10.3425161391,
			"-0.006": 6.9016353145,
			"-0.005": 7.00008180787,
			"-0.004": 7.76034987456,
			"-0.003": 8.73954531789,
			"-0.002": 14.0809447099,
			"-0.001": 12.9248387682,
			"0.0": 10.1433562432,
			"0.001": 4.89319420204,
			"0.002": 5.13777757174,
			"0.003": 3.31950109503,
			"0.004": 4.21899821192,
			"0.005": 4.48724549502,
			"0.006": 7.41733464975,
			"0.007": 11.5243898823,
			"0.008": 5.98491283746,
			"0.009": 4.077004777,
			"0.01": 1.78275369949,
			"0.011": 1.16540978261,
			"0.012": 0.685179685003,
			"0.013": 1.64098204666,
			"0.014": 1.37288125234,
			"0.015": 1.45627992817,
			"0.016": 1.20782945248,
			"0.017": 1.15293070036,
			"0.018": 1.44787745291,
			"0.019": 0.651447780394,
			"0.02": 0.0428441973683,
			"0.021": 0.0,
			"0.022": 0.0,
			"0.023": 0.0,
			"0.024": 0.0,
			"0.025": 0.0
		}
	}
}
