{
	 "smiles": "COC1C(CCC2(CO2)C1C1(C)OC1CC=C(C)C)OC(=O)C=CC=CC=CC=CC(O)=O", 
	 "Tm": 467.15, 
	 "num_atms": 67, 
	 "gaussian": { 
		 "optdone": 1, 
		 "sigma_profile": "yes", 
		 "theory": "DFT", 
		 "functional": "B3LYP", 
		 "basiset": "6-31G**", 
		 "properties": { 
			 "R2extent": 24958.8049, 
			 "electric_dipole_moment_norm": 2.71006135355, 
			 "electric_quadrupole_moment_norm": 26.5515327676, 
			 "total_energy": -1537.6906636, 
			 "HOMO_LUMO_gap": 0.11688, 
			 "cosmo_polarized_energy": -25.04, 
			 "cosmo_cavitation_energy": 69.22, 
			 "cosmo_dispersion_energy": -43.35, 
			 "cosmo_repulsion_energy": 3.29, 
			 "cosmo_total_nonelectrostatic_energy": 29.17, 
			 "SMD_solvation_energy": 13.96 
		},
		"coords": [
			{
				"x": -0.4306094292,
				"y": -4.6418621498,
				"z": -2.0063496272,
				"element": "C" 
			},
			{
				"x": -0.0499830322,
				"y": -3.2730916251,
				"z": -2.0880787982,
				"element": "O" 
			},
			{
				"x": 1.2822562025,
				"y": -3.0045009083,
				"z": -1.7027362228,
				"element": "C" 
			},
			{
				"x": 1.4394670877,
				"y": -2.8250299845,
				"z": -0.1681986986,
				"element": "C" 
			},
			{
				"x": 2.7572090798,
				"y": -2.1171279028,
				"z": 0.1933335395,
				"element": "C" 
			},
			{
				"x": 3.8408469469,
				"y": -2.3136048448,
				"z": -0.8760418712,
				"element": "C" 
			},
			{
				"x": 3.3960185308,
				"y": -1.8766386915,
				"z": -2.279371356,
				"element": "C" 
			},
			{
				"x": 4.3167857634,
				"y": -1.1377554816,
				"z": -3.16239,
				"element": "C" 
			},
			{
				"x": 4.139399302,
				"y": -2.5501927856,
				"z": -3.3182389663,
				"element": "O" 
			},
			{
				"x": 1.8771490485,
				"y": -1.8396882067,
				"z": -2.5315720717,
				"element": "C" 
			},
			{
				"x": 1.1999786684,
				"y": -0.4579088434,
				"z": -2.3912143405,
				"element": "C" 
			},
			{
				"x": -0.303400706,
				"y": -0.445691536,
				"z": -2.5957887535,
				"element": "C" 
			},
			{
				"x": 1.8770512122,
				"y": 0.5807149179,
				"z": -3.1474357761,
				"element": "O" 
			},
			{
				"x": 1.8948771735,
				"y": 0.6641472877,
				"z": -1.715461811,
				"element": "C" 
			},
			{
				"x": 1.2328753685,
				"y": 1.8715564012,
				"z": -1.0716186687,
				"element": "C" 
			},
			{
				"x": 2.0230129434,
				"y": 3.1278187931,
				"z": -1.3380266371,
				"element": "C" 
			},
			{
				"x": 2.5766366853,
				"y": 3.9716901964,
				"z": -0.4535774273,
				"element": "C" 
			},
			{
				"x": 3.3430998452,
				"y": 5.1848250412,
				"z": -0.925650636,
				"element": "C" 
			},
			{
				"x": 2.5022327139,
				"y": 3.8289840356,
				"z": 1.0472280976,
				"element": "C" 
			},
			{
				"x": 0.3645642697,
				"y": -2.0165207583,
				"z": 0.3616785965,
				"element": "O" 
			},
			{
				"x": -0.6626414271,
				"y": -2.6552444614,
				"z": 0.9800193565,
				"element": "C" 
			},
			{
				"x": -0.716092817,
				"y": -3.8609595547,
				"z": 1.1511275752,
				"element": "O" 
			},
			{
				"x": -1.7100187186,
				"y": -1.7349322502,
				"z": 1.4558284557,
				"element": "C" 
			},
			{
				"x": -1.6826377004,
				"y": -0.3895175115,
				"z": 1.3233529766,
				"element": "C" 
			},
			{
				"x": -2.7179685113,
				"y": 0.4871713099,
				"z": 1.8057788755,
				"element": "C" 
			},
			{
				"x": -2.6694172247,
				"y": 1.8373696574,
				"z": 1.6573862925,
				"element": "C" 
			},
			{
				"x": -3.6455401558,
				"y": 2.8050093593,
				"z": 2.1130785955,
				"element": "C" 
			},
			{
				"x": -4.7026350072,
				"y": 2.5679086076,
				"z": 2.9327737007,
				"element": "C" 
			},
			{
				"x": -5.6808913331,
				"y": 3.5469062553,
				"z": 3.3663504555,
				"element": "C" 
			},
			{
				"x": -5.8586094704,
				"y": 4.7991373032,
				"z": 2.892011918,
				"element": "C" 
			},
			{
				"x": -6.9021936083,
				"y": 5.6641088633,
				"z": 3.4701553682,
				"element": "C" 
			},
			{
				"x": -6.9282309905,
				"y": 6.8817694353,
				"z": 2.8673499346,
				"element": "O" 
			},
			{
				"x": -7.6655659913,
				"y": 5.3672133979,
				"z": 4.3705572339,
				"element": "O" 
			},
			{
				"x": 0.2423035744,
				"y": -5.2756403143,
				"z": -2.602864566,
				"element": "H" 
			},
			{
				"x": -0.4519637289,
				"y": -4.9998534078,
				"z": -0.9708272298,
				"element": "H" 
			},
			{
				"x": -1.4383541241,
				"y": -4.708726719,
				"z": -2.4230305584,
				"element": "H" 
			},
			{
				"x": 1.9073177406,
				"y": -3.8753027678,
				"z": -1.9603785686,
				"element": "H" 
			},
			{
				"x": 1.3701043791,
				"y": -3.8057304998,
				"z": 0.3063077106,
				"element": "H" 
			},
			{
				"x": 2.5383511638,
				"y": -1.0523844214,
				"z": 0.3112441706,
				"element": "H" 
			},
			{
				"x": 3.1176338476,
				"y": -2.469337259,
				"z": 1.1650328753,
				"element": "H" 
			},
			{
				"x": 4.7522012871,
				"y": -1.7815547896,
				"z": -0.5842964491,
				"element": "H" 
			},
			{
				"x": 4.1152082209,
				"y": -3.3739793505,
				"z": -0.9374052997,
				"element": "H" 
			},
			{
				"x": 3.913780538,
				"y": -0.5154726132,
				"z": -3.9569302893,
				"element": "H" 
			},
			{
				"x": 5.2885609319,
				"y": -0.8320113684,
				"z": -2.7710677869,
				"element": "H" 
			},
			{
				"x": 1.7427813864,
				"y": -2.119946866,
				"z": -3.5832115435,
				"element": "H" 
			},
			{
				"x": -0.6619321965,
				"y": 0.5780997619,
				"z": -2.7134568669,
				"element": "H" 
			},
			{
				"x": -0.5551356769,
				"y": -0.9974880555,
				"z": -3.50583114,
				"element": "H" 
			},
			{
				"x": -0.8248375056,
				"y": -0.9290879359,
				"z": -1.769128607,
				"element": "H" 
			},
			{
				"x": 2.8817298219,
				"y": 0.4567620084,
				"z": -1.2967828979,
				"element": "H" 
			},
			{
				"x": 1.1385207882,
				"y": 1.675761048,
				"z": 0.0026843228,
				"element": "H" 
			},
			{
				"x": 0.2181660083,
				"y": 1.9892283694,
				"z": -1.4680772888,
				"element": "H" 
			},
			{
				"x": 2.1531032065,
				"y": 3.3460087608,
				"z": -2.3977867205,
				"element": "H" 
			},
			{
				"x": 4.3774664626,
				"y": 5.1659255101,
				"z": -0.557168767,
				"element": "H" 
			},
			{
				"x": 3.372265584,
				"y": 5.2499346411,
				"z": -2.0165329605,
				"element": "H" 
			},
			{
				"x": 2.8945180745,
				"y": 6.1103118602,
				"z": -0.5404714631,
				"element": "H" 
			},
			{
				"x": 1.9557103067,
				"y": 2.9427348743,
				"z": 1.3756137975,
				"element": "H" 
			},
			{
				"x": 2.0171718069,
				"y": 4.7064404271,
				"z": 1.4948772203,
				"element": "H" 
			},
			{
				"x": 3.5097695182,
				"y": 3.7805863745,
				"z": 1.4805857048,
				"element": "H" 
			},
			{
				"x": -2.5376505822,
				"y": -2.2356124713,
				"z": 1.9496871785,
				"element": "H" 
			},
			{
				"x": -0.8319162701,
				"y": 0.0684442269,
				"z": 0.8241592148,
				"element": "H" 
			},
			{
				"x": -3.5691548265,
				"y": 0.0211481776,
				"z": 2.2992061464,
				"element": "H" 
			},
			{
				"x": -1.8116863318,
				"y": 2.2505049529,
				"z": 1.1282586308,
				"element": "H" 
			},
			{
				"x": -3.4822577203,
				"y": 3.8242552005,
				"z": 1.7684423195,
				"element": "H" 
			},
			{
				"x": -4.8376370539,
				"y": 1.5666086406,
				"z": 3.3360589123,
				"element": "H" 
			},
			{
				"x": -6.359120545,
				"y": 3.2377076022,
				"z": 4.1595823714,
				"element": "H" 
			},
			{
				"x": -5.2697606582,
				"y": 5.2148406942,
				"z": 2.080913552,
				"element": "H" 
			},
			{
				"x": -7.6382821462,
				"y": 7.3794623428,
				"z": 3.3054355657,
				"element": "H" 
			}
		],
		 "valence_orbital": [ 
			{
				"type": "occ",
				"energy": -0.26261,
				"method": "rhf"
			},
			{
				"type": "occ",
				"energy": -0.25915,
				"method": "rhf"
			},
			{
				"type": "occ",
				"energy": -0.25576,
				"method": "rhf"
			},
			{
				"type": "occ",
				"energy": -0.23613,
				"method": "rhf"
			},
			{
				"type": "occ",
				"energy": -0.22442,
				"method": "rhf"
			},
			{
				"type": "unocc",
				"energy": -0.10754,
				"method": "rhf"
			},
			{
				"type": "unocc",
				"energy": -0.04672,
				"method": "rhf"
			},
			{
				"type": "unocc",
				"energy": 0.00883,
				"method": "rhf"
			},
			{
				"type": "unocc",
				"energy": 0.02163,
				"method": "rhf"
			},
			{
				"type": "unocc",
				"energy": 0.05525,
				"method": "rhf"
			}
		],
		"cosmo_sigma_profile": { 
			"-0.025": 0.0,
			"-0.024": 0.0,
			"-0.023": 0.0,
			"-0.022": 0.0,
			"-0.021": 0.0,
			"-0.02": 0.0,
			"-0.019": 0.0,
			"-0.018": 0.40704835918,
			"-0.017": 1.16405962387,
			"-0.016": 0.638314588915,
			"-0.015": 0.698183084173,
			"-0.014": 0.556171693938,
			"-0.013": 0.888927230834,
			"-0.012": 0.766908522206,
			"-0.011": 0.721824999518,
			"-0.01": 0.626113301084,
			"-0.009": 0.743186176788,
			"-0.008": 3.7477401494,
			"-0.007": 11.5910945415,
			"-0.006": 21.3401225832,
			"-0.005": 33.2982817951,
			"-0.004": 44.3953402672,
			"-0.003": 53.1207586304,
			"-0.002": 52.6439875589,
			"-0.001": 51.2061496277,
			"0.0": 50.7159189376,
			"0.001": 47.9095047269,
			"0.002": 37.7006878251,
			"0.003": 31.2620163517,
			"0.004": 15.3151741368,
			"0.005": 12.7689608063,
			"0.006": 11.3739526736,
			"0.007": 9.20588399537,
			"0.008": 9.14653286405,
			"0.009": 6.90154795266,
			"0.01": 7.46854650542,
			"0.011": 8.25961266028,
			"0.012": 12.7163227903,
			"0.013": 4.49585931246,
			"0.014": 0.0896576185797,
			"0.015": 0.0,
			"0.016": 0.0,
			"0.017": 0.0,
			"0.018": 0.0,
			"0.019": 0.0,
			"0.02": 0.0,
			"0.021": 0.0,
			"0.022": 0.0,
			"0.023": 0.0,
			"0.024": 0.0,
			"0.025": 0.0
		}
	}
}
