{
	 "smiles": "CC1=CC(=CC(C)=C1OC(F)F)C(O)=O", 
	 "Tm": 463.15, 
	 "num_atms": 25, 
	 "gaussian": { 
		 "optdone": 1, 
		 "sigma_profile": "yes", 
		 "theory": "DFT", 
		 "functional": "B3LYP", 
		 "basiset": "6-31G**", 
		 "properties": { 
			 "R2extent": 3995.0752, 
			 "electric_dipole_moment_norm": 2.11629926523, 
			 "electric_quadrupole_moment_norm": 9.7132337885, 
			 "total_energy": -812.470350091, 
			 "HOMO_LUMO_gap": 0.20189, 
			 "cosmo_polarized_energy": -10.08, 
			 "cosmo_cavitation_energy": 29.47, 
			 "cosmo_dispersion_energy": -21.19, 
			 "cosmo_repulsion_energy": 1.62, 
			 "cosmo_total_nonelectrostatic_energy": 9.9, 
			 "SMD_solvation_energy": 7.49 
		},
		"coords": [
			{
				"x": -1.5699535704,
				"y": -3.0052217066,
				"z": 0.5916854375,
				"element": "C" 
			},
			{
				"x": -1.104582825,
				"y": -1.8590264466,
				"z": -0.2726027098,
				"element": "C" 
			},
			{
				"x": -1.8075183697,
				"y": -1.5052770709,
				"z": -1.4273573991,
				"element": "C" 
			},
			{
				"x": -1.3590876456,
				"y": -0.4697603706,
				"z": -2.2536745862,
				"element": "C" 
			},
			{
				"x": -0.1778372096,
				"y": 0.2094258996,
				"z": -1.9403140664,
				"element": "C" 
			},
			{
				"x": 0.5577956549,
				"y": -0.1089794082,
				"z": -0.7975919004,
				"element": "C" 
			},
			{
				"x": 1.8536475276,
				"y": 0.6006749781,
				"z": -0.4910147334,
				"element": "C" 
			},
			{
				"x": 0.053676785,
				"y": -1.1257440294,
				"z": 0.0296351539,
				"element": "C" 
			},
			{
				"x": 0.8164187683,
				"y": -1.5171349746,
				"z": 1.1459617021,
				"element": "O" 
			},
			{
				"x": 0.5774257014,
				"y": -0.923864178,
				"z": 2.3535645159,
				"element": "C" 
			},
			{
				"x": 0.7611188433,
				"y": 0.4250715883,
				"z": 2.3071371327,
				"element": "F" 
			},
			{
				"x": -0.7066800534,
				"y": -1.108882147,
				"z": 2.7696420849,
				"element": "F" 
			},
			{
				"x": -2.0832354577,
				"y": -0.0719698468,
				"z": -3.4891537029,
				"element": "C" 
			},
			{
				"x": -3.2102387936,
				"y": -0.7976393246,
				"z": -3.7041318376,
				"element": "O" 
			},
			{
				"x": -1.7309823216,
				"y": 0.8081060488,
				"z": -4.2501529349,
				"element": "O" 
			},
			{
				"x": -2.2753134672,
				"y": -3.633999171,
				"z": 0.0430408496,
				"element": "H" 
			},
			{
				"x": -0.7271252612,
				"y": -3.6246437861,
				"z": 0.9112162822,
				"element": "H" 
			},
			{
				"x": -2.0644329346,
				"y": -2.645575283,
				"z": 1.4983565468,
				"element": "H" 
			},
			{
				"x": -2.7079813454,
				"y": -2.048778235,
				"z": -1.6910357966,
				"element": "H" 
			},
			{
				"x": 0.1656460011,
				"y": 0.9889062629,
				"z": -2.612483679,
				"element": "H" 
			},
			{
				"x": 2.2319367927,
				"y": 1.1038270027,
				"z": -1.3839510586,
				"element": "H" 
			},
			{
				"x": 2.6135931386,
				"y": -0.1021980839,
				"z": -0.1381378448,
				"element": "H" 
			},
			{
				"x": 1.7209761649,
				"y": 1.3497873584,
				"z": 0.2945634149,
				"element": "H" 
			},
			{
				"x": 1.2645048142,
				"y": -1.3619938363,
				"z": 3.0810644868,
				"element": "H" 
			},
			{
				"x": -3.591070937,
				"y": -0.4511112402,
				"z": -4.5275653577,
				"element": "H" 
			}
		],
		 "valence_orbital": [ 
			{
				"type": "occ",
				"energy": -0.3242,
				"method": "rhf"
			},
			{
				"type": "occ",
				"energy": -0.31725,
				"method": "rhf"
			},
			{
				"type": "occ",
				"energy": -0.27602,
				"method": "rhf"
			},
			{
				"type": "occ",
				"energy": -0.25375,
				"method": "rhf"
			},
			{
				"type": "occ",
				"energy": -0.25031,
				"method": "rhf"
			},
			{
				"type": "unocc",
				"energy": -0.04842,
				"method": "rhf"
			},
			{
				"type": "unocc",
				"energy": -0.00888,
				"method": "rhf"
			},
			{
				"type": "unocc",
				"energy": 0.05216,
				"method": "rhf"
			},
			{
				"type": "unocc",
				"energy": 0.07811,
				"method": "rhf"
			},
			{
				"type": "unocc",
				"energy": 0.10933,
				"method": "rhf"
			}
		],
		"cosmo_sigma_profile": { 
			"-0.025": 0.0,
			"-0.024": 0.0,
			"-0.023": 0.0,
			"-0.022": 0.0,
			"-0.021": 0.0,
			"-0.02": 0.0,
			"-0.019": 0.0460968656867,
			"-0.018": 0.666103695813,
			"-0.017": 0.935953040394,
			"-0.016": 0.805905584263,
			"-0.015": 1.22525828679,
			"-0.014": 0.321716136463,
			"-0.013": 0.497557874919,
			"-0.012": 0.7425479746,
			"-0.011": 1.43098906114,
			"-0.01": 4.15088748887,
			"-0.009": 2.61482311821,
			"-0.008": 1.65489740194,
			"-0.007": 2.24850764213,
			"-0.006": 5.44752278488,
			"-0.005": 7.8119945566,
			"-0.004": 11.7251940248,
			"-0.003": 14.4743964185,
			"-0.002": 18.9916051072,
			"-0.001": 22.8196172106,
			"0.0": 26.7627511525,
			"0.001": 24.5809012662,
			"0.002": 21.5963179486,
			"0.003": 21.1925336311,
			"0.004": 14.921381317,
			"0.005": 4.37472729241,
			"0.006": 3.75171132669,
			"0.007": 4.34822128698,
			"0.008": 2.43017569841,
			"0.009": 1.05180946332,
			"0.01": 2.60312592451,
			"0.011": 3.6244656157,
			"0.012": 4.13278643582,
			"0.013": 0.0883238810909,
			"0.014": 0.0,
			"0.015": 0.0,
			"0.016": 0.0,
			"0.017": 0.0,
			"0.018": 0.0,
			"0.019": 0.0,
			"0.02": 0.0,
			"0.021": 0.0,
			"0.022": 0.0,
			"0.023": 0.0,
			"0.024": 0.0,
			"0.025": 0.0
		}
	}
}
