{
	 "smiles": "CC(=O)OC1CCC2(C)C(C1)CC(=O)C1C3CCC(OC(=O)C4=CC=CC=C4)C3(C)CCC21", 
	 "Tm": 448.15, 
	 "num_atms": 69, 
	 "gaussian": { 
		 "optdone": 1, 
		 "sigma_profile": "yes", 
		 "theory": "DFT", 
		 "functional": "B3LYP", 
		 "basiset": "6-31G**", 
		 "properties": { 
			 "R2extent": 13919.3755, 
			 "electric_dipole_moment_norm": 5.11934986302, 
			 "electric_quadrupole_moment_norm": 15.9030127891, 
			 "total_energy": -1464.8311532, 
			 "HOMO_LUMO_gap": 0.18673, 
			 "cosmo_polarized_energy": -17.45, 
			 "cosmo_cavitation_energy": 61.04, 
			 "cosmo_dispersion_energy": -39.23, 
			 "cosmo_repulsion_energy": 2.8, 
			 "cosmo_total_nonelectrostatic_energy": 24.6, 
			 "SMD_solvation_energy": 10.5 
		},
		"coords": [
			{
				"x": 1.5066167418,
				"y": -2.1226614265,
				"z": 3.9660932366,
				"element": "C" 
			},
			{
				"x": 0.757479075,
				"y": -2.2399869125,
				"z": 2.6573964118,
				"element": "C" 
			},
			{
				"x": 0.2302443257,
				"y": -1.3048382276,
				"z": 2.0840834111,
				"element": "O" 
			},
			{
				"x": 0.7768305544,
				"y": -3.508924814,
				"z": 2.214671243,
				"element": "O" 
			},
			{
				"x": 0.1750342133,
				"y": -3.8709304581,
				"z": 0.9317483983,
				"element": "C" 
			},
			{
				"x": 0.9242367705,
				"y": -3.2501415205,
				"z": -0.255983549,
				"element": "C" 
			},
			{
				"x": 0.1289850512,
				"y": -3.5448967586,
				"z": -1.5367649985,
				"element": "C" 
			},
			{
				"x": -1.2688235698,
				"y": -2.8533550952,
				"z": -1.58757946,
				"element": "C" 
			},
			{
				"x": -2.2192943958,
				"y": -3.8553221447,
				"z": -2.2936776543,
				"element": "C" 
			},
			{
				"x": -1.739515951,
				"y": -2.5380809276,
				"z": -0.138206849,
				"element": "C" 
			},
			{
				"x": -1.3547100246,
				"y": -3.6256317805,
				"z": 0.8727829226,
				"element": "C" 
			},
			{
				"x": -3.2367689956,
				"y": -2.2146347578,
				"z": -0.1293464826,
				"element": "C" 
			},
			{
				"x": -3.6519763059,
				"y": -1.3090729766,
				"z": -1.2905133907,
				"element": "C" 
			},
			{
				"x": -4.8261726486,
				"y": -1.1389858334,
				"z": -1.5661632524,
				"element": "O" 
			},
			{
				"x": -2.5402909861,
				"y": -0.5868171398,
				"z": -2.057493562,
				"element": "C" 
			},
			{
				"x": -2.2950296176,
				"y": 0.7854203229,
				"z": -1.3123562795,
				"element": "C" 
			},
			{
				"x": -2.4706446549,
				"y": 0.884559389,
				"z": 0.2209962365,
				"element": "C" 
			},
			{
				"x": -2.0292283899,
				"y": 2.3278301152,
				"z": 0.4875311337,
				"element": "C" 
			},
			{
				"x": -0.7925680321,
				"y": 2.5236634212,
				"z": -0.4002918422,
				"element": "C" 
			},
			{
				"x": 0.3665511019,
				"y": 2.2829475449,
				"z": 0.4399722981,
				"element": "O" 
			},
			{
				"x": 1.5163031212,
				"y": 2.9139077829,
				"z": 0.1202249457,
				"element": "C" 
			},
			{
				"x": 1.6418095909,
				"y": 3.6503271643,
				"z": -0.8420547178,
				"element": "O" 
			},
			{
				"x": 2.6107090796,
				"y": 2.6107666883,
				"z": 1.0883110366,
				"element": "C" 
			},
			{
				"x": 2.4677396412,
				"y": 1.6573089587,
				"z": 2.1072222313,
				"element": "C" 
			},
			{
				"x": 3.5278544067,
				"y": 1.4218145046,
				"z": 2.9823820167,
				"element": "C" 
			},
			{
				"x": 4.724769543,
				"y": 2.1300237298,
				"z": 2.8490839794,
				"element": "C" 
			},
			{
				"x": 4.8683402172,
				"y": 3.0759905698,
				"z": 1.8304661028,
				"element": "C" 
			},
			{
				"x": 3.8153721482,
				"y": 3.3139148778,
				"z": 0.9506826342,
				"element": "C" 
			},
			{
				"x": -0.9233828721,
				"y": 1.4861464038,
				"z": -1.5836649745,
				"element": "C" 
			},
			{
				"x": -0.9252709243,
				"y": 2.2473138562,
				"z": -2.9218369113,
				"element": "C" 
			},
			{
				"x": 0.2011600688,
				"y": 0.431076892,
				"z": -1.5350820677,
				"element": "C" 
			},
			{
				"x": -0.0042545852,
				"y": -0.6865301977,
				"z": -2.5603177667,
				"element": "C" 
			},
			{
				"x": -1.3101201696,
				"y": -1.5114626068,
				"z": -2.4257953312,
				"element": "C" 
			},
			{
				"x": 2.5817346079,
				"y": -2.0819335081,
				"z": 3.7599284861,
				"element": "H" 
			},
			{
				"x": 1.323817041,
				"y": -2.9907919796,
				"z": 4.6026119529,
				"element": "H" 
			},
			{
				"x": 1.2083955348,
				"y": -1.2050289356,
				"z": 4.4737057227,
				"element": "H" 
			},
			{
				"x": 0.3549235804,
				"y": -4.9494594198,
				"z": 0.9215994889,
				"element": "H" 
			},
			{
				"x": 1.9292279786,
				"y": -3.6817422162,
				"z": -0.315502309,
				"element": "H" 
			},
			{
				"x": 1.0401211563,
				"y": -2.174724668,
				"z": -0.1068208563,
				"element": "H" 
			},
			{
				"x": 0.7200329848,
				"y": -3.3009572879,
				"z": -2.4244998288,
				"element": "H" 
			},
			{
				"x": -0.0246305791,
				"y": -4.6314103431,
				"z": -1.5890649514,
				"element": "H" 
			},
			{
				"x": -2.3901318291,
				"y": -4.7497945969,
				"z": -1.6841782152,
				"element": "H" 
			},
			{
				"x": -1.7705295834,
				"y": -4.1839224478,
				"z": -3.2378750514,
				"element": "H" 
			},
			{
				"x": -3.1967267409,
				"y": -3.4291424284,
				"z": -2.5371890716,
				"element": "H" 
			},
			{
				"x": -1.2031436184,
				"y": -1.642567202,
				"z": 0.1802718833,
				"element": "H" 
			},
			{
				"x": -1.7185004398,
				"y": -3.3578713504,
				"z": 1.8698367398,
				"element": "H" 
			},
			{
				"x": -1.8498462189,
				"y": -4.5700753157,
				"z": 0.6145129105,
				"element": "H" 
			},
			{
				"x": -3.8556431683,
				"y": -3.1172038626,
				"z": -0.1871776313,
				"element": "H" 
			},
			{
				"x": -3.5222535767,
				"y": -1.7154078508,
				"z": 0.8045896575,
				"element": "H" 
			},
			{
				"x": -3.0039697052,
				"y": -0.3017827341,
				"z": -3.0056197132,
				"element": "H" 
			},
			{
				"x": -3.0800911625,
				"y": 1.4371887972,
				"z": -1.7182479395,
				"element": "H" 
			},
			{
				"x": -3.5004577663,
				"y": 0.6978203236,
				"z": 0.5390658172,
				"element": "H" 
			},
			{
				"x": -1.8156492853,
				"y": 0.1971764608,
				"z": 0.7650840646,
				"element": "H" 
			},
			{
				"x": -2.8146819748,
				"y": 3.0223930947,
				"z": 0.1661680508,
				"element": "H" 
			},
			{
				"x": -1.8037253456,
				"y": 2.5424528292,
				"z": 1.5350766157,
				"element": "H" 
			},
			{
				"x": -0.6971626722,
				"y": 3.5397052055,
				"z": -0.7860925493,
				"element": "H" 
			},
			{
				"x": 1.5426628919,
				"y": 1.0984394286,
				"z": 2.1984623727,
				"element": "H" 
			},
			{
				"x": 3.4198167711,
				"y": 0.6846625276,
				"z": 3.7730225636,
				"element": "H" 
			},
			{
				"x": 5.5453678994,
				"y": 1.9439185881,
				"z": 3.5365359815,
				"element": "H" 
			},
			{
				"x": 5.799000955,
				"y": 3.6256548078,
				"z": 1.72407363,
				"element": "H" 
			},
			{
				"x": 3.9015472779,
				"y": 4.0409917076,
				"z": 0.1502122007,
				"element": "H" 
			},
			{
				"x": -1.6891992638,
				"y": 3.0332077299,
				"z": -2.9146220775,
				"element": "H" 
			},
			{
				"x": -1.14467238,
				"y": 1.5946623203,
				"z": -3.772151524,
				"element": "H" 
			},
			{
				"x": 0.0437469279,
				"y": 2.726185754,
				"z": -3.093538758,
				"element": "H" 
			},
			{
				"x": 0.2707072371,
				"y": 0.0147607023,
				"z": -0.5252429527,
				"element": "H" 
			},
			{
				"x": 1.1626522764,
				"y": 0.9176331542,
				"z": -1.7342817975,
				"element": "H" 
			},
			{
				"x": 0.8667377217,
				"y": -1.3469324974,
				"z": -2.5450574296,
				"element": "H" 
			},
			{
				"x": 0.0019372406,
				"y": -0.2410150152,
				"z": -3.5617814419,
				"element": "H" 
			},
			{
				"x": -1.5230983,
				"y": -1.8519284151,
				"z": -3.4460331892,
				"element": "H" 
			}
		],
		 "valence_orbital": [ 
			{
				"type": "occ",
				"energy": -0.27529,
				"method": "rhf"
			},
			{
				"type": "occ",
				"energy": -0.26728,
				"method": "rhf"
			},
			{
				"type": "occ",
				"energy": -0.25485,
				"method": "rhf"
			},
			{
				"type": "occ",
				"energy": -0.25479,
				"method": "rhf"
			},
			{
				"type": "occ",
				"energy": -0.22759,
				"method": "rhf"
			},
			{
				"type": "unocc",
				"energy": -0.04086,
				"method": "rhf"
			},
			{
				"type": "unocc",
				"energy": -0.00903,
				"method": "rhf"
			},
			{
				"type": "unocc",
				"energy": -0.00446,
				"method": "rhf"
			},
			{
				"type": "unocc",
				"energy": 0.00071,
				"method": "rhf"
			},
			{
				"type": "unocc",
				"energy": 0.06118,
				"method": "rhf"
			}
		],
		"cosmo_sigma_profile": { 
			"-0.025": 0.0,
			"-0.024": 0.0,
			"-0.023": 0.0,
			"-0.022": 0.0,
			"-0.021": 0.0,
			"-0.02": 0.0,
			"-0.019": 0.0,
			"-0.018": 0.0,
			"-0.017": 0.0,
			"-0.016": 0.0,
			"-0.015": 0.0,
			"-0.014": 0.0,
			"-0.013": 0.0,
			"-0.012": 0.0,
			"-0.011": 0.0,
			"-0.01": 0.0,
			"-0.009": 0.0,
			"-0.008": 0.0,
			"-0.007": 1.39328942409,
			"-0.006": 9.14164142124,
			"-0.005": 19.5197818557,
			"-0.004": 45.4447748306,
			"-0.003": 63.8472318962,
			"-0.002": 64.7848727633,
			"-0.001": 59.4782196803,
			"0.0": 48.4013444867,
			"0.001": 33.9866811039,
			"0.002": 26.2172850497,
			"0.003": 21.31749108,
			"0.004": 24.5712627302,
			"0.005": 13.028254224,
			"0.006": 8.06459902534,
			"0.007": 4.5968707145,
			"0.008": 4.05830155987,
			"0.009": 5.52359174268,
			"0.01": 4.77900139382,
			"0.011": 4.1542720395,
			"0.012": 7.17217277932,
			"0.013": 4.48700270003,
			"0.014": 1.35820673104,
			"0.015": 0.0,
			"0.016": 0.0,
			"0.017": 0.0,
			"0.018": 0.0,
			"0.019": 0.0,
			"0.02": 0.0,
			"0.021": 0.0,
			"0.022": 0.0,
			"0.023": 0.0,
			"0.024": 0.0,
			"0.025": 0.0
		}
	}
}
