{
	 "smiles": "COC1=C(O)C(=O)C(C)=C(O)C1=O", 
	 "Tm": 475.15, 
	 "num_atms": 21, 
	 "gaussian": { 
		 "optdone": 1, 
		 "sigma_profile": "yes", 
		 "theory": "DFT", 
		 "functional": "B3LYP", 
		 "basiset": "6-31G**", 
		 "properties": { 
			 "R2extent": 2479.8124, 
			 "electric_dipole_moment_norm": 3.21312914306, 
			 "electric_quadrupole_moment_norm": 14.9979985648, 
			 "total_energy": -685.742144919, 
			 "HOMO_LUMO_gap": 0.11171, 
			 "cosmo_polarized_energy": -16.53, 
			 "cosmo_cavitation_energy": 25.59, 
			 "cosmo_dispersion_energy": -18.99, 
			 "cosmo_repulsion_energy": 1.5, 
			 "cosmo_total_nonelectrostatic_energy": 8.1, 
			 "SMD_solvation_energy": 7.29 
		},
		"coords": [
			{
				"x": 1.3365255941,
				"y": -2.4271577426,
				"z": 2.1503127289,
				"element": "C" 
			},
			{
				"x": 0.082615796,
				"y": -2.3855089459,
				"z": 1.4517475341,
				"element": "O" 
			},
			{
				"x": -0.1036355249,
				"y": -1.3763554085,
				"z": 0.5624579981,
				"element": "C" 
			},
			{
				"x": -1.2061336698,
				"y": -0.5852167765,
				"z": 0.6465002395,
				"element": "C" 
			},
			{
				"x": -2.1134246668,
				"y": -0.6803932933,
				"z": 1.6236524928,
				"element": "O" 
			},
			{
				"x": -1.5110455579,
				"y": 0.4675905882,
				"z": -0.3742653962,
				"element": "C" 
			},
			{
				"x": -2.541671824,
				"y": 1.1247014911,
				"z": -0.1910527796,
				"element": "O" 
			},
			{
				"x": -0.6045172582,
				"y": 0.6856398226,
				"z": -1.4981588651,
				"element": "C" 
			},
			{
				"x": -0.9238077078,
				"y": 1.7675253866,
				"z": -2.4966774994,
				"element": "C" 
			},
			{
				"x": 0.4971441196,
				"y": -0.1046093619,
				"z": -1.5764578248,
				"element": "C" 
			},
			{
				"x": 1.4268518754,
				"y": -0.0179038809,
				"z": -2.5397976801,
				"element": "O" 
			},
			{
				"x": 0.8094097386,
				"y": -1.2091252741,
				"z": -0.5815978382,
				"element": "C" 
			},
			{
				"x": 1.79126175,
				"y": -1.9161562735,
				"z": -0.7616337008,
				"element": "O" 
			},
			{
				"x": 1.5086717377,
				"y": -1.4887562678,
				"z": 2.6917442469,
				"element": "H" 
			},
			{
				"x": 2.1645783179,
				"y": -2.6219041927,
				"z": 1.4666528495,
				"element": "H" 
			},
			{
				"x": 1.243297481,
				"y": -3.2429460971,
				"z": 2.8689380491,
				"element": "H" 
			},
			{
				"x": -2.7803608236,
				"y": 0.0053233794,
				"z": 1.4046326785,
				"element": "H" 
			},
			{
				"x": -1.0473421776,
				"y": 1.3669877401,
				"z": -3.5112457764,
				"element": "H" 
			},
			{
				"x": -0.1446220731,
				"y": 2.5402639301,
				"z": -2.5297605653,
				"element": "H" 
			},
			{
				"x": -1.8596010224,
				"y": 2.253310472,
				"z": -2.215896212,
				"element": "H" 
			},
			{
				"x": 1.1863058958,
				"y": 0.6881907048,
				"z": -3.1570946795,
				"element": "H" 
			}
		],
		 "valence_orbital": [ 
			{
				"type": "occ",
				"energy": -0.31003,
				"method": "rhf"
			},
			{
				"type": "occ",
				"energy": -0.28833,
				"method": "rhf"
			},
			{
				"type": "occ",
				"energy": -0.27047,
				"method": "rhf"
			},
			{
				"type": "occ",
				"energy": -0.26279,
				"method": "rhf"
			},
			{
				"type": "occ",
				"energy": -0.2272,
				"method": "rhf"
			},
			{
				"type": "unocc",
				"energy": -0.11549,
				"method": "rhf"
			},
			{
				"type": "unocc",
				"energy": 0.00575,
				"method": "rhf"
			},
			{
				"type": "unocc",
				"energy": 0.01874,
				"method": "rhf"
			},
			{
				"type": "unocc",
				"energy": 0.04126,
				"method": "rhf"
			},
			{
				"type": "unocc",
				"energy": 0.08854,
				"method": "rhf"
			}
		],
		"cosmo_sigma_profile": { 
			"-0.025": 0.0,
			"-0.024": 0.0,
			"-0.023": 0.0,
			"-0.022": 0.0,
			"-0.021": 0.0,
			"-0.02": 0.0,
			"-0.019": 0.0485700982578,
			"-0.018": 0.697583035996,
			"-0.017": 0.601326286006,
			"-0.016": 0.869572632481,
			"-0.015": 1.66425058605,
			"-0.014": 1.16536108969,
			"-0.013": 1.71700185805,
			"-0.012": 1.70231183249,
			"-0.011": 2.08686301009,
			"-0.01": 1.85569780345,
			"-0.009": 1.68108467052,
			"-0.008": 2.23053809753,
			"-0.007": 3.18563679724,
			"-0.006": 8.32526244254,
			"-0.005": 15.5872900818,
			"-0.004": 17.8879134611,
			"-0.003": 19.4497953746,
			"-0.002": 18.6911701854,
			"-0.001": 16.1324886063,
			"0.0": 8.88577857881,
			"0.001": 7.16070755704,
			"0.002": 5.49634854489,
			"0.003": 5.84947176143,
			"0.004": 5.97830710018,
			"0.005": 5.37418651347,
			"0.006": 6.21239473691,
			"0.007": 7.11157858348,
			"0.008": 7.81325656765,
			"0.009": 7.85405471966,
			"0.01": 9.01193920342,
			"0.011": 7.56665055138,
			"0.012": 2.07237871921,
			"0.013": 1.39839592583,
			"0.014": 0.400825846094,
			"0.015": 0.0,
			"0.016": 0.0,
			"0.017": 0.0,
			"0.018": 0.0,
			"0.019": 0.0,
			"0.02": 0.0,
			"0.021": 0.0,
			"0.022": 0.0,
			"0.023": 0.0,
			"0.024": 0.0,
			"0.025": 0.0
		}
	}
}
