{
	 "smiles": "COC1=C(O)C=CC(C=NNC(=O)CCN2C(C)=NC3=CC=CC=C23)=C1", 
	 "Tm": 503.15, 
	 "num_atms": 46, 
	 "gaussian": { 
		 "optdone": 1, 
		 "sigma_profile": "yes", 
		 "theory": "DFT", 
		 "functional": "B3LYP", 
		 "basiset": "6-31G**", 
		 "properties": { 
			 "R2extent": 15130.3174, 
			 "electric_dipole_moment_norm": 3.81105811685, 
			 "electric_quadrupole_moment_norm": 21.3493199981, 
			 "total_energy": -1180.74383696, 
			 "HOMO_LUMO_gap": 0.15625, 
			 "cosmo_polarized_energy": -28.29, 
			 "cosmo_cavitation_energy": 50.69, 
			 "cosmo_dispersion_energy": -35.26, 
			 "cosmo_repulsion_energy": 2.69, 
			 "cosmo_total_nonelectrostatic_energy": 18.12, 
			 "SMD_solvation_energy": 7.46 
		},
		"coords": [
			{
				"x": 0.2847879233,
				"y": 1.4735571401,
				"z": -6.1940131866,
				"element": "C" 
			},
			{
				"x": 1.4679790162,
				"y": 0.6838446133,
				"z": -6.216222657,
				"element": "O" 
			},
			{
				"x": 1.7082433081,
				"y": -0.1472898056,
				"z": -5.1517830937,
				"element": "C" 
			},
			{
				"x": 2.9180632462,
				"y": -0.8749014937,
				"z": -5.2716774278,
				"element": "C" 
			},
			{
				"x": 3.7022731769,
				"y": -0.7063538201,
				"z": -6.365491927,
				"element": "O" 
			},
			{
				"x": 3.2936037361,
				"y": -1.757494918,
				"z": -4.2647979554,
				"element": "C" 
			},
			{
				"x": 2.4770943509,
				"y": -1.9203430069,
				"z": -3.1446262308,
				"element": "C" 
			},
			{
				"x": 1.2797918269,
				"y": -1.2052272303,
				"z": -3.0203269018,
				"element": "C" 
			},
			{
				"x": 0.4436244542,
				"y": -1.3932342871,
				"z": -1.8401135161,
				"element": "C" 
			},
			{
				"x": -0.6683845787,
				"y": -0.7674400102,
				"z": -1.6852712837,
				"element": "N" 
			},
			{
				"x": -1.3653292102,
				"y": -1.0244778262,
				"z": -0.5427737406,
				"element": "N" 
			},
			{
				"x": -2.5483073048,
				"y": -0.3779336288,
				"z": -0.2671474806,
				"element": "C" 
			},
			{
				"x": -3.0505623632,
				"y": 0.4647381223,
				"z": -0.9937008899,
				"element": "O" 
			},
			{
				"x": -3.2136097637,
				"y": -0.8281437627,
				"z": 1.0336387433,
				"element": "C" 
			},
			{
				"x": -3.7561145615,
				"y": 0.369587084,
				"z": 1.8299225428,
				"element": "C" 
			},
			{
				"x": -2.7073256863,
				"y": 1.1682885857,
				"z": 2.4456315424,
				"element": "N" 
			},
			{
				"x": -2.2489072381,
				"y": 2.4285389944,
				"z": 2.0702398786,
				"element": "C" 
			},
			{
				"x": -2.8548702132,
				"y": 3.2087678057,
				"z": 0.9492012311,
				"element": "C" 
			},
			{
				"x": -1.2561514685,
				"y": 2.8541205338,
				"z": 2.8169794453,
				"element": "N" 
			},
			{
				"x": -1.0287010288,
				"y": 1.8452066013,
				"z": 3.7401333857,
				"element": "C" 
			},
			{
				"x": -0.0930612073,
				"y": 1.7710299168,
				"z": 4.7783741738,
				"element": "C" 
			},
			{
				"x": -0.0880720437,
				"y": 0.6317805008,
				"z": 5.5797041941,
				"element": "C" 
			},
			{
				"x": -0.9984019111,
				"y": -0.4200442684,
				"z": 5.36197749,
				"element": "C" 
			},
			{
				"x": -1.9377782818,
				"y": -0.3672540983,
				"z": 4.3320473661,
				"element": "C" 
			},
			{
				"x": -1.9314616164,
				"y": 0.7762033538,
				"z": 3.5291918942,
				"element": "C" 
			},
			{
				"x": 0.8976206707,
				"y": -0.3083946459,
				"z": -4.0423700078,
				"element": "C" 
			},
			{
				"x": -0.6119173204,
				"y": 0.843300034,
				"z": -6.1648873719,
				"element": "H" 
			},
			{
				"x": 0.2911513613,
				"y": 2.0557203297,
				"z": -7.1163183253,
				"element": "H" 
			},
			{
				"x": 0.2771590819,
				"y": 2.1516017239,
				"z": -5.3324911079,
				"element": "H" 
			},
			{
				"x": 3.2627478923,
				"y": -0.0527777597,
				"z": -6.9323672044,
				"element": "H" 
			},
			{
				"x": 4.2236765375,
				"y": -2.3049929714,
				"z": -4.3729680044,
				"element": "H" 
			},
			{
				"x": 2.7762871672,
				"y": -2.6103493323,
				"z": -2.360358148,
				"element": "H" 
			},
			{
				"x": 0.8144867393,
				"y": -2.1010217959,
				"z": -1.0841370706,
				"element": "H" 
			},
			{
				"x": -0.9832995696,
				"y": -1.6762703853,
				"z": 0.1389303833,
				"element": "H" 
			},
			{
				"x": -2.5418806323,
				"y": -1.4266208911,
				"z": 1.6575386532,
				"element": "H" 
			},
			{
				"x": -4.0592815421,
				"y": -1.4702836419,
				"z": 0.7570647029,
				"element": "H" 
			},
			{
				"x": -4.4326792663,
				"y": 0.0143923232,
				"z": 2.6150078735,
				"element": "H" 
			},
			{
				"x": -4.3278917116,
				"y": 1.0069790463,
				"z": 1.153843114,
				"element": "H" 
			},
			{
				"x": -2.852659082,
				"y": 2.6442655322,
				"z": 0.0119313531,
				"element": "H" 
			},
			{
				"x": -2.276684853,
				"y": 4.1249614711,
				"z": 0.8259473665,
				"element": "H" 
			},
			{
				"x": -3.8935381856,
				"y": 3.4842202658,
				"z": 1.1705649654,
				"element": "H" 
			},
			{
				"x": 0.6011205098,
				"y": 2.5885112536,
				"z": 4.9453850118,
				"element": "H" 
			},
			{
				"x": 0.6279228502,
				"y": 0.5511800908,
				"z": 6.392431229,
				"element": "H" 
			},
			{
				"x": -0.9716728814,
				"y": -1.2904412519,
				"z": 6.0112155751,
				"element": "H" 
			},
			{
				"x": -2.6439806543,
				"y": -1.1783605661,
				"z": 4.1792604638,
				"element": "H" 
			},
			{
				"x": -0.0307096732,
				"y": 0.2379560752,
				"z": -3.9293190475,
				"element": "H" 
			}
		],
		 "valence_orbital": [ 
			{
				"type": "occ",
				"energy": -0.25714,
				"method": "rhf"
			},
			{
				"type": "occ",
				"energy": -0.24071,
				"method": "rhf"
			},
			{
				"type": "occ",
				"energy": -0.21795,
				"method": "rhf"
			},
			{
				"type": "occ",
				"energy": -0.21311,
				"method": "rhf"
			},
			{
				"type": "occ",
				"energy": -0.20526,
				"method": "rhf"
			},
			{
				"type": "unocc",
				"energy": -0.04901,
				"method": "rhf"
			},
			{
				"type": "unocc",
				"energy": -0.00757,
				"method": "rhf"
			},
			{
				"type": "unocc",
				"energy": 0.00198,
				"method": "rhf"
			},
			{
				"type": "unocc",
				"energy": 0.01999,
				"method": "rhf"
			},
			{
				"type": "unocc",
				"energy": 0.02584,
				"method": "rhf"
			}
		],
		"cosmo_sigma_profile": { 
			"-0.025": 0.0,
			"-0.024": 0.0,
			"-0.023": 0.0,
			"-0.022": 0.0,
			"-0.021": 0.0,
			"-0.02": 0.0,
			"-0.019": 0.0,
			"-0.018": 0.0,
			"-0.017": 0.0,
			"-0.016": 0.127464874107,
			"-0.015": 1.74456898243,
			"-0.014": 2.5918538425,
			"-0.013": 1.85961328957,
			"-0.012": 2.00503655809,
			"-0.011": 2.45058799303,
			"-0.01": 2.35750293366,
			"-0.009": 2.17798480848,
			"-0.008": 3.51202921634,
			"-0.007": 11.2808501374,
			"-0.006": 28.8231924716,
			"-0.005": 36.5728816391,
			"-0.004": 32.4387484585,
			"-0.003": 28.5086750396,
			"-0.002": 24.3758727563,
			"-0.001": 24.1875883967,
			"0.0": 21.9740653033,
			"0.001": 21.5876734433,
			"0.002": 22.8077924578,
			"0.003": 24.3441602332,
			"0.004": 27.782850551,
			"0.005": 20.8921381106,
			"0.006": 14.272777775,
			"0.007": 8.15208126188,
			"0.008": 4.51918681738,
			"0.009": 4.91577848428,
			"0.01": 4.8464968384,
			"0.011": 5.20106378623,
			"0.012": 3.52390015522,
			"0.013": 4.31632475366,
			"0.014": 2.56630114041,
			"0.015": 2.75474494364,
			"0.016": 1.66121968152,
			"0.017": 1.6625671787,
			"0.018": 0.802633576076,
			"0.019": 0.0,
			"0.02": 0.0,
			"0.021": 0.0,
			"0.022": 0.0,
			"0.023": 0.0,
			"0.024": 0.0,
			"0.025": 0.0
		}
	}
}
