{
	 "smiles": "COC1=C(OC(F)F)C=C(C(O)=O)C(N)=C1", 
	 "Tm": 442.15, 
	 "num_atms": 25, 
	 "gaussian": { 
		 "optdone": 1, 
		 "sigma_profile": "yes", 
		 "theory": "DFT", 
		 "functional": "B3LYP", 
		 "basiset": "6-31G**", 
		 "properties": { 
			 "R2extent": 4203.9055, 
			 "electric_dipole_moment_norm": 4.83497483447, 
			 "electric_quadrupole_moment_norm": 12.00892466, 
			 "total_energy": -903.706321805, 
			 "HOMO_LUMO_gap": 0.17032, 
			 "cosmo_polarized_energy": -14.98, 
			 "cosmo_cavitation_energy": 30.66, 
			 "cosmo_dispersion_energy": -21.84, 
			 "cosmo_repulsion_energy": 1.68, 
			 "cosmo_total_nonelectrostatic_energy": 10.5, 
			 "SMD_solvation_energy": 8.23 
		},
		"coords": [
			{
				"x": -3.7990785568,
				"y": 0.6518383006,
				"z": -1.0619003301,
				"element": "C" 
			},
			{
				"x": -2.4860249157,
				"y": 1.1221125262,
				"z": -1.4103544618,
				"element": "O" 
			},
			{
				"x": -1.4087160575,
				"y": 0.4712296547,
				"z": -0.8840128284,
				"element": "C" 
			},
			{
				"x": -1.2190290786,
				"y": 0.2771862901,
				"z": 0.5028887622,
				"element": "C" 
			},
			{
				"x": -2.1992171572,
				"y": 0.6953299679,
				"z": 1.4055632338,
				"element": "O" 
			},
			{
				"x": -2.0493026821,
				"y": 1.9791931132,
				"z": 1.8770911821,
				"element": "C" 
			},
			{
				"x": -3.2615266067,
				"y": 2.3740979898,
				"z": 2.3193811179,
				"element": "F" 
			},
			{
				"x": -1.1964463828,
				"y": 1.9980226871,
				"z": 2.9371468275,
				"element": "F" 
			},
			{
				"x": -0.0702374571,
				"y": -0.3368592284,
				"z": 0.9545027602,
				"element": "C" 
			},
			{
				"x": 0.9367451655,
				"y": -0.7765928947,
				"z": 0.0750554871,
				"element": "C" 
			},
			{
				"x": 2.1085978696,
				"y": -1.3944218588,
				"z": 0.7241839812,
				"element": "C" 
			},
			{
				"x": 3.11392667,
				"y": -1.7574182801,
				"z": -0.1345740945,
				"element": "O" 
			},
			{
				"x": 2.2319527722,
				"y": -1.5836287031,
				"z": 1.9193352218,
				"element": "O" 
			},
			{
				"x": 0.7638362235,
				"y": -0.57812771,
				"z": -1.32693668,
				"element": "C" 
			},
			{
				"x": 1.6614771891,
				"y": -1.0078349789,
				"z": -2.2688965142,
				"element": "N" 
			},
			{
				"x": -0.4241997538,
				"y": 0.0458702814,
				"z": -1.7652892807,
				"element": "C" 
			},
			{
				"x": -4.0588718386,
				"y": 0.8940253447,
				"z": -0.0299184056,
				"element": "H" 
			},
			{
				"x": -4.4805550323,
				"y": 1.1582124177,
				"z": -1.747628712,
				"element": "H" 
			},
			{
				"x": -3.8722776848,
				"y": -0.4311665002,
				"z": -1.212050027,
				"element": "H" 
			},
			{
				"x": -1.6777364744,
				"y": 2.6764086264,
				"z": 1.1178157595,
				"element": "H" 
			},
			{
				"x": 0.0776427379,
				"y": -0.4783927502,
				"z": 2.018790822,
				"element": "H" 
			},
			{
				"x": 3.805484601,
				"y": -2.1388056904,
				"z": 0.4310075693,
				"element": "H" 
			},
			{
				"x": 2.5751673948,
				"y": -1.3039379247,
				"z": -1.9644391856,
				"element": "H" 
			},
			{
				"x": 1.5737025545,
				"y": -0.6437754163,
				"z": -3.2035274156,
				"element": "H" 
			},
			{
				"x": -0.5958135,
				"y": 0.2002347359,
				"z": -2.8260347892,
				"element": "H" 
			}
		],
		 "valence_orbital": [ 
			{
				"type": "occ",
				"energy": -0.30815,
				"method": "rhf"
			},
			{
				"type": "occ",
				"energy": -0.29113,
				"method": "rhf"
			},
			{
				"type": "occ",
				"energy": -0.27932,
				"method": "rhf"
			},
			{
				"type": "occ",
				"energy": -0.24719,
				"method": "rhf"
			},
			{
				"type": "occ",
				"energy": -0.21449,
				"method": "rhf"
			},
			{
				"type": "unocc",
				"energy": -0.04417,
				"method": "rhf"
			},
			{
				"type": "unocc",
				"energy": 0.00051,
				"method": "rhf"
			},
			{
				"type": "unocc",
				"energy": 0.05547,
				"method": "rhf"
			},
			{
				"type": "unocc",
				"energy": 0.06705,
				"method": "rhf"
			},
			{
				"type": "unocc",
				"energy": 0.08451,
				"method": "rhf"
			}
		],
		"cosmo_sigma_profile": { 
			"-0.025": 0.0,
			"-0.024": 0.0,
			"-0.023": 0.0,
			"-0.022": 0.0,
			"-0.021": 0.0,
			"-0.02": 0.0,
			"-0.019": 0.00156845860508,
			"-0.018": 0.594650159773,
			"-0.017": 1.06253719433,
			"-0.016": 0.759653345992,
			"-0.015": 0.639374526033,
			"-0.014": 1.21444702431,
			"-0.013": 1.97906371153,
			"-0.012": 2.94592206741,
			"-0.011": 2.17619233502,
			"-0.01": 3.8762779664,
			"-0.009": 4.56828202898,
			"-0.008": 4.6236719838,
			"-0.007": 5.12466051174,
			"-0.006": 6.92242774532,
			"-0.005": 9.95786260971,
			"-0.004": 12.4618684102,
			"-0.003": 14.7950294095,
			"-0.002": 14.0953013272,
			"-0.001": 15.2231033462,
			"0.0": 16.0506584245,
			"0.001": 16.6701317523,
			"0.002": 22.0468802012,
			"0.003": 26.3968747231,
			"0.004": 25.419684628,
			"0.005": 5.78989596968,
			"0.006": 4.83782028199,
			"0.007": 4.16762930047,
			"0.008": 3.73344017136,
			"0.009": 3.69830836217,
			"0.01": 3.75376881396,
			"0.011": 3.04216977301,
			"0.012": 5.028125096,
			"0.013": 0.468600194177,
			"0.014": 0.0,
			"0.015": 0.0,
			"0.016": 0.0,
			"0.017": 0.0,
			"0.018": 0.0,
			"0.019": 0.0,
			"0.02": 0.0,
			"0.021": 0.0,
			"0.022": 0.0,
			"0.023": 0.0,
			"0.024": 0.0,
			"0.025": 0.0
		}
	}
}
