{
	 "smiles": "CN(CC(O)=O)S(=O)(=O)C1=CC2=C(C=CC=C2)C=C1", 
	 "Tm": 446.15, 
	 "num_atms": 32, 
	 "gaussian": { 
		 "optdone": 1, 
		 "sigma_profile": "yes", 
		 "theory": "DFT", 
		 "functional": "B3LYP", 
		 "basiset": "6-31G**", 
		 "properties": { 
			 "R2extent": 7248.4643, 
			 "electric_dipole_moment_norm": 4.88478830043, 
			 "electric_quadrupole_moment_norm": 11.710629416, 
			 "total_energy": -1256.99741935, 
			 "HOMO_LUMO_gap": 0.16964, 
			 "cosmo_polarized_energy": -19.76, 
			 "cosmo_cavitation_energy": 37.33, 
			 "cosmo_dispersion_energy": -26.71, 
			 "cosmo_repulsion_energy": 1.99, 
			 "cosmo_total_nonelectrostatic_energy": 12.61, 
			 "SMD_solvation_energy": 6.24 
		},
		"coords": [
			{
				"x": -0.2940692046,
				"y": 2.8379600075,
				"z": -2.482795915,
				"element": "C" 
			},
			{
				"x": -0.7689156904,
				"y": 2.6574878008,
				"z": -1.1080477966,
				"element": "N" 
			},
			{
				"x": -1.9075303375,
				"y": 3.4544326201,
				"z": -0.6781468851,
				"element": "C" 
			},
			{
				"x": -1.7610634539,
				"y": 4.9753857986,
				"z": -0.6600943088,
				"element": "C" 
			},
			{
				"x": -0.4772857239,
				"y": 5.3844969168,
				"z": -0.6873411132,
				"element": "O" 
			},
			{
				"x": -2.7060329308,
				"y": 5.7290156401,
				"z": -0.6014142659,
				"element": "O" 
			},
			{
				"x": 0.4157846936,
				"y": 2.2722122515,
				"z": 0.0472943131,
				"element": "S" 
			},
			{
				"x": 1.6902781441,
				"y": 2.9059834306,
				"z": -0.3023658922,
				"element": "O" 
			},
			{
				"x": -0.218642973,
				"y": 2.4833149819,
				"z": 1.3535019722,
				"element": "O" 
			},
			{
				"x": 0.6313889207,
				"y": 0.5052209013,
				"z": -0.1998525977,
				"element": "C" 
			},
			{
				"x": -0.2551639229,
				"y": -0.3670344878,
				"z": 0.3921314124,
				"element": "C" 
			},
			{
				"x": -0.1009483535,
				"y": -1.7648359591,
				"z": 0.2110449139,
				"element": "C" 
			},
			{
				"x": 0.9860993927,
				"y": -2.2465952176,
				"z": -0.5918111475,
				"element": "C" 
			},
			{
				"x": 1.1341037104,
				"y": -3.6482394471,
				"z": -0.7723068284,
				"element": "C" 
			},
			{
				"x": 0.2526802065,
				"y": -4.5295825699,
				"z": -0.1883352903,
				"element": "C" 
			},
			{
				"x": -0.8197630406,
				"y": -4.0528933323,
				"z": 0.6069275549,
				"element": "C" 
			},
			{
				"x": -0.99166642,
				"y": -2.7020538248,
				"z": 0.8029953178,
				"element": "C" 
			},
			{
				"x": 1.8833436365,
				"y": -1.3089727121,
				"z": -1.1705392631,
				"element": "C" 
			},
			{
				"x": 1.7202372592,
				"y": 0.0441643117,
				"z": -0.9794838296,
				"element": "C" 
			},
			{
				"x": 0.3573262601,
				"y": 2.0059658871,
				"z": -2.7598918146,
				"element": "H" 
			},
			{
				"x": -1.1639495836,
				"y": 2.8133338374,
				"z": -3.1457856094,
				"element": "H" 
			},
			{
				"x": 0.2477950472,
				"y": 3.7790237214,
				"z": -2.6229466602,
				"element": "H" 
			},
			{
				"x": -2.180704094,
				"y": 3.1582608039,
				"z": 0.3379519782,
				"element": "H" 
			},
			{
				"x": -2.7619783826,
				"y": 3.2275611031,
				"z": -1.3242011332,
				"element": "H" 
			},
			{
				"x": -0.4910795025,
				"y": 6.3543217055,
				"z": -0.6214361991,
				"element": "H" 
			},
			{
				"x": -1.0639840585,
				"y": 0.011065001,
				"z": 1.0094500202,
				"element": "H" 
			},
			{
				"x": 1.9579353093,
				"y": -4.0136891321,
				"z": -1.3795623029,
				"element": "H" 
			},
			{
				"x": 0.3768315274,
				"y": -5.5986469424,
				"z": -0.3339125264,
				"element": "H" 
			},
			{
				"x": -1.5056872335,
				"y": -4.7609617578,
				"z": 1.0622562936,
				"element": "H" 
			},
			{
				"x": -1.8112443677,
				"y": -2.3317308977,
				"z": 1.4128654737,
				"element": "H" 
			},
			{
				"x": 2.7158275278,
				"y": -1.6774614503,
				"z": -1.7638624124,
				"element": "H" 
			},
			{
				"x": 2.4189776383,
				"y": 0.7628910108,
				"z": -1.3921854585,
				"element": "H" 
			}
		],
		 "valence_orbital": [ 
			{
				"type": "occ",
				"energy": -0.29988,
				"method": "rhf"
			},
			{
				"type": "occ",
				"energy": -0.28901,
				"method": "rhf"
			},
			{
				"type": "occ",
				"energy": -0.26601,
				"method": "rhf"
			},
			{
				"type": "occ",
				"energy": -0.2487,
				"method": "rhf"
			},
			{
				"type": "occ",
				"energy": -0.23082,
				"method": "rhf"
			},
			{
				"type": "unocc",
				"energy": -0.06118,
				"method": "rhf"
			},
			{
				"type": "unocc",
				"energy": -0.03299,
				"method": "rhf"
			},
			{
				"type": "unocc",
				"energy": 0.0038,
				"method": "rhf"
			},
			{
				"type": "unocc",
				"energy": 0.01301,
				"method": "rhf"
			},
			{
				"type": "unocc",
				"energy": 0.05717,
				"method": "rhf"
			}
		],
		"cosmo_sigma_profile": { 
			"-0.025": 0.0,
			"-0.024": 0.0,
			"-0.023": 0.0,
			"-0.022": 0.0,
			"-0.021": 0.0,
			"-0.02": 0.0307499073251,
			"-0.019": 0.663884748909,
			"-0.018": 0.874636315962,
			"-0.017": 0.795704727609,
			"-0.016": 0.775757960027,
			"-0.015": 1.03890550975,
			"-0.014": 0.40167229168,
			"-0.013": 0.607431913721,
			"-0.012": 0.664222775119,
			"-0.011": 0.725115894247,
			"-0.01": 0.477690514935,
			"-0.009": 0.917798453344,
			"-0.008": 6.33886638904,
			"-0.007": 13.4951483817,
			"-0.006": 20.1053912965,
			"-0.005": 22.5175858667,
			"-0.004": 22.6016141163,
			"-0.003": 22.7463844965,
			"-0.002": 15.3210109702,
			"-0.001": 15.282832609,
			"0.0": 13.7351705377,
			"0.001": 17.4970769288,
			"0.002": 26.9166995941,
			"0.003": 21.8819371612,
			"0.004": 14.9901227734,
			"0.005": 6.29289414211,
			"0.006": 4.56446614791,
			"0.007": 5.48332957142,
			"0.008": 5.79877102302,
			"0.009": 5.98307659379,
			"0.01": 9.85738337561,
			"0.011": 12.9817561934,
			"0.012": 5.14186153079,
			"0.013": 0.137380382089,
			"0.014": 0.0,
			"0.015": 0.0,
			"0.016": 0.0,
			"0.017": 0.0,
			"0.018": 0.0,
			"0.019": 0.0,
			"0.02": 0.0,
			"0.021": 0.0,
			"0.022": 0.0,
			"0.023": 0.0,
			"0.024": 0.0,
			"0.025": 0.0
		}
	}
}
