{
	 "smiles": "CN1C=CC(=O)N(C)C1=O", 
	 "Tm": 393.15, 
	 "num_atms": 18, 
	 "gaussian": { 
		 "optdone": 1, 
		 "sigma_profile": "yes", 
		 "theory": "DFT", 
		 "functional": "B3LYP", 
		 "basiset": "6-31G**", 
		 "properties": { 
			 "R2extent": 1836.6691, 
			 "electric_dipole_moment_norm": 4.0519511769, 
			 "electric_quadrupole_moment_norm": 11.4554167345, 
			 "total_energy": -493.440871041, 
			 "HOMO_LUMO_gap": 0.20247, 
			 "cosmo_polarized_energy": -13.25, 
			 "cosmo_cavitation_energy": 21.57, 
			 "cosmo_dispersion_energy": -16.2, 
			 "cosmo_repulsion_energy": 1.29, 
			 "cosmo_total_nonelectrostatic_energy": 6.67, 
			 "SMD_solvation_energy": 5.78 
		},
		"coords": [
			{
				"x": -0.2758296204,
				"y": 1.4226883047,
				"z": -1.0682213256,
				"element": "C" 
			},
			{
				"x": 0.3083122829,
				"y": 0.7347058731,
				"z": 0.0840774217,
				"element": "N" 
			},
			{
				"x": 1.6678993168,
				"y": 0.7428816774,
				"z": 0.2801802052,
				"element": "C" 
			},
			{
				"x": 2.2580283105,
				"y": 0.1346449626,
				"z": 1.3299320374,
				"element": "C" 
			},
			{
				"x": 1.4559059602,
				"y": -0.5683646231,
				"z": 2.317661791,
				"element": "C" 
			},
			{
				"x": 1.9051277348,
				"y": -1.1463191071,
				"z": 3.2976800672,
				"element": "O" 
			},
			{
				"x": 0.0592283979,
				"y": -0.5386017706,
				"z": 2.0582950866,
				"element": "N" 
			},
			{
				"x": -0.8407546976,
				"y": -1.2180049352,
				"z": 2.9955544952,
				"element": "C" 
			},
			{
				"x": -0.5552383614,
				"y": 0.0879676913,
				"z": 0.9803134323,
				"element": "C" 
			},
			{
				"x": -1.767678642,
				"y": 0.076085379,
				"z": 0.8221459082,
				"element": "O" 
			},
			{
				"x": -1.3453139491,
				"y": 1.2228440686,
				"z": -1.0642691859,
				"element": "H" 
			},
			{
				"x": 0.1655724875,
				"y": 1.0468215926,
				"z": -1.9957958604,
				"element": "H" 
			},
			{
				"x": -0.1077999032,
				"y": 2.5020071165,
				"z": -0.9978650912,
				"element": "H" 
			},
			{
				"x": 2.236409532,
				"y": 1.275885372,
				"z": -0.4750736143,
				"element": "H" 
			},
			{
				"x": 3.3300032531,
				"y": 0.1484555996,
				"z": 1.4691637454,
				"element": "H" 
			},
			{
				"x": -1.4109355501,
				"y": -1.9891277032,
				"z": 2.4730676144,
				"element": "H" 
			},
			{
				"x": -1.5448188235,
				"y": -0.5012584769,
				"z": 3.423897862,
				"element": "H" 
			},
			{
				"x": -0.2206177285,
				"y": -1.6585110212,
				"z": 3.7728554109,
				"element": "H" 
			}
		],
		 "valence_orbital": [ 
			{
				"type": "occ",
				"energy": -0.3429,
				"method": "rhf"
			},
			{
				"type": "occ",
				"energy": -0.28856,
				"method": "rhf"
			},
			{
				"type": "occ",
				"energy": -0.26832,
				"method": "rhf"
			},
			{
				"type": "occ",
				"energy": -0.25801,
				"method": "rhf"
			},
			{
				"type": "occ",
				"energy": -0.24031,
				"method": "rhf"
			},
			{
				"type": "unocc",
				"energy": -0.03784,
				"method": "rhf"
			},
			{
				"type": "unocc",
				"energy": 0.01449,
				"method": "rhf"
			},
			{
				"type": "unocc",
				"energy": 0.08187,
				"method": "rhf"
			},
			{
				"type": "unocc",
				"energy": 0.10359,
				"method": "rhf"
			},
			{
				"type": "unocc",
				"energy": 0.10872,
				"method": "rhf"
			}
		],
		"cosmo_sigma_profile": { 
			"-0.025": 0.0,
			"-0.024": 0.0,
			"-0.023": 0.0,
			"-0.022": 0.0,
			"-0.021": 0.0,
			"-0.02": 0.0,
			"-0.019": 0.0,
			"-0.018": 0.0,
			"-0.017": 0.0,
			"-0.016": 0.0,
			"-0.015": 0.0,
			"-0.014": 0.0,
			"-0.013": 0.0,
			"-0.012": 0.0,
			"-0.011": 0.0,
			"-0.01": 1.59289148572,
			"-0.009": 3.05054352892,
			"-0.008": 3.48109765984,
			"-0.007": 6.7075476025,
			"-0.006": 8.92117483521,
			"-0.005": 13.237231333,
			"-0.004": 16.7511201948,
			"-0.003": 21.4911473165,
			"-0.002": 19.5163777741,
			"-0.001": 10.3970691418,
			"0.0": 7.52655483786,
			"0.001": 7.54595643919,
			"0.002": 6.12447716838,
			"0.003": 5.5981910159,
			"0.004": 3.28457709698,
			"0.005": 2.686559813,
			"0.006": 2.90173697127,
			"0.007": 3.42684039779,
			"0.008": 2.12496360195,
			"0.009": 2.17780620435,
			"0.01": 3.2130181962,
			"0.011": 4.35802945009,
			"0.012": 5.94881549294,
			"0.013": 7.88987134773,
			"0.014": 1.61174314032,
			"0.015": 0.110397376662,
			"0.016": 0.0,
			"0.017": 0.0,
			"0.018": 0.0,
			"0.019": 0.0,
			"0.02": 0.0,
			"0.021": 0.0,
			"0.022": 0.0,
			"0.023": 0.0,
			"0.024": 0.0,
			"0.025": 0.0
		}
	}
}
