{
	 "smiles": "FC(F)N1C=CN=C1CN1CCNCC1", 
	 "Tm": 347.15, 
	 "num_atms": 29, 
	 "gaussian": { 
		 "optdone": 1, 
		 "sigma_profile": "yes", 
		 "theory": "DFT", 
		 "functional": "B3LYP", 
		 "basiset": "6-31G**", 
		 "properties": { 
			 "R2extent": 4164.1041, 
			 "electric_dipole_moment_norm": 2.79693227841, 
			 "electric_quadrupole_moment_norm": 7.94768872692, 
			 "total_energy": -770.033206061, 
			 "HOMO_LUMO_gap": 0.21145, 
			 "cosmo_polarized_energy": -14.78, 
			 "cosmo_cavitation_energy": 31.15, 
			 "cosmo_dispersion_energy": -22.24, 
			 "cosmo_repulsion_energy": 1.69, 
			 "cosmo_total_nonelectrostatic_energy": 10.6, 
			 "SMD_solvation_energy": -0.63 
		},
		"coords": [
			{
				"x": -2.886909587,
				"y": 3.2784777046,
				"z": -1.372425819,
				"element": "F" 
			},
			{
				"x": -1.9520835352,
				"y": 2.3446248825,
				"z": -1.0574035515,
				"element": "C" 
			},
			{
				"x": -2.2185085678,
				"y": 1.2485237122,
				"z": -1.8271835211,
				"element": "F" 
			},
			{
				"x": -2.0467859913,
				"y": 2.0255353494,
				"z": 0.3258359188,
				"element": "N" 
			},
			{
				"x": -3.2428454848,
				"y": 1.8250680906,
				"z": 1.0050909885,
				"element": "C" 
			},
			{
				"x": -2.8787780831,
				"y": 1.4850975676,
				"z": 2.276791443,
				"element": "C" 
			},
			{
				"x": -1.5066475416,
				"y": 1.4637739339,
				"z": 2.4072639066,
				"element": "N" 
			},
			{
				"x": -1.0185430171,
				"y": 1.7796432131,
				"z": 1.2300908087,
				"element": "C" 
			},
			{
				"x": 0.4547425458,
				"y": 1.8611593327,
				"z": 0.9250044491,
				"element": "C" 
			},
			{
				"x": 1.0498708021,
				"y": 0.5706380493,
				"z": 0.5955169323,
				"element": "N" 
			},
			{
				"x": 0.6543213522,
				"y": 0.0632201094,
				"z": -0.7202769419,
				"element": "C" 
			},
			{
				"x": 1.5815925573,
				"y": -1.0831131801,
				"z": -1.1317097633,
				"element": "C" 
			},
			{
				"x": 2.9891561248,
				"y": -0.668904294,
				"z": -1.2641451892,
				"element": "N" 
			},
			{
				"x": 3.3348604506,
				"y": 0.4975203954,
				"z": -0.4369570808,
				"element": "C" 
			},
			{
				"x": 2.5010221954,
				"y": 0.4702304568,
				"z": 0.846894194,
				"element": "C" 
			},
			{
				"x": -0.9576831229,
				"y": 2.7171482401,
				"z": -1.3087084059,
				"element": "H" 
			},
			{
				"x": -4.1968537077,
				"y": 1.9634975681,
				"z": 0.5226691257,
				"element": "H" 
			},
			{
				"x": -3.5265111389,
				"y": 1.2652078581,
				"z": 3.1139782668,
				"element": "H" 
			},
			{
				"x": 0.918827979,
				"y": 2.225089134,
				"z": 1.8444087576,
				"element": "H" 
			},
			{
				"x": 0.640500622,
				"y": 2.6286604746,
				"z": 0.1443876664,
				"element": "H" 
			},
			{
				"x": -0.3867946008,
				"y": -0.2784627757,
				"z": -0.6888097257,
				"element": "H" 
			},
			{
				"x": 0.7047409914,
				"y": 0.8526946533,
				"z": -1.5003303871,
				"element": "H" 
			},
			{
				"x": 1.5002907318,
				"y": -1.8792484344,
				"z": -0.3798252939,
				"element": "H" 
			},
			{
				"x": 1.2450051608,
				"y": -1.5120875968,
				"z": -2.0803695891,
				"element": "H" 
			},
			{
				"x": 3.1993234382,
				"y": -0.471175779,
				"z": -2.2365195717,
				"element": "H" 
			},
			{
				"x": 3.1593303833,
				"y": 1.4593933132,
				"z": -0.9509736397,
				"element": "H" 
			},
			{
				"x": 4.4028537262,
				"y": 0.4644795263,
				"z": -0.1846749816,
				"element": "H" 
			},
			{
				"x": 2.8100335313,
				"y": 1.2865914337,
				"z": 1.5061275889,
				"element": "H" 
			},
			{
				"x": 2.714471786,
				"y": -0.465382939,
				"z": 1.3810534148,
				"element": "H" 
			}
		],
		 "valence_orbital": [ 
			{
				"type": "occ",
				"energy": -0.28853,
				"method": "rhf"
			},
			{
				"type": "occ",
				"energy": -0.27102,
				"method": "rhf"
			},
			{
				"type": "occ",
				"energy": -0.23448,
				"method": "rhf"
			},
			{
				"type": "occ",
				"energy": -0.21643,
				"method": "rhf"
			},
			{
				"type": "occ",
				"energy": -0.20899,
				"method": "rhf"
			},
			{
				"type": "unocc",
				"energy": 0.00246,
				"method": "rhf"
			},
			{
				"type": "unocc",
				"energy": 0.05541,
				"method": "rhf"
			},
			{
				"type": "unocc",
				"energy": 0.06414,
				"method": "rhf"
			},
			{
				"type": "unocc",
				"energy": 0.08584,
				"method": "rhf"
			},
			{
				"type": "unocc",
				"energy": 0.10771,
				"method": "rhf"
			}
		],
		"cosmo_sigma_profile": { 
			"-0.025": 0.0,
			"-0.024": 0.0,
			"-0.023": 0.0,
			"-0.022": 0.0,
			"-0.021": 0.0,
			"-0.02": 0.0,
			"-0.019": 0.0,
			"-0.018": 0.0,
			"-0.017": 0.0,
			"-0.016": 0.0,
			"-0.015": 0.0,
			"-0.014": 0.0,
			"-0.013": 0.0,
			"-0.012": 0.0,
			"-0.011": 1.42930517282,
			"-0.01": 4.19221999085,
			"-0.009": 5.32026544988,
			"-0.008": 3.9118723978,
			"-0.007": 6.64713270603,
			"-0.006": 10.1143723307,
			"-0.005": 11.6338502633,
			"-0.004": 14.3244157039,
			"-0.003": 24.1646594517,
			"-0.002": 30.0465653174,
			"-0.001": 20.9899569386,
			"0.0": 15.4002632387,
			"0.001": 13.1630524134,
			"0.002": 13.310869036,
			"0.003": 20.7113739796,
			"0.004": 14.6647919471,
			"0.005": 4.9170324984,
			"0.006": 3.26687825737,
			"0.007": 2.42642949406,
			"0.008": 3.18809108647,
			"0.009": 2.90632578591,
			"0.01": 2.64955190427,
			"0.011": 2.0696337398,
			"0.012": 1.82102717918,
			"0.013": 2.01634895488,
			"0.014": 3.07223437156,
			"0.015": 2.482891848,
			"0.016": 1.50274633057,
			"0.017": 1.13261116811,
			"0.018": 0.630017321721,
			"0.019": 0.336642347894,
			"0.02": 0.0,
			"0.021": 0.0,
			"0.022": 0.0,
			"0.023": 0.0,
			"0.024": 0.0,
			"0.025": 0.0
		}
	}
}
