{
	 "smiles": "O=S1OCCO1", 
	 "Tm": 262.15, 
	 "num_atms": 10, 
	 "gaussian": { 
		 "optdone": 1, 
		 "sigma_profile": "yes", 
		 "theory": "DFT", 
		 "functional": "B3LYP", 
		 "basiset": "6-31G**", 
		 "properties": { 
			 "R2extent": 1000.7305, 
			 "electric_dipole_moment_norm": 3.47887462407, 
			 "electric_quadrupole_moment_norm": 7.58121273016, 
			 "total_energy": -702.410232358, 
			 "HOMO_LUMO_gap": 0.26227, 
			 "cosmo_polarized_energy": -9.07, 
			 "cosmo_cavitation_energy": 14.91, 
			 "cosmo_dispersion_energy": -12.56, 
			 "cosmo_repulsion_energy": 1.03, 
			 "cosmo_total_nonelectrostatic_energy": 3.38, 
			 "SMD_solvation_energy": 1.39 
		},
		"coords": [
			{
				"x": 1.7740575764,
				"y": 2.3019300367,
				"z": -1.6695467155,
				"element": "O" 
			},
			{
				"x": 1.3468121284,
				"y": 0.9008028998,
				"z": -1.759307517,
				"element": "S" 
			},
			{
				"x": 1.5261730126,
				"y": 0.1633878085,
				"z": -0.2568844678,
				"element": "O" 
			},
			{
				"x": 0.4580449934,
				"y": 0.6182461625,
				"z": 0.5977622013,
				"element": "C" 
			},
			{
				"x": -0.7816488198,
				"y": 0.5420831373,
				"z": -0.2913012395,
				"element": "C" 
			},
			{
				"x": -0.3382438616,
				"y": 0.8804519235,
				"z": -1.6200095224,
				"element": "O" 
			},
			{
				"x": 0.4174247071,
				"y": -0.0572092223,
				"z": 1.4537500211,
				"element": "H" 
			},
			{
				"x": 0.6601717944,
				"y": 1.6398678193,
				"z": 0.9369365698,
				"element": "H" 
			},
			{
				"x": -1.5565677107,
				"y": 1.2534275962,
				"z": 0.0065406283,
				"element": "H" 
			},
			{
				"x": -1.1982238201,
				"y": -0.4708881616,
				"z": -0.3127399583,
				"element": "H" 
			}
		],
		 "valence_orbital": [ 
			{
				"type": "occ",
				"energy": -0.37689,
				"method": "rhf"
			},
			{
				"type": "occ",
				"energy": -0.34319,
				"method": "rhf"
			},
			{
				"type": "occ",
				"energy": -0.32187,
				"method": "rhf"
			},
			{
				"type": "occ",
				"energy": -0.29406,
				"method": "rhf"
			},
			{
				"type": "occ",
				"energy": -0.28385,
				"method": "rhf"
			},
			{
				"type": "unocc",
				"energy": -0.02158,
				"method": "rhf"
			},
			{
				"type": "unocc",
				"energy": 0.04251,
				"method": "rhf"
			},
			{
				"type": "unocc",
				"energy": 0.07431,
				"method": "rhf"
			},
			{
				"type": "unocc",
				"energy": 0.08784,
				"method": "rhf"
			},
			{
				"type": "unocc",
				"energy": 0.10469,
				"method": "rhf"
			}
		],
		"cosmo_sigma_profile": { 
			"-0.025": 0.0,
			"-0.024": 0.0,
			"-0.023": 0.0,
			"-0.022": 0.0,
			"-0.021": 0.0,
			"-0.02": 0.0,
			"-0.019": 0.0,
			"-0.018": 0.0,
			"-0.017": 0.0,
			"-0.016": 0.0,
			"-0.015": 0.0,
			"-0.014": 0.0,
			"-0.013": 0.0,
			"-0.012": 0.0,
			"-0.011": 0.0,
			"-0.01": 0.0,
			"-0.009": 0.358804666166,
			"-0.008": 5.44462830334,
			"-0.007": 12.238700066,
			"-0.006": 10.4209702127,
			"-0.005": 9.8698183815,
			"-0.004": 7.73215532822,
			"-0.003": 8.5359610597,
			"-0.002": 7.81641862365,
			"-0.001": 5.9414416345,
			"0.0": 3.74267006984,
			"0.001": 2.95890458897,
			"0.002": 3.56777958174,
			"0.003": 3.61152713959,
			"0.004": 3.67235295473,
			"0.005": 3.60298566223,
			"0.006": 3.50663422024,
			"0.007": 4.51822221537,
			"0.008": 4.26475467326,
			"0.009": 5.1846381974,
			"0.01": 7.22351676756,
			"0.011": 5.51025569609,
			"0.012": 0.120229615212,
			"0.013": 0.0,
			"0.014": 0.0,
			"0.015": 0.0,
			"0.016": 0.0,
			"0.017": 0.0,
			"0.018": 0.0,
			"0.019": 0.0,
			"0.02": 0.0,
			"0.021": 0.0,
			"0.022": 0.0,
			"0.023": 0.0,
			"0.024": 0.0,
			"0.025": 0.0
		}
	}
}
