{
	 "smiles": "ClC1=CC(Cl)=C(Cl)C=C1C1=C(Cl)C(Cl)=C(Cl)C=C1Cl", 
	 "Tm": 356.15, 
	 "num_atms": 22, 
	 "gaussian": { 
		 "optdone": 1, 
		 "sigma_profile": "yes", 
		 "theory": "DFT", 
		 "functional": "B3LYP", 
		 "basiset": "6-31G**", 
		 "properties": { 
			 "R2extent": 9995.947, 
			 "electric_dipole_moment_norm": 1.00284032627, 
			 "electric_quadrupole_moment_norm": 7.56974785247, 
			 "total_energy": -3680.41393751, 
			 "HOMO_LUMO_gap": 0.2045, 
			 "cosmo_polarized_energy": -5.74, 
			 "cosmo_cavitation_energy": 39.79, 
			 "cosmo_dispersion_energy": -27.89, 
			 "cosmo_repulsion_energy": 2.19, 
			 "cosmo_total_nonelectrostatic_energy": 14.08, 
			 "SMD_solvation_energy": 4.85 
		},
		"coords": [
			{
				"x": 0.3838370978,
				"y": -0.6731153508,
				"z": 2.5787283536,
				"element": "Cl" 
			},
			{
				"x": 0.9138582684,
				"y": 0.2232402096,
				"z": 1.172597856,
				"element": "C" 
			},
			{
				"x": 1.7089840917,
				"y": 1.3491718118,
				"z": 1.368516529,
				"element": "C" 
			},
			{
				"x": 2.1516399675,
				"y": 2.0900746841,
				"z": 0.2725960483,
				"element": "C" 
			},
			{
				"x": 3.1447017339,
				"y": 3.4920374357,
				"z": 0.5605366619,
				"element": "Cl" 
			},
			{
				"x": 1.7931942016,
				"y": 1.6966245806,
				"z": -1.0239426638,
				"element": "C" 
			},
			{
				"x": 2.3190240361,
				"y": 2.5852064332,
				"z": -2.4279588618,
				"element": "Cl" 
			},
			{
				"x": 0.9962870695,
				"y": 0.5664177866,
				"z": -1.2016398372,
				"element": "C" 
			},
			{
				"x": 0.5424173399,
				"y": -0.1881066261,
				"z": -0.1158406748,
				"element": "C" 
			},
			{
				"x": -0.301835369,
				"y": -1.3951902909,
				"z": -0.359649762,
				"element": "C" 
			},
			{
				"x": -1.7044336167,
				"y": -1.3045374777,
				"z": -0.4240672447,
				"element": "C" 
			},
			{
				"x": -2.4543134105,
				"y": 0.2503295955,
				"z": -0.1861812378,
				"element": "Cl" 
			},
			{
				"x": -2.5096882903,
				"y": -2.4303481881,
				"z": -0.6723169583,
				"element": "C" 
			},
			{
				"x": -4.2368362212,
				"y": -2.2910440169,
				"z": -0.7468678899,
				"element": "Cl" 
			},
			{
				"x": -1.8860888389,
				"y": -3.6736635933,
				"z": -0.8609981381,
				"element": "C" 
			},
			{
				"x": -2.8177338876,
				"y": -5.1113731372,
				"z": -1.1730600002,
				"element": "Cl" 
			},
			{
				"x": -0.5001970895,
				"y": -3.7890869482,
				"z": -0.8043536763,
				"element": "C" 
			},
			{
				"x": 0.2729546584,
				"y": -2.6597015617,
				"z": -0.557650814,
				"element": "C" 
			},
			{
				"x": 2.0101352534,
				"y": -2.8559943863,
				"z": -0.4969743282,
				"element": "Cl" 
			},
			{
				"x": 1.9864177811,
				"y": 1.6532521714,
				"z": 2.3701907582,
				"element": "H" 
			},
			{
				"x": 0.7240972611,
				"y": 0.2698704028,
				"z": -2.208261574,
				"element": "H" 
			},
			{
				"x": -0.0312220368,
				"y": -4.7534635344,
				"z": -0.9521025459,
				"element": "H" 
			}
		],
		 "valence_orbital": [ 
			{
				"type": "occ",
				"energy": -0.31727,
				"method": "rhf"
			},
			{
				"type": "occ",
				"energy": -0.27803,
				"method": "rhf"
			},
			{
				"type": "occ",
				"energy": -0.27513,
				"method": "rhf"
			},
			{
				"type": "occ",
				"energy": -0.26499,
				"method": "rhf"
			},
			{
				"type": "occ",
				"energy": -0.25917,
				"method": "rhf"
			},
			{
				"type": "unocc",
				"energy": -0.05467,
				"method": "rhf"
			},
			{
				"type": "unocc",
				"energy": -0.05271,
				"method": "rhf"
			},
			{
				"type": "unocc",
				"energy": -0.04758,
				"method": "rhf"
			},
			{
				"type": "unocc",
				"energy": -0.04139,
				"method": "rhf"
			},
			{
				"type": "unocc",
				"energy": -0.03835,
				"method": "rhf"
			}
		],
		"cosmo_sigma_profile": { 
			"-0.025": 0.0,
			"-0.024": 0.0,
			"-0.023": 0.0,
			"-0.022": 0.0,
			"-0.021": 0.0,
			"-0.02": 0.0,
			"-0.019": 0.0,
			"-0.018": 0.0,
			"-0.017": 0.0,
			"-0.016": 0.0,
			"-0.015": 0.0,
			"-0.014": 0.0,
			"-0.013": 0.0,
			"-0.012": 0.0,
			"-0.011": 0.0,
			"-0.01": 0.788025400616,
			"-0.009": 4.22485184264,
			"-0.008": 4.3459865347,
			"-0.007": 5.20042581227,
			"-0.006": 5.01100295786,
			"-0.005": 5.90628940467,
			"-0.004": 10.8364728722,
			"-0.003": 19.1342442849,
			"-0.002": 33.8793555201,
			"-0.001": 42.5964766672,
			"0.0": 41.9530123911,
			"0.001": 37.8511057071,
			"0.002": 47.2188234104,
			"0.003": 54.3451148683,
			"0.004": 21.9555330157,
			"0.005": 1.66600309034,
			"0.006": 0.0,
			"0.007": 0.0,
			"0.008": 0.0,
			"0.009": 0.0,
			"0.01": 0.0,
			"0.011": 0.0,
			"0.012": 0.0,
			"0.013": 0.0,
			"0.014": 0.0,
			"0.015": 0.0,
			"0.016": 0.0,
			"0.017": 0.0,
			"0.018": 0.0,
			"0.019": 0.0,
			"0.02": 0.0,
			"0.021": 0.0,
			"0.022": 0.0,
			"0.023": 0.0,
			"0.024": 0.0,
			"0.025": 0.0
		}
	}
}
