{
	 "smiles": "OC(=O)CCSC1=CC=C(C=C1)C#N", 
	 "Tm": 360.15, 
	 "num_atms": 23, 
	 "gaussian": { 
		 "optdone": 1, 
		 "sigma_profile": "yes", 
		 "theory": "DFT", 
		 "functional": "B3LYP", 
		 "basiset": "6-31G**", 
		 "properties": { 
			 "R2extent": 5921.3285, 
			 "electric_dipole_moment_norm": 3.96561528769, 
			 "electric_quadrupole_moment_norm": 28.0059683078, 
			 "total_energy": -989.865340812, 
			 "HOMO_LUMO_gap": 0.17774, 
			 "cosmo_polarized_energy": -22.15, 
			 "cosmo_cavitation_energy": 30.61, 
			 "cosmo_dispersion_energy": -21.7, 
			 "cosmo_repulsion_energy": 1.69, 
			 "cosmo_total_nonelectrostatic_energy": 10.6, 
			 "SMD_solvation_energy": 7.27 
		},
		"coords": [
			{
				"x": -0.9386236983,
				"y": 3.5932146036,
				"z": -0.311587109,
				"element": "O" 
			},
			{
				"x": 0.3839002029,
				"y": 3.3971075566,
				"z": -0.0736631628,
				"element": "C" 
			},
			{
				"x": 1.0759405066,
				"y": 4.3078246896,
				"z": 0.3065326255,
				"element": "O" 
			},
			{
				"x": 0.8903491565,
				"y": 1.9784770863,
				"z": -0.3145748582,
				"element": "C" 
			},
			{
				"x": 2.3979810041,
				"y": 1.8726744926,
				"z": -0.0846598048,
				"element": "C" 
			},
			{
				"x": 3.0757512028,
				"y": 0.1954516157,
				"z": -0.3643876512,
				"element": "S" 
			},
			{
				"x": 2.4160629461,
				"y": -0.7788319475,
				"z": 0.9724547231,
				"element": "C" 
			},
			{
				"x": 2.4188087139,
				"y": -2.173936218,
				"z": 0.7939765702,
				"element": "C" 
			},
			{
				"x": 1.969515693,
				"y": -3.0172957915,
				"z": 1.8006085491,
				"element": "C" 
			},
			{
				"x": 1.4903381279,
				"y": -2.4825866082,
				"z": 3.0099672086,
				"element": "C" 
			},
			{
				"x": 1.4839995363,
				"y": -1.0903473795,
				"z": 3.1901672715,
				"element": "C" 
			},
			{
				"x": 1.9484077218,
				"y": -0.2478531373,
				"z": 2.1847070555,
				"element": "C" 
			},
			{
				"x": 1.0108042732,
				"y": -3.348542863,
				"z": 4.0451397419,
				"element": "C" 
			},
			{
				"x": 0.6193418796,
				"y": -4.052256752,
				"z": 4.8851395187,
				"element": "N" 
			},
			{
				"x": -1.3568222347,
				"y": 2.7733392954,
				"z": -0.6115928653,
				"element": "H" 
			},
			{
				"x": 0.6410249924,
				"y": 1.6727791513,
				"z": -1.3383247813,
				"element": "H" 
			},
			{
				"x": 0.348109418,
				"y": 1.2953959279,
				"z": 0.3518245581,
				"element": "H" 
			},
			{
				"x": 2.9359283471,
				"y": 2.4967914239,
				"z": -0.8025574628,
				"element": "H" 
			},
			{
				"x": 2.6740337684,
				"y": 2.2425190183,
				"z": 0.9044652262,
				"element": "H" 
			},
			{
				"x": 2.7707851827,
				"y": -2.5956058989,
				"z": -0.1426106078,
				"element": "H" 
			},
			{
				"x": 1.9752590542,
				"y": -4.0922105395,
				"z": 1.6540244241,
				"element": "H" 
			},
			{
				"x": 1.1223853609,
				"y": -0.6720779525,
				"z": 4.1237261687,
				"element": "H" 
			},
			{
				"x": 1.9530188446,
				"y": 0.8217702266,
				"z": 2.3610246619,
				"element": "H" 
			}
		],
		 "valence_orbital": [ 
			{
				"type": "occ",
				"energy": -0.33173,
				"method": "rhf"
			},
			{
				"type": "occ",
				"energy": -0.30146,
				"method": "rhf"
			},
			{
				"type": "occ",
				"energy": -0.28852,
				"method": "rhf"
			},
			{
				"type": "occ",
				"energy": -0.2854,
				"method": "rhf"
			},
			{
				"type": "occ",
				"energy": -0.23655,
				"method": "rhf"
			},
			{
				"type": "unocc",
				"energy": -0.05881,
				"method": "rhf"
			},
			{
				"type": "unocc",
				"energy": -0.03582,
				"method": "rhf"
			},
			{
				"type": "unocc",
				"energy": -0.00555,
				"method": "rhf"
			},
			{
				"type": "unocc",
				"energy": 0.01556,
				"method": "rhf"
			},
			{
				"type": "unocc",
				"energy": 0.03395,
				"method": "rhf"
			}
		],
		"cosmo_sigma_profile": { 
			"-0.025": 0.0,
			"-0.024": 0.0,
			"-0.023": 0.0,
			"-0.022": 0.0,
			"-0.021": 0.0,
			"-0.02": 0.0501600172036,
			"-0.019": 1.02473975909,
			"-0.018": 1.04022131713,
			"-0.017": 1.15125341015,
			"-0.016": 1.3428300497,
			"-0.015": 0.954705849836,
			"-0.014": 1.00493607426,
			"-0.013": 0.961760801378,
			"-0.012": 1.14861248386,
			"-0.011": 1.59795457813,
			"-0.01": 1.37115257142,
			"-0.009": 3.46791708846,
			"-0.008": 9.7248452325,
			"-0.007": 16.9658499538,
			"-0.006": 16.2200389993,
			"-0.005": 12.6767472394,
			"-0.004": 10.7114901431,
			"-0.003": 12.4914211852,
			"-0.002": 11.1455030959,
			"-0.001": 13.4474778832,
			"0.0": 13.5135497031,
			"0.001": 14.7827157863,
			"0.002": 19.4079796668,
			"0.003": 10.1521516282,
			"0.004": 8.44064310678,
			"0.005": 7.40186859413,
			"0.006": 7.48038752036,
			"0.007": 7.19492274905,
			"0.008": 6.35737041579,
			"0.009": 7.40777121418,
			"0.01": 8.6295671498,
			"0.011": 7.66181444859,
			"0.012": 7.24306460291,
			"0.013": 2.92688242195,
			"0.014": 0.149814006961,
			"0.015": 0.0,
			"0.016": 0.0,
			"0.017": 0.0,
			"0.018": 0.0,
			"0.019": 0.0,
			"0.02": 0.0,
			"0.021": 0.0,
			"0.022": 0.0,
			"0.023": 0.0,
			"0.024": 0.0,
			"0.025": 0.0
		}
	}
}
