{
	 "smiles": "OC(=O)C1=CC(NS(=O)(=O)CC2=CC=CC=C2)=CC=C1", 
	 "Tm": 481.15, 
	 "num_atms": 33, 
	 "gaussian": { 
		 "optdone": 1, 
		 "sigma_profile": "yes", 
		 "theory": "DFT", 
		 "functional": "B3LYP", 
		 "basiset": "6-31G**", 
		 "properties": { 
			 "R2extent": 6391.0515, 
			 "electric_dipole_moment_norm": 2.42330291957, 
			 "electric_quadrupole_moment_norm": 35.9385702008, 
			 "total_energy": -1295.10191324, 
			 "HOMO_LUMO_gap": 0.18588, 
			 "cosmo_polarized_energy": -26.85, 
			 "cosmo_cavitation_energy": 39.45, 
			 "cosmo_dispersion_energy": -26.48, 
			 "cosmo_repulsion_energy": 2.0, 
			 "cosmo_total_nonelectrostatic_energy": 14.97, 
			 "SMD_solvation_energy": 6.77 
		},
		"coords": [
			{
				"x": 2.4944851675,
				"y": -0.2716430851,
				"z": 3.4823129476,
				"element": "O" 
			},
			{
				"x": 2.7615824147,
				"y": 0.3000635495,
				"z": 2.2751329423,
				"element": "C" 
			},
			{
				"x": 3.8860079044,
				"y": 0.2858162752,
				"z": 1.8345403398,
				"element": "O" 
			},
			{
				"x": 1.6001767919,
				"y": 0.9208978526,
				"z": 1.5579357638,
				"element": "C" 
			},
			{
				"x": 0.282350356,
				"y": 0.4963551125,
				"z": 1.7697290316,
				"element": "C" 
			},
			{
				"x": -0.7775601749,
				"y": 1.0895279507,
				"z": 1.0707741698,
				"element": "C" 
			},
			{
				"x": -2.0907013841,
				"y": 0.643683504,
				"z": 1.3511895415,
				"element": "N" 
			},
			{
				"x": -3.4409849512,
				"y": 0.57308889,
				"z": 0.3418026902,
				"element": "S" 
			},
			{
				"x": -4.5305596632,
				"y": 0.2000240738,
				"z": 1.2442735404,
				"element": "O" 
			},
			{
				"x": -3.4817126618,
				"y": 1.7935062988,
				"z": -0.4636664461,
				"element": "O" 
			},
			{
				"x": -3.1945191076,
				"y": -0.8513330036,
				"z": -0.7929446209,
				"element": "C" 
			},
			{
				"x": -2.0195325629,
				"y": -0.7429731381,
				"z": -1.7233292839,
				"element": "C" 
			},
			{
				"x": -0.8580432151,
				"y": -1.4893118347,
				"z": -1.4855983478,
				"element": "C" 
			},
			{
				"x": 0.233718491,
				"y": -1.3971789357,
				"z": -2.3489615862,
				"element": "C" 
			},
			{
				"x": 0.1742311701,
				"y": -0.5554054287,
				"z": -3.4604857888,
				"element": "C" 
			},
			{
				"x": -0.9808211559,
				"y": 0.1910722297,
				"z": -3.7060790673,
				"element": "C" 
			},
			{
				"x": -2.0722875266,
				"y": 0.0983928633,
				"z": -2.8441931699,
				"element": "C" 
			},
			{
				"x": -0.5110233911,
				"y": 2.124720783,
				"z": 0.1626750969,
				"element": "C" 
			},
			{
				"x": 0.807659888,
				"y": 2.5164547093,
				"z": -0.0648738698,
				"element": "C" 
			},
			{
				"x": 1.8664048207,
				"y": 1.9209746252,
				"z": 0.6167067246,
				"element": "C" 
			},
			{
				"x": 1.6122116779,
				"y": -0.0107175957,
				"z": 3.7811685825,
				"element": "H" 
			},
			{
				"x": 0.0711197605,
				"y": -0.3330161766,
				"z": 2.4416363191,
				"element": "H" 
			},
			{
				"x": -2.2198806494,
				"y": 0.0596631569,
				"z": 2.168192367,
				"element": "H" 
			},
			{
				"x": -3.1378795302,
				"y": -1.7261624284,
				"z": -0.1409129776,
				"element": "H" 
			},
			{
				"x": -4.1497031948,
				"y": -0.885132952,
				"z": -1.3267604945,
				"element": "H" 
			},
			{
				"x": -0.8093965059,
				"y": -2.1492533255,
				"z": -0.6231378767,
				"element": "H" 
			},
			{
				"x": 1.1277152824,
				"y": -1.9815194576,
				"z": -2.1533301665,
				"element": "H" 
			},
			{
				"x": 1.0228277035,
				"y": -0.4835853891,
				"z": -4.134364755,
				"element": "H" 
			},
			{
				"x": -1.0328564718,
				"y": 0.8447655683,
				"z": -4.5717803352,
				"element": "H" 
			},
			{
				"x": -2.9654841796,
				"y": 0.6868303197,
				"z": -3.0303696165,
				"element": "H" 
			},
			{
				"x": -1.3303522111,
				"y": 2.6034886874,
				"z": -0.3577585505,
				"element": "H" 
			},
			{
				"x": 1.0043012151,
				"y": 3.3097302025,
				"z": -0.7796834054,
				"element": "H" 
			},
			{
				"x": 2.8947058939,
				"y": 2.2173760985,
				"z": 0.4441603017,
				"element": "H" 
			}
		],
		 "valence_orbital": [ 
			{
				"type": "occ",
				"energy": -0.28107,
				"method": "rhf"
			},
			{
				"type": "occ",
				"energy": -0.27274,
				"method": "rhf"
			},
			{
				"type": "occ",
				"energy": -0.26584,
				"method": "rhf"
			},
			{
				"type": "occ",
				"energy": -0.26405,
				"method": "rhf"
			},
			{
				"type": "occ",
				"energy": -0.24061,
				"method": "rhf"
			},
			{
				"type": "unocc",
				"energy": -0.05473,
				"method": "rhf"
			},
			{
				"type": "unocc",
				"energy": -0.03417,
				"method": "rhf"
			},
			{
				"type": "unocc",
				"energy": -0.01981,
				"method": "rhf"
			},
			{
				"type": "unocc",
				"energy": -0.01714,
				"method": "rhf"
			},
			{
				"type": "unocc",
				"energy": 0.03518,
				"method": "rhf"
			}
		],
		"cosmo_sigma_profile": { 
			"-0.025": 0.0,
			"-0.024": 0.0,
			"-0.023": 0.0,
			"-0.022": 0.0,
			"-0.021": 0.0,
			"-0.02": 0.0,
			"-0.019": 0.133977187861,
			"-0.018": 0.900992250774,
			"-0.017": 1.04397718515,
			"-0.016": 2.4814733261,
			"-0.015": 1.93301940827,
			"-0.014": 1.69657991864,
			"-0.013": 2.7074963482,
			"-0.012": 2.73601830847,
			"-0.011": 3.55586312121,
			"-0.01": 2.98980181202,
			"-0.009": 5.69126665668,
			"-0.008": 6.74294476442,
			"-0.007": 8.25044360803,
			"-0.006": 17.4113597422,
			"-0.005": 22.1134786339,
			"-0.004": 20.4830746761,
			"-0.003": 15.9899041244,
			"-0.002": 14.2008561274,
			"-0.001": 14.1442002288,
			"0.0": 13.9546553848,
			"0.001": 16.0995415149,
			"0.002": 25.043462363,
			"0.003": 28.3656372607,
			"0.004": 19.8490949236,
			"0.005": 10.660050438,
			"0.006": 5.46680826425,
			"0.007": 5.33654283371,
			"0.008": 6.07918951899,
			"0.009": 7.29042466477,
			"0.01": 11.4481353815,
			"0.011": 14.0417350498,
			"0.012": 5.4442933569,
			"0.013": 1.20705977461,
			"0.014": 0.0,
			"0.015": 0.0,
			"0.016": 0.0,
			"0.017": 0.0,
			"0.018": 0.0,
			"0.019": 0.0,
			"0.02": 0.0,
			"0.021": 0.0,
			"0.022": 0.0,
			"0.023": 0.0,
			"0.024": 0.0,
			"0.025": 0.0
		}
	}
}
