{
	 "smiles": "OC(=O)C1CC1C1=C(Cl)C=CC=C1F", 
	 "Tm": 383.15, 
	 "num_atms": 22, 
	 "gaussian": { 
		 "optdone": 1, 
		 "sigma_profile": "yes", 
		 "theory": "DFT", 
		 "functional": "B3LYP", 
		 "basiset": "6-31G**", 
		 "properties": { 
			 "R2extent": 3401.7583, 
			 "electric_dipole_moment_norm": 2.34952424333, 
			 "electric_quadrupole_moment_norm": 13.7323214906, 
			 "total_energy": -1096.34497543, 
			 "HOMO_LUMO_gap": 0.22534, 
			 "cosmo_polarized_energy": -11.16, 
			 "cosmo_cavitation_energy": 27.89, 
			 "cosmo_dispersion_energy": -19.96, 
			 "cosmo_repulsion_energy": 1.57, 
			 "cosmo_total_nonelectrostatic_energy": 9.5, 
			 "SMD_solvation_energy": 5.58 
		},
		"coords": [
			{
				"x": -0.7122531331,
				"y": 0.2366891449,
				"z": -1.9543956167,
				"element": "O" 
			},
			{
				"x": -1.7383008536,
				"y": 1.0869581961,
				"z": -1.6895893635,
				"element": "C" 
			},
			{
				"x": -1.8139782822,
				"y": 2.1859927031,
				"z": -2.195256605,
				"element": "O" 
			},
			{
				"x": -2.7554441495,
				"y": 0.5204634017,
				"z": -0.7642978376,
				"element": "C" 
			},
			{
				"x": -3.0402156614,
				"y": -0.9693315291,
				"z": -0.7453385705,
				"element": "C" 
			},
			{
				"x": -2.4259127327,
				"y": -0.3325017112,
				"z": 0.4636372309,
				"element": "C" 
			},
			{
				"x": -1.039624791,
				"y": -0.6432262703,
				"z": 0.9330259832,
				"element": "C" 
			},
			{
				"x": -0.6222941732,
				"y": -1.9313756706,
				"z": 1.3069728,
				"element": "C" 
			},
			{
				"x": -1.7446157104,
				"y": -3.2831488498,
				"z": 1.2078976737,
				"element": "Cl" 
			},
			{
				"x": 0.6623213107,
				"y": -2.1942817624,
				"z": 1.7858424485,
				"element": "C" 
			},
			{
				"x": 1.570945597,
				"y": -1.1461323386,
				"z": 1.9171396517,
				"element": "C" 
			},
			{
				"x": 1.1967641789,
				"y": 0.1538539899,
				"z": 1.5810463426,
				"element": "C" 
			},
			{
				"x": -0.0902122224,
				"y": 0.3710196664,
				"z": 1.1104029786,
				"element": "C" 
			},
			{
				"x": -0.4476912959,
				"y": 1.6368481753,
				"z": 0.8042856534,
				"element": "F" 
			},
			{
				"x": -0.1245430123,
				"y": 0.7164387511,
				"z": -2.5611054307,
				"element": "H" 
			},
			{
				"x": -3.5925394408,
				"y": 1.1992275063,
				"z": -0.6471761316,
				"element": "H" 
			},
			{
				"x": -4.075640204,
				"y": -1.2896933291,
				"z": -0.69497141,
				"element": "H" 
			},
			{
				"x": -2.397563327,
				"y": -1.5866726014,
				"z": -1.3625643061,
				"element": "H" 
			},
			{
				"x": -3.1178626497,
				"y": -0.1470260993,
				"z": 1.2845203369,
				"element": "H" 
			},
			{
				"x": 0.9353838338,
				"y": -3.2075568288,
				"z": 2.0560726587,
				"element": "H" 
			},
			{
				"x": 2.571326717,
				"y": -1.3433922544,
				"z": 2.2891318263,
				"element": "H" 
			},
			{
				"x": 1.8734500019,
				"y": 0.9949477101,
				"z": 1.6808196872,
				"element": "H" 
			}
		],
		 "valence_orbital": [ 
			{
				"type": "occ",
				"energy": -0.31301,
				"method": "rhf"
			},
			{
				"type": "occ",
				"energy": -0.30393,
				"method": "rhf"
			},
			{
				"type": "occ",
				"energy": -0.26832,
				"method": "rhf"
			},
			{
				"type": "occ",
				"energy": -0.25574,
				"method": "rhf"
			},
			{
				"type": "occ",
				"energy": -0.25093,
				"method": "rhf"
			},
			{
				"type": "unocc",
				"energy": -0.02559,
				"method": "rhf"
			},
			{
				"type": "unocc",
				"energy": -0.01251,
				"method": "rhf"
			},
			{
				"type": "unocc",
				"energy": 0.00808,
				"method": "rhf"
			},
			{
				"type": "unocc",
				"energy": 0.02233,
				"method": "rhf"
			},
			{
				"type": "unocc",
				"energy": 0.07482,
				"method": "rhf"
			}
		],
		"cosmo_sigma_profile": { 
			"-0.025": 0.0,
			"-0.024": 0.0,
			"-0.023": 0.0,
			"-0.022": 0.0,
			"-0.021": 0.0,
			"-0.02": 0.0,
			"-0.019": 0.0108074926243,
			"-0.018": 0.567052479217,
			"-0.017": 1.11447166747,
			"-0.016": 0.858680502719,
			"-0.015": 0.54053658152,
			"-0.014": 0.506015890629,
			"-0.013": 0.49731416284,
			"-0.012": 0.845650552987,
			"-0.011": 0.907318658656,
			"-0.01": 1.26109243355,
			"-0.009": 0.15137154756,
			"-0.008": 1.40379409455,
			"-0.007": 10.6806778018,
			"-0.006": 14.0072821381,
			"-0.005": 13.3985809021,
			"-0.004": 10.941661616,
			"-0.003": 10.1582916566,
			"-0.002": 12.3414396833,
			"-0.001": 15.9944369475,
			"0.0": 16.6625014278,
			"0.001": 21.3803289124,
			"0.002": 17.8305552685,
			"0.003": 22.5619338027,
			"0.004": 21.1168641306,
			"0.005": 6.87967818742,
			"0.006": 3.20718347322,
			"0.007": 2.90329993043,
			"0.008": 2.42060982194,
			"0.009": 1.0003119095,
			"0.01": 2.32381109849,
			"0.011": 2.83319939677,
			"0.012": 5.35828245189,
			"0.013": 1.66623846786,
			"0.014": 0.00549672574022,
			"0.015": 0.0,
			"0.016": 0.0,
			"0.017": 0.0,
			"0.018": 0.0,
			"0.019": 0.0,
			"0.02": 0.0,
			"0.021": 0.0,
			"0.022": 0.0,
			"0.023": 0.0,
			"0.024": 0.0,
			"0.025": 0.0
		}
	}
}
