{
	 "smiles": "CCC1CCC2=C(C1)C1=C(N2)C=CC(C)=C1", 
	 "Tm": 333.15, 
	 "num_atms": 35, 
	 "gaussian": { 
		 "optdone": 1, 
		 "sigma_profile": "yes", 
		 "theory": "DFT", 
		 "functional": "B3LYP", 
		 "basiset": "6-31G**", 
		 "properties": { 
			 "R2extent": 5221.167, 
			 "electric_dipole_moment_norm": 2.13006378543, 
			 "electric_quadrupole_moment_norm": 7.12027322158, 
			 "total_energy": -637.838925801, 
			 "HOMO_LUMO_gap": 0.18949, 
			 "cosmo_polarized_energy": -7.78, 
			 "cosmo_cavitation_energy": 35.47, 
			 "cosmo_dispersion_energy": -25.85, 
			 "cosmo_repulsion_energy": 2.02, 
			 "cosmo_total_nonelectrostatic_energy": 11.64, 
			 "SMD_solvation_energy": 4.72 
		},
		"coords": [
			{
				"x": 2.4051188573,
				"y": 4.4784448759,
				"z": -0.6639429057,
				"element": "C" 
			},
			{
				"x": 2.406655918,
				"y": 3.8467414007,
				"z": 0.7329862282,
				"element": "C" 
			},
			{
				"x": 1.8205920794,
				"y": 2.4253853937,
				"z": 0.7993337879,
				"element": "C" 
			},
			{
				"x": 1.9781792087,
				"y": 1.8320970154,
				"z": 2.2151699439,
				"element": "C" 
			},
			{
				"x": 1.5752926515,
				"y": 0.3459776759,
				"z": 2.2848315071,
				"element": "C" 
			},
			{
				"x": 0.2863557166,
				"y": 0.1501463768,
				"z": 1.5523137997,
				"element": "C" 
			},
			{
				"x": -0.2816329894,
				"y": 1.0450962518,
				"z": 0.6797700387,
				"element": "C" 
			},
			{
				"x": 0.3402603899,
				"y": 2.3732854806,
				"z": 0.3532689721,
				"element": "C" 
			},
			{
				"x": -1.502462183,
				"y": 0.4495384359,
				"z": 0.2002438042,
				"element": "C" 
			},
			{
				"x": -1.615063281,
				"y": -0.8227126014,
				"z": 0.8253612567,
				"element": "C" 
			},
			{
				"x": -0.5103869663,
				"y": -0.980343501,
				"z": 1.6428566076,
				"element": "N" 
			},
			{
				"x": -2.6964631821,
				"y": -1.6720997177,
				"z": 0.5769865168,
				"element": "C" 
			},
			{
				"x": -3.672158135,
				"y": -1.2337223777,
				"z": -0.3108943145,
				"element": "C" 
			},
			{
				"x": -3.594276988,
				"y": 0.0252149918,
				"z": -0.9531956821,
				"element": "C" 
			},
			{
				"x": -4.6870561001,
				"y": 0.4466064022,
				"z": -1.91028826,
				"element": "C" 
			},
			{
				"x": -2.5089022806,
				"y": 0.8587758271,
				"z": -0.6918918692,
				"element": "C" 
			},
			{
				"x": 2.9421918971,
				"y": 3.8491126711,
				"z": -1.3832177824,
				"element": "H" 
			},
			{
				"x": 2.8948119989,
				"y": 5.4576958875,
				"z": -0.650662493,
				"element": "H" 
			},
			{
				"x": 1.3901094678,
				"y": 4.6256432128,
				"z": -1.0461511394,
				"element": "H" 
			},
			{
				"x": 3.4385903865,
				"y": 3.815584296,
				"z": 1.1075922114,
				"element": "H" 
			},
			{
				"x": 1.8519677803,
				"y": 4.4937579475,
				"z": 1.4276549844,
				"element": "H" 
			},
			{
				"x": 2.3965757234,
				"y": 1.7892434594,
				"z": 0.1086160637,
				"element": "H" 
			},
			{
				"x": 1.3533774134,
				"y": 2.4071079753,
				"z": 2.9121329307,
				"element": "H" 
			},
			{
				"x": 3.0146623324,
				"y": 1.9461624366,
				"z": 2.5540475983,
				"element": "H" 
			},
			{
				"x": 2.3668120831,
				"y": -0.2771645774,
				"z": 1.8410898928,
				"element": "H" 
			},
			{
				"x": 1.4873221828,
				"y": 0.0262633427,
				"z": 3.3323254273,
				"element": "H" 
			},
			{
				"x": 0.2680932373,
				"y": 2.570305282,
				"z": -0.7235946667,
				"element": "H" 
			},
			{
				"x": -0.2129046528,
				"y": 3.1901900363,
				"z": 0.8445892642,
				"element": "H" 
			},
			{
				"x": -0.3203738038,
				"y": -1.7819847832,
				"z": 2.2216243919,
				"element": "H" 
			},
			{
				"x": -2.7764520953,
				"y": -2.6431527301,
				"z": 1.0586355283,
				"element": "H" 
			},
			{
				"x": -4.5228960567,
				"y": -1.8778209851,
				"z": -0.5201249313,
				"element": "H" 
			},
			{
				"x": -4.4914180824,
				"y": 1.4397401966,
				"z": -2.3249271522,
				"element": "H" 
			},
			{
				"x": -5.6656656464,
				"y": 0.4805690104,
				"z": -1.4161517587,
				"element": "H" 
			},
			{
				"x": -4.7786048372,
				"y": -0.251545192,
				"z": -2.7512631568,
				"element": "H" 
			},
			{
				"x": -2.4431520443,
				"y": 1.8282605838,
				"z": -1.1804246438,
				"element": "H" 
			}
		],
		 "valence_orbital": [ 
			{
				"type": "occ",
				"energy": -0.30423,
				"method": "rhf"
			},
			{
				"type": "occ",
				"energy": -0.30031,
				"method": "rhf"
			},
			{
				"type": "occ",
				"energy": -0.25659,
				"method": "rhf"
			},
			{
				"type": "occ",
				"energy": -0.20076,
				"method": "rhf"
			},
			{
				"type": "occ",
				"energy": -0.18575,
				"method": "rhf"
			},
			{
				"type": "unocc",
				"energy": 0.00374,
				"method": "rhf"
			},
			{
				"type": "unocc",
				"energy": 0.03679,
				"method": "rhf"
			},
			{
				"type": "unocc",
				"energy": 0.07469,
				"method": "rhf"
			},
			{
				"type": "unocc",
				"energy": 0.08791,
				"method": "rhf"
			},
			{
				"type": "unocc",
				"energy": 0.09103,
				"method": "rhf"
			}
		],
		"cosmo_sigma_profile": { 
			"-0.025": 0.0,
			"-0.024": 0.0,
			"-0.023": 0.0,
			"-0.022": 0.0,
			"-0.021": 0.0,
			"-0.02": 0.0,
			"-0.019": 0.0,
			"-0.018": 0.0,
			"-0.017": 0.0,
			"-0.016": 0.0,
			"-0.015": 0.419915919713,
			"-0.014": 1.42581092735,
			"-0.013": 1.38106327617,
			"-0.012": 1.00186904656,
			"-0.011": 0.762538539447,
			"-0.01": 1.50878304161,
			"-0.009": 1.48379968547,
			"-0.008": 1.1663294456,
			"-0.007": 1.55704372455,
			"-0.006": 2.32280742998,
			"-0.005": 3.86279628785,
			"-0.004": 9.9779895943,
			"-0.003": 20.1698014248,
			"-0.002": 40.059748901,
			"-0.001": 46.8505584658,
			"0.0": 39.6326043825,
			"0.001": 30.8316624234,
			"0.002": 16.4723240293,
			"0.003": 8.61939849117,
			"0.004": 7.42961167369,
			"0.005": 9.90049139274,
			"0.006": 12.3811434513,
			"0.007": 11.6648829074,
			"0.008": 5.70386941982,
			"0.009": 0.240767279516,
			"0.01": 0.0,
			"0.011": 0.0,
			"0.012": 0.0,
			"0.013": 0.0,
			"0.014": 0.0,
			"0.015": 0.0,
			"0.016": 0.0,
			"0.017": 0.0,
			"0.018": 0.0,
			"0.019": 0.0,
			"0.02": 0.0,
			"0.021": 0.0,
			"0.022": 0.0,
			"0.023": 0.0,
			"0.024": 0.0,
			"0.025": 0.0
		}
	}
}
