{
	 "smiles": "CC1=CC(=O)C2=C(C=CC=C2O)C1=O", 
	 "Tm": 351.65, 
	 "num_atms": 22, 
	 "gaussian": { 
		 "optdone": 1, 
		 "sigma_profile": "yes", 
		 "theory": "DFT", 
		 "functional": "B3LYP", 
		 "basiset": "6-31G**", 
		 "properties": { 
			 "R2extent": 3080.0095, 
			 "electric_dipole_moment_norm": 0.948919828015, 
			 "electric_quadrupole_moment_norm": 16.9365141425, 
			 "total_energy": -649.672828492, 
			 "HOMO_LUMO_gap": 0.12098, 
			 "cosmo_polarized_energy": -8.85, 
			 "cosmo_cavitation_energy": 26.11, 
			 "cosmo_dispersion_energy": -19.63, 
			 "cosmo_repulsion_energy": 1.49, 
			 "cosmo_total_nonelectrostatic_energy": 7.97, 
			 "SMD_solvation_energy": 5.64 
		},
		"coords": [
			{
				"x": -1.3510179628,
				"y": 1.4322773515,
				"z": 3.871703519,
				"element": "C" 
			},
			{
				"x": -0.636407973,
				"y": 1.4240084111,
				"z": 2.554379407,
				"element": "C" 
			},
			{
				"x": 0.5077467116,
				"y": 2.0994220397,
				"z": 2.3181208061,
				"element": "C" 
			},
			{
				"x": 1.1982821702,
				"y": 2.0813989839,
				"z": 1.0175104688,
				"element": "C" 
			},
			{
				"x": 2.2525458899,
				"y": 2.7299128032,
				"z": 0.8683842643,
				"element": "O" 
			},
			{
				"x": 0.6154135946,
				"y": 1.2938402767,
				"z": -0.0699255602,
				"element": "C" 
			},
			{
				"x": -0.5829093167,
				"y": 0.5706219628,
				"z": 0.1343372268,
				"element": "C" 
			},
			{
				"x": -1.1390671194,
				"y": -0.1781358479,
				"z": -0.8962807146,
				"element": "C" 
			},
			{
				"x": -0.5013848556,
				"y": -0.2121679406,
				"z": -2.1461877246,
				"element": "C" 
			},
			{
				"x": 0.674154806,
				"y": 0.4889009522,
				"z": -2.3694073127,
				"element": "C" 
			},
			{
				"x": 1.2503047682,
				"y": 1.2526053854,
				"z": -1.334312206,
				"element": "C" 
			},
			{
				"x": 2.3840070464,
				"y": 1.9162897605,
				"z": -1.5831803063,
				"element": "O" 
			},
			{
				"x": -1.260388809,
				"y": 0.6069242956,
				"z": 1.4626628915,
				"element": "C" 
			},
			{
				"x": -2.3005026543,
				"y": -0.0066224726,
				"z": 1.676683278,
				"element": "O" 
			},
			{
				"x": -0.8279957602,
				"y": 2.0501319511,
				"z": 4.6046207852,
				"element": "H" 
			},
			{
				"x": -2.3731398368,
				"y": 1.8057701321,
				"z": 3.7495479277,
				"element": "H" 
			},
			{
				"x": -1.4456304158,
				"y": 0.4133182422,
				"z": 4.2614701373,
				"element": "H" 
			},
			{
				"x": 0.9861822091,
				"y": 2.7007405766,
				"z": 3.0866518239,
				"element": "H" 
			},
			{
				"x": -2.058163419,
				"y": -0.7228781557,
				"z": -0.712478026,
				"element": "H" 
			},
			{
				"x": -0.9341781037,
				"y": -0.7965791639,
				"z": -2.9529593913,
				"element": "H" 
			},
			{
				"x": 1.1753663336,
				"y": 0.4696019343,
				"z": -3.3314073639,
				"element": "H" 
			},
			{
				"x": 2.6257826968,
				"y": 2.3859185217,
				"z": -0.7417339298,
				"element": "H" 
			}
		],
		 "valence_orbital": [ 
			{
				"type": "occ",
				"energy": -0.29277,
				"method": "rhf"
			},
			{
				"type": "occ",
				"energy": -0.28069,
				"method": "rhf"
			},
			{
				"type": "occ",
				"energy": -0.27434,
				"method": "rhf"
			},
			{
				"type": "occ",
				"energy": -0.26529,
				"method": "rhf"
			},
			{
				"type": "occ",
				"energy": -0.23929,
				"method": "rhf"
			},
			{
				"type": "unocc",
				"energy": -0.11831,
				"method": "rhf"
			},
			{
				"type": "unocc",
				"energy": -0.03437,
				"method": "rhf"
			},
			{
				"type": "unocc",
				"energy": -0.02282,
				"method": "rhf"
			},
			{
				"type": "unocc",
				"energy": 0.04174,
				"method": "rhf"
			},
			{
				"type": "unocc",
				"energy": 0.08115,
				"method": "rhf"
			}
		],
		"cosmo_sigma_profile": { 
			"-0.025": 0.0,
			"-0.024": 0.0,
			"-0.023": 0.0,
			"-0.022": 0.0,
			"-0.021": 0.0,
			"-0.02": 0.0,
			"-0.019": 0.0,
			"-0.018": 0.0,
			"-0.017": 0.0,
			"-0.016": 0.0,
			"-0.015": 0.0,
			"-0.014": 0.0,
			"-0.013": 0.0,
			"-0.012": 0.0,
			"-0.011": 0.0,
			"-0.01": 0.0,
			"-0.009": 0.0,
			"-0.008": 1.48193067326,
			"-0.007": 7.56695812821,
			"-0.006": 10.3788698858,
			"-0.005": 14.9766249206,
			"-0.004": 19.2343344779,
			"-0.003": 17.9819461409,
			"-0.002": 19.1197311792,
			"-0.001": 20.7401916636,
			"0.0": 18.472581703,
			"0.001": 18.4031212492,
			"0.002": 13.9866429861,
			"0.003": 6.63704127912,
			"0.004": 4.85243365014,
			"0.005": 4.02822708307,
			"0.006": 4.43336711665,
			"0.007": 3.95573906026,
			"0.008": 4.2480306631,
			"0.009": 5.26917021133,
			"0.01": 5.98988466606,
			"0.011": 6.5184123342,
			"0.012": 1.46908218573,
			"0.013": 0.0297538606128,
			"0.014": 0.0,
			"0.015": 0.0,
			"0.016": 0.0,
			"0.017": 0.0,
			"0.018": 0.0,
			"0.019": 0.0,
			"0.02": 0.0,
			"0.021": 0.0,
			"0.022": 0.0,
			"0.023": 0.0,
			"0.024": 0.0,
			"0.025": 0.0
		}
	}
}
