{
	 "smiles": "NC1=NC(N)=C(C=C1)N=O", 
	 "Tm": 536.15, 
	 "num_atms": 16, 
	 "gaussian": { 
		 "optdone": 1, 
		 "sigma_profile": "yes", 
		 "theory": "DFT", 
		 "functional": "B3LYP", 
		 "basiset": "6-31G**", 
		 "properties": { 
			 "R2extent": 1658.4791, 
			 "electric_dipole_moment_norm": 5.54784315117, 
			 "electric_quadrupole_moment_norm": 10.5291350851, 
			 "total_energy": -488.322315624, 
			 "HOMO_LUMO_gap": 0.12125, 
			 "cosmo_polarized_energy": -17.41, 
			 "cosmo_cavitation_energy": 20.86, 
			 "cosmo_dispersion_energy": -15.86, 
			 "cosmo_repulsion_energy": 1.31, 
			 "cosmo_total_nonelectrostatic_energy": 6.31, 
			 "SMD_solvation_energy": 2.74 
		},
		"coords": [
			{
				"x": -1.483796758,
				"y": -2.4694623559,
				"z": 0.7906403678,
				"element": "N" 
			},
			{
				"x": -1.0899262807,
				"y": -1.2294020512,
				"z": 0.3887442877,
				"element": "C" 
			},
			{
				"x": -2.0698634718,
				"y": -0.337394808,
				"z": 0.2000567514,
				"element": "N" 
			},
			{
				"x": -1.72639462,
				"y": 0.9074644323,
				"z": -0.1687423748,
				"element": "C" 
			},
			{
				"x": -2.7242003393,
				"y": 1.7990649653,
				"z": -0.3495174883,
				"element": "N" 
			},
			{
				"x": -0.3671457331,
				"y": 1.3004803277,
				"z": -0.3719004034,
				"element": "C" 
			},
			{
				"x": 0.6371553218,
				"y": 0.3334334877,
				"z": -0.1670814537,
				"element": "C" 
			},
			{
				"x": 0.2973038512,
				"y": -0.939411665,
				"z": 0.2154757259,
				"element": "C" 
			},
			{
				"x": -0.146521036,
				"y": 2.6186537674,
				"z": -0.7617665417,
				"element": "N" 
			},
			{
				"x": 1.0330088144,
				"y": 2.9537786435,
				"z": -0.9370654989,
				"element": "O" 
			},
			{
				"x": -0.8371269349,
				"y": -3.2402218215,
				"z": 0.7817592892,
				"element": "H" 
			},
			{
				"x": -2.4717377914,
				"y": -2.6694300063,
				"z": 0.7795057516,
				"element": "H" 
			},
			{
				"x": -3.6766828583,
				"y": 1.5058022391,
				"z": -0.2118582315,
				"element": "H" 
			},
			{
				"x": -2.488924569,
				"y": 2.736408022,
				"z": -0.6369172325,
				"element": "H" 
			},
			{
				"x": 1.6658161758,
				"y": 0.6418154706,
				"z": -0.3240923798,
				"element": "H" 
			},
			{
				"x": 1.0433362292,
				"y": -1.7084786477,
				"z": 0.3879594311,
				"element": "H" 
			}
		],
		 "valence_orbital": [ 
			{
				"type": "occ",
				"energy": -0.30227,
				"method": "rhf"
			},
			{
				"type": "occ",
				"energy": -0.27586,
				"method": "rhf"
			},
			{
				"type": "occ",
				"energy": -0.25541,
				"method": "rhf"
			},
			{
				"type": "occ",
				"energy": -0.21088,
				"method": "rhf"
			},
			{
				"type": "occ",
				"energy": -0.19222,
				"method": "rhf"
			},
			{
				"type": "unocc",
				"energy": -0.07097,
				"method": "rhf"
			},
			{
				"type": "unocc",
				"energy": -0.00092,
				"method": "rhf"
			},
			{
				"type": "unocc",
				"energy": 0.03698,
				"method": "rhf"
			},
			{
				"type": "unocc",
				"energy": 0.07023,
				"method": "rhf"
			},
			{
				"type": "unocc",
				"energy": 0.09437,
				"method": "rhf"
			}
		],
		"cosmo_sigma_profile": { 
			"-0.025": 0.0,
			"-0.024": 0.0,
			"-0.023": 0.0,
			"-0.022": 0.0,
			"-0.021": 0.0,
			"-0.02": 0.0,
			"-0.019": 0.0,
			"-0.018": 0.0,
			"-0.017": 0.0,
			"-0.016": 0.0,
			"-0.015": 0.958865357179,
			"-0.014": 3.18315089113,
			"-0.013": 4.02709220039,
			"-0.012": 4.49421577388,
			"-0.011": 4.75651181338,
			"-0.01": 4.08843708283,
			"-0.009": 3.56576517811,
			"-0.008": 3.97051300381,
			"-0.007": 4.98502373732,
			"-0.006": 5.42948749693,
			"-0.005": 5.13229637182,
			"-0.004": 4.55002380823,
			"-0.003": 5.66001224514,
			"-0.002": 5.19507063605,
			"-0.001": 5.48943371032,
			"0.0": 11.8831668907,
			"0.001": 16.1305645999,
			"0.002": 14.4447271292,
			"0.003": 11.6317124651,
			"0.004": 7.3806407463,
			"0.005": 4.86103850433,
			"0.006": 4.26887661326,
			"0.007": 3.90871028945,
			"0.008": 3.24058399254,
			"0.009": 3.89788326953,
			"0.01": 5.57382514632,
			"0.011": 6.34496884358,
			"0.012": 3.56087437047,
			"0.013": 2.24344743537,
			"0.014": 1.25448939878,
			"0.015": 0.0644183526069,
			"0.016": 0.0,
			"0.017": 0.0,
			"0.018": 0.0,
			"0.019": 0.0,
			"0.02": 0.0,
			"0.021": 0.0,
			"0.022": 0.0,
			"0.023": 0.0,
			"0.024": 0.0,
			"0.025": 0.0
		}
	}
}
