{
	 "smiles": "CCOC(=O)C1=C(C)C2=C(NC=NC2=O)S1", 
	 "Tm": 507.15, 
	 "num_atms": 26, 
	 "gaussian": { 
		 "optdone": 1, 
		 "sigma_profile": "yes", 
		 "theory": "DFT", 
		 "functional": "B3LYP", 
		 "basiset": "6-31G**", 
		 "properties": { 
			 "R2extent": 4639.0262, 
			 "electric_dipole_moment_norm": 4.06279490745, 
			 "electric_quadrupole_moment_norm": 36.0870315192, 
			 "total_energy": -1120.46755293, 
			 "HOMO_LUMO_gap": 0.16753, 
			 "cosmo_polarized_energy": -24.43, 
			 "cosmo_cavitation_energy": 31.86, 
			 "cosmo_dispersion_energy": -23.72, 
			 "cosmo_repulsion_energy": 1.79, 
			 "cosmo_total_nonelectrostatic_energy": 9.93, 
			 "SMD_solvation_energy": 5.6 
		},
		"coords": [
			{
				"x": -4.8105360826,
				"y": -0.1163421022,
				"z": -1.9152632647,
				"element": "C" 
			},
			{
				"x": -3.6278275598,
				"y": 0.733030261,
				"z": -2.3543534551,
				"element": "C" 
			},
			{
				"x": -2.4089527225,
				"y": 0.3320891008,
				"z": -1.6776844773,
				"element": "O" 
			},
			{
				"x": -2.1988631062,
				"y": 0.8700484209,
				"z": -0.4583965415,
				"element": "C" 
			},
			{
				"x": -2.9568810761,
				"y": 1.6587106177,
				"z": 0.0841303149,
				"element": "O" 
			},
			{
				"x": -0.9498231294,
				"y": 0.4146757724,
				"z": 0.1632698121,
				"element": "C" 
			},
			{
				"x": 0.0409598357,
				"y": -0.451374779,
				"z": -0.2530582548,
				"element": "C" 
			},
			{
				"x": 0.0554734778,
				"y": -1.1867198607,
				"z": -1.567092287,
				"element": "C" 
			},
			{
				"x": 1.0815704676,
				"y": -0.5700885594,
				"z": 0.7383717214,
				"element": "C" 
			},
			{
				"x": 0.8229187405,
				"y": 0.2133181135,
				"z": 1.8534085544,
				"element": "C" 
			},
			{
				"x": 1.693677177,
				"y": 0.2423170312,
				"z": 2.9126841531,
				"element": "N" 
			},
			{
				"x": 2.831045615,
				"y": -0.5290652998,
				"z": 2.836402293,
				"element": "C" 
			},
			{
				"x": 3.1561756566,
				"y": -1.2850017779,
				"z": 1.8491474488,
				"element": "N" 
			},
			{
				"x": 2.3173895797,
				"y": -1.3814583708,
				"z": 0.7066894262,
				"element": "C" 
			},
			{
				"x": 2.6406564003,
				"y": -2.1062291782,
				"z": -0.223050197,
				"element": "O" 
			},
			{
				"x": -0.6518466952,
				"y": 1.1077539405,
				"z": 1.7604981625,
				"element": "S" 
			},
			{
				"x": -5.0310634886,
				"y": 0.0491681691,
				"z": -0.8580880763,
				"element": "H" 
			},
			{
				"x": -5.6970195491,
				"y": 0.1558865751,
				"z": -2.4977508735,
				"element": "H" 
			},
			{
				"x": -4.6081752744,
				"y": -1.1794713088,
				"z": -2.0749627197,
				"element": "H" 
			},
			{
				"x": -3.8061914831,
				"y": 1.7923897282,
				"z": -2.1569914234,
				"element": "H" 
			},
			{
				"x": -3.4026242275,
				"y": 0.5919537759,
				"z": -3.4138621674,
				"element": "H" 
			},
			{
				"x": 0.0421108768,
				"y": -0.4800072059,
				"z": -2.401990723,
				"element": "H" 
			},
			{
				"x": 0.9457773085,
				"y": -1.80984879,
				"z": -1.6290638714,
				"element": "H" 
			},
			{
				"x": -0.8393150236,
				"y": -1.8068602478,
				"z": -1.6705433517,
				"element": "H" 
			},
			{
				"x": 1.5130517009,
				"y": 0.8094347666,
				"z": 3.7289932318,
				"element": "H" 
			},
			{
				"x": 3.4799125819,
				"y": -0.4607087925,
				"z": 3.7094565655,
				"element": "H" 
			}
		],
		 "valence_orbital": [ 
			{
				"type": "occ",
				"energy": -0.28853,
				"method": "rhf"
			},
			{
				"type": "occ",
				"energy": -0.28188,
				"method": "rhf"
			},
			{
				"type": "occ",
				"energy": -0.26747,
				"method": "rhf"
			},
			{
				"type": "occ",
				"energy": -0.24549,
				"method": "rhf"
			},
			{
				"type": "occ",
				"energy": -0.2335,
				"method": "rhf"
			},
			{
				"type": "unocc",
				"energy": -0.06597,
				"method": "rhf"
			},
			{
				"type": "unocc",
				"energy": -0.0305,
				"method": "rhf"
			},
			{
				"type": "unocc",
				"energy": -0.00856,
				"method": "rhf"
			},
			{
				"type": "unocc",
				"energy": -0.00677,
				"method": "rhf"
			},
			{
				"type": "unocc",
				"energy": 0.05849,
				"method": "rhf"
			}
		],
		"cosmo_sigma_profile": { 
			"-0.025": 0.0,
			"-0.024": 0.0,
			"-0.023": 0.0,
			"-0.022": 0.0,
			"-0.021": 0.0,
			"-0.02": 0.0,
			"-0.019": 0.87724998138,
			"-0.018": 2.71214578136,
			"-0.017": 1.35519526678,
			"-0.016": 1.97630763205,
			"-0.015": 1.65296882292,
			"-0.014": 1.31661362803,
			"-0.013": 0.779106451215,
			"-0.012": 1.38285013723,
			"-0.011": 2.81251987732,
			"-0.01": 2.9155274211,
			"-0.009": 2.41824754709,
			"-0.008": 2.21827086098,
			"-0.007": 2.35804191735,
			"-0.006": 3.89335983952,
			"-0.005": 9.07870792764,
			"-0.004": 19.0818676565,
			"-0.003": 21.6316945995,
			"-0.002": 23.0553071895,
			"-0.001": 25.9824650404,
			"0.0": 33.2997720743,
			"0.001": 18.6606060722,
			"0.002": 13.4721704735,
			"0.003": 8.14737635735,
			"0.004": 6.79218792091,
			"0.005": 5.11768562338,
			"0.006": 4.16312759644,
			"0.007": 3.80442286547,
			"0.008": 2.84944701905,
			"0.009": 4.3669062663,
			"0.01": 4.18069417636,
			"0.011": 5.44970152212,
			"0.012": 6.73433725727,
			"0.013": 3.95199852012,
			"0.014": 2.88173390725,
			"0.015": 3.0089570139,
			"0.016": 1.98851633842,
			"0.017": 0.0928780187908,
			"0.018": 0.0,
			"0.019": 0.0,
			"0.02": 0.0,
			"0.021": 0.0,
			"0.022": 0.0,
			"0.023": 0.0,
			"0.024": 0.0,
			"0.025": 0.0
		}
	}
}
