{
	 "smiles": "COC1=CC=C(C=C1)C1NN2C(S1)=NN=C2C1=CC=CC=C1", 
	 "Tm": 433.15, 
	 "num_atms": 36, 
	 "gaussian": { 
		 "optdone": 1, 
		 "sigma_profile": "yes", 
		 "theory": "DFT", 
		 "functional": "B3LYP", 
		 "basiset": "6-31G**", 
		 "properties": { 
			 "R2extent": 8857.4568, 
			 "electric_dipole_moment_norm": 6.2973430175, 
			 "electric_quadrupole_moment_norm": 33.4132466336, 
			 "total_energy": -1310.47500995, 
			 "HOMO_LUMO_gap": 0.17475, 
			 "cosmo_polarized_energy": -22.99, 
			 "cosmo_cavitation_energy": 41.61, 
			 "cosmo_dispersion_energy": -29.97, 
			 "cosmo_repulsion_energy": 2.21, 
			 "cosmo_total_nonelectrostatic_energy": 13.85, 
			 "SMD_solvation_energy": 5.08 
		},
		"coords": [
			{
				"x": 5.2170462607,
				"y": -1.1580075304,
				"z": -3.705258471,
				"element": "C" 
			},
			{
				"x": 3.9716061555,
				"y": -0.554089801,
				"z": -3.388932715,
				"element": "O" 
			},
			{
				"x": 3.1844211237,
				"y": -1.1467263359,
				"z": -2.4490221225,
				"element": "C" 
			},
			{
				"x": 3.5041697961,
				"y": -2.3327047832,
				"z": -1.773521731,
				"element": "C" 
			},
			{
				"x": 2.6198226442,
				"y": -2.8429196033,
				"z": -0.8245622412,
				"element": "C" 
			},
			{
				"x": 1.4119550234,
				"y": -2.2023874205,
				"z": -0.5320536876,
				"element": "C" 
			},
			{
				"x": 1.1003514948,
				"y": -1.021570168,
				"z": -1.2215321936,
				"element": "C" 
			},
			{
				"x": 1.9758651192,
				"y": -0.4967831057,
				"z": -2.1641774686,
				"element": "C" 
			},
			{
				"x": 0.4605457378,
				"y": -2.8160285546,
				"z": 0.4704865479,
				"element": "C" 
			},
			{
				"x": -0.7329440515,
				"y": -2.0032830022,
				"z": 0.7189379985,
				"element": "N" 
			},
			{
				"x": -0.3768181008,
				"y": -1.1130450478,
				"z": 1.7512456784,
				"element": "N" 
			},
			{
				"x": 0.6112640397,
				"y": -1.4984058851,
				"z": 2.6197101508,
				"element": "C" 
			},
			{
				"x": 1.2849388671,
				"y": -3.0658954828,
				"z": 2.1948600828,
				"element": "S" 
			},
			{
				"x": 0.8148458748,
				"y": -0.5842938224,
				"z": 3.5314802233,
				"element": "N" 
			},
			{
				"x": -0.0861583957,
				"y": 0.4347618342,
				"z": 3.2604972386,
				"element": "N" 
			},
			{
				"x": -0.7936662329,
				"y": 0.1286485191,
				"z": 2.1849442968,
				"element": "C" 
			},
			{
				"x": -1.8257722978,
				"y": 0.9785702956,
				"z": 1.5861724286,
				"element": "C" 
			},
			{
				"x": -2.1095123851,
				"y": 2.2103323208,
				"z": 2.2036290247,
				"element": "C" 
			},
			{
				"x": -3.0784016442,
				"y": 3.054271994,
				"z": 1.6715905315,
				"element": "C" 
			},
			{
				"x": -3.7796044985,
				"y": 2.6881180186,
				"z": 0.5183291551,
				"element": "C" 
			},
			{
				"x": -3.5021308386,
				"y": 1.4683263739,
				"z": -0.0988097617,
				"element": "C" 
			},
			{
				"x": -2.5331623419,
				"y": 0.614066315,
				"z": 0.4287354118,
				"element": "C" 
			},
			{
				"x": 5.6766598221,
				"y": -0.5203740038,
				"z": -4.4616768963,
				"element": "H" 
			},
			{
				"x": 5.8753040783,
				"y": -1.2100669265,
				"z": -2.8287945835,
				"element": "H" 
			},
			{
				"x": 5.0851164782,
				"y": -2.1670646162,
				"z": -4.1164702033,
				"element": "H" 
			},
			{
				"x": 4.4312327804,
				"y": -2.8571448992,
				"z": -1.9707891849,
				"element": "H" 
			},
			{
				"x": 2.891059461,
				"y": -3.7534907419,
				"z": -0.2964112427,
				"element": "H" 
			},
			{
				"x": 0.1644243668,
				"y": -0.5125301538,
				"z": -1.0227151536,
				"element": "H" 
			},
			{
				"x": 1.7427171536,
				"y": 0.4201649912,
				"z": -2.6950581261,
				"element": "H" 
			},
			{
				"x": 0.1326235164,
				"y": -3.8090793543,
				"z": 0.154420288,
				"element": "H" 
			},
			{
				"x": -1.4713583883,
				"y": -2.6056255415,
				"z": 1.0877063619,
				"element": "H" 
			},
			{
				"x": -1.556937374,
				"y": 2.4829273411,
				"z": 3.0959202327,
				"element": "H" 
			},
			{
				"x": -3.2881616635,
				"y": 4.0026346033,
				"z": 2.1577383486,
				"element": "H" 
			},
			{
				"x": -4.5358036035,
				"y": 3.349511361,
				"z": 0.10560435,
				"element": "H" 
			},
			{
				"x": -4.0410700502,
				"y": 1.1761719974,
				"z": -0.9955535589,
				"element": "H" 
			},
			{
				"x": -2.3231679273,
				"y": -0.3306891854,
				"z": -0.0604690086,
				"element": "H" 
			}
		],
		 "valence_orbital": [ 
			{
				"type": "occ",
				"energy": -0.25884,
				"method": "rhf"
			},
			{
				"type": "occ",
				"energy": -0.25515,
				"method": "rhf"
			},
			{
				"type": "occ",
				"energy": -0.24947,
				"method": "rhf"
			},
			{
				"type": "occ",
				"energy": -0.22769,
				"method": "rhf"
			},
			{
				"type": "occ",
				"energy": -0.21328,
				"method": "rhf"
			},
			{
				"type": "unocc",
				"energy": -0.03853,
				"method": "rhf"
			},
			{
				"type": "unocc",
				"energy": -0.02713,
				"method": "rhf"
			},
			{
				"type": "unocc",
				"energy": -0.00998,
				"method": "rhf"
			},
			{
				"type": "unocc",
				"energy": -0.00614,
				"method": "rhf"
			},
			{
				"type": "unocc",
				"energy": 0.00996,
				"method": "rhf"
			}
		],
		"cosmo_sigma_profile": { 
			"-0.025": 0.0,
			"-0.024": 0.0,
			"-0.023": 0.0,
			"-0.022": 0.0,
			"-0.021": 0.0,
			"-0.02": 0.0,
			"-0.019": 0.0,
			"-0.018": 0.0,
			"-0.017": 0.0,
			"-0.016": 0.285742544059,
			"-0.015": 2.07737170689,
			"-0.014": 2.22168185276,
			"-0.013": 1.33965188333,
			"-0.012": 1.55348280144,
			"-0.011": 1.75958139206,
			"-0.01": 4.08661414362,
			"-0.009": 3.85693304005,
			"-0.008": 3.45550278604,
			"-0.007": 4.86090009887,
			"-0.006": 17.8341512072,
			"-0.005": 24.0403583874,
			"-0.004": 28.9614121441,
			"-0.003": 26.1231539405,
			"-0.002": 20.0919983776,
			"-0.001": 18.8735495352,
			"0.0": 17.6052029249,
			"0.001": 21.2187992004,
			"0.002": 23.3174173205,
			"0.003": 26.5556268471,
			"0.004": 28.3342519948,
			"0.005": 21.576000117,
			"0.006": 6.88621230109,
			"0.007": 2.71590587911,
			"0.008": 2.80609348188,
			"0.009": 4.0681243981,
			"0.01": 3.60208895253,
			"0.011": 2.54631846486,
			"0.012": 2.78640181103,
			"0.013": 3.5421360204,
			"0.014": 3.15873656743,
			"0.015": 2.4440382195,
			"0.016": 1.24643012116,
			"0.017": 0.142689530152,
			"0.018": 0.0,
			"0.019": 0.0,
			"0.02": 0.0,
			"0.021": 0.0,
			"0.022": 0.0,
			"0.023": 0.0,
			"0.024": 0.0,
			"0.025": 0.0
		}
	}
}
