{
	 "smiles": "CC(=O)OC1C2CC(OC(C)=O)C3C1(C(CC1C4(C)CCCC31C(OC(C)=O)OC4)OC(C)=O)C(=O)C2=C", 
	 "Tm": 497.15, 
	 "num_atms": 74, 
	 "gaussian": { 
		 "optdone": 1, 
		 "sigma_profile": "yes", 
		 "theory": "DFT", 
		 "functional": "B3LYP", 
		 "basiset": "6-31G**", 
		 "properties": { 
			 "R2extent": 15953.2573, 
			 "electric_dipole_moment_norm": 1.08006097976, 
			 "electric_quadrupole_moment_norm": 11.895823196, 
			 "total_energy": -1840.95008627, 
			 "HOMO_LUMO_gap": 0.18264, 
			 "cosmo_polarized_energy": -21.87, 
			 "cosmo_cavitation_energy": 65.35, 
			 "cosmo_dispersion_energy": -41.09, 
			 "cosmo_repulsion_energy": 3.0, 
			 "cosmo_total_nonelectrostatic_energy": 27.27, 
			 "SMD_solvation_energy": 14.06 
		},
		"coords": [
			{
				"x": -2.2320180303,
				"y": 1.7205416615,
				"z": 4.63002057,
				"element": "C" 
			},
			{
				"x": -1.2042049626,
				"y": 0.8610547516,
				"z": 3.9435386833,
				"element": "C" 
			},
			{
				"x": -0.0935864933,
				"y": 0.6189318199,
				"z": 4.3658218157,
				"element": "O" 
			},
			{
				"x": -1.6698678886,
				"y": 0.4152316951,
				"z": 2.7441118324,
				"element": "O" 
			},
			{
				"x": -0.77374178,
				"y": -0.3490377807,
				"z": 1.9088646841,
				"element": "C" 
			},
			{
				"x": -1.388183069,
				"y": -1.7305754698,
				"z": 1.6299096575,
				"element": "C" 
			},
			{
				"x": -0.2712257523,
				"y": -2.5971499513,
				"z": 1.0292204721,
				"element": "C" 
			},
			{
				"x": 0.4940270647,
				"y": -1.9481656528,
				"z": -0.1573366289,
				"element": "C" 
			},
			{
				"x": 1.9132330134,
				"y": -2.2294622701,
				"z": 0.0500314508,
				"element": "O" 
			},
			{
				"x": 2.3311248126,
				"y": -3.5004602361,
				"z": -0.1465856826,
				"element": "C" 
			},
			{
				"x": 3.8022142493,
				"y": -3.6381546352,
				"z": 0.1654136707,
				"element": "C" 
			},
			{
				"x": 1.6058462302,
				"y": -4.3951353801,
				"z": -0.5329085835,
				"element": "O" 
			},
			{
				"x": 0.4320157654,
				"y": -0.3952571707,
				"z": -0.3091124954,
				"element": "C" 
			},
			{
				"x": -0.7415555064,
				"y": 0.2888708687,
				"z": 0.4979395594,
				"element": "C" 
			},
			{
				"x": -0.5491220872,
				"y": 1.8088796085,
				"z": 0.5217283411,
				"element": "C" 
			},
			{
				"x": -0.4086330023,
				"y": 2.3990896225,
				"z": -0.8728617103,
				"element": "C" 
			},
			{
				"x": 0.6812186068,
				"y": 1.7106640325,
				"z": -1.7113718358,
				"element": "C" 
			},
			{
				"x": 0.851562281,
				"y": 2.3011807945,
				"z": -3.1408909093,
				"element": "C" 
			},
			{
				"x": 0.9978916081,
				"y": 3.8319581884,
				"z": -3.124175608,
				"element": "C" 
			},
			{
				"x": -0.3117202214,
				"y": 1.8673351505,
				"z": -4.0967883369,
				"element": "C" 
			},
			{
				"x": -1.2821579053,
				"y": 0.8189316531,
				"z": -3.5210721507,
				"element": "C" 
			},
			{
				"x": -0.5797610803,
				"y": -0.3187617399,
				"z": -2.7625677788,
				"element": "C" 
			},
			{
				"x": 0.5590286629,
				"y": 0.1417874511,
				"z": -1.7889593657,
				"element": "C" 
			},
			{
				"x": 1.9134789186,
				"y": -0.3054351295,
				"z": -2.4268478327,
				"element": "C" 
			},
			{
				"x": 1.8831354591,
				"y": -1.6946205496,
				"z": -2.7428408445,
				"element": "O" 
			},
			{
				"x": 3.0804606887,
				"y": -2.2845743711,
				"z": -3.0419173343,
				"element": "C" 
			},
			{
				"x": 2.8562056741,
				"y": -3.6349095039,
				"z": -3.6735970229,
				"element": "C" 
			},
			{
				"x": 4.154124795,
				"y": -1.7812722668,
				"z": -2.8042205699,
				"element": "O" 
			},
			{
				"x": 2.1215157537,
				"y": 0.295706607,
				"z": -3.6858271956,
				"element": "O" 
			},
			{
				"x": 2.1744984437,
				"y": 1.7131331207,
				"z": -3.6566840659,
				"element": "C" 
			},
			{
				"x": 0.6695079012,
				"y": 2.0693063543,
				"z": 1.279122057,
				"element": "O" 
			},
			{
				"x": 0.6234808698,
				"y": 3.0129967811,
				"z": 2.2540646023,
				"element": "C" 
			},
			{
				"x": 1.9325166294,
				"y": 3.0821560853,
				"z": 2.9979711389,
				"element": "C" 
			},
			{
				"x": -0.3602620136,
				"y": 3.6760140212,
				"z": 2.5089255022,
				"element": "O" 
			},
			{
				"x": -2.1566708759,
				"y": -0.1037143449,
				"z": 0.0055387607,
				"element": "C" 
			},
			{
				"x": -2.8971480454,
				"y": 0.5562049478,
				"z": -0.6999369694,
				"element": "O" 
			},
			{
				"x": -2.4943015962,
				"y": -1.4141108666,
				"z": 0.6468487735,
				"element": "C" 
			},
			{
				"x": -3.6061678406,
				"y": -2.0941791695,
				"z": 0.3573699869,
				"element": "C" 
			},
			{
				"x": -2.1246379296,
				"y": 2.7382856321,
				"z": 4.2395418295,
				"element": "H" 
			},
			{
				"x": -3.2456197623,
				"y": 1.3750501329,
				"z": 4.4192611007,
				"element": "H" 
			},
			{
				"x": -2.0390722466,
				"y": 1.7311892882,
				"z": 5.7030474683,
				"element": "H" 
			},
			{
				"x": 0.2030743696,
				"y": -0.3955738301,
				"z": 2.3895176566,
				"element": "H" 
			},
			{
				"x": -1.7655550862,
				"y": -2.1992133185,
				"z": 2.5434767873,
				"element": "H" 
			},
			{
				"x": -0.6600535115,
				"y": -3.5676256578,
				"z": 0.7133936247,
				"element": "H" 
			},
			{
				"x": 0.4578162193,
				"y": -2.7886826493,
				"z": 1.8236458816,
				"element": "H" 
			},
			{
				"x": 0.1963614057,
				"y": -2.4341453399,
				"z": -1.0865910897,
				"element": "H" 
			},
			{
				"x": 4.3877808526,
				"y": -3.0668266166,
				"z": -0.5609595267,
				"element": "H" 
			},
			{
				"x": 4.0180261545,
				"y": -3.2304790251,
				"z": 1.1567606413,
				"element": "H" 
			},
			{
				"x": 4.0830652423,
				"y": -4.6901869383,
				"z": 0.1218442971,
				"element": "H" 
			},
			{
				"x": 1.3250930753,
				"y": -0.0360797682,
				"z": 0.2159849539,
				"element": "H" 
			},
			{
				"x": -1.3762646908,
				"y": 2.2825198067,
				"z": 1.0496867083,
				"element": "H" 
			},
			{
				"x": -0.1660813279,
				"y": 3.4598973839,
				"z": -0.7597837001,
				"element": "H" 
			},
			{
				"x": -1.3894536363,
				"y": 2.342653865,
				"z": -1.3451997863,
				"element": "H" 
			},
			{
				"x": 1.6253582227,
				"y": 1.9118045086,
				"z": -1.1811940619,
				"element": "H" 
			},
			{
				"x": 1.2501012446,
				"y": 4.198029387,
				"z": -4.1262654535,
				"element": "H" 
			},
			{
				"x": 0.0701956558,
				"y": 4.3266733173,
				"z": -2.8243264491,
				"element": "H" 
			},
			{
				"x": 1.7915124161,
				"y": 4.1580958118,
				"z": -2.4411710861,
				"element": "H" 
			},
			{
				"x": -0.8885582798,
				"y": 2.7505966021,
				"z": -4.3941559248,
				"element": "H" 
			},
			{
				"x": 0.1295576721,
				"y": 1.4684532973,
				"z": -5.01735792,
				"element": "H" 
			},
			{
				"x": -1.8613783513,
				"y": 0.3836296542,
				"z": -4.3441371739,
				"element": "H" 
			},
			{
				"x": -2.0166056956,
				"y": 1.2948391782,
				"z": -2.8680819836,
				"element": "H" 
			},
			{
				"x": -1.3320976343,
				"y": -0.9052645874,
				"z": -2.2288345268,
				"element": "H" 
			},
			{
				"x": -0.1421484836,
				"y": -1.0023835064,
				"z": -3.4931477189,
				"element": "H" 
			},
			{
				"x": 2.7598108767,
				"y": -0.0993484587,
				"z": -1.7575530222,
				"element": "H" 
			},
			{
				"x": 3.8188082323,
				"y": -4.1027175861,
				"z": -3.8785419471,
				"element": "H" 
			},
			{
				"x": 2.2623115971,
				"y": -4.2664890411,
				"z": -3.0073623463,
				"element": "H" 
			},
			{
				"x": 2.2956927252,
				"y": -3.5127117924,
				"z": -4.6052668026,
				"element": "H" 
			},
			{
				"x": 3.0159544486,
				"y": 2.0520721913,
				"z": -3.0292693351,
				"element": "H" 
			},
			{
				"x": 2.3725605091,
				"y": 2.0233363993,
				"z": -4.6874567575,
				"element": "H" 
			},
			{
				"x": 1.9171678915,
				"y": 2.3050820501,
				"z": 3.7697312007,
				"element": "H" 
			},
			{
				"x": 2.7792115464,
				"y": 2.8929486612,
				"z": 2.3354752019,
				"element": "H" 
			},
			{
				"x": 2.0266520837,
				"y": 4.0561008157,
				"z": 3.4788409279,
				"element": "H" 
			},
			{
				"x": -3.8537613968,
				"y": -3.0376031235,
				"z": 0.8354544556,
				"element": "H" 
			},
			{
				"x": -4.3027836856,
				"y": -1.6993254705,
				"z": -0.3768447608,
				"element": "H" 
			}
		],
		 "valence_orbital": [ 
			{
				"type": "occ",
				"energy": -0.27659,
				"method": "rhf"
			},
			{
				"type": "occ",
				"energy": -0.27387,
				"method": "rhf"
			},
			{
				"type": "occ",
				"energy": -0.2723,
				"method": "rhf"
			},
			{
				"type": "occ",
				"energy": -0.25427,
				"method": "rhf"
			},
			{
				"type": "occ",
				"energy": -0.25329,
				"method": "rhf"
			},
			{
				"type": "unocc",
				"energy": -0.07065,
				"method": "rhf"
			},
			{
				"type": "unocc",
				"energy": -0.00775,
				"method": "rhf"
			},
			{
				"type": "unocc",
				"energy": 0.00183,
				"method": "rhf"
			},
			{
				"type": "unocc",
				"energy": 0.00852,
				"method": "rhf"
			},
			{
				"type": "unocc",
				"energy": 0.01937,
				"method": "rhf"
			}
		],
		"cosmo_sigma_profile": { 
			"-0.025": 0.0,
			"-0.024": 0.0,
			"-0.023": 0.0,
			"-0.022": 0.0,
			"-0.021": 0.0,
			"-0.02": 0.0,
			"-0.019": 0.0,
			"-0.018": 0.0,
			"-0.017": 0.0,
			"-0.016": 0.0,
			"-0.015": 0.0,
			"-0.014": 0.0,
			"-0.013": 0.0,
			"-0.012": 0.0,
			"-0.011": 0.0,
			"-0.01": 0.0,
			"-0.009": 0.0,
			"-0.008": 0.189540082261,
			"-0.007": 5.0460027318,
			"-0.006": 21.9678338629,
			"-0.005": 32.528583255,
			"-0.004": 47.1618982318,
			"-0.003": 62.156949852,
			"-0.002": 71.3597210263,
			"-0.001": 53.3075389981,
			"0.0": 37.8440608893,
			"0.001": 34.4410360087,
			"0.002": 26.1579282879,
			"0.003": 19.787656899,
			"0.004": 14.7363420864,
			"0.005": 12.5849209498,
			"0.006": 9.7915517816,
			"0.007": 7.13414187711,
			"0.008": 8.26313455167,
			"0.009": 9.12143933684,
			"0.01": 11.4499525469,
			"0.011": 14.2023833486,
			"0.012": 8.5285921365,
			"0.013": 1.08264985748,
			"0.014": 0.0,
			"0.015": 0.0,
			"0.016": 0.0,
			"0.017": 0.0,
			"0.018": 0.0,
			"0.019": 0.0,
			"0.02": 0.0,
			"0.021": 0.0,
			"0.022": 0.0,
			"0.023": 0.0,
			"0.024": 0.0,
			"0.025": 0.0
		}
	}
}
