{
	 "smiles": "COC1=C(OC)C=C(CNC(=O)C=C/C2=CC(O)=C(O)C=C2)C=C1", 
	 "Tm": 477.15, 
	 "num_atms": 43, 
	 "gaussian": { 
		 "optdone": 1, 
		 "sigma_profile": "yes", 
		 "theory": "DFT", 
		 "functional": "B3LYP", 
		 "basiset": "6-31G**", 
		 "properties": { 
			 "R2extent": 9978.0805, 
			 "electric_dipole_moment_norm": 6.55659350654, 
			 "electric_quadrupole_moment_norm": 28.7520411145, 
			 "total_energy": -1128.19586254, 
			 "HOMO_LUMO_gap": 0.16978, 
			 "cosmo_polarized_energy": -24.07, 
			 "cosmo_cavitation_energy": 47.91, 
			 "cosmo_dispersion_energy": -31.72, 
			 "cosmo_repulsion_energy": 2.44, 
			 "cosmo_total_nonelectrostatic_energy": 18.64, 
			 "SMD_solvation_energy": 10.01 
		},
		"coords": [
			{
				"x": 3.1938067375,
				"y": 3.0714189749,
				"z": 2.1517466512,
				"element": "C" 
			},
			{
				"x": 3.0177092037,
				"y": 1.8019904785,
				"z": 2.7838583535,
				"element": "O" 
			},
			{
				"x": 1.9328297128,
				"y": 1.0671143419,
				"z": 2.3726425229,
				"element": "C" 
			},
			{
				"x": 0.6075052158,
				"y": 1.4758112037,
				"z": 2.6497140903,
				"element": "C" 
			},
			{
				"x": 0.4701431057,
				"y": 2.6652967494,
				"z": 3.3080593371,
				"element": "O" 
			},
			{
				"x": -0.838245283,
				"y": 3.0933531272,
				"z": 3.6532544417,
				"element": "C" 
			},
			{
				"x": -0.4561735622,
				"y": 0.6592957672,
				"z": 2.2591004707,
				"element": "C" 
			},
			{
				"x": -0.2288755971,
				"y": -0.5676927896,
				"z": 1.6164492588,
				"element": "C" 
			},
			{
				"x": -1.3972064781,
				"y": -1.4229980611,
				"z": 1.1831487996,
				"element": "C" 
			},
			{
				"x": -1.7682968212,
				"y": -1.1306209498,
				"z": -0.2034545391,
				"element": "N" 
			},
			{
				"x": -2.8185578765,
				"y": -1.7703394962,
				"z": -0.7960814248,
				"element": "C" 
			},
			{
				"x": -3.610955065,
				"y": -2.4601982,
				"z": -0.1570111216,
				"element": "O" 
			},
			{
				"x": -3.01780571,
				"y": -1.5408951525,
				"z": -2.2637589704,
				"element": "C" 
			},
			{
				"x": -2.1252252061,
				"y": -1.526301972,
				"z": -3.272192646,
				"element": "C" 
			},
			{
				"x": -0.6683708307,
				"y": -1.752662289,
				"z": -3.2655600115,
				"element": "C" 
			},
			{
				"x": -0.0285518197,
				"y": -2.59910072,
				"z": -2.3388213585,
				"element": "C" 
			},
			{
				"x": 1.3497410978,
				"y": -2.7658550626,
				"z": -2.3596158413,
				"element": "C" 
			},
			{
				"x": 1.9489039083,
				"y": -3.5707274838,
				"z": -1.4359767158,
				"element": "O" 
			},
			{
				"x": 2.1207642261,
				"y": -2.1040246224,
				"z": -3.3330534091,
				"element": "C" 
			},
			{
				"x": 3.4720421236,
				"y": -2.342688751,
				"z": -3.26558127,
				"element": "O" 
			},
			{
				"x": 1.5010063874,
				"y": -1.2919825101,
				"z": -4.2768801702,
				"element": "C" 
			},
			{
				"x": 0.1158442972,
				"y": -1.1226925013,
				"z": -4.2461284937,
				"element": "C" 
			},
			{
				"x": 1.083654306,
				"y": -0.9706604863,
				"z": 1.3597662407,
				"element": "C" 
			},
			{
				"x": 2.1507777139,
				"y": -0.1493875733,
				"z": 1.7330836963,
				"element": "C" 
			},
			{
				"x": 2.3636444385,
				"y": 3.7494062141,
				"z": 2.3692654751,
				"element": "H" 
			},
			{
				"x": 3.2972659453,
				"y": 2.9564920585,
				"z": 1.0644632003,
				"element": "H" 
			},
			{
				"x": 4.1193110287,
				"y": 3.4859313992,
				"z": 2.5571498562,
				"element": "H" 
			},
			{
				"x": -0.7145864975,
				"y": 4.0380758846,
				"z": 4.1848377677,
				"element": "H" 
			},
			{
				"x": -1.4603988136,
				"y": 3.2578850315,
				"z": 2.7640064186,
				"element": "H" 
			},
			{
				"x": -1.33782185,
				"y": 2.3712214409,
				"z": 4.3111649648,
				"element": "H" 
			},
			{
				"x": -1.4777544912,
				"y": 0.9608223581,
				"z": 2.4615035216,
				"element": "H" 
			},
			{
				"x": -1.1480251545,
				"y": -2.4877760465,
				"z": 1.2832489742,
				"element": "H" 
			},
			{
				"x": -2.2731170474,
				"y": -1.2492526631,
				"z": 1.8158160482,
				"element": "H" 
			},
			{
				"x": -1.0867450087,
				"y": -0.6624388551,
				"z": -0.7825940265,
				"element": "H" 
			},
			{
				"x": -4.0694686697,
				"y": -1.4290086412,
				"z": -2.5149573587,
				"element": "H" 
			},
			{
				"x": -2.5306360388,
				"y": -1.31476443,
				"z": -4.2616552347,
				"element": "H" 
			},
			{
				"x": -0.5968699531,
				"y": -3.1542507118,
				"z": -1.6023112874,
				"element": "H" 
			},
			{
				"x": 2.8998830072,
				"y": -3.5754883613,
				"z": -1.6220210851,
				"element": "H" 
			},
			{
				"x": 3.9261922996,
				"y": -1.8783291589,
				"z": -3.9793820694,
				"element": "H" 
			},
			{
				"x": 2.0986616471,
				"y": -0.7909458195,
				"z": -5.0352502056,
				"element": "H" 
			},
			{
				"x": -0.3594424678,
				"y": -0.4834143621,
				"z": -4.9841219489,
				"element": "H" 
			},
			{
				"x": 1.2787190611,
				"y": -1.9181284032,
				"z": 0.864433029,
				"element": "H" 
			},
			{
				"x": 3.1789247786,
				"y": -0.4446889558,
				"z": 1.5486960698,
				"element": "H" 
			}
		],
		 "valence_orbital": [ 
			{
				"type": "occ",
				"energy": -0.24377,
				"method": "rhf"
			},
			{
				"type": "occ",
				"energy": -0.23933,
				"method": "rhf"
			},
			{
				"type": "occ",
				"energy": -0.23156,
				"method": "rhf"
			},
			{
				"type": "occ",
				"energy": -0.21286,
				"method": "rhf"
			},
			{
				"type": "occ",
				"energy": -0.21188,
				"method": "rhf"
			},
			{
				"type": "unocc",
				"energy": -0.0421,
				"method": "rhf"
			},
			{
				"type": "unocc",
				"energy": -0.00332,
				"method": "rhf"
			},
			{
				"type": "unocc",
				"energy": 9e-05,
				"method": "rhf"
			},
			{
				"type": "unocc",
				"energy": 0.00915,
				"method": "rhf"
			},
			{
				"type": "unocc",
				"energy": 0.02851,
				"method": "rhf"
			}
		],
		"cosmo_sigma_profile": { 
			"-0.025": 0.0,
			"-0.024": 0.0,
			"-0.023": 0.0,
			"-0.022": 0.0,
			"-0.021": 0.0,
			"-0.02": 0.0,
			"-0.019": 0.164608061741,
			"-0.018": 1.15153575531,
			"-0.017": 1.21574181632,
			"-0.016": 1.09065090635,
			"-0.015": 0.991156996003,
			"-0.014": 1.46696602534,
			"-0.013": 1.97953831398,
			"-0.012": 1.46086490446,
			"-0.011": 1.21348231728,
			"-0.01": 2.50745239494,
			"-0.009": 2.41699820712,
			"-0.008": 2.15784403202,
			"-0.007": 4.42192340851,
			"-0.006": 20.3476834907,
			"-0.005": 29.6079707078,
			"-0.004": 31.6940344878,
			"-0.003": 32.5422975548,
			"-0.002": 28.5647984907,
			"-0.001": 21.2836012349,
			"0.0": 22.280807041,
			"0.001": 25.2448543163,
			"0.002": 27.3425912728,
			"0.003": 28.1911174672,
			"0.004": 26.2961272648,
			"0.005": 17.7481788806,
			"0.006": 7.9851941451,
			"0.007": 5.31168877688,
			"0.008": 4.33810623297,
			"0.009": 4.94042832325,
			"0.01": 5.13155170941,
			"0.011": 5.24867084227,
			"0.012": 2.6305701441,
			"0.013": 3.23841375664,
			"0.014": 5.7299519265,
			"0.015": 2.0973391841,
			"0.016": 0.14645477794,
			"0.017": 0.0,
			"0.018": 0.0,
			"0.019": 0.0,
			"0.02": 0.0,
			"0.021": 0.0,
			"0.022": 0.0,
			"0.023": 0.0,
			"0.024": 0.0,
			"0.025": 0.0
		}
	}
}
