{
	 "smiles": "CC(C)C1=CC=CC(O)=C1O", 
	 "Tm": 320.15, 
	 "num_atms": 23, 
	 "gaussian": { 
		 "optdone": 1, 
		 "sigma_profile": "yes", 
		 "theory": "DFT", 
		 "functional": "B3LYP", 
		 "basiset": "6-31G**", 
		 "properties": { 
			 "R2extent": 2222.4981, 
			 "electric_dipole_moment_norm": 2.22118334903, 
			 "electric_quadrupole_moment_norm": 6.8225415433, 
			 "total_energy": -500.642347129, 
			 "HOMO_LUMO_gap": 0.21426, 
			 "cosmo_polarized_energy": -9.41, 
			 "cosmo_cavitation_energy": 25.49, 
			 "cosmo_dispersion_energy": -18.65, 
			 "cosmo_repulsion_energy": 1.51, 
			 "cosmo_total_nonelectrostatic_energy": 8.36, 
			 "SMD_solvation_energy": 5.05 
		},
		"coords": [
			{
				"x": -2.2621558123,
				"y": -2.4353981221,
				"z": -1.6611059092,
				"element": "C" 
			},
			{
				"x": -1.6541899756,
				"y": -1.0445635816,
				"z": -1.9238713595,
				"element": "C" 
			},
			{
				"x": -2.502121875,
				"y": -0.2516918372,
				"z": -2.9365140952,
				"element": "C" 
			},
			{
				"x": -1.455008753,
				"y": -0.2664942087,
				"z": -0.6293988815,
				"element": "C" 
			},
			{
				"x": -2.5373959498,
				"y": 0.0931244103,
				"z": 0.1903497758,
				"element": "C" 
			},
			{
				"x": -2.3549900597,
				"y": 0.8045831243,
				"z": 1.3731270411,
				"element": "C" 
			},
			{
				"x": -1.0683821044,
				"y": 1.1796419684,
				"z": 1.7718509671,
				"element": "C" 
			},
			{
				"x": 0.0141664478,
				"y": 0.8324459818,
				"z": 0.9734513396,
				"element": "C" 
			},
			{
				"x": 1.3270798834,
				"y": 1.1444131163,
				"z": 1.2592893135,
				"element": "O" 
			},
			{
				"x": -0.1708498433,
				"y": 0.11398331,
				"z": -0.2208735921,
				"element": "C" 
			},
			{
				"x": 0.9206017644,
				"y": -0.2095111962,
				"z": -0.9805688138,
				"element": "O" 
			},
			{
				"x": -2.351012917,
				"y": -2.9994725369,
				"z": -2.5963142257,
				"element": "H" 
			},
			{
				"x": -3.2637618169,
				"y": -2.3588835746,
				"z": -1.2231891586,
				"element": "H" 
			},
			{
				"x": -1.6401813446,
				"y": -3.0150700371,
				"z": -0.9720532116,
				"element": "H" 
			},
			{
				"x": -0.6653439597,
				"y": -1.1945732085,
				"z": -2.3667165531,
				"element": "H" 
			},
			{
				"x": -2.5924538644,
				"y": -0.8038428037,
				"z": -3.8786754952,
				"element": "H" 
			},
			{
				"x": -2.0506602686,
				"y": 0.7211321699,
				"z": -3.1543756655,
				"element": "H" 
			},
			{
				"x": -3.5148861279,
				"y": -0.0727378709,
				"z": -2.5582023004,
				"element": "H" 
			},
			{
				"x": -3.5417905757,
				"y": -0.1924259739,
				"z": -0.1085911711,
				"element": "H" 
			},
			{
				"x": -3.2081266107,
				"y": 1.0706162543,
				"z": 1.9893714422,
				"element": "H" 
			},
			{
				"x": -0.9084506171,
				"y": 1.7357815155,
				"z": 2.6931716403,
				"element": "H" 
			},
			{
				"x": 1.3722063036,
				"y": 1.6343562272,
				"z": 2.0890139102,
				"element": "H" 
			},
			{
				"x": 1.7000080765,
				"y": 0.1424868733,
				"z": -0.5255749973,
				"element": "H" 
			}
		],
		 "valence_orbital": [ 
			{
				"type": "occ",
				"energy": -0.31983,
				"method": "rhf"
			},
			{
				"type": "occ",
				"energy": -0.31548,
				"method": "rhf"
			},
			{
				"type": "occ",
				"energy": -0.31171,
				"method": "rhf"
			},
			{
				"type": "occ",
				"energy": -0.22665,
				"method": "rhf"
			},
			{
				"type": "occ",
				"energy": -0.204,
				"method": "rhf"
			},
			{
				"type": "unocc",
				"energy": 0.01026,
				"method": "rhf"
			},
			{
				"type": "unocc",
				"energy": 0.02244,
				"method": "rhf"
			},
			{
				"type": "unocc",
				"energy": 0.05603,
				"method": "rhf"
			},
			{
				"type": "unocc",
				"energy": 0.09216,
				"method": "rhf"
			},
			{
				"type": "unocc",
				"energy": 0.10469,
				"method": "rhf"
			}
		],
		"cosmo_sigma_profile": { 
			"-0.025": 0.0,
			"-0.024": 0.0,
			"-0.023": 0.0,
			"-0.022": 0.0,
			"-0.021": 0.0,
			"-0.02": 0.0,
			"-0.019": 0.0295857462398,
			"-0.018": 0.654239121464,
			"-0.017": 1.39822322229,
			"-0.016": 0.778120751855,
			"-0.015": 0.914055416066,
			"-0.014": 1.12613617699,
			"-0.013": 1.49402059601,
			"-0.012": 1.58622169566,
			"-0.011": 1.31828350336,
			"-0.01": 1.67831794021,
			"-0.009": 2.12102374579,
			"-0.008": 1.39221793062,
			"-0.007": 2.02791348478,
			"-0.006": 2.71276831133,
			"-0.005": 5.20976829421,
			"-0.004": 8.14499415002,
			"-0.003": 15.1600385839,
			"-0.002": 18.2728948474,
			"-0.001": 19.0102250833,
			"0.0": 19.1017348413,
			"0.001": 21.9909682629,
			"0.002": 14.9304437894,
			"0.003": 12.2170705308,
			"0.004": 11.8320053029,
			"0.005": 10.3461648351,
			"0.006": 10.1738830056,
			"0.007": 6.9611549634,
			"0.008": 2.44964603294,
			"0.009": 1.46975439369,
			"0.01": 2.50059646285,
			"0.011": 0.958375779538,
			"0.012": 0.0,
			"0.013": 0.0,
			"0.014": 0.0,
			"0.015": 0.0,
			"0.016": 0.0,
			"0.017": 0.0,
			"0.018": 0.0,
			"0.019": 0.0,
			"0.02": 0.0,
			"0.021": 0.0,
			"0.022": 0.0,
			"0.023": 0.0,
			"0.024": 0.0,
			"0.025": 0.0
		}
	}
}
