{
	 "smiles": "CCOCCCNC(N)=S", 
	 "Tm": 358.15, 
	 "num_atms": 24, 
	 "gaussian": { 
		 "optdone": 1, 
		 "sigma_profile": "yes", 
		 "theory": "DFT", 
		 "functional": "B3LYP", 
		 "basiset": "6-31G**", 
		 "properties": { 
			 "R2extent": 3325.5652, 
			 "electric_dipole_moment_norm": 5.85022409913, 
			 "electric_quadrupole_moment_norm": 22.540440745, 
			 "total_energy": -819.997270578, 
			 "HOMO_LUMO_gap": 0.19828, 
			 "cosmo_polarized_energy": -21.92, 
			 "cosmo_cavitation_energy": 28.47, 
			 "cosmo_dispersion_energy": -20.73, 
			 "cosmo_repulsion_energy": 1.7, 
			 "cosmo_total_nonelectrostatic_energy": 9.45, 
			 "SMD_solvation_energy": 3.77 
		},
		"coords": [
			{
				"x": 3.5356763453,
				"y": -0.7223455109,
				"z": -0.8266770766,
				"element": "C" 
			},
			{
				"x": 2.5833126797,
				"y": -0.5537826999,
				"z": 0.3550845064,
				"element": "C" 
			},
			{
				"x": 1.4512237489,
				"y": 0.2474631583,
				"z": 0.0272677744,
				"element": "O" 
			},
			{
				"x": 0.3690045184,
				"y": -0.4504184865,
				"z": -0.5691887208,
				"element": "C" 
			},
			{
				"x": -0.5787938494,
				"y": -1.0572928354,
				"z": 0.4740052382,
				"element": "C" 
			},
			{
				"x": -1.2110500993,
				"y": -0.0225308497,
				"z": 1.4078904908,
				"element": "C" 
			},
			{
				"x": -2.1459641077,
				"y": 0.8326920067,
				"z": 0.681163229,
				"element": "N" 
			},
			{
				"x": -2.6578024552,
				"y": 1.9910619163,
				"z": 1.178744099,
				"element": "C" 
			},
			{
				"x": -3.6168598058,
				"y": 2.5658435935,
				"z": 0.3763228659,
				"element": "N" 
			},
			{
				"x": -2.2170616593,
				"y": 2.6724238946,
				"z": 2.6471478572,
				"element": "S" 
			},
			{
				"x": 3.0583975914,
				"y": -1.2523188395,
				"z": -1.6576049897,
				"element": "H" 
			},
			{
				"x": 3.8641694947,
				"y": 0.2554003658,
				"z": -1.1906497793,
				"element": "H" 
			},
			{
				"x": 4.4194310388,
				"y": -1.2967708892,
				"z": -0.5277259404,
				"element": "H" 
			},
			{
				"x": 3.0894227609,
				"y": -0.0327821906,
				"z": 1.1745818826,
				"element": "H" 
			},
			{
				"x": 2.2717405772,
				"y": -1.5365008059,
				"z": 0.7409103624,
				"element": "H" 
			},
			{
				"x": 0.7264681592,
				"y": -1.2377012484,
				"z": -1.2494315509,
				"element": "H" 
			},
			{
				"x": -0.167494484,
				"y": 0.2869879359,
				"z": -1.1767920913,
				"element": "H" 
			},
			{
				"x": -1.3586509355,
				"y": -1.6353810255,
				"z": -0.0445258667,
				"element": "H" 
			},
			{
				"x": -0.0320057453,
				"y": -1.7798472076,
				"z": 1.0908779938,
				"element": "H" 
			},
			{
				"x": -1.7212668587,
				"y": -0.5197235346,
				"z": 2.2437367407,
				"element": "H" 
			},
			{
				"x": -0.437369994,
				"y": 0.6174707395,
				"z": 1.8362844696,
				"element": "H" 
			},
			{
				"x": -2.6864830176,
				"y": 0.3784844363,
				"z": -0.0450775428,
				"element": "H" 
			},
			{
				"x": -3.8872418592,
				"y": 3.4960008708,
				"z": 0.6599981505,
				"element": "H" 
			},
			{
				"x": -3.5573020434,
				"y": 2.4211672062,
				"z": -0.623942102,
				"element": "H" 
			}
		],
		 "valence_orbital": [ 
			{
				"type": "occ",
				"energy": -0.30519,
				"method": "rhf"
			},
			{
				"type": "occ",
				"energy": -0.26377,
				"method": "rhf"
			},
			{
				"type": "occ",
				"energy": -0.25377,
				"method": "rhf"
			},
			{
				"type": "occ",
				"energy": -0.21209,
				"method": "rhf"
			},
			{
				"type": "occ",
				"energy": -0.19669,
				"method": "rhf"
			},
			{
				"type": "unocc",
				"energy": 0.00159,
				"method": "rhf"
			},
			{
				"type": "unocc",
				"energy": 0.05608,
				"method": "rhf"
			},
			{
				"type": "unocc",
				"energy": 0.07742,
				"method": "rhf"
			},
			{
				"type": "unocc",
				"energy": 0.09263,
				"method": "rhf"
			},
			{
				"type": "unocc",
				"energy": 0.11007,
				"method": "rhf"
			}
		],
		"cosmo_sigma_profile": { 
			"-0.025": 0.0,
			"-0.024": 0.0,
			"-0.023": 0.0,
			"-0.022": 0.0,
			"-0.021": 0.0,
			"-0.02": 0.0,
			"-0.019": 0.0,
			"-0.018": 0.0,
			"-0.017": 0.0,
			"-0.016": 0.545021206428,
			"-0.015": 2.34624322528,
			"-0.014": 3.60649908887,
			"-0.013": 2.38519490438,
			"-0.012": 3.53031295469,
			"-0.011": 3.43963162419,
			"-0.01": 3.51957813643,
			"-0.009": 2.9691491184,
			"-0.008": 2.35232812801,
			"-0.007": 2.50450912975,
			"-0.006": 1.96468222359,
			"-0.005": 4.52350385163,
			"-0.004": 21.1203973441,
			"-0.003": 27.2689600865,
			"-0.002": 22.5816658827,
			"-0.001": 19.1528150393,
			"0.0": 13.2775310068,
			"0.001": 11.8801801848,
			"0.002": 5.91144067205,
			"0.003": 6.63501227898,
			"0.004": 6.53009963927,
			"0.005": 6.80181677534,
			"0.006": 6.53006780343,
			"0.007": 5.41909491837,
			"0.008": 6.38239288326,
			"0.009": 5.68728928229,
			"0.01": 6.63103455318,
			"0.011": 8.64018707601,
			"0.012": 7.09412853617,
			"0.013": 1.94478465027,
			"0.014": 0.818760932192,
			"0.015": 0.0330650983293,
			"0.016": 0.0,
			"0.017": 0.0,
			"0.018": 0.0,
			"0.019": 0.0,
			"0.02": 0.0,
			"0.021": 0.0,
			"0.022": 0.0,
			"0.023": 0.0,
			"0.024": 0.0,
			"0.025": 0.0
		}
	}
}
