{
	 "smiles": "NC1=C(Br)C=C2NC(=O)COC2=C1", 
	 "Tm": 483.15, 
	 "num_atms": 20, 
	 "gaussian": { 
		 "optdone": 1, 
		 "sigma_profile": "yes", 
		 "theory": "DFT", 
		 "functional": "B3LYP", 
		 "basiset": "6-31G**", 
		 "properties": { 
			 "R2extent": 5536.1814, 
			 "electric_dipole_moment_norm": 3.17287018014, 
			 "electric_quadrupole_moment_norm": 8.61722524772, 
			 "total_energy": -3140.43143525, 
			 "HOMO_LUMO_gap": 0.18296, 
			 "cosmo_polarized_energy": -15.12, 
			 "cosmo_cavitation_energy": 26.36, 
			 "cosmo_dispersion_energy": -20.51, 
			 "cosmo_repulsion_energy": 1.62, 
			 "cosmo_total_nonelectrostatic_energy": 7.46, 
			 "SMD_solvation_energy": 4.13 
		},
		"coords": [
			{
				"x": 1.8859272444,
				"y": -2.6413937644,
				"z": -1.0279596549,
				"element": "N" 
			},
			{
				"x": 1.7362818531,
				"y": -1.2832774855,
				"z": -0.7916106909,
				"element": "C" 
			},
			{
				"x": 2.7643997505,
				"y": -0.4953603823,
				"z": -0.2418684226,
				"element": "C" 
			},
			{
				"x": 4.4089481406,
				"y": -1.3225181422,
				"z": 0.2894107615,
				"element": "Br" 
			},
			{
				"x": 2.6243186521,
				"y": 0.8794430025,
				"z": -0.0640971015,
				"element": "C" 
			},
			{
				"x": 1.4435330281,
				"y": 1.5147148296,
				"z": -0.4366023176,
				"element": "C" 
			},
			{
				"x": 1.2589224349,
				"y": 2.9074689543,
				"z": -0.3351373579,
				"element": "N" 
			},
			{
				"x": 0.0373737984,
				"y": 3.5138732046,
				"z": -0.4542859034,
				"element": "C" 
			},
			{
				"x": -0.1350588979,
				"y": 4.717620634,
				"z": -0.3542668526,
				"element": "O" 
			},
			{
				"x": -1.1163794507,
				"y": 2.5351673773,
				"z": -0.6668458963,
				"element": "C" 
			},
			{
				"x": -0.7601224833,
				"y": 1.3481307091,
				"z": -1.381988069,
				"element": "O" 
			},
			{
				"x": 0.397933977,
				"y": 0.7445188875,
				"z": -0.9716981697,
				"element": "C" 
			},
			{
				"x": 0.5412430579,
				"y": -0.6250692678,
				"z": -1.1396852237,
				"element": "C" 
			},
			{
				"x": 1.0293429586,
				"y": -3.1736440498,
				"z": -1.0726258652,
				"element": "H" 
			},
			{
				"x": 2.6176029195,
				"y": -3.0965025198,
				"z": -0.499691399,
				"element": "H" 
			},
			{
				"x": 3.442247318,
				"y": 1.4515103159,
				"z": 0.3606756954,
				"element": "H" 
			},
			{
				"x": 2.0476529857,
				"y": 3.5132628463,
				"z": -0.1491851193,
				"element": "H" 
			},
			{
				"x": -1.5349482813,
				"y": 2.2738686742,
				"z": 0.317423312,
				"element": "H" 
			},
			{
				"x": -1.8873805424,
				"y": 3.0368027523,
				"z": -1.2511782217,
				"element": "H" 
			},
			{
				"x": -0.2861384633,
				"y": -1.1828165758,
				"z": -1.5668835037,
				"element": "H" 
			}
		],
		 "valence_orbital": [ 
			{
				"type": "occ",
				"energy": -0.29806,
				"method": "rhf"
			},
			{
				"type": "occ",
				"energy": -0.27584,
				"method": "rhf"
			},
			{
				"type": "occ",
				"energy": -0.26186,
				"method": "rhf"
			},
			{
				"type": "occ",
				"energy": -0.23813,
				"method": "rhf"
			},
			{
				"type": "occ",
				"energy": -0.19926,
				"method": "rhf"
			},
			{
				"type": "unocc",
				"energy": -0.0163,
				"method": "rhf"
			},
			{
				"type": "unocc",
				"energy": -0.01058,
				"method": "rhf"
			},
			{
				"type": "unocc",
				"energy": 0.00131,
				"method": "rhf"
			},
			{
				"type": "unocc",
				"energy": 0.03218,
				"method": "rhf"
			},
			{
				"type": "unocc",
				"energy": 0.07392,
				"method": "rhf"
			}
		],
		"cosmo_sigma_profile": { 
			"-0.025": 0.0,
			"-0.024": 0.0,
			"-0.023": 0.0,
			"-0.022": 0.0,
			"-0.021": 0.0,
			"-0.02": 0.0,
			"-0.019": 0.0,
			"-0.018": 0.0,
			"-0.017": 0.0,
			"-0.016": 0.328471271769,
			"-0.015": 1.35533034212,
			"-0.014": 1.32963926726,
			"-0.013": 2.49219295089,
			"-0.012": 2.64211070644,
			"-0.011": 3.29448565203,
			"-0.01": 4.5849469044,
			"-0.009": 3.74708416296,
			"-0.008": 7.03816600939,
			"-0.007": 9.38994923439,
			"-0.006": 8.85446333298,
			"-0.005": 8.7520867366,
			"-0.004": 9.87990837096,
			"-0.003": 9.98237298511,
			"-0.002": 8.83266466115,
			"-0.001": 10.1421162552,
			"0.0": 11.5498758812,
			"0.001": 14.2201051057,
			"0.002": 13.9580626175,
			"0.003": 23.1534107029,
			"0.004": 19.3817499703,
			"0.005": 7.90033082893,
			"0.006": 4.14050654086,
			"0.007": 3.39034611328,
			"0.008": 2.74805067831,
			"0.009": 2.44268756986,
			"0.01": 3.96766792152,
			"0.011": 2.36759837029,
			"0.012": 4.27110572323,
			"0.013": 6.1086418017,
			"0.014": 1.27090586571,
			"0.015": 0.0,
			"0.016": 0.0,
			"0.017": 0.0,
			"0.018": 0.0,
			"0.019": 0.0,
			"0.02": 0.0,
			"0.021": 0.0,
			"0.022": 0.0,
			"0.023": 0.0,
			"0.024": 0.0,
			"0.025": 0.0
		}
	}
}
