{
	 "smiles": "OS(=O)(=O)C1=CC=CC2=C1C=CC=C2NCCNC(=O)CI", 
	 "Tm": 573.15, 
	 "num_atms": 37, 
	 "gaussian": { 
		 "optdone": 1, 
		 "sigma_profile": "no", 
		 "theory": "DFT", 
		 "functional": "B3LYP", 
		 "basiset": "6-31G**", 
		 "properties": { 
			 "R2extent": 11112.4624, 
			 "electric_dipole_moment_norm": 4.99551239014, 
			 "electric_quadrupole_moment_norm": 39.738685593, 
			 "total_energy": -1362.45009223, 
			 "HOMO_LUMO_gap": 0.13861, 
			 "cosmo_polarized_energy": -97617.58, 
			 "cosmo_cavitation_energy": 45.27, 
			 "cosmo_dispersion_energy": -33.29, 
			 "cosmo_repulsion_energy": 2.48, 
			 "cosmo_total_nonelectrostatic_energy": 14.46, 
			 "SMD_solvation_energy": 4.85 
		},
		"coords": [
			{
				"x": -0.825025219,
				"y": 4.0546139036,
				"z": 0.916030053,
				"element": "O" 
			},
			{
				"x": -1.7188498503,
				"y": 3.6638016786,
				"z": -0.4108513457,
				"element": "S" 
			},
			{
				"x": -2.9889253799,
				"y": 3.1568538039,
				"z": 0.0873354648,
				"element": "O" 
			},
			{
				"x": -1.6582263286,
				"y": 4.8223197379,
				"z": -1.3038610736,
				"element": "O" 
			},
			{
				"x": -0.7612751374,
				"y": 2.329700442,
				"z": -1.1318813902,
				"element": "C" 
			},
			{
				"x": -0.2903886713,
				"y": 2.5577899393,
				"z": -2.4075280262,
				"element": "C" 
			},
			{
				"x": 0.4384778353,
				"y": 1.5511527894,
				"z": -3.0698760868,
				"element": "C" 
			},
			{
				"x": 0.7052992042,
				"y": 0.3628586515,
				"z": -2.4271582279,
				"element": "C" 
			},
			{
				"x": 0.2660506057,
				"y": 0.1106273857,
				"z": -1.101397616,
				"element": "C" 
			},
			{
				"x": -0.5306716666,
				"y": 1.1036164946,
				"z": -0.4287935887,
				"element": "C" 
			},
			{
				"x": -1.0440198296,
				"y": 0.8313439522,
				"z": 0.8658769894,
				"element": "C" 
			},
			{
				"x": -0.7696285014,
				"y": -0.3769873128,
				"z": 1.4624538805,
				"element": "C" 
			},
			{
				"x": 0.0405259066,
				"y": -1.3464980702,
				"z": 0.8406831564,
				"element": "C" 
			},
			{
				"x": 0.5804974108,
				"y": -1.1240990078,
				"z": -0.4192659551,
				"element": "C" 
			},
			{
				"x": 1.3738636318,
				"y": -2.0687864408,
				"z": -1.0660205182,
				"element": "N" 
			},
			{
				"x": 1.892181705,
				"y": -3.2554392877,
				"z": -0.4108420107,
				"element": "C" 
			},
			{
				"x": 3.0642388261,
				"y": -2.9828892025,
				"z": 0.5610497316,
				"element": "C" 
			},
			{
				"x": 3.5724240785,
				"y": -4.2022752484,
				"z": 1.1653256096,
				"element": "N" 
			},
			{
				"x": 3.4589735598,
				"y": -4.6637686096,
				"z": 2.4501484472,
				"element": "C" 
			},
			{
				"x": 3.9103904608,
				"y": -5.7510533061,
				"z": 2.7810044013,
				"element": "O" 
			},
			{
				"x": 2.7355775859,
				"y": -3.792152079,
				"z": 3.4669761147,
				"element": "C" 
			},
			{
				"x": 4.0044021739,
				"y": -2.1957673458,
				"z": 4.2526796494,
				"element": "I" 
			},
			{
				"x": -0.398411812,
				"y": 4.9047904504,
				"z": 0.7163508865,
				"element": "H" 
			},
			{
				"x": -0.4984768548,
				"y": 3.5044734832,
				"z": -2.8922792813,
				"element": "H" 
			},
			{
				"x": 0.7799563239,
				"y": 1.7143300843,
				"z": -4.0867610451,
				"element": "H" 
			},
			{
				"x": 1.2358969881,
				"y": -0.4074762969,
				"z": -2.977301131,
				"element": "H" 
			},
			{
				"x": -1.6662034803,
				"y": 1.5569786875,
				"z": 1.3709136458,
				"element": "H" 
			},
			{
				"x": -1.1742936322,
				"y": -0.5902847386,
				"z": 2.4474770435,
				"element": "H" 
			},
			{
				"x": 0.2361232557,
				"y": -2.2749614124,
				"z": 1.3642607256,
				"element": "H" 
			},
			{
				"x": 1.9935494936,
				"y": -1.6906754461,
				"z": -1.7663355368,
				"element": "H" 
			},
			{
				"x": 1.0818374007,
				"y": -3.767058548,
				"z": 0.1173997451,
				"element": "H" 
			},
			{
				"x": 2.2278990873,
				"y": -3.9468561202,
				"z": -1.1924226651,
				"element": "H" 
			},
			{
				"x": 2.7544471909,
				"y": -2.2870015521,
				"z": 1.3415497877,
				"element": "H" 
			},
			{
				"x": 3.8759723506,
				"y": -2.4851886734,
				"z": 0.0148059317,
				"element": "H" 
			},
			{
				"x": 4.0768930088,
				"y": -4.8485590873,
				"z": 0.5711062286,
				"element": "H" 
			},
			{
				"x": 1.8445151571,
				"y": -3.2940713276,
				"z": 3.08703178,
				"element": "H" 
			},
			{
				"x": 2.4947031223,
				"y": -4.4123023708,
				"z": 4.3254162261,
				"element": "H" 
			}
		],
		 "valence_orbital": [ 
			{
				"type": "occ",
				"energy": -0.27233,
				"method": "rhf"
			},
			{
				"type": "occ",
				"energy": -0.26561,
				"method": "rhf"
			},
			{
				"type": "occ",
				"energy": -0.26429,
				"method": "rhf"
			},
			{
				"type": "occ",
				"energy": -0.26095,
				"method": "rhf"
			},
			{
				"type": "occ",
				"energy": -0.20989,
				"method": "rhf"
			},
			{
				"type": "unocc",
				"energy": -0.07128,
				"method": "rhf"
			},
			{
				"type": "unocc",
				"energy": -0.06576,
				"method": "rhf"
			},
			{
				"type": "unocc",
				"energy": -0.03109,
				"method": "rhf"
			},
			{
				"type": "unocc",
				"energy": 0.00929,
				"method": "rhf"
			},
			{
				"type": "unocc",
				"energy": 0.01228,
				"method": "rhf"
			}
		],
		"cosmo_sigma_profile": { 
			"0.0": 0.0,
			"0.0": 0.0,
			"0.0": 0.0,
			"0.0": 0.0,
			"0.0": 0.0,
			"0.0": 0.0,
			"0.0": 0.0,
			"0.0": 0.0,
			"0.0": 0.0,
			"0.0": 0.0,
			"0.0": 0.0,
			"0.0": 0.0,
			"0.0": 0.0,
			"0.0": 0.0,
			"0.0": 0.0,
			"0.0": 0.0,
			"0.0": 0.0,
			"0.0": 0.0,
			"0.0": 0.0,
			"0.0": 0.0,
			"0.0": 0.0,
			"0.0": 0.0,
			"0.0": 0.0,
			"0.0": 0.0,
			"0.0": 0.0,
			"0.0": 0.0,
			"0.0": 0.0,
			"0.0": 0.0,
			"0.0": 0.0,
			"0.0": 0.0,
			"0.0": 0.0,
			"0.0": 0.0,
			"0.0": 0.0,
			"0.0": 0.0,
			"0.0": 0.0,
			"0.0": 0.0,
			"0.0": 0.0,
			"0.0": 0.0,
			"0.0": 0.0,
			"0.0": 0.0,
			"0.0": 0.0,
			"0.0": 0.0,
			"0.0": 0.0,
			"0.0": 0.0,
			"0.0": 0.0,
			"0.0": 0.0,
			"0.0": 0.0,
			"0.0": 0.0,
			"0.0": 0.0,
			"0.0": 0.0,
			"0.0": 0.0
		}
	}
}
