{
	 "smiles": "ClCCBr", 
	 "Tm": 255.75, 
	 "num_atms": 8, 
	 "gaussian": { 
		 "optdone": 1, 
		 "sigma_profile": "yes", 
		 "theory": "DFT", 
		 "functional": "B3LYP", 
		 "basiset": "6-31G**", 
		 "properties": { 
			 "R2extent": 1983.6908, 
			 "electric_dipole_moment_norm": 0.191396917426, 
			 "electric_quadrupole_moment_norm": 4.89744574038, 
			 "total_energy": -3110.22756092, 
			 "HOMO_LUMO_gap": 0.26426, 
			 "cosmo_polarized_energy": -4.74, 
			 "cosmo_cavitation_energy": 15.34, 
			 "cosmo_dispersion_energy": -12.21, 
			 "cosmo_repulsion_energy": 1.12, 
			 "cosmo_total_nonelectrostatic_energy": 4.25, 
			 "SMD_solvation_energy": 1.22 
		},
		"coords": [
			{
				"x": -1.7016040491,
				"y": -0.4156987765,
				"z": 1.4406261423,
				"element": "Cl" 
			},
			{
				"x": -1.6606252088,
				"y": 1.1108690509,
				"z": 0.453904653,
				"element": "C" 
			},
			{
				"x": -0.977247198,
				"y": 0.8299892865,
				"z": -0.8689932669,
				"element": "C" 
			},
			{
				"x": -0.9360638667,
				"y": 2.4946430738,
				"z": -1.9363708132,
				"element": "Br" 
			},
			{
				"x": -2.6928267195,
				"y": 1.4310327701,
				"z": 0.3151332059,
				"element": "H" 
			},
			{
				"x": -1.1201700838,
				"y": 1.8556314824,
				"z": 1.0373701627,
				"element": "H" 
			},
			{
				"x": -1.5180571314,
				"y": 0.0960401087,
				"z": -1.4636407502,
				"element": "H" 
			},
			{
				"x": 0.0584942575,
				"y": 0.521393004,
				"z": -0.7395293336,
				"element": "H" 
			}
		],
		 "valence_orbital": [ 
			{
				"type": "occ",
				"energy": -0.37702,
				"method": "rhf"
			},
			{
				"type": "occ",
				"energy": -0.31307,
				"method": "rhf"
			},
			{
				"type": "occ",
				"energy": -0.30909,
				"method": "rhf"
			},
			{
				"type": "occ",
				"energy": -0.2887,
				"method": "rhf"
			},
			{
				"type": "occ",
				"energy": -0.28639,
				"method": "rhf"
			},
			{
				"type": "unocc",
				"energy": -0.02213,
				"method": "rhf"
			},
			{
				"type": "unocc",
				"energy": 0.0223,
				"method": "rhf"
			},
			{
				"type": "unocc",
				"energy": 0.10578,
				"method": "rhf"
			},
			{
				"type": "unocc",
				"energy": 0.11641,
				"method": "rhf"
			},
			{
				"type": "unocc",
				"energy": 0.12285,
				"method": "rhf"
			}
		],
		"cosmo_sigma_profile": { 
			"-0.025": 0.0,
			"-0.024": 0.0,
			"-0.023": 0.0,
			"-0.022": 0.0,
			"-0.021": 0.0,
			"-0.02": 0.0,
			"-0.019": 0.0,
			"-0.018": 0.0,
			"-0.017": 0.0,
			"-0.016": 0.0,
			"-0.015": 0.0,
			"-0.014": 0.0,
			"-0.013": 0.0,
			"-0.012": 0.0,
			"-0.011": 0.0,
			"-0.01": 0.0,
			"-0.009": 0.0110189461416,
			"-0.008": 5.48620078122,
			"-0.007": 9.97003007066,
			"-0.006": 8.08772651368,
			"-0.005": 7.0477995218,
			"-0.004": 7.39491999748,
			"-0.003": 6.05131904174,
			"-0.002": 5.30598198074,
			"-0.001": 6.71859453459,
			"0.0": 6.77217486912,
			"0.001": 6.03752298228,
			"0.002": 7.84154245274,
			"0.003": 8.92048910946,
			"0.004": 9.1650933961,
			"0.005": 17.8546666916,
			"0.006": 13.6288935172,
			"0.007": 0.610503951378,
			"0.008": 0.0,
			"0.009": 0.0,
			"0.01": 0.0,
			"0.011": 0.0,
			"0.012": 0.0,
			"0.013": 0.0,
			"0.014": 0.0,
			"0.015": 0.0,
			"0.016": 0.0,
			"0.017": 0.0,
			"0.018": 0.0,
			"0.019": 0.0,
			"0.02": 0.0,
			"0.021": 0.0,
			"0.022": 0.0,
			"0.023": 0.0,
			"0.024": 0.0,
			"0.025": 0.0
		}
	}
}
