{
	 "smiles": "NC1=CC2=C(C=C1)C(=O)CCC2", 
	 "Tm": 403.15, 
	 "num_atms": 23, 
	 "gaussian": { 
		 "optdone": 1, 
		 "sigma_profile": "yes", 
		 "theory": "DFT", 
		 "functional": "B3LYP", 
		 "basiset": "6-31G**", 
		 "properties": { 
			 "R2extent": 2385.6449, 
			 "electric_dipole_moment_norm": 4.99296037337, 
			 "electric_quadrupole_moment_norm": 14.4848070025, 
			 "total_energy": -517.692245711, 
			 "HOMO_LUMO_gap": 0.17486, 
			 "cosmo_polarized_energy": -13.97, 
			 "cosmo_cavitation_energy": 25.5, 
			 "cosmo_dispersion_energy": -19.22, 
			 "cosmo_repulsion_energy": 1.53, 
			 "cosmo_total_nonelectrostatic_energy": 7.81, 
			 "SMD_solvation_energy": 4.22 
		},
		"coords": [
			{
				"x": -1.7401024365,
				"y": -2.830460226,
				"z": 0.3996733514,
				"element": "N" 
			},
			{
				"x": -1.4363938531,
				"y": -1.4802009843,
				"z": 0.3492617078,
				"element": "C" 
			},
			{
				"x": -0.5518865053,
				"y": -0.9801456541,
				"z": -0.6228368889,
				"element": "C" 
			},
			{
				"x": -0.1950879687,
				"y": 0.366392534,
				"z": -0.6566197251,
				"element": "C" 
			},
			{
				"x": -0.7296798788,
				"y": 1.2488372147,
				"z": 0.308402454,
				"element": "C" 
			},
			{
				"x": -1.610317046,
				"y": 0.7444295215,
				"z": 1.2822282682,
				"element": "C" 
			},
			{
				"x": -1.9653948262,
				"y": -0.5910775956,
				"z": 1.3097210896,
				"element": "C" 
			},
			{
				"x": -0.3907607622,
				"y": 2.6919515618,
				"z": 0.3284811517,
				"element": "C" 
			},
			{
				"x": -0.8558131481,
				"y": 3.4601546264,
				"z": 1.1624698847,
				"element": "O" 
			},
			{
				"x": 0.5544405633,
				"y": 3.1982216803,
				"z": -0.7574824724,
				"element": "C" 
			},
			{
				"x": 1.5208785403,
				"y": 2.1188232673,
				"z": -1.257830823,
				"element": "C" 
			},
			{
				"x": 0.743106761,
				"y": 0.8834903623,
				"z": -1.7277955729,
				"element": "C" 
			},
			{
				"x": -2.5777383458,
				"y": -3.0872144035,
				"z": 0.9010583462,
				"element": "H" 
			},
			{
				"x": -1.6005304263,
				"y": -3.3599726704,
				"z": -0.4482690532,
				"element": "H" 
			},
			{
				"x": -0.131739074,
				"y": -1.66392837,
				"z": -1.3579229007,
				"element": "H" 
			},
			{
				"x": -2.0067077893,
				"y": 1.4427021266,
				"z": 2.0125418088,
				"element": "H" 
			},
			{
				"x": -2.645577523,
				"y": -0.966272544,
				"z": 2.07038182,
				"element": "H" 
			},
			{
				"x": 1.0718547854,
				"y": 4.0784453931,
				"z": -0.365484675,
				"element": "H" 
			},
			{
				"x": -0.0717314118,
				"y": 3.5468557058,
				"z": -1.5930052258,
				"element": "H" 
			},
			{
				"x": 2.2028185236,
				"y": 1.8320851334,
				"z": -0.4472543783,
				"element": "H" 
			},
			{
				"x": 2.1414991454,
				"y": 2.5092273874,
				"z": -2.0719528389,
				"element": "H" 
			},
			{
				"x": 0.1565065413,
				"y": 1.1496283511,
				"z": -2.6204516389,
				"element": "H" 
			},
			{
				"x": 1.4273561349,
				"y": 0.0862275819,
				"z": -2.0392136895,
				"element": "H" 
			}
		],
		 "valence_orbital": [ 
			{
				"type": "occ",
				"energy": -0.32704,
				"method": "rhf"
			},
			{
				"type": "occ",
				"energy": -0.30065,
				"method": "rhf"
			},
			{
				"type": "occ",
				"energy": -0.24655,
				"method": "rhf"
			},
			{
				"type": "occ",
				"energy": -0.22671,
				"method": "rhf"
			},
			{
				"type": "occ",
				"energy": -0.20934,
				"method": "rhf"
			},
			{
				"type": "unocc",
				"energy": -0.03448,
				"method": "rhf"
			},
			{
				"type": "unocc",
				"energy": -0.00155,
				"method": "rhf"
			},
			{
				"type": "unocc",
				"energy": 0.05653,
				"method": "rhf"
			},
			{
				"type": "unocc",
				"energy": 0.07451,
				"method": "rhf"
			},
			{
				"type": "unocc",
				"energy": 0.09963,
				"method": "rhf"
			}
		],
		"cosmo_sigma_profile": { 
			"-0.025": 0.0,
			"-0.024": 0.0,
			"-0.023": 0.0,
			"-0.022": 0.0,
			"-0.021": 0.0,
			"-0.02": 0.0,
			"-0.019": 0.0,
			"-0.018": 0.0,
			"-0.017": 0.0,
			"-0.016": 0.0,
			"-0.015": 0.0,
			"-0.014": 0.0644058929436,
			"-0.013": 2.25503525392,
			"-0.012": 2.74877098572,
			"-0.011": 2.7562372115,
			"-0.01": 2.77584243551,
			"-0.009": 3.64107808987,
			"-0.008": 2.65415175918,
			"-0.007": 2.85496290242,
			"-0.006": 3.88129620739,
			"-0.005": 8.50386563534,
			"-0.004": 16.3919023874,
			"-0.003": 20.8004976688,
			"-0.002": 20.0881375473,
			"-0.001": 20.4101373422,
			"0.0": 13.0409343473,
			"0.001": 8.24975531422,
			"0.002": 6.93938146179,
			"0.003": 9.19940049486,
			"0.004": 11.3604064479,
			"0.005": 14.6792917136,
			"0.006": 3.89570007976,
			"0.007": 3.13164764937,
			"0.008": 2.68853963167,
			"0.009": 2.09957045676,
			"0.01": 2.04425956019,
			"0.011": 2.46457175735,
			"0.012": 3.64405081645,
			"0.013": 4.51364065548,
			"0.014": 2.52673436623,
			"0.015": 0.536701219452,
			"0.016": 0.0,
			"0.017": 0.0,
			"0.018": 0.0,
			"0.019": 0.0,
			"0.02": 0.0,
			"0.021": 0.0,
			"0.022": 0.0,
			"0.023": 0.0,
			"0.024": 0.0,
			"0.025": 0.0
		}
	}
}
