{
	 "smiles": "CC(=O)C1=CC=C(C=C1)N1C(=O)C=CC1=O", 
	 "Tm": 429.15, 
	 "num_atms": 25, 
	 "gaussian": { 
		 "optdone": 1, 
		 "sigma_profile": "yes", 
		 "theory": "DFT", 
		 "functional": "B3LYP", 
		 "basiset": "6-31G**", 
		 "properties": { 
			 "R2extent": 4935.5835, 
			 "electric_dipole_moment_norm": 4.62909400747, 
			 "electric_quadrupole_moment_norm": 20.2331273023, 
			 "total_energy": -743.12375729, 
			 "HOMO_LUMO_gap": 0.13029, 
			 "cosmo_polarized_energy": -13.5, 
			 "cosmo_cavitation_energy": 30.14, 
			 "cosmo_dispersion_energy": -22.08, 
			 "cosmo_repulsion_energy": 1.66, 
			 "cosmo_total_nonelectrostatic_energy": 9.72, 
			 "SMD_solvation_energy": 7.39 
		},
		"coords": [
			{
				"x": 2.7360711442,
				"y": -1.2648376716,
				"z": 2.6621308836,
				"element": "C" 
			},
			{
				"x": 2.0632092078,
				"y": 0.0980633315,
				"z": 2.6726354727,
				"element": "C" 
			},
			{
				"x": 2.3255471477,
				"y": 0.9136537043,
				"z": 3.5445971881,
				"element": "O" 
			},
			{
				"x": 1.0745292066,
				"y": 0.4228768726,
				"z": 1.5967380326,
				"element": "C" 
			},
			{
				"x": 0.4562733654,
				"y": 1.6805782603,
				"z": 1.6097141504,
				"element": "C" 
			},
			{
				"x": -0.4697712403,
				"y": 2.0460676205,
				"z": 0.6420600742,
				"element": "C" 
			},
			{
				"x": -0.8067798572,
				"y": 1.1423071574,
				"z": -0.3841334224,
				"element": "C" 
			},
			{
				"x": -0.1943230586,
				"y": -0.1229051677,
				"z": -0.4096253791,
				"element": "C" 
			},
			{
				"x": 0.7312939309,
				"y": -0.466964691,
				"z": 0.5714171777,
				"element": "C" 
			},
			{
				"x": -1.761143694,
				"y": 1.5065897799,
				"z": -1.3893465147,
				"element": "N" 
			},
			{
				"x": -2.1849019257,
				"y": 0.6900397126,
				"z": -2.4737751464,
				"element": "C" 
			},
			{
				"x": -1.8215017989,
				"y": -0.4367602607,
				"z": -2.735783218,
				"element": "O" 
			},
			{
				"x": -3.1826876691,
				"y": 1.4829652716,
				"z": -3.2556354399,
				"element": "C" 
			},
			{
				"x": -3.3362801592,
				"y": 2.6736118271,
				"z": -2.6788693886,
				"element": "C" 
			},
			{
				"x": -2.4503606884,
				"y": 2.7484607647,
				"z": -1.4765377899,
				"element": "C" 
			},
			{
				"x": -2.3550028612,
				"y": 3.6998278209,
				"z": -0.7316467865,
				"element": "O" 
			},
			{
				"x": 3.297763819,
				"y": -1.4191988589,
				"z": 1.7341484891,
				"element": "H" 
			},
			{
				"x": 1.9960152347,
				"y": -2.0696829145,
				"z": 2.7329631545,
				"element": "H" 
			},
			{
				"x": 3.4172380004,
				"y": -1.32389253,
				"z": 3.511385069,
				"element": "H" 
			},
			{
				"x": 0.719210201,
				"y": 2.3731683297,
				"z": 2.4022558537,
				"element": "H" 
			},
			{
				"x": -0.9292616288,
				"y": 3.0214969594,
				"z": 0.6782941981,
				"element": "H" 
			},
			{
				"x": -0.4393396975,
				"y": -0.8288642071,
				"z": -1.1875939407,
				"element": "H" 
			},
			{
				"x": 1.1854211223,
				"y": -1.4514497284,
				"z": 0.5223850855,
				"element": "H" 
			},
			{
				"x": -3.6533890959,
				"y": 1.0701673977,
				"z": -4.1378256533,
				"element": "H" 
			},
			{
				"x": -3.9676290053,
				"y": 3.5066812198,
				"z": -2.9574521497,
				"element": "H" 
			}
		],
		 "valence_orbital": [ 
			{
				"type": "occ",
				"energy": -0.30783,
				"method": "rhf"
			},
			{
				"type": "occ",
				"energy": -0.28362,
				"method": "rhf"
			},
			{
				"type": "occ",
				"energy": -0.26111,
				"method": "rhf"
			},
			{
				"type": "occ",
				"energy": -0.24503,
				"method": "rhf"
			},
			{
				"type": "occ",
				"energy": -0.24193,
				"method": "rhf"
			},
			{
				"type": "unocc",
				"energy": -0.11164,
				"method": "rhf"
			},
			{
				"type": "unocc",
				"energy": -0.05639,
				"method": "rhf"
			},
			{
				"type": "unocc",
				"energy": -0.01009,
				"method": "rhf"
			},
			{
				"type": "unocc",
				"energy": 0.01923,
				"method": "rhf"
			},
			{
				"type": "unocc",
				"energy": 0.05125,
				"method": "rhf"
			}
		],
		"cosmo_sigma_profile": { 
			"-0.025": 0.0,
			"-0.024": 0.0,
			"-0.023": 0.0,
			"-0.022": 0.0,
			"-0.021": 0.0,
			"-0.02": 0.0,
			"-0.019": 0.0,
			"-0.018": 0.0,
			"-0.017": 0.0,
			"-0.016": 0.0,
			"-0.015": 0.0,
			"-0.014": 0.0,
			"-0.013": 0.0,
			"-0.012": 0.0,
			"-0.011": 0.157134093702,
			"-0.01": 3.46529378697,
			"-0.009": 3.13129193282,
			"-0.008": 3.68222308141,
			"-0.007": 6.49049457901,
			"-0.006": 16.5983390472,
			"-0.005": 17.8319321642,
			"-0.004": 19.2360803321,
			"-0.003": 19.3379950746,
			"-0.002": 18.3255459567,
			"-0.001": 17.9973823794,
			"0.0": 16.6303488624,
			"0.001": 14.5113577557,
			"0.002": 15.6362348724,
			"0.003": 17.3556199737,
			"0.004": 9.04506600573,
			"0.005": 3.98785379502,
			"0.006": 5.09287786803,
			"0.007": 5.51090173918,
			"0.008": 4.55934548625,
			"0.009": 6.90662533109,
			"0.01": 6.71869963035,
			"0.011": 4.82998783498,
			"0.012": 4.20537886988,
			"0.013": 1.63058958622,
			"0.014": 0.299871676927,
			"0.015": 0.0,
			"0.016": 0.0,
			"0.017": 0.0,
			"0.018": 0.0,
			"0.019": 0.0,
			"0.02": 0.0,
			"0.021": 0.0,
			"0.022": 0.0,
			"0.023": 0.0,
			"0.024": 0.0,
			"0.025": 0.0
		}
	}
}
