{
	 "smiles": "NC(CCCCCC(O)=O)C(O)=O", 
	 "Tm": 497.15, 
	 "num_atms": 28, 
	 "gaussian": { 
		 "optdone": 1, 
		 "sigma_profile": "yes", 
		 "theory": "DFT", 
		 "functional": "B3LYP", 
		 "basiset": "6-31G**", 
		 "properties": { 
			 "R2extent": 4580.4578, 
			 "electric_dipole_moment_norm": 2.4319170175, 
			 "electric_quadrupole_moment_norm": 21.3580288819, 
			 "total_energy": -669.56920564, 
			 "HOMO_LUMO_gap": 0.25537, 
			 "cosmo_polarized_energy": -21.19, 
			 "cosmo_cavitation_energy": 31.24, 
			 "cosmo_dispersion_energy": -21.76, 
			 "cosmo_repulsion_energy": 1.78, 
			 "cosmo_total_nonelectrostatic_energy": 11.25, 
			 "SMD_solvation_energy": 6.66 
		},
		"coords": [
			{
				"x": 1.5759884267,
				"y": 0.2604254366,
				"z": -1.3084629624,
				"element": "N" 
			},
			{
				"x": 1.0015671086,
				"y": 1.5955529426,
				"z": -1.4356443882,
				"element": "C" 
			},
			{
				"x": -0.3209684582,
				"y": 1.7148291381,
				"z": -0.6371310563,
				"element": "C" 
			},
			{
				"x": -0.1595979498,
				"y": 1.8946610673,
				"z": 0.8841795771,
				"element": "C" 
			},
			{
				"x": 0.4872098022,
				"y": 0.742816273,
				"z": 1.6709208002,
				"element": "C" 
			},
			{
				"x": -0.2989906956,
				"y": -0.5730713771,
				"z": 1.6130211144,
				"element": "C" 
			},
			{
				"x": 0.3058171369,
				"y": -1.6759405469,
				"z": 2.4868781556,
				"element": "C" 
			},
			{
				"x": 0.1391306685,
				"y": -1.4363478311,
				"z": 3.9727411765,
				"element": "C" 
			},
			{
				"x": 0.8636201725,
				"y": -2.3206338176,
				"z": 4.7033810773,
				"element": "O" 
			},
			{
				"x": -0.5586581418,
				"y": -0.5906254319,
				"z": 4.4903082611,
				"element": "O" 
			},
			{
				"x": 0.7524230453,
				"y": 1.9749711503,
				"z": -2.9095063593,
				"element": "C" 
			},
			{
				"x": 0.5126548912,
				"y": 3.2889281486,
				"z": -3.1633465205,
				"element": "O" 
			},
			{
				"x": 0.7392090957,
				"y": 1.1717656351,
				"z": -3.8099008718,
				"element": "O" 
			},
			{
				"x": 2.5200306436,
				"y": 0.2637133285,
				"z": -1.6894950397,
				"element": "H" 
			},
			{
				"x": 1.0516013385,
				"y": -0.3572166978,
				"z": -1.9276427497,
				"element": "H" 
			},
			{
				"x": 1.7209447839,
				"y": 2.3181170447,
				"z": -1.0212849079,
				"element": "H" 
			},
			{
				"x": -0.8911131702,
				"y": 2.5727497509,
				"z": -1.0170303078,
				"element": "H" 
			},
			{
				"x": -0.9313128206,
				"y": 0.8325763123,
				"z": -0.8652738998,
				"element": "H" 
			},
			{
				"x": 0.4211561228,
				"y": 2.8108692581,
				"z": 1.0629021868,
				"element": "H" 
			},
			{
				"x": -1.1567353164,
				"y": 2.0885498752,
				"z": 1.3019403484,
				"element": "H" 
			},
			{
				"x": 1.5014225264,
				"y": 0.56393723,
				"z": 1.2986636369,
				"element": "H" 
			},
			{
				"x": 0.5678335761,
				"y": 1.0595941147,
				"z": 2.7171366523,
				"element": "H" 
			},
			{
				"x": -0.3242395873,
				"y": -0.9372811993,
				"z": 0.5809054186,
				"element": "H" 
			},
			{
				"x": -1.3354662238,
				"y": -0.401355532,
				"z": 1.9275288438,
				"element": "H" 
			},
			{
				"x": -0.1624334358,
				"y": -2.6461414125,
				"z": 2.2739444752,
				"element": "H" 
			},
			{
				"x": 1.3733392198,
				"y": -1.8140138152,
				"z": 2.2784542612,
				"element": "H" 
			},
			{
				"x": 0.6787409487,
				"y": -2.1129772809,
				"z": 5.6348161891,
				"element": "H" 
			},
			{
				"x": 0.5755262919,
				"y": 3.8039482365,
				"z": -2.3460031111,
				"element": "H" 
			}
		],
		 "valence_orbital": [ 
			{
				"type": "occ",
				"energy": -0.31859,
				"method": "rhf"
			},
			{
				"type": "occ",
				"energy": -0.3143,
				"method": "rhf"
			},
			{
				"type": "occ",
				"energy": -0.28035,
				"method": "rhf"
			},
			{
				"type": "occ",
				"energy": -0.27306,
				"method": "rhf"
			},
			{
				"type": "occ",
				"energy": -0.25143,
				"method": "rhf"
			},
			{
				"type": "unocc",
				"energy": 0.00394,
				"method": "rhf"
			},
			{
				"type": "unocc",
				"energy": 0.01173,
				"method": "rhf"
			},
			{
				"type": "unocc",
				"energy": 0.04354,
				"method": "rhf"
			},
			{
				"type": "unocc",
				"energy": 0.07974,
				"method": "rhf"
			},
			{
				"type": "unocc",
				"energy": 0.0805,
				"method": "rhf"
			}
		],
		"cosmo_sigma_profile": { 
			"-0.025": 0.0,
			"-0.024": 0.0,
			"-0.023": 0.0,
			"-0.022": 0.0,
			"-0.021": 0.0,
			"-0.02": 0.0,
			"-0.019": 0.225306758162,
			"-0.018": 1.74198870669,
			"-0.017": 1.98828953247,
			"-0.016": 1.6336279664,
			"-0.015": 1.63490531642,
			"-0.014": 2.22460428541,
			"-0.013": 0.856888349578,
			"-0.012": 2.00974357518,
			"-0.011": 2.20114495101,
			"-0.01": 3.95720784048,
			"-0.009": 3.08130072957,
			"-0.008": 4.98496681708,
			"-0.007": 5.93821373937,
			"-0.006": 8.89030764088,
			"-0.005": 10.2439135831,
			"-0.004": 11.3944514819,
			"-0.003": 17.321656405,
			"-0.002": 23.4456276074,
			"-0.001": 24.9157141975,
			"0.0": 19.6685170048,
			"0.001": 13.3620296993,
			"0.002": 7.24844001389,
			"0.003": 5.32443609894,
			"0.004": 6.48037549391,
			"0.005": 5.49155883583,
			"0.006": 5.38239856728,
			"0.007": 5.65804421574,
			"0.008": 6.76867895822,
			"0.009": 7.3208996879,
			"0.01": 8.22929669361,
			"0.011": 9.07961093158,
			"0.012": 10.0666982388,
			"0.013": 3.06536469866,
			"0.014": 0.0641198679492,
			"0.015": 0.0,
			"0.016": 0.0,
			"0.017": 0.0,
			"0.018": 0.0,
			"0.019": 0.0,
			"0.02": 0.0,
			"0.021": 0.0,
			"0.022": 0.0,
			"0.023": 0.0,
			"0.024": 0.0,
			"0.025": 0.0
		}
	}
}
