{
	 "smiles": "CCN1N=C(C(O)=O)C(=O)C2=CC3=C(OCO3)C=C12", 
	 "Tm": 534.15, 
	 "num_atms": 29, 
	 "gaussian": { 
		 "optdone": 1, 
		 "sigma_profile": "yes", 
		 "theory": "DFT", 
		 "functional": "B3LYP", 
		 "basiset": "6-31G**", 
		 "properties": { 
			 "R2extent": 5706.8775, 
			 "electric_dipole_moment_norm": 10.9522855172, 
			 "electric_quadrupole_moment_norm": 32.7068165027, 
			 "total_energy": -948.888647112, 
			 "HOMO_LUMO_gap": 0.14667, 
			 "cosmo_polarized_energy": -28.45, 
			 "cosmo_cavitation_energy": 33.6, 
			 "cosmo_dispersion_energy": -24.85, 
			 "cosmo_repulsion_energy": 1.89, 
			 "cosmo_total_nonelectrostatic_energy": 10.64, 
			 "SMD_solvation_energy": 7.55 
		},
		"coords": [
			{
				"x": -2.8086885982,
				"y": 1.2679735231,
				"z": -0.4502966978,
				"element": "C" 
			},
			{
				"x": -1.8914783261,
				"y": 0.9421256423,
				"z": 0.7297713347,
				"element": "C" 
			},
			{
				"x": -0.8133000788,
				"y": 0.002013916,
				"z": 0.3804275134,
				"element": "N" 
			},
			{
				"x": -1.0868837262,
				"y": -1.2690566904,
				"z": 0.650082458,
				"element": "N" 
			},
			{
				"x": -0.2565978153,
				"y": -2.2413489214,
				"z": 0.3570658006,
				"element": "C" 
			},
			{
				"x": -0.7523616168,
				"y": -3.6119584161,
				"z": 0.7535353607,
				"element": "C" 
			},
			{
				"x": -1.9675173014,
				"y": -3.6069512534,
				"z": 1.3533521246,
				"element": "O" 
			},
			{
				"x": -0.1444289949,
				"y": -4.6348210185,
				"z": 0.5640674294,
				"element": "O" 
			},
			{
				"x": 1.0488120633,
				"y": -2.0218723232,
				"z": -0.3000468262,
				"element": "C" 
			},
			{
				"x": 1.8513597326,
				"y": -2.9046054309,
				"z": -0.5845394642,
				"element": "O" 
			},
			{
				"x": 1.3072465608,
				"y": -0.5976530945,
				"z": -0.5919940033,
				"element": "C" 
			},
			{
				"x": 2.5269718771,
				"y": -0.2557457405,
				"z": -1.2240112544,
				"element": "C" 
			},
			{
				"x": 2.7498566349,
				"y": 1.0676366971,
				"z": -1.4915130102,
				"element": "C" 
			},
			{
				"x": 1.8074382503,
				"y": 2.0539290774,
				"z": -1.1565251209,
				"element": "C" 
			},
			{
				"x": 2.2687466636,
				"y": 3.2789049507,
				"z": -1.5331672769,
				"element": "O" 
			},
			{
				"x": 3.5611096124,
				"y": 3.0613871607,
				"z": -2.1274741551,
				"element": "C" 
			},
			{
				"x": 3.8313910546,
				"y": 1.6584858146,
				"z": -2.0897608091,
				"element": "O" 
			},
			{
				"x": 0.6122027429,
				"y": 1.7659532023,
				"z": -0.5440223583,
				"element": "C" 
			},
			{
				"x": 0.3639687604,
				"y": 0.3970335314,
				"z": -0.2533167944,
				"element": "C" 
			},
			{
				"x": -3.6004650733,
				"y": 1.9503949604,
				"z": -0.1264026228,
				"element": "H" 
			},
			{
				"x": -2.2630857028,
				"y": 1.7430281374,
				"z": -1.2702319339,
				"element": "H" 
			},
			{
				"x": -3.2762118908,
				"y": 0.356316983,
				"z": -0.8325297579,
				"element": "H" 
			},
			{
				"x": -1.4395376339,
				"y": 1.8443477807,
				"z": 1.1503181813,
				"element": "H" 
			},
			{
				"x": -2.4518306334,
				"y": 0.4563474116,
				"z": 1.5295070877,
				"element": "H" 
			},
			{
				"x": -2.2655016267,
				"y": -2.6808626116,
				"z": 1.3994381971,
				"element": "H" 
			},
			{
				"x": 3.2248640121,
				"y": -1.0477191557,
				"z": -1.4671975794,
				"element": "H" 
			},
			{
				"x": 3.5419990667,
				"y": 3.4068920901,
				"z": -3.1671897021,
				"element": "H" 
			},
			{
				"x": 4.3191591325,
				"y": 3.6004988229,
				"z": -1.5480583073,
				"element": "H" 
			},
			{
				"x": -0.0882371455,
				"y": 2.5553249545,
				"z": -0.3104878132,
				"element": "H" 
			}
		],
		 "valence_orbital": [ 
			{
				"type": "occ",
				"energy": -0.28093,
				"method": "rhf"
			},
			{
				"type": "occ",
				"energy": -0.27036,
				"method": "rhf"
			},
			{
				"type": "occ",
				"energy": -0.26082,
				"method": "rhf"
			},
			{
				"type": "occ",
				"energy": -0.22979,
				"method": "rhf"
			},
			{
				"type": "occ",
				"energy": -0.22354,
				"method": "rhf"
			},
			{
				"type": "unocc",
				"energy": -0.07687,
				"method": "rhf"
			},
			{
				"type": "unocc",
				"energy": -0.04751,
				"method": "rhf"
			},
			{
				"type": "unocc",
				"energy": -0.01071,
				"method": "rhf"
			},
			{
				"type": "unocc",
				"energy": 0.03668,
				"method": "rhf"
			},
			{
				"type": "unocc",
				"energy": 0.06111,
				"method": "rhf"
			}
		],
		"cosmo_sigma_profile": { 
			"-0.025": 0.0,
			"-0.024": 0.0,
			"-0.023": 0.0,
			"-0.022": 0.0,
			"-0.021": 0.0,
			"-0.02": 0.0,
			"-0.019": 0.0,
			"-0.018": 0.0,
			"-0.017": 0.0,
			"-0.016": 0.0,
			"-0.015": 0.0,
			"-0.014": 0.057933613012,
			"-0.013": 0.59106228058,
			"-0.012": 0.673373229804,
			"-0.011": 0.629491500848,
			"-0.01": 2.19411091322,
			"-0.009": 4.46601168354,
			"-0.008": 11.6027875238,
			"-0.007": 13.4091188477,
			"-0.006": 13.4492155127,
			"-0.005": 16.3914287212,
			"-0.004": 24.0729222128,
			"-0.003": 25.617484366,
			"-0.002": 20.4608290983,
			"-0.001": 22.2333839191,
			"0.0": 19.159414264,
			"0.001": 14.5600868157,
			"0.002": 8.15026331003,
			"0.003": 5.77188658165,
			"0.004": 4.79453576533,
			"0.005": 4.9677633201,
			"0.006": 5.70860484828,
			"0.007": 6.64977984894,
			"0.008": 5.39852304117,
			"0.009": 5.17708450994,
			"0.01": 5.78981931011,
			"0.011": 6.38920997911,
			"0.012": 7.22436389763,
			"0.013": 6.64891208639,
			"0.014": 2.36606643845,
			"0.015": 1.67637144713,
			"0.016": 1.59745458199,
			"0.017": 1.05272411321,
			"0.018": 0.359693602271,
			"0.019": 0.0,
			"0.02": 0.0,
			"0.021": 0.0,
			"0.022": 0.0,
			"0.023": 0.0,
			"0.024": 0.0,
			"0.025": 0.0
		}
	}
}
