{
	 "smiles": "CC1=CC(OCC2=NN=C(S)O2)=C(C)C=C1", 
	 "Tm": 409.15, 
	 "num_atms": 28, 
	 "gaussian": { 
		 "optdone": 1, 
		 "sigma_profile": "yes", 
		 "theory": "DFT", 
		 "functional": "B3LYP", 
		 "basiset": "6-31G**", 
		 "properties": { 
			 "R2extent": 7177.8878, 
			 "electric_dipole_moment_norm": 3.86990290447, 
			 "electric_quadrupole_moment_norm": 21.6746949012, 
			 "total_energy": -1084.49530474, 
			 "HOMO_LUMO_gap": 0.19486, 
			 "cosmo_polarized_energy": -13.89, 
			 "cosmo_cavitation_energy": 34.92, 
			 "cosmo_dispersion_energy": -25.35, 
			 "cosmo_repulsion_energy": 1.96, 
			 "cosmo_total_nonelectrostatic_energy": 11.53, 
			 "SMD_solvation_energy": 4.12 
		},
		"coords": [
			{
				"x": -4.240451694,
				"y": -0.4840293089,
				"z": -0.3568393759,
				"element": "C" 
			},
			{
				"x": -3.1479207085,
				"y": 0.0069332119,
				"z": -1.2778776346,
				"element": "C" 
			},
			{
				"x": -1.9331564599,
				"y": 0.4692383301,
				"z": -0.7426953562,
				"element": "C" 
			},
			{
				"x": -0.9167919089,
				"y": 0.9245829549,
				"z": -1.5813921656,
				"element": "C" 
			},
			{
				"x": 0.29769882,
				"y": 1.3921006081,
				"z": -1.1330309384,
				"element": "O" 
			},
			{
				"x": 0.5553372764,
				"y": 1.3549492566,
				"z": 0.2615695211,
				"element": "C" 
			},
			{
				"x": 1.9336889154,
				"y": 1.8637595919,
				"z": 0.493077339,
				"element": "C" 
			},
			{
				"x": 2.3041227939,
				"y": 2.874709148,
				"z": 1.2069573425,
				"element": "N" 
			},
			{
				"x": 3.7013235842,
				"y": 2.922133763,
				"z": 1.1451414109,
				"element": "N" 
			},
			{
				"x": 4.0499605886,
				"y": 1.9298276352,
				"z": 0.3886346522,
				"element": "C" 
			},
			{
				"x": 5.6862278318,
				"y": 1.4903569867,
				"z": -0.0711663286,
				"element": "S" 
			},
			{
				"x": 2.9951919538,
				"y": 1.1988389896,
				"z": -0.0660058501,
				"element": "O" 
			},
			{
				"x": -1.0741339759,
				"y": 0.9401689842,
				"z": -2.9831802918,
				"element": "C" 
			},
			{
				"x": 0.0375971735,
				"y": 1.4417958305,
				"z": -3.8684123972,
				"element": "C" 
			},
			{
				"x": -2.2848320452,
				"y": 0.4788382251,
				"z": -3.4939894946,
				"element": "C" 
			},
			{
				"x": -3.3107241608,
				"y": 0.0167618149,
				"z": -2.6623075262,
				"element": "C" 
			},
			{
				"x": -5.1236641641,
				"y": -0.7962521289,
				"z": -0.9204151426,
				"element": "H" 
			},
			{
				"x": -3.906359381,
				"y": -1.3403121772,
				"z": 0.2409489983,
				"element": "H" 
			},
			{
				"x": -4.5521784587,
				"y": 0.2966963117,
				"z": 0.3468355756,
				"element": "H" 
			},
			{
				"x": -1.8047630002,
				"y": 0.4699397397,
				"z": 0.3346017756,
				"element": "H" 
			},
			{
				"x": -0.1298997972,
				"y": 1.9994530177,
				"z": 0.8246934395,
				"element": "H" 
			},
			{
				"x": 0.4630744832,
				"y": 0.3274319394,
				"z": 0.6425020847,
				"element": "H" 
			},
			{
				"x": 5.3070736161,
				"y": 0.4276147815,
				"z": -0.8065527314,
				"element": "H" 
			},
			{
				"x": 0.9561848724,
				"y": 0.8622754003,
				"z": -3.7238132257,
				"element": "H" 
			},
			{
				"x": 0.2889744159,
				"y": 2.4840598139,
				"z": -3.6425973068,
				"element": "H" 
			},
			{
				"x": -0.2471946153,
				"y": 1.3777656072,
				"z": -4.9218173635,
				"element": "H" 
			},
			{
				"x": -2.429989544,
				"y": 0.480816627,
				"z": -4.5714901996,
				"element": "H" 
			},
			{
				"x": -4.2412964116,
				"y": -0.3353549543,
				"z": -3.0986788108,
				"element": "H" 
			}
		],
		 "valence_orbital": [ 
			{
				"type": "occ",
				"energy": -0.31895,
				"method": "rhf"
			},
			{
				"type": "occ",
				"energy": -0.28951,
				"method": "rhf"
			},
			{
				"type": "occ",
				"energy": -0.25643,
				"method": "rhf"
			},
			{
				"type": "occ",
				"energy": -0.24205,
				"method": "rhf"
			},
			{
				"type": "occ",
				"energy": -0.22001,
				"method": "rhf"
			},
			{
				"type": "unocc",
				"energy": -0.02515,
				"method": "rhf"
			},
			{
				"type": "unocc",
				"energy": -0.00884,
				"method": "rhf"
			},
			{
				"type": "unocc",
				"energy": -0.0015,
				"method": "rhf"
			},
			{
				"type": "unocc",
				"energy": 0.01087,
				"method": "rhf"
			},
			{
				"type": "unocc",
				"energy": 0.01917,
				"method": "rhf"
			}
		],
		"cosmo_sigma_profile": { 
			"-0.025": 0.0,
			"-0.024": 0.0,
			"-0.023": 0.0,
			"-0.022": 0.0,
			"-0.021": 0.0,
			"-0.02": 0.0,
			"-0.019": 0.0,
			"-0.018": 0.0,
			"-0.017": 0.0,
			"-0.016": 0.0,
			"-0.015": 0.0,
			"-0.014": 0.347593069733,
			"-0.013": 2.03920107419,
			"-0.012": 1.63551530483,
			"-0.011": 1.65998913028,
			"-0.01": 1.08650475735,
			"-0.009": 1.78162038979,
			"-0.008": 5.92721097919,
			"-0.007": 9.37304882658,
			"-0.006": 9.48265686749,
			"-0.005": 11.0194664672,
			"-0.004": 21.8621376038,
			"-0.003": 21.822353655,
			"-0.002": 23.0431663966,
			"-0.001": 22.3771202492,
			"0.0": 26.76744421,
			"0.001": 24.1425024918,
			"0.002": 17.4250403401,
			"0.003": 14.7142859509,
			"0.004": 15.4572910261,
			"0.005": 14.4811173117,
			"0.006": 12.2791139621,
			"0.007": 4.17128565598,
			"0.008": 2.05350822322,
			"0.009": 2.19650667713,
			"0.01": 3.55815104767,
			"0.011": 3.24933181348,
			"0.012": 2.5392336063,
			"0.013": 2.23431056876,
			"0.014": 1.8626994735,
			"0.015": 0.236043804155,
			"0.016": 0.0,
			"0.017": 0.0,
			"0.018": 0.0,
			"0.019": 0.0,
			"0.02": 0.0,
			"0.021": 0.0,
			"0.022": 0.0,
			"0.023": 0.0,
			"0.024": 0.0,
			"0.025": 0.0
		}
	}
}
