{
	 "smiles": "COC(=O)C1=CC(=CC=C1)C(=O)OC", 
	 "Tm": 341.35, 
	 "num_atms": 24, 
	 "gaussian": { 
		 "optdone": 1, 
		 "sigma_profile": "yes", 
		 "theory": "DFT", 
		 "functional": "B3LYP", 
		 "basiset": "6-31G**", 
		 "properties": { 
			 "R2extent": 3741.2443, 
			 "electric_dipole_moment_norm": 2.2138579968, 
			 "electric_quadrupole_moment_norm": 10.3813006502, 
			 "total_energy": -688.009545619, 
			 "HOMO_LUMO_gap": 0.20875, 
			 "cosmo_polarized_energy": -10.15, 
			 "cosmo_cavitation_energy": 29.32, 
			 "cosmo_dispersion_energy": -21.25, 
			 "cosmo_repulsion_energy": 1.68, 
			 "cosmo_total_nonelectrostatic_energy": 9.75, 
			 "SMD_solvation_energy": 8.29 
		},
		"coords": [
			{
				"x": -2.2361114493,
				"y": 1.3140556808,
				"z": 3.8394150134,
				"element": "C" 
			},
			{
				"x": -1.6522549535,
				"y": 0.7116584005,
				"z": 2.6739420634,
				"element": "O" 
			},
			{
				"x": -2.5296123828,
				"y": 0.3574171382,
				"z": 1.7085025378,
				"element": "C" 
			},
			{
				"x": -3.7293329509,
				"y": 0.5291198501,
				"z": 1.8043685491,
				"element": "O" 
			},
			{
				"x": -1.8599088882,
				"y": -0.2617159201,
				"z": 0.52795921,
				"element": "C" 
			},
			{
				"x": -0.4735688177,
				"y": -0.439231676,
				"z": 0.4624386617,
				"element": "C" 
			},
			{
				"x": 0.0984391345,
				"y": -1.0263949105,
				"z": -0.671494713,
				"element": "C" 
			},
			{
				"x": -0.7175096493,
				"y": -1.4342376112,
				"z": -1.7362019904,
				"element": "C" 
			},
			{
				"x": -2.0980440358,
				"y": -1.2564743379,
				"z": -1.6688371524,
				"element": "C" 
			},
			{
				"x": -2.6698499091,
				"y": -0.6718424049,
				"z": -0.5404485698,
				"element": "C" 
			},
			{
				"x": 1.5687300869,
				"y": -1.2427717609,
				"z": -0.8016059514,
				"element": "C" 
			},
			{
				"x": 2.1044669766,
				"y": -1.7486299038,
				"z": -1.7686065728,
				"element": "O" 
			},
			{
				"x": 2.2527527416,
				"y": -0.8116831148,
				"z": 0.2817270602,
				"element": "O" 
			},
			{
				"x": 3.6759340467,
				"y": -0.9920699083,
				"z": 0.217656125,
				"element": "C" 
			},
			{
				"x": -2.7682353825,
				"y": 2.230746108,
				"z": 3.5729682628,
				"element": "H" 
			},
			{
				"x": -2.9390062393,
				"y": 0.6265074141,
				"z": 4.3165816754,
				"element": "H" 
			},
			{
				"x": -1.4023911394,
				"y": 1.5342118935,
				"z": 4.5058162624,
				"element": "H" 
			},
			{
				"x": 0.1538093934,
				"y": -0.1236580777,
				"z": 1.2855491793,
				"element": "H" 
			},
			{
				"x": -0.2472574936,
				"y": -1.886591171,
				"z": -2.6029022777,
				"element": "H" 
			},
			{
				"x": -2.7275512874,
				"y": -1.5731696314,
				"z": -2.4947284771,
				"element": "H" 
			},
			{
				"x": -3.7415085998,
				"y": -0.5220338541,
				"z": -0.4627681859,
				"element": "H" 
			},
			{
				"x": 3.9251083969,
				"y": -2.0510623457,
				"z": 0.1131486623,
				"element": "H" 
			},
			{
				"x": 4.0947824532,
				"y": -0.4475988339,
				"z": -0.632394991,
				"element": "H" 
			},
			{
				"x": 4.0651199486,
				"y": -0.5970510231,
				"z": 1.1558156187,
				"element": "H" 
			}
		],
		 "valence_orbital": [ 
			{
				"type": "occ",
				"energy": -0.30551,
				"method": "rhf"
			},
			{
				"type": "occ",
				"energy": -0.28209,
				"method": "rhf"
			},
			{
				"type": "occ",
				"energy": -0.27387,
				"method": "rhf"
			},
			{
				"type": "occ",
				"energy": -0.26782,
				"method": "rhf"
			},
			{
				"type": "occ",
				"energy": -0.26611,
				"method": "rhf"
			},
			{
				"type": "unocc",
				"energy": -0.05736,
				"method": "rhf"
			},
			{
				"type": "unocc",
				"energy": -0.04127,
				"method": "rhf"
			},
			{
				"type": "unocc",
				"energy": 0.02935,
				"method": "rhf"
			},
			{
				"type": "unocc",
				"energy": 0.07938,
				"method": "rhf"
			},
			{
				"type": "unocc",
				"energy": 0.09425,
				"method": "rhf"
			}
		],
		"cosmo_sigma_profile": { 
			"-0.025": 0.0,
			"-0.024": 0.0,
			"-0.023": 0.0,
			"-0.022": 0.0,
			"-0.021": 0.0,
			"-0.02": 0.0,
			"-0.019": 0.0,
			"-0.018": 0.0,
			"-0.017": 0.0,
			"-0.016": 0.0,
			"-0.015": 0.0,
			"-0.014": 0.0,
			"-0.013": 0.0,
			"-0.012": 0.0,
			"-0.011": 0.0,
			"-0.01": 0.0,
			"-0.009": 0.0,
			"-0.008": 0.0487146658549,
			"-0.007": 4.87546617624,
			"-0.006": 14.9519162835,
			"-0.005": 19.5297804825,
			"-0.004": 21.8286622509,
			"-0.003": 24.5032197691,
			"-0.002": 17.8314782815,
			"-0.001": 17.1391727865,
			"0.0": 21.1162188917,
			"0.001": 19.8823632946,
			"0.002": 19.3346316554,
			"0.003": 9.20578894398,
			"0.004": 6.80291049559,
			"0.005": 7.11228274079,
			"0.006": 3.84730763299,
			"0.007": 2.36432229906,
			"0.008": 3.4432212422,
			"0.009": 2.4401636855,
			"0.01": 4.5794712791,
			"0.011": 6.78367784187,
			"0.012": 6.52482691,
			"0.013": 0.0495829160271,
			"0.014": 0.0,
			"0.015": 0.0,
			"0.016": 0.0,
			"0.017": 0.0,
			"0.018": 0.0,
			"0.019": 0.0,
			"0.02": 0.0,
			"0.021": 0.0,
			"0.022": 0.0,
			"0.023": 0.0,
			"0.024": 0.0,
			"0.025": 0.0
		}
	}
}
