{
	 "smiles": "OC(=O)C1=CC(=C(Cl)C=C1)C(F)(F)F", 
	 "Tm": 437.15, 
	 "num_atms": 18, 
	 "gaussian": { 
		 "optdone": 1, 
		 "sigma_profile": "yes", 
		 "theory": "DFT", 
		 "functional": "B3LYP", 
		 "basiset": "6-31G**", 
		 "properties": { 
			 "R2extent": 3709.0485, 
			 "electric_dipole_moment_norm": 1.79900978597, 
			 "electric_quadrupole_moment_norm": 18.3967605181, 
			 "total_energy": -1217.43120672, 
			 "HOMO_LUMO_gap": 0.20212, 
			 "cosmo_polarized_energy": -13.53, 
			 "cosmo_cavitation_energy": 26.18, 
			 "cosmo_dispersion_energy": -18.89, 
			 "cosmo_repulsion_energy": 1.42, 
			 "cosmo_total_nonelectrostatic_energy": 8.71, 
			 "SMD_solvation_energy": 6.56 
		},
		"coords": [
			{
				"x": 1.2114829269,
				"y": 2.6943046887,
				"z": -3.2493222303,
				"element": "O" 
			},
			{
				"x": 1.7496759625,
				"y": 2.4704520741,
				"z": -2.0234867402,
				"element": "C" 
			},
			{
				"x": 2.8138149363,
				"y": 2.9595098272,
				"z": -1.7281531325,
				"element": "O" 
			},
			{
				"x": 0.9665033435,
				"y": 1.6046401408,
				"z": -1.0794998605,
				"element": "C" 
			},
			{
				"x": -0.4041816807,
				"y": 1.3662360383,
				"z": -1.2155751237,
				"element": "C" 
			},
			{
				"x": -1.0975277284,
				"y": 0.5684426365,
				"z": -0.3022680292,
				"element": "C" 
			},
			{
				"x": -0.3886854454,
				"y": 0.0015286239,
				"z": 0.7687254024,
				"element": "C" 
			},
			{
				"x": -1.1749926099,
				"y": -1.0171245183,
				"z": 1.9497627694,
				"element": "Cl" 
			},
			{
				"x": 0.9784220367,
				"y": 0.2449892244,
				"z": 0.9231066528,
				"element": "C" 
			},
			{
				"x": 1.6484030605,
				"y": 1.0492992425,
				"z": 0.0097352513,
				"element": "C" 
			},
			{
				"x": -2.5830767355,
				"y": 0.3494593389,
				"z": -0.4938095871,
				"element": "C" 
			},
			{
				"x": -2.8767412092,
				"y": -0.954440782,
				"z": -0.6614921247,
				"element": "F" 
			},
			{
				"x": -3.0331622042,
				"y": 1.002683864,
				"z": -1.5898659568,
				"element": "F" 
			},
			{
				"x": -3.2957096867,
				"y": 0.7980274692,
				"z": 0.55637591,
				"element": "F" 
			},
			{
				"x": 0.4554641156,
				"y": 2.1120980484,
				"z": -3.4060905876,
				"element": "H" 
			},
			{
				"x": -0.9765980621,
				"y": 1.8236541145,
				"z": -2.0150626516,
				"element": "H" 
			},
			{
				"x": 1.5035844922,
				"y": -0.1968994888,
				"z": 1.7621499444,
				"element": "H" 
			},
			{
				"x": 2.7062244879,
				"y": 1.2595394576,
				"z": 0.1233700937,
				"element": "H" 
			}
		],
		 "valence_orbital": [ 
			{
				"type": "occ",
				"energy": -0.33554,
				"method": "rhf"
			},
			{
				"type": "occ",
				"energy": -0.33061,
				"method": "rhf"
			},
			{
				"type": "occ",
				"energy": -0.30155,
				"method": "rhf"
			},
			{
				"type": "occ",
				"energy": -0.29132,
				"method": "rhf"
			},
			{
				"type": "occ",
				"energy": -0.27845,
				"method": "rhf"
			},
			{
				"type": "unocc",
				"energy": -0.07633,
				"method": "rhf"
			},
			{
				"type": "unocc",
				"energy": -0.05588,
				"method": "rhf"
			},
			{
				"type": "unocc",
				"energy": 0.00468,
				"method": "rhf"
			},
			{
				"type": "unocc",
				"energy": 0.02112,
				"method": "rhf"
			},
			{
				"type": "unocc",
				"energy": 0.05188,
				"method": "rhf"
			}
		],
		"cosmo_sigma_profile": { 
			"-0.025": 0.0,
			"-0.024": 0.0,
			"-0.023": 0.0,
			"-0.022": 0.0,
			"-0.021": 0.0,
			"-0.02": 0.173704086503,
			"-0.019": 1.07278370973,
			"-0.018": 1.2175747008,
			"-0.017": 0.767853106115,
			"-0.016": 1.29464226856,
			"-0.015": 0.927106587659,
			"-0.014": 0.660910317804,
			"-0.013": 0.847573097169,
			"-0.012": 1.65267247486,
			"-0.011": 1.18442286533,
			"-0.01": 0.890760679438,
			"-0.009": 1.85600887837,
			"-0.008": 4.69834090649,
			"-0.007": 5.70133528262,
			"-0.006": 5.27762538886,
			"-0.005": 6.9830410332,
			"-0.004": 8.79226415633,
			"-0.003": 10.0871168038,
			"-0.002": 12.566658492,
			"-0.001": 22.6269767941,
			"0.0": 19.3142487893,
			"0.001": 15.8698010226,
			"0.002": 29.6732178674,
			"0.003": 25.9254819993,
			"0.004": 5.65414940309,
			"0.005": 2.30120687149,
			"0.006": 2.23275073045,
			"0.007": 2.29993426591,
			"0.008": 3.02234514181,
			"0.009": 3.60089661409,
			"0.01": 5.13337560376,
			"0.011": 5.46983036762,
			"0.012": 2.98554403694,
			"0.013": 0.479666968573,
			"0.014": 0.0,
			"0.015": 0.0,
			"0.016": 0.0,
			"0.017": 0.0,
			"0.018": 0.0,
			"0.019": 0.0,
			"0.02": 0.0,
			"0.021": 0.0,
			"0.022": 0.0,
			"0.023": 0.0,
			"0.024": 0.0,
			"0.025": 0.0
		}
	}
}
