{
	 "smiles": "CC1(C)C2CCC1(C)C(=O)C2CCC1C2CCC(C)(C1=O)C2(C)C", 
	 "Tm": 483.15, 
	 "num_atms": 58, 
	 "gaussian": { 
		 "optdone": 1, 
		 "sigma_profile": "yes", 
		 "theory": "DFT", 
		 "functional": "B3LYP", 
		 "basiset": "6-31G**", 
		 "properties": { 
			 "R2extent": 9243.144, 
			 "electric_dipole_moment_norm": 2.27633751012, 
			 "electric_quadrupole_moment_norm": 11.8740802339, 
			 "total_energy": -1009.29693537, 
			 "HOMO_LUMO_gap": 0.20512, 
			 "cosmo_polarized_energy": -10.12, 
			 "cosmo_cavitation_energy": 50.25, 
			 "cosmo_dispersion_energy": -33.82, 
			 "cosmo_repulsion_energy": 2.49, 
			 "cosmo_total_nonelectrostatic_energy": 18.91, 
			 "SMD_solvation_energy": 8.28 
		},
		"coords": [
			{
				"x": -0.3386322716,
				"y": -3.235153226,
				"z": -0.5733671807,
				"element": "C" 
			},
			{
				"x": 0.6852688727,
				"y": -3.4571760155,
				"z": 0.5571712824,
				"element": "C" 
			},
			{
				"x": 0.8844349818,
				"y": -4.9768176247,
				"z": 0.6964327337,
				"element": "C" 
			},
			{
				"x": 2.0301255377,
				"y": -2.6625212233,
				"z": 0.413459546,
				"element": "C" 
			},
			{
				"x": 2.7394154456,
				"y": -2.966127107,
				"z": 1.7555316094,
				"element": "C" 
			},
			{
				"x": 1.5596868071,
				"y": -2.9370765947,
				"z": 2.774539896,
				"element": "C" 
			},
			{
				"x": 0.2880014837,
				"y": -2.7257451207,
				"z": 1.885755099,
				"element": "C" 
			},
			{
				"x": -1.0301598279,
				"y": -3.0599713643,
				"z": 2.5624172659,
				"element": "C" 
			},
			{
				"x": 0.3943726862,
				"y": -1.2623162823,
				"z": 1.4287905771,
				"element": "C" 
			},
			{
				"x": -0.316962679,
				"y": -0.3574382671,
				"z": 1.8209677375,
				"element": "O" 
			},
			{
				"x": 1.6050608901,
				"y": -1.1646755884,
				"z": 0.4676062143,
				"element": "C" 
			},
			{
				"x": 1.4469609557,
				"y": -0.4802669695,
				"z": -0.9130330634,
				"element": "C" 
			},
			{
				"x": 1.4341114565,
				"y": 1.0617954189,
				"z": -0.9389897252,
				"element": "C" 
			},
			{
				"x": 0.1433656998,
				"y": 1.7319241586,
				"z": -0.4381112799,
				"element": "C" 
			},
			{
				"x": 0.0947940112,
				"y": 3.2836014818,
				"z": -0.3896337493,
				"element": "C" 
			},
			{
				"x": 0.3764632798,
				"y": 3.8392820109,
				"z": -1.8062415134,
				"element": "C" 
			},
			{
				"x": -0.9060590231,
				"y": 3.4353694009,
				"z": -2.593817053,
				"element": "C" 
			},
			{
				"x": -1.8275322825,
				"y": 2.7667675846,
				"z": -1.5150100395,
				"element": "C" 
			},
			{
				"x": -3.2870486014,
				"y": 2.6335180183,
				"z": -1.9115262274,
				"element": "C" 
			},
			{
				"x": -1.1195616308,
				"y": 1.4296530394,
				"z": -1.2574026256,
				"element": "C" 
			},
			{
				"x": -1.4911519588,
				"y": 0.3421490713,
				"z": -1.6613644069,
				"element": "O" 
			},
			{
				"x": -1.4386199449,
				"y": 3.5634100108,
				"z": -0.218088136,
				"element": "C" 
			},
			{
				"x": -2.0568252945,
				"y": 2.9847965607,
				"z": 1.0704920831,
				"element": "C" 
			},
			{
				"x": -1.8058475162,
				"y": 5.0575899935,
				"z": -0.2606982353,
				"element": "C" 
			},
			{
				"x": -0.7067094206,
				"y": -2.209541572,
				"z": -0.6516026995,
				"element": "H" 
			},
			{
				"x": 0.088423372,
				"y": -3.512226227,
				"z": -1.5436697544,
				"element": "H" 
			},
			{
				"x": -1.2148977954,
				"y": -3.8724631943,
				"z": -0.4130018822,
				"element": "H" 
			},
			{
				"x": -0.0736889932,
				"y": -5.4725633392,
				"z": 0.885012951,
				"element": "H" 
			},
			{
				"x": 1.5660009865,
				"y": -5.2652424077,
				"z": 1.4988251458,
				"element": "H" 
			},
			{
				"x": 1.2832383653,
				"y": -5.3881647092,
				"z": -0.2382944979,
				"element": "H" 
			},
			{
				"x": 2.6211721983,
				"y": -2.9132625811,
				"z": -0.4730001749,
				"element": "H" 
			},
			{
				"x": 3.2357302097,
				"y": -3.9401101937,
				"z": 1.7426710535,
				"element": "H" 
			},
			{
				"x": 3.5090906687,
				"y": -2.2220901929,
				"z": 1.9824938225,
				"element": "H" 
			},
			{
				"x": 1.6610635849,
				"y": -2.1462098989,
				"z": 3.5247993525,
				"element": "H" 
			},
			{
				"x": 1.4680486214,
				"y": -3.8800388883,
				"z": 3.3225383315,
				"element": "H" 
			},
			{
				"x": -1.0426164219,
				"y": -4.0971472689,
				"z": 2.9131509488,
				"element": "H" 
			},
			{
				"x": -1.8755436786,
				"y": -2.915302286,
				"z": 1.8830333241,
				"element": "H" 
			},
			{
				"x": -1.1931042127,
				"y": -2.4045381015,
				"z": 3.4233314872,
				"element": "H" 
			},
			{
				"x": 2.3687903632,
				"y": -0.5884295275,
				"z": 1.0113584066,
				"element": "H" 
			},
			{
				"x": 2.3171092198,
				"y": -0.8015836492,
				"z": -1.5004767708,
				"element": "H" 
			},
			{
				"x": 0.5658507145,
				"y": -0.8449366323,
				"z": -1.440568175,
				"element": "H" 
			},
			{
				"x": 2.2760034547,
				"y": 1.4459216711,
				"z": -0.3448152096,
				"element": "H" 
			},
			{
				"x": 1.6339968528,
				"y": 1.3629127659,
				"z": -1.9741318888,
				"element": "H" 
			},
			{
				"x": -0.0441527727,
				"y": 1.3410568464,
				"z": 0.5669979211,
				"element": "H" 
			},
			{
				"x": 0.7290772679,
				"y": 3.7118354747,
				"z": 0.3934850345,
				"element": "H" 
			},
			{
				"x": 0.5096809799,
				"y": 4.9243438872,
				"z": -1.7859974363,
				"element": "H" 
			},
			{
				"x": 1.2870264268,
				"y": 3.424471016,
				"z": -2.2451736215,
				"element": "H" 
			},
			{
				"x": -0.7016332702,
				"y": 2.7489316497,
				"z": -3.4218891979,
				"element": "H" 
			},
			{
				"x": -1.4157110645,
				"y": 4.3036141755,
				"z": -3.023741997,
				"element": "H" 
			},
			{
				"x": -3.8820243432,
				"y": 2.1980796237,
				"z": -1.1024892229,
				"element": "H" 
			},
			{
				"x": -3.7202070064,
				"y": 3.6049232892,
				"z": -2.1721342982,
				"element": "H" 
			},
			{
				"x": -3.3846884942,
				"y": 1.9695965489,
				"z": -2.7758778634,
				"element": "H" 
			},
			{
				"x": -1.9457898496,
				"y": 1.9037158146,
				"z": 1.1769380317,
				"element": "H" 
			},
			{
				"x": -1.6003332934,
				"y": 3.4493872743,
				"z": 1.9520565879,
				"element": "H" 
			},
			{
				"x": -3.1288150211,
				"y": 3.2069041028,
				"z": 1.1068841467,
				"element": "H" 
			},
			{
				"x": -2.8926087071,
				"y": 5.1863186188,
				"z": -0.2140832384,
				"element": "H" 
			},
			{
				"x": -1.4533138277,
				"y": 5.5772958551,
				"z": -1.1535326732,
				"element": "H" 
			},
			{
				"x": -1.3809261911,
				"y": 5.5720706897,
				"z": 0.6091232477,
				"element": "H" 
			}
		],
		 "valence_orbital": [ 
			{
				"type": "occ",
				"energy": -0.29265,
				"method": "rhf"
			},
			{
				"type": "occ",
				"energy": -0.28813,
				"method": "rhf"
			},
			{
				"type": "occ",
				"energy": -0.28136,
				"method": "rhf"
			},
			{
				"type": "occ",
				"energy": -0.23231,
				"method": "rhf"
			},
			{
				"type": "occ",
				"energy": -0.21876,
				"method": "rhf"
			},
			{
				"type": "unocc",
				"energy": -0.01364,
				"method": "rhf"
			},
			{
				"type": "unocc",
				"energy": -0.00139,
				"method": "rhf"
			},
			{
				"type": "unocc",
				"energy": 0.07477,
				"method": "rhf"
			},
			{
				"type": "unocc",
				"energy": 0.07895,
				"method": "rhf"
			},
			{
				"type": "unocc",
				"energy": 0.09693,
				"method": "rhf"
			}
		],
		"cosmo_sigma_profile": { 
			"-0.025": 0.0,
			"-0.024": 0.0,
			"-0.023": 0.0,
			"-0.022": 0.0,
			"-0.021": 0.0,
			"-0.02": 0.0,
			"-0.019": 0.0,
			"-0.018": 0.0,
			"-0.017": 0.0,
			"-0.016": 0.0,
			"-0.015": 0.0,
			"-0.014": 0.0,
			"-0.013": 0.0,
			"-0.012": 0.0,
			"-0.011": 0.0,
			"-0.01": 0.0,
			"-0.009": 0.0,
			"-0.008": 0.0,
			"-0.007": 0.0,
			"-0.006": 0.0,
			"-0.005": 1.72599284997,
			"-0.004": 14.4617178638,
			"-0.003": 50.3828499909,
			"-0.002": 70.8062404984,
			"-0.001": 69.7784659825,
			"0.0": 58.8910538123,
			"0.001": 53.5138675705,
			"0.002": 17.8637658327,
			"0.003": 6.21071693539,
			"0.004": 6.23554782204,
			"0.005": 6.84719805587,
			"0.006": 5.10673429579,
			"0.007": 4.5488245552,
			"0.008": 3.82696286088,
			"0.009": 3.79224275135,
			"0.01": 3.75546442419,
			"0.011": 3.65165406933,
			"0.012": 2.97231792282,
			"0.013": 1.73129020737,
			"0.014": 0.111239063706,
			"0.015": 0.0,
			"0.016": 0.0,
			"0.017": 0.0,
			"0.018": 0.0,
			"0.019": 0.0,
			"0.02": 0.0,
			"0.021": 0.0,
			"0.022": 0.0,
			"0.023": 0.0,
			"0.024": 0.0,
			"0.025": 0.0
		}
	}
}
