{
	 "smiles": "NC1=C(C(=NO1)C1=CC=CO1)C1=CC2=C(OCO2)C=C1", 
	 "Tm": 412.15, 
	 "num_atms": 30, 
	 "gaussian": { 
		 "optdone": 1, 
		 "sigma_profile": "yes", 
		 "theory": "DFT", 
		 "functional": "B3LYP", 
		 "basiset": "6-31G**", 
		 "properties": { 
			 "R2extent": 6149.9512, 
			 "electric_dipole_moment_norm": 3.36308122114, 
			 "electric_quadrupole_moment_norm": 16.2553263492, 
			 "total_energy": -949.813539228, 
			 "HOMO_LUMO_gap": 0.17573, 
			 "cosmo_polarized_energy": -17.02, 
			 "cosmo_cavitation_energy": 35.49, 
			 "cosmo_dispersion_energy": -25.59, 
			 "cosmo_repulsion_energy": 1.96, 
			 "cosmo_total_nonelectrostatic_energy": 11.86, 
			 "SMD_solvation_energy": 7.32 
		},
		"coords": [
			{
				"x": -2.7099456045,
				"y": -0.2418313727,
				"z": -1.6956093554,
				"element": "N" 
			},
			{
				"x": -2.3973239118,
				"y": 0.6929524976,
				"z": -0.7441320459,
				"element": "C" 
			},
			{
				"x": -1.2167259644,
				"y": 0.9962001406,
				"z": -0.1002183253,
				"element": "C" 
			},
			{
				"x": -1.6361578479,
				"y": 1.9915368068,
				"z": 0.8468069161,
				"element": "C" 
			},
			{
				"x": -2.9279954043,
				"y": 2.2635697626,
				"z": 0.7646698646,
				"element": "N" 
			},
			{
				"x": -3.4144157368,
				"y": 1.4172710115,
				"z": -0.2569766745,
				"element": "O" 
			},
			{
				"x": -0.8524705888,
				"y": 2.7251960319,
				"z": 1.8277326151,
				"element": "C" 
			},
			{
				"x": -1.2134542287,
				"y": 3.5840410486,
				"z": 2.8320101006,
				"element": "C" 
			},
			{
				"x": -0.000513871,
				"y": 4.0109627363,
				"z": 3.4539082532,
				"element": "C" 
			},
			{
				"x": 1.009640258,
				"y": 3.383706924,
				"z": 2.7869834482,
				"element": "C" 
			},
			{
				"x": 0.5098183972,
				"y": 2.5978486585,
				"z": 1.7943962427,
				"element": "O" 
			},
			{
				"x": 0.0970217859,
				"y": 0.3791449145,
				"z": -0.3766729446,
				"element": "C" 
			},
			{
				"x": 0.8182279091,
				"y": -0.27524242,
				"z": 0.6514035602,
				"element": "C" 
			},
			{
				"x": 2.0151705994,
				"y": -0.8667033675,
				"z": 0.3106968349,
				"element": "C" 
			},
			{
				"x": 2.5095859012,
				"y": -0.853660552,
				"z": -0.9925492923,
				"element": "C" 
			},
			{
				"x": 3.7061639498,
				"y": -1.526212613,
				"z": -1.0438523623,
				"element": "O" 
			},
			{
				"x": 3.9710758095,
				"y": -1.967843752,
				"z": 0.293586103,
				"element": "C" 
			},
			{
				"x": 2.8829799204,
				"y": -1.5521072055,
				"z": 1.1266519939,
				"element": "O" 
			},
			{
				"x": 1.8279078098,
				"y": -0.2311142071,
				"z": -2.0175426551,
				"element": "C" 
			},
			{
				"x": 0.6116977213,
				"y": 0.3933609422,
				"z": -1.6826578782,
				"element": "C" 
			},
			{
				"x": -1.9215778694,
				"y": -0.5993591213,
				"z": -2.2153213967,
				"element": "H" 
			},
			{
				"x": -3.5319059024,
				"y": -0.0463021842,
				"z": -2.2493445194,
				"element": "H" 
			},
			{
				"x": -2.2248676311,
				"y": 3.8659899214,
				"z": 3.0833099783,
				"element": "H" 
			},
			{
				"x": 0.1039616773,
				"y": 4.6919298098,
				"z": 4.2862018317,
				"element": "H" 
			},
			{
				"x": 2.0837864498,
				"y": 3.3852159402,
				"z": 2.8867797645,
				"element": "H" 
			},
			{
				"x": 0.4427243373,
				"y": -0.3086068593,
				"z": 1.6667880734,
				"element": "H" 
			},
			{
				"x": 4.9024707222,
				"y": -1.5109513849,
				"z": 0.6514965632,
				"element": "H" 
			},
			{
				"x": 4.0467150779,
				"y": -3.0621236905,
				"z": 0.3090555432,
				"element": "H" 
			},
			{
				"x": 2.22058983,
				"y": -0.2115046607,
				"z": -3.0278960365,
				"element": "H" 
			},
			{
				"x": 0.069616405,
				"y": 0.931936244,
				"z": -2.4546042007,
				"element": "H" 
			}
		],
		 "valence_orbital": [ 
			{
				"type": "occ",
				"energy": -0.27673,
				"method": "rhf"
			},
			{
				"type": "occ",
				"energy": -0.25027,
				"method": "rhf"
			},
			{
				"type": "occ",
				"energy": -0.22512,
				"method": "rhf"
			},
			{
				"type": "occ",
				"energy": -0.21068,
				"method": "rhf"
			},
			{
				"type": "occ",
				"energy": -0.19843,
				"method": "rhf"
			},
			{
				"type": "unocc",
				"energy": -0.0227,
				"method": "rhf"
			},
			{
				"type": "unocc",
				"energy": -0.00486,
				"method": "rhf"
			},
			{
				"type": "unocc",
				"energy": 0.00062,
				"method": "rhf"
			},
			{
				"type": "unocc",
				"energy": 0.03784,
				"method": "rhf"
			},
			{
				"type": "unocc",
				"energy": 0.06536,
				"method": "rhf"
			}
		],
		"cosmo_sigma_profile": { 
			"-0.025": 0.0,
			"-0.024": 0.0,
			"-0.023": 0.0,
			"-0.022": 0.0,
			"-0.021": 0.0,
			"-0.02": 0.0,
			"-0.019": 0.0,
			"-0.018": 0.0,
			"-0.017": 0.0,
			"-0.016": 0.0,
			"-0.015": 0.614323124079,
			"-0.014": 1.45929918117,
			"-0.013": 1.81971958339,
			"-0.012": 2.17467496935,
			"-0.011": 2.35416728423,
			"-0.01": 2.33960062773,
			"-0.009": 4.13741280206,
			"-0.008": 6.67120012045,
			"-0.007": 16.1318312377,
			"-0.006": 17.5705262524,
			"-0.005": 15.5591935413,
			"-0.004": 15.0775596366,
			"-0.003": 13.7176565769,
			"-0.002": 12.1468842207,
			"-0.001": 12.6892619044,
			"0.0": 15.1654247144,
			"0.001": 18.026186045,
			"0.002": 27.5366758823,
			"0.003": 24.7502911557,
			"0.004": 20.9313776965,
			"0.005": 13.1495921222,
			"0.006": 7.34719383705,
			"0.007": 7.43050803955,
			"0.008": 9.395147894,
			"0.009": 7.26488607486,
			"0.01": 3.70566207296,
			"0.011": 2.05466154193,
			"0.012": 1.39661543634,
			"0.013": 1.32710648025,
			"0.014": 1.05911754221,
			"0.015": 0.56684692129,
			"0.016": 0.0,
			"0.017": 0.0,
			"0.018": 0.0,
			"0.019": 0.0,
			"0.02": 0.0,
			"0.021": 0.0,
			"0.022": 0.0,
			"0.023": 0.0,
			"0.024": 0.0,
			"0.025": 0.0
		}
	}
}
