{
	 "smiles": "ClC1=C(NC2=C(N=NC(=S)N2)C2=CC=CC=C2)C=CC=C1", 
	 "Tm": 587.15, 
	 "num_atms": 32, 
	 "gaussian": { 
		 "optdone": 1, 
		 "sigma_profile": "yes", 
		 "theory": "DFT", 
		 "functional": "B3LYP", 
		 "basiset": "6-31G**", 
		 "properties": { 
			 "R2extent": 6836.9475, 
			 "electric_dipole_moment_norm": 11.2933978346, 
			 "electric_quadrupole_moment_norm": 26.8715323015, 
			 "total_energy": -1655.55375086, 
			 "HOMO_LUMO_gap": 0.12237, 
			 "cosmo_polarized_energy": -34.79, 
			 "cosmo_cavitation_energy": 40.0, 
			 "cosmo_dispersion_energy": -27.55, 
			 "cosmo_repulsion_energy": 2.08, 
			 "cosmo_total_nonelectrostatic_energy": 14.52, 
			 "SMD_solvation_energy": 3.4 
		},
		"coords": [
			{
				"x": -0.2827889126,
				"y": 2.4514206219,
				"z": -0.9796251442,
				"element": "Cl" 
			},
			{
				"x": 0.4414199873,
				"y": 1.8795511038,
				"z": 0.5075136227,
				"element": "C" 
			},
			{
				"x": -0.1177203194,
				"y": 0.8051500687,
				"z": 1.2203630549,
				"element": "C" 
			},
			{
				"x": -1.2865948282,
				"y": 0.1140639755,
				"z": 0.7939804338,
				"element": "N" 
			},
			{
				"x": -1.5528044012,
				"y": -0.4295878933,
				"z": -0.4379518935,
				"element": "C" 
			},
			{
				"x": -0.6532200778,
				"y": -0.955154094,
				"z": -1.3752369272,
				"element": "C" 
			},
			{
				"x": -1.1223239156,
				"y": -1.2869778706,
				"z": -2.6124505781,
				"element": "N" 
			},
			{
				"x": -2.3774776496,
				"y": -1.2881170542,
				"z": -2.9453592928,
				"element": "N" 
			},
			{
				"x": -3.3396503981,
				"y": -0.9505470005,
				"z": -2.0138501453,
				"element": "C" 
			},
			{
				"x": -4.9799716611,
				"y": -1.0586508889,
				"z": -2.2808602292,
				"element": "S" 
			},
			{
				"x": -2.8630803841,
				"y": -0.4589110692,
				"z": -0.7974128912,
				"element": "N" 
			},
			{
				"x": 0.7960044993,
				"y": -1.1744647828,
				"z": -1.1642399096,
				"element": "C" 
			},
			{
				"x": 1.287398424,
				"y": -1.7781160196,
				"z": 0.0039776209,
				"element": "C" 
			},
			{
				"x": 2.6498603221,
				"y": -2.0364989398,
				"z": 0.1501417413,
				"element": "C" 
			},
			{
				"x": 3.540828332,
				"y": -1.7027878866,
				"z": -0.8710510431,
				"element": "C" 
			},
			{
				"x": 3.0590335459,
				"y": -1.1167946737,
				"z": -2.0441869383,
				"element": "C" 
			},
			{
				"x": 1.6984449388,
				"y": -0.8576783589,
				"z": -2.1928712097,
				"element": "C" 
			},
			{
				"x": 0.4452576242,
				"y": 0.4532987206,
				"z": 2.4538454727,
				"element": "C" 
			},
			{
				"x": 1.5486807627,
				"y": 1.1334508986,
				"z": 2.9593929365,
				"element": "C" 
			},
			{
				"x": 2.1199442189,
				"y": 2.171296999,
				"z": 2.221256225,
				"element": "C" 
			},
			{
				"x": 1.5673149162,
				"y": 2.542902996,
				"z": 0.9975381135,
				"element": "C" 
			},
			{
				"x": -2.0813342935,
				"y": 0.1951224836,
				"z": 1.4157933695,
				"element": "H" 
			},
			{
				"x": -3.5759665582,
				"y": -0.0671131984,
				"z": -0.1905807607,
				"element": "H" 
			},
			{
				"x": 0.5975696543,
				"y": -2.0692941733,
				"z": 0.7900366725,
				"element": "H" 
			},
			{
				"x": 3.0128682999,
				"y": -2.5108620216,
				"z": 1.0574152292,
				"element": "H" 
			},
			{
				"x": 4.6017878878,
				"y": -1.9058462934,
				"z": -0.7575214651,
				"element": "H" 
			},
			{
				"x": 3.7448982545,
				"y": -0.8622902813,
				"z": -2.8470647343,
				"element": "H" 
			},
			{
				"x": 1.316650113,
				"y": -0.418280898,
				"z": -3.1079203488,
				"element": "H" 
			},
			{
				"x": 0.0068206398,
				"y": -0.3741114681,
				"z": 3.003795461,
				"element": "H" 
			},
			{
				"x": 1.9683853892,
				"y": 0.8442023081,
				"z": 3.917386447,
				"element": "H" 
			},
			{
				"x": 2.9899780982,
				"y": 2.6996972857,
				"z": 2.5977774373,
				"element": "H" 
			},
			{
				"x": 1.9875874915,
				"y": 3.3607274048,
				"z": 0.4230696732,
				"element": "H" 
			}
		],
		 "valence_orbital": [ 
			{
				"type": "occ",
				"energy": -0.25694,
				"method": "rhf"
			},
			{
				"type": "occ",
				"energy": -0.25525,
				"method": "rhf"
			},
			{
				"type": "occ",
				"energy": -0.23442,
				"method": "rhf"
			},
			{
				"type": "occ",
				"energy": -0.20688,
				"method": "rhf"
			},
			{
				"type": "occ",
				"energy": -0.20475,
				"method": "rhf"
			},
			{
				"type": "unocc",
				"energy": -0.08238,
				"method": "rhf"
			},
			{
				"type": "unocc",
				"energy": -0.05029,
				"method": "rhf"
			},
			{
				"type": "unocc",
				"energy": -0.04175,
				"method": "rhf"
			},
			{
				"type": "unocc",
				"energy": -0.03349,
				"method": "rhf"
			},
			{
				"type": "unocc",
				"energy": -0.00617,
				"method": "rhf"
			}
		],
		"cosmo_sigma_profile": { 
			"-0.025": 0.0,
			"-0.024": 0.0,
			"-0.023": 0.17485239841,
			"-0.022": 0.815480119834,
			"-0.021": 0.940047485687,
			"-0.02": 1.26914379078,
			"-0.019": 1.30504530743,
			"-0.018": 1.60569590688,
			"-0.017": 1.72693199623,
			"-0.016": 1.38360469228,
			"-0.015": 1.00664886258,
			"-0.014": 1.69437371288,
			"-0.013": 1.70500815896,
			"-0.012": 1.30617820163,
			"-0.011": 1.23437152989,
			"-0.01": 1.37801430121,
			"-0.009": 1.63912034639,
			"-0.008": 2.98182946788,
			"-0.007": 11.0972212297,
			"-0.006": 19.9716276391,
			"-0.005": 24.3032323968,
			"-0.004": 21.4351216796,
			"-0.003": 17.9922280136,
			"-0.002": 17.0258415441,
			"-0.001": 17.1012503575,
			"0.0": 17.6701146593,
			"0.001": 20.7400259297,
			"0.002": 21.6031634581,
			"0.003": 25.905984457,
			"0.004": 22.9768446113,
			"0.005": 13.4919208608,
			"0.006": 4.63373571989,
			"0.007": 5.91561499877,
			"0.008": 6.05055812276,
			"0.009": 8.60894022425,
			"0.01": 7.76187119327,
			"0.011": 5.97590735057,
			"0.012": 4.31202986354,
			"0.013": 4.16534013236,
			"0.014": 2.95068477913,
			"0.015": 1.34476011122,
			"0.016": 1.10549240156,
			"0.017": 0.0813202242055,
			"0.018": 0.0,
			"0.019": 0.0,
			"0.02": 0.0,
			"0.021": 0.0,
			"0.022": 0.0,
			"0.023": 0.0,
			"0.024": 0.0,
			"0.025": 0.0
		}
	}
}
