{
	 "smiles": "FC1=C2N=CC=C(Cl)C2=C(F)C=C1", 
	 "Tm": 428.15, 
	 "num_atms": 17, 
	 "gaussian": { 
		 "optdone": 1, 
		 "sigma_profile": "yes", 
		 "theory": "DFT", 
		 "functional": "B3LYP", 
		 "basiset": "6-31G**", 
		 "properties": { 
			 "R2extent": 2970.2302, 
			 "electric_dipole_moment_norm": 0.562558388081, 
			 "electric_quadrupole_moment_norm": 13.2591292949, 
			 "total_energy": -1059.9721209, 
			 "HOMO_LUMO_gap": 0.16339, 
			 "cosmo_polarized_energy": -6.88, 
			 "cosmo_cavitation_energy": 24.09, 
			 "cosmo_dispersion_energy": -18.09, 
			 "cosmo_repulsion_energy": 1.36, 
			 "cosmo_total_nonelectrostatic_energy": 7.36, 
			 "SMD_solvation_energy": 3.39 
		},
		"coords": [
			{
				"x": 0.2329252485,
				"y": -1.6842761468,
				"z": 2.6240965346,
				"element": "F" 
			},
			{
				"x": 0.4796970083,
				"y": -0.9074807633,
				"z": 1.5610576043,
				"element": "C" 
			},
			{
				"x": -0.1512146393,
				"y": 0.368103391,
				"z": 1.5051376475,
				"element": "C" 
			},
			{
				"x": -0.9636649897,
				"y": 0.7136955034,
				"z": 2.5362956009,
				"element": "N" 
			},
			{
				"x": -1.5461171892,
				"y": 1.8917500335,
				"z": 2.4841110205,
				"element": "C" 
			},
			{
				"x": -1.3774836814,
				"y": 2.8122392958,
				"z": 1.4260381892,
				"element": "C" 
			},
			{
				"x": -0.5568775985,
				"y": 2.4761023949,
				"z": 0.3736880799,
				"element": "C" 
			},
			{
				"x": -0.3756014553,
				"y": 3.6440866328,
				"z": -0.915418849,
				"element": "Cl" 
			},
			{
				"x": 0.1075173617,
				"y": 1.2134991825,
				"z": 0.3641117899,
				"element": "C" 
			},
			{
				"x": 0.9838087033,
				"y": 0.7101477534,
				"z": -0.6369385942,
				"element": "C" 
			},
			{
				"x": 1.2600327291,
				"y": 1.4568006359,
				"z": -1.7225639321,
				"element": "F" 
			},
			{
				"x": 1.5714433965,
				"y": -0.5269377347,
				"z": -0.5431300185,
				"element": "C" 
			},
			{
				"x": 1.318014175,
				"y": -1.3523342254,
				"z": 0.5722040481,
				"element": "C" 
			},
			{
				"x": -2.1947584344,
				"y": 2.1548203039,
				"z": 3.3182493742,
				"element": "H" 
			},
			{
				"x": -1.8859674244,
				"y": 3.7689923472,
				"z": 1.44145228,
				"element": "H" 
			},
			{
				"x": 2.2299008404,
				"y": -0.8521781284,
				"z": -1.3404136746,
				"element": "H" 
			},
			{
				"x": 1.7754459494,
				"y": -2.3312304758,
				"z": 0.6587228994,
				"element": "H" 
			}
		],
		 "valence_orbital": [ 
			{
				"type": "occ",
				"energy": -0.31971,
				"method": "rhf"
			},
			{
				"type": "occ",
				"energy": -0.29409,
				"method": "rhf"
			},
			{
				"type": "occ",
				"energy": -0.27718,
				"method": "rhf"
			},
			{
				"type": "occ",
				"energy": -0.27512,
				"method": "rhf"
			},
			{
				"type": "occ",
				"energy": -0.23373,
				"method": "rhf"
			},
			{
				"type": "unocc",
				"energy": -0.07034,
				"method": "rhf"
			},
			{
				"type": "unocc",
				"energy": -0.04185,
				"method": "rhf"
			},
			{
				"type": "unocc",
				"energy": 0.01551,
				"method": "rhf"
			},
			{
				"type": "unocc",
				"energy": 0.01635,
				"method": "rhf"
			},
			{
				"type": "unocc",
				"energy": 0.07003,
				"method": "rhf"
			}
		],
		"cosmo_sigma_profile": { 
			"-0.025": 0.0,
			"-0.024": 0.0,
			"-0.023": 0.0,
			"-0.022": 0.0,
			"-0.021": 0.0,
			"-0.02": 0.0,
			"-0.019": 0.0,
			"-0.018": 0.0,
			"-0.017": 0.0,
			"-0.016": 0.0,
			"-0.015": 0.0,
			"-0.014": 0.0,
			"-0.013": 0.0,
			"-0.012": 0.0,
			"-0.011": 0.0,
			"-0.01": 0.0,
			"-0.009": 1.42608632726,
			"-0.008": 7.86920638126,
			"-0.007": 8.26868636502,
			"-0.006": 7.03988424132,
			"-0.005": 6.55600131124,
			"-0.004": 5.75953798028,
			"-0.003": 7.89964678858,
			"-0.002": 15.6471887709,
			"-0.001": 26.2968082161,
			"0.0": 26.3965315266,
			"0.001": 17.2128826841,
			"0.002": 12.6102058154,
			"0.003": 17.5807581971,
			"0.004": 19.2059579441,
			"0.005": 6.1264800407,
			"0.006": 2.1424269232,
			"0.007": 1.91440152447,
			"0.008": 1.28499278197,
			"0.009": 0.923704932964,
			"0.01": 1.28988395966,
			"0.011": 1.08729437018,
			"0.012": 0.962442356319,
			"0.013": 1.14422330022,
			"0.014": 0.71708497378,
			"0.015": 0.373453290244,
			"0.016": 0.0,
			"0.017": 0.0,
			"0.018": 0.0,
			"0.019": 0.0,
			"0.02": 0.0,
			"0.021": 0.0,
			"0.022": 0.0,
			"0.023": 0.0,
			"0.024": 0.0,
			"0.025": 0.0
		}
	}
}
