{
	 "smiles": "NC1=NC(=CS1)C1=CC=C(C=C1)N1CCCC1=O", 
	 "Tm": 557.15, 
	 "num_atms": 31, 
	 "gaussian": { 
		 "optdone": 1, 
		 "sigma_profile": "yes", 
		 "theory": "DFT", 
		 "functional": "B3LYP", 
		 "basiset": "6-31G**", 
		 "properties": { 
			 "R2extent": 9560.1152, 
			 "electric_dipole_moment_norm": 3.78035315414, 
			 "electric_quadrupole_moment_norm": 25.9258790082, 
			 "total_energy": -1140.90781456, 
			 "HOMO_LUMO_gap": 0.16229, 
			 "cosmo_polarized_energy": -17.95, 
			 "cosmo_cavitation_energy": 35.89, 
			 "cosmo_dispersion_energy": -27.47, 
			 "cosmo_repulsion_energy": 2.06, 
			 "cosmo_total_nonelectrostatic_energy": 10.47, 
			 "SMD_solvation_energy": 4.52 
		},
		"coords": [
			{
				"x": -5.0610238245,
				"y": 0.1684841984,
				"z": -4.7817528965,
				"element": "N" 
			},
			{
				"x": -3.8003537122,
				"y": 0.6855576675,
				"z": -4.5758825138,
				"element": "C" 
			},
			{
				"x": -3.1296691753,
				"y": 0.549675707,
				"z": -3.4730647814,
				"element": "N" 
			},
			{
				"x": -1.8585962913,
				"y": 1.1042625784,
				"z": -3.5775326883,
				"element": "C" 
			},
			{
				"x": -1.5778719264,
				"y": 1.6777837874,
				"z": -4.7887331936,
				"element": "C" 
			},
			{
				"x": -2.9329609315,
				"y": 1.5157386209,
				"z": -5.8760871738,
				"element": "S" 
			},
			{
				"x": -0.9608400389,
				"y": 1.0380464992,
				"z": -2.4110651387,
				"element": "C" 
			},
			{
				"x": 0.3394863865,
				"y": 1.5705549991,
				"z": -2.4294993507,
				"element": "C" 
			},
			{
				"x": 1.1789586586,
				"y": 1.5014872774,
				"z": -1.3258241152,
				"element": "C" 
			},
			{
				"x": 0.7356635979,
				"y": 0.8851404836,
				"z": -0.1391364034,
				"element": "C" 
			},
			{
				"x": -0.564059523,
				"y": 0.3517984037,
				"z": -0.1091737027,
				"element": "C" 
			},
			{
				"x": -1.3921377829,
				"y": 0.4279992943,
				"z": -1.2249657735,
				"element": "C" 
			},
			{
				"x": 1.5647684926,
				"y": 0.7790133267,
				"z": 1.0022490277,
				"element": "N" 
			},
			{
				"x": 1.165052775,
				"y": -0.0279734466,
				"z": 2.1621489725,
				"element": "C" 
			},
			{
				"x": 2.4428469998,
				"y": -0.1149472854,
				"z": 3.0150124128,
				"element": "C" 
			},
			{
				"x": 3.1973384512,
				"y": 1.1686429371,
				"z": 2.6576948001,
				"element": "C" 
			},
			{
				"x": 2.7310988026,
				"y": 1.4993973277,
				"z": 1.2416275126,
				"element": "C" 
			},
			{
				"x": 3.2805218401,
				"y": 2.2745691594,
				"z": 0.47698903,
				"element": "O" 
			},
			{
				"x": -5.662394125,
				"y": 0.6781697448,
				"z": -5.4134153451,
				"element": "H" 
			},
			{
				"x": -5.5152358228,
				"y": -0.1050771785,
				"z": -3.9199237574,
				"element": "H" 
			},
			{
				"x": -0.6825830034,
				"y": 2.1851112493,
				"z": -5.1138217092,
				"element": "H" 
			},
			{
				"x": 0.7171253656,
				"y": 2.0505522946,
				"z": -3.3274575259,
				"element": "H" 
			},
			{
				"x": 2.1708351797,
				"y": 1.9271711212,
				"z": -1.3634768723,
				"element": "H" 
			},
			{
				"x": -0.9467450595,
				"y": -0.1197216853,
				"z": 0.7884160193,
				"element": "H" 
			},
			{
				"x": -2.392665038,
				"y": 0.0128191157,
				"z": -1.1864825891,
				"element": "H" 
			},
			{
				"x": 0.811545077,
				"y": -1.0110070242,
				"z": 1.8380528582,
				"element": "H" 
			},
			{
				"x": 0.3450525103,
				"y": 0.4609601349,
				"z": 2.7071592641,
				"element": "H" 
			},
			{
				"x": 3.0266871318,
				"y": -0.9905360318,
				"z": 2.7140222075,
				"element": "H" 
			},
			{
				"x": 2.2168287359,
				"y": -0.213573449,
				"z": 4.079338469,
				"element": "H" 
			},
			{
				"x": 2.9164400515,
				"y": 2.0069222498,
				"z": 3.3079185897,
				"element": "H" 
			},
			{
				"x": 4.2855861985,
				"y": 1.0847779228,
				"z": 2.684966367,
				"element": "H" 
			}
		],
		 "valence_orbital": [ 
			{
				"type": "occ",
				"energy": -0.26942,
				"method": "rhf"
			},
			{
				"type": "occ",
				"energy": -0.24755,
				"method": "rhf"
			},
			{
				"type": "occ",
				"energy": -0.24325,
				"method": "rhf"
			},
			{
				"type": "occ",
				"energy": -0.22713,
				"method": "rhf"
			},
			{
				"type": "occ",
				"energy": -0.1902,
				"method": "rhf"
			},
			{
				"type": "unocc",
				"energy": -0.02791,
				"method": "rhf"
			},
			{
				"type": "unocc",
				"energy": 0.00309,
				"method": "rhf"
			},
			{
				"type": "unocc",
				"energy": 0.01152,
				"method": "rhf"
			},
			{
				"type": "unocc",
				"energy": 0.01574,
				"method": "rhf"
			},
			{
				"type": "unocc",
				"energy": 0.03758,
				"method": "rhf"
			}
		],
		"cosmo_sigma_profile": { 
			"-0.025": 0.0,
			"-0.024": 0.0,
			"-0.023": 0.0,
			"-0.022": 0.0,
			"-0.021": 0.0,
			"-0.02": 0.0,
			"-0.019": 0.0,
			"-0.018": 0.0,
			"-0.017": 0.0,
			"-0.016": 0.0,
			"-0.015": 0.233390157986,
			"-0.014": 1.77744931056,
			"-0.013": 2.81752493785,
			"-0.012": 2.8110765023,
			"-0.011": 2.33577110924,
			"-0.01": 2.54404944537,
			"-0.009": 2.64426179775,
			"-0.008": 5.00517865248,
			"-0.007": 4.96580284212,
			"-0.006": 11.0415141238,
			"-0.005": 20.8262542073,
			"-0.004": 27.6866231121,
			"-0.003": 23.091947402,
			"-0.002": 18.2465476394,
			"-0.001": 15.6703940365,
			"0.0": 11.9962952657,
			"0.001": 14.5315270555,
			"0.002": 18.3817435377,
			"0.003": 18.0449767697,
			"0.004": 26.5988957911,
			"0.005": 21.3370406415,
			"0.006": 7.39852654182,
			"0.007": 5.19597775881,
			"0.008": 3.08208454131,
			"0.009": 3.03353039883,
			"0.01": 4.66891519546,
			"0.011": 4.09334575693,
			"0.012": 3.23733362651,
			"0.013": 3.16323195091,
			"0.014": 1.69163342822,
			"0.015": 0.0543315223304,
			"0.016": 0.0,
			"0.017": 0.0,
			"0.018": 0.0,
			"0.019": 0.0,
			"0.02": 0.0,
			"0.021": 0.0,
			"0.022": 0.0,
			"0.023": 0.0,
			"0.024": 0.0,
			"0.025": 0.0
		}
	}
}
