{
	 "smiles": "CC(=O)N1C(=O)[C@H](C2=CC=CC=C12)[C@@]1(O)C(=O)N(C(C)=O)C2=CC=CC=C12", 
	 "Tm": 425.0, 
	 "num_atms": 43, 
	 "gaussian": { 
		 "optdone": 1, 
		 "sigma_profile": "yes", 
		 "theory": "DFT", 
		 "functional": "B3LYP", 
		 "basiset": "6-31G**", 
		 "properties": { 
			 "R2extent": 9691.2499, 
			 "electric_dipole_moment_norm": 4.86169658041, 
			 "electric_quadrupole_moment_norm": 12.9177174609, 
			 "total_energy": -1257.42431913, 
			 "HOMO_LUMO_gap": 0.17361, 
			 "cosmo_polarized_energy": -20.82, 
			 "cosmo_cavitation_energy": 45.76, 
			 "cosmo_dispersion_energy": -31.42, 
			 "cosmo_repulsion_energy": 2.29, 
			 "cosmo_total_nonelectrostatic_energy": 16.63, 
			 "SMD_solvation_energy": 9.77 
		},
		"coords": [
			{
				"x": -3.1259599372,
				"y": -2.5633855741,
				"z": -3.3093596931,
				"element": "C" 
			},
			{
				"x": -1.6390666672,
				"y": -2.8162531714,
				"z": -3.3923973166,
				"element": "C" 
			},
			{
				"x": -1.1851443424,
				"y": -3.8161389282,
				"z": -3.9175458575,
				"element": "O" 
			},
			{
				"x": -0.7627358829,
				"y": -1.8551610959,
				"z": -2.827286886,
				"element": "N" 
			},
			{
				"x": -1.1485751311,
				"y": -0.6439669067,
				"z": -2.2126205037,
				"element": "C" 
			},
			{
				"x": -2.2778181988,
				"y": -0.2035334002,
				"z": -2.1664041348,
				"element": "O" 
			},
			{
				"x": 0.1102374128,
				"y": 0.015069308,
				"z": -1.6217906643,
				"element": "C" 
			},
			{
				"x": 1.2172343416,
				"y": -0.8710089308,
				"z": -2.136856242,
				"element": "C" 
			},
			{
				"x": 2.5991691188,
				"y": -0.714794077,
				"z": -2.0713530003,
				"element": "C" 
			},
			{
				"x": 3.4192194684,
				"y": -1.6821315722,
				"z": -2.6604050398,
				"element": "C" 
			},
			{
				"x": 2.855893285,
				"y": -2.7822757568,
				"z": -3.3075634223,
				"element": "C" 
			},
			{
				"x": 1.4693054816,
				"y": -2.9430164982,
				"z": -3.4034553894,
				"element": "C" 
			},
			{
				"x": 0.6649004025,
				"y": -1.9694249384,
				"z": -2.8139963916,
				"element": "C" 
			},
			{
				"x": -0.0524532417,
				"y": 0.0762873038,
				"z": -0.0415378113,
				"element": "C" 
			},
			{
				"x": -0.4257212234,
				"y": -1.1825633989,
				"z": 0.4592650395,
				"element": "O" 
			},
			{
				"x": 1.2855560586,
				"y": 0.5176176824,
				"z": 0.5706569881,
				"element": "C" 
			},
			{
				"x": 2.1772379044,
				"y": -0.2377351175,
				"z": 0.8708220924,
				"element": "O" 
			},
			{
				"x": 1.2304299703,
				"y": 1.9201499036,
				"z": 0.7839618796,
				"element": "N" 
			},
			{
				"x": 2.4220058092,
				"y": 2.687115407,
				"z": 0.8894125182,
				"element": "C" 
			},
			{
				"x": 2.3220499266,
				"y": 4.087825524,
				"z": 1.4493764287,
				"element": "C" 
			},
			{
				"x": 3.4776272109,
				"y": 2.213399544,
				"z": 0.5251090692,
				"element": "O" 
			},
			{
				"x": -0.1571362835,
				"y": 2.2974639274,
				"z": 0.8188925939,
				"element": "C" 
			},
			{
				"x": -0.7507874791,
				"y": 3.4847516617,
				"z": 1.2424811099,
				"element": "C" 
			},
			{
				"x": -2.1495487897,
				"y": 3.5577589431,
				"z": 1.2535909217,
				"element": "C" 
			},
			{
				"x": -2.9370375702,
				"y": 2.4751304214,
				"z": 0.8673852159,
				"element": "C" 
			},
			{
				"x": -2.3341344769,
				"y": 1.2902341179,
				"z": 0.432582222,
				"element": "C" 
			},
			{
				"x": -0.9492915883,
				"y": 1.2120858852,
				"z": 0.3975147153,
				"element": "C" 
			},
			{
				"x": -3.6157031684,
				"y": -3.4320675833,
				"z": -3.7498281598,
				"element": "H" 
			},
			{
				"x": -3.45163722,
				"y": -2.4231725563,
				"z": -2.2760745352,
				"element": "H" 
			},
			{
				"x": -3.405474899,
				"y": -1.6542290217,
				"z": -3.8461326821,
				"element": "H" 
			},
			{
				"x": 0.1790156917,
				"y": 1.0410049683,
				"z": -1.9992587474,
				"element": "H" 
			},
			{
				"x": 3.0424414271,
				"y": 0.1347609253,
				"z": -1.5630720717,
				"element": "H" 
			},
			{
				"x": 4.4980308656,
				"y": -1.5734877812,
				"z": -2.6097506543,
				"element": "H" 
			},
			{
				"x": 3.5009690552,
				"y": -3.5308100823,
				"z": -3.758406814,
				"element": "H" 
			},
			{
				"x": 1.030444533,
				"y": -3.7831234497,
				"z": -3.9192232489,
				"element": "H" 
			},
			{
				"x": 0.4026054978,
				"y": -1.6651046464,
				"z": 0.6220086792,
				"element": "H" 
			},
			{
				"x": 1.8225939012,
				"y": 4.0991246644,
				"z": 2.4221223434,
				"element": "H" 
			},
			{
				"x": 3.3387897475,
				"y": 4.4659327782,
				"z": 1.5529711199,
				"element": "H" 
			},
			{
				"x": 1.7686625454,
				"y": 4.7439416972,
				"z": 0.770116625,
				"element": "H" 
			},
			{
				"x": -0.1763868232,
				"y": 4.3344648843,
				"z": 1.5795245671,
				"element": "H" 
			},
			{
				"x": -2.6202451552,
				"y": 4.4785135342,
				"z": 1.585231394,
				"element": "H" 
			},
			{
				"x": -4.0191811157,
				"y": 2.5502678996,
				"z": 0.9011269054,
				"element": "H" 
			},
			{
				"x": -2.9305804614,
				"y": 0.4457835063,
				"z": 0.1130668379,
				"element": "H" 
			}
		],
		 "valence_orbital": [ 
			{
				"type": "occ",
				"energy": -0.26965,
				"method": "rhf"
			},
			{
				"type": "occ",
				"energy": -0.26126,
				"method": "rhf"
			},
			{
				"type": "occ",
				"energy": -0.24997,
				"method": "rhf"
			},
			{
				"type": "occ",
				"energy": -0.24219,
				"method": "rhf"
			},
			{
				"type": "occ",
				"energy": -0.2313,
				"method": "rhf"
			},
			{
				"type": "unocc",
				"energy": -0.05769,
				"method": "rhf"
			},
			{
				"type": "unocc",
				"energy": -0.03803,
				"method": "rhf"
			},
			{
				"type": "unocc",
				"energy": -0.02651,
				"method": "rhf"
			},
			{
				"type": "unocc",
				"energy": -0.0177,
				"method": "rhf"
			},
			{
				"type": "unocc",
				"energy": -0.01341,
				"method": "rhf"
			}
		],
		"cosmo_sigma_profile": { 
			"-0.025": 0.0,
			"-0.024": 0.0,
			"-0.023": 0.0,
			"-0.022": 0.0,
			"-0.021": 0.0,
			"-0.02": 0.0,
			"-0.019": 0.0,
			"-0.018": 0.0,
			"-0.017": 0.0,
			"-0.016": 0.0,
			"-0.015": 0.0884767110916,
			"-0.014": 0.473800336846,
			"-0.013": 0.545617690604,
			"-0.012": 0.587402284451,
			"-0.011": 0.580424693645,
			"-0.01": 0.320319603274,
			"-0.009": 2.15993110231,
			"-0.008": 9.504477905,
			"-0.007": 14.2006299615,
			"-0.006": 25.6660432565,
			"-0.005": 27.0368413707,
			"-0.004": 31.2573502121,
			"-0.003": 29.4582543639,
			"-0.002": 27.2049859361,
			"-0.001": 22.252989362,
			"0.0": 18.3986423324,
			"0.001": 18.1630203164,
			"0.002": 19.7767779229,
			"0.003": 24.1042065644,
			"0.004": 23.9979213721,
			"0.005": 14.2495414547,
			"0.006": 6.69338794028,
			"0.007": 6.59041637162,
			"0.008": 7.96332938453,
			"0.009": 9.05518458954,
			"0.01": 9.71887410072,
			"0.011": 8.93462618502,
			"0.012": 5.33177876375,
			"0.013": 1.48641167666,
			"0.014": 0.17746810307,
			"0.015": 0.0,
			"0.016": 0.0,
			"0.017": 0.0,
			"0.018": 0.0,
			"0.019": 0.0,
			"0.02": 0.0,
			"0.021": 0.0,
			"0.022": 0.0,
			"0.023": 0.0,
			"0.024": 0.0,
			"0.025": 0.0
		}
	}
}
