{
	 "smiles": "BrC1=CC2=C(C=C1)N(CC#C)C(=O)C2=O", 
	 "Tm": 438.15, 
	 "num_atms": 21, 
	 "gaussian": { 
		 "optdone": 1, 
		 "sigma_profile": "yes", 
		 "theory": "DFT", 
		 "functional": "B3LYP", 
		 "basiset": "6-31G**", 
		 "properties": { 
			 "R2extent": 5864.0417, 
			 "electric_dipole_moment_norm": 5.14666015393, 
			 "electric_quadrupole_moment_norm": 10.6802370807, 
			 "total_energy": -3199.3085087, 
			 "HOMO_LUMO_gap": 0.13135, 
			 "cosmo_polarized_energy": -13.83, 
			 "cosmo_cavitation_energy": 30.09, 
			 "cosmo_dispersion_energy": -21.17, 
			 "cosmo_repulsion_energy": 1.64, 
			 "cosmo_total_nonelectrostatic_energy": 10.56, 
			 "SMD_solvation_energy": 6.5 
		},
		"coords": [
			{
				"x": -0.931491288,
				"y": 0.706073601,
				"z": -4.7863719148,
				"element": "Br" 
			},
			{
				"x": -0.8796456054,
				"y": 0.8077543561,
				"z": -2.8805459149,
				"element": "C" 
			},
			{
				"x": 0.3420664411,
				"y": 0.6949757067,
				"z": -2.2162869627,
				"element": "C" 
			},
			{
				"x": 0.3330519607,
				"y": 0.7766935985,
				"z": -0.8283516729,
				"element": "C" 
			},
			{
				"x": -0.864329896,
				"y": 0.966029417,
				"z": -0.1103921224,
				"element": "C" 
			},
			{
				"x": -2.0812457886,
				"y": 1.0728674579,
				"z": -0.7742879793,
				"element": "C" 
			},
			{
				"x": -2.0716279971,
				"y": 0.9923416588,
				"z": -2.1728550873,
				"element": "C" 
			},
			{
				"x": -0.6100511155,
				"y": 1.024708031,
				"z": 1.2713853699,
				"element": "N" 
			},
			{
				"x": -1.5994950345,
				"y": 1.2421630648,
				"z": 2.320113999,
				"element": "C" 
			},
			{
				"x": -2.5998017349,
				"y": 0.1752103723,
				"z": 2.4158670511,
				"element": "C" 
			},
			{
				"x": -3.4402798404,
				"y": -0.6873025774,
				"z": 2.4936226838,
				"element": "C" 
			},
			{
				"x": 0.7463551046,
				"y": 0.876772378,
				"z": 1.5407532464,
				"element": "C" 
			},
			{
				"x": 1.2692063096,
				"y": 0.8970534133,
				"z": 2.6328939059,
				"element": "O" 
			},
			{
				"x": 1.4352565299,
				"y": 0.6995178477,
				"z": 0.1451605934,
				"element": "C" 
			},
			{
				"x": 2.6236755452,
				"y": 0.5422301331,
				"z": -0.02092246,
				"element": "O" 
			},
			{
				"x": 1.2724167303,
				"y": 0.5499217476,
				"z": -2.7538214123,
				"element": "H" 
			},
			{
				"x": -3.0155631376,
				"y": 1.1959252801,
				"z": -0.2390368006,
				"element": "H" 
			},
			{
				"x": -3.0057336324,
				"y": 1.07128495,
				"z": -2.7176977606,
				"element": "H" 
			},
			{
				"x": -1.0257619407,
				"y": 1.3161190114,
				"z": 3.2503873335,
				"element": "H" 
			},
			{
				"x": -2.097059632,
				"y": 2.2080955405,
				"z": 2.1600353831,
				"element": "H" 
			},
			{
				"x": -4.1694419782,
				"y": -1.4609349885,
				"z": 2.5705505216,
				"element": "H" 
			}
		],
		 "valence_orbital": [ 
			{
				"type": "occ",
				"energy": -0.29686,
				"method": "rhf"
			},
			{
				"type": "occ",
				"energy": -0.29181,
				"method": "rhf"
			},
			{
				"type": "occ",
				"energy": -0.28723,
				"method": "rhf"
			},
			{
				"type": "occ",
				"energy": -0.25658,
				"method": "rhf"
			},
			{
				"type": "occ",
				"energy": -0.23879,
				"method": "rhf"
			},
			{
				"type": "unocc",
				"energy": -0.10744,
				"method": "rhf"
			},
			{
				"type": "unocc",
				"energy": -0.03414,
				"method": "rhf"
			},
			{
				"type": "unocc",
				"energy": -0.00814,
				"method": "rhf"
			},
			{
				"type": "unocc",
				"energy": -0.00642,
				"method": "rhf"
			},
			{
				"type": "unocc",
				"energy": 0.01917,
				"method": "rhf"
			}
		],
		"cosmo_sigma_profile": { 
			"-0.025": 0.0,
			"-0.024": 0.0,
			"-0.023": 0.0,
			"-0.022": 0.0,
			"-0.021": 0.0,
			"-0.02": 0.0,
			"-0.019": 0.0,
			"-0.018": 0.0,
			"-0.017": 0.0,
			"-0.016": 0.0,
			"-0.015": 0.0,
			"-0.014": 0.0,
			"-0.013": 0.0236239070023,
			"-0.012": 1.12382280898,
			"-0.011": 1.09480284982,
			"-0.01": 1.52740964435,
			"-0.009": 3.79703185392,
			"-0.008": 12.8879677835,
			"-0.007": 11.5076919822,
			"-0.006": 12.3872318768,
			"-0.005": 12.0401828759,
			"-0.004": 12.2057078743,
			"-0.003": 12.7611031714,
			"-0.002": 13.7843525157,
			"-0.001": 16.6992406342,
			"0.0": 21.9059123312,
			"0.001": 21.7652596551,
			"0.002": 13.7583688636,
			"0.003": 16.5617631296,
			"0.004": 16.0169610772,
			"0.005": 11.1064168844,
			"0.006": 6.1579381744,
			"0.007": 3.20662792796,
			"0.008": 4.26601833722,
			"0.009": 5.99821368265,
			"0.01": 8.66162538982,
			"0.011": 5.41576115429,
			"0.012": 0.939417176415,
			"0.013": 0.0,
			"0.014": 0.0,
			"0.015": 0.0,
			"0.016": 0.0,
			"0.017": 0.0,
			"0.018": 0.0,
			"0.019": 0.0,
			"0.02": 0.0,
			"0.021": 0.0,
			"0.022": 0.0,
			"0.023": 0.0,
			"0.024": 0.0,
			"0.025": 0.0
		}
	}
}
