{
	 "smiles": "NC(=O)C1=COC=C1", 
	 "Tm": 448.15, 
	 "num_atms": 13, 
	 "gaussian": { 
		 "optdone": 1, 
		 "sigma_profile": "yes", 
		 "theory": "DFT", 
		 "functional": "B3LYP", 
		 "basiset": "6-31G**", 
		 "properties": { 
			 "R2extent": 1010.5417, 
			 "electric_dipole_moment_norm": 3.86227622523, 
			 "electric_quadrupole_moment_norm": 7.74472089878, 
			 "total_energy": -398.728001665, 
			 "HOMO_LUMO_gap": 0.22231, 
			 "cosmo_polarized_energy": -13.77, 
			 "cosmo_cavitation_energy": 17.76, 
			 "cosmo_dispersion_energy": -13.32, 
			 "cosmo_repulsion_energy": 1.11, 
			 "cosmo_total_nonelectrostatic_energy": 5.55, 
			 "SMD_solvation_energy": 5.4 
		},
		"coords": [
			{
				"x": 1.969427599,
				"y": -0.7682092575,
				"z": -1.5997404422,
				"element": "N" 
			},
			{
				"x": 1.3016804108,
				"y": 0.0076666986,
				"z": -0.6918474313,
				"element": "C" 
			},
			{
				"x": 1.6285606984,
				"y": 1.1672718236,
				"z": -0.4615507157,
				"element": "O" 
			},
			{
				"x": 0.1562966038,
				"y": -0.6361527443,
				"z": -0.0003051819,
				"element": "C" 
			},
			{
				"x": -0.6019788759,
				"y": 0.016136318,
				"z": 0.9307128585,
				"element": "C" 
			},
			{
				"x": -1.5788518243,
				"y": -0.7923521911,
				"z": 1.4065564528,
				"element": "O" 
			},
			{
				"x": -1.4495113552,
				"y": -1.9945985587,
				"z": 0.7691181909,
				"element": "C" 
			},
			{
				"x": -0.4072992499,
				"y": -1.9598043017,
				"z": -0.1017192712,
				"element": "C" 
			},
			{
				"x": 2.7508119025,
				"y": -0.3522974172,
				"z": -2.0818653076,
				"element": "H" 
			},
			{
				"x": 1.7181960237,
				"y": -1.7205170369,
				"z": -1.8034745616,
				"element": "H" 
			},
			{
				"x": -0.5528609098,
				"y": 1.0169798203,
				"z": 1.3280557231,
				"element": "H" 
			},
			{
				"x": -2.1650199716,
				"y": -2.7535006467,
				"z": 1.0445063888,
				"element": "H" 
			},
			{
				"x": -0.0871510516,
				"y": -2.7772225064,
				"z": -0.7325467026,
				"element": "H" 
			}
		],
		 "valence_orbital": [ 
			{
				"type": "occ",
				"energy": -0.37697,
				"method": "rhf"
			},
			{
				"type": "occ",
				"energy": -0.2855,
				"method": "rhf"
			},
			{
				"type": "occ",
				"energy": -0.26549,
				"method": "rhf"
			},
			{
				"type": "occ",
				"energy": -0.24958,
				"method": "rhf"
			},
			{
				"type": "occ",
				"energy": -0.23776,
				"method": "rhf"
			},
			{
				"type": "unocc",
				"energy": -0.01545,
				"method": "rhf"
			},
			{
				"type": "unocc",
				"energy": 0.0196,
				"method": "rhf"
			},
			{
				"type": "unocc",
				"energy": 0.06745,
				"method": "rhf"
			},
			{
				"type": "unocc",
				"energy": 0.11693,
				"method": "rhf"
			},
			{
				"type": "unocc",
				"energy": 0.12702,
				"method": "rhf"
			}
		],
		"cosmo_sigma_profile": { 
			"-0.025": 0.0,
			"-0.024": 0.0,
			"-0.023": 0.0,
			"-0.022": 0.0,
			"-0.021": 0.0,
			"-0.02": 0.0,
			"-0.019": 0.0,
			"-0.018": 0.0,
			"-0.017": 0.0,
			"-0.016": 0.0,
			"-0.015": 0.401389054879,
			"-0.014": 2.1455757983,
			"-0.013": 2.60419010259,
			"-0.012": 3.08806992736,
			"-0.011": 1.664978197,
			"-0.01": 2.92898681306,
			"-0.009": 6.50696915688,
			"-0.008": 5.13018696976,
			"-0.007": 5.19464253143,
			"-0.006": 5.2260528076,
			"-0.005": 5.6004834258,
			"-0.004": 4.65695117489,
			"-0.003": 5.12448565279,
			"-0.002": 3.98721741445,
			"-0.001": 5.72648853301,
			"0.0": 7.70757270216,
			"0.001": 10.9535972994,
			"0.002": 13.1645377944,
			"0.003": 11.6638178672,
			"0.004": 9.89629978771,
			"0.005": 5.08510250163,
			"0.006": 2.2877045898,
			"0.007": 3.44412862189,
			"0.008": 2.05631804472,
			"0.009": 1.02363002043,
			"0.01": 1.3546222469,
			"0.011": 1.51758115652,
			"0.012": 1.9717626964,
			"0.013": 2.93600489851,
			"0.014": 5.71914286596,
			"0.015": 1.47044862044,
			"0.016": 0.00590993311636,
			"0.017": 0.0,
			"0.018": 0.0,
			"0.019": 0.0,
			"0.02": 0.0,
			"0.021": 0.0,
			"0.022": 0.0,
			"0.023": 0.0,
			"0.024": 0.0,
			"0.025": 0.0
		}
	}
}
