{
	 "smiles": "OC(=O)C1=C2C=CNC2=CC=C1", 
	 "Tm": 487.15, 
	 "num_atms": 19, 
	 "gaussian": { 
		 "optdone": 1, 
		 "sigma_profile": "yes", 
		 "theory": "DFT", 
		 "functional": "B3LYP", 
		 "basiset": "6-31G**", 
		 "properties": { 
			 "R2extent": 2204.6846, 
			 "electric_dipole_moment_norm": 7.29229793207, 
			 "electric_quadrupole_moment_norm": 8.87830503306, 
			 "total_energy": -552.38751593, 
			 "HOMO_LUMO_gap": 0.1758, 
			 "cosmo_polarized_energy": -17.73, 
			 "cosmo_cavitation_energy": 23.17, 
			 "cosmo_dispersion_energy": -17.54, 
			 "cosmo_repulsion_energy": 1.37, 
			 "cosmo_total_nonelectrostatic_energy": 7.0, 
			 "SMD_solvation_energy": 5.02 
		},
		"coords": [
			{
				"x": 0.7299490059,
				"y": 0.0576657008,
				"z": -3.1248445682,
				"element": "O" 
			},
			{
				"x": 1.6113792097,
				"y": 0.5625614648,
				"z": -2.2147184339,
				"element": "C" 
			},
			{
				"x": 2.4059845496,
				"y": 1.4092166701,
				"z": -2.5509338844,
				"element": "O" 
			},
			{
				"x": 1.5319828107,
				"y": -0.010609532,
				"z": -0.8356769422,
				"element": "C" 
			},
			{
				"x": 0.3557361837,
				"y": -0.5870394889,
				"z": -0.2937451722,
				"element": "C" 
			},
			{
				"x": -1.00356876,
				"y": -0.749542378,
				"z": -0.7412169241,
				"element": "C" 
			},
			{
				"x": -1.6858740897,
				"y": -1.3884247703,
				"z": 0.2633225818,
				"element": "C" 
			},
			{
				"x": -0.8336827655,
				"y": -1.6376967917,
				"z": 1.3158523512,
				"element": "N" 
			},
			{
				"x": 0.4217479694,
				"y": -1.1486262911,
				"z": 1.0142356461,
				"element": "C" 
			},
			{
				"x": 1.5882972167,
				"y": -1.1392666432,
				"z": 1.7832955156,
				"element": "C" 
			},
			{
				"x": 2.7164671849,
				"y": -0.5377011348,
				"z": 1.2357637419,
				"element": "C" 
			},
			{
				"x": 2.6842221095,
				"y": 0.0235198271,
				"z": -0.0514857546,
				"element": "C" 
			},
			{
				"x": 0.2857556608,
				"y": -0.7164650312,
				"z": -2.7494290571,
				"element": "H" 
			},
			{
				"x": -1.4464953984,
				"y": -0.3863523583,
				"z": -1.6573816689,
				"element": "H" 
			},
			{
				"x": -2.7255086253,
				"y": -1.6782163943,
				"z": 0.315659445,
				"element": "H" 
			},
			{
				"x": -1.0945796834,
				"y": -2.074771227,
				"z": 2.1848272393,
				"element": "H" 
			},
			{
				"x": 1.6115260832,
				"y": -1.578931712,
				"z": 2.7764212209,
				"element": "H" 
			},
			{
				"x": 3.6377139458,
				"y": -0.5053186327,
				"z": 1.8088548922,
				"element": "H" 
			},
			{
				"x": 3.5699473922,
				"y": 0.4883987228,
				"z": -0.4707002286,
				"element": "H" 
			}
		],
		 "valence_orbital": [ 
			{
				"type": "occ",
				"energy": -0.3056,
				"method": "rhf"
			},
			{
				"type": "occ",
				"energy": -0.29319,
				"method": "rhf"
			},
			{
				"type": "occ",
				"energy": -0.26238,
				"method": "rhf"
			},
			{
				"type": "occ",
				"energy": -0.23866,
				"method": "rhf"
			},
			{
				"type": "occ",
				"energy": -0.22309,
				"method": "rhf"
			},
			{
				"type": "unocc",
				"energy": -0.04729,
				"method": "rhf"
			},
			{
				"type": "unocc",
				"energy": 0.00488,
				"method": "rhf"
			},
			{
				"type": "unocc",
				"energy": 0.03749,
				"method": "rhf"
			},
			{
				"type": "unocc",
				"energy": 0.06022,
				"method": "rhf"
			},
			{
				"type": "unocc",
				"energy": 0.06418,
				"method": "rhf"
			}
		],
		"cosmo_sigma_profile": { 
			"-0.025": 0.0,
			"-0.024": 0.0,
			"-0.023": 0.0,
			"-0.022": 0.0,
			"-0.021": 0.0,
			"-0.02": 0.0,
			"-0.019": 0.0,
			"-0.018": 0.0,
			"-0.017": 0.0278459968758,
			"-0.016": 1.46676363511,
			"-0.015": 1.95814456151,
			"-0.014": 2.57709406651,
			"-0.013": 2.50391905508,
			"-0.012": 1.53419042518,
			"-0.011": 2.38027649425,
			"-0.01": 2.9161714767,
			"-0.009": 3.50276645117,
			"-0.008": 5.13014581521,
			"-0.007": 6.36118716352,
			"-0.006": 7.9163791342,
			"-0.005": 8.23009182709,
			"-0.004": 9.4057381315,
			"-0.003": 9.70841432549,
			"-0.002": 10.1465774756,
			"-0.001": 8.62716989566,
			"0.0": 9.30326658281,
			"0.001": 9.24303926767,
			"0.002": 9.95240419129,
			"0.003": 15.3938284306,
			"0.004": 17.0432249331,
			"0.005": 10.7397709665,
			"0.006": 3.77709764766,
			"0.007": 2.65812327731,
			"0.008": 2.17691071824,
			"0.009": 3.15018059373,
			"0.01": 4.18415842839,
			"0.011": 5.28397177889,
			"0.012": 6.00602042159,
			"0.013": 2.63374826037,
			"0.014": 0.23381249514,
			"0.015": 0.0,
			"0.016": 0.0,
			"0.017": 0.0,
			"0.018": 0.0,
			"0.019": 0.0,
			"0.02": 0.0,
			"0.021": 0.0,
			"0.022": 0.0,
			"0.023": 0.0,
			"0.024": 0.0,
			"0.025": 0.0
		}
	}
}
