{
	 "smiles": "CCCCOC1=CC=C(C=C1)C1=NN=C2SC(NN12)C1=CC=CO1", 
	 "Tm": 400.15, 
	 "num_atms": 42, 
	 "gaussian": { 
		 "optdone": 1, 
		 "sigma_profile": "yes", 
		 "theory": "DFT", 
		 "functional": "B3LYP", 
		 "basiset": "6-31G**", 
		 "properties": { 
			 "R2extent": 14924.1515, 
			 "electric_dipole_moment_norm": 8.00264169009, 
			 "electric_quadrupole_moment_norm": 35.7980240868, 
			 "total_energy": -1426.19925597, 
			 "HOMO_LUMO_gap": 0.16429, 
			 "cosmo_polarized_energy": -24.86, 
			 "cosmo_cavitation_energy": 47.81, 
			 "cosmo_dispersion_energy": -34.12, 
			 "cosmo_repulsion_energy": 2.57, 
			 "cosmo_total_nonelectrostatic_energy": 16.26, 
			 "SMD_solvation_energy": 5.96 
		},
		"coords": [
			{
				"x": -2.719343469,
				"y": -3.0971703669,
				"z": -4.4791403328,
				"element": "C" 
			},
			{
				"x": -2.2137639028,
				"y": -1.9049092271,
				"z": -5.30175717,
				"element": "C" 
			},
			{
				"x": -0.8499666853,
				"y": -1.3523055086,
				"z": -4.8574408092,
				"element": "C" 
			},
			{
				"x": -0.8679809928,
				"y": -0.7186158588,
				"z": -3.4716383241,
				"element": "C" 
			},
			{
				"x": 0.4362513321,
				"y": -0.1928004343,
				"z": -3.2253123301,
				"element": "O" 
			},
			{
				"x": 0.6859918153,
				"y": 0.4202930088,
				"z": -2.0357572068,
				"element": "C" 
			},
			{
				"x": 1.9979115715,
				"y": 0.8929703318,
				"z": -1.8560192229,
				"element": "C" 
			},
			{
				"x": 2.3561063627,
				"y": 1.5357735204,
				"z": -0.6843021622,
				"element": "C" 
			},
			{
				"x": 1.4157773154,
				"y": 1.7278439114,
				"z": 0.3485254305,
				"element": "C" 
			},
			{
				"x": 0.1119438838,
				"y": 1.2511219472,
				"z": 0.1635846529,
				"element": "C" 
			},
			{
				"x": -0.2566490139,
				"y": 0.6025100024,
				"z": -1.0168802223,
				"element": "C" 
			},
			{
				"x": 1.851493055,
				"y": 2.4031967045,
				"z": 1.5700113504,
				"element": "C" 
			},
			{
				"x": 3.1014360232,
				"y": 2.7287454775,
				"z": 1.8588442482,
				"element": "N" 
			},
			{
				"x": 3.1467335851,
				"y": 3.3406488789,
				"z": 3.1056943821,
				"element": "N" 
			},
			{
				"x": 1.9122468214,
				"y": 3.3915185728,
				"z": 3.5266214727,
				"element": "C" 
			},
			{
				"x": 1.0664326303,
				"y": 3.9405236912,
				"z": 4.9696260367,
				"element": "S" 
			},
			{
				"x": -0.413627366,
				"y": 2.8640308617,
				"z": 4.3790507191,
				"element": "C" 
			},
			{
				"x": -0.3191972617,
				"y": 2.817046944,
				"z": 2.9091044409,
				"element": "N" 
			},
			{
				"x": 1.0575316144,
				"y": 2.8284536573,
				"z": 2.6149392803,
				"element": "N" 
			},
			{
				"x": -0.431772708,
				"y": 1.5268533911,
				"z": 5.0160907487,
				"element": "C" 
			},
			{
				"x": -1.3034835585,
				"y": 0.9524740239,
				"z": 5.8969277781,
				"element": "C" 
			},
			{
				"x": -0.7868585808,
				"y": -0.3530348933,
				"z": 6.1807602869,
				"element": "C" 
			},
			{
				"x": 0.3576785282,
				"y": -0.4703310325,
				"z": 5.4526149738,
				"element": "C" 
			},
			{
				"x": 0.5892332963,
				"y": 0.6665832484,
				"z": 4.73929254,
				"element": "O" 
			},
			{
				"x": -1.9908748252,
				"y": -3.9160473904,
				"z": -4.4836580905,
				"element": "H" 
			},
			{
				"x": -3.6574175429,
				"y": -3.4854019885,
				"z": -4.888653967,
				"element": "H" 
			},
			{
				"x": -2.9076155053,
				"y": -2.8287311855,
				"z": -3.4342355167,
				"element": "H" 
			},
			{
				"x": -2.1326961375,
				"y": -2.2066787647,
				"z": -6.3527602874,
				"element": "H" 
			},
			{
				"x": -2.9596317026,
				"y": -1.0985713339,
				"z": -5.2778157929,
				"element": "H" 
			},
			{
				"x": -0.0985982951,
				"y": -2.1516772497,
				"z": -4.8681089398,
				"element": "H" 
			},
			{
				"x": -0.5094831219,
				"y": -0.5924338427,
				"z": -5.5703117455,
				"element": "H" 
			},
			{
				"x": -1.6136389187,
				"y": 0.0893985549,
				"z": -3.4266032311,
				"element": "H" 
			},
			{
				"x": -1.1223729717,
				"y": -1.4541149003,
				"z": -2.6966482987,
				"element": "H" 
			},
			{
				"x": 2.7152978216,
				"y": 0.7421576536,
				"z": -2.6559969057,
				"element": "H" 
			},
			{
				"x": 3.3675937786,
				"y": 1.899676004,
				"z": -0.5409983102,
				"element": "H" 
			},
			{
				"x": -0.6245388164,
				"y": 1.3737023002,
				"z": 0.9503329633,
				"element": "H" 
			},
			{
				"x": -1.2731043056,
				"y": 0.2443684446,
				"z": -1.126922274,
				"element": "H" 
			},
			{
				"x": -1.3263866232,
				"y": 3.394150221,
				"z": 4.6521984279,
				"element": "H" 
			},
			{
				"x": -0.7071127456,
				"y": 3.6854090442,
				"z": 2.5333389787,
				"element": "H" 
			},
			{
				"x": -2.2024953465,
				"y": 1.4019517618,
				"z": 6.2945186097,
				"element": "H" 
			},
			{
				"x": -1.2129547115,
				"y": -1.0984579809,
				"z": 6.836131925,
				"element": "H" 
			},
			{
				"x": 1.0872056735,
				"y": -1.2555201994,
				"z": 5.3302518941,
				"element": "H" 
			}
		],
		 "valence_orbital": [ 
			{
				"type": "occ",
				"energy": -0.25362,
				"method": "rhf"
			},
			{
				"type": "occ",
				"energy": -0.24785,
				"method": "rhf"
			},
			{
				"type": "occ",
				"energy": -0.24411,
				"method": "rhf"
			},
			{
				"type": "occ",
				"energy": -0.23617,
				"method": "rhf"
			},
			{
				"type": "occ",
				"energy": -0.20038,
				"method": "rhf"
			},
			{
				"type": "unocc",
				"energy": -0.03609,
				"method": "rhf"
			},
			{
				"type": "unocc",
				"energy": -0.01882,
				"method": "rhf"
			},
			{
				"type": "unocc",
				"energy": -0.00216,
				"method": "rhf"
			},
			{
				"type": "unocc",
				"energy": 0.00809,
				"method": "rhf"
			},
			{
				"type": "unocc",
				"energy": 0.04007,
				"method": "rhf"
			}
		],
		"cosmo_sigma_profile": { 
			"-0.025": 0.0,
			"-0.024": 0.0,
			"-0.023": 0.0,
			"-0.022": 0.0,
			"-0.021": 0.0,
			"-0.02": 0.0,
			"-0.019": 0.0,
			"-0.018": 0.0,
			"-0.017": 0.0,
			"-0.016": 0.542296595307,
			"-0.015": 2.50380832877,
			"-0.014": 1.46707353789,
			"-0.013": 1.98477328841,
			"-0.012": 2.12729724697,
			"-0.011": 3.62047390228,
			"-0.01": 3.16336803556,
			"-0.009": 4.45540047651,
			"-0.008": 6.33833811499,
			"-0.007": 8.91788792382,
			"-0.006": 11.2646672271,
			"-0.005": 17.1127405445,
			"-0.004": 20.0862365293,
			"-0.003": 28.6210830567,
			"-0.002": 31.7791360643,
			"-0.001": 32.4461852833,
			"0.0": 31.6545802198,
			"0.001": 32.2288073673,
			"0.002": 28.7990582762,
			"0.003": 28.7090855621,
			"0.004": 32.2215182204,
			"0.005": 16.6476328856,
			"0.006": 7.27283065937,
			"0.007": 3.31490630459,
			"0.008": 3.20347082227,
			"0.009": 3.21644187657,
			"0.01": 2.8660803011,
			"0.011": 2.24803002019,
			"0.012": 2.91595949702,
			"0.013": 3.17816093319,
			"0.014": 3.58130279203,
			"0.015": 2.58843974493,
			"0.016": 1.60240968722,
			"0.017": 0.225684270272,
			"0.018": 0.0,
			"0.019": 0.0,
			"0.02": 0.0,
			"0.021": 0.0,
			"0.022": 0.0,
			"0.023": 0.0,
			"0.024": 0.0,
			"0.025": 0.0
		}
	}
}
