{
	 "smiles": "COC1=C(F)C=C(O)C=C1F", 
	 "Tm": 342.15, 
	 "num_atms": 17, 
	 "gaussian": { 
		 "optdone": 1, 
		 "sigma_profile": "yes", 
		 "theory": "DFT", 
		 "functional": "B3LYP", 
		 "basiset": "6-31G**", 
		 "properties": { 
			 "R2extent": 2033.1499, 
			 "electric_dipole_moment_norm": 2.61941122774, 
			 "electric_quadrupole_moment_norm": 5.6735354445, 
			 "total_energy": -620.442474974, 
			 "HOMO_LUMO_gap": 0.20563, 
			 "cosmo_polarized_energy": -9.47, 
			 "cosmo_cavitation_energy": 22.2, 
			 "cosmo_dispersion_energy": -16.43, 
			 "cosmo_repulsion_energy": 1.28, 
			 "cosmo_total_nonelectrostatic_energy": 7.06, 
			 "SMD_solvation_energy": 5.95 
		},
		"coords": [
			{
				"x": -3.1661076561,
				"y": 1.886458566,
				"z": 1.5902626114,
				"element": "C" 
			},
			{
				"x": -2.3199926634,
				"y": 1.9200908375,
				"z": 0.4426167581,
				"element": "O" 
			},
			{
				"x": -1.1776784532,
				"y": 1.1821452564,
				"z": 0.4016849416,
				"element": "C" 
			},
			{
				"x": -0.4178550204,
				"y": 1.2901327019,
				"z": -0.7794815316,
				"element": "C" 
			},
			{
				"x": -0.8881678839,
				"y": 2.1021375922,
				"z": -1.7414405523,
				"element": "F" 
			},
			{
				"x": 0.7687652574,
				"y": 0.6126298828,
				"z": -0.9940201429,
				"element": "C" 
			},
			{
				"x": 1.2564067771,
				"y": -0.2322793563,
				"z": 0.0092432026,
				"element": "C" 
			},
			{
				"x": 2.4304511133,
				"y": -0.8852897357,
				"z": -0.2364138387,
				"element": "O" 
			},
			{
				"x": 0.5424883989,
				"y": -0.3747094489,
				"z": 1.198122426,
				"element": "C" 
			},
			{
				"x": -0.6493939631,
				"y": 0.3264338557,
				"z": 1.3737918857,
				"element": "C" 
			},
			{
				"x": -1.299797763,
				"y": 0.1481056363,
				"z": 2.5504400402,
				"element": "F" 
			},
			{
				"x": -2.6495497081,
				"y": 2.2444480289,
				"z": 2.486160777,
				"element": "H" 
			},
			{
				"x": -3.992222844,
				"y": 2.5585953408,
				"z": 1.3525047651,
				"element": "H" 
			},
			{
				"x": -3.5551358142,
				"y": 0.8810587501,
				"z": 1.7785321395,
				"element": "H" 
			},
			{
				"x": 1.3061247417,
				"y": 0.7390111309,
				"z": -1.9257422709,
				"element": "H" 
			},
			{
				"x": 2.6567049028,
				"y": -1.431903172,
				"z": 0.5267601246,
				"element": "H" 
			},
			{
				"x": 0.8827605781,
				"y": -1.0186658666,
				"z": 2.0030786646,
				"element": "H" 
			}
		],
		 "valence_orbital": [ 
			{
				"type": "occ",
				"energy": -0.35759,
				"method": "rhf"
			},
			{
				"type": "occ",
				"energy": -0.33128,
				"method": "rhf"
			},
			{
				"type": "occ",
				"energy": -0.29897,
				"method": "rhf"
			},
			{
				"type": "occ",
				"energy": -0.24837,
				"method": "rhf"
			},
			{
				"type": "occ",
				"energy": -0.20773,
				"method": "rhf"
			},
			{
				"type": "unocc",
				"energy": -0.0021,
				"method": "rhf"
			},
			{
				"type": "unocc",
				"energy": 0.01398,
				"method": "rhf"
			},
			{
				"type": "unocc",
				"energy": 0.05636,
				"method": "rhf"
			},
			{
				"type": "unocc",
				"energy": 0.06747,
				"method": "rhf"
			},
			{
				"type": "unocc",
				"energy": 0.11621,
				"method": "rhf"
			}
		],
		"cosmo_sigma_profile": { 
			"-0.025": 0.0,
			"-0.024": 0.0,
			"-0.023": 0.0,
			"-0.022": 0.0,
			"-0.021": 0.0,
			"-0.02": 0.0,
			"-0.019": 0.0262767113882,
			"-0.018": 0.863196704927,
			"-0.017": 1.47851549445,
			"-0.016": 0.842796341501,
			"-0.015": 0.968674165515,
			"-0.014": 1.07937819402,
			"-0.013": 1.22117684769,
			"-0.012": 0.570978597929,
			"-0.011": 0.858253979978,
			"-0.01": 1.4338565328,
			"-0.009": 1.75745429542,
			"-0.008": 2.10476106002,
			"-0.007": 2.83636555396,
			"-0.006": 4.95870380818,
			"-0.005": 9.3286008427,
			"-0.004": 11.2261446404,
			"-0.003": 12.0838856208,
			"-0.002": 8.12426065862,
			"-0.001": 8.07708364951,
			"0.0": 10.8307733552,
			"0.001": 18.980070751,
			"0.002": 17.3523387725,
			"0.003": 18.5229492607,
			"0.004": 17.5075820827,
			"0.005": 6.39742158884,
			"0.006": 3.0904273063,
			"0.007": 2.71991835838,
			"0.008": 3.35591435377,
			"0.009": 3.45682522193,
			"0.01": 3.35519811097,
			"0.011": 1.87244764649,
			"0.012": 0.194093387413,
			"0.013": 0.0,
			"0.014": 0.0,
			"0.015": 0.0,
			"0.016": 0.0,
			"0.017": 0.0,
			"0.018": 0.0,
			"0.019": 0.0,
			"0.02": 0.0,
			"0.021": 0.0,
			"0.022": 0.0,
			"0.023": 0.0,
			"0.024": 0.0,
			"0.025": 0.0
		}
	}
}
