{
	 "smiles": "NC1=CC(OCC2=CC(F)=CC=C2)=CC=C1", 
	 "Tm": 487.15, 
	 "num_atms": 28, 
	 "gaussian": { 
		 "optdone": 1, 
		 "sigma_profile": "yes", 
		 "theory": "DFT", 
		 "functional": "B3LYP", 
		 "basiset": "6-31G**", 
		 "properties": { 
			 "R2extent": 4965.1402, 
			 "electric_dipole_moment_norm": 1.46430096975, 
			 "electric_quadrupole_moment_norm": 8.30385896557, 
			 "total_energy": -732.41867452, 
			 "HOMO_LUMO_gap": 0.18037, 
			 "cosmo_polarized_energy": -11.75, 
			 "cosmo_cavitation_energy": 32.69, 
			 "cosmo_dispersion_energy": -23.01, 
			 "cosmo_repulsion_energy": 1.8, 
			 "cosmo_total_nonelectrostatic_energy": 11.48, 
			 "SMD_solvation_energy": 6.06 
		},
		"coords": [
			{
				"x": 1.3751505714,
				"y": 1.0127656363,
				"z": -1.9550543792,
				"element": "N" 
			},
			{
				"x": 0.0982048971,
				"y": 0.4480824006,
				"z": -1.9077251404,
				"element": "C" 
			},
			{
				"x": -0.165238975,
				"y": -0.6125490538,
				"z": -1.0204316781,
				"element": "C" 
			},
			{
				"x": -1.4556790271,
				"y": -1.1369945269,
				"z": -0.9272941537,
				"element": "C" 
			},
			{
				"x": -1.8073381718,
				"y": -2.1762498835,
				"z": -0.0996576045,
				"element": "O" 
			},
			{
				"x": -0.7934130199,
				"y": -2.8968826658,
				"z": 0.586177316,
				"element": "C" 
			},
			{
				"x": -0.2851159661,
				"y": -2.2179477103,
				"z": 1.8458175969,
				"element": "C" 
			},
			{
				"x": 0.9864820009,
				"y": -2.5390497841,
				"z": 2.3344451377,
				"element": "C" 
			},
			{
				"x": 1.4214135868,
				"y": -1.9613041666,
				"z": 3.5211027837,
				"element": "C" 
			},
			{
				"x": 2.6507337303,
				"y": -2.2769144663,
				"z": 3.9833833682,
				"element": "F" 
			},
			{
				"x": 0.6392252898,
				"y": -1.0659499991,
				"z": 4.2410232298,
				"element": "C" 
			},
			{
				"x": -0.6254632758,
				"y": -0.7491558131,
				"z": 3.7425711141,
				"element": "C" 
			},
			{
				"x": -1.0897441348,
				"y": -1.3208833206,
				"z": 2.5569514824,
				"element": "C" 
			},
			{
				"x": -2.4992106221,
				"y": -0.6153467289,
				"z": -1.7040136931,
				"element": "C" 
			},
			{
				"x": -2.2269009896,
				"y": 0.4340508088,
				"z": -2.5756335626,
				"element": "C" 
			},
			{
				"x": -0.9436293257,
				"y": 0.9682678443,
				"z": -2.6903516413,
				"element": "C" 
			},
			{
				"x": 1.5912519559,
				"y": 1.5069454311,
				"z": -2.8096720909,
				"element": "H" 
			},
			{
				"x": 2.1284540996,
				"y": 0.4005148042,
				"z": -1.6739762564,
				"element": "H" 
			},
			{
				"x": 0.6358973139,
				"y": -0.9834438307,
				"z": -0.3913671789,
				"element": "H" 
			},
			{
				"x": 0.0413424857,
				"y": -3.1282060263,
				"z": -0.0890407307,
				"element": "H" 
			},
			{
				"x": -1.2699683808,
				"y": -3.8475284329,
				"z": 0.8518958802,
				"element": "H" 
			},
			{
				"x": 1.6420183203,
				"y": -3.2275659084,
				"z": 1.8089929731,
				"element": "H" 
			},
			{
				"x": 1.0221491039,
				"y": -0.634122954,
				"z": 5.1591206321,
				"element": "H" 
			},
			{
				"x": -1.2531512822,
				"y": -0.0488318038,
				"z": 4.2856554927,
				"element": "H" 
			},
			{
				"x": -2.07110516,
				"y": -1.0688077565,
				"z": 2.1705014946,
				"element": "H" 
			},
			{
				"x": -3.4897697823,
				"y": -1.046760877,
				"z": -1.61456661,
				"element": "H" 
			},
			{
				"x": -3.0284598053,
				"y": 0.841387286,
				"z": -3.1857496137,
				"element": "H" 
			},
			{
				"x": -0.7475354369,
				"y": 1.7901814973,
				"z": -3.3735041681,
				"element": "H" 
			}
		],
		 "valence_orbital": [ 
			{
				"type": "occ",
				"energy": -0.28548,
				"method": "rhf"
			},
			{
				"type": "occ",
				"energy": -0.25668,
				"method": "rhf"
			},
			{
				"type": "occ",
				"energy": -0.2437,
				"method": "rhf"
			},
			{
				"type": "occ",
				"energy": -0.22336,
				"method": "rhf"
			},
			{
				"type": "occ",
				"energy": -0.1944,
				"method": "rhf"
			},
			{
				"type": "unocc",
				"energy": -0.01403,
				"method": "rhf"
			},
			{
				"type": "unocc",
				"energy": -0.00012,
				"method": "rhf"
			},
			{
				"type": "unocc",
				"energy": 0.0145,
				"method": "rhf"
			},
			{
				"type": "unocc",
				"energy": 0.02686,
				"method": "rhf"
			},
			{
				"type": "unocc",
				"energy": 0.08279,
				"method": "rhf"
			}
		],
		"cosmo_sigma_profile": { 
			"-0.025": 0.0,
			"-0.024": 0.0,
			"-0.023": 0.0,
			"-0.022": 0.0,
			"-0.021": 0.0,
			"-0.02": 0.0,
			"-0.019": 0.0,
			"-0.018": 0.0,
			"-0.017": 0.0,
			"-0.016": 0.0,
			"-0.015": 0.0,
			"-0.014": 0.0,
			"-0.013": 0.16697387637,
			"-0.012": 2.26538818824,
			"-0.011": 2.96807325063,
			"-0.01": 2.60421585898,
			"-0.009": 2.90185043034,
			"-0.008": 3.58193826153,
			"-0.007": 8.3240179605,
			"-0.006": 13.8950255523,
			"-0.005": 17.9338981732,
			"-0.004": 19.216472992,
			"-0.003": 15.7439055142,
			"-0.002": 15.1485425261,
			"-0.001": 11.9405832007,
			"0.0": 13.0535885582,
			"0.001": 18.7546408373,
			"0.002": 17.8658157524,
			"0.003": 20.330829231,
			"0.004": 26.2954248055,
			"0.005": 17.6847732452,
			"0.006": 11.5485919772,
			"0.007": 9.11438999684,
			"0.008": 2.24335052263,
			"0.009": 1.89006298156,
			"0.01": 2.19433970885,
			"0.011": 0.876022352304,
			"0.012": 0.206528579957,
			"0.013": 1.16665134277,
			"0.014": 0.528627199748,
			"0.015": 0.251953837291,
			"0.016": 0.0,
			"0.017": 0.0,
			"0.018": 0.0,
			"0.019": 0.0,
			"0.02": 0.0,
			"0.021": 0.0,
			"0.022": 0.0,
			"0.023": 0.0,
			"0.024": 0.0,
			"0.025": 0.0
		}
	}
}
