{
	 "smiles": "CCC1C2=CC(OC)=C(OC)C=C2C(=NN=C1C)C1=CC(OC)=C(OC)C=C1", 
	 "Tm": 429.15, 
	 "num_atms": 54, 
	 "gaussian": { 
		 "optdone": 1, 
		 "sigma_profile": "yes", 
		 "theory": "DFT", 
		 "functional": "B3LYP", 
		 "basiset": "6-31G**", 
		 "properties": { 
			 "R2extent": 13512.2268, 
			 "electric_dipole_moment_norm": 3.39549759093, 
			 "electric_quadrupole_moment_norm": 14.738645281, 
			 "total_energy": -1264.30664892, 
			 "HOMO_LUMO_gap": 0.16508, 
			 "cosmo_polarized_energy": -16.99, 
			 "cosmo_cavitation_energy": 54.71, 
			 "cosmo_dispersion_energy": -37.13, 
			 "cosmo_repulsion_energy": 2.85, 
			 "cosmo_total_nonelectrostatic_energy": 20.43, 
			 "SMD_solvation_energy": 10.56 
		},
		"coords": [
			{
				"x": 4.6903345352,
				"y": -3.0539484318,
				"z": -0.3158225336,
				"element": "C" 
			},
			{
				"x": 3.8538123756,
				"y": -2.2336279246,
				"z": 0.6846228821,
				"element": "C" 
			},
			{
				"x": 2.3929373618,
				"y": -1.8252502938,
				"z": 0.3755539189,
				"element": "C" 
			},
			{
				"x": 2.1790916321,
				"y": -0.7078151578,
				"z": -0.6405511836,
				"element": "C" 
			},
			{
				"x": 3.1408068324,
				"y": -0.2978275029,
				"z": -1.5732309384,
				"element": "C" 
			},
			{
				"x": 2.887671535,
				"y": 0.7002556664,
				"z": -2.5085055092,
				"element": "C" 
			},
			{
				"x": 3.8697922497,
				"y": 0.993366619,
				"z": -3.4173565809,
				"element": "O" 
			},
			{
				"x": 4.3795510347,
				"y": 2.3304480661,
				"z": -3.4083084613,
				"element": "C" 
			},
			{
				"x": 1.6180890204,
				"y": 1.3241951281,
				"z": -2.5390690859,
				"element": "C" 
			},
			{
				"x": 1.4204237589,
				"y": 2.2538790118,
				"z": -3.5205272575,
				"element": "O" 
			},
			{
				"x": 0.1427626051,
				"y": 2.8674683369,
				"z": -3.6118019638,
				"element": "C" 
			},
			{
				"x": 0.6673416597,
				"y": 0.9566815725,
				"z": -1.5924727297,
				"element": "C" 
			},
			{
				"x": 0.9266900212,
				"y": -0.0491985017,
				"z": -0.6404786401,
				"element": "C" 
			},
			{
				"x": -0.0955465786,
				"y": -0.3932976155,
				"z": 0.3746080566,
				"element": "C" 
			},
			{
				"x": -0.3682216566,
				"y": -1.6049237053,
				"z": 0.7743219875,
				"element": "N" 
			},
			{
				"x": 0.1198565162,
				"y": -2.6976321375,
				"z": 0.1266321485,
				"element": "N" 
			},
			{
				"x": 1.3794255523,
				"y": -2.894927131,
				"z": -0.0498697707,
				"element": "C" 
			},
			{
				"x": 1.7568833425,
				"y": -4.160778494,
				"z": -0.7704249352,
				"element": "C" 
			},
			{
				"x": -0.8816290301,
				"y": 0.6870096614,
				"z": 1.0330631193,
				"element": "C" 
			},
			{
				"x": -2.1604587097,
				"y": 0.4028061051,
				"z": 1.5422354216,
				"element": "C" 
			},
			{
				"x": -2.9026809991,
				"y": 1.371937909,
				"z": 2.2085899391,
				"element": "C" 
			},
			{
				"x": -4.1641035046,
				"y": 1.0522194861,
				"z": 2.6657929005,
				"element": "O" 
			},
			{
				"x": -4.26693376,
				"y": 0.9449532664,
				"z": 4.0903197955,
				"element": "C" 
			},
			{
				"x": -2.3794776323,
				"y": 2.6712473339,
				"z": 2.3685546958,
				"element": "C" 
			},
			{
				"x": -3.0715288384,
				"y": 3.6560362628,
				"z": 3.0349873163,
				"element": "O" 
			},
			{
				"x": -4.265603347,
				"y": 4.1089563859,
				"z": 2.3852951197,
				"element": "C" 
			},
			{
				"x": -1.1038193669,
				"y": 2.9552506569,
				"z": 1.8795671469,
				"element": "C" 
			},
			{
				"x": -0.359203994,
				"y": 1.9771529116,
				"z": 1.2224334547,
				"element": "C" 
			},
			{
				"x": 4.4124594216,
				"y": -4.1094005926,
				"z": -0.3182413542,
				"element": "H" 
			},
			{
				"x": 4.6133524973,
				"y": -2.696444654,
				"z": -1.345435138,
				"element": "H" 
			},
			{
				"x": 5.7463152164,
				"y": -3.0018235943,
				"z": -0.0305028964,
				"element": "H" 
			},
			{
				"x": 4.385454893,
				"y": -1.2978475979,
				"z": 0.8976460391,
				"element": "H" 
			},
			{
				"x": 3.8403450169,
				"y": -2.7809398481,
				"z": 1.6349859999,
				"element": "H" 
			},
			{
				"x": 2.0024393123,
				"y": -1.4407346809,
				"z": 1.328824188,
				"element": "H" 
			},
			{
				"x": 4.1289175599,
				"y": -0.7385248222,
				"z": -1.5959622913,
				"element": "H" 
			},
			{
				"x": 3.6116441357,
				"y": 3.0572290406,
				"z": -3.6846350348,
				"element": "H" 
			},
			{
				"x": 5.1853104332,
				"y": 2.3487176573,
				"z": -4.1447660358,
				"element": "H" 
			},
			{
				"x": 4.7882648628,
				"y": 2.5839996081,
				"z": -2.4215426155,
				"element": "H" 
			},
			{
				"x": 0.195451205,
				"y": 3.5437299856,
				"z": -4.4662270284,
				"element": "H" 
			},
			{
				"x": -0.6472356704,
				"y": 2.1261218503,
				"z": -3.7845735769,
				"element": "H" 
			},
			{
				"x": -0.0968709209,
				"y": 3.443051622,
				"z": -2.708607076,
				"element": "H" 
			},
			{
				"x": -0.3042180576,
				"y": 1.4342653126,
				"z": -1.5830993898,
				"element": "H" 
			},
			{
				"x": 0.84387118,
				"y": -4.674584879,
				"z": -1.0758661151,
				"element": "H" 
			},
			{
				"x": 2.3364470845,
				"y": -4.8328518145,
				"z": -0.1275026345,
				"element": "H" 
			},
			{
				"x": 2.3651900773,
				"y": -3.9508284645,
				"z": -1.655996518,
				"element": "H" 
			},
			{
				"x": -2.5768634258,
				"y": -0.5906026789,
				"z": 1.4225544444,
				"element": "H" 
			},
			{
				"x": -4.0082117133,
				"y": 1.8890586255,
				"z": 4.5810987208,
				"element": "H" 
			},
			{
				"x": -3.6152271359,
				"y": 0.14700282,
				"z": 4.4672970035,
				"element": "H" 
			},
			{
				"x": -5.3073915844,
				"y": 0.6917322816,
				"z": 4.3045031246,
				"element": "H" 
			},
			{
				"x": -4.6983682117,
				"y": 4.869142355,
				"z": 3.0388848734,
				"element": "H" 
			},
			{
				"x": -4.9780370637,
				"y": 3.2912650676,
				"z": 2.2431444928,
				"element": "H" 
			},
			{
				"x": -4.0291080483,
				"y": 4.5608764766,
				"z": 1.413478358,
				"element": "H" 
			},
			{
				"x": -0.7079179672,
				"y": 3.9545993987,
				"z": 2.0314002567,
				"element": "H" 
			},
			{
				"x": 0.6358242878,
				"y": 2.2157540415,
				"z": 0.8629818905,
				"element": "H" 
			}
		],
		 "valence_orbital": [ 
			{
				"type": "occ",
				"energy": -0.24268,
				"method": "rhf"
			},
			{
				"type": "occ",
				"energy": -0.23722,
				"method": "rhf"
			},
			{
				"type": "occ",
				"energy": -0.22774,
				"method": "rhf"
			},
			{
				"type": "occ",
				"energy": -0.21656,
				"method": "rhf"
			},
			{
				"type": "occ",
				"energy": -0.20816,
				"method": "rhf"
			},
			{
				"type": "unocc",
				"energy": -0.04308,
				"method": "rhf"
			},
			{
				"type": "unocc",
				"energy": -0.00933,
				"method": "rhf"
			},
			{
				"type": "unocc",
				"energy": -0.00107,
				"method": "rhf"
			},
			{
				"type": "unocc",
				"energy": 0.00453,
				"method": "rhf"
			},
			{
				"type": "unocc",
				"energy": 0.02457,
				"method": "rhf"
			}
		],
		"cosmo_sigma_profile": { 
			"-0.025": 0.0,
			"-0.024": 0.0,
			"-0.023": 0.0,
			"-0.022": 0.0,
			"-0.021": 0.0,
			"-0.02": 0.0,
			"-0.019": 0.0,
			"-0.018": 0.0,
			"-0.017": 0.0,
			"-0.016": 0.0,
			"-0.015": 0.0,
			"-0.014": 0.0,
			"-0.013": 0.0,
			"-0.012": 0.0,
			"-0.011": 0.0,
			"-0.01": 0.0,
			"-0.009": 0.0,
			"-0.008": 0.0,
			"-0.007": 0.912209140766,
			"-0.006": 10.7033374892,
			"-0.005": 29.3798450321,
			"-0.004": 44.8429359095,
			"-0.003": 61.4818022271,
			"-0.002": 51.3773317595,
			"-0.001": 42.4815813063,
			"0.0": 36.5833220337,
			"0.001": 27.7389831137,
			"0.002": 22.8334317219,
			"0.003": 28.602991301,
			"0.004": 18.1886872911,
			"0.005": 9.39425318736,
			"0.006": 6.71285199173,
			"0.007": 6.98910500755,
			"0.008": 6.09759288577,
			"0.009": 6.39974050352,
			"0.01": 6.36928286192,
			"0.011": 5.80119029834,
			"0.012": 3.63456565749,
			"0.013": 3.12825828962,
			"0.014": 1.73793502692,
			"0.015": 0.979611089249,
			"0.016": 0.0501171797551,
			"0.017": 0.0,
			"0.018": 0.0,
			"0.019": 0.0,
			"0.02": 0.0,
			"0.021": 0.0,
			"0.022": 0.0,
			"0.023": 0.0,
			"0.024": 0.0,
			"0.025": 0.0
		}
	}
}
