{
	 "smiles": "CCCC1=CC=C(C=C1)N1CC(CC1=O)C(O)=O", 
	 "Tm": 410.15, 
	 "num_atms": 35, 
	 "gaussian": { 
		 "optdone": 1, 
		 "sigma_profile": "yes", 
		 "theory": "DFT", 
		 "functional": "B3LYP", 
		 "basiset": "6-31G**", 
		 "properties": { 
			 "R2extent": 7948.198, 
			 "electric_dipole_moment_norm": 2.33005451009, 
			 "electric_quadrupole_moment_norm": 27.9892569708, 
			 "total_energy": -824.196938101, 
			 "HOMO_LUMO_gap": 0.19949, 
			 "cosmo_polarized_energy": -20.55, 
			 "cosmo_cavitation_energy": 37.68, 
			 "cosmo_dispersion_energy": -26.87, 
			 "cosmo_repulsion_energy": 2.09, 
			 "cosmo_total_nonelectrostatic_energy": 12.89, 
			 "SMD_solvation_energy": 7.21 
		},
		"coords": [
			{
				"x": -2.2267055684,
				"y": -2.0006667248,
				"z": -3.543770666,
				"element": "C" 
			},
			{
				"x": -3.0271853435,
				"y": -2.1428991832,
				"z": -2.2461589541,
				"element": "C" 
			},
			{
				"x": -2.1607847964,
				"y": -2.4558601782,
				"z": -1.0055452738,
				"element": "C" 
			},
			{
				"x": -1.2074406912,
				"y": -1.3445472312,
				"z": -0.6201659665,
				"element": "C" 
			},
			{
				"x": 0.1596593349,
				"y": -1.4132174396,
				"z": -0.9047713171,
				"element": "C" 
			},
			{
				"x": 1.0307173506,
				"y": -0.3784634903,
				"z": -0.5637065793,
				"element": "C" 
			},
			{
				"x": 0.5503311918,
				"y": 0.7722231342,
				"z": 0.0801173843,
				"element": "C" 
			},
			{
				"x": -0.8221179321,
				"y": 0.8557871131,
				"z": 0.3778376033,
				"element": "C" 
			},
			{
				"x": -1.669928621,
				"y": -0.1908827776,
				"z": 0.029825767,
				"element": "C" 
			},
			{
				"x": 1.4512272875,
				"y": 1.8202839769,
				"z": 0.4037637729,
				"element": "N" 
			},
			{
				"x": 2.8281186087,
				"y": 1.8166040476,
				"z": -0.1037354775,
				"element": "C" 
			},
			{
				"x": 3.3472550687,
				"y": 3.2289953184,
				"z": 0.2098491439,
				"element": "C" 
			},
			{
				"x": 2.5126882576,
				"y": 3.6550896271,
				"z": 1.4336072493,
				"element": "C" 
			},
			{
				"x": 1.2162555462,
				"y": 2.8534049853,
				"z": 1.2954106137,
				"element": "C" 
			},
			{
				"x": 0.1830588614,
				"y": 3.0953182289,
				"z": 1.8948898234,
				"element": "O" 
			},
			{
				"x": 4.8547355264,
				"y": 3.2705516129,
				"z": 0.4243602973,
				"element": "C" 
			},
			{
				"x": 5.3648724526,
				"y": 4.5007840477,
				"z": 0.6908504097,
				"element": "O" 
			},
			{
				"x": 5.5812925927,
				"y": 2.309838265,
				"z": 0.3753668587,
				"element": "O" 
			},
			{
				"x": -2.884888299,
				"y": -1.7822377439,
				"z": -4.3910253991,
				"element": "H" 
			},
			{
				"x": -1.4923494125,
				"y": -1.1921076403,
				"z": -3.4727625897,
				"element": "H" 
			},
			{
				"x": -1.6826820325,
				"y": -2.9240266891,
				"z": -3.7754875207,
				"element": "H" 
			},
			{
				"x": -3.5947425707,
				"y": -1.2217728997,
				"z": -2.0614060223,
				"element": "H" 
			},
			{
				"x": -3.769141143,
				"y": -2.9435516532,
				"z": -2.3598818471,
				"element": "H" 
			},
			{
				"x": -2.8274481349,
				"y": -2.6673600022,
				"z": -0.1599935067,
				"element": "H" 
			},
			{
				"x": -1.5927845739,
				"y": -3.3764557978,
				"z": -1.1900416044,
				"element": "H" 
			},
			{
				"x": 0.5613087701,
				"y": -2.2954155679,
				"z": -1.3969044344,
				"element": "H" 
			},
			{
				"x": 2.0847586679,
				"y": -0.4875353271,
				"z": -0.7911136631,
				"element": "H" 
			},
			{
				"x": -1.2041157398,
				"y": 1.7264081517,
				"z": 0.8907265559,
				"element": "H" 
			},
			{
				"x": -2.7258088512,
				"y": -0.1059010069,
				"z": 0.2767979149,
				"element": "H" 
			},
			{
				"x": 3.446340927,
				"y": 1.0631487364,
				"z": 0.3972720294,
				"element": "H" 
			},
			{
				"x": 2.8408308303,
				"y": 1.604646659,
				"z": -1.1760514412,
				"element": "H" 
			},
			{
				"x": 3.10769184,
				"y": 3.8959334066,
				"z": -0.6291021046,
				"element": "H" 
			},
			{
				"x": 2.2831786997,
				"y": 4.7217173516,
				"z": 1.4917566609,
				"element": "H" 
			},
			{
				"x": 2.9922269024,
				"y": 3.3641832081,
				"z": 2.3764745474,
				"element": "H" 
			},
			{
				"x": 4.6617749937,
				"y": 5.1660834825,
				"z": 0.7008177357,
				"element": "H" 
			}
		],
		 "valence_orbital": [ 
			{
				"type": "occ",
				"energy": -0.29485,
				"method": "rhf"
			},
			{
				"type": "occ",
				"energy": -0.28772,
				"method": "rhf"
			},
			{
				"type": "occ",
				"energy": -0.2589,
				"method": "rhf"
			},
			{
				"type": "occ",
				"energy": -0.24989,
				"method": "rhf"
			},
			{
				"type": "occ",
				"energy": -0.21695,
				"method": "rhf"
			},
			{
				"type": "unocc",
				"energy": -0.01746,
				"method": "rhf"
			},
			{
				"type": "unocc",
				"energy": -0.00746,
				"method": "rhf"
			},
			{
				"type": "unocc",
				"energy": -0.00231,
				"method": "rhf"
			},
			{
				"type": "unocc",
				"energy": 0.03162,
				"method": "rhf"
			},
			{
				"type": "unocc",
				"energy": 0.03961,
				"method": "rhf"
			}
		],
		"cosmo_sigma_profile": { 
			"-0.025": 0.0,
			"-0.024": 0.0,
			"-0.023": 0.0,
			"-0.022": 0.0,
			"-0.021": 0.0,
			"-0.02": 0.0406310199117,
			"-0.019": 0.778321913933,
			"-0.018": 0.723182748068,
			"-0.017": 1.63281798672,
			"-0.016": 1.13661898574,
			"-0.015": 0.855594011285,
			"-0.014": 0.757739988703,
			"-0.013": 1.40584671042,
			"-0.012": 1.31178436444,
			"-0.011": 1.1867127693,
			"-0.01": 1.59654622159,
			"-0.009": 2.16087360324,
			"-0.008": 6.45495309515,
			"-0.007": 12.155539688,
			"-0.006": 14.3066786215,
			"-0.005": 13.5195128088,
			"-0.004": 13.3839087616,
			"-0.003": 21.3929825706,
			"-0.002": 25.5430545775,
			"-0.001": 24.2775757119,
			"0.0": 25.0623850336,
			"0.001": 25.2088577565,
			"0.002": 18.4656385842,
			"0.003": 10.8066140508,
			"0.004": 10.6571521009,
			"0.005": 12.2398843658,
			"0.006": 9.74015481603,
			"0.007": 4.70012075489,
			"0.008": 4.38091334359,
			"0.009": 5.00153027942,
			"0.01": 6.67260959165,
			"0.011": 7.94274367769,
			"0.012": 6.53321454911,
			"0.013": 3.41179865999,
			"0.014": 1.0493428543,
			"0.015": 0.0,
			"0.016": 0.0,
			"0.017": 0.0,
			"0.018": 0.0,
			"0.019": 0.0,
			"0.02": 0.0,
			"0.021": 0.0,
			"0.022": 0.0,
			"0.023": 0.0,
			"0.024": 0.0,
			"0.025": 0.0
		}
	}
}
