{
	 "smiles": "OCC1=CC(=O)C(O)=CO1", 
	 "Tm": 427.15, 
	 "num_atms": 16, 
	 "gaussian": { 
		 "optdone": 1, 
		 "sigma_profile": "yes", 
		 "theory": "DFT", 
		 "functional": "B3LYP", 
		 "basiset": "6-31G**", 
		 "properties": { 
			 "R2extent": 1823.6682, 
			 "electric_dipole_moment_norm": 3.43641332497, 
			 "electric_quadrupole_moment_norm": 7.673941168, 
			 "total_energy": -533.107636215, 
			 "HOMO_LUMO_gap": 0.18589, 
			 "cosmo_polarized_energy": -13.62, 
			 "cosmo_cavitation_energy": 20.64, 
			 "cosmo_dispersion_energy": -15.72, 
			 "cosmo_repulsion_energy": 1.29, 
			 "cosmo_total_nonelectrostatic_energy": 6.21, 
			 "SMD_solvation_energy": 5.65 
		},
		"coords": [
			{
				"x": -3.5279208568,
				"y": -1.4937326773,
				"z": 1.1459335812,
				"element": "O" 
			},
			{
				"x": -2.8330727961,
				"y": -0.3298458839,
				"z": 0.759123592,
				"element": "C" 
			},
			{
				"x": -1.3860532126,
				"y": -0.5915282578,
				"z": 0.4078518282,
				"element": "C" 
			},
			{
				"x": -0.7092290544,
				"y": -1.7409142003,
				"z": 0.6606963821,
				"element": "C" 
			},
			{
				"x": 0.6773535531,
				"y": -1.8681449311,
				"z": 0.2774199597,
				"element": "C" 
			},
			{
				"x": 1.4131470677,
				"y": -2.8534178889,
				"z": 0.4395935987,
				"element": "O" 
			},
			{
				"x": 1.2480422459,
				"y": -0.6747598986,
				"z": -0.3702516612,
				"element": "C" 
			},
			{
				"x": 2.5402489337,
				"y": -0.7777993039,
				"z": -0.7258142907,
				"element": "O" 
			},
			{
				"x": 0.49470701,
				"y": 0.4281290928,
				"z": -0.5755108467,
				"element": "C" 
			},
			{
				"x": -0.8223301447,
				"y": 0.4739553485,
				"z": -0.1972795423,
				"element": "O" 
			},
			{
				"x": -3.5984216769,
				"y": -2.0726444156,
				"z": 0.375146221,
				"element": "H" 
			},
			{
				"x": -2.8761183785,
				"y": 0.3550364587,
				"z": 1.6141892997,
				"element": "H" 
			},
			{
				"x": -3.3068854331,
				"y": 0.1912733039,
				"z": -0.0870878415,
				"element": "H" 
			},
			{
				"x": -1.212231899,
				"y": -2.5559747914,
				"z": 1.1655558746,
				"element": "H" 
			},
			{
				"x": 2.7765230478,
				"y": -1.6876647064,
				"z": -0.4374352004,
				"element": "H" 
			},
			{
				"x": 0.8243415939,
				"y": 1.3467327511,
				"z": -1.0402309544,
				"element": "H" 
			}
		],
		 "valence_orbital": [ 
			{
				"type": "occ",
				"energy": -0.35977,
				"method": "rhf"
			},
			{
				"type": "occ",
				"energy": -0.3056,
				"method": "rhf"
			},
			{
				"type": "occ",
				"energy": -0.27448,
				"method": "rhf"
			},
			{
				"type": "occ",
				"energy": -0.26162,
				"method": "rhf"
			},
			{
				"type": "occ",
				"energy": -0.23397,
				"method": "rhf"
			},
			{
				"type": "unocc",
				"energy": -0.04808,
				"method": "rhf"
			},
			{
				"type": "unocc",
				"energy": -0.00757,
				"method": "rhf"
			},
			{
				"type": "unocc",
				"energy": 0.05695,
				"method": "rhf"
			},
			{
				"type": "unocc",
				"energy": 0.08606,
				"method": "rhf"
			},
			{
				"type": "unocc",
				"energy": 0.11378,
				"method": "rhf"
			}
		],
		"cosmo_sigma_profile": { 
			"-0.025": 0.0,
			"-0.024": 0.0,
			"-0.023": 0.0,
			"-0.022": 0.0,
			"-0.021": 0.0,
			"-0.02": 0.0,
			"-0.019": 0.0,
			"-0.018": 0.0,
			"-0.017": 0.279043213348,
			"-0.016": 0.981893161076,
			"-0.015": 1.19644410658,
			"-0.014": 1.05637825119,
			"-0.013": 0.956702864132,
			"-0.012": 1.4173227354,
			"-0.011": 1.79889552805,
			"-0.01": 2.36578719105,
			"-0.009": 3.54007131875,
			"-0.008": 4.65183148423,
			"-0.007": 7.55798930374,
			"-0.006": 8.9489662597,
			"-0.005": 8.03898456365,
			"-0.004": 7.77174296191,
			"-0.003": 10.619335079,
			"-0.002": 11.6106733815,
			"-0.001": 11.0093908307,
			"0.0": 12.5110361823,
			"0.001": 11.3049722673,
			"0.002": 6.24823783487,
			"0.003": 4.78314907594,
			"0.004": 5.28263864486,
			"0.005": 5.37640916497,
			"0.006": 4.06692834175,
			"0.007": 2.30216567297,
			"0.008": 4.87036063378,
			"0.009": 3.28437204497,
			"0.01": 4.2700728419,
			"0.011": 5.33920986183,
			"0.012": 3.97968933673,
			"0.013": 4.74564315564,
			"0.014": 1.85813176343,
			"0.015": 0.318424824756,
			"0.016": 0.0,
			"0.017": 0.0,
			"0.018": 0.0,
			"0.019": 0.0,
			"0.02": 0.0,
			"0.021": 0.0,
			"0.022": 0.0,
			"0.023": 0.0,
			"0.024": 0.0,
			"0.025": 0.0
		}
	}
}
