{
	 "smiles": "NC1=C(C=CC=C1)C(=O)NC1=CC=C(Cl)C=C1", 
	 "Tm": 317.65, 
	 "num_atms": 28, 
	 "gaussian": { 
		 "optdone": 1, 
		 "sigma_profile": "yes", 
		 "theory": "DFT", 
		 "functional": "B3LYP", 
		 "basiset": "6-31G**", 
		 "properties": { 
			 "R2extent": 5797.4311, 
			 "electric_dipole_moment_norm": 1.2365800338, 
			 "electric_quadrupole_moment_norm": 15.2690596423, 
			 "total_energy": -1146.95595462, 
			 "HOMO_LUMO_gap": 0.16078, 
			 "cosmo_polarized_energy": -12.39, 
			 "cosmo_cavitation_energy": 33.78, 
			 "cosmo_dispersion_energy": -24.45, 
			 "cosmo_repulsion_energy": 1.91, 
			 "cosmo_total_nonelectrostatic_energy": 11.24, 
			 "SMD_solvation_energy": 5.7 
		},
		"coords": [
			{
				"x": 1.3660891471,
				"y": -2.4559798537,
				"z": 3.9820724204,
				"element": "N" 
			},
			{
				"x": 0.3692104623,
				"y": -1.6065862073,
				"z": 3.5657348519,
				"element": "C" 
			},
			{
				"x": -0.2010769949,
				"y": -1.7022711216,
				"z": 2.2620672513,
				"element": "C" 
			},
			{
				"x": -1.2338742155,
				"y": -0.8171467208,
				"z": 1.9001569919,
				"element": "C" 
			},
			{
				"x": -1.6832803323,
				"y": 0.1747946634,
				"z": 2.7597058159,
				"element": "C" 
			},
			{
				"x": -1.0835030718,
				"y": 0.298891574,
				"z": 4.0202411642,
				"element": "C" 
			},
			{
				"x": -0.0799462622,
				"y": -0.5714565019,
				"z": 4.4152999718,
				"element": "C" 
			},
			{
				"x": 0.2283354765,
				"y": -2.7941445007,
				"z": 1.3522343719,
				"element": "C" 
			},
			{
				"x": 0.6644099819,
				"y": -3.8743566686,
				"z": 1.7661139333,
				"element": "O" 
			},
			{
				"x": 0.0750161361,
				"y": -2.6472238222,
				"z": -0.021518169,
				"element": "N" 
			},
			{
				"x": 0.1444396079,
				"y": -1.5026422163,
				"z": -0.8526867565,
				"element": "C" 
			},
			{
				"x": -0.4880037577,
				"y": -1.5542967213,
				"z": -2.1030408844,
				"element": "C" 
			},
			{
				"x": -0.4088790245,
				"y": -0.4813637893,
				"z": -2.9882887977,
				"element": "C" 
			},
			{
				"x": 0.2939990436,
				"y": 0.6621567754,
				"z": -2.6129275165,
				"element": "C" 
			},
			{
				"x": 0.3866507226,
				"y": 2.0274004154,
				"z": -3.7164281542,
				"element": "Cl" 
			},
			{
				"x": 0.9287532026,
				"y": 0.7325412935,
				"z": -1.3730726423,
				"element": "C" 
			},
			{
				"x": 0.8657794713,
				"y": -0.3521723734,
				"z": -0.5015036741,
				"element": "C" 
			},
			{
				"x": 1.5589525706,
				"y": -2.4756648694,
				"z": 4.9716545038,
				"element": "H" 
			},
			{
				"x": 1.404883137,
				"y": -3.3424870943,
				"z": 3.4925121072,
				"element": "H" 
			},
			{
				"x": -1.6991452658,
				"y": -0.929063464,
				"z": 0.9272139187,
				"element": "H" 
			},
			{
				"x": -2.4868140866,
				"y": 0.8391185379,
				"z": 2.4600135491,
				"element": "H" 
			},
			{
				"x": -1.4142495247,
				"y": 1.0744795405,
				"z": 4.7057775866,
				"element": "H" 
			},
			{
				"x": 0.3665826927,
				"y": -0.4781407738,
				"z": 5.4022075749,
				"element": "H" 
			},
			{
				"x": 0.2411087486,
				"y": -3.5325642362,
				"z": -0.4863478772,
				"element": "H" 
			},
			{
				"x": -1.050878686,
				"y": -2.4410713481,
				"z": -2.3802122878,
				"element": "H" 
			},
			{
				"x": -0.8978615879,
				"y": -0.5287627524,
				"z": -3.9549065067,
				"element": "H" 
			},
			{
				"x": 1.4845023128,
				"y": 1.6218153186,
				"z": -1.0971458569,
				"element": "H" 
			},
			{
				"x": 1.3789000966,
				"y": -0.3037030835,
				"z": 0.4515731104,
				"element": "H" 
			}
		],
		 "valence_orbital": [ 
			{
				"type": "occ",
				"energy": -0.27162,
				"method": "rhf"
			},
			{
				"type": "occ",
				"energy": -0.26471,
				"method": "rhf"
			},
			{
				"type": "occ",
				"energy": -0.25293,
				"method": "rhf"
			},
			{
				"type": "occ",
				"energy": -0.22658,
				"method": "rhf"
			},
			{
				"type": "occ",
				"energy": -0.20522,
				"method": "rhf"
			},
			{
				"type": "unocc",
				"energy": -0.04444,
				"method": "rhf"
			},
			{
				"type": "unocc",
				"energy": -0.02146,
				"method": "rhf"
			},
			{
				"type": "unocc",
				"energy": -0.01089,
				"method": "rhf"
			},
			{
				"type": "unocc",
				"energy": 0.01279,
				"method": "rhf"
			},
			{
				"type": "unocc",
				"energy": 0.02812,
				"method": "rhf"
			}
		],
		"cosmo_sigma_profile": { 
			"-0.025": 0.0,
			"-0.024": 0.0,
			"-0.023": 0.0,
			"-0.022": 0.0,
			"-0.021": 0.0,
			"-0.02": 0.0,
			"-0.019": 0.0,
			"-0.018": 0.0,
			"-0.017": 0.0,
			"-0.016": 0.0,
			"-0.015": 0.054508161649,
			"-0.014": 0.845985591604,
			"-0.013": 1.58809125931,
			"-0.012": 2.23125544289,
			"-0.011": 2.5507130874,
			"-0.01": 2.33157066442,
			"-0.009": 2.97608839773,
			"-0.008": 4.32838535291,
			"-0.007": 9.3519075289,
			"-0.006": 13.1666660339,
			"-0.005": 16.5116581695,
			"-0.004": 15.8154300546,
			"-0.003": 15.8184753775,
			"-0.002": 13.7806893067,
			"-0.001": 15.4774028867,
			"0.0": 17.962129325,
			"0.001": 20.4236852139,
			"0.002": 23.9814859054,
			"0.003": 28.47995223,
			"0.004": 23.1656128608,
			"0.005": 18.9643777112,
			"0.006": 6.58997304999,
			"0.007": 1.48699144741,
			"0.008": 2.24924124662,
			"0.009": 2.13054549072,
			"0.01": 2.00214028909,
			"0.011": 2.60448396118,
			"0.012": 3.47599013958,
			"0.013": 1.91259070385,
			"0.014": 0.383116548481,
			"0.015": 0.0,
			"0.016": 0.0,
			"0.017": 0.0,
			"0.018": 0.0,
			"0.019": 0.0,
			"0.02": 0.0,
			"0.021": 0.0,
			"0.022": 0.0,
			"0.023": 0.0,
			"0.024": 0.0,
			"0.025": 0.0
		}
	}
}
