{
	 "smiles": "OC(=O)C1=CC(=CC(I)=C1)[N+]([O-])=O", 
	 "Tm": 441.15, 
	 "num_atms": 17, 
	 "gaussian": { 
		 "optdone": 1, 
		 "sigma_profile": "yes", 
		 "theory": "DFT", 
		 "functional": "B3LYP", 
		 "basiset": "6-31G**", 
		 "properties": { 
			 "R2extent": 3560.4891, 
			 "electric_dipole_moment_norm": 1.54467375196, 
			 "electric_quadrupole_moment_norm": 19.5264525777, 
			 "total_energy": -636.087517759, 
			 "HOMO_LUMO_gap": 0.15873, 
			 "cosmo_polarized_energy": -16.53, 
			 "cosmo_cavitation_energy": 26.56, 
			 "cosmo_dispersion_energy": -20.73, 
			 "cosmo_repulsion_energy": 1.61, 
			 "cosmo_total_nonelectrostatic_energy": 7.44, 
			 "SMD_solvation_energy": 7.18 
		},
		"coords": [
			{
				"x": -2.5380540184,
				"y": 1.5526381981,
				"z": 3.3852451152,
				"element": "O" 
			},
			{
				"x": -1.9417595434,
				"y": 0.4191661993,
				"z": 2.9455394407,
				"element": "C" 
			},
			{
				"x": -1.7721101954,
				"y": -0.5139025401,
				"z": 3.6920436339,
				"element": "O" 
			},
			{
				"x": -1.5140034051,
				"y": 0.3853002551,
				"z": 1.5014837902,
				"element": "C" 
			},
			{
				"x": -2.0361051379,
				"y": 1.2440132254,
				"z": 0.5313897682,
				"element": "C" 
			},
			{
				"x": -1.5900756961,
				"y": 1.1145583769,
				"z": -0.7800134458,
				"element": "C" 
			},
			{
				"x": -0.6468945848,
				"y": 0.1657964037,
				"z": -1.1638869118,
				"element": "C" 
			},
			{
				"x": -0.1442842757,
				"y": -0.6915571714,
				"z": -0.1829203425,
				"element": "C" 
			},
			{
				"x": 1.2825460301,
				"y": -2.1550155359,
				"z": -0.7154233338,
				"element": "I" 
			},
			{
				"x": -0.5771636915,
				"y": -0.5941746171,
				"z": 1.1389586277,
				"element": "C" 
			},
			{
				"x": -2.1429622472,
				"y": 2.019150128,
				"z": -1.8082679165,
				"element": "N" 
			},
			{
				"x": -1.7372377049,
				"y": 1.8852279528,
				"z": -2.9591962749,
				"element": "O" 
			},
			{
				"x": -2.9719190354,
				"y": 2.8492885663,
				"z": -1.4399054121,
				"element": "O" 
			},
			{
				"x": -2.4661774214,
				"y": 2.2634083957,
				"z": 2.7332734999,
				"element": "H" 
			},
			{
				"x": -2.7979875433,
				"y": 1.9860380043,
				"z": 0.7407332374,
				"element": "H" 
			},
			{
				"x": -0.3348135885,
				"y": 0.1131760277,
				"z": -2.1985788371,
				"element": "H" 
			},
			{
				"x": -0.210497941,
				"y": -1.2624118689,
				"z": 1.9091253614,
				"element": "H" 
			}
		],
		 "valence_orbital": [ 
			{
				"type": "occ",
				"energy": -0.31682,
				"method": "rhf"
			},
			{
				"type": "occ",
				"energy": -0.31179,
				"method": "rhf"
			},
			{
				"type": "occ",
				"energy": -0.29668,
				"method": "rhf"
			},
			{
				"type": "occ",
				"energy": -0.29243,
				"method": "rhf"
			},
			{
				"type": "occ",
				"energy": -0.27441,
				"method": "rhf"
			},
			{
				"type": "unocc",
				"energy": -0.11568,
				"method": "rhf"
			},
			{
				"type": "unocc",
				"energy": -0.08387,
				"method": "rhf"
			},
			{
				"type": "unocc",
				"energy": -0.06538,
				"method": "rhf"
			},
			{
				"type": "unocc",
				"energy": -0.0377,
				"method": "rhf"
			},
			{
				"type": "unocc",
				"energy": 0.02199,
				"method": "rhf"
			}
		],
		"cosmo_sigma_profile": { 
			"-0.025": 0.0,
			"-0.024": 0.0,
			"-0.023": 0.0,
			"-0.022": 0.0,
			"-0.021": 0.0593790024156,
			"-0.02": 0.555162050627,
			"-0.019": 1.02646592831,
			"-0.018": 1.59085779665,
			"-0.017": 0.64033435079,
			"-0.016": 0.775337993855,
			"-0.015": 0.979609733741,
			"-0.014": 1.36687995461,
			"-0.013": 1.40590635189,
			"-0.012": 0.987661630916,
			"-0.011": 0.926590790144,
			"-0.01": 0.931950885479,
			"-0.009": 1.48363428162,
			"-0.008": 5.79957782075,
			"-0.007": 7.83205009199,
			"-0.006": 8.04536351042,
			"-0.005": 11.2062152793,
			"-0.004": 12.1024565282,
			"-0.003": 15.9876970496,
			"-0.002": 18.7131756469,
			"-0.001": 18.2317232987,
			"0.0": 11.2455611333,
			"0.001": 8.96305699271,
			"0.002": 9.96477670593,
			"0.003": 17.5399460226,
			"0.004": 8.71866977889,
			"0.005": 4.93310570982,
			"0.006": 8.6945301692,
			"0.007": 11.1979672794,
			"0.008": 7.64678410186,
			"0.009": 7.38890367961,
			"0.01": 5.21459174741,
			"0.011": 4.99832537396,
			"0.012": 2.0630287916,
			"0.013": 0.184634741681,
			"0.014": 0.0,
			"0.015": 0.0,
			"0.016": 0.0,
			"0.017": 0.0,
			"0.018": 0.0,
			"0.019": 0.0,
			"0.02": 0.0,
			"0.021": 0.0,
			"0.022": 0.0,
			"0.023": 0.0,
			"0.024": 0.0,
			"0.025": 0.0
		}
	}
}
