{
	 "smiles": "CC(C)(C)S(=O)(=O)CC#N", 
	 "Tm": 416.15, 
	 "num_atms": 21, 
	 "gaussian": { 
		 "optdone": 1, 
		 "sigma_profile": "yes", 
		 "theory": "DFT", 
		 "functional": "B3LYP", 
		 "basiset": "6-31G**", 
		 "properties": { 
			 "R2extent": 2177.6088, 
			 "electric_dipole_moment_norm": 4.05597573218, 
			 "electric_quadrupole_moment_norm": 16.84269984, 
			 "total_energy": -838.579357373, 
			 "HOMO_LUMO_gap": 0.27021, 
			 "cosmo_polarized_energy": -16.75, 
			 "cosmo_cavitation_energy": 25.3, 
			 "cosmo_dispersion_energy": -17.63, 
			 "cosmo_repulsion_energy": 1.36, 
			 "cosmo_total_nonelectrostatic_energy": 9.02, 
			 "SMD_solvation_energy": 5.13 
		},
		"coords": [
			{
				"x": 1.801008144,
				"y": 2.8204623365,
				"z": -0.1045908112,
				"element": "C" 
			},
			{
				"x": 1.6939071375,
				"y": 1.3055367271,
				"z": -0.3167761037,
				"element": "C" 
			},
			{
				"x": 1.6920767874,
				"y": 0.9563836216,
				"z": -1.8162518806,
				"element": "C" 
			},
			{
				"x": 2.7871059048,
				"y": 0.5296361785,
				"z": 0.4273765299,
				"element": "C" 
			},
			{
				"x": 0.0117928787,
				"y": 0.7311744045,
				"z": 0.2710548785,
				"element": "S" 
			},
			{
				"x": 0.0127057662,
				"y": -0.7354344417,
				"z": 0.3632668949,
				"element": "O" 
			},
			{
				"x": -1.0132194678,
				"y": 1.4384323893,
				"z": -0.5150117521,
				"element": "O" 
			},
			{
				"x": -0.2611650412,
				"y": 1.3909599203,
				"z": 1.9931179583,
				"element": "C" 
			},
			{
				"x": 0.6112085359,
				"y": 0.8610498545,
				"z": 3.0253216185,
				"element": "C" 
			},
			{
				"x": 1.3185311147,
				"y": 0.4501007657,
				"z": 3.8491459043,
				"element": "N" 
			},
			{
				"x": 1.8644189687,
				"y": 3.0864888957,
				"z": 0.9551343989,
				"element": "H" 
			},
			{
				"x": 0.9593618218,
				"y": 3.3491804591,
				"z": -0.5596959445,
				"element": "H" 
			},
			{
				"x": 2.7211077618,
				"y": 3.1751955638,
				"z": -0.5802985299,
				"element": "H" 
			},
			{
				"x": 1.5625520207,
				"y": -0.1178781547,
				"z": -1.9715521328,
				"element": "H" 
			},
			{
				"x": 0.900467471,
				"y": 1.4868027423,
				"z": -2.3496028642,
				"element": "H" 
			},
			{
				"x": 2.6584838604,
				"y": 1.249765565,
				"z": -2.2384495398,
				"element": "H" 
			},
			{
				"x": 2.8206754329,
				"y": 0.7702543969,
				"z": 1.4921574111,
				"element": "H" 
			},
			{
				"x": 3.7560112601,
				"y": 0.7978131833,
				"z": -0.0075653975,
				"element": "H" 
			},
			{
				"x": 2.6469592972,
				"y": -0.5479845113,
				"z": 0.3205943542,
				"element": "H" 
			},
			{
				"x": -0.2082844357,
				"y": 2.4805186708,
				"z": 1.9439108553,
				"element": "H" 
			},
			{
				"x": -1.300405219,
				"y": 1.1024414328,
				"z": 2.1790141522,
				"element": "H" 
			}
		],
		 "valence_orbital": [ 
			{
				"type": "occ",
				"energy": -0.34651,
				"method": "rhf"
			},
			{
				"type": "occ",
				"energy": -0.33089,
				"method": "rhf"
			},
			{
				"type": "occ",
				"energy": -0.32795,
				"method": "rhf"
			},
			{
				"type": "occ",
				"energy": -0.31074,
				"method": "rhf"
			},
			{
				"type": "occ",
				"energy": -0.29199,
				"method": "rhf"
			},
			{
				"type": "unocc",
				"energy": -0.02178,
				"method": "rhf"
			},
			{
				"type": "unocc",
				"energy": 0.01245,
				"method": "rhf"
			},
			{
				"type": "unocc",
				"energy": 0.04028,
				"method": "rhf"
			},
			{
				"type": "unocc",
				"energy": 0.04824,
				"method": "rhf"
			},
			{
				"type": "unocc",
				"energy": 0.05739,
				"method": "rhf"
			}
		],
		"cosmo_sigma_profile": { 
			"-0.025": 0.0,
			"-0.024": 0.0,
			"-0.023": 0.0,
			"-0.022": 0.0,
			"-0.021": 0.0,
			"-0.02": 0.0,
			"-0.019": 0.0,
			"-0.018": 0.0,
			"-0.017": 0.0,
			"-0.016": 0.0,
			"-0.015": 0.0,
			"-0.014": 0.0,
			"-0.013": 0.351114464911,
			"-0.012": 2.52297565467,
			"-0.011": 4.41064631959,
			"-0.01": 4.4036879034,
			"-0.009": 4.27938385432,
			"-0.008": 4.32617318395,
			"-0.007": 4.96432126783,
			"-0.006": 7.69288047686,
			"-0.005": 11.8694369556,
			"-0.004": 14.4327577839,
			"-0.003": 17.5633026297,
			"-0.002": 18.3899705548,
			"-0.001": 20.4433851976,
			"0.0": 10.341204434,
			"0.001": 6.79293554691,
			"0.002": 4.54465160259,
			"0.003": 4.62341263302,
			"0.004": 5.09664890771,
			"0.005": 4.66456978911,
			"0.006": 5.20369974951,
			"0.007": 5.84469277443,
			"0.008": 5.46945241761,
			"0.009": 6.532452777,
			"0.01": 10.0942355289,
			"0.011": 10.6515868932,
			"0.012": 3.5346021577,
			"0.013": 0.0485450081037,
			"0.014": 0.0,
			"0.015": 0.0,
			"0.016": 0.0,
			"0.017": 0.0,
			"0.018": 0.0,
			"0.019": 0.0,
			"0.02": 0.0,
			"0.021": 0.0,
			"0.022": 0.0,
			"0.023": 0.0,
			"0.024": 0.0,
			"0.025": 0.0
		}
	}
}
