{
	 "smiles": "CCOC(=O)C1=C(NC(=O)NC2=CC=C(Cl)C=C2)NN=C1", 
	 "Tm": 533.15, 
	 "num_atms": 34, 
	 "gaussian": { 
		 "optdone": 1, 
		 "sigma_profile": "yes", 
		 "theory": "DFT", 
		 "functional": "B3LYP", 
		 "basiset": "6-31G**", 
		 "properties": { 
			 "R2extent": 11587.0678, 
			 "electric_dipole_moment_norm": 1.01502554648, 
			 "electric_quadrupole_moment_norm": 23.2692875445, 
			 "total_energy": -1408.11220493, 
			 "HOMO_LUMO_gap": 0.19007, 
			 "cosmo_polarized_energy": -22.05, 
			 "cosmo_cavitation_energy": 41.63, 
			 "cosmo_dispersion_energy": -29.53, 
			 "cosmo_repulsion_energy": 2.27, 
			 "cosmo_total_nonelectrostatic_energy": 14.36, 
			 "SMD_solvation_energy": 7.77 
		},
		"coords": [
			{
				"x": -0.1798681504,
				"y": -4.2500816803,
				"z": 3.026341324,
				"element": "C" 
			},
			{
				"x": -0.6741554223,
				"y": -2.954738211,
				"z": 3.6411346994,
				"element": "C" 
			},
			{
				"x": -0.8097046548,
				"y": -1.9849899003,
				"z": 2.5734144712,
				"element": "O" 
			},
			{
				"x": -1.2473573055,
				"y": -0.7460653313,
				"z": 2.9499564851,
				"element": "C" 
			},
			{
				"x": -1.5204716759,
				"y": -0.4598581977,
				"z": 4.098358527,
				"element": "O" 
			},
			{
				"x": -1.3540753373,
				"y": 0.1612455665,
				"z": 1.8111795782,
				"element": "C" 
			},
			{
				"x": -1.0009354358,
				"y": -0.0443377293,
				"z": 0.4739945158,
				"element": "C" 
			},
			{
				"x": -0.4775989984,
				"y": -1.1729660978,
				"z": -0.1230119682,
				"element": "N" 
			},
			{
				"x": 0.234639805,
				"y": -1.3402634132,
				"z": -1.317268534,
				"element": "C" 
			},
			{
				"x": 0.4110206543,
				"y": -2.4578797508,
				"z": -1.7715070243,
				"element": "O" 
			},
			{
				"x": 0.6879804411,
				"y": -0.1610729594,
				"z": -1.8839863481,
				"element": "N" 
			},
			{
				"x": 1.4206530942,
				"y": -0.0297441811,
				"z": -3.0878572332,
				"element": "C" 
			},
			{
				"x": 1.5231573508,
				"y": -1.0490792804,
				"z": -4.0453650747,
				"element": "C" 
			},
			{
				"x": 2.2328794564,
				"y": -0.8219486276,
				"z": -5.2237091228,
				"element": "C" 
			},
			{
				"x": 2.8378346361,
				"y": 0.412213673,
				"z": -5.4527431672,
				"element": "C" 
			},
			{
				"x": 3.7303742504,
				"y": 0.6856564317,
				"z": -6.9416378849,
				"element": "Cl" 
			},
			{
				"x": 2.7431283291,
				"y": 1.4329776306,
				"z": -4.5082834055,
				"element": "C" 
			},
			{
				"x": 2.0352746152,
				"y": 1.2075214306,
				"z": -3.3315665104,
				"element": "C" 
			},
			{
				"x": -1.3096171579,
				"y": 1.1100950783,
				"z": -0.1763223055,
				"element": "N" 
			},
			{
				"x": -1.8632257921,
				"y": 2.057439505,
				"z": 0.647336531,
				"element": "N" 
			},
			{
				"x": -1.8788052642,
				"y": 1.482959116,
				"z": 1.8350913122,
				"element": "C" 
			},
			{
				"x": -0.0622876683,
				"y": -5.0076260568,
				"z": 3.8072359038,
				"element": "H" 
			},
			{
				"x": -0.8896793754,
				"y": -4.6319695997,
				"z": 2.2863779616,
				"element": "H" 
			},
			{
				"x": 0.7892219556,
				"y": -4.1105782813,
				"z": 2.5381678772,
				"element": "H" 
			},
			{
				"x": -1.6455822241,
				"y": -3.0743694899,
				"z": 4.1300679548,
				"element": "H" 
			},
			{
				"x": 0.0233201168,
				"y": -2.5592875002,
				"z": 4.3855789998,
				"element": "H" 
			},
			{
				"x": -0.5557241991,
				"y": -2.0168097024,
				"z": 0.4324536555,
				"element": "H" 
			},
			{
				"x": 0.7590075106,
				"y": 0.6324444689,
				"z": -1.2605221804,
				"element": "H" 
			},
			{
				"x": 1.0660433444,
				"y": -2.0101251856,
				"z": -3.8584798261,
				"element": "H" 
			},
			{
				"x": 2.3150439059,
				"y": -1.6107454543,
				"z": -5.9632840608,
				"element": "H" 
			},
			{
				"x": 3.2166775838,
				"y": 2.3914918578,
				"z": -4.6882308755,
				"element": "H" 
			},
			{
				"x": 1.9627440924,
				"y": 2.0050053363,
				"z": -2.5955056406,
				"element": "H" 
			},
			{
				"x": -1.337473809,
				"y": 1.2517223435,
				"z": -1.1749698582,
				"element": "H" 
			},
			{
				"x": -2.2586386714,
				"y": 2.0108641921,
				"z": 2.6987612236,
				"element": "H" 
			}
		],
		 "valence_orbital": [ 
			{
				"type": "occ",
				"energy": -0.28398,
				"method": "rhf"
			},
			{
				"type": "occ",
				"energy": -0.28039,
				"method": "rhf"
			},
			{
				"type": "occ",
				"energy": -0.27208,
				"method": "rhf"
			},
			{
				"type": "occ",
				"energy": -0.24454,
				"method": "rhf"
			},
			{
				"type": "occ",
				"energy": -0.23003,
				"method": "rhf"
			},
			{
				"type": "unocc",
				"energy": -0.03996,
				"method": "rhf"
			},
			{
				"type": "unocc",
				"energy": -0.02264,
				"method": "rhf"
			},
			{
				"type": "unocc",
				"energy": -0.01623,
				"method": "rhf"
			},
			{
				"type": "unocc",
				"energy": 0.00315,
				"method": "rhf"
			},
			{
				"type": "unocc",
				"energy": 0.02534,
				"method": "rhf"
			}
		],
		"cosmo_sigma_profile": { 
			"-0.025": 0.0,
			"-0.024": 0.0,
			"-0.023": 0.0,
			"-0.022": 0.0,
			"-0.021": 0.0,
			"-0.02": 0.0,
			"-0.019": 0.0,
			"-0.018": 0.0,
			"-0.017": 0.403978871012,
			"-0.016": 1.28525598004,
			"-0.015": 2.54102572915,
			"-0.014": 3.08167511718,
			"-0.013": 2.32461613968,
			"-0.012": 2.85394083519,
			"-0.011": 2.18319758838,
			"-0.01": 2.29658851935,
			"-0.009": 3.04277454782,
			"-0.008": 4.98433912668,
			"-0.007": 8.51553700337,
			"-0.006": 10.1792658617,
			"-0.005": 16.7768516157,
			"-0.004": 22.8634822107,
			"-0.003": 26.0285317505,
			"-0.002": 24.8788164338,
			"-0.001": 25.3824823215,
			"0.0": 26.0765291321,
			"0.001": 23.1516127956,
			"0.002": 24.7327682845,
			"0.003": 24.9115396857,
			"0.004": 19.5832834958,
			"0.005": 13.6182286428,
			"0.006": 4.51523669098,
			"0.007": 4.55478583886,
			"0.008": 4.17101309794,
			"0.009": 4.1407269586,
			"0.01": 4.66448399647,
			"0.011": 6.32896944157,
			"0.012": 9.40997722602,
			"0.013": 3.81422383867,
			"0.014": 1.20845981481,
			"0.015": 0.761730121804,
			"0.016": 0.00819188393125,
			"0.017": 0.0,
			"0.018": 0.0,
			"0.019": 0.0,
			"0.02": 0.0,
			"0.021": 0.0,
			"0.022": 0.0,
			"0.023": 0.0,
			"0.024": 0.0,
			"0.025": 0.0
		}
	}
}
