{
	 "smiles": "ClCC1CN(CC2=CC=CC=C2)CCO1", 
	 "Tm": 321.15, 
	 "num_atms": 31, 
	 "gaussian": { 
		 "optdone": 1, 
		 "sigma_profile": "yes", 
		 "theory": "DFT", 
		 "functional": "B3LYP", 
		 "basiset": "6-31G**", 
		 "properties": { 
			 "R2extent": 4776.5773, 
			 "electric_dipole_moment_norm": 3.89275170284, 
			 "electric_quadrupole_moment_norm": 17.2654122661, 
			 "total_energy": -1057.06436734, 
			 "HOMO_LUMO_gap": 0.21151, 
			 "cosmo_polarized_energy": -10.8, 
			 "cosmo_cavitation_energy": 34.35, 
			 "cosmo_dispersion_energy": -24.1, 
			 "cosmo_repulsion_energy": 1.91, 
			 "cosmo_total_nonelectrostatic_energy": 12.16, 
			 "SMD_solvation_energy": 4.0 
		},
		"coords": [
			{
				"x": -2.4215618281,
				"y": -0.8378279321,
				"z": -3.86621886,
				"element": "Cl" 
			},
			{
				"x": -1.6176757979,
				"y": -0.7486179309,
				"z": -2.2439155937,
				"element": "C" 
			},
			{
				"x": -1.0227940489,
				"y": 0.6233381915,
				"z": -1.9599196612,
				"element": "C" 
			},
			{
				"x": -0.4170106015,
				"y": 0.6630386974,
				"z": -0.5320436829,
				"element": "C" 
			},
			{
				"x": 0.9605042996,
				"y": 0.1925270165,
				"z": -0.5881500856,
				"element": "N" 
			},
			{
				"x": 1.5401308168,
				"y": -0.1243791745,
				"z": 0.7148079465,
				"element": "C" 
			},
			{
				"x": 0.8944901417,
				"y": -1.3249258498,
				"z": 1.3802245038,
				"element": "C" 
			},
			{
				"x": 0.4343740022,
				"y": -1.2561891879,
				"z": 2.6994688496,
				"element": "C" 
			},
			{
				"x": -0.1283372932,
				"y": -2.3749479682,
				"z": 3.3197612388,
				"element": "C" 
			},
			{
				"x": -0.2421545199,
				"y": -3.5767854373,
				"z": 2.6213558441,
				"element": "C" 
			},
			{
				"x": 0.2101086311,
				"y": -3.6546020466,
				"z": 1.3007062409,
				"element": "C" 
			},
			{
				"x": 0.7745964205,
				"y": -2.5379225452,
				"z": 0.6863301398,
				"element": "C" 
			},
			{
				"x": 1.803008802,
				"y": 1.1144585295,
				"z": -1.3589277743,
				"element": "C" 
			},
			{
				"x": 0.9786389576,
				"y": 1.7543001056,
				"z": -2.4936025922,
				"element": "C" 
			},
			{
				"x": -0.0289223315,
				"y": 0.8703207825,
				"z": -2.9492970292,
				"element": "O" 
			},
			{
				"x": -2.3846611433,
				"y": -0.9940929388,
				"z": -1.5077743441,
				"element": "H" 
			},
			{
				"x": -0.8323206774,
				"y": -1.5043916111,
				"z": -2.2302930097,
				"element": "H" 
			},
			{
				"x": -1.8167795986,
				"y": 1.3840474914,
				"z": -2.0332168982,
				"element": "H" 
			},
			{
				"x": -0.9890494307,
				"y": 0.0106453834,
				"z": 0.134326355,
				"element": "H" 
			},
			{
				"x": -0.4984632502,
				"y": 1.6855511973,
				"z": -0.1150468338,
				"element": "H" 
			},
			{
				"x": 1.5084161251,
				"y": 0.7416111179,
				"z": 1.4047791394,
				"element": "H" 
			},
			{
				"x": 2.603837288,
				"y": -0.3375336475,
				"z": 0.5430237969,
				"element": "H" 
			},
			{
				"x": 0.5179763674,
				"y": -0.3199050755,
				"z": 3.2464715502,
				"element": "H" 
			},
			{
				"x": -0.4808371423,
				"y": -2.3040107691,
				"z": 4.3449503595,
				"element": "H" 
			},
			{
				"x": -0.6811747822,
				"y": -4.4474615554,
				"z": 3.10005299,
				"element": "H" 
			},
			{
				"x": 0.1246412419,
				"y": -4.5880513015,
				"z": 0.7512516722,
				"element": "H" 
			},
			{
				"x": 1.1230856835,
				"y": -2.5928135437,
				"z": -0.3410174159,
				"element": "H" 
			},
			{
				"x": 2.6505866117,
				"y": 0.5485375569,
				"z": -1.7641928569,
				"element": "H" 
			},
			{
				"x": 2.2197552661,
				"y": 1.924434512,
				"z": -0.7291638409,
				"element": "H" 
			},
			{
				"x": 0.5343529766,
				"y": 2.7049629346,
				"z": -2.1587968342,
				"element": "H" 
			},
			{
				"x": 1.614038814,
				"y": 1.9764849986,
				"z": -3.354733314,
				"element": "H" 
			}
		],
		 "valence_orbital": [ 
			{
				"type": "occ",
				"energy": -0.28352,
				"method": "rhf"
			},
			{
				"type": "occ",
				"energy": -0.25528,
				"method": "rhf"
			},
			{
				"type": "occ",
				"energy": -0.25326,
				"method": "rhf"
			},
			{
				"type": "occ",
				"energy": -0.24819,
				"method": "rhf"
			},
			{
				"type": "occ",
				"energy": -0.22027,
				"method": "rhf"
			},
			{
				"type": "unocc",
				"energy": -0.00876,
				"method": "rhf"
			},
			{
				"type": "unocc",
				"energy": -0.00376,
				"method": "rhf"
			},
			{
				"type": "unocc",
				"energy": 0.03447,
				"method": "rhf"
			},
			{
				"type": "unocc",
				"energy": 0.07873,
				"method": "rhf"
			},
			{
				"type": "unocc",
				"energy": 0.0885,
				"method": "rhf"
			}
		],
		"cosmo_sigma_profile": { 
			"-0.025": 0.0,
			"-0.024": 0.0,
			"-0.023": 0.0,
			"-0.022": 0.0,
			"-0.021": 0.0,
			"-0.02": 0.0,
			"-0.019": 0.0,
			"-0.018": 0.0,
			"-0.017": 0.0,
			"-0.016": 0.0,
			"-0.015": 0.0,
			"-0.014": 0.0,
			"-0.013": 0.0,
			"-0.012": 0.0,
			"-0.011": 0.0,
			"-0.01": 0.0,
			"-0.009": 0.0,
			"-0.008": 1.18625561294,
			"-0.007": 3.38843952447,
			"-0.006": 5.59793515396,
			"-0.005": 18.5144512723,
			"-0.004": 33.8189295901,
			"-0.003": 38.244183517,
			"-0.002": 31.6392773932,
			"-0.001": 21.7437705767,
			"0.0": 14.4100201962,
			"0.001": 12.7414971614,
			"0.002": 13.671813654,
			"0.003": 10.8655159697,
			"0.004": 12.1745143609,
			"0.005": 14.7106545784,
			"0.006": 16.363206801,
			"0.007": 9.27001539806,
			"0.008": 2.8237408092,
			"0.009": 2.3780729942,
			"0.01": 3.05870620021,
			"0.011": 1.90348890623,
			"0.012": 1.67476284443,
			"0.013": 1.3637992673,
			"0.014": 0.155677220122,
			"0.015": 0.0,
			"0.016": 0.0,
			"0.017": 0.0,
			"0.018": 0.0,
			"0.019": 0.0,
			"0.02": 0.0,
			"0.021": 0.0,
			"0.022": 0.0,
			"0.023": 0.0,
			"0.024": 0.0,
			"0.025": 0.0
		}
	}
}
