{
	 "smiles": "CC1=C(C)C=C(C=C1)C1=CC=CC=C1", 
	 "Tm": 302.65, 
	 "num_atms": 28, 
	 "gaussian": { 
		 "optdone": 1, 
		 "sigma_profile": "yes", 
		 "theory": "DFT", 
		 "functional": "B3LYP", 
		 "basiset": "6-31G**", 
		 "properties": { 
			 "R2extent": 3668.9478, 
			 "electric_dipole_moment_norm": 0.750313034673, 
			 "electric_quadrupole_moment_norm": 7.7731770313, 
			 "total_energy": -541.951171541, 
			 "HOMO_LUMO_gap": 0.19246, 
			 "cosmo_polarized_energy": -5.25, 
			 "cosmo_cavitation_energy": 30.74, 
			 "cosmo_dispersion_energy": -22.34, 
			 "cosmo_repulsion_energy": 1.73, 
			 "cosmo_total_nonelectrostatic_energy": 10.13, 
			 "SMD_solvation_energy": 5.02 
		},
		"coords": [
			{
				"x": 1.5731626982,
				"y": 3.70819152,
				"z": -1.3739755076,
				"element": "C" 
			},
			{
				"x": 0.859632495,
				"y": 2.4894864621,
				"z": -0.840264193,
				"element": "C" 
			},
			{
				"x": 1.1314316419,
				"y": 1.9950043935,
				"z": 0.4539048306,
				"element": "C" 
			},
			{
				"x": 2.1538441365,
				"y": 2.6682682099,
				"z": 1.3390265286,
				"element": "C" 
			},
			{
				"x": 0.4489736708,
				"y": 0.8641439309,
				"z": 0.9089921427,
				"element": "C" 
			},
			{
				"x": -0.5045818118,
				"y": 0.1937471585,
				"z": 0.1252317279,
				"element": "C" 
			},
			{
				"x": -0.7627343994,
				"y": 0.6966289777,
				"z": -1.1575830192,
				"element": "C" 
			},
			{
				"x": -0.088764591,
				"y": 1.8234639093,
				"z": -1.6236283178,
				"element": "C" 
			},
			{
				"x": -1.2127823624,
				"y": -1.005896362,
				"z": 0.6399456034,
				"element": "C" 
			},
			{
				"x": -1.5081379653,
				"y": -2.0887621724,
				"z": -0.2063052944,
				"element": "C" 
			},
			{
				"x": -2.1750708235,
				"y": -3.2147641494,
				"z": 0.2744427305,
				"element": "C" 
			},
			{
				"x": -2.5603465379,
				"y": -3.2859351541,
				"z": 1.6145675941,
				"element": "C" 
			},
			{
				"x": -2.2731446306,
				"y": -2.2190628951,
				"z": 2.4681638348,
				"element": "C" 
			},
			{
				"x": -1.6085420076,
				"y": -1.0922236811,
				"z": 1.9859760286,
				"element": "C" 
			},
			{
				"x": 2.6596618147,
				"y": 3.5601469074,
				"z": -1.4086342334,
				"element": "H" 
			},
			{
				"x": 1.2381633548,
				"y": 3.9488295506,
				"z": -2.3864102277,
				"element": "H" 
			},
			{
				"x": 1.3973480308,
				"y": 4.5902490458,
				"z": -0.745827175,
				"element": "H" 
			},
			{
				"x": 2.2433299154,
				"y": 2.1551014296,
				"z": 2.3000660455,
				"element": "H" 
			},
			{
				"x": 3.1471784793,
				"y": 2.6817289682,
				"z": 0.8739448024,
				"element": "H" 
			},
			{
				"x": 1.8883604109,
				"y": 3.713130073,
				"z": 1.5417709431,
				"element": "H" 
			},
			{
				"x": 0.6852175529,
				"y": 0.4759716159,
				"z": 1.8964503687,
				"element": "H" 
			},
			{
				"x": -1.512735371,
				"y": 0.2216896462,
				"z": -1.7830950493,
				"element": "H" 
			},
			{
				"x": -0.3108136037,
				"y": 2.2022074456,
				"z": -2.6185423139,
				"element": "H" 
			},
			{
				"x": -1.1888663755,
				"y": -2.0555963613,
				"z": -1.2438673108,
				"element": "H" 
			},
			{
				"x": -2.3856122179,
				"y": -4.0423560833,
				"z": -0.3973864093,
				"element": "H" 
			},
			{
				"x": -3.0789531173,
				"y": -4.1635026951,
				"z": 1.9897108423,
				"element": "H" 
			},
			{
				"x": -2.5757560036,
				"y": -2.2593259394,
				"z": 3.5109518454,
				"element": "H" 
			},
			{
				"x": -1.4149623824,
				"y": -0.2567637508,
				"z": 2.6523731828,
				"element": "H" 
			}
		],
		 "valence_orbital": [ 
			{
				"type": "occ",
				"energy": -0.32438,
				"method": "rhf"
			},
			{
				"type": "occ",
				"energy": -0.26265,
				"method": "rhf"
			},
			{
				"type": "occ",
				"energy": -0.24607,
				"method": "rhf"
			},
			{
				"type": "occ",
				"energy": -0.23828,
				"method": "rhf"
			},
			{
				"type": "occ",
				"energy": -0.21379,
				"method": "rhf"
			},
			{
				"type": "unocc",
				"energy": -0.02133,
				"method": "rhf"
			},
			{
				"type": "unocc",
				"energy": 0.00159,
				"method": "rhf"
			},
			{
				"type": "unocc",
				"energy": 0.00697,
				"method": "rhf"
			},
			{
				"type": "unocc",
				"energy": 0.03445,
				"method": "rhf"
			},
			{
				"type": "unocc",
				"energy": 0.09462,
				"method": "rhf"
			}
		],
		"cosmo_sigma_profile": { 
			"-0.025": 0.0,
			"-0.024": 0.0,
			"-0.023": 0.0,
			"-0.022": 0.0,
			"-0.021": 0.0,
			"-0.02": 0.0,
			"-0.019": 0.0,
			"-0.018": 0.0,
			"-0.017": 0.0,
			"-0.016": 0.0,
			"-0.015": 0.0,
			"-0.014": 0.0,
			"-0.013": 0.0,
			"-0.012": 0.0,
			"-0.011": 0.0,
			"-0.01": 0.0,
			"-0.009": 0.0,
			"-0.008": 0.0,
			"-0.007": 0.0,
			"-0.006": 2.76529444144,
			"-0.005": 14.8838343833,
			"-0.004": 28.3038773795,
			"-0.003": 29.4313619115,
			"-0.002": 21.976933187,
			"-0.001": 21.5550966493,
			"0.0": 25.3878406314,
			"0.001": 18.3896582313,
			"0.002": 14.6302434009,
			"0.003": 15.2036296439,
			"0.004": 16.8320693544,
			"0.005": 15.9432376498,
			"0.006": 16.3216574013,
			"0.007": 2.48862296094,
			"0.008": 0.0,
			"0.009": 0.0,
			"0.01": 0.0,
			"0.011": 0.0,
			"0.012": 0.0,
			"0.013": 0.0,
			"0.014": 0.0,
			"0.015": 0.0,
			"0.016": 0.0,
			"0.017": 0.0,
			"0.018": 0.0,
			"0.019": 0.0,
			"0.02": 0.0,
			"0.021": 0.0,
			"0.022": 0.0,
			"0.023": 0.0,
			"0.024": 0.0,
			"0.025": 0.0
		}
	}
}
