{
	 "smiles": "OC(=O)C(CC=C)NC(=O)OCC1C2=C(C=CC=C2)C2=C1C=CC=C2", 
	 "Tm": 410.15, 
	 "num_atms": 44, 
	 "gaussian": { 
		 "optdone": 1, 
		 "sigma_profile": "yes", 
		 "theory": "DFT", 
		 "functional": "B3LYP", 
		 "basiset": "6-31G**", 
		 "properties": { 
			 "R2extent": 7937.3136, 
			 "electric_dipole_moment_norm": 4.3203785274, 
			 "electric_quadrupole_moment_norm": 23.8714161076, 
			 "total_energy": -1129.25259892, 
			 "HOMO_LUMO_gap": 0.18385, 
			 "cosmo_polarized_energy": -19.48, 
			 "cosmo_cavitation_energy": 48.12, 
			 "cosmo_dispersion_energy": -29.58, 
			 "cosmo_repulsion_energy": 2.24, 
			 "cosmo_total_nonelectrostatic_energy": 20.78, 
			 "SMD_solvation_energy": 9.43 
		},
		"coords": [
			{
				"x": -2.775775856,
				"y": 1.9158249403,
				"z": 0.9384691274,
				"element": "O" 
			},
			{
				"x": -2.7901475555,
				"y": 0.6247429497,
				"z": 1.3119904198,
				"element": "C" 
			},
			{
				"x": -3.3855151019,
				"y": 0.2592541252,
				"z": 2.2974787317,
				"element": "O" 
			},
			{
				"x": -1.9797351744,
				"y": -0.3367330659,
				"z": 0.4085963452,
				"element": "C" 
			},
			{
				"x": -2.0583197696,
				"y": -1.7747170414,
				"z": 0.9469122967,
				"element": "C" 
			},
			{
				"x": -1.2928283183,
				"y": -2.7564712915,
				"z": 0.1029269271,
				"element": "C" 
			},
			{
				"x": -1.8195954168,
				"y": -3.8537464037,
				"z": -0.4431816318,
				"element": "C" 
			},
			{
				"x": -2.455656713,
				"y": -0.2950417906,
				"z": -0.9823425045,
				"element": "N" 
			},
			{
				"x": -1.9857057709,
				"y": 0.5165287361,
				"z": -1.9699512773,
				"element": "C" 
			},
			{
				"x": -2.1446118112,
				"y": 0.3447038584,
				"z": -3.1611578976,
				"element": "O" 
			},
			{
				"x": -1.3332347244,
				"y": 1.6038223623,
				"z": -1.4255396761,
				"element": "O" 
			},
			{
				"x": -0.6063956753,
				"y": 2.4538257974,
				"z": -2.3382929052,
				"element": "C" 
			},
			{
				"x": 0.9019813973,
				"y": 2.3282965206,
				"z": -2.0896292101,
				"element": "C" 
			},
			{
				"x": 1.341758966,
				"y": 2.7401459317,
				"z": -0.6914446407,
				"element": "C" 
			},
			{
				"x": 2.0453896588,
				"y": 1.6879428475,
				"z": -0.0712082633,
				"element": "C" 
			},
			{
				"x": 2.5518924451,
				"y": 1.8412337147,
				"z": 1.22129857,
				"element": "C" 
			},
			{
				"x": 2.3450956184,
				"y": 3.0516306265,
				"z": 1.8872528857,
				"element": "C" 
			},
			{
				"x": 1.6462486326,
				"y": 4.0950946812,
				"z": 1.2711805245,
				"element": "C" 
			},
			{
				"x": 1.1417199186,
				"y": 3.9443049341,
				"z": -0.0261002866,
				"element": "C" 
			},
			{
				"x": 2.1028843472,
				"y": 0.5505641514,
				"z": -1.0009611503,
				"element": "C" 
			},
			{
				"x": 1.4341566664,
				"y": 0.9048329314,
				"z": -2.1910947352,
				"element": "C" 
			},
			{
				"x": 1.3314199798,
				"y": -0.0008825677,
				"z": -3.241245592,
				"element": "C" 
			},
			{
				"x": 1.9079277706,
				"y": -1.2689855812,
				"z": -3.1001694288,
				"element": "C" 
			},
			{
				"x": 2.5773558725,
				"y": -1.6201435369,
				"z": -1.9227508954,
				"element": "C" 
			},
			{
				"x": 2.6797218778,
				"y": -0.7143260677,
				"z": -0.8633882415,
				"element": "C" 
			},
			{
				"x": -2.2274763407,
				"y": 2.0293302167,
				"z": 0.1378486234,
				"element": "H" 
			},
			{
				"x": -0.9360592785,
				"y": 0.0024877807,
				"z": 0.4224953009,
				"element": "H" 
			},
			{
				"x": -3.1096452541,
				"y": -2.0698970464,
				"z": 1.0323836684,
				"element": "H" 
			},
			{
				"x": -1.6682512072,
				"y": -1.753536703,
				"z": 1.9707015578,
				"element": "H" 
			},
			{
				"x": -0.2392224496,
				"y": -2.5302208642,
				"z": -0.0667252085,
				"element": "H" 
			},
			{
				"x": -1.2232952222,
				"y": -4.5363808856,
				"z": -1.0410447195,
				"element": "H" 
			},
			{
				"x": -2.865045943,
				"y": -4.1179366172,
				"z": -0.2987339999,
				"element": "H" 
			},
			{
				"x": -2.8743341005,
				"y": -1.1427989998,
				"z": -1.340909567,
				"element": "H" 
			},
			{
				"x": -0.875152785,
				"y": 2.168817773,
				"z": -3.3566002042,
				"element": "H" 
			},
			{
				"x": -0.9466547569,
				"y": 3.4758852145,
				"z": -2.1506448252,
				"element": "H" 
			},
			{
				"x": 1.3866511382,
				"y": 2.970276051,
				"z": -2.8413555145,
				"element": "H" 
			},
			{
				"x": 3.0975992031,
				"y": 1.03603258,
				"z": 1.7053824728,
				"element": "H" 
			},
			{
				"x": 2.7306313297,
				"y": 3.1844139597,
				"z": 2.893891055,
				"element": "H" 
			},
			{
				"x": 1.4937163979,
				"y": 5.0294187422,
				"z": 1.8030948449,
				"element": "H" 
			},
			{
				"x": 0.603967836,
				"y": 4.7630980685,
				"z": -0.4981078269,
				"element": "H" 
			},
			{
				"x": 0.7999628762,
				"y": 0.2569418713,
				"z": -4.1527063694,
				"element": "H" 
			},
			{
				"x": 1.8327929678,
				"y": -1.9863398403,
				"z": -3.9119143584,
				"element": "H" 
			},
			{
				"x": 3.0234557644,
				"y": -2.6064581414,
				"z": -1.8317900937,
				"element": "H" 
			},
			{
				"x": 3.2026285607,
				"y": -0.9923349219,
				"z": 0.0475876724,
				"element": "H" 
			}
		],
		 "valence_orbital": [ 
			{
				"type": "occ",
				"energy": -0.26793,
				"method": "rhf"
			},
			{
				"type": "occ",
				"energy": -0.26007,
				"method": "rhf"
			},
			{
				"type": "occ",
				"energy": -0.25465,
				"method": "rhf"
			},
			{
				"type": "occ",
				"energy": -0.25066,
				"method": "rhf"
			},
			{
				"type": "occ",
				"energy": -0.22521,
				"method": "rhf"
			},
			{
				"type": "unocc",
				"energy": -0.04136,
				"method": "rhf"
			},
			{
				"type": "unocc",
				"energy": -0.0233,
				"method": "rhf"
			},
			{
				"type": "unocc",
				"energy": -0.00198,
				"method": "rhf"
			},
			{
				"type": "unocc",
				"energy": 0.00727,
				"method": "rhf"
			},
			{
				"type": "unocc",
				"energy": 0.01087,
				"method": "rhf"
			}
		],
		"cosmo_sigma_profile": { 
			"-0.025": 0.0,
			"-0.024": 0.0,
			"-0.023": 0.0,
			"-0.022": 0.0,
			"-0.021": 0.0,
			"-0.02": 0.0,
			"-0.019": 0.0,
			"-0.018": 0.0,
			"-0.017": 0.0,
			"-0.016": 0.0,
			"-0.015": 0.0,
			"-0.014": 0.0,
			"-0.013": 0.184155104338,
			"-0.012": 0.931878145346,
			"-0.011": 0.620782659582,
			"-0.01": 0.819231742281,
			"-0.009": 1.73764211316,
			"-0.008": 2.90459522081,
			"-0.007": 8.77918474048,
			"-0.006": 26.6764383927,
			"-0.005": 35.8233771269,
			"-0.004": 33.9980859431,
			"-0.003": 30.8877939025,
			"-0.002": 26.174376778,
			"-0.001": 28.524751531,
			"0.0": 23.9775521302,
			"0.001": 28.3567997098,
			"0.002": 21.9376704067,
			"0.003": 21.351765962,
			"0.004": 21.4495848194,
			"0.005": 18.1374550293,
			"0.006": 10.7373029633,
			"0.007": 4.72194624122,
			"0.008": 4.45236354769,
			"0.009": 3.2210873825,
			"0.01": 6.81007761732,
			"0.011": 7.76381933251,
			"0.012": 8.97519178372,
			"0.013": 2.78782930576,
			"0.014": 0.0124873423873,
			"0.015": 0.0,
			"0.016": 0.0,
			"0.017": 0.0,
			"0.018": 0.0,
			"0.019": 0.0,
			"0.02": 0.0,
			"0.021": 0.0,
			"0.022": 0.0,
			"0.023": 0.0,
			"0.024": 0.0,
			"0.025": 0.0
		}
	}
}
