{
	 "smiles": "O=C1CSC2=C(N1)C=CC=C2", 
	 "Tm": 453.15, 
	 "num_atms": 18, 
	 "gaussian": { 
		 "optdone": 1, 
		 "sigma_profile": "yes", 
		 "theory": "DFT", 
		 "functional": "B3LYP", 
		 "basiset": "6-31G**", 
		 "properties": { 
			 "R2extent": 2545.5152, 
			 "electric_dipole_moment_norm": 3.02699800132, 
			 "electric_quadrupole_moment_norm": 8.02024941133, 
			 "total_energy": -837.250565064, 
			 "HOMO_LUMO_gap": 0.18876, 
			 "cosmo_polarized_energy": -11.24, 
			 "cosmo_cavitation_energy": 23.15, 
			 "cosmo_dispersion_energy": -18.06, 
			 "cosmo_repulsion_energy": 1.39, 
			 "cosmo_total_nonelectrostatic_energy": 6.48, 
			 "SMD_solvation_energy": 4.03 
		},
		"coords": [
			{
				"x": 1.9072573526,
				"y": -0.0779412185,
				"z": 2.639750452,
				"element": "O" 
			},
			{
				"x": 1.325911224,
				"y": -0.669536836,
				"z": 1.7454871472,
				"element": "C" 
			},
			{
				"x": 1.8780890503,
				"y": -1.9314035261,
				"z": 1.0991505124,
				"element": "C" 
			},
			{
				"x": 0.5803292984,
				"y": -3.1776376406,
				"z": 0.7638832696,
				"element": "S" 
			},
			{
				"x": -0.5302434545,
				"y": -2.1244020095,
				"z": -0.1403639,
				"element": "C" 
			},
			{
				"x": -0.6366659457,
				"y": -0.7596175589,
				"z": 0.1912351234,
				"element": "C" 
			},
			{
				"x": 0.1413627833,
				"y": -0.2005999733,
				"z": 1.2196560028,
				"element": "N" 
			},
			{
				"x": -1.5565248065,
				"y": 0.045999774,
				"z": -0.492685819,
				"element": "C" 
			},
			{
				"x": -2.3802967013,
				"y": -0.4985063637,
				"z": -1.4745188004,
				"element": "C" 
			},
			{
				"x": -2.279060973,
				"y": -1.8523111277,
				"z": -1.8017433111,
				"element": "C" 
			},
			{
				"x": -1.3482300036,
				"y": -2.6545462255,
				"z": -1.1436077715,
				"element": "C" 
			},
			{
				"x": 2.3958708325,
				"y": -1.6718636927,
				"z": 0.168939744,
				"element": "H" 
			},
			{
				"x": 2.5951991945,
				"y": -2.3762077726,
				"z": 1.7888927567,
				"element": "H" 
			},
			{
				"x": -0.1494413603,
				"y": 0.689802413,
				"z": 1.6033149265,
				"element": "H" 
			},
			{
				"x": -1.6240997118,
				"y": 1.1017439985,
				"z": -0.2424366229,
				"element": "H" 
			},
			{
				"x": -3.0936774533,
				"y": 0.1382325286,
				"z": -1.988486005,
				"element": "H" 
			},
			{
				"x": -2.912357285,
				"y": -2.2802603,
				"z": -2.5723634499,
				"element": "H" 
			},
			{
				"x": -1.2510220404,
				"y": -3.704944469,
				"z": -1.4013042549,
				"element": "H" 
			}
		],
		 "valence_orbital": [ 
			{
				"type": "occ",
				"energy": -0.31409,
				"method": "rhf"
			},
			{
				"type": "occ",
				"energy": -0.29578,
				"method": "rhf"
			},
			{
				"type": "occ",
				"energy": -0.26412,
				"method": "rhf"
			},
			{
				"type": "occ",
				"energy": -0.23893,
				"method": "rhf"
			},
			{
				"type": "occ",
				"energy": -0.21809,
				"method": "rhf"
			},
			{
				"type": "unocc",
				"energy": -0.02933,
				"method": "rhf"
			},
			{
				"type": "unocc",
				"energy": -0.0174,
				"method": "rhf"
			},
			{
				"type": "unocc",
				"energy": 0.02228,
				"method": "rhf"
			},
			{
				"type": "unocc",
				"energy": 0.03479,
				"method": "rhf"
			},
			{
				"type": "unocc",
				"energy": 0.07071,
				"method": "rhf"
			}
		],
		"cosmo_sigma_profile": { 
			"-0.025": 0.0,
			"-0.024": 0.0,
			"-0.023": 0.0,
			"-0.022": 0.0,
			"-0.021": 0.0,
			"-0.02": 0.0,
			"-0.019": 0.0,
			"-0.018": 0.0,
			"-0.017": 0.0,
			"-0.016": 0.0494100359579,
			"-0.015": 0.938315355428,
			"-0.014": 1.1000931374,
			"-0.013": 1.11855294432,
			"-0.012": 1.27600767256,
			"-0.011": 0.902144925039,
			"-0.01": 1.49860764471,
			"-0.009": 1.42601480552,
			"-0.008": 5.3335212553,
			"-0.007": 7.22842351598,
			"-0.006": 11.4671606563,
			"-0.005": 13.396870882,
			"-0.004": 13.0585514352,
			"-0.003": 10.4654052051,
			"-0.002": 9.46668593455,
			"-0.001": 9.57263031648,
			"0.0": 10.3573965351,
			"0.001": 11.2765651669,
			"0.002": 12.9206328133,
			"0.003": 13.8885276621,
			"0.004": 14.7754117759,
			"0.005": 10.9044213024,
			"0.006": 3.99315888886,
			"0.007": 3.7499621621,
			"0.008": 2.15844589116,
			"0.009": 1.19675963476,
			"0.01": 2.16302535277,
			"0.011": 1.72445870101,
			"0.012": 4.5793320323,
			"0.013": 4.46393763491,
			"0.014": 0.771841394545,
			"0.015": 0.0,
			"0.016": 0.0,
			"0.017": 0.0,
			"0.018": 0.0,
			"0.019": 0.0,
			"0.02": 0.0,
			"0.021": 0.0,
			"0.022": 0.0,
			"0.023": 0.0,
			"0.024": 0.0,
			"0.025": 0.0
		}
	}
}
