{
	 "smiles": "CNS(=O)(=O)C1=CC=C(C=C1)C(C)N", 
	 "Tm": 378.15, 
	 "num_atms": 28, 
	 "gaussian": { 
		 "optdone": 1, 
		 "sigma_profile": "yes", 
		 "theory": "DFT", 
		 "functional": "B3LYP", 
		 "basiset": "6-31G**", 
		 "properties": { 
			 "R2extent": 4454.7032, 
			 "electric_dipole_moment_norm": 4.03614617922, 
			 "electric_quadrupole_moment_norm": 16.2720027022, 
			 "total_energy": -1009.46477389, 
			 "HOMO_LUMO_gap": 0.20702, 
			 "cosmo_polarized_energy": -17.7, 
			 "cosmo_cavitation_energy": 32.48, 
			 "cosmo_dispersion_energy": -23.4, 
			 "cosmo_repulsion_energy": 1.82, 
			 "cosmo_total_nonelectrostatic_energy": 10.91, 
			 "SMD_solvation_energy": 3.43 
		},
		"coords": [
			{
				"x": 2.9154432276,
				"y": 1.2451502235,
				"z": 2.9368327448,
				"element": "C" 
			},
			{
				"x": 1.6036620454,
				"y": 0.9218724265,
				"z": 3.51116156,
				"element": "N" 
			},
			{
				"x": 0.8573549047,
				"y": -0.5008960601,
				"z": 2.9725454359,
				"element": "S" 
			},
			{
				"x": -0.1294009841,
				"y": -0.8120992607,
				"z": 4.011887483,
				"element": "O" 
			},
			{
				"x": 1.8593383341,
				"y": -1.4912419487,
				"z": 2.5556617463,
				"element": "O" 
			},
			{
				"x": 0.0109318296,
				"y": 0.0550398522,
				"z": 1.4958707577,
				"element": "C" 
			},
			{
				"x": 0.4479651384,
				"y": -0.3845219723,
				"z": 0.2473861728,
				"element": "C" 
			},
			{
				"x": -0.2351299682,
				"y": 0.0314187488,
				"z": -0.8966598472,
				"element": "C" 
			},
			{
				"x": -1.3447496598,
				"y": 0.8790261012,
				"z": -0.808098678,
				"element": "C" 
			},
			{
				"x": -1.7680272243,
				"y": 1.2971857301,
				"z": 0.4643107706,
				"element": "C" 
			},
			{
				"x": -1.1020163054,
				"y": 0.8923662435,
				"z": 1.6160904595,
				"element": "C" 
			},
			{
				"x": -2.0853368593,
				"y": 1.3757957761,
				"z": -2.0536994424,
				"element": "C" 
			},
			{
				"x": -1.5270002743,
				"y": 2.7354305868,
				"z": -2.5053746594,
				"element": "C" 
			},
			{
				"x": -2.1008873892,
				"y": 0.4705224087,
				"z": -3.2032146395,
				"element": "N" 
			},
			{
				"x": 3.664548474,
				"y": 0.4598525793,
				"z": 3.0867794547,
				"element": "H" 
			},
			{
				"x": 2.802259303,
				"y": 1.4224733068,
				"z": 1.8640009986,
				"element": "H" 
			},
			{
				"x": 3.2607646804,
				"y": 2.1750405133,
				"z": 3.3950409524,
				"element": "H" 
			},
			{
				"x": 1.5960486709,
				"y": 0.8818967282,
				"z": 4.5282031728,
				"element": "H" 
			},
			{
				"x": 1.2996490876,
				"y": -1.0529196674,
				"z": 0.1843226762,
				"element": "H" 
			},
			{
				"x": 0.0947906747,
				"y": -0.323700146,
				"z": -1.8685368546,
				"element": "H" 
			},
			{
				"x": -2.6391417463,
				"y": 1.9424041707,
				"z": 0.5509432533,
				"element": "H" 
			},
			{
				"x": -1.4425960352,
				"y": 1.2058122226,
				"z": 2.5970846305,
				"element": "H" 
			},
			{
				"x": -3.1328352464,
				"y": 1.5279070312,
				"z": -1.7600085778,
				"element": "H" 
			},
			{
				"x": -2.0932991114,
				"y": 3.1020267545,
				"z": -3.3658390205,
				"element": "H" 
			},
			{
				"x": -1.5816188184,
				"y": 3.4734861437,
				"z": -1.7004867052,
				"element": "H" 
			},
			{
				"x": -0.4744078857,
				"y": 2.6396561352,
				"z": -2.7975763136,
				"element": "H" 
			},
			{
				"x": -1.1751676212,
				"y": 0.3970473785,
				"z": -3.6182830595,
				"element": "H" 
			},
			{
				"x": -2.3768412412,
				"y": -0.4668320061,
				"z": -2.9215444712,
				"element": "H" 
			}
		],
		 "valence_orbital": [ 
			{
				"type": "occ",
				"energy": -0.29685,
				"method": "rhf"
			},
			{
				"type": "occ",
				"energy": -0.28046,
				"method": "rhf"
			},
			{
				"type": "occ",
				"energy": -0.26916,
				"method": "rhf"
			},
			{
				"type": "occ",
				"energy": -0.25977,
				"method": "rhf"
			},
			{
				"type": "occ",
				"energy": -0.24386,
				"method": "rhf"
			},
			{
				"type": "unocc",
				"energy": -0.03684,
				"method": "rhf"
			},
			{
				"type": "unocc",
				"energy": -0.02017,
				"method": "rhf"
			},
			{
				"type": "unocc",
				"energy": 0.06041,
				"method": "rhf"
			},
			{
				"type": "unocc",
				"energy": 0.07428,
				"method": "rhf"
			},
			{
				"type": "unocc",
				"energy": 0.08396,
				"method": "rhf"
			}
		],
		"cosmo_sigma_profile": { 
			"-0.025": 0.0,
			"-0.024": 0.0,
			"-0.023": 0.0,
			"-0.022": 0.0,
			"-0.021": 0.0,
			"-0.02": 0.0,
			"-0.019": 0.0,
			"-0.018": 0.0,
			"-0.017": 0.0,
			"-0.016": 0.0,
			"-0.015": 0.260025373544,
			"-0.014": 0.950344696096,
			"-0.013": 1.36506953355,
			"-0.012": 1.06638526099,
			"-0.011": 0.858881175818,
			"-0.01": 3.01806862499,
			"-0.009": 4.48588775404,
			"-0.008": 4.34591461583,
			"-0.007": 7.8252413826,
			"-0.006": 13.1555520287,
			"-0.005": 17.4431188419,
			"-0.004": 20.705939365,
			"-0.003": 22.6172383803,
			"-0.002": 21.3412825891,
			"-0.001": 15.8750398463,
			"0.0": 17.825508667,
			"0.001": 15.8516811222,
			"0.002": 13.4937356155,
			"0.003": 16.1485541225,
			"0.004": 7.26554552591,
			"0.005": 4.29973929706,
			"0.006": 5.56136961829,
			"0.007": 3.95605407143,
			"0.008": 4.22776415569,
			"0.009": 5.0446446022,
			"0.01": 7.03004617919,
			"0.011": 10.0775619423,
			"0.012": 5.4548583494,
			"0.013": 0.546130529398,
			"0.014": 0.868049009155,
			"0.015": 0.489424726249,
			"0.016": 0.623040774884,
			"0.017": 0.575901608815,
			"0.018": 0.402861236849,
			"0.019": 0.503381223104,
			"0.02": 0.0,
			"0.021": 0.0,
			"0.022": 0.0,
			"0.023": 0.0,
			"0.024": 0.0,
			"0.025": 0.0
		}
	}
}
