{
	 "smiles": "COC1=C(C=CC(=C1)S(Cl)(=O)=O)[N+]([O-])=O", 
	 "Tm": 349.15, 
	 "num_atms": 21, 
	 "gaussian": { 
		 "optdone": 1, 
		 "sigma_profile": "yes", 
		 "theory": "DFT", 
		 "functional": "B3LYP", 
		 "basiset": "6-31G**", 
		 "properties": { 
			 "R2extent": 4745.8409, 
			 "electric_dipole_moment_norm": 2.17381312904, 
			 "electric_quadrupole_moment_norm": 31.7663025703, 
			 "total_energy": -1559.41397218, 
			 "HOMO_LUMO_gap": 0.15955, 
			 "cosmo_polarized_energy": -14.57, 
			 "cosmo_cavitation_energy": 30.18, 
			 "cosmo_dispersion_energy": -22.11, 
			 "cosmo_repulsion_energy": 1.7, 
			 "cosmo_total_nonelectrostatic_energy": 9.77, 
			 "SMD_solvation_energy": 7.06 
		},
		"coords": [
			{
				"x": 1.8790854366,
				"y": 1.2045324038,
				"z": 2.8502562129,
				"element": "C" 
			},
			{
				"x": 1.2661694625,
				"y": 1.6496233051,
				"z": 1.6391032492,
				"element": "O" 
			},
			{
				"x": 0.60064952,
				"y": 0.7648176315,
				"z": 0.8828553197,
				"element": "C" 
			},
			{
				"x": -0.0458107921,
				"y": 1.2185534484,
				"z": -0.293008731,
				"element": "C" 
			},
			{
				"x": -0.7950084959,
				"y": 0.363409286,
				"z": -1.096577754,
				"element": "C" 
			},
			{
				"x": -0.9095899379,
				"y": -0.9868755985,
				"z": -0.781016194,
				"element": "C" 
			},
			{
				"x": -0.2657296788,
				"y": -1.4288667622,
				"z": 0.371522581,
				"element": "C" 
			},
			{
				"x": 0.4732404152,
				"y": -0.595874536,
				"z": 1.2059818854,
				"element": "C" 
			},
			{
				"x": -0.3772869984,
				"y": -3.1656882275,
				"z": 0.8118847227,
				"element": "S" 
			},
			{
				"x": -2.1408873517,
				"y": -3.1669046758,
				"z": 2.001632435,
				"element": "Cl" 
			},
			{
				"x": -0.6822726114,
				"y": -3.94220523,
				"z": -0.3816075439,
				"element": "O" 
			},
			{
				"x": 0.7221693699,
				"y": -3.5021950823,
				"z": 1.7074892365,
				"element": "O" 
			},
			{
				"x": 0.0509513736,
				"y": 2.6214218058,
				"z": -0.7327868476,
				"element": "N" 
			},
			{
				"x": 1.0804543904,
				"y": 3.2358104418,
				"z": -0.478856702,
				"element": "O" 
			},
			{
				"x": -0.9106110449,
				"y": 3.0690821128,
				"z": -1.3586222197,
				"element": "O" 
			},
			{
				"x": 1.1362976408,
				"y": 0.7994092005,
				"z": 3.5467593239,
				"element": "H" 
			},
			{
				"x": 2.3396361051,
				"y": 2.0921946734,
				"z": 3.2822947938,
				"element": "H" 
			},
			{
				"x": 2.6507648758,
				"y": 0.4528157057,
				"z": 2.6507425408,
				"element": "H" 
			},
			{
				"x": -1.2804163371,
				"y": 0.7791257355,
				"z": -1.9710758331,
				"element": "H" 
			},
			{
				"x": -1.4689347465,
				"y": -1.6705317682,
				"z": -1.4074276381,
				"element": "H" 
			},
			{
				"x": 0.9481294048,
				"y": -1.0087538699,
				"z": 2.0856571626,
				"element": "H" 
			}
		],
		 "valence_orbital": [ 
			{
				"type": "occ",
				"energy": -0.32228,
				"method": "rhf"
			},
			{
				"type": "occ",
				"energy": -0.321,
				"method": "rhf"
			},
			{
				"type": "occ",
				"energy": -0.31398,
				"method": "rhf"
			},
			{
				"type": "occ",
				"energy": -0.29709,
				"method": "rhf"
			},
			{
				"type": "occ",
				"energy": -0.27501,
				"method": "rhf"
			},
			{
				"type": "unocc",
				"energy": -0.11546,
				"method": "rhf"
			},
			{
				"type": "unocc",
				"energy": -0.08668,
				"method": "rhf"
			},
			{
				"type": "unocc",
				"energy": -0.04695,
				"method": "rhf"
			},
			{
				"type": "unocc",
				"energy": -0.0405,
				"method": "rhf"
			},
			{
				"type": "unocc",
				"energy": 0.03768,
				"method": "rhf"
			}
		],
		"cosmo_sigma_profile": { 
			"-0.025": 0.0,
			"-0.024": 0.0,
			"-0.023": 0.0,
			"-0.022": 0.0,
			"-0.021": 0.0,
			"-0.02": 0.0,
			"-0.019": 0.0,
			"-0.018": 0.0,
			"-0.017": 0.0,
			"-0.016": 0.0,
			"-0.015": 0.0,
			"-0.014": 0.0,
			"-0.013": 0.0,
			"-0.012": 0.0,
			"-0.011": 0.0,
			"-0.01": 0.800946927691,
			"-0.009": 5.5693380692,
			"-0.008": 8.41030387375,
			"-0.007": 15.2326904384,
			"-0.006": 12.9935553075,
			"-0.005": 15.0149500741,
			"-0.004": 15.3778246486,
			"-0.003": 16.655076081,
			"-0.002": 17.3541586844,
			"-0.001": 17.7717557895,
			"0.0": 12.9536803579,
			"0.001": 9.92779946223,
			"0.002": 13.7330402601,
			"0.003": 16.9335539151,
			"0.004": 7.6630525946,
			"0.005": 6.46161298011,
			"0.006": 8.48497738552,
			"0.007": 17.6125963063,
			"0.008": 16.4920429026,
			"0.009": 7.05501722704,
			"0.01": 1.98799569137,
			"0.011": 0.667248675942,
			"0.012": 0.0,
			"0.013": 0.0,
			"0.014": 0.0,
			"0.015": 0.0,
			"0.016": 0.0,
			"0.017": 0.0,
			"0.018": 0.0,
			"0.019": 0.0,
			"0.02": 0.0,
			"0.021": 0.0,
			"0.022": 0.0,
			"0.023": 0.0,
			"0.024": 0.0,
			"0.025": 0.0
		}
	}
}
