{
	 "smiles": "OC(=O)C1=CC=CC=C1NN=C1C(=O)N(N=C1C(F)(F)F)C1=CC=CC=C1", 
	 "Tm": 412.15, 
	 "num_atms": 38, 
	 "gaussian": { 
		 "optdone": 1, 
		 "sigma_profile": "yes", 
		 "theory": "DFT", 
		 "functional": "B3LYP", 
		 "basiset": "6-31G**", 
		 "properties": { 
			 "R2extent": 12726.4373, 
			 "electric_dipole_moment_norm": 1.64028249701, 
			 "electric_quadrupole_moment_norm": 25.1478819536, 
			 "total_energy": -1398.61228873, 
			 "HOMO_LUMO_gap": 0.11488, 
			 "cosmo_polarized_energy": -13.48, 
			 "cosmo_cavitation_energy": 45.81, 
			 "cosmo_dispersion_energy": -32.13, 
			 "cosmo_repulsion_energy": 2.31, 
			 "cosmo_total_nonelectrostatic_energy": 15.99, 
			 "SMD_solvation_energy": 9.31 
		},
		"coords": [
			{
				"x": 2.542897763,
				"y": 2.5532774069,
				"z": 0.0415070329,
				"element": "O" 
			},
			{
				"x": 3.8863071078,
				"y": 2.5687706791,
				"z": -0.1590733189,
				"element": "C" 
			},
			{
				"x": 4.5368627817,
				"y": 3.5829341039,
				"z": -0.016228249,
				"element": "O" 
			},
			{
				"x": 4.4494202454,
				"y": 1.2496445163,
				"z": -0.5592396258,
				"element": "C" 
			},
			{
				"x": 5.8385298617,
				"y": 1.2403995825,
				"z": -0.7732175856,
				"element": "C" 
			},
			{
				"x": 6.5110912342,
				"y": 0.0876830679,
				"z": -1.1505753504,
				"element": "C" 
			},
			{
				"x": 5.7869282169,
				"y": -1.0970185094,
				"z": -1.322661269,
				"element": "C" 
			},
			{
				"x": 4.4142755771,
				"y": -1.1230329194,
				"z": -1.1195334368,
				"element": "C" 
			},
			{
				"x": 3.7262651403,
				"y": 0.0413684472,
				"z": -0.7369664464,
				"element": "C" 
			},
			{
				"x": 2.3356149696,
				"y": -0.0233489904,
				"z": -0.5401291644,
				"element": "N" 
			},
			{
				"x": 1.7027355035,
				"y": -1.1581903219,
				"z": -0.7136506193,
				"element": "N" 
			},
			{
				"x": 0.4071328669,
				"y": -1.1910896381,
				"z": -0.5237406861,
				"element": "C" 
			},
			{
				"x": -0.4922975719,
				"y": -0.0937540014,
				"z": -0.1256419219,
				"element": "C" 
			},
			{
				"x": -0.1860227992,
				"y": 1.0794187423,
				"z": 0.1065513174,
				"element": "O" 
			},
			{
				"x": -1.7483131895,
				"y": -0.6968009113,
				"z": -0.0776163503,
				"element": "N" 
			},
			{
				"x": -1.69223039,
				"y": -2.0428472969,
				"z": -0.4062171303,
				"element": "N" 
			},
			{
				"x": -0.453035486,
				"y": -2.3375484452,
				"z": -0.6652991522,
				"element": "C" 
			},
			{
				"x": -0.0466098835,
				"y": -3.7275419101,
				"z": -1.0568954204,
				"element": "C" 
			},
			{
				"x": 0.8526052822,
				"y": -4.2248331666,
				"z": -0.1803612965,
				"element": "F" 
			},
			{
				"x": -1.0940162391,
				"y": -4.5615841414,
				"z": -1.1004844824,
				"element": "F" 
			},
			{
				"x": 0.54265286,
				"y": -3.7260165282,
				"z": -2.2721674304,
				"element": "F" 
			},
			{
				"x": -3.0083496732,
				"y": -0.1220423572,
				"z": 0.2510385558,
				"element": "C" 
			},
			{
				"x": -3.1063005751,
				"y": 1.235596692,
				"z": 0.5873829298,
				"element": "C" 
			},
			{
				"x": -4.3555465851,
				"y": 1.7690286964,
				"z": 0.9045521324,
				"element": "C" 
			},
			{
				"x": -5.5009844572,
				"y": 0.9730672413,
				"z": 0.8911800197,
				"element": "C" 
			},
			{
				"x": -5.3896462479,
				"y": -0.3772852121,
				"z": 0.55454347,
				"element": "C" 
			},
			{
				"x": -4.1524669915,
				"y": -0.9314073829,
				"z": 0.2343359976,
				"element": "C" 
			},
			{
				"x": 2.273599575,
				"y": 3.4507147035,
				"z": 0.2964207383,
				"element": "H" 
			},
			{
				"x": 6.3656613754,
				"y": 2.1769553422,
				"z": -0.6303158154,
				"element": "H" 
			},
			{
				"x": 7.5841820785,
				"y": 0.1076025654,
				"z": -1.3094405717,
				"element": "H" 
			},
			{
				"x": 6.2950236463,
				"y": -2.0102361924,
				"z": -1.6179064776,
				"element": "H" 
			},
			{
				"x": 3.8496112821,
				"y": -2.0370085707,
				"z": -1.251400125,
				"element": "H" 
			},
			{
				"x": 1.8153142357,
				"y": 0.8167491656,
				"z": -0.2607474087,
				"element": "H" 
			},
			{
				"x": -2.2196396874,
				"y": 1.8539810417,
				"z": 0.5983365521,
				"element": "H" 
			},
			{
				"x": -4.4265394803,
				"y": 2.8212781134,
				"z": 1.164471881,
				"element": "H" 
			},
			{
				"x": -6.4683711378,
				"y": 1.3987374719,
				"z": 1.1397697887,
				"element": "H" 
			},
			{
				"x": -6.271843355,
				"y": -1.0106743228,
				"z": 0.5394326311,
				"element": "H" 
			},
			{
				"x": -4.0614978537,
				"y": -1.977646761,
				"z": -0.0272137124,
				"element": "H" 
			}
		],
		 "valence_orbital": [ 
			{
				"type": "occ",
				"energy": -0.27812,
				"method": "rhf"
			},
			{
				"type": "occ",
				"energy": -0.26861,
				"method": "rhf"
			},
			{
				"type": "occ",
				"energy": -0.25396,
				"method": "rhf"
			},
			{
				"type": "occ",
				"energy": -0.23841,
				"method": "rhf"
			},
			{
				"type": "occ",
				"energy": -0.224,
				"method": "rhf"
			},
			{
				"type": "unocc",
				"energy": -0.10912,
				"method": "rhf"
			},
			{
				"type": "unocc",
				"energy": -0.06022,
				"method": "rhf"
			},
			{
				"type": "unocc",
				"energy": -0.02602,
				"method": "rhf"
			},
			{
				"type": "unocc",
				"energy": -0.01023,
				"method": "rhf"
			},
			{
				"type": "unocc",
				"energy": -0.00351,
				"method": "rhf"
			}
		],
		"cosmo_sigma_profile": { 
			"-0.025": 0.0,
			"-0.024": 0.0,
			"-0.023": 0.0,
			"-0.022": 0.0,
			"-0.021": 0.0,
			"-0.02": 0.0222349534039,
			"-0.019": 0.790620665141,
			"-0.018": 0.77694694411,
			"-0.017": 0.721198982458,
			"-0.016": 1.11128741049,
			"-0.015": 1.0604083409,
			"-0.014": 0.371373785496,
			"-0.013": 0.0934962586501,
			"-0.012": 0.539428406533,
			"-0.011": 0.612074216575,
			"-0.01": 0.902187818291,
			"-0.009": 0.56197239776,
			"-0.008": 1.35348927788,
			"-0.007": 5.88524613559,
			"-0.006": 14.7601015604,
			"-0.005": 24.8716477446,
			"-0.004": 25.8252622547,
			"-0.003": 26.8115760298,
			"-0.002": 25.1666608834,
			"-0.001": 25.5618600661,
			"0.0": 27.1570778477,
			"0.001": 33.9183965246,
			"0.002": 52.8668725683,
			"0.003": 37.6292225681,
			"0.004": 17.5666705352,
			"0.005": 14.7872386798,
			"0.006": 6.6517696253,
			"0.007": 4.42300734215,
			"0.008": 4.11388094148,
			"0.009": 4.27800553903,
			"0.01": 3.67537635762,
			"0.011": 4.71556954215,
			"0.012": 0.989311001217,
			"0.013": 0.0,
			"0.014": 0.0,
			"0.015": 0.0,
			"0.016": 0.0,
			"0.017": 0.0,
			"0.018": 0.0,
			"0.019": 0.0,
			"0.02": 0.0,
			"0.021": 0.0,
			"0.022": 0.0,
			"0.023": 0.0,
			"0.024": 0.0,
			"0.025": 0.0
		}
	}
}
