{
	 "smiles": "CC(N)C1=C(NS(=O)(=O)C2=CC=CS2)C=CC=C1", 
	 "Tm": 441.15, 
	 "num_atms": 32, 
	 "gaussian": { 
		 "optdone": 1, 
		 "sigma_profile": "yes", 
		 "theory": "DFT", 
		 "functional": "B3LYP", 
		 "basiset": "6-31G**", 
		 "properties": { 
			 "R2extent": 5329.5495, 
			 "electric_dipole_moment_norm": 4.0818692838, 
			 "electric_quadrupole_moment_norm": 20.8410061724, 
			 "total_energy": -1521.94646299, 
			 "HOMO_LUMO_gap": 0.18157, 
			 "cosmo_polarized_energy": -17.07, 
			 "cosmo_cavitation_energy": 38.15, 
			 "cosmo_dispersion_energy": -26.07, 
			 "cosmo_repulsion_energy": 1.94, 
			 "cosmo_total_nonelectrostatic_energy": 14.02, 
			 "SMD_solvation_energy": 4.94 
		},
		"coords": [
			{
				"x": -0.1366610541,
				"y": 2.8608223607,
				"z": -1.6532048645,
				"element": "C" 
			},
			{
				"x": 0.7451641978,
				"y": 1.9659272045,
				"z": -0.7673422272,
				"element": "C" 
			},
			{
				"x": 2.1135963359,
				"y": 2.5145034922,
				"z": -0.756555263,
				"element": "N" 
			},
			{
				"x": 0.7732559768,
				"y": 0.539290093,
				"z": -1.3017881114,
				"element": "C" 
			},
			{
				"x": -0.0051306311,
				"y": -0.4907654308,
				"z": -0.7417206857,
				"element": "C" 
			},
			{
				"x": -0.8222618337,
				"y": -0.2029586341,
				"z": 0.4141071917,
				"element": "N" 
			},
			{
				"x": -0.4685686922,
				"y": -0.9268441722,
				"z": 1.9095525569,
				"element": "S" 
			},
			{
				"x": 0.0841645122,
				"y": -2.2729979529,
				"z": 1.7416720581,
				"element": "O" 
			},
			{
				"x": -1.6691568566,
				"y": -0.6861145194,
				"z": 2.7131957557,
				"element": "O" 
			},
			{
				"x": 0.8569542367,
				"y": 0.0725569267,
				"z": 2.5234599795,
				"element": "C" 
			},
			{
				"x": 2.1904783381,
				"y": -0.2378666864,
				"z": 2.4336835523,
				"element": "C" 
			},
			{
				"x": 3.0157081612,
				"y": 0.7729357539,
				"z": 3.0057577512,
				"element": "C" 
			},
			{
				"x": 2.2889174272,
				"y": 1.8183761038,
				"z": 3.5150837816,
				"element": "C" 
			},
			{
				"x": 0.584576382,
				"y": 1.5966192011,
				"z": 3.3169386529,
				"element": "S" 
			},
			{
				"x": 0.0034591047,
				"y": -1.7774685768,
				"z": -1.2986724074,
				"element": "C" 
			},
			{
				"x": 0.7868521941,
				"y": -2.0544129081,
				"z": -2.4152688712,
				"element": "C" 
			},
			{
				"x": 1.5730754827,
				"y": -1.0434160543,
				"z": -2.9731803429,
				"element": "C" 
			},
			{
				"x": 1.5641276737,
				"y": 0.2344457839,
				"z": -2.4193650622,
				"element": "C" 
			},
			{
				"x": -0.1776561374,
				"y": 3.8795444276,
				"z": -1.2494882016,
				"element": "H" 
			},
			{
				"x": 0.2635882621,
				"y": 2.910608572,
				"z": -2.6702348224,
				"element": "H" 
			},
			{
				"x": -1.1598715314,
				"y": 2.4769020486,
				"z": -1.6983729968,
				"element": "H" 
			},
			{
				"x": 0.289741616,
				"y": 1.9390957046,
				"z": 0.230008169,
				"element": "H" 
			},
			{
				"x": 2.0810545381,
				"y": 3.4794665115,
				"z": -0.4344845896,
				"element": "H" 
			},
			{
				"x": 2.6759056295,
				"y": 2.0056866776,
				"z": -0.0772795068,
				"element": "H" 
			},
			{
				"x": -1.8284017122,
				"y": -0.2760503879,
				"z": 0.2809627515,
				"element": "H" 
			},
			{
				"x": 2.5462840805,
				"y": -1.1576384709,
				"z": 1.9864825642,
				"element": "H" 
			},
			{
				"x": 4.0972222637,
				"y": 0.7182970818,
				"z": 3.0489765486,
				"element": "H" 
			},
			{
				"x": 2.6566170065,
				"y": 2.7015722008,
				"z": 4.0203927471,
				"element": "H" 
			},
			{
				"x": -0.5924681359,
				"y": -2.5555015321,
				"z": -0.8342265155,
				"element": "H" 
			},
			{
				"x": 0.7892282429,
				"y": -3.0533501033,
				"z": -2.8410491679,
				"element": "H" 
			},
			{
				"x": 2.193875039,
				"y": -1.2521094906,
				"z": -3.8401112723,
				"element": "H" 
			},
			{
				"x": 2.1830298834,
				"y": 1.0229447754,
				"z": -2.834929152,
				"element": "H" 
			}
		],
		 "valence_orbital": [ 
			{
				"type": "occ",
				"energy": -0.27602,
				"method": "rhf"
			},
			{
				"type": "occ",
				"energy": -0.25772,
				"method": "rhf"
			},
			{
				"type": "occ",
				"energy": -0.25334,
				"method": "rhf"
			},
			{
				"type": "occ",
				"energy": -0.25148,
				"method": "rhf"
			},
			{
				"type": "occ",
				"energy": -0.23354,
				"method": "rhf"
			},
			{
				"type": "unocc",
				"energy": -0.05197,
				"method": "rhf"
			},
			{
				"type": "unocc",
				"energy": -0.01629,
				"method": "rhf"
			},
			{
				"type": "unocc",
				"energy": -0.0062,
				"method": "rhf"
			},
			{
				"type": "unocc",
				"energy": 0.01056,
				"method": "rhf"
			},
			{
				"type": "unocc",
				"energy": 0.03405,
				"method": "rhf"
			}
		],
		"cosmo_sigma_profile": { 
			"-0.025": 0.0,
			"-0.024": 0.0,
			"-0.023": 0.0,
			"-0.022": 0.0,
			"-0.021": 0.0,
			"-0.02": 0.0,
			"-0.019": 0.0,
			"-0.018": 0.0,
			"-0.017": 0.0,
			"-0.016": 0.0194959606397,
			"-0.015": 0.712858698565,
			"-0.014": 1.202749484,
			"-0.013": 0.52475588721,
			"-0.012": 1.55011227817,
			"-0.011": 0.576611940821,
			"-0.01": 2.81274944223,
			"-0.009": 4.53394176477,
			"-0.008": 7.139817592,
			"-0.007": 7.81246400115,
			"-0.006": 13.765133893,
			"-0.005": 16.7745350174,
			"-0.004": 16.9163703315,
			"-0.003": 21.618531676,
			"-0.002": 23.3562132858,
			"-0.001": 24.5077575172,
			"0.0": 28.9328209412,
			"0.001": 29.0556458129,
			"0.002": 21.877197293,
			"0.003": 16.3695803542,
			"0.004": 12.5241061817,
			"0.005": 11.4199391941,
			"0.006": 5.92553456452,
			"0.007": 4.44665292659,
			"0.008": 4.27688407029,
			"0.009": 5.98226129784,
			"0.01": 8.95162620476,
			"0.011": 7.33720188269,
			"0.012": 1.63704660151,
			"0.013": 0.805800097665,
			"0.014": 0.540556101697,
			"0.015": 0.663984073034,
			"0.016": 0.261805753985,
			"0.017": 0.366805375305,
			"0.018": 0.00293499955513,
			"0.019": 0.0,
			"0.02": 0.0,
			"0.021": 0.0,
			"0.022": 0.0,
			"0.023": 0.0,
			"0.024": 0.0,
			"0.025": 0.0
		}
	}
}
