{
	 "smiles": "CCOC(=O)C1=CSC(NC2CC2)=N1", 
	 "Tm": 363.15, 
	 "num_atms": 26, 
	 "gaussian": { 
		 "optdone": 1, 
		 "sigma_profile": "yes", 
		 "theory": "DFT", 
		 "functional": "B3LYP", 
		 "basiset": "6-31G**", 
		 "properties": { 
			 "R2extent": 4904.893, 
			 "electric_dipole_moment_norm": 3.10608302529, 
			 "electric_quadrupole_moment_norm": 15.3228847281, 
			 "total_energy": -1008.29556606, 
			 "HOMO_LUMO_gap": 0.16984, 
			 "cosmo_polarized_energy": -13.3, 
			 "cosmo_cavitation_energy": 31.67, 
			 "cosmo_dispersion_energy": -23.05, 
			 "cosmo_repulsion_energy": 1.81, 
			 "cosmo_total_nonelectrostatic_energy": 10.43, 
			 "SMD_solvation_energy": 4.92 
		},
		"coords": [
			{
				"x": -2.0133989536,
				"y": -0.6428222732,
				"z": 2.377874682,
				"element": "C" 
			},
			{
				"x": -0.809135092,
				"y": 0.2085769087,
				"z": 2.7526552601,
				"element": "C" 
			},
			{
				"x": -0.1308538551,
				"y": 0.7073685497,
				"z": 1.5764912287,
				"element": "O" 
			},
			{
				"x": -0.6192132397,
				"y": 1.8459611563,
				"z": 1.0474731383,
				"element": "C" 
			},
			{
				"x": -1.5694418789,
				"y": 2.4618885651,
				"z": 1.4961706844,
				"element": "O" 
			},
			{
				"x": 0.1390798196,
				"y": 2.2801033549,
				"z": -0.1532178406,
				"element": "C" 
			},
			{
				"x": -0.1966653519,
				"y": 3.4232622153,
				"z": -0.8198131152,
				"element": "C" 
			},
			{
				"x": 0.8734038415,
				"y": 3.6623722907,
				"z": -2.1670853286,
				"element": "S" 
			},
			{
				"x": 1.7040679802,
				"y": 2.1433830995,
				"z": -1.7060803095,
				"element": "C" 
			},
			{
				"x": 2.7874170102,
				"y": 1.7286416391,
				"z": -2.4227106464,
				"element": "N" 
			},
			{
				"x": 3.4557878757,
				"y": 0.4498862928,
				"z": -2.282172858,
				"element": "C" 
			},
			{
				"x": 3.6468501266,
				"y": -0.2595737115,
				"z": -0.9713054119,
				"element": "C" 
			},
			{
				"x": 2.7520681096,
				"y": -0.8631147906,
				"z": -2.0376483594,
				"element": "C" 
			},
			{
				"x": 1.2047096242,
				"y": 1.558212401,
				"z": -0.6557274979,
				"element": "N" 
			},
			{
				"x": -1.7191945431,
				"y": -1.4626266699,
				"z": 1.715985419,
				"element": "H" 
			},
			{
				"x": -2.4605853805,
				"y": -1.0722912516,
				"z": 3.280741892,
				"element": "H" 
			},
			{
				"x": -2.7702155569,
				"y": -0.0353730428,
				"z": 1.8757959375,
				"element": "H" 
			},
			{
				"x": -1.1052425836,
				"y": 1.0550820625,
				"z": 3.376983611,
				"element": "H" 
			},
			{
				"x": -0.0493701607,
				"y": -0.3798675314,
				"z": 3.272627316,
				"element": "H" 
			},
			{
				"x": -0.9965758437,
				"y": 4.1091925408,
				"z": -0.5867083723,
				"element": "H" 
			},
			{
				"x": 2.8891727567,
				"y": 2.1510058847,
				"z": -3.3333386528,
				"element": "H" 
			},
			{
				"x": 4.3028275285,
				"y": 0.4229120449,
				"z": -2.9613116368,
				"element": "H" 
			},
			{
				"x": 3.1407703003,
				"y": 0.1428991645,
				"z": -0.1030836123,
				"element": "H" 
			},
			{
				"x": 4.6219818778,
				"y": -0.7001747889,
				"z": -0.7848079542,
				"element": "H" 
			},
			{
				"x": 3.0898230517,
				"y": -1.7315916873,
				"z": -2.5956858947,
				"element": "H" 
			},
			{
				"x": 1.6878325371,
				"y": -0.8293124233,
				"z": -1.8336016785,
				"element": "H" 
			}
		],
		 "valence_orbital": [ 
			{
				"type": "occ",
				"energy": -0.28646,
				"method": "rhf"
			},
			{
				"type": "occ",
				"energy": -0.2783,
				"method": "rhf"
			},
			{
				"type": "occ",
				"energy": -0.27446,
				"method": "rhf"
			},
			{
				"type": "occ",
				"energy": -0.26469,
				"method": "rhf"
			},
			{
				"type": "occ",
				"energy": -0.20461,
				"method": "rhf"
			},
			{
				"type": "unocc",
				"energy": -0.03477,
				"method": "rhf"
			},
			{
				"type": "unocc",
				"energy": -0.00016,
				"method": "rhf"
			},
			{
				"type": "unocc",
				"energy": 0.01816,
				"method": "rhf"
			},
			{
				"type": "unocc",
				"energy": 0.07448,
				"method": "rhf"
			},
			{
				"type": "unocc",
				"energy": 0.08769,
				"method": "rhf"
			}
		],
		"cosmo_sigma_profile": { 
			"-0.025": 0.0,
			"-0.024": 0.0,
			"-0.023": 0.0,
			"-0.022": 0.0,
			"-0.021": 0.0,
			"-0.02": 0.0,
			"-0.019": 0.0,
			"-0.018": 0.0,
			"-0.017": 0.0,
			"-0.016": 0.354453703674,
			"-0.015": 1.44097123127,
			"-0.014": 1.30476150803,
			"-0.013": 1.57180828786,
			"-0.012": 1.28020481159,
			"-0.011": 1.37368078994,
			"-0.01": 1.46986953454,
			"-0.009": 2.3952139381,
			"-0.008": 2.50540047579,
			"-0.007": 4.19748367649,
			"-0.006": 6.03687452246,
			"-0.005": 10.7064245838,
			"-0.004": 19.5615813626,
			"-0.003": 20.0565370817,
			"-0.002": 22.0594922185,
			"-0.001": 20.3210092785,
			"0.0": 25.614497749,
			"0.001": 23.9197825866,
			"0.002": 21.1446778083,
			"0.003": 15.3000903981,
			"0.004": 12.6898910672,
			"0.005": 8.7657060868,
			"0.006": 5.04055884302,
			"0.007": 4.75722744952,
			"0.008": 3.41897248977,
			"0.009": 2.43813188352,
			"0.01": 2.9827615934,
			"0.011": 4.05058195656,
			"0.012": 5.07048364683,
			"0.013": 1.32458576403,
			"0.014": 0.258444108404,
			"0.015": 0.0,
			"0.016": 0.0,
			"0.017": 0.0,
			"0.018": 0.0,
			"0.019": 0.0,
			"0.02": 0.0,
			"0.021": 0.0,
			"0.022": 0.0,
			"0.023": 0.0,
			"0.024": 0.0,
			"0.025": 0.0
		}
	}
}
