{
	 "smiles": "N#CC1=CNC2=CC=CC=C12", 
	 "Tm": 453.15, 
	 "num_atms": 17, 
	 "gaussian": { 
		 "optdone": 1, 
		 "sigma_profile": "yes", 
		 "theory": "DFT", 
		 "functional": "B3LYP", 
		 "basiset": "6-31G**", 
		 "properties": { 
			 "R2extent": 1999.7018, 
			 "electric_dipole_moment_norm": 6.03579809222, 
			 "electric_quadrupole_moment_norm": 19.8422993743, 
			 "total_energy": -456.066326715, 
			 "HOMO_LUMO_gap": 0.18875, 
			 "cosmo_polarized_energy": -15.35, 
			 "cosmo_cavitation_energy": 22.37, 
			 "cosmo_dispersion_energy": -16.18, 
			 "cosmo_repulsion_energy": 1.29, 
			 "cosmo_total_nonelectrostatic_energy": 7.48, 
			 "SMD_solvation_energy": 5.2 
		},
		"coords": [
			{
				"x": 3.277843521,
				"y": -1.2182553671,
				"z": -2.8828108627,
				"element": "N" 
			},
			{
				"x": 2.5085940032,
				"y": -0.6062360685,
				"z": -2.2578208193,
				"element": "C" 
			},
			{
				"x": 1.5817730417,
				"y": 0.1264249705,
				"z": -1.4742659723,
				"element": "C" 
			},
			{
				"x": 0.7197939071,
				"y": 1.1020948438,
				"z": -1.9364762488,
				"element": "C" 
			},
			{
				"x": -0.0203446016,
				"y": 1.5829748627,
				"z": -0.8895152441,
				"element": "N" 
			},
			{
				"x": 0.3410233477,
				"y": 0.9327491826,
				"z": 0.2805101447,
				"element": "C" 
			},
			{
				"x": -0.1348264224,
				"y": 1.0855870378,
				"z": 1.5866061673,
				"element": "C" 
			},
			{
				"x": 0.4299113599,
				"y": 0.2788929506,
				"z": 2.5674490489,
				"element": "C" 
			},
			{
				"x": 1.4407492189,
				"y": -0.6545302102,
				"z": 2.2568523385,
				"element": "C" 
			},
			{
				"x": 1.9101337738,
				"y": -0.802725313,
				"z": 0.958177169,
				"element": "C" 
			},
			{
				"x": 1.3558807085,
				"y": 0.0003007215,
				"z": -0.050216784,
				"element": "C" 
			},
			{
				"x": 0.5902029139,
				"y": 1.4795925074,
				"z": -2.9399667173,
				"element": "H" 
			},
			{
				"x": -0.7218466939,
				"y": 2.3023646311,
				"z": -0.9634605157,
				"element": "H" 
			},
			{
				"x": -0.9131518182,
				"y": 1.8042719458,
				"z": 1.8259355349,
				"element": "H" 
			},
			{
				"x": 0.0857833352,
				"y": 0.3693441961,
				"z": 3.5932573008,
				"element": "H" 
			},
			{
				"x": 1.85758492,
				"y": -1.2671346349,
				"z": 3.0503995541,
				"element": "H" 
			},
			{
				"x": 2.688295485,
				"y": -1.5218162562,
				"z": 0.7213459059,
				"element": "H" 
			}
		],
		 "valence_orbital": [ 
			{
				"type": "occ",
				"energy": -0.34663,
				"method": "rhf"
			},
			{
				"type": "occ",
				"energy": -0.31811,
				"method": "rhf"
			},
			{
				"type": "occ",
				"energy": -0.28341,
				"method": "rhf"
			},
			{
				"type": "occ",
				"energy": -0.24161,
				"method": "rhf"
			},
			{
				"type": "occ",
				"energy": -0.22286,
				"method": "rhf"
			},
			{
				"type": "unocc",
				"energy": -0.03411,
				"method": "rhf"
			},
			{
				"type": "unocc",
				"energy": 0.00529,
				"method": "rhf"
			},
			{
				"type": "unocc",
				"energy": 0.01216,
				"method": "rhf"
			},
			{
				"type": "unocc",
				"energy": 0.03758,
				"method": "rhf"
			},
			{
				"type": "unocc",
				"energy": 0.0611,
				"method": "rhf"
			}
		],
		"cosmo_sigma_profile": { 
			"-0.025": 0.0,
			"-0.024": 0.0,
			"-0.023": 0.0,
			"-0.022": 0.0,
			"-0.021": 0.0,
			"-0.02": 0.0,
			"-0.019": 0.0,
			"-0.018": 0.0,
			"-0.017": 1.03997606217,
			"-0.016": 1.85920698226,
			"-0.015": 1.6054813477,
			"-0.014": 1.40741778736,
			"-0.013": 1.18953844537,
			"-0.012": 1.55916757142,
			"-0.011": 1.72327051236,
			"-0.01": 3.83611467941,
			"-0.009": 2.846654313,
			"-0.008": 2.695366067,
			"-0.007": 3.82574688334,
			"-0.006": 7.11868928713,
			"-0.005": 9.95838509872,
			"-0.004": 10.4868713414,
			"-0.003": 9.81984986358,
			"-0.002": 9.02470794687,
			"-0.001": 9.03266129351,
			"0.0": 10.3623323342,
			"0.001": 14.0990520135,
			"0.002": 15.1087734476,
			"0.003": 11.7852144043,
			"0.004": 11.4450973614,
			"0.005": 10.7483463157,
			"0.006": 6.50071811308,
			"0.007": 2.61217829492,
			"0.008": 2.73662983298,
			"0.009": 3.5550995233,
			"0.01": 3.67953336146,
			"0.011": 3.39590741387,
			"0.012": 2.65818673121,
			"0.013": 2.53734174521,
			"0.014": 1.11294847171,
			"0.015": 0.0,
			"0.016": 0.0,
			"0.017": 0.0,
			"0.018": 0.0,
			"0.019": 0.0,
			"0.02": 0.0,
			"0.021": 0.0,
			"0.022": 0.0,
			"0.023": 0.0,
			"0.024": 0.0,
			"0.025": 0.0
		}
	}
}
