{
	 "smiles": "OC(=O)C1=C(C=CC=C1)C1=CN=CN=C1", 
	 "Tm": 502.15, 
	 "num_atms": 23, 
	 "gaussian": { 
		 "optdone": 1, 
		 "sigma_profile": "yes", 
		 "theory": "DFT", 
		 "functional": "B3LYP", 
		 "basiset": "6-31G**", 
		 "properties": { 
			 "R2extent": 3119.8077, 
			 "electric_dipole_moment_norm": 2.48732393146, 
			 "electric_quadrupole_moment_norm": 12.0063875712, 
			 "total_energy": -683.947246953, 
			 "HOMO_LUMO_gap": 0.18579, 
			 "cosmo_polarized_energy": -13.63, 
			 "cosmo_cavitation_energy": 28.12, 
			 "cosmo_dispersion_energy": -20.22, 
			 "cosmo_repulsion_energy": 1.57, 
			 "cosmo_total_nonelectrostatic_energy": 9.46, 
			 "SMD_solvation_energy": 2.94 
		},
		"coords": [
			{
				"x": -1.6775345783,
				"y": -0.1518992123,
				"z": -1.096324911,
				"element": "O" 
			},
			{
				"x": -1.7388048312,
				"y": -1.3719497106,
				"z": -0.5151029529,
				"element": "C" 
			},
			{
				"x": -2.7016435908,
				"y": -2.1001723241,
				"z": -0.655406387,
				"element": "O" 
			},
			{
				"x": -0.5105456579,
				"y": -1.7536192612,
				"z": 0.2488282464,
				"element": "C" 
			},
			{
				"x": 0.4733522178,
				"y": -0.8572565946,
				"z": 0.7326508002,
				"element": "C" 
			},
			{
				"x": 1.6128576708,
				"y": -1.3984342596,
				"z": 1.351328445,
				"element": "C" 
			},
			{
				"x": 1.7791668476,
				"y": -2.7731212557,
				"z": 1.505489579,
				"element": "C" 
			},
			{
				"x": 0.7902746481,
				"y": -3.6480398307,
				"z": 1.0547503036,
				"element": "C" 
			},
			{
				"x": -0.3439750227,
				"y": -3.1347199598,
				"z": 0.4354819741,
				"element": "C" 
			},
			{
				"x": 0.3653552491,
				"y": 0.6237420284,
				"z": 0.6854353083,
				"element": "C" 
			},
			{
				"x": 1.3762239056,
				"y": 1.4197074819,
				"z": 0.1352695464,
				"element": "C" 
			},
			{
				"x": 1.3321737728,
				"y": 2.7567593814,
				"z": 0.1328733415,
				"element": "N" 
			},
			{
				"x": 0.2532037163,
				"y": 3.3062260884,
				"z": 0.6960417966,
				"element": "C" 
			},
			{
				"x": -0.7733434841,
				"y": 2.6611257518,
				"z": 1.2637839803,
				"element": "N" 
			},
			{
				"x": -0.7047588129,
				"y": 1.32909147,
				"z": 1.2542067959,
				"element": "C" 
			},
			{
				"x": -2.5218296509,
				"y": -0.04025133,
				"z": -1.56522674,
				"element": "H" 
			},
			{
				"x": 2.3648492209,
				"y": -0.7190065796,
				"z": 1.7411660251,
				"element": "H" 
			},
			{
				"x": 2.6726894234,
				"y": -3.1562204205,
				"z": 1.9896282998,
				"element": "H" 
			},
			{
				"x": 0.9032525657,
				"y": -4.7202760916,
				"z": 1.180986814,
				"element": "H" 
			},
			{
				"x": -1.1238352393,
				"y": -3.7912971698,
				"z": 0.065928922,
				"element": "H" 
			},
			{
				"x": 2.2461679946,
				"y": 0.9589090075,
				"z": -0.3306887803,
				"element": "H" 
			},
			{
				"x": 0.2043225407,
				"y": 4.3933538639,
				"z": 0.6979190693,
				"element": "H" 
			},
			{
				"x": -1.5271189053,
				"y": 0.7942489268,
				"z": 1.7269805235,
				"element": "H" 
			}
		],
		 "valence_orbital": [ 
			{
				"type": "occ",
				"energy": -0.29777,
				"method": "rhf"
			},
			{
				"type": "occ",
				"energy": -0.28755,
				"method": "rhf"
			},
			{
				"type": "occ",
				"energy": -0.27133,
				"method": "rhf"
			},
			{
				"type": "occ",
				"energy": -0.26264,
				"method": "rhf"
			},
			{
				"type": "occ",
				"energy": -0.24904,
				"method": "rhf"
			},
			{
				"type": "unocc",
				"energy": -0.06325,
				"method": "rhf"
			},
			{
				"type": "unocc",
				"energy": -0.04221,
				"method": "rhf"
			},
			{
				"type": "unocc",
				"energy": -0.03616,
				"method": "rhf"
			},
			{
				"type": "unocc",
				"energy": -0.01009,
				"method": "rhf"
			},
			{
				"type": "unocc",
				"energy": 0.0402,
				"method": "rhf"
			}
		],
		"cosmo_sigma_profile": { 
			"-0.025": 0.0,
			"-0.024": 0.0,
			"-0.023": 0.0,
			"-0.022": 0.0,
			"-0.021": 0.0,
			"-0.02": 0.0,
			"-0.019": 0.0919742164352,
			"-0.018": 1.00415368737,
			"-0.017": 0.853648420427,
			"-0.016": 0.733235892156,
			"-0.015": 0.833873218115,
			"-0.014": 0.460242918362,
			"-0.013": 0.52979687082,
			"-0.012": 0.594094136098,
			"-0.011": 1.33510452497,
			"-0.01": 0.572323084603,
			"-0.009": 0.40948676452,
			"-0.008": 3.63100251826,
			"-0.007": 11.4022539378,
			"-0.006": 15.2926790067,
			"-0.005": 16.3056695051,
			"-0.004": 13.026119502,
			"-0.003": 11.5099504301,
			"-0.002": 15.50903672,
			"-0.001": 16.9776871262,
			"0.0": 15.5109809407,
			"0.001": 14.8912660642,
			"0.002": 17.4109053599,
			"0.003": 17.9025702087,
			"0.004": 7.59057909238,
			"0.005": 4.09943777809,
			"0.006": 6.77318656746,
			"0.007": 4.89305493688,
			"0.008": 3.19387056321,
			"0.009": 2.46532995463,
			"0.01": 4.20225087752,
			"0.011": 5.75996843851,
			"0.012": 5.28822131113,
			"0.013": 1.95900310458,
			"0.014": 1.65374382304,
			"0.015": 1.36322576293,
			"0.016": 0.293821181088,
			"0.017": 0.0,
			"0.018": 0.0,
			"0.019": 0.0,
			"0.02": 0.0,
			"0.021": 0.0,
			"0.022": 0.0,
			"0.023": 0.0,
			"0.024": 0.0,
			"0.025": 0.0
		}
	}
}
