{
	 "smiles": "[O-][N+](=O)C1=CC(Br)=C(Cl)N=C1", 
	 "Tm": 329.15, 
	 "num_atms": 13, 
	 "gaussian": { 
		 "optdone": 1, 
		 "sigma_profile": "yes", 
		 "theory": "DFT", 
		 "functional": "B3LYP", 
		 "basiset": "6-31G**", 
		 "properties": { 
			 "R2extent": 7083.6513, 
			 "electric_dipole_moment_norm": 1.75121452141, 
			 "electric_quadrupole_moment_norm": 11.5251830706, 
			 "total_energy": -3483.16452228, 
			 "HOMO_LUMO_gap": 0.16768, 
			 "cosmo_polarized_energy": -7.92, 
			 "cosmo_cavitation_energy": 23.02, 
			 "cosmo_dispersion_energy": -17.62, 
			 "cosmo_repulsion_energy": 1.41, 
			 "cosmo_total_nonelectrostatic_energy": 6.82, 
			 "SMD_solvation_energy": 3.65 
		},
		"coords": [
			{
				"x": -0.8606417046,
				"y": 2.2727049538,
				"z": 1.3940696264,
				"element": "O" 
			},
			{
				"x": -0.4209766102,
				"y": 1.3285779454,
				"z": 0.7412912216,
				"element": "N" 
			},
			{
				"x": -0.3435385253,
				"y": 1.2823790225,
				"z": -0.4842804411,
				"element": "O" 
			},
			{
				"x": 0.0521386277,
				"y": 0.1557229277,
				"z": 1.4871912313,
				"element": "C" 
			},
			{
				"x": -0.0122578763,
				"y": 0.1544095368,
				"z": 2.8771093866,
				"element": "C" 
			},
			{
				"x": 0.4441009224,
				"y": -0.9720837472,
				"z": 3.5514167657,
				"element": "C" 
			},
			{
				"x": 0.3725583789,
				"y": -1.0106715346,
				"z": 5.4416493911,
				"element": "Br" 
			},
			{
				"x": 0.9441305876,
				"y": -2.0437743915,
				"z": 2.783169301,
				"element": "C" 
			},
			{
				"x": 1.5343136459,
				"y": -3.4893678681,
				"z": 3.5509217494,
				"element": "Cl" 
			},
			{
				"x": 0.9973106969,
				"y": -2.0236862322,
				"z": 1.4595395161,
				"element": "N" 
			},
			{
				"x": 0.5613376576,
				"y": -0.9463404945,
				"z": 0.8049132889,
				"element": "C" 
			},
			{
				"x": -0.4085056277,
				"y": 1.01239406,
				"z": 3.4051278134,
				"element": "H" 
			},
			{
				"x": 0.6149298271,
				"y": -0.9531641781,
				"z": -0.2782188504,
				"element": "H" 
			}
		],
		 "valence_orbital": [ 
			{
				"type": "occ",
				"energy": -0.32085,
				"method": "rhf"
			},
			{
				"type": "occ",
				"energy": -0.31756,
				"method": "rhf"
			},
			{
				"type": "occ",
				"energy": -0.31511,
				"method": "rhf"
			},
			{
				"type": "occ",
				"energy": -0.30055,
				"method": "rhf"
			},
			{
				"type": "occ",
				"energy": -0.28347,
				"method": "rhf"
			},
			{
				"type": "unocc",
				"energy": -0.11579,
				"method": "rhf"
			},
			{
				"type": "unocc",
				"energy": -0.07349,
				"method": "rhf"
			},
			{
				"type": "unocc",
				"energy": -0.03433,
				"method": "rhf"
			},
			{
				"type": "unocc",
				"energy": -0.0334,
				"method": "rhf"
			},
			{
				"type": "unocc",
				"energy": 0.02543,
				"method": "rhf"
			}
		],
		"cosmo_sigma_profile": { 
			"-0.025": 0.0,
			"-0.024": 0.0,
			"-0.023": 0.0,
			"-0.022": 0.0,
			"-0.021": 0.0,
			"-0.02": 0.0,
			"-0.019": 0.0,
			"-0.018": 0.0,
			"-0.017": 0.0,
			"-0.016": 0.0,
			"-0.015": 0.0,
			"-0.014": 0.0,
			"-0.013": 0.0,
			"-0.012": 0.0,
			"-0.011": 0.0,
			"-0.01": 1.11457369933,
			"-0.009": 2.93549186459,
			"-0.008": 4.42248438925,
			"-0.007": 5.09365085803,
			"-0.006": 8.63407971065,
			"-0.005": 12.5737951506,
			"-0.004": 18.5114909217,
			"-0.003": 14.6065655078,
			"-0.002": 11.1547043397,
			"-0.001": 11.846909666,
			"0.0": 11.0227169378,
			"0.001": 11.4688709772,
			"0.002": 19.0186323246,
			"0.003": 18.4227772356,
			"0.004": 6.9559312598,
			"0.005": 5.3479096202,
			"0.006": 8.61279195309,
			"0.007": 9.09662075752,
			"0.008": 4.84504556525,
			"0.009": 3.91227424852,
			"0.01": 1.16494255849,
			"0.011": 0.653071780736,
			"0.012": 0.58874152053,
			"0.013": 0.0342523800189,
			"0.014": 0.0,
			"0.015": 0.0,
			"0.016": 0.0,
			"0.017": 0.0,
			"0.018": 0.0,
			"0.019": 0.0,
			"0.02": 0.0,
			"0.021": 0.0,
			"0.022": 0.0,
			"0.023": 0.0,
			"0.024": 0.0,
			"0.025": 0.0
		}
	}
}
