{
	 "smiles": "CC1=C(SCC(O)=O)C(C)=NN1", 
	 "Tm": 427.15, 
	 "num_atms": 22, 
	 "gaussian": { 
		 "optdone": 1, 
		 "sigma_profile": "yes", 
		 "theory": "DFT", 
		 "functional": "B3LYP", 
		 "basiset": "6-31G**", 
		 "properties": { 
			 "R2extent": 3270.7424, 
			 "electric_dipole_moment_norm": 3.99838672967, 
			 "electric_quadrupole_moment_norm": 9.68861635065, 
			 "total_energy": -930.912336326, 
			 "HOMO_LUMO_gap": 0.22853, 
			 "cosmo_polarized_energy": -17.61, 
			 "cosmo_cavitation_energy": 27.71, 
			 "cosmo_dispersion_energy": -20.02, 
			 "cosmo_repulsion_energy": 1.59, 
			 "cosmo_total_nonelectrostatic_energy": 9.28, 
			 "SMD_solvation_energy": 4.78 
		},
		"coords": [
			{
				"x": -2.7364128268,
				"y": 2.3375786268,
				"z": -0.6952736987,
				"element": "C" 
			},
			{
				"x": -1.3455038509,
				"y": 1.9635545359,
				"z": -0.300364226,
				"element": "C" 
			},
			{
				"x": -0.8288099802,
				"y": 1.4486476981,
				"z": 0.8877672769,
				"element": "C" 
			},
			{
				"x": -1.7258967655,
				"y": 1.1571213998,
				"z": 2.3811960427,
				"element": "S" 
			},
			{
				"x": -2.4866063966,
				"y": -0.4794901819,
				"z": 2.0844769538,
				"element": "C" 
			},
			{
				"x": -1.5510721616,
				"y": -1.6780305482,
				"z": 2.1214096317,
				"element": "C" 
			},
			{
				"x": -2.1948683816,
				"y": -2.7735585111,
				"z": 1.6459999421,
				"element": "O" 
			},
			{
				"x": -0.4124290268,
				"y": -1.7152110568,
				"z": 2.5229102371,
				"element": "O" 
			},
			{
				"x": 0.5765825133,
				"y": 1.3069336074,
				"z": 0.6649274168,
				"element": "C" 
			},
			{
				"x": 1.6266587909,
				"y": 0.8359343423,
				"z": 1.620999429,
				"element": "C" 
			},
			{
				"x": 0.8975825722,
				"y": 1.6890042378,
				"z": -0.5677600331,
				"element": "N" 
			},
			{
				"x": -0.2797771616,
				"y": 2.0747938243,
				"z": -1.1288546634,
				"element": "N" 
			},
			{
				"x": -3.192762053,
				"y": 1.5874036719,
				"z": -1.352756513,
				"element": "H" 
			},
			{
				"x": -3.3570166375,
				"y": 2.4243455915,
				"z": 0.1997033618,
				"element": "H" 
			},
			{
				"x": -2.7597104401,
				"y": 3.2977496568,
				"z": -1.2220496662,
				"element": "H" 
			},
			{
				"x": -3.0368873612,
				"y": -0.4894933329,
				"z": 1.1403705853,
				"element": "H" 
			},
			{
				"x": -3.227729229,
				"y": -0.6147733609,
				"z": 2.8810431703,
				"element": "H" 
			},
			{
				"x": -1.5636331611,
				"y": -3.5096694527,
				"z": 1.7167065955,
				"element": "H" 
			},
			{
				"x": 2.5797112338,
				"y": 0.7341376136,
				"z": 1.097296328,
				"element": "H" 
			},
			{
				"x": 1.3454064752,
				"y": -0.1214007497,
				"z": 2.0663168711,
				"element": "H" 
			},
			{
				"x": 1.7581407234,
				"y": 1.5505616712,
				"z": 2.4414427887,
				"element": "H" 
			},
			{
				"x": -0.2762668755,
				"y": 2.4102607167,
				"z": -2.07980783,
				"element": "H" 
			}
		],
		 "valence_orbital": [ 
			{
				"type": "occ",
				"energy": -0.28377,
				"method": "rhf"
			},
			{
				"type": "occ",
				"energy": -0.28332,
				"method": "rhf"
			},
			{
				"type": "occ",
				"energy": -0.24322,
				"method": "rhf"
			},
			{
				"type": "occ",
				"energy": -0.23829,
				"method": "rhf"
			},
			{
				"type": "occ",
				"energy": -0.2281,
				"method": "rhf"
			},
			{
				"type": "unocc",
				"energy": 0.00043,
				"method": "rhf"
			},
			{
				"type": "unocc",
				"energy": 0.01072,
				"method": "rhf"
			},
			{
				"type": "unocc",
				"energy": 0.03569,
				"method": "rhf"
			},
			{
				"type": "unocc",
				"energy": 0.0696,
				"method": "rhf"
			},
			{
				"type": "unocc",
				"energy": 0.07573,
				"method": "rhf"
			}
		],
		"cosmo_sigma_profile": { 
			"-0.025": 0.0,
			"-0.024": 0.0,
			"-0.023": 0.0,
			"-0.022": 0.0,
			"-0.021": 0.0,
			"-0.02": 0.0,
			"-0.019": 0.174823206021,
			"-0.018": 0.714120460228,
			"-0.017": 1.22772585476,
			"-0.016": 2.3248540825,
			"-0.015": 1.89523603814,
			"-0.014": 1.84166454599,
			"-0.013": 0.507724553406,
			"-0.012": 2.17510492822,
			"-0.011": 2.73056258316,
			"-0.01": 1.90939363145,
			"-0.009": 3.39608860201,
			"-0.008": 4.01048584262,
			"-0.007": 5.22867606521,
			"-0.006": 6.48995418442,
			"-0.005": 10.190310136,
			"-0.004": 15.3922555621,
			"-0.003": 15.2636698201,
			"-0.002": 15.5731048059,
			"-0.001": 15.0388510394,
			"0.0": 14.1971488017,
			"0.001": 14.3568206805,
			"0.002": 11.2017676369,
			"0.003": 12.0595360211,
			"0.004": 11.9912341204,
			"0.005": 8.33272610145,
			"0.006": 7.92145878195,
			"0.007": 6.20989755414,
			"0.008": 6.78869733252,
			"0.009": 4.66517692089,
			"0.01": 4.9284408708,
			"0.011": 5.55753947048,
			"0.012": 2.42394639713,
			"0.013": 1.00841341319,
			"0.014": 0.896138627866,
			"0.015": 1.18782948656,
			"0.016": 0.879024723031,
			"0.017": 0.176737177904,
			"0.018": 0.0,
			"0.019": 0.0,
			"0.02": 0.0,
			"0.021": 0.0,
			"0.022": 0.0,
			"0.023": 0.0,
			"0.024": 0.0,
			"0.025": 0.0
		}
	}
}
