{
	 "smiles": "CC(=O)C1=CC(OCCOC2=CC(=CC=C2)C(C)=O)=CC=C1", 
	 "Tm": 391.15, 
	 "num_atms": 40, 
	 "gaussian": { 
		 "optdone": 1, 
		 "sigma_profile": "yes", 
		 "theory": "DFT", 
		 "functional": "B3LYP", 
		 "basiset": "6-31G**", 
		 "properties": { 
			 "R2extent": 8007.4884, 
			 "electric_dipole_moment_norm": 5.46290860714, 
			 "electric_quadrupole_moment_norm": 22.8395596514, 
			 "total_energy": -997.650359271, 
			 "HOMO_LUMO_gap": 0.16463, 
			 "cosmo_polarized_energy": -15.76, 
			 "cosmo_cavitation_energy": 43.77, 
			 "cosmo_dispersion_energy": -29.8, 
			 "cosmo_repulsion_energy": 2.23, 
			 "cosmo_total_nonelectrostatic_energy": 16.19, 
			 "SMD_solvation_energy": 8.88 
		},
		"coords": [
			{
				"x": 2.5931627184,
				"y": 3.7403045955,
				"z": 0.3913576452,
				"element": "C" 
			},
			{
				"x": 1.5135827003,
				"y": 2.6765844273,
				"z": 0.4899494997,
				"element": "C" 
			},
			{
				"x": 1.7159365422,
				"y": 1.6548858516,
				"z": 1.1352710895,
				"element": "O" 
			},
			{
				"x": 0.2129570855,
				"y": 2.8944794256,
				"z": -0.2214067874,
				"element": "C" 
			},
			{
				"x": -0.7946614564,
				"y": 1.933542866,
				"z": -0.0354040138,
				"element": "C" 
			},
			{
				"x": -2.0016309065,
				"y": 2.0477261811,
				"z": -0.7219475566,
				"element": "C" 
			},
			{
				"x": -3.0380782633,
				"y": 1.1544528525,
				"z": -0.6475135279,
				"element": "O" 
			},
			{
				"x": -3.1761500371,
				"y": 0.2640936915,
				"z": 0.4593955913,
				"element": "C" 
			},
			{
				"x": -2.5323825236,
				"y": -1.1034503442,
				"z": 0.2509692324,
				"element": "C" 
			},
			{
				"x": -1.1678290805,
				"y": -1.0245616705,
				"z": 0.6325291727,
				"element": "O" 
			},
			{
				"x": -0.3192748554,
				"y": -2.0707296918,
				"z": 0.3849181828,
				"element": "C" 
			},
			{
				"x": 1.0249463548,
				"y": -1.8256587026,
				"z": 0.6955807389,
				"element": "C" 
			},
			{
				"x": 1.9828734529,
				"y": -2.8186202612,
				"z": 0.4822802057,
				"element": "C" 
			},
			{
				"x": 1.5924074046,
				"y": -4.0630508533,
				"z": -0.044259569,
				"element": "C" 
			},
			{
				"x": 0.2570441675,
				"y": -4.2976501405,
				"z": -0.3420577702,
				"element": "C" 
			},
			{
				"x": -0.712679226,
				"y": -3.3079517882,
				"z": -0.1308718966,
				"element": "C" 
			},
			{
				"x": 3.436746844,
				"y": -2.6002319789,
				"z": 0.794733961,
				"element": "C" 
			},
			{
				"x": 3.8539258153,
				"y": -1.313921627,
				"z": 1.4842889064,
				"element": "C" 
			},
			{
				"x": 4.2629124624,
				"y": -3.4564231656,
				"z": 0.5145621688,
				"element": "O" 
			},
			{
				"x": -2.209323468,
				"y": 3.1302715562,
				"z": -1.5923923248,
				"element": "C" 
			},
			{
				"x": -1.2126407659,
				"y": 4.0847568981,
				"z": -1.7679770017,
				"element": "C" 
			},
			{
				"x": 0.0002305882,
				"y": 3.9782569736,
				"z": -1.0835904002,
				"element": "C" 
			},
			{
				"x": 2.9257875997,
				"y": 3.8611012021,
				"z": -0.6455810452,
				"element": "H" 
			},
			{
				"x": 3.4407848458,
				"y": 3.4370478366,
				"z": 1.006386595,
				"element": "H" 
			},
			{
				"x": 2.2220275104,
				"y": 4.7133079559,
				"z": 0.7301487812,
				"element": "H" 
			},
			{
				"x": -0.5913705309,
				"y": 1.0929076396,
				"z": 0.6125557607,
				"element": "H" 
			},
			{
				"x": -4.2562473608,
				"y": 0.1209309023,
				"z": 0.5643726409,
				"element": "H" 
			},
			{
				"x": -2.7957222185,
				"y": 0.7173953603,
				"z": 1.3824846414,
				"element": "H" 
			},
			{
				"x": -3.0553590295,
				"y": -1.8452575374,
				"z": 0.8732173643,
				"element": "H" 
			},
			{
				"x": -2.6359674026,
				"y": -1.3998860434,
				"z": -0.8012759094,
				"element": "H" 
			},
			{
				"x": 1.2855870273,
				"y": -0.8452883894,
				"z": 1.0802472566,
				"element": "H" 
			},
			{
				"x": 2.353861162,
				"y": -4.8175181708,
				"z": -0.20600023,
				"element": "H" 
			},
			{
				"x": -0.0495752488,
				"y": -5.2589988235,
				"z": -0.7444005599,
				"element": "H" 
			},
			{
				"x": -1.7508774769,
				"y": -3.5112421939,
				"z": -0.3678986834,
				"element": "H" 
			},
			{
				"x": 4.9408125603,
				"y": -1.3041756086,
				"z": 1.5732175229,
				"element": "H" 
			},
			{
				"x": 3.4090834947,
				"y": -1.2598524311,
				"z": 2.4847675591,
				"element": "H" 
			},
			{
				"x": 3.5147495122,
				"y": -0.4235989104,
				"z": 0.9459175604,
				"element": "H" 
			},
			{
				"x": -3.1568792203,
				"y": 3.2002039445,
				"z": -2.1167367944,
				"element": "H" 
			},
			{
				"x": -1.3836517893,
				"y": 4.9187777213,
				"z": -2.4421609257,
				"element": "H" 
			},
			{
				"x": 0.7700810119,
				"y": 4.7263404506,
				"z": -1.2369770808,
				"element": "H" 
			}
		],
		 "valence_orbital": [ 
			{
				"type": "occ",
				"energy": -0.25512,
				"method": "rhf"
			},
			{
				"type": "occ",
				"energy": -0.2539,
				"method": "rhf"
			},
			{
				"type": "occ",
				"energy": -0.23654,
				"method": "rhf"
			},
			{
				"type": "occ",
				"energy": -0.233,
				"method": "rhf"
			},
			{
				"type": "occ",
				"energy": -0.22398,
				"method": "rhf"
			},
			{
				"type": "unocc",
				"energy": -0.05935,
				"method": "rhf"
			},
			{
				"type": "unocc",
				"energy": -0.04441,
				"method": "rhf"
			},
			{
				"type": "unocc",
				"energy": -0.0017,
				"method": "rhf"
			},
			{
				"type": "unocc",
				"energy": 0.00471,
				"method": "rhf"
			},
			{
				"type": "unocc",
				"energy": 0.03851,
				"method": "rhf"
			}
		],
		"cosmo_sigma_profile": { 
			"-0.025": 0.0,
			"-0.024": 0.0,
			"-0.023": 0.0,
			"-0.022": 0.0,
			"-0.021": 0.0,
			"-0.02": 0.0,
			"-0.019": 0.0,
			"-0.018": 0.0,
			"-0.017": 0.0,
			"-0.016": 0.0,
			"-0.015": 0.0,
			"-0.014": 0.0,
			"-0.013": 0.0,
			"-0.012": 0.0,
			"-0.011": 0.0,
			"-0.01": 0.0,
			"-0.009": 0.0,
			"-0.008": 0.260660708597,
			"-0.007": 9.20037300057,
			"-0.006": 28.7754525194,
			"-0.005": 31.4393133185,
			"-0.004": 28.5248420009,
			"-0.003": 25.4987991048,
			"-0.002": 22.7206910495,
			"-0.001": 25.473282496,
			"0.0": 21.2298516935,
			"0.001": 19.1456537021,
			"0.002": 25.3995974881,
			"0.003": 36.4577330453,
			"0.004": 30.0958053945,
			"0.005": 10.9234707981,
			"0.006": 5.82174083179,
			"0.007": 4.40376233446,
			"0.008": 4.03157720205,
			"0.009": 4.5860830217,
			"0.01": 4.43884548523,
			"0.011": 4.31321076772,
			"0.012": 4.38692027904,
			"0.013": 1.48612757791,
			"0.014": 0.186846126152,
			"0.015": 0.0,
			"0.016": 0.0,
			"0.017": 0.0,
			"0.018": 0.0,
			"0.019": 0.0,
			"0.02": 0.0,
			"0.021": 0.0,
			"0.022": 0.0,
			"0.023": 0.0,
			"0.024": 0.0,
			"0.025": 0.0
		}
	}
}
