{
	 "smiles": "CC(C)NC1=NC=C(C=C1)C(O)=O", 
	 "Tm": 523.15, 
	 "num_atms": 25, 
	 "gaussian": { 
		 "optdone": 1, 
		 "sigma_profile": "yes", 
		 "theory": "DFT", 
		 "functional": "B3LYP", 
		 "basiset": "6-31G**", 
		 "properties": { 
			 "R2extent": 3819.0875, 
			 "electric_dipole_moment_norm": 6.06328111586, 
			 "electric_quadrupole_moment_norm": 26.8499775438, 
			 "total_energy": -610.16265808, 
			 "HOMO_LUMO_gap": 0.18365, 
			 "cosmo_polarized_energy": -17.41, 
			 "cosmo_cavitation_energy": 28.43, 
			 "cosmo_dispersion_energy": -20.75, 
			 "cosmo_repulsion_energy": 1.66, 
			 "cosmo_total_nonelectrostatic_energy": 9.33, 
			 "SMD_solvation_energy": 5.4 
		},
		"coords": [
			{
				"x": -2.3042448975,
				"y": -1.1376109129,
				"z": -0.9253458351,
				"element": "C" 
			},
			{
				"x": -2.2128302785,
				"y": -0.0135017669,
				"z": 0.1174216026,
				"element": "C" 
			},
			{
				"x": -1.7973361315,
				"y": -0.5316273916,
				"z": 1.5021850757,
				"element": "C" 
			},
			{
				"x": -1.368910336,
				"y": 1.1056345612,
				"z": -0.3365833727,
				"element": "N" 
			},
			{
				"x": -0.0359096804,
				"y": 1.0822817076,
				"z": -0.6196529843,
				"element": "C" 
			},
			{
				"x": 0.6377147634,
				"y": -0.0736002144,
				"z": -0.453768099,
				"element": "N" 
			},
			{
				"x": 1.9460252029,
				"y": -0.0778629769,
				"z": -0.7154612147,
				"element": "C" 
			},
			{
				"x": 2.6792609631,
				"y": 1.0296053955,
				"z": -1.146448188,
				"element": "C" 
			},
			{
				"x": 1.9568550348,
				"y": 2.2251498763,
				"z": -1.3474985761,
				"element": "C" 
			},
			{
				"x": 0.6083860236,
				"y": 2.2641325922,
				"z": -1.0826401665,
				"element": "C" 
			},
			{
				"x": 4.1333412922,
				"y": 1.0167048136,
				"z": -1.4545296127,
				"element": "C" 
			},
			{
				"x": 4.8582668271,
				"y": -0.0447174796,
				"z": -0.9996996155,
				"element": "O" 
			},
			{
				"x": 4.6873548066,
				"y": 1.8927852039,
				"z": -2.0804670554,
				"element": "O" 
			},
			{
				"x": -2.6387042678,
				"y": -0.7456811509,
				"z": -1.8908961287,
				"element": "H" 
			},
			{
				"x": -1.3322763872,
				"y": -1.6155130108,
				"z": -1.0605255385,
				"element": "H" 
			},
			{
				"x": -3.0239831657,
				"y": -1.8941092211,
				"z": -0.5954319518,
				"element": "H" 
			},
			{
				"x": -3.2097147916,
				"y": 0.4333292574,
				"z": 0.2148763063,
				"element": "H" 
			},
			{
				"x": -2.5156783491,
				"y": -1.2815029143,
				"z": 1.8497386595,
				"element": "H" 
			},
			{
				"x": -1.774563428,
				"y": 0.2843814925,
				"z": 2.2310525627,
				"element": "H" 
			},
			{
				"x": -0.8074426899,
				"y": -0.9893739962,
				"z": 1.4592099903,
				"element": "H" 
			},
			{
				"x": -1.8343501712,
				"y": 1.9851360326,
				"z": -0.4945892792,
				"element": "H" 
			},
			{
				"x": 2.4237633316,
				"y": -1.0518741946,
				"z": -0.5944449632,
				"element": "H" 
			},
			{
				"x": 2.4895786496,
				"y": 3.0977800634,
				"z": -1.7107941722,
				"element": "H" 
			},
			{
				"x": 0.0367514395,
				"y": 3.1769965468,
				"z": -1.2243847203,
				"element": "H" 
			},
			{
				"x": 4.33174624,
				"y": -0.5752423127,
				"z": -0.386522723,
				"element": "H" 
			}
		],
		 "valence_orbital": [ 
			{
				"type": "occ",
				"energy": -0.30494,
				"method": "rhf"
			},
			{
				"type": "occ",
				"energy": -0.29197,
				"method": "rhf"
			},
			{
				"type": "occ",
				"energy": -0.27616,
				"method": "rhf"
			},
			{
				"type": "occ",
				"energy": -0.25889,
				"method": "rhf"
			},
			{
				"type": "occ",
				"energy": -0.22027,
				"method": "rhf"
			},
			{
				"type": "unocc",
				"energy": -0.03662,
				"method": "rhf"
			},
			{
				"type": "unocc",
				"energy": -0.02887,
				"method": "rhf"
			},
			{
				"type": "unocc",
				"energy": 0.05729,
				"method": "rhf"
			},
			{
				"type": "unocc",
				"energy": 0.05828,
				"method": "rhf"
			},
			{
				"type": "unocc",
				"energy": 0.06749,
				"method": "rhf"
			}
		],
		"cosmo_sigma_profile": { 
			"-0.025": 0.0,
			"-0.024": 0.0,
			"-0.023": 0.0,
			"-0.022": 0.0,
			"-0.021": 0.0,
			"-0.02": 0.0,
			"-0.019": 0.154634098413,
			"-0.018": 0.668169827996,
			"-0.017": 1.22743331572,
			"-0.016": 0.913606670223,
			"-0.015": 0.544953034474,
			"-0.014": 2.01470938063,
			"-0.013": 2.59514514286,
			"-0.012": 3.2276385237,
			"-0.011": 2.93568478693,
			"-0.01": 2.30024434546,
			"-0.009": 2.41548473458,
			"-0.008": 3.78255542557,
			"-0.007": 3.90144592112,
			"-0.006": 5.39544227386,
			"-0.005": 8.20323023315,
			"-0.004": 8.27349018517,
			"-0.003": 16.5721628176,
			"-0.002": 14.8725306341,
			"-0.001": 19.3800412923,
			"0.0": 17.6719069937,
			"0.001": 25.5137688856,
			"0.002": 22.5288360373,
			"0.003": 13.0586342255,
			"0.004": 6.61577161741,
			"0.005": 4.56450395919,
			"0.006": 4.77858710151,
			"0.007": 4.51054474593,
			"0.008": 2.89443102105,
			"0.009": 3.91146193329,
			"0.01": 4.08591540619,
			"0.011": 5.49296214452,
			"0.012": 5.51261344939,
			"0.013": 3.31905256507,
			"0.014": 0.723411214521,
			"0.015": 0.0,
			"0.016": 0.0,
			"0.017": 0.0,
			"0.018": 0.0,
			"0.019": 0.0,
			"0.02": 0.0,
			"0.021": 0.0,
			"0.022": 0.0,
			"0.023": 0.0,
			"0.024": 0.0,
			"0.025": 0.0
		}
	}
}
