{
	 "smiles": "CN(C)C1=C(C=CC(F)=C1)C(C)=O", 
	 "Tm": 331.15, 
	 "num_atms": 25, 
	 "gaussian": { 
		 "optdone": 1, 
		 "sigma_profile": "yes", 
		 "theory": "DFT", 
		 "functional": "B3LYP", 
		 "basiset": "6-31G**", 
		 "properties": { 
			 "R2extent": 3496.9958, 
			 "electric_dipole_moment_norm": 3.49296312176, 
			 "electric_quadrupole_moment_norm": 14.8376593467, 
			 "total_energy": -618.094127869, 
			 "HOMO_LUMO_gap": 0.17079, 
			 "cosmo_polarized_energy": -8.71, 
			 "cosmo_cavitation_energy": 27.98, 
			 "cosmo_dispersion_energy": -19.76, 
			 "cosmo_repulsion_energy": 1.52, 
			 "cosmo_total_nonelectrostatic_energy": 9.74, 
			 "SMD_solvation_energy": 6.41 
		},
		"coords": [
			{
				"x": 0.5607109324,
				"y": 1.4112450433,
				"z": 2.3398980456,
				"element": "C" 
			},
			{
				"x": 1.3975315821,
				"y": 0.5683249177,
				"z": 1.498047722,
				"element": "N" 
			},
			{
				"x": 1.5188958462,
				"y": -0.7881136029,
				"z": 2.0395796506,
				"element": "C" 
			},
			{
				"x": 1.2452018136,
				"y": 0.6811785489,
				"z": 0.0996141106,
				"element": "C" 
			},
			{
				"x": 2.261611134,
				"y": 0.2135412773,
				"z": -0.7781093542,
				"element": "C" 
			},
			{
				"x": 2.027658858,
				"y": 0.2351818131,
				"z": -2.1627916345,
				"element": "C" 
			},
			{
				"x": 0.8742092517,
				"y": 0.7809779485,
				"z": -2.7133765017,
				"element": "C" 
			},
			{
				"x": -0.0700652564,
				"y": 1.2964568661,
				"z": -1.8339002008,
				"element": "C" 
			},
			{
				"x": -1.1990126108,
				"y": 1.842282016,
				"z": -2.3293183402,
				"element": "F" 
			},
			{
				"x": 0.083461994,
				"y": 1.2451131617,
				"z": -0.4553171815,
				"element": "C" 
			},
			{
				"x": 3.6386809617,
				"y": -0.2308516264,
				"z": -0.3722503919,
				"element": "C" 
			},
			{
				"x": 4.3237684825,
				"y": 0.3824964768,
				"z": 0.8421857616,
				"element": "C" 
			},
			{
				"x": 4.2593401497,
				"y": -1.0161303108,
				"z": -1.0762302061,
				"element": "O" 
			},
			{
				"x": -0.4886470243,
				"y": 1.0731503752,
				"z": 2.3958769725,
				"element": "H" 
			},
			{
				"x": 0.96524127,
				"y": 1.4006292506,
				"z": 3.3567758619,
				"element": "H" 
			},
			{
				"x": 0.5771965043,
				"y": 2.4417028324,
				"z": 1.9776485989,
				"element": "H" 
			},
			{
				"x": 2.0754513078,
				"y": -1.4302795065,
				"z": 1.3577713776,
				"element": "H" 
			},
			{
				"x": 0.5298822033,
				"y": -1.2477045057,
				"z": 2.2039911962,
				"element": "H" 
			},
			{
				"x": 2.0460712092,
				"y": -0.7605141851,
				"z": 2.9992024,
				"element": "H" 
			},
			{
				"x": 2.8088745676,
				"y": -0.1585128227,
				"z": -2.804081724,
				"element": "H" 
			},
			{
				"x": 0.7089643241,
				"y": 0.8284283417,
				"z": -3.7835100292,
				"element": "H" 
			},
			{
				"x": -0.7262206629,
				"y": 1.6070426196,
				"z": 0.1652717639,
				"element": "H" 
			},
			{
				"x": 3.8479273884,
				"y": 1.3003385359,
				"z": 1.1870880612,
				"element": "H" 
			},
			{
				"x": 4.3248871177,
				"y": -0.3316978827,
				"z": 1.6724352415,
				"element": "H" 
			},
			{
				"x": 5.367078656,
				"y": 0.5611144181,
				"z": 0.5697988001,
				"element": "H" 
			}
		],
		 "valence_orbital": [ 
			{
				"type": "occ",
				"energy": -0.3395,
				"method": "rhf"
			},
			{
				"type": "occ",
				"energy": -0.28392,
				"method": "rhf"
			},
			{
				"type": "occ",
				"energy": -0.25194,
				"method": "rhf"
			},
			{
				"type": "occ",
				"energy": -0.24081,
				"method": "rhf"
			},
			{
				"type": "occ",
				"energy": -0.2161,
				"method": "rhf"
			},
			{
				"type": "unocc",
				"energy": -0.04531,
				"method": "rhf"
			},
			{
				"type": "unocc",
				"energy": -0.00845,
				"method": "rhf"
			},
			{
				"type": "unocc",
				"energy": 0.03519,
				"method": "rhf"
			},
			{
				"type": "unocc",
				"energy": 0.07528,
				"method": "rhf"
			},
			{
				"type": "unocc",
				"energy": 0.098,
				"method": "rhf"
			}
		],
		"cosmo_sigma_profile": { 
			"-0.025": 0.0,
			"-0.024": 0.0,
			"-0.023": 0.0,
			"-0.022": 0.0,
			"-0.021": 0.0,
			"-0.02": 0.0,
			"-0.019": 0.0,
			"-0.018": 0.0,
			"-0.017": 0.0,
			"-0.016": 0.0,
			"-0.015": 0.0,
			"-0.014": 0.0,
			"-0.013": 0.0,
			"-0.012": 0.0,
			"-0.011": 0.0,
			"-0.01": 0.0,
			"-0.009": 0.0,
			"-0.008": 0.166872401369,
			"-0.007": 2.50651730994,
			"-0.006": 5.40467853781,
			"-0.005": 15.8806972077,
			"-0.004": 23.4443150893,
			"-0.003": 22.4037346266,
			"-0.002": 26.5642868118,
			"-0.001": 23.8217050833,
			"0.0": 16.2889216891,
			"0.001": 15.8842932837,
			"0.002": 14.7088181312,
			"0.003": 15.7279976983,
			"0.004": 16.2898912177,
			"0.005": 4.01090556957,
			"0.006": 1.27920220307,
			"0.007": 1.35643783014,
			"0.008": 1.70633956776,
			"0.009": 2.17746456572,
			"0.01": 1.84052599216,
			"0.011": 1.77201983082,
			"0.012": 4.44389560217,
			"0.013": 3.15406499945,
			"0.014": 0.537832656328,
			"0.015": 0.0,
			"0.016": 0.0,
			"0.017": 0.0,
			"0.018": 0.0,
			"0.019": 0.0,
			"0.02": 0.0,
			"0.021": 0.0,
			"0.022": 0.0,
			"0.023": 0.0,
			"0.024": 0.0,
			"0.025": 0.0
		}
	}
}
