{
	 "smiles": "COCCC1=NN=C(O1)C1=CC(=CC=C1)C(O)=O", 
	 "Tm": 430.15, 
	 "num_atms": 30, 
	 "gaussian": { 
		 "optdone": 1, 
		 "sigma_profile": "yes", 
		 "theory": "DFT", 
		 "functional": "B3LYP", 
		 "basiset": "6-31G**", 
		 "properties": { 
			 "R2extent": 7044.881, 
			 "electric_dipole_moment_norm": 6.8166736837, 
			 "electric_quadrupole_moment_norm": 13.7682494657, 
			 "total_energy": -874.879295647, 
			 "HOMO_LUMO_gap": 0.18453, 
			 "cosmo_polarized_energy": -20.88, 
			 "cosmo_cavitation_energy": 35.92, 
			 "cosmo_dispersion_energy": -25.57, 
			 "cosmo_repulsion_energy": 2.0, 
			 "cosmo_total_nonelectrostatic_energy": 12.35, 
			 "SMD_solvation_energy": 6.08 
		},
		"coords": [
			{
				"x": -4.7058176266,
				"y": 0.9717125531,
				"z": -3.9721846172,
				"element": "C" 
			},
			{
				"x": -4.3267174943,
				"y": 0.1807475211,
				"z": -2.8633518109,
				"element": "O" 
			},
			{
				"x": -5.163083113,
				"y": 0.3694644986,
				"z": -1.7432182349,
				"element": "C" 
			},
			{
				"x": -4.6333869034,
				"y": -0.494715528,
				"z": -0.5933324036,
				"element": "C" 
			},
			{
				"x": -3.26650691,
				"y": -0.1012157851,
				"z": -0.1504732706,
				"element": "C" 
			},
			{
				"x": -2.9335639654,
				"y": 0.7422365809,
				"z": 0.7777631598,
				"element": "N" 
			},
			{
				"x": -1.5422825809,
				"y": 0.7893884379,
				"z": 0.7912155904,
				"element": "N" 
			},
			{
				"x": -1.1363633757,
				"y": -0.0342623773,
				"z": -0.1303685776,
				"element": "C" 
			},
			{
				"x": -2.1767990286,
				"y": -0.6399351334,
				"z": -0.7709357139,
				"element": "O" 
			},
			{
				"x": 0.2345910868,
				"y": -0.3537484452,
				"z": -0.5125911902,
				"element": "C" 
			},
			{
				"x": 1.2895791463,
				"y": 0.2861201666,
				"z": 0.1556555947,
				"element": "C" 
			},
			{
				"x": 2.6136906972,
				"y": 0.0037926886,
				"z": -0.1849393204,
				"element": "C" 
			},
			{
				"x": 2.8842175216,
				"y": -0.9088183637,
				"z": -1.2164948782,
				"element": "C" 
			},
			{
				"x": 1.8388887349,
				"y": -1.5483910658,
				"z": -1.8764011659,
				"element": "C" 
			},
			{
				"x": 0.5149547691,
				"y": -1.2774196886,
				"z": -1.5289932452,
				"element": "C" 
			},
			{
				"x": 3.7885771489,
				"y": 0.662359032,
				"z": 0.4812423761,
				"element": "C" 
			},
			{
				"x": 3.5666998187,
				"y": 1.2555683374,
				"z": 1.6812931143,
				"element": "O" 
			},
			{
				"x": 4.8945418385,
				"y": 0.6768990489,
				"z": -0.0060509056,
				"element": "O" 
			},
			{
				"x": -4.0007148913,
				"y": 0.7573057141,
				"z": -4.7783018053,
				"element": "H" 
			},
			{
				"x": -4.6651161872,
				"y": 2.0467936725,
				"z": -3.7389529608,
				"element": "H" 
			},
			{
				"x": -5.7238676755,
				"y": 0.7307488082,
				"z": -4.3160935092,
				"element": "H" 
			},
			{
				"x": -5.1784662006,
				"y": 1.4278819057,
				"z": -1.4362817897,
				"element": "H" 
			},
			{
				"x": -6.2011228294,
				"y": 0.0729313359,
				"z": -1.9699770211,
				"element": "H" 
			},
			{
				"x": -5.3044025568,
				"y": -0.3922205495,
				"z": 0.2639092794,
				"element": "H" 
			},
			{
				"x": -4.6261632303,
				"y": -1.5433884571,
				"z": -0.905380579,
				"element": "H" 
			},
			{
				"x": 1.0303674542,
				"y": 1.0223053194,
				"z": 0.9113377085,
				"element": "H" 
			},
			{
				"x": 3.9194156735,
				"y": -1.0963580588,
				"z": -1.4793763529,
				"element": "H" 
			},
			{
				"x": 2.052154801,
				"y": -2.2596188136,
				"z": -2.6682758475,
				"element": "H" 
			},
			{
				"x": -0.3019116941,
				"y": -1.770856893,
				"z": -2.0445857741,
				"element": "H" 
			},
			{
				"x": 2.6804075725,
				"y": 1.0477935382,
				"z": 2.0081441506,
				"element": "H" 
			}
		],
		 "valence_orbital": [ 
			{
				"type": "occ",
				"energy": -0.28303,
				"method": "rhf"
			},
			{
				"type": "occ",
				"energy": -0.28231,
				"method": "rhf"
			},
			{
				"type": "occ",
				"energy": -0.27424,
				"method": "rhf"
			},
			{
				"type": "occ",
				"energy": -0.27126,
				"method": "rhf"
			},
			{
				"type": "occ",
				"energy": -0.24995,
				"method": "rhf"
			},
			{
				"type": "unocc",
				"energy": -0.06542,
				"method": "rhf"
			},
			{
				"type": "unocc",
				"energy": -0.05211,
				"method": "rhf"
			},
			{
				"type": "unocc",
				"energy": 0.00092,
				"method": "rhf"
			},
			{
				"type": "unocc",
				"energy": 0.02892,
				"method": "rhf"
			},
			{
				"type": "unocc",
				"energy": 0.05807,
				"method": "rhf"
			}
		],
		"cosmo_sigma_profile": { 
			"-0.025": 0.0,
			"-0.024": 0.0,
			"-0.023": 0.0,
			"-0.022": 0.0,
			"-0.021": 0.0,
			"-0.02": 0.0220394524614,
			"-0.019": 0.705889785236,
			"-0.018": 1.00371712965,
			"-0.017": 1.00729606673,
			"-0.016": 0.944210377797,
			"-0.015": 1.13678544474,
			"-0.014": 0.894070408745,
			"-0.013": 0.610598800624,
			"-0.012": 0.868468554239,
			"-0.011": 1.20349483484,
			"-0.01": 1.21386430913,
			"-0.009": 1.018705517,
			"-0.008": 2.21296038672,
			"-0.007": 9.19262217365,
			"-0.006": 11.8679253833,
			"-0.005": 19.7484216119,
			"-0.004": 32.2567133817,
			"-0.003": 29.6493495095,
			"-0.002": 24.6531080329,
			"-0.001": 19.2068885053,
			"0.0": 17.8347451805,
			"0.001": 19.1645807819,
			"0.002": 13.6860244641,
			"0.003": 7.16494707501,
			"0.004": 5.83698780073,
			"0.005": 6.07845108858,
			"0.006": 5.27966908358,
			"0.007": 6.35624561676,
			"0.008": 6.5609176633,
			"0.009": 6.73019287837,
			"0.01": 9.03835727273,
			"0.011": 10.0081864084,
			"0.012": 7.57914150584,
			"0.013": 3.1504716297,
			"0.014": 1.75770574586,
			"0.015": 0.790825858304,
			"0.016": 0.174904557214,
			"0.017": 0.0,
			"0.018": 0.0,
			"0.019": 0.0,
			"0.02": 0.0,
			"0.021": 0.0,
			"0.022": 0.0,
			"0.023": 0.0,
			"0.024": 0.0,
			"0.025": 0.0
		}
	}
}
