{
	 "smiles": "COC(=O)C1CCC(CC1)C(=O)OC", 
	 "Tm": 341.65, 
	 "num_atms": 30, 
	 "gaussian": { 
		 "optdone": 1, 
		 "sigma_profile": "yes", 
		 "theory": "DFT", 
		 "functional": "B3LYP", 
		 "basiset": "6-31G**", 
		 "properties": { 
			 "R2extent": 3762.2329, 
			 "electric_dipole_moment_norm": 1.60105320649, 
			 "electric_quadrupole_moment_norm": 14.832976557, 
			 "total_energy": -691.635741964, 
			 "HOMO_LUMO_gap": 0.27319, 
			 "cosmo_polarized_energy": -11.3, 
			 "cosmo_cavitation_energy": 31.9, 
			 "cosmo_dispersion_energy": -22.65, 
			 "cosmo_repulsion_energy": 1.82, 
			 "cosmo_total_nonelectrostatic_energy": 11.06, 
			 "SMD_solvation_energy": 7.69 
		},
		"coords": [
			{
				"x": 2.3759365689,
				"y": -3.813161851,
				"z": 2.3988452944,
				"element": "C" 
			},
			{
				"x": 1.6155014774,
				"y": -3.2860496002,
				"z": 1.3003114245,
				"element": "O" 
			},
			{
				"x": 1.5781745772,
				"y": -1.9343776747,
				"z": 1.2169409265,
				"element": "C" 
			},
			{
				"x": 2.1563099163,
				"y": -1.2067519312,
				"z": 1.9964240821,
				"element": "O" 
			},
			{
				"x": 0.7138464544,
				"y": -1.4833676346,
				"z": 0.0521351834,
				"element": "C" 
			},
			{
				"x": 0.9361779601,
				"y": 0.0031181093,
				"z": -0.2637688484,
				"element": "C" 
			},
			{
				"x": 0.0416635739,
				"y": 0.4693922196,
				"z": -1.4202968128,
				"element": "C" 
			},
			{
				"x": -1.4548649798,
				"y": 0.1894836811,
				"z": -1.1514911428,
				"element": "C" 
			},
			{
				"x": -1.6832230738,
				"y": -1.2909722314,
				"z": -0.7988077454,
				"element": "C" 
			},
			{
				"x": -0.7789430332,
				"y": -1.7709093774,
				"z": 0.3466800673,
				"element": "C" 
			},
			{
				"x": -2.0414821425,
				"y": 1.1078383046,
				"z": -0.0817518837,
				"element": "C" 
			},
			{
				"x": -2.7171440669,
				"y": 0.7553357432,
				"z": 0.8627105152,
				"element": "O" 
			},
			{
				"x": -1.7500865618,
				"y": 2.4053730339,
				"z": -0.3306531202,
				"element": "O" 
			},
			{
				"x": -2.2920477638,
				"y": 3.349622229,
				"z": 0.607339899,
				"element": "C" 
			},
			{
				"x": 2.2986602188,
				"y": -4.8975772213,
				"z": 2.3186449485,
				"element": "H" 
			},
			{
				"x": 1.9670587515,
				"y": -3.4693275885,
				"z": 3.3524360576,
				"element": "H" 
			},
			{
				"x": 3.4202701192,
				"y": -3.4974530517,
				"z": 2.3318940071,
				"element": "H" 
			},
			{
				"x": 1.0060578131,
				"y": -2.090539969,
				"z": -0.8165298949,
				"element": "H" 
			},
			{
				"x": 0.7317994574,
				"y": 0.5908745876,
				"z": 0.6391134664,
				"element": "H" 
			},
			{
				"x": 1.9888960154,
				"y": 0.1818418461,
				"z": -0.5076826801,
				"element": "H" 
			},
			{
				"x": 0.1928824632,
				"y": 1.534568069,
				"z": -1.6131869794,
				"element": "H" 
			},
			{
				"x": 0.3243458853,
				"y": -0.0646731651,
				"z": -2.3371917942,
				"element": "H" 
			},
			{
				"x": -2.0118767037,
				"y": 0.431534859,
				"z": -2.0677591251,
				"element": "H" 
			},
			{
				"x": -2.7309131567,
				"y": -1.4507725209,
				"z": -0.5285755111,
				"element": "H" 
			},
			{
				"x": -1.4827558312,
				"y": -1.8892885615,
				"z": -1.6972130889,
				"element": "H" 
			},
			{
				"x": -1.0698662082,
				"y": -1.2583011636,
				"z": 1.2705718798,
				"element": "H" 
			},
			{
				"x": -0.9208712065,
				"y": -2.8432649692,
				"z": 0.512780866,
				"element": "H" 
			},
			{
				"x": -1.9581256134,
				"y": 4.3293242286,
				"z": 0.2656585056,
				"element": "H" 
			},
			{
				"x": -1.921308697,
				"y": 3.1474633632,
				"z": 1.6152078911,
				"element": "H" 
			},
			{
				"x": -3.3837722136,
				"y": 3.2984182374,
				"z": 0.6182136125,
				"element": "H" 
			}
		],
		 "valence_orbital": [ 
			{
				"type": "occ",
				"energy": -0.30521,
				"method": "rhf"
			},
			{
				"type": "occ",
				"energy": -0.30035,
				"method": "rhf"
			},
			{
				"type": "occ",
				"energy": -0.29584,
				"method": "rhf"
			},
			{
				"type": "occ",
				"energy": -0.26745,
				"method": "rhf"
			},
			{
				"type": "occ",
				"energy": -0.2635,
				"method": "rhf"
			},
			{
				"type": "unocc",
				"energy": 0.00969,
				"method": "rhf"
			},
			{
				"type": "unocc",
				"energy": 0.0162,
				"method": "rhf"
			},
			{
				"type": "unocc",
				"energy": 0.08457,
				"method": "rhf"
			},
			{
				"type": "unocc",
				"energy": 0.10246,
				"method": "rhf"
			},
			{
				"type": "unocc",
				"energy": 0.11361,
				"method": "rhf"
			}
		],
		"cosmo_sigma_profile": { 
			"-0.025": 0.0,
			"-0.024": 0.0,
			"-0.023": 0.0,
			"-0.022": 0.0,
			"-0.021": 0.0,
			"-0.02": 0.0,
			"-0.019": 0.0,
			"-0.018": 0.0,
			"-0.017": 0.0,
			"-0.016": 0.0,
			"-0.015": 0.0,
			"-0.014": 0.0,
			"-0.013": 0.0,
			"-0.012": 0.0,
			"-0.011": 0.0,
			"-0.01": 0.0,
			"-0.009": 0.0,
			"-0.008": 0.0,
			"-0.007": 0.871545994256,
			"-0.006": 8.29501660231,
			"-0.005": 16.9673545175,
			"-0.004": 27.4340624533,
			"-0.003": 44.2078558497,
			"-0.002": 29.898967999,
			"-0.001": 22.666602711,
			"0.0": 20.5663750749,
			"0.001": 10.3257707707,
			"0.002": 8.78847615124,
			"0.003": 6.4267008939,
			"0.004": 6.82347965814,
			"0.005": 5.86693989273,
			"0.006": 6.68780834013,
			"0.007": 4.35007857583,
			"0.008": 4.70490735072,
			"0.009": 4.38682020931,
			"0.01": 3.63097698889,
			"0.011": 4.22886978582,
			"0.012": 9.13262302848,
			"0.013": 1.88219426022,
			"0.014": 0.0,
			"0.015": 0.0,
			"0.016": 0.0,
			"0.017": 0.0,
			"0.018": 0.0,
			"0.019": 0.0,
			"0.02": 0.0,
			"0.021": 0.0,
			"0.022": 0.0,
			"0.023": 0.0,
			"0.024": 0.0,
			"0.025": 0.0
		}
	}
}
