{
	 "smiles": "CNC(=O)C(C)SCCSP(=O)(OC)OC", 
	 "Tm": 316.15, 
	 "num_atms": 34, 
	 "gaussian": { 
		 "optdone": 1, 
		 "sigma_profile": "yes", 
		 "theory": "DFT", 
		 "functional": "B3LYP", 
		 "basiset": "6-31G**", 
		 "properties": { 
			 "R2extent": 5505.7279, 
			 "electric_dipole_moment_norm": 4.40903128022, 
			 "electric_quadrupole_moment_norm": 13.5285935474, 
			 "total_energy": -1809.1488762, 
			 "HOMO_LUMO_gap": 0.22146, 
			 "cosmo_polarized_energy": -18.23, 
			 "cosmo_cavitation_energy": 39.91, 
			 "cosmo_dispersion_energy": -27.36, 
			 "cosmo_repulsion_energy": 2.05, 
			 "cosmo_total_nonelectrostatic_energy": 14.6, 
			 "SMD_solvation_energy": 8.47 
		},
		"coords": [
			{
				"x": 1.283505463,
				"y": -1.8131267657,
				"z": 2.1654462281,
				"element": "C" 
			},
			{
				"x": 2.3688435038,
				"y": -0.8378031103,
				"z": 2.2069809025,
				"element": "N" 
			},
			{
				"x": 2.9521255868,
				"y": -0.1497117802,
				"z": 1.1765798404,
				"element": "C" 
			},
			{
				"x": 3.9476982848,
				"y": 0.5420592491,
				"z": 1.3673088642,
				"element": "O" 
			},
			{
				"x": 2.3048474069,
				"y": -0.3132874265,
				"z": -0.204592807,
				"element": "C" 
			},
			{
				"x": 3.1027878537,
				"y": -1.3487487722,
				"z": -1.016457882,
				"element": "C" 
			},
			{
				"x": 2.2948352558,
				"y": 1.2521394232,
				"z": -1.1872465124,
				"element": "S" 
			},
			{
				"x": 1.8640149343,
				"y": 2.5305150253,
				"z": 0.0476066164,
				"element": "C" 
			},
			{
				"x": 0.5006627645,
				"y": 2.4247444704,
				"z": 0.7333592602,
				"element": "C" 
			},
			{
				"x": -0.9472276029,
				"y": 2.7269512107,
				"z": -0.383481458,
				"element": "S" 
			},
			{
				"x": -1.8148179569,
				"y": 0.8217471826,
				"z": -0.4550909089,
				"element": "P" 
			},
			{
				"x": -1.042098568,
				"y": -0.2537253824,
				"z": 0.2334363712,
				"element": "O" 
			},
			{
				"x": -3.2943976038,
				"y": 1.117730925,
				"z": 0.1034942102,
				"element": "O" 
			},
			{
				"x": -4.2784609278,
				"y": 0.061999892,
				"z": 0.0682670557,
				"element": "C" 
			},
			{
				"x": -2.158156461,
				"y": 0.5301458405,
				"z": -2.0062530634,
				"element": "O" 
			},
			{
				"x": -1.1251861395,
				"y": 0.0335823905,
				"z": -2.8831680315,
				"element": "C" 
			},
			{
				"x": 1.5850455943,
				"y": -2.7584786073,
				"z": 1.6949509344,
				"element": "H" 
			},
			{
				"x": 0.987776433,
				"y": -2.0318936956,
				"z": 3.1941105908,
				"element": "H" 
			},
			{
				"x": 0.4099630664,
				"y": -1.4182189784,
				"z": 1.64198479,
				"element": "H" 
			},
			{
				"x": 2.904128369,
				"y": -0.765014503,
				"z": 3.0624779431,
				"element": "H" 
			},
			{
				"x": 1.2683134097,
				"y": -0.637674691,
				"z": -0.1077805727,
				"element": "H" 
			},
			{
				"x": 2.6971454806,
				"y": -1.4459984287,
				"z": -2.0281663186,
				"element": "H" 
			},
			{
				"x": 3.0496869603,
				"y": -2.3323784735,
				"z": -0.5376079774,
				"element": "H" 
			},
			{
				"x": 4.1514255001,
				"y": -1.0492744717,
				"z": -1.0855994193,
				"element": "H" 
			},
			{
				"x": 1.9466888564,
				"y": 3.472560016,
				"z": -0.5028489004,
				"element": "H" 
			},
			{
				"x": 2.6452202122,
				"y": 2.5224536685,
				"z": 0.8140047072,
				"element": "H" 
			},
			{
				"x": 0.4293144178,
				"y": 3.1925453155,
				"z": 1.5097057595,
				"element": "H" 
			},
			{
				"x": 0.3568121438,
				"y": 1.4523326915,
				"z": 1.2064210825,
				"element": "H" 
			},
			{
				"x": -4.5341498359,
				"y": -0.182966454,
				"z": -0.9657281949,
				"element": "H" 
			},
			{
				"x": -3.9056247271,
				"y": -0.8275702248,
				"z": 0.5837366332,
				"element": "H" 
			},
			{
				"x": -5.1556762047,
				"y": 0.4486786146,
				"z": 0.5877378262,
				"element": "H" 
			},
			{
				"x": -1.5671756015,
				"y": -0.0043508865,
				"z": -3.8795420575,
				"element": "H" 
			},
			{
				"x": -0.8155471617,
				"y": -0.9676417098,
				"z": -2.5721473173,
				"element": "H" 
			},
			{
				"x": -0.2605227065,
				"y": 0.7028784461,
				"z": -2.8799981945,
				"element": "H" 
			}
		],
		 "valence_orbital": [ 
			{
				"type": "occ",
				"energy": -0.29588,
				"method": "rhf"
			},
			{
				"type": "occ",
				"energy": -0.25464,
				"method": "rhf"
			},
			{
				"type": "occ",
				"energy": -0.24815,
				"method": "rhf"
			},
			{
				"type": "occ",
				"energy": -0.24291,
				"method": "rhf"
			},
			{
				"type": "occ",
				"energy": -0.21833,
				"method": "rhf"
			},
			{
				"type": "unocc",
				"energy": 0.00313,
				"method": "rhf"
			},
			{
				"type": "unocc",
				"energy": 0.01472,
				"method": "rhf"
			},
			{
				"type": "unocc",
				"energy": 0.02777,
				"method": "rhf"
			},
			{
				"type": "unocc",
				"energy": 0.05117,
				"method": "rhf"
			},
			{
				"type": "unocc",
				"energy": 0.07314,
				"method": "rhf"
			}
		],
		"cosmo_sigma_profile": { 
			"-0.025": 0.0,
			"-0.024": 0.0,
			"-0.023": 0.0,
			"-0.022": 0.0,
			"-0.021": 0.0,
			"-0.02": 0.0,
			"-0.019": 0.0,
			"-0.018": 0.0,
			"-0.017": 0.0,
			"-0.016": 0.0,
			"-0.015": 0.0,
			"-0.014": 0.30365334532,
			"-0.013": 1.03947455027,
			"-0.012": 1.06058038963,
			"-0.011": 0.922264758796,
			"-0.01": 1.3748830006,
			"-0.009": 1.19982903998,
			"-0.008": 0.698819868706,
			"-0.007": 6.60204009708,
			"-0.006": 18.4544174578,
			"-0.005": 23.6446065822,
			"-0.004": 33.204968032,
			"-0.003": 32.0331627721,
			"-0.002": 28.1613439072,
			"-0.001": 25.0856621956,
			"0.0": 19.6544070264,
			"0.001": 18.1650037224,
			"0.002": 16.0665449307,
			"0.003": 14.2669525699,
			"0.004": 13.1624999383,
			"0.005": 10.6598310044,
			"0.006": 9.79384810898,
			"0.007": 7.20654158347,
			"0.008": 7.2055093181,
			"0.009": 4.44884285048,
			"0.01": 4.33166227983,
			"0.011": 3.66568346432,
			"0.012": 2.23579304014,
			"0.013": 3.10215929742,
			"0.014": 4.88414870599,
			"0.015": 1.71108936037,
			"0.016": 0.385752750367,
			"0.017": 0.0,
			"0.018": 0.0,
			"0.019": 0.0,
			"0.02": 0.0,
			"0.021": 0.0,
			"0.022": 0.0,
			"0.023": 0.0,
			"0.024": 0.0,
			"0.025": 0.0
		}
	}
}
