{
	 "smiles": "BrC1=CC2=C(OCCN2)N=C1", 
	 "Tm": 423.15, 
	 "num_atms": 18, 
	 "gaussian": { 
		 "optdone": 1, 
		 "sigma_profile": "yes", 
		 "theory": "DFT", 
		 "functional": "B3LYP", 
		 "basiset": "6-31G**", 
		 "properties": { 
			 "R2extent": 4287.5283, 
			 "electric_dipole_moment_norm": 4.87817349117, 
			 "electric_quadrupole_moment_norm": 13.4923193747, 
			 "total_energy": -3027.08064703, 
			 "HOMO_LUMO_gap": 0.18435, 
			 "cosmo_polarized_energy": -12.68, 
			 "cosmo_cavitation_energy": 23.68, 
			 "cosmo_dispersion_energy": -18.74, 
			 "cosmo_repulsion_energy": 1.5, 
			 "cosmo_total_nonelectrostatic_energy": 6.44, 
			 "SMD_solvation_energy": 0.45 
		},
		"coords": [
			{
				"x": -3.3828398609,
				"y": -1.3820903082,
				"z": 1.5615324335,
				"element": "Br" 
			},
			{
				"x": -1.9107028168,
				"y": -1.7197637447,
				"z": 0.3934745496,
				"element": "C" 
			},
			{
				"x": -0.7289225226,
				"y": -0.9924024093,
				"z": 0.5329167902,
				"element": "C" 
			},
			{
				"x": 0.3322755711,
				"y": -1.2595171624,
				"z": -0.3324837849,
				"element": "C" 
			},
			{
				"x": 0.1217082086,
				"y": -2.2625461215,
				"z": -1.3157972121,
				"element": "C" 
			},
			{
				"x": 1.1069263795,
				"y": -2.6010566088,
				"z": -2.2013421937,
				"element": "O" 
			},
			{
				"x": 2.1830347491,
				"y": -1.6677040266,
				"z": -2.3236003208,
				"element": "C" 
			},
			{
				"x": 2.6703643258,
				"y": -1.2055393826,
				"z": -0.9550076466,
				"element": "C" 
			},
			{
				"x": 1.5456417443,
				"y": -0.5739570389,
				"z": -0.2799269207,
				"element": "N" 
			},
			{
				"x": -0.99923143,
				"y": -2.9484827399,
				"z": -1.4316158369,
				"element": "N" 
			},
			{
				"x": -2.0118361957,
				"y": -2.6946305068,
				"z": -0.5918395188,
				"element": "C" 
			},
			{
				"x": -0.631927403,
				"y": -0.2346134689,
				"z": 1.303763633,
				"element": "H" 
			},
			{
				"x": 1.8574253754,
				"y": -0.8024391499,
				"z": -2.9151289076,
				"element": "H" 
			},
			{
				"x": 2.9720268099,
				"y": -2.19241526,
				"z": -2.8664164216,
				"element": "H" 
			},
			{
				"x": 3.4770584248,
				"y": -0.4752595416,
				"z": -1.0761227519,
				"element": "H" 
			},
			{
				"x": 3.0700521686,
				"y": -2.0710069849,
				"z": -0.4029968884,
				"element": "H" 
			},
			{
				"x": 1.7538983211,
				"y": -0.1468171078,
				"z": 0.6128756478,
				"element": "H" 
			},
			{
				"x": -2.9177518491,
				"y": -3.2805584372,
				"z": -0.7129846501,
				"element": "H" 
			}
		],
		 "valence_orbital": [ 
			{
				"type": "occ",
				"energy": -0.29723,
				"method": "rhf"
			},
			{
				"type": "occ",
				"energy": -0.28919,
				"method": "rhf"
			},
			{
				"type": "occ",
				"energy": -0.2631,
				"method": "rhf"
			},
			{
				"type": "occ",
				"energy": -0.24939,
				"method": "rhf"
			},
			{
				"type": "occ",
				"energy": -0.20611,
				"method": "rhf"
			},
			{
				"type": "unocc",
				"energy": -0.02176,
				"method": "rhf"
			},
			{
				"type": "unocc",
				"energy": 0.0011,
				"method": "rhf"
			},
			{
				"type": "unocc",
				"energy": 0.01002,
				"method": "rhf"
			},
			{
				"type": "unocc",
				"energy": 0.06684,
				"method": "rhf"
			},
			{
				"type": "unocc",
				"energy": 0.10105,
				"method": "rhf"
			}
		],
		"cosmo_sigma_profile": { 
			"-0.025": 0.0,
			"-0.024": 0.0,
			"-0.023": 0.0,
			"-0.022": 0.0,
			"-0.021": 0.0,
			"-0.02": 0.0,
			"-0.019": 0.0,
			"-0.018": 0.0,
			"-0.017": 0.0,
			"-0.016": 0.0,
			"-0.015": 0.0,
			"-0.014": 0.705200870634,
			"-0.013": 1.71536980103,
			"-0.012": 1.36320541841,
			"-0.011": 1.82061874772,
			"-0.01": 1.47312134071,
			"-0.009": 2.17763386766,
			"-0.008": 2.35935767682,
			"-0.007": 4.11282036842,
			"-0.006": 12.04054194,
			"-0.005": 15.4076439942,
			"-0.004": 15.5182786918,
			"-0.003": 13.0173502876,
			"-0.002": 9.38309883495,
			"-0.001": 8.84900829653,
			"0.0": 10.3551088165,
			"0.001": 13.2968733431,
			"0.002": 19.0637110078,
			"0.003": 12.7343479676,
			"0.004": 14.2539242395,
			"0.005": 9.25862084699,
			"0.006": 2.83027305277,
			"0.007": 3.02201681012,
			"0.008": 2.64699744459,
			"0.009": 2.3248478811,
			"0.01": 2.33459744143,
			"0.011": 2.64883265434,
			"0.012": 2.46643295979,
			"0.013": 2.02449597109,
			"0.014": 0.951230396734,
			"0.015": 1.45419771018,
			"0.016": 0.501420327874,
			"0.017": 0.0,
			"0.018": 0.0,
			"0.019": 0.0,
			"0.02": 0.0,
			"0.021": 0.0,
			"0.022": 0.0,
			"0.023": 0.0,
			"0.024": 0.0,
			"0.025": 0.0
		}
	}
}
