{
	 "smiles": "COC1=CC=C(C=CC(=O)C2=CC=C(OC)C=C2)C=C1", 
	 "Tm": 374.15, 
	 "num_atms": 36, 
	 "gaussian": { 
		 "optdone": 1, 
		 "sigma_profile": "yes", 
		 "theory": "DFT", 
		 "functional": "B3LYP", 
		 "basiset": "6-31G**", 
		 "properties": { 
			 "R2extent": 11471.2868, 
			 "electric_dipole_moment_norm": 6.02688284771, 
			 "electric_quadrupole_moment_norm": 22.167289561, 
			 "total_energy": -883.093266717, 
			 "HOMO_LUMO_gap": 0.14494, 
			 "cosmo_polarized_energy": -16.01, 
			 "cosmo_cavitation_energy": 40.92, 
			 "cosmo_dispersion_energy": -29.72, 
			 "cosmo_repulsion_energy": 2.24, 
			 "cosmo_total_nonelectrostatic_energy": 13.43, 
			 "SMD_solvation_energy": 8.96 
		},
		"coords": [
			{
				"x": -2.9190289215,
				"y": 5.8527736128,
				"z": -1.1506637082,
				"element": "C" 
			},
			{
				"x": -1.5082119091,
				"y": 5.8773746277,
				"z": -0.9892439276,
				"element": "O" 
			},
			{
				"x": -0.8632333278,
				"y": 4.7082055433,
				"z": -0.7283863657,
				"element": "C" 
			},
			{
				"x": -1.4932002069,
				"y": 3.4598517111,
				"z": -0.6044978003,
				"element": "C" 
			},
			{
				"x": -0.7323316025,
				"y": 2.3262619478,
				"z": -0.3353818441,
				"element": "C" 
			},
			{
				"x": 0.6640629536,
				"y": 2.3914232669,
				"z": -0.1815173118,
				"element": "C" 
			},
			{
				"x": 1.5031731623,
				"y": 1.232955119,
				"z": 0.1006963064,
				"element": "C" 
			},
			{
				"x": 1.1285123119,
				"y": -0.0526047026,
				"z": 0.2702196366,
				"element": "C" 
			},
			{
				"x": 2.1508705829,
				"y": -1.0916918771,
				"z": 0.5415021265,
				"element": "C" 
			},
			{
				"x": 3.350439891,
				"y": -0.8092324622,
				"z": 0.5635485781,
				"element": "O" 
			},
			{
				"x": 1.7165205602,
				"y": -2.503989548,
				"z": 0.7809718832,
				"element": "C" 
			},
			{
				"x": 2.7211079952,
				"y": -3.4864132438,
				"z": 0.8908931771,
				"element": "C" 
			},
			{
				"x": 2.4064740734,
				"y": -4.8139628993,
				"z": 1.1166400579,
				"element": "C" 
			},
			{
				"x": 1.0623269414,
				"y": -5.2058475298,
				"z": 1.2487947338,
				"element": "C" 
			},
			{
				"x": 0.8536101502,
				"y": -6.53177528,
				"z": 1.469027281,
				"element": "O" 
			},
			{
				"x": -0.4816603257,
				"y": -6.9929749721,
				"z": 1.6136502344,
				"element": "C" 
			},
			{
				"x": 0.0477494121,
				"y": -4.2451847754,
				"z": 1.1517774166,
				"element": "C" 
			},
			{
				"x": 0.3829841775,
				"y": -2.9104542061,
				"z": 0.9179920204,
				"element": "C" 
			},
			{
				"x": 1.2715459378,
				"y": 3.6586677023,
				"z": -0.3117284903,
				"element": "C" 
			},
			{
				"x": 0.5293435851,
				"y": 4.7976816371,
				"z": -0.5793585181,
				"element": "C" 
			},
			{
				"x": -3.2180213717,
				"y": 5.2219451938,
				"z": -1.99727291,
				"element": "H" 
			},
			{
				"x": -3.4235725228,
				"y": 5.4994770554,
				"z": -0.2425221081,
				"element": "H" 
			},
			{
				"x": -3.2164910174,
				"y": 6.8834553798,
				"z": -1.348535435,
				"element": "H" 
			},
			{
				"x": -2.5667685951,
				"y": 3.3650579282,
				"z": -0.7160387549,
				"element": "H" 
			},
			{
				"x": -1.2410772556,
				"y": 1.371413423,
				"z": -0.2444085778,
				"element": "H" 
			},
			{
				"x": 2.5719642694,
				"y": 1.4256328983,
				"z": 0.1861775333,
				"element": "H" 
			},
			{
				"x": 0.0868657232,
				"y": -0.3444807482,
				"z": 0.1965572904,
				"element": "H" 
			},
			{
				"x": 3.7529945198,
				"y": -3.1671836867,
				"z": 0.7926523064,
				"element": "H" 
			},
			{
				"x": 3.1763437707,
				"y": -5.5744921515,
				"z": 1.1972872399,
				"element": "H" 
			},
			{
				"x": -0.9788312908,
				"y": -6.5273937579,
				"z": 2.4739676731,
				"element": "H" 
			},
			{
				"x": -0.4117682258,
				"y": -8.0690871406,
				"z": 1.7784025513,
				"element": "H" 
			},
			{
				"x": -1.074439194,
				"y": -6.8035673112,
				"z": 0.7098423289,
				"element": "H" 
			},
			{
				"x": -0.9945904344,
				"y": -4.5211557745,
				"z": 1.2572934957,
				"element": "H" 
			},
			{
				"x": -0.4244213789,
				"y": -2.1886468188,
				"z": 0.8596793244,
				"element": "H" 
			},
			{
				"x": 2.3493315108,
				"y": 3.7395333234,
				"z": -0.1984931509,
				"element": "H" 
			},
			{
				"x": 1.0000260516,
				"y": 5.7701285162,
				"z": -0.6786242929,
				"element": "H" 
			}
		],
		 "valence_orbital": [ 
			{
				"type": "occ",
				"energy": -0.25949,
				"method": "rhf"
			},
			{
				"type": "occ",
				"energy": -0.25374,
				"method": "rhf"
			},
			{
				"type": "occ",
				"energy": -0.2347,
				"method": "rhf"
			},
			{
				"type": "occ",
				"energy": -0.22371,
				"method": "rhf"
			},
			{
				"type": "occ",
				"energy": -0.21004,
				"method": "rhf"
			},
			{
				"type": "unocc",
				"energy": -0.0651,
				"method": "rhf"
			},
			{
				"type": "unocc",
				"energy": -0.01311,
				"method": "rhf"
			},
			{
				"type": "unocc",
				"energy": -0.00581,
				"method": "rhf"
			},
			{
				"type": "unocc",
				"energy": 0.00016,
				"method": "rhf"
			},
			{
				"type": "unocc",
				"energy": 0.04761,
				"method": "rhf"
			}
		],
		"cosmo_sigma_profile": { 
			"-0.025": 0.0,
			"-0.024": 0.0,
			"-0.023": 0.0,
			"-0.022": 0.0,
			"-0.021": 0.0,
			"-0.02": 0.0,
			"-0.019": 0.0,
			"-0.018": 0.0,
			"-0.017": 0.0,
			"-0.016": 0.0,
			"-0.015": 0.0,
			"-0.014": 0.0,
			"-0.013": 0.0,
			"-0.012": 0.0,
			"-0.011": 0.0,
			"-0.01": 0.0,
			"-0.009": 0.773188003124,
			"-0.008": 3.08370364942,
			"-0.007": 8.18039879159,
			"-0.006": 25.6577932167,
			"-0.005": 32.1980727656,
			"-0.004": 30.7229006675,
			"-0.003": 25.0353726594,
			"-0.002": 16.5461952569,
			"-0.001": 15.5662922973,
			"0.0": 19.1580343556,
			"0.001": 17.4497446139,
			"0.002": 24.8489085767,
			"0.003": 30.1315413942,
			"0.004": 35.2631919159,
			"0.005": 11.1438912517,
			"0.006": 4.8414164231,
			"0.007": 4.38393607256,
			"0.008": 4.37647287176,
			"0.009": 4.49750988314,
			"0.01": 3.36565666206,
			"0.011": 2.34305485109,
			"0.012": 2.31604778468,
			"0.013": 4.32613725179,
			"0.014": 0.949513337241,
			"0.015": 0.0,
			"0.016": 0.0,
			"0.017": 0.0,
			"0.018": 0.0,
			"0.019": 0.0,
			"0.02": 0.0,
			"0.021": 0.0,
			"0.022": 0.0,
			"0.023": 0.0,
			"0.024": 0.0,
			"0.025": 0.0
		}
	}
}
