{
	 "smiles": "CCC1N(O)C(C)(C)N(C)C1=CC(=O)CI", 
	 "Tm": 399.15, 
	 "num_atms": 35, 
	 "gaussian": { 
		 "optdone": 1, 
		 "sigma_profile": "no", 
		 "theory": "DFT", 
		 "functional": "B3LYP", 
		 "basiset": "6-31G**", 
		 "properties": { 
			 "R2extent": 4379.657, 
			 "electric_dipole_moment_norm": 5.18456065352, 
			 "electric_quadrupole_moment_norm": 32.3795404288, 
			 "total_energy": -701.880388791, 
			 "HOMO_LUMO_gap": 0.15692, 
			 "cosmo_polarized_energy": -102089.54, 
			 "cosmo_cavitation_energy": 37.96, 
			 "cosmo_dispersion_energy": -27.08, 
			 "cosmo_repulsion_energy": 2.08, 
			 "cosmo_total_nonelectrostatic_energy": 12.96, 
			 "SMD_solvation_energy": 5.82 
		},
		"coords": [
			{
				"x": 3.8872552775,
				"y": 0.4016758361,
				"z": 1.6621432419,
				"element": "C" 
			},
			{
				"x": 2.6415409036,
				"y": -0.4848699824,
				"z": 1.5939004317,
				"element": "C" 
			},
			{
				"x": 1.8093659943,
				"y": -0.2408668446,
				"z": 0.3182806537,
				"element": "C" 
			},
			{
				"x": 1.344132749,
				"y": 1.1603585202,
				"z": 0.1623944738,
				"element": "N" 
			},
			{
				"x": 1.4601670989,
				"y": 1.5172830395,
				"z": -1.2196194686,
				"element": "O" 
			},
			{
				"x": -0.0704344843,
				"y": 1.186855454,
				"z": 0.6071262384,
				"element": "C" 
			},
			{
				"x": -0.929549722,
				"y": 2.1537151614,
				"z": -0.2119789111,
				"element": "C" 
			},
			{
				"x": -0.1053749759,
				"y": 1.6039322533,
				"z": 2.0908455148,
				"element": "C" 
			},
			{
				"x": -0.5206504863,
				"y": -0.2309349164,
				"z": 0.4147148146,
				"element": "N" 
			},
			{
				"x": -1.8510993521,
				"y": -0.6457066306,
				"z": 0.834578262,
				"element": "C" 
			},
			{
				"x": 0.5341268121,
				"y": -1.0806369512,
				"z": 0.2322767548,
				"element": "C" 
			},
			{
				"x": 0.5800769487,
				"y": -2.4347354653,
				"z": 0.0296838131,
				"element": "C" 
			},
			{
				"x": -0.4158134105,
				"y": -3.4402374663,
				"z": -0.3427437699,
				"element": "C" 
			},
			{
				"x": -0.2452078204,
				"y": -4.6303272265,
				"z": -0.1112046692,
				"element": "O" 
			},
			{
				"x": -1.5513733158,
				"y": -3.0103593661,
				"z": -1.2816214739,
				"element": "C" 
			},
			{
				"x": -3.5118515475,
				"y": -3.7863161424,
				"z": -0.7207005072,
				"element": "I" 
			},
			{
				"x": 3.6130077161,
				"y": 1.459395658,
				"z": 1.645693414,
				"element": "H" 
			},
			{
				"x": 4.5509098853,
				"y": 0.2166869388,
				"z": 0.8101748873,
				"element": "H" 
			},
			{
				"x": 4.4538043113,
				"y": 0.2023544799,
				"z": 2.5768504525,
				"element": "H" 
			},
			{
				"x": 2.9296298824,
				"y": -1.542336069,
				"z": 1.594501133,
				"element": "H" 
			},
			{
				"x": 2.0236872368,
				"y": -0.3432300047,
				"z": 2.4859731902,
				"element": "H" 
			},
			{
				"x": 2.4602796964,
				"y": -0.4423383784,
				"z": -0.5366177716,
				"element": "H" 
			},
			{
				"x": 0.9689580362,
				"y": 0.8502182451,
				"z": -1.7361675948,
				"element": "H" 
			},
			{
				"x": -1.9351995429,
				"y": 2.2013867838,
				"z": 0.2155125342,
				"element": "H" 
			},
			{
				"x": -0.4936259746,
				"y": 3.1544016554,
				"z": -0.18216527,
				"element": "H" 
			},
			{
				"x": -1.0140982329,
				"y": 1.8474417817,
				"z": -1.2551600022,
				"element": "H" 
			},
			{
				"x": 0.3496330899,
				"y": 2.5919764381,
				"z": 2.1883711806,
				"element": "H" 
			},
			{
				"x": 0.4441499729,
				"y": 0.9075593133,
				"z": 2.7253367952,
				"element": "H" 
			},
			{
				"x": -1.1318232716,
				"y": 1.6663369081,
				"z": 2.4622955715,
				"element": "H" 
			},
			{
				"x": -2.5925744779,
				"y": -0.5781613982,
				"z": 0.0320486558,
				"element": "H" 
			},
			{
				"x": -1.8196638477,
				"y": -1.6784436147,
				"z": 1.1884709811,
				"element": "H" 
			},
			{
				"x": -2.1930760173,
				"y": -0.0156071031,
				"z": 1.6599613522,
				"element": "H" 
			},
			{
				"x": 1.5669987093,
				"y": -2.8783350906,
				"z": 0.1347531959,
				"element": "H" 
			},
			{
				"x": -1.6619150085,
				"y": -1.9361087748,
				"z": -1.4021379772,
				"element": "H" 
			},
			{
				"x": -1.3612928326,
				"y": -3.4646270412,
				"z": -2.2547701265,
				"element": "H" 
			}
		],
		 "valence_orbital": [ 
			{
				"type": "occ",
				"energy": -0.26569,
				"method": "rhf"
			},
			{
				"type": "occ",
				"energy": -0.25859,
				"method": "rhf"
			},
			{
				"type": "occ",
				"energy": -0.25431,
				"method": "rhf"
			},
			{
				"type": "occ",
				"energy": -0.23816,
				"method": "rhf"
			},
			{
				"type": "occ",
				"energy": -0.21696,
				"method": "rhf"
			},
			{
				"type": "unocc",
				"energy": -0.06004,
				"method": "rhf"
			},
			{
				"type": "unocc",
				"energy": -0.0203,
				"method": "rhf"
			},
			{
				"type": "unocc",
				"energy": 0.03588,
				"method": "rhf"
			},
			{
				"type": "unocc",
				"energy": 0.04078,
				"method": "rhf"
			},
			{
				"type": "unocc",
				"energy": 0.04585,
				"method": "rhf"
			}
		],
		"cosmo_sigma_profile": { 
			"0.0": 0.0,
			"0.0": 0.0,
			"0.0": 0.0,
			"0.0": 0.0,
			"0.0": 0.0,
			"0.0": 0.0,
			"0.0": 0.0,
			"0.0": 0.0,
			"0.0": 0.0,
			"0.0": 0.0,
			"0.0": 0.0,
			"0.0": 0.0,
			"0.0": 0.0,
			"0.0": 0.0,
			"0.0": 0.0,
			"0.0": 0.0,
			"0.0": 0.0,
			"0.0": 0.0,
			"0.0": 0.0,
			"0.0": 0.0,
			"0.0": 0.0,
			"0.0": 0.0,
			"0.0": 0.0,
			"0.0": 0.0,
			"0.0": 0.0,
			"0.0": 0.0,
			"0.0": 0.0,
			"0.0": 0.0,
			"0.0": 0.0,
			"0.0": 0.0,
			"0.0": 0.0,
			"0.0": 0.0,
			"0.0": 0.0,
			"0.0": 0.0,
			"0.0": 0.0,
			"0.0": 0.0,
			"0.0": 0.0,
			"0.0": 0.0,
			"0.0": 0.0,
			"0.0": 0.0,
			"0.0": 0.0,
			"0.0": 0.0,
			"0.0": 0.0,
			"0.0": 0.0,
			"0.0": 0.0,
			"0.0": 0.0,
			"0.0": 0.0,
			"0.0": 0.0,
			"0.0": 0.0,
			"0.0": 0.0,
			"0.0": 0.0
		}
	}
}
