{
	 "smiles": "[O-][N+](=O)C1=CC(CCl)=C(Cl)C=C1", 
	 "Tm": 335.15, 
	 "num_atms": 17, 
	 "gaussian": { 
		 "optdone": 1, 
		 "sigma_profile": "yes", 
		 "theory": "DFT", 
		 "functional": "B3LYP", 
		 "basiset": "6-31G**", 
		 "properties": { 
			 "R2extent": 3153.7222, 
			 "electric_dipole_moment_norm": 3.07467149627, 
			 "electric_quadrupole_moment_norm": 14.8156921519, 
			 "total_energy": -1395.24370373, 
			 "HOMO_LUMO_gap": 0.17944, 
			 "cosmo_polarized_energy": -10.1, 
			 "cosmo_cavitation_energy": 25.79, 
			 "cosmo_dispersion_energy": -18.88, 
			 "cosmo_repulsion_energy": 1.51, 
			 "cosmo_total_nonelectrostatic_energy": 8.41, 
			 "SMD_solvation_energy": 6.1 
		},
		"coords": [
			{
				"x": -3.3863347219,
				"y": -1.1623316203,
				"z": 1.995697996,
				"element": "O" 
			},
			{
				"x": -2.3189198947,
				"y": -0.5524428054,
				"z": 1.9619042806,
				"element": "N" 
			},
			{
				"x": -1.8105748171,
				"y": 0.0340767095,
				"z": 2.9159734918,
				"element": "O" 
			},
			{
				"x": -1.5964830951,
				"y": -0.5213529458,
				"z": 0.6802417881,
				"element": "C" 
			},
			{
				"x": -0.3805348399,
				"y": 0.1488605168,
				"z": 0.6097754128,
				"element": "C" 
			},
			{
				"x": 0.3249341355,
				"y": 0.2006383487,
				"z": -0.5962851616,
				"element": "C" 
			},
			{
				"x": 1.6353802498,
				"y": 0.9290058095,
				"z": -0.6542257421,
				"element": "C" 
			},
			{
				"x": 3.0532883228,
				"y": -0.1952437601,
				"z": -0.4000260689,
				"element": "Cl" 
			},
			{
				"x": -0.2397638325,
				"y": -0.4445958995,
				"z": -1.7122573915,
				"element": "C" 
			},
			{
				"x": 0.5811675442,
				"y": -0.4206976341,
				"z": -3.256688127,
				"element": "Cl" 
			},
			{
				"x": -1.4628666412,
				"y": -1.1157291257,
				"z": -1.6325186907,
				"element": "C" 
			},
			{
				"x": -2.1521983934,
				"y": -1.1590509375,
				"z": -0.4260187335,
				"element": "C" 
			},
			{
				"x": 0.0106182621,
				"y": 0.6255921033,
				"z": 1.5007585614,
				"element": "H" 
			},
			{
				"x": 1.7001158385,
				"y": 1.6751343875,
				"z": 0.1368442841,
				"element": "H" 
			},
			{
				"x": 1.7998136918,
				"y": 1.4031332299,
				"z": -1.6203167252,
				"element": "H" 
			},
			{
				"x": -1.8666117019,
				"y": -1.598614093,
				"z": -2.514758432,
				"element": "H" 
			},
			{
				"x": -3.101830107,
				"y": -1.6702822837,
				"z": -0.3316007424,
				"element": "H" 
			}
		],
		 "valence_orbital": [ 
			{
				"type": "occ",
				"energy": -0.31254,
				"method": "rhf"
			},
			{
				"type": "occ",
				"energy": -0.30766,
				"method": "rhf"
			},
			{
				"type": "occ",
				"energy": -0.30277,
				"method": "rhf"
			},
			{
				"type": "occ",
				"energy": -0.29382,
				"method": "rhf"
			},
			{
				"type": "occ",
				"energy": -0.28241,
				"method": "rhf"
			},
			{
				"type": "unocc",
				"energy": -0.10297,
				"method": "rhf"
			},
			{
				"type": "unocc",
				"energy": -0.05959,
				"method": "rhf"
			},
			{
				"type": "unocc",
				"energy": -0.02402,
				"method": "rhf"
			},
			{
				"type": "unocc",
				"energy": 0.00544,
				"method": "rhf"
			},
			{
				"type": "unocc",
				"energy": 0.02669,
				"method": "rhf"
			}
		],
		"cosmo_sigma_profile": { 
			"-0.025": 0.0,
			"-0.024": 0.0,
			"-0.023": 0.0,
			"-0.022": 0.0,
			"-0.021": 0.0,
			"-0.02": 0.0,
			"-0.019": 0.0,
			"-0.018": 0.0,
			"-0.017": 0.0,
			"-0.016": 0.0,
			"-0.015": 0.0,
			"-0.014": 0.0,
			"-0.013": 0.0,
			"-0.012": 0.0,
			"-0.011": 0.0865386697885,
			"-0.01": 1.49055666909,
			"-0.009": 4.80888146581,
			"-0.008": 7.69008674342,
			"-0.007": 9.72905619091,
			"-0.006": 9.03888094709,
			"-0.005": 10.3784303906,
			"-0.004": 9.23795331243,
			"-0.003": 11.1702363773,
			"-0.002": 16.1348415846,
			"-0.001": 21.7995176667,
			"0.0": 16.8475344779,
			"0.001": 13.0471306676,
			"0.002": 11.5367084454,
			"0.003": 13.647543837,
			"0.004": 9.22247726389,
			"0.005": 10.4457372326,
			"0.006": 14.4209178621,
			"0.007": 9.44164202953,
			"0.008": 5.78536356479,
			"0.009": 4.25372350098,
			"0.01": 1.42703536632,
			"0.011": 0.0,
			"0.012": 0.0,
			"0.013": 0.0,
			"0.014": 0.0,
			"0.015": 0.0,
			"0.016": 0.0,
			"0.017": 0.0,
			"0.018": 0.0,
			"0.019": 0.0,
			"0.02": 0.0,
			"0.021": 0.0,
			"0.022": 0.0,
			"0.023": 0.0,
			"0.024": 0.0,
			"0.025": 0.0
		}
	}
}
