{
	 "smiles": "NC1=CC=C(Cl)C=C1[N+]([O-])=O", 
	 "Tm": 390.15, 
	 "num_atms": 16, 
	 "gaussian": { 
		 "optdone": 1, 
		 "sigma_profile": "yes", 
		 "theory": "DFT", 
		 "functional": "B3LYP", 
		 "basiset": "6-31G**", 
		 "properties": { 
			 "R2extent": 3022.4717, 
			 "electric_dipole_moment_norm": 4.9555600067, 
			 "electric_quadrupole_moment_norm": 11.0189087282, 
			 "total_energy": -951.701492226, 
			 "HOMO_LUMO_gap": 0.13651, 
			 "cosmo_polarized_energy": -11.54, 
			 "cosmo_cavitation_energy": 22.53, 
			 "cosmo_dispersion_energy": -17.26, 
			 "cosmo_repulsion_energy": 1.39, 
			 "cosmo_total_nonelectrostatic_energy": 6.66, 
			 "SMD_solvation_energy": 5.61 
		},
		"coords": [
			{
				"x": 0.1551943194,
				"y": -2.4000985792,
				"z": 0.3386520607,
				"element": "N" 
			},
			{
				"x": 0.3230776827,
				"y": -1.0939304837,
				"z": 0.65685165,
				"element": "C" 
			},
			{
				"x": -0.667172756,
				"y": -0.1460553937,
				"z": 0.2858395908,
				"element": "C" 
			},
			{
				"x": -0.5482849591,
				"y": 1.195551487,
				"z": 0.5841827524,
				"element": "C" 
			},
			{
				"x": 0.5806243574,
				"y": 1.6649359991,
				"z": 1.2774731906,
				"element": "C" 
			},
			{
				"x": 0.7205615039,
				"y": 3.3737021028,
				"z": 1.6512950221,
				"element": "Cl" 
			},
			{
				"x": 1.571010513,
				"y": 0.7857346389,
				"z": 1.6604264669,
				"element": "C" 
			},
			{
				"x": 1.4510398673,
				"y": -0.5809061348,
				"z": 1.3571247707,
				"element": "C" 
			},
			{
				"x": 2.5359764718,
				"y": -1.4384277685,
				"z": 1.7947140944,
				"element": "N" 
			},
			{
				"x": 2.4720830288,
				"y": -2.6575671137,
				"z": 1.5470246176,
				"element": "O" 
			},
			{
				"x": 3.4816935289,
				"y": -0.9297783722,
				"z": 2.3957797503,
				"element": "O" 
			},
			{
				"x": -0.6678329557,
				"y": -2.6926701883,
				"z": -0.1601142711,
				"element": "H" 
			},
			{
				"x": 0.8711405373,
				"y": -3.0582140926,
				"z": 0.6097832697,
				"element": "H" 
			},
			{
				"x": -1.5426430111,
				"y": -0.5013266762,
				"z": -0.2502204452,
				"element": "H" 
			},
			{
				"x": -1.3251210381,
				"y": 1.8907316403,
				"z": 0.2846978551,
				"element": "H" 
			},
			{
				"x": 2.4514529095,
				"y": 1.1162189347,
				"z": 2.1947896249,
				"element": "H" 
			}
		],
		 "valence_orbital": [ 
			{
				"type": "occ",
				"energy": -0.30991,
				"method": "rhf"
			},
			{
				"type": "occ",
				"energy": -0.30643,
				"method": "rhf"
			},
			{
				"type": "occ",
				"energy": -0.29225,
				"method": "rhf"
			},
			{
				"type": "occ",
				"energy": -0.28795,
				"method": "rhf"
			},
			{
				"type": "occ",
				"energy": -0.22662,
				"method": "rhf"
			},
			{
				"type": "unocc",
				"energy": -0.09011,
				"method": "rhf"
			},
			{
				"type": "unocc",
				"energy": -0.01774,
				"method": "rhf"
			},
			{
				"type": "unocc",
				"energy": -0.0012,
				"method": "rhf"
			},
			{
				"type": "unocc",
				"energy": 0.02015,
				"method": "rhf"
			},
			{
				"type": "unocc",
				"energy": 0.07074,
				"method": "rhf"
			}
		],
		"cosmo_sigma_profile": { 
			"-0.025": 0.0,
			"-0.024": 0.0,
			"-0.023": 0.0,
			"-0.022": 0.0,
			"-0.021": 0.0,
			"-0.02": 0.0,
			"-0.019": 0.0,
			"-0.018": 0.0,
			"-0.017": 0.0,
			"-0.016": 0.0293096927495,
			"-0.015": 1.13016160265,
			"-0.014": 1.547067799,
			"-0.013": 1.64745582971,
			"-0.012": 1.22733604541,
			"-0.011": 1.62628060996,
			"-0.01": 2.93366791437,
			"-0.009": 2.55261764457,
			"-0.008": 4.9538382607,
			"-0.007": 5.72904845356,
			"-0.006": 5.41990578501,
			"-0.005": 7.31664412429,
			"-0.004": 6.63793107796,
			"-0.003": 8.19775041497,
			"-0.002": 9.92388827309,
			"-0.001": 13.4168265304,
			"0.0": 17.0349573829,
			"0.001": 20.1298278275,
			"0.002": 17.3724775389,
			"0.003": 9.68110743806,
			"0.004": 13.0091528366,
			"0.005": 7.89392934997,
			"0.006": 2.81204098457,
			"0.007": 4.10149291356,
			"0.008": 6.19736848913,
			"0.009": 4.30538698882,
			"0.01": 4.35307852787,
			"0.011": 1.97165171643,
			"0.012": 0.0166249462144,
			"0.013": 0.0,
			"0.014": 0.0,
			"0.015": 0.0,
			"0.016": 0.0,
			"0.017": 0.0,
			"0.018": 0.0,
			"0.019": 0.0,
			"0.02": 0.0,
			"0.021": 0.0,
			"0.022": 0.0,
			"0.023": 0.0,
			"0.024": 0.0,
			"0.025": 0.0
		}
	}
}
