{
	 "smiles": "O=C1C2=CC=CC=C2C(=O)C2=C1C=CC=C2NC1=CC=CC2=C1C(=O)C1=C(C=CC=C1)C2=O", 
	 "Tm": 573.15, 
	 "num_atms": 48, 
	 "gaussian": { 
		 "optdone": 1, 
		 "sigma_profile": "yes", 
		 "theory": "DFT", 
		 "functional": "B3LYP", 
		 "basiset": "6-31G**", 
		 "properties": { 
			 "R2extent": 16946.9443, 
			 "electric_dipole_moment_norm": 0.857855518138, 
			 "electric_quadrupole_moment_norm": 23.0515658123, 
			 "total_energy": -1431.70659521, 
			 "HOMO_LUMO_gap": 0.10563, 
			 "cosmo_polarized_energy": -17.71, 
			 "cosmo_cavitation_energy": 52.16, 
			 "cosmo_dispersion_energy": -37.23, 
			 "cosmo_repulsion_energy": 2.63, 
			 "cosmo_total_nonelectrostatic_energy": 17.56, 
			 "SMD_solvation_energy": 9.3 
		},
		"coords": [
			{
				"x": -0.045111511,
				"y": 2.6013011109,
				"z": -5.709097494,
				"element": "O" 
			},
			{
				"x": 0.105328027,
				"y": 1.7928008384,
				"z": -4.7984544875,
				"element": "C" 
			},
			{
				"x": 1.1995920823,
				"y": 0.7920406509,
				"z": -4.8290113926,
				"element": "C" 
			},
			{
				"x": 2.0814859897,
				"y": 0.7668455687,
				"z": -5.9168227942,
				"element": "C" 
			},
			{
				"x": 3.100319784,
				"y": -0.1796549545,
				"z": -5.9641538021,
				"element": "C" 
			},
			{
				"x": 3.2420084765,
				"y": -1.1086646431,
				"z": -4.9253763136,
				"element": "C" 
			},
			{
				"x": 2.3681773113,
				"y": -1.0880486969,
				"z": -3.8418187428,
				"element": "C" 
			},
			{
				"x": 1.3418415726,
				"y": -0.1364523993,
				"z": -3.7841987274,
				"element": "C" 
			},
			{
				"x": 0.4348898989,
				"y": -0.1359530619,
				"z": -2.5946101273,
				"element": "C" 
			},
			{
				"x": 0.567613995,
				"y": -1.0023789326,
				"z": -1.735413646,
				"element": "O" 
			},
			{
				"x": -0.6187791174,
				"y": 0.916689341,
				"z": -2.512060493,
				"element": "C" 
			},
			{
				"x": -0.8229378351,
				"y": 1.7789450163,
				"z": -3.6224789498,
				"element": "C" 
			},
			{
				"x": -1.9129421603,
				"y": 2.6461885009,
				"z": -3.6790333264,
				"element": "C" 
			},
			{
				"x": -2.8382482728,
				"y": 2.6648988965,
				"z": -2.6377290508,
				"element": "C" 
			},
			{
				"x": -2.6392013047,
				"y": 1.8601952741,
				"z": -1.5247002622,
				"element": "C" 
			},
			{
				"x": -1.5261744964,
				"y": 1.0028770719,
				"z": -1.418287579,
				"element": "C" 
			},
			{
				"x": -1.4603781425,
				"y": 0.2558022387,
				"z": -0.233728598,
				"element": "N" 
			},
			{
				"x": -0.4267443784,
				"y": 0.1065264756,
				"z": 0.6574504854,
				"element": "C" 
			},
			{
				"x": 0.7936029088,
				"y": 0.8027109739,
				"z": 0.5048225602,
				"element": "C" 
			},
			{
				"x": 1.8186711725,
				"y": 0.6566152639,
				"z": 1.4215824335,
				"element": "C" 
			},
			{
				"x": 1.6768877879,
				"y": -0.1896317843,
				"z": 2.5263993807,
				"element": "C" 
			},
			{
				"x": 0.4801580191,
				"y": -0.8688360508,
				"z": 2.7187176312,
				"element": "C" 
			},
			{
				"x": -0.6005637862,
				"y": -0.7277595252,
				"z": 1.8060203484,
				"element": "C" 
			},
			{
				"x": -1.8778635469,
				"y": -1.4062832862,
				"z": 2.0716562221,
				"element": "C" 
			},
			{
				"x": -2.8848140183,
				"y": -1.2462652099,
				"z": 1.3584332746,
				"element": "O" 
			},
			{
				"x": -1.9752869282,
				"y": -2.3123359905,
				"z": 3.2516252044,
				"element": "C" 
			},
			{
				"x": -0.897131421,
				"y": -2.4803682263,
				"z": 4.1380355511,
				"element": "C" 
			},
			{
				"x": -1.0232374582,
				"y": -3.3345431467,
				"z": 5.2396584206,
				"element": "C" 
			},
			{
				"x": -2.2146619865,
				"y": -4.0207437268,
				"z": 5.45708944,
				"element": "C" 
			},
			{
				"x": -3.2897869983,
				"y": -3.854273643,
				"z": 4.5754867063,
				"element": "C" 
			},
			{
				"x": -3.172301675,
				"y": -3.0032789499,
				"z": 3.4797884389,
				"element": "C" 
			},
			{
				"x": 0.3801834173,
				"y": -1.751235544,
				"z": 3.9208425624,
				"element": "C" 
			},
			{
				"x": 1.3198259363,
				"y": -1.8749370335,
				"z": 4.7006815912,
				"element": "O" 
			},
			{
				"x": 1.9425801448,
				"y": 1.4954244642,
				"z": -6.708333861,
				"element": "H" 
			},
			{
				"x": 3.7839582019,
				"y": -0.1995692069,
				"z": -6.8077756513,
				"element": "H" 
			},
			{
				"x": 4.0367022817,
				"y": -1.8480075444,
				"z": -4.9641888983,
				"element": "H" 
			},
			{
				"x": 2.4582743953,
				"y": -1.796515366,
				"z": -3.0257487872,
				"element": "H" 
			},
			{
				"x": -2.016830174,
				"y": 3.282326366,
				"z": -4.5504863504,
				"element": "H" 
			},
			{
				"x": -3.7006823606,
				"y": 3.3232434725,
				"z": -2.680980755,
				"element": "H" 
			},
			{
				"x": -3.3323851083,
				"y": 1.9001174401,
				"z": -0.6895248298,
				"element": "H" 
			},
			{
				"x": -2.335464286,
				"y": -0.1434793949,
				"z": 0.1171456307,
				"element": "H" 
			},
			{
				"x": 0.9131069462,
				"y": 1.4741869878,
				"z": -0.3367887041,
				"element": "H" 
			},
			{
				"x": 2.7428311277,
				"y": 1.208963741,
				"z": 1.2777032506,
				"element": "H" 
			},
			{
				"x": 2.4730194253,
				"y": -0.327522042,
				"z": 3.2483869275,
				"element": "H" 
			},
			{
				"x": -0.1740397862,
				"y": -3.4403806607,
				"z": 5.9062162676,
				"element": "H" 
			},
			{
				"x": -2.3103968021,
				"y": -4.684720098,
				"z": 6.3112207688,
				"element": "H" 
			},
			{
				"x": -4.2190056541,
				"y": -4.3901469968,
				"z": 4.7459673342,
				"element": "H" 
			},
			{
				"x": -3.9923896936,
				"y": -2.857213578,
				"z": 2.7856731935,
				"element": "H" 
			}
		],
		 "valence_orbital": [ 
			{
				"type": "occ",
				"energy": -0.26309,
				"method": "rhf"
			},
			{
				"type": "occ",
				"energy": -0.26119,
				"method": "rhf"
			},
			{
				"type": "occ",
				"energy": -0.25423,
				"method": "rhf"
			},
			{
				"type": "occ",
				"energy": -0.25289,
				"method": "rhf"
			},
			{
				"type": "occ",
				"energy": -0.21087,
				"method": "rhf"
			},
			{
				"type": "unocc",
				"energy": -0.10524,
				"method": "rhf"
			},
			{
				"type": "unocc",
				"energy": -0.09854,
				"method": "rhf"
			},
			{
				"type": "unocc",
				"energy": -0.06198,
				"method": "rhf"
			},
			{
				"type": "unocc",
				"energy": -0.04694,
				"method": "rhf"
			},
			{
				"type": "unocc",
				"energy": -0.02706,
				"method": "rhf"
			}
		],
		"cosmo_sigma_profile": { 
			"-0.025": 0.0,
			"-0.024": 0.0,
			"-0.023": 0.0,
			"-0.022": 0.0,
			"-0.021": 0.0,
			"-0.02": 0.0,
			"-0.019": 0.0,
			"-0.018": 0.0,
			"-0.017": 0.0,
			"-0.016": 0.0,
			"-0.015": 0.0,
			"-0.014": 0.0,
			"-0.013": 0.0,
			"-0.012": 0.0,
			"-0.011": 0.0,
			"-0.01": 0.00516092765409,
			"-0.009": 0.354168271443,
			"-0.008": 3.24363244806,
			"-0.007": 18.1085777761,
			"-0.006": 29.3243618762,
			"-0.005": 32.5761648069,
			"-0.004": 25.2065154608,
			"-0.003": 26.5997804069,
			"-0.002": 26.7613412484,
			"-0.001": 31.0833041224,
			"0.0": 39.3916172582,
			"0.001": 47.079167294,
			"0.002": 51.1627660785,
			"0.003": 23.3624389023,
			"0.004": 8.86731320855,
			"0.005": 8.24682228704,
			"0.006": 6.40561723115,
			"0.007": 6.27702388693,
			"0.008": 7.09196639258,
			"0.009": 7.81211906364,
			"0.01": 9.55394282373,
			"0.011": 10.7832945924,
			"0.012": 3.54524061307,
			"0.013": 0.0,
			"0.014": 0.0,
			"0.015": 0.0,
			"0.016": 0.0,
			"0.017": 0.0,
			"0.018": 0.0,
			"0.019": 0.0,
			"0.02": 0.0,
			"0.021": 0.0,
			"0.022": 0.0,
			"0.023": 0.0,
			"0.024": 0.0,
			"0.025": 0.0
		}
	}
}
