{
	 "smiles": "OC(C1CCCCC1)C1CCCCC1", 
	 "Tm": 334.15, 
	 "num_atms": 38, 
	 "gaussian": { 
		 "optdone": 1, 
		 "sigma_profile": "yes", 
		 "theory": "DFT", 
		 "functional": "B3LYP", 
		 "basiset": "6-31G**", 
		 "properties": { 
			 "R2extent": 4212.763, 
			 "electric_dipole_moment_norm": 1.41761861585, 
			 "electric_quadrupole_moment_norm": 5.84752370752, 
			 "total_energy": -585.081889152, 
			 "HOMO_LUMO_gap": 0.32415, 
			 "cosmo_polarized_energy": -5.33, 
			 "cosmo_cavitation_energy": 34.44, 
			 "cosmo_dispersion_energy": -25.14, 
			 "cosmo_repulsion_energy": 1.97, 
			 "cosmo_total_nonelectrostatic_energy": 11.28, 
			 "SMD_solvation_energy": 4.04 
		},
		"coords": [
			{
				"x": 1.3883697101,
				"y": -1.8370878194,
				"z": 0.9334361613,
				"element": "O" 
			},
			{
				"x": 0.9897966256,
				"y": -0.4850450891,
				"z": 0.6630021885,
				"element": "C" 
			},
			{
				"x": -0.5557575595,
				"y": -0.3847158427,
				"z": 0.4964257074,
				"element": "C" 
			},
			{
				"x": -1.0069724285,
				"y": 0.8693524182,
				"z": -0.314338543,
				"element": "C" 
			},
			{
				"x": -2.3227367848,
				"y": 0.6560009223,
				"z": -1.0975420287,
				"element": "C" 
			},
			{
				"x": -3.2921076029,
				"y": -0.2304323278,
				"z": -0.3090344118,
				"element": "C" 
			},
			{
				"x": -2.692092179,
				"y": -1.644417188,
				"z": -0.1168879616,
				"element": "C" 
			},
			{
				"x": -1.1488335564,
				"y": -1.6448730257,
				"z": -0.1672028965,
				"element": "C" 
			},
			{
				"x": 1.615791667,
				"y": 0.4349560153,
				"z": 1.7454354407,
				"element": "C" 
			},
			{
				"x": 3.1588860929,
				"y": 0.2253499238,
				"z": 1.8258605293,
				"element": "C" 
			},
			{
				"x": 3.9317989957,
				"y": 1.3225151997,
				"z": 1.0824732755,
				"element": "C" 
			},
			{
				"x": 3.7054191167,
				"y": 2.7044762277,
				"z": 1.7369266566,
				"element": "C" 
			},
			{
				"x": 2.2953095334,
				"y": 2.8110348036,
				"z": 2.3634861907,
				"element": "C" 
			},
			{
				"x": 1.2827988948,
				"y": 1.9420109976,
				"z": 1.6027866638,
				"element": "C" 
			},
			{
				"x": 1.0887297032,
				"y": -2.0520692379,
				"z": 1.8281659458,
				"element": "H" 
			},
			{
				"x": 1.453376967,
				"y": -0.2650768257,
				"z": -0.3090136397,
				"element": "H" 
			},
			{
				"x": -0.9876706527,
				"y": -0.3170786257,
				"z": 1.508963008,
				"element": "H" 
			},
			{
				"x": -1.1366989475,
				"y": 1.7206175806,
				"z": 0.3596376052,
				"element": "H" 
			},
			{
				"x": -0.2165909982,
				"y": 1.155246271,
				"z": -1.020099148,
				"element": "H" 
			},
			{
				"x": -2.114804289,
				"y": 0.1852424557,
				"z": -2.0669862161,
				"element": "H" 
			},
			{
				"x": -2.7755226543,
				"y": 1.6284506147,
				"z": -1.3229076208,
				"element": "H" 
			},
			{
				"x": -4.2646955708,
				"y": -0.2898548695,
				"z": -0.8103305095,
				"element": "H" 
			},
			{
				"x": -3.480296263,
				"y": 0.234949757,
				"z": 0.6677231618,
				"element": "H" 
			},
			{
				"x": -3.0709545935,
				"y": -2.3209523277,
				"z": -0.8923716176,
				"element": "H" 
			},
			{
				"x": -3.0299402937,
				"y": -2.0599576991,
				"z": 0.8406701216,
				"element": "H" 
			},
			{
				"x": -0.8053165742,
				"y": -1.6845098108,
				"z": -1.2097495519,
				"element": "H" 
			},
			{
				"x": -0.7568818598,
				"y": -2.5476446285,
				"z": 0.3041203305,
				"element": "H" 
			},
			{
				"x": 1.1833254745,
				"y": 0.0985327718,
				"z": 2.7027019491,
				"element": "H" 
			},
			{
				"x": 3.4721825092,
				"y": 0.2288681514,
				"z": 2.8779563148,
				"element": "H" 
			},
			{
				"x": 3.4063055384,
				"y": -0.7649514836,
				"z": 1.4358956373,
				"element": "H" 
			},
			{
				"x": 3.6038912575,
				"y": 1.346842944,
				"z": 0.0349844591,
				"element": "H" 
			},
			{
				"x": 5.0010109136,
				"y": 1.084229615,
				"z": 1.0556049299,
				"element": "H" 
			},
			{
				"x": 4.462611267,
				"y": 2.8815019939,
				"z": 2.5102138711,
				"element": "H" 
			},
			{
				"x": 3.8426290012,
				"y": 3.4931567521,
				"z": 0.9872842188,
				"element": "H" 
			},
			{
				"x": 2.3244380958,
				"y": 2.4857620186,
				"z": 3.4117355997,
				"element": "H" 
			},
			{
				"x": 1.9635614266,
				"y": 3.8553180773,
				"z": 2.3793537966,
				"element": "H" 
			},
			{
				"x": 1.2951914408,
				"y": 2.2348445777,
				"z": 0.5456161168,
				"element": "H" 
			},
			{
				"x": 0.2697485767,
				"y": 2.1414067125,
				"z": 1.9654042655,
				"element": "H" 
			}
		],
		 "valence_orbital": [ 
			{
				"type": "occ",
				"energy": -0.29445,
				"method": "rhf"
			},
			{
				"type": "occ",
				"energy": -0.29151,
				"method": "rhf"
			},
			{
				"type": "occ",
				"energy": -0.28608,
				"method": "rhf"
			},
			{
				"type": "occ",
				"energy": -0.28181,
				"method": "rhf"
			},
			{
				"type": "occ",
				"energy": -0.25649,
				"method": "rhf"
			},
			{
				"type": "unocc",
				"energy": 0.06766,
				"method": "rhf"
			},
			{
				"type": "unocc",
				"energy": 0.08113,
				"method": "rhf"
			},
			{
				"type": "unocc",
				"energy": 0.08664,
				"method": "rhf"
			},
			{
				"type": "unocc",
				"energy": 0.10013,
				"method": "rhf"
			},
			{
				"type": "unocc",
				"energy": 0.11273,
				"method": "rhf"
			}
		],
		"cosmo_sigma_profile": { 
			"-0.025": 0.0,
			"-0.024": 0.0,
			"-0.023": 0.0,
			"-0.022": 0.0,
			"-0.021": 0.0,
			"-0.02": 0.0,
			"-0.019": 0.0,
			"-0.018": 0.0,
			"-0.017": 0.0,
			"-0.016": 0.0,
			"-0.015": 0.0,
			"-0.014": 0.637382606264,
			"-0.013": 0.925364795726,
			"-0.012": 0.56256378861,
			"-0.011": 0.78598912728,
			"-0.01": 1.11762041089,
			"-0.009": 1.25145111639,
			"-0.008": 0.775963275619,
			"-0.007": 1.47095989843,
			"-0.006": 0.898120997031,
			"-0.005": 1.06792854885,
			"-0.004": 1.98436970209,
			"-0.003": 4.8054590389,
			"-0.002": 36.6842718853,
			"-0.001": 60.140437123,
			"0.0": 59.5876535848,
			"0.001": 44.7949962897,
			"0.002": 26.0492203656,
			"0.003": 2.926532306,
			"0.004": 2.15979312799,
			"0.005": 1.69021785454,
			"0.006": 1.09437050138,
			"0.007": 0.947974139211,
			"0.008": 1.41516904456,
			"0.009": 1.29886896719,
			"0.01": 1.13508053348,
			"0.011": 1.03651707664,
			"0.012": 1.01307920038,
			"0.013": 1.32295889618,
			"0.014": 1.17273698499,
			"0.015": 1.11766352755,
			"0.016": 0.0510217133677,
			"0.017": 0.0,
			"0.018": 0.0,
			"0.019": 0.0,
			"0.02": 0.0,
			"0.021": 0.0,
			"0.022": 0.0,
			"0.023": 0.0,
			"0.024": 0.0,
			"0.025": 0.0
		}
	}
}
