{
	 "smiles": "NC(=O)C1=C2N=CC3=C(N2N=C1)C(=O)OCC3", 
	 "Tm": 563.15, 
	 "num_atms": 25, 
	 "gaussian": { 
		 "optdone": 1, 
		 "sigma_profile": "yes", 
		 "theory": "DFT", 
		 "functional": "B3LYP", 
		 "basiset": "6-31G**", 
		 "properties": { 
			 "R2extent": 4370.6571, 
			 "electric_dipole_moment_norm": 8.61328346741, 
			 "electric_quadrupole_moment_norm": 9.74817783434, 
			 "total_energy": -830.551228259, 
			 "HOMO_LUMO_gap": 0.14078, 
			 "cosmo_polarized_energy": -26.65, 
			 "cosmo_cavitation_energy": 29.71, 
			 "cosmo_dispersion_energy": -22.45, 
			 "cosmo_repulsion_energy": 1.72, 
			 "cosmo_total_nonelectrostatic_energy": 8.98, 
			 "SMD_solvation_energy": 5.1 
		},
		"coords": [
			{
				"x": -4.4571348144,
				"y": -0.6655692865,
				"z": -1.1757890526,
				"element": "N" 
			},
			{
				"x": -4.1499261977,
				"y": 0.6620121349,
				"z": -1.1111233602,
				"element": "C" 
			},
			{
				"x": -4.9648777459,
				"y": 1.5560301343,
				"z": -1.3164486438,
				"element": "O" 
			},
			{
				"x": -2.7383855083,
				"y": 0.9671849172,
				"z": -0.7714227769,
				"element": "C" 
			},
			{
				"x": -1.668898886,
				"y": 0.1069190851,
				"z": -0.5094847925,
				"element": "C" 
			},
			{
				"x": -1.5726589851,
				"y": -1.2356016574,
				"z": -0.4910881325,
				"element": "N" 
			},
			{
				"x": -0.3890666279,
				"y": -1.7564113911,
				"z": -0.238389688,
				"element": "C" 
			},
			{
				"x": 0.7708859437,
				"y": -0.9790661308,
				"z": 0.026108623,
				"element": "C" 
			},
			{
				"x": 0.6651967816,
				"y": 0.3995594215,
				"z": 0.0349992842,
				"element": "C" 
			},
			{
				"x": -0.559986704,
				"y": 0.9455550983,
				"z": -0.2500222903,
				"element": "N" 
			},
			{
				"x": -0.8787612033,
				"y": 2.2526947185,
				"z": -0.3473163224,
				"element": "N" 
			},
			{
				"x": -2.1819131499,
				"y": 2.2511108685,
				"z": -0.6568255758,
				"element": "C" 
			},
			{
				"x": 1.8175726407,
				"y": 1.2683434007,
				"z": 0.4544420713,
				"element": "C" 
			},
			{
				"x": 1.7036202854,
				"y": 2.3918749062,
				"z": 0.8689058566,
				"element": "O" 
			},
			{
				"x": 3.0386543692,
				"y": 0.6706707084,
				"z": 0.4234978435,
				"element": "O" 
			},
			{
				"x": 3.1914754346,
				"y": -0.6195333829,
				"z": -0.1994900798,
				"element": "C" 
			},
			{
				"x": 2.1241137256,
				"y": -1.5876853492,
				"z": 0.2894859877,
				"element": "C" 
			},
			{
				"x": -5.4065952628,
				"y": -0.9168434373,
				"z": -1.4015215837,
				"element": "H" 
			},
			{
				"x": -3.7618705306,
				"y": -1.3782683123,
				"z": -1.000223173,
				"element": "H" 
			},
			{
				"x": -0.3175788429,
				"y": -2.8424905852,
				"z": -0.2402273352,
				"element": "H" 
			},
			{
				"x": -2.6995429433,
				"y": 3.1898322826,
				"z": -0.7964640655,
				"element": "H" 
			},
			{
				"x": 4.1984567812,
				"y": -0.9450278498,
				"z": 0.0664638426,
				"element": "H" 
			},
			{
				"x": 3.1361000955,
				"y": -0.5013399782,
				"z": -1.2888387273,
				"element": "H" 
			},
			{
				"x": 2.2630916945,
				"y": -1.7857688778,
				"z": 1.3605739948,
				"element": "H" 
			},
			{
				"x": 2.2232296501,
				"y": -2.5462814376,
				"z": -0.2311019044,
				"element": "H" 
			}
		],
		 "valence_orbital": [ 
			{
				"type": "occ",
				"energy": -0.27895,
				"method": "rhf"
			},
			{
				"type": "occ",
				"energy": -0.27532,
				"method": "rhf"
			},
			{
				"type": "occ",
				"energy": -0.25748,
				"method": "rhf"
			},
			{
				"type": "occ",
				"energy": -0.24695,
				"method": "rhf"
			},
			{
				"type": "occ",
				"energy": -0.24403,
				"method": "rhf"
			},
			{
				"type": "unocc",
				"energy": -0.10325,
				"method": "rhf"
			},
			{
				"type": "unocc",
				"energy": -0.04249,
				"method": "rhf"
			},
			{
				"type": "unocc",
				"energy": 0.00449,
				"method": "rhf"
			},
			{
				"type": "unocc",
				"energy": 0.01801,
				"method": "rhf"
			},
			{
				"type": "unocc",
				"energy": 0.07145,
				"method": "rhf"
			}
		],
		"cosmo_sigma_profile": { 
			"-0.025": 0.0,
			"-0.024": 0.0,
			"-0.023": 0.0,
			"-0.022": 0.0,
			"-0.021": 0.0,
			"-0.02": 0.0,
			"-0.019": 0.0,
			"-0.018": 0.0,
			"-0.017": 0.0,
			"-0.016": 0.0,
			"-0.015": 0.0,
			"-0.014": 0.54381552706,
			"-0.013": 1.31010658238,
			"-0.012": 1.01164314674,
			"-0.011": 0.599034066844,
			"-0.01": 2.22864636916,
			"-0.009": 6.22708461755,
			"-0.008": 10.0190237045,
			"-0.007": 21.1570975,
			"-0.006": 20.8655181823,
			"-0.005": 16.8908431167,
			"-0.004": 13.9613763134,
			"-0.003": 11.7180185691,
			"-0.002": 8.94964600834,
			"-0.001": 10.9849797941,
			"0.0": 12.7503625621,
			"0.001": 13.8727630688,
			"0.002": 9.7522267047,
			"0.003": 8.83232380629,
			"0.004": 7.11341934886,
			"0.005": 6.98481215056,
			"0.006": 5.23171290365,
			"0.007": 4.14667477899,
			"0.008": 4.37071574672,
			"0.009": 5.67729894313,
			"0.01": 6.83813914262,
			"0.011": 6.67614686825,
			"0.012": 4.40057686743,
			"0.013": 4.58501196729,
			"0.014": 7.22413385688,
			"0.015": 2.30476117339,
			"0.016": 0.964995751191,
			"0.017": 0.320940530028,
			"0.018": 0.0,
			"0.019": 0.0,
			"0.02": 0.0,
			"0.021": 0.0,
			"0.022": 0.0,
			"0.023": 0.0,
			"0.024": 0.0,
			"0.025": 0.0
		}
	}
}
