{
	 "smiles": "CCOC(=O)C1=C2N=CN(NC3=CC=CC=C3)C(=O)N2N=C1SC", 
	 "Tm": 393.15, 
	 "num_atms": 39, 
	 "gaussian": { 
		 "optdone": 1, 
		 "sigma_profile": "yes", 
		 "theory": "DFT", 
		 "functional": "B3LYP", 
		 "basiset": "6-31G**", 
		 "properties": { 
			 "R2extent": 11154.6065, 
			 "electric_dipole_moment_norm": 5.66335212573, 
			 "electric_quadrupole_moment_norm": 14.103197474, 
			 "total_energy": -1478.2217636, 
			 "HOMO_LUMO_gap": 0.15459, 
			 "cosmo_polarized_energy": -26.68, 
			 "cosmo_cavitation_energy": 46.41, 
			 "cosmo_dispersion_energy": -32.95, 
			 "cosmo_repulsion_energy": 2.5, 
			 "cosmo_total_nonelectrostatic_energy": 15.96, 
			 "SMD_solvation_energy": 8.53 
		},
		"coords": [
			{
				"x": -3.0993924529,
				"y": -0.0206933332,
				"z": -4.6848546322,
				"element": "C" 
			},
			{
				"x": -3.339695682,
				"y": 1.033160392,
				"z": -3.6207708847,
				"element": "C" 
			},
			{
				"x": -2.5902990328,
				"y": 0.6400732913,
				"z": -2.4488705269,
				"element": "O" 
			},
			{
				"x": -2.6861301584,
				"y": 1.4682191451,
				"z": -1.3914020065,
				"element": "C" 
			},
			{
				"x": -3.3518416478,
				"y": 2.4898505699,
				"z": -1.3861683314,
				"element": "O" 
			},
			{
				"x": -1.9049418087,
				"y": 1.0185934713,
				"z": -0.2348522732,
				"element": "C" 
			},
			{
				"x": -1.1006770299,
				"y": -0.1022990867,
				"z": -0.0689042612,
				"element": "C" 
			},
			{
				"x": -0.7697429698,
				"y": -1.1408652766,
				"z": -0.8957649318,
				"element": "N" 
			},
			{
				"x": 0.0222187396,
				"y": -2.0251944283,
				"z": -0.3941711873,
				"element": "C" 
			},
			{
				"x": 0.5397932315,
				"y": -1.9975377212,
				"z": 0.8922860961,
				"element": "N" 
			},
			{
				"x": 1.3696074917,
				"y": -3.0180592954,
				"z": 1.3287361485,
				"element": "N" 
			},
			{
				"x": 2.6661529066,
				"y": -3.1407552996,
				"z": 0.7865824942,
				"element": "C" 
			},
			{
				"x": 3.3447092402,
				"y": -2.0440327769,
				"z": 0.2402327988,
				"element": "C" 
			},
			{
				"x": 4.6433976381,
				"y": -2.2075681818,
				"z": -0.2423268822,
				"element": "C" 
			},
			{
				"x": 5.2797583506,
				"y": -3.4477080407,
				"z": -0.1832998459,
				"element": "C" 
			},
			{
				"x": 4.5995293542,
				"y": -4.5358522256,
				"z": 0.3680152523,
				"element": "C" 
			},
			{
				"x": 3.2998296035,
				"y": -4.3905095875,
				"z": 0.8466264846,
				"element": "C" 
			},
			{
				"x": 0.249150009,
				"y": -0.959467156,
				"z": 1.8243689782,
				"element": "C" 
			},
			{
				"x": 0.6741498271,
				"y": -0.9110664786,
				"z": 2.9475406292,
				"element": "O" 
			},
			{
				"x": -0.6051339562,
				"y": -0.0239266168,
				"z": 1.2279244867,
				"element": "N" 
			},
			{
				"x": -1.0471087601,
				"y": 1.0802238402,
				"z": 1.899907947,
				"element": "N" 
			},
			{
				"x": -1.825624041,
				"y": 1.7064025222,
				"z": 1.0238018104,
				"element": "C" 
			},
			{
				"x": -2.64110654,
				"y": 3.2091749221,
				"z": 1.4239177785,
				"element": "S" 
			},
			{
				"x": -2.0541746739,
				"y": 3.4171324322,
				"z": 3.1435321086,
				"element": "C" 
			},
			{
				"x": -3.650453085,
				"y": 0.2381495337,
				"z": -5.5944282736,
				"element": "H" 
			},
			{
				"x": -2.0363581997,
				"y": -0.0899222691,
				"z": -4.9322709936,
				"element": "H" 
			},
			{
				"x": -3.4369304696,
				"y": -1.0034718746,
				"z": -4.3438234942,
				"element": "H" 
			},
			{
				"x": -3.0042313367,
				"y": 2.0252701136,
				"z": -3.939524154,
				"element": "H" 
			},
			{
				"x": -4.3980372828,
				"y": 1.1157663348,
				"z": -3.3533538088,
				"element": "H" 
			},
			{
				"x": 0.3442501576,
				"y": -2.8786474918,
				"z": -0.9853257856,
				"element": "H" 
			},
			{
				"x": 0.873846845,
				"y": -3.8791619871,
				"z": 1.5183981326,
				"element": "H" 
			},
			{
				"x": 2.8696518636,
				"y": -1.0699226585,
				"z": 0.2027461176,
				"element": "H" 
			},
			{
				"x": 5.1601779003,
				"y": -1.3502494872,
				"z": -0.6636714814,
				"element": "H" 
			},
			{
				"x": 6.2905976004,
				"y": -3.5654935253,
				"z": -0.5600806711,
				"element": "H" 
			},
			{
				"x": 5.0785127617,
				"y": -5.5091775572,
				"z": 0.4214498661,
				"element": "H" 
			},
			{
				"x": 2.7756125074,
				"y": -5.2427300283,
				"z": 1.2726652627,
				"element": "H" 
			},
			{
				"x": -2.3722350861,
				"y": 2.5816890284,
				"z": 3.7683218587,
				"element": "H" 
			},
			{
				"x": -0.9673386994,
				"y": 3.5014808807,
				"z": 3.1775694256,
				"element": "H" 
			},
			{
				"x": -2.5119931153,
				"y": 4.3433259064,
				"z": 3.4968407493,
				"element": "H" 
			}
		],
		 "valence_orbital": [ 
			{
				"type": "occ",
				"energy": -0.26944,
				"method": "rhf"
			},
			{
				"type": "occ",
				"energy": -0.26451,
				"method": "rhf"
			},
			{
				"type": "occ",
				"energy": -0.25002,
				"method": "rhf"
			},
			{
				"type": "occ",
				"energy": -0.22957,
				"method": "rhf"
			},
			{
				"type": "occ",
				"energy": -0.22116,
				"method": "rhf"
			},
			{
				"type": "unocc",
				"energy": -0.06657,
				"method": "rhf"
			},
			{
				"type": "unocc",
				"energy": -0.02675,
				"method": "rhf"
			},
			{
				"type": "unocc",
				"energy": -0.014,
				"method": "rhf"
			},
			{
				"type": "unocc",
				"energy": -0.00403,
				"method": "rhf"
			},
			{
				"type": "unocc",
				"energy": 0.00054,
				"method": "rhf"
			}
		],
		"cosmo_sigma_profile": { 
			"-0.025": 0.0,
			"-0.024": 0.0,
			"-0.023": 0.0,
			"-0.022": 0.0,
			"-0.021": 0.0,
			"-0.02": 0.0,
			"-0.019": 0.0,
			"-0.018": 0.0,
			"-0.017": 0.0,
			"-0.016": 0.759577680101,
			"-0.015": 1.86642155024,
			"-0.014": 2.08916543499,
			"-0.013": 1.78695072701,
			"-0.012": 1.72729422243,
			"-0.011": 4.07162817145,
			"-0.01": 5.25022007829,
			"-0.009": 5.41342349556,
			"-0.008": 5.17688334278,
			"-0.007": 7.63984785993,
			"-0.006": 14.7896317776,
			"-0.005": 24.436806324,
			"-0.004": 30.8750273216,
			"-0.003": 31.8001083987,
			"-0.002": 31.1522784383,
			"-0.001": 28.7125014146,
			"0.0": 22.8004188275,
			"0.001": 17.8440620734,
			"0.002": 17.039868835,
			"0.003": 14.323268349,
			"0.004": 17.503986472,
			"0.005": 17.2375424668,
			"0.006": 12.4492234115,
			"0.007": 9.83796070163,
			"0.008": 7.1352821442,
			"0.009": 6.4596524649,
			"0.01": 9.54028677151,
			"0.011": 9.92379861588,
			"0.012": 7.8332560344,
			"0.013": 3.68658386244,
			"0.014": 1.58350080753,
			"0.015": 0.0567371777654,
			"0.016": 0.0,
			"0.017": 0.0,
			"0.018": 0.0,
			"0.019": 0.0,
			"0.02": 0.0,
			"0.021": 0.0,
			"0.022": 0.0,
			"0.023": 0.0,
			"0.024": 0.0,
			"0.025": 0.0
		}
	}
}
