{
	 "smiles": "CN1C=C(SSC2=CN(C)N=C2)C=N1", 
	 "Tm": 385.15, 
	 "num_atms": 24, 
	 "gaussian": { 
		 "optdone": 1, 
		 "sigma_profile": "yes", 
		 "theory": "DFT", 
		 "functional": "B3LYP", 
		 "basiset": "6-31G**", 
		 "properties": { 
			 "R2extent": 5749.0954, 
			 "electric_dipole_moment_norm": 4.70054385151, 
			 "electric_quadrupole_moment_norm": 21.0263309372, 
			 "total_energy": -1326.20853468, 
			 "HOMO_LUMO_gap": 0.18345, 
			 "cosmo_polarized_energy": -14.93, 
			 "cosmo_cavitation_energy": 32.73, 
			 "cosmo_dispersion_energy": -23.32, 
			 "cosmo_repulsion_energy": 1.78, 
			 "cosmo_total_nonelectrostatic_energy": 11.2, 
			 "SMD_solvation_energy": 3.65 
		},
		"coords": [
			{
				"x": -3.1927544737,
				"y": 1.5085422203,
				"z": 3.2145748038,
				"element": "C" 
			},
			{
				"x": -2.7895231945,
				"y": 0.8279040069,
				"z": 1.9973974431,
				"element": "N" 
			},
			{
				"x": -3.4054728284,
				"y": -0.2005029992,
				"z": 1.371238986,
				"element": "C" 
			},
			{
				"x": -2.6717784612,
				"y": -0.468106535,
				"z": 0.2201576017,
				"element": "C" 
			},
			{
				"x": -3.0093614985,
				"y": -1.6757249781,
				"z": -1.014322108,
				"element": "S" 
			},
			{
				"x": -1.9533032155,
				"y": -3.4225075496,
				"z": -0.3660045777,
				"element": "S" 
			},
			{
				"x": -0.2866018484,
				"y": -3.1560151325,
				"z": -0.8597940262,
				"element": "C" 
			},
			{
				"x": 0.7274664313,
				"y": -2.5822642349,
				"z": -0.0985398966,
				"element": "C" 
			},
			{
				"x": 1.8487349693,
				"y": -2.6158058173,
				"z": -0.8537374664,
				"element": "N" 
			},
			{
				"x": 3.1848093066,
				"y": -2.1729359095,
				"z": -0.4991719385,
				"element": "C" 
			},
			{
				"x": 1.6401415977,
				"y": -3.1829284201,
				"z": -2.0699297412,
				"element": "N" 
			},
			{
				"x": 0.3522584908,
				"y": -3.5073255943,
				"z": -2.0772680628,
				"element": "C" 
			},
			{
				"x": -1.6188915203,
				"y": 0.4829270864,
				"z": 0.2544080247,
				"element": "C" 
			},
			{
				"x": -1.6927114217,
				"y": 1.2646505883,
				"z": 1.3269511877,
				"element": "N" 
			},
			{
				"x": -2.3387524774,
				"y": 1.5789053831,
				"z": 3.8914485731,
				"element": "H" 
			},
			{
				"x": -3.5513607629,
				"y": 2.5168118594,
				"z": 2.9885977712,
				"element": "H" 
			},
			{
				"x": -3.990643154,
				"y": 0.9385460383,
				"z": 3.6931057243,
				"element": "H" 
			},
			{
				"x": -4.2947984732,
				"y": -0.6695176699,
				"z": 1.7660801133,
				"element": "H" 
			},
			{
				"x": 0.7119835295,
				"y": -2.1673826313,
				"z": 0.898573215,
				"element": "H" 
			},
			{
				"x": 3.8559370929,
				"y": -3.0300093734,
				"z": -0.3933898763,
				"element": "H" 
			},
			{
				"x": 3.5700077491,
				"y": -1.5148840103,
				"z": -1.2809961386,
				"element": "H" 
			},
			{
				"x": 3.1396763148,
				"y": -1.6284274007,
				"z": 0.4452954567,
				"element": "H" 
			},
			{
				"x": -0.0883612183,
				"y": -3.9787071725,
				"z": -2.9454657627,
				"element": "H" 
			},
			{
				"x": -0.8245009342,
				"y": 0.6167582461,
				"z": -0.4675093058,
				"element": "H" 
			}
		],
		 "valence_orbital": [ 
			{
				"type": "occ",
				"energy": -0.26248,
				"method": "rhf"
			},
			{
				"type": "occ",
				"energy": -0.25809,
				"method": "rhf"
			},
			{
				"type": "occ",
				"energy": -0.24186,
				"method": "rhf"
			},
			{
				"type": "occ",
				"energy": -0.23473,
				"method": "rhf"
			},
			{
				"type": "occ",
				"energy": -0.22935,
				"method": "rhf"
			},
			{
				"type": "unocc",
				"energy": -0.0459,
				"method": "rhf"
			},
			{
				"type": "unocc",
				"energy": 0.0091,
				"method": "rhf"
			},
			{
				"type": "unocc",
				"energy": 0.01332,
				"method": "rhf"
			},
			{
				"type": "unocc",
				"energy": 0.05717,
				"method": "rhf"
			},
			{
				"type": "unocc",
				"energy": 0.06587,
				"method": "rhf"
			}
		],
		"cosmo_sigma_profile": { 
			"-0.025": 0.0,
			"-0.024": 0.0,
			"-0.023": 0.0,
			"-0.022": 0.0,
			"-0.021": 0.0,
			"-0.02": 0.0,
			"-0.019": 0.0,
			"-0.018": 0.0,
			"-0.017": 0.0,
			"-0.016": 0.0,
			"-0.015": 0.0,
			"-0.014": 0.0,
			"-0.013": 0.0,
			"-0.012": 0.0,
			"-0.011": 0.0,
			"-0.01": 3.29900054566,
			"-0.009": 5.2401397922,
			"-0.008": 6.30484611003,
			"-0.007": 12.2228857304,
			"-0.006": 17.5090775756,
			"-0.005": 16.8741569526,
			"-0.004": 20.0357387252,
			"-0.003": 21.7508149267,
			"-0.002": 11.2394369693,
			"-0.001": 10.2771269186,
			"0.0": 14.6096196772,
			"0.001": 19.1511857869,
			"0.002": 21.8262954399,
			"0.003": 20.4711436007,
			"0.004": 15.7780657008,
			"0.005": 11.8069304429,
			"0.006": 7.9843228591,
			"0.007": 8.96958014757,
			"0.008": 5.42277896273,
			"0.009": 1.98974892037,
			"0.01": 3.03427319841,
			"0.011": 2.26736319325,
			"0.012": 1.85350768938,
			"0.013": 2.26105191768,
			"0.014": 1.94959761936,
			"0.015": 1.74674253677,
			"0.016": 0.190417426652,
			"0.017": 0.0,
			"0.018": 0.0,
			"0.019": 0.0,
			"0.02": 0.0,
			"0.021": 0.0,
			"0.022": 0.0,
			"0.023": 0.0,
			"0.024": 0.0,
			"0.025": 0.0
		}
	}
}
