{
	 "smiles": "CC1=CC=C(NN=C2C(=O)NN(C2=O)C2=CC=CC=C2)C=C1", 
	 "Tm": 550.15, 
	 "num_atms": 36, 
	 "gaussian": { 
		 "optdone": 1, 
		 "sigma_profile": "yes", 
		 "theory": "DFT", 
		 "functional": "B3LYP", 
		 "basiset": "6-31G**", 
		 "properties": { 
			 "R2extent": 10666.5952, 
			 "electric_dipole_moment_norm": 2.7973953421, 
			 "electric_quadrupole_moment_norm": 25.5231274586, 
			 "total_energy": -987.560798553, 
			 "HOMO_LUMO_gap": 0.12542, 
			 "cosmo_polarized_energy": -17.03, 
			 "cosmo_cavitation_energy": 41.4, 
			 "cosmo_dispersion_energy": -30.18, 
			 "cosmo_repulsion_energy": 2.27, 
			 "cosmo_total_nonelectrostatic_energy": 13.49, 
			 "SMD_solvation_energy": 7.63 
		},
		"coords": [
			{
				"x": -5.6054377137,
				"y": -2.9295383488,
				"z": 2.9939944556,
				"element": "C" 
			},
			{
				"x": -4.436892782,
				"y": -2.3170969772,
				"z": 2.2598830488,
				"element": "C" 
			},
			{
				"x": -3.1853560305,
				"y": -2.1765569046,
				"z": 2.8710091132,
				"element": "C" 
			},
			{
				"x": -2.1127426811,
				"y": -1.5927423422,
				"z": 2.2001171481,
				"element": "C" 
			},
			{
				"x": -2.2808368766,
				"y": -1.1363149255,
				"z": 0.8884824804,
				"element": "C" 
			},
			{
				"x": -1.1759215947,
				"y": -0.5555978148,
				"z": 0.2423230993,
				"element": "N" 
			},
			{
				"x": -1.2568681434,
				"y": -0.098716505,
				"z": -0.9785861255,
				"element": "N" 
			},
			{
				"x": -0.182185493,
				"y": 0.4358633015,
				"z": -1.5106923728,
				"element": "C" 
			},
			{
				"x": -0.1172259743,
				"y": 0.9638512691,
				"z": -2.878521793,
				"element": "C" 
			},
			{
				"x": -0.9087630871,
				"y": 0.9323992507,
				"z": -3.7998239653,
				"element": "O" 
			},
			{
				"x": 1.1720547437,
				"y": 1.5538419793,
				"z": -2.9761333566,
				"element": "N" 
			},
			{
				"x": 1.9420111268,
				"y": 1.1984071499,
				"z": -1.8288049322,
				"element": "N" 
			},
			{
				"x": 1.1316570561,
				"y": 0.5888335055,
				"z": -0.88439961,
				"element": "C" 
			},
			{
				"x": 1.4550493493,
				"y": 0.259429404,
				"z": 0.2654106608,
				"element": "O" 
			},
			{
				"x": 3.1871678136,
				"y": 1.838662222,
				"z": -1.6186112625,
				"element": "C" 
			},
			{
				"x": 3.5629525669,
				"y": 2.9204783378,
				"z": -2.428135181,
				"element": "C" 
			},
			{
				"x": 4.8048520938,
				"y": 3.5256536131,
				"z": -2.2385833448,
				"element": "C" 
			},
			{
				"x": 5.6753486985,
				"y": 3.0681032147,
				"z": -1.2495167681,
				"element": "C" 
			},
			{
				"x": 5.2909968157,
				"y": 1.9928267331,
				"z": -0.4451209422,
				"element": "C" 
			},
			{
				"x": 4.0590631723,
				"y": 1.3677788394,
				"z": -0.6230748369,
				"element": "C" 
			},
			{
				"x": -3.5228381984,
				"y": -1.2678430538,
				"z": 0.2527624937,
				"element": "C" 
			},
			{
				"x": -4.5784722115,
				"y": -1.8532389194,
				"z": 0.9413787825,
				"element": "C" 
			},
			{
				"x": -6.3305475704,
				"y": -2.1639896981,
				"z": 3.2968999173,
				"element": "H" 
			},
			{
				"x": -5.2806973352,
				"y": -3.4507760424,
				"z": 3.8987884223,
				"element": "H" 
			},
			{
				"x": -6.1413052013,
				"y": -3.6479653863,
				"z": 2.3646966864,
				"element": "H" 
			},
			{
				"x": -3.0431537637,
				"y": -2.5293193019,
				"z": 3.8889546531,
				"element": "H" 
			},
			{
				"x": -1.1480612705,
				"y": -1.4936469588,
				"z": 2.6910429688,
				"element": "H" 
			},
			{
				"x": -0.2761397939,
				"y": -0.4682061898,
				"z": 0.7312285349,
				"element": "H" 
			},
			{
				"x": 1.6561165646,
				"y": 1.3484199459,
				"z": -3.8467692762,
				"element": "H" 
			},
			{
				"x": 2.8793377441,
				"y": 3.2984969186,
				"z": -3.1790561962,
				"element": "H" 
			},
			{
				"x": 5.0853446534,
				"y": 4.3651922387,
				"z": -2.8679842133,
				"element": "H" 
			},
			{
				"x": 6.6411698599,
				"y": 3.5427135537,
				"z": -1.1063924246,
				"element": "H" 
			},
			{
				"x": 5.9590832658,
				"y": 1.6270196538,
				"z": 0.3291907427,
				"element": "H" 
			},
			{
				"x": 3.7600799404,
				"y": 0.537819075,
				"z": 0.0022286069,
				"element": "H" 
			},
			{
				"x": -3.6407859885,
				"y": -0.9145625809,
				"z": -0.7647508632,
				"element": "H" 
			},
			{
				"x": -5.5387537551,
				"y": -1.9545782564,
				"z": 0.4418656499,
				"element": "H" 
			}
		],
		 "valence_orbital": [ 
			{
				"type": "occ",
				"energy": -0.26256,
				"method": "rhf"
			},
			{
				"type": "occ",
				"energy": -0.2578,
				"method": "rhf"
			},
			{
				"type": "occ",
				"energy": -0.25196,
				"method": "rhf"
			},
			{
				"type": "occ",
				"energy": -0.22596,
				"method": "rhf"
			},
			{
				"type": "occ",
				"energy": -0.21246,
				"method": "rhf"
			},
			{
				"type": "unocc",
				"energy": -0.08704,
				"method": "rhf"
			},
			{
				"type": "unocc",
				"energy": -0.01334,
				"method": "rhf"
			},
			{
				"type": "unocc",
				"energy": -0.01283,
				"method": "rhf"
			},
			{
				"type": "unocc",
				"energy": -0.00791,
				"method": "rhf"
			},
			{
				"type": "unocc",
				"energy": 0.00975,
				"method": "rhf"
			}
		],
		"cosmo_sigma_profile": { 
			"-0.025": 0.0,
			"-0.024": 0.0,
			"-0.023": 0.0,
			"-0.022": 0.0,
			"-0.021": 0.0,
			"-0.02": 0.0,
			"-0.019": 0.0,
			"-0.018": 0.0,
			"-0.017": 0.0,
			"-0.016": 0.590839777371,
			"-0.015": 1.23727035428,
			"-0.014": 0.932959523975,
			"-0.013": 1.31807866894,
			"-0.012": 2.0040395234,
			"-0.011": 2.16736399681,
			"-0.01": 2.37268535625,
			"-0.009": 2.15229065429,
			"-0.008": 2.92356649237,
			"-0.007": 4.6120198684,
			"-0.006": 14.1676584848,
			"-0.005": 22.7521429461,
			"-0.004": 30.313741533,
			"-0.003": 24.8405615499,
			"-0.002": 24.5736300038,
			"-0.001": 25.1047841705,
			"0.0": 26.5824340066,
			"0.001": 23.0783556711,
			"0.002": 20.6179649353,
			"0.003": 19.5982126755,
			"0.004": 25.2282043395,
			"0.005": 18.7388061851,
			"0.006": 5.41971048947,
			"0.007": 3.23262999335,
			"0.008": 3.53621321322,
			"0.009": 4.34432775592,
			"0.01": 3.80027162236,
			"0.011": 5.31614142292,
			"0.012": 6.48511273167,
			"0.013": 3.82744598546,
			"0.014": 0.412740100091,
			"0.015": 0.0,
			"0.016": 0.0,
			"0.017": 0.0,
			"0.018": 0.0,
			"0.019": 0.0,
			"0.02": 0.0,
			"0.021": 0.0,
			"0.022": 0.0,
			"0.023": 0.0,
			"0.024": 0.0,
			"0.025": 0.0
		}
	}
}
