{
	 "smiles": "NNC1=CC(Cl)=CC(Cl)=C1", 
	 "Tm": 388.15, 
	 "num_atms": 16, 
	 "gaussian": { 
		 "optdone": 1, 
		 "sigma_profile": "yes", 
		 "theory": "DFT", 
		 "functional": "B3LYP", 
		 "basiset": "6-31G**", 
		 "properties": { 
			 "R2extent": 3275.7642, 
			 "electric_dipole_moment_norm": 2.35070263964, 
			 "electric_quadrupole_moment_norm": 4.87295339091, 
			 "total_energy": -1262.10851892, 
			 "HOMO_LUMO_gap": 0.19885, 
			 "cosmo_polarized_energy": -9.73, 
			 "cosmo_cavitation_energy": 23.88, 
			 "cosmo_dispersion_energy": -17.99, 
			 "cosmo_repulsion_energy": 1.48, 
			 "cosmo_total_nonelectrostatic_energy": 7.37, 
			 "SMD_solvation_energy": 3.89 
		},
		"coords": [
			{
				"x": 0.650355145,
				"y": -2.7083345794,
				"z": 1.52758209,
				"element": "N" 
			},
			{
				"x": 0.5682212013,
				"y": -2.1548224871,
				"z": 0.2391016445,
				"element": "N" 
			},
			{
				"x": -0.4628904078,
				"y": -1.3044132917,
				"z": -0.1425669065,
				"element": "C" 
			},
			{
				"x": -0.3015732477,
				"y": -0.5032570725,
				"z": -1.2906452188,
				"element": "C" 
			},
			{
				"x": -1.3433204806,
				"y": 0.3162270039,
				"z": -1.6999586295,
				"element": "C" 
			},
			{
				"x": -1.1259363414,
				"y": 1.3123757588,
				"z": -3.1316455209,
				"element": "Cl" 
			},
			{
				"x": -2.5588330189,
				"y": 0.3865528757,
				"z": -1.0146699084,
				"element": "C" 
			},
			{
				"x": -2.689866664,
				"y": -0.4144034509,
				"z": 0.1161357305,
				"element": "C" 
			},
			{
				"x": -4.1995649356,
				"y": -0.3644967681,
				"z": 1.0158757931,
				"element": "Cl" 
			},
			{
				"x": -1.6744460645,
				"y": -1.2543211013,
				"z": 0.5672434373,
				"element": "C" 
			},
			{
				"x": 0.0160474994,
				"y": -3.5003261812,
				"z": 1.5932740333,
				"element": "H" 
			},
			{
				"x": 0.3824387096,
				"y": -2.0244863087,
				"z": 2.2369077855,
				"element": "H" 
			},
			{
				"x": 1.4806727252,
				"y": -1.9322569891,
				"z": -0.1334984857,
				"element": "H" 
			},
			{
				"x": 0.6263112793,
				"y": -0.5278234993,
				"z": -1.8519968958,
				"element": "H" 
			},
			{
				"x": -3.3589367927,
				"y": 1.0338605779,
				"z": -1.3475430596,
				"element": "H" 
			},
			{
				"x": -1.8288786066,
				"y": -1.864674487,
				"z": 1.4473041112,
				"element": "H" 
			}
		],
		 "valence_orbital": [ 
			{
				"type": "occ",
				"energy": -0.31382,
				"method": "rhf"
			},
			{
				"type": "occ",
				"energy": -0.29286,
				"method": "rhf"
			},
			{
				"type": "occ",
				"energy": -0.2821,
				"method": "rhf"
			},
			{
				"type": "occ",
				"energy": -0.25101,
				"method": "rhf"
			},
			{
				"type": "occ",
				"energy": -0.22148,
				"method": "rhf"
			},
			{
				"type": "unocc",
				"energy": -0.02263,
				"method": "rhf"
			},
			{
				"type": "unocc",
				"energy": -0.00756,
				"method": "rhf"
			},
			{
				"type": "unocc",
				"energy": 0.00743,
				"method": "rhf"
			},
			{
				"type": "unocc",
				"energy": 0.04885,
				"method": "rhf"
			},
			{
				"type": "unocc",
				"energy": 0.06723,
				"method": "rhf"
			}
		],
		"cosmo_sigma_profile": { 
			"-0.025": 0.0,
			"-0.024": 0.0,
			"-0.023": 0.0,
			"-0.022": 0.0,
			"-0.021": 0.0,
			"-0.02": 0.0,
			"-0.019": 0.0,
			"-0.018": 0.0,
			"-0.017": 0.0,
			"-0.016": 0.0,
			"-0.015": 0.0,
			"-0.014": 0.171748911697,
			"-0.013": 1.50640496118,
			"-0.012": 1.67900596372,
			"-0.011": 3.84671769074,
			"-0.01": 5.18600242023,
			"-0.009": 5.91737229983,
			"-0.008": 5.89703343613,
			"-0.007": 6.03734619948,
			"-0.006": 5.17538308155,
			"-0.005": 5.40351977063,
			"-0.004": 5.77284897501,
			"-0.003": 6.73248957185,
			"-0.002": 8.6516052429,
			"-0.001": 8.37842696342,
			"0.0": 11.6971502583,
			"0.001": 14.8791621687,
			"0.002": 24.7721841662,
			"0.003": 27.2804268711,
			"0.004": 24.0376255083,
			"0.005": 11.9846531765,
			"0.006": 1.23757517288,
			"0.007": 1.40546234363,
			"0.008": 1.23836295006,
			"0.009": 1.29535370078,
			"0.01": 0.776966420231,
			"0.011": 0.667231186824,
			"0.012": 0.884844847487,
			"0.013": 0.377137714112,
			"0.014": 0.58782059364,
			"0.015": 0.616724264602,
			"0.016": 0.560346932214,
			"0.017": 0.131173857987,
			"0.018": 0.0,
			"0.019": 0.0,
			"0.02": 0.0,
			"0.021": 0.0,
			"0.022": 0.0,
			"0.023": 0.0,
			"0.024": 0.0,
			"0.025": 0.0
		}
	}
}
