{
	 "smiles": "CC1=CC=C(C=C1)N1CSC2=NN=C(N2C1)C1=CC(=CC=C1)[N+]([O-])=O", 
	 "Tm": 573.15, 
	 "num_atms": 40, 
	 "gaussian": { 
		 "optdone": 1, 
		 "sigma_profile": "yes", 
		 "theory": "DFT", 
		 "functional": "B3LYP", 
		 "basiset": "6-31G**", 
		 "properties": { 
			 "R2extent": 11055.4798, 
			 "electric_dipole_moment_norm": 3.80688971997, 
			 "electric_quadrupole_moment_norm": 34.6708976614, 
			 "total_energy": -1479.11174258, 
			 "HOMO_LUMO_gap": 0.12445, 
			 "cosmo_polarized_energy": -23.66, 
			 "cosmo_cavitation_energy": 45.34, 
			 "cosmo_dispersion_energy": -31.56, 
			 "cosmo_repulsion_energy": 2.28, 
			 "cosmo_total_nonelectrostatic_energy": 16.06, 
			 "SMD_solvation_energy": 5.56 
		},
		"coords": [
			{
				"x": -3.7964951402,
				"y": 3.4235301643,
				"z": 0.5077882659,
				"element": "C" 
			},
			{
				"x": -2.3581155979,
				"y": 3.2349773499,
				"z": 0.9270343344,
				"element": "C" 
			},
			{
				"x": -1.4221632972,
				"y": 4.2664526686,
				"z": 0.8216688181,
				"element": "C" 
			},
			{
				"x": -0.0847038323,
				"y": 4.0882961822,
				"z": 1.1856803779,
				"element": "C" 
			},
			{
				"x": 0.3486494209,
				"y": 2.8590320714,
				"z": 1.6925989554,
				"element": "C" 
			},
			{
				"x": -0.5879904791,
				"y": 1.8192882001,
				"z": 1.8218083157,
				"element": "C" 
			},
			{
				"x": -1.9099208531,
				"y": 2.0051598453,
				"z": 1.4329002055,
				"element": "C" 
			},
			{
				"x": 1.6960721123,
				"y": 2.6339000968,
				"z": 2.1273934431,
				"element": "N" 
			},
			{
				"x": 2.5864409681,
				"y": 3.7374740557,
				"z": 2.3152020317,
				"element": "C" 
			},
			{
				"x": 3.4389300272,
				"y": 4.3915873183,
				"z": 0.7443977352,
				"element": "S" 
			},
			{
				"x": 3.4453584495,
				"y": 2.8929328376,
				"z": -0.1832525796,
				"element": "C" 
			},
			{
				"x": 3.968119318,
				"y": 2.7690791652,
				"z": -1.3828875279,
				"element": "N" 
			},
			{
				"x": 3.718113237,
				"y": 1.4794346679,
				"z": -1.7969577421,
				"element": "N" 
			},
			{
				"x": 3.0471960733,
				"y": 0.8624577145,
				"z": -0.8474401511,
				"element": "C" 
			},
			{
				"x": 2.8410454369,
				"y": 1.7248357008,
				"z": 0.2177012655,
				"element": "N" 
			},
			{
				"x": 2.377139033,
				"y": 1.4766740712,
				"z": 1.5977516346,
				"element": "C" 
			},
			{
				"x": 2.5699691064,
				"y": -0.5229718433,
				"z": -0.948310714,
				"element": "C" 
			},
			{
				"x": 1.3178767937,
				"y": -0.9159286882,
				"z": -0.4584502427,
				"element": "C" 
			},
			{
				"x": 0.9202565129,
				"y": -2.2420486166,
				"z": -0.6041744293,
				"element": "C" 
			},
			{
				"x": 1.706105857,
				"y": -3.1931194015,
				"z": -1.2499027679,
				"element": "C" 
			},
			{
				"x": 2.937784185,
				"y": -2.7872511572,
				"z": -1.7640231742,
				"element": "C" 
			},
			{
				"x": 3.3700519496,
				"y": -1.4709554046,
				"z": -1.6126638916,
				"element": "C" 
			},
			{
				"x": -0.3872035251,
				"y": -2.6449201266,
				"z": -0.0585162426,
				"element": "N" 
			},
			{
				"x": -0.7586129919,
				"y": -3.7993928961,
				"z": -0.2588986303,
				"element": "O" 
			},
			{
				"x": -1.0270791968,
				"y": -1.8024101712,
				"z": 0.5733052374,
				"element": "O" 
			},
			{
				"x": -3.9968703063,
				"y": 4.4605014813,
				"z": 0.2248854234,
				"element": "H" 
			},
			{
				"x": -4.0473422633,
				"y": 2.790073415,
				"z": -0.3511636513,
				"element": "H" 
			},
			{
				"x": -4.4871092546,
				"y": 3.1565016122,
				"z": 1.3155361662,
				"element": "H" 
			},
			{
				"x": -1.7319277667,
				"y": 5.2315822797,
				"z": 0.4291371654,
				"element": "H" 
			},
			{
				"x": 0.6141126969,
				"y": 4.9038278324,
				"z": 1.0400700122,
				"element": "H" 
			},
			{
				"x": -0.2957502762,
				"y": 0.8645267598,
				"z": 2.2483242717,
				"element": "H" 
			},
			{
				"x": -2.6073387608,
				"y": 1.1782418726,
				"z": 1.5385097655,
				"element": "H" 
			},
			{
				"x": 3.3860876202,
				"y": 3.442491824,
				"z": 2.9971363496,
				"element": "H" 
			},
			{
				"x": 2.057351752,
				"y": 4.5943917236,
				"z": 2.7309187972,
				"element": "H" 
			},
			{
				"x": 1.7322130201,
				"y": 0.6040651876,
				"z": 1.5977573037,
				"element": "H" 
			},
			{
				"x": 3.2473938841,
				"y": 1.2604255084,
				"z": 2.2269810954,
				"element": "H" 
			},
			{
				"x": 0.6286257315,
				"y": -0.2125211509,
				"z": -0.0090996046,
				"element": "H" 
			},
			{
				"x": 1.3490553194,
				"y": -4.2110419194,
				"z": -1.3410255347,
				"element": "H" 
			},
			{
				"x": 3.5677982111,
				"y": -3.5056836675,
				"z": -2.2784829699,
				"element": "H" 
			},
			{
				"x": 4.3273768251,
				"y": -1.1521965632,
				"z": -2.0102371168,
				"element": "H" 
			}
		],
		 "valence_orbital": [ 
			{
				"type": "occ",
				"energy": -0.28113,
				"method": "rhf"
			},
			{
				"type": "occ",
				"energy": -0.26065,
				"method": "rhf"
			},
			{
				"type": "occ",
				"energy": -0.25897,
				"method": "rhf"
			},
			{
				"type": "occ",
				"energy": -0.22679,
				"method": "rhf"
			},
			{
				"type": "occ",
				"energy": -0.22238,
				"method": "rhf"
			},
			{
				"type": "unocc",
				"energy": -0.09793,
				"method": "rhf"
			},
			{
				"type": "unocc",
				"energy": -0.05247,
				"method": "rhf"
			},
			{
				"type": "unocc",
				"energy": -0.01553,
				"method": "rhf"
			},
			{
				"type": "unocc",
				"energy": -0.01352,
				"method": "rhf"
			},
			{
				"type": "unocc",
				"energy": -0.01126,
				"method": "rhf"
			}
		],
		"cosmo_sigma_profile": { 
			"-0.025": 0.0,
			"-0.024": 0.0,
			"-0.023": 0.0,
			"-0.022": 0.0,
			"-0.021": 0.0,
			"-0.02": 0.0,
			"-0.019": 0.0,
			"-0.018": 0.0,
			"-0.017": 0.0,
			"-0.016": 0.0,
			"-0.015": 0.0,
			"-0.014": 0.0,
			"-0.013": 0.0,
			"-0.012": 0.0,
			"-0.011": 0.533709886085,
			"-0.01": 2.94469299063,
			"-0.009": 7.96070503235,
			"-0.008": 12.7202572993,
			"-0.007": 16.8903700993,
			"-0.006": 17.9356584736,
			"-0.005": 20.1681908715,
			"-0.004": 23.6936711615,
			"-0.003": 24.4846612769,
			"-0.002": 26.6623539203,
			"-0.001": 26.3428661089,
			"0.0": 30.704307566,
			"0.001": 24.9574028957,
			"0.002": 19.5448333723,
			"0.003": 18.6825057938,
			"0.004": 19.1769583414,
			"0.005": 18.3234296035,
			"0.006": 11.7832268306,
			"0.007": 10.2259453793,
			"0.008": 6.49577633966,
			"0.009": 5.76808658365,
			"0.01": 4.63451772964,
			"0.011": 2.31568179826,
			"0.012": 2.4343151991,
			"0.013": 3.63058372678,
			"0.014": 2.90480404355,
			"0.015": 2.03397077202,
			"0.016": 1.76972490765,
			"0.017": 0.147005049934,
			"0.018": 0.0,
			"0.019": 0.0,
			"0.02": 0.0,
			"0.021": 0.0,
			"0.022": 0.0,
			"0.023": 0.0,
			"0.024": 0.0,
			"0.025": 0.0
		}
	}
}
