{
	 "smiles": "C[Si](C)(C)OC1(CC2=CC=CC=C12)C#CC1=CC=CC=C1", 
	 "Tm": 337.15, 
	 "num_atms": 41, 
	 "gaussian": { 
		 "optdone": 1, 
		 "sigma_profile": "yes", 
		 "theory": "DFT", 
		 "functional": "B3LYP", 
		 "basiset": "6-31G**", 
		 "properties": { 
			 "R2extent": 8647.2547, 
			 "electric_dipole_moment_norm": 1.07586434089, 
			 "electric_quadrupole_moment_norm": 7.66695554637, 
			 "total_energy": -1100.77483738, 
			 "HOMO_LUMO_gap": 0.19447, 
			 "cosmo_polarized_energy": -8.59, 
			 "cosmo_cavitation_energy": 46.92, 
			 "cosmo_dispersion_energy": -28.91, 
			 "cosmo_repulsion_energy": 2.38, 
			 "cosmo_total_nonelectrostatic_energy": 20.39, 
			 "SMD_solvation_energy": 8.88 
		},
		"coords": [
			{
				"x": -2.8833703512,
				"y": -2.4341798852,
				"z": 3.0313551553,
				"element": "C" 
			},
			{
				"x": -1.2539876857,
				"y": -2.6221982436,
				"z": 2.1001374025,
				"element": "Si" 
			},
			{
				"x": -0.6024618321,
				"y": -4.3764710444,
				"z": 2.2872010685,
				"element": "C" 
			},
			{
				"x": 0.0088408435,
				"y": -1.375515031,
				"z": 2.7402505845,
				"element": "C" 
			},
			{
				"x": -1.5202313968,
				"y": -2.4564682108,
				"z": 0.4425397556,
				"element": "O" 
			},
			{
				"x": -1.5633751887,
				"y": -1.3028066292,
				"z": -0.372502572,
				"element": "C" 
			},
			{
				"x": -2.4421816758,
				"y": -1.5663335672,
				"z": -1.6795491201,
				"element": "C" 
			},
			{
				"x": -3.3553445937,
				"y": -0.4609627163,
				"z": -1.180439493,
				"element": "C" 
			},
			{
				"x": -4.4937766478,
				"y": 0.2729711563,
				"z": -1.4854343675,
				"element": "C" 
			},
			{
				"x": -4.8575893552,
				"y": 1.2606130938,
				"z": -0.5567973979,
				"element": "C" 
			},
			{
				"x": -4.1039701424,
				"y": 1.4995172128,
				"z": 0.6025237928,
				"element": "C" 
			},
			{
				"x": -2.9460658738,
				"y": 0.7612910856,
				"z": 0.8918948167,
				"element": "C" 
			},
			{
				"x": -2.6109897828,
				"y": -0.2226381511,
				"z": -0.0290288229,
				"element": "C" 
			},
			{
				"x": -0.2202951008,
				"y": -0.7830641904,
				"z": -0.6465409704,
				"element": "C" 
			},
			{
				"x": 0.8868259986,
				"y": -0.3499112797,
				"z": -0.8916168463,
				"element": "C" 
			},
			{
				"x": 2.1909206338,
				"y": 0.1605032196,
				"z": -1.1754532888,
				"element": "C" 
			},
			{
				"x": 3.2927261262,
				"y": -0.7106264402,
				"z": -1.2833634439,
				"element": "C" 
			},
			{
				"x": 4.5624024989,
				"y": -0.2089093213,
				"z": -1.5586241972,
				"element": "C" 
			},
			{
				"x": 4.7555592285,
				"y": 1.1636724641,
				"z": -1.7331453902,
				"element": "C" 
			},
			{
				"x": 3.6688953059,
				"y": 2.0356085951,
				"z": -1.6297742835,
				"element": "C" 
			},
			{
				"x": 2.3961707231,
				"y": 1.5428963589,
				"z": -1.3523912784,
				"element": "C" 
			},
			{
				"x": -3.6184283942,
				"y": -3.1678677774,
				"z": 2.6834801064,
				"element": "H" 
			},
			{
				"x": -3.3192386719,
				"y": -1.4398411642,
				"z": 2.8935512588,
				"element": "H" 
			},
			{
				"x": -2.7381498112,
				"y": -2.5916559545,
				"z": 4.1067402225,
				"element": "H" 
			},
			{
				"x": -1.3050722448,
				"y": -5.1024805629,
				"z": 1.8650373517,
				"element": "H" 
			},
			{
				"x": 0.3543207133,
				"y": -4.4987860245,
				"z": 1.7692917891,
				"element": "H" 
			},
			{
				"x": -0.4503127536,
				"y": -4.6328027419,
				"z": 3.3418804439,
				"element": "H" 
			},
			{
				"x": 0.9663717894,
				"y": -1.4745562251,
				"z": 2.2204417088,
				"element": "H" 
			},
			{
				"x": 0.1850760995,
				"y": -1.5387177945,
				"z": 3.810231719,
				"element": "H" 
			},
			{
				"x": -0.3233676805,
				"y": -0.339609928,
				"z": 2.6169161661,
				"element": "H" 
			},
			{
				"x": -1.9248393778,
				"y": -1.3843175576,
				"z": -2.6261220753,
				"element": "H" 
			},
			{
				"x": -2.8613140509,
				"y": -2.576243151,
				"z": -1.6739118083,
				"element": "H" 
			},
			{
				"x": -5.0831008612,
				"y": 0.1075954419,
				"z": -2.3830305905,
				"element": "H" 
			},
			{
				"x": -5.744493329,
				"y": 1.8617563585,
				"z": -0.7383543359,
				"element": "H" 
			},
			{
				"x": -4.4240441239,
				"y": 2.280733192,
				"z": 1.286514011,
				"element": "H" 
			},
			{
				"x": -2.3600348117,
				"y": 0.9695407486,
				"z": 1.7824063342,
				"element": "H" 
			},
			{
				"x": 3.1381590033,
				"y": -1.7765135979,
				"z": -1.1497051775,
				"element": "H" 
			},
			{
				"x": 5.4037478511,
				"y": -0.8913203274,
				"z": -1.6385963518,
				"element": "H" 
			},
			{
				"x": 5.7468955605,
				"y": 1.5514662221,
				"z": -1.9487696557,
				"element": "H" 
			},
			{
				"x": 3.8135432869,
				"y": 3.1036770809,
				"z": -1.764875519,
				"element": "H" 
			},
			{
				"x": 1.5498800752,
				"y": 2.2173552869,
				"z": -1.2701667012,
				"element": "H" 
			}
		],
		 "valence_orbital": [ 
			{
				"type": "occ",
				"energy": -0.26038,
				"method": "rhf"
			},
			{
				"type": "occ",
				"energy": -0.254,
				"method": "rhf"
			},
			{
				"type": "occ",
				"energy": -0.24995,
				"method": "rhf"
			},
			{
				"type": "occ",
				"energy": -0.23872,
				"method": "rhf"
			},
			{
				"type": "occ",
				"energy": -0.22278,
				"method": "rhf"
			},
			{
				"type": "unocc",
				"energy": -0.02831,
				"method": "rhf"
			},
			{
				"type": "unocc",
				"energy": -0.01325,
				"method": "rhf"
			},
			{
				"type": "unocc",
				"energy": -0.00296,
				"method": "rhf"
			},
			{
				"type": "unocc",
				"energy": -0.00025,
				"method": "rhf"
			},
			{
				"type": "unocc",
				"energy": 0.05395,
				"method": "rhf"
			}
		],
		"cosmo_sigma_profile": { 
			"-0.025": 0.0,
			"-0.024": 0.0,
			"-0.023": 0.0,
			"-0.022": 0.0,
			"-0.021": 0.0,
			"-0.02": 0.0,
			"-0.019": 0.0,
			"-0.018": 0.0,
			"-0.017": 0.0,
			"-0.016": 0.0,
			"-0.015": 0.0,
			"-0.014": 0.0,
			"-0.013": 0.0,
			"-0.012": 0.0,
			"-0.011": 0.0,
			"-0.01": 0.0,
			"-0.009": 0.0,
			"-0.008": 0.0,
			"-0.007": 0.585921727413,
			"-0.006": 14.2593950434,
			"-0.005": 22.4332807394,
			"-0.004": 31.926191197,
			"-0.003": 34.548368547,
			"-0.002": 34.1005351433,
			"-0.001": 34.4862722746,
			"0.0": 30.18723021,
			"0.001": 37.5759838174,
			"0.002": 31.0985170729,
			"0.003": 29.4662445084,
			"0.004": 29.1897372312,
			"0.005": 25.1640399841,
			"0.006": 5.40932963613,
			"0.007": 2.90048195086,
			"0.008": 1.46892312383,
			"0.009": 1.3495301933,
			"0.01": 0.745351239491,
			"0.011": 1.35520341229,
			"0.012": 0.468089596081,
			"0.013": 0.0,
			"0.014": 0.0,
			"0.015": 0.0,
			"0.016": 0.0,
			"0.017": 0.0,
			"0.018": 0.0,
			"0.019": 0.0,
			"0.02": 0.0,
			"0.021": 0.0,
			"0.022": 0.0,
			"0.023": 0.0,
			"0.024": 0.0,
			"0.025": 0.0
		}
	}
}
