{
	 "smiles": "CCC1=CC=C(CCOC2=CC=C(CC3SC(=O)NC3=O)C=C2)N=C1", 
	 "Tm": 456.65, 
	 "num_atms": 45, 
	 "gaussian": { 
		 "optdone": 1, 
		 "sigma_profile": "yes", 
		 "theory": "DFT", 
		 "functional": "B3LYP", 
		 "basiset": "6-31G**", 
		 "properties": { 
			 "R2extent": 9603.9318, 
			 "electric_dipole_moment_norm": 0.725879356367, 
			 "electric_quadrupole_moment_norm": 10.8055012595, 
			 "total_energy": -1469.47582955, 
			 "HOMO_LUMO_gap": 0.17411, 
			 "cosmo_polarized_energy": -17.61, 
			 "cosmo_cavitation_energy": 49.54, 
			 "cosmo_dispersion_energy": -31.51, 
			 "cosmo_repulsion_energy": 2.32, 
			 "cosmo_total_nonelectrostatic_energy": 20.35, 
			 "SMD_solvation_energy": 7.74 
		},
		"coords": [
			{
				"x": -1.4358778716,
				"y": 1.9054806351,
				"z": -2.9441717318,
				"element": "C" 
			},
			{
				"x": -1.7507167806,
				"y": 0.540602634,
				"z": -3.581955652,
				"element": "C" 
			},
			{
				"x": -1.1720760994,
				"y": -0.628250502,
				"z": -2.8167095346,
				"element": "C" 
			},
			{
				"x": 0.1767307903,
				"y": -0.9894090831,
				"z": -2.9094880025,
				"element": "C" 
			},
			{
				"x": 0.6492470537,
				"y": -2.0837375411,
				"z": -2.1885893725,
				"element": "C" 
			},
			{
				"x": -0.2345825693,
				"y": -2.7981544893,
				"z": -1.3722934543,
				"element": "C" 
			},
			{
				"x": 0.1981036108,
				"y": -4.011419334,
				"z": -0.5784081468,
				"element": "C" 
			},
			{
				"x": 0.2329418417,
				"y": -3.8159794536,
				"z": 0.9438393192,
				"element": "C" 
			},
			{
				"x": 1.39352004,
				"y": -3.1003030639,
				"z": 1.3749319504,
				"element": "O" 
			},
			{
				"x": 1.3665649446,
				"y": -1.7589430326,
				"z": 1.6238446876,
				"element": "C" 
			},
			{
				"x": 2.570227309,
				"y": -1.2245942993,
				"z": 2.110065817,
				"element": "C" 
			},
			{
				"x": 2.6740694413,
				"y": 0.1308198479,
				"z": 2.394552962,
				"element": "C" 
			},
			{
				"x": 1.5836072472,
				"y": 0.9972632307,
				"z": 2.2088323395,
				"element": "C" 
			},
			{
				"x": 1.7177742654,
				"y": 2.4788225367,
				"z": 2.4819232682,
				"element": "C" 
			},
			{
				"x": 2.2232369984,
				"y": 3.3309171523,
				"z": 1.2852475279,
				"element": "C" 
			},
			{
				"x": 1.0985014161,
				"y": 3.34046411,
				"z": -0.1759705293,
				"element": "S" 
			},
			{
				"x": 2.3307925081,
				"y": 2.5911749904,
				"z": -1.2438927063,
				"element": "C" 
			},
			{
				"x": 2.1670044349,
				"y": 2.2722556916,
				"z": -2.3979466057,
				"element": "O" 
			},
			{
				"x": 3.5233237854,
				"y": 2.4529710979,
				"z": -0.5396871762,
				"element": "N" 
			},
			{
				"x": 3.5849319753,
				"y": 2.8366712681,
				"z": 0.7882358319,
				"element": "C" 
			},
			{
				"x": 4.581743279,
				"y": 2.7724809924,
				"z": 1.4764276385,
				"element": "O" 
			},
			{
				"x": 0.3857480631,
				"y": 0.4451095851,
				"z": 1.7428376976,
				"element": "C" 
			},
			{
				"x": 0.2643685035,
				"y": -0.9142114809,
				"z": 1.4460120674,
				"element": "C" 
			},
			{
				"x": -1.5274735593,
				"y": -2.4502001175,
				"z": -1.254649008,
				"element": "N" 
			},
			{
				"x": -1.965567012,
				"y": -1.4029064736,
				"z": -1.9605985786,
				"element": "C" 
			},
			{
				"x": -0.3565005065,
				"y": 2.0772399288,
				"z": -2.8951177614,
				"element": "H" 
			},
			{
				"x": -1.8843508422,
				"y": 2.7166079296,
				"z": -3.5275735572,
				"element": "H" 
			},
			{
				"x": -1.8331599637,
				"y": 1.9608894239,
				"z": -1.9252407933,
				"element": "H" 
			},
			{
				"x": -1.36461563,
				"y": 0.5270467169,
				"z": -4.6087363699,
				"element": "H" 
			},
			{
				"x": -2.8373751636,
				"y": 0.4149426054,
				"z": -3.6589232993,
				"element": "H" 
			},
			{
				"x": 0.8520573309,
				"y": -0.4167952936,
				"z": -3.540469766,
				"element": "H" 
			},
			{
				"x": 1.6905475157,
				"y": -2.3841479482,
				"z": -2.2565018508,
				"element": "H" 
			},
			{
				"x": 1.1860507806,
				"y": -4.3537436602,
				"z": -0.9033555077,
				"element": "H" 
			},
			{
				"x": -0.5151909335,
				"y": -4.819732428,
				"z": -0.780353649,
				"element": "H" 
			},
			{
				"x": 0.3162890848,
				"y": -4.7945843701,
				"z": 1.4268622378,
				"element": "H" 
			},
			{
				"x": -0.6889056765,
				"y": -3.3440651614,
				"z": 1.2966392214,
				"element": "H" 
			},
			{
				"x": 3.4097668172,
				"y": -1.8959087512,
				"z": 2.2588348736,
				"element": "H" 
			},
			{
				"x": 3.6161649281,
				"y": 0.5260834433,
				"z": 2.7642584661,
				"element": "H" 
			},
			{
				"x": 0.7616086502,
				"y": 2.8995822173,
				"z": 2.8102179722,
				"element": "H" 
			},
			{
				"x": 2.4370623528,
				"y": 2.6496644317,
				"z": 3.2906809947,
				"element": "H" 
			},
			{
				"x": 2.3531353853,
				"y": 4.3650296999,
				"z": 1.6185146324,
				"element": "H" 
			},
			{
				"x": 4.3317533316,
				"y": 2.0546261585,
				"z": -1.0021850688,
				"element": "H" 
			},
			{
				"x": -0.4781414467,
				"y": 1.0874317662,
				"z": 1.5950302288,
				"element": "H" 
			},
			{
				"x": -0.6737493703,
				"y": -1.2884896081,
				"z": 1.0552901858,
				"element": "H" 
			},
			{
				"x": -3.0235902597,
				"y": -1.1638020023,
				"z": -1.8477617981,
				"element": "H" 
			}
		],
		 "valence_orbital": [ 
			{
				"type": "occ",
				"energy": -0.26819,
				"method": "rhf"
			},
			{
				"type": "occ",
				"energy": -0.24982,
				"method": "rhf"
			},
			{
				"type": "occ",
				"energy": -0.24846,
				"method": "rhf"
			},
			{
				"type": "occ",
				"energy": -0.24373,
				"method": "rhf"
			},
			{
				"type": "occ",
				"energy": -0.21169,
				"method": "rhf"
			},
			{
				"type": "unocc",
				"energy": -0.03758,
				"method": "rhf"
			},
			{
				"type": "unocc",
				"energy": -0.02168,
				"method": "rhf"
			},
			{
				"type": "unocc",
				"energy": -0.00736,
				"method": "rhf"
			},
			{
				"type": "unocc",
				"energy": -0.0046,
				"method": "rhf"
			},
			{
				"type": "unocc",
				"energy": 0.00026,
				"method": "rhf"
			}
		],
		"cosmo_sigma_profile": { 
			"-0.025": 0.0,
			"-0.024": 0.0,
			"-0.023": 0.0,
			"-0.022": 0.0,
			"-0.021": 0.0,
			"-0.02": 0.0,
			"-0.019": 0.0,
			"-0.018": 0.000812838931054,
			"-0.017": 1.34911150813,
			"-0.016": 0.960818460261,
			"-0.015": 1.13585965055,
			"-0.014": 0.946887847995,
			"-0.013": 0.707834082702,
			"-0.012": 1.0925863544,
			"-0.011": 0.592391809554,
			"-0.01": 0.93564540424,
			"-0.009": 3.20142609205,
			"-0.008": 4.5594681627,
			"-0.007": 5.65810158619,
			"-0.006": 11.9746553231,
			"-0.005": 28.3168031753,
			"-0.004": 32.450418623,
			"-0.003": 34.4822735123,
			"-0.002": 30.1843310914,
			"-0.001": 29.8554470339,
			"0.0": 29.0340105965,
			"0.001": 31.7635299673,
			"0.002": 31.9039525311,
			"0.003": 29.4683472141,
			"0.004": 23.1474224387,
			"0.005": 18.4929612069,
			"0.006": 8.01624880737,
			"0.007": 4.74780384994,
			"0.008": 4.98752909191,
			"0.009": 5.61205737112,
			"0.01": 6.72625962883,
			"0.011": 7.26582443227,
			"0.012": 2.18093121053,
			"0.013": 0.909688432838,
			"0.014": 0.556444636816,
			"0.015": 0.720433484509,
			"0.016": 0.374823273633,
			"0.017": 0.0842526740551,
			"0.018": 0.0,
			"0.019": 0.0,
			"0.02": 0.0,
			"0.021": 0.0,
			"0.022": 0.0,
			"0.023": 0.0,
			"0.024": 0.0,
			"0.025": 0.0
		}
	}
}
