{
	 "smiles": "OCC1(CC1)C1=CC=C(Cl)C=C1", 
	 "Tm": 325.15, 
	 "num_atms": 23, 
	 "gaussian": { 
		 "optdone": 1, 
		 "sigma_profile": "yes", 
		 "theory": "DFT", 
		 "functional": "B3LYP", 
		 "basiset": "6-31G**", 
		 "properties": { 
			 "R2extent": 3421.6701, 
			 "electric_dipole_moment_norm": 3.25908183543, 
			 "electric_quadrupole_moment_norm": 9.41999503662, 
			 "total_energy": -923.073574111, 
			 "HOMO_LUMO_gap": 0.22577, 
			 "cosmo_polarized_energy": -9.1, 
			 "cosmo_cavitation_energy": 27.83, 
			 "cosmo_dispersion_energy": -19.96, 
			 "cosmo_repulsion_energy": 1.6, 
			 "cosmo_total_nonelectrostatic_energy": 9.47, 
			 "SMD_solvation_energy": 4.26 
		},
		"coords": [
			{
				"x": 2.2417004349,
				"y": -1.4527817808,
				"z": 2.1714878289,
				"element": "O" 
			},
			{
				"x": 0.8216364845,
				"y": -1.49973037,
				"z": 2.1440271459,
				"element": "C" 
			},
			{
				"x": 0.2282656616,
				"y": -1.0949058314,
				"z": 0.7968472085,
				"element": "C" 
			},
			{
				"x": 0.2746382882,
				"y": -2.1524710847,
				"z": -0.2936853951,
				"element": "C" 
			},
			{
				"x": -1.0354665602,
				"y": -1.8029720214,
				"z": 0.3666410635,
				"element": "C" 
			},
			{
				"x": 0.4246274459,
				"y": 0.3502180879,
				"z": 0.4206669799,
				"element": "C" 
			},
			{
				"x": 1.6893518221,
				"y": 0.8245036182,
				"z": 0.0413986409,
				"element": "C" 
			},
			{
				"x": 1.8944308789,
				"y": 2.1663181554,
				"z": -0.2748818301,
				"element": "C" 
			},
			{
				"x": 0.8189513908,
				"y": 3.051721707,
				"z": -0.2101237408,
				"element": "C" 
			},
			{
				"x": 1.0654716579,
				"y": 4.7462186304,
				"z": -0.6167168829,
				"element": "Cl" 
			},
			{
				"x": -0.4475115791,
				"y": 2.6144207144,
				"z": 0.1708977973,
				"element": "C" 
			},
			{
				"x": -0.6320713592,
				"y": 1.2674061922,
				"z": 0.4858686713,
				"element": "C" 
			},
			{
				"x": 2.5605784261,
				"y": -2.0794629315,
				"z": 1.5081626811,
				"element": "H" 
			},
			{
				"x": 0.4532041241,
				"y": -2.5039449016,
				"z": 2.4095659911,
				"element": "H" 
			},
			{
				"x": 0.4888335618,
				"y": -0.808820043,
				"z": 2.9249700951,
				"element": "H" 
			},
			{
				"x": 0.7222229945,
				"y": -3.116421329,
				"z": -0.0611482553,
				"element": "H" 
			},
			{
				"x": 0.4334188168,
				"y": -1.8220972678,
				"z": -1.3153388686,
				"element": "H" 
			},
			{
				"x": -1.7594870953,
				"y": -1.2449557309,
				"z": -0.2182856702,
				"element": "H" 
			},
			{
				"x": -1.4767645502,
				"y": -2.5252840059,
				"z": 1.0477033595,
				"element": "H" 
			},
			{
				"x": 2.5268698128,
				"y": 0.1366298597,
				"z": 0.0066742764,
				"element": "H" 
			},
			{
				"x": 2.875406562,
				"y": 2.5231899325,
				"z": -0.5688905212,
				"element": "H" 
			},
			{
				"x": -1.2738473311,
				"y": 3.314976123,
				"z": 0.2211406153,
				"element": "H" 
			},
			{
				"x": -1.6180598879,
				"y": 0.9273442777,
				"z": 0.7891188098,
				"element": "H" 
			}
		],
		 "valence_orbital": [ 
			{
				"type": "occ",
				"energy": -0.30247,
				"method": "rhf"
			},
			{
				"type": "occ",
				"energy": -0.29672,
				"method": "rhf"
			},
			{
				"type": "occ",
				"energy": -0.27282,
				"method": "rhf"
			},
			{
				"type": "occ",
				"energy": -0.25827,
				"method": "rhf"
			},
			{
				"type": "occ",
				"energy": -0.23678,
				"method": "rhf"
			},
			{
				"type": "unocc",
				"energy": -0.01101,
				"method": "rhf"
			},
			{
				"type": "unocc",
				"energy": -0.0101,
				"method": "rhf"
			},
			{
				"type": "unocc",
				"energy": 0.03359,
				"method": "rhf"
			},
			{
				"type": "unocc",
				"energy": 0.06605,
				"method": "rhf"
			},
			{
				"type": "unocc",
				"energy": 0.09696,
				"method": "rhf"
			}
		],
		"cosmo_sigma_profile": { 
			"-0.025": 0.0,
			"-0.024": 0.0,
			"-0.023": 0.0,
			"-0.022": 0.0,
			"-0.021": 0.0,
			"-0.02": 0.0,
			"-0.019": 0.0,
			"-0.018": 0.0,
			"-0.017": 0.0,
			"-0.016": 0.0,
			"-0.015": 0.129618106347,
			"-0.014": 0.693169097457,
			"-0.013": 1.01461783772,
			"-0.012": 0.531062394863,
			"-0.011": 0.922486840579,
			"-0.01": 1.14754004975,
			"-0.009": 1.68776972046,
			"-0.008": 1.10758050563,
			"-0.007": 2.90166582672,
			"-0.006": 7.49131948034,
			"-0.005": 15.5469797203,
			"-0.004": 20.6347438737,
			"-0.003": 14.9752427022,
			"-0.002": 18.0314782268,
			"-0.001": 18.7023893998,
			"0.0": 17.1883134935,
			"0.001": 15.8204309158,
			"0.002": 17.7564867883,
			"0.003": 15.779140014,
			"0.004": 20.7076722192,
			"0.005": 15.4605640837,
			"0.006": 2.20375596934,
			"0.007": 1.43019620911,
			"0.008": 1.22037763832,
			"0.009": 1.27533503811,
			"0.01": 1.55463747279,
			"0.011": 1.14073204462,
			"0.012": 1.17168075436,
			"0.013": 1.71282779213,
			"0.014": 1.75290481538,
			"0.015": 0.54508835464,
			"0.016": 0.0,
			"0.017": 0.0,
			"0.018": 0.0,
			"0.019": 0.0,
			"0.02": 0.0,
			"0.021": 0.0,
			"0.022": 0.0,
			"0.023": 0.0,
			"0.024": 0.0,
			"0.025": 0.0
		}
	}
}
