{
	 "smiles": "NN1C(S)=NN=C1C1=CC=C(Br)C=C1", 
	 "Tm": 476.15, 
	 "num_atms": 21, 
	 "gaussian": { 
		 "optdone": 1, 
		 "sigma_profile": "yes", 
		 "theory": "DFT", 
		 "functional": "B3LYP", 
		 "basiset": "6-31G**", 
		 "properties": { 
			 "R2extent": 7590.9575, 
			 "electric_dipole_moment_norm": 4.84645918171, 
			 "electric_quadrupole_moment_norm": 13.9306100595, 
			 "total_energy": -3497.60742672, 
			 "HOMO_LUMO_gap": 0.17726, 
			 "cosmo_polarized_energy": -17.9, 
			 "cosmo_cavitation_energy": 29.88, 
			 "cosmo_dispersion_energy": -23.11, 
			 "cosmo_repulsion_energy": 1.76, 
			 "cosmo_total_nonelectrostatic_energy": 8.54, 
			 "SMD_solvation_energy": 2.2 
		},
		"coords": [
			{
				"x": 2.5039115543,
				"y": 0.8692981255,
				"z": -0.0559948756,
				"element": "N" 
			},
			{
				"x": 1.5163938748,
				"y": 0.1913092667,
				"z": 0.667541055,
				"element": "N" 
			},
			{
				"x": 1.6992277999,
				"y": -0.5993483738,
				"z": 1.777547715,
				"element": "C" 
			},
			{
				"x": 3.3078260158,
				"y": -0.8613616619,
				"z": 2.4547552995,
				"element": "S" 
			},
			{
				"x": 0.5590633328,
				"y": -1.0796836643,
				"z": 2.2020515379,
				"element": "N" 
			},
			{
				"x": -0.4154362403,
				"y": -0.5967488532,
				"z": 1.3517050422,
				"element": "N" 
			},
			{
				"x": 0.1480198682,
				"y": 0.1626227105,
				"z": 0.4331420658,
				"element": "C" 
			},
			{
				"x": -0.6046301114,
				"y": 0.8368011698,
				"z": -0.6329557174,
				"element": "C" 
			},
			{
				"x": -1.9992848081,
				"y": 0.643787909,
				"z": -0.6542233638,
				"element": "C" 
			},
			{
				"x": -2.7888780265,
				"y": 1.2441999863,
				"z": -1.627315187,
				"element": "C" 
			},
			{
				"x": -2.1859925957,
				"y": 2.0491236597,
				"z": -2.5951930829,
				"element": "C" 
			},
			{
				"x": -3.2649184708,
				"y": 2.8778019468,
				"z": -3.9362390837,
				"element": "Br" 
			},
			{
				"x": -0.8093388274,
				"y": 2.2557961652,
				"z": -2.5960955709,
				"element": "C" 
			},
			{
				"x": -0.0211904343,
				"y": 1.6508886631,
				"z": -1.617155661,
				"element": "C" 
			},
			{
				"x": 3.176276288,
				"y": 0.1967414718,
				"z": -0.4188924013,
				"element": "H" 
			},
			{
				"x": 2.981594253,
				"y": 1.5243604182,
				"z": 0.5594906322,
				"element": "H" 
			},
			{
				"x": 2.8421774928,
				"y": -1.653312692,
				"z": 3.4383959927,
				"element": "H" 
			},
			{
				"x": -2.4502454276,
				"y": 0.0154059058,
				"z": 0.10545414,
				"element": "H" 
			},
			{
				"x": -3.8617955894,
				"y": 1.090003031,
				"z": -1.6359743707,
				"element": "H" 
			},
			{
				"x": -0.3528848611,
				"y": 2.8831717673,
				"z": -3.3532185868,
				"element": "H" 
			},
			{
				"x": 1.0489049127,
				"y": 1.8120430485,
				"z": -1.6186255794,
				"element": "H" 
			}
		],
		 "valence_orbital": [ 
			{
				"type": "occ",
				"energy": -0.2876,
				"method": "rhf"
			},
			{
				"type": "occ",
				"energy": -0.26538,
				"method": "rhf"
			},
			{
				"type": "occ",
				"energy": -0.2632,
				"method": "rhf"
			},
			{
				"type": "occ",
				"energy": -0.25788,
				"method": "rhf"
			},
			{
				"type": "occ",
				"energy": -0.2214,
				"method": "rhf"
			},
			{
				"type": "unocc",
				"energy": -0.04414,
				"method": "rhf"
			},
			{
				"type": "unocc",
				"energy": -0.01456,
				"method": "rhf"
			},
			{
				"type": "unocc",
				"energy": -0.01006,
				"method": "rhf"
			},
			{
				"type": "unocc",
				"energy": 0.00803,
				"method": "rhf"
			},
			{
				"type": "unocc",
				"energy": 0.02057,
				"method": "rhf"
			}
		],
		"cosmo_sigma_profile": { 
			"-0.025": 0.0,
			"-0.024": 0.0,
			"-0.023": 0.0,
			"-0.022": 0.0,
			"-0.021": 0.0,
			"-0.02": 0.0,
			"-0.019": 0.0,
			"-0.018": 0.0,
			"-0.017": 0.0,
			"-0.016": 0.0,
			"-0.015": 0.0122123907212,
			"-0.014": 2.54588552488,
			"-0.013": 4.34847060846,
			"-0.012": 4.32008834005,
			"-0.011": 4.96327460362,
			"-0.01": 3.59931902211,
			"-0.009": 4.03661571549,
			"-0.008": 3.54661769095,
			"-0.007": 6.41619294114,
			"-0.006": 6.95302530137,
			"-0.005": 10.0810213994,
			"-0.004": 9.88268768897,
			"-0.003": 12.0922360199,
			"-0.002": 12.412850824,
			"-0.001": 14.8286545982,
			"0.0": 16.5316577958,
			"0.001": 23.1054924691,
			"0.002": 27.5046561184,
			"0.003": 26.5746532384,
			"0.004": 17.0976086751,
			"0.005": 8.4872252974,
			"0.006": 4.20496458111,
			"0.007": 2.40733900078,
			"0.008": 2.10062549778,
			"0.009": 1.78767368723,
			"0.01": 2.20519308551,
			"0.011": 2.33176527036,
			"0.012": 2.56690719654,
			"0.013": 3.65532010938,
			"0.014": 2.44201083387,
			"0.015": 2.22691833391,
			"0.016": 0.735965842484,
			"0.017": 0.0203609165705,
			"0.018": 0.0,
			"0.019": 0.0,
			"0.02": 0.0,
			"0.021": 0.0,
			"0.022": 0.0,
			"0.023": 0.0,
			"0.024": 0.0,
			"0.025": 0.0
		}
	}
}
