{
	 "smiles": "COC(=O)C1=CN=CN1", 
	 "Tm": 428.15, 
	 "num_atms": 15, 
	 "gaussian": { 
		 "optdone": 1, 
		 "sigma_profile": "yes", 
		 "theory": "DFT", 
		 "functional": "B3LYP", 
		 "basiset": "6-31G**", 
		 "properties": { 
			 "R2extent": 1622.6424, 
			 "electric_dipole_moment_norm": 1.6487800672, 
			 "electric_quadrupole_moment_norm": 13.6884481527, 
			 "total_energy": -454.102158366, 
			 "HOMO_LUMO_gap": 0.2082, 
			 "cosmo_polarized_energy": -12.26, 
			 "cosmo_cavitation_energy": 19.97, 
			 "cosmo_dispersion_energy": -14.87, 
			 "cosmo_repulsion_energy": 1.23, 
			 "cosmo_total_nonelectrostatic_energy": 6.33, 
			 "SMD_solvation_energy": 3.9 
		},
		"coords": [
			{
				"x": -1.8024296693,
				"y": 0.1557448499,
				"z": -2.507101577,
				"element": "C" 
			},
			{
				"x": -0.7649020432,
				"y": 0.6043201195,
				"z": -1.6202553198,
				"element": "O" 
			},
			{
				"x": 0.2505837321,
				"y": -0.2644597009,
				"z": -1.4406850039,
				"element": "C" 
			},
			{
				"x": 0.3210848088,
				"y": -1.360256188,
				"z": -1.9734114747,
				"element": "O" 
			},
			{
				"x": 1.2665374499,
				"y": 0.25379405,
				"z": -0.5306713712,
				"element": "C" 
			},
			{
				"x": 1.4417552733,
				"y": 1.4192635491,
				"z": 0.1929016996,
				"element": "C" 
			},
			{
				"x": 2.6098611921,
				"y": 1.3758568214,
				"z": 0.9025751294,
				"element": "N" 
			},
			{
				"x": 3.1452622489,
				"y": 0.1981942227,
				"z": 0.6183994535,
				"element": "C" 
			},
			{
				"x": 2.3761091368,
				"y": -0.5158514511,
				"z": -0.2400909838,
				"element": "N" 
			},
			{
				"x": -2.2629834699,
				"y": -0.7605256477,
				"z": -2.1292930455,
				"element": "H" 
			},
			{
				"x": -2.5308029632,
				"y": 0.9656663285,
				"z": -2.5378020804,
				"element": "H" 
			},
			{
				"x": -1.4001348943,
				"y": -0.0367198093,
				"z": -3.5048542221,
				"element": "H" 
			},
			{
				"x": 0.7820533315,
				"y": 2.2744187469,
				"z": 0.22944856,
				"element": "H" 
			},
			{
				"x": 4.0818791095,
				"y": -0.175333496,
				"z": 1.0091591143,
				"element": "H" 
			},
			{
				"x": 2.5346267571,
				"y": -1.436412395,
				"z": -0.6254188783,
				"element": "H" 
			}
		],
		 "valence_orbital": [ 
			{
				"type": "occ",
				"energy": -0.30755,
				"method": "rhf"
			},
			{
				"type": "occ",
				"energy": -0.29651,
				"method": "rhf"
			},
			{
				"type": "occ",
				"energy": -0.29238,
				"method": "rhf"
			},
			{
				"type": "occ",
				"energy": -0.26823,
				"method": "rhf"
			},
			{
				"type": "occ",
				"energy": -0.24366,
				"method": "rhf"
			},
			{
				"type": "unocc",
				"energy": -0.03546,
				"method": "rhf"
			},
			{
				"type": "unocc",
				"energy": 0.03938,
				"method": "rhf"
			},
			{
				"type": "unocc",
				"energy": 0.08341,
				"method": "rhf"
			},
			{
				"type": "unocc",
				"energy": 0.10979,
				"method": "rhf"
			},
			{
				"type": "unocc",
				"energy": 0.11196,
				"method": "rhf"
			}
		],
		"cosmo_sigma_profile": { 
			"-0.025": 0.0,
			"-0.024": 0.0,
			"-0.023": 0.0,
			"-0.022": 0.0,
			"-0.021": 0.0,
			"-0.02": 0.0,
			"-0.019": 0.0,
			"-0.018": 0.0,
			"-0.017": 0.481063591112,
			"-0.016": 0.967260470151,
			"-0.015": 1.09686381685,
			"-0.014": 1.26345222211,
			"-0.013": 0.560065170734,
			"-0.012": 0.718820688109,
			"-0.011": 1.22680432073,
			"-0.01": 2.82543517985,
			"-0.009": 2.85178953857,
			"-0.008": 3.10669760374,
			"-0.007": 4.87287085016,
			"-0.006": 8.44623105579,
			"-0.005": 9.3764035025,
			"-0.004": 11.615593552,
			"-0.003": 12.7997056359,
			"-0.002": 9.8320215776,
			"-0.001": 9.50076567857,
			"0.0": 9.9382256172,
			"0.001": 10.6485250953,
			"0.002": 8.99137371518,
			"0.003": 7.12668669984,
			"0.004": 5.35765161773,
			"0.005": 4.71379483137,
			"0.006": 4.08133685729,
			"0.007": 4.48565941288,
			"0.008": 2.3225582438,
			"0.009": 3.34879174756,
			"0.01": 2.68687893494,
			"0.011": 4.66983936193,
			"0.012": 4.15554165694,
			"0.013": 1.6754895467,
			"0.014": 1.08277665879,
			"0.015": 0.986451912424,
			"0.016": 0.906363348885,
			"0.017": 0.985914601052,
			"0.018": 0.0345467426496,
			"0.019": 0.0,
			"0.02": 0.0,
			"0.021": 0.0,
			"0.022": 0.0,
			"0.023": 0.0,
			"0.024": 0.0,
			"0.025": 0.0
		}
	}
}
