{
	 "smiles": "OC(=O)C1CCN(CC1)S(=O)(=O)C1=CC=CC=C1", 
	 "Tm": 430.15, 
	 "num_atms": 33, 
	 "gaussian": { 
		 "optdone": 1, 
		 "sigma_profile": "yes", 
		 "theory": "DFT", 
		 "functional": "B3LYP", 
		 "basiset": "6-31G**", 
		 "properties": { 
			 "R2extent": 6921.1679, 
			 "electric_dipole_moment_norm": 4.53472401035, 
			 "electric_quadrupole_moment_norm": 22.9664298253, 
			 "total_energy": -1220.10254849, 
			 "HOMO_LUMO_gap": 0.20546, 
			 "cosmo_polarized_energy": -19.16, 
			 "cosmo_cavitation_energy": 36.54, 
			 "cosmo_dispersion_energy": -26.23, 
			 "cosmo_repulsion_energy": 1.98, 
			 "cosmo_total_nonelectrostatic_energy": 12.29, 
			 "SMD_solvation_energy": 5.45 
		},
		"coords": [
			{
				"x": -2.6533460971,
				"y": -3.2798245348,
				"z": -2.8809069919,
				"element": "O" 
			},
			{
				"x": -2.8412571665,
				"y": -2.3179273253,
				"z": -1.9417596642,
				"element": "C" 
			},
			{
				"x": -3.9433645994,
				"y": -2.0012208181,
				"z": -1.5519273649,
				"element": "O" 
			},
			{
				"x": -1.5250244909,
				"y": -1.7171802887,
				"z": -1.4825125324,
				"element": "C" 
			},
			{
				"x": -0.5622271183,
				"y": -2.7927208127,
				"z": -0.9294839896,
				"element": "C" 
			},
			{
				"x": 0.7491718914,
				"y": -2.147436651,
				"z": -0.461519741,
				"element": "C" 
			},
			{
				"x": 0.5451104829,
				"y": -1.0416659942,
				"z": 0.4932675506,
				"element": "N" 
			},
			{
				"x": -0.4096764519,
				"y": -0.0199438924,
				"z": 0.0185599133,
				"element": "C" 
			},
			{
				"x": -1.7489016983,
				"y": -0.6048893076,
				"z": -0.4484751964,
				"element": "C" 
			},
			{
				"x": 0.4364388809,
				"y": -1.4606462899,
				"z": 2.1323474288,
				"element": "S" 
			},
			{
				"x": 1.3004766237,
				"y": -2.6340092739,
				"z": 2.306757304,
				"element": "O" 
			},
			{
				"x": -0.9599486548,
				"y": -1.4957516423,
				"z": 2.5950511276,
				"element": "O" 
			},
			{
				"x": 1.2130229396,
				"y": -0.0395288804,
				"z": 2.9115163203,
				"element": "C" 
			},
			{
				"x": 2.5674122456,
				"y": 0.2136937536,
				"z": 2.6765577273,
				"element": "C" 
			},
			{
				"x": 3.1736828315,
				"y": 1.2903185691,
				"z": 3.3196319927,
				"element": "C" 
			},
			{
				"x": 2.4317673693,
				"y": 2.0975517067,
				"z": 4.188533211,
				"element": "C" 
			},
			{
				"x": 1.0822773806,
				"y": 1.8289120926,
				"z": 4.4197411997,
				"element": "C" 
			},
			{
				"x": 0.4629468423,
				"y": 0.7515064447,
				"z": 3.7814985855,
				"element": "C" 
			},
			{
				"x": -3.5392423172,
				"y": -3.6074670344,
				"z": -3.1103067653,
				"element": "H" 
			},
			{
				"x": -1.056728067,
				"y": -1.2912039038,
				"z": -2.3840458214,
				"element": "H" 
			},
			{
				"x": -1.0340049712,
				"y": -3.3115597502,
				"z": -0.0863456516,
				"element": "H" 
			},
			{
				"x": -0.349691702,
				"y": -3.5418553816,
				"z": -1.6982778685,
				"element": "H" 
			},
			{
				"x": 1.2798408101,
				"y": -1.716227293,
				"z": -1.3213388687,
				"element": "H" 
			},
			{
				"x": 1.4075695658,
				"y": -2.8824001734,
				"z": 0.0024484771,
				"element": "H" 
			},
			{
				"x": 0.0874704628,
				"y": 0.5037347292,
				"z": -0.8092368612,
				"element": "H" 
			},
			{
				"x": -0.561511205,
				"y": 0.7166753286,
				"z": 0.8116566906,
				"element": "H" 
			},
			{
				"x": -2.3685410506,
				"y": 0.1906383905,
				"z": -0.8753532439,
				"element": "H" 
			},
			{
				"x": -2.2900578582,
				"y": -1.0087631973,
				"z": 0.4115377494,
				"element": "H" 
			},
			{
				"x": 3.1303630633,
				"y": -0.4238679448,
				"z": 2.0035533072,
				"element": "H" 
			},
			{
				"x": 4.2250314066,
				"y": 1.4991707815,
				"z": 3.1463421678,
				"element": "H" 
			},
			{
				"x": 2.9100768627,
				"y": 2.9353362012,
				"z": 4.6874663748,
				"element": "H" 
			},
			{
				"x": 0.5095350114,
				"y": 2.4535175712,
				"z": 5.0985191768,
				"element": "H" 
			},
			{
				"x": -0.5813712222,
				"y": 0.5142348209,
				"z": 3.9515042563,
				"element": "H" 
			}
		],
		 "valence_orbital": [ 
			{
				"type": "occ",
				"energy": -0.29699,
				"method": "rhf"
			},
			{
				"type": "occ",
				"energy": -0.27808,
				"method": "rhf"
			},
			{
				"type": "occ",
				"energy": -0.27449,
				"method": "rhf"
			},
			{
				"type": "occ",
				"energy": -0.2706,
				"method": "rhf"
			},
			{
				"type": "occ",
				"energy": -0.24416,
				"method": "rhf"
			},
			{
				"type": "unocc",
				"energy": -0.0387,
				"method": "rhf"
			},
			{
				"type": "unocc",
				"energy": -0.02046,
				"method": "rhf"
			},
			{
				"type": "unocc",
				"energy": 0.00593,
				"method": "rhf"
			},
			{
				"type": "unocc",
				"energy": 0.05859,
				"method": "rhf"
			},
			{
				"type": "unocc",
				"energy": 0.0733,
				"method": "rhf"
			}
		],
		"cosmo_sigma_profile": { 
			"-0.025": 0.0,
			"-0.024": 0.0,
			"-0.023": 0.0,
			"-0.022": 0.0,
			"-0.021": 0.0,
			"-0.02": 0.0,
			"-0.019": 0.0,
			"-0.018": 0.531479338271,
			"-0.017": 0.840245213342,
			"-0.016": 1.22685103138,
			"-0.015": 0.769583924324,
			"-0.014": 0.390672150934,
			"-0.013": 0.701412526611,
			"-0.012": 0.447663694943,
			"-0.011": 0.753802863178,
			"-0.01": 1.01132206881,
			"-0.009": 0.96661954254,
			"-0.008": 0.630984770788,
			"-0.007": 8.13836532328,
			"-0.006": 19.5428373957,
			"-0.005": 25.9074199068,
			"-0.004": 27.1363119251,
			"-0.003": 26.2151117094,
			"-0.002": 19.955377521,
			"-0.001": 17.4684275784,
			"0.0": 17.2938748124,
			"0.001": 14.8548891694,
			"0.002": 18.0908371566,
			"0.003": 18.9915120595,
			"0.004": 9.18153277489,
			"0.005": 6.69729663553,
			"0.006": 4.8631133462,
			"0.007": 6.98165432562,
			"0.008": 4.56483797047,
			"0.009": 6.92674693571,
			"0.01": 7.94280505341,
			"0.011": 10.358487915,
			"0.012": 8.43690631891,
			"0.013": 0.474632838464,
			"0.014": 0.0,
			"0.015": 0.0,
			"0.016": 0.0,
			"0.017": 0.0,
			"0.018": 0.0,
			"0.019": 0.0,
			"0.02": 0.0,
			"0.021": 0.0,
			"0.022": 0.0,
			"0.023": 0.0,
			"0.024": 0.0,
			"0.0": 0.0
		}
	}
}
