{
	 "smiles": "CC1CNC2=C(O1)C=C(C)C(Br)=C2", 
	 "Tm": 367.15, 
	 "num_atms": 25, 
	 "gaussian": { 
		 "optdone": 1, 
		 "sigma_profile": "yes", 
		 "theory": "DFT", 
		 "functional": "B3LYP", 
		 "basiset": "6-31G**", 
		 "properties": { 
			 "R2extent": 4174.4253, 
			 "electric_dipole_moment_norm": 3.63302675327, 
			 "electric_quadrupole_moment_norm": 9.82617393241, 
			 "total_energy": -3089.67932213, 
			 "HOMO_LUMO_gap": 0.19558, 
			 "cosmo_polarized_energy": -8.83, 
			 "cosmo_cavitation_energy": 29.23, 
			 "cosmo_dispersion_energy": -22.0, 
			 "cosmo_repulsion_energy": 1.74, 
			 "cosmo_total_nonelectrostatic_energy": 8.96, 
			 "SMD_solvation_energy": 2.87 
		},
		"coords": [
			{
				"x": -2.0929578449,
				"y": 2.0101713035,
				"z": -2.1060944339,
				"element": "C" 
			},
			{
				"x": -2.6021151021,
				"y": 0.8050114035,
				"z": -1.3174888581,
				"element": "C" 
			},
			{
				"x": -2.8930351536,
				"y": 1.1063995202,
				"z": 0.1611371169,
				"element": "C" 
			},
			{
				"x": -1.6771334052,
				"y": 1.4015369864,
				"z": 0.9062401034,
				"element": "N" 
			},
			{
				"x": -0.5348450661,
				"y": 0.6702026006,
				"z": 0.5377688049,
				"element": "C" 
			},
			{
				"x": -0.5647269837,
				"y": -0.1853990097,
				"z": -0.5796740332,
				"element": "C" 
			},
			{
				"x": -1.6691354397,
				"y": -0.2894179663,
				"z": -1.3910717829,
				"element": "O" 
			},
			{
				"x": 0.5455172601,
				"y": -0.968089588,
				"z": -0.8948161408,
				"element": "C" 
			},
			{
				"x": 1.7303576188,
				"y": -0.9170970261,
				"z": -0.1527603248,
				"element": "C" 
			},
			{
				"x": 2.91186509,
				"y": -1.7730373751,
				"z": -0.5310379465,
				"element": "C" 
			},
			{
				"x": 1.7501293641,
				"y": -0.0286329313,
				"z": 0.9333463727,
				"element": "C" 
			},
			{
				"x": 3.3329967332,
				"y": 0.1379011472,
				"z": 2.0082517357,
				"element": "Br" 
			},
			{
				"x": 0.646926852,
				"y": 0.7402432312,
				"z": 1.2858053942,
				"element": "C" 
			},
			{
				"x": -2.8617063828,
				"y": 2.7892836503,
				"z": -2.1503040001,
				"element": "H" 
			},
			{
				"x": -1.1960574733,
				"y": 2.4374106013,
				"z": -1.6482229792,
				"element": "H" 
			},
			{
				"x": -1.8444740643,
				"y": 1.7128056411,
				"z": -3.1281894011,
				"element": "H" 
			},
			{
				"x": -3.5097168862,
				"y": 0.4146619783,
				"z": -1.7897706798,
				"element": "H" 
			},
			{
				"x": -3.381174142,
				"y": 0.226401803,
				"z": 0.5992694704,
				"element": "H" 
			},
			{
				"x": -3.5864509333,
				"y": 1.9469175027,
				"z": 0.2538545766,
				"element": "H" 
			},
			{
				"x": -1.5072793694,
				"y": 2.3801557231,
				"z": 1.0935921965,
				"element": "H" 
			},
			{
				"x": 0.4759332304,
				"y": -1.6167949813,
				"z": -1.762848078,
				"element": "H" 
			},
			{
				"x": 3.795850824,
				"y": -1.1633968651,
				"z": -0.7472105347,
				"element": "H" 
			},
			{
				"x": 3.1894312458,
				"y": -2.4527673078,
				"z": 0.2821012851,
				"element": "H" 
			},
			{
				"x": 2.6852198079,
				"y": -2.3739357835,
				"z": -1.4154203055,
				"element": "H" 
			},
			{
				"x": 0.6889802203,
				"y": 1.3887657417,
				"z": 2.154242442,
				"element": "H" 
			}
		],
		 "valence_orbital": [ 
			{
				"type": "occ",
				"energy": -0.28718,
				"method": "rhf"
			},
			{
				"type": "occ",
				"energy": -0.27599,
				"method": "rhf"
			},
			{
				"type": "occ",
				"energy": -0.27293,
				"method": "rhf"
			},
			{
				"type": "occ",
				"energy": -0.22208,
				"method": "rhf"
			},
			{
				"type": "occ",
				"energy": -0.19556,
				"method": "rhf"
			},
			{
				"type": "unocc",
				"energy": 2e-05,
				"method": "rhf"
			},
			{
				"type": "unocc",
				"energy": 0.01283,
				"method": "rhf"
			},
			{
				"type": "unocc",
				"energy": 0.01954,
				"method": "rhf"
			},
			{
				"type": "unocc",
				"energy": 0.06792,
				"method": "rhf"
			},
			{
				"type": "unocc",
				"energy": 0.10327,
				"method": "rhf"
			}
		],
		"cosmo_sigma_profile": { 
			"-0.025": 0.0,
			"-0.024": 0.0,
			"-0.023": 0.0,
			"-0.022": 0.0,
			"-0.021": 0.0,
			"-0.02": 0.0,
			"-0.019": 0.0,
			"-0.018": 0.0,
			"-0.017": 0.0,
			"-0.016": 0.0,
			"-0.015": 0.0,
			"-0.014": 0.0,
			"-0.013": 0.503914956226,
			"-0.012": 1.28786341992,
			"-0.011": 1.30874673801,
			"-0.01": 1.10509142728,
			"-0.009": 1.40542040763,
			"-0.008": 2.09014486305,
			"-0.007": 2.856462852,
			"-0.006": 6.87042244262,
			"-0.005": 13.8657359228,
			"-0.004": 20.7308112892,
			"-0.003": 18.9516879409,
			"-0.002": 19.4549894353,
			"-0.001": 19.8371606006,
			"0.0": 20.7676092189,
			"0.001": 16.1533359205,
			"0.002": 12.5588129823,
			"0.003": 16.3438448454,
			"0.004": 21.9411057691,
			"0.005": 20.3545207202,
			"0.006": 4.75091035832,
			"0.007": 1.62938201121,
			"0.008": 1.77955151891,
			"0.009": 2.60961220056,
			"0.01": 1.87650383088,
			"0.011": 1.55202232529,
			"0.012": 0.647135770817,
			"0.013": 0.204252468058,
			"0.014": 0.0,
			"0.015": 0.0,
			"0.016": 0.0,
			"0.017": 0.0,
			"0.018": 0.0,
			"0.019": 0.0,
			"0.02": 0.0,
			"0.021": 0.0,
			"0.022": 0.0,
			"0.023": 0.0,
			"0.024": 0.0,
			"0.025": 0.0
		}
	}
}
