{
	 "smiles": "COC1=CC=C(C=C1)N1CCCNC(=O)C1", 
	 "Tm": 446.15, 
	 "num_atms": 32, 
	 "gaussian": { 
		 "optdone": 1, 
		 "sigma_profile": "yes", 
		 "theory": "DFT", 
		 "functional": "B3LYP", 
		 "basiset": "6-31G**", 
		 "properties": { 
			 "R2extent": 5343.9896, 
			 "electric_dipole_moment_norm": 4.02304558015, 
			 "electric_quadrupole_moment_norm": 22.1894192991, 
			 "total_energy": -726.853820939, 
			 "HOMO_LUMO_gap": 0.19248, 
			 "cosmo_polarized_energy": -14.57, 
			 "cosmo_cavitation_energy": 33.83, 
			 "cosmo_dispersion_energy": -24.63, 
			 "cosmo_repulsion_energy": 1.93, 
			 "cosmo_total_nonelectrostatic_energy": 11.12, 
			 "SMD_solvation_energy": 5.85 
		},
		"coords": [
			{
				"x": 5.126907015,
				"y": -2.7450240479,
				"z": 0.3792159799,
				"element": "C" 
			},
			{
				"x": 4.7698960634,
				"y": -1.5158142598,
				"z": 0.9878215612,
				"element": "O" 
			},
			{
				"x": 3.5390179668,
				"y": -0.9920570937,
				"z": 0.7065800794,
				"element": "C" 
			},
			{
				"x": 2.5902933339,
				"y": -1.5837841363,
				"z": -0.1317330614,
				"element": "C" 
			},
			{
				"x": 1.3618720164,
				"y": -0.9494329225,
				"z": -0.351250092,
				"element": "C" 
			},
			{
				"x": 1.0433547464,
				"y": 0.2584895105,
				"z": 0.2775109011,
				"element": "C" 
			},
			{
				"x": 2.0083459907,
				"y": 0.8357231376,
				"z": 1.1226266057,
				"element": "C" 
			},
			{
				"x": 3.2389022409,
				"y": 0.2300464301,
				"z": 1.3286231485,
				"element": "C" 
			},
			{
				"x": -0.1996383193,
				"y": 0.9428896508,
				"z": 0.0904875171,
				"element": "N" 
			},
			{
				"x": -1.4074189432,
				"y": 0.1369992465,
				"z": -0.1143263896,
				"element": "C" 
			},
			{
				"x": -2.5554026933,
				"y": 0.6193725176,
				"z": 0.8037314653,
				"element": "C" 
			},
			{
				"x": -2.4713233136,
				"y": 2.1222254236,
				"z": 1.0897177746,
				"element": "C" 
			},
			{
				"x": -2.3472704408,
				"y": 2.9356706978,
				"z": -0.1181595777,
				"element": "N" 
			},
			{
				"x": -1.2963875717,
				"y": 3.0139924141,
				"z": -0.987650758,
				"element": "C" 
			},
			{
				"x": -1.2885795852,
				"y": 3.8257930924,
				"z": -1.9064033017,
				"element": "O" 
			},
			{
				"x": -0.0931285873,
				"y": 2.0735506285,
				"z": -0.8385404406,
				"element": "C" 
			},
			{
				"x": 5.1398530698,
				"y": -2.6677327774,
				"z": -0.7160041486,
				"element": "H" 
			},
			{
				"x": 4.4464365434,
				"y": -3.5559824265,
				"z": 0.6711206265,
				"element": "H" 
			},
			{
				"x": 6.1326470763,
				"y": -2.9774545244,
				"z": 0.7331287685,
				"element": "H" 
			},
			{
				"x": 2.7940727672,
				"y": -2.5240664254,
				"z": -0.6305253504,
				"element": "H" 
			},
			{
				"x": 0.6521754264,
				"y": -1.4131744529,
				"z": -1.0296580095,
				"element": "H" 
			},
			{
				"x": 1.7699715366,
				"y": 1.7658793097,
				"z": 1.6304297742,
				"element": "H" 
			},
			{
				"x": 3.981027748,
				"y": 0.6734328324,
				"z": 1.9846430722,
				"element": "H" 
			},
			{
				"x": -1.1902291931,
				"y": -0.9091684968,
				"z": 0.1102119587,
				"element": "H" 
			},
			{
				"x": -1.7280905679,
				"y": 0.1731010126,
				"z": -1.1672605267,
				"element": "H" 
			},
			{
				"x": -2.5062483328,
				"y": 0.0969759444,
				"z": 1.7669486345,
				"element": "H" 
			},
			{
				"x": -3.5196899232,
				"y": 0.367788383,
				"z": 0.3462907566,
				"element": "H" 
			},
			{
				"x": -3.375084646,
				"y": 2.4545871441,
				"z": 1.6081673584,
				"element": "H" 
			},
			{
				"x": -1.6253990203,
				"y": 2.3131315648,
				"z": 1.7562520691,
				"element": "H" 
			},
			{
				"x": -3.0679946105,
				"y": 3.6144409472,
				"z": -0.3238749537,
				"element": "H" 
			},
			{
				"x": 0.75117673,
				"y": 2.7030018125,
				"z": -0.5397008428,
				"element": "H" 
			},
			{
				"x": 0.1229354768,
				"y": 1.7404998632,
				"z": -1.8684205988,
				"element": "H" 
			}
		],
		 "valence_orbital": [ 
			{
				"type": "occ",
				"energy": -0.25305,
				"method": "rhf"
			},
			{
				"type": "occ",
				"energy": -0.24708,
				"method": "rhf"
			},
			{
				"type": "occ",
				"energy": -0.24372,
				"method": "rhf"
			},
			{
				"type": "occ",
				"energy": -0.23354,
				"method": "rhf"
			},
			{
				"type": "occ",
				"energy": -0.19676,
				"method": "rhf"
			},
			{
				"type": "unocc",
				"energy": -0.00428,
				"method": "rhf"
			},
			{
				"type": "unocc",
				"energy": 0.01361,
				"method": "rhf"
			},
			{
				"type": "unocc",
				"energy": 0.03342,
				"method": "rhf"
			},
			{
				"type": "unocc",
				"energy": 0.07675,
				"method": "rhf"
			},
			{
				"type": "unocc",
				"energy": 0.08979,
				"method": "rhf"
			}
		],
		"cosmo_sigma_profile": { 
			"-0.025": 0.0,
			"-0.024": 0.0,
			"-0.023": 0.0,
			"-0.022": 0.0,
			"-0.021": 0.0,
			"-0.02": 0.0,
			"-0.019": 0.0,
			"-0.018": 0.0,
			"-0.017": 0.0,
			"-0.016": 0.0,
			"-0.015": 0.0,
			"-0.014": 0.10532838788,
			"-0.013": 1.05132941688,
			"-0.012": 1.14506780457,
			"-0.011": 1.2506390029,
			"-0.01": 0.959978956502,
			"-0.009": 0.834944866912,
			"-0.008": 0.879087472612,
			"-0.007": 1.59679881446,
			"-0.006": 9.30505637102,
			"-0.005": 21.8416773853,
			"-0.004": 27.6300755818,
			"-0.003": 38.2227104241,
			"-0.002": 29.9437172656,
			"-0.001": 20.3764773251,
			"0.0": 15.1799239196,
			"0.001": 11.8913101825,
			"0.002": 9.63927090263,
			"0.003": 10.4294647355,
			"0.004": 13.4168021385,
			"0.005": 12.839268335,
			"0.006": 10.3965295057,
			"0.007": 3.12846564691,
			"0.008": 2.75554033109,
			"0.009": 2.66742743775,
			"0.01": 2.37111152476,
			"0.011": 2.58231195382,
			"0.012": 1.56738067379,
			"0.013": 2.14318698364,
			"0.014": 5.9615874974,
			"0.015": 3.46834112402,
			"0.016": 0.163081305759,
			"0.017": 0.0,
			"0.018": 0.0,
			"0.019": 0.0,
			"0.02": 0.0,
			"0.021": 0.0,
			"0.022": 0.0,
			"0.023": 0.0,
			"0.024": 0.0,
			"0.025": 0.0
		}
	}
}
