{
	 "smiles": "CC(O)C1=C(C)C=CC=C1C", 
	 "Tm": 333.15, 
	 "num_atms": 25, 
	 "gaussian": { 
		 "optdone": 1, 
		 "sigma_profile": "yes", 
		 "theory": "DFT", 
		 "functional": "B3LYP", 
		 "basiset": "6-31G**", 
		 "properties": { 
			 "R2extent": 2112.3214, 
			 "electric_dipole_moment_norm": 1.21553904092, 
			 "electric_quadrupole_moment_norm": 3.81469843893, 
			 "total_energy": -464.731556883, 
			 "HOMO_LUMO_gap": 0.22785, 
			 "cosmo_polarized_energy": -6.67, 
			 "cosmo_cavitation_energy": 26.28, 
			 "cosmo_dispersion_energy": -19.03, 
			 "cosmo_repulsion_energy": 1.52, 
			 "cosmo_total_nonelectrostatic_energy": 8.77, 
			 "SMD_solvation_energy": 4.68 
		},
		"coords": [
			{
				"x": 0.863261251,
				"y": -2.2115405778,
				"z": -0.4278207621,
				"element": "C" 
			},
			{
				"x": -0.4791646637,
				"y": -1.4943409341,
				"z": -0.2771940931,
				"element": "C" 
			},
			{
				"x": -0.7605110828,
				"y": -1.4322108919,
				"z": 1.1296078559,
				"element": "O" 
			},
			{
				"x": -0.5305921608,
				"y": -0.1263135465,
				"z": -0.9633074132,
				"element": "C" 
			},
			{
				"x": 0.1709678712,
				"y": 0.9920467706,
				"z": -0.4504033872,
				"element": "C" 
			},
			{
				"x": 1.0717716805,
				"y": 0.9290848822,
				"z": 0.7687426007,
				"element": "C" 
			},
			{
				"x": 0.0639776471,
				"y": 2.2246525996,
				"z": -1.1092170133,
				"element": "C" 
			},
			{
				"x": -0.6994950149,
				"y": 2.3684570751,
				"z": -2.262274786,
				"element": "C" 
			},
			{
				"x": -1.3737190222,
				"y": 1.2646131509,
				"z": -2.7751706584,
				"element": "C" 
			},
			{
				"x": -1.3035916484,
				"y": 0.0182026579,
				"z": -2.1418564137,
				"element": "C" 
			},
			{
				"x": -2.0664986232,
				"y": -1.1363758713,
				"z": -2.7646723535,
				"element": "C" 
			},
			{
				"x": 1.0833546099,
				"y": -2.3855480354,
				"z": -1.4853980693,
				"element": "H" 
			},
			{
				"x": 1.6807346441,
				"y": -1.6290658466,
				"z": 0.0022337473,
				"element": "H" 
			},
			{
				"x": 0.8232160486,
				"y": -3.1771588422,
				"z": 0.0852733622,
				"element": "H" 
			},
			{
				"x": -1.2380757188,
				"y": -2.1342998799,
				"z": -0.7423041956,
				"element": "H" 
			},
			{
				"x": -1.5646639764,
				"y": -0.907436344,
				"z": 1.2387077694,
				"element": "H" 
			},
			{
				"x": 0.7276343004,
				"y": 0.1954690639,
				"z": 1.496305494,
				"element": "H" 
			},
			{
				"x": 2.096157563,
				"y": 0.6588343253,
				"z": 0.4816410768,
				"element": "H" 
			},
			{
				"x": 1.1274594702,
				"y": 1.9103827382,
				"z": 1.2500522047,
				"element": "H" 
			},
			{
				"x": 0.5971271751,
				"y": 3.0813696341,
				"z": -0.7040928558,
				"element": "H" 
			},
			{
				"x": -0.7692443491,
				"y": 3.3327902857,
				"z": -2.7578780242,
				"element": "H" 
			},
			{
				"x": -1.9707687943,
				"y": 1.3661400723,
				"z": -3.6777776169,
				"element": "H" 
			},
			{
				"x": -2.564806485,
				"y": -0.8081983165,
				"z": -3.6806993075,
				"element": "H" 
			},
			{
				"x": -2.8413461726,
				"y": -1.5337978607,
				"z": -2.0984666744,
				"element": "H" 
			},
			{
				"x": -1.4130845487,
				"y": -1.9741563091,
				"z": -3.0323304867,
				"element": "H" 
			}
		],
		 "valence_orbital": [ 
			{
				"type": "occ",
				"energy": -0.33197,
				"method": "rhf"
			},
			{
				"type": "occ",
				"energy": -0.31504,
				"method": "rhf"
			},
			{
				"type": "occ",
				"energy": -0.26331,
				"method": "rhf"
			},
			{
				"type": "occ",
				"energy": -0.23437,
				"method": "rhf"
			},
			{
				"type": "occ",
				"energy": -0.23203,
				"method": "rhf"
			},
			{
				"type": "unocc",
				"energy": -0.00418,
				"method": "rhf"
			},
			{
				"type": "unocc",
				"energy": 0.00656,
				"method": "rhf"
			},
			{
				"type": "unocc",
				"energy": 0.0804,
				"method": "rhf"
			},
			{
				"type": "unocc",
				"energy": 0.10219,
				"method": "rhf"
			},
			{
				"type": "unocc",
				"energy": 0.11233,
				"method": "rhf"
			}
		],
		"cosmo_sigma_profile": { 
			"-0.025": 0.0,
			"-0.024": 0.0,
			"-0.023": 0.0,
			"-0.022": 0.0,
			"-0.021": 0.0,
			"-0.02": 0.0,
			"-0.019": 0.0,
			"-0.018": 0.0,
			"-0.017": 0.0,
			"-0.016": 0.00596217675396,
			"-0.015": 0.561648274124,
			"-0.014": 0.696657545626,
			"-0.013": 1.07342179021,
			"-0.012": 0.542203491319,
			"-0.011": 0.694214806667,
			"-0.01": 0.852582865729,
			"-0.009": 1.16767917901,
			"-0.008": 0.355079495844,
			"-0.007": 0.74850164051,
			"-0.006": 1.6403120043,
			"-0.005": 6.53348407558,
			"-0.004": 18.4605898576,
			"-0.003": 26.0320963978,
			"-0.002": 20.5655826939,
			"-0.001": 21.0814424438,
			"0.0": 23.1170113633,
			"0.001": 23.466997221,
			"0.002": 11.8236502692,
			"0.003": 8.19749457006,
			"0.004": 8.21179605562,
			"0.005": 7.52623831938,
			"0.006": 7.73615508179,
			"0.007": 6.01931175383,
			"0.008": 1.63009097568,
			"0.009": 1.12536934096,
			"0.01": 1.01223462058,
			"0.011": 0.880496517676,
			"0.012": 1.26941384979,
			"0.013": 1.13123997521,
			"0.014": 1.42181674234,
			"0.015": 0.271861344877,
			"0.016": 0.0,
			"0.017": 0.0,
			"0.018": 0.0,
			"0.019": 0.0,
			"0.02": 0.0,
			"0.021": 0.0,
			"0.022": 0.0,
			"0.023": 0.0,
			"0.024": 0.0,
			"0.025": 0.0
		}
	}
}
