{
	 "smiles": "CCOC1=CC=C(C=C1)C1=CSC(=O)N1", 
	 "Tm": 496.15, 
	 "num_atms": 26, 
	 "gaussian": { 
		 "optdone": 1, 
		 "sigma_profile": "yes", 
		 "theory": "DFT", 
		 "functional": "B3LYP", 
		 "basiset": "6-31G**", 
		 "properties": { 
			 "R2extent": 6121.4023, 
			 "electric_dipole_moment_norm": 6.43724282981, 
			 "electric_quadrupole_moment_norm": 16.9137147942, 
			 "total_energy": -1029.19129855, 
			 "HOMO_LUMO_gap": 0.17123, 
			 "cosmo_polarized_energy": -13.83, 
			 "cosmo_cavitation_energy": 31.84, 
			 "cosmo_dispersion_energy": -23.94, 
			 "cosmo_repulsion_energy": 1.83, 
			 "cosmo_total_nonelectrostatic_energy": 9.72, 
			 "SMD_solvation_energy": 6.5 
		},
		"coords": [
			{
				"x": -0.6456466649,
				"y": -3.0056504538,
				"z": 3.1576728939,
				"element": "C" 
			},
			{
				"x": -1.6563679979,
				"y": -1.8705663884,
				"z": 3.2822516986,
				"element": "C" 
			},
			{
				"x": -2.0509940574,
				"y": -1.3457085624,
				"z": 2.009956014,
				"element": "O" 
			},
			{
				"x": -1.2625657278,
				"y": -0.439259347,
				"z": 1.369623296,
				"element": "C" 
			},
			{
				"x": -1.7354210305,
				"y": -0.0046592111,
				"z": 0.1211804035,
				"element": "C" 
			},
			{
				"x": -1.0233174476,
				"y": 0.9318434703,
				"z": -0.6138674658,
				"element": "C" 
			},
			{
				"x": 0.1890191329,
				"y": 1.4644199463,
				"z": -0.1345315832,
				"element": "C" 
			},
			{
				"x": 0.6547810382,
				"y": 1.0139537214,
				"z": 1.10867917,
				"element": "C" 
			},
			{
				"x": -0.0558279137,
				"y": 0.0801020242,
				"z": 1.8606258308,
				"element": "C" 
			},
			{
				"x": 0.9428274313,
				"y": 2.4651860776,
				"z": -0.9015065125,
				"element": "C" 
			},
			{
				"x": 1.7077405411,
				"y": 3.4772456435,
				"z": -0.4262629404,
				"element": "C" 
			},
			{
				"x": 2.4107339716,
				"y": 4.4507058238,
				"z": -1.7087485277,
				"element": "S" 
			},
			{
				"x": 1.6241327022,
				"y": 3.4140054796,
				"z": -2.9777424692,
				"element": "C" 
			},
			{
				"x": 1.73050858,
				"y": 3.5346901367,
				"z": -4.178059155,
				"element": "O" 
			},
			{
				"x": 0.8947281794,
				"y": 2.4555716798,
				"z": -2.2997690457,
				"element": "N" 
			},
			{
				"x": 0.2943190572,
				"y": -2.6666199874,
				"z": 2.7138722168,
				"element": "H" 
			},
			{
				"x": -1.0500037874,
				"y": -3.8049091626,
				"z": 2.530279655,
				"element": "H" 
			},
			{
				"x": -0.4263351979,
				"y": -3.421197149,
				"z": 4.1468450893,
				"element": "H" 
			},
			{
				"x": -2.5871049878,
				"y": -2.2381255629,
				"z": 3.7229361133,
				"element": "H" 
			},
			{
				"x": -1.2848518879,
				"y": -1.0642053568,
				"z": 3.926875407,
				"element": "H" 
			},
			{
				"x": -2.6741867715,
				"y": -0.4079183672,
				"z": -0.2436512176,
				"element": "H" 
			},
			{
				"x": -1.4329652757,
				"y": 1.277480535,
				"z": -1.5590369099,
				"element": "H" 
			},
			{
				"x": 1.6043848813,
				"y": 1.3814762137,
				"z": 1.4856769444,
				"element": "H" 
			},
			{
				"x": 0.3493939797,
				"y": -0.2461927238,
				"z": 2.8107060341,
				"element": "H" 
			},
			{
				"x": 1.8495472655,
				"y": 3.7393219369,
				"z": 0.6112798424,
				"element": "H" 
			},
			{
				"x": 0.4738719878,
				"y": 1.7084095833,
				"z": -2.8338847822,
				"element": "H" 
			}
		],
		 "valence_orbital": [ 
			{
				"type": "occ",
				"energy": -0.29397,
				"method": "rhf"
			},
			{
				"type": "occ",
				"energy": -0.26782,
				"method": "rhf"
			},
			{
				"type": "occ",
				"energy": -0.26459,
				"method": "rhf"
			},
			{
				"type": "occ",
				"energy": -0.24304,
				"method": "rhf"
			},
			{
				"type": "occ",
				"energy": -0.20033,
				"method": "rhf"
			},
			{
				"type": "unocc",
				"energy": -0.0291,
				"method": "rhf"
			},
			{
				"type": "unocc",
				"energy": -0.01856,
				"method": "rhf"
			},
			{
				"type": "unocc",
				"energy": 0.0174,
				"method": "rhf"
			},
			{
				"type": "unocc",
				"energy": 0.02338,
				"method": "rhf"
			},
			{
				"type": "unocc",
				"energy": 0.05643,
				"method": "rhf"
			}
		],
		"cosmo_sigma_profile": { 
			"-0.025": 0.0,
			"-0.024": 0.0,
			"-0.023": 0.0,
			"-0.022": 0.0,
			"-0.021": 0.0,
			"-0.02": 0.0,
			"-0.019": 0.0,
			"-0.018": 0.0,
			"-0.017": 0.0275630863142,
			"-0.016": 0.713188029941,
			"-0.015": 1.0863862673,
			"-0.014": 1.09796495521,
			"-0.013": 0.555279825586,
			"-0.012": 1.62873933091,
			"-0.011": 1.12824332918,
			"-0.01": 1.13635949323,
			"-0.009": 2.20361316488,
			"-0.008": 3.2934190095,
			"-0.007": 6.51577449757,
			"-0.006": 11.479759537,
			"-0.005": 14.9905598515,
			"-0.004": 18.7871687532,
			"-0.003": 19.1015952981,
			"-0.002": 16.6721462804,
			"-0.001": 17.8343403375,
			"0.0": 22.6419074265,
			"0.001": 18.8676493402,
			"0.002": 18.7618215035,
			"0.003": 20.8847621957,
			"0.004": 19.7210522083,
			"0.005": 10.9792082041,
			"0.006": 3.03756246091,
			"0.007": 3.51333652847,
			"0.008": 2.1701207462,
			"0.009": 2.5464274707,
			"0.01": 2.71578452363,
			"0.011": 2.66478291725,
			"0.012": 6.88107505429,
			"0.013": 2.6222376702,
			"0.014": 0.00334801276675,
			"0.015": 0.0,
			"0.016": 0.0,
			"0.017": 0.0,
			"0.018": 0.0,
			"0.019": 0.0,
			"0.02": 0.0,
			"0.021": 0.0,
			"0.022": 0.0,
			"0.023": 0.0,
			"0.024": 0.0,
			"0.025": 0.0
		}
	}
}
