{
	 "smiles": "CC1=CC=C(C=C1)S(=O)(=O)OC1CCCCC1", 
	 "Tm": 319.15, 
	 "num_atms": 35, 
	 "gaussian": { 
		 "optdone": 1, 
		 "sigma_profile": "yes", 
		 "theory": "DFT", 
		 "functional": "B3LYP", 
		 "basiset": "6-31G**", 
		 "properties": { 
			 "R2extent": 6201.0216, 
			 "electric_dipole_moment_norm": 4.01505156131, 
			 "electric_quadrupole_moment_norm": 20.7728230828, 
			 "total_energy": -1130.04041127, 
			 "HOMO_LUMO_gap": 0.22451, 
			 "cosmo_polarized_energy": -11.24, 
			 "cosmo_cavitation_energy": 37.79, 
			 "cosmo_dispersion_energy": -27.49, 
			 "cosmo_repulsion_energy": 2.12, 
			 "cosmo_total_nonelectrostatic_energy": 12.42, 
			 "SMD_solvation_energy": 4.69 
		},
		"coords": [
			{
				"x": 2.4255952975,
				"y": 5.2934350314,
				"z": 2.0048429654,
				"element": "C" 
			},
			{
				"x": 1.6412977566,
				"y": 4.1692940916,
				"z": 1.3723788541,
				"element": "C" 
			},
			{
				"x": 2.2057610376,
				"y": 3.3851455275,
				"z": 0.3551630521,
				"element": "C" 
			},
			{
				"x": 1.5006222308,
				"y": 2.3283278355,
				"z": -0.2153777749,
				"element": "C" 
			},
			{
				"x": 0.2106983808,
				"y": 2.0541270388,
				"z": 0.2410583498,
				"element": "C" 
			},
			{
				"x": -0.3837143143,
				"y": 2.8229773068,
				"z": 1.2420854641,
				"element": "C" 
			},
			{
				"x": 0.3384978769,
				"y": 3.875223947,
				"z": 1.8005978599,
				"element": "C" 
			},
			{
				"x": -0.7075413743,
				"y": 0.7131266018,
				"z": -0.4889128525,
				"element": "S" 
			},
			{
				"x": -0.2054231313,
				"y": 0.4431059855,
				"z": -1.8384683665,
				"element": "O" 
			},
			{
				"x": -2.1392002419,
				"y": 0.9350491043,
				"z": -0.2768586812,
				"element": "O" 
			},
			{
				"x": -0.1864088322,
				"y": -0.4798862422,
				"z": 0.5089492745,
				"element": "O" 
			},
			{
				"x": -0.4870311652,
				"y": -1.8620751925,
				"z": 0.1110509165,
				"element": "C" 
			},
			{
				"x": 0.6616173493,
				"y": -2.71806094,
				"z": 0.6705577315,
				"element": "C" 
			},
			{
				"x": 0.2129889068,
				"y": -4.1719935127,
				"z": 0.9537286234,
				"element": "C" 
			},
			{
				"x": -0.8931547904,
				"y": -4.6124575236,
				"z": -0.015281701,
				"element": "C" 
			},
			{
				"x": -2.1641535375,
				"y": -3.7431803042,
				"z": 0.155274585,
				"element": "C" 
			},
			{
				"x": -1.8438581265,
				"y": -2.3098272303,
				"z": 0.6485942167,
				"element": "C" 
			},
			{
				"x": 1.7676221427,
				"y": 6.0956261255,
				"z": 2.351132363,
				"element": "H" 
			},
			{
				"x": 2.9886005178,
				"y": 4.9347088286,
				"z": 2.8755326938,
				"element": "H" 
			},
			{
				"x": 3.1478426891,
				"y": 5.7219634806,
				"z": 1.304180799,
				"element": "H" 
			},
			{
				"x": 3.2081567525,
				"y": 3.6098942565,
				"z": 0.000770592,
				"element": "H" 
			},
			{
				"x": 1.9305771513,
				"y": 1.7325271679,
				"z": -1.013000682,
				"element": "H" 
			},
			{
				"x": -1.3969900143,
				"y": 2.6048346303,
				"z": 1.5606945148,
				"element": "H" 
			},
			{
				"x": -0.1192514647,
				"y": 4.4826146607,
				"z": 2.5767826335,
				"element": "H" 
			},
			{
				"x": -0.4869210189,
				"y": -1.8933820459,
				"z": -0.9835349536,
				"element": "H" 
			},
			{
				"x": 1.4989430341,
				"y": -2.6998056591,
				"z": -0.0353562996,
				"element": "H" 
			},
			{
				"x": 1.0155618087,
				"y": -2.2468814041,
				"z": 1.5938022432,
				"element": "H" 
			},
			{
				"x": -0.1624276385,
				"y": -4.2507414466,
				"z": 1.9817839402,
				"element": "H" 
			},
			{
				"x": 1.0757365112,
				"y": -4.843731315,
				"z": 0.8911508331,
				"element": "H" 
			},
			{
				"x": -0.5177497778,
				"y": -4.5282016018,
				"z": -1.0436591185,
				"element": "H" 
			},
			{
				"x": -1.1366242867,
				"y": -5.67009705,
				"z": 0.1331128385,
				"element": "H" 
			},
			{
				"x": -2.7040565896,
				"y": -3.6954415454,
				"z": -0.797061577,
				"element": "H" 
			},
			{
				"x": -2.8462062687,
				"y": -4.2149855199,
				"z": 0.8712881916,
				"element": "H" 
			},
			{
				"x": -1.8050397139,
				"y": -2.2780809967,
				"z": 1.7442703871,
				"element": "H" 
			},
			{
				"x": -2.6217671568,
				"y": -1.6077520905,
				"z": 0.3386280841,
				"element": "H" 
			}
		],
		 "valence_orbital": [ 
			{
				"type": "occ",
				"energy": -0.30349,
				"method": "rhf"
			},
			{
				"type": "occ",
				"energy": -0.29843,
				"method": "rhf"
			},
			{
				"type": "occ",
				"energy": -0.27558,
				"method": "rhf"
			},
			{
				"type": "occ",
				"energy": -0.26845,
				"method": "rhf"
			},
			{
				"type": "occ",
				"energy": -0.26194,
				"method": "rhf"
			},
			{
				"type": "unocc",
				"energy": -0.03743,
				"method": "rhf"
			},
			{
				"type": "unocc",
				"energy": -0.01887,
				"method": "rhf"
			},
			{
				"type": "unocc",
				"energy": 0.05522,
				"method": "rhf"
			},
			{
				"type": "unocc",
				"energy": 0.07016,
				"method": "rhf"
			},
			{
				"type": "unocc",
				"energy": 0.07896,
				"method": "rhf"
			}
		],
		"cosmo_sigma_profile": { 
			"-0.025": 0.0,
			"-0.024": 0.0,
			"-0.023": 0.0,
			"-0.022": 0.0,
			"-0.021": 0.0,
			"-0.02": 0.0,
			"-0.019": 0.0,
			"-0.018": 0.0,
			"-0.017": 0.0,
			"-0.016": 0.0,
			"-0.015": 0.0,
			"-0.014": 0.0,
			"-0.013": 0.0,
			"-0.012": 0.0,
			"-0.011": 0.0,
			"-0.01": 0.0,
			"-0.009": 0.0,
			"-0.008": 0.228172825651,
			"-0.007": 4.11338658165,
			"-0.006": 8.92872986724,
			"-0.005": 15.9843711749,
			"-0.004": 17.3303629778,
			"-0.003": 33.0285650257,
			"-0.002": 42.3363421186,
			"-0.001": 38.2958238142,
			"0.0": 33.7608125898,
			"0.001": 24.0198035592,
			"0.002": 15.3809776055,
			"0.003": 17.0433032794,
			"0.004": 6.5540300218,
			"0.005": 5.73675718724,
			"0.006": 4.78056854965,
			"0.007": 4.9674219247,
			"0.008": 4.39714909502,
			"0.009": 4.67417002454,
			"0.01": 9.3599929577,
			"0.011": 5.28655149261,
			"0.012": 0.377526676144,
			"0.013": 0.0,
			"0.014": 0.0,
			"0.015": 0.0,
			"0.016": 0.0,
			"0.017": 0.0,
			"0.018": 0.0,
			"0.019": 0.0,
			"0.02": 0.0,
			"0.021": 0.0,
			"0.022": 0.0,
			"0.023": 0.0,
			"0.024": 0.0,
			"0.025": 0.0
		}
	}
}
