{
	 "smiles": "OC(=O)C1CCN(CC1)C1=C(C=C(C=C1)[N+]([O-])=O)C#N", 
	 "Tm": 435.15, 
	 "num_atms": 33, 
	 "gaussian": { 
		 "optdone": 1, 
		 "sigma_profile": "yes", 
		 "theory": "DFT", 
		 "functional": "B3LYP", 
		 "basiset": "6-31G**", 
		 "properties": { 
			 "R2extent": 7651.8712, 
			 "electric_dipole_moment_norm": 5.99376951342, 
			 "electric_quadrupole_moment_norm": 27.2034225867, 
			 "total_energy": -968.257871262, 
			 "HOMO_LUMO_gap": 0.14579, 
			 "cosmo_polarized_energy": -27.76, 
			 "cosmo_cavitation_energy": 37.6, 
			 "cosmo_dispersion_energy": -26.11, 
			 "cosmo_repulsion_energy": 1.98, 
			 "cosmo_total_nonelectrostatic_energy": 13.47, 
			 "SMD_solvation_energy": 9.65 
		},
		"coords": [
			{
				"x": -0.3934797939,
				"y": -2.6716639218,
				"z": -4.0624262299,
				"element": "O" 
			},
			{
				"x": -1.1235948196,
				"y": -2.0965154803,
				"z": -3.0699739076,
				"element": "C" 
			},
			{
				"x": -2.1588557226,
				"y": -2.6002867829,
				"z": -2.7131102934,
				"element": "O" 
			},
			{
				"x": -0.525927233,
				"y": -0.8293348878,
				"z": -2.4567981714,
				"element": "C" 
			},
			{
				"x": -1.5435072824,
				"y": -0.1230240836,
				"z": -1.5498342858,
				"element": "C" 
			},
			{
				"x": -0.8949906021,
				"y": 1.0824821159,
				"z": -0.8574593323,
				"element": "C" 
			},
			{
				"x": 0.3166147064,
				"y": 0.7277455087,
				"z": -0.1113771107,
				"element": "N" 
			},
			{
				"x": 1.3300065736,
				"y": 0.100229773,
				"z": -0.9684373475,
				"element": "C" 
			},
			{
				"x": 0.7647760166,
				"y": -1.1503900985,
				"z": -1.6659785056,
				"element": "C" 
			},
			{
				"x": 0.3040406527,
				"y": 0.5950631903,
				"z": 1.2630526727,
				"element": "C" 
			},
			{
				"x": 1.4965425217,
				"y": 0.7161888877,
				"z": 2.0500022246,
				"element": "C" 
			},
			{
				"x": 1.4557814434,
				"y": 0.5682955268,
				"z": 3.4414896393,
				"element": "C" 
			},
			{
				"x": 0.245006209,
				"y": 0.3355150369,
				"z": 4.0772830594,
				"element": "C" 
			},
			{
				"x": -0.9423181798,
				"y": 0.2538611706,
				"z": 3.3455871258,
				"element": "C" 
			},
			{
				"x": -0.9070558869,
				"y": 0.3797899447,
				"z": 1.9685472899,
				"element": "C" 
			},
			{
				"x": 0.2133044894,
				"y": 0.1869795171,
				"z": 5.5293278774,
				"element": "N" 
			},
			{
				"x": 1.2846291281,
				"y": 0.2461508367,
				"z": 6.1347683907,
				"element": "O" 
			},
			{
				"x": -0.885409535,
				"y": 0.0109922446,
				"z": 6.0590628189,
				"element": "O" 
			},
			{
				"x": 2.7510163471,
				"y": 1.0945036299,
				"z": 1.474133657,
				"element": "C" 
			},
			{
				"x": 3.7773554659,
				"y": 1.4206824772,
				"z": 1.0315935145,
				"element": "N" 
			},
			{
				"x": 0.3938477514,
				"y": -2.1435562612,
				"z": -4.2567419867,
				"element": "H" 
			},
			{
				"x": -0.2574967126,
				"y": -0.1513922904,
				"z": -3.2832509844,
				"element": "H" 
			},
			{
				"x": -1.9173378566,
				"y": -0.8404245722,
				"z": -0.8121604561,
				"element": "H" 
			},
			{
				"x": -2.4081117676,
				"y": 0.2045198784,
				"z": -2.1361538299,
				"element": "H" 
			},
			{
				"x": -1.5956590941,
				"y": 1.5908020425,
				"z": -0.1938714688,
				"element": "H" 
			},
			{
				"x": -0.5956997911,
				"y": 1.8198940069,
				"z": -1.6164361869,
				"element": "H" 
			},
			{
				"x": 2.2064479282,
				"y": -0.1717733669,
				"z": -0.3854900878,
				"element": "H" 
			},
			{
				"x": 1.6597712339,
				"y": 0.8330278608,
				"z": -1.7171196594,
				"element": "H" 
			},
			{
				"x": 1.5399557984,
				"y": -1.5649409463,
				"z": -2.3221041324,
				"element": "H" 
			},
			{
				"x": 0.5436914899,
				"y": -1.9149877757,
				"z": -0.9114186855,
				"element": "H" 
			},
			{
				"x": 2.3598288448,
				"y": 0.6644578365,
				"z": 4.0296524252,
				"element": "H" 
			},
			{
				"x": -1.8727017818,
				"y": 0.0653566806,
				"z": 3.86713092,
				"element": "H" 
			},
			{
				"x": -1.8309705411,
				"y": 0.2633523018,
				"z": 1.4165110469,
				"element": "H" 
			}
		],
		 "valence_orbital": [ 
			{
				"type": "occ",
				"energy": -0.31,
				"method": "rhf"
			},
			{
				"type": "occ",
				"energy": -0.29315,
				"method": "rhf"
			},
			{
				"type": "occ",
				"energy": -0.28829,
				"method": "rhf"
			},
			{
				"type": "occ",
				"energy": -0.28647,
				"method": "rhf"
			},
			{
				"type": "occ",
				"energy": -0.23806,
				"method": "rhf"
			},
			{
				"type": "unocc",
				"energy": -0.09227,
				"method": "rhf"
			},
			{
				"type": "unocc",
				"energy": -0.06695,
				"method": "rhf"
			},
			{
				"type": "unocc",
				"energy": -0.01392,
				"method": "rhf"
			},
			{
				"type": "unocc",
				"energy": -0.00923,
				"method": "rhf"
			},
			{
				"type": "unocc",
				"energy": 0.01838,
				"method": "rhf"
			}
		],
		"cosmo_sigma_profile": { 
			"-0.025": 0.0,
			"-0.024": 0.0,
			"-0.023": 0.0,
			"-0.022": 0.0,
			"-0.021": 0.0,
			"-0.02": 0.0,
			"-0.019": 0.292428209294,
			"-0.018": 1.04828707749,
			"-0.017": 1.14009465501,
			"-0.016": 1.11806288294,
			"-0.015": 1.35063094104,
			"-0.014": 1.01622991508,
			"-0.013": 0.987285638986,
			"-0.012": 1.00310871457,
			"-0.011": 1.42010007494,
			"-0.01": 1.33657693634,
			"-0.009": 2.19003836802,
			"-0.008": 7.00767331271,
			"-0.007": 11.8441203858,
			"-0.006": 18.3249731697,
			"-0.005": 26.9285078377,
			"-0.004": 29.0022291364,
			"-0.003": 21.0688004436,
			"-0.002": 18.1105498709,
			"-0.001": 23.22343878,
			"0.0": 15.3008902078,
			"0.001": 11.83676749,
			"0.002": 9.38951260979,
			"0.003": 5.63848861758,
			"0.004": 6.60014959691,
			"0.005": 7.10279127959,
			"0.006": 8.20288027407,
			"0.007": 9.52858539777,
			"0.008": 14.8850473904,
			"0.009": 11.5714796571,
			"0.01": 11.4322745786,
			"0.011": 8.70546741295,
			"0.012": 7.54876487422,
			"0.013": 2.80422504432,
			"0.014": 0.0697764664738,
			"0.015": 0.0,
			"0.016": 0.0,
			"0.017": 0.0,
			"0.018": 0.0,
			"0.019": 0.0,
			"0.02": 0.0,
			"0.021": 0.0,
			"0.022": 0.0,
			"0.023": 0.0,
			"0.024": 0.0,
			"0.025": 0.0
		}
	}
}
