{
	 "smiles": "FC1=NC=CC(=C1)C(=O)NC1CCC2=C1C=CC=C2", 
	 "Tm": 395.15, 
	 "num_atms": 32, 
	 "gaussian": { 
		 "optdone": 1, 
		 "sigma_profile": "yes", 
		 "theory": "DFT", 
		 "functional": "B3LYP", 
		 "basiset": "6-31G**", 
		 "properties": { 
			 "R2extent": 6583.0308, 
			 "electric_dipole_moment_norm": 3.64446284794, 
			 "electric_quadrupole_moment_norm": 16.2184076873, 
			 "total_energy": -864.018210532, 
			 "HOMO_LUMO_gap": 0.1859, 
			 "cosmo_polarized_energy": -14.21, 
			 "cosmo_cavitation_energy": 36.72, 
			 "cosmo_dispersion_energy": -25.83, 
			 "cosmo_repulsion_energy": 1.96, 
			 "cosmo_total_nonelectrostatic_energy": 12.85, 
			 "SMD_solvation_energy": 4.74 
		},
		"coords": [
			{
				"x": -1.5745192737,
				"y": -4.5993284569,
				"z": -0.2926136317,
				"element": "F" 
			},
			{
				"x": -0.7455295979,
				"y": -3.9663731786,
				"z": -1.1379067988,
				"element": "C" 
			},
			{
				"x": -0.26856508,
				"y": -4.6816719429,
				"z": -2.1319377949,
				"element": "N" 
			},
			{
				"x": 0.5489029474,
				"y": -4.0456563855,
				"z": -2.9887424882,
				"element": "C" 
			},
			{
				"x": 0.90047266,
				"y": -2.7064698455,
				"z": -2.865000526,
				"element": "C" 
			},
			{
				"x": 0.3892054828,
				"y": -1.9751713614,
				"z": -1.7842855226,
				"element": "C" 
			},
			{
				"x": -0.4697837003,
				"y": -2.6205712309,
				"z": -0.8931984185,
				"element": "C" 
			},
			{
				"x": 0.77900784,
				"y": -0.5206031709,
				"z": -1.6698265754,
				"element": "C" 
			},
			{
				"x": 1.1768623431,
				"y": 0.1058812038,
				"z": -2.6481113158,
				"element": "O" 
			},
			{
				"x": 0.6591282849,
				"y": 0.0396193789,
				"z": -0.4326882161,
				"element": "N" 
			},
			{
				"x": 1.0058885812,
				"y": 1.4452313125,
				"z": -0.1883314542,
				"element": "C" 
			},
			{
				"x": 2.5233874495,
				"y": 1.6887349185,
				"z": 0.0499863663,
				"element": "C" 
			},
			{
				"x": 2.7215156032,
				"y": 1.6565447961,
				"z": 1.5856176078,
				"element": "C" 
			},
			{
				"x": 1.3504798105,
				"y": 2.0203589958,
				"z": 2.1183669561,
				"element": "C" 
			},
			{
				"x": 0.3804803373,
				"y": 1.9101728151,
				"z": 1.113070026,
				"element": "C" 
			},
			{
				"x": -0.9622608581,
				"y": 2.1782706926,
				"z": 1.379505709,
				"element": "C" 
			},
			{
				"x": -1.3293147104,
				"y": 2.5730197293,
				"z": 2.6685663431,
				"element": "C" 
			},
			{
				"x": -0.3624956797,
				"y": 2.6882026484,
				"z": 3.6737701593,
				"element": "C" 
			},
			{
				"x": 0.980967469,
				"y": 2.4107077225,
				"z": 3.4059192024,
				"element": "C" 
			},
			{
				"x": 0.9334058432,
				"y": -4.6456151581,
				"z": -3.8102265909,
				"element": "H" 
			},
			{
				"x": 1.5493876673,
				"y": -2.2163521607,
				"z": -3.580783211,
				"element": "H" 
			},
			{
				"x": -0.9477201353,
				"y": -2.1201037353,
				"z": -0.0587744935,
				"element": "H" 
			},
			{
				"x": 0.4757474603,
				"y": -0.5473883066,
				"z": 0.3674016553,
				"element": "H" 
			},
			{
				"x": 0.6562428116,
				"y": 1.9976304574,
				"z": -1.0641101597,
				"element": "H" 
			},
			{
				"x": 2.7724435482,
				"y": 2.6856848735,
				"z": -0.3284814984,
				"element": "H" 
			},
			{
				"x": 3.1392431709,
				"y": 0.9692119588,
				"z": -0.4933869348,
				"element": "H" 
			},
			{
				"x": 3.0169005016,
				"y": 0.6571683662,
				"z": 1.9338367666,
				"element": "H" 
			},
			{
				"x": 3.5042697252,
				"y": 2.3452603353,
				"z": 1.9201630052,
				"element": "H" 
			},
			{
				"x": -1.7103559195,
				"y": 2.0888031068,
				"z": 0.5960906433,
				"element": "H" 
			},
			{
				"x": -2.3686467464,
				"y": 2.7966491875,
				"z": 2.8910747208,
				"element": "H" 
			},
			{
				"x": -0.6590724067,
				"y": 3.0002214704,
				"z": 4.6712555208,
				"element": "H" 
			},
			{
				"x": 1.7258245709,
				"y": 2.5038309638,
				"z": 4.1920809483,
				"element": "H" 
			}
		],
		 "valence_orbital": [ 
			{
				"type": "occ",
				"energy": -0.26941,
				"method": "rhf"
			},
			{
				"type": "occ",
				"energy": -0.26702,
				"method": "rhf"
			},
			{
				"type": "occ",
				"energy": -0.26389,
				"method": "rhf"
			},
			{
				"type": "occ",
				"energy": -0.25248,
				"method": "rhf"
			},
			{
				"type": "occ",
				"energy": -0.24626,
				"method": "rhf"
			},
			{
				"type": "unocc",
				"energy": -0.06036,
				"method": "rhf"
			},
			{
				"type": "unocc",
				"energy": -0.01852,
				"method": "rhf"
			},
			{
				"type": "unocc",
				"energy": -0.01643,
				"method": "rhf"
			},
			{
				"type": "unocc",
				"energy": -0.00816,
				"method": "rhf"
			},
			{
				"type": "unocc",
				"energy": 0.04691,
				"method": "rhf"
			}
		],
		"cosmo_sigma_profile": { 
			"-0.025": 0.0,
			"-0.024": 0.0,
			"-0.023": 0.0,
			"-0.022": 0.0,
			"-0.021": 0.0,
			"-0.02": 0.0,
			"-0.019": 0.0,
			"-0.018": 0.0,
			"-0.017": 0.0,
			"-0.016": 0.0,
			"-0.015": 0.294143657344,
			"-0.014": 0.980403462085,
			"-0.013": 0.984350643155,
			"-0.012": 1.07987737529,
			"-0.011": 1.59968024335,
			"-0.01": 1.66551585664,
			"-0.009": 2.16922684468,
			"-0.008": 2.6344762635,
			"-0.007": 5.11545004548,
			"-0.006": 9.69699217237,
			"-0.005": 14.4161641922,
			"-0.004": 23.7342534204,
			"-0.003": 27.2999643922,
			"-0.002": 30.9802636682,
			"-0.001": 29.1585651184,
			"0.0": 27.1330624683,
			"0.001": 20.7211172307,
			"0.002": 14.3369255636,
			"0.003": 15.0311830146,
			"0.004": 17.0249498202,
			"0.005": 11.8481193374,
			"0.006": 10.0191276829,
			"0.007": 3.92147617316,
			"0.008": 2.68828507307,
			"0.009": 2.46534726774,
			"0.01": 2.36107897296,
			"0.011": 3.10778334137,
			"0.012": 3.01403519652,
			"0.013": 5.67368484193,
			"0.014": 2.10377399403,
			"0.015": 0.0985628699988,
			"0.016": 0.0,
			"0.017": 0.0,
			"0.018": 0.0,
			"0.019": 0.0,
			"0.02": 0.0,
			"0.021": 0.0,
			"0.022": 0.0,
			"0.023": 0.0,
			"0.024": 0.0,
			"0.025": 0.0
		}
	}
}
