{
	 "smiles": "COCC(C)N1C=C(C(O)=O)C(C)=N1", 
	 "Tm": 388.15, 
	 "num_atms": 28, 
	 "gaussian": { 
		 "optdone": 1, 
		 "sigma_profile": "yes", 
		 "theory": "DFT", 
		 "functional": "B3LYP", 
		 "basiset": "6-31G**", 
		 "properties": { 
			 "R2extent": 4045.2358, 
			 "electric_dipole_moment_norm": 5.49505863936, 
			 "electric_quadrupole_moment_norm": 18.995705491, 
			 "total_energy": -686.55366482, 
			 "HOMO_LUMO_gap": 0.22343, 
			 "cosmo_polarized_energy": -19.8, 
			 "cosmo_cavitation_energy": 31.76, 
			 "cosmo_dispersion_energy": -22.25, 
			 "cosmo_repulsion_energy": 1.78, 
			 "cosmo_total_nonelectrostatic_energy": 11.28, 
			 "SMD_solvation_energy": 6.38 
		},
		"coords": [
			{
				"x": 3.2425474154,
				"y": -2.9188537059,
				"z": 0.4267747154,
				"element": "C" 
			},
			{
				"x": 1.9640379919,
				"y": -2.8189234315,
				"z": 1.0324010578,
				"element": "O" 
			},
			{
				"x": 1.1658945949,
				"y": -1.7651034245,
				"z": 0.5313898827,
				"element": "C" 
			},
			{
				"x": 1.4603329316,
				"y": -0.4249636551,
				"z": 1.2439104186,
				"element": "C" 
			},
			{
				"x": 1.1852546114,
				"y": -0.5022390584,
				"z": 2.742349866,
				"element": "C" 
			},
			{
				"x": 0.6990834814,
				"y": 0.6437738562,
				"z": 0.5875874623,
				"element": "N" 
			},
			{
				"x": -0.4758261308,
				"y": 1.2085769255,
				"z": 0.94059837,
				"element": "C" 
			},
			{
				"x": -0.8206767174,
				"y": 2.0976316126,
				"z": -0.0736901308,
				"element": "C" 
			},
			{
				"x": -2.0045603234,
				"y": 2.9625664397,
				"z": -0.1975491925,
				"element": "C" 
			},
			{
				"x": -2.7686015326,
				"y": 3.122601083,
				"z": 0.924799541,
				"element": "O" 
			},
			{
				"x": -2.3291983662,
				"y": 3.5199845265,
				"z": -1.2222554744,
				"element": "O" 
			},
			{
				"x": 0.2338067834,
				"y": 1.9796558584,
				"z": -1.0281954907,
				"element": "C" 
			},
			{
				"x": 0.3962953361,
				"y": 2.7013747926,
				"z": -2.3278504743,
				"element": "C" 
			},
			{
				"x": 1.1438010061,
				"y": 1.10227156,
				"z": -0.6149641493,
				"element": "N" 
			},
			{
				"x": 3.730960863,
				"y": -3.7939887899,
				"z": 0.8613658573,
				"element": "H" 
			},
			{
				"x": 3.1611071903,
				"y": -3.0582333818,
				"z": -0.6610365138,
				"element": "H" 
			},
			{
				"x": 3.8725369776,
				"y": -2.0376493944,
				"z": 0.6157125246,
				"element": "H" 
			},
			{
				"x": 1.3027602205,
				"y": -1.6327696843,
				"z": -0.5506145946,
				"element": "H" 
			},
			{
				"x": 0.1210788885,
				"y": -2.0441714954,
				"z": 0.7139221722,
				"element": "H" 
			},
			{
				"x": 2.5100277336,
				"y": -0.1641713012,
				"z": 1.0782811283,
				"element": "H" 
			},
			{
				"x": 1.7996324294,
				"y": -1.2998682334,
				"z": 3.1645924267,
				"element": "H" 
			},
			{
				"x": 0.1399132177,
				"y": -0.7560550648,
				"z": 2.95039974,
				"element": "H" 
			},
			{
				"x": 1.4286425362,
				"y": 0.4371582581,
				"z": 3.2467577666,
				"element": "H" 
			},
			{
				"x": -0.9812858409,
				"y": 0.9325887598,
				"z": 1.8547612014,
				"element": "H" 
			},
			{
				"x": -2.3137110878,
				"y": 2.7552601315,
				"z": 1.6944346707,
				"element": "H" 
			},
			{
				"x": 0.4190172024,
				"y": 3.7848123184,
				"z": -2.175901602,
				"element": "H" 
			},
			{
				"x": 1.3242791729,
				"y": 2.3862361687,
				"z": -2.8095156726,
				"element": "H" 
			},
			{
				"x": -0.4490505852,
				"y": 2.5004983295,
				"z": -2.9913655069,
				"element": "H" 
			}
		],
		 "valence_orbital": [ 
			{
				"type": "occ",
				"energy": -0.29865,
				"method": "rhf"
			},
			{
				"type": "occ",
				"energy": -0.27814,
				"method": "rhf"
			},
			{
				"type": "occ",
				"energy": -0.26791,
				"method": "rhf"
			},
			{
				"type": "occ",
				"energy": -0.26305,
				"method": "rhf"
			},
			{
				"type": "occ",
				"energy": -0.24788,
				"method": "rhf"
			},
			{
				"type": "unocc",
				"energy": -0.02445,
				"method": "rhf"
			},
			{
				"type": "unocc",
				"energy": 0.01413,
				"method": "rhf"
			},
			{
				"type": "unocc",
				"energy": 0.0544,
				"method": "rhf"
			},
			{
				"type": "unocc",
				"energy": 0.0713,
				"method": "rhf"
			},
			{
				"type": "unocc",
				"energy": 0.08966,
				"method": "rhf"
			}
		],
		"cosmo_sigma_profile": { 
			"-0.025": 0.0,
			"-0.024": 0.0,
			"-0.023": 0.0,
			"-0.022": 0.0,
			"-0.021": 0.0,
			"-0.02": 0.0,
			"-0.019": 0.434219113011,
			"-0.018": 1.14067327753,
			"-0.017": 1.15159695242,
			"-0.016": 0.746385462843,
			"-0.015": 1.30394027661,
			"-0.014": 0.842061109392,
			"-0.013": 1.18603458888,
			"-0.012": 1.43435951573,
			"-0.011": 1.30927224524,
			"-0.01": 1.20992670954,
			"-0.009": 2.19563508739,
			"-0.008": 2.98366820676,
			"-0.007": 3.06421183678,
			"-0.006": 6.66183438234,
			"-0.005": 13.7975569228,
			"-0.004": 23.3463756827,
			"-0.003": 26.6120204955,
			"-0.002": 27.1953047277,
			"-0.001": 22.6048822033,
			"0.0": 20.3178699249,
			"0.001": 10.5308018544,
			"0.002": 12.5603645274,
			"0.003": 8.3234293521,
			"0.004": 6.57072426742,
			"0.005": 4.89086923761,
			"0.006": 5.72392341661,
			"0.007": 5.3098575652,
			"0.008": 4.55592339698,
			"0.009": 5.09830635737,
			"0.01": 5.90840068245,
			"0.011": 7.17048642188,
			"0.012": 6.88770996157,
			"0.013": 4.68214804615,
			"0.014": 1.38941806056,
			"0.015": 0.419433480897,
			"0.016": 0.0,
			"0.017": 0.0,
			"0.018": 0.0,
			"0.019": 0.0,
			"0.02": 0.0,
			"0.021": 0.0,
			"0.022": 0.0,
			"0.023": 0.0,
			"0.024": 0.0,
			"0.025": 0.0
		}
	}
}
