{
	 "smiles": "CC1=C(OC2=C1C(=O)CC(C)(C)C2)C(O)=O", 
	 "Tm": 473.15, 
	 "num_atms": 30, 
	 "gaussian": { 
		 "optdone": 1, 
		 "sigma_profile": "yes", 
		 "theory": "DFT", 
		 "functional": "B3LYP", 
		 "basiset": "6-31G**", 
		 "properties": { 
			 "R2extent": 4551.8905, 
			 "electric_dipole_moment_norm": 4.22376747229, 
			 "electric_quadrupole_moment_norm": 29.6096418494, 
			 "total_energy": -766.621729836, 
			 "HOMO_LUMO_gap": 0.1983, 
			 "cosmo_polarized_energy": -18.65, 
			 "cosmo_cavitation_energy": 32.31, 
			 "cosmo_dispersion_energy": -23.18, 
			 "cosmo_repulsion_energy": 1.79, 
			 "cosmo_total_nonelectrostatic_energy": 10.92, 
			 "SMD_solvation_energy": 7.36 
		},
		"coords": [
			{
				"x": 0.9359244313,
				"y": -2.6131740718,
				"z": 2.0143360309,
				"element": "C" 
			},
			{
				"x": 1.1681641301,
				"y": -1.9302169518,
				"z": 0.6947842972,
				"element": "C" 
			},
			{
				"x": 2.1532246007,
				"y": -2.1512962622,
				"z": -0.2397383678,
				"element": "C" 
			},
			{
				"x": 2.0026425576,
				"y": -1.2854624312,
				"z": -1.3101871602,
				"element": "O" 
			},
			{
				"x": 0.9258011233,
				"y": -0.5289426926,
				"z": -1.0589583898,
				"element": "C" 
			},
			{
				"x": 0.3642422679,
				"y": -0.8695708507,
				"z": 0.1489399393,
				"element": "C" 
			},
			{
				"x": -0.8198397357,
				"y": -0.1643490223,
				"z": 0.6525100288,
				"element": "C" 
			},
			{
				"x": -1.3194686637,
				"y": -0.3697627889,
				"z": 1.7511302687,
				"element": "O" 
			},
			{
				"x": -1.4244548801,
				"y": 0.8352615842,
				"z": -0.3378407667,
				"element": "C" 
			},
			{
				"x": -0.413482127,
				"y": 1.5662554257,
				"z": -1.2634964172,
				"element": "C" 
			},
			{
				"x": -1.1859420502,
				"y": 2.3995664607,
				"z": -2.2999768544,
				"element": "C" 
			},
			{
				"x": 0.4825392166,
				"y": 2.5040028923,
				"z": -0.4288253833,
				"element": "C" 
			},
			{
				"x": 0.4619425667,
				"y": 0.5159418568,
				"z": -2.0094440474,
				"element": "C" 
			},
			{
				"x": 3.3141377319,
				"y": -3.0558913387,
				"z": -0.3414963965,
				"element": "C" 
			},
			{
				"x": 3.4361609248,
				"y": -3.9757736537,
				"z": 0.6543364365,
				"element": "O" 
			},
			{
				"x": 4.1248881338,
				"y": -3.0041158651,
				"z": -1.2343375425,
				"element": "O" 
			},
			{
				"x": 0.6180859023,
				"y": -3.6560052228,
				"z": 1.8820760215,
				"element": "H" 
			},
			{
				"x": 0.1389192738,
				"y": -2.0987296209,
				"z": 2.5523827708,
				"element": "H" 
			},
			{
				"x": 1.8339688079,
				"y": -2.6015569858,
				"z": 2.6435364798,
				"element": "H" 
			},
			{
				"x": -2.0177847053,
				"y": 1.5531680912,
				"z": 0.2363692039,
				"element": "H" 
			},
			{
				"x": -2.1331223798,
				"y": 0.2654586749,
				"z": -0.9579816193,
				"element": "H" 
			},
			{
				"x": -1.849301422,
				"y": 1.7717918495,
				"z": -2.9051656066,
				"element": "H" 
			},
			{
				"x": -1.8003176439,
				"y": 3.1609321506,
				"z": -1.8081108059,
				"element": "H" 
			},
			{
				"x": -0.4975367633,
				"y": 2.9148491164,
				"z": -2.9790737872,
				"element": "H" 
			},
			{
				"x": -0.1266563761,
				"y": 3.235471839,
				"z": 0.1122046021,
				"element": "H" 
			},
			{
				"x": 1.0787975743,
				"y": 1.9574780187,
				"z": 0.3081175986,
				"element": "H" 
			},
			{
				"x": 1.1732819192,
				"y": 3.0564665355,
				"z": -1.0748436952,
				"element": "H" 
			},
			{
				"x": 1.3180149398,
				"y": 0.9944152946,
				"z": -2.4983001706,
				"element": "H" 
			},
			{
				"x": -0.1276858549,
				"y": 0.0418961437,
				"z": -2.8079180883,
				"element": "H" 
			},
			{
				"x": 2.6845565001,
				"y": -3.9415081753,
				"z": 1.2618714209,
				"element": "H" 
			}
		],
		 "valence_orbital": [ 
			{
				"type": "occ",
				"energy": -0.31571,
				"method": "rhf"
			},
			{
				"type": "occ",
				"energy": -0.29474,
				"method": "rhf"
			},
			{
				"type": "occ",
				"energy": -0.27659,
				"method": "rhf"
			},
			{
				"type": "occ",
				"energy": -0.25453,
				"method": "rhf"
			},
			{
				"type": "occ",
				"energy": -0.24947,
				"method": "rhf"
			},
			{
				"type": "unocc",
				"energy": -0.05117,
				"method": "rhf"
			},
			{
				"type": "unocc",
				"energy": -0.04921,
				"method": "rhf"
			},
			{
				"type": "unocc",
				"energy": 0.05326,
				"method": "rhf"
			},
			{
				"type": "unocc",
				"energy": 0.06002,
				"method": "rhf"
			},
			{
				"type": "unocc",
				"energy": 0.07335,
				"method": "rhf"
			}
		],
		"cosmo_sigma_profile": { 
			"-0.025": 0.0,
			"-0.024": 0.0,
			"-0.023": 0.0,
			"-0.022": 0.0,
			"-0.021": 0.0,
			"-0.02": 0.0,
			"-0.019": 0.0,
			"-0.018": 0.0,
			"-0.017": 0.0,
			"-0.016": 0.0570731739562,
			"-0.015": 1.1418593812,
			"-0.014": 1.12704003642,
			"-0.013": 1.20827790501,
			"-0.012": 1.46608678284,
			"-0.011": 2.22336861005,
			"-0.01": 1.54455304719,
			"-0.009": 1.4214993413,
			"-0.008": 1.73111921272,
			"-0.007": 3.51833016451,
			"-0.006": 12.9367370952,
			"-0.005": 13.7237983634,
			"-0.004": 20.9366135822,
			"-0.003": 31.628390802,
			"-0.002": 27.6767253154,
			"-0.001": 26.9330267823,
			"0.0": 21.9997894413,
			"0.001": 15.4120002963,
			"0.002": 5.39891570988,
			"0.003": 5.15207445235,
			"0.004": 3.5636991225,
			"0.005": 4.01696615168,
			"0.006": 4.54599344484,
			"0.007": 5.4632977397,
			"0.008": 4.11875024643,
			"0.009": 5.26879971237,
			"0.01": 7.59762111947,
			"0.011": 8.34207607904,
			"0.012": 9.44539827195,
			"0.013": 4.14008744122,
			"0.014": 0.396068758215,
			"0.015": 0.0,
			"0.016": 0.0,
			"0.017": 0.0,
			"0.018": 0.0,
			"0.019": 0.0,
			"0.02": 0.0,
			"0.021": 0.0,
			"0.022": 0.0,
			"0.023": 0.0,
			"0.024": 0.0,
			"0.025": 0.0
		}
	}
}
