{
	 "smiles": "CC1=C(C)C2=C(S1)N=CN=C2NN", 
	 "Tm": 482.15, 
	 "num_atms": 23, 
	 "gaussian": { 
		 "optdone": 1, 
		 "sigma_profile": "yes", 
		 "theory": "DFT", 
		 "functional": "B3LYP", 
		 "basiset": "6-31G**", 
		 "properties": { 
			 "R2extent": 3147.7739, 
			 "electric_dipole_moment_norm": 3.40903178923, 
			 "electric_quadrupole_moment_norm": 9.71689680917, 
			 "total_energy": -928.055001944, 
			 "HOMO_LUMO_gap": 0.18139, 
			 "cosmo_polarized_energy": -11.93, 
			 "cosmo_cavitation_energy": 27.48, 
			 "cosmo_dispersion_energy": -21.18, 
			 "cosmo_repulsion_energy": 1.62, 
			 "cosmo_total_nonelectrostatic_energy": 7.92, 
			 "SMD_solvation_energy": 2.06 
		},
		"coords": [
			{
				"x": 2.9453973006,
				"y": 1.4788557083,
				"z": 1.0952546295,
				"element": "C" 
			},
			{
				"x": 2.0742454636,
				"y": 0.7280776298,
				"z": 0.131132755,
				"element": "C" 
			},
			{
				"x": 0.7284237128,
				"y": 0.4778269333,
				"z": 0.1838450527,
				"element": "C" 
			},
			{
				"x": -0.1776554399,
				"y": 0.9332914397,
				"z": 1.2997870615,
				"element": "C" 
			},
			{
				"x": 0.2759479821,
				"y": -0.2879777612,
				"z": -0.9638033101,
				"element": "C" 
			},
			{
				"x": 1.3144733494,
				"y": -0.6018514693,
				"z": -1.8584276545,
				"element": "C" 
			},
			{
				"x": 2.8421220166,
				"y": 0.0456964077,
				"z": -1.3034019261,
				"element": "S" 
			},
			{
				"x": 1.2000255823,
				"y": -1.30488005,
				"z": -2.993558828,
				"element": "N" 
			},
			{
				"x": -0.0402324203,
				"y": -1.7133332548,
				"z": -3.2374106749,
				"element": "C" 
			},
			{
				"x": -1.1362428413,
				"y": -1.4956656777,
				"z": -2.4951946161,
				"element": "N" 
			},
			{
				"x": -0.9981443066,
				"y": -0.7903531477,
				"z": -1.3636589169,
				"element": "C" 
			},
			{
				"x": -2.1362045335,
				"y": -0.6007106718,
				"z": -0.6190855807,
				"element": "N" 
			},
			{
				"x": -3.4130182777,
				"y": -0.944477866,
				"z": -1.1131444858,
				"element": "N" 
			},
			{
				"x": 3.7662807233,
				"y": 0.8527611955,
				"z": 1.4631329728,
				"element": "H" 
			},
			{
				"x": 3.3951457095,
				"y": 2.3604350549,
				"z": 0.6236583144,
				"element": "H" 
			},
			{
				"x": 2.3776322622,
				"y": 1.8227753039,
				"z": 1.9619821206,
				"element": "H" 
			},
			{
				"x": -0.7295020263,
				"y": 0.0924406551,
				"z": 1.7347559309,
				"element": "H" 
			},
			{
				"x": 0.3814944651,
				"y": 1.4037267122,
				"z": 2.1100645569,
				"element": "H" 
			},
			{
				"x": -0.9094496594,
				"y": 1.6750244218,
				"z": 0.9522457011,
				"element": "H" 
			},
			{
				"x": -0.191300723,
				"y": -2.2902231747,
				"z": -4.1478822277,
				"element": "H" 
			},
			{
				"x": -2.1569766365,
				"y": 0.1544857014,
				"z": 0.0460647561,
				"element": "H" 
			},
			{
				"x": -3.4062543049,
				"y": -0.7814007067,
				"z": -2.1211737239,
				"element": "H" 
			},
			{
				"x": -3.5117073982,
				"y": -1.9543233839,
				"z": -1.0143819067,
				"element": "H" 
			}
		],
		 "valence_orbital": [ 
			{
				"type": "occ",
				"energy": -0.27792,
				"method": "rhf"
			},
			{
				"type": "occ",
				"energy": -0.26292,
				"method": "rhf"
			},
			{
				"type": "occ",
				"energy": -0.25265,
				"method": "rhf"
			},
			{
				"type": "occ",
				"energy": -0.2511,
				"method": "rhf"
			},
			{
				"type": "occ",
				"energy": -0.2102,
				"method": "rhf"
			},
			{
				"type": "unocc",
				"energy": -0.02881,
				"method": "rhf"
			},
			{
				"type": "unocc",
				"energy": -0.01048,
				"method": "rhf"
			},
			{
				"type": "unocc",
				"energy": 0.02193,
				"method": "rhf"
			},
			{
				"type": "unocc",
				"energy": 0.03406,
				"method": "rhf"
			},
			{
				"type": "unocc",
				"energy": 0.07274,
				"method": "rhf"
			}
		],
		"cosmo_sigma_profile": { 
			"-0.025": 0.0,
			"-0.024": 0.0,
			"-0.023": 0.0,
			"-0.022": 0.0,
			"-0.021": 0.0,
			"-0.02": 0.0,
			"-0.019": 0.0,
			"-0.018": 0.0,
			"-0.017": 0.0,
			"-0.016": 0.0,
			"-0.015": 0.0,
			"-0.014": 0.0,
			"-0.013": 0.122439445638,
			"-0.012": 1.29317997709,
			"-0.011": 2.50153362674,
			"-0.01": 2.5597140144,
			"-0.009": 4.06449306718,
			"-0.008": 3.03542530685,
			"-0.007": 5.91628931916,
			"-0.006": 7.20444336594,
			"-0.005": 12.166955827,
			"-0.004": 14.6911907967,
			"-0.003": 17.8980832995,
			"-0.002": 15.8270744834,
			"-0.001": 19.8640348384,
			"0.0": 16.207950479,
			"0.001": 18.5862262397,
			"0.002": 18.7504309992,
			"0.003": 16.0008407364,
			"0.004": 12.4871882949,
			"0.005": 7.4075419818,
			"0.006": 2.5941407009,
			"0.007": 2.83695238576,
			"0.008": 3.76924388878,
			"0.009": 2.8280340751,
			"0.01": 1.520972367,
			"0.011": 2.72256282383,
			"0.012": 2.27144723241,
			"0.013": 1.42870879805,
			"0.014": 1.57685809972,
			"0.015": 1.63160799965,
			"0.016": 0.62763571154,
			"0.017": 0.321857155229,
			"0.018": 0.0,
			"0.019": 0.0,
			"0.02": 0.0,
			"0.021": 0.0,
			"0.022": 0.0,
			"0.023": 0.0,
			"0.024": 0.0,
			"0.025": 0.0
		}
	}
}
