{
	 "smiles": "CNCCCC1=CC(=NO1)C1=CC=C(F)C=C1", 
	 "Tm": 420.15, 
	 "num_atms": 32, 
	 "gaussian": { 
		 "optdone": 1, 
		 "sigma_profile": "yes", 
		 "theory": "DFT", 
		 "functional": "B3LYP", 
		 "basiset": "6-31G**", 
		 "properties": { 
			 "R2extent": 7465.7955, 
			 "electric_dipole_moment_norm": 2.27937837798, 
			 "electric_quadrupole_moment_norm": 12.1800916253, 
			 "total_energy": -788.936343921, 
			 "HOMO_LUMO_gap": 0.1834, 
			 "cosmo_polarized_energy": -11.46, 
			 "cosmo_cavitation_energy": 36.41, 
			 "cosmo_dispersion_energy": -25.85, 
			 "cosmo_repulsion_energy": 2.0, 
			 "cosmo_total_nonelectrostatic_energy": 12.56, 
			 "SMD_solvation_energy": 4.08 
		},
		"coords": [
			{
				"x": 4.1166324263,
				"y": 1.0326574537,
				"z": 0.7314519414,
				"element": "C" 
			},
			{
				"x": 4.1548016645,
				"y": -0.4259704027,
				"z": 0.7846914079,
				"element": "N" 
			},
			{
				"x": 2.8647507625,
				"y": -1.0688345753,
				"z": 0.5237704365,
				"element": "C" 
			},
			{
				"x": 2.556377819,
				"y": -1.1237576698,
				"z": -0.9780761583,
				"element": "C" 
			},
			{
				"x": 1.2648896001,
				"y": -1.8981329821,
				"z": -1.3272282335,
				"element": "C" 
			},
			{
				"x": 0.0006115378,
				"y": -1.2431325728,
				"z": -0.8712036168,
				"element": "C" 
			},
			{
				"x": -0.8961935424,
				"y": -0.4132137546,
				"z": -1.474059246,
				"element": "C" 
			},
			{
				"x": -1.8680247389,
				"y": -0.1393823462,
				"z": -0.4611975521,
				"element": "C" 
			},
			{
				"x": -1.5678905031,
				"y": -0.7646768284,
				"z": 0.6630675961,
				"element": "N" 
			},
			{
				"x": -0.388538119,
				"y": -1.462979644,
				"z": 0.4062838781,
				"element": "O" 
			},
			{
				"x": -3.07636328,
				"y": 0.6996447852,
				"z": -0.5453280546,
				"element": "C" 
			},
			{
				"x": -3.9498336893,
				"y": 0.7986472593,
				"z": 0.5522773115,
				"element": "C" 
			},
			{
				"x": -5.0927320071,
				"y": 1.5882126979,
				"z": 0.485405545,
				"element": "C" 
			},
			{
				"x": -5.3613142263,
				"y": 2.2824574018,
				"z": -0.6908429366,
				"element": "C" 
			},
			{
				"x": -6.4687899105,
				"y": 3.0486199347,
				"z": -0.7606364769,
				"element": "F" 
			},
			{
				"x": -4.5211085276,
				"y": 2.2085210613,
				"z": -1.7950366509,
				"element": "C" 
			},
			{
				"x": -3.3786567708,
				"y": 1.4140260508,
				"z": -1.7141014698,
				"element": "C" 
			},
			{
				"x": 3.3306678997,
				"y": 1.4881479648,
				"z": 1.3617121813,
				"element": "H" 
			},
			{
				"x": 3.9495153201,
				"y": 1.3708193229,
				"z": -0.2966493106,
				"element": "H" 
			},
			{
				"x": 5.0844220834,
				"y": 1.4327220532,
				"z": 1.0486593482,
				"element": "H" 
			},
			{
				"x": 4.4772939296,
				"y": -0.7087601662,
				"z": 1.7051913414,
				"element": "H" 
			},
			{
				"x": 2.9203484323,
				"y": -2.0961524989,
				"z": 0.9046706842,
				"element": "H" 
			},
			{
				"x": 2.0312676085,
				"y": -0.5796195431,
				"z": 1.0585045972,
				"element": "H" 
			},
			{
				"x": 3.4009089749,
				"y": -1.6065700372,
				"z": -1.482233664,
				"element": "H" 
			},
			{
				"x": 2.4814449265,
				"y": -0.1095682657,
				"z": -1.3877085396,
				"element": "H" 
			},
			{
				"x": 1.2048299195,
				"y": -2.019188172,
				"z": -2.4135637422,
				"element": "H" 
			},
			{
				"x": 1.3111165535,
				"y": -2.90557517,
				"z": -0.8960494523,
				"element": "H" 
			},
			{
				"x": -0.8698919082,
				"y": -0.0592286849,
				"z": -2.4927548851,
				"element": "H" 
			},
			{
				"x": -3.72053803,
				"y": 0.2476003755,
				"z": 1.4576181864,
				"element": "H" 
			},
			{
				"x": -5.774735334,
				"y": 1.6725556353,
				"z": 1.3245248843,
				"element": "H" 
			},
			{
				"x": -4.7644296526,
				"y": 2.765243227,
				"z": -2.6933151025,
				"element": "H" 
			},
			{
				"x": -2.7184392186,
				"y": 1.3562680903,
				"z": -2.5734442478,
				"element": "H" 
			}
		],
		 "valence_orbital": [ 
			{
				"type": "occ",
				"energy": -0.29872,
				"method": "rhf"
			},
			{
				"type": "occ",
				"energy": -0.26568,
				"method": "rhf"
			},
			{
				"type": "occ",
				"energy": -0.25571,
				"method": "rhf"
			},
			{
				"type": "occ",
				"energy": -0.23309,
				"method": "rhf"
			},
			{
				"type": "occ",
				"energy": -0.21929,
				"method": "rhf"
			},
			{
				"type": "unocc",
				"energy": -0.03589,
				"method": "rhf"
			},
			{
				"type": "unocc",
				"energy": -0.01482,
				"method": "rhf"
			},
			{
				"type": "unocc",
				"energy": 0.01049,
				"method": "rhf"
			},
			{
				"type": "unocc",
				"energy": 0.07897,
				"method": "rhf"
			},
			{
				"type": "unocc",
				"energy": 0.0825,
				"method": "rhf"
			}
		],
		"cosmo_sigma_profile": { 
			"-0.025": 0.0,
			"-0.024": 0.0,
			"-0.023": 0.0,
			"-0.022": 0.0,
			"-0.021": 0.0,
			"-0.02": 0.0,
			"-0.019": 0.0,
			"-0.018": 0.0,
			"-0.017": 0.0,
			"-0.016": 0.0,
			"-0.015": 0.0,
			"-0.014": 0.0,
			"-0.013": 0.0,
			"-0.012": 0.0,
			"-0.011": 0.0,
			"-0.01": 1.22113640859,
			"-0.009": 3.08675552714,
			"-0.008": 4.1599791779,
			"-0.007": 8.42866117163,
			"-0.006": 10.3636227048,
			"-0.005": 15.1814262269,
			"-0.004": 17.9414772864,
			"-0.003": 24.7355690346,
			"-0.002": 25.8242404658,
			"-0.001": 27.7021134642,
			"0.0": 28.5621063313,
			"0.001": 24.7029633445,
			"0.002": 23.8614098583,
			"0.003": 23.2261257323,
			"0.004": 17.4076120063,
			"0.005": 5.55917152067,
			"0.006": 3.87854282323,
			"0.007": 3.20468710297,
			"0.008": 4.94378683891,
			"0.009": 3.64741086629,
			"0.01": 1.90042842316,
			"0.011": 2.20589433523,
			"0.012": 1.79309948394,
			"0.013": 1.95504977294,
			"0.014": 0.925512224037,
			"0.015": 0.433030281108,
			"0.016": 0.609864801041,
			"0.017": 0.352625983002,
			"0.018": 0.466330719884,
			"0.019": 0.0669709320185,
			"0.02": 0.0,
			"0.021": 0.0,
			"0.022": 0.0,
			"0.023": 0.0,
			"0.024": 0.0,
			"0.025": 0.0
		}
	}
}
