{
	 "smiles": "FC1=C(Br)C=C2CCC(=O)NC2=C1", 
	 "Tm": 484.15, 
	 "num_atms": 20, 
	 "gaussian": { 
		 "optdone": 1, 
		 "sigma_profile": "yes", 
		 "theory": "DFT", 
		 "functional": "B3LYP", 
		 "basiset": "6-31G**", 
		 "properties": { 
			 "R2extent": 4211.8255, 
			 "electric_dipole_moment_norm": 1.11589572093, 
			 "electric_quadrupole_moment_norm": 17.3595367911, 
			 "total_energy": -3148.41625812, 
			 "HOMO_LUMO_gap": 0.19608, 
			 "cosmo_polarized_energy": -11.96, 
			 "cosmo_cavitation_energy": 26.6, 
			 "cosmo_dispersion_energy": -20.19, 
			 "cosmo_repulsion_energy": 1.57, 
			 "cosmo_total_nonelectrostatic_energy": 7.99, 
			 "SMD_solvation_energy": 4.09 
		},
		"coords": [
			{
				"x": -2.9227526053,
				"y": -0.5492243041,
				"z": -1.1518059748,
				"element": "F" 
			},
			{
				"x": -1.6288265083,
				"y": -0.2461718779,
				"z": -0.968573196,
				"element": "C" 
			},
			{
				"x": -1.2517023509,
				"y": 1.0605044134,
				"z": -0.6675533499,
				"element": "C" 
			},
			{
				"x": -2.568649041,
				"y": 2.4208359293,
				"z": -0.5167397818,
				"element": "Br" 
			},
			{
				"x": 0.1015410131,
				"y": 1.3468681451,
				"z": -0.4818466194,
				"element": "C" 
			},
			{
				"x": 1.0727271308,
				"y": 0.3545073352,
				"z": -0.5954390184,
				"element": "C" 
			},
			{
				"x": 2.5539179108,
				"y": 0.6273556225,
				"z": -0.4694757069,
				"element": "C" 
			},
			{
				"x": 3.2794025818,
				"y": -0.5699707568,
				"z": 0.1623341691,
				"element": "C" 
			},
			{
				"x": 2.9365085625,
				"y": -1.8868909211,
				"z": -0.5178485599,
				"element": "C" 
			},
			{
				"x": 3.704035505,
				"y": -2.8281292539,
				"z": -0.6199270097,
				"element": "O" 
			},
			{
				"x": 1.6373920185,
				"y": -1.9662761107,
				"z": -0.9946589941,
				"element": "N" 
			},
			{
				"x": 0.6655619557,
				"y": -0.9625917056,
				"z": -0.8851250493,
				"element": "C" 
			},
			{
				"x": -0.6869508407,
				"y": -1.2618457659,
				"z": -1.0734179381,
				"element": "C" 
			},
			{
				"x": 0.397413023,
				"y": 2.365716918,
				"z": -0.2543075804,
				"element": "H" 
			},
			{
				"x": 2.973858676,
				"y": 0.8147210193,
				"z": -1.4683281683,
				"element": "H" 
			},
			{
				"x": 2.7308533055,
				"y": 1.5338793943,
				"z": 0.1171963286,
				"element": "H" 
			},
			{
				"x": 4.3648796392,
				"y": -0.4581309171,
				"z": 0.1327106749,
				"element": "H" 
			},
			{
				"x": 2.989611581,
				"y": -0.6695256827,
				"z": 1.2173746037,
				"element": "H" 
			},
			{
				"x": 1.374442669,
				"y": -2.8732282598,
				"z": -1.3589491343,
				"element": "H" 
			},
			{
				"x": -1.0234642255,
				"y": -2.2701032213,
				"z": -1.291619695,
				"element": "H" 
			}
		],
		 "valence_orbital": [ 
			{
				"type": "occ",
				"energy": -0.29342,
				"method": "rhf"
			},
			{
				"type": "occ",
				"energy": -0.29129,
				"method": "rhf"
			},
			{
				"type": "occ",
				"energy": -0.26483,
				"method": "rhf"
			},
			{
				"type": "occ",
				"energy": -0.2633,
				"method": "rhf"
			},
			{
				"type": "occ",
				"energy": -0.22632,
				"method": "rhf"
			},
			{
				"type": "unocc",
				"energy": -0.03024,
				"method": "rhf"
			},
			{
				"type": "unocc",
				"energy": -0.02249,
				"method": "rhf"
			},
			{
				"type": "unocc",
				"energy": -0.00234,
				"method": "rhf"
			},
			{
				"type": "unocc",
				"energy": 0.02401,
				"method": "rhf"
			},
			{
				"type": "unocc",
				"energy": 0.07818,
				"method": "rhf"
			}
		],
		"cosmo_sigma_profile": { 
			"-0.025": 0.0,
			"-0.024": 0.0,
			"-0.023": 0.0,
			"-0.022": 0.0,
			"-0.021": 0.0,
			"-0.02": 0.0,
			"-0.019": 0.0,
			"-0.018": 0.0,
			"-0.017": 0.0,
			"-0.016": 0.0109150732789,
			"-0.015": 1.03074892132,
			"-0.014": 1.53609309583,
			"-0.013": 1.44901151923,
			"-0.012": 0.848315756227,
			"-0.011": 1.10661412051,
			"-0.01": 1.26387758811,
			"-0.009": 2.06527014552,
			"-0.008": 2.67545614072,
			"-0.007": 4.1246844426,
			"-0.006": 9.32929449351,
			"-0.005": 15.4615095698,
			"-0.004": 15.0789244339,
			"-0.003": 15.4597997373,
			"-0.002": 13.3127251802,
			"-0.001": 13.2018433737,
			"0.0": 15.7592566812,
			"0.001": 19.7030892178,
			"0.002": 20.8939983069,
			"0.003": 14.8360262314,
			"0.004": 19.2736488219,
			"0.005": 7.41889521511,
			"0.006": 1.7372703153,
			"0.007": 1.40850951623,
			"0.008": 1.43671620034,
			"0.009": 1.22608077082,
			"0.01": 0.898803196225,
			"0.011": 2.26619429349,
			"0.012": 3.24199624647,
			"0.013": 5.61458002897,
			"0.014": 1.84704639865,
			"0.015": 0.130629010531,
			"0.016": 0.0,
			"0.017": 0.0,
			"0.018": 0.0,
			"0.019": 0.0,
			"0.02": 0.0,
			"0.021": 0.0,
			"0.022": 0.0,
			"0.023": 0.0,
			"0.024": 0.0,
			"0.025": 0.0
		}
	}
}
