{
	 "smiles": "O=C1OC2=CC=CC=C2N1CCC#N", 
	 "Tm": 392.15, 
	 "num_atms": 22, 
	 "gaussian": { 
		 "optdone": 1, 
		 "sigma_profile": "yes", 
		 "theory": "DFT", 
		 "functional": "B3LYP", 
		 "basiset": "6-31G**", 
		 "properties": { 
			 "R2extent": 3655.132, 
			 "electric_dipole_moment_norm": 4.94390701875, 
			 "electric_quadrupole_moment_norm": 10.2699427691, 
			 "total_energy": -645.838059786, 
			 "HOMO_LUMO_gap": 0.20838, 
			 "cosmo_polarized_energy": -16.69, 
			 "cosmo_cavitation_energy": 27.99, 
			 "cosmo_dispersion_energy": -19.52, 
			 "cosmo_repulsion_energy": 1.52, 
			 "cosmo_total_nonelectrostatic_energy": 10.0, 
			 "SMD_solvation_energy": 7.24 
		},
		"coords": [
			{
				"x": -3.483252297,
				"y": 0.8195252428,
				"z": -1.6630566464,
				"element": "O" 
			},
			{
				"x": -2.2896967028,
				"y": 0.9756467049,
				"z": -1.7337709376,
				"element": "C" 
			},
			{
				"x": -1.6175814681,
				"y": 1.4111313739,
				"z": -2.8655135222,
				"element": "O" 
			},
			{
				"x": -0.2698187175,
				"y": 1.4429214298,
				"z": -2.5749545722,
				"element": "C" 
			},
			{
				"x": 0.766455531,
				"y": 1.8107603332,
				"z": -3.4102940274,
				"element": "C" 
			},
			{
				"x": 2.0594787138,
				"y": 1.7535962359,
				"z": -2.8678066066,
				"element": "C" 
			},
			{
				"x": 2.2751939772,
				"y": 1.3439260957,
				"z": -1.5484180882,
				"element": "C" 
			},
			{
				"x": 1.2122575795,
				"y": 0.9736521672,
				"z": -0.7116161586,
				"element": "C" 
			},
			{
				"x": -0.0654993244,
				"y": 1.0328019003,
				"z": -1.2534160456,
				"element": "C" 
			},
			{
				"x": -1.3384793346,
				"y": 0.7637304652,
				"z": -0.7445155459,
				"element": "N" 
			},
			{
				"x": -1.6950373497,
				"y": 0.2682672425,
				"z": 0.5693498446,
				"element": "C" 
			},
			{
				"x": -1.740768856,
				"y": -1.2781800008,
				"z": 0.6028400561,
				"element": "C" 
			},
			{
				"x": -2.0252313063,
				"y": -1.7822217854,
				"z": 1.9470672638,
				"element": "C" 
			},
			{
				"x": -2.2431079785,
				"y": -2.1546934261,
				"z": 3.0243203863,
				"element": "N" 
			},
			{
				"x": 0.5810840207,
				"y": 2.1261174014,
				"z": -4.4306985872,
				"element": "H" 
			},
			{
				"x": 2.9058193992,
				"y": 2.0327698765,
				"z": -3.4868793824,
				"element": "H" 
			},
			{
				"x": 3.2876834906,
				"y": 1.3097029794,
				"z": -1.1589403401,
				"element": "H" 
			},
			{
				"x": 1.3876750413,
				"y": 0.6569513045,
				"z": 0.3112015576,
				"element": "H" 
			},
			{
				"x": -2.6783858885,
				"y": 0.6708167261,
				"z": 0.8212714135,
				"element": "H" 
			},
			{
				"x": -0.9720091501,
				"y": 0.6480086669,
				"z": 1.2956380187,
				"element": "H" 
			},
			{
				"x": -2.5163355783,
				"y": -1.629461341,
				"z": -0.0860751789,
				"element": "H" 
			},
			{
				"x": -0.7841438017,
				"y": -1.6913695928,
				"z": 0.2639670989,
				"element": "H" 
			}
		],
		 "valence_orbital": [ 
			{
				"type": "occ",
				"energy": -0.33493,
				"method": "rhf"
			},
			{
				"type": "occ",
				"energy": -0.3242,
				"method": "rhf"
			},
			{
				"type": "occ",
				"energy": -0.30303,
				"method": "rhf"
			},
			{
				"type": "occ",
				"energy": -0.26607,
				"method": "rhf"
			},
			{
				"type": "occ",
				"energy": -0.23515,
				"method": "rhf"
			},
			{
				"type": "unocc",
				"energy": -0.02677,
				"method": "rhf"
			},
			{
				"type": "unocc",
				"energy": -0.01081,
				"method": "rhf"
			},
			{
				"type": "unocc",
				"energy": 0.01545,
				"method": "rhf"
			},
			{
				"type": "unocc",
				"energy": 0.02696,
				"method": "rhf"
			},
			{
				"type": "unocc",
				"energy": 0.03423,
				"method": "rhf"
			}
		],
		"cosmo_sigma_profile": { 
			"-0.025": 0.0,
			"-0.024": 0.0,
			"-0.023": 0.0,
			"-0.022": 0.0,
			"-0.021": 0.0,
			"-0.02": 0.0,
			"-0.019": 0.0,
			"-0.018": 0.0,
			"-0.017": 0.0,
			"-0.016": 0.0,
			"-0.015": 0.0,
			"-0.014": 0.0,
			"-0.013": 0.0,
			"-0.012": 0.0,
			"-0.011": 0.0,
			"-0.01": 0.119813643379,
			"-0.009": 4.59233838634,
			"-0.008": 12.5064475469,
			"-0.007": 14.3443981433,
			"-0.006": 19.740391184,
			"-0.005": 18.6503643573,
			"-0.004": 13.773244593,
			"-0.003": 11.9151558746,
			"-0.002": 10.4033368559,
			"-0.001": 10.5945331937,
			"0.0": 9.11255046052,
			"0.001": 11.6646220455,
			"0.002": 11.2100395365,
			"0.003": 11.3904336576,
			"0.004": 12.9029277548,
			"0.005": 7.7180900218,
			"0.006": 5.17079558682,
			"0.007": 6.99578859041,
			"0.008": 5.96240845758,
			"0.009": 5.41302981636,
			"0.01": 5.29625331815,
			"0.011": 7.07889663053,
			"0.012": 6.75856169561,
			"0.013": 2.08897745453,
			"0.014": 0.0697988158698,
			"0.015": 0.0,
			"0.016": 0.0,
			"0.017": 0.0,
			"0.018": 0.0,
			"0.019": 0.0,
			"0.02": 0.0,
			"0.021": 0.0,
			"0.022": 0.0,
			"0.023": 0.0,
			"0.024": 0.0,
			"0.025": 0.0
		}
	}
}
