{
	 "smiles": "NS(=O)(=O)C1=CC(Br)=CN=C1", 
	 "Tm": 473.15, 
	 "num_atms": 16, 
	 "gaussian": { 
		 "optdone": 1, 
		 "sigma_profile": "yes", 
		 "theory": "DFT", 
		 "functional": "B3LYP", 
		 "basiset": "6-31G**", 
		 "properties": { 
			 "R2extent": 3552.6323, 
			 "electric_dipole_moment_norm": 4.43751033576, 
			 "electric_quadrupole_moment_norm": 14.9936168358, 
			 "total_energy": -3423.00179027, 
			 "HOMO_LUMO_gap": 0.20676, 
			 "cosmo_polarized_energy": -18.5, 
			 "cosmo_cavitation_energy": 24.71, 
			 "cosmo_dispersion_energy": -19.12, 
			 "cosmo_repulsion_energy": 1.49, 
			 "cosmo_total_nonelectrostatic_energy": 7.07, 
			 "SMD_solvation_energy": 1.44 
		},
		"coords": [
			{
				"x": 1.4828395636,
				"y": -0.3350914545,
				"z": -2.4721668675,
				"element": "N" 
			},
			{
				"x": 1.6112387009,
				"y": 0.5173628911,
				"z": -1.0384355213,
				"element": "S" 
			},
			{
				"x": 1.6622843344,
				"y": 1.9267881305,
				"z": -1.4146765924,
				"element": "O" 
			},
			{
				"x": 2.6540020032,
				"y": -0.1529489414,
				"z": -0.2663183607,
				"element": "O" 
			},
			{
				"x": 0.0644648637,
				"y": 0.2713537052,
				"z": -0.1446284968,
				"element": "C" 
			},
			{
				"x": -0.0337565273,
				"y": -0.7530922387,
				"z": 0.796818476,
				"element": "C" 
			},
			{
				"x": -1.2571192405,
				"y": -0.9072331624,
				"z": 1.4408170278,
				"element": "C" 
			},
			{
				"x": -1.4991570024,
				"y": -2.2714447884,
				"z": 2.7438264489,
				"element": "Br" 
			},
			{
				"x": -2.3152698893,
				"y": -0.0472550626,
				"z": 1.1294389479,
				"element": "C" 
			},
			{
				"x": -2.2042894101,
				"y": 0.9420506549,
				"z": 0.2380638121,
				"element": "N" 
			},
			{
				"x": -1.0321035465,
				"y": 1.1036657454,
				"z": -0.3850956848,
				"element": "C" 
			},
			{
				"x": 1.4449119445,
				"y": -1.3416873735,
				"z": -2.3538649383,
				"element": "H" 
			},
			{
				"x": 0.7918330366,
				"y": 0.037292764,
				"z": -3.1144910987,
				"element": "H" 
			},
			{
				"x": 0.8187801763,
				"y": -1.3831011509,
				"z": 1.0236703465,
				"element": "H" 
			},
			{
				"x": -3.2766088741,
				"y": -0.1616436198,
				"z": 1.6231982309,
				"element": "H" 
			},
			{
				"x": -0.9527501331,
				"y": 1.9311839011,
				"z": -1.0849557294,
				"element": "H" 
			}
		],
		 "valence_orbital": [ 
			{
				"type": "occ",
				"energy": -0.32062,
				"method": "rhf"
			},
			{
				"type": "occ",
				"energy": -0.31458,
				"method": "rhf"
			},
			{
				"type": "occ",
				"energy": -0.30395,
				"method": "rhf"
			},
			{
				"type": "occ",
				"energy": -0.28366,
				"method": "rhf"
			},
			{
				"type": "occ",
				"energy": -0.27519,
				"method": "rhf"
			},
			{
				"type": "unocc",
				"energy": -0.06843,
				"method": "rhf"
			},
			{
				"type": "unocc",
				"energy": -0.05654,
				"method": "rhf"
			},
			{
				"type": "unocc",
				"energy": -0.01808,
				"method": "rhf"
			},
			{
				"type": "unocc",
				"energy": 0.04072,
				"method": "rhf"
			},
			{
				"type": "unocc",
				"energy": 0.0675,
				"method": "rhf"
			}
		],
		"cosmo_sigma_profile": { 
			"-0.025": 0.0,
			"-0.024": 0.0,
			"-0.023": 0.0,
			"-0.022": 0.0,
			"-0.021": 0.0,
			"-0.02": 0.0,
			"-0.019": 0.0,
			"-0.018": 0.0,
			"-0.017": 0.0,
			"-0.016": 1.29063254763,
			"-0.015": 2.99411632422,
			"-0.014": 2.66085013799,
			"-0.013": 2.71681391132,
			"-0.012": 3.50142137498,
			"-0.011": 2.77362058714,
			"-0.01": 2.17554438523,
			"-0.009": 3.45761136753,
			"-0.008": 6.17578173392,
			"-0.007": 6.51655947867,
			"-0.006": 6.26812298811,
			"-0.005": 6.31653526305,
			"-0.004": 7.72354647364,
			"-0.003": 12.1137714013,
			"-0.002": 17.8810569663,
			"-0.001": 15.3310724851,
			"0.0": 10.2432305497,
			"0.001": 9.40629443529,
			"0.002": 10.5238136119,
			"0.003": 14.6050187649,
			"0.004": 7.58948549778,
			"0.005": 4.60227932156,
			"0.006": 5.69651349983,
			"0.007": 4.53251356077,
			"0.008": 5.1192489882,
			"0.009": 6.63761595271,
			"0.01": 9.64756475832,
			"0.011": 9.288526796,
			"0.012": 2.36535088562,
			"0.013": 0.703246580879,
			"0.014": 0.612378904165,
			"0.015": 0.244059291388,
			"0.016": 0.0,
			"0.017": 0.0,
			"0.018": 0.0,
			"0.019": 0.0,
			"0.02": 0.0,
			"0.021": 0.0,
			"0.022": 0.0,
			"0.023": 0.0,
			"0.024": 0.0,
			"0.025": 0.0
		}
	}
}
