{
	 "smiles": "NC(=S)CC1=CC=C(C=C1)C1=CSN=N1", 
	 "Tm": 443.15, 
	 "num_atms": 24, 
	 "gaussian": { 
		 "optdone": 1, 
		 "sigma_profile": "yes", 
		 "theory": "DFT", 
		 "functional": "B3LYP", 
		 "basiset": "6-31G**", 
		 "properties": { 
			 "R2extent": 6897.0229, 
			 "electric_dipole_moment_norm": 3.49067772932, 
			 "electric_quadrupole_moment_norm": 30.1050237806, 
			 "total_energy": -1347.08901413, 
			 "HOMO_LUMO_gap": 0.13381, 
			 "cosmo_polarized_energy": -19.95, 
			 "cosmo_cavitation_energy": 32.34, 
			 "cosmo_dispersion_energy": -24.38, 
			 "cosmo_repulsion_energy": 1.81, 
			 "cosmo_total_nonelectrostatic_energy": 9.77, 
			 "SMD_solvation_energy": 2.6 
		},
		"coords": [
			{
				"x": -2.2336751445,
				"y": -1.4693326815,
				"z": 2.2277165894,
				"element": "N" 
			},
			{
				"x": -2.5588896062,
				"y": -0.1661601103,
				"z": 2.2140644262,
				"element": "C" 
			},
			{
				"x": -3.3314742286,
				"y": 0.5865383363,
				"z": 3.4807226957,
				"element": "S" 
			},
			{
				"x": -2.223469621,
				"y": 0.5794774705,
				"z": 0.91652907,
				"element": "C" 
			},
			{
				"x": -1.0777169581,
				"y": 0.0144049379,
				"z": 0.1044834829,
				"element": "C" 
			},
			{
				"x": 0.2504243232,
				"y": 0.3450157595,
				"z": 0.4156253925,
				"element": "C" 
			},
			{
				"x": 1.3105258732,
				"y": -0.1862633546,
				"z": -0.3105426678,
				"element": "C" 
			},
			{
				"x": 1.0810297749,
				"y": -1.0712781932,
				"z": -1.3777206339,
				"element": "C" 
			},
			{
				"x": -0.2453658616,
				"y": -1.4073915195,
				"z": -1.6909685334,
				"element": "C" 
			},
			{
				"x": -1.3034512373,
				"y": -0.8699662328,
				"z": -0.9599678312,
				"element": "C" 
			},
			{
				"x": 2.1895989411,
				"y": -1.640217585,
				"z": -2.1628278355,
				"element": "C" 
			},
			{
				"x": 3.5338064524,
				"y": -1.3403442983,
				"z": -2.0924554368,
				"element": "C" 
			},
			{
				"x": 4.3953862706,
				"y": -2.2804535522,
				"z": -3.2184709211,
				"element": "S" 
			},
			{
				"x": 2.9154147156,
				"y": -3.0567578664,
				"z": -3.7599528673,
				"element": "N" 
			},
			{
				"x": 1.9209418951,
				"y": -2.6052831799,
				"z": -3.1162981572,
				"element": "N" 
			},
			{
				"x": -1.7184610369,
				"y": -1.892558399,
				"z": 1.4679252564,
				"element": "H" 
			},
			{
				"x": -2.4500165777,
				"y": -2.0174645594,
				"z": 3.0473730449,
				"element": "H" 
			},
			{
				"x": -2.0353891451,
				"y": 1.6198301521,
				"z": 1.1882632295,
				"element": "H" 
			},
			{
				"x": -3.1422536531,
				"y": 0.5799172306,
				"z": 0.3169144063,
				"element": "H" 
			},
			{
				"x": 0.4528975775,
				"y": 1.0267998396,
				"z": 1.2374025317,
				"element": "H" 
			},
			{
				"x": 2.3248666055,
				"y": 0.0892121338,
				"z": -0.0377782893,
				"element": "H" 
			},
			{
				"x": -0.4364072171,
				"y": -2.0855225276,
				"z": -2.5149976303,
				"element": "H" 
			},
			{
				"x": -2.3234588145,
				"y": -1.1316462058,
				"z": -1.2315678737,
				"element": "H" 
			},
			{
				"x": 4.0187366726,
				"y": -0.6215555946,
				"z": -1.4482714482,
				"element": "H" 
			}
		],
		 "valence_orbital": [ 
			{
				"type": "occ",
				"energy": -0.27456,
				"method": "rhf"
			},
			{
				"type": "occ",
				"energy": -0.27243,
				"method": "rhf"
			},
			{
				"type": "occ",
				"energy": -0.24585,
				"method": "rhf"
			},
			{
				"type": "occ",
				"energy": -0.23074,
				"method": "rhf"
			},
			{
				"type": "occ",
				"energy": -0.20653,
				"method": "rhf"
			},
			{
				"type": "unocc",
				"energy": -0.07272,
				"method": "rhf"
			},
			{
				"type": "unocc",
				"energy": -0.04462,
				"method": "rhf"
			},
			{
				"type": "unocc",
				"energy": -0.03283,
				"method": "rhf"
			},
			{
				"type": "unocc",
				"energy": -0.02211,
				"method": "rhf"
			},
			{
				"type": "unocc",
				"energy": -0.02101,
				"method": "rhf"
			}
		],
		"cosmo_sigma_profile": { 
			"-0.025": 0.0,
			"-0.024": 0.0,
			"-0.023": 0.0,
			"-0.022": 0.0,
			"-0.021": 0.0,
			"-0.02": 0.0,
			"-0.019": 0.0,
			"-0.018": 0.0,
			"-0.017": 0.0,
			"-0.016": 0.0,
			"-0.015": 0.783917093825,
			"-0.014": 1.87901429999,
			"-0.013": 2.14538674132,
			"-0.012": 2.10372250729,
			"-0.011": 4.62306228374,
			"-0.01": 4.09760421473,
			"-0.009": 4.00593660017,
			"-0.008": 4.1196446426,
			"-0.007": 9.25436391875,
			"-0.006": 13.8667885035,
			"-0.005": 15.0065221243,
			"-0.004": 12.7966210494,
			"-0.003": 14.9946576416,
			"-0.002": 16.3303080044,
			"-0.001": 19.3070250347,
			"0.0": 23.9252594343,
			"0.001": 19.888675735,
			"0.002": 14.2161390801,
			"0.003": 13.2159129848,
			"0.004": 12.1010533739,
			"0.005": 6.48652211984,
			"0.006": 4.91946415929,
			"0.007": 6.45860025873,
			"0.008": 7.57822700441,
			"0.009": 9.71906434152,
			"0.01": 9.38891521723,
			"0.011": 5.92625298597,
			"0.012": 4.52168955762,
			"0.013": 1.07303663993,
			"0.014": 0.0,
			"0.015": 0.0,
			"0.016": 0.0,
			"0.017": 0.0,
			"0.018": 0.0,
			"0.019": 0.0,
			"0.02": 0.0,
			"0.021": 0.0,
			"0.022": 0.0,
			"0.023": 0.0,
			"0.024": 0.0,
			"0.025": 0.0
		}
	}
}
