{
	 "smiles": "CC1=C(C=C(C=C1)S(=O)(=O)NC1CCCCC1)C(O)=O", 
	 "Tm": 491.15, 
	 "num_atms": 39, 
	 "gaussian": { 
		 "optdone": 1, 
		 "sigma_profile": "yes", 
		 "theory": "DFT", 
		 "functional": "B3LYP", 
		 "basiset": "6-31G**", 
		 "properties": { 
			 "R2extent": 7672.013, 
			 "electric_dipole_moment_norm": 3.86294015227, 
			 "electric_quadrupole_moment_norm": 20.8435565252, 
			 "total_energy": -1298.74041071, 
			 "HOMO_LUMO_gap": 0.192, 
			 "cosmo_polarized_energy": -17.28, 
			 "cosmo_cavitation_energy": 42.09, 
			 "cosmo_dispersion_energy": -29.77, 
			 "cosmo_repulsion_energy": 2.28, 
			 "cosmo_total_nonelectrostatic_energy": 14.59, 
			 "SMD_solvation_energy": 6.31 
		},
		"coords": [
			{
				"x": -2.0823253887,
				"y": -3.9820939385,
				"z": -2.0293616002,
				"element": "C" 
			},
			{
				"x": -1.0630597439,
				"y": -3.0970928877,
				"z": -1.3563694905,
				"element": "C" 
			},
			{
				"x": -1.0809958664,
				"y": -2.7934000845,
				"z": 0.0305043753,
				"element": "C" 
			},
			{
				"x": -0.0972524249,
				"y": -1.9632146178,
				"z": 0.5838985447,
				"element": "C" 
			},
			{
				"x": 0.8998623432,
				"y": -1.4262359449,
				"z": -0.2245313244,
				"element": "C" 
			},
			{
				"x": 0.9427445784,
				"y": -1.7145945622,
				"z": -1.5867560905,
				"element": "C" 
			},
			{
				"x": -0.0373726979,
				"y": -2.5413380712,
				"z": -2.1323338357,
				"element": "C" 
			},
			{
				"x": 2.1806386572,
				"y": -0.4015493329,
				"z": 0.506273857,
				"element": "S" 
			},
			{
				"x": 3.081187728,
				"y": -0.0187018202,
				"z": -0.5898492041,
				"element": "O" 
			},
			{
				"x": 2.6879861644,
				"y": -1.0604015484,
				"z": 1.7143276009,
				"element": "O" 
			},
			{
				"x": 1.3090665139,
				"y": 0.9231116887,
				"z": 1.073755308,
				"element": "N" 
			},
			{
				"x": 1.121755404,
				"y": 2.1047946323,
				"z": 0.2076152094,
				"element": "C" 
			},
			{
				"x": -0.1505970164,
				"y": 2.8573003882,
				"z": 0.6208316298,
				"element": "C" 
			},
			{
				"x": -0.5042831243,
				"y": 3.9541292256,
				"z": -0.4146339313,
				"element": "C" 
			},
			{
				"x": 0.7447670179,
				"y": 4.5190257376,
				"z": -1.1321972084,
				"element": "C" 
			},
			{
				"x": 1.9683239828,
				"y": 4.5011938995,
				"z": -0.2063619706,
				"element": "C" 
			},
			{
				"x": 2.3440086001,
				"y": 3.0556341239,
				"z": 0.2026253228,
				"element": "C" 
			},
			{
				"x": -2.1352729919,
				"y": -3.3491212207,
				"z": 0.9251169174,
				"element": "C" 
			},
			{
				"x": -2.0003279014,
				"y": -2.9399844354,
				"z": 2.2123898098,
				"element": "O" 
			},
			{
				"x": -3.0394793014,
				"y": -4.0901978286,
				"z": 0.5898192754,
				"element": "O" 
			},
			{
				"x": -2.0916739269,
				"y": -4.9839672726,
				"z": -1.5922560663,
				"element": "H" 
			},
			{
				"x": -1.8635989163,
				"y": -4.0622612708,
				"z": -3.097325018,
				"element": "H" 
			},
			{
				"x": -3.0962849454,
				"y": -3.5940049357,
				"z": -1.901964292,
				"element": "H" 
			},
			{
				"x": -0.1163980241,
				"y": -1.7429572889,
				"z": 1.6436620836,
				"element": "H" 
			},
			{
				"x": 1.7359659424,
				"y": -1.2986969171,
				"z": -2.1981178588,
				"element": "H" 
			},
			{
				"x": -0.0065663555,
				"y": -2.7671623526,
				"z": -3.194225437,
				"element": "H" 
			},
			{
				"x": 1.6480311998,
				"y": 1.1337000931,
				"z": 2.0102086334,
				"element": "H" 
			},
			{
				"x": 0.968345221,
				"y": 1.709379392,
				"z": -0.803017688,
				"element": "H" 
			},
			{
				"x": 0.0169592814,
				"y": 3.3088478766,
				"z": 1.6082310033,
				"element": "H" 
			},
			{
				"x": -0.977169884,
				"y": 2.1502707822,
				"z": 0.7386274058,
				"element": "H" 
			},
			{
				"x": -1.1997784986,
				"y": 3.5491553896,
				"z": -1.1588576499,
				"element": "H" 
			},
			{
				"x": -1.0385846497,
				"y": 4.7639821911,
				"z": 0.095001229,
				"element": "H" 
			},
			{
				"x": 0.5445574301,
				"y": 5.5351087443,
				"z": -1.4892573504,
				"element": "H" 
			},
			{
				"x": 0.9654378777,
				"y": 3.9210579695,
				"z": -2.0261529008,
				"element": "H" 
			},
			{
				"x": 2.8244987719,
				"y": 4.9872724699,
				"z": -0.686128879,
				"element": "H" 
			},
			{
				"x": 1.7417848945,
				"y": 5.0958901988,
				"z": 0.6881260555,
				"element": "H" 
			},
			{
				"x": 2.7846742772,
				"y": 3.0630862207,
				"z": 1.2082295665,
				"element": "H" 
			},
			{
				"x": 3.1058662746,
				"y": 2.6404312342,
				"z": -0.4631537105,
				"element": "H" 
			},
			{
				"x": -2.7261405026,
				"y": -3.3640959273,
				"z": 2.6984076789,
				"element": "H" 
			}
		],
		 "valence_orbital": [ 
			{
				"type": "occ",
				"energy": -0.29617,
				"method": "rhf"
			},
			{
				"type": "occ",
				"energy": -0.28122,
				"method": "rhf"
			},
			{
				"type": "occ",
				"energy": -0.27792,
				"method": "rhf"
			},
			{
				"type": "occ",
				"energy": -0.27691,
				"method": "rhf"
			},
			{
				"type": "occ",
				"energy": -0.25342,
				"method": "rhf"
			},
			{
				"type": "unocc",
				"energy": -0.06142,
				"method": "rhf"
			},
			{
				"type": "unocc",
				"energy": -0.03705,
				"method": "rhf"
			},
			{
				"type": "unocc",
				"energy": 0.03741,
				"method": "rhf"
			},
			{
				"type": "unocc",
				"energy": 0.05815,
				"method": "rhf"
			},
			{
				"type": "unocc",
				"energy": 0.06877,
				"method": "rhf"
			}
		],
		"cosmo_sigma_profile": { 
			"-0.025": 0.0,
			"-0.024": 0.0,
			"-0.023": 0.0,
			"-0.022": 0.0,
			"-0.021": 0.0,
			"-0.02": 0.0,
			"-0.019": 0.083869228708,
			"-0.018": 0.814855500787,
			"-0.017": 0.921631379704,
			"-0.016": 0.714180924283,
			"-0.015": 0.782830095515,
			"-0.014": 0.693518509953,
			"-0.013": 1.60563194463,
			"-0.012": 2.1561587195,
			"-0.011": 1.67640786734,
			"-0.01": 1.62472333991,
			"-0.009": 1.90703149794,
			"-0.008": 2.14283611568,
			"-0.007": 5.17544622548,
			"-0.006": 8.52350347436,
			"-0.005": 10.1454197448,
			"-0.004": 14.3873500283,
			"-0.003": 26.3224609851,
			"-0.002": 44.2364307127,
			"-0.001": 45.0736907846,
			"0.0": 40.7845746351,
			"0.001": 35.8719047194,
			"0.002": 15.9360567773,
			"0.003": 7.18877589251,
			"0.004": 6.18722343087,
			"0.005": 7.12407379759,
			"0.006": 7.14085884604,
			"0.007": 5.64998084551,
			"0.008": 5.3590208781,
			"0.009": 4.68194696122,
			"0.01": 8.38765759977,
			"0.011": 11.321060897,
			"0.012": 5.39005702221,
			"0.013": 0.00823691419484,
			"0.014": 0.0,
			"0.015": 0.0,
			"0.016": 0.0,
			"0.017": 0.0,
			"0.018": 0.0,
			"0.019": 0.0,
			"0.02": 0.0,
			"0.021": 0.0,
			"0.022": 0.0,
			"0.023": 0.0,
			"0.024": 0.0,
			"0.025": 0.0
		}
	}
}
