{
	 "smiles": "ClS(=O)(=O)C1=CN=C(C=C1)C#N", 
	 "Tm": 341.15, 
	 "num_atms": 15, 
	 "gaussian": { 
		 "optdone": 1, 
		 "sigma_profile": "yes", 
		 "theory": "DFT", 
		 "functional": "B3LYP", 
		 "basiset": "6-31G**", 
		 "properties": { 
			 "R2extent": 4451.3123, 
			 "electric_dipole_moment_norm": 2.15599501623, 
			 "electric_quadrupole_moment_norm": 20.7376433463, 
			 "total_energy": -1348.66820366, 
			 "HOMO_LUMO_gap": 0.19183, 
			 "cosmo_polarized_energy": -13.87, 
			 "cosmo_cavitation_energy": 25.14, 
			 "cosmo_dispersion_energy": -18.34, 
			 "cosmo_repulsion_energy": 1.42, 
			 "cosmo_total_nonelectrostatic_energy": 8.22, 
			 "SMD_solvation_energy": 3.11 
		},
		"coords": [
			{
				"x": 4.6965408305,
				"y": -0.7354142514,
				"z": 0.4511031176,
				"element": "Cl" 
			},
			{
				"x": 3.0578406893,
				"y": -1.7865696668,
				"z": 1.2938674173,
				"element": "S" 
			},
			{
				"x": 2.8751336189,
				"y": -1.267946678,
				"z": 2.6415287061,
				"element": "O" 
			},
			{
				"x": 3.2779558678,
				"y": -3.198259015,
				"z": 1.0117929602,
				"element": "O" 
			},
			{
				"x": 1.7163512941,
				"y": -1.1997786751,
				"z": 0.2633742893,
				"element": "C" 
			},
			{
				"x": 0.9896475052,
				"y": -0.0687140788,
				"z": 0.6507315053,
				"element": "C" 
			},
			{
				"x": -0.0284640276,
				"y": 0.3967597127,
				"z": -0.0712644126,
				"element": "N" 
			},
			{
				"x": -0.3438224696,
				"y": -0.2639097388,
				"z": -1.1988608838,
				"element": "C" 
			},
			{
				"x": 0.3242895397,
				"y": -1.4112721631,
				"z": -1.653741895,
				"element": "C" 
			},
			{
				"x": 1.3881569585,
				"y": -1.8939984686,
				"z": -0.898823703,
				"element": "C" 
			},
			{
				"x": -1.4465029823,
				"y": 0.2631071799,
				"z": -1.9664997878,
				"element": "C" 
			},
			{
				"x": -2.3287728204,
				"y": 0.6603900326,
				"z": -2.6092833099,
				"element": "N" 
			},
			{
				"x": 1.2334920959,
				"y": 0.4615658217,
				"z": 1.566873886,
				"element": "H" 
			},
			{
				"x": 0.0111470177,
				"y": -1.9024245558,
				"z": -2.5679367284,
				"element": "H" 
			},
			{
				"x": 1.9401068824,
				"y": -2.7804354555,
				"z": -1.1916611614,
				"element": "H" 
			}
		],
		 "valence_orbital": [ 
			{
				"type": "occ",
				"energy": -0.35754,
				"method": "rhf"
			},
			{
				"type": "occ",
				"energy": -0.34543,
				"method": "rhf"
			},
			{
				"type": "occ",
				"energy": -0.33489,
				"method": "rhf"
			},
			{
				"type": "occ",
				"energy": -0.3164,
				"method": "rhf"
			},
			{
				"type": "occ",
				"energy": -0.31457,
				"method": "rhf"
			},
			{
				"type": "unocc",
				"energy": -0.12274,
				"method": "rhf"
			},
			{
				"type": "unocc",
				"energy": -0.08929,
				"method": "rhf"
			},
			{
				"type": "unocc",
				"energy": -0.07981,
				"method": "rhf"
			},
			{
				"type": "unocc",
				"energy": 0.00464,
				"method": "rhf"
			},
			{
				"type": "unocc",
				"energy": 0.01011,
				"method": "rhf"
			}
		],
		"cosmo_sigma_profile": { 
			"-0.025": 0.0,
			"-0.024": 0.0,
			"-0.023": 0.0,
			"-0.022": 0.0,
			"-0.021": 0.0,
			"-0.02": 0.0,
			"-0.019": 0.0,
			"-0.018": 0.0,
			"-0.017": 0.0,
			"-0.016": 0.0,
			"-0.015": 0.0,
			"-0.014": 0.0,
			"-0.013": 0.0,
			"-0.012": 0.0,
			"-0.011": 2.44064570874,
			"-0.01": 5.65245226457,
			"-0.009": 6.67533625605,
			"-0.008": 6.82987688964,
			"-0.007": 5.69745495569,
			"-0.006": 8.17961760959,
			"-0.005": 13.868406296,
			"-0.004": 15.8633339766,
			"-0.003": 14.4544836401,
			"-0.002": 10.769119094,
			"-0.001": 8.34040155848,
			"0.0": 9.43358309319,
			"0.001": 10.8529055148,
			"0.002": 16.3788180047,
			"0.003": 14.7237832734,
			"0.004": 8.18737134524,
			"0.005": 5.44809697207,
			"0.006": 8.59905026005,
			"0.007": 12.9674132574,
			"0.008": 11.0029963411,
			"0.009": 4.07811178831,
			"0.01": 3.20852868973,
			"0.011": 2.85686115956,
			"0.012": 1.00007009003,
			"0.013": 0.0,
			"0.014": 0.0,
			"0.015": 0.0,
			"0.016": 0.0,
			"0.017": 0.0,
			"0.018": 0.0,
			"0.019": 0.0,
			"0.02": 0.0,
			"0.021": 0.0,
			"0.022": 0.0,
			"0.023": 0.0,
			"0.024": 0.0,
			"0.025": 0.0
		}
	}
}
