{
	 "smiles": "CC(C)(C)C1=CC=C(S1)C(O)=O", 
	 "Tm": 393.15, 
	 "num_atms": 24, 
	 "gaussian": { 
		 "optdone": 1, 
		 "sigma_profile": "yes", 
		 "theory": "DFT", 
		 "functional": "B3LYP", 
		 "basiset": "6-31G**", 
		 "properties": { 
			 "R2extent": 3476.4725, 
			 "electric_dipole_moment_norm": 2.92016532066, 
			 "electric_quadrupole_moment_norm": 8.47415480387, 
			 "total_energy": -898.844650082, 
			 "HOMO_LUMO_gap": 0.18636, 
			 "cosmo_polarized_energy": -9.7, 
			 "cosmo_cavitation_energy": 28.35, 
			 "cosmo_dispersion_energy": -20.65, 
			 "cosmo_repulsion_energy": 1.59, 
			 "cosmo_total_nonelectrostatic_energy": 9.3, 
			 "SMD_solvation_energy": 6.06 
		},
		"coords": [
			{
				"x": 2.3249131415,
				"y": -0.5925142225,
				"z": -1.3303383496,
				"element": "C" 
			},
			{
				"x": 1.2320181246,
				"y": -0.3459297005,
				"z": -2.3980110295,
				"element": "C" 
			},
			{
				"x": 1.392177548,
				"y": 1.0817470347,
				"z": -2.9735526116,
				"element": "C" 
			},
			{
				"x": 1.4103534996,
				"y": -1.36641168,
				"z": -3.5390798198,
				"element": "C" 
			},
			{
				"x": -0.1473623739,
				"y": -0.4989865048,
				"z": -1.7709245189,
				"element": "C" 
			},
			{
				"x": -1.1527355906,
				"y": -1.383462376,
				"z": -2.0989701523,
				"element": "C" 
			},
			{
				"x": -2.3167063427,
				"y": -1.2459292263,
				"z": -1.2987901323,
				"element": "C" 
			},
			{
				"x": -2.2001008327,
				"y": -0.2524146387,
				"z": -0.3555313261,
				"element": "C" 
			},
			{
				"x": -0.6446995155,
				"y": 0.5269159608,
				"z": -0.4464763761,
				"element": "S" 
			},
			{
				"x": -3.1678487989,
				"y": 0.1940764225,
				"z": 0.647142139,
				"element": "C" 
			},
			{
				"x": -4.3296121559,
				"y": -0.5086736884,
				"z": 0.5915860936,
				"element": "O" 
			},
			{
				"x": -2.9826647165,
				"y": 1.0890022171,
				"z": 1.4509162897,
				"element": "O" 
			},
			{
				"x": 2.2344653576,
				"y": -1.5948499942,
				"z": -0.9002356285,
				"element": "H" 
			},
			{
				"x": 2.2581991832,
				"y": 0.1315507931,
				"z": -0.51250012,
				"element": "H" 
			},
			{
				"x": 3.3193386608,
				"y": -0.5007392152,
				"z": -1.780516176,
				"element": "H" 
			},
			{
				"x": 0.6288412298,
				"y": 1.2878533834,
				"z": -3.7303143561,
				"element": "H" 
			},
			{
				"x": 2.3769159468,
				"y": 1.1916960019,
				"z": -3.4406264564,
				"element": "H" 
			},
			{
				"x": 1.3044007799,
				"y": 1.8423305395,
				"z": -2.1916355205,
				"element": "H" 
			},
			{
				"x": 1.325659361,
				"y": -2.3954436539,
				"z": -3.1756403418,
				"element": "H" 
			},
			{
				"x": 0.669426993,
				"y": -1.2181090415,
				"z": -4.3310304213,
				"element": "H" 
			},
			{
				"x": 2.4032743712,
				"y": -1.2504132777,
				"z": -3.9847371618,
				"element": "H" 
			},
			{
				"x": -1.0630529198,
				"y": -2.1145989695,
				"z": -2.8926513391,
				"element": "H" 
			},
			{
				"x": -3.2105094895,
				"y": -1.8489499498,
				"z": -1.4042605691,
				"element": "H" 
			},
			{
				"x": -4.892091461,
				"y": -0.1352462141,
				"z": 1.2897778847,
				"element": "H" 
			}
		],
		 "valence_orbital": [ 
			{
				"type": "occ",
				"energy": -0.32737,
				"method": "rhf"
			},
			{
				"type": "occ",
				"energy": -0.31453,
				"method": "rhf"
			},
			{
				"type": "occ",
				"energy": -0.275,
				"method": "rhf"
			},
			{
				"type": "occ",
				"energy": -0.2564,
				"method": "rhf"
			},
			{
				"type": "occ",
				"energy": -0.23737,
				"method": "rhf"
			},
			{
				"type": "unocc",
				"energy": -0.05101,
				"method": "rhf"
			},
			{
				"type": "unocc",
				"energy": 0.02828,
				"method": "rhf"
			},
			{
				"type": "unocc",
				"energy": 0.036,
				"method": "rhf"
			},
			{
				"type": "unocc",
				"energy": 0.08024,
				"method": "rhf"
			},
			{
				"type": "unocc",
				"energy": 0.08203,
				"method": "rhf"
			}
		],
		"cosmo_sigma_profile": { 
			"-0.025": 0.0,
			"-0.024": 0.0,
			"-0.023": 0.0,
			"-0.022": 0.0,
			"-0.021": 0.0,
			"-0.02": 0.0,
			"-0.019": 0.0195732682255,
			"-0.018": 0.739214558122,
			"-0.017": 1.14131902945,
			"-0.016": 0.572415224257,
			"-0.015": 0.530271623032,
			"-0.014": 1.04249403701,
			"-0.013": 0.604179580592,
			"-0.012": 0.764061641202,
			"-0.011": 0.810324762861,
			"-0.01": 0.708316321863,
			"-0.009": 0.420138824078,
			"-0.008": 0.889935251827,
			"-0.007": 2.62478303838,
			"-0.006": 4.08976000331,
			"-0.005": 4.71758653385,
			"-0.004": 12.0334102978,
			"-0.003": 26.5503729344,
			"-0.002": 23.1742158958,
			"-0.001": 21.3707622061,
			"0.0": 28.1824737792,
			"0.001": 24.0747286954,
			"0.002": 16.658786052,
			"0.003": 18.6142467756,
			"0.004": 9.11756741121,
			"0.005": 2.94650165788,
			"0.006": 3.59135498645,
			"0.007": 3.15424532774,
			"0.008": 2.91827995342,
			"0.009": 1.56187442149,
			"0.01": 2.25734099379,
			"0.011": 3.35696648518,
			"0.012": 5.06721252899,
			"0.013": 0.311856890457,
			"0.014": 0.0,
			"0.015": 0.0,
			"0.016": 0.0,
			"0.017": 0.0,
			"0.018": 0.0,
			"0.019": 0.0,
			"0.02": 0.0,
			"0.021": 0.0,
			"0.022": 0.0,
			"0.023": 0.0,
			"0.024": 0.0,
			"0.025": 0.0
		}
	}
}
