{
	 "smiles": "CCC1=C(C=CC=C1)N1C(S)=NC2=C(C=CC=C2)C1=O", 
	 "Tm": 578.15, 
	 "num_atms": 34, 
	 "gaussian": { 
		 "optdone": 1, 
		 "sigma_profile": "yes", 
		 "theory": "DFT", 
		 "functional": "B3LYP", 
		 "basiset": "6-31G**", 
		 "properties": { 
			 "R2extent": 5963.3342, 
			 "electric_dipole_moment_norm": 1.30061994833, 
			 "electric_quadrupole_moment_norm": 15.4578227577, 
			 "total_energy": -1201.08643111, 
			 "HOMO_LUMO_gap": 0.1796, 
			 "cosmo_polarized_energy": -11.77, 
			 "cosmo_cavitation_energy": 38.7, 
			 "cosmo_dispersion_energy": -27.17, 
			 "cosmo_repulsion_energy": 2.04, 
			 "cosmo_total_nonelectrostatic_energy": 13.57, 
			 "SMD_solvation_energy": 5.37 
		},
		"coords": [
			{
				"x": 0.8875737279,
				"y": -2.7538436809,
				"z": -0.6413503626,
				"element": "C" 
			},
			{
				"x": -0.3262617666,
				"y": -1.8973387612,
				"z": -1.050707402,
				"element": "C" 
			},
			{
				"x": 0.0714743548,
				"y": -0.6611752022,
				"z": -1.8282556582,
				"element": "C" 
			},
			{
				"x": 0.1655836177,
				"y": 0.6141771806,
				"z": -1.2461747164,
				"element": "C" 
			},
			{
				"x": 0.5880212959,
				"y": 1.7251900272,
				"z": -1.9823096409,
				"element": "C" 
			},
			{
				"x": 0.9130106934,
				"y": 1.5886905167,
				"z": -3.328659858,
				"element": "C" 
			},
			{
				"x": 0.8139643443,
				"y": 0.3338557416,
				"z": -3.9323338278,
				"element": "C" 
			},
			{
				"x": 0.3994710248,
				"y": -0.768174601,
				"z": -3.1876264811,
				"element": "C" 
			},
			{
				"x": -0.1731428768,
				"y": 0.818004793,
				"z": 0.1474309077,
				"element": "N" 
			},
			{
				"x": -1.4400487988,
				"y": 1.2394426263,
				"z": 0.5243486493,
				"element": "C" 
			},
			{
				"x": -2.6103943181,
				"y": 1.4458333937,
				"z": -0.8103616809,
				"element": "S" 
			},
			{
				"x": -1.818110266,
				"y": 1.4767242404,
				"z": 1.7362714131,
				"element": "N" 
			},
			{
				"x": -0.889299784,
				"y": 1.3046811569,
				"z": 2.7499904974,
				"element": "C" 
			},
			{
				"x": 0.4329490443,
				"y": 0.8807398748,
				"z": 2.4923050385,
				"element": "C" 
			},
			{
				"x": 1.3474089628,
				"y": 0.717760326,
				"z": 3.5459522679,
				"element": "C" 
			},
			{
				"x": 0.9525594018,
				"y": 0.9741792927,
				"z": 4.8496490379,
				"element": "C" 
			},
			{
				"x": -0.3640447484,
				"y": 1.3963078726,
				"z": 5.1119102852,
				"element": "C" 
			},
			{
				"x": -1.27583657,
				"y": 1.5605793899,
				"z": 4.0806378771,
				"element": "C" 
			},
			{
				"x": 0.8501926586,
				"y": 0.6091340266,
				"z": 1.1152045769,
				"element": "C" 
			},
			{
				"x": 1.9604960378,
				"y": 0.2316679663,
				"z": 0.7703412932,
				"element": "O" 
			},
			{
				"x": 1.4321745601,
				"y": -3.1066622611,
				"z": -1.5233027667,
				"element": "H" 
			},
			{
				"x": 0.5631507041,
				"y": -3.6309159863,
				"z": -0.0717681689,
				"element": "H" 
			},
			{
				"x": 1.5813504333,
				"y": -2.1731868376,
				"z": -0.0285059026,
				"element": "H" 
			},
			{
				"x": -1.0038598056,
				"y": -2.4974905178,
				"z": -1.6695507762,
				"element": "H" 
			},
			{
				"x": -0.891312161,
				"y": -1.6161297669,
				"z": -0.1573884703,
				"element": "H" 
			},
			{
				"x": 0.6557308171,
				"y": 2.6893680041,
				"z": -1.4885759624,
				"element": "H" 
			},
			{
				"x": 1.2381637862,
				"y": 2.4528225175,
				"z": -3.8993996756,
				"element": "H" 
			},
			{
				"x": 1.0589047423,
				"y": 0.2137361157,
				"z": -4.9836897899,
				"element": "H" 
			},
			{
				"x": 0.3255399973,
				"y": -1.7419487195,
				"z": -3.6651888446,
				"element": "H" 
			},
			{
				"x": -3.5938988581,
				"y": 1.7833144862,
				"z": 0.0459882257,
				"element": "H" 
			},
			{
				"x": 2.3537036635,
				"y": 0.3906957864,
				"z": 3.3062951075,
				"element": "H" 
			},
			{
				"x": 1.6555013793,
				"y": 0.8500345254,
				"z": 5.6675508353,
				"element": "H" 
			},
			{
				"x": -0.6701055835,
				"y": 1.5961312244,
				"z": 6.1350064031,
				"element": "H" 
			},
			{
				"x": -2.2943097104,
				"y": 1.8853952495,
				"z": 4.2655675693,
				"element": "H" 
			}
		],
		 "valence_orbital": [ 
			{
				"type": "occ",
				"energy": -0.26562,
				"method": "rhf"
			},
			{
				"type": "occ",
				"energy": -0.26081,
				"method": "rhf"
			},
			{
				"type": "occ",
				"energy": -0.25625,
				"method": "rhf"
			},
			{
				"type": "occ",
				"energy": -0.24954,
				"method": "rhf"
			},
			{
				"type": "occ",
				"energy": -0.22306,
				"method": "rhf"
			},
			{
				"type": "unocc",
				"energy": -0.04346,
				"method": "rhf"
			},
			{
				"type": "unocc",
				"energy": -0.03397,
				"method": "rhf"
			},
			{
				"type": "unocc",
				"energy": -0.01963,
				"method": "rhf"
			},
			{
				"type": "unocc",
				"energy": -0.01012,
				"method": "rhf"
			},
			{
				"type": "unocc",
				"energy": 0.01597,
				"method": "rhf"
			}
		],
		"cosmo_sigma_profile": { 
			"-0.025": 0.0,
			"-0.024": 0.0,
			"-0.023": 0.0,
			"-0.022": 0.0,
			"-0.021": 0.0,
			"-0.02": 0.0,
			"-0.019": 0.0,
			"-0.018": 0.0,
			"-0.017": 0.0,
			"-0.016": 0.0,
			"-0.015": 0.0,
			"-0.014": 0.0,
			"-0.013": 0.0,
			"-0.012": 0.427732120406,
			"-0.011": 1.26392611448,
			"-0.01": 1.09994676777,
			"-0.009": 1.27435694578,
			"-0.008": 1.22420854485,
			"-0.007": 5.81460123152,
			"-0.006": 17.9672845994,
			"-0.005": 21.8849900292,
			"-0.004": 25.813678308,
			"-0.003": 23.0594568102,
			"-0.002": 21.4869966028,
			"-0.001": 23.3644804024,
			"0.0": 25.0289784421,
			"0.001": 28.6377844128,
			"0.002": 25.8858691367,
			"0.003": 27.9478593499,
			"0.004": 22.6623110149,
			"0.005": 9.52054546104,
			"0.006": 5.97652442912,
			"0.007": 3.51819223613,
			"0.008": 2.49667282702,
			"0.009": 3.57327240108,
			"0.01": 2.80806465493,
			"0.011": 3.41640875848,
			"0.012": 3.94137450466,
			"0.013": 1.55966846242,
			"0.014": 0.0,
			"0.015": 0.0,
			"0.016": 0.0,
			"0.017": 0.0,
			"0.018": 0.0,
			"0.019": 0.0,
			"0.02": 0.0,
			"0.021": 0.0,
			"0.022": 0.0,
			"0.023": 0.0,
			"0.024": 0.0,
			"0.025": 0.0
		}
	}
}
