{
	 "smiles": "CC1(C)CC2(CC(C)(C)C3=C2C=C(O)C(O)=C3)C2=C1C=C(O)C(O)=C2", 
	 "Tm": 573.15, 
	 "num_atms": 49, 
	 "gaussian": { 
		 "optdone": 1, 
		 "sigma_profile": "yes", 
		 "theory": "DFT", 
		 "functional": "B3LYP", 
		 "basiset": "6-31G**", 
		 "properties": { 
			 "R2extent": 9365.8449, 
			 "electric_dipole_moment_norm": 4.42077909536, 
			 "electric_quadrupole_moment_norm": 13.0109011225, 
			 "total_energy": -1115.61369256, 
			 "HOMO_LUMO_gap": 0.19585, 
			 "cosmo_polarized_energy": -18.43, 
			 "cosmo_cavitation_energy": 48.33, 
			 "cosmo_dispersion_energy": -32.55, 
			 "cosmo_repulsion_energy": 2.47, 
			 "cosmo_total_nonelectrostatic_energy": 18.25, 
			 "SMD_solvation_energy": 8.89 
		},
		"coords": [
			{
				"x": -3.6304401282,
				"y": -0.8233342961,
				"z": 1.2406903401,
				"element": "C" 
			},
			{
				"x": -2.0942400358,
				"y": -0.73073301,
				"z": 1.2728967084,
				"element": "C" 
			},
			{
				"x": -1.5778226534,
				"y": -1.362712167,
				"z": 2.5856413146,
				"element": "C" 
			},
			{
				"x": -1.4623111352,
				"y": -1.4062420501,
				"z": 0.0155555713,
				"element": "C" 
			},
			{
				"x": -0.2244818661,
				"y": -0.5522854342,
				"z": -0.4258305282,
				"element": "C" 
			},
			{
				"x": 1.154970243,
				"y": -1.1188058754,
				"z": 0.0573195656,
				"element": "C" 
			},
			{
				"x": 1.8013056629,
				"y": -1.9012585318,
				"z": -1.1283444689,
				"element": "C" 
			},
			{
				"x": 3.3262205071,
				"y": -1.6937196664,
				"z": -1.1666897033,
				"element": "C" 
			},
			{
				"x": 1.5007050628,
				"y": -3.4155322066,
				"z": -1.0482211725,
				"element": "C" 
			},
			{
				"x": 1.0899863699,
				"y": -1.2795209142,
				"z": -2.3238196293,
				"element": "C" 
			},
			{
				"x": -0.0263813307,
				"y": -0.5364256736,
				"z": -1.9364842158,
				"element": "C" 
			},
			{
				"x": -0.8324536073,
				"y": 0.0944792958,
				"z": -2.8887554548,
				"element": "C" 
			},
			{
				"x": -0.5141292435,
				"y": -0.0251221805,
				"z": -4.2388922887,
				"element": "C" 
			},
			{
				"x": -1.2831238021,
				"y": 0.5912644188,
				"z": -5.1827263113,
				"element": "O" 
			},
			{
				"x": 0.6112626256,
				"y": -0.7789790898,
				"z": -4.6274903752,
				"element": "C" 
			},
			{
				"x": 0.8331399027,
				"y": -0.822151331,
				"z": -5.9882626366,
				"element": "O" 
			},
			{
				"x": 1.4125207021,
				"y": -1.406570415,
				"z": -3.6791393203,
				"element": "C" 
			},
			{
				"x": -0.560125067,
				"y": 0.795504526,
				"z": 0.1976311548,
				"element": "C" 
			},
			{
				"x": -1.5874260174,
				"y": 0.7004339414,
				"z": 1.1374436879,
				"element": "C" 
			},
			{
				"x": -2.0124127514,
				"y": 1.829939949,
				"z": 1.8427512214,
				"element": "C" 
			},
			{
				"x": -1.4065613428,
				"y": 3.0591793772,
				"z": 1.5942444918,
				"element": "C" 
			},
			{
				"x": -1.8170437944,
				"y": 4.1738263034,
				"z": 2.2656386763,
				"element": "O" 
			},
			{
				"x": -0.3733689128,
				"y": 3.1504210416,
				"z": 0.6402879755,
				"element": "C" 
			},
			{
				"x": 0.1441057835,
				"y": 4.4179065237,
				"z": 0.4714455962,
				"element": "O" 
			},
			{
				"x": 0.0540711957,
				"y": 2.0262751031,
				"z": -0.0569608267,
				"element": "C" 
			},
			{
				"x": -3.9553764796,
				"y": -1.8702708112,
				"z": 1.2468793022,
				"element": "H" 
			},
			{
				"x": -4.0784964779,
				"y": -0.3350757637,
				"z": 2.1132767737,
				"element": "H" 
			},
			{
				"x": -4.0363880363,
				"y": -0.3463959001,
				"z": 0.3428969243,
				"element": "H" 
			},
			{
				"x": -1.9752345059,
				"y": -0.8290737865,
				"z": 3.4559005953,
				"element": "H" 
			},
			{
				"x": -0.4862373182,
				"y": -1.3264877131,
				"z": 2.6483926324,
				"element": "H" 
			},
			{
				"x": -1.8906752524,
				"y": -2.4108100818,
				"z": 2.6618169026,
				"element": "H" 
			},
			{
				"x": -1.2006361132,
				"y": -2.4533060332,
				"z": 0.1978803272,
				"element": "H" 
			},
			{
				"x": -2.1957271746,
				"y": -1.3966780986,
				"z": -0.7979000748,
				"element": "H" 
			},
			{
				"x": 1.8026397839,
				"y": -0.2750555538,
				"z": 0.3195735649,
				"element": "H" 
			},
			{
				"x": 1.0585217344,
				"y": -1.7373957649,
				"z": 0.954916333,
				"element": "H" 
			},
			{
				"x": 3.7832376067,
				"y": -2.2305441104,
				"z": -2.0060992935,
				"element": "H" 
			},
			{
				"x": 3.7915713196,
				"y": -2.0680265485,
				"z": -0.2475728617,
				"element": "H" 
			},
			{
				"x": 3.5786617016,
				"y": -0.6331870118,
				"z": -1.2676815713,
				"element": "H" 
			},
			{
				"x": 1.9612745353,
				"y": -3.8568550485,
				"z": -0.1565156888,
				"element": "H" 
			},
			{
				"x": 0.425167396,
				"y": -3.6104681685,
				"z": -1.0092274973,
				"element": "H" 
			},
			{
				"x": 1.89884636,
				"y": -3.9385306436,
				"z": -1.9250227023,
				"element": "H" 
			},
			{
				"x": -1.69662655,
				"y": 0.6871011502,
				"z": -2.604586526,
				"element": "H" 
			},
			{
				"x": -0.9001804115,
				"y": 0.3835078424,
				"z": -6.0480420795,
				"element": "H" 
			},
			{
				"x": 1.6054594828,
				"y": -1.3694463635,
				"z": -6.1744512482,
				"element": "H" 
			},
			{
				"x": 2.2794910724,
				"y": -1.9814729776,
				"z": -4.000890239,
				"element": "H" 
			},
			{
				"x": -2.8103790669,
				"y": 1.7870592489,
				"z": 2.5778408078,
				"element": "H" 
			},
			{
				"x": -1.2886771205,
				"y": 4.9175577224,
				"z": 1.9393604103,
				"element": "H" 
			},
			{
				"x": 0.8035901598,
				"y": 4.4072298004,
				"z": -0.2326490369,
				"element": "H" 
			},
			{
				"x": 0.8438069877,
				"y": 2.1117869767,
				"z": -0.8013251267,
				"element": "H" 
			}
		],
		 "valence_orbital": [ 
			{
				"type": "occ",
				"energy": -0.28908,
				"method": "rhf"
			},
			{
				"type": "occ",
				"energy": -0.23444,
				"method": "rhf"
			},
			{
				"type": "occ",
				"energy": -0.22599,
				"method": "rhf"
			},
			{
				"type": "occ",
				"energy": -0.2,
				"method": "rhf"
			},
			{
				"type": "occ",
				"energy": -0.19427,
				"method": "rhf"
			},
			{
				"type": "unocc",
				"energy": 0.00158,
				"method": "rhf"
			},
			{
				"type": "unocc",
				"energy": 0.00847,
				"method": "rhf"
			},
			{
				"type": "unocc",
				"energy": 0.02049,
				"method": "rhf"
			},
			{
				"type": "unocc",
				"energy": 0.03001,
				"method": "rhf"
			},
			{
				"type": "unocc",
				"energy": 0.05498,
				"method": "rhf"
			}
		],
		"cosmo_sigma_profile": { 
			"-0.025": 0.0,
			"-0.024": 0.0,
			"-0.023": 0.0,
			"-0.022": 0.0,
			"-0.021": 0.0,
			"-0.02": 0.0,
			"-0.019": 0.0,
			"-0.018": 1.37069038133,
			"-0.017": 2.09526843062,
			"-0.016": 1.68116830531,
			"-0.015": 2.20840910877,
			"-0.014": 2.90044805753,
			"-0.013": 2.72413006186,
			"-0.012": 2.77535417023,
			"-0.011": 2.8429286569,
			"-0.01": 3.36273141954,
			"-0.009": 4.09829502087,
			"-0.008": 2.96690139889,
			"-0.007": 2.72710174322,
			"-0.006": 4.58391788446,
			"-0.005": 8.24977525415,
			"-0.004": 10.7253977712,
			"-0.003": 22.5834165746,
			"-0.002": 43.6081195232,
			"-0.001": 41.8073538292,
			"0.0": 38.4551314613,
			"0.001": 42.9671583837,
			"0.002": 29.7131009723,
			"0.003": 19.5585698973,
			"0.004": 21.742240618,
			"0.005": 20.7794322324,
			"0.006": 16.0227211527,
			"0.007": 6.35774090541,
			"0.008": 4.99469353469,
			"0.009": 2.95133603434,
			"0.01": 3.18139992571,
			"0.011": 3.59214824402,
			"0.012": 3.69574181768,
			"0.013": 0.149601140642,
			"0.014": 0.0,
			"0.015": 0.0,
			"0.016": 0.0,
			"0.017": 0.0,
			"0.018": 0.0,
			"0.019": 0.0,
			"0.02": 0.0,
			"0.021": 0.0,
			"0.022": 0.0,
			"0.023": 0.0,
			"0.024": 0.0,
			"0.025": 0.0
		}
	}
}
