{
	 "smiles": "OC(=O)C1=CC(OC2=NC=CN=C2)=CC=C1", 
	 "Tm": 386.15, 
	 "num_atms": 24, 
	 "gaussian": { 
		 "optdone": 1, 
		 "sigma_profile": "yes", 
		 "theory": "DFT", 
		 "functional": "B3LYP", 
		 "basiset": "6-31G**", 
		 "properties": { 
			 "R2extent": 5625.55, 
			 "electric_dipole_moment_norm": 4.3276189689, 
			 "electric_quadrupole_moment_norm": 11.59149071, 
			 "total_energy": -759.146996501, 
			 "HOMO_LUMO_gap": 0.18536, 
			 "cosmo_polarized_energy": -19.01, 
			 "cosmo_cavitation_energy": 29.98, 
			 "cosmo_dispersion_energy": -21.82, 
			 "cosmo_repulsion_energy": 1.68, 
			 "cosmo_total_nonelectrostatic_energy": 9.85, 
			 "SMD_solvation_energy": 3.65 
		},
		"coords": [
			{
				"x": 2.2490137582,
				"y": 2.0426791805,
				"z": -1.5845068608,
				"element": "O" 
			},
			{
				"x": 1.5545114974,
				"y": 2.5283809617,
				"z": -0.5224953037,
				"element": "C" 
			},
			{
				"x": 1.4172102775,
				"y": 3.7202611,
				"z": -0.3827460225,
				"element": "O" 
			},
			{
				"x": 0.9879903824,
				"y": 1.521548904,
				"z": 0.4377688737,
				"element": "C" 
			},
			{
				"x": 0.7747551024,
				"y": 0.1807685745,
				"z": 0.0904527709,
				"element": "C" 
			},
			{
				"x": 0.2286923449,
				"y": -0.6958304816,
				"z": 1.0259697296,
				"element": "C" 
			},
			{
				"x": -0.0536658024,
				"y": -1.9822039621,
				"z": 0.5986185198,
				"element": "O" 
			},
			{
				"x": 0.4066640915,
				"y": -3.0677048601,
				"z": 1.2945215701,
				"element": "C" 
			},
			{
				"x": -0.2673129693,
				"y": -4.1855293576,
				"z": 1.0622697217,
				"element": "N" 
			},
			{
				"x": 0.1784278229,
				"y": -5.2843009814,
				"z": 1.6821027772,
				"element": "C" 
			},
			{
				"x": 1.2862313952,
				"y": -5.2600053227,
				"z": 2.5276254587,
				"element": "C" 
			},
			{
				"x": 1.9678973542,
				"y": -4.128095551,
				"z": 2.750411434,
				"element": "N" 
			},
			{
				"x": 1.5346530551,
				"y": -3.0292517388,
				"z": 2.13481017,
				"element": "C" 
			},
			{
				"x": -0.1146006431,
				"y": -0.2548806626,
				"z": 2.3062333538,
				"element": "C" 
			},
			{
				"x": 0.1005558815,
				"y": 1.0817906095,
				"z": 2.6453983844,
				"element": "C" 
			},
			{
				"x": 0.6400376733,
				"y": 1.9706314511,
				"z": 1.7179300245,
				"element": "C" 
			},
			{
				"x": 2.4117364803,
				"y": 1.0953339179,
				"z": -1.4788000575,
				"element": "H" 
			},
			{
				"x": 0.9728541064,
				"y": -0.2028651942,
				"z": -0.9062221641,
				"element": "H" 
			},
			{
				"x": -0.3675102473,
				"y": -6.2066873441,
				"z": 1.4958947839,
				"element": "H" 
			},
			{
				"x": 1.6358108435,
				"y": -6.1596437713,
				"z": 3.0271524758,
				"element": "H" 
			},
			{
				"x": 2.0856981798,
				"y": -2.1086479218,
				"z": 2.3033058852,
				"element": "H" 
			},
			{
				"x": -0.556223927,
				"y": -0.9467421055,
				"z": 3.0158871373,
				"element": "H" 
			},
			{
				"x": -0.1691327748,
				"y": 1.4309592357,
				"z": 3.6372721368,
				"element": "H" 
			},
			{
				"x": 0.7959061175,
				"y": 3.01573532,
				"z": 1.9599452013,
				"element": "H" 
			}
		],
		 "valence_orbital": [ 
			{
				"type": "occ",
				"energy": -0.28858,
				"method": "rhf"
			},
			{
				"type": "occ",
				"energy": -0.28287,
				"method": "rhf"
			},
			{
				"type": "occ",
				"energy": -0.27914,
				"method": "rhf"
			},
			{
				"type": "occ",
				"energy": -0.26705,
				"method": "rhf"
			},
			{
				"type": "occ",
				"energy": -0.25144,
				"method": "rhf"
			},
			{
				"type": "unocc",
				"energy": -0.06608,
				"method": "rhf"
			},
			{
				"type": "unocc",
				"energy": -0.05744,
				"method": "rhf"
			},
			{
				"type": "unocc",
				"energy": -0.03531,
				"method": "rhf"
			},
			{
				"type": "unocc",
				"energy": -0.02154,
				"method": "rhf"
			},
			{
				"type": "unocc",
				"energy": 0.03872,
				"method": "rhf"
			}
		],
		"cosmo_sigma_profile": { 
			"-0.025": 0.0,
			"-0.024": 0.0,
			"-0.023": 0.0,
			"-0.022": 0.0,
			"-0.021": 0.0,
			"-0.02": 0.0,
			"-0.019": 0.596468569264,
			"-0.018": 0.950736391128,
			"-0.017": 0.980198246509,
			"-0.016": 1.14052208203,
			"-0.015": 1.15442305749,
			"-0.014": 0.835856365156,
			"-0.013": 0.802873393311,
			"-0.012": 1.10113906685,
			"-0.011": 1.68299701051,
			"-0.01": 0.933067410497,
			"-0.009": 1.818739292,
			"-0.008": 7.31931025506,
			"-0.007": 12.1818589575,
			"-0.006": 15.4805290144,
			"-0.005": 12.7459522767,
			"-0.004": 13.3384704543,
			"-0.003": 16.1611484278,
			"-0.002": 15.2224653467,
			"-0.001": 16.49696112,
			"0.0": 18.6351116667,
			"0.001": 17.4418815129,
			"0.002": 14.6053499972,
			"0.003": 10.0091662759,
			"0.004": 4.63554450147,
			"0.005": 5.39069267837,
			"0.006": 6.13362376533,
			"0.007": 4.62184220054,
			"0.008": 6.42766824493,
			"0.009": 6.70172969978,
			"0.01": 7.81733066745,
			"0.011": 7.51035745304,
			"0.012": 5.75589497466,
			"0.013": 3.1403022991,
			"0.014": 1.83642968296,
			"0.015": 0.39818311261,
			"0.016": 0.0,
			"0.017": 0.0,
			"0.018": 0.0,
			"0.019": 0.0,
			"0.02": 0.0,
			"0.021": 0.0,
			"0.022": 0.0,
			"0.023": 0.0,
			"0.024": 0.0,
			"0.025": 0.0
		}
	}
}
