{
	 "smiles": "CN1C=NC=C1C#N", 
	 "Tm": 322.15, 
	 "num_atms": 13, 
	 "gaussian": { 
		 "optdone": 1, 
		 "sigma_profile": "yes", 
		 "theory": "DFT", 
		 "functional": "B3LYP", 
		 "basiset": "6-31G**", 
		 "properties": { 
			 "R2extent": 1265.1024, 
			 "electric_dipole_moment_norm": 3.95053695211, 
			 "electric_quadrupole_moment_norm": 10.299616321, 
			 "total_energy": -357.771806549, 
			 "HOMO_LUMO_gap": 0.21389, 
			 "cosmo_polarized_energy": -12.63, 
			 "cosmo_cavitation_energy": 18.38, 
			 "cosmo_dispersion_energy": -12.93, 
			 "cosmo_repulsion_energy": 1.07, 
			 "cosmo_total_nonelectrostatic_energy": 6.52, 
			 "SMD_solvation_energy": 3.62 
		},
		"coords": [
			{
				"x": -0.7028612677,
				"y": 1.0433852269,
				"z": 0.1347093867,
				"element": "C" 
			},
			{
				"x": 0.4461528122,
				"y": 0.4344945417,
				"z": -0.5204124525,
				"element": "N" 
			},
			{
				"x": 0.4393712114,
				"y": -0.4221631849,
				"z": -1.5761639674,
				"element": "C" 
			},
			{
				"x": 1.6532883688,
				"y": -0.7989412483,
				"z": -1.94006935,
				"element": "N" 
			},
			{
				"x": 2.4985192588,
				"y": -0.1602575132,
				"z": -1.0833150925,
				"element": "C" 
			},
			{
				"x": 1.7833331003,
				"y": 0.6171750265,
				"z": -0.185038198,
				"element": "C" 
			},
			{
				"x": 2.1975179988,
				"y": 1.4519818635,
				"z": 0.8773545231,
				"element": "C" 
			},
			{
				"x": 2.5344086594,
				"y": 2.1417711775,
				"z": 1.7540050246,
				"element": "N" 
			},
			{
				"x": -1.6100998447,
				"y": 0.6994703214,
				"z": -0.3639123951,
				"element": "H" 
			},
			{
				"x": -0.6490678188,
				"y": 2.1331175805,
				"z": 0.0682359165,
				"element": "H" 
			},
			{
				"x": -0.7416118059,
				"y": 0.7537341484,
				"z": 1.18800579,
				"element": "H" 
			},
			{
				"x": -0.4840670827,
				"y": -0.7390320048,
				"z": -2.042734867,
				"element": "H" 
			},
			{
				"x": 3.5721164101,
				"y": -0.2753359354,
				"z": -1.1362643184,
				"element": "H" 
			}
		],
		 "valence_orbital": [ 
			{
				"type": "occ",
				"energy": -0.36248,
				"method": "rhf"
			},
			{
				"type": "occ",
				"energy": -0.34698,
				"method": "rhf"
			},
			{
				"type": "occ",
				"energy": -0.29465,
				"method": "rhf"
			},
			{
				"type": "occ",
				"energy": -0.28816,
				"method": "rhf"
			},
			{
				"type": "occ",
				"energy": -0.24966,
				"method": "rhf"
			},
			{
				"type": "unocc",
				"energy": -0.03577,
				"method": "rhf"
			},
			{
				"type": "unocc",
				"energy": 0.01128,
				"method": "rhf"
			},
			{
				"type": "unocc",
				"energy": 0.03213,
				"method": "rhf"
			},
			{
				"type": "unocc",
				"energy": 0.07745,
				"method": "rhf"
			},
			{
				"type": "unocc",
				"energy": 0.10755,
				"method": "rhf"
			}
		],
		"cosmo_sigma_profile": { 
			"-0.025": 0.0,
			"-0.024": 0.0,
			"-0.023": 0.0,
			"-0.022": 0.0,
			"-0.021": 0.0,
			"-0.02": 0.0,
			"-0.019": 0.0,
			"-0.018": 0.0,
			"-0.017": 0.0,
			"-0.016": 0.0,
			"-0.015": 0.0,
			"-0.014": 0.0,
			"-0.013": 0.0,
			"-0.012": 0.0,
			"-0.011": 0.622982745295,
			"-0.01": 3.26355726675,
			"-0.009": 3.46225126456,
			"-0.008": 6.03106053565,
			"-0.007": 10.3241469309,
			"-0.006": 10.1357542297,
			"-0.005": 11.6873500686,
			"-0.004": 12.5013690909,
			"-0.003": 8.02030483917,
			"-0.002": 6.60445840137,
			"-0.001": 9.13914294129,
			"0.0": 8.18257360414,
			"0.001": 6.73643929742,
			"0.002": 5.03387256076,
			"0.003": 4.52912651055,
			"0.004": 4.01701011107,
			"0.005": 4.25844465052,
			"0.006": 3.00937881457,
			"0.007": 4.69273002353,
			"0.008": 4.72816185273,
			"0.009": 4.57941259965,
			"0.01": 4.17376159053,
			"0.011": 3.72395691229,
			"0.012": 3.67528014531,
			"0.013": 2.24342475422,
			"0.014": 1.11636657427,
			"0.015": 1.02322754468,
			"0.016": 0.90971239317,
			"0.017": 0.285056614326,
			"0.018": 0.0,
			"0.019": 0.0,
			"0.02": 0.0,
			"0.021": 0.0,
			"0.022": 0.0,
			"0.023": 0.0,
			"0.024": 0.0,
			"0.025": 0.0
		}
	}
}
