{
	 "smiles": "CS(=O)(=O)NCC1=CC(CN)=CC=C1", 
	 "Tm": 344.15, 
	 "num_atms": 28, 
	 "gaussian": { 
		 "optdone": 1, 
		 "sigma_profile": "yes", 
		 "theory": "DFT", 
		 "functional": "B3LYP", 
		 "basiset": "6-31G**", 
		 "properties": { 
			 "R2extent": 4979.369, 
			 "electric_dipole_moment_norm": 3.07372376931, 
			 "electric_quadrupole_moment_norm": 27.8013743108, 
			 "total_energy": -1009.46660059, 
			 "HOMO_LUMO_gap": 0.21596, 
			 "cosmo_polarized_energy": -19.03, 
			 "cosmo_cavitation_energy": 33.2, 
			 "cosmo_dispersion_energy": -23.74, 
			 "cosmo_repulsion_energy": 1.86, 
			 "cosmo_total_nonelectrostatic_energy": 11.33, 
			 "SMD_solvation_energy": 3.26 
		},
		"coords": [
			{
				"x": -0.106907659,
				"y": -3.291348808,
				"z": 3.4262785119,
				"element": "C" 
			},
			{
				"x": 0.8028591112,
				"y": -3.476869245,
				"z": 1.8848869063,
				"element": "S" 
			},
			{
				"x": 0.2035739017,
				"y": -4.59707564,
				"z": 1.1510624099,
				"element": "O" 
			},
			{
				"x": 2.2374673459,
				"y": -3.4415200309,
				"z": 2.1836870715,
				"element": "O" 
			},
			{
				"x": 0.4649049826,
				"y": -2.0093754257,
				"z": 1.1019444293,
				"element": "N" 
			},
			{
				"x": -0.6104603252,
				"y": -2.0072843392,
				"z": 0.0869676769,
				"element": "C" 
			},
			{
				"x": -0.7514300054,
				"y": -0.6261744012,
				"z": -0.5174374706,
				"element": "C" 
			},
			{
				"x": -0.9619350436,
				"y": 0.4941868663,
				"z": 0.2976981476,
				"element": "C" 
			},
			{
				"x": -1.115242637,
				"y": 1.7743002821,
				"z": -0.2449167367,
				"element": "C" 
			},
			{
				"x": -1.279412298,
				"y": 2.985771852,
				"z": 0.6581815952,
				"element": "C" 
			},
			{
				"x": -0.0296581175,
				"y": 3.6584632767,
				"z": 1.0484986719,
				"element": "N" 
			},
			{
				"x": -1.0631740019,
				"y": 1.920518882,
				"z": -1.639498854,
				"element": "C" 
			},
			{
				"x": -0.8522275305,
				"y": 0.8163683251,
				"z": -2.4628266955,
				"element": "C" 
			},
			{
				"x": -0.6915270879,
				"y": -0.4537059114,
				"z": -1.9040641575,
				"element": "C" 
			},
			{
				"x": 0.2924674426,
				"y": -2.433214141,
				"z": 3.9662061395,
				"element": "H" 
			},
			{
				"x": 0.0414455566,
				"y": -4.2116392623,
				"z": 3.9939347594,
				"element": "H" 
			},
			{
				"x": -1.1662103245,
				"y": -3.1568269025,
				"z": 3.2022148288,
				"element": "H" 
			},
			{
				"x": 1.3504704843,
				"y": -1.6600004374,
				"z": 0.7402599401,
				"element": "H" 
			},
			{
				"x": -1.5390079207,
				"y": -2.2946417179,
				"z": 0.5938360093,
				"element": "H" 
			},
			{
				"x": -0.4344586791,
				"y": -2.7522237171,
				"z": -0.6972118024,
				"element": "H" 
			},
			{
				"x": -1.0040409921,
				"y": 0.3609079113,
				"z": 1.3766192137,
				"element": "H" 
			},
			{
				"x": -1.797822422,
				"y": 2.6912161797,
				"z": 1.5776957466,
				"element": "H" 
			},
			{
				"x": -1.9147975176,
				"y": 3.7296210951,
				"z": 0.1640480843,
				"element": "H" 
			},
			{
				"x": 0.5817439937,
				"y": 2.9882128632,
				"z": 1.5111309743,
				"element": "H" 
			},
			{
				"x": 0.4702721071,
				"y": 3.9515092748,
				"z": 0.2111161478,
				"element": "H" 
			},
			{
				"x": -1.1938231918,
				"y": 2.9067839155,
				"z": -2.0796701506,
				"element": "H" 
			},
			{
				"x": -0.8146070119,
				"y": 0.9409950226,
				"z": -3.5413038993,
				"element": "H" 
			},
			{
				"x": -0.5267621598,
				"y": -1.3141557668,
				"z": -2.5473374978,
				"element": "H" 
			}
		],
		 "valence_orbital": [ 
			{
				"type": "occ",
				"energy": -0.30028,
				"method": "rhf"
			},
			{
				"type": "occ",
				"energy": -0.28016,
				"method": "rhf"
			},
			{
				"type": "occ",
				"energy": -0.26389,
				"method": "rhf"
			},
			{
				"type": "occ",
				"energy": -0.25498,
				"method": "rhf"
			},
			{
				"type": "occ",
				"energy": -0.23555,
				"method": "rhf"
			},
			{
				"type": "unocc",
				"energy": -0.01959,
				"method": "rhf"
			},
			{
				"type": "unocc",
				"energy": -0.01353,
				"method": "rhf"
			},
			{
				"type": "unocc",
				"energy": 0.06265,
				"method": "rhf"
			},
			{
				"type": "unocc",
				"energy": 0.07441,
				"method": "rhf"
			},
			{
				"type": "unocc",
				"energy": 0.08153,
				"method": "rhf"
			}
		],
		"cosmo_sigma_profile": { 
			"-0.025": 0.0,
			"-0.024": 0.0,
			"-0.023": 0.0,
			"-0.022": 0.0,
			"-0.021": 0.0,
			"-0.02": 0.0,
			"-0.019": 0.0,
			"-0.018": 0.0,
			"-0.017": 0.0,
			"-0.016": 0.0,
			"-0.015": 0.0,
			"-0.014": 0.435553465291,
			"-0.013": 0.995424567575,
			"-0.012": 0.913612164134,
			"-0.011": 0.50847216812,
			"-0.01": 1.5277930538,
			"-0.009": 6.02573241508,
			"-0.008": 9.12534020582,
			"-0.007": 10.0026427504,
			"-0.006": 15.0346186878,
			"-0.005": 24.5729384732,
			"-0.004": 24.7088034903,
			"-0.003": 21.6349817088,
			"-0.002": 16.041310791,
			"-0.001": 14.2702506173,
			"0.0": 11.218245786,
			"0.001": 10.4428636519,
			"0.002": 12.0183609989,
			"0.003": 10.244858523,
			"0.004": 9.96707946532,
			"0.005": 10.7868178321,
			"0.006": 8.37429760296,
			"0.007": 3.85204948473,
			"0.008": 3.99043846793,
			"0.009": 3.53063857136,
			"0.01": 5.36063003767,
			"0.011": 12.4739534727,
			"0.012": 8.31340845733,
			"0.013": 0.473486467876,
			"0.014": 0.345289380024,
			"0.015": 0.883709352819,
			"0.016": 0.968803648643,
			"0.017": 0.449734639924,
			"0.018": 0.779847463852,
			"0.019": 0.455578541582,
			"0.02": 0.42172357971,
			"0.021": 0.0,
			"0.022": 0.0,
			"0.023": 0.0,
			"0.024": 0.0,
			"0.025": 0.0
		}
	}
}
