{
	 "smiles": "NC1=CC(=CC=C1)N1CCCC1=O", 
	 "Tm": 380.15, 
	 "num_atms": 25, 
	 "gaussian": { 
		 "optdone": 1, 
		 "sigma_profile": "yes", 
		 "theory": "DFT", 
		 "functional": "B3LYP", 
		 "basiset": "6-31G**", 
		 "properties": { 
			 "R2extent": 3030.5311, 
			 "electric_dipole_moment_norm": 2.7148592376, 
			 "electric_quadrupole_moment_norm": 20.8411199663, 
			 "total_energy": -573.047710836, 
			 "HOMO_LUMO_gap": 0.19081, 
			 "cosmo_polarized_energy": -13.87, 
			 "cosmo_cavitation_energy": 27.4, 
			 "cosmo_dispersion_energy": -20.7, 
			 "cosmo_repulsion_energy": 1.64, 
			 "cosmo_total_nonelectrostatic_energy": 8.34, 
			 "SMD_solvation_energy": 4.5 
		},
		"coords": [
			{
				"x": 2.6780597949,
				"y": 1.4645554463,
				"z": -1.6727634192,
				"element": "N" 
			},
			{
				"x": 1.7985692851,
				"y": 0.5023637036,
				"z": -1.1734471015,
				"element": "C" 
			},
			{
				"x": 0.4432421035,
				"y": 0.8194193731,
				"z": -1.0017017163,
				"element": "C" 
			},
			{
				"x": -0.4642306508,
				"y": -0.154215342,
				"z": -0.5593800839,
				"element": "C" 
			},
			{
				"x": -0.0069303722,
				"y": -1.4560379372,
				"z": -0.2833829643,
				"element": "C" 
			},
			{
				"x": 1.3445407788,
				"y": -1.7556912546,
				"z": -0.4520152826,
				"element": "C" 
			},
			{
				"x": 2.2513791971,
				"y": -0.7978707094,
				"z": -0.8900514492,
				"element": "C" 
			},
			{
				"x": -1.8357827989,
				"y": 0.1535298067,
				"z": -0.3696070078,
				"element": "N" 
			},
			{
				"x": -2.7551598853,
				"y": -0.8212623559,
				"z": 0.2318669434,
				"element": "C" 
			},
			{
				"x": -4.0302511488,
				"y": -0.0094616728,
				"z": 0.5184120473,
				"element": "C" 
			},
			{
				"x": -3.9878641697,
				"y": 1.1019660206,
				"z": -0.5332790946,
				"element": "C" 
			},
			{
				"x": -2.5005390225,
				"y": 1.2849493205,
				"z": -0.8282907908,
				"element": "C" 
			},
			{
				"x": -2.0066539399,
				"y": 2.2515834077,
				"z": -1.3862224265,
				"element": "O" 
			},
			{
				"x": 3.647421785,
				"y": 1.3371589596,
				"z": -1.4177102831,
				"element": "H" 
			},
			{
				"x": 2.3760136742,
				"y": 2.4220286214,
				"z": -1.5575531093,
				"element": "H" 
			},
			{
				"x": 0.0839170923,
				"y": 1.8139015721,
				"z": -1.2266028764,
				"element": "H" 
			},
			{
				"x": -0.6855465747,
				"y": -2.2321946045,
				"z": 0.0459229876,
				"element": "H" 
			},
			{
				"x": 1.6931626409,
				"y": -2.7621022287,
				"z": -0.2369571036,
				"element": "H" 
			},
			{
				"x": 3.300167655,
				"y": -1.0493483955,
				"z": -1.0237617187,
				"element": "H" 
			},
			{
				"x": -2.3190105092,
				"y": -1.2447651849,
				"z": 1.1408734277,
				"element": "H" 
			},
			{
				"x": -2.9470898531,
				"y": -1.6489981356,
				"z": -0.4653890888,
				"element": "H" 
			},
			{
				"x": -4.9281675099,
				"y": -0.6301201543,
				"z": 0.47100136,
				"element": "H" 
			},
			{
				"x": -3.9741010283,
				"y": 0.421524543,
				"z": 1.5231096218,
				"element": "H" 
			},
			{
				"x": -4.4810362942,
				"y": 0.8047738076,
				"z": -1.4675738794,
				"element": "H" 
			},
			{
				"x": -4.4281102494,
				"y": 2.0502133933,
				"z": -0.2185969917,
				"element": "H" 
			}
		],
		 "valence_orbital": [ 
			{
				"type": "occ",
				"energy": -0.31266,
				"method": "rhf"
			},
			{
				"type": "occ",
				"energy": -0.27544,
				"method": "rhf"
			},
			{
				"type": "occ",
				"energy": -0.24335,
				"method": "rhf"
			},
			{
				"type": "occ",
				"energy": -0.21387,
				"method": "rhf"
			},
			{
				"type": "occ",
				"energy": -0.19401,
				"method": "rhf"
			},
			{
				"type": "unocc",
				"energy": -0.0032,
				"method": "rhf"
			},
			{
				"type": "unocc",
				"energy": 0.02033,
				"method": "rhf"
			},
			{
				"type": "unocc",
				"energy": 0.05227,
				"method": "rhf"
			},
			{
				"type": "unocc",
				"energy": 0.08322,
				"method": "rhf"
			},
			{
				"type": "unocc",
				"energy": 0.09017,
				"method": "rhf"
			}
		],
		"cosmo_sigma_profile": { 
			"-0.025": 0.0,
			"-0.024": 0.0,
			"-0.023": 0.0,
			"-0.022": 0.0,
			"-0.021": 0.0,
			"-0.02": 0.0,
			"-0.019": 0.0,
			"-0.018": 0.0,
			"-0.017": 0.0,
			"-0.016": 0.0,
			"-0.015": 0.0,
			"-0.014": 0.0,
			"-0.013": 0.127350782366,
			"-0.012": 2.22410470324,
			"-0.011": 2.36233930967,
			"-0.01": 2.62422691625,
			"-0.009": 3.09916735581,
			"-0.008": 2.66729266241,
			"-0.007": 2.49185885182,
			"-0.006": 7.4444130103,
			"-0.005": 20.3406789354,
			"-0.004": 26.31970434,
			"-0.003": 23.4967811978,
			"-0.002": 15.0903071244,
			"-0.001": 14.5952645954,
			"0.0": 8.93822802883,
			"0.001": 6.56524458524,
			"0.002": 8.26453198094,
			"0.003": 7.87931169135,
			"0.004": 8.72482777554,
			"0.005": 10.1055033469,
			"0.006": 11.6822998007,
			"0.007": 10.3713951379,
			"0.008": 3.07742484193,
			"0.009": 2.38643602019,
			"0.01": 2.26898380921,
			"0.011": 2.78804162338,
			"0.012": 3.29400426633,
			"0.013": 4.17184995411,
			"0.014": 2.70401592244,
			"0.015": 0.350780283124,
			"0.016": 0.0,
			"0.017": 0.0,
			"0.018": 0.0,
			"0.019": 0.0,
			"0.02": 0.0,
			"0.021": 0.0,
			"0.022": 0.0,
			"0.023": 0.0,
			"0.024": 0.0,
			"0.025": 0.0
		}
	}
}
