{
	 "smiles": "CC1=C(N)C=C(Cl)C(=C1)C(C#N)C1=CC=C(Cl)C=C1", 
	 "Tm": 423.15, 
	 "num_atms": 31, 
	 "gaussian": { 
		 "optdone": 1, 
		 "sigma_profile": "yes", 
		 "theory": "DFT", 
		 "functional": "B3LYP", 
		 "basiset": "6-31G**", 
		 "properties": { 
			 "R2extent": 7374.5592, 
			 "electric_dipole_moment_norm": 5.82636628526, 
			 "electric_quadrupole_moment_norm": 18.894932532, 
			 "total_energy": -1608.71103, 
			 "HOMO_LUMO_gap": 0.19334, 
			 "cosmo_polarized_energy": -15.08, 
			 "cosmo_cavitation_energy": 39.58, 
			 "cosmo_dispersion_energy": -27.06, 
			 "cosmo_repulsion_energy": 2.11, 
			 "cosmo_total_nonelectrostatic_energy": 14.63, 
			 "SMD_solvation_energy": 7.08 
		},
		"coords": [
			{
				"x": -0.2224344446,
				"y": 2.6378497863,
				"z": 2.4134285966,
				"element": "C" 
			},
			{
				"x": -0.8596113723,
				"y": 1.8905245719,
				"z": 1.2696284776,
				"element": "C" 
			},
			{
				"x": -1.8841231601,
				"y": 2.4970157021,
				"z": 0.5013863367,
				"element": "C" 
			},
			{
				"x": -2.3414190399,
				"y": 3.77042777,
				"z": 0.8189633077,
				"element": "N" 
			},
			{
				"x": -2.4721575625,
				"y": 1.776702718,
				"z": -0.547171223,
				"element": "C" 
			},
			{
				"x": -2.0586136859,
				"y": 0.477165068,
				"z": -0.8278484723,
				"element": "C" 
			},
			{
				"x": -2.8597590088,
				"y": -0.3473430187,
				"z": -2.1705818881,
				"element": "Cl" 
			},
			{
				"x": -1.0477277322,
				"y": -0.1493636667,
				"z": -0.0938328366,
				"element": "C" 
			},
			{
				"x": -0.4724465446,
				"y": 0.5949953299,
				"z": 0.9469853476,
				"element": "C" 
			},
			{
				"x": -0.552374598,
				"y": -1.5690031922,
				"z": -0.38232948,
				"element": "C" 
			},
			{
				"x": -0.7277885482,
				"y": -2.4189359417,
				"z": 0.8065004088,
				"element": "C" 
			},
			{
				"x": -0.8575209071,
				"y": -3.0810616879,
				"z": 1.751270143,
				"element": "N" 
			},
			{
				"x": 0.8913157451,
				"y": -1.5948401481,
				"z": -0.9046557447,
				"element": "C" 
			},
			{
				"x": 1.1557536613,
				"y": -1.0245196696,
				"z": -2.1573370451,
				"element": "C" 
			},
			{
				"x": 2.4465500011,
				"y": -1.0074338546,
				"z": -2.6782126694,
				"element": "C" 
			},
			{
				"x": 3.4872152718,
				"y": -1.5668838959,
				"z": -1.9345745066,
				"element": "C" 
			},
			{
				"x": 5.1204445328,
				"y": -1.5473146662,
				"z": -2.5839515839,
				"element": "Cl" 
			},
			{
				"x": 3.2485523786,
				"y": -2.1413288164,
				"z": -0.6895043018,
				"element": "C" 
			},
			{
				"x": 1.9474457009,
				"y": -2.1534184687,
				"z": -0.1806131127,
				"element": "C" 
			},
			{
				"x": 0.5101023637,
				"y": 2.0141144103,
				"z": 2.9305685073,
				"element": "H" 
			},
			{
				"x": 0.303475769,
				"y": 3.5409762583,
				"z": 2.0725089646,
				"element": "H" 
			},
			{
				"x": -0.9713694031,
				"y": 2.9574726946,
				"z": 3.1484596752,
				"element": "H" 
			},
			{
				"x": -1.6835221525,
				"y": 4.3826406371,
				"z": 1.2786472469,
				"element": "H" 
			},
			{
				"x": -2.875377628,
				"y": 4.2397031063,
				"z": 0.1016109992,
				"element": "H" 
			},
			{
				"x": -3.2594885349,
				"y": 2.2268466805,
				"z": -1.1427796509,
				"element": "H" 
			},
			{
				"x": 0.3139869316,
				"y": 0.1290022556,
				"z": 1.5355201396,
				"element": "H" 
			},
			{
				"x": -1.1950620711,
				"y": -1.9970971024,
				"z": -1.1590235632,
				"element": "H" 
			},
			{
				"x": 0.3452302634,
				"y": -0.5860296227,
				"z": -2.7326579052,
				"element": "H" 
			},
			{
				"x": 2.6461942773,
				"y": -0.5682996041,
				"z": -3.6493481037,
				"element": "H" 
			},
			{
				"x": 4.0649086179,
				"y": -2.5770456146,
				"z": -0.1242745693,
				"element": "H" 
			},
			{
				"x": 1.7611208792,
				"y": -2.6135180184,
				"z": 0.7848185055,
				"element": "H" 
			}
		],
		 "valence_orbital": [ 
			{
				"type": "occ",
				"energy": -0.30891,
				"method": "rhf"
			},
			{
				"type": "occ",
				"energy": -0.26916,
				"method": "rhf"
			},
			{
				"type": "occ",
				"energy": -0.25412,
				"method": "rhf"
			},
			{
				"type": "occ",
				"energy": -0.24875,
				"method": "rhf"
			},
			{
				"type": "occ",
				"energy": -0.21902,
				"method": "rhf"
			},
			{
				"type": "unocc",
				"energy": -0.02568,
				"method": "rhf"
			},
			{
				"type": "unocc",
				"energy": -0.02374,
				"method": "rhf"
			},
			{
				"type": "unocc",
				"energy": -0.01674,
				"method": "rhf"
			},
			{
				"type": "unocc",
				"energy": -0.00701,
				"method": "rhf"
			},
			{
				"type": "unocc",
				"energy": 0.01829,
				"method": "rhf"
			}
		],
		"cosmo_sigma_profile": { 
			"-0.025": 0.0,
			"-0.024": 0.0,
			"-0.023": 0.0,
			"-0.022": 0.0,
			"-0.021": 0.0,
			"-0.02": 0.0,
			"-0.019": 0.0,
			"-0.018": 0.0,
			"-0.017": 0.0,
			"-0.016": 0.0,
			"-0.015": 0.0,
			"-0.014": 0.0,
			"-0.013": 1.16584606345,
			"-0.012": 2.97597460548,
			"-0.011": 2.74652483466,
			"-0.01": 2.99438227869,
			"-0.009": 3.33280562735,
			"-0.008": 5.62626388158,
			"-0.007": 9.02778005822,
			"-0.006": 13.7420307775,
			"-0.005": 17.8678211204,
			"-0.004": 19.7806414989,
			"-0.003": 18.6362611818,
			"-0.002": 19.5597821586,
			"-0.001": 21.3713441434,
			"0.0": 24.02996168,
			"0.001": 25.296983808,
			"0.002": 29.7588999547,
			"0.003": 33.9728063363,
			"0.004": 30.7542319016,
			"0.005": 13.4186242853,
			"0.006": 3.12606946112,
			"0.007": 3.38834685637,
			"0.008": 3.33239369289,
			"0.009": 3.3092013546,
			"0.01": 3.93611784671,
			"0.011": 3.36737794295,
			"0.012": 3.00801439542,
			"0.013": 1.68055556456,
			"0.014": 0.0815555905246,
			"0.015": 0.0,
			"0.016": 0.0,
			"0.017": 0.0,
			"0.018": 0.0,
			"0.019": 0.0,
			"0.02": 0.0,
			"0.021": 0.0,
			"0.022": 0.0,
			"0.023": 0.0,
			"0.024": 0.0,
			"0.025": 0.0
		}
	}
}
