{
	 "smiles": "CC1=C(C=CC=C1)C1=NOC(S)=N1", 
	 "Tm": 424.15, 
	 "num_atms": 21, 
	 "gaussian": { 
		 "optdone": 1, 
		 "sigma_profile": "yes", 
		 "theory": "DFT", 
		 "functional": "B3LYP", 
		 "basiset": "6-31G**", 
		 "properties": { 
			 "R2extent": 3304.1909, 
			 "electric_dipole_moment_norm": 1.87076673319, 
			 "electric_quadrupole_moment_norm": 10.0520162893, 
			 "total_energy": -930.653511873, 
			 "HOMO_LUMO_gap": 0.1959, 
			 "cosmo_polarized_energy": -7.67, 
			 "cosmo_cavitation_energy": 27.13, 
			 "cosmo_dispersion_energy": -20.88, 
			 "cosmo_repulsion_energy": 1.59, 
			 "cosmo_total_nonelectrostatic_energy": 7.84, 
			 "SMD_solvation_energy": 3.24 
		},
		"coords": [
			{
				"x": 0.9682954917,
				"y": 1.6937764084,
				"z": 1.9755659372,
				"element": "C" 
			},
			{
				"x": 1.5468954934,
				"y": 1.0312504046,
				"z": 0.7499769392,
				"element": "C" 
			},
			{
				"x": 0.7717843787,
				"y": 0.2864146361,
				"z": -0.1741816175,
				"element": "C" 
			},
			{
				"x": 1.3888792638,
				"y": -0.3005611278,
				"z": -1.2931064995,
				"element": "C" 
			},
			{
				"x": 2.7546850003,
				"y": -0.1649304837,
				"z": -1.514689355,
				"element": "C" 
			},
			{
				"x": 3.5257618266,
				"y": 0.5660082091,
				"z": -0.6112824339,
				"element": "C" 
			},
			{
				"x": 2.9202209262,
				"y": 1.1503035107,
				"z": 0.4999587157,
				"element": "C" 
			},
			{
				"x": -0.6800371324,
				"y": 0.0810173939,
				"z": -0.0353697297,
				"element": "C" 
			},
			{
				"x": -1.4155497882,
				"y": 0.5578649848,
				"z": 0.9485147408,
				"element": "N" 
			},
			{
				"x": -2.718518144,
				"y": 0.0992410774,
				"z": 0.6417558864,
				"element": "O" 
			},
			{
				"x": -2.6024874002,
				"y": -0.5998642916,
				"z": -0.4945463378,
				"element": "C" 
			},
			{
				"x": -4.0776473058,
				"y": -1.3049820306,
				"z": -1.1341302623,
				"element": "S" 
			},
			{
				"x": -1.3965540374,
				"y": -0.6576087852,
				"z": -0.9688487674,
				"element": "N" 
			},
			{
				"x": 1.7545509771,
				"y": 2.2075201933,
				"z": 2.5349907853,
				"element": "H" 
			},
			{
				"x": 0.4850902579,
				"y": 0.9683457909,
				"z": 2.6371659387,
				"element": "H" 
			},
			{
				"x": 0.1931042347,
				"y": 2.4206030923,
				"z": 1.714180005,
				"element": "H" 
			},
			{
				"x": 0.7731090207,
				"y": -0.864714357,
				"z": -1.9838607105,
				"element": "H" 
			},
			{
				"x": 3.2115514682,
				"y": -0.6261473205,
				"z": -2.3850072499,
				"element": "H" 
			},
			{
				"x": 4.5943231603,
				"y": 0.6823988592,
				"z": -0.7685770946,
				"element": "H" 
			},
			{
				"x": 3.5256490775,
				"y": 1.7187451219,
				"z": 1.200821634,
				"element": "H" 
			},
			{
				"x": -3.4483067689,
				"y": -1.8507812861,
				"z": -2.1916305242,
				"element": "H" 
			}
		],
		 "valence_orbital": [ 
			{
				"type": "occ",
				"energy": -0.33524,
				"method": "rhf"
			},
			{
				"type": "occ",
				"energy": -0.29973,
				"method": "rhf"
			},
			{
				"type": "occ",
				"energy": -0.2686,
				"method": "rhf"
			},
			{
				"type": "occ",
				"energy": -0.2492,
				"method": "rhf"
			},
			{
				"type": "occ",
				"energy": -0.24136,
				"method": "rhf"
			},
			{
				"type": "unocc",
				"energy": -0.04546,
				"method": "rhf"
			},
			{
				"type": "unocc",
				"energy": -0.0093,
				"method": "rhf"
			},
			{
				"type": "unocc",
				"energy": -0.00733,
				"method": "rhf"
			},
			{
				"type": "unocc",
				"energy": 0.00047,
				"method": "rhf"
			},
			{
				"type": "unocc",
				"energy": 0.038,
				"method": "rhf"
			}
		],
		"cosmo_sigma_profile": { 
			"-0.025": 0.0,
			"-0.024": 0.0,
			"-0.023": 0.0,
			"-0.022": 0.0,
			"-0.021": 0.0,
			"-0.02": 0.0,
			"-0.019": 0.0,
			"-0.018": 0.0,
			"-0.017": 0.0,
			"-0.016": 0.0,
			"-0.015": 0.0,
			"-0.014": 0.210249839705,
			"-0.013": 1.6700807492,
			"-0.012": 1.52015524541,
			"-0.011": 1.70860435241,
			"-0.01": 0.891441719352,
			"-0.009": 1.32960439314,
			"-0.008": 1.03655577449,
			"-0.007": 2.21947821853,
			"-0.006": 6.86083615525,
			"-0.005": 10.6645380298,
			"-0.004": 14.6288833935,
			"-0.003": 16.382852145,
			"-0.002": 18.0251667398,
			"-0.001": 19.9463545389,
			"0.0": 24.1393418239,
			"0.001": 20.3536790897,
			"0.002": 16.1764294355,
			"0.003": 16.2483093308,
			"0.004": 16.8515449322,
			"0.005": 11.5521876912,
			"0.006": 6.82382912206,
			"0.007": 3.31715424186,
			"0.008": 2.89646013408,
			"0.009": 2.63874347873,
			"0.01": 1.77197737254,
			"0.011": 0.636109691567,
			"0.012": 0.0164698173494,
			"0.013": 0.0,
			"0.014": 0.0,
			"0.015": 0.0,
			"0.016": 0.0,
			"0.017": 0.0,
			"0.018": 0.0,
			"0.019": 0.0,
			"0.02": 0.0,
			"0.021": 0.0,
			"0.022": 0.0,
			"0.023": 0.0,
			"0.024": 0.0,
			"0.025": 0.0
		}
	}
}
