{
	 "smiles": "COC1=CC=C(CCC(N)=O)C=C1", 
	 "Tm": 400.15, 
	 "num_atms": 26, 
	 "gaussian": { 
		 "optdone": 1, 
		 "sigma_profile": "yes", 
		 "theory": "DFT", 
		 "functional": "B3LYP", 
		 "basiset": "6-31G**", 
		 "properties": { 
			 "R2extent": 4282.0167, 
			 "electric_dipole_moment_norm": 3.28290976117, 
			 "electric_quadrupole_moment_norm": 27.7429282593, 
			 "total_energy": -594.110550552, 
			 "HOMO_LUMO_gap": 0.21147, 
			 "cosmo_polarized_energy": -15.82, 
			 "cosmo_cavitation_energy": 30.03, 
			 "cosmo_dispersion_energy": -21.66, 
			 "cosmo_repulsion_energy": 1.75, 
			 "cosmo_total_nonelectrostatic_energy": 10.12, 
			 "SMD_solvation_energy": 6.45 
		},
		"coords": [
			{
				"x": 1.4779074769,
				"y": 0.5538222294,
				"z": -4.4933706966,
				"element": "C" 
			},
			{
				"x": 1.2147696181,
				"y": -0.5099615381,
				"z": -3.5943976039,
				"element": "O" 
			},
			{
				"x": 0.3894997089,
				"y": -0.2666124762,
				"z": -2.5319660145,
				"element": "C" 
			},
			{
				"x": -0.2171390157,
				"y": 0.9638681485,
				"z": -2.2577837479,
				"element": "C" 
			},
			{
				"x": -1.0464992859,
				"y": 1.0895511507,
				"z": -1.1389248365,
				"element": "C" 
			},
			{
				"x": -1.291129911,
				"y": 0.0171123542,
				"z": -0.2768418097,
				"element": "C" 
			},
			{
				"x": -2.1621848482,
				"y": 0.1796023395,
				"z": 0.9492329802,
				"element": "C" 
			},
			{
				"x": -1.358988272,
				"y": 0.5639231552,
				"z": 2.2047846478,
				"element": "C" 
			},
			{
				"x": -2.266029365,
				"y": 0.8816099939,
				"z": 3.3931267636,
				"element": "C" 
			},
			{
				"x": -1.7205512219,
				"y": 0.6310308892,
				"z": 4.6230090703,
				"element": "N" 
			},
			{
				"x": -3.3928056609,
				"y": 1.339148238,
				"z": 3.2636440031,
				"element": "O" 
			},
			{
				"x": -0.6735156181,
				"y": -1.2089440567,
				"z": -0.57425472,
				"element": "C" 
			},
			{
				"x": 0.1537137357,
				"y": -1.3560037268,
				"z": -1.6807233378,
				"element": "C" 
			},
			{
				"x": 2.1463748908,
				"y": 0.1484070055,
				"z": -5.2547613012,
				"element": "H" 
			},
			{
				"x": 0.5601456535,
				"y": 0.9150320149,
				"z": -4.9758515286,
				"element": "H" 
			},
			{
				"x": 1.9723546992,
				"y": 1.3968349731,
				"z": -3.9927812768,
				"element": "H" 
			},
			{
				"x": -0.0604469137,
				"y": 1.8207405555,
				"z": -2.9025215825,
				"element": "H" 
			},
			{
				"x": -1.5174153564,
				"y": 2.049989279,
				"z": -0.9417436395,
				"element": "H" 
			},
			{
				"x": -2.707721456,
				"y": -0.7502448371,
				"z": 1.1483376091,
				"element": "H" 
			},
			{
				"x": -2.920575805,
				"y": 0.9510898536,
				"z": 0.7888016251,
				"element": "H" 
			},
			{
				"x": -0.641344556,
				"y": -0.2244805956,
				"z": 2.4624157645,
				"element": "H" 
			},
			{
				"x": -0.7650955805,
				"y": 1.4637414047,
				"z": 1.9944916569,
				"element": "H" 
			},
			{
				"x": -0.7713967138,
				"y": 0.3158282353,
				"z": 4.7382757551,
				"element": "H" 
			},
			{
				"x": -2.2454542489,
				"y": 0.9079653274,
				"z": 5.4388751595,
				"element": "H" 
			},
			{
				"x": -0.8512809085,
				"y": -2.06684659,
				"z": 0.0705552422,
				"element": "H" 
			},
			{
				"x": 0.6250089542,
				"y": -2.3058033272,
				"z": -1.9124281818,
				"element": "H" 
			}
		],
		 "valence_orbital": [ 
			{
				"type": "occ",
				"energy": -0.30802,
				"method": "rhf"
			},
			{
				"type": "occ",
				"energy": -0.26483,
				"method": "rhf"
			},
			{
				"type": "occ",
				"energy": -0.24689,
				"method": "rhf"
			},
			{
				"type": "occ",
				"energy": -0.24518,
				"method": "rhf"
			},
			{
				"type": "occ",
				"energy": -0.21004,
				"method": "rhf"
			},
			{
				"type": "unocc",
				"energy": 0.00143,
				"method": "rhf"
			},
			{
				"type": "unocc",
				"energy": 0.01591,
				"method": "rhf"
			},
			{
				"type": "unocc",
				"energy": 0.03429,
				"method": "rhf"
			},
			{
				"type": "unocc",
				"energy": 0.07437,
				"method": "rhf"
			},
			{
				"type": "unocc",
				"energy": 0.09376,
				"method": "rhf"
			}
		],
		"cosmo_sigma_profile": { 
			"-0.025": 0.0,
			"-0.024": 0.0,
			"-0.023": 0.0,
			"-0.022": 0.0,
			"-0.021": 0.0,
			"-0.02": 0.0,
			"-0.019": 0.0,
			"-0.018": 0.0,
			"-0.017": 0.0,
			"-0.016": 0.0,
			"-0.015": 0.0486299751426,
			"-0.014": 1.39001189921,
			"-0.013": 2.33197371217,
			"-0.012": 2.1215601282,
			"-0.011": 2.70601473636,
			"-0.01": 2.09479170498,
			"-0.009": 2.99444464333,
			"-0.008": 2.35636700863,
			"-0.007": 1.74304753341,
			"-0.006": 6.73978069435,
			"-0.005": 20.2811430838,
			"-0.004": 23.720750308,
			"-0.003": 27.8256898226,
			"-0.002": 17.1249195539,
			"-0.001": 13.9557343994,
			"0.0": 12.4567014628,
			"0.001": 9.44007138101,
			"0.002": 10.4771705566,
			"0.003": 12.4886823824,
			"0.004": 12.0433709064,
			"0.005": 12.6258570212,
			"0.006": 12.1564312019,
			"0.007": 4.12140146744,
			"0.008": 2.54026070755,
			"0.009": 3.26824099106,
			"0.01": 2.59923351403,
			"0.011": 2.46175424557,
			"0.012": 1.95900565448,
			"0.013": 2.77430859911,
			"0.014": 6.01981482328,
			"0.015": 1.54247387352,
			"0.016": 0.0,
			"0.017": 0.0,
			"0.018": 0.0,
			"0.019": 0.0,
			"0.02": 0.0,
			"0.021": 0.0,
			"0.022": 0.0,
			"0.023": 0.0,
			"0.024": 0.0,
			"0.025": 0.0
		}
	}
}
