{
	 "smiles": "COC(=O)C1=CC(CBr)=C(F)C=C1", 
	 "Tm": 324.15, 
	 "num_atms": 21, 
	 "gaussian": { 
		 "optdone": 1, 
		 "sigma_profile": "yes", 
		 "theory": "DFT", 
		 "functional": "B3LYP", 
		 "basiset": "6-31G**", 
		 "properties": { 
			 "R2extent": 5714.7705, 
			 "electric_dipole_moment_norm": 2.20518154128, 
			 "electric_quadrupole_moment_norm": 13.0874238791, 
			 "total_energy": -3169.4830376, 
			 "HOMO_LUMO_gap": 0.20378, 
			 "cosmo_polarized_energy": -9.38, 
			 "cosmo_cavitation_energy": 28.71, 
			 "cosmo_dispersion_energy": -20.82, 
			 "cosmo_repulsion_energy": 1.65, 
			 "cosmo_total_nonelectrostatic_energy": 9.53, 
			 "SMD_solvation_energy": 5.73 
		},
		"coords": [
			{
				"x": -1.1277340984,
				"y": -2.911399678,
				"z": 0.9026456221,
				"element": "C" 
			},
			{
				"x": -0.4397089985,
				"y": -1.6911119572,
				"z": 0.5845372364,
				"element": "O" 
			},
			{
				"x": 0.1037322835,
				"y": -1.0444025795,
				"z": 1.640120087,
				"element": "C" 
			},
			{
				"x": 0.0210097897,
				"y": -1.4484360476,
				"z": 2.7836811091,
				"element": "O" 
			},
			{
				"x": 0.8066243016,
				"y": 0.206755433,
				"z": 1.2406089667,
				"element": "C" 
			},
			{
				"x": 0.882258285,
				"y": 0.632835767,
				"z": -0.0903246084,
				"element": "C" 
			},
			{
				"x": 1.5463287922,
				"y": 1.8148717522,
				"z": -0.4323212379,
				"element": "C" 
			},
			{
				"x": 1.6311186864,
				"y": 2.2944756746,
				"z": -1.8414646387,
				"element": "C" 
			},
			{
				"x": 3.2854111078,
				"y": 1.6387235712,
				"z": -2.7633745152,
				"element": "Br" 
			},
			{
				"x": 2.1341393453,
				"y": 2.5469135181,
				"z": 0.6061372644,
				"element": "C" 
			},
			{
				"x": 2.774425729,
				"y": 3.6912973866,
				"z": 0.3007571561,
				"element": "F" 
			},
			{
				"x": 2.074592896,
				"y": 2.1494191336,
				"z": 1.9367820249,
				"element": "C" 
			},
			{
				"x": 1.4074898166,
				"y": 0.9706079935,
				"z": 2.2515912677,
				"element": "C" 
			},
			{
				"x": -0.4458545239,
				"y": -3.6260763562,
				"z": 1.3699524868,
				"element": "H" 
			},
			{
				"x": -1.9576118145,
				"y": -2.7176091054,
				"z": 1.5867326234,
				"element": "H" 
			},
			{
				"x": -1.4956963713,
				"y": -3.2974362187,
				"z": -0.0477587637,
				"element": "H" 
			},
			{
				"x": 0.4203969859,
				"y": 0.035702769,
				"z": -0.8689023424,
				"element": "H" 
			},
			{
				"x": 1.6973093995,
				"y": 3.3772862833,
				"z": -1.9102597266,
				"element": "H" 
			},
			{
				"x": 0.8123632835,
				"y": 1.9212347935,
				"z": -2.4526015684,
				"element": "H" 
			},
			{
				"x": 2.546457289,
				"y": 2.7628543781,
				"z": 2.6962154972,
				"element": "H" 
			},
			{
				"x": 1.3378478155,
				"y": 0.6234934891,
				"z": 3.2765460596,
				"element": "H" 
			}
		],
		 "valence_orbital": [ 
			{
				"type": "occ",
				"energy": -0.28268,
				"method": "rhf"
			},
			{
				"type": "occ",
				"energy": -0.28014,
				"method": "rhf"
			},
			{
				"type": "occ",
				"energy": -0.27451,
				"method": "rhf"
			},
			{
				"type": "occ",
				"energy": -0.26945,
				"method": "rhf"
			},
			{
				"type": "occ",
				"energy": -0.25868,
				"method": "rhf"
			},
			{
				"type": "unocc",
				"energy": -0.0549,
				"method": "rhf"
			},
			{
				"type": "unocc",
				"energy": -0.04469,
				"method": "rhf"
			},
			{
				"type": "unocc",
				"energy": 0.00948,
				"method": "rhf"
			},
			{
				"type": "unocc",
				"energy": 0.05736,
				"method": "rhf"
			},
			{
				"type": "unocc",
				"energy": 0.08586,
				"method": "rhf"
			}
		],
		"cosmo_sigma_profile": { 
			"-0.025": 0.0,
			"-0.024": 0.0,
			"-0.023": 0.0,
			"-0.022": 0.0,
			"-0.021": 0.0,
			"-0.02": 0.0,
			"-0.019": 0.0,
			"-0.018": 0.0,
			"-0.017": 0.0,
			"-0.016": 0.0,
			"-0.015": 0.0,
			"-0.014": 0.0,
			"-0.013": 0.0,
			"-0.012": 0.0,
			"-0.011": 0.0,
			"-0.01": 0.0,
			"-0.009": 1.30729413536,
			"-0.008": 6.10291948303,
			"-0.007": 8.41390600004,
			"-0.006": 12.4862188689,
			"-0.005": 15.358934858,
			"-0.004": 15.7477473498,
			"-0.003": 16.8486018325,
			"-0.002": 14.9103718169,
			"-0.001": 14.7848139642,
			"0.0": 19.6482347514,
			"0.001": 22.1783673777,
			"0.002": 18.4610185578,
			"0.003": 16.9703426546,
			"0.004": 11.9840588921,
			"0.005": 11.0710301468,
			"0.006": 12.38626644,
			"0.007": 2.39473064961,
			"0.008": 1.37580265154,
			"0.009": 1.41639731008,
			"0.01": 2.42220254273,
			"0.011": 3.04627125317,
			"0.012": 3.56779801536,
			"0.013": 0.0663664194353,
			"0.014": 0.0,
			"0.015": 0.0,
			"0.016": 0.0,
			"0.017": 0.0,
			"0.018": 0.0,
			"0.019": 0.0,
			"0.02": 0.0,
			"0.021": 0.0,
			"0.022": 0.0,
			"0.023": 0.0,
			"0.024": 0.0,
			"0.025": 0.0
		}
	}
}
