{
	 "smiles": "CC1=C(NC2CCC(O)CC2)C=CC(=C1)C#N", 
	 "Tm": 393.15, 
	 "num_atms": 35, 
	 "gaussian": { 
		 "optdone": 1, 
		 "sigma_profile": "yes", 
		 "theory": "DFT", 
		 "functional": "B3LYP", 
		 "basiset": "6-31G**", 
		 "properties": { 
			 "R2extent": 6950.1632, 
			 "electric_dipole_moment_norm": 8.52530559921, 
			 "electric_quadrupole_moment_norm": 37.0021701512, 
			 "total_energy": -729.059070642, 
			 "HOMO_LUMO_gap": 0.1819, 
			 "cosmo_polarized_energy": -18.23, 
			 "cosmo_cavitation_energy": 37.1, 
			 "cosmo_dispersion_energy": -25.82, 
			 "cosmo_repulsion_energy": 2.01, 
			 "cosmo_total_nonelectrostatic_energy": 13.29, 
			 "SMD_solvation_energy": 6.28 
		},
		"coords": [
			{
				"x": 3.2096680841,
				"y": 0.1052956459,
				"z": -0.7849178961,
				"element": "C" 
			},
			{
				"x": 2.3854274185,
				"y": 0.5920447122,
				"z": -1.951210891,
				"element": "C" 
			},
			{
				"x": 1.0474879338,
				"y": 0.1332782303,
				"z": -2.1275138298,
				"element": "C" 
			},
			{
				"x": 0.532340659,
				"y": -0.7896690715,
				"z": -1.2390408564,
				"element": "N" 
			},
			{
				"x": -0.874028989,
				"y": -1.1841014923,
				"z": -1.1590318248,
				"element": "C" 
			},
			{
				"x": -0.9994291371,
				"y": -2.5017836057,
				"z": -0.3458986324,
				"element": "C" 
			},
			{
				"x": -1.4064409544,
				"y": -2.2431860017,
				"z": 1.1110903011,
				"element": "C" 
			},
			{
				"x": -2.8087373656,
				"y": -1.6000112377,
				"z": 1.2013802094,
				"element": "C" 
			},
			{
				"x": -2.9350185995,
				"y": -0.8073072092,
				"z": 2.3825722406,
				"element": "O" 
			},
			{
				"x": -3.0764919548,
				"y": -0.667475343,
				"z": 0.0036229207,
				"element": "C" 
			},
			{
				"x": -1.778188838,
				"y": -0.0756330768,
				"z": -0.5553944442,
				"element": "C" 
			},
			{
				"x": 0.3086666971,
				"y": 0.6010039705,
				"z": -3.2351103608,
				"element": "C" 
			},
			{
				"x": 0.8670807896,
				"y": 1.4848766641,
				"z": -4.1467880829,
				"element": "C" 
			},
			{
				"x": 2.1831471427,
				"y": 1.9416662188,
				"z": -3.9792303688,
				"element": "C" 
			},
			{
				"x": 2.9214982836,
				"y": 1.4806588702,
				"z": -2.8729221863,
				"element": "C" 
			},
			{
				"x": 2.7651378595,
				"y": 2.8572704306,
				"z": -4.9094767246,
				"element": "C" 
			},
			{
				"x": 3.2405691466,
				"y": 3.6033586374,
				"z": -5.6671851474,
				"element": "N" 
			},
			{
				"x": 2.769674577,
				"y": 0.3927672063,
				"z": 0.1806530976,
				"element": "H" 
			},
			{
				"x": 4.2170305417,
				"y": 0.5263601399,
				"z": -0.816640211,
				"element": "H" 
			},
			{
				"x": 3.3061417629,
				"y": -0.9882856671,
				"z": -0.7856278269,
				"element": "H" 
			},
			{
				"x": 1.0401740957,
				"y": -0.8806322883,
				"z": -0.3710005452,
				"element": "H" 
			},
			{
				"x": -1.2031765377,
				"y": -1.3942041588,
				"z": -2.1824981325,
				"element": "H" 
			},
			{
				"x": -0.0542028746,
				"y": -3.0512434518,
				"z": -0.4046722093,
				"element": "H" 
			},
			{
				"x": -1.7525339711,
				"y": -3.1441334164,
				"z": -0.8170107929,
				"element": "H" 
			},
			{
				"x": -1.3715648054,
				"y": -3.1728540507,
				"z": 1.6916144022,
				"element": "H" 
			},
			{
				"x": -0.6980270804,
				"y": -1.5509375757,
				"z": 1.5843783541,
				"element": "H" 
			},
			{
				"x": -3.5704425883,
				"y": -2.3965141674,
				"z": 1.2052898944,
				"element": "H" 
			},
			{
				"x": -2.7383003319,
				"y": -1.3703521264,
				"z": 3.1428814825,
				"element": "H" 
			},
			{
				"x": -3.7588887659,
				"y": 0.1196057899,
				"z": 0.3375757792,
				"element": "H" 
			},
			{
				"x": -3.5975503392,
				"y": -1.2253643522,
				"z": -0.7845898366,
				"element": "H" 
			},
			{
				"x": -1.9856070018,
				"y": 0.6929668042,
				"z": -1.3062123999,
				"element": "H" 
			},
			{
				"x": -1.2340638335,
				"y": 0.4248041777,
				"z": 0.2544538005,
				"element": "H" 
			},
			{
				"x": -0.7126756663,
				"y": 0.2721037433,
				"z": -3.3846245391,
				"element": "H" 
			},
			{
				"x": 0.2812396807,
				"y": 1.8313800676,
				"z": -4.991858387,
				"element": "H" 
			},
			{
				"x": 3.9410849621,
				"y": 1.829746984,
				"z": -2.7389563565,
				"element": "H" 
			}
		],
		 "valence_orbital": [ 
			{
				"type": "occ",
				"energy": -0.31016,
				"method": "rhf"
			},
			{
				"type": "occ",
				"energy": -0.28875,
				"method": "rhf"
			},
			{
				"type": "occ",
				"energy": -0.27288,
				"method": "rhf"
			},
			{
				"type": "occ",
				"energy": -0.25683,
				"method": "rhf"
			},
			{
				"type": "occ",
				"energy": -0.20498,
				"method": "rhf"
			},
			{
				"type": "unocc",
				"energy": -0.02308,
				"method": "rhf"
			},
			{
				"type": "unocc",
				"energy": -0.00824,
				"method": "rhf"
			},
			{
				"type": "unocc",
				"energy": 0.05251,
				"method": "rhf"
			},
			{
				"type": "unocc",
				"energy": 0.05836,
				"method": "rhf"
			},
			{
				"type": "unocc",
				"energy": 0.06198,
				"method": "rhf"
			}
		],
		"cosmo_sigma_profile": { 
			"-0.025": 0.0,
			"-0.024": 0.0,
			"-0.023": 0.0,
			"-0.022": 0.0,
			"-0.021": 0.0,
			"-0.02": 0.0,
			"-0.019": 0.0,
			"-0.018": 0.0,
			"-0.017": 0.0,
			"-0.016": 0.0,
			"-0.015": 0.438484903202,
			"-0.014": 1.19672118928,
			"-0.013": 0.799025914839,
			"-0.012": 0.918027053914,
			"-0.011": 1.14330605296,
			"-0.01": 2.63687514735,
			"-0.009": 3.08207424342,
			"-0.008": 3.17197928271,
			"-0.007": 5.69818419229,
			"-0.006": 10.7578814868,
			"-0.005": 14.8636914098,
			"-0.004": 22.1140496101,
			"-0.003": 32.0228061097,
			"-0.002": 27.3915919516,
			"-0.001": 28.4240238749,
			"0.0": 28.6297796688,
			"0.001": 19.98427115,
			"0.002": 12.2961977393,
			"0.003": 12.1009748942,
			"0.004": 15.6111497171,
			"0.005": 8.12869651373,
			"0.006": 3.96690696712,
			"0.007": 4.55203254067,
			"0.008": 4.33412630944,
			"0.009": 5.18118801746,
			"0.01": 4.62538056524,
			"0.011": 4.81609391231,
			"0.012": 3.80375980132,
			"0.013": 3.81507353259,
			"0.014": 4.06413269728,
			"0.015": 0.515999121579,
			"0.016": 0.0,
			"0.017": 0.0,
			"0.018": 0.0,
			"0.019": 0.0,
			"0.02": 0.0,
			"0.021": 0.0,
			"0.022": 0.0,
			"0.023": 0.0,
			"0.024": 0.0,
			"0.025": 0.0
		}
	}
}
