{
	 "smiles": "FC1=CC=CC(F)=C1C(=O)NC(=O)NC1=CC(Cl)=C(OC2=C(Cl)C=C(C=N2)C(F)(F)F)C(Cl)=C1", 
	 "Tm": 496.15, 
	 "num_atms": 43, 
	 "gaussian": { 
		 "optdone": 1, 
		 "sigma_profile": "yes", 
		 "theory": "DFT", 
		 "functional": "B3LYP", 
		 "basiset": "6-31G**", 
		 "properties": { 
			 "R2extent": 21138.9401, 
			 "electric_dipole_moment_norm": 3.7157612208, 
			 "electric_quadrupole_moment_norm": 25.8394014838, 
			 "total_energy": -3037.25067754, 
			 "HOMO_LUMO_gap": 0.18796, 
			 "cosmo_polarized_energy": -21.89, 
			 "cosmo_cavitation_energy": 57.86, 
			 "cosmo_dispersion_energy": -36.18, 
			 "cosmo_repulsion_energy": 2.65, 
			 "cosmo_total_nonelectrostatic_energy": 24.33, 
			 "SMD_solvation_energy": 11.57 
		},
		"coords": [
			{
				"x": 0.4119059772,
				"y": -3.402942908,
				"z": 0.1270977109,
				"element": "F" 
			},
			{
				"x": -0.4689854479,
				"y": -3.5318296149,
				"z": -0.8753234468,
				"element": "C" 
			},
			{
				"x": -0.0356847059,
				"y": -3.3260154907,
				"z": -2.1787629519,
				"element": "C" 
			},
			{
				"x": -0.9605513433,
				"y": -3.4365844842,
				"z": -3.2176846029,
				"element": "C" 
			},
			{
				"x": -2.2980157086,
				"y": -3.7375308316,
				"z": -2.9558420244,
				"element": "C" 
			},
			{
				"x": -2.6880177617,
				"y": -3.9246845267,
				"z": -1.6365351866,
				"element": "C" 
			},
			{
				"x": -3.9769411044,
				"y": -4.2260657835,
				"z": -1.3780239936,
				"element": "F" 
			},
			{
				"x": -1.8017388118,
				"y": -3.825301282,
				"z": -0.5605188344,
				"element": "C" 
			},
			{
				"x": -2.1879882133,
				"y": -4.1694437307,
				"z": 0.8473278728,
				"element": "C" 
			},
			{
				"x": -1.59444049,
				"y": -5.0258099462,
				"z": 1.4740243477,
				"element": "O" 
			},
			{
				"x": -3.2772695889,
				"y": -3.5212319865,
				"z": 1.4412904469,
				"element": "N" 
			},
			{
				"x": -4.2022431606,
				"y": -2.564695912,
				"z": 0.9818381688,
				"element": "C" 
			},
			{
				"x": -5.3812579684,
				"y": -2.6539696823,
				"z": 1.2691071413,
				"element": "O" 
			},
			{
				"x": -3.7214912323,
				"y": -1.5157899632,
				"z": 0.2152081433,
				"element": "N" 
			},
			{
				"x": -2.4734637135,
				"y": -0.853054289,
				"z": 0.2285960947,
				"element": "C" 
			},
			{
				"x": -1.5840522154,
				"y": -0.9262043957,
				"z": 1.3073402347,
				"element": "C" 
			},
			{
				"x": -0.3806378326,
				"y": -0.2275464664,
				"z": 1.2524350305,
				"element": "C" 
			},
			{
				"x": 0.7286510659,
				"y": -0.3400874057,
				"z": 2.5919539658,
				"element": "Cl" 
			},
			{
				"x": -0.0509305572,
				"y": 0.5745564792,
				"z": 0.1546622604,
				"element": "C" 
			},
			{
				"x": 1.1821219445,
				"y": 1.1867513819,
				"z": 0.0703194253,
				"element": "O" 
			},
			{
				"x": 1.3248162214,
				"y": 2.4495001517,
				"z": 0.5580255886,
				"element": "C" 
			},
			{
				"x": 2.6037937702,
				"y": 3.0357083334,
				"z": 0.46239632,
				"element": "C" 
			},
			{
				"x": 3.9376763717,
				"y": 2.1688107956,
				"z": -0.2434290546,
				"element": "Cl" 
			},
			{
				"x": 2.7671944029,
				"y": 4.3206386625,
				"z": 0.9511824322,
				"element": "C" 
			},
			{
				"x": 1.6653686237,
				"y": 4.9771010246,
				"z": 1.5149579677,
				"element": "C" 
			},
			{
				"x": 0.4474017565,
				"y": 4.3070915148,
				"z": 1.5630365823,
				"element": "C" 
			},
			{
				"x": 0.2853025599,
				"y": 3.0647543408,
				"z": 1.0914276085,
				"element": "N" 
			},
			{
				"x": 1.8032290291,
				"y": 6.3891760704,
				"z": 2.0094498456,
				"element": "C" 
			},
			{
				"x": 0.8108992539,
				"y": 6.718852564,
				"z": 2.8615113567,
				"element": "F" 
			},
			{
				"x": 2.9785286553,
				"y": 6.5734655603,
				"z": 2.6503827467,
				"element": "F" 
			},
			{
				"x": 1.7698566064,
				"y": 7.2782861754,
				"z": 0.9914772191,
				"element": "F" 
			},
			{
				"x": -0.9617133904,
				"y": 0.6537954333,
				"z": -0.9043302349,
				"element": "C" 
			},
			{
				"x": -0.5811439146,
				"y": 1.6384742165,
				"z": -2.2938976262,
				"element": "Cl" 
			},
			{
				"x": -2.156255445,
				"y": -0.0573722797,
				"z": -0.8797073922,
				"element": "C" 
			},
			{
				"x": 1.0052876054,
				"y": -3.0841617623,
				"z": -2.3582743283,
				"element": "H" 
			},
			{
				"x": -0.6359918625,
				"y": -3.28548642,
				"z": -4.2421086196,
				"element": "H" 
			},
			{
				"x": -3.0321174499,
				"y": -3.8383267199,
				"z": -3.7467636648,
				"element": "H" 
			},
			{
				"x": -3.6382402296,
				"y": -4.0424622534,
				"z": 2.2333928521,
				"element": "H" 
			},
			{
				"x": -4.4908616785,
				"y": -0.9931860353,
				"z": -0.1839810309,
				"element": "H" 
			},
			{
				"x": -1.8144216166,
				"y": -1.515366759,
				"z": 2.1845090162,
				"element": "H" 
			},
			{
				"x": 3.7379119771,
				"y": 4.8010030291,
				"z": 0.9026774111,
				"element": "H" 
			},
			{
				"x": -0.4284065213,
				"y": 4.7767307836,
				"z": 2.0000003387,
				"element": "H" 
			},
			{
				"x": -2.8299838566,
				"y": -0.0027455882,
				"z": -1.7271451367,
				"element": "H" 
			}
		],
		 "valence_orbital": [ 
			{
				"type": "occ",
				"energy": -0.27025,
				"method": "rhf"
			},
			{
				"type": "occ",
				"energy": -0.26785,
				"method": "rhf"
			},
			{
				"type": "occ",
				"energy": -0.26653,
				"method": "rhf"
			},
			{
				"type": "occ",
				"energy": -0.26465,
				"method": "rhf"
			},
			{
				"type": "occ",
				"energy": -0.2495,
				"method": "rhf"
			},
			{
				"type": "unocc",
				"energy": -0.06154,
				"method": "rhf"
			},
			{
				"type": "unocc",
				"energy": -0.05667,
				"method": "rhf"
			},
			{
				"type": "unocc",
				"energy": -0.04489,
				"method": "rhf"
			},
			{
				"type": "unocc",
				"energy": -0.04306,
				"method": "rhf"
			},
			{
				"type": "unocc",
				"energy": -0.03908,
				"method": "rhf"
			}
		],
		"cosmo_sigma_profile": { 
			"-0.025": 0.0,
			"-0.024": 0.0,
			"-0.023": 0.0,
			"-0.022": 0.0,
			"-0.021": 0.0,
			"-0.02": 0.0,
			"-0.019": 0.0,
			"-0.018": 0.0,
			"-0.017": 0.0234851570843,
			"-0.016": 1.10550532311,
			"-0.015": 2.23154808868,
			"-0.014": 2.22924079656,
			"-0.013": 1.75527399288,
			"-0.012": 2.14327679954,
			"-0.011": 1.80904513234,
			"-0.01": 2.55233487011,
			"-0.009": 5.9934182406,
			"-0.008": 11.7376784297,
			"-0.007": 14.5249600962,
			"-0.006": 16.2669703712,
			"-0.005": 15.3116209303,
			"-0.004": 15.3158884294,
			"-0.003": 25.8771211826,
			"-0.002": 34.0294583202,
			"-0.001": 42.1829934233,
			"0.0": 44.1360241361,
			"0.001": 44.9423019025,
			"0.002": 59.5936905244,
			"0.003": 58.0403626862,
			"0.004": 22.1353673392,
			"0.005": 7.2188913407,
			"0.006": 6.1064835872,
			"0.007": 4.67376456789,
			"0.008": 4.75372076928,
			"0.009": 5.1715872235,
			"0.01": 5.17589407663,
			"0.011": 9.3705032224,
			"0.012": 6.26223388924,
			"0.013": 0.475108548953,
			"0.014": 0.0,
			"0.015": 0.0,
			"0.016": 0.0,
			"0.017": 0.0,
			"0.018": 0.0,
			"0.019": 0.0,
			"0.02": 0.0,
			"0.021": 0.0,
			"0.022": 0.0,
			"0.023": 0.0,
			"0.024": 0.0,
			"0.025": 0.0
		}
	}
}
