{
	 "smiles": "COC1=CC(C=O)=CC=C1OC(C)=O", 
	 "Tm": 349.15, 
	 "num_atms": 24, 
	 "gaussian": { 
		 "optdone": 1, 
		 "sigma_profile": "yes", 
		 "theory": "DFT", 
		 "functional": "B3LYP", 
		 "basiset": "6-31G**", 
		 "properties": { 
			 "R2extent": 3421.8417, 
			 "electric_dipole_moment_norm": 4.20807252076, 
			 "electric_quadrupole_moment_norm": 21.1849361384, 
			 "total_energy": -687.971681682, 
			 "HOMO_LUMO_gap": 0.17151, 
			 "cosmo_polarized_energy": -13.93, 
			 "cosmo_cavitation_energy": 29.44, 
			 "cosmo_dispersion_energy": -20.54, 
			 "cosmo_repulsion_energy": 1.64, 
			 "cosmo_total_nonelectrostatic_energy": 10.54, 
			 "SMD_solvation_energy": 8.21 
		},
		"coords": [
			{
				"x": 2.8156476554,
				"y": -1.1988594454,
				"z": 0.9055786217,
				"element": "C" 
			},
			{
				"x": 1.4268157246,
				"y": -1.1618377946,
				"z": 0.6069420901,
				"element": "O" 
			},
			{
				"x": 0.9613124259,
				"y": -0.1310260431,
				"z": -0.144387396,
				"element": "C" 
			},
			{
				"x": 1.7125937211,
				"y": 0.961556761,
				"z": -0.5778744325,
				"element": "C" 
			},
			{
				"x": 1.109520237,
				"y": 1.9836013642,
				"z": -1.3288308374,
				"element": "C" 
			},
			{
				"x": 1.9300807866,
				"y": 3.1327892379,
				"z": -1.7713261332,
				"element": "C" 
			},
			{
				"x": 1.5117550596,
				"y": 4.075859674,
				"z": -2.4154672801,
				"element": "O" 
			},
			{
				"x": -0.2497134722,
				"y": 1.9216856803,
				"z": -1.6521538404,
				"element": "C" 
			},
			{
				"x": -1.0022893583,
				"y": 0.8288976588,
				"z": -1.2307514326,
				"element": "C" 
			},
			{
				"x": -0.4045247251,
				"y": -0.1849590101,
				"z": -0.4911241825,
				"element": "C" 
			},
			{
				"x": -1.1905773991,
				"y": -1.2262362719,
				"z": -0.0204136524,
				"element": "O" 
			},
			{
				"x": -0.9786776728,
				"y": -2.4865722239,
				"z": -0.5413784414,
				"element": "C" 
			},
			{
				"x": -1.8200196142,
				"y": -3.4900240582,
				"z": 0.2031853393,
				"element": "C" 
			},
			{
				"x": -0.2308641716,
				"y": -2.7107205604,
				"z": -1.4566965692,
				"element": "O" 
			},
			{
				"x": 3.1199547023,
				"y": -0.3374520796,
				"z": 1.5134967708,
				"element": "H" 
			},
			{
				"x": 2.9746980691,
				"y": -2.1146637326,
				"z": 1.4758577796,
				"element": "H" 
			},
			{
				"x": 3.4204748688,
				"y": -1.2311485889,
				"z": -0.0087350739,
				"element": "H" 
			},
			{
				"x": 2.7678156544,
				"y": 1.0370885909,
				"z": -0.3369870803,
				"element": "H" 
			},
			{
				"x": 2.999958979,
				"y": 3.0812632686,
				"z": -1.4660200066,
				"element": "H" 
			},
			{
				"x": -0.6893135018,
				"y": 2.7258424108,
				"z": -2.2317292495,
				"element": "H" 
			},
			{
				"x": -2.0581647665,
				"y": 0.7421759841,
				"z": -1.4649640879,
				"element": "H" 
			},
			{
				"x": -1.7522092698,
				"y": -4.4577705148,
				"z": -0.2924266401,
				"element": "H" 
			},
			{
				"x": -1.4569094659,
				"y": -3.5752767299,
				"z": 1.2321362344,
				"element": "H" 
			},
			{
				"x": -2.8604644664,
				"y": -3.1577135774,
				"z": 0.2494695002,
				"element": "H" 
			}
		],
		 "valence_orbital": [ 
			{
				"type": "occ",
				"energy": -0.31842,
				"method": "rhf"
			},
			{
				"type": "occ",
				"energy": -0.28208,
				"method": "rhf"
			},
			{
				"type": "occ",
				"energy": -0.26347,
				"method": "rhf"
			},
			{
				"type": "occ",
				"energy": -0.25481,
				"method": "rhf"
			},
			{
				"type": "occ",
				"energy": -0.23383,
				"method": "rhf"
			},
			{
				"type": "unocc",
				"energy": -0.06232,
				"method": "rhf"
			},
			{
				"type": "unocc",
				"energy": -0.00834,
				"method": "rhf"
			},
			{
				"type": "unocc",
				"energy": 0.0039,
				"method": "rhf"
			},
			{
				"type": "unocc",
				"energy": 0.04375,
				"method": "rhf"
			},
			{
				"type": "unocc",
				"energy": 0.07934,
				"method": "rhf"
			}
		],
		"cosmo_sigma_profile": { 
			"-0.025": 0.0,
			"-0.024": 0.0,
			"-0.023": 0.0,
			"-0.022": 0.0,
			"-0.021": 0.0,
			"-0.02": 0.0,
			"-0.019": 0.0,
			"-0.018": 0.0,
			"-0.017": 0.0,
			"-0.016": 0.0,
			"-0.015": 0.0,
			"-0.014": 0.0,
			"-0.013": 0.0,
			"-0.012": 0.0,
			"-0.011": 0.0,
			"-0.01": 0.0,
			"-0.009": 0.300549495643,
			"-0.008": 3.66504822388,
			"-0.007": 10.5826163242,
			"-0.006": 20.8529230964,
			"-0.005": 20.4201253695,
			"-0.004": 23.0547909738,
			"-0.003": 19.1687218372,
			"-0.002": 16.0840132673,
			"-0.001": 12.1170916639,
			"0.0": 10.8649452657,
			"0.001": 14.4485696956,
			"0.002": 16.3326997502,
			"0.003": 11.0755229162,
			"0.004": 7.17829676632,
			"0.005": 6.10945370001,
			"0.006": 6.59460033565,
			"0.007": 4.73850985614,
			"0.008": 5.93438175516,
			"0.009": 4.97659906732,
			"0.01": 5.79305749113,
			"0.011": 9.63623556225,
			"0.012": 4.29021313793,
			"0.013": 0.602625874602,
			"0.014": 0.0,
			"0.015": 0.0,
			"0.016": 0.0,
			"0.017": 0.0,
			"0.018": 0.0,
			"0.019": 0.0,
			"0.02": 0.0,
			"0.021": 0.0,
			"0.022": 0.0,
			"0.023": 0.0,
			"0.024": 0.0,
			"0.025": 0.0
		}
	}
}
