{
	 "smiles": "O=C(NC1(CCCC1)C1=NNN=N1)C1=CC=CC=C1", 
	 "Tm": 502.15, 
	 "num_atms": 34, 
	 "gaussian": { 
		 "optdone": 1, 
		 "sigma_profile": "yes", 
		 "theory": "DFT", 
		 "functional": "B3LYP", 
		 "basiset": "6-31G**", 
		 "properties": { 
			 "R2extent": 6405.5867, 
			 "electric_dipole_moment_norm": 4.70394773993, 
			 "electric_quadrupole_moment_norm": 5.42493529823, 
			 "total_energy": -853.376074257, 
			 "HOMO_LUMO_gap": 0.20387, 
			 "cosmo_polarized_energy": -17.44, 
			 "cosmo_cavitation_energy": 36.34, 
			 "cosmo_dispersion_energy": -26.44, 
			 "cosmo_repulsion_energy": 2.03, 
			 "cosmo_total_nonelectrostatic_energy": 11.93, 
			 "SMD_solvation_energy": 3.53 
		},
		"coords": [
			{
				"x": 2.8327600616,
				"y": 0.076015852,
				"z": 1.6893792906,
				"element": "O" 
			},
			{
				"x": 1.6763345046,
				"y": 0.4726431621,
				"z": 1.5406056307,
				"element": "C" 
			},
			{
				"x": 0.9842904632,
				"y": 0.3223092167,
				"z": 0.3737553498,
				"element": "N" 
			},
			{
				"x": 1.5231314856,
				"y": -0.3354209782,
				"z": -0.8211690879,
				"element": "C" 
			},
			{
				"x": 1.8687786124,
				"y": -1.8500790469,
				"z": -0.5860329799,
				"element": "C" 
			},
			{
				"x": 3.1056764378,
				"y": -2.1143014874,
				"z": -1.4540203372,
				"element": "C" 
			},
			{
				"x": 3.9248963842,
				"y": -0.8241253983,
				"z": -1.284964914,
				"element": "C" 
			},
			{
				"x": 2.8724014291,
				"y": 0.300180308,
				"z": -1.3308197358,
				"element": "C" 
			},
			{
				"x": 0.4531684031,
				"y": -0.2183924018,
				"z": -1.8796002891,
				"element": "C" 
			},
			{
				"x": -0.7780196327,
				"y": 0.2376386316,
				"z": -1.6582047196,
				"element": "N" 
			},
			{
				"x": -1.3263271784,
				"y": 0.1033628065,
				"z": -2.8636835054,
				"element": "N" 
			},
			{
				"x": -0.5144945561,
				"y": -0.397213372,
				"z": -3.7855972926,
				"element": "N" 
			},
			{
				"x": 0.6225736971,
				"y": -0.6077658964,
				"z": -3.1740701752,
				"element": "N" 
			},
			{
				"x": 0.9359807442,
				"y": 1.1589111524,
				"z": 2.6583331643,
				"element": "C" 
			},
			{
				"x": -0.1722972585,
				"y": 1.9945900689,
				"z": 2.4579363363,
				"element": "C" 
			},
			{
				"x": -0.8016787389,
				"y": 2.6020401511,
				"z": 3.5448475495,
				"element": "C" 
			},
			{
				"x": -0.3303291998,
				"y": 2.3807627263,
				"z": 4.840228672,
				"element": "C" 
			},
			{
				"x": 0.7816846947,
				"y": 1.5597314247,
				"z": 5.0450241271,
				"element": "C" 
			},
			{
				"x": 1.4149327327,
				"y": 0.9585062163,
				"z": 3.9598322413,
				"element": "C" 
			},
			{
				"x": -0.0056748538,
				"y": 0.5199122915,
				"z": 0.3690412104,
				"element": "H" 
			},
			{
				"x": 2.1278806169,
				"y": -1.9651871583,
				"z": 0.4686796724,
				"element": "H" 
			},
			{
				"x": 1.0195760308,
				"y": -2.5033368238,
				"z": -0.8077179371,
				"element": "H" 
			},
			{
				"x": 3.64758167,
				"y": -3.0123171973,
				"z": -1.1402502222,
				"element": "H" 
			},
			{
				"x": 2.813635115,
				"y": -2.2465504067,
				"z": -2.5020196894,
				"element": "H" 
			},
			{
				"x": 4.6953517807,
				"y": -0.7021535085,
				"z": -2.0525692667,
				"element": "H" 
			},
			{
				"x": 4.4111568638,
				"y": -0.822164557,
				"z": -0.3052336633,
				"element": "H" 
			},
			{
				"x": 3.143794075,
				"y": 1.1559044392,
				"z": -0.7115679704,
				"element": "H" 
			},
			{
				"x": 2.736347867,
				"y": 0.6540567232,
				"z": -2.3563704364,
				"element": "H" 
			},
			{
				"x": -2.279449019,
				"y": 0.3713163773,
				"z": -3.0685108333,
				"element": "H" 
			},
			{
				"x": -0.5301410598,
				"y": 2.20551177,
				"z": 1.4539893628,
				"element": "H" 
			},
			{
				"x": -1.6539990306,
				"y": 3.2545477999,
				"z": 3.3788449159,
				"element": "H" 
			},
			{
				"x": -0.8224981653,
				"y": 2.8529902294,
				"z": 5.6856836721,
				"element": "H" 
			},
			{
				"x": 1.1558538306,
				"y": 1.3915127486,
				"z": 6.0507682758,
				"element": "H" 
			},
			{
				"x": 2.2882211928,
				"y": 0.3288641368,
				"z": 4.0921535843,
				"element": "H" 
			}
		],
		 "valence_orbital": [ 
			{
				"type": "occ",
				"energy": -0.29522,
				"method": "rhf"
			},
			{
				"type": "occ",
				"energy": -0.25998,
				"method": "rhf"
			},
			{
				"type": "occ",
				"energy": -0.25749,
				"method": "rhf"
			},
			{
				"type": "occ",
				"energy": -0.24799,
				"method": "rhf"
			},
			{
				"type": "occ",
				"energy": -0.24469,
				"method": "rhf"
			},
			{
				"type": "unocc",
				"energy": -0.04082,
				"method": "rhf"
			},
			{
				"type": "unocc",
				"energy": -0.03409,
				"method": "rhf"
			},
			{
				"type": "unocc",
				"energy": -0.0079,
				"method": "rhf"
			},
			{
				"type": "unocc",
				"energy": 0.01915,
				"method": "rhf"
			},
			{
				"type": "unocc",
				"energy": 0.05429,
				"method": "rhf"
			}
		],
		"cosmo_sigma_profile": { 
			"-0.025": 0.0,
			"-0.024": 0.0,
			"-0.023": 0.0,
			"-0.022": 0.0,
			"-0.021": 0.0,
			"-0.02": 0.735503436425,
			"-0.019": 2.04160400455,
			"-0.018": 1.37691150876,
			"-0.017": 0.96632361591,
			"-0.016": 0.82838569724,
			"-0.015": 1.44223497457,
			"-0.014": 0.630503008238,
			"-0.013": 0.523011498729,
			"-0.012": 1.0366045622,
			"-0.011": 0.472791060689,
			"-0.01": 0.457411544457,
			"-0.009": 1.66288217852,
			"-0.008": 2.21424614648,
			"-0.007": 4.33025440086,
			"-0.006": 8.86304165211,
			"-0.005": 11.9946194139,
			"-0.004": 18.1412252079,
			"-0.003": 21.4306640626,
			"-0.002": 25.8444060672,
			"-0.001": 30.22826773,
			"0.0": 32.9333809534,
			"0.001": 26.1318470365,
			"0.002": 15.3304153323,
			"0.003": 12.8064259137,
			"0.004": 17.8048517419,
			"0.005": 12.0283832903,
			"0.006": 5.17300261685,
			"0.007": 6.05401621787,
			"0.008": 5.50222354211,
			"0.009": 4.3736393727,
			"0.01": 4.83418887142,
			"0.011": 3.62324811525,
			"0.012": 2.51840792718,
			"0.013": 2.65580094931,
			"0.014": 1.6715717523,
			"0.015": 0.029142157761,
			"0.016": 0.0,
			"0.017": 0.0,
			"0.018": 0.0,
			"0.019": 0.0,
			"0.02": 0.0,
			"0.021": 0.0,
			"0.022": 0.0,
			"0.023": 0.0,
			"0.024": 0.0,
			"0.025": 0.0
		}
	}
}
