{
	 "smiles": "CCN1C=C(C=O)C2=C1C=CC=C2", 
	 "Tm": 378.15, 
	 "num_atms": 24, 
	 "gaussian": { 
		 "optdone": 1, 
		 "sigma_profile": "yes", 
		 "theory": "DFT", 
		 "functional": "B3LYP", 
		 "basiset": "6-31G**", 
		 "properties": { 
			 "R2extent": 2757.5157, 
			 "electric_dipole_moment_norm": 5.92951287881, 
			 "electric_quadrupole_moment_norm": 17.1299228454, 
			 "total_energy": -555.781157621, 
			 "HOMO_LUMO_gap": 0.17624, 
			 "cosmo_polarized_energy": -13.38, 
			 "cosmo_cavitation_energy": 27.71, 
			 "cosmo_dispersion_energy": -19.81, 
			 "cosmo_repulsion_energy": 1.55, 
			 "cosmo_total_nonelectrostatic_energy": 9.45, 
			 "SMD_solvation_energy": 5.68 
		},
		"coords": [
			{
				"x": -2.8292493025,
				"y": 0.6199614706,
				"z": 1.3742742593,
				"element": "C" 
			},
			{
				"x": -2.0772738917,
				"y": 1.5923761941,
				"z": 0.460437124,
				"element": "C" 
			},
			{
				"x": -0.6292034395,
				"y": 1.4195896146,
				"z": 0.5041643159,
				"element": "N" 
			},
			{
				"x": 0.2384902857,
				"y": 2.1489340547,
				"z": 1.2687453698,
				"element": "C" 
			},
			{
				"x": 1.5307096711,
				"y": 1.6735278584,
				"z": 1.1236375145,
				"element": "C" 
			},
			{
				"x": 2.7023655067,
				"y": 2.2213503897,
				"z": 1.7796578438,
				"element": "C" 
			},
			{
				"x": 3.8428158713,
				"y": 1.798926761,
				"z": 1.647624146,
				"element": "O" 
			},
			{
				"x": 1.45543241,
				"y": 0.5619116094,
				"z": 0.202643532,
				"element": "C" 
			},
			{
				"x": 0.0923900361,
				"y": 0.4270857313,
				"z": -0.1622446512,
				"element": "C" 
			},
			{
				"x": -0.3466288512,
				"y": -0.5577438737,
				"z": -1.0534237133,
				"element": "C" 
			},
			{
				"x": 0.6160968094,
				"y": -1.4135892304,
				"z": -1.5803627409,
				"element": "C" 
			},
			{
				"x": 1.9752871188,
				"y": -1.2930983524,
				"z": -1.2287375173,
				"element": "C" 
			},
			{
				"x": 2.4071982559,
				"y": -0.312753411,
				"z": -0.3423864779,
				"element": "C" 
			},
			{
				"x": -2.5369001429,
				"y": 0.7627293627,
				"z": 2.4186962335,
				"element": "H" 
			},
			{
				"x": -3.9082331585,
				"y": 0.7852291271,
				"z": 1.2926451555,
				"element": "H" 
			},
			{
				"x": -2.6193917068,
				"y": -0.4179023547,
				"z": 1.1017813625,
				"element": "H" 
			},
			{
				"x": -2.400341787,
				"y": 1.4730731167,
				"z": -0.5791687242,
				"element": "H" 
			},
			{
				"x": -2.2914358924,
				"y": 2.6276996479,
				"z": 0.7420854296,
				"element": "H" 
			},
			{
				"x": -0.122350398,
				"y": 2.9731315489,
				"z": 1.8703651363,
				"element": "H" 
			},
			{
				"x": 2.4958236355,
				"y": 3.0914275748,
				"z": 2.4447881306,
				"element": "H" 
			},
			{
				"x": -1.3920812444,
				"y": -0.6574567115,
				"z": -1.3287147697,
				"element": "H" 
			},
			{
				"x": 0.3118055863,
				"y": -2.1903179559,
				"z": -2.2758106887,
				"element": "H" 
			},
			{
				"x": 2.6964163758,
				"y": -1.9807794778,
				"z": -1.660663555,
				"element": "H" 
			},
			{
				"x": 3.4497582523,
				"y": -0.2083126946,
				"z": -0.0649327152,
				"element": "H" 
			}
		],
		 "valence_orbital": [ 
			{
				"type": "occ",
				"energy": -0.33248,
				"method": "rhf"
			},
			{
				"type": "occ",
				"energy": -0.27485,
				"method": "rhf"
			},
			{
				"type": "occ",
				"energy": -0.23587,
				"method": "rhf"
			},
			{
				"type": "occ",
				"energy": -0.22976,
				"method": "rhf"
			},
			{
				"type": "occ",
				"energy": -0.21286,
				"method": "rhf"
			},
			{
				"type": "unocc",
				"energy": -0.03662,
				"method": "rhf"
			},
			{
				"type": "unocc",
				"energy": -0.00416,
				"method": "rhf"
			},
			{
				"type": "unocc",
				"energy": 0.0211,
				"method": "rhf"
			},
			{
				"type": "unocc",
				"energy": 0.07185,
				"method": "rhf"
			},
			{
				"type": "unocc",
				"energy": 0.09987,
				"method": "rhf"
			}
		],
		"cosmo_sigma_profile": { 
			"-0.025": 0.0,
			"-0.024": 0.0,
			"-0.023": 0.0,
			"-0.022": 0.0,
			"-0.021": 0.0,
			"-0.02": 0.0,
			"-0.019": 0.0,
			"-0.018": 0.0,
			"-0.017": 0.0,
			"-0.016": 0.0,
			"-0.015": 0.0,
			"-0.014": 0.0,
			"-0.013": 0.0,
			"-0.012": 0.0,
			"-0.011": 0.0,
			"-0.01": 0.512073930861,
			"-0.009": 3.40153341889,
			"-0.008": 2.8068071961,
			"-0.007": 5.85083204803,
			"-0.006": 11.0067560455,
			"-0.005": 15.4844598411,
			"-0.004": 21.723466693,
			"-0.003": 22.2634981139,
			"-0.002": 16.695499139,
			"-0.001": 15.8176683309,
			"0.0": 16.0876659996,
			"0.001": 11.5452788752,
			"0.002": 11.9871776671,
			"0.003": 10.6906249984,
			"0.004": 13.7785717916,
			"0.005": 13.0087066982,
			"0.006": 9.21133171153,
			"0.007": 2.69445927287,
			"0.008": 1.81638632042,
			"0.009": 1.88760177863,
			"0.01": 2.05566516252,
			"0.011": 1.98275909196,
			"0.012": 3.76726207567,
			"0.013": 3.00180092359,
			"0.014": 1.55707393994,
			"0.015": 0.219641778461,
			"0.016": 0.0,
			"0.017": 0.0,
			"0.018": 0.0,
			"0.019": 0.0,
			"0.02": 0.0,
			"0.021": 0.0,
			"0.022": 0.0,
			"0.023": 0.0,
			"0.024": 0.0,
			"0.025": 0.0
		}
	}
}
