{
	 "smiles": "[O-][N+](=O)C1=CC2=C(C=C1)N=C(S)S2", 
	 "Tm": 525.15, 
	 "num_atms": 17, 
	 "gaussian": { 
		 "optdone": 1, 
		 "sigma_profile": "yes", 
		 "theory": "DFT", 
		 "functional": "B3LYP", 
		 "basiset": "6-31G**", 
		 "properties": { 
			 "R2extent": 4268.1893, 
			 "electric_dipole_moment_norm": 4.32772978477, 
			 "electric_quadrupole_moment_norm": 15.1106298942, 
			 "total_energy": -1325.37863916, 
			 "HOMO_LUMO_gap": 0.15677, 
			 "cosmo_polarized_energy": -11.6, 
			 "cosmo_cavitation_energy": 26.08, 
			 "cosmo_dispersion_energy": -20.5, 
			 "cosmo_repulsion_energy": 1.51, 
			 "cosmo_total_nonelectrostatic_energy": 7.09, 
			 "SMD_solvation_energy": 4.0 
		},
		"coords": [
			{
				"x": 2.3218151056,
				"y": 3.0946247482,
				"z": -0.2854522563,
				"element": "O" 
			},
			{
				"x": 2.2060750538,
				"y": 2.0957763327,
				"z": 0.4239670547,
				"element": "N" 
			},
			{
				"x": 2.6507433563,
				"y": 1.9927930522,
				"z": 1.5678583794,
				"element": "O" 
			},
			{
				"x": 1.4853661622,
				"y": 0.9431595027,
				"z": -0.1338466957,
				"element": "C" 
			},
			{
				"x": 1.3483319203,
				"y": -0.1930087103,
				"z": 0.6603638845,
				"element": "C" 
			},
			{
				"x": 0.6616224829,
				"y": -1.2653833613,
				"z": 0.1035526682,
				"element": "C" 
			},
			{
				"x": 0.1244565183,
				"y": -1.2094699542,
				"z": -1.2103475001,
				"element": "C" 
			},
			{
				"x": 0.2859887808,
				"y": -0.0437798182,
				"z": -1.9760507369,
				"element": "C" 
			},
			{
				"x": 0.9688048525,
				"y": 1.0346604305,
				"z": -1.4343882261,
				"element": "C" 
			},
			{
				"x": -0.5326946015,
				"y": -2.3486428794,
				"z": -1.6324072712,
				"element": "N" 
			},
			{
				"x": -0.5208605949,
				"y": -3.2575911013,
				"z": -0.7125734227,
				"element": "C" 
			},
			{
				"x": -1.2888338179,
				"y": -4.8212049114,
				"z": -0.9776944696,
				"element": "S" 
			},
			{
				"x": 0.3057746926,
				"y": -2.8332361169,
				"z": 0.8086601583,
				"element": "S" 
			},
			{
				"x": 1.7683133823,
				"y": -0.2062702353,
				"z": 1.6578221287,
				"element": "H" 
			},
			{
				"x": -0.1258429495,
				"y": -0.0061248571,
				"z": -2.9782594265,
				"element": "H" 
			},
			{
				"x": 1.1155968307,
				"y": 1.9515509465,
				"z": -1.9904591411,
				"element": "H" 
			},
			{
				"x": -0.9911571746,
				"y": -5.3402530674,
				"z": 0.2299548722,
				"element": "H" 
			}
		],
		 "valence_orbital": [ 
			{
				"type": "occ",
				"energy": -0.31076,
				"method": "rhf"
			},
			{
				"type": "occ",
				"energy": -0.30565,
				"method": "rhf"
			},
			{
				"type": "occ",
				"energy": -0.29311,
				"method": "rhf"
			},
			{
				"type": "occ",
				"energy": -0.26589,
				"method": "rhf"
			},
			{
				"type": "occ",
				"energy": -0.25314,
				"method": "rhf"
			},
			{
				"type": "unocc",
				"energy": -0.09637,
				"method": "rhf"
			},
			{
				"type": "unocc",
				"energy": -0.04314,
				"method": "rhf"
			},
			{
				"type": "unocc",
				"energy": -0.04213,
				"method": "rhf"
			},
			{
				"type": "unocc",
				"energy": -0.03449,
				"method": "rhf"
			},
			{
				"type": "unocc",
				"energy": 0.01086,
				"method": "rhf"
			}
		],
		"cosmo_sigma_profile": { 
			"-0.025": 0.0,
			"-0.024": 0.0,
			"-0.023": 0.0,
			"-0.022": 0.0,
			"-0.021": 0.0,
			"-0.02": 0.0,
			"-0.019": 0.0,
			"-0.018": 0.0,
			"-0.017": 0.0,
			"-0.016": 0.0,
			"-0.015": 0.0,
			"-0.014": 0.0427670417291,
			"-0.013": 2.26257796298,
			"-0.012": 2.52882801864,
			"-0.011": 1.83683739312,
			"-0.01": 1.92437792348,
			"-0.009": 3.0029837584,
			"-0.008": 5.43994165575,
			"-0.007": 6.54814299456,
			"-0.006": 8.00450357987,
			"-0.005": 8.31258316156,
			"-0.004": 8.52668350171,
			"-0.003": 11.7514229208,
			"-0.002": 15.9266151186,
			"-0.001": 20.1862844624,
			"0.0": 25.0831963538,
			"0.001": 20.6601024388,
			"0.002": 15.4807992148,
			"0.003": 9.18395142895,
			"0.004": 7.28539911525,
			"0.005": 7.42076119904,
			"0.006": 6.18286375255,
			"0.007": 7.92059345468,
			"0.008": 9.47101644065,
			"0.009": 4.92288862393,
			"0.01": 3.85054602868,
			"0.011": 1.09033305301,
			"0.012": 0.857414108573,
			"0.013": 0.262480159641,
			"0.014": 0.0,
			"0.015": 0.0,
			"0.016": 0.0,
			"0.017": 0.0,
			"0.018": 0.0,
			"0.019": 0.0,
			"0.02": 0.0,
			"0.021": 0.0,
			"0.022": 0.0,
			"0.023": 0.0,
			"0.024": 0.0,
			"0.025": 0.0
		}
	}
}
