{
	 "smiles": "OC(=O)CCC1=CN(CC2=CC=C(Cl)C=C2)C2=C1C=CC=C2", 
	 "Tm": 413.15, 
	 "num_atms": 38, 
	 "gaussian": { 
		 "optdone": 1, 
		 "sigma_profile": "yes", 
		 "theory": "DFT", 
		 "functional": "B3LYP", 
		 "basiset": "6-31G**", 
		 "properties": { 
			 "R2extent": 10567.92, 
			 "electric_dipole_moment_norm": 2.4371392533, 
			 "electric_quadrupole_moment_norm": 15.9190892186, 
			 "total_energy": -1360.98098751, 
			 "HOMO_LUMO_gap": 0.17772, 
			 "cosmo_polarized_energy": -14.5, 
			 "cosmo_cavitation_energy": 44.21, 
			 "cosmo_dispersion_energy": -30.35, 
			 "cosmo_repulsion_energy": 2.35, 
			 "cosmo_total_nonelectrostatic_energy": 16.21, 
			 "SMD_solvation_energy": 7.68 
		},
		"coords": [
			{
				"x": -3.5346552204,
				"y": 0.9017328492,
				"z": -3.7103642386,
				"element": "O" 
			},
			{
				"x": -2.2444129495,
				"y": 0.5444558333,
				"z": -3.5042519708,
				"element": "C" 
			},
			{
				"x": -1.3241383479,
				"y": 1.314870358,
				"z": -3.6817953332,
				"element": "O" 
			},
			{
				"x": -2.1273613194,
				"y": -0.9036464623,
				"z": -3.0788435119,
				"element": "C" 
			},
			{
				"x": -0.7455901544,
				"y": -1.2423655587,
				"z": -2.4920259554,
				"element": "C" 
			},
			{
				"x": -0.5085829677,
				"y": -0.6600840363,
				"z": -1.1261978443,
				"element": "C" 
			},
			{
				"x": 0.0461167019,
				"y": 0.5615771463,
				"z": -0.8371391688,
				"element": "C" 
			},
			{
				"x": 0.0725163599,
				"y": 0.7758330605,
				"z": 0.5331425806,
				"element": "N" 
			},
			{
				"x": 0.602987679,
				"y": 1.9519421749,
				"z": 1.1947591805,
				"element": "C" 
			},
			{
				"x": 1.9439973876,
				"y": 1.7481872191,
				"z": 1.886883956,
				"element": "C" 
			},
			{
				"x": 2.2755399982,
				"y": 2.5291111589,
				"z": 2.9997000508,
				"element": "C" 
			},
			{
				"x": 3.5158326592,
				"y": 2.4037080992,
				"z": 3.6253092897,
				"element": "C" 
			},
			{
				"x": 4.4311492023,
				"y": 1.4762836749,
				"z": 3.1302688726,
				"element": "C" 
			},
			{
				"x": 5.9958918212,
				"y": 1.3020597453,
				"z": 3.9137084275,
				"element": "Cl" 
			},
			{
				"x": 4.1222835108,
				"y": 0.6805722549,
				"z": 2.027725991,
				"element": "C" 
			},
			{
				"x": 2.8794461872,
				"y": 0.8230824681,
				"z": 1.4113589184,
				"element": "C" 
			},
			{
				"x": -0.4757390122,
				"y": -0.3321899237,
				"z": 1.1574644312,
				"element": "C" 
			},
			{
				"x": -0.8580734321,
				"y": -1.2530033807,
				"z": 0.1419854834,
				"element": "C" 
			},
			{
				"x": -1.4536865882,
				"y": -2.4692302767,
				"z": 0.5195758868,
				"element": "C" 
			},
			{
				"x": -1.6504272025,
				"y": -2.7362736684,
				"z": 1.8690049452,
				"element": "C" 
			},
			{
				"x": -1.2601110716,
				"y": -1.8105352683,
				"z": 2.8579498131,
				"element": "C" 
			},
			{
				"x": -0.665045177,
				"y": -0.6002448265,
				"z": 2.5181099798,
				"element": "C" 
			},
			{
				"x": -3.5139412029,
				"y": 1.82638441,
				"z": -4.0097296286,
				"element": "H" 
			},
			{
				"x": -2.9328345413,
				"y": -1.1267696446,
				"z": -2.3720868849,
				"element": "H" 
			},
			{
				"x": -2.3275440833,
				"y": -1.5095168963,
				"z": -3.973390464,
				"element": "H" 
			},
			{
				"x": -0.6500363864,
				"y": -2.3332579933,
				"z": -2.4463737159,
				"element": "H" 
			},
			{
				"x": 0.0199502991,
				"y": -0.8866685872,
				"z": -3.1882776622,
				"element": "H" 
			},
			{
				"x": 0.4087889882,
				"y": 1.3202700647,
				"z": -1.5165644537,
				"element": "H" 
			},
			{
				"x": 0.6948160514,
				"y": 2.733193139,
				"z": 0.4313523124,
				"element": "H" 
			},
			{
				"x": -0.1318228158,
				"y": 2.3166451067,
				"z": 1.9228391397,
				"element": "H" 
			},
			{
				"x": 1.5575979187,
				"y": 3.2471332245,
				"z": 3.389273925,
				"element": "H" 
			},
			{
				"x": 3.7667003946,
				"y": 3.0097087081,
				"z": 4.4888537979,
				"element": "H" 
			},
			{
				"x": 4.8431937147,
				"y": -0.0408592413,
				"z": 1.6592795926,
				"element": "H" 
			},
			{
				"x": 2.6325215677,
				"y": 0.200081885,
				"z": 0.5572445333,
				"element": "H" 
			},
			{
				"x": -1.7559582834,
				"y": -3.1931104953,
				"z": -0.2327847108,
				"element": "H" 
			},
			{
				"x": -2.1093762562,
				"y": -3.6734254483,
				"z": 2.1705044104,
				"element": "H" 
			},
			{
				"x": -1.4210426202,
				"y": -2.0489487088,
				"z": 3.9052522712,
				"element": "H" 
			},
			{
				"x": -0.3503508092,
				"y": 0.1020978358,
				"z": 3.283677754,
				"element": "H" 
			}
		],
		 "valence_orbital": [ 
			{
				"type": "occ",
				"energy": -0.26806,
				"method": "rhf"
			},
			{
				"type": "occ",
				"energy": -0.26476,
				"method": "rhf"
			},
			{
				"type": "occ",
				"energy": -0.24459,
				"method": "rhf"
			},
			{
				"type": "occ",
				"energy": -0.21724,
				"method": "rhf"
			},
			{
				"type": "occ",
				"energy": -0.1959,
				"method": "rhf"
			},
			{
				"type": "unocc",
				"energy": -0.01818,
				"method": "rhf"
			},
			{
				"type": "unocc",
				"energy": -0.01731,
				"method": "rhf"
			},
			{
				"type": "unocc",
				"energy": -0.00684,
				"method": "rhf"
			},
			{
				"type": "unocc",
				"energy": 0.00814,
				"method": "rhf"
			},
			{
				"type": "unocc",
				"energy": 0.02632,
				"method": "rhf"
			}
		],
		"cosmo_sigma_profile": { 
			"-0.025": 0.0,
			"-0.024": 0.0,
			"-0.023": 0.0,
			"-0.022": 0.0,
			"-0.021": 0.0,
			"-0.02": 0.0,
			"-0.019": 0.0354826667432,
			"-0.018": 0.67775979116,
			"-0.017": 0.744586529177,
			"-0.016": 1.00697141452,
			"-0.015": 0.741183407564,
			"-0.014": 0.28088626603,
			"-0.013": 0.763319978663,
			"-0.012": 0.777388862435,
			"-0.011": 0.567759251529,
			"-0.01": 0.827812114066,
			"-0.009": 0.625999076684,
			"-0.008": 2.66370108427,
			"-0.007": 10.1700799414,
			"-0.006": 18.0853505446,
			"-0.005": 23.0395665806,
			"-0.004": 27.0934393667,
			"-0.003": 29.1151688536,
			"-0.002": 27.7047420545,
			"-0.001": 23.4903897274,
			"0.0": 21.438246022,
			"0.001": 21.5349065404,
			"0.002": 25.3742819523,
			"0.003": 27.2890170627,
			"0.004": 31.488558134,
			"0.005": 21.0315292411,
			"0.006": 11.7603266429,
			"0.007": 10.0858259281,
			"0.008": 4.10724706982,
			"0.009": 3.34024526718,
			"0.01": 2.36480844435,
			"0.011": 2.52107078229,
			"0.012": 3.16961210573,
			"0.013": 0.258106597611,
			"0.014": 0.0,
			"0.015": 0.0,
			"0.016": 0.0,
			"0.017": 0.0,
			"0.018": 0.0,
			"0.019": 0.0,
			"0.02": 0.0,
			"0.021": 0.0,
			"0.022": 0.0,
			"0.023": 0.0,
			"0.024": 0.0,
			"0.025": 0.0
		}
	}
}
