{
	 "smiles": "CCOC1=C(OCC(=O)OC)C=CC(=C1)C(O)=O", 
	 "Tm": 403.15, 
	 "num_atms": 32, 
	 "gaussian": { 
		 "optdone": 1, 
		 "sigma_profile": "yes", 
		 "theory": "DFT", 
		 "functional": "B3LYP", 
		 "basiset": "6-31G**", 
		 "properties": { 
			 "R2extent": 6050.596, 
			 "electric_dipole_moment_norm": 6.61600810459, 
			 "electric_quadrupole_moment_norm": 25.1888875183, 
			 "total_energy": -917.045388584, 
			 "HOMO_LUMO_gap": 0.18636, 
			 "cosmo_polarized_energy": -21.82, 
			 "cosmo_cavitation_energy": 36.86, 
			 "cosmo_dispersion_energy": -25.86, 
			 "cosmo_repulsion_energy": 2.05, 
			 "cosmo_total_nonelectrostatic_energy": 13.05, 
			 "SMD_solvation_energy": 9.6 
		},
		"coords": [
			{
				"x": 2.2211461488,
				"y": 1.9923531956,
				"z": -2.2056558271,
				"element": "C" 
			},
			{
				"x": 0.9495611382,
				"y": 2.1148137089,
				"z": -1.3736087044,
				"element": "C" 
			},
			{
				"x": 0.221483674,
				"y": 0.8834241037,
				"z": -1.299183482,
				"element": "O" 
			},
			{
				"x": 0.6299031959,
				"y": -0.1046832415,
				"z": -0.4502464255,
				"element": "C" 
			},
			{
				"x": -0.0913591531,
				"y": -1.3189882998,
				"z": -0.5321866027,
				"element": "C" 
			},
			{
				"x": -1.0509164775,
				"y": -1.4975885258,
				"z": -1.5014552105,
				"element": "O" 
			},
			{
				"x": -2.2544731736,
				"y": -0.7653112547,
				"z": -1.3633409656,
				"element": "C" 
			},
			{
				"x": -3.2195213807,
				"y": -1.4298544855,
				"z": -0.3858025662,
				"element": "C" 
			},
			{
				"x": -3.0233038773,
				"y": -2.4556584655,
				"z": 0.2223572659,
				"element": "O" 
			},
			{
				"x": -4.3490232474,
				"y": -0.6958796592,
				"z": -0.302908246,
				"element": "O" 
			},
			{
				"x": -5.3602317573,
				"y": -1.2167600807,
				"z": 0.5788811121,
				"element": "C" 
			},
			{
				"x": 0.2195809234,
				"y": -2.3771543568,
				"z": 0.317244368,
				"element": "C" 
			},
			{
				"x": 1.2457736783,
				"y": -2.2581412308,
				"z": 1.2517238953,
				"element": "C" 
			},
			{
				"x": 1.9788332591,
				"y": -1.0718653975,
				"z": 1.3297911379,
				"element": "C" 
			},
			{
				"x": 1.6625102221,
				"y": 0.0059468216,
				"z": 0.4835098361,
				"element": "C" 
			},
			{
				"x": 3.0716690828,
				"y": -0.9868031848,
				"z": 2.3494268687,
				"element": "C" 
			},
			{
				"x": 4.054051486,
				"y": -0.0692739382,
				"z": 2.1142449779,
				"element": "O" 
			},
			{
				"x": 3.1186469926,
				"y": -1.6755056851,
				"z": 3.3410550967,
				"element": "O" 
			},
			{
				"x": 2.7095113027,
				"y": 2.9689600839,
				"z": -2.2871312752,
				"element": "H" 
			},
			{
				"x": 1.9818431591,
				"y": 1.640153681,
				"z": -3.2126583762,
				"element": "H" 
			},
			{
				"x": 2.932589061,
				"y": 1.290600841,
				"z": -1.7619471131,
				"element": "H" 
			},
			{
				"x": 1.1554070474,
				"y": 2.4979532917,
				"z": -0.36605831,
				"element": "H" 
			},
			{
				"x": 0.2516010526,
				"y": 2.8097893726,
				"z": -1.8478068605,
				"element": "H" 
			},
			{
				"x": -2.0780974704,
				"y": 0.2708010638,
				"z": -1.0570506042,
				"element": "H" 
			},
			{
				"x": -2.7250746699,
				"y": -0.739349973,
				"z": -2.3510803737,
				"element": "H" 
			},
			{
				"x": -4.9786850995,
				"y": -1.2858925871,
				"z": 1.6003883431,
				"element": "H" 
			},
			{
				"x": -6.1889633519,
				"y": -0.511228036,
				"z": 0.5257678148,
				"element": "H" 
			},
			{
				"x": -5.6791697454,
				"y": -2.2095867474,
				"z": 0.2523939217,
				"element": "H" 
			},
			{
				"x": -0.3755038435,
				"y": -3.2788259948,
				"z": 0.2341283841,
				"element": "H" 
			},
			{
				"x": 1.4888680058,
				"y": -3.0705860769,
				"z": 1.926695205,
				"element": "H" 
			},
			{
				"x": 2.1930716556,
				"y": 0.9463296721,
				"z": 0.5836804618,
				"element": "H" 
			},
			{
				"x": 3.9876721622,
				"y": 0.2522113852,
				"z": 1.2046322538,
				"element": "H" 
			}
		],
		 "valence_orbital": [ 
			{
				"type": "occ",
				"energy": -0.30132,
				"method": "rhf"
			},
			{
				"type": "occ",
				"energy": -0.28076,
				"method": "rhf"
			},
			{
				"type": "occ",
				"energy": -0.2679,
				"method": "rhf"
			},
			{
				"type": "occ",
				"energy": -0.25618,
				"method": "rhf"
			},
			{
				"type": "occ",
				"energy": -0.22971,
				"method": "rhf"
			},
			{
				"type": "unocc",
				"energy": -0.04335,
				"method": "rhf"
			},
			{
				"type": "unocc",
				"energy": -0.00826,
				"method": "rhf"
			},
			{
				"type": "unocc",
				"energy": 0.00478,
				"method": "rhf"
			},
			{
				"type": "unocc",
				"energy": 0.04689,
				"method": "rhf"
			},
			{
				"type": "unocc",
				"energy": 0.05868,
				"method": "rhf"
			}
		],
		"cosmo_sigma_profile": { 
			"-0.025": 0.0,
			"-0.024": 0.0,
			"-0.023": 0.0,
			"-0.022": 0.0,
			"-0.021": 0.0,
			"-0.02": 0.0,
			"-0.019": 0.0,
			"-0.018": 0.0523800941158,
			"-0.017": 1.05475699645,
			"-0.016": 1.13336546165,
			"-0.015": 1.05254904122,
			"-0.014": 1.34775223776,
			"-0.013": 0.689646977221,
			"-0.012": 1.03113220326,
			"-0.011": 1.77217873301,
			"-0.01": 1.17690804592,
			"-0.009": 2.48432243932,
			"-0.008": 5.12891412479,
			"-0.007": 7.27712652919,
			"-0.006": 15.3228080807,
			"-0.005": 21.8759299423,
			"-0.004": 28.5620358132,
			"-0.003": 25.8224709952,
			"-0.002": 20.0187497301,
			"-0.001": 18.2633789005,
			"0.0": 17.9020916534,
			"0.001": 14.7322559659,
			"0.002": 17.0283640192,
			"0.003": 14.8621849965,
			"0.004": 9.21582230988,
			"0.005": 6.408021202,
			"0.006": 8.14621016822,
			"0.007": 8.47787188496,
			"0.008": 6.90677242836,
			"0.009": 8.25018696016,
			"0.01": 10.0033345682,
			"0.011": 8.59210625978,
			"0.012": 5.9875588249,
			"0.013": 1.6700875971,
			"0.014": 0.0766296687119,
			"0.015": 0.0,
			"0.016": 0.0,
			"0.017": 0.0,
			"0.018": 0.0,
			"0.019": 0.0,
			"0.02": 0.0,
			"0.021": 0.0,
			"0.022": 0.0,
			"0.023": 0.0,
			"0.024": 0.0,
			"0.025": 0.0
		}
	}
}
