{
	 "smiles": "NC(CCO)C(O)=O", 
	 "Tm": 478.15, 
	 "num_atms": 17, 
	 "gaussian": { 
		 "optdone": 1, 
		 "sigma_profile": "yes", 
		 "theory": "DFT", 
		 "functional": "B3LYP", 
		 "basiset": "6-31G**", 
		 "properties": { 
			 "R2extent": 1661.7009, 
			 "electric_dipole_moment_norm": 3.38990911678, 
			 "electric_quadrupole_moment_norm": 9.08684359445, 
			 "total_energy": -438.270777238, 
			 "HOMO_LUMO_gap": 0.24242, 
			 "cosmo_polarized_energy": -16.03, 
			 "cosmo_cavitation_energy": 20.75, 
			 "cosmo_dispersion_energy": -15.11, 
			 "cosmo_repulsion_energy": 1.31, 
			 "cosmo_total_nonelectrostatic_energy": 6.95, 
			 "SMD_solvation_energy": 4.02 
		},
		"coords": [
			{
				"x": 0.1349311945,
				"y": 2.2979085686,
				"z": -0.9760676002,
				"element": "N" 
			},
			{
				"x": -0.6605419716,
				"y": 1.2305972807,
				"z": -0.3785801064,
				"element": "C" 
			},
			{
				"x": -0.4070205751,
				"y": -0.1105171899,
				"z": -1.0947083775,
				"element": "C" 
			},
			{
				"x": 1.0424126567,
				"y": -0.5880925024,
				"z": -0.9661408514,
				"element": "C" 
			},
			{
				"x": 1.2479082141,
				"y": -1.8489470223,
				"z": -1.5916021644,
				"element": "O" 
			},
			{
				"x": -2.1742453866,
				"y": 1.4718340383,
				"z": -0.2873291919,
				"element": "C" 
			},
			{
				"x": -2.5531680238,
				"y": 2.6638549445,
				"z": -0.8137534108,
				"element": "O" 
			},
			{
				"x": -2.9667706468,
				"y": 0.6976430109,
				"z": 0.2022961377,
				"element": "O" 
			},
			{
				"x": -0.2066518509,
				"y": 2.4920226095,
				"z": -1.914919772,
				"element": "H" 
			},
			{
				"x": 0.0107901363,
				"y": 3.161381174,
				"z": -0.4542349495,
				"element": "H" 
			},
			{
				"x": -0.3361945897,
				"y": 1.1148851095,
				"z": 0.665165425,
				"element": "H" 
			},
			{
				"x": -0.6623946808,
				"y": 0.0020003255,
				"z": -2.1597123031,
				"element": "H" 
			},
			{
				"x": -1.0788049886,
				"y": -0.8685268973,
				"z": -0.6831757477,
				"element": "H" 
			},
			{
				"x": 1.7266824062,
				"y": 0.1788636133,
				"z": -1.3516176347,
				"element": "H" 
			},
			{
				"x": 1.2864053688,
				"y": -0.7384150657,
				"z": 0.0917742767,
				"element": "H" 
			},
			{
				"x": 1.1713417389,
				"y": -1.72003135,
				"z": -2.545576758,
				"element": "H" 
			},
			{
				"x": -3.5178790017,
				"y": 2.7076393529,
				"z": -0.699216972,
				"element": "H" 
			}
		],
		 "valence_orbital": [ 
			{
				"type": "occ",
				"energy": -0.32238,
				"method": "rhf"
			},
			{
				"type": "occ",
				"energy": -0.32046,
				"method": "rhf"
			},
			{
				"type": "occ",
				"energy": -0.30006,
				"method": "rhf"
			},
			{
				"type": "occ",
				"energy": -0.26645,
				"method": "rhf"
			},
			{
				"type": "occ",
				"energy": -0.23945,
				"method": "rhf"
			},
			{
				"type": "unocc",
				"energy": 0.00297,
				"method": "rhf"
			},
			{
				"type": "unocc",
				"energy": 0.06084,
				"method": "rhf"
			},
			{
				"type": "unocc",
				"energy": 0.07852,
				"method": "rhf"
			},
			{
				"type": "unocc",
				"energy": 0.09579,
				"method": "rhf"
			},
			{
				"type": "unocc",
				"energy": 0.11338,
				"method": "rhf"
			}
		],
		"cosmo_sigma_profile": { 
			"-0.025": 0.0,
			"-0.024": 0.0,
			"-0.023": 0.0,
			"-0.022": 0.0,
			"-0.021": 0.0,
			"-0.02": 0.0,
			"-0.019": 0.0117278126321,
			"-0.018": 0.622017713078,
			"-0.017": 0.733952638708,
			"-0.016": 1.18428039742,
			"-0.015": 1.65358200847,
			"-0.014": 2.09522873359,
			"-0.013": 1.13579654055,
			"-0.012": 1.47154548917,
			"-0.011": 2.50355366172,
			"-0.01": 3.27125993669,
			"-0.009": 3.42912567503,
			"-0.008": 4.62649238644,
			"-0.007": 6.35691064129,
			"-0.006": 9.05773917115,
			"-0.005": 9.33829313894,
			"-0.004": 8.58968070114,
			"-0.003": 8.6758218482,
			"-0.002": 11.053431168,
			"-0.001": 9.07036801239,
			"0.0": 7.70161288839,
			"0.001": 6.51293227782,
			"0.002": 6.07998069754,
			"0.003": 4.51998246107,
			"0.004": 4.41704350791,
			"0.005": 5.43857029026,
			"0.006": 4.49713289642,
			"0.007": 3.4345832911,
			"0.008": 4.95322295514,
			"0.009": 4.52229795313,
			"0.01": 3.78264504705,
			"0.011": 4.55734952336,
			"0.012": 6.66526562052,
			"0.013": 3.47219693202,
			"0.014": 2.91332557179,
			"0.015": 1.74218915631,
			"0.016": 0.375750175901,
			"0.017": 0.0445657726574,
			"0.018": 0.0,
			"0.019": 0.0,
			"0.02": 0.0,
			"0.021": 0.0,
			"0.022": 0.0,
			"0.023": 0.0,
			"0.024": 0.0,
			"0.025": 0.0
		}
	}
}
