{
	 "smiles": "OCC1=CC=C(C=C1)C1=NC=CC=N1", 
	 "Tm": 350.15, 
	 "num_atms": 24, 
	 "gaussian": { 
		 "optdone": 1, 
		 "sigma_profile": "yes", 
		 "theory": "DFT", 
		 "functional": "B3LYP", 
		 "basiset": "6-31G**", 
		 "properties": { 
			 "R2extent": 3937.9443, 
			 "electric_dipole_moment_norm": 3.72812996689, 
			 "electric_quadrupole_moment_norm": 7.81966558108, 
			 "total_energy": -609.913215434, 
			 "HOMO_LUMO_gap": 0.18127, 
			 "cosmo_polarized_energy": -10.93, 
			 "cosmo_cavitation_energy": 28.43, 
			 "cosmo_dispersion_energy": -21.04, 
			 "cosmo_repulsion_energy": 1.65, 
			 "cosmo_total_nonelectrostatic_energy": 9.04, 
			 "SMD_solvation_energy": 2.84 
		},
		"coords": [
			{
				"x": -4.7503338408,
				"y": -1.1911288656,
				"z": -1.5190570336,
				"element": "O" 
			},
			{
				"x": -4.2039347961,
				"y": -0.0018638681,
				"z": -0.9378187284,
				"element": "C" 
			},
			{
				"x": -2.6966639234,
				"y": -0.0322664075,
				"z": -0.8552493258,
				"element": "C" 
			},
			{
				"x": -2.0509975878,
				"y": -0.5835946247,
				"z": 0.2613374413,
				"element": "C" 
			},
			{
				"x": -0.6630808967,
				"y": -0.6718082863,
				"z": 0.3144986093,
				"element": "C" 
			},
			{
				"x": 0.1180434944,
				"y": -0.2115128505,
				"z": -0.7572511848,
				"element": "C" 
			},
			{
				"x": -0.5224034048,
				"y": 0.337978176,
				"z": -1.8791076697,
				"element": "C" 
			},
			{
				"x": -1.9108318749,
				"y": 0.4225433574,
				"z": -1.924461245,
				"element": "C" 
			},
			{
				"x": 1.598838439,
				"y": -0.3005476944,
				"z": -0.7032506852,
				"element": "C" 
			},
			{
				"x": 2.2884148575,
				"y": 0.1606056139,
				"z": -1.7639740263,
				"element": "N" 
			},
			{
				"x": 3.6182101376,
				"y": 0.0748838292,
				"z": -1.7037368769,
				"element": "C" 
			},
			{
				"x": 4.2868913248,
				"y": -0.4629089262,
				"z": -0.6055068448,
				"element": "C" 
			},
			{
				"x": 3.4806931807,
				"y": -0.9120271318,
				"z": 0.4389093782,
				"element": "C" 
			},
			{
				"x": 2.1493816515,
				"y": -0.8371854519,
				"z": 0.4023005785,
				"element": "N" 
			},
			{
				"x": -4.0131777144,
				"y": -1.7732142161,
				"z": -1.7390273724,
				"element": "H" 
			},
			{
				"x": -4.6301113766,
				"y": 0.1210111711,
				"z": 0.0670946121,
				"element": "H" 
			},
			{
				"x": -4.5272727227,
				"y": 0.8587396303,
				"z": -1.5389678272,
				"element": "H" 
			},
			{
				"x": -2.6456161156,
				"y": -0.9406058105,
				"z": 1.0986319852,
				"element": "H" 
			},
			{
				"x": -0.1652452705,
				"y": -1.0921194329,
				"z": 1.1807951287,
				"element": "H" 
			},
			{
				"x": 0.0838366071,
				"y": 0.6958318134,
				"z": -2.7033568242,
				"element": "H" 
			},
			{
				"x": -2.3957943052,
				"y": 0.8526332449,
				"z": -2.7973416575,
				"element": "H" 
			},
			{
				"x": 4.1666740359,
				"y": 0.4506317214,
				"z": -2.5664689673,
				"element": "H" 
			},
			{
				"x": 5.3683514242,
				"y": -0.5280392493,
				"z": -0.5660997148,
				"element": "H" 
			},
			{
				"x": 3.9161286767,
				"y": -1.3474357417,
				"z": 1.3373082507,
				"element": "H" 
			}
		],
		 "valence_orbital": [ 
			{
				"type": "occ",
				"energy": -0.30127,
				"method": "rhf"
			},
			{
				"type": "occ",
				"energy": -0.26311,
				"method": "rhf"
			},
			{
				"type": "occ",
				"energy": -0.25324,
				"method": "rhf"
			},
			{
				"type": "occ",
				"energy": -0.25228,
				"method": "rhf"
			},
			{
				"type": "occ",
				"energy": -0.23959,
				"method": "rhf"
			},
			{
				"type": "unocc",
				"energy": -0.05832,
				"method": "rhf"
			},
			{
				"type": "unocc",
				"energy": -0.0446,
				"method": "rhf"
			},
			{
				"type": "unocc",
				"energy": -0.00284,
				"method": "rhf"
			},
			{
				"type": "unocc",
				"energy": 0.01886,
				"method": "rhf"
			},
			{
				"type": "unocc",
				"energy": 0.09817,
				"method": "rhf"
			}
		],
		"cosmo_sigma_profile": { 
			"-0.025": 0.0,
			"-0.024": 0.0,
			"-0.023": 0.0,
			"-0.022": 0.0,
			"-0.021": 0.0,
			"-0.02": 0.0,
			"-0.019": 0.0,
			"-0.018": 0.0,
			"-0.017": 0.0,
			"-0.016": 0.0,
			"-0.015": 0.182892835136,
			"-0.014": 0.740101604074,
			"-0.013": 0.750480787614,
			"-0.012": 0.64378752032,
			"-0.011": 0.264900937131,
			"-0.01": 0.909717786478,
			"-0.009": 0.89902616039,
			"-0.008": 3.97492824917,
			"-0.007": 8.99439693667,
			"-0.006": 12.4429811957,
			"-0.005": 13.4579280669,
			"-0.004": 18.4326121253,
			"-0.003": 14.9553808663,
			"-0.002": 17.3509358567,
			"-0.001": 17.823498575,
			"0.0": 19.5076578103,
			"0.001": 15.7911381993,
			"0.002": 13.2243349012,
			"0.003": 16.0680680586,
			"0.004": 15.990231959,
			"0.005": 6.70405119668,
			"0.006": 4.82028835664,
			"0.007": 3.63163575621,
			"0.008": 3.82113461547,
			"0.009": 3.33848175472,
			"0.01": 3.12362379378,
			"0.011": 3.43011019023,
			"0.012": 1.27187393748,
			"0.013": 1.52513146997,
			"0.014": 2.67435428764,
			"0.015": 0.904472585808,
			"0.016": 0.0,
			"0.017": 0.0,
			"0.018": 0.0,
			"0.019": 0.0,
			"0.02": 0.0,
			"0.021": 0.0,
			"0.022": 0.0,
			"0.023": 0.0,
			"0.024": 0.0,
			"0.025": 0.0
		}
	}
}
