{
	 "smiles": "CCCCCCNC(=O)N1C=C(F)C(=O)NC1=O", 
	 "Tm": 383.15, 
	 "num_atms": 34, 
	 "gaussian": { 
		 "optdone": 1, 
		 "sigma_profile": "yes", 
		 "theory": "DFT", 
		 "functional": "B3LYP", 
		 "basiset": "6-31G**", 
		 "properties": { 
			 "R2extent": 5874.2544, 
			 "electric_dipole_moment_norm": 5.10469164103, 
			 "electric_quadrupole_moment_norm": 5.43354688302, 
			 "total_energy": -918.615628096, 
			 "HOMO_LUMO_gap": 0.19793, 
			 "cosmo_polarized_energy": -18.06, 
			 "cosmo_cavitation_energy": 37.79, 
			 "cosmo_dispersion_energy": -25.38, 
			 "cosmo_repulsion_energy": 1.98, 
			 "cosmo_total_nonelectrostatic_energy": 14.39, 
			 "SMD_solvation_energy": 8.57 
		},
		"coords": [
			{
				"x": 0.2848818576,
				"y": -2.8823731581,
				"z": 1.739377909,
				"element": "C" 
			},
			{
				"x": -0.3965300994,
				"y": -1.7364665559,
				"z": 2.496719383,
				"element": "C" 
			},
			{
				"x": 0.4217192788,
				"y": -1.1693274312,
				"z": 3.6698438656,
				"element": "C" 
			},
			{
				"x": 1.7875804551,
				"y": -0.5337474658,
				"z": 3.3454489761,
				"element": "C" 
			},
			{
				"x": 1.7525828145,
				"y": 0.7494799079,
				"z": 2.4878334518,
				"element": "C" 
			},
			{
				"x": 1.8208114353,
				"y": 0.4964117726,
				"z": 0.9758985796,
				"element": "C" 
			},
			{
				"x": 1.8694723674,
				"y": 1.7674330752,
				"z": 0.2528745433,
				"element": "N" 
			},
			{
				"x": 1.2481617644,
				"y": 2.1665770551,
				"z": -0.8768569641,
				"element": "C" 
			},
			{
				"x": 1.1474476431,
				"y": 3.3278651437,
				"z": -1.2342190021,
				"element": "O" 
			},
			{
				"x": 0.601134098,
				"y": 1.1252601947,
				"z": -1.671257921,
				"element": "N" 
			},
			{
				"x": -0.583805323,
				"y": 1.5105684972,
				"z": -2.3002431821,
				"element": "C" 
			},
			{
				"x": -1.2173080965,
				"y": 0.7152421088,
				"z": -3.177284025,
				"element": "C" 
			},
			{
				"x": -2.373581043,
				"y": 1.0844465881,
				"z": -3.7402284542,
				"element": "F" 
			},
			{
				"x": -0.6725497406,
				"y": -0.5820867375,
				"z": -3.5741812247,
				"element": "C" 
			},
			{
				"x": -1.1720332143,
				"y": -1.3696422214,
				"z": -4.3541514083,
				"element": "O" 
			},
			{
				"x": 0.5585509489,
				"y": -0.8368507363,
				"z": -2.944091997,
				"element": "N" 
			},
			{
				"x": 1.2848412692,
				"y": -0.0401193108,
				"z": -2.0694689638,
				"element": "C" 
			},
			{
				"x": 2.4018830307,
				"y": -0.3408146341,
				"z": -1.6921959053,
				"element": "O" 
			},
			{
				"x": -0.376041095,
				"y": -3.2921970834,
				"z": 0.9687353434,
				"element": "H" 
			},
			{
				"x": 0.5467373656,
				"y": -3.7007337693,
				"z": 2.419916839,
				"element": "H" 
			},
			{
				"x": 1.2067570617,
				"y": -2.5619124963,
				"z": 1.2425770506,
				"element": "H" 
			},
			{
				"x": -0.6609638956,
				"y": -0.9320474123,
				"z": 1.7977486187,
				"element": "H" 
			},
			{
				"x": -1.3525976669,
				"y": -2.0967065283,
				"z": 2.8971930183,
				"element": "H" 
			},
			{
				"x": 0.5921848382,
				"y": -1.9791575147,
				"z": 4.3923214234,
				"element": "H" 
			},
			{
				"x": -0.1893731671,
				"y": -0.4225061151,
				"z": 4.1948021916,
				"element": "H" 
			},
			{
				"x": 2.2634299188,
				"y": -0.2886148493,
				"z": 4.3021303788,
				"element": "H" 
			},
			{
				"x": 2.4485971413,
				"y": -1.2710679002,
				"z": 2.8713572796,
				"element": "H" 
			},
			{
				"x": 2.6127844197,
				"y": 1.3770158513,
				"z": 2.7595197526,
				"element": "H" 
			},
			{
				"x": 0.8563659113,
				"y": 1.3380369844,
				"z": 2.72340673,
				"element": "H" 
			},
			{
				"x": 0.9450960179,
				"y": -0.0572616932,
				"z": 0.6343239328,
				"element": "H" 
			},
			{
				"x": 2.6991632097,
				"y": -0.1071203986,
				"z": 0.7268499555,
				"element": "H" 
			},
			{
				"x": 2.3425942539,
				"y": 2.5376307442,
				"z": 0.7079326621,
				"element": "H" 
			},
			{
				"x": -0.9532346449,
				"y": 2.4906779311,
				"z": -2.0309241339,
				"element": "H" 
			},
			{
				"x": 1.0315408854,
				"y": -1.6865918426,
				"z": -3.229708703,
				"element": "H" 
			}
		],
		 "valence_orbital": [ 
			{
				"type": "occ",
				"energy": -0.29949,
				"method": "rhf"
			},
			{
				"type": "occ",
				"energy": -0.29413,
				"method": "rhf"
			},
			{
				"type": "occ",
				"energy": -0.2788,
				"method": "rhf"
			},
			{
				"type": "occ",
				"energy": -0.27081,
				"method": "rhf"
			},
			{
				"type": "occ",
				"energy": -0.25185,
				"method": "rhf"
			},
			{
				"type": "unocc",
				"energy": -0.05392,
				"method": "rhf"
			},
			{
				"type": "unocc",
				"energy": -0.01279,
				"method": "rhf"
			},
			{
				"type": "unocc",
				"energy": 0.02047,
				"method": "rhf"
			},
			{
				"type": "unocc",
				"energy": 0.06048,
				"method": "rhf"
			},
			{
				"type": "unocc",
				"energy": 0.06805,
				"method": "rhf"
			}
		],
		"cosmo_sigma_profile": { 
			"-0.025": 0.0,
			"-0.024": 0.0,
			"-0.023": 0.0,
			"-0.022": 0.0,
			"-0.021": 0.0,
			"-0.02": 0.0,
			"-0.019": 0.0,
			"-0.018": 0.0,
			"-0.017": 0.257128658021,
			"-0.016": 1.11497605397,
			"-0.015": 0.964280294957,
			"-0.014": 1.36616674335,
			"-0.013": 1.84782327809,
			"-0.012": 2.20606560333,
			"-0.011": 2.63313704831,
			"-0.01": 2.86302980139,
			"-0.009": 2.78742789846,
			"-0.008": 3.78848267384,
			"-0.007": 5.84713650668,
			"-0.006": 8.51243876931,
			"-0.005": 10.4005182264,
			"-0.004": 14.0169864682,
			"-0.003": 25.8695577599,
			"-0.002": 37.6139687385,
			"-0.001": 34.0397547657,
			"0.0": 33.3688923641,
			"0.001": 24.6265526397,
			"0.002": 11.4522363152,
			"0.003": 12.316157164,
			"0.004": 7.40141770119,
			"0.005": 4.15650207344,
			"0.006": 4.67430507631,
			"0.007": 4.03442944381,
			"0.008": 4.15205932711,
			"0.009": 4.76603478658,
			"0.01": 5.78495819596,
			"0.011": 10.6947747054,
			"0.012": 11.6920675704,
			"0.013": 1.65745371532,
			"0.014": 0.0,
			"0.015": 0.0,
			"0.016": 0.0,
			"0.017": 0.0,
			"0.018": 0.0,
			"0.019": 0.0,
			"0.02": 0.0,
			"0.021": 0.0,
			"0.022": 0.0,
			"0.023": 0.0,
			"0.024": 0.0,
			"0.025": 0.0
		}
	}
}
