{
	 "smiles": "NC1=CC=C2C=CC=CC2=C1", 
	 "Tm": 385.15, 
	 "num_atms": 20, 
	 "gaussian": { 
		 "optdone": 1, 
		 "sigma_profile": "yes", 
		 "theory": "DFT", 
		 "functional": "B3LYP", 
		 "basiset": "6-31G**", 
		 "properties": { 
			 "R2extent": 1918.5295, 
			 "electric_dipole_moment_norm": 2.00229935324, 
			 "electric_quadrupole_moment_norm": 14.5259759173, 
			 "total_energy": -441.254569243, 
			 "HOMO_LUMO_gap": 0.16296, 
			 "cosmo_polarized_energy": -9.16, 
			 "cosmo_cavitation_energy": 23.34, 
			 "cosmo_dispersion_energy": -17.64, 
			 "cosmo_repulsion_energy": 1.39, 
			 "cosmo_total_nonelectrostatic_energy": 7.09, 
			 "SMD_solvation_energy": 3.65 
		},
		"coords": [
			{
				"x": -0.5663711731,
				"y": 2.9966070355,
				"z": -2.3661457771,
				"element": "N" 
			},
			{
				"x": -0.0941653041,
				"y": 1.7949407506,
				"z": -1.8340271675,
				"element": "C" 
			},
			{
				"x": 0.0577472035,
				"y": 0.6673675347,
				"z": -2.694043622,
				"element": "C" 
			},
			{
				"x": 0.4677287668,
				"y": -0.5450577457,
				"z": -2.1979907725,
				"element": "C" 
			},
			{
				"x": 0.7496253718,
				"y": -0.7218588119,
				"z": -0.8162069334,
				"element": "C" 
			},
			{
				"x": 1.1745190958,
				"y": -1.963615413,
				"z": -0.2765244998,
				"element": "C" 
			},
			{
				"x": 1.4393185682,
				"y": -2.0970842309,
				"z": 1.0687908532,
				"element": "C" 
			},
			{
				"x": 1.2882295986,
				"y": -0.9840816928,
				"z": 1.9319627613,
				"element": "C" 
			},
			{
				"x": 0.8778291684,
				"y": 0.2345641089,
				"z": 1.4387574986,
				"element": "C" 
			},
			{
				"x": 0.5954968711,
				"y": 0.4062671304,
				"z": 0.0549652117,
				"element": "C" 
			},
			{
				"x": 0.1768182396,
				"y": 1.6491449467,
				"z": -0.4829299886,
				"element": "C" 
			},
			{
				"x": -0.3514939877,
				"y": 3.1473887229,
				"z": -3.3422788506,
				"element": "H" 
			},
			{
				"x": -0.3734579662,
				"y": 3.8171185074,
				"z": -1.8081885798,
				"element": "H" 
			},
			{
				"x": -0.1630193238,
				"y": 0.7793900117,
				"z": -3.7529352103,
				"element": "H" 
			},
			{
				"x": 0.5810417703,
				"y": -1.3931601047,
				"z": -2.8687903356,
				"element": "H" 
			},
			{
				"x": 1.2875929281,
				"y": -2.8124063598,
				"z": -0.9469390391,
				"element": "H" 
			},
			{
				"x": 1.7634414634,
				"y": -3.052250348,
				"z": 1.4713866579,
				"element": "H" 
			},
			{
				"x": 1.4983823078,
				"y": -1.0958576003,
				"z": 2.9921489997,
				"element": "H" 
			},
			{
				"x": 0.7628873187,
				"y": 1.0857254602,
				"z": 2.1054272791,
				"element": "H" 
			},
			{
				"x": 0.0646490828,
				"y": 2.4995580979,
				"z": 0.1864615148,
				"element": "H" 
			}
		],
		 "valence_orbital": [ 
			{
				"type": "occ",
				"energy": -0.32157,
				"method": "rhf"
			},
			{
				"type": "occ",
				"energy": -0.2887,
				"method": "rhf"
			},
			{
				"type": "occ",
				"energy": -0.26697,
				"method": "rhf"
			},
			{
				"type": "occ",
				"energy": -0.22037,
				"method": "rhf"
			},
			{
				"type": "occ",
				"energy": -0.19016,
				"method": "rhf"
			},
			{
				"type": "unocc",
				"energy": -0.0272,
				"method": "rhf"
			},
			{
				"type": "unocc",
				"energy": 0.00709,
				"method": "rhf"
			},
			{
				"type": "unocc",
				"energy": 0.04254,
				"method": "rhf"
			},
			{
				"type": "unocc",
				"energy": 0.07989,
				"method": "rhf"
			},
			{
				"type": "unocc",
				"energy": 0.10357,
				"method": "rhf"
			}
		],
		"cosmo_sigma_profile": { 
			"-0.025": 0.0,
			"-0.024": 0.0,
			"-0.023": 0.0,
			"-0.022": 0.0,
			"-0.021": 0.0,
			"-0.02": 0.0,
			"-0.019": 0.0,
			"-0.018": 0.0,
			"-0.017": 0.0,
			"-0.016": 0.0,
			"-0.015": 0.0,
			"-0.014": 0.0,
			"-0.013": 0.36878496997,
			"-0.012": 2.36925232364,
			"-0.011": 2.72967509424,
			"-0.01": 2.73964402307,
			"-0.009": 3.47051757984,
			"-0.008": 2.21792777777,
			"-0.007": 3.16445432251,
			"-0.006": 7.10360446964,
			"-0.005": 15.3198996648,
			"-0.004": 14.534295942,
			"-0.003": 14.1725373841,
			"-0.002": 9.62957054024,
			"-0.001": 10.6681030618,
			"0.0": 8.93249808832,
			"0.001": 7.70488991935,
			"0.002": 9.36401200465,
			"0.003": 9.77782846959,
			"0.004": 12.3768895898,
			"0.005": 22.4249527394,
			"0.006": 18.4995144328,
			"0.007": 3.31923356437,
			"0.008": 1.18452703922,
			"0.009": 0.504253589109,
			"0.01": 0.523364360178,
			"0.011": 0.756371553275,
			"0.012": 0.882875870265,
			"0.013": 0.576094084632,
			"0.014": 0.667207711932,
			"0.015": 0.157448498502,
			"0.016": 0.0,
			"0.017": 0.0,
			"0.018": 0.0,
			"0.019": 0.0,
			"0.02": 0.0,
			"0.021": 0.0,
			"0.022": 0.0,
			"0.023": 0.0,
			"0.024": 0.0,
			"0.025": 0.0
		}
	}
}
