{
	 "smiles": "N#CC1=CC=C(OCC2CO2)C=C1", 
	 "Tm": 338.15, 
	 "num_atms": 22, 
	 "gaussian": { 
		 "optdone": 1, 
		 "sigma_profile": "yes", 
		 "theory": "DFT", 
		 "functional": "B3LYP", 
		 "basiset": "6-31G**", 
		 "properties": { 
			 "R2extent": 4020.0478, 
			 "electric_dipole_moment_norm": 4.77216423125, 
			 "electric_quadrupole_moment_norm": 28.9420763954, 
			 "total_energy": -591.611027427, 
			 "HOMO_LUMO_gap": 0.20006, 
			 "cosmo_polarized_energy": -13.62, 
			 "cosmo_cavitation_energy": 27.92, 
			 "cosmo_dispersion_energy": -19.81, 
			 "cosmo_repulsion_energy": 1.59, 
			 "cosmo_total_nonelectrostatic_energy": 9.69, 
			 "SMD_solvation_energy": 6.41 
		},
		"coords": [
			{
				"x": 4.6656765677,
				"y": -2.6581537134,
				"z": 0.1374608421,
				"element": "N" 
			},
			{
				"x": 3.7516313223,
				"y": -1.9422640796,
				"z": 0.2188263622,
				"element": "C" 
			},
			{
				"x": 2.6281147319,
				"y": -1.0604467173,
				"z": 0.3185894163,
				"element": "C" 
			},
			{
				"x": 1.4083727373,
				"y": -1.5210779961,
				"z": 0.8351626448,
				"element": "C" 
			},
			{
				"x": 0.3109533163,
				"y": -0.6690833601,
				"z": 0.9358205625,
				"element": "C" 
			},
			{
				"x": 0.4267246496,
				"y": 0.6633059512,
				"z": 0.5149056955,
				"element": "C" 
			},
			{
				"x": -0.5760982166,
				"y": 1.5785195534,
				"z": 0.5711533447,
				"element": "O" 
			},
			{
				"x": -1.8577826048,
				"y": 1.1708484985,
				"z": 1.0487851889,
				"element": "C" 
			},
			{
				"x": -2.775079703,
				"y": 2.3637108543,
				"z": 0.935832587,
				"element": "C" 
			},
			{
				"x": -3.0220124222,
				"y": 3.2463774799,
				"z": 2.0830676411,
				"element": "C" 
			},
			{
				"x": -3.9828003807,
				"y": 2.2551881276,
				"z": 1.6908164898,
				"element": "O" 
			},
			{
				"x": 1.6465147409,
				"y": 1.1310926185,
				"z": -0.0030238396,
				"element": "C" 
			},
			{
				"x": 2.734882808,
				"y": 0.2806842299,
				"z": -0.1004380848,
				"element": "C" 
			},
			{
				"x": 1.3205873857,
				"y": -2.5523794927,
				"z": 1.1603817559,
				"element": "H" 
			},
			{
				"x": -0.6187053697,
				"y": -1.0492572633,
				"z": 1.3410127409,
				"element": "H" 
			},
			{
				"x": -2.2432293434,
				"y": 0.3389366779,
				"z": 0.4434082931,
				"element": "H" 
			},
			{
				"x": -1.8041613967,
				"y": 0.8409752882,
				"z": 2.0944630511,
				"element": "H" 
			},
			{
				"x": -2.8896722052,
				"y": 2.7664651374,
				"z": -0.0716469916,
				"element": "H" 
			},
			{
				"x": -3.3201904776,
				"y": 4.279811098,
				"z": 1.9114914736,
				"element": "H" 
			},
			{
				"x": -2.5111320005,
				"y": 3.0563173408,
				"z": 3.0269242704,
				"element": "H" 
			},
			{
				"x": 1.71104688,
				"y": 2.1658710113,
				"z": -0.3214942751,
				"element": "H" 
			},
			{
				"x": 3.6755589805,
				"y": 0.6434587555,
				"z": -0.500899169,
				"element": "H" 
			}
		],
		 "valence_orbital": [ 
			{
				"type": "occ",
				"energy": -0.32542,
				"method": "rhf"
			},
			{
				"type": "occ",
				"energy": -0.31863,
				"method": "rhf"
			},
			{
				"type": "occ",
				"energy": -0.28753,
				"method": "rhf"
			},
			{
				"type": "occ",
				"energy": -0.27869,
				"method": "rhf"
			},
			{
				"type": "occ",
				"energy": -0.24185,
				"method": "rhf"
			},
			{
				"type": "unocc",
				"energy": -0.04179,
				"method": "rhf"
			},
			{
				"type": "unocc",
				"energy": -0.02648,
				"method": "rhf"
			},
			{
				"type": "unocc",
				"energy": 0.04034,
				"method": "rhf"
			},
			{
				"type": "unocc",
				"energy": 0.06544,
				"method": "rhf"
			},
			{
				"type": "unocc",
				"energy": 0.07801,
				"method": "rhf"
			}
		],
		"cosmo_sigma_profile": { 
			"-0.025": 0.0,
			"-0.024": 0.0,
			"-0.023": 0.0,
			"-0.022": 0.0,
			"-0.021": 0.0,
			"-0.02": 0.0,
			"-0.019": 0.0,
			"-0.018": 0.0,
			"-0.017": 0.0,
			"-0.016": 0.0,
			"-0.015": 0.0,
			"-0.014": 0.0,
			"-0.013": 0.0,
			"-0.012": 0.0,
			"-0.011": 0.0,
			"-0.01": 0.0,
			"-0.009": 0.0,
			"-0.008": 5.01023524586,
			"-0.007": 16.5870603505,
			"-0.006": 22.9340422614,
			"-0.005": 17.8651035116,
			"-0.004": 14.6424602159,
			"-0.003": 11.1431797031,
			"-0.002": 12.1255214976,
			"-0.001": 14.0737981009,
			"0.0": 13.936697822,
			"0.001": 14.052777223,
			"0.002": 18.026501907,
			"0.003": 13.4838115796,
			"0.004": 5.00506212262,
			"0.005": 4.01350945939,
			"0.006": 5.61608490292,
			"0.007": 5.68467530695,
			"0.008": 5.54018352646,
			"0.009": 5.21132591594,
			"0.01": 5.68387395651,
			"0.011": 6.6392902191,
			"0.012": 4.20978732338,
			"0.013": 2.14486032334,
			"0.014": 0.45088347575,
			"0.015": 0.0,
			"0.016": 0.0,
			"0.017": 0.0,
			"0.018": 0.0,
			"0.019": 0.0,
			"0.02": 0.0,
			"0.021": 0.0,
			"0.022": 0.0,
			"0.023": 0.0,
			"0.024": 0.0,
			"0.025": 0.0
		}
	}
}
