{
	 "smiles": "CC(C)(C)SC1=NC=C(C=C1)C(N)=S", 
	 "Tm": 452.15, 
	 "num_atms": 28, 
	 "gaussian": { 
		 "optdone": 1, 
		 "sigma_profile": "yes", 
		 "theory": "DFT", 
		 "functional": "B3LYP", 
		 "basiset": "6-31G**", 
		 "properties": { 
			 "R2extent": 5590.6406, 
			 "electric_dipole_moment_norm": 4.11697951537, 
			 "electric_quadrupole_moment_norm": 25.7698876078, 
			 "total_energy": -1295.39863008, 
			 "HOMO_LUMO_gap": 0.14198, 
			 "cosmo_polarized_energy": -16.44, 
			 "cosmo_cavitation_energy": 33.61, 
			 "cosmo_dispersion_energy": -24.93, 
			 "cosmo_repulsion_energy": 1.88, 
			 "cosmo_total_nonelectrostatic_energy": 10.55, 
			 "SMD_solvation_energy": 4.58 
		},
		"coords": [
			{
				"x": 0.6934430586,
				"y": 2.3651985596,
				"z": -1.7576172516,
				"element": "C" 
			},
			{
				"x": -0.2115439819,
				"y": 1.549956479,
				"z": -2.6909692528,
				"element": "C" 
			},
			{
				"x": -0.4698362851,
				"y": 2.3263073093,
				"z": -3.9947917388,
				"element": "C" 
			},
			{
				"x": 0.3880627383,
				"y": 0.1722188865,
				"z": -3.0033749681,
				"element": "C" 
			},
			{
				"x": -1.9400201813,
				"y": 1.3809445239,
				"z": -1.9686532872,
				"element": "S" 
			},
			{
				"x": -1.8172783821,
				"y": 0.5161325914,
				"z": -0.4235475902,
				"element": "C" 
			},
			{
				"x": -0.6434145542,
				"y": 0.0625672084,
				"z": 0.0337359451,
				"element": "N" 
			},
			{
				"x": -0.6196021049,
				"y": -0.5752314527,
				"z": 1.2067340381,
				"element": "C" 
			},
			{
				"x": -1.753792266,
				"y": -0.8217501198,
				"z": 1.9926665088,
				"element": "C" 
			},
			{
				"x": -2.9807885013,
				"y": -0.338260354,
				"z": 1.4970712353,
				"element": "C" 
			},
			{
				"x": -3.019844843,
				"y": 0.3377010126,
				"z": 0.2903649391,
				"element": "C" 
			},
			{
				"x": -1.6437493302,
				"y": -1.5521660561,
				"z": 3.2772992768,
				"element": "C" 
			},
			{
				"x": -2.7601738202,
				"y": -2.2226244285,
				"z": 3.6555194395,
				"element": "N" 
			},
			{
				"x": -0.2740283627,
				"y": -1.5382300584,
				"z": 4.2315519486,
				"element": "S" 
			},
			{
				"x": 1.6667910235,
				"y": 2.5128541971,
				"z": -2.2418870326,
				"element": "H" 
			},
			{
				"x": 0.2634282414,
				"y": 3.3498405459,
				"z": -1.552264826,
				"element": "H" 
			},
			{
				"x": 0.854954621,
				"y": 1.8440306353,
				"z": -0.8132383757,
				"element": "H" 
			},
			{
				"x": -1.1302419556,
				"y": 1.7744396827,
				"z": -4.6709886482,
				"element": "H" 
			},
			{
				"x": -0.9125950843,
				"y": 3.3081463303,
				"z": -3.8006986795,
				"element": "H" 
			},
			{
				"x": 0.4852482532,
				"y": 2.4819368846,
				"z": -4.5084934835,
				"element": "H" 
			},
			{
				"x": -0.2583180271,
				"y": -0.3947297703,
				"z": -3.6797978353,
				"element": "H" 
			},
			{
				"x": 0.5405096039,
				"y": -0.4044725262,
				"z": -2.0903482348,
				"element": "H" 
			},
			{
				"x": 1.3597768515,
				"y": 0.3074501525,
				"z": -3.4946215436,
				"element": "H" 
			},
			{
				"x": 0.3496875044,
				"y": -0.9237756395,
				"z": 1.5525161129,
				"element": "H" 
			},
			{
				"x": -3.8932037321,
				"y": -0.452729345,
				"z": 2.07566398,
				"element": "H" 
			},
			{
				"x": -3.9519317036,
				"y": 0.736497477,
				"z": -0.0964186455,
				"element": "H" 
			},
			{
				"x": -3.4893200268,
				"y": -2.4408256926,
				"z": 2.992361999,
				"element": "H" 
			},
			{
				"x": -2.7153187533,
				"y": -2.763427033,
				"z": 4.5071259699,
				"element": "H" 
			}
		],
		 "valence_orbital": [ 
			{
				"type": "occ",
				"energy": -0.29562,
				"method": "rhf"
			},
			{
				"type": "occ",
				"energy": -0.2657,
				"method": "rhf"
			},
			{
				"type": "occ",
				"energy": -0.23997,
				"method": "rhf"
			},
			{
				"type": "occ",
				"energy": -0.22267,
				"method": "rhf"
			},
			{
				"type": "occ",
				"energy": -0.20882,
				"method": "rhf"
			},
			{
				"type": "unocc",
				"energy": -0.06684,
				"method": "rhf"
			},
			{
				"type": "unocc",
				"energy": -0.03492,
				"method": "rhf"
			},
			{
				"type": "unocc",
				"energy": 0.01018,
				"method": "rhf"
			},
			{
				"type": "unocc",
				"energy": 0.03053,
				"method": "rhf"
			},
			{
				"type": "unocc",
				"energy": 0.05789,
				"method": "rhf"
			}
		],
		"cosmo_sigma_profile": { 
			"-0.025": 0.0,
			"-0.024": 0.0,
			"-0.023": 0.0,
			"-0.022": 0.0,
			"-0.021": 0.0,
			"-0.02": 0.0,
			"-0.019": 0.0,
			"-0.018": 0.0,
			"-0.017": 0.0,
			"-0.016": 0.481513347654,
			"-0.015": 1.87985492949,
			"-0.014": 2.64546851563,
			"-0.013": 3.2444582773,
			"-0.012": 2.102462557,
			"-0.011": 2.44634056641,
			"-0.01": 2.18229920844,
			"-0.009": 2.51853917162,
			"-0.008": 4.18032428448,
			"-0.007": 5.84760146109,
			"-0.006": 4.83352913149,
			"-0.005": 4.7071809369,
			"-0.004": 14.0503921727,
			"-0.003": 20.1760399693,
			"-0.002": 20.6122775222,
			"-0.001": 23.1920722071,
			"0.0": 31.9083870466,
			"0.001": 31.0532119759,
			"0.002": 19.7991532071,
			"0.003": 12.1351632037,
			"0.004": 10.8537497007,
			"0.005": 9.11438041753,
			"0.006": 8.26584431377,
			"0.007": 8.01648810744,
			"0.008": 8.55417115886,
			"0.009": 6.88030837309,
			"0.01": 4.24005719343,
			"0.011": 2.92449226904,
			"0.012": 0.950978799964,
			"0.013": 0.0,
			"0.014": 0.0,
			"0.015": 0.0,
			"0.016": 0.0,
			"0.017": 0.0,
			"0.018": 0.0,
			"0.019": 0.0,
			"0.02": 0.0,
			"0.021": 0.0,
			"0.022": 0.0,
			"0.023": 0.0,
			"0.024": 0.0,
			"0.025": 0.0
		}
	}
}
