{
	 "smiles": "CC1=CC=C(C=CS(Cl)(=O)=O)C=C1", 
	 "Tm": 385.15, 
	 "num_atms": 22, 
	 "gaussian": { 
		 "optdone": 1, 
		 "sigma_profile": "yes", 
		 "theory": "DFT", 
		 "functional": "B3LYP", 
		 "basiset": "6-31G**", 
		 "properties": { 
			 "R2extent": 4276.1176, 
			 "electric_dipole_moment_norm": 5.34962282596, 
			 "electric_quadrupole_moment_norm": 14.8858245069, 
			 "total_energy": -1357.12377558, 
			 "HOMO_LUMO_gap": 0.16665, 
			 "cosmo_polarized_energy": -10.93, 
			 "cosmo_cavitation_energy": 29.5, 
			 "cosmo_dispersion_energy": -21.88, 
			 "cosmo_repulsion_energy": 1.69, 
			 "cosmo_total_nonelectrostatic_energy": 9.31, 
			 "SMD_solvation_energy": 4.12 
		},
		"coords": [
			{
				"x": 3.2478633902,
				"y": 3.4714422184,
				"z": 1.0871100933,
				"element": "C" 
			},
			{
				"x": 2.3286099907,
				"y": 2.2809282313,
				"z": 0.9711112438,
				"element": "C" 
			},
			{
				"x": 2.8287128744,
				"y": 1.0065915204,
				"z": 0.6691270362,
				"element": "C" 
			},
			{
				"x": 1.9755042175,
				"y": -0.0840152382,
				"z": 0.5429852291,
				"element": "C" 
			},
			{
				"x": 0.583936107,
				"y": 0.065201194,
				"z": 0.6871581252,
				"element": "C" 
			},
			{
				"x": -0.2531052013,
				"y": -1.1255388796,
				"z": 0.5352695448,
				"element": "C" 
			},
			{
				"x": -1.5323988798,
				"y": -1.2933054232,
				"z": 0.1595457627,
				"element": "C" 
			},
			{
				"x": -2.6323357452,
				"y": 0.0038684292,
				"z": -0.3774536404,
				"element": "S" 
			},
			{
				"x": -4.050866162,
				"y": -1.2265022151,
				"z": -1.3994967567,
				"element": "Cl" 
			},
			{
				"x": -3.3440123345,
				"y": 0.5902272819,
				"z": 0.7558489287,
				"element": "O" 
			},
			{
				"x": -2.0040777584,
				"y": 0.8496438055,
				"z": -1.3842170754,
				"element": "O" 
			},
			{
				"x": 0.0824931851,
				"y": 1.3379284305,
				"z": 1.0168711644,
				"element": "C" 
			},
			{
				"x": 0.9446587438,
				"y": 2.4194826587,
				"z": 1.1553951699,
				"element": "C" 
			},
			{
				"x": 2.9014991637,
				"y": 4.1716579183,
				"z": 1.8531601722,
				"element": "H" 
			},
			{
				"x": 4.2686853053,
				"y": 3.1683352795,
				"z": 1.3363864075,
				"element": "H" 
			},
			{
				"x": 3.2916560137,
				"y": 4.0234047347,
				"z": 0.1398476533,
				"element": "H" 
			},
			{
				"x": 3.8988554191,
				"y": 0.8672933051,
				"z": 0.5410506198,
				"element": "H" 
			},
			{
				"x": 2.3864198217,
				"y": -1.0643375594,
				"z": 0.3156746904,
				"element": "H" 
			},
			{
				"x": 0.2549173153,
				"y": -2.0641559754,
				"z": 0.760767704,
				"element": "H" 
			},
			{
				"x": -2.0147276429,
				"y": -2.2623741165,
				"z": 0.1491013769,
				"element": "H" 
			},
			{
				"x": -0.9747141447,
				"y": 1.4783500992,
				"z": 1.2115061274,
				"element": "H" 
			},
			{
				"x": 0.5360263213,
				"y": 3.3906743008,
				"z": 1.4212504227,
				"element": "H" 
			}
		],
		 "valence_orbital": [ 
			{
				"type": "occ",
				"energy": -0.32371,
				"method": "rhf"
			},
			{
				"type": "occ",
				"energy": -0.31202,
				"method": "rhf"
			},
			{
				"type": "occ",
				"energy": -0.3098,
				"method": "rhf"
			},
			{
				"type": "occ",
				"energy": -0.26753,
				"method": "rhf"
			},
			{
				"type": "occ",
				"energy": -0.24901,
				"method": "rhf"
			},
			{
				"type": "unocc",
				"energy": -0.08236,
				"method": "rhf"
			},
			{
				"type": "unocc",
				"energy": -0.06751,
				"method": "rhf"
			},
			{
				"type": "unocc",
				"energy": -0.01885,
				"method": "rhf"
			},
			{
				"type": "unocc",
				"energy": 0.01367,
				"method": "rhf"
			},
			{
				"type": "unocc",
				"energy": 0.03802,
				"method": "rhf"
			}
		],
		"cosmo_sigma_profile": { 
			"-0.025": 0.0,
			"-0.024": 0.0,
			"-0.023": 0.0,
			"-0.022": 0.0,
			"-0.021": 0.0,
			"-0.02": 0.0,
			"-0.019": 0.0,
			"-0.018": 0.0,
			"-0.017": 0.0,
			"-0.016": 0.0,
			"-0.015": 0.0,
			"-0.014": 0.0,
			"-0.013": 0.0,
			"-0.012": 0.0,
			"-0.011": 0.363510055768,
			"-0.01": 2.1222354773,
			"-0.009": 5.57678459751,
			"-0.008": 4.0782267676,
			"-0.007": 5.29800890683,
			"-0.006": 8.03322086464,
			"-0.005": 14.2219897811,
			"-0.004": 17.2957779261,
			"-0.003": 15.0343096296,
			"-0.002": 17.3931522001,
			"-0.001": 20.8802835357,
			"0.0": 21.5377689937,
			"0.001": 15.9590728355,
			"0.002": 16.9861422756,
			"0.003": 21.1008089462,
			"0.004": 19.986991923,
			"0.005": 4.77852485621,
			"0.006": 4.4423274892,
			"0.007": 5.24739588145,
			"0.008": 11.4924020846,
			"0.009": 6.29283212447,
			"0.01": 0.254000119674,
			"0.011": 0.0,
			"0.012": 0.0,
			"0.013": 0.0,
			"0.014": 0.0,
			"0.015": 0.0,
			"0.016": 0.0,
			"0.017": 0.0,
			"0.018": 0.0,
			"0.019": 0.0,
			"0.02": 0.0,
			"0.021": 0.0,
			"0.022": 0.0,
			"0.023": 0.0,
			"0.024": 0.0,
			"0.025": 0.0
		}
	}
}
