{
	 "smiles": "ClC(C1=CC=C(Cl)C=C1)C1=CC=C(Cl)C=C1", 
	 "Tm": 331.15, 
	 "num_atms": 25, 
	 "gaussian": { 
		 "optdone": 1, 
		 "sigma_profile": "yes", 
		 "theory": "DFT", 
		 "functional": "B3LYP", 
		 "basiset": "6-31G**", 
		 "properties": { 
			 "R2extent": 7029.2402, 
			 "electric_dipole_moment_norm": 1.37812225873, 
			 "electric_quadrupole_moment_norm": 15.5194295684, 
			 "total_energy": -1881.39203016, 
			 "HOMO_LUMO_gap": 0.19927, 
			 "cosmo_polarized_energy": -8.48, 
			 "cosmo_cavitation_energy": 34.73, 
			 "cosmo_dispersion_energy": -24.93, 
			 "cosmo_repulsion_energy": 1.96, 
			 "cosmo_total_nonelectrostatic_energy": 11.77, 
			 "SMD_solvation_energy": 4.76 
		},
		"coords": [
			{
				"x": -0.0848207404,
				"y": -2.4593569431,
				"z": 1.727565285,
				"element": "Cl" 
			},
			{
				"x": 0.3418853644,
				"y": -0.7575380696,
				"z": 1.1310271189,
				"element": "C" 
			},
			{
				"x": -0.5706856193,
				"y": 0.287271774,
				"z": 1.7427242112,
				"element": "C" 
			},
			{
				"x": -1.9200797052,
				"y": 0.0580159293,
				"z": 2.0337117987,
				"element": "C" 
			},
			{
				"x": -2.7249575017,
				"y": 1.0761113569,
				"z": 2.545251586,
				"element": "C" 
			},
			{
				"x": -2.1727815401,
				"y": 2.3360205112,
				"z": 2.7698403309,
				"element": "C" 
			},
			{
				"x": -3.1793216325,
				"y": 3.6205705701,
				"z": 3.4191832431,
				"element": "Cl" 
			},
			{
				"x": -0.8294230373,
				"y": 2.588643183,
				"z": 2.4944766869,
				"element": "C" 
			},
			{
				"x": -0.0384803373,
				"y": 1.5610599548,
				"z": 1.9839883947,
				"element": "C" 
			},
			{
				"x": 0.397967594,
				"y": -0.7586483832,
				"z": -0.3820285195,
				"element": "C" 
			},
			{
				"x": -0.7289578436,
				"y": -0.4941823903,
				"z": -1.1703396437,
				"element": "C" 
			},
			{
				"x": -0.6497162972,
				"y": -0.5151729052,
				"z": -2.5612785284,
				"element": "C" 
			},
			{
				"x": 0.5723451787,
				"y": -0.8001264262,
				"z": -3.1704533884,
				"element": "C" 
			},
			{
				"x": 0.6808321866,
				"y": -0.8201486066,
				"z": -4.9228470908,
				"element": "Cl" 
			},
			{
				"x": 1.7104536085,
				"y": -1.0636670835,
				"z": -2.4092345853,
				"element": "C" 
			},
			{
				"x": 1.6129629803,
				"y": -1.0414724782,
				"z": -1.0194076581,
				"element": "C" 
			},
			{
				"x": 1.3516060573,
				"y": -0.6111305269,
				"z": 1.5178294696,
				"element": "H" 
			},
			{
				"x": -2.3430187782,
				"y": -0.9289900135,
				"z": 1.8809543863,
				"element": "H" 
			},
			{
				"x": -3.7685768526,
				"y": 0.8911343349,
				"z": 2.7741941025,
				"element": "H" 
			},
			{
				"x": -0.4092236455,
				"y": 3.5703315832,
				"z": 2.6824013555,
				"element": "H" 
			},
			{
				"x": 1.00850707,
				"y": 1.7585216932,
				"z": 1.7690352984,
				"element": "H" 
			},
			{
				"x": -1.6773057485,
				"y": -0.2602786832,
				"z": -0.6982406234,
				"element": "H" 
			},
			{
				"x": -1.5240563206,
				"y": -0.3081057801,
				"z": -3.1681575081,
				"element": "H" 
			},
			{
				"x": 2.6544121599,
				"y": -1.280408867,
				"z": -2.8965957339,
				"element": "H" 
			},
			{
				"x": 2.4965334007,
				"y": -1.2541537341,
				"z": -0.4232999881,
				"element": "H" 
			}
		],
		 "valence_orbital": [ 
			{
				"type": "occ",
				"energy": -0.30344,
				"method": "rhf"
			},
			{
				"type": "occ",
				"energy": -0.27435,
				"method": "rhf"
			},
			{
				"type": "occ",
				"energy": -0.27297,
				"method": "rhf"
			},
			{
				"type": "occ",
				"energy": -0.2588,
				"method": "rhf"
			},
			{
				"type": "occ",
				"energy": -0.24716,
				"method": "rhf"
			},
			{
				"type": "unocc",
				"energy": -0.04789,
				"method": "rhf"
			},
			{
				"type": "unocc",
				"energy": -0.02698,
				"method": "rhf"
			},
			{
				"type": "unocc",
				"energy": -0.02594,
				"method": "rhf"
			},
			{
				"type": "unocc",
				"energy": -0.0178,
				"method": "rhf"
			},
			{
				"type": "unocc",
				"energy": 0.02279,
				"method": "rhf"
			}
		],
		"cosmo_sigma_profile": { 
			"-0.025": 0.0,
			"-0.024": 0.0,
			"-0.023": 0.0,
			"-0.022": 0.0,
			"-0.021": 0.0,
			"-0.02": 0.0,
			"-0.019": 0.0,
			"-0.018": 0.0,
			"-0.017": 0.0,
			"-0.016": 0.0,
			"-0.015": 0.0,
			"-0.014": 0.0,
			"-0.013": 0.0,
			"-0.012": 0.0,
			"-0.011": 0.0,
			"-0.01": 0.0,
			"-0.009": 2.48635313763,
			"-0.008": 6.47226778662,
			"-0.007": 13.4588786282,
			"-0.006": 14.891191832,
			"-0.005": 16.1093349824,
			"-0.004": 12.5786392205,
			"-0.003": 13.0523871457,
			"-0.002": 14.3140155832,
			"-0.001": 16.2565096263,
			"0.0": 19.605530092,
			"0.001": 28.2718514758,
			"0.002": 33.6910810084,
			"0.003": 40.0224581892,
			"0.004": 28.4059032177,
			"0.005": 17.1065572509,
			"0.006": 7.68887067086,
			"0.007": 1.27542490464,
			"0.008": 0.0,
			"0.009": 0.0,
			"0.01": 0.0,
			"0.011": 0.0,
			"0.012": 0.0,
			"0.013": 0.0,
			"0.014": 0.0,
			"0.015": 0.0,
			"0.016": 0.0,
			"0.017": 0.0,
			"0.018": 0.0,
			"0.019": 0.0,
			"0.02": 0.0,
			"0.021": 0.0,
			"0.022": 0.0,
			"0.023": 0.0,
			"0.024": 0.0,
			"0.025": 0.0
		}
	}
}
