{
	 "smiles": "CC1=C(N)C=CC=C1F", 
	 "Tm": 280.15, 
	 "num_atms": 17, 
	 "gaussian": { 
		 "optdone": 1, 
		 "sigma_profile": "yes", 
		 "theory": "DFT", 
		 "functional": "B3LYP", 
		 "basiset": "6-31G**", 
		 "properties": { 
			 "R2extent": 1702.2054, 
			 "electric_dipole_moment_norm": 2.56326684721, 
			 "electric_quadrupole_moment_norm": 9.88195442764, 
			 "total_energy": -426.162802243, 
			 "HOMO_LUMO_gap": 0.21154, 
			 "cosmo_polarized_energy": -7.59, 
			 "cosmo_cavitation_energy": 20.48, 
			 "cosmo_dispersion_energy": -15.33, 
			 "cosmo_repulsion_energy": 1.23, 
			 "cosmo_total_nonelectrostatic_energy": 6.38, 
			 "SMD_solvation_energy": 3.97 
		},
		"coords": [
			{
				"x": -0.4463176767,
				"y": 0.7288414319,
				"z": 3.6346727565,
				"element": "C" 
			},
			{
				"x": -0.3865275761,
				"y": 0.5406152698,
				"z": 2.1409055364,
				"element": "C" 
			},
			{
				"x": -0.0470070188,
				"y": -0.7059781375,
				"z": 1.5674271842,
				"element": "C" 
			},
			{
				"x": 0.2802742482,
				"y": -1.7800977498,
				"z": 2.3976342898,
				"element": "N" 
			},
			{
				"x": 0.0169479905,
				"y": -0.8428000094,
				"z": 0.170204159,
				"element": "C" 
			},
			{
				"x": -0.2507724677,
				"y": 0.2425940345,
				"z": -0.6594044596,
				"element": "C" 
			},
			{
				"x": -0.5930448697,
				"y": 1.4825764409,
				"z": -0.120688028,
				"element": "C" 
			},
			{
				"x": -0.6503038886,
				"y": 1.5910831019,
				"z": 1.2637023515,
				"element": "C" 
			},
			{
				"x": -0.9816502103,
				"y": 2.7960551566,
				"z": 1.7925612022,
				"element": "F" 
			},
			{
				"x": 0.5003746665,
				"y": 0.4413910955,
				"z": 4.1078150599,
				"element": "H" 
			},
			{
				"x": -1.2382486723,
				"y": 0.1191973359,
				"z": 4.0923857169,
				"element": "H" 
			},
			{
				"x": -0.6516491328,
				"y": 1.7701073856,
				"z": 3.8839346456,
				"element": "H" 
			},
			{
				"x": -0.163890875,
				"y": -1.7834007828,
				"z": 3.3050775953,
				"element": "H" 
			},
			{
				"x": 0.2373784954,
				"y": -2.6869756645,
				"z": 1.9538515242,
				"element": "H" 
			},
			{
				"x": 0.2822959635,
				"y": -1.8057965514,
				"z": -0.2584028824,
				"element": "H" 
			},
			{
				"x": -0.197061238,
				"y": 0.1199183752,
				"z": -1.7371183255,
				"element": "H" 
			},
			{
				"x": -0.8107977382,
				"y": 2.3463692677,
				"z": -0.737758326,
				"element": "H" 
			}
		],
		 "valence_orbital": [ 
			{
				"type": "occ",
				"energy": -0.35597,
				"method": "rhf"
			},
			{
				"type": "occ",
				"energy": -0.33911,
				"method": "rhf"
			},
			{
				"type": "occ",
				"energy": -0.30276,
				"method": "rhf"
			},
			{
				"type": "occ",
				"energy": -0.23203,
				"method": "rhf"
			},
			{
				"type": "occ",
				"energy": -0.20303,
				"method": "rhf"
			},
			{
				"type": "unocc",
				"energy": 0.00851,
				"method": "rhf"
			},
			{
				"type": "unocc",
				"energy": 0.02102,
				"method": "rhf"
			},
			{
				"type": "unocc",
				"energy": 0.07448,
				"method": "rhf"
			},
			{
				"type": "unocc",
				"energy": 0.09751,
				"method": "rhf"
			},
			{
				"type": "unocc",
				"energy": 0.12188,
				"method": "rhf"
			}
		],
		"cosmo_sigma_profile": { 
			"-0.025": 0.0,
			"-0.024": 0.0,
			"-0.023": 0.0,
			"-0.022": 0.0,
			"-0.021": 0.0,
			"-0.02": 0.0,
			"-0.019": 0.0,
			"-0.018": 0.0,
			"-0.017": 0.0,
			"-0.016": 0.0,
			"-0.015": 0.0,
			"-0.014": 0.0,
			"-0.013": 0.208810609715,
			"-0.012": 1.54556612658,
			"-0.011": 2.74180661351,
			"-0.01": 2.82081443363,
			"-0.009": 3.32065710915,
			"-0.008": 3.08844189963,
			"-0.007": 2.77210756391,
			"-0.006": 5.3438944997,
			"-0.005": 8.0464292777,
			"-0.004": 9.09598407801,
			"-0.003": 12.0257345509,
			"-0.002": 9.90323333663,
			"-0.001": 9.9040146721,
			"0.0": 11.8993181369,
			"0.001": 10.8283133425,
			"0.002": 11.8537379337,
			"0.003": 11.2033111072,
			"0.004": 13.6239738495,
			"0.005": 15.9598130181,
			"0.006": 8.39633576844,
			"0.007": 2.66615902474,
			"0.008": 1.21047723835,
			"0.009": 0.871264249589,
			"0.01": 0.647284480386,
			"0.011": 0.839742639374,
			"0.012": 0.219111641823,
			"0.013": 0.687872431447,
			"0.014": 0.597918968586,
			"0.015": 0.0508552371674,
			"0.016": 0.0,
			"0.017": 0.0,
			"0.018": 0.0,
			"0.019": 0.0,
			"0.02": 0.0,
			"0.021": 0.0,
			"0.022": 0.0,
			"0.023": 0.0,
			"0.024": 0.0,
			"0.025": 0.0
		}
	}
}
