{
	 "smiles": "OC1=CC=C(C=C1[N+]([O-])=O)[N+]([O-])=O", 
	 "Tm": 389.15, 
	 "num_atms": 17, 
	 "gaussian": { 
		 "optdone": 1, 
		 "sigma_profile": "yes", 
		 "theory": "DFT", 
		 "functional": "B3LYP", 
		 "basiset": "6-31G**", 
		 "properties": { 
			 "R2extent": 3312.5244, 
			 "electric_dipole_moment_norm": 3.35716416787, 
			 "electric_quadrupole_moment_norm": 16.059584839, 
			 "total_energy": -716.47145748, 
			 "HOMO_LUMO_gap": 0.15759, 
			 "cosmo_polarized_energy": -11.34, 
			 "cosmo_cavitation_energy": 23.16, 
			 "cosmo_dispersion_energy": -17.42, 
			 "cosmo_repulsion_energy": 1.36, 
			 "cosmo_total_nonelectrostatic_energy": 7.1, 
			 "SMD_solvation_energy": 8.83 
		},
		"coords": [
			{
				"x": -1.9853258184,
				"y": -1.1772228713,
				"z": 1.3157191068,
				"element": "O" 
			},
			{
				"x": -1.5553778295,
				"y": -0.7330355817,
				"z": 0.1407479451,
				"element": "C" 
			},
			{
				"x": -1.2077832266,
				"y": -1.6825418445,
				"z": -0.8434556005,
				"element": "C" 
			},
			{
				"x": -0.7544621835,
				"y": -1.2838546026,
				"z": -2.0846716901,
				"element": "C" 
			},
			{
				"x": -0.6370399145,
				"y": 0.0854035976,
				"z": -2.3732625008,
				"element": "C" 
			},
			{
				"x": -0.9651105335,
				"y": 1.0524530555,
				"z": -1.4420908045,
				"element": "C" 
			},
			{
				"x": -1.4230634168,
				"y": 0.6433051767,
				"z": -0.1883951494,
				"element": "C" 
			},
			{
				"x": -1.7634951272,
				"y": 1.6714052457,
				"z": 0.7784330277,
				"element": "N" 
			},
			{
				"x": -2.174398445,
				"y": 1.3023230409,
				"z": 1.9024386745,
				"element": "O" 
			},
			{
				"x": -1.6392491655,
				"y": 2.8462634766,
				"z": 0.4669509781,
				"element": "O" 
			},
			{
				"x": -0.1549624933,
				"y": 0.5028800398,
				"z": -3.6937638895,
				"element": "N" 
			},
			{
				"x": 0.1273521433,
				"y": -0.3855942826,
				"z": -4.4973447068,
				"element": "O" 
			},
			{
				"x": -0.0642037992,
				"y": 1.7096107235,
				"z": -3.9122803001,
				"element": "O" 
			},
			{
				"x": -2.1774159004,
				"y": -0.3774268252,
				"z": 1.86649106,
				"element": "H" 
			},
			{
				"x": -1.3102121424,
				"y": -2.7310122244,
				"z": -0.5879938559,
				"element": "H" 
			},
			{
				"x": -0.4855016953,
				"y": -2.0055468912,
				"z": -2.8461276461,
				"element": "H" 
			},
			{
				"x": -0.8712504524,
				"y": 2.1049907672,
				"z": -1.6736946487,
				"element": "H" 
			}
		],
		 "valence_orbital": [ 
			{
				"type": "occ",
				"energy": -0.32466,
				"method": "rhf"
			},
			{
				"type": "occ",
				"energy": -0.32121,
				"method": "rhf"
			},
			{
				"type": "occ",
				"energy": -0.31385,
				"method": "rhf"
			},
			{
				"type": "occ",
				"energy": -0.30537,
				"method": "rhf"
			},
			{
				"type": "occ",
				"energy": -0.27972,
				"method": "rhf"
			},
			{
				"type": "unocc",
				"energy": -0.12213,
				"method": "rhf"
			},
			{
				"type": "unocc",
				"energy": -0.10219,
				"method": "rhf"
			},
			{
				"type": "unocc",
				"energy": -0.03782,
				"method": "rhf"
			},
			{
				"type": "unocc",
				"energy": -0.00684,
				"method": "rhf"
			},
			{
				"type": "unocc",
				"energy": 0.05973,
				"method": "rhf"
			}
		],
		"cosmo_sigma_profile": { 
			"-0.025": 0.0,
			"-0.024": 0.0,
			"-0.023": 0.0,
			"-0.022": 0.0,
			"-0.021": 0.0,
			"-0.02": 0.0,
			"-0.019": 0.0,
			"-0.018": 0.0,
			"-0.017": 0.0,
			"-0.016": 0.0,
			"-0.015": 0.0,
			"-0.014": 0.0,
			"-0.013": 0.0,
			"-0.012": 0.210937317693,
			"-0.011": 0.288275835467,
			"-0.01": 0.998706768644,
			"-0.009": 5.60377093343,
			"-0.008": 7.20838655817,
			"-0.007": 8.80104462741,
			"-0.006": 10.1745060378,
			"-0.005": 10.3218931706,
			"-0.004": 14.3034808368,
			"-0.003": 16.2186259849,
			"-0.002": 14.745752724,
			"-0.001": 11.1581093617,
			"0.0": 9.36403910481,
			"0.001": 6.17862606058,
			"0.002": 5.1494721845,
			"0.003": 5.32386970236,
			"0.004": 6.60885095706,
			"0.005": 8.39451417403,
			"0.006": 11.1370538901,
			"0.007": 15.4910782192,
			"0.008": 11.2644915657,
			"0.009": 6.48372957984,
			"0.01": 1.65335406928,
			"0.011": 0.0,
			"0.012": 0.0,
			"0.013": 0.0,
			"0.014": 0.0,
			"0.015": 0.0,
			"0.016": 0.0,
			"0.017": 0.0,
			"0.018": 0.0,
			"0.019": 0.0,
			"0.02": 0.0,
			"0.021": 0.0,
			"0.022": 0.0,
			"0.023": 0.0,
			"0.024": 0.0,
			"0.025": 0.0
		}
	}
}
