{
	 "smiles": "CNC(=O)C1=NN=C(Cl)C=C1", 
	 "Tm": 444.15, 
	 "num_atms": 17, 
	 "gaussian": { 
		 "optdone": 1, 
		 "sigma_profile": "yes", 
		 "theory": "DFT", 
		 "functional": "B3LYP", 
		 "basiset": "6-31G**", 
		 "properties": { 
			 "R2extent": 2695.7513, 
			 "electric_dipole_moment_norm": 0.847547674175, 
			 "electric_quadrupole_moment_norm": 18.7216207597, 
			 "total_energy": -931.889895199, 
			 "HOMO_LUMO_gap": 0.18477, 
			 "cosmo_polarized_energy": -12.41, 
			 "cosmo_cavitation_energy": 23.74, 
			 "cosmo_dispersion_energy": -17.86, 
			 "cosmo_repulsion_energy": 1.45, 
			 "cosmo_total_nonelectrostatic_energy": 7.32, 
			 "SMD_solvation_energy": 2.92 
		},
		"coords": [
			{
				"x": 0.0555831271,
				"y": 3.2981745171,
				"z": -1.9360035401,
				"element": "C" 
			},
			{
				"x": -0.2980292622,
				"y": 2.3349866711,
				"z": -2.9767905921,
				"element": "N" 
			},
			{
				"x": -0.5595256123,
				"y": 1.0009760121,
				"z": -2.9407528224,
				"element": "C" 
			},
			{
				"x": -0.841888746,
				"y": 0.3807296779,
				"z": -3.9672454928,
				"element": "O" 
			},
			{
				"x": -0.5095682773,
				"y": 0.2404167371,
				"z": -1.634320538,
				"element": "C" 
			},
			{
				"x": -0.2073563884,
				"y": 0.8721508511,
				"z": -0.4990713393,
				"element": "N" 
			},
			{
				"x": -0.1633881793,
				"y": 0.2003044497,
				"z": 0.6546711144,
				"element": "N" 
			},
			{
				"x": -0.4247239991,
				"y": -1.0981139987,
				"z": 0.6464553755,
				"element": "C" 
			},
			{
				"x": -0.3466524299,
				"y": -1.9047676025,
				"z": 2.1948752773,
				"element": "Cl" 
			},
			{
				"x": -0.7503573495,
				"y": -1.8392095791,
				"z": -0.4987682041,
				"element": "C" 
			},
			{
				"x": -0.7929553542,
				"y": -1.1366491571,
				"z": -1.6835144895,
				"element": "C" 
			},
			{
				"x": 0.1743146527,
				"y": 4.2682493353,
				"z": -2.4241318612,
				"element": "H" 
			},
			{
				"x": 0.9900198848,
				"y": 3.0358054041,
				"z": -1.4358762888,
				"element": "H" 
			},
			{
				"x": -0.7199964715,
				"y": 3.3780656385,
				"z": -1.1716537181,
				"element": "H" 
			},
			{
				"x": -0.3738894387,
				"y": 2.6855648768,
				"z": -3.9222588509,
				"element": "H" 
			},
			{
				"x": -0.9538182268,
				"y": -2.9020687983,
				"z": -0.4378519421,
				"element": "H" 
			},
			{
				"x": -1.0314679293,
				"y": -1.5896150352,
				"z": -2.6385620878,
				"element": "H" 
			}
		],
		 "valence_orbital": [ 
			{
				"type": "occ",
				"energy": -0.32407,
				"method": "rhf"
			},
			{
				"type": "occ",
				"energy": -0.28792,
				"method": "rhf"
			},
			{
				"type": "occ",
				"energy": -0.26445,
				"method": "rhf"
			},
			{
				"type": "occ",
				"energy": -0.25722,
				"method": "rhf"
			},
			{
				"type": "occ",
				"energy": -0.25709,
				"method": "rhf"
			},
			{
				"type": "unocc",
				"energy": -0.07232,
				"method": "rhf"
			},
			{
				"type": "unocc",
				"energy": -0.06502,
				"method": "rhf"
			},
			{
				"type": "unocc",
				"energy": 0.01827,
				"method": "rhf"
			},
			{
				"type": "unocc",
				"energy": 0.03738,
				"method": "rhf"
			},
			{
				"type": "unocc",
				"energy": 0.08028,
				"method": "rhf"
			}
		],
		"cosmo_sigma_profile": { 
			"-0.025": 0.0,
			"-0.024": 0.0,
			"-0.023": 0.0,
			"-0.022": 0.0,
			"-0.021": 0.0,
			"-0.02": 0.0,
			"-0.019": 0.0,
			"-0.018": 0.0,
			"-0.017": 0.0,
			"-0.016": 0.0,
			"-0.015": 0.0222373560159,
			"-0.014": 1.05449355539,
			"-0.013": 0.896892806694,
			"-0.012": 1.12950457041,
			"-0.011": 1.56769339991,
			"-0.01": 2.28996212545,
			"-0.009": 3.05531563213,
			"-0.008": 5.04955934026,
			"-0.007": 4.58760038713,
			"-0.006": 5.41878354858,
			"-0.005": 7.86886597131,
			"-0.004": 13.3067462881,
			"-0.003": 22.3661670186,
			"-0.002": 23.7575952713,
			"-0.001": 15.0421910954,
			"0.0": 9.52759936611,
			"0.001": 9.26377693265,
			"0.002": 11.182001542,
			"0.003": 12.9303330302,
			"0.004": 6.84182282875,
			"0.005": 4.24402431592,
			"0.006": 3.88787900644,
			"0.007": 3.30513875497,
			"0.008": 2.52634131418,
			"0.009": 2.55361609092,
			"0.01": 3.86564495371,
			"0.011": 3.21343560322,
			"0.012": 3.64099624001,
			"0.013": 5.68479081569,
			"0.014": 2.45277927846,
			"0.015": 0.0506267480424,
			"0.016": 0.0,
			"0.017": 0.0,
			"0.018": 0.0,
			"0.019": 0.0,
			"0.02": 0.0,
			"0.021": 0.0,
			"0.022": 0.0,
			"0.023": 0.0,
			"0.024": 0.0,
			"0.025": 0.0
		}
	}
}
