{
	 "smiles": "OC(=O)C1OC(C(C1C(O)=O)C(O)=O)C(O)=O", 
	 "Tm": 481.15, 
	 "num_atms": 25, 
	 "gaussian": { 
		 "optdone": 1, 
		 "sigma_profile": "yes", 
		 "theory": "DFT", 
		 "functional": "B3LYP", 
		 "basiset": "6-31G**", 
		 "properties": { 
			 "R2extent": 3704.7738, 
			 "electric_dipole_moment_norm": 3.24770124704, 
			 "electric_quadrupole_moment_norm": 19.4293419999, 
			 "total_energy": -986.72039279, 
			 "HOMO_LUMO_gap": 0.23705, 
			 "cosmo_polarized_energy": -27.06, 
			 "cosmo_cavitation_energy": 29.88, 
			 "cosmo_dispersion_energy": -21.03, 
			 "cosmo_repulsion_energy": 1.65, 
			 "cosmo_total_nonelectrostatic_energy": 10.49, 
			 "SMD_solvation_energy": 9.26 
		},
		"coords": [
			{
				"x": -0.3227040889,
				"y": 2.9184075536,
				"z": 1.3418842996,
				"element": "O" 
			},
			{
				"x": -1.3528873978,
				"y": 2.0887588157,
				"z": 1.5096070213,
				"element": "C" 
			},
			{
				"x": -2.5096059067,
				"y": 2.4211498425,
				"z": 1.3934623012,
				"element": "O" 
			},
			{
				"x": -0.9892227378,
				"y": 0.646507843,
				"z": 1.9035405908,
				"element": "C" 
			},
			{
				"x": 0.4238741251,
				"y": 0.4997620468,
				"z": 2.0723038529,
				"element": "O" 
			},
			{
				"x": 0.943709817,
				"y": -0.5184626926,
				"z": 1.2248396973,
				"element": "C" 
			},
			{
				"x": -0.2480175269,
				"y": -1.4020654424,
				"z": 0.8319283509,
				"element": "C" 
			},
			{
				"x": -1.4619267833,
				"y": -0.4268426448,
				"z": 0.877662147,
				"element": "C" 
			},
			{
				"x": -1.7047904727,
				"y": 0.1627492196,
				"z": -0.501868458,
				"element": "C" 
			},
			{
				"x": -2.9229245181,
				"y": -0.1347794243,
				"z": -0.9793483379,
				"element": "O" 
			},
			{
				"x": -0.8800471618,
				"y": 0.8082320773,
				"z": -1.1155485743,
				"element": "O" 
			},
			{
				"x": -0.3963109895,
				"y": -2.5837155604,
				"z": 1.7856927233,
				"element": "C" 
			},
			{
				"x": -1.5720911802,
				"y": -3.2207149166,
				"z": 1.6000884174,
				"element": "O" 
			},
			{
				"x": 0.4326493365,
				"y": -2.945504824,
				"z": 2.5891040473,
				"element": "O" 
			},
			{
				"x": 1.6867431003,
				"y": 0.02733663,
				"z": 0.0044640471,
				"element": "C" 
			},
			{
				"x": 1.983054966,
				"y": 1.337481861,
				"z": 0.120821329,
				"element": "O" 
			},
			{
				"x": 2.0316038734,
				"y": -0.6662086485,
				"z": -0.9233717727,
				"element": "O" 
			},
			{
				"x": 0.503806199,
				"y": 2.3998190584,
				"z": 1.3994421123,
				"element": "H" 
			},
			{
				"x": -1.4711531507,
				"y": 0.4606142021,
				"z": 2.8699860771,
				"element": "H" 
			},
			{
				"x": 1.6669703288,
				"y": -1.1028267638,
				"z": 1.8040479198,
				"element": "H" 
			},
			{
				"x": -0.1030460172,
				"y": -1.8203781097,
				"z": -0.1692109398,
				"element": "H" 
			},
			{
				"x": -2.367299783,
				"y": -0.9265120497,
				"z": 1.2168220506,
				"element": "H" 
			},
			{
				"x": -2.9963493878,
				"y": 0.2917518112,
				"z": -1.8509047095,
				"element": "H" 
			},
			{
				"x": -1.5816159813,
				"y": -3.9748806781,
				"z": 2.2138143789,
				"element": "H" 
			},
			{
				"x": 2.4277813373,
				"y": 1.5985207937,
				"z": -0.7032585713,
				"element": "H" 
			}
		],
		 "valence_orbital": [ 
			{
				"type": "occ",
				"energy": -0.31152,
				"method": "rhf"
			},
			{
				"type": "occ",
				"energy": -0.30862,
				"method": "rhf"
			},
			{
				"type": "occ",
				"energy": -0.29603,
				"method": "rhf"
			},
			{
				"type": "occ",
				"energy": -0.28608,
				"method": "rhf"
			},
			{
				"type": "occ",
				"energy": -0.26395,
				"method": "rhf"
			},
			{
				"type": "unocc",
				"energy": -0.0269,
				"method": "rhf"
			},
			{
				"type": "unocc",
				"energy": -0.01522,
				"method": "rhf"
			},
			{
				"type": "unocc",
				"energy": -0.01041,
				"method": "rhf"
			},
			{
				"type": "unocc",
				"energy": 0.00991,
				"method": "rhf"
			},
			{
				"type": "unocc",
				"energy": 0.05308,
				"method": "rhf"
			}
		],
		"cosmo_sigma_profile": { 
			"-0.025": 0.0,
			"-0.024": 0.0,
			"-0.023": 0.0,
			"-0.022": 0.0,
			"-0.021": 0.0,
			"-0.02": 0.279967510136,
			"-0.019": 2.83209542001,
			"-0.018": 2.62028998373,
			"-0.017": 2.86948871606,
			"-0.016": 2.540976753,
			"-0.015": 1.78309396026,
			"-0.014": 1.25484436417,
			"-0.013": 1.97622838151,
			"-0.012": 2.34406733014,
			"-0.011": 2.98531662409,
			"-0.01": 5.40087946645,
			"-0.009": 10.2947697574,
			"-0.008": 8.86904137739,
			"-0.007": 7.95608629798,
			"-0.006": 8.79808251534,
			"-0.005": 8.22313131496,
			"-0.004": 11.3731831814,
			"-0.003": 8.03774285071,
			"-0.002": 7.99885537074,
			"-0.001": 7.50129633873,
			"0.0": 10.4374326203,
			"0.001": 8.12478857338,
			"0.002": 9.39639419316,
			"0.003": 10.0932107642,
			"0.004": 9.54102357432,
			"0.005": 10.2209285414,
			"0.006": 9.89152265742,
			"0.007": 10.2205770422,
			"0.008": 10.3971063119,
			"0.009": 11.8090095518,
			"0.01": 12.9549596082,
			"0.011": 12.6969233224,
			"0.012": 3.62913827083,
			"0.013": 0.653823624364,
			"0.014": 0.0,
			"0.015": 0.0,
			"0.016": 0.0,
			"0.017": 0.0,
			"0.018": 0.0,
			"0.019": 0.0,
			"0.02": 0.0,
			"0.021": 0.0,
			"0.022": 0.0,
			"0.023": 0.0,
			"0.024": 0.0,
			"0.025": 0.0
		}
	}
}
