{
	 "smiles": "CN1N=C(C=C1C(F)(F)F)C1=CC=C(S1)C=O", 
	 "Tm": 353.65, 
	 "num_atms": 24, 
	 "gaussian": { 
		 "optdone": 1, 
		 "sigma_profile": "yes", 
		 "theory": "DFT", 
		 "functional": "B3LYP", 
		 "basiset": "6-31G**", 
		 "properties": { 
			 "R2extent": 7056.4221, 
			 "electric_dipole_moment_norm": 4.41403870962, 
			 "electric_quadrupole_moment_norm": 17.9092239042, 
			 "total_energy": -1267.68337941, 
			 "HOMO_LUMO_gap": 0.15224, 
			 "cosmo_polarized_energy": -10.6, 
			 "cosmo_cavitation_energy": 32.74, 
			 "cosmo_dispersion_energy": -23.47, 
			 "cosmo_repulsion_energy": 1.7, 
			 "cosmo_total_nonelectrostatic_energy": 10.97, 
			 "SMD_solvation_energy": 6.57 
		},
		"coords": [
			{
				"x": -1.8275762644,
				"y": 1.510893851,
				"z": -2.9543027582,
				"element": "C" 
			},
			{
				"x": -1.7494620838,
				"y": 0.7476060123,
				"z": -1.7162247691,
				"element": "N" 
			},
			{
				"x": -0.6244729922,
				"y": 0.0845250444,
				"z": -1.4124539441,
				"element": "N" 
			},
			{
				"x": -0.8837351421,
				"y": -0.5613519056,
				"z": -0.2626753626,
				"element": "C" 
			},
			{
				"x": -2.2085954448,
				"y": -0.3078515603,
				"z": 0.170136172,
				"element": "C" 
			},
			{
				"x": -2.7293798949,
				"y": 0.5327737145,
				"z": -0.7911738905,
				"element": "C" 
			},
			{
				"x": -4.0845694463,
				"y": 1.1453140857,
				"z": -0.8885309577,
				"element": "C" 
			},
			{
				"x": -4.0296573357,
				"y": 2.499546375,
				"z": -0.8581849093,
				"element": "F" 
			},
			{
				"x": -4.8619406248,
				"y": 0.7408678774,
				"z": 0.1285309911,
				"element": "F" 
			},
			{
				"x": -4.7017622787,
				"y": 0.814051102,
				"z": -2.0473167976,
				"element": "F" 
			},
			{
				"x": 0.1477047404,
				"y": -1.378329561,
				"z": 0.3592916281,
				"element": "C" 
			},
			{
				"x": 1.4370166373,
				"y": -1.5915670634,
				"z": -0.095832108,
				"element": "C" 
			},
			{
				"x": 2.1873571545,
				"y": -2.4414453991,
				"z": 0.7440161488,
				"element": "C" 
			},
			{
				"x": 1.4810754084,
				"y": -2.8842336386,
				"z": 1.845041502,
				"element": "C" 
			},
			{
				"x": -0.1452179861,
				"y": -2.2374217638,
				"z": 1.843644319,
				"element": "S" 
			},
			{
				"x": 1.9551616633,
				"y": -3.7697788017,
				"z": 2.9062461848,
				"element": "C" 
			},
			{
				"x": 3.0807365523,
				"y": -4.2383075412,
				"z": 2.9388623163,
				"element": "O" 
			},
			{
				"x": -2.3265499059,
				"y": 0.9314239106,
				"z": -3.7362825,
				"element": "H" 
			},
			{
				"x": -0.8074517139,
				"y": 1.737826268,
				"z": -3.2603229714,
				"element": "H" 
			},
			{
				"x": -2.3790426513,
				"y": 2.4355696193,
				"z": -2.7797836686,
				"element": "H" 
			},
			{
				"x": -2.7131781587,
				"y": -0.6718927335,
				"z": 1.0517756343,
				"element": "H" 
			},
			{
				"x": 1.8050270731,
				"y": -1.1382871324,
				"z": -1.0078932748,
				"element": "H" 
			},
			{
				"x": 3.2155224274,
				"y": -2.7370618493,
				"z": 0.5724616143,
				"element": "H" 
			},
			{
				"x": 1.2147902667,
				"y": -3.9993689105,
				"z": 3.7029714012,
				"element": "H" 
			}
		],
		 "valence_orbital": [ 
			{
				"type": "occ",
				"energy": -0.30104,
				"method": "rhf"
			},
			{
				"type": "occ",
				"energy": -0.2817,
				"method": "rhf"
			},
			{
				"type": "occ",
				"energy": -0.26897,
				"method": "rhf"
			},
			{
				"type": "occ",
				"energy": -0.2556,
				"method": "rhf"
			},
			{
				"type": "occ",
				"energy": -0.22852,
				"method": "rhf"
			},
			{
				"type": "unocc",
				"energy": -0.07628,
				"method": "rhf"
			},
			{
				"type": "unocc",
				"energy": -0.02663,
				"method": "rhf"
			},
			{
				"type": "unocc",
				"energy": 0.00049,
				"method": "rhf"
			},
			{
				"type": "unocc",
				"energy": 0.00877,
				"method": "rhf"
			},
			{
				"type": "unocc",
				"energy": 0.07053,
				"method": "rhf"
			}
		],
		"cosmo_sigma_profile": { 
			"-0.025": 0.0,
			"-0.024": 0.0,
			"-0.023": 0.0,
			"-0.022": 0.0,
			"-0.021": 0.0,
			"-0.02": 0.0,
			"-0.019": 0.0,
			"-0.018": 0.0,
			"-0.017": 0.0,
			"-0.016": 0.0,
			"-0.015": 0.0,
			"-0.014": 0.0,
			"-0.013": 0.0,
			"-0.012": 0.0,
			"-0.011": 0.0,
			"-0.01": 0.0,
			"-0.009": 0.948117613241,
			"-0.008": 3.81892866802,
			"-0.007": 12.5502935477,
			"-0.006": 13.9065097233,
			"-0.005": 14.803921317,
			"-0.004": 18.6276837822,
			"-0.003": 15.6158477845,
			"-0.002": 16.4943987902,
			"-0.001": 17.9641031922,
			"0.0": 20.0581010099,
			"0.001": 32.9903578698,
			"0.002": 47.4020536403,
			"0.003": 17.6329194433,
			"0.004": 4.34420848693,
			"0.005": 3.84087969152,
			"0.006": 2.45442458328,
			"0.007": 2.69426482825,
			"0.008": 2.80344593735,
			"0.009": 3.48338851952,
			"0.01": 3.1513949589,
			"0.011": 4.82253217854,
			"0.012": 4.00798561941,
			"0.013": 1.2468094824,
			"0.014": 0.0112125623188,
			"0.015": 0.0,
			"0.016": 0.0,
			"0.017": 0.0,
			"0.018": 0.0,
			"0.019": 0.0,
			"0.02": 0.0,
			"0.021": 0.0,
			"0.022": 0.0,
			"0.023": 0.0,
			"0.024": 0.0,
			"0.025": 0.0
		}
	}
}
