{
	 "smiles": "CCCCCCCCCCCCCCCCCCCCCCCCCCCCCC[Si](C)(C)Cl", 
	 "Tm": 343.15, 
	 "num_atms": 101, 
	 "gaussian": { 
		 "optdone": 1, 
		 "sigma_profile": "yes", 
		 "theory": "DFT", 
		 "functional": "B3LYP", 
		 "basiset": "6-31G**", 
		 "properties": { 
			 "R2extent": 49993.0858, 
			 "electric_dipole_moment_norm": 2.89554596234, 
			 "electric_quadrupole_moment_norm": 25.2285634732, 
			 "total_energy": -2009.65468015, 
			 "HOMO_LUMO_gap": 0.32143, 
			 "cosmo_polarized_energy": -5.58, 
			 "cosmo_cavitation_energy": 97.74, 
			 "cosmo_dispersion_energy": -58.38, 
			 "cosmo_repulsion_energy": 4.74, 
			 "cosmo_total_nonelectrostatic_energy": 44.09, 
			 "SMD_solvation_energy": 12.5 
		},
		"coords": [
			{
				"x": -6.2086009592,
				"y": -7.0259495277,
				"z": 0.0269554458,
				"element": "C" 
			},
			{
				"x": -7.7101393886,
				"y": -6.8291734418,
				"z": 0.2763322976,
				"element": "C" 
			},
			{
				"x": -8.1404079684,
				"y": -5.3814258369,
				"z": 0.6004717109,
				"element": "C" 
			},
			{
				"x": -8.5130370612,
				"y": -4.4943779231,
				"z": -0.6013747343,
				"element": "C" 
			},
			{
				"x": -7.385767375,
				"y": -4.1778944171,
				"z": -1.5946819494,
				"element": "C" 
			},
			{
				"x": -7.8147156476,
				"y": -3.1713274944,
				"z": -2.672834133,
				"element": "C" 
			},
			{
				"x": -6.7563743294,
				"y": -2.8889105315,
				"z": -3.7519858896,
				"element": "C" 
			},
			{
				"x": -5.4946442049,
				"y": -2.1736736396,
				"z": -3.247380576,
				"element": "C" 
			},
			{
				"x": -4.4994750108,
				"y": -1.8537920407,
				"z": -4.3722667973,
				"element": "C" 
			},
			{
				"x": -3.2541672329,
				"y": -1.0670962685,
				"z": -3.9308520949,
				"element": "C" 
			},
			{
				"x": -2.3121828203,
				"y": -1.826142357,
				"z": -2.9852465459,
				"element": "C" 
			},
			{
				"x": -1.0402183986,
				"y": -1.0407152003,
				"z": -2.6388023402,
				"element": "C" 
			},
			{
				"x": -0.0899724878,
				"y": -1.8102063435,
				"z": -1.7079622024,
				"element": "C" 
			},
			{
				"x": 1.2296316607,
				"y": -1.0878844145,
				"z": -1.357125974,
				"element": "C" 
			},
			{
				"x": 1.2068396753,
				"y": -0.19357436,
				"z": -0.1035503905,
				"element": "C" 
			},
			{
				"x": 0.3073816173,
				"y": 1.0499704259,
				"z": -0.1775065787,
				"element": "C" 
			},
			{
				"x": 0.483980272,
				"y": 2.0270659709,
				"z": 0.9979744695,
				"element": "C" 
			},
			{
				"x": 0.0465845484,
				"y": 1.4690688872,
				"z": 2.3609719307,
				"element": "C" 
			},
			{
				"x": 0.0727126846,
				"y": 2.4984647637,
				"z": 3.5054571527,
				"element": "C" 
			},
			{
				"x": 1.4543503994,
				"y": 3.0743308292,
				"z": 3.8640809681,
				"element": "C" 
			},
			{
				"x": 2.4601814798,
				"y": 2.0447283398,
				"z": 4.3985829059,
				"element": "C" 
			},
			{
				"x": 3.7989076633,
				"y": 2.6744102803,
				"z": 4.8078094596,
				"element": "C" 
			},
			{
				"x": 4.8109138801,
				"y": 1.6966385259,
				"z": 5.4294767454,
				"element": "C" 
			},
			{
				"x": 5.3234071948,
				"y": 0.540925625,
				"z": 4.5472932629,
				"element": "C" 
			},
			{
				"x": 6.1563696207,
				"y": 0.9443247462,
				"z": 3.3099553861,
				"element": "C" 
			},
			{
				"x": 5.3501161914,
				"y": 1.1572464769,
				"z": 2.0173409807,
				"element": "C" 
			},
			{
				"x": 6.2048195109,
				"y": 1.4434511484,
				"z": 0.7702928881,
				"element": "C" 
			},
			{
				"x": 6.9206932119,
				"y": 2.8022074346,
				"z": 0.786133506,
				"element": "C" 
			},
			{
				"x": 7.7956181711,
				"y": 3.0782696957,
				"z": -0.4495883308,
				"element": "C" 
			},
			{
				"x": 7.0689223385,
				"y": 3.1322728569,
				"z": -1.8132996496,
				"element": "C" 
			},
			{
				"x": 5.8084026625,
				"y": 4.5206028256,
				"z": -2.0833412696,
				"element": "Si" 
			},
			{
				"x": 6.485278212,
				"y": 6.1967689487,
				"z": -1.5600989364,
				"element": "C" 
			},
			{
				"x": 4.1164464963,
				"y": 4.196331927,
				"z": -1.3235743033,
				"element": "C" 
			},
			{
				"x": 5.4975777011,
				"y": 4.6001936666,
				"z": -4.1737814291,
				"element": "Cl" 
			},
			{
				"x": -5.6256755487,
				"y": -6.7153412958,
				"z": 0.9018438837,
				"element": "H" 
			},
			{
				"x": -5.8489874848,
				"y": -6.4467917917,
				"z": -0.8281017781,
				"element": "H" 
			},
			{
				"x": -5.9773412979,
				"y": -8.0792153649,
				"z": -0.1662500724,
				"element": "H" 
			},
			{
				"x": -8.2811466271,
				"y": -7.1919958736,
				"z": -0.5895923724,
				"element": "H" 
			},
			{
				"x": -8.0004088208,
				"y": -7.4759573844,
				"z": 1.113978172,
				"element": "H" 
			},
			{
				"x": -7.3497585057,
				"y": -4.8910646655,
				"z": 1.1865255327,
				"element": "H" 
			},
			{
				"x": -9.0174881997,
				"y": -5.4189195097,
				"z": 1.2591025541,
				"element": "H" 
			},
			{
				"x": -8.9095373283,
				"y": -3.5453615044,
				"z": -0.2135680306,
				"element": "H" 
			},
			{
				"x": -9.3453796208,
				"y": -4.9649713037,
				"z": -1.1446984255,
				"element": "H" 
			},
			{
				"x": -6.5183772815,
				"y": -3.79120535,
				"z": -1.0434298344,
				"element": "H" 
			},
			{
				"x": -7.0507753262,
				"y": -5.0998365608,
				"z": -2.0877436135,
				"element": "H" 
			},
			{
				"x": -8.7233388944,
				"y": -3.5483553275,
				"z": -3.1622084942,
				"element": "H" 
			},
			{
				"x": -8.1028910529,
				"y": -2.2257069479,
				"z": -2.1911062024,
				"element": "H" 
			},
			{
				"x": -6.4684170217,
				"y": -3.8352868141,
				"z": -4.2324919932,
				"element": "H" 
			},
			{
				"x": -7.2138300996,
				"y": -2.2778867288,
				"z": -4.5422129857,
				"element": "H" 
			},
			{
				"x": -5.7862990553,
				"y": -1.2384906316,
				"z": -2.7465963366,
				"element": "H" 
			},
			{
				"x": -5.0030076967,
				"y": -2.7877088661,
				"z": -2.4834199301,
				"element": "H" 
			},
			{
				"x": -4.1832825584,
				"y": -2.7910001197,
				"z": -4.8528805843,
				"element": "H" 
			},
			{
				"x": -5.0212376314,
				"y": -1.2786096228,
				"z": -5.1494611808,
				"element": "H" 
			},
			{
				"x": -3.5696585069,
				"y": -0.1287757416,
				"z": -3.452028074,
				"element": "H" 
			},
			{
				"x": -2.6896144862,
				"y": -0.7727514891,
				"z": -4.8261507933,
				"element": "H" 
			},
			{
				"x": -2.8388942618,
				"y": -2.0805800854,
				"z": -2.0558775635,
				"element": "H" 
			},
			{
				"x": -2.0324137043,
				"y": -2.784432378,
				"z": -3.4471774967,
				"element": "H" 
			},
			{
				"x": -0.5047846843,
				"y": -0.7924184024,
				"z": -3.5664705906,
				"element": "H" 
			},
			{
				"x": -1.3218688987,
				"y": -0.0809472398,
				"z": -2.1888752467,
				"element": "H" 
			},
			{
				"x": 0.151175693,
				"y": -2.7654507322,
				"z": -2.1934032827,
				"element": "H" 
			},
			{
				"x": -0.6177143817,
				"y": -2.0754806391,
				"z": -0.7803222382,
				"element": "H" 
			},
			{
				"x": 2.0077957405,
				"y": -1.8455726771,
				"z": -1.2001622464,
				"element": "H" 
			},
			{
				"x": 1.5613854959,
				"y": -0.496469865,
				"z": -2.2225920979,
				"element": "H" 
			},
			{
				"x": 0.9170789083,
				"y": -0.8090696861,
				"z": 0.7586068899,
				"element": "H" 
			},
			{
				"x": 2.2364530956,
				"y": 0.1375417875,
				"z": 0.0967882186,
				"element": "H" 
			},
			{
				"x": -0.7464352976,
				"y": 0.7468040101,
				"z": -0.2303459565,
				"element": "H" 
			},
			{
				"x": 0.5186605262,
				"y": 1.5846302506,
				"z": -1.1137720833,
				"element": "H" 
			},
			{
				"x": 1.5357416312,
				"y": 2.3418273499,
				"z": 1.041170194,
				"element": "H" 
			},
			{
				"x": -0.0955633399,
				"y": 2.9373262827,
				"z": 0.7898589407,
				"element": "H" 
			},
			{
				"x": 0.6661523987,
				"y": 0.6043957989,
				"z": 2.6281612949,
				"element": "H" 
			},
			{
				"x": -0.9784833999,
				"y": 1.083751196,
				"z": 2.2682908349,
				"element": "H" 
			},
			{
				"x": -0.5959369412,
				"y": 3.3301435359,
				"z": 3.2437368521,
				"element": "H" 
			},
			{
				"x": -0.3582187103,
				"y": 2.0359469707,
				"z": 4.4041032062,
				"element": "H" 
			},
			{
				"x": 1.3155825667,
				"y": 3.8574679246,
				"z": 4.6219892587,
				"element": "H" 
			},
			{
				"x": 1.8852875914,
				"y": 3.5818186115,
				"z": 2.9903278704,
				"element": "H" 
			},
			{
				"x": 2.0235656389,
				"y": 1.5289488795,
				"z": 5.2665793666,
				"element": "H" 
			},
			{
				"x": 2.6331006982,
				"y": 1.2700728609,
				"z": 3.6419452918,
				"element": "H" 
			},
			{
				"x": 4.2472022618,
				"y": 3.1775545817,
				"z": 3.9406965299,
				"element": "H" 
			},
			{
				"x": 3.6023550228,
				"y": 3.4705454543,
				"z": 5.5393132441,
				"element": "H" 
			},
			{
				"x": 5.6800108139,
				"y": 2.2716981362,
				"z": 5.7779504046,
				"element": "H" 
			},
			{
				"x": 4.3597968897,
				"y": 1.2611831363,
				"z": 6.3321089426,
				"element": "H" 
			},
			{
				"x": 4.4860431974,
				"y": -0.0956527215,
				"z": 4.2315810349,
				"element": "H" 
			},
			{
				"x": 5.946311912,
				"y": -0.0943476214,
				"z": 5.1894891173,
				"element": "H" 
			},
			{
				"x": 6.8950622639,
				"y": 0.155727756,
				"z": 3.1113955256,
				"element": "H" 
			},
			{
				"x": 6.7390799298,
				"y": 1.8440431248,
				"z": 3.5489257307,
				"element": "H" 
			},
			{
				"x": 4.7549180441,
				"y": 0.2527854967,
				"z": 1.8316601322,
				"element": "H" 
			},
			{
				"x": 4.6259279751,
				"y": 1.9713619436,
				"z": 2.1478235525,
				"element": "H" 
			},
			{
				"x": 5.5560401811,
				"y": 1.3853150141,
				"z": -0.1124589714,
				"element": "H" 
			},
			{
				"x": 6.9518279022,
				"y": 0.645030067,
				"z": 0.6505946097,
				"element": "H" 
			},
			{
				"x": 6.1736626941,
				"y": 3.6003200303,
				"z": 0.9053136501,
				"element": "H" 
			},
			{
				"x": 7.5636700586,
				"y": 2.8653501327,
				"z": 1.6725754056,
				"element": "H" 
			},
			{
				"x": 8.5717952249,
				"y": 2.3022284151,
				"z": -0.5016393131,
				"element": "H" 
			},
			{
				"x": 8.3326975074,
				"y": 4.0226371281,
				"z": -0.2934832288,
				"element": "H" 
			},
			{
				"x": 7.8214207552,
				"y": 3.2541371228,
				"z": -2.6033686254,
				"element": "H" 
			},
			{
				"x": 6.5785827968,
				"y": 2.1749407724,
				"z": -2.029819088,
				"element": "H" 
			},
			{
				"x": 6.6443327161,
				"y": 6.2298305097,
				"z": -0.4760107961,
				"element": "H" 
			},
			{
				"x": 7.4419107232,
				"y": 6.4083316366,
				"z": -2.047989884,
				"element": "H" 
			},
			{
				"x": 5.7888132409,
				"y": 6.9991597405,
				"z": -1.8223774902,
				"element": "H" 
			},
			{
				"x": 4.1682592148,
				"y": 4.1878807049,
				"z": -0.2293667232,
				"element": "H" 
			},
			{
				"x": 3.7153147749,
				"y": 3.2320320071,
				"z": -1.6508660559,
				"element": "H" 
			},
			{
				"x": 3.4053182724,
				"y": 4.9733569942,
				"z": -1.6214915463,
				"element": "H" 
			}
		],
		 "valence_orbital": [ 
			{
				"type": "occ",
				"energy": -0.29601,
				"method": "rhf"
			},
			{
				"type": "occ",
				"energy": -0.29418,
				"method": "rhf"
			},
			{
				"type": "occ",
				"energy": -0.29014,
				"method": "rhf"
			},
			{
				"type": "occ",
				"energy": -0.28919,
				"method": "rhf"
			},
			{
				"type": "occ",
				"energy": -0.28053,
				"method": "rhf"
			},
			{
				"type": "unocc",
				"energy": 0.0409,
				"method": "rhf"
			},
			{
				"type": "unocc",
				"energy": 0.04729,
				"method": "rhf"
			},
			{
				"type": "unocc",
				"energy": 0.06953,
				"method": "rhf"
			},
			{
				"type": "unocc",
				"energy": 0.07951,
				"method": "rhf"
			},
			{
				"type": "unocc",
				"energy": 0.08541,
				"method": "rhf"
			}
		],
		"cosmo_sigma_profile": { 
			"-0.025": 0.0,
			"-0.024": 0.0,
			"-0.023": 0.0,
			"-0.022": 0.0,
			"-0.021": 0.0,
			"-0.02": 0.0,
			"-0.019": 0.0,
			"-0.018": 0.0,
			"-0.017": 0.0,
			"-0.016": 0.0,
			"-0.015": 0.0,
			"-0.014": 0.0,
			"-0.013": 0.0,
			"-0.012": 0.0,
			"-0.011": 0.0,
			"-0.01": 0.0,
			"-0.009": 0.0,
			"-0.008": 0.0,
			"-0.007": 0.0,
			"-0.006": 2.50803066545e-05,
			"-0.005": 2.56395542913,
			"-0.004": 14.5750023242,
			"-0.003": 20.3247965722,
			"-0.002": 80.3545898143,
			"-0.001": 176.78282175,
			"0.0": 198.922774796,
			"0.001": 153.755022969,
			"0.002": 61.4720030551,
			"0.003": 5.85075989771,
			"0.004": 5.74933352802,
			"0.005": 5.63808720894,
			"0.006": 8.47385536959,
			"0.007": 10.3308489672,
			"0.008": 0.219307104505,
			"0.009": 0.0,
			"0.01": 0.0,
			"0.011": 0.0,
			"0.012": 0.0,
			"0.013": 0.0,
			"0.014": 0.0,
			"0.015": 0.0,
			"0.016": 0.0,
			"0.017": 0.0,
			"0.018": 0.0,
			"0.019": 0.0,
			"0.02": 0.0,
			"0.021": 0.0,
			"0.022": 0.0,
			"0.023": 0.0,
			"0.024": 0.0,
			"0.025": 0.0
		}
	}
}
