{
	 "smiles": "CCCC1=CN=C(N)S1", 
	 "Tm": 317.15, 
	 "num_atms": 19, 
	 "gaussian": { 
		 "optdone": 1, 
		 "sigma_profile": "yes", 
		 "theory": "DFT", 
		 "functional": "B3LYP", 
		 "basiset": "6-31G**", 
		 "properties": { 
			 "R2extent": 2147.2922, 
			 "electric_dipole_moment_norm": 1.43618187567, 
			 "electric_quadrupole_moment_norm": 10.8477297187, 
			 "total_energy": -742.360323087, 
			 "HOMO_LUMO_gap": 0.20341, 
			 "cosmo_polarized_energy": -9.43, 
			 "cosmo_cavitation_energy": 23.86, 
			 "cosmo_dispersion_energy": -18.08, 
			 "cosmo_repulsion_energy": 1.47, 
			 "cosmo_total_nonelectrostatic_energy": 7.25, 
			 "SMD_solvation_energy": 2.08 
		},
		"coords": [
			{
				"x": 0.2651539465,
				"y": -3.9292925381,
				"z": 1.7134621339,
				"element": "C" 
			},
			{
				"x": 0.3828374533,
				"y": -2.5283449109,
				"z": 1.1066495,
				"element": "C" 
			},
			{
				"x": 0.0532849871,
				"y": -1.4144406171,
				"z": 2.1205320269,
				"element": "C" 
			},
			{
				"x": 0.1862536906,
				"y": -0.0204998461,
				"z": 1.5843029526,
				"element": "C" 
			},
			{
				"x": 1.0682803536,
				"y": 0.9567486422,
				"z": 1.9331909585,
				"element": "C" 
			},
			{
				"x": 0.971664493,
				"y": 2.1755176438,
				"z": 1.2907453422,
				"element": "N" 
			},
			{
				"x": 0.0086912675,
				"y": 2.1512322884,
				"z": 0.4174739958,
				"element": "C" 
			},
			{
				"x": -0.2865473847,
				"y": 3.1933641339,
				"z": -0.4383400466,
				"element": "N" 
			},
			{
				"x": -0.8631972567,
				"y": 0.6135550769,
				"z": 0.3110958285,
				"element": "S" 
			},
			{
				"x": 0.5002664722,
				"y": -4.7027296274,
				"z": 0.9754573939,
				"element": "H" 
			},
			{
				"x": -0.7493526818,
				"y": -4.1191493387,
				"z": 2.0825366949,
				"element": "H" 
			},
			{
				"x": 0.9525709177,
				"y": -4.0557166465,
				"z": 2.5577995029,
				"element": "H" 
			},
			{
				"x": 1.39710527,
				"y": -2.3678191457,
				"z": 0.7217628257,
				"element": "H" 
			},
			{
				"x": -0.2888852641,
				"y": -2.4418962175,
				"z": 0.2431636333,
				"element": "H" 
			},
			{
				"x": 0.7279885229,
				"y": -1.4992002868,
				"z": 2.9821531466,
				"element": "H" 
			},
			{
				"x": -0.961120036,
				"y": -1.576872042,
				"z": 2.5118658529,
				"element": "H" 
			},
			{
				"x": 1.8278308414,
				"y": 0.8312450979,
				"z": 2.698011972,
				"element": "H" 
			},
			{
				"x": -1.2595271817,
				"y": 3.3082978122,
				"z": -0.6862879212,
				"element": "H" 
			},
			{
				"x": 0.1595015892,
				"y": 4.0568005216,
				"z": -0.1545757929,
				"element": "H" 
			}
		],
		 "valence_orbital": [ 
			{
				"type": "occ",
				"energy": -0.328,
				"method": "rhf"
			},
			{
				"type": "occ",
				"energy": -0.3066,
				"method": "rhf"
			},
			{
				"type": "occ",
				"energy": -0.26613,
				"method": "rhf"
			},
			{
				"type": "occ",
				"energy": -0.26484,
				"method": "rhf"
			},
			{
				"type": "occ",
				"energy": -0.20184,
				"method": "rhf"
			},
			{
				"type": "unocc",
				"energy": 0.00157,
				"method": "rhf"
			},
			{
				"type": "unocc",
				"energy": 0.01585,
				"method": "rhf"
			},
			{
				"type": "unocc",
				"energy": 0.0719,
				"method": "rhf"
			},
			{
				"type": "unocc",
				"energy": 0.07257,
				"method": "rhf"
			},
			{
				"type": "unocc",
				"energy": 0.09795,
				"method": "rhf"
			}
		],
		"cosmo_sigma_profile": { 
			"-0.025": 0.0,
			"-0.024": 0.0,
			"-0.023": 0.0,
			"-0.022": 0.0,
			"-0.021": 0.0,
			"-0.02": 0.0,
			"-0.019": 0.0,
			"-0.018": 0.0,
			"-0.017": 0.0,
			"-0.016": 0.0,
			"-0.015": 0.141652070296,
			"-0.014": 1.2505345375,
			"-0.013": 2.45004058502,
			"-0.012": 2.45950292865,
			"-0.011": 2.44848496435,
			"-0.01": 3.10561714459,
			"-0.009": 1.93892635149,
			"-0.008": 1.83594646972,
			"-0.007": 1.85234462246,
			"-0.006": 3.32303368582,
			"-0.005": 3.63183897381,
			"-0.004": 7.88220842588,
			"-0.003": 16.9804384613,
			"-0.002": 19.320208279,
			"-0.001": 19.6705928895,
			"0.0": 19.3190140955,
			"0.001": 18.4203842575,
			"0.002": 11.9403499464,
			"0.003": 10.8786811789,
			"0.004": 10.7058241672,
			"0.005": 9.89094470011,
			"0.006": 4.29240950173,
			"0.007": 2.12619733267,
			"0.008": 2.35105861954,
			"0.009": 2.26946316347,
			"0.01": 1.58509511126,
			"0.011": 1.85181560055,
			"0.012": 1.810279974,
			"0.013": 0.971296023415,
			"0.014": 1.10240168936,
			"0.015": 1.01830027567,
			"0.016": 0.580892336873,
			"0.017": 0.0865253004842,
			"0.018": 0.0,
			"0.019": 0.0,
			"0.02": 0.0,
			"0.021": 0.0,
			"0.022": 0.0,
			"0.023": 0.0,
			"0.024": 0.0,
			"0.025": 0.0
		}
	}
}
