{
	 "smiles": "COCCOC1=C(OC)C=C(C=C1)C(C)=NO", 
	 "Tm": 398.15, 
	 "num_atms": 34, 
	 "gaussian": { 
		 "optdone": 1, 
		 "sigma_profile": "yes", 
		 "theory": "DFT", 
		 "functional": "B3LYP", 
		 "basiset": "6-31G**", 
		 "properties": { 
			 "R2extent": 6392.2158, 
			 "electric_dipole_moment_norm": 0.88695064688, 
			 "electric_quadrupole_moment_norm": 15.2081405898, 
			 "total_energy": -823.068262731, 
			 "HOMO_LUMO_gap": 0.17483, 
			 "cosmo_polarized_energy": -14.12, 
			 "cosmo_cavitation_energy": 37.57, 
			 "cosmo_dispersion_energy": -26.51, 
			 "cosmo_repulsion_energy": 2.1, 
			 "cosmo_total_nonelectrostatic_energy": 13.16, 
			 "SMD_solvation_energy": 8.14 
		},
		"coords": [
			{
				"x": -1.2459233789,
				"y": 2.5865030129,
				"z": 4.37724289,
				"element": "C" 
			},
			{
				"x": -0.329093602,
				"y": 1.6637011762,
				"z": 3.8219599942,
				"element": "O" 
			},
			{
				"x": -0.7778223598,
				"y": 1.045724305,
				"z": 2.6262092063,
				"element": "C" 
			},
			{
				"x": -0.4831577488,
				"y": 1.9147076235,
				"z": 1.3979952779,
				"element": "C" 
			},
			{
				"x": -0.9638361496,
				"y": 1.2971435283,
				"z": 0.1988676488,
				"element": "O" 
			},
			{
				"x": -0.1705656589,
				"y": 0.3246400649,
				"z": -0.3605338679,
				"element": "C" 
			},
			{
				"x": -0.6181861399,
				"y": -1.0185813554,
				"z": -0.3455143582,
				"element": "C" 
			},
			{
				"x": -1.788518004,
				"y": -1.244196696,
				"z": 0.3169229634,
				"element": "O" 
			},
			{
				"x": -2.290673181,
				"y": -2.571090172,
				"z": 0.3441973152,
				"element": "C" 
			},
			{
				"x": 0.138374793,
				"y": -2.00188233,
				"z": -0.9753803707,
				"element": "C" 
			},
			{
				"x": 1.3515314544,
				"y": -1.6856077908,
				"z": -1.6206898849,
				"element": "C" 
			},
			{
				"x": 1.7858252817,
				"y": -0.3551905805,
				"z": -1.6225524331,
				"element": "C" 
			},
			{
				"x": 1.0233535787,
				"y": 0.6366625551,
				"z": -1.0002056181,
				"element": "C" 
			},
			{
				"x": 2.1468398629,
				"y": -2.7507099408,
				"z": -2.2852818975,
				"element": "C" 
			},
			{
				"x": 3.4600262118,
				"y": -2.4059590236,
				"z": -2.9411045277,
				"element": "C" 
			},
			{
				"x": 1.6446242917,
				"y": -3.9374153766,
				"z": -2.256382283,
				"element": "N" 
			},
			{
				"x": 2.4471476451,
				"y": -4.8917548901,
				"z": -2.9001755282,
				"element": "O" 
			},
			{
				"x": -0.8084698034,
				"y": 2.9481310256,
				"z": 5.3112658128,
				"element": "H" 
			},
			{
				"x": -1.4319986142,
				"y": 3.452404218,
				"z": 3.7245647107,
				"element": "H" 
			},
			{
				"x": -2.2137606388,
				"y": 2.111142492,
				"z": 4.6001174771,
				"element": "H" 
			},
			{
				"x": -0.2377363757,
				"y": 0.0974816443,
				"z": 2.5407005748,
				"element": "H" 
			},
			{
				"x": -1.8522869613,
				"y": 0.815624662,
				"z": 2.6651568849,
				"element": "H" 
			},
			{
				"x": 0.5937790341,
				"y": 2.1155035476,
				"z": 1.3362272152,
				"element": "H" 
			},
			{
				"x": -1.0057580631,
				"y": 2.8732053846,
				"z": 1.4641340258,
				"element": "H" 
			},
			{
				"x": -3.2247722871,
				"y": -2.5263398878,
				"z": 0.9063993194,
				"element": "H" 
			},
			{
				"x": -1.5975843568,
				"y": -3.2579293123,
				"z": 0.8469576159,
				"element": "H" 
			},
			{
				"x": -2.4937961453,
				"y": -2.946960681,
				"z": -0.6665708061,
				"element": "H" 
			},
			{
				"x": -0.1828871853,
				"y": -3.0346650093,
				"z": -0.9767986797,
				"element": "H" 
			},
			{
				"x": 2.7096004245,
				"y": -0.0747485759,
				"z": -2.1149352424,
				"element": "H" 
			},
			{
				"x": 1.3459606334,
				"y": 1.6732055397,
				"z": -1.02226911,
				"element": "H" 
			},
			{
				"x": 4.1422920151,
				"y": -1.9484108894,
				"z": -2.2170653242,
				"element": "H" 
			},
			{
				"x": 3.9301051335,
				"y": -3.2961002065,
				"z": -3.3537917862,
				"element": "H" 
			},
			{
				"x": 3.3074320428,
				"y": -1.6822107307,
				"z": -3.7490617614,
				"element": "H" 
			},
			{
				"x": 1.9287342513,
				"y": -5.698027331,
				"z": -2.7818054532,
				"element": "H" 
			}
		],
		 "valence_orbital": [ 
			{
				"type": "occ",
				"energy": -0.2705,
				"method": "rhf"
			},
			{
				"type": "occ",
				"energy": -0.26877,
				"method": "rhf"
			},
			{
				"type": "occ",
				"energy": -0.24563,
				"method": "rhf"
			},
			{
				"type": "occ",
				"energy": -0.22806,
				"method": "rhf"
			},
			{
				"type": "occ",
				"energy": -0.20623,
				"method": "rhf"
			},
			{
				"type": "unocc",
				"energy": -0.0314,
				"method": "rhf"
			},
			{
				"type": "unocc",
				"energy": 0.01014,
				"method": "rhf"
			},
			{
				"type": "unocc",
				"energy": 0.05496,
				"method": "rhf"
			},
			{
				"type": "unocc",
				"energy": 0.07787,
				"method": "rhf"
			},
			{
				"type": "unocc",
				"energy": 0.0865,
				"method": "rhf"
			}
		],
		"cosmo_sigma_profile": { 
			"-0.025": 0.0,
			"-0.024": 0.0,
			"-0.023": 0.0,
			"-0.022": 0.0,
			"-0.021": 0.0,
			"-0.02": 0.0,
			"-0.019": 0.0,
			"-0.018": 0.0510019045294,
			"-0.017": 0.67569501019,
			"-0.016": 0.85054272433,
			"-0.015": 1.45291769775,
			"-0.014": 0.666574917425,
			"-0.013": 0.451121350599,
			"-0.012": 0.487822944362,
			"-0.011": 0.719521185176,
			"-0.01": 0.684488916443,
			"-0.009": 0.831294708306,
			"-0.008": 0.512320980251,
			"-0.007": 0.799916484208,
			"-0.006": 9.9044707542,
			"-0.005": 28.0708694509,
			"-0.004": 33.412635778,
			"-0.003": 34.1514393313,
			"-0.002": 27.5391720645,
			"-0.001": 20.1400822519,
			"0.0": 15.4544841331,
			"0.001": 13.3635592385,
			"0.002": 13.7562569302,
			"0.003": 14.969276918,
			"0.004": 18.1924865087,
			"0.005": 14.5691725417,
			"0.006": 9.48851730426,
			"0.007": 7.46863558288,
			"0.008": 6.67296201319,
			"0.009": 6.51546534271,
			"0.01": 4.77852941157,
			"0.011": 2.98630357688,
			"0.012": 2.98016680481,
			"0.013": 2.48996305228,
			"0.014": 0.585801587672,
			"0.015": 0.0,
			"0.016": 0.0,
			"0.017": 0.0,
			"0.018": 0.0,
			"0.019": 0.0,
			"0.02": 0.0,
			"0.021": 0.0,
			"0.022": 0.0,
			"0.023": 0.0,
			"0.024": 0.0,
			"0.025": 0.0
		}
	}
}
