{
	 "smiles": "CCCCCCCCCCCCCCC(C)O", 
	 "Tm": 318.65, 
	 "num_atms": 51, 
	 "gaussian": { 
		 "optdone": 1, 
		 "sigma_profile": "yes", 
		 "theory": "DFT", 
		 "functional": "B3LYP", 
		 "basiset": "6-31G**", 
		 "properties": { 
			 "R2extent": 14142.9857, 
			 "electric_dipole_moment_norm": 1.44425991428, 
			 "electric_quadrupole_moment_norm": 13.8223340822, 
			 "total_energy": -705.460984051, 
			 "HOMO_LUMO_gap": 0.33365, 
			 "cosmo_polarized_energy": -6.29, 
			 "cosmo_cavitation_energy": 49.71, 
			 "cosmo_dispersion_energy": -34.2, 
			 "cosmo_repulsion_energy": 2.78, 
			 "cosmo_total_nonelectrostatic_energy": 18.29, 
			 "SMD_solvation_energy": 6.59 
		},
		"coords": [
			{
				"x": 6.294000221,
				"y": -1.7060684061,
				"z": -4.8449564971,
				"element": "C" 
			},
			{
				"x": 5.0161218994,
				"y": -2.546954867,
				"z": -4.7364006908,
				"element": "C" 
			},
			{
				"x": 4.1327156115,
				"y": -2.2093875961,
				"z": -3.5234781673,
				"element": "C" 
			},
			{
				"x": 3.5131148356,
				"y": -0.8038326563,
				"z": -3.5615278874,
				"element": "C" 
			},
			{
				"x": 2.515007774,
				"y": -0.5171585235,
				"z": -2.4266485337,
				"element": "C" 
			},
			{
				"x": 3.1431141536,
				"y": -0.4691358326,
				"z": -1.0249029346,
				"element": "C" 
			},
			{
				"x": 2.1774957963,
				"y": -0.0336839239,
				"z": 0.0905075843,
				"element": "C" 
			},
			{
				"x": 1.0368382888,
				"y": -1.0257938508,
				"z": 0.3668263047,
				"element": "C" 
			},
			{
				"x": 0.1643111595,
				"y": -0.670914656,
				"z": 1.5826259443,
				"element": "C" 
			},
			{
				"x": -0.6674746683,
				"y": 0.610245555,
				"z": 1.4270470769,
				"element": "C" 
			},
			{
				"x": -1.5756118729,
				"y": 0.8919427,
				"z": 2.6316515691,
				"element": "C" 
			},
			{
				"x": -2.4119429716,
				"y": 2.1694497212,
				"z": 2.4745408281,
				"element": "C" 
			},
			{
				"x": -3.2603365457,
				"y": 2.539217109,
				"z": 3.7053619972,
				"element": "C" 
			},
			{
				"x": -4.3288582967,
				"y": 1.516365859,
				"z": 4.1269171664,
				"element": "C" 
			},
			{
				"x": -5.422634543,
				"y": 1.2215957532,
				"z": 3.095523995,
				"element": "C" 
			},
			{
				"x": -6.2883168278,
				"y": 2.436920536,
				"z": 2.7560852044,
				"element": "C" 
			},
			{
				"x": -6.2162565648,
				"y": 0.1807193506,
				"z": 3.6736387979,
				"element": "O" 
			},
			{
				"x": 6.9055057797,
				"y": -2.0261429631,
				"z": -5.6951589226,
				"element": "H" 
			},
			{
				"x": 6.0733256096,
				"y": -0.6426124896,
				"z": -4.9824982399,
				"element": "H" 
			},
			{
				"x": 6.9068061667,
				"y": -1.8023073539,
				"z": -3.9408299124,
				"element": "H" 
			},
			{
				"x": 5.2927627102,
				"y": -3.6079029207,
				"z": -4.6846102518,
				"element": "H" 
			},
			{
				"x": 4.4249409864,
				"y": -2.43287673,
				"z": -5.655694434,
				"element": "H" 
			},
			{
				"x": 4.7256390268,
				"y": -2.3328713553,
				"z": -2.6072667837,
				"element": "H" 
			},
			{
				"x": 3.3210447253,
				"y": -2.9478613544,
				"z": -3.4617653438,
				"element": "H" 
			},
			{
				"x": 2.9982645346,
				"y": -0.6754468206,
				"z": -4.5240226023,
				"element": "H" 
			},
			{
				"x": 4.3060341672,
				"y": -0.0442522214,
				"z": -3.5379788892,
				"element": "H" 
			},
			{
				"x": 1.7180831538,
				"y": -1.2723184838,
				"z": -2.4542136775,
				"element": "H" 
			},
			{
				"x": 2.025955544,
				"y": 0.4473077066,
				"z": -2.6230071737,
				"element": "H" 
			},
			{
				"x": 3.5629072601,
				"y": -1.4511377071,
				"z": -0.7688659557,
				"element": "H" 
			},
			{
				"x": 3.992806094,
				"y": 0.2275922703,
				"z": -1.0470287669,
				"element": "H" 
			},
			{
				"x": 1.7641845007,
				"y": 0.9521599141,
				"z": -0.1614946349,
				"element": "H" 
			},
			{
				"x": 2.7507537811,
				"y": 0.1056493169,
				"z": 1.0177688344,
				"element": "H" 
			},
			{
				"x": 1.4722558764,
				"y": -2.0222413218,
				"z": 0.5258147227,
				"element": "H" 
			},
			{
				"x": 0.3940582308,
				"y": -1.1143600252,
				"z": -0.5191941982,
				"element": "H" 
			},
			{
				"x": -0.5169327076,
				"y": -1.5089418097,
				"z": 1.7838997251,
				"element": "H" 
			},
			{
				"x": 0.8036533011,
				"y": -0.5814788085,
				"z": 2.4728897273,
				"element": "H" 
			},
			{
				"x": -1.2829945965,
				"y": 0.5318611643,
				"z": 0.5187780056,
				"element": "H" 
			},
			{
				"x": -0.0046806405,
				"y": 1.4714820336,
				"z": 1.2702113545,
				"element": "H" 
			},
			{
				"x": -0.9596473353,
				"y": 0.9734130492,
				"z": 3.5391175973,
				"element": "H" 
			},
			{
				"x": -2.2352704525,
				"y": 0.0286943632,
				"z": 2.7910697548,
				"element": "H" 
			},
			{
				"x": -1.7365651948,
				"y": 3.0090882646,
				"z": 2.2604727325,
				"element": "H" 
			},
			{
				"x": -3.0540383965,
				"y": 2.0738450355,
				"z": 1.5880865637,
				"element": "H" 
			},
			{
				"x": -3.7356949571,
				"y": 3.5121351576,
				"z": 3.5261647515,
				"element": "H" 
			},
			{
				"x": -2.5868209854,
				"y": 2.6933577944,
				"z": 4.5590126806,
				"element": "H" 
			},
			{
				"x": -3.8590718442,
				"y": 0.5605281572,
				"z": 4.3847062775,
				"element": "H" 
			},
			{
				"x": -4.8230199997,
				"y": 1.8672786919,
				"z": 5.0420144776,
				"element": "H" 
			},
			{
				"x": -4.9526900481,
				"y": 0.8532655662,
				"z": 2.1679854631,
				"element": "H" 
			},
			{
				"x": -5.7038116005,
				"y": 3.2362160965,
				"z": 2.2893664287,
				"element": "H" 
			},
			{
				"x": -6.7591283839,
				"y": 2.8323538173,
				"z": 3.6623846883,
				"element": "H" 
			},
			{
				"x": -7.0835437202,
				"y": 2.1622821588,
				"z": 2.0521970882,
				"element": "H" 
			},
			{
				"x": -6.9191580351,
				"y": -0.0366844647,
				"z": 3.047877156,
				"element": "H" 
			}
		],
		 "valence_orbital": [ 
			{
				"type": "occ",
				"energy": -0.30223,
				"method": "rhf"
			},
			{
				"type": "occ",
				"energy": -0.30124,
				"method": "rhf"
			},
			{
				"type": "occ",
				"energy": -0.29968,
				"method": "rhf"
			},
			{
				"type": "occ",
				"energy": -0.29418,
				"method": "rhf"
			},
			{
				"type": "occ",
				"energy": -0.25949,
				"method": "rhf"
			},
			{
				"type": "unocc",
				"energy": 0.07416,
				"method": "rhf"
			},
			{
				"type": "unocc",
				"energy": 0.09042,
				"method": "rhf"
			},
			{
				"type": "unocc",
				"energy": 0.09191,
				"method": "rhf"
			},
			{
				"type": "unocc",
				"energy": 0.09562,
				"method": "rhf"
			},
			{
				"type": "unocc",
				"energy": 0.10647,
				"method": "rhf"
			}
		],
		"cosmo_sigma_profile": { 
			"-0.025": 0.0,
			"-0.024": 0.0,
			"-0.023": 0.0,
			"-0.022": 0.0,
			"-0.021": 0.0,
			"-0.02": 0.0,
			"-0.019": 0.0,
			"-0.018": 0.0,
			"-0.017": 0.0,
			"-0.016": 0.0,
			"-0.015": 0.281023240028,
			"-0.014": 0.998637528862,
			"-0.013": 1.06777049868,
			"-0.012": 0.819842656104,
			"-0.011": 0.88106620201,
			"-0.01": 0.890944080894,
			"-0.009": 1.01181629853,
			"-0.008": 0.897716544056,
			"-0.007": 1.022048906,
			"-0.006": 1.0831847164,
			"-0.005": 1.45364155593,
			"-0.004": 1.88267227925,
			"-0.003": 9.10831494114,
			"-0.002": 46.3761780621,
			"-0.001": 89.7582010522,
			"0.0": 90.6155407743,
			"0.001": 81.1508021438,
			"0.002": 30.1418082944,
			"0.003": 2.45564996509,
			"0.004": 1.42941130386,
			"0.005": 1.24577837428,
			"0.006": 1.04360980829,
			"0.007": 1.56835144034,
			"0.008": 1.31060462898,
			"0.009": 1.52167389488,
			"0.01": 1.10392670043,
			"0.011": 1.20587158234,
			"0.012": 1.2991881603,
			"0.013": 1.72262653252,
			"0.014": 1.95487879278,
			"0.015": 1.44999801336,
			"0.016": 0.0,
			"0.017": 0.0,
			"0.018": 0.0,
			"0.019": 0.0,
			"0.02": 0.0,
			"0.021": 0.0,
			"0.022": 0.0,
			"0.023": 0.0,
			"0.024": 0.0,
			"0.025": 0.0
		}
	}
}
