{
	 "smiles": "BrC1=CC=C(OC2=C(Br)C(Br)=C(Br)C(Br)=C2Br)C=C1Br", 
	 "Tm": 470.15, 
	 "num_atms": 23, 
	 "gaussian": { 
		 "optdone": 1, 
		 "sigma_profile": "yes", 
		 "theory": "DFT", 
		 "functional": "B3LYP", 
		 "basiset": "6-31G**", 
		 "properties": { 
			 "R2extent": 22545.7606, 
			 "electric_dipole_moment_norm": 1.5004013863, 
			 "electric_quadrupole_moment_norm": 10.1009678497, 
			 "total_energy": -18534.0867362, 
			 "HOMO_LUMO_gap": 0.16387, 
			 "cosmo_polarized_energy": -6.74, 
			 "cosmo_cavitation_energy": 43.77, 
			 "cosmo_dispersion_energy": -32.63, 
			 "cosmo_repulsion_energy": 2.54, 
			 "cosmo_total_nonelectrostatic_energy": 13.68, 
			 "SMD_solvation_energy": 0.44 
		},
		"coords": [
			{
				"x": -0.3871875068,
				"y": 0.5341077842,
				"z": -5.9556181523,
				"element": "Br" 
			},
			{
				"x": -0.2818008074,
				"y": 0.0524846346,
				"z": -4.1201962075,
				"element": "C" 
			},
			{
				"x": 0.7228519149,
				"y": -0.8367715904,
				"z": -3.7239615427,
				"element": "C" 
			},
			{
				"x": 0.8490286821,
				"y": -1.2249686823,
				"z": -2.3967072533,
				"element": "C" 
			},
			{
				"x": -0.0421193401,
				"y": -0.7170628605,
				"z": -1.4503615493,
				"element": "C" 
			},
			{
				"x": 0.1519325585,
				"y": -1.1530625256,
				"z": -0.1511217208,
				"element": "O" 
			},
			{
				"x": -0.6648992131,
				"y": -0.7204365102,
				"z": 0.8576350793,
				"element": "C" 
			},
			{
				"x": -1.8002134892,
				"y": -1.4653224801,
				"z": 1.2028639869,
				"element": "C" 
			},
			{
				"x": -2.2073340843,
				"y": -2.9895284038,
				"z": 0.1593909562,
				"element": "Br" 
			},
			{
				"x": -2.587658685,
				"y": -1.0809399627,
				"z": 2.2975734473,
				"element": "C" 
			},
			{
				"x": -4.1177403009,
				"y": -2.0956447392,
				"z": 2.7536371775,
				"element": "Br" 
			},
			{
				"x": -2.2320875309,
				"y": 0.0540263526,
				"z": 3.0479899298,
				"element": "C" 
			},
			{
				"x": -3.2925204983,
				"y": 0.578802662,
				"z": 4.5262742363,
				"element": "Br" 
			},
			{
				"x": -1.0886684234,
				"y": 0.7978002912,
				"z": 2.7057906426,
				"element": "C" 
			},
			{
				"x": -0.5939909308,
				"y": 2.3204822948,
				"z": 3.7134971809,
				"element": "Br" 
			},
			{
				"x": -0.3070395691,
				"y": 0.4063826398,
				"z": 1.6093769735,
				"element": "C" 
			},
			{
				"x": 1.2526441201,
				"y": 1.3481095634,
				"z": 1.1010786451,
				"element": "Br" 
			},
			{
				"x": -1.0490395653,
				"y": 0.1686326399,
				"z": -1.8218663639,
				"element": "C" 
			},
			{
				"x": -1.1664867039,
				"y": 0.5523580843,
				"z": -3.160838521,
				"element": "C" 
			},
			{
				"x": -2.5611436008,
				"y": 1.7643073876,
				"z": -3.6069979481,
				"element": "Br" 
			},
			{
				"x": 1.4080220272,
				"y": -1.2234185856,
				"z": -4.4693923174,
				"element": "H" 
			},
			{
				"x": 1.6250579488,
				"y": -1.9136245428,
				"z": -2.0826273709,
				"element": "H" 
			},
			{
				"x": -1.7426070022,
				"y": 0.5654865487,
				"z": -1.0919193083,
				"element": "H" 
			}
		],
		 "valence_orbital": [ 
			{
				"type": "occ",
				"energy": -0.2723,
				"method": "rhf"
			},
			{
				"type": "occ",
				"energy": -0.26387,
				"method": "rhf"
			},
			{
				"type": "occ",
				"energy": -0.2627,
				"method": "rhf"
			},
			{
				"type": "occ",
				"energy": -0.25964,
				"method": "rhf"
			},
			{
				"type": "occ",
				"energy": -0.24034,
				"method": "rhf"
			},
			{
				"type": "unocc",
				"energy": -0.07647,
				"method": "rhf"
			},
			{
				"type": "unocc",
				"energy": -0.06075,
				"method": "rhf"
			},
			{
				"type": "unocc",
				"energy": -0.05741,
				"method": "rhf"
			},
			{
				"type": "unocc",
				"energy": -0.03286,
				"method": "rhf"
			},
			{
				"type": "unocc",
				"energy": -0.02484,
				"method": "rhf"
			}
		],
		"cosmo_sigma_profile": { 
			"-0.025": 0.0,
			"-0.024": 0.0,
			"-0.023": 0.0,
			"-0.022": 0.0,
			"-0.021": 0.0,
			"-0.02": 0.0,
			"-0.019": 0.0,
			"-0.018": 0.0,
			"-0.017": 0.0,
			"-0.016": 0.0,
			"-0.015": 0.0,
			"-0.014": 0.0,
			"-0.013": 0.0,
			"-0.012": 0.0,
			"-0.011": 0.0,
			"-0.01": 0.0,
			"-0.009": 0.469695406222,
			"-0.008": 4.98761115282,
			"-0.007": 8.38325424562,
			"-0.006": 11.9570372638,
			"-0.005": 14.9225858194,
			"-0.004": 18.0309803109,
			"-0.003": 23.3712444603,
			"-0.002": 33.0557268269,
			"-0.001": 29.4754611414,
			"0.0": 32.0899450307,
			"0.001": 47.2406408438,
			"0.002": 57.3240097176,
			"0.003": 55.9147385016,
			"0.004": 29.4174784147,
			"0.005": 7.15805132536,
			"0.006": 1.4695989099,
			"0.007": 0.190673067795,
			"0.008": 0.0,
			"0.009": 0.0,
			"0.01": 0.0,
			"0.011": 0.0,
			"0.012": 0.0,
			"0.013": 0.0,
			"0.014": 0.0,
			"0.015": 0.0,
			"0.016": 0.0,
			"0.017": 0.0,
			"0.018": 0.0,
			"0.019": 0.0,
			"0.02": 0.0,
			"0.021": 0.0,
			"0.022": 0.0,
			"0.023": 0.0,
			"0.024": 0.0,
			"0.025": 0.0
		}
	}
}
