{
	 "smiles": "OC(=O)C1=C(F)C(OC(F)F)=CC=C1F", 
	 "Tm": 364.15, 
	 "num_atms": 19, 
	 "gaussian": { 
		 "optdone": 1, 
		 "sigma_profile": "yes", 
		 "theory": "DFT", 
		 "functional": "B3LYP", 
		 "basiset": "6-31G**", 
		 "properties": { 
			 "R2extent": 4372.1989, 
			 "electric_dipole_moment_norm": 3.83472383491, 
			 "electric_quadrupole_moment_norm": 13.2257044432, 
			 "total_energy": -932.264838038, 
			 "HOMO_LUMO_gap": 0.19561, 
			 "cosmo_polarized_energy": -13.9, 
			 "cosmo_cavitation_energy": 26.05, 
			 "cosmo_dispersion_energy": -18.8, 
			 "cosmo_repulsion_energy": 1.4, 
			 "cosmo_total_nonelectrostatic_energy": 8.65, 
			 "SMD_solvation_energy": 7.66 
		},
		"coords": [
			{
				"x": -1.2282689787,
				"y": 0.2912231555,
				"z": 1.3215219842,
				"element": "O" 
			},
			{
				"x": -0.701746178,
				"y": -0.8660255475,
				"z": 0.8633025183,
				"element": "C" 
			},
			{
				"x": -1.3418097127,
				"y": -1.8860141665,
				"z": 0.906050072,
				"element": "O" 
			},
			{
				"x": 0.7097557067,
				"y": -0.8169103248,
				"z": 0.3227760763,
				"element": "C" 
			},
			{
				"x": 1.3297498431,
				"y": 0.3457038952,
				"z": -0.1528180367,
				"element": "C" 
			},
			{
				"x": 0.6555110576,
				"y": 1.5327017619,
				"z": -0.0913439291,
				"element": "F" 
			},
			{
				"x": 2.6175993922,
				"y": 0.3754050267,
				"z": -0.6823474082,
				"element": "C" 
			},
			{
				"x": 3.199967964,
				"y": 1.5105062408,
				"z": -1.2044609035,
				"element": "O" 
			},
			{
				"x": 3.1638453185,
				"y": 2.699195421,
				"z": -0.4838910902,
				"element": "C" 
			},
			{
				"x": 3.4104056428,
				"y": 2.4607020226,
				"z": 0.8284970293,
				"element": "F" 
			},
			{
				"x": 4.1546768344,
				"y": 3.4559920957,
				"z": -0.9807810621,
				"element": "F" 
			},
			{
				"x": 3.3268910904,
				"y": -0.8215835112,
				"z": -0.7619873843,
				"element": "C" 
			},
			{
				"x": 2.7548463278,
				"y": -2.0075926646,
				"z": -0.3146626555,
				"element": "C" 
			},
			{
				"x": 1.4702077972,
				"y": -1.997026456,
				"z": 0.2180307178,
				"element": "C" 
			},
			{
				"x": 0.9743892292,
				"y": -3.1540591859,
				"z": 0.6587779845,
				"element": "F" 
			},
			{
				"x": -0.6320359197,
				"y": 1.0376045331,
				"z": 1.1660164174,
				"element": "H" 
			},
			{
				"x": 2.2131014895,
				"y": 3.2295398629,
				"z": -0.5753842581,
				"element": "H" 
			},
			{
				"x": 4.3279984815,
				"y": -0.7999457443,
				"z": -1.1776797626,
				"element": "H" 
			},
			{
				"x": 3.2921146143,
				"y": -2.9475164146,
				"z": -0.3615163095,
				"element": "H" 
			}
		],
		 "valence_orbital": [ 
			{
				"type": "occ",
				"energy": -0.35279,
				"method": "rhf"
			},
			{
				"type": "occ",
				"energy": -0.3232,
				"method": "rhf"
			},
			{
				"type": "occ",
				"energy": -0.29538,
				"method": "rhf"
			},
			{
				"type": "occ",
				"energy": -0.28212,
				"method": "rhf"
			},
			{
				"type": "occ",
				"energy": -0.26599,
				"method": "rhf"
			},
			{
				"type": "unocc",
				"energy": -0.07038,
				"method": "rhf"
			},
			{
				"type": "unocc",
				"energy": -0.03074,
				"method": "rhf"
			},
			{
				"type": "unocc",
				"energy": 0.02891,
				"method": "rhf"
			},
			{
				"type": "unocc",
				"energy": 0.03423,
				"method": "rhf"
			},
			{
				"type": "unocc",
				"energy": 0.08902,
				"method": "rhf"
			}
		],
		"cosmo_sigma_profile": { 
			"-0.025": 0.0,
			"-0.024": 0.0,
			"-0.023": 0.0,
			"-0.022": 0.0,
			"-0.021": 0.0,
			"-0.02": 0.0,
			"-0.019": 0.0,
			"-0.018": 0.0,
			"-0.017": 0.0,
			"-0.016": 0.093025605381,
			"-0.015": 1.05362105761,
			"-0.014": 0.684379857737,
			"-0.013": 0.882526274761,
			"-0.012": 1.21017209784,
			"-0.011": 1.39628296932,
			"-0.01": 2.78599158251,
			"-0.009": 5.26112572999,
			"-0.008": 6.82081285847,
			"-0.007": 7.0534636139,
			"-0.006": 7.95000085797,
			"-0.005": 8.51553566927,
			"-0.004": 8.82761821667,
			"-0.003": 13.1465700608,
			"-0.002": 16.9662157414,
			"-0.001": 16.1634278287,
			"0.0": 14.7357590252,
			"0.001": 13.0739595135,
			"0.002": 11.356665008,
			"0.003": 27.3792095289,
			"0.004": 9.54624308393,
			"0.005": 5.36983151858,
			"0.006": 3.73441223554,
			"0.007": 3.49207092844,
			"0.008": 3.701584544,
			"0.009": 4.26699735502,
			"0.01": 5.68959552086,
			"0.011": 6.23229294422,
			"0.012": 2.84651783478,
			"0.013": 0.316280688762,
			"0.014": 0.0,
			"0.015": 0.0,
			"0.016": 0.0,
			"0.017": 0.0,
			"0.018": 0.0,
			"0.019": 0.0,
			"0.02": 0.0,
			"0.021": 0.0,
			"0.022": 0.0,
			"0.023": 0.0,
			"0.024": 0.0,
			"0.025": 0.0
		}
	}
}
