{
	 "smiles": "FC1=CC=CC=C1C=C1N=C(OC1=O)C1=CC=CC=C1", 
	 "Tm": 421.15, 
	 "num_atms": 30, 
	 "gaussian": { 
		 "optdone": 1, 
		 "sigma_profile": "yes", 
		 "theory": "DFT", 
		 "functional": "B3LYP", 
		 "basiset": "6-31G**", 
		 "properties": { 
			 "R2extent": 8167.5143, 
			 "electric_dipole_moment_norm": 0.978821975642, 
			 "electric_quadrupole_moment_norm": 24.3094825833, 
			 "total_energy": -920.766460783, 
			 "HOMO_LUMO_gap": 0.12473, 
			 "cosmo_polarized_energy": -9.04, 
			 "cosmo_cavitation_energy": 36.14, 
			 "cosmo_dispersion_energy": -26.56, 
			 "cosmo_repulsion_energy": 1.96, 
			 "cosmo_total_nonelectrostatic_energy": 11.54, 
			 "SMD_solvation_energy": 6.06 
		},
		"coords": [
			{
				"x": -0.94330511,
				"y": 0.6533035496,
				"z": -4.5732621507,
				"element": "F" 
			},
			{
				"x": -2.0651011971,
				"y": 0.1301226162,
				"z": -4.0314195889,
				"element": "C" 
			},
			{
				"x": -3.1525102243,
				"y": -0.0687319386,
				"z": -4.8666091351,
				"element": "C" 
			},
			{
				"x": -4.3210787865,
				"y": -0.6078795866,
				"z": -4.3279890225,
				"element": "C" 
			},
			{
				"x": -4.3776949903,
				"y": -0.9359212957,
				"z": -2.9698728351,
				"element": "C" 
			},
			{
				"x": -3.2772084263,
				"y": -0.7301294599,
				"z": -2.1448448624,
				"element": "C" 
			},
			{
				"x": -2.0749468822,
				"y": -0.1856224296,
				"z": -2.6540387948,
				"element": "C" 
			},
			{
				"x": -0.8633049692,
				"y": 0.0768986809,
				"z": -1.9036672251,
				"element": "C" 
			},
			{
				"x": -0.5124034606,
				"y": -0.0950589647,
				"z": -0.5963933863,
				"element": "C" 
			},
			{
				"x": 0.7685097833,
				"y": 0.2623642135,
				"z": -0.1541542199,
				"element": "N" 
			},
			{
				"x": 0.805679029,
				"y": -0.0115873894,
				"z": 1.1066476318,
				"element": "C" 
			},
			{
				"x": -0.3552245243,
				"y": -0.5461953015,
				"z": 1.6309049971,
				"element": "O" 
			},
			{
				"x": -1.2607642469,
				"y": -0.6286980592,
				"z": 0.5715987676,
				"element": "C" 
			},
			{
				"x": -2.3737714669,
				"y": -1.0646710928,
				"z": 0.7383633555,
				"element": "O" 
			},
			{
				"x": 1.9242634509,
				"y": 0.1801495857,
				"z": 2.0213106571,
				"element": "C" 
			},
			{
				"x": 1.8159437703,
				"y": -0.1676216443,
				"z": 3.377546201,
				"element": "C" 
			},
			{
				"x": 2.8999166742,
				"y": 0.0255727591,
				"z": 4.2314136127,
				"element": "C" 
			},
			{
				"x": 4.0922324694,
				"y": 0.5635373817,
				"z": 3.742182418,
				"element": "C" 
			},
			{
				"x": 4.2019648869,
				"y": 0.9105993401,
				"z": 2.3912510049,
				"element": "C" 
			},
			{
				"x": 3.1257582097,
				"y": 0.7215577363,
				"z": 1.531431123,
				"element": "C" 
			},
			{
				"x": -3.0688672443,
				"y": 0.1985288549,
				"z": -5.9141754329,
				"element": "H" 
			},
			{
				"x": -5.1824414517,
				"y": -0.7700569982,
				"z": -4.9689128266,
				"element": "H" 
			},
			{
				"x": -5.2868460267,
				"y": -1.3553746493,
				"z": -2.5507942083,
				"element": "H" 
			},
			{
				"x": -3.3280703863,
				"y": -0.9864163881,
				"z": -1.0943451905,
				"element": "H" 
			},
			{
				"x": -0.056179905,
				"y": 0.4998208957,
				"z": -2.4944508335,
				"element": "H" 
			},
			{
				"x": 0.886992189,
				"y": -0.5848322212,
				"z": 3.7500419265,
				"element": "H" 
			},
			{
				"x": 2.8138167282,
				"y": -0.2440831915,
				"z": 5.279705752,
				"element": "H" 
			},
			{
				"x": 4.935080975,
				"y": 0.7126562584,
				"z": 4.4108378238,
				"element": "H" 
			},
			{
				"x": 5.1290585116,
				"y": 1.3289007596,
				"z": 2.0108388314,
				"element": "H" 
			},
			{
				"x": 3.1917026211,
				"y": 0.984467979,
				"z": 0.4811556103,
				"element": "H" 
			}
		],
		 "valence_orbital": [ 
			{
				"type": "occ",
				"energy": -0.27422,
				"method": "rhf"
			},
			{
				"type": "occ",
				"energy": -0.27224,
				"method": "rhf"
			},
			{
				"type": "occ",
				"energy": -0.26372,
				"method": "rhf"
			},
			{
				"type": "occ",
				"energy": -0.25701,
				"method": "rhf"
			},
			{
				"type": "occ",
				"energy": -0.2195,
				"method": "rhf"
			},
			{
				"type": "unocc",
				"energy": -0.09477,
				"method": "rhf"
			},
			{
				"type": "unocc",
				"energy": -0.0371,
				"method": "rhf"
			},
			{
				"type": "unocc",
				"energy": -0.01248,
				"method": "rhf"
			},
			{
				"type": "unocc",
				"energy": -0.00812,
				"method": "rhf"
			},
			{
				"type": "unocc",
				"energy": 0.00543,
				"method": "rhf"
			}
		],
		"cosmo_sigma_profile": { 
			"-0.025": 0.0,
			"-0.024": 0.0,
			"-0.023": 0.0,
			"-0.022": 0.0,
			"-0.021": 0.0,
			"-0.02": 0.0,
			"-0.019": 0.0,
			"-0.018": 0.0,
			"-0.017": 0.0,
			"-0.016": 0.0,
			"-0.015": 0.0,
			"-0.014": 0.0,
			"-0.013": 0.0,
			"-0.012": 0.0,
			"-0.011": 0.0,
			"-0.01": 0.0,
			"-0.009": 0.0,
			"-0.008": 1.15757569332,
			"-0.007": 7.41373319547,
			"-0.006": 17.7441928876,
			"-0.005": 21.3320120971,
			"-0.004": 18.9780436018,
			"-0.003": 18.8300111044,
			"-0.002": 21.1696278066,
			"-0.001": 22.2336302135,
			"0.0": 28.571817235,
			"0.001": 30.0716664814,
			"0.002": 27.1451117606,
			"0.003": 31.7306623815,
			"0.004": 19.8975751079,
			"0.005": 4.0956382571,
			"0.006": 4.46706183814,
			"0.007": 4.3114415645,
			"0.008": 2.67230573845,
			"0.009": 3.93296087391,
			"0.01": 4.03349597819,
			"0.011": 2.59579992955,
			"0.012": 0.714966732078,
			"0.013": 0.0,
			"0.014": 0.0,
			"0.015": 0.0,
			"0.016": 0.0,
			"0.017": 0.0,
			"0.018": 0.0,
			"0.019": 0.0,
			"0.02": 0.0,
			"0.021": 0.0,
			"0.022": 0.0,
			"0.023": 0.0,
			"0.024": 0.0,
			"0.025": 0.0
		}
	}
}
