{
	 "smiles": "CC(C)CC#C", 
	 "Tm": 168.15, 
	 "num_atms": 16, 
	 "gaussian": { 
		 "optdone": 1, 
		 "sigma_profile": "yes", 
		 "theory": "DFT", 
		 "functional": "B3LYP", 
		 "basiset": "6-31G**", 
		 "properties": { 
			 "R2extent": 758.1025, 
			 "electric_dipole_moment_norm": 0.630016388676, 
			 "electric_quadrupole_moment_norm": 3.19987782267, 
			 "total_energy": -234.605025723, 
			 "HOMO_LUMO_gap": 0.30986, 
			 "cosmo_polarized_energy": -3.48, 
			 "cosmo_cavitation_energy": 19.06, 
			 "cosmo_dispersion_energy": -13.18, 
			 "cosmo_repulsion_energy": 1.14, 
			 "cosmo_total_nonelectrostatic_energy": 7.01, 
			 "SMD_solvation_energy": 4.77 
		},
		"coords": [
			{
				"x": 1.2150488191,
				"y": -0.4816120779,
				"z": 0.8243352024,
				"element": "C" 
			},
			{
				"x": 1.379619949,
				"y": -0.0283665285,
				"z": -0.6320254106,
				"element": "C" 
			},
			{
				"x": 1.6344478812,
				"y": 1.4813739543,
				"z": -0.7282819641,
				"element": "C" 
			},
			{
				"x": 0.1676381988,
				"y": -0.4578878941,
				"z": -1.5024916119,
				"element": "C" 
			},
			{
				"x": -1.1073197519,
				"y": 0.1363917317,
				"z": -1.0950642367,
				"element": "C" 
			},
			{
				"x": -2.1548287552,
				"y": 0.6315045384,
				"z": -0.7514643905,
				"element": "C" 
			},
			{
				"x": 1.0832649644,
				"y": -1.5672544915,
				"z": 0.8927548022,
				"element": "H" 
			},
			{
				"x": 0.3395338016,
				"y": -0.0088269092,
				"z": 1.2816921513,
				"element": "H" 
			},
			{
				"x": 2.0945970553,
				"y": -0.2123972927,
				"z": 1.4184978786,
				"element": "H" 
			},
			{
				"x": 2.2488417997,
				"y": -0.5498080371,
				"z": -1.0565072196,
				"element": "H" 
			},
			{
				"x": 1.8007385547,
				"y": 1.7934318591,
				"z": -1.7654143114,
				"element": "H" 
			},
			{
				"x": 0.7786208672,
				"y": 2.0451640174,
				"z": -0.3423677312,
				"element": "H" 
			},
			{
				"x": 2.5176027599,
				"y": 1.7658737781,
				"z": -0.1467238913,
				"element": "H" 
			},
			{
				"x": 0.3658502284,
				"y": -0.1927628443,
				"z": -2.5497234225,
				"element": "H" 
			},
			{
				"x": 0.0757530162,
				"y": -1.5519966414,
				"z": -1.4751653135,
				"element": "H" 
			},
			{
				"x": -3.0821093884,
				"y": 1.0638728377,
				"z": -0.4552505313,
				"element": "H" 
			}
		],
		 "valence_orbital": [ 
			{
				"type": "occ",
				"energy": -0.34187,
				"method": "rhf"
			},
			{
				"type": "occ",
				"energy": -0.33253,
				"method": "rhf"
			},
			{
				"type": "occ",
				"energy": -0.32825,
				"method": "rhf"
			},
			{
				"type": "occ",
				"energy": -0.25859,
				"method": "rhf"
			},
			{
				"type": "occ",
				"energy": -0.25769,
				"method": "rhf"
			},
			{
				"type": "unocc",
				"energy": 0.05217,
				"method": "rhf"
			},
			{
				"type": "unocc",
				"energy": 0.06137,
				"method": "rhf"
			},
			{
				"type": "unocc",
				"energy": 0.09793,
				"method": "rhf"
			},
			{
				"type": "unocc",
				"energy": 0.12961,
				"method": "rhf"
			},
			{
				"type": "unocc",
				"energy": 0.14402,
				"method": "rhf"
			}
		],
		"cosmo_sigma_profile": { 
			"-0.025": 0.0,
			"-0.024": 0.0,
			"-0.023": 0.0,
			"-0.022": 0.0,
			"-0.021": 0.0,
			"-0.02": 0.0,
			"-0.019": 0.0,
			"-0.018": 0.0,
			"-0.017": 0.0,
			"-0.016": 0.0,
			"-0.015": 0.0,
			"-0.014": 0.0,
			"-0.013": 0.0,
			"-0.012": 0.0181647711697,
			"-0.011": 0.823649106823,
			"-0.01": 1.27082745556,
			"-0.009": 0.65142405594,
			"-0.008": 1.05674034038,
			"-0.007": 1.66961071126,
			"-0.006": 0.744842126867,
			"-0.005": 4.35691811145,
			"-0.004": 6.18586885738,
			"-0.003": 15.9523091872,
			"-0.002": 19.779887652,
			"-0.001": 18.7810440168,
			"0.0": 17.032052628,
			"0.001": 19.2737691704,
			"0.002": 11.0362722622,
			"0.003": 5.18535310702,
			"0.004": 4.71914806319,
			"0.005": 6.95336083233,
			"0.006": 4.95143832163,
			"0.007": 6.05360770474,
			"0.008": 2.96297736767,
			"0.009": 0.0,
			"0.01": 0.0,
			"0.011": 0.0,
			"0.012": 0.0,
			"0.013": 0.0,
			"0.014": 0.0,
			"0.015": 0.0,
			"0.016": 0.0,
			"0.017": 0.0,
			"0.018": 0.0,
			"0.019": 0.0,
			"0.02": 0.0,
			"0.021": 0.0,
			"0.022": 0.0,
			"0.023": 0.0,
			"0.024": 0.0,
			"0.025": 0.0
		}
	}
}
