{
	 "smiles": "OC(=O)CSC1=C(C#N)C(C2=CC=CO2)=C2CCCCC2=N1", 
	 "Tm": 483.15, 
	 "num_atms": 36, 
	 "gaussian": { 
		 "optdone": 1, 
		 "sigma_profile": "yes", 
		 "theory": "DFT", 
		 "functional": "B3LYP", 
		 "basiset": "6-31G**", 
		 "properties": { 
			 "R2extent": 8302.2761, 
			 "electric_dipole_moment_norm": 6.17867196329, 
			 "electric_quadrupole_moment_norm": 16.7276623797, 
			 "total_energy": -1351.48350866, 
			 "HOMO_LUMO_gap": 0.16268, 
			 "cosmo_polarized_energy": -20.29, 
			 "cosmo_cavitation_energy": 41.46, 
			 "cosmo_dispersion_energy": -28.96, 
			 "cosmo_repulsion_energy": 2.17, 
			 "cosmo_total_nonelectrostatic_energy": 14.66, 
			 "SMD_solvation_energy": 8.33 
		},
		"coords": [
			{
				"x": 2.510411667,
				"y": -3.3223066278,
				"z": 1.1839658937,
				"element": "O" 
			},
			{
				"x": 1.9574521905,
				"y": -3.801633341,
				"z": 0.053698211,
				"element": "C" 
			},
			{
				"x": 2.6004655447,
				"y": -3.9531633447,
				"z": -0.954295073,
				"element": "O" 
			},
			{
				"x": 0.483838449,
				"y": -4.2239230543,
				"z": 0.1204080134,
				"element": "C" 
			},
			{
				"x": -0.5254689988,
				"y": -3.5145561218,
				"z": 1.4694353353,
				"element": "S" 
			},
			{
				"x": -0.6559438917,
				"y": -1.8179397856,
				"z": 0.898360219,
				"element": "C" 
			},
			{
				"x": -1.4358521389,
				"y": -0.8988691694,
				"z": 1.6354566056,
				"element": "C" 
			},
			{
				"x": -2.1521586437,
				"y": -1.3791864159,
				"z": 2.776347315,
				"element": "C" 
			},
			{
				"x": -2.7182030349,
				"y": -1.8558552644,
				"z": 3.6748571963,
				"element": "N" 
			},
			{
				"x": -1.5096917418,
				"y": 0.4395375634,
				"z": 1.1705456146,
				"element": "C" 
			},
			{
				"x": -2.2862487831,
				"y": 1.4277726515,
				"z": 1.9176116075,
				"element": "C" 
			},
			{
				"x": -3.0725359209,
				"y": 2.5002312769,
				"z": 1.5664645759,
				"element": "C" 
			},
			{
				"x": -3.6207376,
				"y": 3.0255398781,
				"z": 2.7739705238,
				"element": "C" 
			},
			{
				"x": -3.1274864183,
				"y": 2.2484314442,
				"z": 3.7801490853,
				"element": "C" 
			},
			{
				"x": -2.3224784437,
				"y": 1.2796707133,
				"z": 3.2810680377,
				"element": "O" 
			},
			{
				"x": -0.8107068223,
				"y": 0.7829044468,
				"z": -0.01435641,
				"element": "C" 
			},
			{
				"x": -0.8115950249,
				"y": 2.1961015934,
				"z": -0.5705035597,
				"element": "C" 
			},
			{
				"x": 0.3463994532,
				"y": 2.4714351827,
				"z": -1.5380735742,
				"element": "C" 
			},
			{
				"x": 0.4345406608,
				"y": 1.3665279318,
				"z": -2.5928635378,
				"element": "C" 
			},
			{
				"x": 0.7304226157,
				"y": 0.0250329682,
				"z": -1.9176132228,
				"element": "C" 
			},
			{
				"x": -0.0821368787,
				"y": -0.2273978558,
				"z": -0.6649869809,
				"element": "C" 
			},
			{
				"x": -0.0112260728,
				"y": -1.4895790845,
				"z": -0.205705995,
				"element": "N" 
			},
			{
				"x": 1.8245708501,
				"y": -3.2536950323,
				"z": 1.8725364196,
				"element": "H" 
			},
			{
				"x": 0.4439489614,
				"y": -5.3053253192,
				"z": 0.290776902,
				"element": "H" 
			},
			{
				"x": 0.0313873296,
				"y": -4.0067139581,
				"z": -0.8458252837,
				"element": "H" 
			},
			{
				"x": -3.2660728615,
				"y": 2.8541253374,
				"z": 0.566038543,
				"element": "H" 
			},
			{
				"x": -4.2902330042,
				"y": 3.8669315769,
				"z": 2.876168042,
				"element": "H" 
			},
			{
				"x": -3.2413087525,
				"y": 2.2568456936,
				"z": 4.8529966845,
				"element": "H" 
			},
			{
				"x": -1.7578537777,
				"y": 2.3711430475,
				"z": -1.1030600267,
				"element": "H" 
			},
			{
				"x": -0.7973882311,
				"y": 2.9136759963,
				"z": 0.256167199,
				"element": "H" 
			},
			{
				"x": 1.290750242,
				"y": 2.5225814349,
				"z": -0.9802227024,
				"element": "H" 
			},
			{
				"x": 0.2015418666,
				"y": 3.4515110301,
				"z": -2.0050903627,
				"element": "H" 
			},
			{
				"x": 1.2101589153,
				"y": 1.5882885878,
				"z": -3.3332031961,
				"element": "H" 
			},
			{
				"x": -0.5162075662,
				"y": 1.3101921882,
				"z": -3.1398542327,
				"element": "H" 
			},
			{
				"x": 0.5734436615,
				"y": -0.8183782196,
				"z": -2.5979400927,
				"element": "H" 
			},
			{
				"x": 1.7902022003,
				"y": -0.0262579485,
				"z": -1.6313277737,
				"element": "H" 
			}
		],
		 "valence_orbital": [ 
			{
				"type": "occ",
				"energy": -0.29424,
				"method": "rhf"
			},
			{
				"type": "occ",
				"energy": -0.27979,
				"method": "rhf"
			},
			{
				"type": "occ",
				"energy": -0.2684,
				"method": "rhf"
			},
			{
				"type": "occ",
				"energy": -0.24182,
				"method": "rhf"
			},
			{
				"type": "occ",
				"energy": -0.23969,
				"method": "rhf"
			},
			{
				"type": "unocc",
				"energy": -0.07701,
				"method": "rhf"
			},
			{
				"type": "unocc",
				"energy": -0.04589,
				"method": "rhf"
			},
			{
				"type": "unocc",
				"energy": 0.00171,
				"method": "rhf"
			},
			{
				"type": "unocc",
				"energy": 0.00764,
				"method": "rhf"
			},
			{
				"type": "unocc",
				"energy": 0.01677,
				"method": "rhf"
			}
		],
		"cosmo_sigma_profile": { 
			"-0.025": 0.0,
			"-0.024": 0.0,
			"-0.023": 0.0,
			"-0.022": 0.0,
			"-0.021": 0.0,
			"-0.02": 0.0,
			"-0.019": 0.0,
			"-0.018": 0.0,
			"-0.017": 0.0,
			"-0.016": 0.0,
			"-0.015": 0.153579262776,
			"-0.014": 0.460761542554,
			"-0.013": 0.645412529168,
			"-0.012": 0.796144379686,
			"-0.011": 1.67034482827,
			"-0.01": 5.85699235921,
			"-0.009": 5.01190751883,
			"-0.008": 7.66553082638,
			"-0.007": 10.4550340214,
			"-0.006": 9.37714925987,
			"-0.005": 12.5936083481,
			"-0.004": 20.0918690743,
			"-0.003": 32.7548886006,
			"-0.002": 38.2454077409,
			"-0.001": 38.6358480144,
			"0.0": 24.1849887333,
			"0.001": 15.980266525,
			"0.002": 15.349992896,
			"0.003": 14.6637221442,
			"0.004": 14.2114848362,
			"0.005": 8.85335091275,
			"0.006": 7.57024654534,
			"0.007": 8.71918301722,
			"0.008": 6.14523624035,
			"0.009": 7.2870738597,
			"0.01": 7.62187067848,
			"0.011": 7.81669247042,
			"0.012": 7.45022407727,
			"0.013": 2.43301792721,
			"0.014": 0.0,
			"0.015": 0.0,
			"0.016": 0.0,
			"0.017": 0.0,
			"0.018": 0.0,
			"0.019": 0.0,
			"0.02": 0.0,
			"0.021": 0.0,
			"0.022": 0.0,
			"0.023": 0.0,
			"0.024": 0.0,
			"0.025": 0.0
		}
	}
}
