{
	 "smiles": "COC(=O)C1(Br)CCC(Br)(CC1)C(=O)OC", 
	 "Tm": 422.15, 
	 "num_atms": 30, 
	 "gaussian": { 
		 "optdone": 1, 
		 "sigma_profile": "yes", 
		 "theory": "DFT", 
		 "functional": "B3LYP", 
		 "basiset": "6-31G**", 
		 "properties": { 
			 "R2extent": 6569.2232, 
			 "electric_dipole_moment_norm": 3.34194578801, 
			 "electric_quadrupole_moment_norm": 15.8879393686, 
			 "total_energy": -5833.23624934, 
			 "HOMO_LUMO_gap": 0.22492, 
			 "cosmo_polarized_energy": -11.95, 
			 "cosmo_cavitation_energy": 36.31, 
			 "cosmo_dispersion_energy": -25.29, 
			 "cosmo_repulsion_energy": 1.99, 
			 "cosmo_total_nonelectrostatic_energy": 13.02, 
			 "SMD_solvation_energy": 6.17 
		},
		"coords": [
			{
				"x": 3.5195563721,
				"y": 0.4994823339,
				"z": 2.1619293202,
				"element": "C" 
			},
			{
				"x": 2.28207755,
				"y": -0.0263408367,
				"z": 1.647435664,
				"element": "O" 
			},
			{
				"x": 2.2898833558,
				"y": -0.339530507,
				"z": 0.3397154946,
				"element": "C" 
			},
			{
				"x": 3.2361826898,
				"y": -0.1518239422,
				"z": -0.3934138714,
				"element": "O" 
			},
			{
				"x": 0.958460032,
				"y": -0.9542226834,
				"z": -0.1155572388,
				"element": "C" 
			},
			{
				"x": 1.1266123397,
				"y": -2.890333694,
				"z": 0.4289212468,
				"element": "Br" 
			},
			{
				"x": -0.2700706269,
				"y": -0.3667182548,
				"z": 0.5866069804,
				"element": "C" 
			},
			{
				"x": -0.528739711,
				"y": 1.0813651608,
				"z": 0.1180874333,
				"element": "C" 
			},
			{
				"x": -0.6817701453,
				"y": 1.1408747823,
				"z": -1.4052157943,
				"element": "C" 
			},
			{
				"x": -0.8528696783,
				"y": 3.0784874483,
				"z": -1.9434921195,
				"element": "Br" 
			},
			{
				"x": 0.5375537799,
				"y": 0.5500719772,
				"z": -2.1150244095,
				"element": "C" 
			},
			{
				"x": 0.81758609,
				"y": -0.8928669896,
				"z": -1.6374307436,
				"element": "C" 
			},
			{
				"x": -1.9815678948,
				"y": 0.5107430238,
				"z": -1.9260472408,
				"element": "C" 
			},
			{
				"x": -2.0693356654,
				"y": -0.0982143346,
				"z": -2.969913656,
				"element": "O" 
			},
			{
				"x": -3.0121012118,
				"y": 0.7072820059,
				"z": -1.0848140466,
				"element": "O" 
			},
			{
				"x": -4.2806591305,
				"y": 0.1972827052,
				"z": -1.5356449063,
				"element": "C" 
			},
			{
				"x": 3.7980666055,
				"y": 1.4124320012,
				"z": 1.6306181593,
				"element": "H" 
			},
			{
				"x": 4.3192661332,
				"y": -0.2362067968,
				"z": 2.0491065483,
				"element": "H" 
			},
			{
				"x": 3.3335119882,
				"y": 0.7064441073,
				"z": 3.2152187248,
				"element": "H" 
			},
			{
				"x": -0.1359425818,
				"y": -0.3865292506,
				"z": 1.6691689407,
				"element": "H" 
			},
			{
				"x": -1.1356472626,
				"y": -0.994869459,
				"z": 0.3524843064,
				"element": "H" 
			},
			{
				"x": 0.3104076595,
				"y": 1.7225504665,
				"z": 0.4067602795,
				"element": "H" 
			},
			{
				"x": -1.4220564794,
				"y": 1.4737943348,
				"z": 0.606243802,
				"element": "H" 
			},
			{
				"x": 1.405823777,
				"y": 1.1816845001,
				"z": -1.9101119331,
				"element": "H" 
			},
			{
				"x": 0.3698332349,
				"y": 0.5448222123,
				"z": -3.1933836914,
				"element": "H" 
			},
			{
				"x": -0.0019575349,
				"y": -1.5485247055,
				"z": -1.9428803658,
				"element": "H" 
			},
			{
				"x": 1.733625143,
				"y": -1.2548350371,
				"z": -2.1074077558,
				"element": "H" 
			},
			{
				"x": -4.5753883419,
				"y": 0.6859168494,
				"z": -2.4672466996,
				"element": "H" 
			},
			{
				"x": -4.9879097576,
				"y": 0.4285226126,
				"z": -0.7399134431,
				"element": "H" 
			},
			{
				"x": -4.222830728,
				"y": -0.8808400301,
				"z": -1.7018989846,
				"element": "H" 
			}
		],
		 "valence_orbital": [ 
			{
				"type": "occ",
				"energy": -0.29181,
				"method": "rhf"
			},
			{
				"type": "occ",
				"energy": -0.28285,
				"method": "rhf"
			},
			{
				"type": "occ",
				"energy": -0.27626,
				"method": "rhf"
			},
			{
				"type": "occ",
				"energy": -0.27606,
				"method": "rhf"
			},
			{
				"type": "occ",
				"energy": -0.27546,
				"method": "rhf"
			},
			{
				"type": "unocc",
				"energy": -0.05054,
				"method": "rhf"
			},
			{
				"type": "unocc",
				"energy": -0.04569,
				"method": "rhf"
			},
			{
				"type": "unocc",
				"energy": 0.03069,
				"method": "rhf"
			},
			{
				"type": "unocc",
				"energy": 0.03121,
				"method": "rhf"
			},
			{
				"type": "unocc",
				"energy": 0.08767,
				"method": "rhf"
			}
		],
		"cosmo_sigma_profile": { 
			"-0.025": 0.0,
			"-0.024": 0.0,
			"-0.023": 0.0,
			"-0.022": 0.0,
			"-0.021": 0.0,
			"-0.02": 0.0,
			"-0.019": 0.0,
			"-0.018": 0.0,
			"-0.017": 0.0,
			"-0.016": 0.0,
			"-0.015": 0.0,
			"-0.014": 0.0,
			"-0.013": 0.0,
			"-0.012": 0.0,
			"-0.011": 0.0,
			"-0.01": 0.00222837924865,
			"-0.009": 0.399007269268,
			"-0.008": 1.4607519834,
			"-0.007": 6.25804138389,
			"-0.006": 14.8513466774,
			"-0.005": 23.7143940034,
			"-0.004": 32.5495080926,
			"-0.003": 29.4843539562,
			"-0.002": 24.6629517591,
			"-0.001": 16.8946786265,
			"0.0": 16.6772004652,
			"0.001": 15.0227139569,
			"0.002": 16.5021010155,
			"0.003": 20.2405160278,
			"0.004": 21.0607336563,
			"0.005": 23.158759646,
			"0.006": 6.37212197166,
			"0.007": 2.78807795747,
			"0.008": 2.98804903166,
			"0.009": 3.13967455321,
			"0.01": 4.55246049134,
			"0.011": 7.6738089154,
			"0.012": 0.638399908639,
			"0.013": 0.0,
			"0.014": 0.0,
			"0.015": 0.0,
			"0.016": 0.0,
			"0.017": 0.0,
			"0.018": 0.0,
			"0.019": 0.0,
			"0.02": 0.0,
			"0.021": 0.0,
			"0.022": 0.0,
			"0.023": 0.0,
			"0.024": 0.0,
			"0.025": 0.0
		}
	}
}
