{
	 "smiles": "ClC1=CC2=C(OC3=C(O2)C=C(Cl)C(Cl)=C3)C=C1Cl", 
	 "Tm": 578.15, 
	 "num_atms": 22, 
	 "gaussian": { 
		 "optdone": 1, 
		 "sigma_profile": "yes", 
		 "theory": "DFT", 
		 "functional": "B3LYP", 
		 "basiset": "6-31G**", 
		 "properties": { 
			 "R2extent": 9719.5501, 
			 "electric_dipole_moment_norm": 0.0, 
			 "electric_quadrupole_moment_norm": 13.8610889615, 
			 "total_energy": -2450.87577527, 
			 "HOMO_LUMO_gap": 0.17421, 
			 "cosmo_polarized_energy": -6.13, 
			 "cosmo_cavitation_energy": 34.49, 
			 "cosmo_dispersion_energy": -26.44, 
			 "cosmo_repulsion_energy": 2.01, 
			 "cosmo_total_nonelectrostatic_energy": 10.06, 
			 "SMD_solvation_energy": 5.2 
		},
		"coords": [
			{
				"x": -3.4281637297,
				"y": 4.5916590074,
				"z": -0.3450472706,
				"element": "Cl" 
			},
			{
				"x": -2.8529208722,
				"y": 2.9459209756,
				"z": -0.3181815786,
				"element": "C" 
			},
			{
				"x": -1.4933070836,
				"y": 2.7108006066,
				"z": -0.5431605994,
				"element": "C" 
			},
			{
				"x": -0.99797653,
				"y": 1.4151376388,
				"z": -0.5296795684,
				"element": "C" 
			},
			{
				"x": -1.8589670871,
				"y": 0.3383245621,
				"z": -0.2905410397,
				"element": "C" 
			},
			{
				"x": -1.4087597048,
				"y": -0.9639994508,
				"z": -0.2685731768,
				"element": "O" 
			},
			{
				"x": -0.0615234802,
				"y": -1.1444194198,
				"z": -0.4957321101,
				"element": "C" 
			},
			{
				"x": 0.7994657632,
				"y": -0.0676075388,
				"z": -0.7348705869,
				"element": "C" 
			},
			{
				"x": 0.3492587832,
				"y": 1.2347173199,
				"z": -0.7568422543,
				"element": "O" 
			},
			{
				"x": 2.1495632572,
				"y": -0.2942269742,
				"z": -0.9588202608,
				"element": "C" 
			},
			{
				"x": 2.6550259936,
				"y": -1.5976068553,
				"z": -0.9465627914,
				"element": "C" 
			},
			{
				"x": 4.3588591482,
				"y": -1.8318293204,
				"z": -1.2332742051,
				"element": "Cl" 
			},
			{
				"x": 1.7934203411,
				"y": -2.6752026291,
				"z": -0.7072245845,
				"element": "C" 
			},
			{
				"x": 2.3686665869,
				"y": -4.3209406984,
				"z": -0.6803582376,
				"element": "Cl" 
			},
			{
				"x": 0.4338077764,
				"y": -2.4400833405,
				"z": -0.4822484064,
				"element": "C" 
			},
			{
				"x": -3.2090625459,
				"y": 0.5649448548,
				"z": -0.066589035,
				"element": "C" 
			},
			{
				"x": -3.7145250249,
				"y": 1.868326428,
				"z": -0.0788440468,
				"element": "C" 
			},
			{
				"x": -5.4183584909,
				"y": 2.1025463085,
				"z": 0.2078684889,
				"element": "Cl" 
			},
			{
				"x": -0.8151145736,
				"y": 3.5348526188,
				"z": -0.7296840198,
				"element": "H" 
			},
			{
				"x": 2.8045034587,
				"y": 0.5490281058,
				"z": -1.1425877985,
				"element": "H" 
			},
			{
				"x": -0.244386707,
				"y": -3.2641338384,
				"z": -0.2957251107,
				"element": "H" 
			},
			{
				"x": -3.8640052785,
				"y": -0.2783083606,
				"z": 0.1171781923,
				"element": "H" 
			}
		],
		 "valence_orbital": [ 
			{
				"type": "occ",
				"energy": -0.31288,
				"method": "rhf"
			},
			{
				"type": "occ",
				"energy": -0.28532,
				"method": "rhf"
			},
			{
				"type": "occ",
				"energy": -0.26719,
				"method": "rhf"
			},
			{
				"type": "occ",
				"energy": -0.26084,
				"method": "rhf"
			},
			{
				"type": "occ",
				"energy": -0.22136,
				"method": "rhf"
			},
			{
				"type": "unocc",
				"energy": -0.04715,
				"method": "rhf"
			},
			{
				"type": "unocc",
				"energy": -0.03762,
				"method": "rhf"
			},
			{
				"type": "unocc",
				"energy": -0.03743,
				"method": "rhf"
			},
			{
				"type": "unocc",
				"energy": -0.01253,
				"method": "rhf"
			},
			{
				"type": "unocc",
				"energy": -0.00625,
				"method": "rhf"
			}
		],
		"cosmo_sigma_profile": { 
			"-0.025": 0.0,
			"-0.024": 0.0,
			"-0.023": 0.0,
			"-0.022": 0.0,
			"-0.021": 0.0,
			"-0.02": 0.0,
			"-0.019": 0.0,
			"-0.018": 0.0,
			"-0.017": 0.0,
			"-0.016": 0.0,
			"-0.015": 0.0,
			"-0.014": 0.0,
			"-0.013": 0.0,
			"-0.012": 0.0,
			"-0.011": 0.0,
			"-0.01": 0.29930371577,
			"-0.009": 5.03004517345,
			"-0.008": 4.91562054863,
			"-0.007": 5.86996234705,
			"-0.006": 7.51109038397,
			"-0.005": 7.03215377981,
			"-0.004": 9.15101217084,
			"-0.003": 15.3727891975,
			"-0.002": 17.5133792093,
			"-0.001": 32.0151790329,
			"0.0": 54.8624911,
			"0.001": 32.4086035901,
			"0.002": 22.8133010946,
			"0.003": 31.2750952229,
			"0.004": 30.7902561218,
			"0.005": 9.6739136022,
			"0.006": 2.08384209111,
			"0.007": 0.0,
			"0.008": 0.0,
			"0.009": 0.0,
			"0.01": 0.0,
			"0.011": 0.0,
			"0.012": 0.0,
			"0.013": 0.0,
			"0.014": 0.0,
			"0.015": 0.0,
			"0.016": 0.0,
			"0.017": 0.0,
			"0.018": 0.0,
			"0.019": 0.0,
			"0.02": 0.0,
			"0.021": 0.0,
			"0.022": 0.0,
			"0.023": 0.0,
			"0.024": 0.0,
			"0.025": 0.0
		}
	}
}
