{
	 "smiles": "OC1=CC2=C(C(O)=C1)C(=O)C(O)=C(O2)C1=CC(O)=C(O)C(O)=C1", 
	 "Tm": 630.15, 
	 "num_atms": 33, 
	 "gaussian": { 
		 "optdone": 1, 
		 "sigma_profile": "yes", 
		 "theory": "DFT", 
		 "functional": "B3LYP", 
		 "basiset": "6-31G**", 
		 "properties": { 
			 "R2extent": 9477.7678, 
			 "electric_dipole_moment_norm": 4.91881363949, 
			 "electric_quadrupole_moment_norm": 14.9335472434, 
			 "total_energy": -1179.41191158, 
			 "HOMO_LUMO_gap": 0.13286, 
			 "cosmo_polarized_energy": -21.86, 
			 "cosmo_cavitation_energy": 37.93, 
			 "cosmo_dispersion_energy": -29.0, 
			 "cosmo_repulsion_energy": 2.14, 
			 "cosmo_total_nonelectrostatic_energy": 11.07, 
			 "SMD_solvation_energy": 8.76 
		},
		"coords": [
			{
				"x": 2.9654829016,
				"y": -4.0266866819,
				"z": 1.4151170687,
				"element": "O" 
			},
			{
				"x": 2.8288733953,
				"y": -2.6843619177,
				"z": 1.2551195327,
				"element": "C" 
			},
			{
				"x": 1.5276456579,
				"y": -2.2065380891,
				"z": 1.0702222754,
				"element": "C" 
			},
			{
				"x": 1.3588457718,
				"y": -0.8362553379,
				"z": 0.903894743,
				"element": "C" 
			},
			{
				"x": 2.4459502974,
				"y": 0.0573611921,
				"z": 0.9176642562,
				"element": "C" 
			},
			{
				"x": 3.7593574839,
				"y": -0.4589683599,
				"z": 1.1080728309,
				"element": "C" 
			},
			{
				"x": 4.8128292808,
				"y": 0.3678902259,
				"z": 1.1257326969,
				"element": "O" 
			},
			{
				"x": 3.9423537938,
				"y": -1.8278420626,
				"z": 1.2757012496,
				"element": "C" 
			},
			{
				"x": 2.2051610372,
				"y": 1.4583316564,
				"z": 0.7404800432,
				"element": "C" 
			},
			{
				"x": 3.1060324266,
				"y": 2.3424823119,
				"z": 0.7365377509,
				"element": "O" 
			},
			{
				"x": 0.8256526967,
				"y": 1.8715600265,
				"z": 0.5547354718,
				"element": "C" 
			},
			{
				"x": 0.6550001474,
				"y": 3.2053425759,
				"z": 0.3923484729,
				"element": "O" 
			},
			{
				"x": -0.1986550625,
				"y": 0.9599734975,
				"z": 0.5492603025,
				"element": "C" 
			},
			{
				"x": 0.0927885338,
				"y": -0.3750566921,
				"z": 0.7243191503,
				"element": "O" 
			},
			{
				"x": -1.6334769398,
				"y": 1.1988797447,
				"z": 0.3770213237,
				"element": "C" 
			},
			{
				"x": -2.1425626215,
				"y": 2.4968522519,
				"z": 0.1820643798,
				"element": "C" 
			},
			{
				"x": -3.5121248874,
				"y": 2.692945929,
				"z": 0.0213379978,
				"element": "C" 
			},
			{
				"x": -3.9963335522,
				"y": 3.9513609526,
				"z": -0.1668955095,
				"element": "O" 
			},
			{
				"x": -4.3896430593,
				"y": 1.6038866833,
				"z": 0.0524835837,
				"element": "C" 
			},
			{
				"x": -5.7253569274,
				"y": 1.8513677779,
				"z": -0.1105914545,
				"element": "O" 
			},
			{
				"x": -3.8848978625,
				"y": 0.3151682217,
				"z": 0.2460757688,
				"element": "C" 
			},
			{
				"x": -4.8383088583,
				"y": -0.6765615561,
				"z": 0.2589300564,
				"element": "O" 
			},
			{
				"x": -2.5228113856,
				"y": 0.103042386,
				"z": 0.4077923727,
				"element": "C" 
			},
			{
				"x": 3.9001020115,
				"y": -4.2415244667,
				"z": 1.5339040993,
				"element": "H" 
			},
			{
				"x": 0.6850600174,
				"y": -2.8856087966,
				"z": 1.0580342822,
				"element": "H" 
			},
			{
				"x": 4.4625354351,
				"y": 1.2861793549,
				"z": 0.9901141193,
				"element": "H" 
			},
			{
				"x": 4.9473585885,
				"y": -2.212546388,
				"z": 1.420243369,
				"element": "H" 
			},
			{
				"x": 1.5658867349,
				"y": 3.5639565643,
				"z": 0.4464167653,
				"element": "H" 
			},
			{
				"x": -1.4907529644,
				"y": 3.3574377344,
				"z": 0.1533192685,
				"element": "H" 
			},
			{
				"x": -4.958754593,
				"y": 3.8876504535,
				"z": -0.2579060562,
				"element": "H" 
			},
			{
				"x": -6.1936370617,
				"y": 1.0048107965,
				"z": -0.064612977,
				"element": "H" 
			},
			{
				"x": -4.4157704998,
				"y": -1.5332986267,
				"z": 0.3956702868,
				"element": "H" 
			},
			{
				"x": -2.1459299363,
				"y": -0.9019313617,
				"z": 0.5571924787,
				"element": "H" 
			}
		],
		 "valence_orbital": [ 
			{
				"type": "occ",
				"energy": -0.25639,
				"method": "rhf"
			},
			{
				"type": "occ",
				"energy": -0.2449,
				"method": "rhf"
			},
			{
				"type": "occ",
				"energy": -0.2289,
				"method": "rhf"
			},
			{
				"type": "occ",
				"energy": -0.22174,
				"method": "rhf"
			},
			{
				"type": "occ",
				"energy": -0.20012,
				"method": "rhf"
			},
			{
				"type": "unocc",
				"energy": -0.06726,
				"method": "rhf"
			},
			{
				"type": "unocc",
				"energy": -0.01913,
				"method": "rhf"
			},
			{
				"type": "unocc",
				"energy": 0.00433,
				"method": "rhf"
			},
			{
				"type": "unocc",
				"energy": 0.01333,
				"method": "rhf"
			},
			{
				"type": "unocc",
				"energy": 0.03927,
				"method": "rhf"
			}
		],
		"cosmo_sigma_profile": { 
			"-0.025": 0.0,
			"-0.024": 0.0,
			"-0.023": 0.0,
			"-0.022": 0.0,
			"-0.021": 0.0,
			"-0.02": 0.0,
			"-0.019": 0.565746762701,
			"-0.018": 2.01257245434,
			"-0.017": 2.4607115047,
			"-0.016": 2.44038065466,
			"-0.015": 3.39799995156,
			"-0.014": 3.19007798128,
			"-0.013": 3.17863476685,
			"-0.012": 3.01701964209,
			"-0.011": 4.03199357747,
			"-0.01": 4.25345399092,
			"-0.009": 3.44076058281,
			"-0.008": 3.82006126285,
			"-0.007": 7.25548989009,
			"-0.006": 7.08909749245,
			"-0.005": 8.3601319732,
			"-0.004": 8.84134193042,
			"-0.003": 11.4274684451,
			"-0.002": 16.7494944001,
			"-0.001": 17.604378761,
			"0.0": 21.7289803785,
			"0.001": 29.7901212279,
			"0.002": 32.1772453168,
			"0.003": 29.5783554641,
			"0.004": 19.766356057,
			"0.005": 11.9179187916,
			"0.006": 10.1804948516,
			"0.007": 9.7889873176,
			"0.008": 7.6289263263,
			"0.009": 6.06912495246,
			"0.01": 7.44274359397,
			"0.011": 4.6591593051,
			"0.012": 0.364633488576,
			"0.013": 0.0,
			"0.014": 0.0,
			"0.015": 0.0,
			"0.016": 0.0,
			"0.017": 0.0,
			"0.018": 0.0,
			"0.019": 0.0,
			"0.02": 0.0,
			"0.021": 0.0,
			"0.022": 0.0,
			"0.023": 0.0,
			"0.024": 0.0,
			"0.025": 0.0
		}
	}
}
