{
	 "smiles": "CCOC(=O)COC1=CC2=C(C=C1)C(=O)C=C(O2)C1=CC=CC=C1", 
	 "Tm": 397.15, 
	 "num_atms": 40, 
	 "gaussian": { 
		 "optdone": 1, 
		 "sigma_profile": "yes", 
		 "theory": "DFT", 
		 "functional": "B3LYP", 
		 "basiset": "6-31G**", 
		 "properties": { 
			 "R2extent": 14843.9632, 
			 "electric_dipole_moment_norm": 3.36810697722, 
			 "electric_quadrupole_moment_norm": 41.3729451734, 
			 "total_energy": -1109.78520499, 
			 "HOMO_LUMO_gap": 0.16765, 
			 "cosmo_polarized_energy": -19.06, 
			 "cosmo_cavitation_energy": 45.71, 
			 "cosmo_dispersion_energy": -33.02, 
			 "cosmo_repulsion_energy": 2.48, 
			 "cosmo_total_nonelectrostatic_energy": 15.18, 
			 "SMD_solvation_energy": 9.83 
		},
		"coords": [
			{
				"x": -4.8094735286,
				"y": 2.1581600208,
				"z": 5.4757101695,
				"element": "C" 
			},
			{
				"x": -3.546210404,
				"y": 1.3577117326,
				"z": 5.7507351456,
				"element": "C" 
			},
			{
				"x": -3.2152578742,
				"y": 0.4953719184,
				"z": 4.6311092319,
				"element": "O" 
			},
			{
				"x": -2.4888526926,
				"y": 1.0494869919,
				"z": 3.6383951862,
				"element": "C" 
			},
			{
				"x": -2.0940741358,
				"y": 2.1889277897,
				"z": 3.6087587912,
				"element": "O" 
			},
			{
				"x": -2.247619418,
				"y": -0.0097187003,
				"z": 2.5704060582,
				"element": "C" 
			},
			{
				"x": -1.5018578465,
				"y": 0.5767159338,
				"z": 1.5278823933,
				"element": "O" 
			},
			{
				"x": -1.161684877,
				"y": -0.1900016109,
				"z": 0.4551376433,
				"element": "C" 
			},
			{
				"x": -0.4192823572,
				"y": 0.4654295399,
				"z": -0.5299178855,
				"element": "C" 
			},
			{
				"x": -0.0305047846,
				"y": -0.2447266037,
				"z": -1.6615043722,
				"element": "C" 
			},
			{
				"x": -0.3605029939,
				"y": -1.5974423637,
				"z": -1.8398013916,
				"element": "C" 
			},
			{
				"x": -1.1057620614,
				"y": -2.2290556299,
				"z": -0.836088411,
				"element": "C" 
			},
			{
				"x": -1.5090100016,
				"y": -1.5479670739,
				"z": 0.3036705929,
				"element": "C" 
			},
			{
				"x": 0.0684014342,
				"y": -2.3111078867,
				"z": -3.0598012991,
				"element": "C" 
			},
			{
				"x": -0.1951485323,
				"y": -3.4959435915,
				"z": -3.270425289,
				"element": "O" 
			},
			{
				"x": 0.822412712,
				"y": -1.4792467882,
				"z": -3.9924638413,
				"element": "C" 
			},
			{
				"x": 1.11532054,
				"y": -0.17821316,
				"z": -3.7372853284,
				"element": "C" 
			},
			{
				"x": 0.7007580457,
				"y": 0.4452422469,
				"z": -2.594170164,
				"element": "O" 
			},
			{
				"x": 1.8739289961,
				"y": 0.7310463744,
				"z": -4.6178599167,
				"element": "C" 
			},
			{
				"x": 2.7122285391,
				"y": 0.2233490814,
				"z": -5.6255772827,
				"element": "C" 
			},
			{
				"x": 3.4105989146,
				"y": 1.0861736122,
				"z": -6.4655552923,
				"element": "C" 
			},
			{
				"x": 3.2905525071,
				"y": 2.4695618819,
				"z": -6.3113914927,
				"element": "C" 
			},
			{
				"x": 2.4692994911,
				"y": 2.9834010001,
				"z": -5.3065813186,
				"element": "C" 
			},
			{
				"x": 1.7678431313,
				"y": 2.1238518997,
				"z": -4.4634871208,
				"element": "C" 
			},
			{
				"x": -4.6532464715,
				"y": 2.8512645029,
				"z": 4.6454439797,
				"element": "H" 
			},
			{
				"x": -5.0777566387,
				"y": 2.7415324823,
				"z": 6.3626836525,
				"element": "H" 
			},
			{
				"x": -5.6464916707,
				"y": 1.4964883021,
				"z": 5.2343641227,
				"element": "H" 
			},
			{
				"x": -3.6787139805,
				"y": 0.6708151078,
				"z": 6.5895969423,
				"element": "H" 
			},
			{
				"x": -2.6959688845,
				"y": 2.0144499387,
				"z": 5.9488446239,
				"element": "H" 
			},
			{
				"x": -3.2201885061,
				"y": -0.3819225168,
				"z": 2.2199897407,
				"element": "H" 
			},
			{
				"x": -1.7160996892,
				"y": -0.8549492874,
				"z": 3.0291728119,
				"element": "H" 
			},
			{
				"x": -0.1534090501,
				"y": 1.5084598139,
				"z": -0.4066426728,
				"element": "H" 
			},
			{
				"x": -1.3568838141,
				"y": -3.2743546589,
				"z": -0.9845623544,
				"element": "H" 
			},
			{
				"x": -2.0843336178,
				"y": -2.0644969633,
				"z": 1.0621072862,
				"element": "H" 
			},
			{
				"x": 1.1340290259,
				"y": -1.9355956521,
				"z": -4.9231253475,
				"element": "H" 
			},
			{
				"x": 2.8355498371,
				"y": -0.8484720433,
				"z": -5.7389918417,
				"element": "H" 
			},
			{
				"x": 4.0576490425,
				"y": 0.6774552996,
				"z": -7.2359657798,
				"element": "H" 
			},
			{
				"x": 3.8381014174,
				"y": 3.1409163009,
				"z": -6.966315748,
				"element": "H" 
			},
			{
				"x": 2.3722385555,
				"y": 4.0574339121,
				"z": -5.1781643698,
				"element": "H" 
			},
			{
				"x": 1.1294216415,
				"y": 2.5258688462,
				"z": -3.6856298523,
				"element": "H" 
			}
		],
		 "valence_orbital": [ 
			{
				"type": "occ",
				"energy": -0.26224,
				"method": "rhf"
			},
			{
				"type": "occ",
				"energy": -0.25183,
				"method": "rhf"
			},
			{
				"type": "occ",
				"energy": -0.23431,
				"method": "rhf"
			},
			{
				"type": "occ",
				"energy": -0.2342,
				"method": "rhf"
			},
			{
				"type": "occ",
				"energy": -0.23097,
				"method": "rhf"
			},
			{
				"type": "unocc",
				"energy": -0.06332,
				"method": "rhf"
			},
			{
				"type": "unocc",
				"energy": -0.02356,
				"method": "rhf"
			},
			{
				"type": "unocc",
				"energy": -0.01195,
				"method": "rhf"
			},
			{
				"type": "unocc",
				"energy": -0.00599,
				"method": "rhf"
			},
			{
				"type": "unocc",
				"energy": 0.00298,
				"method": "rhf"
			}
		],
		"cosmo_sigma_profile": { 
			"-0.025": 0.0,
			"-0.024": 0.0,
			"-0.023": 0.0,
			"-0.022": 0.0,
			"-0.021": 0.0,
			"-0.02": 0.0,
			"-0.019": 0.0,
			"-0.018": 0.0,
			"-0.017": 0.0,
			"-0.016": 0.0,
			"-0.015": 0.0,
			"-0.014": 0.0,
			"-0.013": 0.0,
			"-0.012": 0.0,
			"-0.011": 0.0,
			"-0.01": 0.0,
			"-0.009": 2.13961900944,
			"-0.008": 12.1751152939,
			"-0.007": 10.9412032387,
			"-0.006": 20.1953296719,
			"-0.005": 23.8960137038,
			"-0.004": 28.3613607387,
			"-0.003": 28.738810943,
			"-0.002": 26.2564301383,
			"-0.001": 27.755567351,
			"0.0": 30.8763347153,
			"0.001": 34.0256805393,
			"0.002": 29.4561712158,
			"0.003": 21.9954833475,
			"0.004": 18.2565414197,
			"0.005": 7.78649985182,
			"0.006": 3.99407438888,
			"0.007": 5.28059218375,
			"0.008": 4.17997973501,
			"0.009": 2.99054729845,
			"0.01": 4.12323569791,
			"0.011": 5.69360548673,
			"0.012": 5.38300931588,
			"0.013": 5.9021241958,
			"0.014": 4.6042023385,
			"0.015": 0.875580149013,
			"0.016": 0.0,
			"0.017": 0.0,
			"0.018": 0.0,
			"0.019": 0.0,
			"0.02": 0.0,
			"0.021": 0.0,
			"0.022": 0.0,
			"0.023": 0.0,
			"0.024": 0.0,
			"0.025": 0.0
		}
	}
}
