{
	 "smiles": "CC(C)COC(=O)C(C)=C", 
	 "Tm": 236.15, 
	 "num_atms": 24, 
	 "gaussian": { 
		 "optdone": 1, 
		 "sigma_profile": "yes", 
		 "theory": "DFT", 
		 "functional": "B3LYP", 
		 "basiset": "6-31G**", 
		 "properties": { 
			 "R2extent": 2014.196, 
			 "electric_dipole_moment_norm": 2.00035449608, 
			 "electric_quadrupole_moment_norm": 7.77802589929, 
			 "total_energy": -463.74444052, 
			 "HOMO_LUMO_gap": 0.2283, 
			 "cosmo_polarized_energy": -7.32, 
			 "cosmo_cavitation_energy": 27.2, 
			 "cosmo_dispersion_energy": -18.5, 
			 "cosmo_repulsion_energy": 1.52, 
			 "cosmo_total_nonelectrostatic_energy": 10.21, 
			 "SMD_solvation_energy": 6.53 
		},
		"coords": [
			{
				"x": 2.3511831756,
				"y": 1.8756080769,
				"z": -0.3463191205,
				"element": "C" 
			},
			{
				"x": 1.0394409094,
				"y": 1.8876304489,
				"z": -1.145399926,
				"element": "C" 
			},
			{
				"x": -0.0650091657,
				"y": 2.6660264822,
				"z": -0.4148969796,
				"element": "C" 
			},
			{
				"x": 0.5882752328,
				"y": 0.4762919773,
				"z": -1.5175459743,
				"element": "C" 
			},
			{
				"x": 0.3128958378,
				"y": -0.2586895335,
				"z": -0.3038319763,
				"element": "O" 
			},
			{
				"x": -0.0998355718,
				"y": -1.5372172412,
				"z": -0.4703573003,
				"element": "C" 
			},
			{
				"x": -0.2361528502,
				"y": -2.052739228,
				"z": -1.5627718644,
				"element": "O" 
			},
			{
				"x": -0.3581406306,
				"y": -2.2099174468,
				"z": 0.844648225,
				"element": "C" 
			},
			{
				"x": -0.1436852147,
				"y": -1.4359283275,
				"z": 2.119248857,
				"element": "C" 
			},
			{
				"x": -0.7716686855,
				"y": -3.4823097867,
				"z": 0.8044255855,
				"element": "C" 
			},
			{
				"x": 2.6925231652,
				"y": 2.8956905856,
				"z": -0.142815027,
				"element": "H" 
			},
			{
				"x": 3.1468440269,
				"y": 1.3580828596,
				"z": -0.8934656369,
				"element": "H" 
			},
			{
				"x": 2.2179435353,
				"y": 1.3666216776,
				"z": 0.6132912401,
				"element": "H" 
			},
			{
				"x": 1.2302784958,
				"y": 2.3874942642,
				"z": -2.1065204342,
				"element": "H" 
			},
			{
				"x": -0.3076025305,
				"y": 2.1925464288,
				"z": 0.5414631622,
				"element": "H" 
			},
			{
				"x": 0.2522158689,
				"y": 3.6939506614,
				"z": -0.2118220402,
				"element": "H" 
			},
			{
				"x": -0.9833208407,
				"y": 2.7094648599,
				"z": -1.0108005186,
				"element": "H" 
			},
			{
				"x": -0.3191044511,
				"y": 0.4913466224,
				"z": -2.1308151712,
				"element": "H" 
			},
			{
				"x": 1.3594994155,
				"y": -0.0579957234,
				"z": -2.082698281,
				"element": "H" 
			},
			{
				"x": 0.8910879758,
				"y": -1.0871037264,
				"z": 2.2017208051,
				"element": "H" 
			},
			{
				"x": -0.371552965,
				"y": -2.0559223415,
				"z": 2.9900706534,
				"element": "H" 
			},
			{
				"x": -0.7773717531,
				"y": -0.5434077471,
				"z": 2.152305312,
				"element": "H" 
			},
			{
				"x": -0.9071612999,
				"y": -3.9847065256,
				"z": -0.1472197854,
				"element": "H" 
			},
			{
				"x": -0.9801816802,
				"y": -4.0394173172,
				"z": 1.7127061957,
				"element": "H" 
			}
		],
		 "valence_orbital": [ 
			{
				"type": "occ",
				"energy": -0.33444,
				"method": "rhf"
			},
			{
				"type": "occ",
				"energy": -0.32827,
				"method": "rhf"
			},
			{
				"type": "occ",
				"energy": -0.29589,
				"method": "rhf"
			},
			{
				"type": "occ",
				"energy": -0.26721,
				"method": "rhf"
			},
			{
				"type": "occ",
				"energy": -0.26407,
				"method": "rhf"
			},
			{
				"type": "unocc",
				"energy": -0.03577,
				"method": "rhf"
			},
			{
				"type": "unocc",
				"energy": 0.07782,
				"method": "rhf"
			},
			{
				"type": "unocc",
				"energy": 0.08311,
				"method": "rhf"
			},
			{
				"type": "unocc",
				"energy": 0.10007,
				"method": "rhf"
			},
			{
				"type": "unocc",
				"energy": 0.12542,
				"method": "rhf"
			}
		],
		"cosmo_sigma_profile": { 
			"-0.025": 0.0,
			"-0.024": 0.0,
			"-0.023": 0.0,
			"-0.022": 0.0,
			"-0.021": 0.0,
			"-0.02": 0.0,
			"-0.019": 0.0,
			"-0.018": 0.0,
			"-0.017": 0.0,
			"-0.016": 0.0,
			"-0.015": 0.0,
			"-0.014": 0.0,
			"-0.013": 0.0,
			"-0.012": 0.336443838238,
			"-0.011": 0.279807999762,
			"-0.01": 0.0,
			"-0.009": 0.425612746568,
			"-0.008": 0.101266273432,
			"-0.007": 0.381037108851,
			"-0.006": 2.79850227186,
			"-0.005": 7.64595913896,
			"-0.004": 16.5248039281,
			"-0.003": 26.3249130182,
			"-0.002": 30.2385915682,
			"-0.001": 25.9606537718,
			"0.0": 25.4676556654,
			"0.001": 24.3081040476,
			"0.002": 16.8695210043,
			"0.003": 8.54655801165,
			"0.004": 5.44752669902,
			"0.005": 2.5983574667,
			"0.006": 2.23297880322,
			"0.007": 2.08916494676,
			"0.008": 1.33856918245,
			"0.009": 1.70869547349,
			"0.01": 2.14391138913,
			"0.011": 2.70385049381,
			"0.012": 4.61655543108,
			"0.013": 1.01892880849,
			"0.014": 0.0,
			"0.015": 0.0,
			"0.016": 0.0,
			"0.017": 0.0,
			"0.018": 0.0,
			"0.019": 0.0,
			"0.02": 0.0,
			"0.021": 0.0,
			"0.022": 0.0,
			"0.023": 0.0,
			"0.024": 0.0,
			"0.025": 0.0
		}
	}
}
