{
	 "smiles": "NS(=O)(=O)CC1=CN=CC=C1", 
	 "Tm": 428.15, 
	 "num_atms": 19, 
	 "gaussian": { 
		 "optdone": 1, 
		 "sigma_profile": "yes", 
		 "theory": "DFT", 
		 "functional": "B3LYP", 
		 "basiset": "6-31G**", 
		 "properties": { 
			 "R2extent": 2290.1603, 
			 "electric_dipole_moment_norm": 1.58389942547, 
			 "electric_quadrupole_moment_norm": 19.5620679482, 
			 "total_energy": -891.529142421, 
			 "HOMO_LUMO_gap": 0.22395, 
			 "cosmo_polarized_energy": -17.63, 
			 "cosmo_cavitation_energy": 24.54, 
			 "cosmo_dispersion_energy": -18.35, 
			 "cosmo_repulsion_energy": 1.43, 
			 "cosmo_total_nonelectrostatic_energy": 7.63, 
			 "SMD_solvation_energy": 2.32 
		},
		"coords": [
			{
				"x": 1.9089972995,
				"y": -1.120016358,
				"z": 1.2076832696,
				"element": "N" 
			},
			{
				"x": 0.7148968855,
				"y": -2.2732136252,
				"z": 0.8762286604,
				"element": "S" 
			},
			{
				"x": -0.4388897434,
				"y": -2.0243680879,
				"z": 1.7473464379,
				"element": "O" 
			},
			{
				"x": 1.3801489753,
				"y": -3.5783919857,
				"z": 0.8303113289,
				"element": "O" 
			},
			{
				"x": 0.2306275703,
				"y": -1.8500139943,
				"z": -0.832368974,
				"element": "C" 
			},
			{
				"x": -0.3349224435,
				"y": -0.4676319137,
				"z": -0.9791064134,
				"element": "C" 
			},
			{
				"x": 0.4420787183,
				"y": 0.5677900598,
				"z": -1.5157744307,
				"element": "C" 
			},
			{
				"x": 0.0130427153,
				"y": 1.8230587568,
				"z": -1.6765468746,
				"element": "N" 
			},
			{
				"x": -1.2396252878,
				"y": 2.0968123047,
				"z": -1.2913038198,
				"element": "C" 
			},
			{
				"x": -2.1009513797,
				"y": 1.1467467919,
				"z": -0.7391371524,
				"element": "C" 
			},
			{
				"x": -1.6401276436,
				"y": -0.1571723528,
				"z": -0.578828361,
				"element": "C" 
			},
			{
				"x": 1.5722524287,
				"y": -0.4513423837,
				"z": 1.8950806482,
				"element": "H" 
			},
			{
				"x": 2.7453672623,
				"y": -1.5985789338,
				"z": 1.531628559,
				"element": "H" 
			},
			{
				"x": -0.4942737789,
				"y": -2.6287099972,
				"z": -1.0884929227,
				"element": "H" 
			},
			{
				"x": 1.1299686102,
				"y": -1.9994072147,
				"z": -1.4335605405,
				"element": "H" 
			},
			{
				"x": 1.4644996473,
				"y": 0.3651734721,
				"z": -1.832605675,
				"element": "H" 
			},
			{
				"x": -1.5704541277,
				"y": 3.1244259345,
				"z": -1.4311251062,
				"element": "H" 
			},
			{
				"x": -3.1073441348,
				"y": 1.4245939615,
				"z": -0.4425484509,
				"element": "H" 
			},
			{
				"x": -2.2732915734,
				"y": -0.9225544341,
				"z": -0.1405801829,
				"element": "H" 
			}
		],
		 "valence_orbital": [ 
			{
				"type": "occ",
				"energy": -0.30887,
				"method": "rhf"
			},
			{
				"type": "occ",
				"energy": -0.30178,
				"method": "rhf"
			},
			{
				"type": "occ",
				"energy": -0.2914,
				"method": "rhf"
			},
			{
				"type": "occ",
				"energy": -0.26581,
				"method": "rhf"
			},
			{
				"type": "occ",
				"energy": -0.26177,
				"method": "rhf"
			},
			{
				"type": "unocc",
				"energy": -0.03782,
				"method": "rhf"
			},
			{
				"type": "unocc",
				"energy": -0.02608,
				"method": "rhf"
			},
			{
				"type": "unocc",
				"energy": 0.04927,
				"method": "rhf"
			},
			{
				"type": "unocc",
				"energy": 0.07892,
				"method": "rhf"
			},
			{
				"type": "unocc",
				"energy": 0.08035,
				"method": "rhf"
			}
		],
		"cosmo_sigma_profile": { 
			"-0.025": 0.0,
			"-0.024": 0.0,
			"-0.023": 0.0,
			"-0.022": 0.0,
			"-0.021": 0.0,
			"-0.02": 0.0,
			"-0.019": 0.0,
			"-0.018": 0.0,
			"-0.017": 0.0,
			"-0.016": 0.0,
			"-0.015": 1.32621304084,
			"-0.014": 2.41844959239,
			"-0.013": 2.12634281365,
			"-0.012": 2.49676995513,
			"-0.011": 2.29611588442,
			"-0.01": 2.39984447912,
			"-0.009": 5.58833250799,
			"-0.008": 6.80658292246,
			"-0.007": 11.0010713833,
			"-0.006": 13.1545859313,
			"-0.005": 12.1305198459,
			"-0.004": 9.28454161104,
			"-0.003": 9.59949155691,
			"-0.002": 7.81256262662,
			"-0.001": 7.47450547809,
			"0.0": 8.41679445044,
			"0.001": 12.17426172,
			"0.002": 13.2537073722,
			"0.003": 7.41275528823,
			"0.004": 5.42911989637,
			"0.005": 5.66747182003,
			"0.006": 4.77969852789,
			"0.007": 3.93468511944,
			"0.008": 6.13990504616,
			"0.009": 4.72640321777,
			"0.01": 7.12844325799,
			"0.011": 11.0570891838,
			"0.012": 5.46815954774,
			"0.013": 1.19707392391,
			"0.014": 0.604943217156,
			"0.015": 0.907847393176,
			"0.016": 0.838533546259,
			"0.017": 0.157226085312,
			"0.018": 0.0,
			"0.019": 0.0,
			"0.02": 0.0,
			"0.021": 0.0,
			"0.022": 0.0,
			"0.023": 0.0,
			"0.024": 0.0,
			"0.025": 0.0
		}
	}
}
