{
	 "smiles": "CCCOC1OC(CON(=O)=O)C(ON(=O)=O)C(ON(=O)=O)C1ON(=O)=O", 
	 "Tm": 472.15, 
	 "num_atms": 41, 
	 "gaussian": { 
		 "optdone": 1, 
		 "sigma_profile": "yes", 
		 "theory": "DFT", 
		 "functional": "B3LYP", 
		 "basiset": "6-31G**", 
		 "properties": { 
			 "R2extent": 10043.631, 
			 "electric_dipole_moment_norm": 4.64095028416, 
			 "electric_quadrupole_moment_norm": 18.7528823249, 
			 "total_energy": -1622.92958942, 
			 "HOMO_LUMO_gap": 0.20419, 
			 "cosmo_polarized_energy": -19.04, 
			 "cosmo_cavitation_energy": 48.8, 
			 "cosmo_dispersion_energy": -30.27, 
			 "cosmo_repulsion_energy": 2.36, 
			 "cosmo_total_nonelectrostatic_energy": 20.9, 
			 "SMD_solvation_energy": 19.24 
		},
		"coords": [
			{
				"x": 0.1200818805,
				"y": -1.7943768056,
				"z": -4.369261198,
				"element": "C" 
			},
			{
				"x": 0.1461568728,
				"y": -0.2633539397,
				"z": -4.3957932031,
				"element": "C" 
			},
			{
				"x": 1.2265997473,
				"y": 0.3470218387,
				"z": -3.5039171609,
				"element": "C" 
			},
			{
				"x": 1.0400102339,
				"y": 0.0894002534,
				"z": -2.099490454,
				"element": "O" 
			},
			{
				"x": 0.213811286,
				"y": 0.9803375202,
				"z": -1.4104081857,
				"element": "C" 
			},
			{
				"x": -1.1677195577,
				"y": 0.6564680054,
				"z": -1.4788513847,
				"element": "O" 
			},
			{
				"x": -1.6790938156,
				"y": -0.3457879821,
				"z": -0.5866385976,
				"element": "C" 
			},
			{
				"x": -2.7142223961,
				"y": -1.1663583401,
				"z": -1.352690155,
				"element": "C" 
			},
			{
				"x": -3.7383671706,
				"y": -0.3430231372,
				"z": -1.9375626131,
				"element": "O" 
			},
			{
				"x": -4.7826913561,
				"y": 0.0255107862,
				"z": -1.0383862703,
				"element": "N" 
			},
			{
				"x": -4.7079051768,
				"y": -0.3736893524,
				"z": 0.1062347661,
				"element": "O" 
			},
			{
				"x": -5.6220117243,
				"y": 0.7050517509,
				"z": -1.5685811034,
				"element": "O" 
			},
			{
				"x": -0.5362437358,
				"y": -1.231656039,
				"z": -0.0584711136,
				"element": "C" 
			},
			{
				"x": -1.120943787,
				"y": -2.2170488863,
				"z": 0.7986459785,
				"element": "O" 
			},
			{
				"x": -0.4838161027,
				"y": -3.5281227914,
				"z": 0.7459439789,
				"element": "N" 
			},
			{
				"x": 0.4353348617,
				"y": -3.6718986789,
				"z": -0.0244413901,
				"element": "O" 
			},
			{
				"x": -1.0050733511,
				"y": -4.2952205888,
				"z": 1.5047284266,
				"element": "O" 
			},
			{
				"x": 0.5099422619,
				"y": -0.3873128731,
				"z": 0.7070183345,
				"element": "C" 
			},
			{
				"x": 0.0708675944,
				"y": -0.1160599281,
				"z": 2.050993283,
				"element": "O" 
			},
			{
				"x": 0.4862539761,
				"y": -1.0766658452,
				"z": 3.0410800228,
				"element": "N" 
			},
			{
				"x": 0.0631909453,
				"y": -0.8022353451,
				"z": 4.1295331851,
				"element": "O" 
			},
			{
				"x": 1.1915302116,
				"y": -1.9918554793,
				"z": 2.6765123428,
				"element": "O" 
			},
			{
				"x": 0.653454565,
				"y": 0.9981028753,
				"z": 0.0591111379,
				"element": "C" 
			},
			{
				"x": 2.0341936743,
				"y": 1.3638677681,
				"z": 0.2159081175,
				"element": "O" 
			},
			{
				"x": 2.2806853205,
				"y": 2.7768685081,
				"z": 0.2345934926,
				"element": "N" 
			},
			{
				"x": 1.3292908736,
				"y": 3.5146782964,
				"z": 0.0834795565,
				"element": "O" 
			},
			{
				"x": 3.4435021317,
				"y": 3.029407381,
				"z": 0.3988169557,
				"element": "O" 
			},
			{
				"x": -0.0491774967,
				"y": -2.1761240373,
				"z": -3.3571750229,
				"element": "H" 
			},
			{
				"x": -0.6726055865,
				"y": -2.1865560559,
				"z": -5.013667728,
				"element": "H" 
			},
			{
				"x": 1.0706138223,
				"y": -2.2133762279,
				"z": -4.7178010023,
				"element": "H" 
			},
			{
				"x": -0.8292682894,
				"y": 0.1432777489,
				"z": -4.1072638554,
				"element": "H" 
			},
			{
				"x": 0.3388053862,
				"y": 0.0822962201,
				"z": -5.4200087739,
				"element": "H" 
			},
			{
				"x": 1.2856515029,
				"y": 1.4331938401,
				"z": -3.6603241544,
				"element": "H" 
			},
			{
				"x": 2.2068300392,
				"y": -0.0794668979,
				"z": -3.7408477151,
				"element": "H" 
			},
			{
				"x": 0.2836206768,
				"y": 1.9866133664,
				"z": -1.8382502238,
				"element": "H" 
			},
			{
				"x": -2.1706142493,
				"y": 0.146614351,
				"z": 0.2615977003,
				"element": "H" 
			},
			{
				"x": -3.1585644271,
				"y": -1.9238582831,
				"z": -0.705705778,
				"element": "H" 
			},
			{
				"x": -2.2556082085,
				"y": -1.6373548243,
				"z": -2.2258866987,
				"element": "H" 
			},
			{
				"x": -0.0319555571,
				"y": -1.7157047385,
				"z": -0.895012856,
				"element": "H" 
			},
			{
				"x": 1.4687194889,
				"y": -0.9050600189,
				"z": 0.7308966168,
				"element": "H" 
			},
			{
				"x": 0.0230346356,
				"y": 1.7125565861,
				"z": 0.5924427424,
				"element": "H" 
			}
		],
		 "valence_orbital": [ 
			{
				"type": "occ",
				"energy": -0.33226,
				"method": "rhf"
			},
			{
				"type": "occ",
				"energy": -0.33019,
				"method": "rhf"
			},
			{
				"type": "occ",
				"energy": -0.32838,
				"method": "rhf"
			},
			{
				"type": "occ",
				"energy": -0.31234,
				"method": "rhf"
			},
			{
				"type": "occ",
				"energy": -0.29777,
				"method": "rhf"
			},
			{
				"type": "unocc",
				"energy": -0.09358,
				"method": "rhf"
			},
			{
				"type": "unocc",
				"energy": -0.08856,
				"method": "rhf"
			},
			{
				"type": "unocc",
				"energy": -0.08459,
				"method": "rhf"
			},
			{
				"type": "unocc",
				"energy": -0.07787,
				"method": "rhf"
			},
			{
				"type": "unocc",
				"energy": -0.00795,
				"method": "rhf"
			}
		],
		"cosmo_sigma_profile": { 
			"-0.025": 0.0,
			"-0.024": 0.0,
			"-0.023": 0.0,
			"-0.022": 0.0,
			"-0.021": 0.0,
			"-0.02": 0.0,
			"-0.019": 0.0,
			"-0.018": 0.0,
			"-0.017": 0.0,
			"-0.016": 0.0,
			"-0.015": 0.0,
			"-0.014": 0.0,
			"-0.013": 0.0,
			"-0.012": 0.0,
			"-0.011": 0.75907860109,
			"-0.01": 3.6694659707,
			"-0.009": 8.39510060811,
			"-0.008": 13.0252438048,
			"-0.007": 15.3468064073,
			"-0.006": 14.7097259853,
			"-0.005": 19.747759174,
			"-0.004": 20.8879638453,
			"-0.003": 28.0806320934,
			"-0.002": 29.7285962085,
			"-0.001": 28.3084965734,
			"0.0": 23.4985237747,
			"0.001": 20.580935746,
			"0.002": 19.6029478589,
			"0.003": 20.927411948,
			"0.004": 25.9769741921,
			"0.005": 42.7566683981,
			"0.006": 32.433930938,
			"0.007": 12.6998430238,
			"0.008": 2.6247728699,
			"0.009": 1.04385620491,
			"0.01": 0.78560068424,
			"0.011": 0.104839219592,
			"0.012": 0.0,
			"0.013": 0.0,
			"0.014": 0.0,
			"0.015": 0.0,
			"0.016": 0.0,
			"0.017": 0.0,
			"0.018": 0.0,
			"0.019": 0.0,
			"0.02": 0.0,
			"0.021": 0.0,
			"0.022": 0.0,
			"0.023": 0.0,
			"0.024": 0.0,
			"0.025": 0.0
		}
	}
}
