{
	 "smiles": "CCCCC1=C(O)C=CC(C)=C1", 
	 "Tm": 292.15, 
	 "num_atms": 28, 
	 "gaussian": { 
		 "optdone": 1, 
		 "sigma_profile": "yes", 
		 "theory": "DFT", 
		 "functional": "B3LYP", 
		 "basiset": "6-31G**", 
		 "properties": { 
			 "R2extent": 2475.1024, 
			 "electric_dipole_moment_norm": 1.22313584282, 
			 "electric_quadrupole_moment_norm": 7.21697492513, 
			 "total_energy": -504.054910624, 
			 "HOMO_LUMO_gap": 0.21182, 
			 "cosmo_polarized_energy": -7.1, 
			 "cosmo_cavitation_energy": 29.59, 
			 "cosmo_dispersion_energy": -20.77, 
			 "cosmo_repulsion_energy": 1.69, 
			 "cosmo_total_nonelectrostatic_energy": 10.51, 
			 "SMD_solvation_energy": 5.1 
		},
		"coords": [
			{
				"x": -0.4582724604,
				"y": -2.0562151475,
				"z": -0.9245505757,
				"element": "C" 
			},
			{
				"x": 0.8282000545,
				"y": -2.3446578022,
				"z": -0.1394780174,
				"element": "C" 
			},
			{
				"x": 0.9434047021,
				"y": -1.6431122168,
				"z": 1.22740682,
				"element": "C" 
			},
			{
				"x": 1.4074630014,
				"y": -0.1668803498,
				"z": 1.2067254448,
				"element": "C" 
			},
			{
				"x": 0.4506835063,
				"y": 0.842699899,
				"z": 0.6101760969,
				"element": "C" 
			},
			{
				"x": -0.7324858463,
				"y": 1.1973277421,
				"z": 1.2869520035,
				"element": "C" 
			},
			{
				"x": -0.9713510048,
				"y": 0.589602405,
				"z": 2.4948151237,
				"element": "O" 
			},
			{
				"x": -1.6103116289,
				"y": 2.1330564572,
				"z": 0.7407121417,
				"element": "C" 
			},
			{
				"x": -1.3206240164,
				"y": 2.7370121288,
				"z": -0.4845828445,
				"element": "C" 
			},
			{
				"x": -0.1505326405,
				"y": 2.422708402,
				"z": -1.1792032345,
				"element": "C" 
			},
			{
				"x": 0.1906939407,
				"y": 3.086105467,
				"z": -2.493652215,
				"element": "C" 
			},
			{
				"x": 0.7133679693,
				"y": 1.4763679515,
				"z": -0.6064764333,
				"element": "C" 
			},
			{
				"x": -0.5495269863,
				"y": -1.0007942282,
				"z": -1.1914357989,
				"element": "H" 
			},
			{
				"x": -0.4884233702,
				"y": -2.6407953901,
				"z": -1.8509164584,
				"element": "H" 
			},
			{
				"x": -1.3420812395,
				"y": -2.3261556058,
				"z": -0.3347093406,
				"element": "H" 
			},
			{
				"x": 0.8927294484,
				"y": -3.4278092979,
				"z": 0.028393841,
				"element": "H" 
			},
			{
				"x": 1.7024821077,
				"y": -2.0877490607,
				"z": -0.7544339959,
				"element": "H" 
			},
			{
				"x": 1.6751231179,
				"y": -2.1918665493,
				"z": 1.8345886114,
				"element": "H" 
			},
			{
				"x": -0.0102417903,
				"y": -1.7132510109,
				"z": 1.7631356204,
				"element": "H" 
			},
			{
				"x": 1.6154495086,
				"y": 0.125753927,
				"z": 2.2435178638,
				"element": "H" 
			},
			{
				"x": 2.3608420398,
				"y": -0.1052988023,
				"z": 0.667184198,
				"element": "H" 
			},
			{
				"x": -1.8001048901,
				"y": 0.9287501829,
				"z": 2.8564306889,
				"element": "H" 
			},
			{
				"x": -2.5233950177,
				"y": 2.3926023841,
				"z": 1.2738799418,
				"element": "H" 
			},
			{
				"x": -2.0159952961,
				"y": 3.4637363317,
				"z": -0.8968336562,
				"element": "H" 
			},
			{
				"x": 1.0488769244,
				"y": 3.7621387994,
				"z": -2.3932025016,
				"element": "H" 
			},
			{
				"x": 0.4518656157,
				"y": 2.349229526,
				"z": -3.2614937153,
				"element": "H" 
			},
			{
				"x": -0.6494156187,
				"y": 3.6762920867,
				"z": -2.8710613173,
				"element": "H" 
			},
			{
				"x": 1.6320798696,
				"y": 1.217601771,
				"z": -1.1299882913,
				"element": "H" 
			}
		],
		 "valence_orbital": [ 
			{
				"type": "occ",
				"energy": -0.31154,
				"method": "rhf"
			},
			{
				"type": "occ",
				"energy": -0.30814,
				"method": "rhf"
			},
			{
				"type": "occ",
				"energy": -0.30533,
				"method": "rhf"
			},
			{
				"type": "occ",
				"energy": -0.23685,
				"method": "rhf"
			},
			{
				"type": "occ",
				"energy": -0.2078,
				"method": "rhf"
			},
			{
				"type": "unocc",
				"energy": 0.00402,
				"method": "rhf"
			},
			{
				"type": "unocc",
				"energy": 0.0185,
				"method": "rhf"
			},
			{
				"type": "unocc",
				"energy": 0.07146,
				"method": "rhf"
			},
			{
				"type": "unocc",
				"energy": 0.10024,
				"method": "rhf"
			},
			{
				"type": "unocc",
				"energy": 0.10404,
				"method": "rhf"
			}
		],
		"cosmo_sigma_profile": { 
			"-0.025": 0.0,
			"-0.024": 0.0,
			"-0.023": 0.0,
			"-0.022": 0.0,
			"-0.021": 0.0,
			"-0.02": 0.0,
			"-0.019": 0.0,
			"-0.018": 0.0391857570646,
			"-0.017": 0.922858955981,
			"-0.016": 1.07815970374,
			"-0.015": 0.960373827339,
			"-0.014": 1.11044918441,
			"-0.013": 0.806932583764,
			"-0.012": 0.938018666265,
			"-0.011": 0.56548220432,
			"-0.01": 1.14393777949,
			"-0.009": 1.5793158996,
			"-0.008": 0.816906992228,
			"-0.007": 0.909832230335,
			"-0.006": 1.67301519185,
			"-0.005": 4.01436783952,
			"-0.004": 10.1349554548,
			"-0.003": 16.5252603737,
			"-0.002": 24.8095490654,
			"-0.001": 27.3769073178,
			"0.0": 32.9324150723,
			"0.001": 30.514420978,
			"0.002": 21.7386683937,
			"0.003": 11.9477398705,
			"0.004": 11.164491917,
			"0.005": 9.36718861407,
			"0.006": 8.43838151266,
			"0.007": 4.50060935252,
			"0.008": 1.41144000336,
			"0.009": 1.44100609327,
			"0.01": 1.3692662913,
			"0.011": 0.472604235591,
			"0.012": 0.0,
			"0.013": 0.0,
			"0.014": 0.0,
			"0.015": 0.0,
			"0.016": 0.0,
			"0.017": 0.0,
			"0.018": 0.0,
			"0.019": 0.0,
			"0.02": 0.0,
			"0.021": 0.0,
			"0.022": 0.0,
			"0.023": 0.0,
			"0.024": 0.0,
			"0.025": 0.0
		}
	}
}
