{
	 "smiles": "COC1=C(C=CC=C1)P(CCP(C1=CC=CC=C1)C1=C(OC)C=CC=C1)C1=CC=CC=C1", 
	 "Tm": 376.15, 
	 "num_atms": 60, 
	 "gaussian": { 
		 "optdone": 1, 
		 "sigma_profile": "yes", 
		 "theory": "DFT", 
		 "functional": "B3LYP", 
		 "basiset": "6-31G**", 
		 "properties": { 
			 "R2extent": 16363.6288, 
			 "electric_dipole_moment_norm": 2.78216014816, 
			 "electric_quadrupole_moment_norm": 15.9747490803, 
			 "total_energy": -1916.97674006, 
			 "HOMO_LUMO_gap": 0.17701, 
			 "cosmo_polarized_energy": -19.62, 
			 "cosmo_cavitation_energy": 64.78, 
			 "cosmo_dispersion_energy": -40.64, 
			 "cosmo_repulsion_energy": 3.12, 
			 "cosmo_total_nonelectrostatic_energy": 27.25, 
			 "SMD_solvation_energy": 11.84 
		},
		"coords": [
			{
				"x": -0.1753743732,
				"y": -0.3108615731,
				"z": 4.5764469077,
				"element": "C" 
			},
			{
				"x": -0.5894107895,
				"y": 0.2117713323,
				"z": 3.3257073529,
				"element": "O" 
			},
			{
				"x": -1.7185038199,
				"y": -0.2722366019,
				"z": 2.7428196504,
				"element": "C" 
			},
			{
				"x": -1.9883699554,
				"y": 0.1832358671,
				"z": 1.4309671174,
				"element": "C" 
			},
			{
				"x": -3.1503196382,
				"y": -0.277687523,
				"z": 0.8002011929,
				"element": "C" 
			},
			{
				"x": -4.0276241028,
				"y": -1.1656285588,
				"z": 1.4266682318,
				"element": "C" 
			},
			{
				"x": -3.7412399326,
				"y": -1.6071091176,
				"z": 2.7169540233,
				"element": "C" 
			},
			{
				"x": -2.593097543,
				"y": -1.1668602569,
				"z": 3.3788515723,
				"element": "C" 
			},
			{
				"x": -0.7747860689,
				"y": 1.3316397114,
				"z": 0.6074408712,
				"element": "P" 
			},
			{
				"x": -0.1247388621,
				"y": 0.1900242835,
				"z": -0.7457251336,
				"element": "C" 
			},
			{
				"x": 0.5893681811,
				"y": -1.074436074,
				"z": -0.2435494134,
				"element": "C" 
			},
			{
				"x": 2.0773245794,
				"y": -0.7675793176,
				"z": 0.8762373917,
				"element": "P" 
			},
			{
				"x": 3.2135714785,
				"y": 0.1116926162,
				"z": -0.3000656066,
				"element": "C" 
			},
			{
				"x": 3.8623837793,
				"y": 1.2617698513,
				"z": 0.1749087521,
				"element": "C" 
			},
			{
				"x": 4.704492764,
				"y": 2.0079838911,
				"z": -0.6536940882,
				"element": "C" 
			},
			{
				"x": 4.9065754795,
				"y": 1.6161959992,
				"z": -1.9768807314,
				"element": "C" 
			},
			{
				"x": 4.2656784158,
				"y": 0.4751240445,
				"z": -2.4678257469,
				"element": "C" 
			},
			{
				"x": 3.4282354148,
				"y": -0.2690267385,
				"z": -1.6367163906,
				"element": "C" 
			},
			{
				"x": 2.8117733376,
				"y": -2.4750868905,
				"z": 0.9318994688,
				"element": "C" 
			},
			{
				"x": 2.0886004635,
				"y": -3.5069638246,
				"z": 1.5769142026,
				"element": "C" 
			},
			{
				"x": 0.8428681964,
				"y": -3.1622763212,
				"z": 2.0339011708,
				"element": "O" 
			},
			{
				"x": 0.0244530112,
				"y": -4.164126653,
				"z": 2.6176428303,
				"element": "C" 
			},
			{
				"x": 2.633573947,
				"y": -4.7851661659,
				"z": 1.7287686547,
				"element": "C" 
			},
			{
				"x": 3.92292327,
				"y": -5.0512515876,
				"z": 1.2594124331,
				"element": "C" 
			},
			{
				"x": 4.6636285481,
				"y": -4.0469831052,
				"z": 0.6452261192,
				"element": "C" 
			},
			{
				"x": 4.1055057461,
				"y": -2.7744679156,
				"z": 0.4883697553,
				"element": "C" 
			},
			{
				"x": -1.9332456454,
				"y": 2.4016174563,
				"z": -0.368851509,
				"element": "C" 
			},
			{
				"x": -1.820717336,
				"y": 2.6075449675,
				"z": -1.7530489181,
				"element": "C" 
			},
			{
				"x": -2.6491991608,
				"y": 3.5195197901,
				"z": -2.4139511607,
				"element": "C" 
			},
			{
				"x": -3.6078205154,
				"y": 4.2425206981,
				"z": -1.7061846259,
				"element": "C" 
			},
			{
				"x": -3.7284806573,
				"y": 4.0529598086,
				"z": -0.3264684217,
				"element": "C" 
			},
			{
				"x": -2.8967438427,
				"y": 3.1509183382,
				"z": 0.3327231414,
				"element": "C" 
			},
			{
				"x": 0.7681107936,
				"y": 0.1851465381,
				"z": 4.8064067825,
				"element": "H" 
			},
			{
				"x": -0.0072087557,
				"y": -1.3931854986,
				"z": 4.5206513624,
				"element": "H" 
			},
			{
				"x": -0.9021120939,
				"y": -0.0932423387,
				"z": 5.3702939811,
				"element": "H" 
			},
			{
				"x": -3.3762130434,
				"y": 0.0757763722,
				"z": -0.2019390928,
				"element": "H" 
			},
			{
				"x": -4.9221145782,
				"y": -1.5046518444,
				"z": 0.9130403623,
				"element": "H" 
			},
			{
				"x": -4.4143246708,
				"y": -2.2942979541,
				"z": 3.2226960166,
				"element": "H" 
			},
			{
				"x": -2.3918990095,
				"y": -1.5081597764,
				"z": 4.3876023099,
				"element": "H" 
			},
			{
				"x": -0.9532871858,
				"y": -0.1127715278,
				"z": -1.3981118992,
				"element": "H" 
			},
			{
				"x": 0.5649172214,
				"y": 0.7878731773,
				"z": -1.3526367021,
				"element": "H" 
			},
			{
				"x": -0.0967025527,
				"y": -1.6883984222,
				"z": 0.34429743,
				"element": "H" 
			},
			{
				"x": 0.8932100901,
				"y": -1.6771075196,
				"z": -1.1074301961,
				"element": "H" 
			},
			{
				"x": 3.6967547197,
				"y": 1.5762142616,
				"z": 1.201755473,
				"element": "H" 
			},
			{
				"x": 5.1965908468,
				"y": 2.895708741,
				"z": -0.2662215269,
				"element": "H" 
			},
			{
				"x": 5.5579782385,
				"y": 2.196059907,
				"z": -2.6248769474,
				"element": "H" 
			},
			{
				"x": 4.4198594978,
				"y": 0.1652402744,
				"z": -3.4980044057,
				"element": "H" 
			},
			{
				"x": 2.9462885155,
				"y": -1.1599315707,
				"z": -2.0298801179,
				"element": "H" 
			},
			{
				"x": 0.4705787951,
				"y": -4.5667268122,
				"z": 3.5363944911,
				"element": "H" 
			},
			{
				"x": -0.9207591485,
				"y": -3.6742735883,
				"z": 2.8560331042,
				"element": "H" 
			},
			{
				"x": -0.1604778341,
				"y": -4.9899889756,
				"z": 1.9190102404,
				"element": "H" 
			},
			{
				"x": 2.0679335443,
				"y": -5.5724854699,
				"z": 2.2127966298,
				"element": "H" 
			},
			{
				"x": 4.3397748123,
				"y": -6.0467116002,
				"z": 1.3836103832,
				"element": "H" 
			},
			{
				"x": 5.6685279183,
				"y": -4.2452262901,
				"z": 0.284619208,
				"element": "H" 
			},
			{
				"x": 4.6904595297,
				"y": -1.9985807354,
				"z": 0.0066388713,
				"element": "H" 
			},
			{
				"x": -1.0846172768,
				"y": 2.0592365229,
				"z": -2.3317240707,
				"element": "H" 
			},
			{
				"x": -2.5434477864,
				"y": 3.6592067184,
				"z": -3.4865820938,
				"element": "H" 
			},
			{
				"x": -4.2525682689,
				"y": 4.9492309531,
				"z": -2.2208699157,
				"element": "H" 
			},
			{
				"x": -4.4702105972,
				"y": 4.6122395179,
				"z": 0.2374855352,
				"element": "H" 
			},
			{
				"x": -2.99992609,
				"y": 3.0185365103,
				"z": 1.4067456937,
				"element": "H" 
			}
		],
		 "valence_orbital": [ 
			{
				"type": "occ",
				"energy": -0.241,
				"method": "rhf"
			},
			{
				"type": "occ",
				"energy": -0.22559,
				"method": "rhf"
			},
			{
				"type": "occ",
				"energy": -0.21763,
				"method": "rhf"
			},
			{
				"type": "occ",
				"energy": -0.20649,
				"method": "rhf"
			},
			{
				"type": "occ",
				"energy": -0.19286,
				"method": "rhf"
			},
			{
				"type": "unocc",
				"energy": -0.01585,
				"method": "rhf"
			},
			{
				"type": "unocc",
				"energy": -0.01275,
				"method": "rhf"
			},
			{
				"type": "unocc",
				"energy": -0.00262,
				"method": "rhf"
			},
			{
				"type": "unocc",
				"energy": -0.00037,
				"method": "rhf"
			},
			{
				"type": "unocc",
				"energy": 0.00075,
				"method": "rhf"
			}
		],
		"cosmo_sigma_profile": { 
			"-0.025": 0.0,
			"-0.024": 0.0,
			"-0.023": 0.0,
			"-0.022": 0.0,
			"-0.021": 0.0,
			"-0.02": 0.0,
			"-0.019": 0.0,
			"-0.018": 0.0,
			"-0.017": 0.0,
			"-0.016": 0.0,
			"-0.015": 0.0,
			"-0.014": 0.0,
			"-0.013": 0.0,
			"-0.012": 0.0,
			"-0.011": 0.0,
			"-0.01": 0.0,
			"-0.009": 0.0,
			"-0.008": 0.0,
			"-0.007": 0.785605812357,
			"-0.006": 20.7595228055,
			"-0.005": 48.9926981667,
			"-0.004": 54.2389406986,
			"-0.003": 58.9799313253,
			"-0.002": 41.7334483109,
			"-0.001": 34.2646775576,
			"0.0": 35.3753116009,
			"0.001": 34.2636752463,
			"0.002": 33.6973926762,
			"0.003": 35.7017606665,
			"0.004": 35.9483258604,
			"0.005": 35.496634823,
			"0.006": 21.0918554812,
			"0.007": 5.73414744403,
			"0.008": 2.82825528511,
			"0.009": 2.32693079803,
			"0.01": 2.23091124273,
			"0.011": 2.20279012315,
			"0.012": 2.18458894956,
			"0.013": 2.50885338368,
			"0.014": 1.52642005469,
			"0.015": 1.39018508178,
			"0.016": 0.156058117961,
			"0.017": 0.0,
			"0.018": 0.0,
			"0.019": 0.0,
			"0.02": 0.0,
			"0.021": 0.0,
			"0.022": 0.0,
			"0.023": 0.0,
			"0.024": 0.0,
			"0.025": 0.0
		}
	}
}
