{
	 "smiles": "OC(C1CC2CCN1CC2C=C)C1=C2C=C(O)C=CC2=NC=C1", 
	 "Tm": 475.15, 
	 "num_atms": 45, 
	 "gaussian": { 
		 "optdone": 1, 
		 "sigma_profile": "yes", 
		 "theory": "DFT", 
		 "functional": "B3LYP", 
		 "basiset": "6-31G**", 
		 "properties": { 
			 "R2extent": 9664.1162, 
			 "electric_dipole_moment_norm": 3.78578658405, 
			 "electric_quadrupole_moment_norm": 11.8545476675, 
			 "total_energy": -997.188457137, 
			 "HOMO_LUMO_gap": 0.16345, 
			 "cosmo_polarized_energy": -16.89, 
			 "cosmo_cavitation_energy": 44.19, 
			 "cosmo_dispersion_energy": -31.25, 
			 "cosmo_repulsion_energy": 2.33, 
			 "cosmo_total_nonelectrostatic_energy": 15.27, 
			 "SMD_solvation_energy": 4.64 
		},
		"coords": [
			{
				"x": -0.812914324,
				"y": -2.3477033236,
				"z": 0.5637268454,
				"element": "O" 
			},
			{
				"x": -0.2106543951,
				"y": -1.2592643752,
				"z": -0.1586058228,
				"element": "C" 
			},
			{
				"x": 0.3597882199,
				"y": -0.2565684063,
				"z": 0.8662323988,
				"element": "C" 
			},
			{
				"x": -0.7045369205,
				"y": 0.1146650725,
				"z": 1.9490089664,
				"element": "C" 
			},
			{
				"x": -0.6113259692,
				"y": 1.6290665201,
				"z": 2.2148653702,
				"element": "C" 
			},
			{
				"x": -1.0389920478,
				"y": 2.3810323673,
				"z": 0.9399526756,
				"element": "C" 
			},
			{
				"x": -0.1556376279,
				"y": 1.8586114749,
				"z": -0.2341088906,
				"element": "C" 
			},
			{
				"x": 0.9169217907,
				"y": 0.9669626476,
				"z": 0.2505252517,
				"element": "N" 
			},
			{
				"x": 1.7016812498,
				"y": 1.694837207,
				"z": 1.2647498554,
				"element": "C" 
			},
			{
				"x": 0.8655159579,
				"y": 1.9853607205,
				"z": 2.5514373952,
				"element": "C" 
			},
			{
				"x": 0.9998817499,
				"y": 3.369888892,
				"z": 3.1391470911,
				"element": "C" 
			},
			{
				"x": 1.8295083099,
				"y": 4.350011727,
				"z": 2.7771181077,
				"element": "C" 
			},
			{
				"x": 0.7461835498,
				"y": -1.789593609,
				"z": -1.2198383834,
				"element": "C" 
			},
			{
				"x": 0.2531318152,
				"y": -2.672923957,
				"z": -2.2395333677,
				"element": "C" 
			},
			{
				"x": -1.0981007775,
				"y": -3.103132203,
				"z": -2.328337193,
				"element": "C" 
			},
			{
				"x": -1.5054867321,
				"y": -3.9276385464,
				"z": -3.3582284997,
				"element": "C" 
			},
			{
				"x": -2.788946909,
				"y": -4.3730326122,
				"z": -3.4908972159,
				"element": "O" 
			},
			{
				"x": -0.5871135349,
				"y": -4.3692607552,
				"z": -4.345281925,
				"element": "C" 
			},
			{
				"x": 0.7258341506,
				"y": -3.9797602861,
				"z": -4.2720495932,
				"element": "C" 
			},
			{
				"x": 1.1859326901,
				"y": -3.1302420294,
				"z": -3.2278200745,
				"element": "C" 
			},
			{
				"x": 2.5070064547,
				"y": -2.7930441695,
				"z": -3.2247371752,
				"element": "N" 
			},
			{
				"x": 2.9238015994,
				"y": -1.995712439,
				"z": -2.2634579023,
				"element": "C" 
			},
			{
				"x": 2.0873121457,
				"y": -1.4653627908,
				"z": -1.2525365883,
				"element": "C" 
			},
			{
				"x": -0.1007214661,
				"y": -2.9455134989,
				"z": 0.8298435434,
				"element": "H" 
			},
			{
				"x": -1.0572851618,
				"y": -0.7870310239,
				"z": -0.6725267036,
				"element": "H" 
			},
			{
				"x": 1.2064693311,
				"y": -0.7550289271,
				"z": 1.3582082844,
				"element": "H" 
			},
			{
				"x": -0.5365859219,
				"y": -0.4548424541,
				"z": 2.8690998358,
				"element": "H" 
			},
			{
				"x": -1.7125429115,
				"y": -0.1442955556,
				"z": 1.6057575281,
				"element": "H" 
			},
			{
				"x": -1.2597795706,
				"y": 1.9048524503,
				"z": 3.0545259873,
				"element": "H" 
			},
			{
				"x": -0.9089606396,
				"y": 3.4594475565,
				"z": 1.079586253,
				"element": "H" 
			},
			{
				"x": -2.1025396169,
				"y": 2.2072469406,
				"z": 0.7403942053,
				"element": "H" 
			},
			{
				"x": -0.7533124689,
				"y": 1.3172955157,
				"z": -0.9728022839,
				"element": "H" 
			},
			{
				"x": 0.3212564555,
				"y": 2.6862653289,
				"z": -0.769396203,
				"element": "H" 
			},
			{
				"x": 2.5969819714,
				"y": 1.1102120442,
				"z": 1.5050483976,
				"element": "H" 
			},
			{
				"x": 2.0406257653,
				"y": 2.6237502754,
				"z": 0.7971401399,
				"element": "H" 
			},
			{
				"x": 1.1803716237,
				"y": 1.2867277548,
				"z": 3.3429065749,
				"element": "H" 
			},
			{
				"x": 0.3306397667,
				"y": 3.555930501,
				"z": 3.9818902115,
				"element": "H" 
			},
			{
				"x": 1.8314393656,
				"y": 5.3004277568,
				"z": 3.3025108823,
				"element": "H" 
			},
			{
				"x": 2.5420515301,
				"y": 4.2548732864,
				"z": 1.9631874246,
				"element": "H" 
			},
			{
				"x": -1.8017552769,
				"y": -2.8193419079,
				"z": -1.5526915437,
				"element": "H" 
			},
			{
				"x": -3.3205562316,
				"y": -4.0200197644,
				"z": -2.7650684279,
				"element": "H" 
			},
			{
				"x": -0.9490699488,
				"y": -5.0170867822,
				"z": -5.1368456609,
				"element": "H" 
			},
			{
				"x": 1.4560035822,
				"y": -4.3053126328,
				"z": -5.0055545985,
				"element": "H" 
			},
			{
				"x": 3.9811556163,
				"y": -1.7327173508,
				"z": -2.2727948809,
				"element": "H" 
			},
			{
				"x": 2.504323761,
				"y": -0.7678366394,
				"z": -0.5380502915,
				"element": "H" 
			}
		],
		 "valence_orbital": [ 
			{
				"type": "occ",
				"energy": -0.25676,
				"method": "rhf"
			},
			{
				"type": "occ",
				"energy": -0.24685,
				"method": "rhf"
			},
			{
				"type": "occ",
				"energy": -0.23835,
				"method": "rhf"
			},
			{
				"type": "occ",
				"energy": -0.21469,
				"method": "rhf"
			},
			{
				"type": "occ",
				"energy": -0.21026,
				"method": "rhf"
			},
			{
				"type": "unocc",
				"energy": -0.04681,
				"method": "rhf"
			},
			{
				"type": "unocc",
				"energy": -0.0043,
				"method": "rhf"
			},
			{
				"type": "unocc",
				"energy": 0.01587,
				"method": "rhf"
			},
			{
				"type": "unocc",
				"energy": 0.024,
				"method": "rhf"
			},
			{
				"type": "unocc",
				"energy": 0.06682,
				"method": "rhf"
			}
		],
		"cosmo_sigma_profile": { 
			"-0.025": 0.0,
			"-0.024": 0.0,
			"-0.023": 0.0,
			"-0.022": 0.0,
			"-0.021": 0.0,
			"-0.02": 0.0,
			"-0.019": 0.0,
			"-0.018": 0.335980178426,
			"-0.017": 1.32260642414,
			"-0.016": 1.07110263188,
			"-0.015": 1.53598143208,
			"-0.014": 2.21579801806,
			"-0.013": 1.86170278589,
			"-0.012": 1.72720036741,
			"-0.011": 1.87882546728,
			"-0.01": 1.53156874637,
			"-0.009": 1.74783351405,
			"-0.008": 1.92811219548,
			"-0.007": 1.81021759002,
			"-0.006": 7.8677883306,
			"-0.005": 15.5351591694,
			"-0.004": 26.5851273833,
			"-0.003": 36.6665041156,
			"-0.002": 35.0645084032,
			"-0.001": 29.8124809555,
			"0.0": 27.123534164,
			"0.001": 24.4045298522,
			"0.002": 25.1546975592,
			"0.003": 28.4471321637,
			"0.004": 19.8951713248,
			"0.005": 9.94029357957,
			"0.006": 8.69088561034,
			"0.007": 6.32968656284,
			"0.008": 5.20432640653,
			"0.009": 4.9947424601,
			"0.01": 4.50081228894,
			"0.011": 4.04240753477,
			"0.012": 2.50017197314,
			"0.013": 2.12360607985,
			"0.014": 1.15488469428,
			"0.015": 0.874792753443,
			"0.016": 0.736924336242,
			"0.017": 0.290339305415,
			"0.018": 0.0,
			"0.019": 0.0,
			"0.02": 0.0,
			"0.021": 0.0,
			"0.022": 0.0,
			"0.023": 0.0,
			"0.024": 0.0,
			"0.025": 0.0
		}
	}
}
