{
	 "smiles": "CCCCCCCCCCCCCCCC(=O)C1=CC=CC=C1", 
	 "Tm": 332.15, 
	 "num_atms": 59, 
	 "gaussian": { 
		 "optdone": 1, 
		 "sigma_profile": "yes", 
		 "theory": "DFT", 
		 "functional": "B3LYP", 
		 "basiset": "6-31G**", 
		 "properties": { 
			 "R2extent": 14044.9245, 
			 "electric_dipole_moment_norm": 2.85694438343, 
			 "electric_quadrupole_moment_norm": 20.2683914034, 
			 "total_energy": -935.300875441, 
			 "HOMO_LUMO_gap": 0.18803, 
			 "cosmo_polarized_energy": -8.33, 
			 "cosmo_cavitation_energy": 57.97, 
			 "cosmo_dispersion_energy": -37.1, 
			 "cosmo_repulsion_energy": 2.93, 
			 "cosmo_total_nonelectrostatic_energy": 23.8, 
			 "SMD_solvation_energy": 8.31 
		},
		"coords": [
			{
				"x": 4.5425710082,
				"y": -3.0246782968,
				"z": 0.1515996608,
				"element": "C" 
			},
			{
				"x": 3.2163140883,
				"y": -2.4796715242,
				"z": -0.3921664811,
				"element": "C" 
			},
			{
				"x": 2.9575124724,
				"y": -0.9976080651,
				"z": -0.0732481093,
				"element": "C" 
			},
			{
				"x": 2.7638960246,
				"y": -0.6846244676,
				"z": 1.4173209656,
				"element": "C" 
			},
			{
				"x": 2.4790489928,
				"y": 0.8022898625,
				"z": 1.6822467015,
				"element": "C" 
			},
			{
				"x": 2.3079308976,
				"y": 1.1949482564,
				"z": 3.165939243,
				"element": "C" 
			},
			{
				"x": 0.8911946577,
				"y": 1.1172466113,
				"z": 3.7699185576,
				"element": "C" 
			},
			{
				"x": 0.2507737882,
				"y": -0.2858405866,
				"z": 3.892222537,
				"element": "C" 
			},
			{
				"x": -0.6849676156,
				"y": -0.6981239979,
				"z": 2.7393224776,
				"element": "C" 
			},
			{
				"x": -2.041353065,
				"y": 0.0283484374,
				"z": 2.7577877453,
				"element": "C" 
			},
			{
				"x": -3.0338964556,
				"y": -0.4011845974,
				"z": 1.6534600504,
				"element": "C" 
			},
			{
				"x": -3.0169394205,
				"y": 0.4287575491,
				"z": 0.3562746408,
				"element": "C" 
			},
			{
				"x": -1.7172464761,
				"y": 0.3704610674,
				"z": -0.4586712386,
				"element": "C" 
			},
			{
				"x": -1.759239789,
				"y": 1.1556800558,
				"z": -1.7812859202,
				"element": "C" 
			},
			{
				"x": -2.731877343,
				"y": 0.5730485576,
				"z": -2.83161002,
				"element": "C" 
			},
			{
				"x": -2.7131329533,
				"y": 1.3873560252,
				"z": -4.1192440601,
				"element": "C" 
			},
			{
				"x": -3.5337150605,
				"y": 2.2792958403,
				"z": -4.2862707825,
				"element": "O" 
			},
			{
				"x": -1.662884853,
				"y": 1.1215389498,
				"z": -5.1598817369,
				"element": "C" 
			},
			{
				"x": -1.6588602136,
				"y": 1.9321163191,
				"z": -6.3072336006,
				"element": "C" 
			},
			{
				"x": -0.7133906852,
				"y": 1.7374128274,
				"z": -7.3088204016,
				"element": "C" 
			},
			{
				"x": 0.2466549079,
				"y": 0.7288734678,
				"z": -7.1774895073,
				"element": "C" 
			},
			{
				"x": 0.2544235542,
				"y": -0.0818718237,
				"z": -6.0413374547,
				"element": "C" 
			},
			{
				"x": -0.6955922524,
				"y": 0.1118357362,
				"z": -5.0379321525,
				"element": "C" 
			},
			{
				"x": 4.5807669828,
				"y": -2.9920544061,
				"z": 1.2451963295,
				"element": "H" 
			},
			{
				"x": 4.6938181777,
				"y": -4.0664859973,
				"z": -0.1499756306,
				"element": "H" 
			},
			{
				"x": 5.3918053343,
				"y": -2.4432683266,
				"z": -0.2263949573,
				"element": "H" 
			},
			{
				"x": 2.3856225553,
				"y": -3.0832762023,
				"z": -0.0008896509,
				"element": "H" 
			},
			{
				"x": 3.1988448176,
				"y": -2.6122818791,
				"z": -1.4817354873,
				"element": "H" 
			},
			{
				"x": 2.0623209456,
				"y": -0.6702918387,
				"z": -0.6203015729,
				"element": "H" 
			},
			{
				"x": 3.7882082437,
				"y": -0.393162757,
				"z": -0.4660740019,
				"element": "H" 
			},
			{
				"x": 3.662785251,
				"y": -0.9707464511,
				"z": 1.9792047395,
				"element": "H" 
			},
			{
				"x": 1.950960828,
				"y": -1.3082393039,
				"z": 1.8089868913,
				"element": "H" 
			},
			{
				"x": 3.3156035866,
				"y": 1.3786510931,
				"z": 1.2643212642,
				"element": "H" 
			},
			{
				"x": 1.5928614022,
				"y": 1.1185010594,
				"z": 1.1133139275,
				"element": "H" 
			},
			{
				"x": 2.6457168345,
				"y": 2.232448409,
				"z": 3.2852097885,
				"element": "H" 
			},
			{
				"x": 2.9928120898,
				"y": 0.5903238834,
				"z": 3.7778849864,
				"element": "H" 
			},
			{
				"x": 0.9498249282,
				"y": 1.5615751653,
				"z": 4.7714776487,
				"element": "H" 
			},
			{
				"x": 0.2261649704,
				"y": 1.7787663765,
				"z": 3.1981088683,
				"element": "H" 
			},
			{
				"x": -0.3293679164,
				"y": -0.3331896632,
				"z": 4.8237162304,
				"element": "H" 
			},
			{
				"x": 1.0457010548,
				"y": -1.0339588724,
				"z": 4.0047192869,
				"element": "H" 
			},
			{
				"x": -0.8771967246,
				"y": -1.7776814906,
				"z": 2.8092726147,
				"element": "H" 
			},
			{
				"x": -0.1859179264,
				"y": -0.5443068398,
				"z": 1.7764215709,
				"element": "H" 
			},
			{
				"x": -2.5015177954,
				"y": -0.1592430997,
				"z": 3.7371786723,
				"element": "H" 
			},
			{
				"x": -1.892004476,
				"y": 1.1156404603,
				"z": 2.7065033823,
				"element": "H" 
			},
			{
				"x": -4.0516511574,
				"y": -0.34384434,
				"z": 2.0588971294,
				"element": "H" 
			},
			{
				"x": -2.8719403407,
				"y": -1.4611748278,
				"z": 1.4105064975,
				"element": "H" 
			},
			{
				"x": -3.2340133073,
				"y": 1.4783688348,
				"z": 0.6016391956,
				"element": "H" 
			},
			{
				"x": -3.8521660187,
				"y": 0.0884304479,
				"z": -0.2689086465,
				"element": "H" 
			},
			{
				"x": -0.8932477911,
				"y": 0.7717943674,
				"z": 0.1432408979,
				"element": "H" 
			},
			{
				"x": -1.46081667,
				"y": -0.6786031907,
				"z": -0.6668947883,
				"element": "H" 
			},
			{
				"x": -0.7488811693,
				"y": 1.1881303484,
				"z": -2.2070823892,
				"element": "H" 
			},
			{
				"x": -2.0434238058,
				"y": 2.1972664353,
				"z": -1.5844021055,
				"element": "H" 
			},
			{
				"x": -2.4863009167,
				"y": -0.4782424682,
				"z": -3.0212209709,
				"element": "H" 
			},
			{
				"x": -3.7584316486,
				"y": 0.6162137218,
				"z": -2.4601087408,
				"element": "H" 
			},
			{
				"x": -2.4133788969,
				"y": 2.7077478962,
				"z": -6.3844144823,
				"element": "H" 
			},
			{
				"x": -0.7207915063,
				"y": 2.3690829552,
				"z": -8.1924713374,
				"element": "H" 
			},
			{
				"x": 0.9856674373,
				"y": 0.5756960329,
				"z": -7.9589275205,
				"element": "H" 
			},
			{
				"x": 0.9986678285,
				"y": -0.8659383606,
				"z": -5.9365593481,
				"element": "H" 
			},
			{
				"x": -0.6763294102,
				"y": -0.5279533759,
				"z": -4.1619394056,
				"element": "H" 
			}
		],
		 "valence_orbital": [ 
			{
				"type": "occ",
				"energy": -0.29882,
				"method": "rhf"
			},
			{
				"type": "occ",
				"energy": -0.29454,
				"method": "rhf"
			},
			{
				"type": "occ",
				"energy": -0.2597,
				"method": "rhf"
			},
			{
				"type": "occ",
				"energy": -0.25606,
				"method": "rhf"
			},
			{
				"type": "occ",
				"energy": -0.24169,
				"method": "rhf"
			},
			{
				"type": "unocc",
				"energy": -0.05366,
				"method": "rhf"
			},
			{
				"type": "unocc",
				"energy": -0.00876,
				"method": "rhf"
			},
			{
				"type": "unocc",
				"energy": 0.04133,
				"method": "rhf"
			},
			{
				"type": "unocc",
				"energy": 0.05969,
				"method": "rhf"
			},
			{
				"type": "unocc",
				"energy": 0.08334,
				"method": "rhf"
			}
		],
		"cosmo_sigma_profile": { 
			"-0.025": 0.0,
			"-0.024": 0.0,
			"-0.023": 0.0,
			"-0.022": 0.0,
			"-0.021": 0.0,
			"-0.02": 0.0,
			"-0.019": 0.0,
			"-0.018": 0.0,
			"-0.017": 0.0,
			"-0.016": 0.0,
			"-0.015": 0.0,
			"-0.014": 0.0,
			"-0.013": 0.0,
			"-0.012": 0.0,
			"-0.011": 0.0,
			"-0.01": 0.0,
			"-0.009": 0.0,
			"-0.008": 0.00707859157077,
			"-0.007": 1.91834736341,
			"-0.006": 8.94899277406,
			"-0.005": 12.0737554023,
			"-0.004": 14.8653477982,
			"-0.003": 18.1562936681,
			"-0.002": 52.7384856756,
			"-0.001": 91.6154114995,
			"0.0": 92.6627364256,
			"0.001": 69.905770259,
			"0.002": 37.1844261227,
			"0.003": 11.9589620899,
			"0.004": 14.1872671867,
			"0.005": 4.80036386479,
			"0.006": 1.88365726939,
			"0.007": 1.24974972295,
			"0.008": 1.41270981311,
			"0.009": 1.61148056618,
			"0.01": 2.35563215577,
			"0.011": 2.28942536241,
			"0.012": 4.1360718956,
			"0.013": 1.99692306149,
			"0.014": 0.450045658717,
			"0.015": 0.0,
			"0.016": 0.0,
			"0.017": 0.0,
			"0.018": 0.0,
			"0.019": 0.0,
			"0.02": 0.0,
			"0.021": 0.0,
			"0.022": 0.0,
			"0.023": 0.0,
			"0.024": 0.0,
			"0.025": 0.0
		}
	}
}
