{
	 "smiles": "CCC1=NN=C(O1)C1=CC=C(N)C=C1", 
	 "Tm": 411.15, 
	 "num_atms": 25, 
	 "gaussian": { 
		 "optdone": 1, 
		 "sigma_profile": "yes", 
		 "theory": "DFT", 
		 "functional": "B3LYP", 
		 "basiset": "6-31G**", 
		 "properties": { 
			 "R2extent": 4041.8546, 
			 "electric_dipole_moment_norm": 4.9716297338, 
			 "electric_quadrupole_moment_norm": 18.6232531565, 
			 "total_energy": -627.16408265, 
			 "HOMO_LUMO_gap": 0.17222, 
			 "cosmo_polarized_energy": -16.33, 
			 "cosmo_cavitation_energy": 29.65, 
			 "cosmo_dispersion_energy": -21.76, 
			 "cosmo_repulsion_energy": 1.73, 
			 "cosmo_total_nonelectrostatic_energy": 9.62, 
			 "SMD_solvation_energy": 3.38 
		},
		"coords": [
			{
				"x": -4.2428517203,
				"y": -0.763907292,
				"z": 3.2491458014,
				"element": "C" 
			},
			{
				"x": -2.9270204381,
				"y": -1.4779705352,
				"z": 3.6041235729,
				"element": "C" 
			},
			{
				"x": -1.7273919996,
				"y": -0.8432256171,
				"z": 2.9913344241,
				"element": "C" 
			},
			{
				"x": -0.7119982554,
				"y": -0.28915286,
				"z": 3.5739315413,
				"element": "N" 
			},
			{
				"x": 0.1355756646,
				"y": 0.1606641966,
				"z": 2.5605238868,
				"element": "N" 
			},
			{
				"x": -0.4334467365,
				"y": -0.1539183972,
				"z": 1.4323489803,
				"element": "C" 
			},
			{
				"x": -1.6272669018,
				"y": -0.7980464746,
				"z": 1.6269963452,
				"element": "O" 
			},
			{
				"x": 0.0347944554,
				"y": 0.0894148967,
				"z": 0.0780554486,
				"element": "C" 
			},
			{
				"x": 1.2556808124,
				"y": 0.7568073445,
				"z": -0.1248841123,
				"element": "C" 
			},
			{
				"x": 1.7262298943,
				"y": 0.9983084878,
				"z": -1.4056277262,
				"element": "C" 
			},
			{
				"x": 0.9914298383,
				"y": 0.5805392744,
				"z": -2.5335761567,
				"element": "C" 
			},
			{
				"x": 1.4375167404,
				"y": 0.8683175199,
				"z": -3.8158210858,
				"element": "N" 
			},
			{
				"x": -0.2306874097,
				"y": -0.0870443643,
				"z": -2.328235087,
				"element": "C" 
			},
			{
				"x": -0.6995161012,
				"y": -0.327018218,
				"z": -1.0437278501,
				"element": "C" 
			},
			{
				"x": -4.2311770654,
				"y": 0.2730092768,
				"z": 3.5975014921,
				"element": "H" 
			},
			{
				"x": -5.0892364873,
				"y": -1.2726602831,
				"z": 3.7196223016,
				"element": "H" 
			},
			{
				"x": -4.4078755782,
				"y": -0.7576359158,
				"z": 2.1679451159,
				"element": "H" 
			},
			{
				"x": -2.9780971502,
				"y": -2.5264813112,
				"z": 3.2842531121,
				"element": "H" 
			},
			{
				"x": -2.7636931901,
				"y": -1.4759065349,
				"z": 4.6849773422,
				"element": "H" 
			},
			{
				"x": 1.8270186144,
				"y": 1.0787551513,
				"z": 0.7393918178,
				"element": "H" 
			},
			{
				"x": 2.6702801324,
				"y": 1.518722774,
				"z": -1.5455851648,
				"element": "H" 
			},
			{
				"x": 1.0654770662,
				"y": 0.2943909404,
				"z": -4.5586639702,
				"element": "H" 
			},
			{
				"x": 2.4258788032,
				"y": 1.0499862386,
				"z": -3.91484829,
				"element": "H" 
			},
			{
				"x": -0.8130362539,
				"y": -0.4132830153,
				"z": -3.1861592594,
				"element": "H" 
			},
			{
				"x": -1.6427867339,
				"y": -0.8450652824,
				"z": -0.9052224797,
				"element": "H" 
			}
		],
		 "valence_orbital": [ 
			{
				"type": "occ",
				"energy": -0.30381,
				"method": "rhf"
			},
			{
				"type": "occ",
				"energy": -0.26569,
				"method": "rhf"
			},
			{
				"type": "occ",
				"energy": -0.26151,
				"method": "rhf"
			},
			{
				"type": "occ",
				"energy": -0.25699,
				"method": "rhf"
			},
			{
				"type": "occ",
				"energy": -0.20256,
				"method": "rhf"
			},
			{
				"type": "unocc",
				"energy": -0.03034,
				"method": "rhf"
			},
			{
				"type": "unocc",
				"energy": -0.00553,
				"method": "rhf"
			},
			{
				"type": "unocc",
				"energy": 0.02756,
				"method": "rhf"
			},
			{
				"type": "unocc",
				"energy": 0.06714,
				"method": "rhf"
			},
			{
				"type": "unocc",
				"energy": 0.08161,
				"method": "rhf"
			}
		],
		"cosmo_sigma_profile": { 
			"-0.025": 0.0,
			"-0.024": 0.0,
			"-0.023": 0.0,
			"-0.022": 0.0,
			"-0.021": 0.0,
			"-0.02": 0.0,
			"-0.019": 0.0,
			"-0.018": 0.0,
			"-0.017": 0.0,
			"-0.016": 0.0,
			"-0.015": 0.0,
			"-0.014": 0.0520583890583,
			"-0.013": 2.14376925669,
			"-0.012": 2.777839218,
			"-0.011": 3.01638987429,
			"-0.01": 3.15387445115,
			"-0.009": 2.92250368427,
			"-0.008": 3.00964980147,
			"-0.007": 4.15863799363,
			"-0.006": 9.15878948487,
			"-0.005": 12.4173830514,
			"-0.004": 17.7071603361,
			"-0.003": 21.6109617443,
			"-0.002": 21.6234057064,
			"-0.001": 16.5464277642,
			"0.0": 21.2185781824,
			"0.001": 12.6983724982,
			"0.002": 12.0790080556,
			"0.003": 12.3794686135,
			"0.004": 13.831197123,
			"0.005": 12.8915670747,
			"0.006": 2.88001704024,
			"0.007": 2.55187113782,
			"0.008": 3.44426570342,
			"0.009": 3.40249102415,
			"0.01": 2.22886839609,
			"0.011": 2.78803538699,
			"0.012": 3.77065973475,
			"0.013": 4.18368695394,
			"0.014": 2.23460443862,
			"0.015": 2.25665405074,
			"0.016": 0.700890501079,
			"0.017": 0.0,
			"0.018": 0.0,
			"0.019": 0.0,
			"0.02": 0.0,
			"0.021": 0.0,
			"0.022": 0.0,
			"0.023": 0.0,
			"0.024": 0.0,
			"0.025": 0.0
		}
	}
}
