{
	 "smiles": "CC1=C(C=C(N)C=C1)N1CCOC1=O", 
	 "Tm": 404.15, 
	 "num_atms": 26, 
	 "gaussian": { 
		 "optdone": 1, 
		 "sigma_profile": "yes", 
		 "theory": "DFT", 
		 "functional": "B3LYP", 
		 "basiset": "6-31G**", 
		 "properties": { 
			 "R2extent": 4185.879, 
			 "electric_dipole_moment_norm": 6.21367200937, 
			 "electric_quadrupole_moment_norm": 26.7372605644, 
			 "total_energy": -648.265147735, 
			 "HOMO_LUMO_gap": 0.19532, 
			 "cosmo_polarized_energy": -18.63, 
			 "cosmo_cavitation_energy": 28.85, 
			 "cosmo_dispersion_energy": -21.14, 
			 "cosmo_repulsion_energy": 1.67, 
			 "cosmo_total_nonelectrostatic_energy": 9.38, 
			 "SMD_solvation_energy": 5.97 
		},
		"coords": [
			{
				"x": -0.0961889013,
				"y": -1.488684229,
				"z": -1.6940340964,
				"element": "C" 
			},
			{
				"x": 1.2505694602,
				"y": -1.1987362685,
				"z": -1.0816453198,
				"element": "C" 
			},
			{
				"x": 1.696706681,
				"y": 0.1091745175,
				"z": -0.811108637,
				"element": "C" 
			},
			{
				"x": 2.9333965526,
				"y": 0.3426562265,
				"z": -0.2011255129,
				"element": "C" 
			},
			{
				"x": 3.7791586237,
				"y": -0.7181504628,
				"z": 0.1504881987,
				"element": "C" 
			},
			{
				"x": 5.0396866455,
				"y": -0.4737055512,
				"z": 0.7039196875,
				"element": "N" 
			},
			{
				"x": 3.3534440314,
				"y": -2.0249442412,
				"z": -0.1322392551,
				"element": "C" 
			},
			{
				"x": 2.1193229722,
				"y": -2.2416882177,
				"z": -0.7356268489,
				"element": "C" 
			},
			{
				"x": 0.8626691584,
				"y": 1.2287582718,
				"z": -1.1104898361,
				"element": "N" 
			},
			{
				"x": 0.6975644907,
				"y": 2.3685953046,
				"z": -0.2156634869,
				"element": "C" 
			},
			{
				"x": -0.36784468,
				"y": 3.1624261419,
				"z": -0.9824941261,
				"element": "C" 
			},
			{
				"x": -0.1859315935,
				"y": 2.7716891911,
				"z": -2.3513194244,
				"element": "O" 
			},
			{
				"x": 0.4758125602,
				"y": 1.5693655486,
				"z": -2.3991330207,
				"element": "C" 
			},
			{
				"x": 0.6577942281,
				"y": 0.9597542143,
				"z": -3.4239611575,
				"element": "O" 
			},
			{
				"x": -0.3530550512,
				"y": -2.5446578186,
				"z": -1.5724241862,
				"element": "H" 
			},
			{
				"x": -0.8851044171,
				"y": -0.8917388834,
				"z": -1.2225733409,
				"element": "H" 
			},
			{
				"x": -0.1088227088,
				"y": -1.2457692157,
				"z": -2.7608352392,
				"element": "H" 
			},
			{
				"x": 3.2584304955,
				"y": 1.3628320056,
				"z": -0.0173222319,
				"element": "H" 
			},
			{
				"x": 5.4311918354,
				"y": -1.2457614756,
				"z": 1.2257261555,
				"element": "H" 
			},
			{
				"x": 5.1261819536,
				"y": 0.3984646518,
				"z": 1.2073533379,
				"element": "H" 
			},
			{
				"x": 3.9897607205,
				"y": -2.8679434862,
				"z": 0.1250719272,
				"element": "H" 
			},
			{
				"x": 1.8046329844,
				"y": -3.2636244692,
				"z": -0.9315012077,
				"element": "H" 
			},
			{
				"x": 1.6263003143,
				"y": 2.946115009,
				"z": -0.1052742221,
				"element": "H" 
			},
			{
				"x": 0.3639415446,
				"y": 2.054394229,
				"z": 0.7770842093,
				"element": "H" 
			},
			{
				"x": -0.2445563976,
				"y": 4.2445627973,
				"z": -0.9091241914,
				"element": "H" 
			},
			{
				"x": -1.3815615027,
				"y": 2.88981621,
				"z": -0.665648175,
				"element": "H" 
			}
		],
		 "valence_orbital": [ 
			{
				"type": "occ",
				"energy": -0.28842,
				"method": "rhf"
			},
			{
				"type": "occ",
				"energy": -0.27263,
				"method": "rhf"
			},
			{
				"type": "occ",
				"energy": -0.26967,
				"method": "rhf"
			},
			{
				"type": "occ",
				"energy": -0.22959,
				"method": "rhf"
			},
			{
				"type": "occ",
				"energy": -0.19866,
				"method": "rhf"
			},
			{
				"type": "unocc",
				"energy": -0.00334,
				"method": "rhf"
			},
			{
				"type": "unocc",
				"energy": 0.0181,
				"method": "rhf"
			},
			{
				"type": "unocc",
				"energy": 0.05247,
				"method": "rhf"
			},
			{
				"type": "unocc",
				"energy": 0.07582,
				"method": "rhf"
			},
			{
				"type": "unocc",
				"energy": 0.08119,
				"method": "rhf"
			}
		],
		"cosmo_sigma_profile": { 
			"-0.025": 0.0,
			"-0.024": 0.0,
			"-0.023": 0.0,
			"-0.022": 0.0,
			"-0.021": 0.0,
			"-0.02": 0.0,
			"-0.019": 0.0,
			"-0.018": 0.0,
			"-0.017": 0.0,
			"-0.016": 0.0,
			"-0.015": 0.0,
			"-0.014": 0.0,
			"-0.013": 0.20309649848,
			"-0.012": 2.29485037343,
			"-0.011": 3.15096976918,
			"-0.01": 2.54120545673,
			"-0.009": 3.40365503048,
			"-0.008": 3.4414230618,
			"-0.007": 10.8462528137,
			"-0.006": 20.0936610236,
			"-0.005": 17.6897605014,
			"-0.004": 15.3822442458,
			"-0.003": 14.6725321273,
			"-0.002": 11.8348489212,
			"-0.001": 12.4125502627,
			"0.0": 13.1942958741,
			"0.001": 14.2234300672,
			"0.002": 9.13192659585,
			"0.003": 7.45771316344,
			"0.004": 8.68521350824,
			"0.005": 8.68907428811,
			"0.006": 12.5891274763,
			"0.007": 6.98733616115,
			"0.008": 3.61533599891,
			"0.009": 3.99830252927,
			"0.01": 5.38623221291,
			"0.011": 4.50039409485,
			"0.012": 4.96003789263,
			"0.013": 4.78918330962,
			"0.014": 1.40740698174,
			"0.015": 0.316527523976,
			"0.016": 0.0,
			"0.017": 0.0,
			"0.018": 0.0,
			"0.019": 0.0,
			"0.02": 0.0,
			"0.021": 0.0,
			"0.022": 0.0,
			"0.023": 0.0,
			"0.024": 0.0,
			"0.025": 0.0
		}
	}
}
