{
	 "smiles": "CN1CC(Br)C(=O)NC1=O", 
	 "Tm": 427.15, 
	 "num_atms": 17, 
	 "gaussian": { 
		 "optdone": 1, 
		 "sigma_profile": "yes", 
		 "theory": "DFT", 
		 "functional": "B3LYP", 
		 "basiset": "6-31G**", 
		 "properties": { 
			 "R2extent": 4221.5048, 
			 "electric_dipole_moment_norm": 3.51282440495, 
			 "electric_quadrupole_moment_norm": 12.8784662837, 
			 "total_energy": -3026.13814251, 
			 "HOMO_LUMO_gap": 0.22606, 
			 "cosmo_polarized_energy": -15.46, 
			 "cosmo_cavitation_energy": 22.91, 
			 "cosmo_dispersion_energy": -17.44, 
			 "cosmo_repulsion_energy": 1.42, 
			 "cosmo_total_nonelectrostatic_energy": 6.88, 
			 "SMD_solvation_energy": 3.81 
		},
		"coords": [
			{
				"x": -0.886677412,
				"y": 1.8306880458,
				"z": 0.0166922459,
				"element": "C" 
			},
			{
				"x": 0.1256504285,
				"y": 0.9369020439,
				"z": 0.5666052686,
				"element": "N" 
			},
			{
				"x": 0.3118939167,
				"y": 0.9184764537,
				"z": 2.0147987731,
				"element": "C" 
			},
			{
				"x": 0.8836305138,
				"y": -0.4315746842,
				"z": 2.4412097498,
				"element": "C" 
			},
			{
				"x": 1.2077169668,
				"y": -0.4483089608,
				"z": 4.3720324033,
				"element": "Br" 
			},
			{
				"x": 2.1572901133,
				"y": -0.7704997692,
				"z": 1.6628494097,
				"element": "C" 
			},
			{
				"x": 3.0650085774,
				"y": -1.4638591658,
				"z": 2.0664313839,
				"element": "O" 
			},
			{
				"x": 2.1483070148,
				"y": -0.2318127373,
				"z": 0.3856201276,
				"element": "N" 
			},
			{
				"x": 1.1387108179,
				"y": 0.5155794707,
				"z": -0.2593391619,
				"element": "C" 
			},
			{
				"x": 1.2036238123,
				"y": 0.7260674077,
				"z": -1.4591297759,
				"element": "O" 
			},
			{
				"x": -1.8671740299,
				"y": 1.5761955795,
				"z": 0.4303799496,
				"element": "H" 
			},
			{
				"x": -0.666416006,
				"y": 2.8811363881,
				"z": 0.2486062005,
				"element": "H" 
			},
			{
				"x": -0.9006646126,
				"y": 1.7066201369,
				"z": -1.0650579575,
				"element": "H" 
			},
			{
				"x": 0.9773402314,
				"y": 1.7276402905,
				"z": 2.349844189,
				"element": "H" 
			},
			{
				"x": -0.6591863254,
				"y": 1.072146501,
				"z": 2.4900562601,
				"element": "H" 
			},
			{
				"x": 0.1564710298,
				"y": -1.2265353897,
				"z": 2.2560145238,
				"element": "H" 
			},
			{
				"x": 2.9086749633,
				"y": -0.5118616109,
				"z": -0.2227135897,
				"element": "H" 
			}
		],
		 "valence_orbital": [ 
			{
				"type": "occ",
				"energy": -0.2934,
				"method": "rhf"
			},
			{
				"type": "occ",
				"energy": -0.29105,
				"method": "rhf"
			},
			{
				"type": "occ",
				"energy": -0.28957,
				"method": "rhf"
			},
			{
				"type": "occ",
				"energy": -0.27505,
				"method": "rhf"
			},
			{
				"type": "occ",
				"energy": -0.26454,
				"method": "rhf"
			},
			{
				"type": "unocc",
				"energy": -0.03848,
				"method": "rhf"
			},
			{
				"type": "unocc",
				"energy": -0.0056,
				"method": "rhf"
			},
			{
				"type": "unocc",
				"energy": 0.04102,
				"method": "rhf"
			},
			{
				"type": "unocc",
				"energy": 0.09018,
				"method": "rhf"
			},
			{
				"type": "unocc",
				"energy": 0.09563,
				"method": "rhf"
			}
		],
		"cosmo_sigma_profile": { 
			"-0.025": 0.0,
			"-0.024": 0.0,
			"-0.023": 0.0,
			"-0.022": 0.0,
			"-0.021": 0.0,
			"-0.02": 0.0,
			"-0.019": 0.0,
			"-0.018": 0.0,
			"-0.017": 0.0,
			"-0.016": 0.415421437372,
			"-0.015": 0.717843439367,
			"-0.014": 0.898376691521,
			"-0.013": 0.758968132557,
			"-0.012": 0.91485729435,
			"-0.011": 1.17184597218,
			"-0.01": 3.66911748459,
			"-0.009": 2.58283336969,
			"-0.008": 5.29733972874,
			"-0.007": 9.35577856406,
			"-0.006": 10.8525588411,
			"-0.005": 13.7471365597,
			"-0.004": 14.4843882747,
			"-0.003": 13.6958093778,
			"-0.002": 13.4882072979,
			"-0.001": 8.61629997272,
			"0.0": 7.63418815939,
			"0.001": 6.82056005166,
			"0.002": 6.47193881067,
			"0.003": 7.27503465609,
			"0.004": 9.94558476145,
			"0.005": 8.34500780675,
			"0.006": 3.81157966898,
			"0.007": 2.93760950443,
			"0.008": 2.92159010198,
			"0.009": 3.77022120838,
			"0.01": 4.28029824037,
			"0.011": 6.81646591959,
			"0.012": 8.10416965788,
			"0.013": 4.48155604215,
			"0.014": 0.114306247894,
			"0.015": 0.0,
			"0.016": 0.0,
			"0.017": 0.0,
			"0.018": 0.0,
			"0.019": 0.0,
			"0.02": 0.0,
			"0.021": 0.0,
			"0.022": 0.0,
			"0.023": 0.0,
			"0.024": 0.0,
			"0.025": 0.0
		}
	}
}
