{
	 "smiles": "COC1=CC=C(Cl)C=C1Cl", 
	 "Tm": 300.35, 
	 "num_atms": 16, 
	 "gaussian": { 
		 "optdone": 1, 
		 "sigma_profile": "yes", 
		 "theory": "DFT", 
		 "functional": "B3LYP", 
		 "basiset": "6-31G**", 
		 "properties": { 
			 "R2extent": 2652.0923, 
			 "electric_dipole_moment_norm": 3.37736737267, 
			 "electric_quadrupole_moment_norm": 9.87717048704, 
			 "total_energy": -1265.95410989, 
			 "HOMO_LUMO_gap": 0.20374, 
			 "cosmo_polarized_energy": -6.69, 
			 "cosmo_cavitation_energy": 23.66, 
			 "cosmo_dispersion_energy": -17.88, 
			 "cosmo_repulsion_energy": 1.46, 
			 "cosmo_total_nonelectrostatic_energy": 7.24, 
			 "SMD_solvation_energy": 4.37 
		},
		"coords": [
			{
				"x": 2.4741203246,
				"y": 1.2665453427,
				"z": -2.4226798897,
				"element": "C" 
			},
			{
				"x": 1.6889254987,
				"y": 1.7143633243,
				"z": -1.3266289577,
				"element": "O" 
			},
			{
				"x": 1.3055018269,
				"y": 0.8090515991,
				"z": -0.3939815331,
				"element": "C" 
			},
			{
				"x": 1.6255827067,
				"y": -0.5539989636,
				"z": -0.4230546189,
				"element": "C" 
			},
			{
				"x": 1.186628938,
				"y": -1.4168411798,
				"z": 0.5830729897,
				"element": "C" 
			},
			{
				"x": 0.4204231127,
				"y": -0.9164729586,
				"z": 1.6296550269,
				"element": "C" 
			},
			{
				"x": -0.1377404293,
				"y": -1.9926886776,
				"z": 2.9014715921,
				"element": "Cl" 
			},
			{
				"x": 0.0855528975,
				"y": 0.4372067125,
				"z": 1.685759772,
				"element": "C" 
			},
			{
				"x": 0.5272885262,
				"y": 1.2884417547,
				"z": 0.6793226796,
				"element": "C" 
			},
			{
				"x": 0.1082742052,
				"y": 2.98470345,
				"z": 0.7487120668,
				"element": "Cl" 
			},
			{
				"x": 2.6608899826,
				"y": 2.1501484692,
				"z": -3.0336378149,
				"element": "H" 
			},
			{
				"x": 1.9404737707,
				"y": 0.5179525714,
				"z": -3.0215513453,
				"element": "H" 
			},
			{
				"x": 3.4316511498,
				"y": 0.8481073383,
				"z": -2.0882236906,
				"element": "H" 
			},
			{
				"x": 2.2219263248,
				"y": -0.9550524703,
				"z": -1.2334612873,
				"element": "H" 
			},
			{
				"x": 1.4418985424,
				"y": -2.4698169468,
				"z": 0.5478434538,
				"element": "H" 
			},
			{
				"x": -0.5112973775,
				"y": 0.8283506344,
				"z": 2.5005815564,
				"element": "H" 
			}
		],
		 "valence_orbital": [ 
			{
				"type": "occ",
				"energy": -0.31798,
				"method": "rhf"
			},
			{
				"type": "occ",
				"energy": -0.31005,
				"method": "rhf"
			},
			{
				"type": "occ",
				"energy": -0.30992,
				"method": "rhf"
			},
			{
				"type": "occ",
				"energy": -0.26095,
				"method": "rhf"
			},
			{
				"type": "occ",
				"energy": -0.22777,
				"method": "rhf"
			},
			{
				"type": "unocc",
				"energy": -0.02403,
				"method": "rhf"
			},
			{
				"type": "unocc",
				"energy": -0.00898,
				"method": "rhf"
			},
			{
				"type": "unocc",
				"energy": 0.00999,
				"method": "rhf"
			},
			{
				"type": "unocc",
				"energy": 0.0525,
				"method": "rhf"
			},
			{
				"type": "unocc",
				"energy": 0.09055,
				"method": "rhf"
			}
		],
		"cosmo_sigma_profile": { 
			"-0.025": 0.0,
			"-0.024": 0.0,
			"-0.023": 0.0,
			"-0.022": 0.0,
			"-0.021": 0.0,
			"-0.02": 0.0,
			"-0.019": 0.0,
			"-0.018": 0.0,
			"-0.017": 0.0,
			"-0.016": 0.0,
			"-0.015": 0.0,
			"-0.014": 0.0,
			"-0.013": 0.0,
			"-0.012": 0.0,
			"-0.011": 0.0,
			"-0.01": 0.0,
			"-0.009": 0.0982422516283,
			"-0.008": 3.22954721996,
			"-0.007": 7.38396821952,
			"-0.006": 13.0715866043,
			"-0.005": 12.2147266377,
			"-0.004": 12.1309326901,
			"-0.003": 10.7873000141,
			"-0.002": 9.96506644842,
			"-0.001": 10.0804116684,
			"0.0": 12.7609422449,
			"0.001": 20.903387829,
			"0.002": 24.1967260471,
			"0.003": 18.033705736,
			"0.004": 18.298564908,
			"0.005": 12.2291213167,
			"0.006": 1.73061250637,
			"0.007": 1.90030608791,
			"0.008": 1.81380157361,
			"0.009": 1.44899619013,
			"0.01": 1.66391625012,
			"0.011": 0.125645804021,
			"0.012": 0.0,
			"0.013": 0.0,
			"0.014": 0.0,
			"0.015": 0.0,
			"0.016": 0.0,
			"0.017": 0.0,
			"0.018": 0.0,
			"0.019": 0.0,
			"0.02": 0.0,
			"0.021": 0.0,
			"0.022": 0.0,
			"0.023": 0.0,
			"0.024": 0.0,
			"0.025": 0.0
		}
	}
}
