{
	 "smiles": "NC1=CC=C(CC(=O)N2CCCC3=C2C=CC=C3)C=C1", 
	 "Tm": 415.15, 
	 "num_atms": 38, 
	 "gaussian": { 
		 "optdone": 1, 
		 "sigma_profile": "yes", 
		 "theory": "DFT", 
		 "functional": "B3LYP", 
		 "basiset": "6-31G**", 
		 "properties": { 
			 "R2extent": 6885.4222, 
			 "electric_dipole_moment_norm": 4.76418748057, 
			 "electric_quadrupole_moment_norm": 14.3995401197, 
			 "total_energy": -843.409498249, 
			 "HOMO_LUMO_gap": 0.19347, 
			 "cosmo_polarized_energy": -16.59, 
			 "cosmo_cavitation_energy": 39.67, 
			 "cosmo_dispersion_energy": -28.19, 
			 "cosmo_repulsion_energy": 2.15, 
			 "cosmo_total_nonelectrostatic_energy": 13.64, 
			 "SMD_solvation_energy": 6.06 
		},
		"coords": [
			{
				"x": 3.0415251158,
				"y": -0.2825493873,
				"z": 5.1852144348,
				"element": "N" 
			},
			{
				"x": 2.6896375081,
				"y": -0.596881123,
				"z": 3.8705259039,
				"element": "C" 
			},
			{
				"x": 3.0785622583,
				"y": 0.23258464,
				"z": 2.8031563048,
				"element": "C" 
			},
			{
				"x": 2.77794366,
				"y": -0.1103139968,
				"z": 1.4897325864,
				"element": "C" 
			},
			{
				"x": 2.0778968384,
				"y": -1.2873249685,
				"z": 1.1858066293,
				"element": "C" 
			},
			{
				"x": 1.7804293814,
				"y": -1.6613118054,
				"z": -0.2574358851,
				"element": "C" 
			},
			{
				"x": 1.1899679207,
				"y": -0.5042516046,
				"z": -1.0783371169,
				"element": "C" 
			},
			{
				"x": 1.9343673236,
				"y": 0.1302626441,
				"z": -1.8185476193,
				"element": "O" 
			},
			{
				"x": -0.1555824496,
				"y": -0.2014045901,
				"z": -0.9288527041,
				"element": "N" 
			},
			{
				"x": -1.0550513765,
				"y": -0.969957409,
				"z": -0.0593639808,
				"element": "C" 
			},
			{
				"x": -2.121807645,
				"y": -1.6646308917,
				"z": -0.9053759888,
				"element": "C" 
			},
			{
				"x": -2.9729745202,
				"y": -0.600429693,
				"z": -1.6066279378,
				"element": "C" 
			},
			{
				"x": -2.1698584686,
				"y": 0.6067453458,
				"z": -2.0632214405,
				"element": "C" 
			},
			{
				"x": -0.8108962695,
				"y": 0.7915540524,
				"z": -1.7288055446,
				"element": "C" 
			},
			{
				"x": -0.1449289757,
				"y": 1.9564781344,
				"z": -2.1493737597,
				"element": "C" 
			},
			{
				"x": -0.811318785,
				"y": 2.9144395556,
				"z": -2.9064213255,
				"element": "C" 
			},
			{
				"x": -2.1523908283,
				"y": 2.7371878729,
				"z": -3.2511989144,
				"element": "C" 
			},
			{
				"x": -2.8144084321,
				"y": 1.5916443888,
				"z": -2.8228159357,
				"element": "C" 
			},
			{
				"x": 1.6950011944,
				"y": -2.109888561,
				"z": 2.2511674754,
				"element": "C" 
			},
			{
				"x": 1.9915771416,
				"y": -1.7777390397,
				"z": 3.5719129851,
				"element": "C" 
			},
			{
				"x": 3.2085282751,
				"y": 0.6987071658,
				"z": 5.3609549023,
				"element": "H" 
			},
			{
				"x": 2.4558096011,
				"y": -0.6966406731,
				"z": 5.8972770661,
				"element": "H" 
			},
			{
				"x": 3.6262303252,
				"y": 1.1489685788,
				"z": 3.0104321427,
				"element": "H" 
			},
			{
				"x": 3.0897707792,
				"y": 0.5448626147,
				"z": 0.680802872,
				"element": "H" 
			},
			{
				"x": 2.7095073289,
				"y": -1.8995700252,
				"z": -0.78346526,
				"element": "H" 
			},
			{
				"x": 1.1545349152,
				"y": -2.5582861393,
				"z": -0.2941070598,
				"element": "H" 
			},
			{
				"x": -1.5286038597,
				"y": -0.2757056958,
				"z": 0.6475750513,
				"element": "H" 
			},
			{
				"x": -0.4808299444,
				"y": -1.6754977543,
				"z": 0.5331478257,
				"element": "H" 
			},
			{
				"x": -1.6219739762,
				"y": -2.3088690278,
				"z": -1.6384664004,
				"element": "H" 
			},
			{
				"x": -2.7492614764,
				"y": -2.3086140712,
				"z": -0.2792600779,
				"element": "H" 
			},
			{
				"x": -3.7531165563,
				"y": -0.2533183391,
				"z": -0.914680182,
				"element": "H" 
			},
			{
				"x": -3.5041291923,
				"y": -1.0345953177,
				"z": -2.4617874099,
				"element": "H" 
			},
			{
				"x": 0.8954838587,
				"y": 2.0891871577,
				"z": -1.8950770993,
				"element": "H" 
			},
			{
				"x": -0.2766938632,
				"y": 3.8051483241,
				"z": -3.2237394258,
				"element": "H" 
			},
			{
				"x": -2.6748687625,
				"y": 3.4822370559,
				"z": -3.8440261014,
				"element": "H" 
			},
			{
				"x": -3.8610295967,
				"y": 1.4437830808,
				"z": -3.080552643,
				"element": "H" 
			},
			{
				"x": 1.1587707265,
				"y": -3.0351769251,
				"z": 2.0500658076,
				"element": "H" 
			},
			{
				"x": 1.6858808265,
				"y": -2.4397335733,
				"z": 4.3786678252,
				"element": "H" 
			}
		],
		 "valence_orbital": [ 
			{
				"type": "occ",
				"energy": -0.24714,
				"method": "rhf"
			},
			{
				"type": "occ",
				"energy": -0.24398,
				"method": "rhf"
			},
			{
				"type": "occ",
				"energy": -0.23113,
				"method": "rhf"
			},
			{
				"type": "occ",
				"energy": -0.21097,
				"method": "rhf"
			},
			{
				"type": "occ",
				"energy": -0.19882,
				"method": "rhf"
			},
			{
				"type": "unocc",
				"energy": -0.00535,
				"method": "rhf"
			},
			{
				"type": "unocc",
				"energy": 0.00153,
				"method": "rhf"
			},
			{
				"type": "unocc",
				"energy": 0.00549,
				"method": "rhf"
			},
			{
				"type": "unocc",
				"energy": 0.01754,
				"method": "rhf"
			},
			{
				"type": "unocc",
				"energy": 0.04045,
				"method": "rhf"
			}
		],
		"cosmo_sigma_profile": { 
			"-0.025": 0.0,
			"-0.024": 0.0,
			"-0.023": 0.0,
			"-0.022": 0.0,
			"-0.021": 0.0,
			"-0.02": 0.0,
			"-0.019": 0.0,
			"-0.018": 0.0,
			"-0.017": 0.0,
			"-0.016": 0.0,
			"-0.015": 0.0,
			"-0.014": 0.0,
			"-0.013": 0.208329734545,
			"-0.012": 2.06161914309,
			"-0.011": 2.79440975811,
			"-0.01": 3.12914642561,
			"-0.009": 2.92374682881,
			"-0.008": 3.00613017167,
			"-0.007": 5.26732622375,
			"-0.006": 9.55256380924,
			"-0.005": 17.974845277,
			"-0.004": 30.2755190842,
			"-0.003": 38.5976416192,
			"-0.002": 29.1683567914,
			"-0.001": 22.8445549812,
			"0.0": 18.1861195475,
			"0.001": 16.7108783841,
			"0.002": 16.5974762004,
			"0.003": 15.3156451737,
			"0.004": 14.7536770328,
			"0.005": 16.2273563706,
			"0.006": 19.1276971788,
			"0.007": 9.1755685728,
			"0.008": 2.54375767098,
			"0.009": 2.52534038223,
			"0.01": 2.62068883239,
			"0.011": 1.9057275244,
			"0.012": 2.83784985291,
			"0.013": 3.96091117343,
			"0.014": 2.77632163198,
			"0.015": 0.701522147108,
			"0.016": 0.0,
			"0.017": 0.0,
			"0.018": 0.0,
			"0.019": 0.0,
			"0.02": 0.0,
			"0.021": 0.0,
			"0.022": 0.0,
			"0.023": 0.0,
			"0.024": 0.0,
			"0.025": 0.0
		}
	}
}
