{
	 "smiles": "NC(=O)C1=CC2=C(NC=C2C2CCNCC2)C=C1", 
	 "Tm": 423.15, 
	 "num_atms": 35, 
	 "gaussian": { 
		 "optdone": 1, 
		 "sigma_profile": "yes", 
		 "theory": "DFT", 
		 "functional": "B3LYP", 
		 "basiset": "6-31G**", 
		 "properties": { 
			 "R2extent": 5724.2981, 
			 "electric_dipole_moment_norm": 4.54506175536, 
			 "electric_quadrupole_moment_norm": 30.42135306, 
			 "total_energy": -783.232757351, 
			 "HOMO_LUMO_gap": 0.18039, 
			 "cosmo_polarized_energy": -20.34, 
			 "cosmo_cavitation_energy": 36.52, 
			 "cosmo_dispersion_energy": -26.28, 
			 "cosmo_repulsion_energy": 2.05, 
			 "cosmo_total_nonelectrostatic_energy": 12.29, 
			 "SMD_solvation_energy": 4.18 
		},
		"coords": [
			{
				"x": 0.1397289804,
				"y": -1.4690015085,
				"z": -3.47717698,
				"element": "N" 
			},
			{
				"x": 1.4802606861,
				"y": -1.7110581179,
				"z": -3.2528572084,
				"element": "C" 
			},
			{
				"x": 2.1324775979,
				"y": -2.4208936343,
				"z": -4.010718488,
				"element": "O" 
			},
			{
				"x": 2.0750701031,
				"y": -1.08384424,
				"z": -2.0294609574,
				"element": "C" 
			},
			{
				"x": 1.2997539284,
				"y": -0.6026706776,
				"z": -0.9721100282,
				"element": "C" 
			},
			{
				"x": 1.9256590934,
				"y": -0.0301773041,
				"z": 0.1476102698,
				"element": "C" 
			},
			{
				"x": 3.3490780674,
				"y": 0.0397007281,
				"z": 0.1625298045,
				"element": "C" 
			},
			{
				"x": 3.7163609381,
				"y": 0.6343096277,
				"z": 1.3462613375,
				"element": "N" 
			},
			{
				"x": 2.5776002111,
				"y": 0.9342346977,
				"z": 2.0756104032,
				"element": "C" 
			},
			{
				"x": 1.4536156334,
				"y": 0.5488075756,
				"z": 1.3899497372,
				"element": "C" 
			},
			{
				"x": 0.0389235699,
				"y": 0.7203371962,
				"z": 1.8778542533,
				"element": "C" 
			},
			{
				"x": -0.8219001863,
				"y": 1.6205344341,
				"z": 0.9645720727,
				"element": "C" 
			},
			{
				"x": -2.188468805,
				"y": 1.9319501034,
				"z": 1.6204607915,
				"element": "C" 
			},
			{
				"x": -2.5379755164,
				"y": 0.8902284457,
				"z": 2.5948375075,
				"element": "N" 
			},
			{
				"x": -2.2248090739,
				"y": -0.4505897436,
				"z": 2.1025825175,
				"element": "C" 
			},
			{
				"x": -0.6909841625,
				"y": -0.6350537765,
				"z": 2.0987116836,
				"element": "C" 
			},
			{
				"x": 4.1372372149,
				"y": -0.4509770459,
				"z": -0.8862053141,
				"element": "C" 
			},
			{
				"x": 3.4872009997,
				"y": -1.0151261853,
				"z": -1.9708492085,
				"element": "C" 
			},
			{
				"x": -0.2800500792,
				"y": -0.6269510257,
				"z": -3.1145432153,
				"element": "H" 
			},
			{
				"x": -0.1978192191,
				"y": -1.7872336091,
				"z": -4.3745466625,
				"element": "H" 
			},
			{
				"x": 0.2196650007,
				"y": -0.7049178252,
				"z": -0.9965870514,
				"element": "H" 
			},
			{
				"x": 4.6624515959,
				"y": 0.8045296765,
				"z": 1.6452570778,
				"element": "H" 
			},
			{
				"x": 2.6564509806,
				"y": 1.4073259239,
				"z": 3.0447432676,
				"element": "H" 
			},
			{
				"x": 0.0911092551,
				"y": 1.2204920123,
				"z": 2.8521356821,
				"element": "H" 
			},
			{
				"x": -0.2931421385,
				"y": 2.5522592827,
				"z": 0.7399508744,
				"element": "H" 
			},
			{
				"x": -0.9744233823,
				"y": 1.1162828721,
				"z": 0.0029848761,
				"element": "H" 
			},
			{
				"x": -2.946545378,
				"y": 2.0461872615,
				"z": 0.8238287924,
				"element": "H" 
			},
			{
				"x": -2.1406570409,
				"y": 2.8903701874,
				"z": 2.1526682826,
				"element": "H" 
			},
			{
				"x": -3.5189628989,
				"y": 0.9630688644,
				"z": 2.845052839,
				"element": "H" 
			},
			{
				"x": -2.6293223103,
				"y": -0.6376390188,
				"z": 1.0886411718,
				"element": "H" 
			},
			{
				"x": -2.6941606232,
				"y": -1.186867193,
				"z": 2.7630848835,
				"element": "H" 
			},
			{
				"x": -0.3558051719,
				"y": -1.0602896824,
				"z": 3.0506012862,
				"element": "H" 
			},
			{
				"x": -0.409097228,
				"y": -1.3509180811,
				"z": 1.3188857252,
				"element": "H" 
			},
			{
				"x": 5.2216808844,
				"y": -0.3957638538,
				"z": -0.8496247966,
				"element": "H" 
			},
			{
				"x": 4.045298474,
				"y": -1.4227463663,
				"z": -2.8062352265,
				"element": "H" 
			}
		],
		 "valence_orbital": [ 
			{
				"type": "occ",
				"energy": -0.26182,
				"method": "rhf"
			},
			{
				"type": "occ",
				"energy": -0.23917,
				"method": "rhf"
			},
			{
				"type": "occ",
				"energy": -0.2226,
				"method": "rhf"
			},
			{
				"type": "occ",
				"energy": -0.21331,
				"method": "rhf"
			},
			{
				"type": "occ",
				"energy": -0.20349,
				"method": "rhf"
			},
			{
				"type": "unocc",
				"energy": -0.0231,
				"method": "rhf"
			},
			{
				"type": "unocc",
				"energy": -0.00121,
				"method": "rhf"
			},
			{
				"type": "unocc",
				"energy": 0.06196,
				"method": "rhf"
			},
			{
				"type": "unocc",
				"energy": 0.06563,
				"method": "rhf"
			},
			{
				"type": "unocc",
				"energy": 0.07761,
				"method": "rhf"
			}
		],
		"cosmo_sigma_profile": { 
			"-0.025": 0.0,
			"-0.024": 0.0,
			"-0.023": 0.0,
			"-0.022": 0.0,
			"-0.021": 0.0,
			"-0.02": 0.0,
			"-0.019": 0.0,
			"-0.018": 0.0,
			"-0.017": 0.0,
			"-0.016": 0.482525753489,
			"-0.015": 1.59121437327,
			"-0.014": 1.72900592368,
			"-0.013": 2.78544332674,
			"-0.012": 3.60369662866,
			"-0.011": 3.65750181347,
			"-0.01": 4.48473904501,
			"-0.009": 4.93622634244,
			"-0.008": 6.17601123186,
			"-0.007": 7.3646426716,
			"-0.006": 8.20490300335,
			"-0.005": 9.08601131766,
			"-0.004": 11.3879906137,
			"-0.003": 16.8079627886,
			"-0.002": 24.0928056564,
			"-0.001": 31.916207504,
			"0.0": 28.4378029832,
			"0.001": 17.3855901709,
			"0.002": 14.9380671124,
			"0.003": 12.760075543,
			"0.004": 17.2002655384,
			"0.005": 20.7130242126,
			"0.006": 7.88823679881,
			"0.007": 3.14589726276,
			"0.008": 3.22602110154,
			"0.009": 3.14846043918,
			"0.01": 2.62819632214,
			"0.011": 1.88712956894,
			"0.012": 2.11036685287,
			"0.013": 3.78396612302,
			"0.014": 5.82194391831,
			"0.015": 2.12240909567,
			"0.016": 0.580241183248,
			"0.017": 0.308210981833,
			"0.018": 0.241493581185,
			"0.019": 0.0,
			"0.02": 0.0,
			"0.021": 0.0,
			"0.022": 0.0,
			"0.023": 0.0,
			"0.024": 0.0,
			"0.025": 0.0
		}
	}
}
