{
	 "smiles": "COC1=CC=C(I)C=C1", 
	 "Tm": 324.65, 
	 "num_atms": 16, 
	 "gaussian": { 
		 "optdone": 1, 
		 "sigma_profile": "no", 
		 "theory": "DFT", 
		 "functional": "B3LYP", 
		 "basiset": "6-31G**", 
		 "properties": { 
			 "R2extent": 1874.4627, 
			 "electric_dipole_moment_norm": 2.90320378892, 
			 "electric_quadrupole_moment_norm": 10.7439654635, 
			 "total_energy": -357.559562402, 
			 "HOMO_LUMO_gap": 0.18545, 
			 "cosmo_polarized_energy": -101747.44, 
			 "cosmo_cavitation_energy": 22.95, 
			 "cosmo_dispersion_energy": -18.6, 
			 "cosmo_repulsion_energy": 1.48, 
			 "cosmo_total_nonelectrostatic_energy": 5.83, 
			 "SMD_solvation_energy": 3.87 
		},
		"coords": [
			{
				"x": 0.967839873,
				"y": -2.8146911572,
				"z": -1.8322086828,
				"element": "C" 
			},
			{
				"x": 0.2198663477,
				"y": -1.7084061353,
				"z": -1.3505086664,
				"element": "O" 
			},
			{
				"x": 0.5598735467,
				"y": -1.1739984723,
				"z": -0.1441849976,
				"element": "C" 
			},
			{
				"x": 1.6023693594,
				"y": -1.6362041265,
				"z": 0.6675835484,
				"element": "C" 
			},
			{
				"x": 1.8638266454,
				"y": -1.0103772911,
				"z": 1.8908369337,
				"element": "C" 
			},
			{
				"x": 1.0881818031,
				"y": 0.0707971774,
				"z": 2.3003201446,
				"element": "C" 
			},
			{
				"x": 1.4891606535,
				"y": 1.0159783355,
				"z": 4.1567904916,
				"element": "I" 
			},
			{
				"x": 0.0445670642,
				"y": 0.5380602402,
				"z": 1.4937680256,
				"element": "C" 
			},
			{
				"x": -0.2155314661,
				"y": -0.0834665609,
				"z": 0.2783310401,
				"element": "C" 
			},
			{
				"x": 2.0255218552,
				"y": -2.5575038106,
				"z": -1.9728504271,
				"element": "H" 
			},
			{
				"x": 0.5309242804,
				"y": -3.0758912204,
				"z": -2.7969800006,
				"element": "H" 
			},
			{
				"x": 0.8944867787,
				"y": -3.677227746,
				"z": -1.1574740387,
				"element": "H" 
			},
			{
				"x": 2.217338841,
				"y": -2.475955096,
				"z": 0.3668906245,
				"element": "H" 
			},
			{
				"x": 2.6735133931,
				"y": -1.3755857818,
				"z": 2.512833812,
				"element": "H" 
			},
			{
				"x": -0.5620303313,
				"y": 1.3797826575,
				"z": 1.8087143024,
				"element": "H" 
			},
			{
				"x": -1.019608644,
				"y": 0.2618889875,
				"z": -0.3631621097,
				"element": "H" 
			}
		],
		 "valence_orbital": [ 
			{
				"type": "occ",
				"energy": -0.33596,
				"method": "rhf"
			},
			{
				"type": "occ",
				"energy": -0.27403,
				"method": "rhf"
			},
			{
				"type": "occ",
				"energy": -0.26401,
				"method": "rhf"
			},
			{
				"type": "occ",
				"energy": -0.26282,
				"method": "rhf"
			},
			{
				"type": "occ",
				"energy": -0.21916,
				"method": "rhf"
			},
			{
				"type": "unocc",
				"energy": -0.03371,
				"method": "rhf"
			},
			{
				"type": "unocc",
				"energy": -0.01368,
				"method": "rhf"
			},
			{
				"type": "unocc",
				"energy": -0.00299,
				"method": "rhf"
			},
			{
				"type": "unocc",
				"energy": 0.04546,
				"method": "rhf"
			},
			{
				"type": "unocc",
				"energy": 0.05406,
				"method": "rhf"
			}
		],
		"cosmo_sigma_profile": { 
			"0.0": 0.0,
			"0.0": 0.0,
			"0.0": 0.0,
			"0.0": 0.0,
			"0.0": 0.0,
			"0.0": 0.0,
			"0.0": 0.0,
			"0.0": 0.0,
			"0.0": 0.0,
			"0.0": 0.0,
			"0.0": 0.0,
			"0.0": 0.0,
			"0.0": 0.0,
			"0.0": 0.0,
			"0.0": 0.0,
			"0.0": 0.0,
			"0.0": 0.0,
			"0.0": 0.0,
			"0.0": 0.0,
			"0.0": 0.0,
			"0.0": 0.0,
			"0.0": 0.0,
			"0.0": 0.0,
			"0.0": 0.0,
			"0.0": 0.0,
			"0.0": 0.0,
			"0.0": 0.0,
			"0.0": 0.0,
			"0.0": 0.0,
			"0.0": 0.0,
			"0.0": 0.0,
			"0.0": 0.0,
			"0.0": 0.0,
			"0.0": 0.0,
			"0.0": 0.0,
			"0.0": 0.0,
			"0.0": 0.0,
			"0.0": 0.0,
			"0.0": 0.0,
			"0.0": 0.0,
			"0.0": 0.0,
			"0.0": 0.0,
			"0.0": 0.0,
			"0.0": 0.0,
			"0.0": 0.0,
			"0.0": 0.0,
			"0.0": 0.0,
			"0.0": 0.0,
			"0.0": 0.0,
			"0.0": 0.0,
			"0.0": 0.0
		}
	}
}
