{
	 "smiles": "FC(F)(F)CN1C(S)=NN=C1N1CCOCC1", 
	 "Tm": 449.15, 
	 "num_atms": 28, 
	 "gaussian": { 
		 "optdone": 1, 
		 "sigma_profile": "yes", 
		 "theory": "DFT", 
		 "functional": "B3LYP", 
		 "basiset": "6-31G**", 
		 "properties": { 
			 "R2extent": 4916.3369, 
			 "electric_dipole_moment_norm": 3.39972858328, 
			 "electric_quadrupole_moment_norm": 6.97332471422, 
			 "total_energy": -1303.37274869, 
			 "HOMO_LUMO_gap": 0.21953, 
			 "cosmo_polarized_energy": -15.92, 
			 "cosmo_cavitation_energy": 32.79, 
			 "cosmo_dispersion_energy": -23.89, 
			 "cosmo_repulsion_energy": 1.75, 
			 "cosmo_total_nonelectrostatic_energy": 10.66, 
			 "SMD_solvation_energy": 3.46 
		},
		"coords": [
			{
				"x": 2.3481352186,
				"y": 0.7300590015,
				"z": 3.821423184,
				"element": "F" 
			},
			{
				"x": 1.6490357429,
				"y": -0.0098004551,
				"z": 2.9395266056,
				"element": "C" 
			},
			{
				"x": 1.9736465259,
				"y": -1.3035585369,
				"z": 3.1287540563,
				"element": "F" 
			},
			{
				"x": 0.3393086256,
				"y": 0.1227232949,
				"z": 3.2356477986,
				"element": "F" 
			},
			{
				"x": 1.9762691217,
				"y": 0.4564329058,
				"z": 1.5261242603,
				"element": "C" 
			},
			{
				"x": 1.2910398008,
				"y": -0.2742190703,
				"z": 0.4836847236,
				"element": "N" 
			},
			{
				"x": 1.661174362,
				"y": -1.4538270883,
				"z": -0.1303451736,
				"element": "C" 
			},
			{
				"x": 2.9428731903,
				"y": -2.5064785808,
				"z": 0.4854720351,
				"element": "S" 
			},
			{
				"x": 0.958832712,
				"y": -1.6603254986,
				"z": -1.2147755097,
				"element": "N" 
			},
			{
				"x": 0.0849661923,
				"y": -0.5925015057,
				"z": -1.3482609249,
				"element": "N" 
			},
			{
				"x": 0.2875341683,
				"y": 0.2263415707,
				"z": -0.3455001278,
				"element": "C" 
			},
			{
				"x": -0.2872810493,
				"y": 1.4750793612,
				"z": -0.1157120499,
				"element": "N" 
			},
			{
				"x": -1.4158058151,
				"y": 1.5135671708,
				"z": 0.8492440036,
				"element": "C" 
			},
			{
				"x": -2.739417239,
				"y": 1.145446179,
				"z": 0.1771618699,
				"element": "C" 
			},
			{
				"x": -2.9971056882,
				"y": 2.0001409801,
				"z": -0.9292686301,
				"element": "O" 
			},
			{
				"x": -1.9759671919,
				"y": 1.8802927502,
				"z": -1.9178021511,
				"element": "C" 
			},
			{
				"x": -0.6115223662,
				"y": 2.2526543368,
				"z": -1.3324438339,
				"element": "C" 
			},
			{
				"x": 3.0586582148,
				"y": 0.3658000176,
				"z": 1.3960563523,
				"element": "H" 
			},
			{
				"x": 1.6864921328,
				"y": 1.5061847069,
				"z": 1.4343797796,
				"element": "H" 
			},
			{
				"x": 3.141370708,
				"y": -3.0751758762,
				"z": -0.7186256573,
				"element": "H" 
			},
			{
				"x": -1.1984605414,
				"y": 0.8449806752,
				"z": 1.683454651,
				"element": "H" 
			},
			{
				"x": -1.4797463622,
				"y": 2.5369369725,
				"z": 1.237786735,
				"element": "H" 
			},
			{
				"x": -2.7159234664,
				"y": 0.092701544,
				"z": -0.1473598407,
				"element": "H" 
			},
			{
				"x": -3.5720975189,
				"y": 1.274925677,
				"z": 0.8759699072,
				"element": "H" 
			},
			{
				"x": -2.2446663576,
				"y": 2.5680515103,
				"z": -2.7257595388,
				"element": "H" 
			},
			{
				"x": -1.941102334,
				"y": 0.8565987589,
				"z": -2.3153666098,
				"element": "H" 
			},
			{
				"x": 0.180581359,
				"y": 2.1001506614,
				"z": -2.0695211805,
				"element": "H" 
			},
			{
				"x": -0.6202221448,
				"y": 3.3105185375,
				"z": -1.041444734,
				"element": "H" 
			}
		],
		 "valence_orbital": [ 
			{
				"type": "occ",
				"energy": -0.30223,
				"method": "rhf"
			},
			{
				"type": "occ",
				"energy": -0.28688,
				"method": "rhf"
			},
			{
				"type": "occ",
				"energy": -0.26167,
				"method": "rhf"
			},
			{
				"type": "occ",
				"energy": -0.24811,
				"method": "rhf"
			},
			{
				"type": "occ",
				"energy": -0.21975,
				"method": "rhf"
			},
			{
				"type": "unocc",
				"energy": -0.00022,
				"method": "rhf"
			},
			{
				"type": "unocc",
				"energy": 0.00662,
				"method": "rhf"
			},
			{
				"type": "unocc",
				"energy": 0.03497,
				"method": "rhf"
			},
			{
				"type": "unocc",
				"energy": 0.05882,
				"method": "rhf"
			},
			{
				"type": "unocc",
				"energy": 0.08311,
				"method": "rhf"
			}
		],
		"cosmo_sigma_profile": { 
			"-0.025": 0.0,
			"-0.024": 0.0,
			"-0.023": 0.0,
			"-0.022": 0.0,
			"-0.021": 0.0,
			"-0.02": 0.0,
			"-0.019": 0.0,
			"-0.018": 0.0,
			"-0.017": 0.0,
			"-0.016": 0.0,
			"-0.015": 0.0,
			"-0.014": 0.0,
			"-0.013": 0.0713055240412,
			"-0.012": 1.32511375407,
			"-0.011": 1.54579887711,
			"-0.01": 2.72371193185,
			"-0.009": 4.41257373074,
			"-0.008": 4.3980383567,
			"-0.007": 5.41303349916,
			"-0.006": 9.11320202323,
			"-0.005": 20.8571601742,
			"-0.004": 25.7849065659,
			"-0.003": 21.2127855326,
			"-0.002": 20.2692825749,
			"-0.001": 16.1940116663,
			"0.0": 15.2407560958,
			"0.001": 16.7961533985,
			"0.002": 33.1787164225,
			"0.003": 14.407338503,
			"0.004": 7.2086736564,
			"0.005": 6.67978417551,
			"0.006": 3.99810347942,
			"0.007": 3.71015782954,
			"0.008": 2.84521986097,
			"0.009": 3.49636919911,
			"0.01": 2.74317985322,
			"0.011": 2.90508200385,
			"0.012": 4.77896574143,
			"0.013": 5.19413306483,
			"0.014": 3.27086094194,
			"0.015": 1.1778401093,
			"0.016": 0.874127924715,
			"0.017": 0.0769942570341,
			"0.018": 0.0,
			"0.019": 0.0,
			"0.02": 0.0,
			"0.021": 0.0,
			"0.022": 0.0,
			"0.023": 0.0,
			"0.024": 0.0,
			"0.025": 0.0
		}
	}
}
