{
	 "smiles": "NC1=CC2=C(NC(=O)CO2)C=C1", 
	 "Tm": 491.15, 
	 "num_atms": 20, 
	 "gaussian": { 
		 "optdone": 1, 
		 "sigma_profile": "yes", 
		 "theory": "DFT", 
		 "functional": "B3LYP", 
		 "basiset": "6-31G**", 
		 "properties": { 
			 "R2extent": 2654.2149, 
			 "electric_dipole_moment_norm": 4.38369320551, 
			 "electric_quadrupole_moment_norm": 9.80422355416, 
			 "total_energy": -569.629188886, 
			 "HOMO_LUMO_gap": 0.18713, 
			 "cosmo_polarized_energy": -15.9, 
			 "cosmo_cavitation_energy": 23.97, 
			 "cosmo_dispersion_energy": -18.33, 
			 "cosmo_repulsion_energy": 1.46, 
			 "cosmo_total_nonelectrostatic_energy": 7.09, 
			 "SMD_solvation_energy": 4.86 
		},
		"coords": [
			{
				"x": -0.5399792213,
				"y": 3.5621377598,
				"z": 0.8216931573,
				"element": "N" 
			},
			{
				"x": -0.5235915316,
				"y": 2.4605711167,
				"z": -0.0392130253,
				"element": "C" 
			},
			{
				"x": 0.4211352153,
				"y": 1.4353715978,
				"z": 0.1352647682,
				"element": "C" 
			},
			{
				"x": 0.4795832919,
				"y": 0.3754073117,
				"z": -0.7615837381,
				"element": "C" 
			},
			{
				"x": -0.4052887175,
				"y": 0.3015306973,
				"z": -1.8482666644,
				"element": "C" 
			},
			{
				"x": -0.2634662133,
				"y": -0.7759361522,
				"z": -2.747705531,
				"element": "N" 
			},
			{
				"x": 0.4793523405,
				"y": -1.890973433,
				"z": -2.4755756922,
				"element": "C" 
			},
			{
				"x": 0.5988627384,
				"y": -2.8337775181,
				"z": -3.2425837925,
				"element": "O" 
			},
			{
				"x": 1.1088003311,
				"y": -1.8816378383,
				"z": -1.0832548113,
				"element": "C" 
			},
			{
				"x": 1.4490795007,
				"y": -0.5803095343,
				"z": -0.598284762,
				"element": "O" 
			},
			{
				"x": -1.3551827841,
				"y": 1.308683877,
				"z": -2.0110605159,
				"element": "C" 
			},
			{
				"x": -1.4153178788,
				"y": 2.3801693553,
				"z": -1.1221696647,
				"element": "C" 
			},
			{
				"x": -1.4282624272,
				"y": 4.0409733709,
				"z": 0.8814088427,
				"element": "H" 
			},
			{
				"x": -0.1470129895,
				"y": 3.3934447915,
				"z": 1.7376042449,
				"element": "H" 
			},
			{
				"x": 1.1283751823,
				"y": 1.4565037859,
				"z": 0.9586750763,
				"element": "H" 
			},
			{
				"x": -0.7347360176,
				"y": -0.7549662826,
				"z": -3.6426625085,
				"element": "H" 
			},
			{
				"x": 2.0333434302,
				"y": -2.4574381942,
				"z": -1.1219200748,
				"element": "H" 
			},
			{
				"x": 0.4148005356,
				"y": -2.3776050885,
				"z": -0.3865140942,
				"element": "H" 
			},
			{
				"x": -2.0494671453,
				"y": 1.2593704777,
				"z": -2.8459681409,
				"element": "H" 
			},
			{
				"x": -2.1535276395,
				"y": 3.1626798996,
				"z": -1.2722830735,
				"element": "H" 
			}
		],
		 "valence_orbital": [ 
			{
				"type": "occ",
				"energy": -0.31797,
				"method": "rhf"
			},
			{
				"type": "occ",
				"energy": -0.27309,
				"method": "rhf"
			},
			{
				"type": "occ",
				"energy": -0.25581,
				"method": "rhf"
			},
			{
				"type": "occ",
				"energy": -0.2331,
				"method": "rhf"
			},
			{
				"type": "occ",
				"energy": -0.19138,
				"method": "rhf"
			},
			{
				"type": "unocc",
				"energy": -0.00425,
				"method": "rhf"
			},
			{
				"type": "unocc",
				"energy": -0.00066,
				"method": "rhf"
			},
			{
				"type": "unocc",
				"energy": 0.04136,
				"method": "rhf"
			},
			{
				"type": "unocc",
				"energy": 0.07725,
				"method": "rhf"
			},
			{
				"type": "unocc",
				"energy": 0.0839,
				"method": "rhf"
			}
		],
		"cosmo_sigma_profile": { 
			"-0.025": 0.0,
			"-0.024": 0.0,
			"-0.023": 0.0,
			"-0.022": 0.0,
			"-0.021": 0.0,
			"-0.02": 0.0,
			"-0.019": 0.0,
			"-0.018": 0.0,
			"-0.017": 0.0,
			"-0.016": 0.0731238716619,
			"-0.015": 0.86015218125,
			"-0.014": 1.33396474594,
			"-0.013": 1.18942030308,
			"-0.012": 3.24755342541,
			"-0.011": 4.67379489439,
			"-0.01": 4.03408301267,
			"-0.009": 4.23649221491,
			"-0.008": 5.28470907779,
			"-0.007": 10.6220099676,
			"-0.006": 10.9819833698,
			"-0.005": 10.5625004835,
			"-0.004": 10.6348241246,
			"-0.003": 8.11463807484,
			"-0.002": 7.5782561805,
			"-0.001": 8.74046204284,
			"0.0": 7.77649850247,
			"0.001": 8.76331885557,
			"0.002": 9.66865206031,
			"0.003": 10.2189414046,
			"0.004": 10.4011587012,
			"0.005": 12.6865546129,
			"0.006": 8.28444186402,
			"0.007": 4.25299776611,
			"0.008": 2.65338353778,
			"0.009": 3.67146204512,
			"0.01": 3.86325476094,
			"0.011": 2.75071716348,
			"0.012": 3.40948687933,
			"0.013": 6.29796290756,
			"0.014": 3.21918185723,
			"0.015": 0.293430957738,
			"0.016": 0.0,
			"0.017": 0.0,
			"0.018": 0.0,
			"0.019": 0.0,
			"0.02": 0.0,
			"0.021": 0.0,
			"0.022": 0.0,
			"0.023": 0.0,
			"0.024": 0.0,
			"0.025": 0.0
		}
	}
}
