{
	 "smiles": "CC1=C2NC(=CC2=CC=C1)C(O)=O", 
	 "Tm": 445.15, 
	 "num_atms": 22, 
	 "gaussian": { 
		 "optdone": 1, 
		 "sigma_profile": "yes", 
		 "theory": "DFT", 
		 "functional": "B3LYP", 
		 "basiset": "6-31G**", 
		 "properties": { 
			 "R2extent": 3148.8695, 
			 "electric_dipole_moment_norm": 4.99706608521, 
			 "electric_quadrupole_moment_norm": 25.3134983163, 
			 "total_energy": -591.705638366, 
			 "HOMO_LUMO_gap": 0.17063, 
			 "cosmo_polarized_energy": -17.63, 
			 "cosmo_cavitation_energy": 26.44, 
			 "cosmo_dispersion_energy": -19.35, 
			 "cosmo_repulsion_energy": 1.52, 
			 "cosmo_total_nonelectrostatic_energy": 8.6, 
			 "SMD_solvation_energy": 5.4 
		},
		"coords": [
			{
				"x": -1.034586872,
				"y": 1.8001007574,
				"z": 0.7633208763,
				"element": "C" 
			},
			{
				"x": 0.2492394242,
				"y": 1.0581913822,
				"z": 0.4931129843,
				"element": "C" 
			},
			{
				"x": 0.2989463943,
				"y": -0.3462942092,
				"z": 0.5005263484,
				"element": "C" 
			},
			{
				"x": -0.7291627837,
				"y": -1.2538185195,
				"z": 0.7089711292,
				"element": "N" 
			},
			{
				"x": -0.1852556811,
				"y": -2.5449151023,
				"z": 0.6900579612,
				"element": "C" 
			},
			{
				"x": 1.1547417431,
				"y": -2.4705020969,
				"z": 0.4005481725,
				"element": "C" 
			},
			{
				"x": 1.4898228338,
				"y": -1.0844348341,
				"z": 0.2653896913,
				"element": "C" 
			},
			{
				"x": 2.6805934376,
				"y": -0.3901611053,
				"z": -0.0227452825,
				"element": "C" 
			},
			{
				"x": 2.6469003359,
				"y": 0.9947866378,
				"z": -0.0414291922,
				"element": "C" 
			},
			{
				"x": 1.4521330888,
				"y": 1.7022333513,
				"z": 0.2166382752,
				"element": "C" 
			},
			{
				"x": -1.0066994576,
				"y": -3.7546042435,
				"z": 0.8741961592,
				"element": "C" 
			},
			{
				"x": -2.351638402,
				"y": -3.5813251205,
				"z": 0.6810740868,
				"element": "O" 
			},
			{
				"x": -0.5633913863,
				"y": -4.8345399423,
				"z": 1.1830145901,
				"element": "O" 
			},
			{
				"x": -1.4106582869,
				"y": 1.6077644219,
				"z": 1.7770668088,
				"element": "H" 
			},
			{
				"x": -0.8926242564,
				"y": 2.8792719073,
				"z": 0.6676427306,
				"element": "H" 
			},
			{
				"x": -1.8254687573,
				"y": 1.5041065652,
				"z": 0.0626800603,
				"element": "H" 
			},
			{
				"x": -1.5566049909,
				"y": -1.0213958662,
				"z": 1.2402065005,
				"element": "H" 
			},
			{
				"x": 1.8034000908,
				"y": -3.3242263169,
				"z": 0.2675095524,
				"element": "H" 
			},
			{
				"x": 3.6020951801,
				"y": -0.9302622712,
				"z": -0.2178682651,
				"element": "H" 
			},
			{
				"x": 3.5524111194,
				"y": 1.5540383519,
				"z": -0.2568343039,
				"element": "H" 
			},
			{
				"x": 1.4681006329,
				"y": 2.7888810622,
				"z": 0.1938851833,
				"element": "H" 
			},
			{
				"x": -2.5035934066,
				"y": -2.7672948092,
				"z": 0.1783359334,
				"element": "H" 
			}
		],
		 "valence_orbital": [ 
			{
				"type": "occ",
				"energy": -0.31814,
				"method": "rhf"
			},
			{
				"type": "occ",
				"energy": -0.2876,
				"method": "rhf"
			},
			{
				"type": "occ",
				"energy": -0.27564,
				"method": "rhf"
			},
			{
				"type": "occ",
				"energy": -0.23667,
				"method": "rhf"
			},
			{
				"type": "occ",
				"energy": -0.22218,
				"method": "rhf"
			},
			{
				"type": "unocc",
				"energy": -0.05155,
				"method": "rhf"
			},
			{
				"type": "unocc",
				"energy": 0.00357,
				"method": "rhf"
			},
			{
				"type": "unocc",
				"energy": 0.02208,
				"method": "rhf"
			},
			{
				"type": "unocc",
				"energy": 0.0417,
				"method": "rhf"
			},
			{
				"type": "unocc",
				"energy": 0.08542,
				"method": "rhf"
			}
		],
		"cosmo_sigma_profile": { 
			"-0.025": 0.0,
			"-0.024": 0.0,
			"-0.023": 0.0,
			"-0.022": 0.0,
			"-0.021": 0.0,
			"-0.02": 0.0,
			"-0.019": 0.0235577647392,
			"-0.018": 1.20085859735,
			"-0.017": 1.50823000515,
			"-0.016": 2.15583851396,
			"-0.015": 1.69239975619,
			"-0.014": 1.51331709647,
			"-0.013": 1.86570426639,
			"-0.012": 1.90618074557,
			"-0.011": 1.72377792242,
			"-0.01": 2.24191182941,
			"-0.009": 1.23594641773,
			"-0.008": 1.95031643636,
			"-0.007": 3.68207760664,
			"-0.006": 6.06207700362,
			"-0.005": 12.3774517701,
			"-0.004": 16.3145510125,
			"-0.003": 14.9370547701,
			"-0.002": 12.7487513673,
			"-0.001": 14.5147131259,
			"0.0": 14.2409045527,
			"0.001": 11.0065388023,
			"0.002": 10.8823269763,
			"0.003": 13.2559019025,
			"0.004": 14.9239346202,
			"0.005": 11.3523944655,
			"0.006": 8.89004027438,
			"0.007": 3.06874495685,
			"0.008": 2.74228332687,
			"0.009": 2.48462009631,
			"0.01": 5.06745461531,
			"0.011": 5.81256179678,
			"0.012": 5.58095676703,
			"0.013": 1.88079609239,
			"0.014": 0.0682828206116,
			"0.015": 0.0,
			"0.016": 0.0,
			"0.017": 0.0,
			"0.018": 0.0,
			"0.019": 0.0,
			"0.02": 0.0,
			"0.021": 0.0,
			"0.022": 0.0,
			"0.023": 0.0,
			"0.024": 0.0,
			"0.025": 0.0
		}
	}
}
