{
	 "smiles": "OC(=O)C1=C2C=C(Cl)C=CC2=NC(=C1)C1CC1", 
	 "Tm": 485.15, 
	 "num_atms": 27, 
	 "gaussian": { 
		 "optdone": 1, 
		 "sigma_profile": "yes", 
		 "theory": "DFT", 
		 "functional": "B3LYP", 
		 "basiset": "6-31G**", 
		 "properties": { 
			 "R2extent": 5523.8335, 
			 "electric_dipole_moment_norm": 3.66736039816, 
			 "electric_quadrupole_moment_norm": 10.611925094, 
			 "total_energy": -1166.79978663, 
			 "HOMO_LUMO_gap": 0.14869, 
			 "cosmo_polarized_energy": -11.08, 
			 "cosmo_cavitation_energy": 33.06, 
			 "cosmo_dispersion_energy": -24.35, 
			 "cosmo_repulsion_energy": 1.87, 
			 "cosmo_total_nonelectrostatic_energy": 10.58, 
			 "SMD_solvation_energy": 4.42 
		},
		"coords": [
			{
				"x": -2.3175553664,
				"y": -0.5457191603,
				"z": 2.8165230453,
				"element": "O" 
			},
			{
				"x": -1.1467810467,
				"y": -1.0709766117,
				"z": 2.3750016536,
				"element": "C" 
			},
			{
				"x": -0.752696967,
				"y": -2.1484733644,
				"z": 2.7766466016,
				"element": "O" 
			},
			{
				"x": -0.4578471273,
				"y": -0.1863201114,
				"z": 1.3860084192,
				"element": "C" 
			},
			{
				"x": 0.7969029251,
				"y": -0.5418333299,
				"z": 0.7841802954,
				"element": "C" 
			},
			{
				"x": 1.5180844604,
				"y": -1.7377279115,
				"z": 1.0426744531,
				"element": "C" 
			},
			{
				"x": 2.7141368028,
				"y": -1.9611023889,
				"z": 0.3983461167,
				"element": "C" 
			},
			{
				"x": 3.6041672556,
				"y": -3.4418656535,
				"z": 0.7204001808,
				"element": "Cl" 
			},
			{
				"x": 3.2612094248,
				"y": -1.0377972199,
				"z": -0.5216037828,
				"element": "C" 
			},
			{
				"x": 2.5771237521,
				"y": 0.1244081616,
				"z": -0.7837336851,
				"element": "C" 
			},
			{
				"x": 1.3388329891,
				"y": 0.4056699126,
				"z": -0.1471103831,
				"element": "C" 
			},
			{
				"x": 0.7317012015,
				"y": 1.5817845767,
				"z": -0.4679168111,
				"element": "N" 
			},
			{
				"x": -0.4230686754,
				"y": 1.8835399687,
				"z": 0.1014463477,
				"element": "C" 
			},
			{
				"x": -1.0457394838,
				"y": 1.0126585058,
				"z": 1.0384639229,
				"element": "C" 
			},
			{
				"x": -1.0337086543,
				"y": 3.1814039819,
				"z": -0.291204204,
				"element": "C" 
			},
			{
				"x": -1.8105779884,
				"y": 4.030702369,
				"z": 0.7014475889,
				"element": "C" 
			},
			{
				"x": -2.5390999958,
				"y": 3.3497033474,
				"z": -0.4165342746,
				"element": "C" 
			},
			{
				"x": -2.6730189072,
				"y": -1.19538248,
				"z": 3.4450107546,
				"element": "H" 
			},
			{
				"x": 1.1226344741,
				"y": -2.4604067401,
				"z": 1.7413992718,
				"element": "H" 
			},
			{
				"x": 4.2066225412,
				"y": -1.2559318575,
				"z": -1.0056149235,
				"element": "H" 
			},
			{
				"x": 2.9578495785,
				"y": 0.8620117354,
				"z": -1.4818912459,
				"element": "H" 
			},
			{
				"x": -1.9915392458,
				"y": 1.2862882854,
				"z": 1.4885159703,
				"element": "H" 
			},
			{
				"x": -0.4224795639,
				"y": 3.7127339102,
				"z": -1.0132096008,
				"element": "H" 
			},
			{
				"x": -1.6665660071,
				"y": 5.1055812133,
				"z": 0.6532360485,
				"element": "H" 
			},
			{
				"x": -1.9323860599,
				"y": 3.6444092848,
				"z": 1.709289829,
				"element": "H" 
			},
			{
				"x": -3.1640016227,
				"y": 2.493135265,
				"z": -0.1807436536,
				"element": "H" 
			},
			{
				"x": -2.9033986935,
				"y": 3.9494063112,
				"z": -1.2448279351,
				"element": "H" 
			}
		],
		 "valence_orbital": [ 
			{
				"type": "occ",
				"energy": -0.29436,
				"method": "rhf"
			},
			{
				"type": "occ",
				"energy": -0.29325,
				"method": "rhf"
			},
			{
				"type": "occ",
				"energy": -0.26213,
				"method": "rhf"
			},
			{
				"type": "occ",
				"energy": -0.25395,
				"method": "rhf"
			},
			{
				"type": "occ",
				"energy": -0.23267,
				"method": "rhf"
			},
			{
				"type": "unocc",
				"energy": -0.08398,
				"method": "rhf"
			},
			{
				"type": "unocc",
				"energy": -0.02849,
				"method": "rhf"
			},
			{
				"type": "unocc",
				"energy": -0.01318,
				"method": "rhf"
			},
			{
				"type": "unocc",
				"energy": 0.03207,
				"method": "rhf"
			},
			{
				"type": "unocc",
				"energy": 0.04135,
				"method": "rhf"
			}
		],
		"cosmo_sigma_profile": { 
			"-0.025": 0.0,
			"-0.024": 0.0,
			"-0.023": 0.0,
			"-0.022": 0.0,
			"-0.021": 0.0,
			"-0.02": 0.0,
			"-0.019": 0.168851950956,
			"-0.018": 0.957479669599,
			"-0.017": 0.932288346046,
			"-0.016": 0.695885836715,
			"-0.015": 0.876440435995,
			"-0.014": 0.914481150558,
			"-0.013": 0.330098080212,
			"-0.012": 0.83346400897,
			"-0.011": 0.892440031908,
			"-0.01": 0.603734205059,
			"-0.009": 0.458118571832,
			"-0.008": 2.03447512817,
			"-0.007": 6.40004461409,
			"-0.006": 8.71509243871,
			"-0.005": 13.2179062432,
			"-0.004": 15.9668143696,
			"-0.003": 17.5332514635,
			"-0.002": 17.6507950745,
			"-0.001": 23.9188543762,
			"0.0": 27.347316152,
			"0.001": 29.2538198468,
			"0.002": 28.4896733393,
			"0.003": 19.7197155486,
			"0.004": 17.4812248147,
			"0.005": 9.66327995007,
			"0.006": 4.37709706474,
			"0.007": 4.10067776005,
			"0.008": 2.43352191512,
			"0.009": 2.47878636175,
			"0.01": 3.73977155938,
			"0.011": 3.19014074985,
			"0.012": 0.659063608823,
			"0.013": 0.985244663633,
			"0.014": 0.448659519532,
			"0.015": 0.0,
			"0.016": 0.0,
			"0.017": 0.0,
			"0.018": 0.0,
			"0.019": 0.0,
			"0.02": 0.0,
			"0.021": 0.0,
			"0.022": 0.0,
			"0.023": 0.0,
			"0.024": 0.0,
			"0.025": 0.0
		}
	}
}
