{
	 "smiles": "CC1=C(C)C=C(C=C1)C1=CSC(NC(=O)CCl)=N1", 
	 "Tm": 453.15, 
	 "num_atms": 31, 
	 "gaussian": { 
		 "optdone": 1, 
		 "sigma_profile": "yes", 
		 "theory": "DFT", 
		 "functional": "B3LYP", 
		 "basiset": "6-31G**", 
		 "properties": { 
			 "R2extent": 9568.3676, 
			 "electric_dipole_moment_norm": 0.786038892168, 
			 "electric_quadrupole_moment_norm": 12.985712883, 
			 "total_energy": -1546.35839798, 
			 "HOMO_LUMO_gap": 0.16658, 
			 "cosmo_polarized_energy": -12.75, 
			 "cosmo_cavitation_energy": 38.39, 
			 "cosmo_dispersion_energy": -28.75, 
			 "cosmo_repulsion_energy": 2.18, 
			 "cosmo_total_nonelectrostatic_energy": 11.81, 
			 "SMD_solvation_energy": 5.49 
		},
		"coords": [
			{
				"x": 3.5389118778,
				"y": -0.8020234135,
				"z": 3.7858518732,
				"element": "C" 
			},
			{
				"x": 2.4775402854,
				"y": -0.4045830749,
				"z": 2.7890819852,
				"element": "C" 
			},
			{
				"x": 2.3410412114,
				"y": 0.9371254363,
				"z": 2.3669604569,
				"element": "C" 
			},
			{
				"x": 3.2564973539,
				"y": 2.0119970143,
				"z": 2.9041561828,
				"element": "C" 
			},
			{
				"x": 1.3469129111,
				"y": 1.2633509974,
				"z": 1.4440073063,
				"element": "C" 
			},
			{
				"x": 0.4710590179,
				"y": 0.3011053137,
				"z": 0.915294418,
				"element": "C" 
			},
			{
				"x": 0.6154561094,
				"y": -1.0256507056,
				"z": 1.3410494163,
				"element": "C" 
			},
			{
				"x": 1.6047202566,
				"y": -1.3616828337,
				"z": 2.2621051861,
				"element": "C" 
			},
			{
				"x": -0.5769385585,
				"y": 0.6565139007,
				"z": -0.0605545151,
				"element": "C" 
			},
			{
				"x": -0.8386363309,
				"y": 1.8999306451,
				"z": -0.5777368254,
				"element": "C" 
			},
			{
				"x": -2.1676693414,
				"y": 1.856457597,
				"z": -1.6977022515,
				"element": "S" 
			},
			{
				"x": -2.2762179573,
				"y": 0.1356118957,
				"z": -1.3826505477,
				"element": "C" 
			},
			{
				"x": -3.2149683461,
				"y": -0.6967997146,
				"z": -1.9835586691,
				"element": "N" 
			},
			{
				"x": -4.159709382,
				"y": -0.2957957385,
				"z": -2.8802529218,
				"element": "C" 
			},
			{
				"x": -4.2890957609,
				"y": 0.8587748098,
				"z": -3.2629696468,
				"element": "O" 
			},
			{
				"x": -5.1112782346,
				"y": -1.3521423739,
				"z": -3.438255107,
				"element": "C" 
			},
			{
				"x": -4.8802260702,
				"y": -3.0458287924,
				"z": -2.8413403128,
				"element": "Cl" 
			},
			{
				"x": -1.4140623501,
				"y": -0.3417775355,
				"z": -0.5364367138,
				"element": "N" 
			},
			{
				"x": 3.4218918627,
				"y": -0.2702085283,
				"z": 4.7382822715,
				"element": "H" 
			},
			{
				"x": 3.4991541829,
				"y": -1.8739877113,
				"z": 3.996440132,
				"element": "H" 
			},
			{
				"x": 4.5471435809,
				"y": -0.5708933019,
				"z": 3.4202170544,
				"element": "H" 
			},
			{
				"x": 4.3083099934,
				"y": 1.7994528799,
				"z": 2.6768819846,
				"element": "H" 
			},
			{
				"x": 3.1826872798,
				"y": 2.0993065262,
				"z": 3.9950577372,
				"element": "H" 
			},
			{
				"x": 3.0145455162,
				"y": 2.9881489018,
				"z": 2.4755038481,
				"element": "H" 
			},
			{
				"x": 1.2575004267,
				"y": 2.3006811043,
				"z": 1.1324637923,
				"element": "H" 
			},
			{
				"x": -0.0512505457,
				"y": -1.78268167,
				"z": 0.9445703885,
				"element": "H" 
			},
			{
				"x": 1.7025301645,
				"y": -2.3965612655,
				"z": 2.5814778133,
				"element": "H" 
			},
			{
				"x": -0.3386467781,
				"y": 2.8353027116,
				"z": -0.3750046972,
				"element": "H" 
			},
			{
				"x": -3.1621802145,
				"y": -1.6707892467,
				"z": -1.7082102281,
				"element": "H" 
			},
			{
				"x": -6.1314185459,
				"y": -1.0549999816,
				"z": -3.1927833817,
				"element": "H" 
			},
			{
				"x": -5.0020036145,
				"y": -1.3697538461,
				"z": -4.5231460286,
				"element": "H" 
			}
		],
		 "valence_orbital": [ 
			{
				"type": "occ",
				"energy": -0.28512,
				"method": "rhf"
			},
			{
				"type": "occ",
				"energy": -0.28,
				"method": "rhf"
			},
			{
				"type": "occ",
				"energy": -0.25326,
				"method": "rhf"
			},
			{
				"type": "occ",
				"energy": -0.23749,
				"method": "rhf"
			},
			{
				"type": "occ",
				"energy": -0.20626,
				"method": "rhf"
			},
			{
				"type": "unocc",
				"energy": -0.03968,
				"method": "rhf"
			},
			{
				"type": "unocc",
				"energy": -0.01897,
				"method": "rhf"
			},
			{
				"type": "unocc",
				"energy": 0.00056,
				"method": "rhf"
			},
			{
				"type": "unocc",
				"energy": 0.00761,
				"method": "rhf"
			},
			{
				"type": "unocc",
				"energy": 0.02787,
				"method": "rhf"
			}
		],
		"cosmo_sigma_profile": { 
			"-0.025": 0.0,
			"-0.024": 0.0,
			"-0.023": 0.0,
			"-0.022": 0.0,
			"-0.021": 0.0,
			"-0.02": 0.0,
			"-0.019": 0.0,
			"-0.018": 0.0,
			"-0.017": 0.0,
			"-0.016": 0.0,
			"-0.015": 0.0,
			"-0.014": 0.0,
			"-0.013": 0.0,
			"-0.012": 0.439448274158,
			"-0.011": 1.16288621577,
			"-0.01": 3.65462410753,
			"-0.009": 6.83465325626,
			"-0.008": 7.85002883009,
			"-0.007": 8.22535205461,
			"-0.006": 9.1706789558,
			"-0.005": 11.3721139496,
			"-0.004": 20.8992847799,
			"-0.003": 24.2810049377,
			"-0.002": 22.1081685851,
			"-0.001": 24.9919951289,
			"0.0": 29.7704238771,
			"0.001": 22.3949761097,
			"0.002": 20.8390660717,
			"0.003": 23.7920169778,
			"0.004": 22.4738295897,
			"0.005": 19.3059840303,
			"0.006": 11.2032117664,
			"0.007": 3.92325830156,
			"0.008": 3.56285074333,
			"0.009": 3.79075893609,
			"0.01": 2.72735423879,
			"0.011": 3.24017855778,
			"0.012": 2.12952495336,
			"0.013": 0.128368160098,
			"0.014": 0.0,
			"0.015": 0.0,
			"0.016": 0.0,
			"0.017": 0.0,
			"0.018": 0.0,
			"0.019": 0.0,
			"0.02": 0.0,
			"0.021": 0.0,
			"0.022": 0.0,
			"0.023": 0.0,
			"0.024": 0.0,
			"0.025": 0.0
		}
	}
}
