{
	 "smiles": "CSC(N)=C(C#N)C(SC)=NC1=CC=CC=C1", 
	 "Tm": 450.15, 
	 "num_atms": 30, 
	 "gaussian": { 
		 "optdone": 1, 
		 "sigma_profile": "yes", 
		 "theory": "DFT", 
		 "functional": "B3LYP", 
		 "basiset": "6-31G**", 
		 "properties": { 
			 "R2extent": 6553.637, 
			 "electric_dipole_moment_norm": 6.79445229434, 
			 "electric_quadrupole_moment_norm": 39.8025858247, 
			 "total_energy": -1425.70811107, 
			 "HOMO_LUMO_gap": 0.1572, 
			 "cosmo_polarized_energy": -20.7, 
			 "cosmo_cavitation_energy": 37.24, 
			 "cosmo_dispersion_energy": -26.65, 
			 "cosmo_repulsion_energy": 2.0, 
			 "cosmo_total_nonelectrostatic_energy": 12.6, 
			 "SMD_solvation_energy": 6.98 
		},
		"coords": [
			{
				"x": 4.519989267,
				"y": 3.0930238768,
				"z": -0.3817639444,
				"element": "C" 
			},
			{
				"x": 3.2062167533,
				"y": 3.3917171572,
				"z": 0.848970184,
				"element": "S" 
			},
			{
				"x": 1.981102124,
				"y": 2.1892669672,
				"z": 0.3979170097,
				"element": "C" 
			},
			{
				"x": 2.141620193,
				"y": 1.4385023035,
				"z": -0.6980228412,
				"element": "N" 
			},
			{
				"x": 0.8613672796,
				"y": 2.0423491089,
				"z": 1.2370695907,
				"element": "C" 
			},
			{
				"x": 0.8371498299,
				"y": 2.8202639757,
				"z": 2.4299320709,
				"element": "C" 
			},
			{
				"x": 0.8692921992,
				"y": 3.4907051321,
				"z": 3.3840942965,
				"element": "N" 
			},
			{
				"x": -0.2598827315,
				"y": 1.1663530458,
				"z": 0.9045035452,
				"element": "C" 
			},
			{
				"x": -1.6442074776,
				"y": 1.3321439663,
				"z": 2.0602036058,
				"element": "S" 
			},
			{
				"x": -2.3783959778,
				"y": -0.3436449112,
				"z": 2.1114630763,
				"element": "C" 
			},
			{
				"x": -0.1960307018,
				"y": 0.38200783,
				"z": -0.1267105558,
				"element": "N" 
			},
			{
				"x": -1.2564510831,
				"y": -0.2856718623,
				"z": -0.7604998927,
				"element": "C" 
			},
			{
				"x": -2.4301289657,
				"y": 0.3794295899,
				"z": -1.1598229159,
				"element": "C" 
			},
			{
				"x": -3.412163008,
				"y": -0.3014278447,
				"z": -1.8787869475,
				"element": "C" 
			},
			{
				"x": -3.2448617084,
				"y": -1.6471704092,
				"z": -2.2143954877,
				"element": "C" 
			},
			{
				"x": -2.0737891248,
				"y": -2.307051441,
				"z": -1.8332878686,
				"element": "C" 
			},
			{
				"x": -1.0826207221,
				"y": -1.6321212496,
				"z": -1.1238537019,
				"element": "C" 
			},
			{
				"x": 5.3406421238,
				"y": 3.7471988148,
				"z": -0.0807158847,
				"element": "H" 
			},
			{
				"x": 4.2144516463,
				"y": 3.3756912221,
				"z": -1.3930237727,
				"element": "H" 
			},
			{
				"x": 4.87058076,
				"y": 2.0587369689,
				"z": -0.3533603597,
				"element": "H" 
			},
			{
				"x": 1.3594669836,
				"y": 0.7832668057,
				"z": -0.8720021737,
				"element": "H" 
			},
			{
				"x": 2.8472331659,
				"y": 1.6428923547,
				"z": -1.3851105588,
				"element": "H" 
			},
			{
				"x": -3.0722737965,
				"y": -0.5190877202,
				"z": 1.2902250806,
				"element": "H" 
			},
			{
				"x": -1.5951129527,
				"y": -1.1022815095,
				"z": 2.1090985672,
				"element": "H" 
			},
			{
				"x": -2.9097068355,
				"y": -0.3853772183,
				"z": 3.0649342445,
				"element": "H" 
			},
			{
				"x": -2.5593206367,
				"y": 1.4270815869,
				"z": -0.9084378684,
				"element": "H" 
			},
			{
				"x": -4.3120754249,
				"y": 0.226647357,
				"z": -2.1821869442,
				"element": "H" 
			},
			{
				"x": -4.0134872393,
				"y": -2.1723178053,
				"z": -2.773304584,
				"element": "H" 
			},
			{
				"x": -1.9278454746,
				"y": -3.3515065531,
				"z": -2.0947145685,
				"element": "H" 
			},
			{
				"x": -0.1660584649,
				"y": -2.1365195392,
				"z": -0.8323104008,
				"element": "H" 
			}
		],
		 "valence_orbital": [ 
			{
				"type": "occ",
				"energy": -0.27126,
				"method": "rhf"
			},
			{
				"type": "occ",
				"energy": -0.25347,
				"method": "rhf"
			},
			{
				"type": "occ",
				"energy": -0.23925,
				"method": "rhf"
			},
			{
				"type": "occ",
				"energy": -0.22526,
				"method": "rhf"
			},
			{
				"type": "occ",
				"energy": -0.20804,
				"method": "rhf"
			},
			{
				"type": "unocc",
				"energy": -0.05084,
				"method": "rhf"
			},
			{
				"type": "unocc",
				"energy": -0.0044,
				"method": "rhf"
			},
			{
				"type": "unocc",
				"energy": -0.00245,
				"method": "rhf"
			},
			{
				"type": "unocc",
				"energy": 0.00778,
				"method": "rhf"
			},
			{
				"type": "unocc",
				"energy": 0.02555,
				"method": "rhf"
			}
		],
		"cosmo_sigma_profile": { 
			"-0.025": 0.0,
			"-0.024": 0.0,
			"-0.023": 0.0,
			"-0.022": 0.0,
			"-0.021": 0.0,
			"-0.02": 0.0,
			"-0.019": 0.0,
			"-0.018": 0.0,
			"-0.017": 0.0,
			"-0.016": 0.187823948264,
			"-0.015": 0.83704679461,
			"-0.014": 1.68736571464,
			"-0.013": 1.25515378093,
			"-0.012": 1.68019539549,
			"-0.011": 1.56721589856,
			"-0.01": 1.81208404995,
			"-0.009": 3.02987819517,
			"-0.008": 5.77601688259,
			"-0.007": 7.55969237719,
			"-0.006": 13.1313137667,
			"-0.005": 18.9615792428,
			"-0.004": 21.5987098482,
			"-0.003": 24.3822213854,
			"-0.002": 19.6364663369,
			"-0.001": 19.658919097,
			"0.0": 22.0435869635,
			"0.001": 23.7900070277,
			"0.002": 20.3824213867,
			"0.003": 17.6806930334,
			"0.004": 16.9283763204,
			"0.005": 17.550666373,
			"0.006": 11.5844584711,
			"0.007": 5.38818974411,
			"0.008": 4.6347006723,
			"0.009": 3.88880855526,
			"0.01": 3.63363057719,
			"0.011": 3.56297259833,
			"0.012": 3.0802682016,
			"0.013": 2.74529139789,
			"0.014": 1.76731651453,
			"0.015": 0.0611956626695,
			"0.016": 0.0,
			"0.017": 0.0,
			"0.018": 0.0,
			"0.019": 0.0,
			"0.02": 0.0,
			"0.021": 0.0,
			"0.022": 0.0,
			"0.023": 0.0,
			"0.024": 0.0,
			"0.025": 0.0
		}
	}
}
