{
	 "smiles": "OC(=O)C1=CC(Br)=C(Br)S1", 
	 "Tm": 503.15, 
	 "num_atms": 12, 
	 "gaussian": { 
		 "optdone": 1, 
		 "sigma_profile": "yes", 
		 "theory": "DFT", 
		 "functional": "B3LYP", 
		 "basiset": "6-31G**", 
		 "properties": { 
			 "R2extent": 5700.2159, 
			 "electric_dipole_moment_norm": 3.34678533073, 
			 "electric_quadrupole_moment_norm": 9.28505810213, 
			 "total_energy": -5883.15604345, 
			 "HOMO_LUMO_gap": 0.17491, 
			 "cosmo_polarized_energy": -11.85, 
			 "cosmo_cavitation_energy": 23.61, 
			 "cosmo_dispersion_energy": -18.76, 
			 "cosmo_repulsion_energy": 1.48, 
			 "cosmo_total_nonelectrostatic_energy": 6.33, 
			 "SMD_solvation_energy": 2.9 
		},
		"coords": [
			{
				"x": 1.8180328562,
				"y": -1.7189076876,
				"z": 0.4491827144,
				"element": "O" 
			},
			{
				"x": 0.4613772293,
				"y": -1.6978907874,
				"z": 0.4270488104,
				"element": "C" 
			},
			{
				"x": -0.1705628693,
				"y": -2.4773876751,
				"z": 1.0992984849,
				"element": "O" 
			},
			{
				"x": -0.2076006743,
				"y": -0.69479134,
				"z": -0.4398452393,
				"element": "C" 
			},
			{
				"x": -1.5693587785,
				"y": -0.5727290084,
				"z": -0.5471936292,
				"element": "C" 
			},
			{
				"x": -1.9682383407,
				"y": 0.4592416987,
				"z": -1.438479113,
				"element": "C" 
			},
			{
				"x": -3.7760366919,
				"y": 0.8632945077,
				"z": -1.7896767523,
				"element": "Br" 
			},
			{
				"x": -0.9048796284,
				"y": 1.119230356,
				"z": -2.0066211055,
				"element": "C" 
			},
			{
				"x": -0.9414959179,
				"y": 2.5353207485,
				"z": -3.2296894931,
				"element": "Br" 
			},
			{
				"x": 0.6115354654,
				"y": 0.4785731485,
				"z": -1.4514028228,
				"element": "S" 
			},
			{
				"x": 2.2105926955,
				"y": -1.0486373893,
				"z": -0.1279807742,
				"element": "H" 
			},
			{
				"x": -2.2538653455,
				"y": -1.2078165716,
				"z": -0.0000410804,
				"element": "H" 
			}
		],
		 "valence_orbital": [ 
			{
				"type": "occ",
				"energy": -0.32549,
				"method": "rhf"
			},
			{
				"type": "occ",
				"energy": -0.30591,
				"method": "rhf"
			},
			{
				"type": "occ",
				"energy": -0.29129,
				"method": "rhf"
			},
			{
				"type": "occ",
				"energy": -0.27919,
				"method": "rhf"
			},
			{
				"type": "occ",
				"energy": -0.25567,
				"method": "rhf"
			},
			{
				"type": "unocc",
				"energy": -0.08076,
				"method": "rhf"
			},
			{
				"type": "unocc",
				"energy": -0.04042,
				"method": "rhf"
			},
			{
				"type": "unocc",
				"energy": -0.03444,
				"method": "rhf"
			},
			{
				"type": "unocc",
				"energy": 0.00126,
				"method": "rhf"
			},
			{
				"type": "unocc",
				"energy": 0.0123,
				"method": "rhf"
			}
		],
		"cosmo_sigma_profile": { 
			"-0.025": 0.0,
			"-0.024": 0.0,
			"-0.023": 0.0,
			"-0.022": 0.0,
			"-0.021": 0.0,
			"-0.02": 0.0,
			"-0.019": 0.64663562848,
			"-0.018": 0.710591475679,
			"-0.017": 1.47373470151,
			"-0.016": 0.848317000893,
			"-0.015": 0.911997510586,
			"-0.014": 1.0437213457,
			"-0.013": 1.02806403858,
			"-0.012": 0.832543713361,
			"-0.011": 0.645239903432,
			"-0.01": 1.4328340824,
			"-0.009": 2.06994909917,
			"-0.008": 2.44490144357,
			"-0.007": 4.33630849673,
			"-0.006": 4.86101924098,
			"-0.005": 5.68758238521,
			"-0.004": 7.39896676987,
			"-0.003": 11.1438817213,
			"-0.002": 17.0322364579,
			"-0.001": 24.2111523709,
			"0.0": 23.3530452919,
			"0.001": 17.5389918676,
			"0.002": 18.206227082,
			"0.003": 17.8572089526,
			"0.004": 6.75291539523,
			"0.005": 1.12549903375,
			"0.006": 2.47745388331,
			"0.007": 3.1546172006,
			"0.008": 2.47242714451,
			"0.009": 4.61610666223,
			"0.01": 4.68672084534,
			"0.011": 5.37622181609,
			"0.012": 2.63507805335,
			"0.013": 0.306080277185,
			"0.014": 0.0,
			"0.015": 0.0,
			"0.016": 0.0,
			"0.017": 0.0,
			"0.018": 0.0,
			"0.019": 0.0,
			"0.02": 0.0,
			"0.021": 0.0,
			"0.022": 0.0,
			"0.023": 0.0,
			"0.024": 0.0,
			"0.025": 0.0
		}
	}
}
