{
	 "smiles": "ClC1=C(Cl)C(Cl)(C(Cl)=C1Cl)C1(Cl)C(Cl)=C(Cl)C(Cl)=C1Cl", 
	 "Tm": 395.15, 
	 "num_atms": 20, 
	 "gaussian": { 
		 "optdone": 1, 
		 "sigma_profile": "yes", 
		 "theory": "DFT", 
		 "functional": "B3LYP", 
		 "basiset": "6-31G**", 
		 "properties": { 
			 "R2extent": 9106.326, 
			 "electric_dipole_moment_norm": 0.998351085541, 
			 "electric_quadrupole_moment_norm": 2.5094189447, 
			 "total_energy": -4982.85331153, 
			 "HOMO_LUMO_gap": 0.13813, 
			 "cosmo_polarized_energy": -3.6, 
			 "cosmo_cavitation_energy": 40.5, 
			 "cosmo_dispersion_energy": -27.85, 
			 "cosmo_repulsion_energy": 2.13, 
			 "cosmo_total_nonelectrostatic_energy": 14.79, 
			 "SMD_solvation_energy": 4.21 
		},
		"coords": [
			{
				"x": -0.6867380947,
				"y": 4.5910001006,
				"z": -0.7356748973,
				"element": "Cl" 
			},
			{
				"x": -0.1583252818,
				"y": 2.9653071139,
				"z": -0.8575578993,
				"element": "C" 
			},
			{
				"x": -0.6504509913,
				"y": 2.0114909787,
				"z": -1.6709578083,
				"element": "C" 
			},
			{
				"x": -1.8822419408,
				"y": 2.2445417971,
				"z": -2.8383838588,
				"element": "Cl" 
			},
			{
				"x": 0.1377937296,
				"y": 0.708165329,
				"z": -1.4754880631,
				"element": "C" 
			},
			{
				"x": 0.9866828945,
				"y": 0.3612005862,
				"z": -3.0458272012,
				"element": "Cl" 
			},
			{
				"x": 1.1747823932,
				"y": 1.13474255,
				"z": -0.4281622145,
				"element": "C" 
			},
			{
				"x": 2.4729131161,
				"y": 0.1518643514,
				"z": 0.1131017498,
				"element": "Cl" 
			},
			{
				"x": 0.9677143816,
				"y": 2.4193651081,
				"z": -0.079582872,
				"element": "C" 
			},
			{
				"x": 1.8834959284,
				"y": 3.3461171062,
				"z": 1.0335967879,
				"element": "Cl" 
			},
			{
				"x": -0.7157538582,
				"y": -0.5347344188,
				"z": -0.9843421699,
				"element": "C" 
			},
			{
				"x": -1.9544560944,
				"y": -1.0291026863,
				"z": -2.2204827038,
				"element": "Cl" 
			},
			{
				"x": -1.4222817679,
				"y": -0.248208676,
				"z": 0.3471466416,
				"element": "C" 
			},
			{
				"x": -2.613508054,
				"y": 0.9654106939,
				"z": 0.5757707749,
				"element": "Cl" 
			},
			{
				"x": -1.038671244,
				"y": -1.1518433959,
				"z": 1.2696112399,
				"element": "C" 
			},
			{
				"x": -1.5742041455,
				"y": -1.2579610626,
				"z": 2.8939985439,
				"element": "Cl" 
			},
			{
				"x": -0.1056540358,
				"y": -2.1143726055,
				"z": 0.657832225,
				"element": "C" 
			},
			{
				"x": 0.55690345,
				"y": -3.4504707044,
				"z": 1.5021141869,
				"element": "Cl" 
			},
			{
				"x": 0.0940343233,
				"y": -1.7916877265,
				"z": -0.6342812556,
				"element": "C" 
			},
			{
				"x": 1.0080652917,
				"y": -2.7104244392,
				"z": -1.7545312064,
				"element": "Cl" 
			}
		],
		 "valence_orbital": [ 
			{
				"type": "occ",
				"energy": -0.31029,
				"method": "rhf"
			},
			{
				"type": "occ",
				"energy": -0.30616,
				"method": "rhf"
			},
			{
				"type": "occ",
				"energy": -0.30195,
				"method": "rhf"
			},
			{
				"type": "occ",
				"energy": -0.25257,
				"method": "rhf"
			},
			{
				"type": "occ",
				"energy": -0.23973,
				"method": "rhf"
			},
			{
				"type": "unocc",
				"energy": -0.1016,
				"method": "rhf"
			},
			{
				"type": "unocc",
				"energy": -0.09182,
				"method": "rhf"
			},
			{
				"type": "unocc",
				"energy": -0.04131,
				"method": "rhf"
			},
			{
				"type": "unocc",
				"energy": -0.02954,
				"method": "rhf"
			},
			{
				"type": "unocc",
				"energy": 0.00782,
				"method": "rhf"
			}
		],
		"cosmo_sigma_profile": { 
			"-0.025": 0.0,
			"-0.024": 0.0,
			"-0.023": 0.0,
			"-0.022": 0.0,
			"-0.021": 0.0,
			"-0.02": 0.0,
			"-0.019": 0.0,
			"-0.018": 0.0,
			"-0.017": 0.0,
			"-0.016": 0.0,
			"-0.015": 0.0,
			"-0.014": 0.0,
			"-0.013": 0.0,
			"-0.012": 0.0,
			"-0.011": 0.0,
			"-0.01": 0.0,
			"-0.009": 0.0,
			"-0.008": 0.0,
			"-0.007": 0.0,
			"-0.006": 0.587832225118,
			"-0.005": 9.93643546541,
			"-0.004": 21.1548729262,
			"-0.003": 32.4204651001,
			"-0.002": 32.6390427857,
			"-0.001": 35.6724724516,
			"0.0": 40.1594764864,
			"0.001": 49.048384526,
			"0.002": 83.8370047524,
			"0.003": 36.9894371222,
			"0.004": 5.03146981208,
			"0.005": 0.0398677707529,
			"0.006": 0.0,
			"0.007": 0.0,
			"0.008": 0.0,
			"0.009": 0.0,
			"0.01": 0.0,
			"0.011": 0.0,
			"0.012": 0.0,
			"0.013": 0.0,
			"0.014": 0.0,
			"0.015": 0.0,
			"0.016": 0.0,
			"0.017": 0.0,
			"0.018": 0.0,
			"0.019": 0.0,
			"0.02": 0.0,
			"0.021": 0.0,
			"0.022": 0.0,
			"0.023": 0.0,
			"0.024": 0.0,
			"0.025": 0.0
		}
	}
}
