{
	 "smiles": "OC(=O)C1=CNC2=C1C(Cl)=CC=N2", 
	 "Tm": 463.15, 
	 "num_atms": 18, 
	 "gaussian": { 
		 "optdone": 1, 
		 "sigma_profile": "yes", 
		 "theory": "DFT", 
		 "functional": "B3LYP", 
		 "basiset": "6-31G**", 
		 "properties": { 
			 "R2extent": 2862.0245, 
			 "electric_dipole_moment_norm": 4.84413836611, 
			 "electric_quadrupole_moment_norm": 14.6906170248, 
			 "total_energy": -1028.02008427, 
			 "HOMO_LUMO_gap": 0.18334, 
			 "cosmo_polarized_energy": -16.32, 
			 "cosmo_cavitation_energy": 24.34, 
			 "cosmo_dispersion_energy": -18.69, 
			 "cosmo_repulsion_energy": 1.44, 
			 "cosmo_total_nonelectrostatic_energy": 7.09, 
			 "SMD_solvation_energy": 3.38 
		},
		"coords": [
			{
				"x": 1.9991555211,
				"y": 0.5169240471,
				"z": 0.1168657645,
				"element": "O" 
			},
			{
				"x": 1.2997456511,
				"y": 1.6555065127,
				"z": 0.2777734569,
				"element": "C" 
			},
			{
				"x": 1.8869796124,
				"y": 2.7087932763,
				"z": 0.4179870778,
				"element": "O" 
			},
			{
				"x": -0.190689147,
				"y": 1.6087247345,
				"z": 0.2816917836,
				"element": "C" 
			},
			{
				"x": -0.8515526559,
				"y": 2.8108430668,
				"z": 0.4499120448,
				"element": "C" 
			},
			{
				"x": -2.2001696332,
				"y": 2.628091484,
				"z": 0.4342672084,
				"element": "N" 
			},
			{
				"x": -2.4792908525,
				"y": 1.2914306448,
				"z": 0.2542812007,
				"element": "C" 
			},
			{
				"x": -1.2273337958,
				"y": 0.5975562754,
				"z": 0.1512676634,
				"element": "C" 
			},
			{
				"x": -1.3807040275,
				"y": -0.7858470623,
				"z": -0.0359236189,
				"element": "C" 
			},
			{
				"x": -0.0087500908,
				"y": -1.8810478582,
				"z": -0.1945502518,
				"element": "Cl" 
			},
			{
				"x": -2.6513312895,
				"y": -1.3460637065,
				"z": -0.1033717513,
				"element": "C" 
			},
			{
				"x": -3.7780612446,
				"y": -0.5195674649,
				"z": 0.0168449297,
				"element": "C" 
			},
			{
				"x": -3.7106473563,
				"y": 0.8005227357,
				"z": 0.1959666301,
				"element": "N" 
			},
			{
				"x": 1.4185992868,
				"y": -0.254339958,
				"z": 0.0146487168,
				"element": "H" 
			},
			{
				"x": -0.3976142862,
				"y": 3.7816105298,
				"z": 0.5790148455,
				"element": "H" 
			},
			{
				"x": -2.9100953437,
				"y": 3.3376364814,
				"z": 0.5361184053,
				"element": "H" 
			},
			{
				"x": -2.768637157,
				"y": -2.4132956652,
				"z": -0.2477890544,
				"element": "H" 
			},
			{
				"x": -4.7731031916,
				"y": -0.9540780733,
				"z": -0.035405051,
				"element": "H" 
			}
		],
		 "valence_orbital": [ 
			{
				"type": "occ",
				"energy": -0.30075,
				"method": "rhf"
			},
			{
				"type": "occ",
				"energy": -0.29423,
				"method": "rhf"
			},
			{
				"type": "occ",
				"energy": -0.2672,
				"method": "rhf"
			},
			{
				"type": "occ",
				"energy": -0.26484,
				"method": "rhf"
			},
			{
				"type": "occ",
				"energy": -0.24321,
				"method": "rhf"
			},
			{
				"type": "unocc",
				"energy": -0.05987,
				"method": "rhf"
			},
			{
				"type": "unocc",
				"energy": -0.02283,
				"method": "rhf"
			},
			{
				"type": "unocc",
				"energy": -0.00827,
				"method": "rhf"
			},
			{
				"type": "unocc",
				"energy": -9e-05,
				"method": "rhf"
			},
			{
				"type": "unocc",
				"energy": 0.06616,
				"method": "rhf"
			}
		],
		"cosmo_sigma_profile": { 
			"-0.025": 0.0,
			"-0.024": 0.0,
			"-0.023": 0.0,
			"-0.022": 0.0,
			"-0.021": 0.0,
			"-0.02": 0.0,
			"-0.019": 0.0,
			"-0.018": 0.0926645865814,
			"-0.017": 1.54826616725,
			"-0.016": 1.573143001,
			"-0.015": 1.08161005975,
			"-0.014": 1.15877728994,
			"-0.013": 1.12399746525,
			"-0.012": 0.928483881478,
			"-0.011": 1.40126191409,
			"-0.01": 2.75893554093,
			"-0.009": 3.71283994921,
			"-0.008": 5.46871769555,
			"-0.007": 7.89167712577,
			"-0.006": 7.9901849402,
			"-0.005": 8.02183178161,
			"-0.004": 9.44459925463,
			"-0.003": 8.33870471723,
			"-0.002": 9.50874730668,
			"-0.001": 17.9915934155,
			"0.0": 23.1532335378,
			"0.001": 21.2326885477,
			"0.002": 14.264411408,
			"0.003": 6.50396405788,
			"0.004": 4.13840952634,
			"0.005": 3.16704603401,
			"0.006": 3.6034825163,
			"0.007": 3.5093203984,
			"0.008": 3.07105588318,
			"0.009": 3.40717903393,
			"0.01": 4.59027843062,
			"0.011": 5.50575232691,
			"0.012": 6.41688864356,
			"0.013": 4.05639987686,
			"0.014": 2.12102227703,
			"0.015": 0.164383734754,
			"0.016": 0.0,
			"0.017": 0.0,
			"0.018": 0.0,
			"0.019": 0.0,
			"0.02": 0.0,
			"0.021": 0.0,
			"0.022": 0.0,
			"0.023": 0.0,
			"0.024": 0.0,
			"0.025": 0.0
		}
	}
}
