{
	 "smiles": "NC1CCN(C2CCOCC2)C1=O", 
	 "Tm": 324.15, 
	 "num_atms": 29, 
	 "gaussian": { 
		 "optdone": 1, 
		 "sigma_profile": "yes", 
		 "theory": "DFT", 
		 "functional": "B3LYP", 
		 "basiset": "6-31G**", 
		 "properties": { 
			 "R2extent": 3651.5048, 
			 "electric_dipole_moment_norm": 4.31826654342, 
			 "electric_quadrupole_moment_norm": 18.8419429606, 
			 "total_energy": -612.542066618, 
			 "HOMO_LUMO_gap": 0.24667, 
			 "cosmo_polarized_energy": -17.43, 
			 "cosmo_cavitation_energy": 29.37, 
			 "cosmo_dispersion_energy": -21.38, 
			 "cosmo_repulsion_energy": 1.71, 
			 "cosmo_total_nonelectrostatic_energy": 9.7, 
			 "SMD_solvation_energy": 3.46 
		},
		"coords": [
			{
				"x": 0.7546323476,
				"y": -0.5695205591,
				"z": -4.9940012093,
				"element": "N" 
			},
			{
				"x": 0.3909422661,
				"y": 0.6678568172,
				"z": -4.2988695433,
				"element": "C" 
			},
			{
				"x": -1.1125694128,
				"y": 0.9098379642,
				"z": -4.0307678902,
				"element": "C" 
			},
			{
				"x": -1.3495634098,
				"y": 0.3037122227,
				"z": -2.6344930051,
				"element": "C" 
			},
			{
				"x": -0.0427747181,
				"y": 0.4285550941,
				"z": -1.9924090023,
				"element": "N" 
			},
			{
				"x": 0.1442784755,
				"y": 0.1979209579,
				"z": -0.5568634252,
				"element": "C" 
			},
			{
				"x": 0.7672631032,
				"y": 1.4250035688,
				"z": 0.1515788322,
				"element": "C" 
			},
			{
				"x": 1.3833330506,
				"y": 0.9914800072,
				"z": 1.4989638647,
				"element": "C" 
			},
			{
				"x": 0.7041496197,
				"y": -0.141759406,
				"z": 2.0287662572,
				"element": "O" 
			},
			{
				"x": 0.9733400809,
				"y": -1.3198167249,
				"z": 1.2715036182,
				"element": "C" 
			},
			{
				"x": 0.9777605578,
				"y": -1.0595628892,
				"z": -0.2526943628,
				"element": "C" 
			},
			{
				"x": 0.989315131,
				"y": 0.630953215,
				"z": -2.8747948992,
				"element": "C" 
			},
			{
				"x": 2.1723658439,
				"y": 0.7324523077,
				"z": -2.5826856153,
				"element": "O" 
			},
			{
				"x": 0.3614290785,
				"y": -1.3791550891,
				"z": -4.5189862241,
				"element": "H" 
			},
			{
				"x": 0.3670913859,
				"y": -0.5629912279,
				"z": -5.9342126554,
				"element": "H" 
			},
			{
				"x": 0.8468014684,
				"y": 1.4963556825,
				"z": -4.8483167972,
				"element": "H" 
			},
			{
				"x": -1.7561306374,
				"y": 0.4690016304,
				"z": -4.797602679,
				"element": "H" 
			},
			{
				"x": -1.3169775353,
				"y": 1.9855943167,
				"z": -3.9964985687,
				"element": "H" 
			},
			{
				"x": -1.6683514523,
				"y": -0.7488967791,
				"z": -2.6873375364,
				"element": "H" 
			},
			{
				"x": -2.113168403,
				"y": 0.8457475658,
				"z": -2.0660555646,
				"element": "H" 
			},
			{
				"x": -0.8594851646,
				"y": 0.0420441885,
				"z": -0.1475857988,
				"element": "H" 
			},
			{
				"x": 1.5425716036,
				"y": 1.8530452326,
				"z": -0.4881788443,
				"element": "H" 
			},
			{
				"x": -0.0072429809,
				"y": 2.1846189009,
				"z": 0.3028814983,
				"element": "H" 
			},
			{
				"x": 1.2962954722,
				"y": 1.782239155,
				"z": 2.2490671851,
				"element": "H" 
			},
			{
				"x": 2.4549946837,
				"y": 0.7672505282,
				"z": 1.3784678485,
				"element": "H" 
			},
			{
				"x": 0.1809299772,
				"y": -2.0244887289,
				"z": 1.544903071,
				"element": "H" 
			},
			{
				"x": 1.9347808086,
				"y": -1.7587756829,
				"z": 1.583368821,
				"element": "H" 
			},
			{
				"x": 1.9908662455,
				"y": -0.900198673,
				"z": -0.6310425632,
				"element": "H" 
			},
			{
				"x": 0.5690225145,
				"y": -1.9276035953,
				"z": -0.781804812,
				"element": "H" 
			}
		],
		 "valence_orbital": [ 
			{
				"type": "occ",
				"energy": -0.29773,
				"method": "rhf"
			},
			{
				"type": "occ",
				"energy": -0.24899,
				"method": "rhf"
			},
			{
				"type": "occ",
				"energy": -0.24567,
				"method": "rhf"
			},
			{
				"type": "occ",
				"energy": -0.23825,
				"method": "rhf"
			},
			{
				"type": "occ",
				"energy": -0.22693,
				"method": "rhf"
			},
			{
				"type": "unocc",
				"energy": 0.01974,
				"method": "rhf"
			},
			{
				"type": "unocc",
				"energy": 0.06664,
				"method": "rhf"
			},
			{
				"type": "unocc",
				"energy": 0.08605,
				"method": "rhf"
			},
			{
				"type": "unocc",
				"energy": 0.09757,
				"method": "rhf"
			},
			{
				"type": "unocc",
				"energy": 0.10654,
				"method": "rhf"
			}
		],
		"cosmo_sigma_profile": { 
			"-0.025": 0.0,
			"-0.024": 0.0,
			"-0.023": 0.0,
			"-0.022": 0.0,
			"-0.021": 0.0,
			"-0.02": 0.0,
			"-0.019": 0.0,
			"-0.018": 0.0,
			"-0.017": 0.0,
			"-0.016": 0.0,
			"-0.015": 0.0,
			"-0.014": 0.0,
			"-0.013": 0.0,
			"-0.012": 0.0,
			"-0.011": 0.195799893122,
			"-0.01": 1.66125292696,
			"-0.009": 3.15153687103,
			"-0.008": 3.05964901012,
			"-0.007": 4.02432503611,
			"-0.006": 4.09206662806,
			"-0.005": 13.1934455671,
			"-0.004": 30.2712342056,
			"-0.003": 41.1859662639,
			"-0.002": 31.420914181,
			"-0.001": 19.6395841908,
			"0.0": 11.9536022032,
			"0.001": 7.40661138716,
			"0.002": 5.35917181821,
			"0.003": 4.0576199497,
			"0.004": 3.61166137696,
			"0.005": 3.38086878484,
			"0.006": 2.95332202688,
			"0.007": 3.64876488637,
			"0.008": 3.4259891969,
			"0.009": 2.96513912853,
			"0.01": 1.71420560244,
			"0.011": 3.42666982411,
			"0.012": 3.40782208306,
			"0.013": 4.54855641316,
			"0.014": 5.84423378844,
			"0.015": 3.38880018906,
			"0.016": 1.68775847514,
			"0.017": 1.0272635998,
			"0.018": 0.737312455449,
			"0.019": 0.627853387329,
			"0.02": 0.0782581064729,
			"0.021": 0.0,
			"0.022": 0.0,
			"0.023": 0.0,
			"0.024": 0.0,
			"0.025": 0.0
		}
	}
}
