{
	 "smiles": "CC1=CC(C=C(C#N)C(O)=O)=C(C)N1C1=C(F)C=CC=C1", 
	 "Tm": 439.15, 
	 "num_atms": 34, 
	 "gaussian": { 
		 "optdone": 1, 
		 "sigma_profile": "yes", 
		 "theory": "DFT", 
		 "functional": "B3LYP", 
		 "basiset": "6-31G**", 
		 "properties": { 
			 "R2extent": 8779.7532, 
			 "electric_dipole_moment_norm": 10.5678561033, 
			 "electric_quadrupole_moment_norm": 47.125210277, 
			 "total_energy": -977.313830172, 
			 "HOMO_LUMO_gap": 0.14556, 
			 "cosmo_polarized_energy": -20.89, 
			 "cosmo_cavitation_energy": 40.16, 
			 "cosmo_dispersion_energy": -26.91, 
			 "cosmo_repulsion_energy": 2.04, 
			 "cosmo_total_nonelectrostatic_energy": 15.29, 
			 "SMD_solvation_energy": 9.95 
		},
		"coords": [
			{
				"x": -2.4881450373,
				"y": 1.3847136774,
				"z": 1.1856839352,
				"element": "C" 
			},
			{
				"x": -1.1875159692,
				"y": 0.6865762034,
				"z": 1.4111170942,
				"element": "C" 
			},
			{
				"x": -0.44051793,
				"y": 0.550482351,
				"z": 2.5449157404,
				"element": "C" 
			},
			{
				"x": 0.7356679953,
				"y": -0.2172570248,
				"z": 2.221392774,
				"element": "C" 
			},
			{
				"x": 1.825742065,
				"y": -0.6256825732,
				"z": 3.05071982,
				"element": "C" 
			},
			{
				"x": 2.0427115556,
				"y": -0.4133292633,
				"z": 4.3871235656,
				"element": "C" 
			},
			{
				"x": 1.1353642882,
				"y": 0.3038245676,
				"z": 5.2263817088,
				"element": "C" 
			},
			{
				"x": 0.3785519737,
				"y": 0.8910776221,
				"z": 5.8880613349,
				"element": "N" 
			},
			{
				"x": 3.2528246887,
				"y": -0.9232582918,
				"z": 5.0699667027,
				"element": "C" 
			},
			{
				"x": 4.0922609504,
				"y": -1.6011761125,
				"z": 4.2376292399,
				"element": "O" 
			},
			{
				"x": 3.5016226712,
				"y": -0.7705147414,
				"z": 6.2486108991,
				"element": "O" 
			},
			{
				"x": 0.6544656898,
				"y": -0.5332065534,
				"z": 0.8556009275,
				"element": "C" 
			},
			{
				"x": 1.5964028592,
				"y": -1.2832969232,
				"z": -0.0299950509,
				"element": "C" 
			},
			{
				"x": -0.513377348,
				"y": 0.0124787099,
				"z": 0.3774546448,
				"element": "N" 
			},
			{
				"x": -0.9796312031,
				"y": -0.094660305,
				"z": -0.9648824045,
				"element": "C" 
			},
			{
				"x": -0.9891949593,
				"y": 1.0279266479,
				"z": -1.7994166473,
				"element": "C" 
			},
			{
				"x": -0.5619227933,
				"y": 2.2064147105,
				"z": -1.3095505976,
				"element": "F" 
			},
			{
				"x": -1.4354357973,
				"y": 0.9604025963,
				"z": -3.1132728948,
				"element": "C" 
			},
			{
				"x": -1.8772934222,
				"y": -0.2643919693,
				"z": -3.6147713295,
				"element": "C" 
			},
			{
				"x": -1.8776957955,
				"y": -1.4000023525,
				"z": -2.8014484746,
				"element": "C" 
			},
			{
				"x": -1.4361424518,
				"y": -1.3120401261,
				"z": -1.4814130331,
				"element": "C" 
			},
			{
				"x": -2.8569134894,
				"y": 1.7717934645,
				"z": 2.1377804145,
				"element": "H" 
			},
			{
				"x": -3.2516001276,
				"y": 0.7135374112,
				"z": 0.774925965,
				"element": "H" 
			},
			{
				"x": -2.381880096,
				"y": 2.2288924474,
				"z": 0.4954641242,
				"element": "H" 
			},
			{
				"x": -0.6958782887,
				"y": 0.9535699941,
				"z": 3.5124050416,
				"element": "H" 
			},
			{
				"x": 2.6084004764,
				"y": -1.1946493304,
				"z": 2.5591030852,
				"element": "H" 
			},
			{
				"x": 4.8343763184,
				"y": -1.8779225733,
				"z": 4.7987395011,
				"element": "H" 
			},
			{
				"x": 1.798690551,
				"y": -0.7307192955,
				"z": -0.953852778,
				"element": "H" 
			},
			{
				"x": 2.5500942162,
				"y": -1.4464298182,
				"z": 0.4741575186,
				"element": "H" 
			},
			{
				"x": 1.2043629715,
				"y": -2.2653161908,
				"z": -0.3200727862,
				"element": "H" 
			},
			{
				"x": -1.4243985986,
				"y": 1.8596042329,
				"z": -3.7194546636,
				"element": "H" 
			},
			{
				"x": -2.2250118571,
				"y": -0.3276631309,
				"z": -4.6410770408,
				"element": "H" 
			},
			{
				"x": -2.2285959884,
				"y": -2.3503521284,
				"z": -3.1901012543,
				"element": "H" 
			},
			{
				"x": -1.4471881179,
				"y": -2.1812259323,
				"z": -0.831525082,
				"element": "H" 
			}
		],
		 "valence_orbital": [ 
			{
				"type": "occ",
				"energy": -0.28599,
				"method": "rhf"
			},
			{
				"type": "occ",
				"energy": -0.27344,
				"method": "rhf"
			},
			{
				"type": "occ",
				"energy": -0.27131,
				"method": "rhf"
			},
			{
				"type": "occ",
				"energy": -0.23975,
				"method": "rhf"
			},
			{
				"type": "occ",
				"energy": -0.21323,
				"method": "rhf"
			},
			{
				"type": "unocc",
				"energy": -0.06767,
				"method": "rhf"
			},
			{
				"type": "unocc",
				"energy": -0.04142,
				"method": "rhf"
			},
			{
				"type": "unocc",
				"energy": -0.02789,
				"method": "rhf"
			},
			{
				"type": "unocc",
				"energy": 0.02317,
				"method": "rhf"
			},
			{
				"type": "unocc",
				"energy": 0.03513,
				"method": "rhf"
			}
		],
		"cosmo_sigma_profile": { 
			"-0.025": 0.0,
			"-0.024": 0.0,
			"-0.023": 0.0,
			"-0.022": 0.0,
			"-0.021": 0.0,
			"-0.02": 0.0,
			"-0.019": 0.0484201876367,
			"-0.018": 0.746684162712,
			"-0.017": 1.16015771663,
			"-0.016": 0.51288134068,
			"-0.015": 0.817469561737,
			"-0.014": 0.284904984754,
			"-0.013": 0.823393768177,
			"-0.012": 0.714206118167,
			"-0.011": 0.883411727704,
			"-0.01": 0.952405986707,
			"-0.009": 0.878232938164,
			"-0.008": 3.86628845913,
			"-0.007": 10.4970968009,
			"-0.006": 15.2898373288,
			"-0.005": 20.1820175444,
			"-0.004": 20.8224626853,
			"-0.003": 24.4960376522,
			"-0.002": 27.539352695,
			"-0.001": 31.8102998649,
			"0.0": 26.8062262265,
			"0.001": 23.9528010672,
			"0.002": 20.1623368704,
			"0.003": 23.0266974281,
			"0.004": 15.4651546712,
			"0.005": 6.96543898928,
			"0.006": 5.71333880924,
			"0.007": 6.10988944512,
			"0.008": 5.05370992031,
			"0.009": 5.11350962452,
			"0.01": 5.59672302928,
			"0.011": 6.20172384567,
			"0.012": 7.23806518167,
			"0.013": 2.39769503948,
			"0.014": 0.33407835512,
			"0.015": 0.0,
			"0.016": 0.0,
			"0.017": 0.0,
			"0.018": 0.0,
			"0.019": 0.0,
			"0.02": 0.0,
			"0.021": 0.0,
			"0.022": 0.0,
			"0.023": 0.0,
			"0.024": 0.0,
			"0.025": 0.0
		}
	}
}
