{
	 "smiles": "CCOC1CCN(CC1)C(=O)NC1=CC(=CC=C1)C(O)=O", 
	 "Tm": 453.15, 
	 "num_atms": 41, 
	 "gaussian": { 
		 "optdone": 1, 
		 "sigma_profile": "yes", 
		 "theory": "DFT", 
		 "functional": "B3LYP", 
		 "basiset": "6-31G**", 
		 "properties": { 
			 "R2extent": 10185.0179, 
			 "electric_dipole_moment_norm": 2.03849236692, 
			 "electric_quadrupole_moment_norm": 22.785332806, 
			 "total_energy": -994.080600365, 
			 "HOMO_LUMO_gap": 0.17211, 
			 "cosmo_polarized_energy": -18.58, 
			 "cosmo_cavitation_energy": 43.12, 
			 "cosmo_dispersion_energy": -30.14, 
			 "cosmo_repulsion_energy": 2.34, 
			 "cosmo_total_nonelectrostatic_energy": 15.32, 
			 "SMD_solvation_energy": 8.66 
		},
		"coords": [
			{
				"x": 2.934151807,
				"y": 0.1420523912,
				"z": -4.0553660311,
				"element": "C" 
			},
			{
				"x": 2.170358575,
				"y": -0.1096502968,
				"z": -2.7653391546,
				"element": "C" 
			},
			{
				"x": 1.5410953161,
				"y": 1.1039432587,
				"z": -2.379251598,
				"element": "O" 
			},
			{
				"x": 0.8811990868,
				"y": 1.0586026707,
				"z": -1.123120711,
				"element": "C" 
			},
			{
				"x": 0.5520418791,
				"y": 2.4953122223,
				"z": -0.7237733545,
				"element": "C" 
			},
			{
				"x": -0.0262795249,
				"y": 2.5575702718,
				"z": 0.6973030047,
				"element": "C" 
			},
			{
				"x": -0.9043232742,
				"y": 1.3993691699,
				"z": 0.9588109236,
				"element": "N" 
			},
			{
				"x": -1.5038950002,
				"y": 0.7900951057,
				"z": -0.2369255811,
				"element": "C" 
			},
			{
				"x": -0.4151061298,
				"y": 0.208926154,
				"z": -1.1589761419,
				"element": "C" 
			},
			{
				"x": -1.5050428237,
				"y": 1.3981827341,
				"z": 2.1984966085,
				"element": "C" 
			},
			{
				"x": -1.3547274836,
				"y": 2.3089938769,
				"z": 3.0057346569,
				"element": "O" 
			},
			{
				"x": -2.3482095677,
				"y": 0.3148999915,
				"z": 2.5161207863,
				"element": "N" 
			},
			{
				"x": -2.1117553412,
				"y": -1.0691154331,
				"z": 2.3582531213,
				"element": "C" 
			},
			{
				"x": -3.1609465945,
				"y": -1.9499217113,
				"z": 2.6582512813,
				"element": "C" 
			},
			{
				"x": -2.9768443096,
				"y": -3.3318405682,
				"z": 2.5539576684,
				"element": "C" 
			},
			{
				"x": -1.7471733548,
				"y": -3.8539645986,
				"z": 2.1319996804,
				"element": "C" 
			},
			{
				"x": -0.7076574373,
				"y": -2.9787261605,
				"z": 1.8321945608,
				"element": "C" 
			},
			{
				"x": -0.8761943823,
				"y": -1.5981099392,
				"z": 1.9513768529,
				"element": "C" 
			},
			{
				"x": -4.0695747823,
				"y": -4.2913349544,
				"z": 2.8706750973,
				"element": "C" 
			},
			{
				"x": -5.2129819764,
				"y": -3.6836241666,
				"z": 3.2772764625,
				"element": "O" 
			},
			{
				"x": -3.9783668262,
				"y": -5.499808269,
				"z": 2.7844947019,
				"element": "O" 
			},
			{
				"x": 3.6863717477,
				"y": 0.9225519877,
				"z": -3.9092399902,
				"element": "H" 
			},
			{
				"x": 3.4382284044,
				"y": -0.7713686037,
				"z": -4.3864346347,
				"element": "H" 
			},
			{
				"x": 2.2527842279,
				"y": 0.468180841,
				"z": -4.8465651097,
				"element": "H" 
			},
			{
				"x": 2.8552970953,
				"y": -0.4479770125,
				"z": -1.9691396857,
				"element": "H" 
			},
			{
				"x": 1.4264921208,
				"y": -0.9084071663,
				"z": -2.9133933334,
				"element": "H" 
			},
			{
				"x": 1.5695152353,
				"y": 0.6351517823,
				"z": -0.370773544,
				"element": "H" 
			},
			{
				"x": -0.1516175202,
				"y": 2.9094673492,
				"z": -1.4554207804,
				"element": "H" 
			},
			{
				"x": 1.455884852,
				"y": 3.1087401765,
				"z": -0.7763365776,
				"element": "H" 
			},
			{
				"x": -0.5762256921,
				"y": 3.4933175693,
				"z": 0.8553429673,
				"element": "H" 
			},
			{
				"x": 0.7760504907,
				"y": 2.5405865868,
				"z": 1.4412511329,
				"element": "H" 
			},
			{
				"x": -2.2101103286,
				"y": 0.0185004558,
				"z": 0.0628843444,
				"element": "H" 
			},
			{
				"x": -2.082047249,
				"y": 1.5564554647,
				"z": -0.7736885849,
				"element": "H" 
			},
			{
				"x": -0.2049112777,
				"y": -0.8283902009,
				"z": -0.8812046319,
				"element": "H" 
			},
			{
				"x": -0.7888406446,
				"y": 0.2046817857,
				"z": -2.1891687571,
				"element": "H" 
			},
			{
				"x": -2.8814065124,
				"y": 0.5517590186,
				"z": 3.3434111298,
				"element": "H" 
			},
			{
				"x": -4.1224703585,
				"y": -1.5564639868,
				"z": 2.969585338,
				"element": "H" 
			},
			{
				"x": -1.6313216436,
				"y": -4.9286829217,
				"z": 2.0523987065,
				"element": "H" 
			},
			{
				"x": 0.2557717846,
				"y": -3.3693742739,
				"z": 1.5178990258,
				"element": "H" 
			},
			{
				"x": -0.0517464104,
				"y": -0.9275130499,
				"z": 1.7392694756,
				"element": "H" 
			},
			{
				"x": -5.8437661768,
				"y": -4.4009675511,
				"z": 3.4527306748,
				"element": "H" 
			}
		],
		 "valence_orbital": [ 
			{
				"type": "occ",
				"energy": -0.2688,
				"method": "rhf"
			},
			{
				"type": "occ",
				"energy": -0.26646,
				"method": "rhf"
			},
			{
				"type": "occ",
				"energy": -0.25607,
				"method": "rhf"
			},
			{
				"type": "occ",
				"energy": -0.24128,
				"method": "rhf"
			},
			{
				"type": "occ",
				"energy": -0.22528,
				"method": "rhf"
			},
			{
				"type": "unocc",
				"energy": -0.05317,
				"method": "rhf"
			},
			{
				"type": "unocc",
				"energy": -0.01485,
				"method": "rhf"
			},
			{
				"type": "unocc",
				"energy": 0.02977,
				"method": "rhf"
			},
			{
				"type": "unocc",
				"energy": 0.06141,
				"method": "rhf"
			},
			{
				"type": "unocc",
				"energy": 0.07071,
				"method": "rhf"
			}
		],
		"cosmo_sigma_profile": { 
			"-0.025": 0.0,
			"-0.024": 0.0,
			"-0.023": 0.0,
			"-0.022": 0.0,
			"-0.021": 0.0,
			"-0.02": 0.0,
			"-0.019": 0.00312433575805,
			"-0.018": 0.801314201844,
			"-0.017": 0.98695976086,
			"-0.016": 0.653847979264,
			"-0.015": 0.669190889411,
			"-0.014": 1.96663704497,
			"-0.013": 1.22279594245,
			"-0.012": 1.47541837514,
			"-0.011": 2.45588572583,
			"-0.01": 1.55501508023,
			"-0.009": 1.3989030611,
			"-0.008": 2.03507167039,
			"-0.007": 2.79237300139,
			"-0.006": 6.0057053772,
			"-0.005": 11.2544580843,
			"-0.004": 27.1732690256,
			"-0.003": 48.502514871,
			"-0.002": 44.2066800431,
			"-0.001": 32.8975181791,
			"0.0": 26.6578711583,
			"0.001": 23.2781249755,
			"0.002": 17.0112931582,
			"0.003": 16.9066396625,
			"0.004": 11.1810320185,
			"0.005": 7.04448761225,
			"0.006": 5.20211595376,
			"0.007": 6.06982100493,
			"0.008": 4.18078107298,
			"0.009": 4.9150517499,
			"0.01": 4.41638765191,
			"0.011": 5.74056479213,
			"0.012": 7.50205622545,
			"0.013": 4.67599756568,
			"0.014": 4.97800162675,
			"0.015": 0.268596035239,
			"0.016": 0.0,
			"0.017": 0.0,
			"0.018": 0.0,
			"0.019": 0.0,
			"0.02": 0.0,
			"0.021": 0.0,
			"0.022": 0.0,
			"0.023": 0.0,
			"0.024": 0.0,
			"0.025": 0.0
		}
	}
}
