{
	 "smiles": "CNCC1CCN(CC(O)C2=CC=CC=C2)CC1", 
	 "Tm": 321.15, 
	 "num_atms": 42, 
	 "gaussian": { 
		 "optdone": 1, 
		 "sigma_profile": "yes", 
		 "theory": "DFT", 
		 "functional": "B3LYP", 
		 "basiset": "6-31G**", 
		 "properties": { 
			 "R2extent": 8390.3735, 
			 "electric_dipole_moment_norm": 3.05917096286, 
			 "electric_quadrupole_moment_norm": 10.3096451045, 
			 "total_energy": -770.771376228, 
			 "HOMO_LUMO_gap": 0.22623, 
			 "cosmo_polarized_energy": -10.32, 
			 "cosmo_cavitation_energy": 41.5, 
			 "cosmo_dispersion_energy": -29.37, 
			 "cosmo_repulsion_energy": 2.29, 
			 "cosmo_total_nonelectrostatic_energy": 14.42, 
			 "SMD_solvation_energy": 4.48 
		},
		"coords": [
			{
				"x": -5.0495983932,
				"y": 1.7111309171,
				"z": 3.4540223762,
				"element": "C" 
			},
			{
				"x": -3.7338973092,
				"y": 1.5491996563,
				"z": 2.8466569251,
				"element": "N" 
			},
			{
				"x": -3.7937880388,
				"y": 1.0084327671,
				"z": 1.490687526,
				"element": "C" 
			},
			{
				"x": -2.4075809403,
				"y": 0.7802583218,
				"z": 0.8682474088,
				"element": "C" 
			},
			{
				"x": -1.5000245598,
				"y": -0.1066101402,
				"z": 1.7325864978,
				"element": "C" 
			},
			{
				"x": -0.2079927343,
				"y": -0.4812586171,
				"z": 0.9783511749,
				"element": "C" 
			},
			{
				"x": 0.1850066678,
				"y": 0.5593498047,
				"z": 0.0067499933,
				"element": "N" 
			},
			{
				"x": 1.5572198547,
				"y": 0.3991585524,
				"z": -0.4707507111,
				"element": "C" 
			},
			{
				"x": 1.643391899,
				"y": -0.7810755178,
				"z": -1.469900609,
				"element": "C" 
			},
			{
				"x": 0.5875622759,
				"y": -0.6562965491,
				"z": -2.404059756,
				"element": "O" 
			},
			{
				"x": 2.9873389946,
				"y": -0.7930387023,
				"z": -2.1716114719,
				"element": "C" 
			},
			{
				"x": 3.1431970996,
				"y": -0.2062832636,
				"z": -3.4324397471,
				"element": "C" 
			},
			{
				"x": 4.3952177328,
				"y": -0.1803886101,
				"z": -4.0487534418,
				"element": "C" 
			},
			{
				"x": 5.5066032252,
				"y": -0.7358533593,
				"z": -3.411413479,
				"element": "C" 
			},
			{
				"x": 5.3574789305,
				"y": -1.3259432473,
				"z": -2.154551693,
				"element": "C" 
			},
			{
				"x": 4.1040095445,
				"y": -1.3574173839,
				"z": -1.5423721016,
				"element": "C" 
			},
			{
				"x": -0.1359455937,
				"y": 1.9024778483,
				"z": 0.4971094085,
				"element": "C" 
			},
			{
				"x": -1.665137508,
				"y": 2.0996434537,
				"z": 0.5326637442,
				"element": "C" 
			},
			{
				"x": -4.9457330809,
				"y": 2.1761521603,
				"z": 4.4392009438,
				"element": "H" 
			},
			{
				"x": -5.5089610241,
				"y": 0.7265992361,
				"z": 3.5993425829,
				"element": "H" 
			},
			{
				"x": -5.7559423523,
				"y": 2.3195614168,
				"z": 2.8590570239,
				"element": "H" 
			},
			{
				"x": -3.2670221638,
				"y": 2.4521031426,
				"z": 2.8301882707,
				"element": "H" 
			},
			{
				"x": -4.3975916552,
				"y": 1.637596087,
				"z": 0.8057020529,
				"element": "H" 
			},
			{
				"x": -4.3120297457,
				"y": 0.0417509467,
				"z": 1.5505441024,
				"element": "H" 
			},
			{
				"x": -2.5817517418,
				"y": 0.2540833444,
				"z": -0.0796067364,
				"element": "H" 
			},
			{
				"x": -1.2682918108,
				"y": 0.4217957147,
				"z": 2.6626120412,
				"element": "H" 
			},
			{
				"x": -2.0246064002,
				"y": -1.0211472957,
				"z": 2.0301722046,
				"element": "H" 
			},
			{
				"x": -0.3555410365,
				"y": -1.4183359353,
				"z": 0.4290362063,
				"element": "H" 
			},
			{
				"x": 0.6057043134,
				"y": -0.6609559595,
				"z": 1.7047717121,
				"element": "H" 
			},
			{
				"x": 2.2838947304,
				"y": 0.2556411155,
				"z": 0.3486566459,
				"element": "H" 
			},
			{
				"x": 1.8397346291,
				"y": 1.3105118595,
				"z": -1.0085148955,
				"element": "H" 
			},
			{
				"x": 1.5433564332,
				"y": -1.7259330998,
				"z": -0.9081054464,
				"element": "H" 
			},
			{
				"x": -0.104624924,
				"y": -0.178594246,
				"z": -1.9094092217,
				"element": "H" 
			},
			{
				"x": 2.2698268175,
				"y": 0.208629441,
				"z": -3.9235635057,
				"element": "H" 
			},
			{
				"x": 4.5024436796,
				"y": 0.2713708453,
				"z": -5.0313420836,
				"element": "H" 
			},
			{
				"x": 6.4800793178,
				"y": -0.7166023615,
				"z": -3.8933774918,
				"element": "H" 
			},
			{
				"x": 6.2145234934,
				"y": -1.7693213632,
				"z": -1.6549778862,
				"element": "H" 
			},
			{
				"x": 3.9901250825,
				"y": -1.8319665722,
				"z": -0.5698668469,
				"element": "H" 
			},
			{
				"x": 0.2978249879,
				"y": 2.0793997629,
				"z": 1.4985602605,
				"element": "H" 
			},
			{
				"x": 0.3230746995,
				"y": 2.6358479796,
				"z": -0.1727671543,
				"element": "H" 
			},
			{
				"x": -1.8928321233,
				"y": 2.8802710204,
				"z": 1.2698759005,
				"element": "H" 
			},
			{
				"x": -2.0164212726,
				"y": 2.4746568297,
				"z": -0.4351107233,
				"element": "H" 
			}
		],
		 "valence_orbital": [ 
			{
				"type": "occ",
				"energy": -0.26151,
				"method": "rhf"
			},
			{
				"type": "occ",
				"energy": -0.24059,
				"method": "rhf"
			},
			{
				"type": "occ",
				"energy": -0.23395,
				"method": "rhf"
			},
			{
				"type": "occ",
				"energy": -0.2219,
				"method": "rhf"
			},
			{
				"type": "occ",
				"energy": -0.21964,
				"method": "rhf"
			},
			{
				"type": "unocc",
				"energy": 0.00659,
				"method": "rhf"
			},
			{
				"type": "unocc",
				"energy": 0.00868,
				"method": "rhf"
			},
			{
				"type": "unocc",
				"energy": 0.06778,
				"method": "rhf"
			},
			{
				"type": "unocc",
				"energy": 0.08211,
				"method": "rhf"
			},
			{
				"type": "unocc",
				"energy": 0.09339,
				"method": "rhf"
			}
		],
		"cosmo_sigma_profile": { 
			"-0.025": 0.0,
			"-0.024": 0.0,
			"-0.023": 0.0,
			"-0.022": 0.0,
			"-0.021": 0.0,
			"-0.02": 0.0,
			"-0.019": 0.0,
			"-0.018": 0.0,
			"-0.017": 0.0,
			"-0.016": 0.0,
			"-0.015": 0.0,
			"-0.014": 0.0,
			"-0.013": 0.0,
			"-0.012": 0.0,
			"-0.011": 0.0,
			"-0.01": 0.131393203501,
			"-0.009": 0.984591078031,
			"-0.008": 1.41617870451,
			"-0.007": 1.71171906983,
			"-0.006": 3.23336093768,
			"-0.005": 13.0434018591,
			"-0.004": 20.4919881493,
			"-0.003": 33.5566855817,
			"-0.002": 51.8866131828,
			"-0.001": 57.36117228,
			"0.0": 41.5884085027,
			"0.001": 20.6749654536,
			"0.002": 10.6344015877,
			"0.003": 11.0482895408,
			"0.004": 10.3701373889,
			"0.005": 11.2013896525,
			"0.006": 11.594449653,
			"0.007": 4.95633130164,
			"0.008": 1.82396029996,
			"0.009": 2.58510286439,
			"0.01": 2.06636685667,
			"0.011": 1.66718962321,
			"0.012": 1.99434491831,
			"0.013": 2.06273895255,
			"0.014": 1.19832444348,
			"0.015": 1.74699566519,
			"0.016": 0.722926967203,
			"0.017": 0.178877711884,
			"0.018": 0.0,
			"0.019": 0.0,
			"0.02": 0.0,
			"0.021": 0.0,
			"0.022": 0.0,
			"0.023": 0.0,
			"0.024": 0.0,
			"0.025": 0.0
		}
	}
}
