{
	 "smiles": "OC(=O)C1CSC2=C(O1)C=CC=C2", 
	 "Tm": 400.15, 
	 "num_atms": 21, 
	 "gaussian": { 
		 "optdone": 1, 
		 "sigma_profile": "yes", 
		 "theory": "DFT", 
		 "functional": "B3LYP", 
		 "basiset": "6-31G**", 
		 "properties": { 
			 "R2extent": 3250.8624, 
			 "electric_dipole_moment_norm": 1.05796165337, 
			 "electric_quadrupole_moment_norm": 6.53115262798, 
			 "total_energy": -971.636799339, 
			 "HOMO_LUMO_gap": 0.20114, 
			 "cosmo_polarized_energy": -12.36, 
			 "cosmo_cavitation_energy": 26.2, 
			 "cosmo_dispersion_energy": -19.81, 
			 "cosmo_repulsion_energy": 1.52, 
			 "cosmo_total_nonelectrostatic_energy": 7.9, 
			 "SMD_solvation_energy": 5.19 
		},
		"coords": [
			{
				"x": 0.7341583509,
				"y": 2.1336788119,
				"z": -1.2986583044,
				"element": "O" 
			},
			{
				"x": 1.8914370345,
				"y": 1.5147897064,
				"z": -1.0185942457,
				"element": "C" 
			},
			{
				"x": 2.9827572596,
				"y": 1.9378261548,
				"z": -1.3299273194,
				"element": "O" 
			},
			{
				"x": 1.7180920248,
				"y": 0.2166980352,
				"z": -0.2204658057,
				"element": "C" 
			},
			{
				"x": 2.452254268,
				"y": -0.9345085036,
				"z": -0.9118001738,
				"element": "C" 
			},
			{
				"x": 1.6820763498,
				"y": -1.3173965372,
				"z": -2.5219854597,
				"element": "S" 
			},
			{
				"x": -0.0180923406,
				"y": -1.3382091006,
				"z": -1.9859016707,
				"element": "C" 
			},
			{
				"x": -0.4445730121,
				"y": -0.7263521493,
				"z": -0.7961465204,
				"element": "C" 
			},
			{
				"x": 0.3756614012,
				"y": -0.0882815871,
				"z": 0.1070974521,
				"element": "O" 
			},
			{
				"x": -1.7951453382,
				"y": -0.7719659209,
				"z": -0.4332772878,
				"element": "C" 
			},
			{
				"x": -2.726471332,
				"y": -1.4023162098,
				"z": -1.2509472227,
				"element": "C" 
			},
			{
				"x": -2.3136449205,
				"y": -2.0027608944,
				"z": -2.4441032566,
				"element": "C" 
			},
			{
				"x": -0.9684613999,
				"y": -1.9750081221,
				"z": -2.7976986387,
				"element": "C" 
			},
			{
				"x": 0.9671875044,
				"y": 2.9309293517,
				"z": -1.8047075947,
				"element": "H" 
			},
			{
				"x": 2.2013153004,
				"y": 0.4022761094,
				"z": 0.74673069,
				"element": "H" 
			},
			{
				"x": 2.4458612816,
				"y": -1.8161520322,
				"z": -0.2662901381,
				"element": "H" 
			},
			{
				"x": 3.4814687294,
				"y": -0.6361825546,
				"z": -1.1154176524,
				"element": "H" 
			},
			{
				"x": -2.0859269096,
				"y": -0.2941093438,
				"z": 0.4966188177,
				"element": "H" 
			},
			{
				"x": -3.7714921137,
				"y": -1.4239536601,
				"z": -0.9572690162,
				"element": "H" 
			},
			{
				"x": -3.0317796187,
				"y": -2.4985287611,
				"z": -3.0896584106,
				"element": "H" 
			},
			{
				"x": -0.6350825193,
				"y": -2.4559727926,
				"z": -3.7131982425,
				"element": "H" 
			}
		],
		 "valence_orbital": [ 
			{
				"type": "occ",
				"energy": -0.31408,
				"method": "rhf"
			},
			{
				"type": "occ",
				"energy": -0.28739,
				"method": "rhf"
			},
			{
				"type": "occ",
				"energy": -0.28511,
				"method": "rhf"
			},
			{
				"type": "occ",
				"energy": -0.23386,
				"method": "rhf"
			},
			{
				"type": "occ",
				"energy": -0.21014,
				"method": "rhf"
			},
			{
				"type": "unocc",
				"energy": -0.009,
				"method": "rhf"
			},
			{
				"type": "unocc",
				"energy": -0.00593,
				"method": "rhf"
			},
			{
				"type": "unocc",
				"energy": 0.00787,
				"method": "rhf"
			},
			{
				"type": "unocc",
				"energy": 0.02857,
				"method": "rhf"
			},
			{
				"type": "unocc",
				"energy": 0.06558,
				"method": "rhf"
			}
		],
		"cosmo_sigma_profile": { 
			"-0.025": 0.0,
			"-0.024": 0.0,
			"-0.023": 0.0,
			"-0.022": 0.0,
			"-0.021": 0.0,
			"-0.02": 0.0,
			"-0.019": 0.533817655122,
			"-0.018": 1.02361471456,
			"-0.017": 0.956127876342,
			"-0.016": 0.739983694527,
			"-0.015": 0.846657478428,
			"-0.014": 0.854923749673,
			"-0.013": 0.585508684812,
			"-0.012": 0.686899052912,
			"-0.011": 0.815115419511,
			"-0.01": 0.884022992519,
			"-0.009": 3.22038528725,
			"-0.008": 4.84700428515,
			"-0.007": 8.54517465565,
			"-0.006": 13.2633486514,
			"-0.005": 13.8667280919,
			"-0.004": 14.9747011523,
			"-0.003": 11.1180127853,
			"-0.002": 10.0586420622,
			"-0.001": 9.29090629615,
			"0.0": 7.91325118828,
			"0.001": 9.40554111941,
			"0.002": 12.1000000975,
			"0.003": 15.9701466163,
			"0.004": 17.2467097966,
			"0.005": 17.2244949465,
			"0.006": 8.28949281432,
			"0.007": 6.30488897336,
			"0.008": 6.05284211132,
			"0.009": 3.98207108209,
			"0.01": 2.61637755401,
			"0.011": 5.11386191709,
			"0.012": 1.3064994825,
			"0.013": 0.0,
			"0.014": 0.0,
			"0.015": 0.0,
			"0.016": 0.0,
			"0.017": 0.0,
			"0.018": 0.0,
			"0.019": 0.0,
			"0.02": 0.0,
			"0.021": 0.0,
			"0.022": 0.0,
			"0.023": 0.0,
			"0.024": 0.0,
			"0.025": 0.0
		}
	}
}
