{
	 "smiles": "ON=C(Cl)C1=C(Cl)C=CC=C1Cl", 
	 "Tm": 360.15, 
	 "num_atms": 16, 
	 "gaussian": { 
		 "optdone": 1, 
		 "sigma_profile": "yes", 
		 "theory": "DFT", 
		 "functional": "B3LYP", 
		 "basiset": "6-31G**", 
		 "properties": { 
			 "R2extent": 3051.2443, 
			 "electric_dipole_moment_norm": 2.71887688945, 
			 "electric_quadrupole_moment_norm": 13.8600030346, 
			 "total_energy": -1779.63595436, 
			 "HOMO_LUMO_gap": 0.21284, 
			 "cosmo_polarized_energy": -9.64, 
			 "cosmo_cavitation_energy": 26.72, 
			 "cosmo_dispersion_energy": -19.18, 
			 "cosmo_repulsion_energy": 1.56, 
			 "cosmo_total_nonelectrostatic_energy": 9.1, 
			 "SMD_solvation_energy": 3.86 
		},
		"coords": [
			{
				"x": 1.3918557075,
				"y": -2.845219888,
				"z": -0.4664300352,
				"element": "O" 
			},
			{
				"x": 1.602822204,
				"y": -1.5128922888,
				"z": -0.1651225794,
				"element": "N" 
			},
			{
				"x": 0.6411501796,
				"y": -0.7421963732,
				"z": -0.4763775503,
				"element": "C" 
			},
			{
				"x": -0.8531260845,
				"y": -1.2877958359,
				"z": -1.2304892368,
				"element": "Cl" 
			},
			{
				"x": 0.751778539,
				"y": 0.7134733824,
				"z": -0.2008932266,
				"element": "C" 
			},
			{
				"x": 1.285924236,
				"y": 1.5996307385,
				"z": -1.1521003038,
				"element": "C" 
			},
			{
				"x": 1.8446823648,
				"y": 0.9870387428,
				"z": -2.6945812791,
				"element": "Cl" 
			},
			{
				"x": 1.3873239452,
				"y": 2.9675901877,
				"z": -0.9059460095,
				"element": "C" 
			},
			{
				"x": 0.9445916359,
				"y": 3.4745466225,
				"z": 0.3140015815,
				"element": "C" 
			},
			{
				"x": 0.4060713934,
				"y": 2.6282820118,
				"z": 1.2810202835,
				"element": "C" 
			},
			{
				"x": 0.3131754658,
				"y": 1.2632560256,
				"z": 1.0159666663,
				"element": "C" 
			},
			{
				"x": -0.3714590388,
				"y": 0.2206116826,
				"z": 2.2451280276,
				"element": "Cl" 
			},
			{
				"x": 2.212174684,
				"y": -3.2592972558,
				"z": -0.1631071037,
				"element": "H" 
			},
			{
				"x": 1.8080929146,
				"y": 3.6184689386,
				"z": -1.6633626484,
				"element": "H" 
			},
			{
				"x": 1.0198586055,
				"y": 4.5390180547,
				"z": 0.5129246641,
				"element": "H" 
			},
			{
				"x": 0.0599832479,
				"y": 3.0139852545,
				"z": 2.2327687499,
				"element": "H" 
			}
		],
		 "valence_orbital": [ 
			{
				"type": "occ",
				"energy": -0.31955,
				"method": "rhf"
			},
			{
				"type": "occ",
				"energy": -0.29872,
				"method": "rhf"
			},
			{
				"type": "occ",
				"energy": -0.27242,
				"method": "rhf"
			},
			{
				"type": "occ",
				"energy": -0.26528,
				"method": "rhf"
			},
			{
				"type": "occ",
				"energy": -0.25918,
				"method": "rhf"
			},
			{
				"type": "unocc",
				"energy": -0.04634,
				"method": "rhf"
			},
			{
				"type": "unocc",
				"energy": -0.03309,
				"method": "rhf"
			},
			{
				"type": "unocc",
				"energy": -0.0162,
				"method": "rhf"
			},
			{
				"type": "unocc",
				"energy": -0.00058,
				"method": "rhf"
			},
			{
				"type": "unocc",
				"energy": 0.03172,
				"method": "rhf"
			}
		],
		"cosmo_sigma_profile": { 
			"-0.025": 0.0,
			"-0.024": 0.0,
			"-0.023": 0.0,
			"-0.022": 0.0,
			"-0.021": 0.0,
			"-0.02": 0.0,
			"-0.019": 0.565820705115,
			"-0.018": 1.25154502264,
			"-0.017": 1.13226030034,
			"-0.016": 0.65086710652,
			"-0.015": 0.679209824176,
			"-0.014": 1.08541158448,
			"-0.013": 0.373074041955,
			"-0.012": 0.590367388349,
			"-0.011": 0.967124351442,
			"-0.01": 0.794207406919,
			"-0.009": 1.1111043958,
			"-0.008": 6.162703802,
			"-0.007": 7.38331000269,
			"-0.006": 6.87851285524,
			"-0.005": 5.39382063628,
			"-0.004": 5.86820838807,
			"-0.003": 7.8483463476,
			"-0.002": 10.872213765,
			"-0.001": 14.0263496193,
			"0.0": 26.769676234,
			"0.001": 25.1085381145,
			"0.002": 26.7147144355,
			"0.003": 31.5632675657,
			"0.004": 19.5979920825,
			"0.005": 4.32372572774,
			"0.006": 2.7557769041,
			"0.007": 3.12440431592,
			"0.008": 2.84133580587,
			"0.009": 3.25279686195,
			"0.01": 1.6534250917,
			"0.011": 0.0813174526534,
			"0.012": 0.0,
			"0.013": 0.0,
			"0.014": 0.0,
			"0.015": 0.0,
			"0.016": 0.0,
			"0.017": 0.0,
			"0.018": 0.0,
			"0.019": 0.0,
			"0.02": 0.0,
			"0.021": 0.0,
			"0.022": 0.0,
			"0.023": 0.0,
			"0.024": 0.0,
			"0.025": 0.0
		}
	}
}
