{
	 "smiles": "CCCCCCCCS", 
	 "Tm": 224.05, 
	 "num_atms": 27, 
	 "gaussian": { 
		 "optdone": 1, 
		 "sigma_profile": "yes", 
		 "theory": "DFT", 
		 "functional": "B3LYP", 
		 "basiset": "6-31G**", 
		 "properties": { 
			 "R2extent": 3567.8525, 
			 "electric_dipole_moment_norm": 1.94437009337, 
			 "electric_quadrupole_moment_norm": 12.6953889803, 
			 "total_energy": -713.90854268, 
			 "HOMO_LUMO_gap": 0.26358, 
			 "cosmo_polarized_energy": -4.34, 
			 "cosmo_cavitation_energy": 29.16, 
			 "cosmo_dispersion_energy": -20.98, 
			 "cosmo_repulsion_energy": 1.7, 
			 "cosmo_total_nonelectrostatic_energy": 9.88, 
			 "SMD_solvation_energy": 3.62 
		},
		"coords": [
			{
				"x": 2.0004893323,
				"y": -1.3763501388,
				"z": -3.3159578781,
				"element": "C" 
			},
			{
				"x": 1.424703229,
				"y": -0.9913234751,
				"z": -1.9490610387,
				"element": "C" 
			},
			{
				"x": 0.8583506295,
				"y": 0.4352277911,
				"z": -1.9198882512,
				"element": "C" 
			},
			{
				"x": 0.3543212512,
				"y": 0.9005505207,
				"z": -0.5424974264,
				"element": "C" 
			},
			{
				"x": -0.8226363034,
				"y": 0.1008323585,
				"z": 0.0480546191,
				"element": "C" 
			},
			{
				"x": -2.1132675285,
				"y": 0.08758359,
				"z": -0.7919666917,
				"element": "C" 
			},
			{
				"x": -2.7504160054,
				"y": 1.4600195539,
				"z": -1.0648469199,
				"element": "C" 
			},
			{
				"x": -3.159020733,
				"y": 2.2652037297,
				"z": 0.1745666174,
				"element": "C" 
			},
			{
				"x": -4.5051884341,
				"y": 1.5262275962,
				"z": 1.2003113358,
				"element": "S" 
			},
			{
				"x": 1.2344313426,
				"y": -1.3221968564,
				"z": -4.0981066362,
				"element": "H" 
			},
			{
				"x": 2.8150593166,
				"y": -0.703051093,
				"z": -3.6067013777,
				"element": "H" 
			},
			{
				"x": 2.3979569727,
				"y": -2.3965914444,
				"z": -3.3113082009,
				"element": "H" 
			},
			{
				"x": 0.6430665078,
				"y": -1.7103086255,
				"z": -1.6725691371,
				"element": "H" 
			},
			{
				"x": 2.2066423178,
				"y": -1.0838113158,
				"z": -1.1824856479,
				"element": "H" 
			},
			{
				"x": 0.0534553404,
				"y": 0.5187052831,
				"z": -2.6631000393,
				"element": "H" 
			},
			{
				"x": 1.6410529826,
				"y": 1.1305569246,
				"z": -2.2528988728,
				"element": "H" 
			},
			{
				"x": 1.1892866272,
				"y": 0.8583832839,
				"z": 0.1701599246,
				"element": "H" 
			},
			{
				"x": 0.0775346718,
				"y": 1.9607318593,
				"z": -0.6102985659,
				"element": "H" 
			},
			{
				"x": -0.5105465237,
				"y": -0.9379748883,
				"z": 0.2124107047,
				"element": "H" 
			},
			{
				"x": -1.039725156,
				"y": 0.4985950763,
				"z": 1.0485942639,
				"element": "H" 
			},
			{
				"x": -1.9164730067,
				"y": -0.3937711577,
				"z": -1.7578186553,
				"element": "H" 
			},
			{
				"x": -2.851188067,
				"y": -0.5526946949,
				"z": -0.2924402385,
				"element": "H" 
			},
			{
				"x": -2.0530245974,
				"y": 2.0831790576,
				"z": -1.6417867884,
				"element": "H" 
			},
			{
				"x": -3.6341884422,
				"y": 1.3194447102,
				"z": -1.6976914195,
				"element": "H" 
			},
			{
				"x": -3.5719411041,
				"y": 3.2312978456,
				"z": -0.1299811463,
				"element": "H" 
			},
			{
				"x": -2.3047073385,
				"y": 2.477000632,
				"z": 0.8229874611,
				"element": "H" 
			},
			{
				"x": -3.8012272813,
				"y": 0.4901338774,
				"z": 1.697720005,
				"element": "H" 
			}
		],
		 "valence_orbital": [ 
			{
				"type": "occ",
				"energy": -0.32041,
				"method": "rhf"
			},
			{
				"type": "occ",
				"energy": -0.31327,
				"method": "rhf"
			},
			{
				"type": "occ",
				"energy": -0.31093,
				"method": "rhf"
			},
			{
				"type": "occ",
				"energy": -0.30567,
				"method": "rhf"
			},
			{
				"type": "occ",
				"energy": -0.23407,
				"method": "rhf"
			},
			{
				"type": "unocc",
				"energy": 0.02951,
				"method": "rhf"
			},
			{
				"type": "unocc",
				"energy": 0.06294,
				"method": "rhf"
			},
			{
				"type": "unocc",
				"energy": 0.07836,
				"method": "rhf"
			},
			{
				"type": "unocc",
				"energy": 0.09792,
				"method": "rhf"
			},
			{
				"type": "unocc",
				"energy": 0.10938,
				"method": "rhf"
			}
		],
		"cosmo_sigma_profile": { 
			"-0.025": 0.0,
			"-0.024": 0.0,
			"-0.023": 0.0,
			"-0.022": 0.0,
			"-0.021": 0.0,
			"-0.02": 0.0,
			"-0.019": 0.0,
			"-0.018": 0.0,
			"-0.017": 0.0,
			"-0.016": 0.0,
			"-0.015": 0.0,
			"-0.014": 0.0,
			"-0.013": 0.0,
			"-0.012": 0.0,
			"-0.011": 0.0,
			"-0.01": 0.0,
			"-0.009": 0.0729363340103,
			"-0.008": 1.16791445608,
			"-0.007": 1.64865283338,
			"-0.006": 2.80131829117,
			"-0.005": 6.05503590053,
			"-0.004": 7.68236009047,
			"-0.003": 12.8992714695,
			"-0.002": 33.6923459966,
			"-0.001": 41.6753479815,
			"0.0": 39.7438901057,
			"0.001": 36.0147578689,
			"0.002": 15.8827466813,
			"0.003": 3.88927798013,
			"0.004": 3.58878082189,
			"0.005": 3.09556322518,
			"0.006": 3.71041246841,
			"0.007": 3.47875608385,
			"0.008": 2.97346595223,
			"0.009": 1.83795275402,
			"0.01": 2.50562045074,
			"0.011": 1.88219392847,
			"0.012": 0.307063801993,
			"0.013": 0.0,
			"0.014": 0.0,
			"0.015": 0.0,
			"0.016": 0.0,
			"0.017": 0.0,
			"0.018": 0.0,
			"0.019": 0.0,
			"0.02": 0.0,
			"0.021": 0.0,
			"0.022": 0.0,
			"0.023": 0.0,
			"0.024": 0.0,
			"0.025": 0.0
		}
	}
}
