{
	 "smiles": "CN1C=CC(=N1)N1CCCC(Br)C1=O", 
	 "Tm": 378.15, 
	 "num_atms": 26, 
	 "gaussian": { 
		 "optdone": 1, 
		 "sigma_profile": "yes", 
		 "theory": "DFT", 
		 "functional": "B3LYP", 
		 "basiset": "6-31G**", 
		 "properties": { 
			 "R2extent": 6013.515, 
			 "electric_dipole_moment_norm": 4.13936177327, 
			 "electric_quadrupole_moment_norm": 21.4965613778, 
			 "total_energy": -3161.06783793, 
			 "HOMO_LUMO_gap": 0.17968, 
			 "cosmo_polarized_energy": -12.51, 
			 "cosmo_cavitation_energy": 30.35, 
			 "cosmo_dispersion_energy": -22.85, 
			 "cosmo_repulsion_energy": 1.8, 
			 "cosmo_total_nonelectrostatic_energy": 9.3, 
			 "SMD_solvation_energy": 3.74 
		},
		"coords": [
			{
				"x": 1.8736313374,
				"y": -3.0005562928,
				"z": -1.9205670446,
				"element": "C" 
			},
			{
				"x": 2.1692564924,
				"y": -2.1292068379,
				"z": -0.8023642566,
				"element": "N" 
			},
			{
				"x": 3.0412665859,
				"y": -2.3290818136,
				"z": 0.2182316903,
				"element": "C" 
			},
			{
				"x": 2.965896008,
				"y": -1.2302327294,
				"z": 1.0509406378,
				"element": "C" 
			},
			{
				"x": 1.9954578819,
				"y": -0.4027347507,
				"z": 0.4310535594,
				"element": "C" 
			},
			{
				"x": 1.5144430856,
				"y": -0.9521986843,
				"z": -0.6890066776,
				"element": "N" 
			},
			{
				"x": 1.5156400184,
				"y": 0.8627134256,
				"z": 0.8275569424,
				"element": "N" 
			},
			{
				"x": 0.4569114499,
				"y": 1.5036635185,
				"z": 0.0197085484,
				"element": "C" 
			},
			{
				"x": 0.742958635,
				"y": 2.9933498974,
				"z": -0.2153760878,
				"element": "C" 
			},
			{
				"x": 1.2874770707,
				"y": 3.7114168414,
				"z": 1.0442691506,
				"element": "C" 
			},
			{
				"x": 1.3049634201,
				"y": 2.8194489494,
				"z": 2.2808645397,
				"element": "C" 
			},
			{
				"x": -0.5320269536,
				"y": 2.616270171,
				"z": 3.0693915503,
				"element": "Br" 
			},
			{
				"x": 1.9069999369,
				"y": 1.4418198872,
				"z": 2.0130535951,
				"element": "C" 
			},
			{
				"x": 2.7236608626,
				"y": 0.9643768733,
				"z": 2.790996218,
				"element": "O" 
			},
			{
				"x": 2.5026831404,
				"y": -3.8894368326,
				"z": -1.8493467276,
				"element": "H" 
			},
			{
				"x": 0.8219697922,
				"y": -3.3007306883,
				"z": -1.9023805403,
				"element": "H" 
			},
			{
				"x": 2.0788260737,
				"y": -2.4886538923,
				"z": -2.8649936694,
				"element": "H" 
			},
			{
				"x": 3.6434066764,
				"y": -3.2242844208,
				"z": 0.2794926808,
				"element": "H" 
			},
			{
				"x": 3.5059295459,
				"y": -1.0356172782,
				"z": 1.9592842827,
				"element": "H" 
			},
			{
				"x": -0.5020011359,
				"y": 1.3730677884,
				"z": 0.5300242683,
				"element": "H" 
			},
			{
				"x": 0.4076159684,
				"y": 0.9665789534,
				"z": -0.9252769882,
				"element": "H" 
			},
			{
				"x": -0.1858991472,
				"y": 3.4619204636,
				"z": -0.5545976103,
				"element": "H" 
			},
			{
				"x": 1.4655067836,
				"y": 3.0969788797,
				"z": -1.030873732,
				"element": "H" 
			},
			{
				"x": 2.3308302231,
				"y": 4.008753489,
				"z": 0.8772612416,
				"element": "H" 
			},
			{
				"x": 0.7348891267,
				"y": 4.6296645809,
				"z": 1.2583743814,
				"element": "H" 
			},
			{
				"x": 1.8708071211,
				"y": 3.2541105021,
				"z": 3.1009800477,
				"element": "H" 
			}
		],
		 "valence_orbital": [ 
			{
				"type": "occ",
				"energy": -0.28145,
				"method": "rhf"
			},
			{
				"type": "occ",
				"energy": -0.27244,
				"method": "rhf"
			},
			{
				"type": "occ",
				"energy": -0.24923,
				"method": "rhf"
			},
			{
				"type": "occ",
				"energy": -0.24329,
				"method": "rhf"
			},
			{
				"type": "occ",
				"energy": -0.21357,
				"method": "rhf"
			},
			{
				"type": "unocc",
				"energy": -0.03389,
				"method": "rhf"
			},
			{
				"type": "unocc",
				"energy": 0.01986,
				"method": "rhf"
			},
			{
				"type": "unocc",
				"energy": 0.045,
				"method": "rhf"
			},
			{
				"type": "unocc",
				"energy": 0.08234,
				"method": "rhf"
			},
			{
				"type": "unocc",
				"energy": 0.09294,
				"method": "rhf"
			}
		],
		"cosmo_sigma_profile": { 
			"-0.025": 0.0,
			"-0.024": 0.0,
			"-0.023": 0.0,
			"-0.022": 0.0,
			"-0.021": 0.0,
			"-0.02": 0.0,
			"-0.019": 0.0,
			"-0.018": 0.0,
			"-0.017": 0.0,
			"-0.016": 0.0,
			"-0.015": 0.0,
			"-0.014": 0.0,
			"-0.013": 0.0,
			"-0.012": 0.0,
			"-0.011": 0.0,
			"-0.01": 5.80489320268e-05,
			"-0.009": 2.34239075453,
			"-0.008": 4.83992125735,
			"-0.007": 6.35794697464,
			"-0.006": 10.8561458599,
			"-0.005": 16.3880891823,
			"-0.004": 26.2176879713,
			"-0.003": 28.2440339593,
			"-0.002": 19.7613395795,
			"-0.001": 15.9183614889,
			"0.0": 11.59000334,
			"0.001": 11.8599154835,
			"0.002": 11.6691947015,
			"0.003": 13.9845746419,
			"0.004": 16.1131761012,
			"0.005": 16.7910097852,
			"0.006": 8.65488614324,
			"0.007": 3.18518585559,
			"0.008": 2.6754871902,
			"0.009": 3.40345546571,
			"0.01": 2.83599405809,
			"0.011": 3.6641445597,
			"0.012": 3.01008428876,
			"0.013": 2.33378196832,
			"0.014": 0.618877659517,
			"0.015": 0.0,
			"0.016": 0.0,
			"0.017": 0.0,
			"0.018": 0.0,
			"0.019": 0.0,
			"0.02": 0.0,
			"0.021": 0.0,
			"0.022": 0.0,
			"0.023": 0.0,
			"0.024": 0.0,
			"0.025": 0.0
		}
	}
}
