{
	 "smiles": "COC(=O)C1=C(C=C(F)C=C1)S(Cl)(=O)=O", 
	 "Tm": 337.15, 
	 "num_atms": 21, 
	 "gaussian": { 
		 "optdone": 1, 
		 "sigma_profile": "yes", 
		 "theory": "DFT", 
		 "functional": "B3LYP", 
		 "basiset": "6-31G**", 
		 "properties": { 
			 "R2extent": 4707.8494, 
			 "electric_dipole_moment_norm": 5.94095541895, 
			 "electric_quadrupole_moment_norm": 8.8913481385, 
			 "total_energy": -1567.50048168, 
			 "HOMO_LUMO_gap": 0.18905, 
			 "cosmo_polarized_energy": -13.08, 
			 "cosmo_cavitation_energy": 29.78, 
			 "cosmo_dispersion_energy": -21.86, 
			 "cosmo_repulsion_energy": 1.65, 
			 "cosmo_total_nonelectrostatic_energy": 9.57, 
			 "SMD_solvation_energy": 5.84 
		},
		"coords": [
			{
				"x": 2.0769763094,
				"y": -0.8139512234,
				"z": 1.9791523699,
				"element": "C" 
			},
			{
				"x": 0.8456412849,
				"y": -0.2225511092,
				"z": 1.521435919,
				"element": "O" 
			},
			{
				"x": 0.8887287907,
				"y": 0.2833283312,
				"z": 0.2719587725,
				"element": "C" 
			},
			{
				"x": 1.870056052,
				"y": 0.2601193565,
				"z": -0.4349305648,
				"element": "O" 
			},
			{
				"x": -0.4157763313,
				"y": 0.9255382944,
				"z": -0.0957273726,
				"element": "C" 
			},
			{
				"x": -0.9136587438,
				"y": 0.9852615578,
				"z": -1.4121005929,
				"element": "C" 
			},
			{
				"x": -2.0813697935,
				"y": 1.6793050637,
				"z": -1.7215740324,
				"element": "C" 
			},
			{
				"x": -2.7549949201,
				"y": 2.3345532708,
				"z": -0.6962662264,
				"element": "C" 
			},
			{
				"x": -3.8738500833,
				"y": 3.0115837298,
				"z": -0.9911653808,
				"element": "F" 
			},
			{
				"x": -2.3107491428,
				"y": 2.2903462068,
				"z": 0.618375997,
				"element": "C" 
			},
			{
				"x": -1.148277803,
				"y": 1.5795361932,
				"z": 0.905495811,
				"element": "C" 
			},
			{
				"x": -0.2240531967,
				"y": 0.0454651828,
				"z": -2.8038180393,
				"element": "S" 
			},
			{
				"x": 1.3835351681,
				"y": 1.2543242629,
				"z": -3.4388051279,
				"element": "Cl" 
			},
			{
				"x": -1.1970412242,
				"y": 0.1042563505,
				"z": -3.8899047145,
				"element": "O" 
			},
			{
				"x": 0.2992930242,
				"y": -1.2277585241,
				"z": -2.3330790994,
				"element": "O" 
			},
			{
				"x": 1.8681791876,
				"y": -1.1802269592,
				"z": 2.9836540674,
				"element": "H" 
			},
			{
				"x": 2.3699218117,
				"y": -1.6340964501,
				"z": 1.320229775,
				"element": "H" 
			},
			{
				"x": 2.8761005557,
				"y": -0.0689866337,
				"z": 1.9963610318,
				"element": "H" 
			},
			{
				"x": -2.4701736074,
				"y": 1.6951039787,
				"z": -2.7319232393,
				"element": "H" 
			},
			{
				"x": -2.868950745,
				"y": 2.8028620869,
				"z": 1.393791871,
				"element": "H" 
			},
			{
				"x": -0.7847365932,
				"y": 1.5299870337,
				"z": 1.9248387756,
				"element": "H" 
			}
		],
		 "valence_orbital": [ 
			{
				"type": "occ",
				"energy": -0.31861,
				"method": "rhf"
			},
			{
				"type": "occ",
				"energy": -0.30923,
				"method": "rhf"
			},
			{
				"type": "occ",
				"energy": -0.30205,
				"method": "rhf"
			},
			{
				"type": "occ",
				"energy": -0.29498,
				"method": "rhf"
			},
			{
				"type": "occ",
				"energy": -0.28155,
				"method": "rhf"
			},
			{
				"type": "unocc",
				"energy": -0.0925,
				"method": "rhf"
			},
			{
				"type": "unocc",
				"energy": -0.06447,
				"method": "rhf"
			},
			{
				"type": "unocc",
				"energy": -0.05285,
				"method": "rhf"
			},
			{
				"type": "unocc",
				"energy": 0.02135,
				"method": "rhf"
			},
			{
				"type": "unocc",
				"energy": 0.04753,
				"method": "rhf"
			}
		],
		"cosmo_sigma_profile": { 
			"-0.025": 0.0,
			"-0.024": 0.0,
			"-0.023": 0.0,
			"-0.022": 0.0,
			"-0.021": 0.0,
			"-0.02": 0.0,
			"-0.019": 0.0,
			"-0.018": 0.0,
			"-0.017": 0.0,
			"-0.016": 0.0,
			"-0.015": 0.0,
			"-0.014": 0.0,
			"-0.013": 0.0,
			"-0.012": 0.0,
			"-0.011": 0.0,
			"-0.01": 0.437943770992,
			"-0.009": 4.0193735888,
			"-0.008": 4.9646537375,
			"-0.007": 7.62372574444,
			"-0.006": 11.8488559109,
			"-0.005": 14.5190401158,
			"-0.004": 17.7210404852,
			"-0.003": 21.0272079401,
			"-0.002": 25.3522004114,
			"-0.001": 19.307370008,
			"0.0": 14.581371625,
			"0.001": 11.0318887562,
			"0.002": 14.6857546401,
			"0.003": 22.4016309614,
			"0.004": 8.15413461918,
			"0.005": 5.93635417034,
			"0.006": 4.58656113996,
			"0.007": 9.52049849415,
			"0.008": 10.5022992366,
			"0.009": 7.13404645253,
			"0.01": 3.5635619754,
			"0.011": 2.89114977984,
			"0.012": 0.228674254244,
			"0.013": 0.0,
			"0.014": 0.0,
			"0.015": 0.0,
			"0.016": 0.0,
			"0.017": 0.0,
			"0.018": 0.0,
			"0.019": 0.0,
			"0.02": 0.0,
			"0.021": 0.0,
			"0.022": 0.0,
			"0.023": 0.0,
			"0.024": 0.0,
			"0.025": 0.0
		}
	}
}
