{
	 "smiles": "CC(Cl)C1=NC2=C(C=CC=C2)C(=O)N1", 
	 "Tm": 524.15, 
	 "num_atms": 23, 
	 "gaussian": { 
		 "optdone": 1, 
		 "sigma_profile": "yes", 
		 "theory": "DFT", 
		 "functional": "B3LYP", 
		 "basiset": "6-31G**", 
		 "properties": { 
			 "R2extent": 3789.0803, 
			 "electric_dipole_moment_norm": 2.88535544604, 
			 "electric_quadrupole_moment_norm": 13.178390788, 
			 "total_energy": -1031.4505386, 
			 "HOMO_LUMO_gap": 0.18664, 
			 "cosmo_polarized_energy": -11.8, 
			 "cosmo_cavitation_energy": 28.84, 
			 "cosmo_dispersion_energy": -21.19, 
			 "cosmo_repulsion_energy": 1.66, 
			 "cosmo_total_nonelectrostatic_energy": 9.31, 
			 "SMD_solvation_energy": 3.61 
		},
		"coords": [
			{
				"x": -1.6469838905,
				"y": -0.4447595296,
				"z": -1.8330142723,
				"element": "C" 
			},
			{
				"x": -1.3874972606,
				"y": 0.7632727753,
				"z": -0.934868202,
				"element": "C" 
			},
			{
				"x": -2.969901601,
				"y": 1.3430456327,
				"z": -0.2092616664,
				"element": "Cl" 
			},
			{
				"x": -0.3716342682,
				"y": 0.4742255502,
				"z": 0.1505537845,
				"element": "C" 
			},
			{
				"x": 0.8514830089,
				"y": 0.8343113583,
				"z": -0.0660773788,
				"element": "N" 
			},
			{
				"x": 1.7999032508,
				"y": 0.4758554285,
				"z": 0.8878193461,
				"element": "C" 
			},
			{
				"x": 1.4669039814,
				"y": -0.2465479819,
				"z": 2.059143826,
				"element": "C" 
			},
			{
				"x": 2.4573856428,
				"y": -0.5810837492,
				"z": 2.9947352584,
				"element": "C" 
			},
			{
				"x": 3.7738798443,
				"y": -0.2056616982,
				"z": 2.7721223205,
				"element": "C" 
			},
			{
				"x": 4.1115200516,
				"y": 0.5113861191,
				"z": 1.6104051351,
				"element": "C" 
			},
			{
				"x": 3.1409910065,
				"y": 0.8499374509,
				"z": 0.6789882149,
				"element": "C" 
			},
			{
				"x": 0.070330588,
				"y": -0.6340617863,
				"z": 2.2940684769,
				"element": "C" 
			},
			{
				"x": -0.3672305681,
				"y": -1.2401687381,
				"z": 3.2606084731,
				"element": "O" 
			},
			{
				"x": -0.7830816369,
				"y": -0.2272308509,
				"z": 1.2554337827,
				"element": "N" 
			},
			{
				"x": -2.0485097019,
				"y": -1.2867881446,
				"z": -1.2629461,
				"element": "H" 
			},
			{
				"x": -0.7024335125,
				"y": -0.7517992536,
				"z": -2.2933857666,
				"element": "H" 
			},
			{
				"x": -2.3563600887,
				"y": -0.1870611664,
				"z": -2.6224923217,
				"element": "H" 
			},
			{
				"x": -1.0021761608,
				"y": 1.6030476684,
				"z": -1.5110243662,
				"element": "H" 
			},
			{
				"x": 2.1615395066,
				"y": -1.1326758347,
				"z": 3.8810128932,
				"element": "H" 
			},
			{
				"x": 4.5438420186,
				"y": -0.4633762684,
				"z": 3.4927940591,
				"element": "H" 
			},
			{
				"x": 5.1437598246,
				"y": 0.8039698677,
				"z": 1.4404165594,
				"element": "H" 
			},
			{
				"x": 3.3841475423,
				"y": 1.4036318906,
				"z": -0.2217659127,
				"element": "H" 
			},
			{
				"x": -1.7700775773,
				"y": -0.4130687398,
				"z": 1.3968338568,
				"element": "H" 
			}
		],
		 "valence_orbital": [ 
			{
				"type": "occ",
				"energy": -0.29938,
				"method": "rhf"
			},
			{
				"type": "occ",
				"energy": -0.28506,
				"method": "rhf"
			},
			{
				"type": "occ",
				"energy": -0.26749,
				"method": "rhf"
			},
			{
				"type": "occ",
				"energy": -0.26513,
				"method": "rhf"
			},
			{
				"type": "occ",
				"energy": -0.23636,
				"method": "rhf"
			},
			{
				"type": "unocc",
				"energy": -0.04972,
				"method": "rhf"
			},
			{
				"type": "unocc",
				"energy": -0.04499,
				"method": "rhf"
			},
			{
				"type": "unocc",
				"energy": 0.00702,
				"method": "rhf"
			},
			{
				"type": "unocc",
				"energy": 0.02541,
				"method": "rhf"
			},
			{
				"type": "unocc",
				"energy": 0.07006,
				"method": "rhf"
			}
		],
		"cosmo_sigma_profile": { 
			"-0.025": 0.0,
			"-0.024": 0.0,
			"-0.023": 0.0,
			"-0.022": 0.0,
			"-0.021": 0.0,
			"-0.02": 0.0,
			"-0.019": 0.0,
			"-0.018": 0.0,
			"-0.017": 0.0,
			"-0.016": 0.0,
			"-0.015": 0.0,
			"-0.014": 0.320065737091,
			"-0.013": 0.74117181198,
			"-0.012": 1.21286346836,
			"-0.011": 1.284293865,
			"-0.01": 0.763362809058,
			"-0.009": 1.30477462459,
			"-0.008": 3.06701272387,
			"-0.007": 5.12679101559,
			"-0.006": 12.642683385,
			"-0.005": 18.2083459585,
			"-0.004": 18.3519528643,
			"-0.003": 18.1880765732,
			"-0.002": 18.0117776691,
			"-0.001": 17.9992751754,
			"0.0": 13.3904464716,
			"0.001": 15.7403114337,
			"0.002": 18.4716411326,
			"0.003": 19.1640234952,
			"0.004": 12.0683309532,
			"0.005": 8.86804771218,
			"0.006": 6.22222889993,
			"0.007": 2.03971144268,
			"0.008": 1.69925668457,
			"0.009": 2.3088818002,
			"0.01": 2.51943407955,
			"0.011": 2.53087295745,
			"0.012": 5.13872770623,
			"0.013": 4.90484582073,
			"0.014": 0.272149020234,
			"0.015": 0.0,
			"0.016": 0.0,
			"0.017": 0.0,
			"0.018": 0.0,
			"0.019": 0.0,
			"0.02": 0.0,
			"0.021": 0.0,
			"0.022": 0.0,
			"0.023": 0.0,
			"0.024": 0.0,
			"0.025": 0.0
		}
	}
}
