{
	 "smiles": "OC(=O)C1=C(F)C=CC(F)=C1Cl", 
	 "Tm": 400.15, 
	 "num_atms": 15, 
	 "gaussian": { 
		 "optdone": 1, 
		 "sigma_profile": "yes", 
		 "theory": "DFT", 
		 "functional": "B3LYP", 
		 "basiset": "6-31G**", 
		 "properties": { 
			 "R2extent": 2306.2917, 
			 "electric_dipole_moment_norm": 5.46373005007, 
			 "electric_quadrupole_moment_norm": 8.15995683996, 
			 "total_energy": -1078.85274986, 
			 "HOMO_LUMO_gap": 0.19425, 
			 "cosmo_polarized_energy": -12.77, 
			 "cosmo_cavitation_energy": 22.52, 
			 "cosmo_dispersion_energy": -16.85, 
			 "cosmo_repulsion_energy": 1.29, 
			 "cosmo_total_nonelectrostatic_energy": 6.96, 
			 "SMD_solvation_energy": 5.7 
		},
		"coords": [
			{
				"x": 2.6952620667,
				"y": -1.2210271753,
				"z": 0.1879654364,
				"element": "O" 
			},
			{
				"x": 1.5692519476,
				"y": -0.7192134746,
				"z": -0.3623050903,
				"element": "C" 
			},
			{
				"x": 1.2058057387,
				"y": -1.0868628827,
				"z": -1.4501569043,
				"element": "O" 
			},
			{
				"x": 0.8018963231,
				"y": 0.3003912812,
				"z": 0.4579554947,
				"element": "C" 
			},
			{
				"x": 1.4450216255,
				"y": 1.1742188472,
				"z": 1.3459341276,
				"element": "C" 
			},
			{
				"x": 2.7885268027,
				"y": 1.0403996933,
				"z": 1.5421550237,
				"element": "F" 
			},
			{
				"x": 0.805285493,
				"y": 2.1756608371,
				"z": 2.0570168806,
				"element": "C" 
			},
			{
				"x": -0.5685290847,
				"y": 2.3250056807,
				"z": 1.8982181082,
				"element": "C" 
			},
			{
				"x": -1.2496875563,
				"y": 1.4687805641,
				"z": 1.0434038816,
				"element": "C" 
			},
			{
				"x": -2.5751097156,
				"y": 1.6109396645,
				"z": 0.9150908849,
				"element": "F" 
			},
			{
				"x": -0.5943580419,
				"y": 0.4668925867,
				"z": 0.3180597753,
				"element": "C" 
			},
			{
				"x": -1.5806714261,
				"y": -0.5490471309,
				"z": -0.6822086549,
				"element": "Cl" 
			},
			{
				"x": 2.9308408177,
				"y": -0.7474777802,
				"z": 0.9992031385,
				"element": "H" 
			},
			{
				"x": 1.3803463185,
				"y": 2.8145761652,
				"z": 2.7166624733,
				"element": "H" 
			},
			{
				"x": -1.124381309,
				"y": 3.0879631236,
				"z": 2.4312054247,
				"element": "H" 
			}
		],
		 "valence_orbital": [ 
			{
				"type": "occ",
				"energy": -0.33397,
				"method": "rhf"
			},
			{
				"type": "occ",
				"energy": -0.3192,
				"method": "rhf"
			},
			{
				"type": "occ",
				"energy": -0.28934,
				"method": "rhf"
			},
			{
				"type": "occ",
				"energy": -0.2788,
				"method": "rhf"
			},
			{
				"type": "occ",
				"energy": -0.26673,
				"method": "rhf"
			},
			{
				"type": "unocc",
				"energy": -0.07248,
				"method": "rhf"
			},
			{
				"type": "unocc",
				"energy": -0.0341,
				"method": "rhf"
			},
			{
				"type": "unocc",
				"energy": 0.00633,
				"method": "rhf"
			},
			{
				"type": "unocc",
				"energy": 0.02735,
				"method": "rhf"
			},
			{
				"type": "unocc",
				"energy": 0.07371,
				"method": "rhf"
			}
		],
		"cosmo_sigma_profile": { 
			"-0.025": 0.0,
			"-0.024": 0.0,
			"-0.023": 0.0,
			"-0.022": 0.0,
			"-0.021": 0.0,
			"-0.02": 0.0,
			"-0.019": 0.0,
			"-0.018": 0.0,
			"-0.017": 0.0,
			"-0.016": 0.23682656943,
			"-0.015": 1.06942613557,
			"-0.014": 0.891982441923,
			"-0.013": 0.772221194077,
			"-0.012": 1.09453792525,
			"-0.011": 0.785150254464,
			"-0.01": 1.72603194631,
			"-0.009": 4.91127738964,
			"-0.008": 5.11389514701,
			"-0.007": 5.56415802905,
			"-0.006": 5.49005855365,
			"-0.005": 6.26779175838,
			"-0.004": 7.61680594843,
			"-0.003": 12.1744455318,
			"-0.002": 22.0331200648,
			"-0.001": 15.711905165,
			"0.0": 12.9918274004,
			"0.001": 9.40367272395,
			"0.002": 14.1789297185,
			"0.003": 16.0974446407,
			"0.004": 9.18311487494,
			"0.005": 3.67622803667,
			"0.006": 3.51282717589,
			"0.007": 2.49815653473,
			"0.008": 2.92117942526,
			"0.009": 4.63327643381,
			"0.01": 5.84926164346,
			"0.011": 5.52992347008,
			"0.012": 2.44584117054,
			"0.013": 0.125500196206,
			"0.014": 0.0,
			"0.015": 0.0,
			"0.016": 0.0,
			"0.017": 0.0,
			"0.018": 0.0,
			"0.019": 0.0,
			"0.02": 0.0,
			"0.021": 0.0,
			"0.022": 0.0,
			"0.023": 0.0,
			"0.024": 0.0,
			"0.025": 0.0
		}
	}
}
