{
	 "smiles": "CCOC(=O)C1=NNC(=C1)C12CC3CC(CC(C3)C1)C2", 
	 "Tm": 466.15, 
	 "num_atms": 42, 
	 "gaussian": { 
		 "optdone": 1, 
		 "sigma_profile": "yes", 
		 "theory": "DFT", 
		 "functional": "B3LYP", 
		 "basiset": "6-31G**", 
		 "properties": { 
			 "R2extent": 8302.0703, 
			 "electric_dipole_moment_norm": 5.14341621299, 
			 "electric_quadrupole_moment_norm": 30.9616939984, 
			 "total_energy": -882.940693146, 
			 "HOMO_LUMO_gap": 0.22206, 
			 "cosmo_polarized_energy": -15.77, 
			 "cosmo_cavitation_energy": 40.82, 
			 "cosmo_dispersion_energy": -29.72, 
			 "cosmo_repulsion_energy": 2.28, 
			 "cosmo_total_nonelectrostatic_energy": 13.38, 
			 "SMD_solvation_energy": 5.46 
		},
		"coords": [
			{
				"x": 2.2667418298,
				"y": -3.6971322679,
				"z": -4.4278021486,
				"element": "C" 
			},
			{
				"x": 1.5808079936,
				"y": -2.5027597831,
				"z": -5.0642873537,
				"element": "C" 
			},
			{
				"x": 1.2018908326,
				"y": -1.602558254,
				"z": -4.0023994564,
				"element": "O" 
			},
			{
				"x": 0.5646732876,
				"y": -0.4703191719,
				"z": -4.3975926222,
				"element": "C" 
			},
			{
				"x": 0.3183451079,
				"y": -0.2077547244,
				"z": -5.555081291,
				"element": "O" 
			},
			{
				"x": 0.2279507559,
				"y": 0.3683885649,
				"z": -3.2249876262,
				"element": "C" 
			},
			{
				"x": -0.4090306321,
				"y": 1.5322562985,
				"z": -3.4004420174,
				"element": "N" 
			},
			{
				"x": -0.5466688119,
				"y": 2.0095071313,
				"z": -2.1554769343,
				"element": "N" 
			},
			{
				"x": -0.0269170662,
				"y": 1.205774187,
				"z": -1.1769436926,
				"element": "C" 
			},
			{
				"x": 0.4907368698,
				"y": 0.1156420952,
				"z": -1.8562997499,
				"element": "C" 
			},
			{
				"x": -0.0646505381,
				"y": 1.5407054054,
				"z": 0.2958063946,
				"element": "C" 
			},
			{
				"x": 1.3839849691,
				"y": 1.6489808022,
				"z": 0.8536362639,
				"element": "C" 
			},
			{
				"x": 1.3621516341,
				"y": 1.9584119275,
				"z": 2.3641562783,
				"element": "C" 
			},
			{
				"x": 0.6213452624,
				"y": 0.829750653,
				"z": 3.110493822,
				"element": "C" 
			},
			{
				"x": -0.8262275919,
				"y": 0.7291056222,
				"z": 2.5868602735,
				"element": "C" 
			},
			{
				"x": -1.5538671096,
				"y": 2.0677284356,
				"z": 2.8249960336,
				"element": "C" 
			},
			{
				"x": -0.8124413983,
				"y": 3.1950382189,
				"z": 2.0780124373,
				"element": "C" 
			},
			{
				"x": 0.6343687181,
				"y": 3.2969416347,
				"z": 2.602410288,
				"element": "C" 
			},
			{
				"x": -0.7911993911,
				"y": 2.8840133434,
				"z": 0.5666861152,
				"element": "C" 
			},
			{
				"x": -0.8071585938,
				"y": 0.4184655982,
				"z": 1.0765612542,
				"element": "C" 
			},
			{
				"x": 2.5719211198,
				"y": -4.4077635673,
				"z": -5.2023408842,
				"element": "H" 
			},
			{
				"x": 1.593882077,
				"y": -4.211444713,
				"z": -3.7353249177,
				"element": "H" 
			},
			{
				"x": 3.1584684606,
				"y": -3.38741134,
				"z": -3.8749155919,
				"element": "H" 
			},
			{
				"x": 2.2395434103,
				"y": -1.9738569169,
				"z": -5.7608542207,
				"element": "H" 
			},
			{
				"x": 0.6841589402,
				"y": -2.7927982002,
				"z": -5.6216728212,
				"element": "H" 
			},
			{
				"x": -1.0094234041,
				"y": 2.896432903,
				"z": -2.029903493,
				"element": "H" 
			},
			{
				"x": 0.988812895,
				"y": -0.7457538629,
				"z": -1.4403981055,
				"element": "H" 
			},
			{
				"x": 1.9173766869,
				"y": 0.7092063427,
				"z": 0.6664729484,
				"element": "H" 
			},
			{
				"x": 1.9262056898,
				"y": 2.4330540428,
				"z": 0.3100791635,
				"element": "H" 
			},
			{
				"x": 2.3940598586,
				"y": 2.0287820862,
				"z": 2.7303037025,
				"element": "H" 
			},
			{
				"x": 1.1429922341,
				"y": -0.1251721623,
				"z": 2.9646528074,
				"element": "H" 
			},
			{
				"x": 0.6188404211,
				"y": 1.0297431369,
				"z": 4.1897851858,
				"element": "H" 
			},
			{
				"x": -1.3542661478,
				"y": -0.0768459241,
				"z": 3.1116830116,
				"element": "H" 
			},
			{
				"x": -2.5925426474,
				"y": 2.0013098571,
				"z": 2.4754354761,
				"element": "H" 
			},
			{
				"x": -1.5927816873,
				"y": 2.2920110447,
				"z": 3.8986684098,
				"element": "H" 
			},
			{
				"x": -1.3316712812,
				"y": 4.148231713,
				"z": 2.2375216552,
				"element": "H" 
			},
			{
				"x": 1.1650326506,
				"y": 4.1121384617,
				"z": 2.0931705019,
				"element": "H" 
			},
			{
				"x": 0.6290009469,
				"y": 3.5398592773,
				"z": 3.6727064798,
				"element": "H" 
			},
			{
				"x": -0.2821437493,
				"y": 3.6994337175,
				"z": 0.0338592593,
				"element": "H" 
			},
			{
				"x": -1.8216466856,
				"y": 2.835382302,
				"z": 0.1879268179,
				"element": "H" 
			},
			{
				"x": -1.8306066059,
				"y": 0.3232034404,
				"z": 0.6923605123,
				"element": "H" 
			},
			{
				"x": -0.3110493106,
				"y": -0.5423273554,
				"z": 0.8936778343,
				"element": "H" 
			}
		],
		 "valence_orbital": [ 
			{
				"type": "occ",
				"energy": -0.28697,
				"method": "rhf"
			},
			{
				"type": "occ",
				"energy": -0.28399,
				"method": "rhf"
			},
			{
				"type": "occ",
				"energy": -0.25783,
				"method": "rhf"
			},
			{
				"type": "occ",
				"energy": -0.25766,
				"method": "rhf"
			},
			{
				"type": "occ",
				"energy": -0.23801,
				"method": "rhf"
			},
			{
				"type": "unocc",
				"energy": -0.01595,
				"method": "rhf"
			},
			{
				"type": "unocc",
				"energy": 0.03168,
				"method": "rhf"
			},
			{
				"type": "unocc",
				"energy": 0.05558,
				"method": "rhf"
			},
			{
				"type": "unocc",
				"energy": 0.08177,
				"method": "rhf"
			},
			{
				"type": "unocc",
				"energy": 0.1043,
				"method": "rhf"
			}
		],
		"cosmo_sigma_profile": { 
			"-0.025": 0.0,
			"-0.024": 0.0,
			"-0.023": 0.0,
			"-0.022": 0.0,
			"-0.021": 0.0,
			"-0.02": 0.0,
			"-0.019": 0.0,
			"-0.018": 0.0,
			"-0.017": 0.0,
			"-0.016": 0.698447392701,
			"-0.015": 0.840377635934,
			"-0.014": 1.1079852399,
			"-0.013": 0.58901842128,
			"-0.012": 0.883381585287,
			"-0.011": 1.22821754555,
			"-0.01": 1.73625164793,
			"-0.009": 0.750589686452,
			"-0.008": 1.05431873514,
			"-0.007": 1.3923732455,
			"-0.006": 3.49616292703,
			"-0.005": 9.38797280797,
			"-0.004": 17.8525251092,
			"-0.003": 27.0245182429,
			"-0.002": 54.0219672023,
			"-0.001": 48.5887713572,
			"0.0": 47.2021416303,
			"0.001": 28.1918459474,
			"0.002": 12.7340915094,
			"0.003": 11.33620014,
			"0.004": 8.63885091717,
			"0.005": 5.17758768066,
			"0.006": 4.33933416741,
			"0.007": 2.93634781849,
			"0.008": 2.72318094331,
			"0.009": 2.10638176542,
			"0.01": 1.9557621838,
			"0.011": 4.19726348306,
			"0.012": 6.10268247151,
			"0.013": 3.01244216946,
			"0.014": 2.36139910733,
			"0.015": 1.94319079755,
			"0.016": 0.965611256446,
			"0.017": 0.0,
			"0.018": 0.0,
			"0.019": 0.0,
			"0.02": 0.0,
			"0.021": 0.0,
			"0.022": 0.0,
			"0.023": 0.0,
			"0.024": 0.0,
			"0.025": 0.0
		}
	}
}
