{
	 "smiles": "OC(=O)C1=CC2=C(C(O)=C1)C(=O)C1=C(C=CC=C1O)C2=O", 
	 "Tm": 595.15, 
	 "num_atms": 29, 
	 "gaussian": { 
		 "optdone": 1, 
		 "sigma_profile": "yes", 
		 "theory": "DFT", 
		 "functional": "B3LYP", 
		 "basiset": "6-31G**", 
		 "properties": { 
			 "R2extent": 7018.3396, 
			 "electric_dipole_moment_norm": 2.15142221333, 
			 "electric_quadrupole_moment_norm": 16.5387528049, 
			 "total_energy": -1027.78438544, 
			 "HOMO_LUMO_gap": 0.12104, 
			 "cosmo_polarized_energy": -23.1, 
			 "cosmo_cavitation_energy": 34.22, 
			 "cosmo_dispersion_energy": -25.74, 
			 "cosmo_repulsion_energy": 1.88, 
			 "cosmo_total_nonelectrostatic_energy": 10.35, 
			 "SMD_solvation_energy": 8.16 
		},
		"coords": [
			{
				"x": 1.8233821765,
				"y": -4.3847146194,
				"z": 2.4203327241,
				"element": "O" 
			},
			{
				"x": 0.6846246597,
				"y": -3.7744835651,
				"z": 2.8210997808,
				"element": "C" 
			},
			{
				"x": 0.1931312085,
				"y": -4.0398185844,
				"z": 3.8930261589,
				"element": "O" 
			},
			{
				"x": 0.0745894478,
				"y": -2.7721852345,
				"z": 1.8774396546,
				"element": "C" 
			},
			{
				"x": 0.7536040408,
				"y": -2.2185230989,
				"z": 0.7900136242,
				"element": "C" 
			},
			{
				"x": 0.1155427645,
				"y": -1.2901053483,
				"z": -0.0304488431,
				"element": "C" 
			},
			{
				"x": -1.2165785801,
				"y": -0.8836457774,
				"z": 0.2100070153,
				"element": "C" 
			},
			{
				"x": -1.8917515529,
				"y": -1.4424805513,
				"z": 1.3272343775,
				"element": "C" 
			},
			{
				"x": -3.1615193776,
				"y": -1.0754088552,
				"z": 1.5988822611,
				"element": "O" 
			},
			{
				"x": -1.233523341,
				"y": -2.3711601859,
				"z": 2.1425389886,
				"element": "C" 
			},
			{
				"x": -1.8625862233,
				"y": 0.104610169,
				"z": -0.6939852795,
				"element": "C" 
			},
			{
				"x": -3.0368827797,
				"y": 0.4719409231,
				"z": -0.5105015519,
				"element": "O" 
			},
			{
				"x": -1.0837113362,
				"y": 0.6452935444,
				"z": -1.8181283604,
				"element": "C" 
			},
			{
				"x": 0.2536003161,
				"y": 0.2494499666,
				"z": -2.0632649001,
				"element": "C" 
			},
			{
				"x": 0.9718580916,
				"y": 0.7749908523,
				"z": -3.1322286828,
				"element": "C" 
			},
			{
				"x": 0.363392167,
				"y": 1.710700617,
				"z": -3.9792774534,
				"element": "C" 
			},
			{
				"x": -0.9444664191,
				"y": 2.1167927994,
				"z": -3.7646055289,
				"element": "C" 
			},
			{
				"x": -1.6868635491,
				"y": 1.5939583781,
				"z": -2.6868946264,
				"element": "C" 
			},
			{
				"x": -2.9422086386,
				"y": 2.0185175442,
				"z": -2.5263310856,
				"element": "O" 
			},
			{
				"x": 0.9103340182,
				"y": -0.7409463445,
				"z": -1.1764908757,
				"element": "C" 
			},
			{
				"x": 2.0654206705,
				"y": -1.1113852797,
				"z": -1.3612319569,
				"element": "O" 
			},
			{
				"x": 2.0352315773,
				"y": -4.1566772004,
				"z": 1.504296443,
				"element": "H" 
			},
			{
				"x": 1.7873804885,
				"y": -2.4479381457,
				"z": 0.5500061194,
				"element": "H" 
			},
			{
				"x": -3.459312228,
				"y": -1.5425899878,
				"z": 2.3923504924,
				"element": "H" 
			},
			{
				"x": -1.7352903386,
				"y": -2.798098488,
				"z": 3.0069485137,
				"element": "H" 
			},
			{
				"x": 1.992986236,
				"y": 0.44604605,
				"z": -3.2859486275,
				"element": "H" 
			},
			{
				"x": 0.9210398753,
				"y": 2.1238504762,
				"z": -4.814636315,
				"element": "H" 
			},
			{
				"x": -1.4306184769,
				"y": 2.8398774044,
				"z": -4.4108769173,
				"element": "H" 
			},
			{
				"x": -3.294204897,
				"y": 1.5422325417,
				"z": -1.7261251493,
				"element": "H" 
			}
		],
		 "valence_orbital": [ 
			{
				"type": "occ",
				"energy": -0.28333,
				"method": "rhf"
			},
			{
				"type": "occ",
				"energy": -0.2799,
				"method": "rhf"
			},
			{
				"type": "occ",
				"energy": -0.26922,
				"method": "rhf"
			},
			{
				"type": "occ",
				"energy": -0.26197,
				"method": "rhf"
			},
			{
				"type": "occ",
				"energy": -0.24193,
				"method": "rhf"
			},
			{
				"type": "unocc",
				"energy": -0.12089,
				"method": "rhf"
			},
			{
				"type": "unocc",
				"energy": -0.07353,
				"method": "rhf"
			},
			{
				"type": "unocc",
				"energy": -0.04987,
				"method": "rhf"
			},
			{
				"type": "unocc",
				"energy": -0.01663,
				"method": "rhf"
			},
			{
				"type": "unocc",
				"energy": 0.01114,
				"method": "rhf"
			}
		],
		"cosmo_sigma_profile": { 
			"-0.025": 0.0,
			"-0.024": 0.0,
			"-0.023": 0.0,
			"-0.022": 0.0,
			"-0.021": 0.0,
			"-0.02": 0.379022406329,
			"-0.019": 2.17039530254,
			"-0.018": 1.94628064934,
			"-0.017": 2.13539133022,
			"-0.016": 2.24964356043,
			"-0.015": 1.89549694258,
			"-0.014": 1.83675182787,
			"-0.013": 2.12784053279,
			"-0.012": 1.91864971534,
			"-0.011": 2.03090586786,
			"-0.01": 1.77004822326,
			"-0.009": 1.49418230388,
			"-0.008": 3.8612481376,
			"-0.007": 8.84944956973,
			"-0.006": 10.0788825697,
			"-0.005": 13.4253600182,
			"-0.004": 14.6396739876,
			"-0.003": 16.2691326902,
			"-0.002": 17.9215875127,
			"-0.001": 27.4523115048,
			"0.0": 23.6188717116,
			"0.001": 19.5467355159,
			"0.002": 15.4956199348,
			"0.003": 9.06320146576,
			"0.004": 6.65338287697,
			"0.005": 7.72057851312,
			"0.006": 6.87248245021,
			"0.007": 6.4940967741,
			"0.008": 7.61628502764,
			"0.009": 9.48057534316,
			"0.01": 11.1607674516,
			"0.011": 10.1230820967,
			"0.012": 4.68876134878,
			"0.013": 1.49756654156,
			"0.014": 1.34431705385,
			"0.015": 0.659019780247,
			"0.016": 0.0,
			"0.017": 0.0,
			"0.018": 0.0,
			"0.019": 0.0,
			"0.02": 0.0,
			"0.021": 0.0,
			"0.022": 0.0,
			"0.023": 0.0,
			"0.024": 0.0,
			"0.025": 0.0
		}
	}
}
