{
	 "smiles": "CC(C)(C)OC(=O)NC1=CC(O)=CC=C1", 
	 "Tm": 409.15, 
	 "num_atms": 30, 
	 "gaussian": { 
		 "optdone": 1, 
		 "sigma_profile": "yes", 
		 "theory": "DFT", 
		 "functional": "B3LYP", 
		 "basiset": "6-31G**", 
		 "properties": { 
			 "R2extent": 4379.6589, 
			 "electric_dipole_moment_norm": 0.39993336945, 
			 "electric_quadrupole_moment_norm": 20.0222703625, 
			 "total_energy": -708.668806756, 
			 "HOMO_LUMO_gap": 0.20717, 
			 "cosmo_polarized_energy": -14.14, 
			 "cosmo_cavitation_energy": 32.97, 
			 "cosmo_dispersion_energy": -23.35, 
			 "cosmo_repulsion_energy": 1.82, 
			 "cosmo_total_nonelectrostatic_energy": 11.43, 
			 "SMD_solvation_energy": 7.05 
		},
		"coords": [
			{
				"x": -3.2412004816,
				"y": 0.8743671861,
				"z": -2.2593800382,
				"element": "C" 
			},
			{
				"x": -1.7355064269,
				"y": 1.1392618768,
				"z": -2.3505289834,
				"element": "C" 
			},
			{
				"x": -1.4074470692,
				"y": 2.6326490686,
				"z": -2.4384818956,
				"element": "C" 
			},
			{
				"x": -1.1191365863,
				"y": 0.3767479065,
				"z": -3.525815655,
				"element": "C" 
			},
			{
				"x": -1.0481964662,
				"y": 0.54094864,
				"z": -1.1858872783,
				"element": "O" 
			},
			{
				"x": -1.3259499999,
				"y": 0.9583866083,
				"z": 0.0608560262,
				"element": "C" 
			},
			{
				"x": -2.1259987204,
				"y": 1.8259477916,
				"z": 0.3740928129,
				"element": "O" 
			},
			{
				"x": -0.5961228179,
				"y": 0.2954323421,
				"z": 1.0290495,
				"element": "N" 
			},
			{
				"x": 0.3773332794,
				"y": -0.7230918188,
				"z": 1.0088232077,
				"element": "C" 
			},
			{
				"x": 0.877840192,
				"y": -1.1181694032,
				"z": 2.2626892459,
				"element": "C" 
			},
			{
				"x": 1.8450208074,
				"y": -2.1182892109,
				"z": 2.3593162062,
				"element": "C" 
			},
			{
				"x": 2.3533236426,
				"y": -2.526913719,
				"z": 3.5601572693,
				"element": "O" 
			},
			{
				"x": 2.3317639547,
				"y": -2.7438094733,
				"z": 1.2065657707,
				"element": "C" 
			},
			{
				"x": 1.8298029634,
				"y": -2.3451436522,
				"z": -0.0276600156,
				"element": "C" 
			},
			{
				"x": 0.8612226436,
				"y": -1.3461283014,
				"z": -0.1497792229,
				"element": "C" 
			},
			{
				"x": -3.6809917316,
				"y": 1.400424259,
				"z": -1.4120481,
				"element": "H" 
			},
			{
				"x": -3.7273172157,
				"y": 1.2156765672,
				"z": -3.1790686289,
				"element": "H" 
			},
			{
				"x": -3.4329312685,
				"y": -0.1978860679,
				"z": -2.1519608451,
				"element": "H" 
			},
			{
				"x": -1.8289994998,
				"y": 3.1768754013,
				"z": -1.5933683143,
				"element": "H" 
			},
			{
				"x": -0.3234827126,
				"y": 2.7835968412,
				"z": -2.4549123038,
				"element": "H" 
			},
			{
				"x": -1.8213072713,
				"y": 3.0424137507,
				"z": -3.3655473646,
				"element": "H" 
			},
			{
				"x": -1.5500136235,
				"y": 0.7303215969,
				"z": -4.4671545652,
				"element": "H" 
			},
			{
				"x": -1.3156278017,
				"y": -0.695855019,
				"z": -3.4382259897,
				"element": "H" 
			},
			{
				"x": -0.0366594978,
				"y": 0.530418765,
				"z": -3.5630596363,
				"element": "H" 
			},
			{
				"x": -0.8436083635,
				"y": 0.6472503143,
				"z": 1.9430844335,
				"element": "H" 
			},
			{
				"x": 0.5063763945,
				"y": -0.6382942412,
				"z": 3.1670634952,
				"element": "H" 
			},
			{
				"x": 1.9388239402,
				"y": -2.0216108869,
				"z": 4.2712819543,
				"element": "H" 
			},
			{
				"x": 3.0835716065,
				"y": -3.5194336168,
				"z": 1.2994776849,
				"element": "H" 
			},
			{
				"x": 2.2005537491,
				"y": -2.824000882,
				"z": -0.929619896,
				"element": "H" 
			},
			{
				"x": 0.4894643809,
				"y": -1.0564926229,
				"z": -1.1199588738,
				"element": "H" 
			}
		],
		 "valence_orbital": [ 
			{
				"type": "occ",
				"energy": -0.30045,
				"method": "rhf"
			},
			{
				"type": "occ",
				"energy": -0.29113,
				"method": "rhf"
			},
			{
				"type": "occ",
				"energy": -0.27064,
				"method": "rhf"
			},
			{
				"type": "occ",
				"energy": -0.23254,
				"method": "rhf"
			},
			{
				"type": "occ",
				"energy": -0.21017,
				"method": "rhf"
			},
			{
				"type": "unocc",
				"energy": -0.003,
				"method": "rhf"
			},
			{
				"type": "unocc",
				"energy": 0.01188,
				"method": "rhf"
			},
			{
				"type": "unocc",
				"energy": 0.06673,
				"method": "rhf"
			},
			{
				"type": "unocc",
				"energy": 0.06772,
				"method": "rhf"
			},
			{
				"type": "unocc",
				"energy": 0.07437,
				"method": "rhf"
			}
		],
		"cosmo_sigma_profile": { 
			"-0.025": 0.0,
			"-0.024": 0.0,
			"-0.023": 0.0,
			"-0.022": 0.0,
			"-0.021": 0.0,
			"-0.02": 0.0,
			"-0.019": 0.0,
			"-0.018": 0.298894485792,
			"-0.017": 1.12677034647,
			"-0.016": 1.32004083041,
			"-0.015": 1.72947852901,
			"-0.014": 1.43826413727,
			"-0.013": 1.57835669395,
			"-0.012": 2.37330955172,
			"-0.011": 2.27150538432,
			"-0.01": 2.31531535918,
			"-0.009": 2.82123692087,
			"-0.008": 2.1366479493,
			"-0.007": 1.80051355421,
			"-0.006": 3.90275115242,
			"-0.005": 6.58919641647,
			"-0.004": 18.4880239579,
			"-0.003": 21.5399337881,
			"-0.002": 21.1142167289,
			"-0.001": 25.5705895921,
			"0.0": 32.9208822468,
			"0.001": 20.4643072728,
			"0.002": 12.1503973268,
			"0.003": 13.3457861828,
			"0.004": 16.7227362035,
			"0.005": 13.2368697577,
			"0.006": 10.033900144,
			"0.007": 3.34657042998,
			"0.008": 3.32337658244,
			"0.009": 1.73593477806,
			"0.01": 3.42758641927,
			"0.011": 3.42205880474,
			"0.012": 2.99671873649,
			"0.013": 3.54584762098,
			"0.014": 0.380473204195,
			"0.015": 0.0,
			"0.016": 0.0,
			"0.017": 0.0,
			"0.018": 0.0,
			"0.019": 0.0,
			"0.02": 0.0,
			"0.021": 0.0,
			"0.022": 0.0,
			"0.023": 0.0,
			"0.024": 0.0,
			"0.025": 0.0
		}
	}
}
