{
	 "smiles": "NC(=O)CNC(=O)C1=CC(O)=CC=C1", 
	 "Tm": 453.15, 
	 "num_atms": 24, 
	 "gaussian": { 
		 "optdone": 1, 
		 "sigma_profile": "yes", 
		 "theory": "DFT", 
		 "functional": "B3LYP", 
		 "basiset": "6-31G**", 
		 "properties": { 
			 "R2extent": 3263.5622, 
			 "electric_dipole_moment_norm": 1.66504512251, 
			 "electric_quadrupole_moment_norm": 24.0518846143, 
			 "total_energy": -684.182513596, 
			 "HOMO_LUMO_gap": 0.18909, 
			 "cosmo_polarized_energy": -23.46, 
			 "cosmo_cavitation_energy": 28.62, 
			 "cosmo_dispersion_energy": -20.38, 
			 "cosmo_repulsion_energy": 1.64, 
			 "cosmo_total_nonelectrostatic_energy": 9.88, 
			 "SMD_solvation_energy": 6.97 
		},
		"coords": [
			{
				"x": 2.9299521593,
				"y": -0.2793568718,
				"z": -2.5393217978,
				"element": "N" 
			},
			{
				"x": 1.8090304666,
				"y": -0.9398334327,
				"z": -2.9499546671,
				"element": "C" 
			},
			{
				"x": 1.8193411715,
				"y": -2.0362355022,
				"z": -3.4867405815,
				"element": "O" 
			},
			{
				"x": 0.4799165498,
				"y": -0.2282679171,
				"z": -2.6527360529,
				"element": "C" 
			},
			{
				"x": 0.5919489296,
				"y": 1.1509846009,
				"z": -2.1870031129,
				"element": "N" 
			},
			{
				"x": 0.0656871407,
				"y": 1.6867554458,
				"z": -1.0145603316,
				"element": "C" 
			},
			{
				"x": -0.2463710599,
				"y": 2.8701684131,
				"z": -0.9779103895,
				"element": "O" 
			},
			{
				"x": -0.0665342684,
				"y": 0.8068736632,
				"z": 0.1939730521,
				"element": "C" 
			},
			{
				"x": 0.8377555381,
				"y": -0.2238033014,
				"z": 0.4912439775,
				"element": "C" 
			},
			{
				"x": 0.6883228109,
				"y": -0.9669130976,
				"z": 1.6661344716,
				"element": "C" 
			},
			{
				"x": 1.5424903119,
				"y": -1.9733501034,
				"z": 2.0117118824,
				"element": "O" 
			},
			{
				"x": -0.3650812772,
				"y": -0.6875850442,
				"z": 2.5446259101,
				"element": "C" 
			},
			{
				"x": -1.2523084942,
				"y": 0.3446206473,
				"z": 2.2482245049,
				"element": "C" 
			},
			{
				"x": -1.1055541682,
				"y": 1.1005239885,
				"z": 1.0855164553,
				"element": "C" 
			},
			{
				"x": 2.8624008993,
				"y": 0.6769201716,
				"z": -2.22451418,
				"element": "H" 
			},
			{
				"x": 3.826766886,
				"y": -0.6627953346,
				"z": -2.7970981741,
				"element": "H" 
			},
			{
				"x": -0.0496792278,
				"y": -0.8305716974,
				"z": -1.9116549445,
				"element": "H" 
			},
			{
				"x": -0.1113994949,
				"y": -0.2769041061,
				"z": -3.573259059,
				"element": "H" 
			},
			{
				"x": 0.5709782147,
				"y": 1.8570706091,
				"z": -2.9146661581,
				"element": "H" 
			},
			{
				"x": 1.6765913579,
				"y": -0.4304233575,
				"z": -0.1682722027,
				"element": "H" 
			},
			{
				"x": 2.1983985555,
				"y": -2.0927498429,
				"z": 1.3123801099,
				"element": "H" 
			},
			{
				"x": -0.4641802773,
				"y": -1.2808153065,
				"z": 3.4475876176,
				"element": "H" 
			},
			{
				"x": -2.0641827214,
				"y": 0.5634256616,
				"z": 2.9354789107,
				"element": "H" 
			},
			{
				"x": -1.7763900022,
				"y": 1.9203617142,
				"z": 0.8564147595,
				"element": "H" 
			}
		],
		 "valence_orbital": [ 
			{
				"type": "occ",
				"energy": -0.28111,
				"method": "rhf"
			},
			{
				"type": "occ",
				"energy": -0.27181,
				"method": "rhf"
			},
			{
				"type": "occ",
				"energy": -0.26224,
				"method": "rhf"
			},
			{
				"type": "occ",
				"energy": -0.24586,
				"method": "rhf"
			},
			{
				"type": "occ",
				"energy": -0.23187,
				"method": "rhf"
			},
			{
				"type": "unocc",
				"energy": -0.04278,
				"method": "rhf"
			},
			{
				"type": "unocc",
				"energy": -0.00229,
				"method": "rhf"
			},
			{
				"type": "unocc",
				"energy": 0.0172,
				"method": "rhf"
			},
			{
				"type": "unocc",
				"energy": 0.04642,
				"method": "rhf"
			},
			{
				"type": "unocc",
				"energy": 0.06183,
				"method": "rhf"
			}
		],
		"cosmo_sigma_profile": { 
			"-0.025": 0.0,
			"-0.024": 0.0,
			"-0.023": 0.0,
			"-0.022": 0.0,
			"-0.021": 0.0,
			"-0.02": 0.0,
			"-0.019": 0.0,
			"-0.018": 0.533237063094,
			"-0.017": 0.991041917284,
			"-0.016": 1.64658068348,
			"-0.015": 0.645134965085,
			"-0.014": 2.60966893133,
			"-0.013": 3.64538069395,
			"-0.012": 4.04238020744,
			"-0.011": 4.38470730749,
			"-0.01": 5.16189992139,
			"-0.009": 3.95112349225,
			"-0.008": 4.51871103795,
			"-0.007": 7.55893441453,
			"-0.006": 12.9062510773,
			"-0.005": 14.0710492405,
			"-0.004": 14.4047983073,
			"-0.003": 11.7351956857,
			"-0.002": 9.64133214068,
			"-0.001": 10.2820131853,
			"0.0": 9.34482486709,
			"0.001": 10.2979874797,
			"0.002": 11.3238809857,
			"0.003": 14.1955127384,
			"0.004": 13.8109105704,
			"0.005": 6.83970956981,
			"0.006": 4.4837366291,
			"0.007": 4.69206026849,
			"0.008": 3.65079701669,
			"0.009": 3.08267494962,
			"0.01": 4.15612873171,
			"0.011": 5.80987844545,
			"0.012": 5.09298199488,
			"0.013": 9.46492926833,
			"0.014": 6.87811213047,
			"0.015": 1.28002242217,
			"0.016": 0.0,
			"0.017": 0.0,
			"0.018": 0.0,
			"0.019": 0.0,
			"0.02": 0.0,
			"0.021": 0.0,
			"0.022": 0.0,
			"0.023": 0.0,
			"0.024": 0.0,
			"0.025": 0.0
		}
	}
}
