{
	 "smiles": "CC1=NN(C(=O)C1)C1=CC=C(C=C1)C(O)=O", 
	 "Tm": 559.15, 
	 "num_atms": 26, 
	 "gaussian": { 
		 "optdone": 1, 
		 "sigma_profile": "yes", 
		 "theory": "DFT", 
		 "functional": "B3LYP", 
		 "basiset": "6-31G**", 
		 "properties": { 
			 "R2extent": 5659.352, 
			 "electric_dipole_moment_norm": 7.56543150719, 
			 "electric_quadrupole_moment_norm": 20.1492661253, 
			 "total_energy": -760.370398707, 
			 "HOMO_LUMO_gap": 0.17787, 
			 "cosmo_polarized_energy": -20.17, 
			 "cosmo_cavitation_energy": 30.89, 
			 "cosmo_dispersion_energy": -22.89, 
			 "cosmo_repulsion_energy": 1.77, 
			 "cosmo_total_nonelectrostatic_energy": 9.78, 
			 "SMD_solvation_energy": 6.5 
		},
		"coords": [
			{
				"x": 0.850455631,
				"y": 4.8741881312,
				"z": -3.6981244483,
				"element": "C" 
			},
			{
				"x": -0.0618874159,
				"y": 3.8210657596,
				"z": -3.1636338661,
				"element": "C" 
			},
			{
				"x": 0.367694641,
				"y": 2.8814673434,
				"z": -2.3955078491,
				"element": "N" 
			},
			{
				"x": -0.7107974676,
				"y": 2.0497472343,
				"z": -2.0576686059,
				"element": "N" 
			},
			{
				"x": -1.9124361287,
				"y": 2.4705490426,
				"z": -2.6363139892,
				"element": "C" 
			},
			{
				"x": -3.0079231443,
				"y": 1.954251779,
				"z": -2.5236223586,
				"element": "O" 
			},
			{
				"x": -1.5344026688,
				"y": 3.7153892534,
				"z": -3.4338381836,
				"element": "C" 
			},
			{
				"x": -0.4741854155,
				"y": 0.9425554047,
				"z": -1.2148831891,
				"element": "C" 
			},
			{
				"x": -1.5169723411,
				"y": 0.068993424,
				"z": -0.8629793311,
				"element": "C" 
			},
			{
				"x": -1.2501520846,
				"y": -1.0084632132,
				"z": -0.0239402988,
				"element": "C" 
			},
			{
				"x": 0.0370191433,
				"y": -1.2431246691,
				"z": 0.4784608573,
				"element": "C" 
			},
			{
				"x": 1.0702844288,
				"y": -0.3753898643,
				"z": 0.0975875835,
				"element": "C" 
			},
			{
				"x": 0.8253094071,
				"y": 0.7102511282,
				"z": -0.7304404487,
				"element": "C" 
			},
			{
				"x": 0.3814609629,
				"y": -2.3911053029,
				"z": 1.3721091283,
				"element": "C" 
			},
			{
				"x": -0.6511627531,
				"y": -2.9945115669,
				"z": 2.0241446066,
				"element": "O" 
			},
			{
				"x": 1.5105479787,
				"y": -2.792722442,
				"z": 1.536364945,
				"element": "O" 
			},
			{
				"x": 1.8679272149,
				"y": 4.7060078114,
				"z": -3.340213151,
				"element": "H" 
			},
			{
				"x": 0.5225347578,
				"y": 5.8719221801,
				"z": -3.383154841,
				"element": "H" 
			},
			{
				"x": 0.8533782165,
				"y": 4.8688161267,
				"z": -4.7945492481,
				"element": "H" 
			},
			{
				"x": -2.1036734076,
				"y": 4.5848584475,
				"z": -3.0858371788,
				"element": "H" 
			},
			{
				"x": -1.7724015938,
				"y": 3.5804591418,
				"z": -4.4951593637,
				"element": "H" 
			},
			{
				"x": -2.511934904,
				"y": 0.2357260319,
				"z": -1.2501292992,
				"element": "H" 
			},
			{
				"x": -2.0685850234,
				"y": -1.689269341,
				"z": 0.199145108,
				"element": "H" 
			},
			{
				"x": 2.0706168604,
				"y": -0.5708319353,
				"z": 0.4685040189,
				"element": "H" 
			},
			{
				"x": 1.6240510658,
				"y": 1.3828000585,
				"z": -1.0131607151,
				"element": "H" 
			},
			{
				"x": -1.4574659599,
				"y": -2.4696299637,
				"z": 1.9274401181,
				"element": "H" 
			}
		],
		 "valence_orbital": [ 
			{
				"type": "occ",
				"energy": -0.29339,
				"method": "rhf"
			},
			{
				"type": "occ",
				"energy": -0.27207,
				"method": "rhf"
			},
			{
				"type": "occ",
				"energy": -0.26759,
				"method": "rhf"
			},
			{
				"type": "occ",
				"energy": -0.2641,
				"method": "rhf"
			},
			{
				"type": "occ",
				"energy": -0.22894,
				"method": "rhf"
			},
			{
				"type": "unocc",
				"energy": -0.05107,
				"method": "rhf"
			},
			{
				"type": "unocc",
				"energy": -0.04245,
				"method": "rhf"
			},
			{
				"type": "unocc",
				"energy": -0.01478,
				"method": "rhf"
			},
			{
				"type": "unocc",
				"energy": 0.01891,
				"method": "rhf"
			},
			{
				"type": "unocc",
				"energy": 0.06412,
				"method": "rhf"
			}
		],
		"cosmo_sigma_profile": { 
			"-0.025": 0.0,
			"-0.024": 0.0,
			"-0.023": 0.0,
			"-0.022": 0.0,
			"-0.021": 0.0,
			"-0.02": 0.0,
			"-0.019": 0.0406641498334,
			"-0.018": 0.826791990431,
			"-0.017": 1.1012867107,
			"-0.016": 0.809738436698,
			"-0.015": 1.72092313405,
			"-0.014": 0.507508609293,
			"-0.013": 0.459094386508,
			"-0.012": 1.41633222181,
			"-0.011": 1.49531697831,
			"-0.01": 1.05501928906,
			"-0.009": 4.63645408898,
			"-0.008": 7.7655123416,
			"-0.007": 8.50736649287,
			"-0.006": 15.2397217821,
			"-0.005": 15.3557371675,
			"-0.004": 16.5749173647,
			"-0.003": 13.8570235695,
			"-0.002": 16.8962180902,
			"-0.001": 15.4188963083,
			"0.0": 12.44319364,
			"0.001": 15.612734163,
			"0.002": 17.6786090201,
			"0.003": 18.4155741881,
			"0.004": 6.03427159757,
			"0.005": 5.85311665981,
			"0.006": 5.17925159088,
			"0.007": 4.50344447031,
			"0.008": 6.40495658433,
			"0.009": 6.1447676383,
			"0.01": 5.67177285153,
			"0.011": 9.06877616757,
			"0.012": 7.85123284884,
			"0.013": 2.76831593475,
			"0.014": 0.163729068433,
			"0.015": 0.0,
			"0.016": 0.0,
			"0.017": 0.0,
			"0.018": 0.0,
			"0.019": 0.0,
			"0.02": 0.0,
			"0.021": 0.0,
			"0.022": 0.0,
			"0.023": 0.0,
			"0.024": 0.0,
			"0.025": 0.0
		}
	}
}
