{
	 "smiles": "FC1=CC(Cl)=C(C=C1)C#N", 
	 "Tm": 337.15, 
	 "num_atms": 13, 
	 "gaussian": { 
		 "optdone": 1, 
		 "sigma_profile": "yes", 
		 "theory": "DFT", 
		 "functional": "B3LYP", 
		 "basiset": "6-31G**", 
		 "properties": { 
			 "R2extent": 2277.9151, 
			 "electric_dipole_moment_norm": 3.93391555705, 
			 "electric_quadrupole_moment_norm": 17.6735323877, 
			 "total_energy": -883.30821038, 
			 "HOMO_LUMO_gap": 0.20663, 
			 "cosmo_polarized_energy": -8.55, 
			 "cosmo_cavitation_energy": 21.16, 
			 "cosmo_dispersion_energy": -15.03, 
			 "cosmo_repulsion_energy": 1.2, 
			 "cosmo_total_nonelectrostatic_energy": 7.32, 
			 "SMD_solvation_energy": 5.27 
		},
		"coords": [
			{
				"x": 0.2649925967,
				"y": 0.5199298858,
				"z": -3.134799006,
				"element": "F" 
			},
			{
				"x": 0.2477304467,
				"y": 0.9372873934,
				"z": -1.8600322718,
				"element": "C" 
			},
			{
				"x": -0.9498899478,
				"y": 0.8653448794,
				"z": -1.156529152,
				"element": "C" 
			},
			{
				"x": -0.9700695331,
				"y": 1.2979136633,
				"z": 0.1664141154,
				"element": "C" 
			},
			{
				"x": -2.4651813332,
				"y": 1.2123193286,
				"z": 1.0574558786,
				"element": "Cl" 
			},
			{
				"x": 0.1964695799,
				"y": 1.7976553322,
				"z": 0.779846849,
				"element": "C" 
			},
			{
				"x": 1.385996662,
				"y": 1.8520062161,
				"z": 0.0294103018,
				"element": "C" 
			},
			{
				"x": 1.4213854405,
				"y": 1.4239732359,
				"z": -1.2915265452,
				"element": "C" 
			},
			{
				"x": 0.2010900294,
				"y": 2.2481256191,
				"z": 2.1379248141,
				"element": "C" 
			},
			{
				"x": 0.2445255406,
				"y": 2.6230783894,
				"z": 3.237898593,
				"element": "N" 
			},
			{
				"x": -1.8414032343,
				"y": 0.4800210123,
				"z": -1.6355712102,
				"element": "H" 
			},
			{
				"x": 2.2827319934,
				"y": 2.2366657647,
				"z": 0.5025093319,
				"element": "H" 
			},
			{
				"x": 2.3312217591,
				"y": 1.4610792797,
				"z": -1.8790016986,
				"element": "H" 
			}
		],
		 "valence_orbital": [ 
			{
				"type": "occ",
				"energy": -0.34934,
				"method": "rhf"
			},
			{
				"type": "occ",
				"energy": -0.34431,
				"method": "rhf"
			},
			{
				"type": "occ",
				"energy": -0.33282,
				"method": "rhf"
			},
			{
				"type": "occ",
				"energy": -0.28619,
				"method": "rhf"
			},
			{
				"type": "occ",
				"energy": -0.27005,
				"method": "rhf"
			},
			{
				"type": "unocc",
				"energy": -0.06342,
				"method": "rhf"
			},
			{
				"type": "unocc",
				"energy": -0.04745,
				"method": "rhf"
			},
			{
				"type": "unocc",
				"energy": 0.0042,
				"method": "rhf"
			},
			{
				"type": "unocc",
				"energy": 0.02552,
				"method": "rhf"
			},
			{
				"type": "unocc",
				"energy": 0.06605,
				"method": "rhf"
			}
		],
		"cosmo_sigma_profile": { 
			"-0.025": 0.0,
			"-0.024": 0.0,
			"-0.023": 0.0,
			"-0.022": 0.0,
			"-0.021": 0.0,
			"-0.02": 0.0,
			"-0.019": 0.0,
			"-0.018": 0.0,
			"-0.017": 0.0,
			"-0.016": 0.0,
			"-0.015": 0.0,
			"-0.014": 0.0,
			"-0.013": 0.0,
			"-0.012": 0.0,
			"-0.011": 0.0,
			"-0.01": 0.920879690644,
			"-0.009": 5.13832119327,
			"-0.008": 6.2894578831,
			"-0.007": 5.85012602933,
			"-0.006": 4.83474278018,
			"-0.005": 5.34479121686,
			"-0.004": 5.47641058984,
			"-0.003": 10.8103367115,
			"-0.002": 20.0960887486,
			"-0.001": 22.86221938,
			"0.0": 15.4971218738,
			"0.001": 10.7922722352,
			"0.002": 11.9960597492,
			"0.003": 19.5583073931,
			"0.004": 5.20969161584,
			"0.005": 2.93694471917,
			"0.006": 2.80845284413,
			"0.007": 2.89025692767,
			"0.008": 3.61625616277,
			"0.009": 3.1114989076,
			"0.01": 3.04213942863,
			"0.011": 2.5898073068,
			"0.012": 2.26709018544,
			"0.013": 0.621289646392,
			"0.014": 0.0,
			"0.015": 0.0,
			"0.016": 0.0,
			"0.017": 0.0,
			"0.018": 0.0,
			"0.019": 0.0,
			"0.02": 0.0,
			"0.021": 0.0,
			"0.022": 0.0,
			"0.023": 0.0,
			"0.024": 0.0,
			"0.025": 0.0
		}
	}
}
