{
	 "smiles": "OCC1OC(OC2=C(C=O)C=CC=C2)C(O)C(O)C1O", 
	 "Tm": 451.15, 
	 "num_atms": 36, 
	 "gaussian": { 
		 "optdone": 1, 
		 "sigma_profile": "yes", 
		 "theory": "DFT", 
		 "functional": "B3LYP", 
		 "basiset": "6-31G**", 
		 "properties": { 
			 "R2extent": 6252.2947, 
			 "electric_dipole_moment_norm": 2.71577810765, 
			 "electric_quadrupole_moment_norm": 35.5163125278, 
			 "total_energy": -1031.53521563, 
			 "HOMO_LUMO_gap": 0.18155, 
			 "cosmo_polarized_energy": -26.25, 
			 "cosmo_cavitation_energy": 38.64, 
			 "cosmo_dispersion_energy": -26.74, 
			 "cosmo_repulsion_energy": 2.07, 
			 "cosmo_total_nonelectrostatic_energy": 13.96, 
			 "SMD_solvation_energy": 7.47 
		},
		"coords": [
			{
				"x": 1.457646728,
				"y": 2.2832366101,
				"z": -3.5947258626,
				"element": "O" 
			},
			{
				"x": 0.7704856494,
				"y": 2.3100501223,
				"z": -2.3514629637,
				"element": "C" 
			},
			{
				"x": 1.2607753071,
				"y": 1.1967040855,
				"z": -1.4277774795,
				"element": "C" 
			},
			{
				"x": 0.3804803526,
				"y": 1.1946092692,
				"z": -0.2814479233,
				"element": "O" 
			},
			{
				"x": 0.6137833199,
				"y": 0.1499942103,
				"z": 0.619670964,
				"element": "C" 
			},
			{
				"x": 0.3452380657,
				"y": -1.1303340145,
				"z": 0.0721168424,
				"element": "O" 
			},
			{
				"x": -0.9484890023,
				"y": -1.5258582167,
				"z": -0.1475106955,
				"element": "C" 
			},
			{
				"x": -1.1300437704,
				"y": -2.8918904558,
				"z": -0.4541529344,
				"element": "C" 
			},
			{
				"x": 0.0194109555,
				"y": -3.8232237073,
				"z": -0.5604143899,
				"element": "C" 
			},
			{
				"x": -0.1051633901,
				"y": -5.0120796612,
				"z": -0.8050534188,
				"element": "O" 
			},
			{
				"x": -2.4283664413,
				"y": -3.3756578684,
				"z": -0.6676765442,
				"element": "C" 
			},
			{
				"x": -3.5300325727,
				"y": -2.5320782612,
				"z": -0.5847937639,
				"element": "C" 
			},
			{
				"x": -3.3313175758,
				"y": -1.178415235,
				"z": -0.2968479516,
				"element": "C" 
			},
			{
				"x": -2.0509144811,
				"y": -0.6651005249,
				"z": -0.083689548,
				"element": "C" 
			},
			{
				"x": 2.069994794,
				"y": 0.1185309728,
				"z": 1.1317514716,
				"element": "C" 
			},
			{
				"x": 2.2943149321,
				"y": 1.2475450054,
				"z": 1.9794559806,
				"element": "O" 
			},
			{
				"x": 3.1031527048,
				"y": 0.2457048025,
				"z": -0.0016786305,
				"element": "C" 
			},
			{
				"x": 3.1568656062,
				"y": -1.014220343,
				"z": -0.656343858,
				"element": "O" 
			},
			{
				"x": 2.7111559434,
				"y": 1.3890853722,
				"z": -0.965829988,
				"element": "C" 
			},
			{
				"x": 2.9252889522,
				"y": 2.654628756,
				"z": -0.369438616,
				"element": "O" 
			},
			{
				"x": 1.1495041757,
				"y": 1.511844936,
				"z": -4.0879113956,
				"element": "H" 
			},
			{
				"x": -0.3183916437,
				"y": 2.2216131614,
				"z": -2.4732020619,
				"element": "H" 
			},
			{
				"x": 0.9908850189,
				"y": 3.2766058006,
				"z": -1.8932041753,
				"element": "H" 
			},
			{
				"x": 1.1812167186,
				"y": 0.2278994895,
				"z": -1.9405029545,
				"element": "H" 
			},
			{
				"x": -0.0710265618,
				"y": 0.3357125541,
				"z": 1.4600035207,
				"element": "H" 
			},
			{
				"x": 1.0174845267,
				"y": -3.3724352866,
				"z": -0.4120983931,
				"element": "H" 
			},
			{
				"x": -2.5333207244,
				"y": -4.4313822469,
				"z": -0.8978864486,
				"element": "H" 
			},
			{
				"x": -4.5316894162,
				"y": -2.9156649349,
				"z": -0.7507103605,
				"element": "H" 
			},
			{
				"x": -4.1817744358,
				"y": -0.5041519238,
				"z": -0.2461797848,
				"element": "H" 
			},
			{
				"x": -1.9103838452,
				"y": 0.3942405662,
				"z": 0.0903378013,
				"element": "H" 
			},
			{
				"x": 2.2369163455,
				"y": -0.8258913297,
				"z": 1.6641136352,
				"element": "H" 
			},
			{
				"x": 1.6676686341,
				"y": 1.2224280385,
				"z": 2.7143747976,
				"element": "H" 
			},
			{
				"x": 4.0638782988,
				"y": 0.5027395703,
				"z": 0.4661057167,
				"element": "H" 
			},
			{
				"x": 3.8745103737,
				"y": -0.9821266557,
				"z": -1.3018787709,
				"element": "H" 
			},
			{
				"x": 3.3517071646,
				"y": 1.3509451018,
				"z": -1.8555833731,
				"element": "H" 
			},
			{
				"x": 2.5445492933,
				"y": 2.613092241,
				"z": 0.5226715562,
				"element": "H" 
			}
		],
		 "valence_orbital": [ 
			{
				"type": "occ",
				"energy": -0.27868,
				"method": "rhf"
			},
			{
				"type": "occ",
				"energy": -0.26248,
				"method": "rhf"
			},
			{
				"type": "occ",
				"energy": -0.25355,
				"method": "rhf"
			},
			{
				"type": "occ",
				"energy": -0.24473,
				"method": "rhf"
			},
			{
				"type": "occ",
				"energy": -0.24026,
				"method": "rhf"
			},
			{
				"type": "unocc",
				"energy": -0.05871,
				"method": "rhf"
			},
			{
				"type": "unocc",
				"energy": -0.00477,
				"method": "rhf"
			},
			{
				"type": "unocc",
				"energy": 0.03381,
				"method": "rhf"
			},
			{
				"type": "unocc",
				"energy": 0.04019,
				"method": "rhf"
			},
			{
				"type": "unocc",
				"energy": 0.06112,
				"method": "rhf"
			}
		],
		"cosmo_sigma_profile": { 
			"-0.025": 0.0,
			"-0.024": 0.0,
			"-0.023": 0.0,
			"-0.022": 0.0,
			"-0.021": 0.0,
			"-0.02": 0.0,
			"-0.019": 0.0,
			"-0.018": 0.104937970815,
			"-0.017": 1.2766600263,
			"-0.016": 3.30433717526,
			"-0.015": 3.345593895,
			"-0.014": 3.79208534434,
			"-0.013": 3.69846967583,
			"-0.012": 2.03365612972,
			"-0.011": 3.07688177657,
			"-0.01": 3.41983443796,
			"-0.009": 3.94357664545,
			"-0.008": 4.03463490442,
			"-0.007": 8.25653760202,
			"-0.006": 13.7367568952,
			"-0.005": 15.1296083158,
			"-0.004": 18.7321246833,
			"-0.003": 18.5160854337,
			"-0.002": 20.0829633775,
			"-0.001": 16.8386158712,
			"0.0": 16.6763242555,
			"0.001": 19.0798181493,
			"0.002": 18.7651497483,
			"0.003": 21.3926998538,
			"0.004": 16.2892011081,
			"0.005": 8.25162824968,
			"0.006": 7.39494529062,
			"0.007": 6.95808271383,
			"0.008": 8.73131406825,
			"0.009": 7.78780849603,
			"0.01": 6.49995380138,
			"0.011": 7.82731716499,
			"0.012": 6.3540300134,
			"0.013": 4.23111603904,
			"0.014": 3.47549503461,
			"0.015": 0.22823657389,
			"0.016": 0.0,
			"0.017": 0.0,
			"0.018": 0.0,
			"0.019": 0.0,
			"0.02": 0.0,
			"0.021": 0.0,
			"0.022": 0.0,
			"0.023": 0.0,
			"0.024": 0.0,
			"0.025": 0.0
		}
	}
}
