{
	 "smiles": "N#CC1=CC=C(OC2CCOCC2)C=C1", 
	 "Tm": 383.15, 
	 "num_atms": 28, 
	 "gaussian": { 
		 "optdone": 1, 
		 "sigma_profile": "yes", 
		 "theory": "DFT", 
		 "functional": "B3LYP", 
		 "basiset": "6-31G**", 
		 "properties": { 
			 "R2extent": 4689.831, 
			 "electric_dipole_moment_norm": 4.87152650203, 
			 "electric_quadrupole_moment_norm": 33.8411695785, 
			 "total_energy": -670.283440057, 
			 "HOMO_LUMO_gap": 0.19819, 
			 "cosmo_polarized_energy": -13.12, 
			 "cosmo_cavitation_energy": 31.42, 
			 "cosmo_dispersion_energy": -22.44, 
			 "cosmo_repulsion_energy": 1.76, 
			 "cosmo_total_nonelectrostatic_energy": 10.74, 
			 "SMD_solvation_energy": 6.49 
		},
		"coords": [
			{
				"x": 4.7220944646,
				"y": -4.399912542,
				"z": -1.0650282607,
				"element": "N" 
			},
			{
				"x": 3.7525861306,
				"y": -3.7756789938,
				"z": -0.9060571026,
				"element": "C" 
			},
			{
				"x": 2.5599408311,
				"y": -3.008457157,
				"z": -0.7112265112,
				"element": "C" 
			},
			{
				"x": 2.4802708852,
				"y": -2.0706375355,
				"z": 0.328626404,
				"element": "C" 
			},
			{
				"x": 1.3250728301,
				"y": -1.3179153709,
				"z": 0.5242054609,
				"element": "C" 
			},
			{
				"x": 0.2222127329,
				"y": -1.4991902709,
				"z": -0.32538126,
				"element": "C" 
			},
			{
				"x": -0.9609572462,
				"y": -0.8418956134,
				"z": -0.224788727,
				"element": "O" 
			},
			{
				"x": -1.1686486192,
				"y": 0.1611631062,
				"z": 0.7943960144,
				"element": "C" 
			},
			{
				"x": -2.6868460413,
				"y": 0.3087534987,
				"z": 0.938308014,
				"element": "C" 
			},
			{
				"x": -3.2951501423,
				"y": 0.9936925759,
				"z": -0.2897661665,
				"element": "C" 
			},
			{
				"x": -2.6765432572,
				"y": 2.2499443956,
				"z": -0.5395324014,
				"element": "O" 
			},
			{
				"x": -1.2888769434,
				"y": 2.1075716148,
				"z": -0.8129922508,
				"element": "C" 
			},
			{
				"x": -0.5399718831,
				"y": 1.5005755273,
				"z": 0.3785864076,
				"element": "C" 
			},
			{
				"x": 0.299760919,
				"y": -2.4376061737,
				"z": -1.3705070584,
				"element": "C" 
			},
			{
				"x": 1.4506858344,
				"y": -3.1829227816,
				"z": -1.562183628,
				"element": "C" 
			},
			{
				"x": 3.3311562345,
				"y": -1.9290367566,
				"z": 0.9867864923,
				"element": "H" 
			},
			{
				"x": 1.2981225035,
				"y": -0.5987068167,
				"z": 1.3330736364,
				"element": "H" 
			},
			{
				"x": -0.7419462679,
				"y": -0.1994369025,
				"z": 1.7379632824,
				"element": "H" 
			},
			{
				"x": -3.1402638841,
				"y": -0.6756757133,
				"z": 1.0955035127,
				"element": "H" 
			},
			{
				"x": -2.8886688351,
				"y": 0.9187904184,
				"z": 1.8261931616,
				"element": "H" 
			},
			{
				"x": -3.1992019515,
				"y": 0.3395612809,
				"z": -1.1705414369,
				"element": "H" 
			},
			{
				"x": -4.3576585613,
				"y": 1.1995650383,
				"z": -0.132624409,
				"element": "H" 
			},
			{
				"x": -0.9138078743,
				"y": 3.110628683,
				"z": -1.0346825999,
				"element": "H" 
			},
			{
				"x": -1.1392305128,
				"y": 1.4818011906,
				"z": -1.7073526128,
				"element": "H" 
			},
			{
				"x": -0.6012085288,
				"y": 2.1878298729,
				"z": 1.230905691,
				"element": "H" 
			},
			{
				"x": 0.5199048699,
				"y": 1.3735528171,
				"z": 0.1330467108,
				"element": "H" 
			},
			{
				"x": -0.5633873221,
				"y": -2.5626685512,
				"z": -2.0153463292,
				"element": "H" 
			},
			{
				"x": 1.5029596347,
				"y": -3.9059888406,
				"z": -2.3692840339,
				"element": "H" 
			}
		],
		 "valence_orbital": [ 
			{
				"type": "occ",
				"energy": -0.31567,
				"method": "rhf"
			},
			{
				"type": "occ",
				"energy": -0.31091,
				"method": "rhf"
			},
			{
				"type": "occ",
				"energy": -0.2768,
				"method": "rhf"
			},
			{
				"type": "occ",
				"energy": -0.25769,
				"method": "rhf"
			},
			{
				"type": "occ",
				"energy": -0.23757,
				"method": "rhf"
			},
			{
				"type": "unocc",
				"energy": -0.03938,
				"method": "rhf"
			},
			{
				"type": "unocc",
				"energy": -0.02511,
				"method": "rhf"
			},
			{
				"type": "unocc",
				"energy": 0.04175,
				"method": "rhf"
			},
			{
				"type": "unocc",
				"energy": 0.07044,
				"method": "rhf"
			},
			{
				"type": "unocc",
				"energy": 0.07443,
				"method": "rhf"
			}
		],
		"cosmo_sigma_profile": { 
			"-0.025": 0.0,
			"-0.024": 0.0,
			"-0.023": 0.0,
			"-0.022": 0.0,
			"-0.021": 0.0,
			"-0.02": 0.0,
			"-0.019": 0.0,
			"-0.018": 0.0,
			"-0.017": 0.0,
			"-0.016": 0.0,
			"-0.015": 0.0,
			"-0.014": 0.0,
			"-0.013": 0.0,
			"-0.012": 0.0,
			"-0.011": 0.0,
			"-0.01": 0.0,
			"-0.009": 0.0453213404891,
			"-0.008": 3.76821354118,
			"-0.007": 9.18660408003,
			"-0.006": 10.7085886009,
			"-0.005": 16.2179708425,
			"-0.004": 24.4341676429,
			"-0.003": 28.060008268,
			"-0.002": 26.2130893618,
			"-0.001": 20.802761391,
			"0.0": 14.7820525167,
			"0.001": 15.219739205,
			"0.002": 17.9680074199,
			"0.003": 14.0801301485,
			"0.004": 6.13714155176,
			"0.005": 5.11215170789,
			"0.006": 4.91808062502,
			"0.007": 4.05365650675,
			"0.008": 4.57751941012,
			"0.009": 5.37242030032,
			"0.01": 4.1007484645,
			"0.011": 4.28705366124,
			"0.012": 3.79475750319,
			"0.013": 4.21354035524,
			"0.014": 1.38870481404,
			"0.015": 0.0,
			"0.016": 0.0,
			"0.017": 0.0,
			"0.018": 0.0,
			"0.019": 0.0,
			"0.02": 0.0,
			"0.021": 0.0,
			"0.022": 0.0,
			"0.023": 0.0,
			"0.024": 0.0,
			"0.025": 0.0
		}
	}
}
