{
	 "smiles": "CCCCOC=C", 
	 "Tm": 181.15, 
	 "num_atms": 19, 
	 "gaussian": { 
		 "optdone": 1, 
		 "sigma_profile": "yes", 
		 "theory": "DFT", 
		 "functional": "B3LYP", 
		 "basiset": "6-31G**", 
		 "properties": { 
			 "R2extent": 1238.07, 
			 "electric_dipole_moment_norm": 0.948132670041, 
			 "electric_quadrupole_moment_norm": 3.29552899699, 
			 "total_energy": -311.067878242, 
			 "HOMO_LUMO_gap": 0.26398, 
			 "cosmo_polarized_energy": -3.31, 
			 "cosmo_cavitation_energy": 21.07, 
			 "cosmo_dispersion_energy": -15.12, 
			 "cosmo_repulsion_energy": 1.29, 
			 "cosmo_total_nonelectrostatic_energy": 7.24, 
			 "SMD_solvation_energy": 4.81 
		},
		"coords": [
			{
				"x": 0.8763524723,
				"y": 0.2190786422,
				"z": -1.2418969541,
				"element": "C" 
			},
			{
				"x": 1.9372893125,
				"y": -0.5652638478,
				"z": -0.4601922506,
				"element": "C" 
			},
			{
				"x": 1.5465737411,
				"y": -0.9358114623,
				"z": 0.9808455592,
				"element": "C" 
			},
			{
				"x": 0.4422082704,
				"y": -1.9895260888,
				"z": 1.1107276264,
				"element": "C" 
			},
			{
				"x": -0.8589066708,
				"y": -1.5209882489,
				"z": 0.7334289269,
				"element": "O" 
			},
			{
				"x": -1.5812389833,
				"y": -0.8177034613,
				"z": 1.6438741318,
				"element": "C" 
			},
			{
				"x": -1.2626336205,
				"y": -0.4678553903,
				"z": 2.8946291878,
				"element": "C" 
			},
			{
				"x": 0.6178459823,
				"y": 1.1501453017,
				"z": -0.7244165148,
				"element": "H" 
			},
			{
				"x": 1.2451403912,
				"y": 0.4840468199,
				"z": -2.2386186098,
				"element": "H" 
			},
			{
				"x": -0.044245139,
				"y": -0.3575075855,
				"z": -1.3586552885,
				"element": "H" 
			},
			{
				"x": 2.1924388414,
				"y": -1.484074506,
				"z": -1.0070057769,
				"element": "H" 
			},
			{
				"x": 2.8611455784,
				"y": 0.0261014753,
				"z": -0.4204828721,
				"element": "H" 
			},
			{
				"x": 1.2558903735,
				"y": -0.0351556042,
				"z": 1.5345101686,
				"element": "H" 
			},
			{
				"x": 2.4300946174,
				"y": -1.3412719433,
				"z": 1.4927896119,
				"element": "H" 
			},
			{
				"x": 0.6411860394,
				"y": -2.8281949648,
				"z": 0.4350594347,
				"element": "H" 
			},
			{
				"x": 0.3998677477,
				"y": -2.3868058398,
				"z": 2.132893195,
				"element": "H" 
			},
			{
				"x": -2.5424117926,
				"y": -0.5515527592,
				"z": 1.2111841944,
				"element": "H" 
			},
			{
				"x": -0.3152651904,
				"y": -0.6966359846,
				"z": 3.3666314664,
				"element": "H" 
			},
			{
				"x": -1.990131971,
				"y": 0.0792754477,
				"z": 3.4817947637,
				"element": "H" 
			}
		],
		 "valence_orbital": [ 
			{
				"type": "occ",
				"energy": -0.34381,
				"method": "rhf"
			},
			{
				"type": "occ",
				"energy": -0.32882,
				"method": "rhf"
			},
			{
				"type": "occ",
				"energy": -0.31728,
				"method": "rhf"
			},
			{
				"type": "occ",
				"energy": -0.31037,
				"method": "rhf"
			},
			{
				"type": "occ",
				"energy": -0.22179,
				"method": "rhf"
			},
			{
				"type": "unocc",
				"energy": 0.04219,
				"method": "rhf"
			},
			{
				"type": "unocc",
				"energy": 0.09183,
				"method": "rhf"
			},
			{
				"type": "unocc",
				"energy": 0.11743,
				"method": "rhf"
			},
			{
				"type": "unocc",
				"energy": 0.12271,
				"method": "rhf"
			},
			{
				"type": "unocc",
				"energy": 0.1308,
				"method": "rhf"
			}
		],
		"cosmo_sigma_profile": { 
			"-0.025": 0.0,
			"-0.024": 0.0,
			"-0.023": 0.0,
			"-0.022": 0.0,
			"-0.021": 0.0,
			"-0.02": 0.0,
			"-0.019": 0.0,
			"-0.018": 0.0,
			"-0.017": 0.0,
			"-0.016": 0.0,
			"-0.015": 0.0,
			"-0.014": 0.0,
			"-0.013": 0.0,
			"-0.012": 0.0,
			"-0.011": 0.0,
			"-0.01": 0.0,
			"-0.009": 0.0,
			"-0.008": 0.0,
			"-0.007": 0.576449136524,
			"-0.006": 1.89600145427,
			"-0.005": 6.64376393702,
			"-0.004": 11.2347575386,
			"-0.003": 16.3408391916,
			"-0.002": 21.9788635216,
			"-0.001": 21.4033301441,
			"0.0": 21.2773197117,
			"0.001": 18.7038338387,
			"0.002": 12.9123770567,
			"0.003": 7.11906613014,
			"0.004": 7.08542794708,
			"0.005": 5.13516842171,
			"0.006": 3.74135911172,
			"0.007": 3.13310933926,
			"0.008": 2.37535645609,
			"0.009": 0.892864765196,
			"0.01": 0.831753167409,
			"0.011": 0.702577213221,
			"0.012": 0.0480887084279,
			"0.013": 0.0,
			"0.014": 0.0,
			"0.015": 0.0,
			"0.016": 0.0,
			"0.017": 0.0,
			"0.018": 0.0,
			"0.019": 0.0,
			"0.02": 0.0,
			"0.021": 0.0,
			"0.022": 0.0,
			"0.023": 0.0,
			"0.024": 0.0,
			"0.025": 0.0
		}
	}
}
