{
	 "smiles": "CC1=C(C(=CC=C1)C(O)=O)[N+]([O-])=O", 
	 "Tm": 495.15, 
	 "num_atms": 20, 
	 "gaussian": { 
		 "optdone": 1, 
		 "sigma_profile": "yes", 
		 "theory": "DFT", 
		 "functional": "B3LYP", 
		 "basiset": "6-31G**", 
		 "properties": { 
			 "R2extent": 2537.7629, 
			 "electric_dipole_moment_norm": 3.41016950312, 
			 "electric_quadrupole_moment_norm": 14.092553892, 
			 "total_energy": -664.626194496, 
			 "HOMO_LUMO_gap": 0.18775, 
			 "cosmo_polarized_energy": -12.9, 
			 "cosmo_cavitation_energy": 25.32, 
			 "cosmo_dispersion_energy": -18.07, 
			 "cosmo_repulsion_energy": 1.42, 
			 "cosmo_total_nonelectrostatic_energy": 8.68, 
			 "SMD_solvation_energy": 8.09 
		},
		"coords": [
			{
				"x": -0.6407787201,
				"y": 2.8158612874,
				"z": 0.3545210555,
				"element": "C" 
			},
			{
				"x": 0.3015968658,
				"y": 1.7349013011,
				"z": -0.1181820072,
				"element": "C" 
			},
			{
				"x": 0.6028540951,
				"y": 0.6091023097,
				"z": 0.6603982216,
				"element": "C" 
			},
			{
				"x": 1.4816332962,
				"y": -0.3964997761,
				"z": 0.2319123959,
				"element": "C" 
			},
			{
				"x": 2.0942930243,
				"y": -0.2550029483,
				"z": -1.0181023116,
				"element": "C" 
			},
			{
				"x": 1.8203757765,
				"y": 0.8527010516,
				"z": -1.8135633754,
				"element": "C" 
			},
			{
				"x": 0.9333193544,
				"y": 1.8300899069,
				"z": -1.3654003759,
				"element": "C" 
			},
			{
				"x": 1.8011414996,
				"y": -1.6448254091,
				"z": 0.9921331598,
				"element": "C" 
			},
			{
				"x": 0.8234147952,
				"y": -2.0123470665,
				"z": 1.8442689067,
				"element": "O" 
			},
			{
				"x": 2.8107444233,
				"y": -2.2948645784,
				"z": 0.8218915083,
				"element": "O" 
			},
			{
				"x": 0.0164509163,
				"y": 0.5532406876,
				"z": 2.0169250322,
				"element": "N" 
			},
			{
				"x": -1.206664898,
				"y": 0.4921661697,
				"z": 2.098547692,
				"element": "O" 
			},
			{
				"x": 0.7969190608,
				"y": 0.6179772039,
				"z": 2.9607365613,
				"element": "O" 
			},
			{
				"x": -1.6668944792,
				"y": 2.4431858474,
				"z": 0.4158107707,
				"element": "H" 
			},
			{
				"x": -0.3713168868,
				"y": 3.1794937265,
				"z": 1.3515473308,
				"element": "H" 
			},
			{
				"x": -0.6172436842,
				"y": 3.6648767516,
				"z": -0.3320520158,
				"element": "H" 
			},
			{
				"x": 2.7781479543,
				"y": -1.0316026388,
				"z": -1.3414054526,
				"element": "H" 
			},
			{
				"x": 2.2971548864,
				"y": 0.9564633971,
				"z": -2.783108664,
				"element": "H" 
			},
			{
				"x": 0.7255988151,
				"y": 2.6963263667,
				"z": -1.9870497505,
				"element": "H" 
			},
			{
				"x": 1.1351539049,
				"y": -2.8120435899,
				"z": 2.2996713181,
				"element": "H" 
			}
		],
		 "valence_orbital": [ 
			{
				"type": "occ",
				"energy": -0.31278,
				"method": "rhf"
			},
			{
				"type": "occ",
				"energy": -0.30704,
				"method": "rhf"
			},
			{
				"type": "occ",
				"energy": -0.29364,
				"method": "rhf"
			},
			{
				"type": "occ",
				"energy": -0.27531,
				"method": "rhf"
			},
			{
				"type": "occ",
				"energy": -0.26915,
				"method": "rhf"
			},
			{
				"type": "unocc",
				"energy": -0.0814,
				"method": "rhf"
			},
			{
				"type": "unocc",
				"energy": -0.05805,
				"method": "rhf"
			},
			{
				"type": "unocc",
				"energy": -0.0278,
				"method": "rhf"
			},
			{
				"type": "unocc",
				"energy": 0.03376,
				"method": "rhf"
			},
			{
				"type": "unocc",
				"energy": 0.06887,
				"method": "rhf"
			}
		],
		"cosmo_sigma_profile": { 
			"-0.025": 0.0,
			"-0.024": 0.0,
			"-0.023": 0.0,
			"-0.022": 0.0,
			"-0.021": 0.0,
			"-0.02": 0.0,
			"-0.019": 0.671329108876,
			"-0.018": 0.94632296092,
			"-0.017": 0.844333287994,
			"-0.016": 0.773952555402,
			"-0.015": 1.1280730489,
			"-0.014": 0.751024826664,
			"-0.013": 0.253961143983,
			"-0.012": 0.72055775678,
			"-0.011": 0.744081272321,
			"-0.01": 0.705586982111,
			"-0.009": 0.31713600817,
			"-0.008": 3.18432230057,
			"-0.007": 9.12097847484,
			"-0.006": 12.045567457,
			"-0.005": 10.3612947394,
			"-0.004": 11.6958165537,
			"-0.003": 11.0981067621,
			"-0.002": 15.098636983,
			"-0.001": 17.0938006623,
			"0.0": 15.6524350691,
			"0.001": 15.8275048357,
			"0.002": 11.861268554,
			"0.003": 5.59415510421,
			"0.004": 6.71487682079,
			"0.005": 7.39050593567,
			"0.006": 7.69886172968,
			"0.007": 12.8571371188,
			"0.008": 7.53991603063,
			"0.009": 4.53913294127,
			"0.01": 3.0915879468,
			"0.011": 5.02692608974,
			"0.012": 0.753039144603,
			"0.013": 0.0,
			"0.014": 0.0,
			"0.015": 0.0,
			"0.016": 0.0,
			"0.017": 0.0,
			"0.018": 0.0,
			"0.019": 0.0,
			"0.02": 0.0,
			"0.021": 0.0,
			"0.022": 0.0,
			"0.023": 0.0,
			"0.024": 0.0,
			"0.025": 0.0
		}
	}
}
