{
	 "smiles": "CC=C1C(O)=C(C2=NNC(=O)C2=C/NC2=CC=NC=C2)C(=O)N(C)C1=CC=C", 
	 "Tm": 511.15, 
	 "num_atms": 47, 
	 "gaussian": { 
		 "optdone": 1, 
		 "sigma_profile": "yes", 
		 "theory": "DFT", 
		 "functional": "B3LYP", 
		 "basiset": "6-31G**", 
		 "properties": { 
			 "R2extent": 14838.4625, 
			 "electric_dipole_moment_norm": 7.68098260576, 
			 "electric_quadrupole_moment_norm": 11.7823522469, 
			 "total_energy": -1272.93880152, 
			 "HOMO_LUMO_gap": 0.12301, 
			 "cosmo_polarized_energy": -27.23, 
			 "cosmo_cavitation_energy": 50.93, 
			 "cosmo_dispersion_energy": -35.49, 
			 "cosmo_repulsion_energy": 2.65, 
			 "cosmo_total_nonelectrostatic_energy": 18.09, 
			 "SMD_solvation_energy": 8.04 
		},
		"coords": [
			{
				"x": -3.0047199438,
				"y": 0.0483010479,
				"z": 4.5311232674,
				"element": "C" 
			},
			{
				"x": -2.5858300099,
				"y": -0.921781141,
				"z": 3.4787160206,
				"element": "C" 
			},
			{
				"x": -1.3712421444,
				"y": -1.0564649379,
				"z": 2.8936336516,
				"element": "C" 
			},
			{
				"x": -1.2037154576,
				"y": -2.0037409953,
				"z": 1.7766028056,
				"element": "C" 
			},
			{
				"x": -2.0039368109,
				"y": -3.0921775042,
				"z": 1.7301613078,
				"element": "O" 
			},
			{
				"x": -0.3396305282,
				"y": -1.7276859377,
				"z": 0.7591741156,
				"element": "C" 
			},
			{
				"x": -0.1112919216,
				"y": -2.6699240122,
				"z": -0.3563685897,
				"element": "C" 
			},
			{
				"x": 0.0677127122,
				"y": -3.9452173995,
				"z": -0.0899959741,
				"element": "N" 
			},
			{
				"x": 0.1883978199,
				"y": -4.5891211216,
				"z": -1.3020601913,
				"element": "N" 
			},
			{
				"x": 0.0843214631,
				"y": -3.7610311078,
				"z": -2.3934469477,
				"element": "C" 
			},
			{
				"x": 0.1446649343,
				"y": -4.0821331162,
				"z": -3.5933205932,
				"element": "O" 
			},
			{
				"x": -0.1058826833,
				"y": -2.4389571709,
				"z": -1.7902186891,
				"element": "C" 
			},
			{
				"x": -0.2156810585,
				"y": -1.3054615611,
				"z": -2.5559725269,
				"element": "C" 
			},
			{
				"x": -0.1986292334,
				"y": -1.3786046476,
				"z": -3.903708309,
				"element": "N" 
			},
			{
				"x": -0.2511793343,
				"y": -0.3174309744,
				"z": -4.8076185567,
				"element": "C" 
			},
			{
				"x": -0.360113696,
				"y": -0.6039326298,
				"z": -6.17700166,
				"element": "C" 
			},
			{
				"x": -0.4172088082,
				"y": 0.4525617613,
				"z": -7.0800540833,
				"element": "C" 
			},
			{
				"x": -0.3769025727,
				"y": 1.7461709929,
				"z": -6.7321568067,
				"element": "N" 
			},
			{
				"x": -0.2665343998,
				"y": 2.0025708157,
				"z": -5.4219338717,
				"element": "C" 
			},
			{
				"x": -0.1963011335,
				"y": 1.0317630411,
				"z": -4.4261176873,
				"element": "C" 
			},
			{
				"x": 0.3681231103,
				"y": -0.4297330629,
				"z": 0.7659851345,
				"element": "C" 
			},
			{
				"x": 0.9476149027,
				"y": 0.0089742121,
				"z": -0.22954052,
				"element": "O" 
			},
			{
				"x": 0.3909518571,
				"y": 0.296433247,
				"z": 1.9630336798,
				"element": "N" 
			},
			{
				"x": 1.2545513846,
				"y": 1.4737740612,
				"z": 2.0026456837,
				"element": "C" 
			},
			{
				"x": -0.1929349147,
				"y": -0.1956511653,
				"z": 3.1530527363,
				"element": "C" 
			},
			{
				"x": 0.3035869126,
				"y": 0.1617039944,
				"z": 4.3683187352,
				"element": "C" 
			},
			{
				"x": -0.0079003819,
				"y": -0.32245937,
				"z": 5.7132872506,
				"element": "C" 
			},
			{
				"x": -0.4826408922,
				"y": -1.5173556254,
				"z": 6.0982215354,
				"element": "C" 
			},
			{
				"x": -2.3375129641,
				"y": 0.9117818641,
				"z": 4.5809046363,
				"element": "H" 
			},
			{
				"x": -2.9857919399,
				"y": -0.4239784036,
				"z": 5.5232219657,
				"element": "H" 
			},
			{
				"x": -4.0287666363,
				"y": 0.3882450143,
				"z": 4.3463344523,
				"element": "H" 
			},
			{
				"x": -3.3763913692,
				"y": -1.5775510028,
				"z": 3.1149231115,
				"element": "H" 
			},
			{
				"x": -2.3510018789,
				"y": -3.2649294168,
				"z": 2.6158195514,
				"element": "H" 
			},
			{
				"x": 0.3361670557,
				"y": -5.585773138,
				"z": -1.3210041635,
				"element": "H" 
			},
			{
				"x": -0.2940260455,
				"y": -0.3303583425,
				"z": -2.0939432836,
				"element": "H" 
			},
			{
				"x": -0.1070049172,
				"y": -2.3390010962,
				"z": -4.2635957949,
				"element": "H" 
			},
			{
				"x": -0.4036336609,
				"y": -1.6319470219,
				"z": -6.5243266851,
				"element": "H" 
			},
			{
				"x": -0.5026107071,
				"y": 0.2441302606,
				"z": -8.145107341,
				"element": "H" 
			},
			{
				"x": -0.2251132368,
				"y": 3.0541662519,
				"z": -5.1427975837,
				"element": "H" 
			},
			{
				"x": -0.0820443885,
				"y": 1.3311164072,
				"z": -3.3906352855,
				"element": "H" 
			},
			{
				"x": 0.7686802,
				"y": 2.2653929177,
				"z": 2.578863926,
				"element": "H" 
			},
			{
				"x": 1.4152113102,
				"y": 1.7977457296,
				"z": 0.9769943369,
				"element": "H" 
			},
			{
				"x": 2.2283818854,
				"y": 1.2478318126,
				"z": 2.4538531083,
				"element": "H" 
			},
			{
				"x": 1.1128720477,
				"y": 0.8853836369,
				"z": 4.3594686307,
				"element": "H" 
			},
			{
				"x": 0.2659855273,
				"y": 0.3795663595,
				"z": 6.5014576953,
				"element": "H" 
			},
			{
				"x": -0.6098110608,
				"y": -1.748725529,
				"z": 7.1508739828,
				"element": "H" 
			},
			{
				"x": -0.7371383927,
				"y": -2.2991859966,
				"z": 5.390353823,
				"element": "H" 
			}
		],
		 "valence_orbital": [ 
			{
				"type": "occ",
				"energy": -0.25244,
				"method": "rhf"
			},
			{
				"type": "occ",
				"energy": -0.24498,
				"method": "rhf"
			},
			{
				"type": "occ",
				"energy": -0.22829,
				"method": "rhf"
			},
			{
				"type": "occ",
				"energy": -0.21354,
				"method": "rhf"
			},
			{
				"type": "occ",
				"energy": -0.19709,
				"method": "rhf"
			},
			{
				"type": "unocc",
				"energy": -0.07408,
				"method": "rhf"
			},
			{
				"type": "unocc",
				"energy": -0.05893,
				"method": "rhf"
			},
			{
				"type": "unocc",
				"energy": -0.02738,
				"method": "rhf"
			},
			{
				"type": "unocc",
				"energy": -0.01061,
				"method": "rhf"
			},
			{
				"type": "unocc",
				"energy": 0.00735,
				"method": "rhf"
			}
		],
		"cosmo_sigma_profile": { 
			"-0.025": 0.0,
			"-0.024": 0.0,
			"-0.023": 0.0,
			"-0.022": 0.0,
			"-0.021": 0.0,
			"-0.02": 0.0,
			"-0.019": 0.0,
			"-0.018": 0.869015443925,
			"-0.017": 0.562071545789,
			"-0.016": 1.71615134325,
			"-0.015": 2.10135064359,
			"-0.014": 1.90889979145,
			"-0.013": 1.6127391785,
			"-0.012": 2.34691222425,
			"-0.011": 1.88158042417,
			"-0.01": 2.5390654571,
			"-0.009": 5.50159483699,
			"-0.008": 5.62445560489,
			"-0.007": 8.85577726759,
			"-0.006": 15.7009083157,
			"-0.005": 27.9143614023,
			"-0.004": 26.6240735646,
			"-0.003": 28.6665311125,
			"-0.002": 31.7965067509,
			"-0.001": 36.1920233324,
			"0.0": 37.9011612483,
			"0.001": 34.6711885808,
			"0.002": 31.6250471433,
			"0.003": 15.9861057711,
			"0.004": 10.9622203128,
			"0.005": 11.4016052295,
			"0.006": 8.48432602093,
			"0.007": 6.65305127451,
			"0.008": 5.91595653538,
			"0.009": 6.49140560409,
			"0.01": 6.64490127493,
			"0.011": 6.42914704794,
			"0.012": 6.36809010075,
			"0.013": 5.35383201517,
			"0.014": 5.42779310088,
			"0.015": 2.90364710846,
			"0.016": 1.48763542116,
			"0.017": 0.460921535206,
			"0.018": 0.0124770419645,
			"0.019": 0.0,
			"0.02": 0.0,
			"0.021": 0.0,
			"0.022": 0.0,
			"0.023": 0.0,
			"0.024": 0.0,
			"0.025": 0.0
		}
	}
}
