{
	 "smiles": "NC(=O)NN=CC1=CC=C(O1)[N+]([O-])=O", 
	 "Tm": 511.15, 
	 "num_atms": 20, 
	 "gaussian": { 
		 "optdone": 1, 
		 "sigma_profile": "yes", 
		 "theory": "DFT", 
		 "functional": "B3LYP", 
		 "basiset": "6-31G**", 
		 "properties": { 
			 "R2extent": 5437.4212, 
			 "electric_dipole_moment_norm": 4.31816221326, 
			 "electric_quadrupole_moment_norm": 29.3503555955, 
			 "total_energy": -752.011892878, 
			 "HOMO_LUMO_gap": 0.13436, 
			 "cosmo_polarized_energy": -21.32, 
			 "cosmo_cavitation_energy": 27.79, 
			 "cosmo_dispersion_energy": -20.16, 
			 "cosmo_repulsion_energy": 1.62, 
			 "cosmo_total_nonelectrostatic_energy": 9.26, 
			 "SMD_solvation_energy": 8.96 
		},
		"coords": [
			{
				"x": -0.6829431604,
				"y": 3.3000993034,
				"z": -1.2766618272,
				"element": "N" 
			},
			{
				"x": -0.9375261744,
				"y": 2.518422173,
				"z": -2.3588369843,
				"element": "C" 
			},
			{
				"x": -1.0120313188,
				"y": 2.8951809988,
				"z": -3.5168925608,
				"element": "O" 
			},
			{
				"x": -1.1433095674,
				"y": 1.1591715494,
				"z": -2.0593524448,
				"element": "N" 
			},
			{
				"x": -1.0562910104,
				"y": 0.6737983031,
				"z": -0.814018133,
				"element": "N" 
			},
			{
				"x": -1.2586001097,
				"y": -0.5867751035,
				"z": -0.6255896222,
				"element": "C" 
			},
			{
				"x": -1.1734164842,
				"y": -1.1466671877,
				"z": 0.6999385795,
				"element": "C" 
			},
			{
				"x": -0.9093227191,
				"y": -0.6303291062,
				"z": 1.9539471449,
				"element": "C" 
			},
			{
				"x": -0.9751476147,
				"y": -1.7161091574,
				"z": 2.859958958,
				"element": "C" 
			},
			{
				"x": -1.2739743174,
				"y": -2.8124898398,
				"z": 2.094321606,
				"element": "C" 
			},
			{
				"x": -1.3980771172,
				"y": -2.4904057076,
				"z": 0.7859155514,
				"element": "O" 
			},
			{
				"x": -1.4634404764,
				"y": -4.1765412098,
				"z": 2.4608758573,
				"element": "N" 
			},
			{
				"x": -1.3415804902,
				"y": -4.4303662048,
				"z": 3.6644087565,
				"element": "O" 
			},
			{
				"x": -1.7287354343,
				"y": -4.9838177768,
				"z": 1.5703389264,
				"element": "O" 
			},
			{
				"x": -0.5483388228,
				"y": 2.8882918744,
				"z": -0.3674160426,
				"element": "H" 
			},
			{
				"x": -0.43533696,
				"y": 4.2591578992,
				"z": -1.4518407552,
				"element": "H" 
			},
			{
				"x": -1.3574074131,
				"y": 0.5690195534,
				"z": -2.860088353,
				"element": "H" 
			},
			{
				"x": -1.4992250477,
				"y": -1.2798221319,
				"z": -1.4371828432,
				"element": "H" 
			},
			{
				"x": -0.6974115259,
				"y": 0.4038987714,
				"z": 2.1781957489,
				"element": "H" 
			},
			{
				"x": -0.8274842358,
				"y": -1.7146170006,
				"z": 3.9285784376,
				"element": "H" 
			}
		],
		 "valence_orbital": [ 
			{
				"type": "occ",
				"energy": -0.30523,
				"method": "rhf"
			},
			{
				"type": "occ",
				"energy": -0.29462,
				"method": "rhf"
			},
			{
				"type": "occ",
				"energy": -0.28323,
				"method": "rhf"
			},
			{
				"type": "occ",
				"energy": -0.28007,
				"method": "rhf"
			},
			{
				"type": "occ",
				"energy": -0.23708,
				"method": "rhf"
			},
			{
				"type": "unocc",
				"energy": -0.10272,
				"method": "rhf"
			},
			{
				"type": "unocc",
				"energy": -0.05534,
				"method": "rhf"
			},
			{
				"type": "unocc",
				"energy": 0.03319,
				"method": "rhf"
			},
			{
				"type": "unocc",
				"energy": 0.05398,
				"method": "rhf"
			},
			{
				"type": "unocc",
				"energy": 0.06412,
				"method": "rhf"
			}
		],
		"cosmo_sigma_profile": { 
			"-0.025": 0.0,
			"-0.024": 0.0,
			"-0.023": 0.0,
			"-0.022": 0.0,
			"-0.021": 0.0,
			"-0.02": 0.0,
			"-0.019": 0.0,
			"-0.018": 0.0,
			"-0.017": 0.0,
			"-0.016": 0.501063371754,
			"-0.015": 2.44802423355,
			"-0.014": 2.3393816611,
			"-0.013": 2.93602263497,
			"-0.012": 3.08491828551,
			"-0.011": 2.94383914924,
			"-0.01": 4.39306794882,
			"-0.009": 6.8710877717,
			"-0.008": 6.63694420321,
			"-0.007": 6.82130140196,
			"-0.006": 8.43439683346,
			"-0.005": 7.13299294329,
			"-0.004": 10.458686594,
			"-0.003": 12.5607489366,
			"-0.002": 14.6772937598,
			"-0.001": 16.9369085665,
			"0.0": 18.2188017157,
			"0.001": 15.5064086926,
			"0.002": 8.34651473425,
			"0.003": 7.05144332931,
			"0.004": 5.67630682125,
			"0.005": 5.47364774581,
			"0.006": 4.76664001511,
			"0.007": 6.79260244517,
			"0.008": 14.2325507374,
			"0.009": 7.82625091103,
			"0.01": 5.72182872921,
			"0.011": 2.27782925021,
			"0.012": 1.95450054843,
			"0.013": 5.39216631567,
			"0.014": 4.32463527946,
			"0.015": 0.134026782881,
			"0.016": 0.0,
			"0.017": 0.0,
			"0.018": 0.0,
			"0.019": 0.0,
			"0.02": 0.0,
			"0.021": 0.0,
			"0.022": 0.0,
			"0.023": 0.0,
			"0.024": 0.0,
			"0.025": 0.0
		}
	}
}
