{
	 "smiles": "CCOC(=O)C1=C(NC(=O)C(C)Cl)SC=C1C1=CC=CC=C1", 
	 "Tm": 524.15, 
	 "num_atms": 38, 
	 "gaussian": { 
		 "optdone": 1, 
		 "sigma_profile": "yes", 
		 "theory": "DFT", 
		 "functional": "B3LYP", 
		 "basiset": "6-31G**", 
		 "properties": { 
			 "R2extent": 10048.5074, 
			 "electric_dipole_moment_norm": 1.47499725762, 
			 "electric_quadrupole_moment_norm": 9.1360698651, 
			 "total_energy": -1758.17142857, 
			 "HOMO_LUMO_gap": 0.18053, 
			 "cosmo_polarized_energy": -15.38, 
			 "cosmo_cavitation_energy": 45.28, 
			 "cosmo_dispersion_energy": -30.44, 
			 "cosmo_repulsion_energy": 2.32, 
			 "cosmo_total_nonelectrostatic_energy": 17.16, 
			 "SMD_solvation_energy": 8.03 
		},
		"coords": [
			{
				"x": 1.6039797853,
				"y": 2.292904328,
				"z": -1.9662540315,
				"element": "C" 
			},
			{
				"x": 0.6061436756,
				"y": 2.6176788654,
				"z": -0.8650313355,
				"element": "C" 
			},
			{
				"x": 0.2098735213,
				"y": 1.4047095732,
				"z": -0.1794225649,
				"element": "O" 
			},
			{
				"x": 0.9036224738,
				"y": 1.0729319178,
				"z": 0.9233602691,
				"element": "C" 
			},
			{
				"x": 1.7928336508,
				"y": 1.7458306965,
				"z": 1.4091341784,
				"element": "O" 
			},
			{
				"x": 0.4504079052,
				"y": -0.2381465361,
				"z": 1.4731577969,
				"element": "C" 
			},
			{
				"x": 1.3564109827,
				"y": -1.1493306895,
				"z": 1.9688051612,
				"element": "C" 
			},
			{
				"x": 2.7515690506,
				"y": -1.0553271575,
				"z": 2.0291776751,
				"element": "N" 
			},
			{
				"x": 3.5510902412,
				"y": -0.6983703387,
				"z": 0.9743494524,
				"element": "C" 
			},
			{
				"x": 3.1576733752,
				"y": -0.5057246916,
				"z": -0.1641500944,
				"element": "O" 
			},
			{
				"x": 5.0363351561,
				"y": -0.4550353668,
				"z": 1.2751997301,
				"element": "C" 
			},
			{
				"x": 5.3340065561,
				"y": 1.0425938648,
				"z": 1.2952296095,
				"element": "C" 
			},
			{
				"x": 5.6155439203,
				"y": -1.2318892127,
				"z": 2.8381969256,
				"element": "Cl" 
			},
			{
				"x": 0.5767305433,
				"y": -2.6264642732,
				"z": 2.4780304568,
				"element": "S" 
			},
			{
				"x": -0.9775155897,
				"y": -1.9827633862,
				"z": 2.0729861344,
				"element": "C" 
			},
			{
				"x": -0.911704386,
				"y": -0.7219471874,
				"z": 1.5359419635,
				"element": "C" 
			},
			{
				"x": -2.1343015961,
				"y": 0.0363682784,
				"z": 1.1749015617,
				"element": "C" 
			},
			{
				"x": -3.1471077259,
				"y": -0.5765960824,
				"z": 0.4215132317,
				"element": "C" 
			},
			{
				"x": -4.3265936698,
				"y": 0.1062861727,
				"z": 0.123369092,
				"element": "C" 
			},
			{
				"x": -4.5122210657,
				"y": 1.4144675792,
				"z": 0.5720412264,
				"element": "C" 
			},
			{
				"x": -3.5103305597,
				"y": 2.0348690711,
				"z": 1.3225028149,
				"element": "C" 
			},
			{
				"x": -2.3329463898,
				"y": 1.3527069054,
				"z": 1.6225019912,
				"element": "C" 
			},
			{
				"x": 2.4996131811,
				"y": 1.8289314049,
				"z": -1.5459561354,
				"element": "H" 
			},
			{
				"x": 1.1690584172,
				"y": 1.6007877453,
				"z": -2.6927528002,
				"element": "H" 
			},
			{
				"x": 1.8922536671,
				"y": 3.2103800519,
				"z": -2.490650778,
				"element": "H" 
			},
			{
				"x": 1.0256285678,
				"y": 3.3141539217,
				"z": -0.1361416131,
				"element": "H" 
			},
			{
				"x": -0.3250491467,
				"y": 3.02477255,
				"z": -1.2666822417,
				"element": "H" 
			},
			{
				"x": 3.2084379818,
				"y": -1.2228916804,
				"z": 2.9169657943,
				"element": "H" 
			},
			{
				"x": 5.6012044864,
				"y": -0.9573592148,
				"z": 0.4896638406,
				"element": "H" 
			},
			{
				"x": 6.3998809386,
				"y": 1.2191036577,
				"z": 1.4542875985,
				"element": "H" 
			},
			{
				"x": 5.0389461863,
				"y": 1.464397467,
				"z": 0.3307870558,
				"element": "H" 
			},
			{
				"x": 4.7605174216,
				"y": 1.5434489173,
				"z": 2.078503368,
				"element": "H" 
			},
			{
				"x": -1.8716457692,
				"y": -2.5422970518,
				"z": 2.3092459808,
				"element": "H" 
			},
			{
				"x": -2.9956386613,
				"y": -1.5868945398,
				"z": 0.0528233284,
				"element": "H" 
			},
			{
				"x": -5.096898841,
				"y": -0.3826958862,
				"z": -0.4662701179,
				"element": "H" 
			},
			{
				"x": -5.4293368718,
				"y": 1.9476647156,
				"z": 0.3388679109,
				"element": "H" 
			},
			{
				"x": -3.6492157088,
				"y": 3.0505830145,
				"z": 1.6820000876,
				"element": "H" 
			},
			{
				"x": -1.5684557039,
				"y": 1.8361625964,
				"z": 2.2237674767,
				"element": "H" 
			}
		],
		 "valence_orbital": [ 
			{
				"type": "occ",
				"energy": -0.26724,
				"method": "rhf"
			},
			{
				"type": "occ",
				"energy": -0.26524,
				"method": "rhf"
			},
			{
				"type": "occ",
				"energy": -0.25168,
				"method": "rhf"
			},
			{
				"type": "occ",
				"energy": -0.24577,
				"method": "rhf"
			},
			{
				"type": "occ",
				"energy": -0.22521,
				"method": "rhf"
			},
			{
				"type": "unocc",
				"energy": -0.04468,
				"method": "rhf"
			},
			{
				"type": "unocc",
				"energy": -0.01968,
				"method": "rhf"
			},
			{
				"type": "unocc",
				"energy": -0.00403,
				"method": "rhf"
			},
			{
				"type": "unocc",
				"energy": 0.00255,
				"method": "rhf"
			},
			{
				"type": "unocc",
				"energy": 0.00503,
				"method": "rhf"
			}
		],
		"cosmo_sigma_profile": { 
			"-0.025": 0.0,
			"-0.024": 0.0,
			"-0.023": 0.0,
			"-0.022": 0.0,
			"-0.021": 0.0,
			"-0.02": 0.0,
			"-0.019": 0.0,
			"-0.018": 0.0,
			"-0.017": 0.0,
			"-0.016": 0.0,
			"-0.015": 0.104655800824,
			"-0.014": 0.720083303068,
			"-0.013": 0.825705797996,
			"-0.012": 1.04071727406,
			"-0.011": 0.753039927389,
			"-0.01": 0.993966423038,
			"-0.009": 3.257786569,
			"-0.008": 5.80964115733,
			"-0.007": 4.50203547429,
			"-0.006": 13.0413890529,
			"-0.005": 25.1751574508,
			"-0.004": 32.8454506701,
			"-0.003": 30.5275182633,
			"-0.002": 30.225191871,
			"-0.001": 28.668505898,
			"0.0": 25.9799601328,
			"0.001": 26.1535245093,
			"0.002": 27.2058398693,
			"0.003": 24.2386229008,
			"0.004": 19.5579849058,
			"0.005": 21.5794360089,
			"0.006": 13.5980375492,
			"0.007": 6.27844249041,
			"0.008": 5.83717247075,
			"0.009": 2.94729533757,
			"0.01": 4.18169762392,
			"0.011": 4.55159399078,
			"0.012": 3.50434658205,
			"0.013": 0.294542184319,
			"0.014": 0.0,
			"0.015": 0.0,
			"0.016": 0.0,
			"0.017": 0.0,
			"0.018": 0.0,
			"0.019": 0.0,
			"0.02": 0.0,
			"0.021": 0.0,
			"0.022": 0.0,
			"0.023": 0.0,
			"0.024": 0.0,
			"0.025": 0.0
		}
	}
}
