{
	 "smiles": "CC(C)(C)OC1=NC=C(C=C1)C(O)=O", 
	 "Tm": 413.15, 
	 "num_atms": 27, 
	 "gaussian": { 
		 "optdone": 1, 
		 "sigma_profile": "yes", 
		 "theory": "DFT", 
		 "functional": "B3LYP", 
		 "basiset": "6-31G**", 
		 "properties": { 
			 "R2extent": 4593.6905, 
			 "electric_dipole_moment_norm": 2.01990901528, 
			 "electric_quadrupole_moment_norm": 8.9960007281, 
			 "total_energy": -669.354037243, 
			 "HOMO_LUMO_gap": 0.19542, 
			 "cosmo_polarized_energy": -9.44, 
			 "cosmo_cavitation_energy": 30.43, 
			 "cosmo_dispersion_energy": -21.81, 
			 "cosmo_repulsion_energy": 1.72, 
			 "cosmo_total_nonelectrostatic_energy": 10.34, 
			 "SMD_solvation_energy": 6.76 
		},
		"coords": [
			{
				"x": -2.9762443185,
				"y": 0.7181257107,
				"z": 0.874389756,
				"element": "C" 
			},
			{
				"x": -1.6911266778,
				"y": 0.081962138,
				"z": 0.3351257189,
				"element": "C" 
			},
			{
				"x": -1.7754698515,
				"y": -1.4464319943,
				"z": 0.4116271852,
				"element": "C" 
			},
			{
				"x": -1.3984257148,
				"y": 0.5826305976,
				"z": -1.0835477922,
				"element": "C" 
			},
			{
				"x": -0.6801469599,
				"y": 0.5888950118,
				"z": 1.2780265526,
				"element": "O" 
			},
			{
				"x": 0.6289406461,
				"y": 0.3026271493,
				"z": 1.2197389695,
				"element": "C" 
			},
			{
				"x": 1.1312069553,
				"y": -0.4899511794,
				"z": 0.2701032927,
				"element": "N" 
			},
			{
				"x": 2.4496483745,
				"y": -0.724565588,
				"z": 0.2843139975,
				"element": "C" 
			},
			{
				"x": 3.3234369681,
				"y": -0.1893827561,
				"z": 1.2317790895,
				"element": "C" 
			},
			{
				"x": 2.7771024924,
				"y": 0.6447541508,
				"z": 2.2267801697,
				"element": "C" 
			},
			{
				"x": 1.4225920908,
				"y": 0.8978256914,
				"z": 2.2284995963,
				"element": "C" 
			},
			{
				"x": 4.7761800529,
				"y": -0.4573037487,
				"z": 1.2347438402,
				"element": "C" 
			},
			{
				"x": 5.1706453007,
				"y": -1.2746806729,
				"z": 0.2240503605,
				"element": "O" 
			},
			{
				"x": 5.5638834499,
				"y": -0.0072233223,
				"z": 2.0451794946,
				"element": "O" 
			},
			{
				"x": -2.9004149509,
				"y": 1.809183596,
				"z": 0.8626826665,
				"element": "H" 
			},
			{
				"x": -3.1628441889,
				"y": 0.396922858,
				"z": 1.9031284095,
				"element": "H" 
			},
			{
				"x": -3.8297719742,
				"y": 0.4222403022,
				"z": 0.2574830288,
				"element": "H" 
			},
			{
				"x": -1.931604451,
				"y": -1.7668433694,
				"z": 1.4464847569,
				"element": "H" 
			},
			{
				"x": -2.6270961168,
				"y": -1.7933131066,
				"z": -0.1828015664,
				"element": "H" 
			},
			{
				"x": -0.8675641033,
				"y": -1.9123500532,
				"z": 0.0287580087,
				"element": "H" 
			},
			{
				"x": -0.4871862565,
				"y": 0.1356074129,
				"z": -1.4807562197,
				"element": "H" 
			},
			{
				"x": -1.2922747294,
				"y": 1.6719844722,
				"z": -1.0875000057,
				"element": "H" 
			},
			{
				"x": -2.2344441927,
				"y": 0.3211046843,
				"z": -1.7405170528,
				"element": "H" 
			},
			{
				"x": 2.8282822464,
				"y": -1.373094851,
				"z": -0.5008548075,
				"element": "H" 
			},
			{
				"x": 3.4372197059,
				"y": 1.0723587219,
				"z": 2.9742989293,
				"element": "H" 
			},
			{
				"x": 0.9496241013,
				"y": 1.5314196527,
				"z": 2.9696811871,
				"element": "H" 
			},
			{
				"x": 6.130752102,
				"y": -1.3760015075,
				"z": 0.3290024342,
				"element": "H" 
			}
		],
		 "valence_orbital": [ 
			{
				"type": "occ",
				"energy": -0.31638,
				"method": "rhf"
			},
			{
				"type": "occ",
				"energy": -0.29154,
				"method": "rhf"
			},
			{
				"type": "occ",
				"energy": -0.28163,
				"method": "rhf"
			},
			{
				"type": "occ",
				"energy": -0.26415,
				"method": "rhf"
			},
			{
				"type": "occ",
				"energy": -0.23863,
				"method": "rhf"
			},
			{
				"type": "unocc",
				"energy": -0.04321,
				"method": "rhf"
			},
			{
				"type": "unocc",
				"energy": -0.02632,
				"method": "rhf"
			},
			{
				"type": "unocc",
				"energy": 0.05841,
				"method": "rhf"
			},
			{
				"type": "unocc",
				"energy": 0.07903,
				"method": "rhf"
			},
			{
				"type": "unocc",
				"energy": 0.08716,
				"method": "rhf"
			}
		],
		"cosmo_sigma_profile": { 
			"-0.025": 0.0,
			"-0.024": 0.0,
			"-0.023": 0.0,
			"-0.022": 0.0,
			"-0.021": 0.0,
			"-0.02": 0.0,
			"-0.019": 0.111978601431,
			"-0.018": 0.696041209317,
			"-0.017": 0.75932854072,
			"-0.016": 0.868614404608,
			"-0.015": 0.951909711227,
			"-0.014": 1.09612608601,
			"-0.013": 0.408019029323,
			"-0.012": 0.46446847779,
			"-0.011": 0.716391073901,
			"-0.01": 0.413931197324,
			"-0.009": 0.501974936033,
			"-0.008": 0.871026325168,
			"-0.007": 3.95285800559,
			"-0.006": 5.47699138449,
			"-0.005": 5.72918822757,
			"-0.004": 15.4599852086,
			"-0.003": 19.0604948051,
			"-0.002": 21.3974355299,
			"-0.001": 25.5527001018,
			"0.0": 37.7533494298,
			"0.001": 33.680236851,
			"0.002": 14.1956311564,
			"0.003": 9.76565970785,
			"0.004": 6.45069672182,
			"0.005": 6.98789738673,
			"0.006": 4.80984490374,
			"0.007": 5.68138494757,
			"0.008": 3.9753420849,
			"0.009": 2.3435610138,
			"0.01": 2.01346418328,
			"0.011": 3.22373621909,
			"0.012": 4.49310825406,
			"0.013": 0.162894294036,
			"0.014": 0.0,
			"0.015": 0.0,
			"0.016": 0.0,
			"0.017": 0.0,
			"0.018": 0.0,
			"0.019": 0.0,
			"0.02": 0.0,
			"0.021": 0.0,
			"0.022": 0.0,
			"0.023": 0.0,
			"0.024": 0.0,
			"0.025": 0.0
		}
	}
}
