{
	 "smiles": "COC1=C(C=CC=C1)C1=NN=C(N)O1", 
	 "Tm": 449.15, 
	 "num_atms": 23, 
	 "gaussian": { 
		 "optdone": 1, 
		 "sigma_profile": "yes", 
		 "theory": "DFT", 
		 "functional": "B3LYP", 
		 "basiset": "6-31G**", 
		 "properties": { 
			 "R2extent": 3862.324, 
			 "electric_dipole_moment_norm": 3.8292094406, 
			 "electric_quadrupole_moment_norm": 25.9805394261, 
			 "total_energy": -663.039942317, 
			 "HOMO_LUMO_gap": 0.17575, 
			 "cosmo_polarized_energy": -17.03, 
			 "cosmo_cavitation_energy": 27.84, 
			 "cosmo_dispersion_energy": -20.23, 
			 "cosmo_repulsion_energy": 1.59, 
			 "cosmo_total_nonelectrostatic_energy": 9.2, 
			 "SMD_solvation_energy": 4.0 
		},
		"coords": [
			{
				"x": -3.2349999908,
				"y": -0.8665693963,
				"z": 1.4206052596,
				"element": "C" 
			},
			{
				"x": -1.8252442236,
				"y": -0.6683460303,
				"z": 1.3175311532,
				"element": "O" 
			},
			{
				"x": -1.4375529799,
				"y": 0.2839545842,
				"z": 0.4023002707,
				"element": "C" 
			},
			{
				"x": -0.9943489607,
				"y": -0.0817360442,
				"z": -0.8852717386,
				"element": "C" 
			},
			{
				"x": -0.5434105638,
				"y": 0.9320706085,
				"z": -1.7540104526,
				"element": "C" 
			},
			{
				"x": -0.5435341927,
				"y": 2.2645197886,
				"z": -1.3626303445,
				"element": "C" 
			},
			{
				"x": -0.9902610554,
				"y": 2.6170093018,
				"z": -0.0849990436,
				"element": "C" 
			},
			{
				"x": -1.4328615308,
				"y": 1.6278075431,
				"z": 0.7887838536,
				"element": "C" 
			},
			{
				"x": -0.9505107787,
				"y": -1.4551830182,
				"z": -1.3792148017,
				"element": "C" 
			},
			{
				"x": -0.4483268462,
				"y": -1.8672449395,
				"z": -2.503472653,
				"element": "N" 
			},
			{
				"x": -0.6297666972,
				"y": -3.2493317248,
				"z": -2.5640831852,
				"element": "N" 
			},
			{
				"x": -1.2474958295,
				"y": -3.5621124218,
				"z": -1.4626760107,
				"element": "C" 
			},
			{
				"x": -1.718893333,
				"y": -4.7841864745,
				"z": -1.0649741143,
				"element": "N" 
			},
			{
				"x": -1.4912054962,
				"y": -2.5010620023,
				"z": -0.6555067848,
				"element": "O" 
			},
			{
				"x": -3.753476421,
				"y": 0.0676771614,
				"z": 1.6714962007,
				"element": "H" 
			},
			{
				"x": -3.3882662279,
				"y": -1.5898731032,
				"z": 2.2241201212,
				"element": "H" 
			},
			{
				"x": -3.6492187465,
				"y": -1.2690168862,
				"z": 0.4882348236,
				"element": "H" 
			},
			{
				"x": -0.1966657066,
				"y": 0.6414853873,
				"z": -2.7396728001,
				"element": "H" 
			},
			{
				"x": -0.1924907408,
				"y": 3.0276909177,
				"z": -2.0502213875,
				"element": "H" 
			},
			{
				"x": -0.9868794392,
				"y": 3.6561511633,
				"z": 0.230628875,
				"element": "H" 
			},
			{
				"x": -1.7632888597,
				"y": 1.8724611254,
				"z": 1.7935609338,
				"element": "H" 
			},
			{
				"x": -1.715309444,
				"y": -4.9424054513,
				"z": -0.0663782743,
				"element": "H" 
			},
			{
				"x": -1.3320919359,
				"y": -5.5477600888,
				"z": -1.6027499006,
				"element": "H" 
			}
		],
		 "valence_orbital": [ 
			{
				"type": "occ",
				"energy": -0.27739,
				"method": "rhf"
			},
			{
				"type": "occ",
				"energy": -0.27522,
				"method": "rhf"
			},
			{
				"type": "occ",
				"energy": -0.26641,
				"method": "rhf"
			},
			{
				"type": "occ",
				"energy": -0.24732,
				"method": "rhf"
			},
			{
				"type": "occ",
				"energy": -0.21558,
				"method": "rhf"
			},
			{
				"type": "unocc",
				"energy": -0.03983,
				"method": "rhf"
			},
			{
				"type": "unocc",
				"energy": -0.00451,
				"method": "rhf"
			},
			{
				"type": "unocc",
				"energy": 0.03965,
				"method": "rhf"
			},
			{
				"type": "unocc",
				"energy": 0.06378,
				"method": "rhf"
			},
			{
				"type": "unocc",
				"energy": 0.07153,
				"method": "rhf"
			}
		],
		"cosmo_sigma_profile": { 
			"-0.025": 0.0,
			"-0.024": 0.0,
			"-0.023": 0.0,
			"-0.022": 0.0,
			"-0.021": 0.0,
			"-0.02": 0.0,
			"-0.019": 0.0,
			"-0.018": 0.0,
			"-0.017": 0.0,
			"-0.016": 0.094517335115,
			"-0.015": 2.12305071554,
			"-0.014": 2.49850630845,
			"-0.013": 2.62652374832,
			"-0.012": 2.54497280244,
			"-0.011": 2.55606871922,
			"-0.01": 2.23144462461,
			"-0.009": 1.10098394511,
			"-0.008": 2.28848355283,
			"-0.007": 3.00113123661,
			"-0.006": 9.67444854359,
			"-0.005": 14.4607883454,
			"-0.004": 19.4771688782,
			"-0.003": 20.1884387068,
			"-0.002": 15.9579192226,
			"-0.001": 10.6826870751,
			"0.0": 11.955177201,
			"0.001": 13.0438198442,
			"0.002": 15.5569003036,
			"0.003": 15.4323354618,
			"0.004": 13.4692275061,
			"0.005": 4.50742944321,
			"0.006": 4.22702589213,
			"0.007": 4.23757866989,
			"0.008": 3.60456135203,
			"0.009": 3.93014880772,
			"0.01": 4.10837152011,
			"0.011": 4.42275800792,
			"0.012": 4.40576300782,
			"0.013": 3.49012500519,
			"0.014": 2.37439713414,
			"0.015": 1.47621319748,
			"0.016": 0.828739916097,
			"0.017": 0.076340491615,
			"0.018": 0.0,
			"0.019": 0.0,
			"0.02": 0.0,
			"0.021": 0.0,
			"0.022": 0.0,
			"0.023": 0.0,
			"0.024": 0.0,
			"0.025": 0.0
		}
	}
}
