{
	 "smiles": "CCC1=CC=CC(C)=C1C", 
	 "Tm": 223.35, 
	 "num_atms": 24, 
	 "gaussian": { 
		 "optdone": 1, 
		 "sigma_profile": "yes", 
		 "theory": "DFT", 
		 "functional": "B3LYP", 
		 "basiset": "6-31G**", 
		 "properties": { 
			 "R2extent": 1657.8558, 
			 "electric_dipole_moment_norm": 0.607717047646, 
			 "electric_quadrupole_moment_norm": 3.75114258593, 
			 "total_energy": -389.523528518, 
			 "HOMO_LUMO_gap": 0.23523, 
			 "cosmo_polarized_energy": -3.28, 
			 "cosmo_cavitation_energy": 25.4, 
			 "cosmo_dispersion_energy": -18.46, 
			 "cosmo_repulsion_energy": 1.49, 
			 "cosmo_total_nonelectrostatic_energy": 8.43, 
			 "SMD_solvation_energy": 4.32 
		},
		"coords": [
			{
				"x": 2.318489299,
				"y": -1.2300403732,
				"z": -0.7114693844,
				"element": "C" 
			},
			{
				"x": 0.9866994965,
				"y": -1.7522536648,
				"z": -0.1424362583,
				"element": "C" 
			},
			{
				"x": 0.1327180876,
				"y": -0.6661442345,
				"z": 0.4887009887,
				"element": "C" 
			},
			{
				"x": 0.1838018451,
				"y": -0.5114629304,
				"z": 1.8819070807,
				"element": "C" 
			},
			{
				"x": -0.5475002222,
				"y": 0.4804574317,
				"z": 2.5267995684,
				"element": "C" 
			},
			{
				"x": -1.3492706987,
				"y": 1.3366050428,
				"z": 1.7749880621,
				"element": "C" 
			},
			{
				"x": -1.4260765999,
				"y": 1.2096816841,
				"z": 0.3846603971,
				"element": "C" 
			},
			{
				"x": -2.307846805,
				"y": 2.1522777529,
				"z": -0.4019843635,
				"element": "C" 
			},
			{
				"x": -0.6795062663,
				"y": 0.2034053512,
				"z": -0.2704621174,
				"element": "C" 
			},
			{
				"x": -0.7815157757,
				"y": 0.0945077027,
				"z": -1.7772386422,
				"element": "C" 
			},
			{
				"x": 2.1547116717,
				"y": -0.4898203276,
				"z": -1.5010942778,
				"element": "H" 
			},
			{
				"x": 2.9117045296,
				"y": -0.748233138,
				"z": 0.0723850827,
				"element": "H" 
			},
			{
				"x": 2.9126869069,
				"y": -2.0478386449,
				"z": -1.1334224586,
				"element": "H" 
			},
			{
				"x": 1.2028633833,
				"y": -2.5101684838,
				"z": 0.6191266924,
				"element": "H" 
			},
			{
				"x": 0.4324781146,
				"y": -2.2733169247,
				"z": -0.9313896457,
				"element": "H" 
			},
			{
				"x": 0.807806649,
				"y": -1.1862057867,
				"z": 2.4632841511,
				"element": "H" 
			},
			{
				"x": -0.4972634843,
				"y": 0.5840728867,
				"z": 3.6071357191,
				"element": "H" 
			},
			{
				"x": -1.9267862715,
				"y": 2.1138677401,
				"z": 2.2693711198,
				"element": "H" 
			},
			{
				"x": -3.091473414,
				"y": 1.6162381086,
				"z": -0.9516564118,
				"element": "H" 
			},
			{
				"x": -2.7996470064,
				"y": 2.8709775978,
				"z": 0.2587795302,
				"element": "H" 
			},
			{
				"x": -1.7370940725,
				"y": 2.7207166079,
				"z": -1.1465409064,
				"element": "H" 
			},
			{
				"x": -0.2056566703,
				"y": -0.7384114629,
				"z": -2.1802550904,
				"element": "H" 
			},
			{
				"x": -0.4217503181,
				"y": 1.0075363671,
				"z": -2.2680382512,
				"element": "H" 
			},
			{
				"x": -1.8217723783,
				"y": -0.0399483021,
				"z": -2.0974505846,
				"element": "H" 
			}
		],
		 "valence_orbital": [ 
			{
				"type": "occ",
				"energy": -0.33057,
				"method": "rhf"
			},
			{
				"type": "occ",
				"energy": -0.32131,
				"method": "rhf"
			},
			{
				"type": "occ",
				"energy": -0.31434,
				"method": "rhf"
			},
			{
				"type": "occ",
				"energy": -0.22836,
				"method": "rhf"
			},
			{
				"type": "occ",
				"energy": -0.22699,
				"method": "rhf"
			},
			{
				"type": "unocc",
				"energy": 0.00824,
				"method": "rhf"
			},
			{
				"type": "unocc",
				"energy": 0.01199,
				"method": "rhf"
			},
			{
				"type": "unocc",
				"energy": 0.08833,
				"method": "rhf"
			},
			{
				"type": "unocc",
				"energy": 0.10561,
				"method": "rhf"
			},
			{
				"type": "unocc",
				"energy": 0.11742,
				"method": "rhf"
			}
		],
		"cosmo_sigma_profile": { 
			"-0.025": 0.0,
			"-0.024": 0.0,
			"-0.023": 0.0,
			"-0.022": 0.0,
			"-0.021": 0.0,
			"-0.02": 0.0,
			"-0.019": 0.0,
			"-0.018": 0.0,
			"-0.017": 0.0,
			"-0.016": 0.0,
			"-0.015": 0.0,
			"-0.014": 0.0,
			"-0.013": 0.0,
			"-0.012": 0.0,
			"-0.011": 0.0,
			"-0.01": 0.0,
			"-0.009": 0.0,
			"-0.008": 0.0,
			"-0.007": 0.0,
			"-0.006": 0.0421961378721,
			"-0.005": 3.16163053407,
			"-0.004": 16.0539831355,
			"-0.003": 24.6533925885,
			"-0.002": 25.9818422965,
			"-0.001": 27.0766030251,
			"0.0": 29.7636684206,
			"0.001": 24.4097349491,
			"0.002": 11.9036251267,
			"0.003": 6.7357416499,
			"0.004": 7.68385606507,
			"0.005": 6.78406362043,
			"0.006": 6.30822489096,
			"0.007": 6.42511261512,
			"0.008": 1.93197854757,
			"0.009": 0.0,
			"0.01": 0.0,
			"0.011": 0.0,
			"0.012": 0.0,
			"0.013": 0.0,
			"0.014": 0.0,
			"0.015": 0.0,
			"0.016": 0.0,
			"0.017": 0.0,
			"0.018": 0.0,
			"0.019": 0.0,
			"0.02": 0.0,
			"0.021": 0.0,
			"0.022": 0.0,
			"0.023": 0.0,
			"0.024": 0.0,
			"0.025": 0.0
		}
	}
}
