{
	 "smiles": "NC1=C(C(=NO1)C1CCCC1)C1=CC2=C(OCO2)C=C1", 
	 "Tm": 396.15, 
	 "num_atms": 36, 
	 "gaussian": { 
		 "optdone": 1, 
		 "sigma_profile": "yes", 
		 "theory": "DFT", 
		 "functional": "B3LYP", 
		 "basiset": "6-31G**", 
		 "properties": { 
			 "R2extent": 6691.2195, 
			 "electric_dipole_moment_norm": 3.73665561298, 
			 "electric_quadrupole_moment_norm": 13.4507958843, 
			 "total_energy": -916.351182847, 
			 "HOMO_LUMO_gap": 0.1877, 
			 "cosmo_polarized_energy": -15.5, 
			 "cosmo_cavitation_energy": 38.46, 
			 "cosmo_dispersion_energy": -27.91, 
			 "cosmo_repulsion_energy": 2.18, 
			 "cosmo_total_nonelectrostatic_energy": 12.74, 
			 "SMD_solvation_energy": 6.34 
		},
		"coords": [
			{
				"x": 1.4414296584,
				"y": -1.9194048664,
				"z": -2.8620642268,
				"element": "N" 
			},
			{
				"x": 0.4377404184,
				"y": -1.3014709359,
				"z": -2.1616660382,
				"element": "C" 
			},
			{
				"x": 0.4448940146,
				"y": -0.4787452816,
				"z": -1.0551337128,
				"element": "C" 
			},
			{
				"x": -0.9536408141,
				"y": -0.2968080088,
				"z": -0.7896529145,
				"element": "C" 
			},
			{
				"x": -1.716856052,
				"y": -0.9306529112,
				"z": -1.6530201299,
				"element": "N" 
			},
			{
				"x": -0.8160142149,
				"y": -1.5867489364,
				"z": -2.5360899516,
				"element": "O" 
			},
			{
				"x": -1.5872510752,
				"y": 0.5125670257,
				"z": 0.3104308566,
				"element": "C" 
			},
			{
				"x": -2.1950104218,
				"y": -0.3331424172,
				"z": 1.4567905693,
				"element": "C" 
			},
			{
				"x": -3.1100601617,
				"y": 0.6513168478,
				"z": 2.2203281911,
				"element": "C" 
			},
			{
				"x": -3.4790267068,
				"y": 1.7702735864,
				"z": 1.1981175592,
				"element": "C" 
			},
			{
				"x": -2.7915720658,
				"y": 1.3749809248,
				"z": -0.1267598064,
				"element": "C" 
			},
			{
				"x": 1.623861469,
				"y": 0.0718992209,
				"z": -0.3627829957,
				"element": "C" 
			},
			{
				"x": 1.7555985556,
				"y": -0.054486742,
				"z": 1.0428897519,
				"element": "C" 
			},
			{
				"x": 2.8883133831,
				"y": 0.47065103,
				"z": 1.6288464318,
				"element": "C" 
			},
			{
				"x": 3.8914224821,
				"y": 1.0913206262,
				"z": 0.8870985433,
				"element": "C" 
			},
			{
				"x": 4.8906956699,
				"y": 1.5226332751,
				"z": 1.7265759813,
				"element": "O" 
			},
			{
				"x": 4.5526513784,
				"y": 1.0177629043,
				"z": 3.0237802234,
				"element": "C" 
			},
			{
				"x": 3.2242709892,
				"y": 0.4850733313,
				"z": 2.9611067362,
				"element": "O" 
			},
			{
				"x": 3.7966584216,
				"y": 1.2266588326,
				"z": -0.4830273499,
				"element": "C" 
			},
			{
				"x": 2.638400976,
				"y": 0.7130866258,
				"z": -1.0939579116,
				"element": "C" 
			},
			{
				"x": 1.2175723562,
				"y": -2.1788574682,
				"z": -3.8123532064,
				"element": "H" 
			},
			{
				"x": 2.3607699065,
				"y": -1.5228796237,
				"z": -2.7350909975,
				"element": "H" 
			},
			{
				"x": -0.8144116082,
				"y": 1.1684873384,
				"z": 0.7310448932,
				"element": "H" 
			},
			{
				"x": -2.7815198952,
				"y": -1.1440945686,
				"z": 1.0112513389,
				"element": "H" 
			},
			{
				"x": -1.4371305143,
				"y": -0.7954775807,
				"z": 2.0981732791,
				"element": "H" 
			},
			{
				"x": -2.5812460376,
				"y": 1.0795780333,
				"z": 3.078543965,
				"element": "H" 
			},
			{
				"x": -3.9946548289,
				"y": 0.1454860176,
				"z": 2.6190784,
				"element": "H" 
			},
			{
				"x": -3.104874569,
				"y": 2.7386172085,
				"z": 1.5479585923,
				"element": "H" 
			},
			{
				"x": -4.5607259185,
				"y": 1.8793112754,
				"z": 1.0740465496,
				"element": "H" 
			},
			{
				"x": -2.4923854595,
				"y": 2.2377305588,
				"z": -0.7301871875,
				"element": "H" 
			},
			{
				"x": -3.4548853484,
				"y": 0.7608054856,
				"z": -0.7439191613,
				"element": "H" 
			},
			{
				"x": 1.0026757644,
				"y": -0.5622607362,
				"z": 1.6339362771,
				"element": "H" 
			},
			{
				"x": 5.2550208066,
				"y": 0.2191263132,
				"z": 3.301965695,
				"element": "H" 
			},
			{
				"x": 4.5844035169,
				"y": 1.8340899525,
				"z": 3.7523636922,
				"element": "H" 
			},
			{
				"x": 4.5712131016,
				"y": 1.7236484997,
				"z": -1.0562972951,
				"element": "H" 
			},
			{
				"x": 2.5098728235,
				"y": 0.8460251629,
				"z": -2.1643246414,
				"element": "H" 
			}
		],
		 "valence_orbital": [ 
			{
				"type": "occ",
				"energy": -0.28395,
				"method": "rhf"
			},
			{
				"type": "occ",
				"energy": -0.26936,
				"method": "rhf"
			},
			{
				"type": "occ",
				"energy": -0.25059,
				"method": "rhf"
			},
			{
				"type": "occ",
				"energy": -0.22248,
				"method": "rhf"
			},
			{
				"type": "occ",
				"energy": -0.19576,
				"method": "rhf"
			},
			{
				"type": "unocc",
				"energy": -0.00806,
				"method": "rhf"
			},
			{
				"type": "unocc",
				"energy": -0.00292,
				"method": "rhf"
			},
			{
				"type": "unocc",
				"energy": 0.01549,
				"method": "rhf"
			},
			{
				"type": "unocc",
				"energy": 0.06711,
				"method": "rhf"
			},
			{
				"type": "unocc",
				"energy": 0.07874,
				"method": "rhf"
			}
		],
		"cosmo_sigma_profile": { 
			"-0.025": 0.0,
			"-0.024": 0.0,
			"-0.023": 0.0,
			"-0.022": 0.0,
			"-0.021": 0.0,
			"-0.02": 0.0,
			"-0.019": 0.0,
			"-0.018": 0.0,
			"-0.017": 0.0,
			"-0.016": 0.0,
			"-0.015": 0.349556811781,
			"-0.014": 1.20422088349,
			"-0.013": 1.9567529511,
			"-0.012": 1.93015163456,
			"-0.011": 2.52380801399,
			"-0.01": 2.68656972456,
			"-0.009": 2.61661611111,
			"-0.008": 3.97631069285,
			"-0.007": 10.8139796947,
			"-0.006": 13.5367973277,
			"-0.005": 12.0687143857,
			"-0.004": 11.1595588261,
			"-0.003": 17.3811676858,
			"-0.002": 28.4248329186,
			"-0.001": 34.758939232,
			"0.0": 26.5634521951,
			"0.001": 27.6785518154,
			"0.002": 21.3781015024,
			"0.003": 19.7472583735,
			"0.004": 14.2054136088,
			"0.005": 9.81124436156,
			"0.006": 6.55948626701,
			"0.007": 5.61843077224,
			"0.008": 5.94194256782,
			"0.009": 9.95699535418,
			"0.01": 4.32741401857,
			"0.011": 1.72758745194,
			"0.012": 1.84594849637,
			"0.013": 0.901143118095,
			"0.014": 1.45722515278,
			"0.015": 0.75261315599,
			"0.016": 0.225582278125,
			"0.017": 0.0,
			"0.018": 0.0,
			"0.019": 0.0,
			"0.02": 0.0,
			"0.021": 0.0,
			"0.022": 0.0,
			"0.023": 0.0,
			"0.024": 0.0,
			"0.025": 0.0
		}
	}
}
