{
	 "smiles": "CC(C)(C)C1=NN=NN1", 
	 "Tm": 477.15, 
	 "num_atms": 19, 
	 "gaussian": { 
		 "optdone": 1, 
		 "sigma_profile": "yes", 
		 "theory": "DFT", 
		 "functional": "B3LYP", 
		 "basiset": "6-31G**", 
		 "properties": { 
			 "R2extent": 1697.7868, 
			 "electric_dipole_moment_norm": 5.69073596822, 
			 "electric_quadrupole_moment_norm": 15.196745188, 
			 "total_energy": -415.523476395, 
			 "HOMO_LUMO_gap": 0.26703, 
			 "cosmo_polarized_energy": -16.91, 
			 "cosmo_cavitation_energy": 22.05, 
			 "cosmo_dispersion_energy": -15.74, 
			 "cosmo_repulsion_energy": 1.28, 
			 "cosmo_total_nonelectrostatic_energy": 7.6, 
			 "SMD_solvation_energy": 2.29 
		},
		"coords": [
			{
				"x": 0.6149966672,
				"y": 1.3701039763,
				"z": 0.2309017902,
				"element": "C" 
			},
			{
				"x": 1.4518375984,
				"y": 0.3814081111,
				"z": -0.6008467442,
				"element": "C" 
			},
			{
				"x": 2.9574798865,
				"y": 0.6638041344,
				"z": -0.3885085964,
				"element": "C" 
			},
			{
				"x": 1.0991076644,
				"y": 0.5299766642,
				"z": -2.0992588584,
				"element": "C" 
			},
			{
				"x": 1.1411238756,
				"y": -1.0282271847,
				"z": -0.1529533121,
				"element": "C" 
			},
			{
				"x": 0.2979934461,
				"y": -1.4022715931,
				"z": 0.7929323462,
				"element": "N" 
			},
			{
				"x": 0.3484099705,
				"y": -2.7644712583,
				"z": 0.8436982245,
				"element": "N" 
			},
			{
				"x": 1.1808455376,
				"y": -3.2343401292,
				"z": -0.0229315753,
				"element": "N" 
			},
			{
				"x": 1.6922668134,
				"y": -2.1548840743,
				"z": -0.6637874184,
				"element": "N" 
			},
			{
				"x": -0.4547922211,
				"y": 1.1865906571,
				"z": 0.1041516968,
				"element": "H" 
			},
			{
				"x": 0.8345233677,
				"y": 2.3942296805,
				"z": -0.0875166409,
				"element": "H" 
			},
			{
				"x": 0.8402260903,
				"y": 1.2796784053,
				"z": 1.296398116,
				"element": "H" 
			},
			{
				"x": 3.5883162039,
				"y": -0.0099087907,
				"z": -0.9793613492,
				"element": "H" 
			},
			{
				"x": 3.2352446237,
				"y": 0.5519634301,
				"z": 0.663836992,
				"element": "H" 
			},
			{
				"x": 3.1911809088,
				"y": 1.6881354877,
				"z": -0.6956877567,
				"element": "H" 
			},
			{
				"x": 0.0399705062,
				"y": 0.3214786942,
				"z": -2.2777339415,
				"element": "H" 
			},
			{
				"x": 1.6887872441,
				"y": -0.1463781642,
				"z": -2.7283695732,
				"element": "H" 
			},
			{
				"x": 1.3057747302,
				"y": 1.5525071759,
				"z": -2.4308426245,
				"element": "H" 
			},
			{
				"x": 2.3752070867,
				"y": -2.2809952225,
				"z": -1.3960207748,
				"element": "H" 
			}
		],
		 "valence_orbital": [ 
			{
				"type": "occ",
				"energy": -0.3495,
				"method": "rhf"
			},
			{
				"type": "occ",
				"energy": -0.32035,
				"method": "rhf"
			},
			{
				"type": "occ",
				"energy": -0.2918,
				"method": "rhf"
			},
			{
				"type": "occ",
				"energy": -0.28992,
				"method": "rhf"
			},
			{
				"type": "occ",
				"energy": -0.27939,
				"method": "rhf"
			},
			{
				"type": "unocc",
				"energy": -0.01236,
				"method": "rhf"
			},
			{
				"type": "unocc",
				"energy": 0.02716,
				"method": "rhf"
			},
			{
				"type": "unocc",
				"energy": 0.04073,
				"method": "rhf"
			},
			{
				"type": "unocc",
				"energy": 0.08674,
				"method": "rhf"
			},
			{
				"type": "unocc",
				"energy": 0.11626,
				"method": "rhf"
			}
		],
		"cosmo_sigma_profile": { 
			"-0.025": 0.0,
			"-0.024": 0.0,
			"-0.023": 0.0,
			"-0.022": 0.0,
			"-0.021": 0.0,
			"-0.02": 0.0,
			"-0.019": 0.182348360112,
			"-0.018": 1.05302139461,
			"-0.017": 1.34493484186,
			"-0.016": 0.65640415454,
			"-0.015": 0.586427145166,
			"-0.014": 2.14615213588,
			"-0.013": 1.94571007499,
			"-0.012": 1.40899304721,
			"-0.011": 0.85183009062,
			"-0.01": 1.54772718932,
			"-0.009": 1.15971991574,
			"-0.008": 1.26382501837,
			"-0.007": 1.43596229148,
			"-0.006": 2.05803823751,
			"-0.005": 2.42699422828,
			"-0.004": 15.1280036091,
			"-0.003": 23.1961758445,
			"-0.002": 19.1871229978,
			"-0.001": 17.696011603,
			"0.0": 21.1506055398,
			"0.001": 9.58910890155,
			"0.002": 1.82602555147,
			"0.003": 3.27252009186,
			"0.004": 3.34794256105,
			"0.005": 2.58155825761,
			"0.006": 2.2662947221,
			"0.007": 3.9746314963,
			"0.008": 4.51188357867,
			"0.009": 5.08304607666,
			"0.01": 5.27057453767,
			"0.011": 4.93188691157,
			"0.012": 3.56429278001,
			"0.013": 2.89091395824,
			"0.014": 1.82428900729,
			"0.015": 1.14891136618,
			"0.016": 0.0,
			"0.017": 0.0,
			"0.018": 0.0,
			"0.019": 0.0,
			"0.02": 0.0,
			"0.021": 0.0,
			"0.022": 0.0,
			"0.023": 0.0,
			"0.024": 0.0,
			"0.025": 0.0
		}
	}
}
