{
	 "smiles": "COC1=C(C=CC=C1)C1=NN=C2SCN(CN12)C1=CC=CC=C1", 
	 "Tm": 438.15, 
	 "num_atms": 39, 
	 "gaussian": { 
		 "optdone": 1, 
		 "sigma_profile": "yes", 
		 "theory": "DFT", 
		 "functional": "B3LYP", 
		 "basiset": "6-31G**", 
		 "properties": { 
			 "R2extent": 8201.7831, 
			 "electric_dipole_moment_norm": 5.82592275438, 
			 "electric_quadrupole_moment_norm": 30.769576668, 
			 "total_energy": -1349.81768012, 
			 "HOMO_LUMO_gap": 0.18259, 
			 "cosmo_polarized_energy": -20.32, 
			 "cosmo_cavitation_energy": 42.4, 
			 "cosmo_dispersion_energy": -29.54, 
			 "cosmo_repulsion_energy": 2.15, 
			 "cosmo_total_nonelectrostatic_energy": 15.01, 
			 "SMD_solvation_energy": 3.66 
		},
		"coords": [
			{
				"x": 0.1752260669,
				"y": 0.035794755,
				"z": 1.5261389357,
				"element": "C" 
			},
			{
				"x": 0.9915285101,
				"y": 0.5678215469,
				"z": 0.4717437826,
				"element": "O" 
			},
			{
				"x": 2.1571099312,
				"y": -0.1364926545,
				"z": 0.2312597369,
				"element": "C" 
			},
			{
				"x": 2.1489411704,
				"y": -1.2915243998,
				"z": -0.5741798598,
				"element": "C" 
			},
			{
				"x": 3.3631293955,
				"y": -1.9721006442,
				"z": -0.7704262833,
				"element": "C" 
			},
			{
				"x": 4.5495344217,
				"y": -1.5035283564,
				"z": -0.2118009159,
				"element": "C" 
			},
			{
				"x": 4.5453613879,
				"y": -0.3367679404,
				"z": 0.5558141221,
				"element": "C" 
			},
			{
				"x": 3.3479436828,
				"y": 0.3414235775,
				"z": 0.7799964757,
				"element": "C" 
			},
			{
				"x": 0.9300757612,
				"y": -1.8656263577,
				"z": -1.1733908657,
				"element": "C" 
			},
			{
				"x": 0.6533558371,
				"y": -3.1538512303,
				"z": -1.1510471886,
				"element": "N" 
			},
			{
				"x": -0.5000045148,
				"y": -3.3617185303,
				"z": -1.8755783917,
				"element": "N" 
			},
			{
				"x": -0.8867756424,
				"y": -2.1890650663,
				"z": -2.3220501894,
				"element": "C" 
			},
			{
				"x": -2.3480954997,
				"y": -1.9292397589,
				"z": -3.2745735906,
				"element": "S" 
			},
			{
				"x": -1.9773381349,
				"y": -0.1424637913,
				"z": -3.7521990685,
				"element": "C" 
			},
			{
				"x": -1.3870627519,
				"y": 0.6449217015,
				"z": -2.7131674857,
				"element": "N" 
			},
			{
				"x": -0.0521375746,
				"y": 0.2122512474,
				"z": -2.3732758668,
				"element": "C" 
			},
			{
				"x": -0.0396841336,
				"y": -1.1911440649,
				"z": -1.8992295552,
				"element": "N" 
			},
			{
				"x": -2.2055972597,
				"y": 1.2499953819,
				"z": -1.7136863713,
				"element": "C" 
			},
			{
				"x": -1.6708821497,
				"y": 2.2780012091,
				"z": -0.9168129578,
				"element": "C" 
			},
			{
				"x": -2.4625753703,
				"y": 2.9240967317,
				"z": 0.0292070265,
				"element": "C" 
			},
			{
				"x": -3.8064712811,
				"y": 2.5773805498,
				"z": 0.1912073849,
				"element": "C" 
			},
			{
				"x": -4.3430638029,
				"y": 1.5678060852,
				"z": -0.6047630579,
				"element": "C" 
			},
			{
				"x": -3.554025555,
				"y": 0.9013017944,
				"z": -1.544876042,
				"element": "C" 
			},
			{
				"x": 0.7040629698,
				"y": 0.0888942118,
				"z": 2.4854105162,
				"element": "H" 
			},
			{
				"x": -0.1061512663,
				"y": -1.0038378908,
				"z": 1.325821733,
				"element": "H" 
			},
			{
				"x": -0.720558802,
				"y": 0.657268829,
				"z": 1.5611104855,
				"element": "H" 
			},
			{
				"x": 3.3510793717,
				"y": -2.8758906385,
				"z": -1.3700220157,
				"element": "H" 
			},
			{
				"x": 5.4759810831,
				"y": -2.0429714097,
				"z": -0.3828899213,
				"element": "H" 
			},
			{
				"x": 5.4687583502,
				"y": 0.0411071416,
				"z": 0.9848067883,
				"element": "H" 
			},
			{
				"x": 3.3118612639,
				"y": 1.242786339,
				"z": 1.3836903862,
				"element": "H" 
			},
			{
				"x": -1.2971563143,
				"y": -0.1732472393,
				"z": -4.6065012681,
				"element": "H" 
			},
			{
				"x": -2.9304283122,
				"y": 0.2796718713,
				"z": -4.0705164184,
				"element": "H" 
			},
			{
				"x": 0.3618580113,
				"y": 0.8249501657,
				"z": -1.5790410727,
				"element": "H" 
			},
			{
				"x": 0.5849347607,
				"y": 0.2795056899,
				"z": -3.2628133298,
				"element": "H" 
			},
			{
				"x": -0.639660038,
				"y": 2.5875776586,
				"z": -1.0463962983,
				"element": "H" 
			},
			{
				"x": -2.0273698119,
				"y": 3.7181053366,
				"z": 0.6294441429,
				"element": "H" 
			},
			{
				"x": -4.4227027253,
				"y": 3.0885549953,
				"z": 0.924215757,
				"element": "H" 
			},
			{
				"x": -5.3833413341,
				"y": 1.2770290125,
				"z": -0.4900032144,
				"element": "H" 
			},
			{
				"x": -3.986959701,
				"y": 0.0891241416,
				"z": -2.1158260446,
				"element": "H" 
			}
		],
		 "valence_orbital": [ 
			{
				"type": "occ",
				"energy": -0.25887,
				"method": "rhf"
			},
			{
				"type": "occ",
				"energy": -0.25315,
				"method": "rhf"
			},
			{
				"type": "occ",
				"energy": -0.24585,
				"method": "rhf"
			},
			{
				"type": "occ",
				"energy": -0.22319,
				"method": "rhf"
			},
			{
				"type": "occ",
				"energy": -0.21327,
				"method": "rhf"
			},
			{
				"type": "unocc",
				"energy": -0.03068,
				"method": "rhf"
			},
			{
				"type": "unocc",
				"energy": -0.01216,
				"method": "rhf"
			},
			{
				"type": "unocc",
				"energy": -0.00904,
				"method": "rhf"
			},
			{
				"type": "unocc",
				"energy": -0.00796,
				"method": "rhf"
			},
			{
				"type": "unocc",
				"energy": 0.01323,
				"method": "rhf"
			}
		],
		"cosmo_sigma_profile": { 
			"-0.025": 0.0,
			"-0.024": 0.0,
			"-0.023": 0.0,
			"-0.022": 0.0,
			"-0.021": 0.0,
			"-0.02": 0.0,
			"-0.019": 0.0,
			"-0.018": 0.0,
			"-0.017": 0.0,
			"-0.016": 0.0,
			"-0.015": 0.0,
			"-0.014": 0.0,
			"-0.013": 0.0,
			"-0.012": 0.0,
			"-0.011": 0.0205851599851,
			"-0.01": 1.57610408872,
			"-0.009": 4.80649737441,
			"-0.008": 7.89588712687,
			"-0.007": 9.73751444989,
			"-0.006": 18.7485086605,
			"-0.005": 27.1575591686,
			"-0.004": 29.8216748427,
			"-0.003": 29.2780798833,
			"-0.002": 21.7743548804,
			"-0.001": 22.2599221172,
			"0.0": 22.2999926503,
			"0.001": 18.9074770976,
			"0.002": 21.8086233919,
			"0.003": 24.4540363182,
			"0.004": 26.4427264142,
			"0.005": 16.5060066783,
			"0.006": 9.81607583678,
			"0.007": 4.07489255443,
			"0.008": 2.36742317716,
			"0.009": 2.43533129084,
			"0.01": 2.91285700858,
			"0.011": 1.81046361536,
			"0.012": 2.60891290548,
			"0.013": 3.37125527258,
			"0.014": 3.48424966204,
			"0.015": 2.31595895343,
			"0.016": 2.32965548488,
			"0.017": 0.660263769334,
			"0.018": 0.0,
			"0.019": 0.0,
			"0.02": 0.0,
			"0.021": 0.0,
			"0.022": 0.0,
			"0.023": 0.0,
			"0.024": 0.0,
			"0.025": 0.0
		}
	}
}
