{
	 "smiles": "CCN(CC)S(=O)(=O)C1=CC=C(C=C1)N1CC(CC1=O)C(O)=O", 
	 "Tm": 398.15, 
	 "num_atms": 43, 
	 "gaussian": { 
		 "optdone": 1, 
		 "sigma_profile": "yes", 
		 "theory": "DFT", 
		 "functional": "B3LYP", 
		 "basiset": "6-31G**", 
		 "properties": { 
			 "R2extent": 12138.1903, 
			 "electric_dipole_moment_norm": 5.89811544648, 
			 "electric_quadrupole_moment_norm": 18.6273776531, 
			 "total_energy": -1467.41616357, 
			 "HOMO_LUMO_gap": 0.19043, 
			 "cosmo_polarized_energy": -28.69, 
			 "cosmo_cavitation_energy": 46.39, 
			 "cosmo_dispersion_energy": -32.25, 
			 "cosmo_repulsion_energy": 2.41, 
			 "cosmo_total_nonelectrostatic_energy": 16.55, 
			 "SMD_solvation_energy": 8.26 
		},
		"coords": [
			{
				"x": -4.0729040413,
				"y": 0.4245272412,
				"z": -3.5510030975,
				"element": "C" 
			},
			{
				"x": -2.8794150783,
				"y": -0.5275137464,
				"z": -3.6226184549,
				"element": "C" 
			},
			{
				"x": -2.883170692,
				"y": -1.5024684728,
				"z": -2.5117770895,
				"element": "N" 
			},
			{
				"x": -4.0042028287,
				"y": -2.4680904706,
				"z": -2.4562458209,
				"element": "C" 
			},
			{
				"x": -4.1272926133,
				"y": -3.4187898072,
				"z": -3.6514000546,
				"element": "C" 
			},
			{
				"x": -1.3564804378,
				"y": -2.1559008186,
				"z": -2.1654432106,
				"element": "S" 
			},
			{
				"x": -0.5898951316,
				"y": -2.4219980501,
				"z": -3.3928271438,
				"element": "O" 
			},
			{
				"x": -1.57812266,
				"y": -3.2280952646,
				"z": -1.1886573123,
				"element": "O" 
			},
			{
				"x": -0.5555438176,
				"y": -0.7782386944,
				"z": -1.3387882318,
				"element": "C" 
			},
			{
				"x": -1.0889477663,
				"y": -0.2672595768,
				"z": -0.152321846,
				"element": "C" 
			},
			{
				"x": -0.4359319338,
				"y": 0.7558260242,
				"z": 0.5228989792,
				"element": "C" 
			},
			{
				"x": 0.7695231977,
				"y": 1.2773187201,
				"z": 0.0113949822,
				"element": "C" 
			},
			{
				"x": 1.2985336233,
				"y": 0.7503259984,
				"z": -1.1778443236,
				"element": "C" 
			},
			{
				"x": 0.6383386961,
				"y": -0.2771460052,
				"z": -1.8500111774,
				"element": "C" 
			},
			{
				"x": 1.4702933025,
				"y": 2.3043688155,
				"z": 0.6946463185,
				"element": "N" 
			},
			{
				"x": 2.8143513062,
				"y": 2.7286856655,
				"z": 0.2685486607,
				"element": "C" 
			},
			{
				"x": 3.2809562122,
				"y": 3.6806602251,
				"z": 1.3918328096,
				"element": "C" 
			},
			{
				"x": 1.9520892375,
				"y": 4.284342726,
				"z": 1.8937149333,
				"element": "C" 
			},
			{
				"x": 0.8890427743,
				"y": 3.2415099391,
				"z": 1.5654070499,
				"element": "C" 
			},
			{
				"x": -0.2510866555,
				"y": 3.2256435077,
				"z": 1.9826516012,
				"element": "O" 
			},
			{
				"x": 4.0410298203,
				"y": 2.9649552261,
				"z": 2.5130138678,
				"element": "C" 
			},
			{
				"x": 3.5029928582,
				"y": 1.8042217998,
				"z": 2.966559789,
				"element": "O" 
			},
			{
				"x": 5.054800933,
				"y": 3.4003647261,
				"z": 2.9964905967,
				"element": "O" 
			},
			{
				"x": -4.1186183479,
				"y": 0.9172257626,
				"z": -2.5753646342,
				"element": "H" 
			},
			{
				"x": -5.0237689266,
				"y": -0.0879480057,
				"z": -3.7230543268,
				"element": "H" 
			},
			{
				"x": -3.9726270265,
				"y": 1.1938149877,
				"z": -4.323073502,
				"element": "H" 
			},
			{
				"x": -1.9577992556,
				"y": 0.0555713291,
				"z": -3.5389720997,
				"element": "H" 
			},
			{
				"x": -2.8420669793,
				"y": -1.0323816439,
				"z": -4.5965933331,
				"element": "H" 
			},
			{
				"x": -4.9151401789,
				"y": -1.8717721334,
				"z": -2.3455190032,
				"element": "H" 
			},
			{
				"x": -3.8824834768,
				"y": -3.038663142,
				"z": -1.5345380166,
				"element": "H" 
			},
			{
				"x": -3.2350817507,
				"y": -4.0430736479,
				"z": -3.7519938684,
				"element": "H" 
			},
			{
				"x": -4.9886938999,
				"y": -4.0793683165,
				"z": -3.5069891981,
				"element": "H" 
			},
			{
				"x": -4.2770356214,
				"y": -2.8821876075,
				"z": -4.5934997909,
				"element": "H" 
			},
			{
				"x": -2.0144500138,
				"y": -0.6703562118,
				"z": 0.244091332,
				"element": "H" 
			},
			{
				"x": -0.8532473514,
				"y": 1.1630272298,
				"z": 1.4321372931,
				"element": "H" 
			},
			{
				"x": 2.2208723919,
				"y": 1.1357059281,
				"z": -1.5951650279,
				"element": "H" 
			},
			{
				"x": 1.0430511259,
				"y": -0.691486119,
				"z": -2.7666821209,
				"element": "H" 
			},
			{
				"x": 2.7716619689,
				"y": 3.2556604756,
				"z": -0.6934775079,
				"element": "H" 
			},
			{
				"x": 3.4695240776,
				"y": 1.8612891175,
				"z": 0.1496589886,
				"element": "H" 
			},
			{
				"x": 3.9624037504,
				"y": 4.4408381694,
				"z": 1.0101665832,
				"element": "H" 
			},
			{
				"x": 1.7056643854,
				"y": 5.2018631377,
				"z": 1.3467936416,
				"element": "H" 
			},
			{
				"x": 1.9319499203,
				"y": 4.526841486,
				"z": 2.958418702,
				"element": "H" 
			},
			{
				"x": 2.6926269035,
				"y": 1.5793494961,
				"z": 2.4815340641,
				"element": "H" 
			}
		],
		 "valence_orbital": [ 
			{
				"type": "occ",
				"energy": -0.28704,
				"method": "rhf"
			},
			{
				"type": "occ",
				"energy": -0.28083,
				"method": "rhf"
			},
			{
				"type": "occ",
				"energy": -0.27789,
				"method": "rhf"
			},
			{
				"type": "occ",
				"energy": -0.26001,
				"method": "rhf"
			},
			{
				"type": "occ",
				"energy": -0.24425,
				"method": "rhf"
			},
			{
				"type": "unocc",
				"energy": -0.05382,
				"method": "rhf"
			},
			{
				"type": "unocc",
				"energy": -0.02994,
				"method": "rhf"
			},
			{
				"type": "unocc",
				"energy": -0.01098,
				"method": "rhf"
			},
			{
				"type": "unocc",
				"energy": 0.00248,
				"method": "rhf"
			},
			{
				"type": "unocc",
				"energy": 0.04697,
				"method": "rhf"
			}
		],
		"cosmo_sigma_profile": { 
			"-0.025": 0.0,
			"-0.024": 0.0,
			"-0.023": 0.0,
			"-0.022": 0.0,
			"-0.021": 0.0,
			"-0.02": 0.0,
			"-0.019": 0.0,
			"-0.018": 0.0,
			"-0.017": 0.0,
			"-0.016": 0.0,
			"-0.015": 0.18198849603,
			"-0.014": 0.72358160043,
			"-0.013": 1.18801170068,
			"-0.012": 1.68680678462,
			"-0.011": 1.66482806903,
			"-0.01": 1.01999623845,
			"-0.009": 3.29342781461,
			"-0.008": 17.5236215949,
			"-0.007": 23.3500651186,
			"-0.006": 15.8789115159,
			"-0.005": 17.405707431,
			"-0.004": 28.7336531133,
			"-0.003": 30.4083082312,
			"-0.002": 28.1172286896,
			"-0.001": 25.9554165902,
			"0.0": 26.342910502,
			"0.001": 21.8272132068,
			"0.002": 20.6029827237,
			"0.003": 11.4162652349,
			"0.004": 8.61803023753,
			"0.005": 7.41615425821,
			"0.006": 6.41497373698,
			"0.007": 6.30656945737,
			"0.008": 7.51430874055,
			"0.009": 7.93454481759,
			"0.01": 12.7938356018,
			"0.011": 17.7886717945,
			"0.012": 12.1384067873,
			"0.013": 1.95820828815,
			"0.014": 0.0,
			"0.015": 0.0,
			"0.016": 0.0,
			"0.017": 0.0,
			"0.018": 0.0,
			"0.019": 0.0,
			"0.02": 0.0,
			"0.021": 0.0,
			"0.022": 0.0,
			"0.023": 0.0,
			"0.024": 0.0,
			"0.025": 0.0
		}
	}
}
