{
	 "smiles": "NC(=O)C1=C(C=C(F)C=C1)C(F)(F)F", 
	 "Tm": 408.65, 
	 "num_atms": 19, 
	 "gaussian": { 
		 "optdone": 1, 
		 "sigma_profile": "yes", 
		 "theory": "DFT", 
		 "functional": "B3LYP", 
		 "basiset": "6-31G**", 
		 "properties": { 
			 "R2extent": 3349.0317, 
			 "electric_dipole_moment_norm": 4.67418497815, 
			 "electric_quadrupole_moment_norm": 9.16029474362, 
			 "total_energy": -837.21150724, 
			 "HOMO_LUMO_gap": 0.20706, 
			 "cosmo_polarized_energy": -14.11, 
			 "cosmo_cavitation_energy": 25.56, 
			 "cosmo_dispersion_energy": -18.04, 
			 "cosmo_repulsion_energy": 1.35, 
			 "cosmo_total_nonelectrostatic_energy": 8.87, 
			 "SMD_solvation_energy": 6.66 
		},
		"coords": [
			{
				"x": 1.3479493179,
				"y": -0.5262733463,
				"z": -1.2662571301,
				"element": "N" 
			},
			{
				"x": -0.0141055633,
				"y": -0.3793103369,
				"z": -1.3644807777,
				"element": "C" 
			},
			{
				"x": -0.6707589486,
				"y": -0.8943931861,
				"z": -2.2538742366,
				"element": "O" 
			},
			{
				"x": -0.6177214409,
				"y": 0.5456604377,
				"z": -0.3327842102,
				"element": "C" 
			},
			{
				"x": -1.803618838,
				"y": 0.2318476606,
				"z": 0.3608399848,
				"element": "C" 
			},
			{
				"x": -2.3595098784,
				"y": 1.1522315141,
				"z": 1.2491131946,
				"element": "C" 
			},
			{
				"x": -1.7413911055,
				"y": 2.3840790683,
				"z": 1.4303665415,
				"element": "C" 
			},
			{
				"x": -2.2924912771,
				"y": 3.2642591867,
				"z": 2.2849349,
				"element": "F" 
			},
			{
				"x": -0.5721317246,
				"y": 2.7240180247,
				"z": 0.7652820719,
				"element": "C" 
			},
			{
				"x": -0.0168817043,
				"y": 1.7918301671,
				"z": -0.1100039331,
				"element": "C" 
			},
			{
				"x": -2.5017194701,
				"y": -1.1055198494,
				"z": 0.1995606531,
				"element": "C" 
			},
			{
				"x": -1.6209995606,
				"y": -2.1284797621,
				"z": 0.2063768532,
				"element": "F" 
			},
			{
				"x": -3.2174398875,
				"y": -1.1764926345,
				"z": -0.9327651989,
				"element": "F" 
			},
			{
				"x": -3.3626960676,
				"y": -1.3249655236,
				"z": 1.2240581406,
				"element": "F" 
			},
			{
				"x": 1.8194186874,
				"y": -0.3475286716,
				"z": -0.3929879864,
				"element": "H" 
			},
			{
				"x": 1.7662507633,
				"y": -1.199596467,
				"z": -1.8928110701,
				"element": "H" 
			},
			{
				"x": -3.2572716387,
				"y": 0.9172206215,
				"z": 1.8063920869,
				"element": "H" 
			},
			{
				"x": -0.1179268848,
				"y": 3.6947635572,
				"z": 0.9301661005,
				"element": "H" 
			},
			{
				"x": 0.8890452214,
				"y": 2.0425495397,
				"z": -0.652325984,
				"element": "H" 
			}
		],
		 "valence_orbital": [ 
			{
				"type": "occ",
				"energy": -0.36155,
				"method": "rhf"
			},
			{
				"type": "occ",
				"energy": -0.28727,
				"method": "rhf"
			},
			{
				"type": "occ",
				"energy": -0.28125,
				"method": "rhf"
			},
			{
				"type": "occ",
				"energy": -0.27305,
				"method": "rhf"
			},
			{
				"type": "occ",
				"energy": -0.25481,
				"method": "rhf"
			},
			{
				"type": "unocc",
				"energy": -0.04775,
				"method": "rhf"
			},
			{
				"type": "unocc",
				"energy": -0.03591,
				"method": "rhf"
			},
			{
				"type": "unocc",
				"energy": 0.03306,
				"method": "rhf"
			},
			{
				"type": "unocc",
				"energy": 0.07236,
				"method": "rhf"
			},
			{
				"type": "unocc",
				"energy": 0.08817,
				"method": "rhf"
			}
		],
		"cosmo_sigma_profile": { 
			"-0.025": 0.0,
			"-0.024": 0.0,
			"-0.023": 0.0,
			"-0.022": 0.0,
			"-0.021": 0.0,
			"-0.02": 0.0,
			"-0.019": 0.0,
			"-0.018": 0.0,
			"-0.017": 0.0,
			"-0.016": 0.0,
			"-0.015": 0.399523598325,
			"-0.014": 1.94180228959,
			"-0.013": 2.25807525872,
			"-0.012": 3.04851515491,
			"-0.011": 1.89215373919,
			"-0.01": 1.95517439541,
			"-0.009": 3.19103113682,
			"-0.008": 5.92431916932,
			"-0.007": 6.53815479909,
			"-0.006": 7.08897564911,
			"-0.005": 6.44370821533,
			"-0.004": 7.26046038995,
			"-0.003": 8.26481644825,
			"-0.002": 9.81470463362,
			"-0.001": 16.7018072215,
			"0.0": 20.4420860674,
			"0.001": 16.7759560005,
			"0.002": 22.8763903477,
			"0.003": 26.2816158037,
			"0.004": 10.7435926827,
			"0.005": 2.83568220478,
			"0.006": 3.01561330724,
			"0.007": 2.35630773705,
			"0.008": 1.96307316764,
			"0.009": 1.49862212121,
			"0.01": 1.87856000411,
			"0.011": 2.60227008957,
			"0.012": 3.3792084882,
			"0.013": 4.56302212389,
			"0.014": 1.10383129004,
			"0.015": 0.0,
			"0.016": 0.0,
			"0.017": 0.0,
			"0.018": 0.0,
			"0.019": 0.0,
			"0.02": 0.0,
			"0.021": 0.0,
			"0.022": 0.0,
			"0.023": 0.0,
			"0.024": 0.0,
			"0.025": 0.0
		}
	}
}
