{
	 "smiles": "CC1=CC2=CNN=C2C(C(O)=O)=C1N", 
	 "Tm": 448.15, 
	 "num_atms": 23, 
	 "gaussian": { 
		 "optdone": 1, 
		 "sigma_profile": "yes", 
		 "theory": "DFT", 
		 "functional": "B3LYP", 
		 "basiset": "6-31G**", 
		 "properties": { 
			 "R2extent": 2725.8547, 
			 "electric_dipole_moment_norm": 6.96003598123, 
			 "electric_quadrupole_moment_norm": 26.5127898519, 
			 "total_energy": -663.10264496, 
			 "HOMO_LUMO_gap": 0.15165, 
			 "cosmo_polarized_energy": -19.34, 
			 "cosmo_cavitation_energy": 26.1, 
			 "cosmo_dispersion_energy": -20.37, 
			 "cosmo_repulsion_energy": 1.57, 
			 "cosmo_total_nonelectrostatic_energy": 7.29, 
			 "SMD_solvation_energy": 4.8 
		},
		"coords": [
			{
				"x": -2.540154792,
				"y": 0.4723443457,
				"z": 1.7786366214,
				"element": "C" 
			},
			{
				"x": -1.3440191914,
				"y": 0.4155735991,
				"z": 0.8610868529,
				"element": "C" 
			},
			{
				"x": -1.4851835059,
				"y": 0.6292211834,
				"z": -0.4857243755,
				"element": "C" 
			},
			{
				"x": -0.3497911666,
				"y": 0.5761313838,
				"z": -1.3358081451,
				"element": "C" 
			},
			{
				"x": -0.1125454113,
				"y": 0.7345113363,
				"z": -2.7012411029,
				"element": "C" 
			},
			{
				"x": 1.2151178079,
				"y": 0.5537179969,
				"z": -2.8725269365,
				"element": "N" 
			},
			{
				"x": 1.8875043924,
				"y": 0.2864880344,
				"z": -1.726915896,
				"element": "N" 
			},
			{
				"x": 0.9357628721,
				"y": 0.297616627,
				"z": -0.7754475102,
				"element": "C" 
			},
			{
				"x": 1.1200394475,
				"y": 0.0681626321,
				"z": 0.620311661,
				"element": "C" 
			},
			{
				"x": 2.4498992848,
				"y": -0.2320715911,
				"z": 1.1895345949,
				"element": "C" 
			},
			{
				"x": 3.4914728219,
				"y": -0.2764565809,
				"z": 0.3415097887,
				"element": "O" 
			},
			{
				"x": 2.6465231224,
				"y": -0.4422296041,
				"z": 2.3852804054,
				"element": "O" 
			},
			{
				"x": -0.0322852074,
				"y": 0.1319996355,
				"z": 1.4344428204,
				"element": "C" 
			},
			{
				"x": 0.0609529533,
				"y": -0.0600797868,
				"z": 2.7723856962,
				"element": "N" 
			},
			{
				"x": -3.4490217584,
				"y": 0.7014318307,
				"z": 1.2175302212,
				"element": "H" 
			},
			{
				"x": -2.425079409,
				"y": 1.2444789874,
				"z": 2.5505405485,
				"element": "H" 
			},
			{
				"x": -2.7059898416,
				"y": -0.4828559326,
				"z": 2.2947481603,
				"element": "H" 
			},
			{
				"x": -2.4696082103,
				"y": 0.8396099881,
				"z": -0.895302872,
				"element": "H" 
			},
			{
				"x": -0.7687033538,
				"y": 0.9544372639,
				"z": -3.5303241222,
				"element": "H" 
			},
			{
				"x": 1.7309519737,
				"y": 0.5979820732,
				"z": -3.7378471951,
				"element": "H" 
			},
			{
				"x": 3.2071527651,
				"y": -0.0934379022,
				"z": -0.5829073536,
				"element": "H" 
			},
			{
				"x": -0.7570793893,
				"y": -0.0844998532,
				"z": 3.3537405034,
				"element": "H" 
			},
			{
				"x": 0.9871837958,
				"y": -0.2856756665,
				"z": 3.1322976347,
				"element": "H" 
			}
		],
		 "valence_orbital": [ 
			{
				"type": "occ",
				"energy": -0.2909,
				"method": "rhf"
			},
			{
				"type": "occ",
				"energy": -0.2824,
				"method": "rhf"
			},
			{
				"type": "occ",
				"energy": -0.25101,
				"method": "rhf"
			},
			{
				"type": "occ",
				"energy": -0.22787,
				"method": "rhf"
			},
			{
				"type": "occ",
				"energy": -0.20034,
				"method": "rhf"
			},
			{
				"type": "unocc",
				"energy": -0.04869,
				"method": "rhf"
			},
			{
				"type": "unocc",
				"energy": 0.01146,
				"method": "rhf"
			},
			{
				"type": "unocc",
				"energy": 0.03341,
				"method": "rhf"
			},
			{
				"type": "unocc",
				"energy": 0.06612,
				"method": "rhf"
			},
			{
				"type": "unocc",
				"energy": 0.08024,
				"method": "rhf"
			}
		],
		"cosmo_sigma_profile": { 
			"-0.025": 0.0,
			"-0.024": 0.0,
			"-0.023": 0.0,
			"-0.022": 0.0,
			"-0.021": 0.0,
			"-0.02": 0.0,
			"-0.019": 0.0,
			"-0.018": 0.284106780173,
			"-0.017": 1.71282800984,
			"-0.016": 1.46556699011,
			"-0.015": 1.18264706217,
			"-0.014": 1.05735750218,
			"-0.013": 1.72379509992,
			"-0.012": 2.11623920821,
			"-0.011": 2.3135433408,
			"-0.01": 3.74018443677,
			"-0.009": 4.18540752815,
			"-0.008": 4.17894195433,
			"-0.007": 6.2223613876,
			"-0.006": 7.91004163186,
			"-0.005": 10.3254778948,
			"-0.004": 9.63484835864,
			"-0.003": 9.67096120931,
			"-0.002": 10.310827373,
			"-0.001": 13.7513539694,
			"0.0": 14.0389523974,
			"0.001": 11.5768205031,
			"0.002": 15.2209796234,
			"0.003": 24.4852312267,
			"0.004": 13.9013646915,
			"0.005": 5.8378942277,
			"0.006": 4.81577708139,
			"0.007": 4.77407237576,
			"0.008": 2.43095577447,
			"0.009": 2.54606532459,
			"0.01": 2.65856016857,
			"0.011": 3.71424005385,
			"0.012": 4.00516598702,
			"0.013": 3.46291043941,
			"0.014": 2.41391307384,
			"0.015": 0.852600604047,
			"0.016": 0.0,
			"0.017": 0.0,
			"0.018": 0.0,
			"0.019": 0.0,
			"0.02": 0.0,
			"0.021": 0.0,
			"0.022": 0.0,
			"0.023": 0.0,
			"0.024": 0.0,
			"0.025": 0.0
		}
	}
}
