{
	 "smiles": "BrCC(=O)C1=CNC2=C1C=CC=N2", 
	 "Tm": 483.15, 
	 "num_atms": 20, 
	 "gaussian": { 
		 "optdone": 1, 
		 "sigma_profile": "yes", 
		 "theory": "DFT", 
		 "functional": "B3LYP", 
		 "basiset": "6-31G**", 
		 "properties": { 
			 "R2extent": 4672.8182, 
			 "electric_dipole_moment_norm": 3.95596004403, 
			 "electric_quadrupole_moment_norm": 17.5914568473, 
			 "total_energy": -3103.30906562, 
			 "HOMO_LUMO_gap": 0.18049, 
			 "cosmo_polarized_energy": -16.89, 
			 "cosmo_cavitation_energy": 26.9, 
			 "cosmo_dispersion_energy": -20.41, 
			 "cosmo_repulsion_energy": 1.6, 
			 "cosmo_total_nonelectrostatic_energy": 8.09, 
			 "SMD_solvation_energy": 2.23 
		},
		"coords": [
			{
				"x": -3.1559643824,
				"y": 2.8294504364,
				"z": -1.3011798228,
				"element": "Br" 
			},
			{
				"x": -2.0203802403,
				"y": 1.4984207629,
				"z": -0.4380018827,
				"element": "C" 
			},
			{
				"x": -0.5762918265,
				"y": 1.9621869556,
				"z": -0.2358032594,
				"element": "C" 
			},
			{
				"x": -0.1834629625,
				"y": 3.0618776679,
				"z": -0.5863680007,
				"element": "O" 
			},
			{
				"x": 0.3200014107,
				"y": 0.9899237911,
				"z": 0.4139370667,
				"element": "C" 
			},
			{
				"x": 1.6503997817,
				"y": 1.2971725386,
				"z": 0.6497623044,
				"element": "C" 
			},
			{
				"x": 2.2760131361,
				"y": 0.2506308297,
				"z": 1.2566246383,
				"element": "N" 
			},
			{
				"x": 1.3717227356,
				"y": -0.7818196248,
				"z": 1.4392901685,
				"element": "C" 
			},
			{
				"x": 0.1176062573,
				"y": -0.354020052,
				"z": 0.9181516489,
				"element": "C" 
			},
			{
				"x": -0.9286712821,
				"y": -1.283362138,
				"z": 1.0189185374,
				"element": "C" 
			},
			{
				"x": -0.6525804609,
				"y": -2.5148050274,
				"z": 1.6072900968,
				"element": "C" 
			},
			{
				"x": 0.6399946889,
				"y": -2.8005911006,
				"z": 2.0799034895,
				"element": "C" 
			},
			{
				"x": 1.6659620643,
				"y": -1.946370498,
				"z": 2.0047545266,
				"element": "N" 
			},
			{
				"x": -2.4795264355,
				"y": 1.2622248784,
				"z": 0.5243628491,
				"element": "H" 
			},
			{
				"x": -2.045533615,
				"y": 0.6030801784,
				"z": -1.0629167658,
				"element": "H" 
			},
			{
				"x": 2.1653452091,
				"y": 2.215272269,
				"z": 0.4082554968,
				"element": "H" 
			},
			{
				"x": 3.2437455047,
				"y": 0.2079034047,
				"z": 1.5390726064,
				"element": "H" 
			},
			{
				"x": -1.9272840843,
				"y": -1.0655510803,
				"z": 0.6549349396,
				"element": "H" 
			},
			{
				"x": -1.4322249123,
				"y": -3.2629650752,
				"z": 1.7055862282,
				"element": "H" 
			},
			{
				"x": 0.8513294134,
				"y": -3.7636591167,
				"z": 2.5388251341,
				"element": "H" 
			}
		],
		 "valence_orbital": [ 
			{
				"type": "occ",
				"energy": -0.27152,
				"method": "rhf"
			},
			{
				"type": "occ",
				"energy": -0.27081,
				"method": "rhf"
			},
			{
				"type": "occ",
				"energy": -0.25727,
				"method": "rhf"
			},
			{
				"type": "occ",
				"energy": -0.25664,
				"method": "rhf"
			},
			{
				"type": "occ",
				"energy": -0.23794,
				"method": "rhf"
			},
			{
				"type": "unocc",
				"energy": -0.05745,
				"method": "rhf"
			},
			{
				"type": "unocc",
				"energy": -0.03026,
				"method": "rhf"
			},
			{
				"type": "unocc",
				"energy": 0.00054,
				"method": "rhf"
			},
			{
				"type": "unocc",
				"energy": 0.00475,
				"method": "rhf"
			},
			{
				"type": "unocc",
				"energy": 0.06926,
				"method": "rhf"
			}
		],
		"cosmo_sigma_profile": { 
			"-0.025": 0.0,
			"-0.024": 0.0,
			"-0.023": 0.0,
			"-0.022": 0.0,
			"-0.021": 0.0,
			"-0.02": 0.0,
			"-0.019": 0.0,
			"-0.018": 0.0425805867975,
			"-0.017": 1.1013082076,
			"-0.016": 1.55806351077,
			"-0.015": 1.06729591131,
			"-0.014": 1.17567163864,
			"-0.013": 0.880070767772,
			"-0.012": 1.10399593805,
			"-0.011": 1.18576379936,
			"-0.01": 2.14894285366,
			"-0.009": 7.21850753625,
			"-0.008": 9.87405122222,
			"-0.007": 8.62068838063,
			"-0.006": 9.83382897174,
			"-0.005": 10.057386602,
			"-0.004": 9.07561918624,
			"-0.003": 9.51899484356,
			"-0.002": 10.408169906,
			"-0.001": 9.51597434034,
			"0.0": 14.40536154,
			"0.001": 18.5635416721,
			"0.002": 18.9112383425,
			"0.003": 15.7569835406,
			"0.004": 9.17665887941,
			"0.005": 9.24341820137,
			"0.006": 10.766917718,
			"0.007": 4.20231846788,
			"0.008": 3.37010710292,
			"0.009": 2.88705590689,
			"0.01": 3.0450020551,
			"0.011": 4.56545480581,
			"0.012": 5.35281873364,
			"0.013": 2.68149641353,
			"0.014": 1.15813282314,
			"0.015": 0.866859548064,
			"0.016": 0.058015235205,
			"0.017": 0.0,
			"0.018": 0.0,
			"0.019": 0.0,
			"0.02": 0.0,
			"0.021": 0.0,
			"0.022": 0.0,
			"0.023": 0.0,
			"0.024": 0.0,
			"0.025": 0.0
		}
	}
}
