{
	 "smiles": "CC1=NC(=CO1)C1=CC=C(C=C1)S(N)(=O)=O", 
	 "Tm": 519.15, 
	 "num_atms": 26, 
	 "gaussian": { 
		 "optdone": 1, 
		 "sigma_profile": "yes", 
		 "theory": "DFT", 
		 "functional": "B3LYP", 
		 "basiset": "6-31G**", 
		 "properties": { 
			 "R2extent": 6388.0452, 
			 "electric_dipole_moment_norm": 7.35358989746, 
			 "electric_quadrupole_moment_norm": 23.1265831138, 
			 "total_energy": -1120.38072473, 
			 "HOMO_LUMO_gap": 0.17886, 
			 "cosmo_polarized_energy": -21.81, 
			 "cosmo_cavitation_energy": 32.5, 
			 "cosmo_dispersion_energy": -24.39, 
			 "cosmo_repulsion_energy": 1.84, 
			 "cosmo_total_nonelectrostatic_energy": 9.95, 
			 "SMD_solvation_energy": 4.71 
		},
		"coords": [
			{
				"x": 2.0017786328,
				"y": 2.3994868622,
				"z": 3.8360927282,
				"element": "C" 
			},
			{
				"x": 1.4396643568,
				"y": 2.0608368099,
				"z": 2.5015783689,
				"element": "C" 
			},
			{
				"x": 1.1134070238,
				"y": 0.8994895472,
				"z": 2.0289301579,
				"element": "N" 
			},
			{
				"x": 0.6386444189,
				"y": 1.1454614498,
				"z": 0.7375394915,
				"element": "C" 
			},
			{
				"x": 0.7121848369,
				"y": 2.4877723362,
				"z": 0.5071425814,
				"element": "C" 
			},
			{
				"x": 1.2227514123,
				"y": 3.0862255495,
				"z": 1.6259390305,
				"element": "O" 
			},
			{
				"x": 0.1660251224,
				"y": 0.0605660377,
				"z": -0.1273121605,
				"element": "C" 
			},
			{
				"x": 0.1480152308,
				"y": -1.2574575651,
				"z": 0.359580824,
				"element": "C" 
			},
			{
				"x": -0.298777514,
				"y": -2.3044416217,
				"z": -0.4411209847,
				"element": "C" 
			},
			{
				"x": -0.7275194955,
				"y": -2.0382301889,
				"z": -1.7437009062,
				"element": "C" 
			},
			{
				"x": -0.7296895994,
				"y": -0.7331409814,
				"z": -2.2446407027,
				"element": "C" 
			},
			{
				"x": -0.2827900277,
				"y": 0.306880557,
				"z": -1.4371465023,
				"element": "C" 
			},
			{
				"x": -1.2694716063,
				"y": -3.3900733378,
				"z": -2.7956208193,
				"element": "S" 
			},
			{
				"x": 0.0996401074,
				"y": -3.9724830755,
				"z": -3.5842191937,
				"element": "N" 
			},
			{
				"x": -1.7092502894,
				"y": -4.4775257093,
				"z": -1.923358545,
				"element": "O" 
			},
			{
				"x": -2.1110430614,
				"y": -2.8180763315,
				"z": -3.8455926693,
				"element": "O" 
			},
			{
				"x": 2.9774671054,
				"y": 2.8867142425,
				"z": 3.7390180042,
				"element": "H" 
			},
			{
				"x": 1.3410561985,
				"y": 3.0843593451,
				"z": 4.3775282017,
				"element": "H" 
			},
			{
				"x": 2.1163698836,
				"y": 1.4824319178,
				"z": 4.4143600569,
				"element": "H" 
			},
			{
				"x": 0.4654912191,
				"y": 3.1389985455,
				"z": -0.3151370372,
				"element": "H" 
			},
			{
				"x": 0.4808513375,
				"y": -1.4419438703,
				"z": 1.3747213353,
				"element": "H" 
			},
			{
				"x": -0.3388593826,
				"y": -3.3184030297,
				"z": -0.0571467322,
				"element": "H" 
			},
			{
				"x": -1.0992911144,
				"y": -0.5414611336,
				"z": -3.2463095807,
				"element": "H" 
			},
			{
				"x": -0.2904866563,
				"y": 1.3197335371,
				"z": -1.8288350419,
				"element": "H" 
			},
			{
				"x": 0.5115288056,
				"y": -3.2885344263,
				"z": -4.2112765172,
				"element": "H" 
			},
			{
				"x": 0.7749030551,
				"y": -4.3814854663,
				"z": -2.9459133879,
				"element": "H" 
			}
		],
		 "valence_orbital": [ 
			{
				"type": "occ",
				"energy": -0.30087,
				"method": "rhf"
			},
			{
				"type": "occ",
				"energy": -0.29796,
				"method": "rhf"
			},
			{
				"type": "occ",
				"energy": -0.28295,
				"method": "rhf"
			},
			{
				"type": "occ",
				"energy": -0.27231,
				"method": "rhf"
			},
			{
				"type": "occ",
				"energy": -0.23424,
				"method": "rhf"
			},
			{
				"type": "unocc",
				"energy": -0.05538,
				"method": "rhf"
			},
			{
				"type": "unocc",
				"energy": -0.02367,
				"method": "rhf"
			},
			{
				"type": "unocc",
				"energy": -0.00169,
				"method": "rhf"
			},
			{
				"type": "unocc",
				"energy": 0.0498,
				"method": "rhf"
			},
			{
				"type": "unocc",
				"energy": 0.05374,
				"method": "rhf"
			}
		],
		"cosmo_sigma_profile": { 
			"-0.025": 0.0,
			"-0.024": 0.0,
			"-0.023": 0.0,
			"-0.022": 0.0,
			"-0.021": 0.0,
			"-0.02": 0.0,
			"-0.019": 0.0,
			"-0.018": 0.0,
			"-0.017": 0.0,
			"-0.016": 0.0573086046169,
			"-0.015": 2.00351056379,
			"-0.014": 2.92022640913,
			"-0.013": 2.48476695063,
			"-0.012": 3.09509423549,
			"-0.011": 2.87985764871,
			"-0.01": 4.94817379056,
			"-0.009": 4.38422074154,
			"-0.008": 4.46499464299,
			"-0.007": 7.85126117711,
			"-0.006": 15.331206346,
			"-0.005": 14.3216791556,
			"-0.004": 13.1184737676,
			"-0.003": 15.6301976852,
			"-0.002": 15.3077669512,
			"-0.001": 14.5467469636,
			"0.0": 14.4654075637,
			"0.001": 17.6111701038,
			"0.002": 24.4296238889,
			"0.003": 15.2571914914,
			"0.004": 6.63067874668,
			"0.005": 6.62337526538,
			"0.006": 5.72037168603,
			"0.007": 6.93654983598,
			"0.008": 5.5962582072,
			"0.009": 6.36681849827,
			"0.01": 7.90701982729,
			"0.011": 11.6278099533,
			"0.012": 6.71233254545,
			"0.013": 0.9911380337,
			"0.014": 0.00555419720465,
			"0.015": 0.0,
			"0.016": 0.0,
			"0.017": 0.0,
			"0.018": 0.0,
			"0.019": 0.0,
			"0.02": 0.0,
			"0.021": 0.0,
			"0.022": 0.0,
			"0.023": 0.0,
			"0.024": 0.0,
			"0.025": 0.0
		}
	}
}
