{
	 "smiles": "CCC1=NNC(=O)C(C#N)=C1CC", 
	 "Tm": 440.15, 
	 "num_atms": 24, 
	 "gaussian": { 
		 "optdone": 1, 
		 "sigma_profile": "yes", 
		 "theory": "DFT", 
		 "functional": "B3LYP", 
		 "basiset": "6-31G**", 
		 "properties": { 
			 "R2extent": 2572.4602, 
			 "electric_dipole_moment_norm": 6.43327602626, 
			 "electric_quadrupole_moment_norm": 19.0245189001, 
			 "total_energy": -589.039267508, 
			 "HOMO_LUMO_gap": 0.15453, 
			 "cosmo_polarized_energy": -16.63, 
			 "cosmo_cavitation_energy": 28.25, 
			 "cosmo_dispersion_energy": -19.61, 
			 "cosmo_repulsion_energy": 1.57, 
			 "cosmo_total_nonelectrostatic_energy": 10.21, 
			 "SMD_solvation_energy": 6.15 
		},
		"coords": [
			{
				"x": 1.5688597495,
				"y": 2.1673046091,
				"z": -1.3457865437,
				"element": "C" 
			},
			{
				"x": 0.3007515829,
				"y": 2.0926001553,
				"z": -0.4777191565,
				"element": "C" 
			},
			{
				"x": -0.3313808753,
				"y": 0.7120366683,
				"z": -0.4770821813,
				"element": "C" 
			},
			{
				"x": -0.8785193171,
				"y": 0.3693243898,
				"z": -1.6196065598,
				"element": "N" 
			},
			{
				"x": -1.4326758586,
				"y": -0.8397637078,
				"z": -1.7227440268,
				"element": "N" 
			},
			{
				"x": -1.5181476063,
				"y": -1.8430576834,
				"z": -0.7539391206,
				"element": "C" 
			},
			{
				"x": -2.0507804768,
				"y": -2.9154801534,
				"z": -0.9952188905,
				"element": "O" 
			},
			{
				"x": -0.913287042,
				"y": -1.4200076355,
				"z": 0.5134276699,
				"element": "C" 
			},
			{
				"x": -0.9593727719,
				"y": -2.367827777,
				"z": 1.5834591541,
				"element": "C" 
			},
			{
				"x": -0.9819001309,
				"y": -3.1235360167,
				"z": 2.4676390287,
				"element": "N" 
			},
			{
				"x": -0.3339278114,
				"y": -0.1758744802,
				"z": 0.6672036654,
				"element": "C" 
			},
			{
				"x": 0.284708288,
				"y": 0.2277164753,
				"z": 1.9864368273,
				"element": "C" 
			},
			{
				"x": 1.8140636479,
				"y": 0.0367346118,
				"z": 2.0185420846,
				"element": "C" 
			},
			{
				"x": 1.9745732122,
				"y": 3.1835977764,
				"z": -1.3463848327,
				"element": "H" 
			},
			{
				"x": 2.3491178877,
				"y": 1.4919370625,
				"z": -0.9800090776,
				"element": "H" 
			},
			{
				"x": 1.3392277648,
				"y": 1.8875383954,
				"z": -2.3774535987,
				"element": "H" 
			},
			{
				"x": 0.5303561458,
				"y": 2.4084076203,
				"z": 0.5422068622,
				"element": "H" 
			},
			{
				"x": -0.4384649822,
				"y": 2.8007225806,
				"z": -0.8668754386,
				"element": "H" 
			},
			{
				"x": -1.843592324,
				"y": -1.0549574379,
				"z": -2.6245143781,
				"element": "H" 
			},
			{
				"x": 0.0377310513,
				"y": 1.2720199698,
				"z": 2.2019283164,
				"element": "H" 
			},
			{
				"x": -0.1631202874,
				"y": -0.3712991392,
				"z": 2.7835731223,
				"element": "H" 
			},
			{
				"x": 2.205841407,
				"y": 0.3272375411,
				"z": 2.9975349131,
				"element": "H" 
			},
			{
				"x": 2.3172024845,
				"y": 0.6431243417,
				"z": 1.2599908052,
				"element": "H" 
			},
			{
				"x": 2.0772362624,
				"y": -1.0106981664,
				"z": 1.8458913557,
				"element": "H" 
			}
		],
		 "valence_orbital": [ 
			{
				"type": "occ",
				"energy": -0.33603,
				"method": "rhf"
			},
			{
				"type": "occ",
				"energy": -0.32563,
				"method": "rhf"
			},
			{
				"type": "occ",
				"energy": -0.30558,
				"method": "rhf"
			},
			{
				"type": "occ",
				"energy": -0.26707,
				"method": "rhf"
			},
			{
				"type": "occ",
				"energy": -0.24914,
				"method": "rhf"
			},
			{
				"type": "unocc",
				"energy": -0.09461,
				"method": "rhf"
			},
			{
				"type": "unocc",
				"energy": -0.01776,
				"method": "rhf"
			},
			{
				"type": "unocc",
				"energy": 0.02611,
				"method": "rhf"
			},
			{
				"type": "unocc",
				"energy": 0.04344,
				"method": "rhf"
			},
			{
				"type": "unocc",
				"energy": 0.06735,
				"method": "rhf"
			}
		],
		"cosmo_sigma_profile": { 
			"-0.025": 0.0,
			"-0.024": 0.0,
			"-0.023": 0.0,
			"-0.022": 0.0,
			"-0.021": 0.0,
			"-0.02": 0.0,
			"-0.019": 0.0,
			"-0.018": 0.0,
			"-0.017": 0.515257065815,
			"-0.016": 1.29866358414,
			"-0.015": 1.07421475302,
			"-0.014": 1.15745889465,
			"-0.013": 0.563093522907,
			"-0.012": 0.778708191287,
			"-0.011": 0.746448475009,
			"-0.01": 1.08551717308,
			"-0.009": 0.694463455607,
			"-0.008": 0.514399904406,
			"-0.007": 3.2627811829,
			"-0.006": 4.72658661523,
			"-0.005": 11.9841250022,
			"-0.004": 25.2296672568,
			"-0.003": 32.7033420161,
			"-0.002": 27.4657522637,
			"-0.001": 20.6689712022,
			"0.0": 18.1685082261,
			"0.001": 10.2881490702,
			"0.002": 4.92409216431,
			"0.003": 4.43336837277,
			"0.004": 3.76659499284,
			"0.005": 4.72770615774,
			"0.006": 5.32422492693,
			"0.007": 5.13762987299,
			"0.008": 5.43178309871,
			"0.009": 5.44636565836,
			"0.01": 5.13801678016,
			"0.011": 5.27281681949,
			"0.012": 6.25591766479,
			"0.013": 5.44063870753,
			"0.014": 0.255524840991,
			"0.015": 0.0,
			"0.016": 0.0,
			"0.017": 0.0,
			"0.018": 0.0,
			"0.019": 0.0,
			"0.02": 0.0,
			"0.021": 0.0,
			"0.022": 0.0,
			"0.023": 0.0,
			"0.024": 0.0,
			"0.025": 0.0
		}
	}
}
