{
	 "smiles": "CC1=C(Br)N=C(C=C1)C#N", 
	 "Tm": 404.15, 
	 "num_atms": 15, 
	 "gaussian": { 
		 "optdone": 1, 
		 "sigma_profile": "yes", 
		 "theory": "DFT", 
		 "functional": "B3LYP", 
		 "basiset": "6-31G**", 
		 "properties": { 
			 "R2extent": 2359.1269, 
			 "electric_dipole_moment_norm": 6.00693503627, 
			 "electric_quadrupole_moment_norm": 21.5372423636, 
			 "total_energy": -2950.64470049, 
			 "HOMO_LUMO_gap": 0.19489, 
			 "cosmo_polarized_energy": -11.18, 
			 "cosmo_cavitation_energy": 22.91, 
			 "cosmo_dispersion_energy": -16.73, 
			 "cosmo_repulsion_energy": 1.36, 
			 "cosmo_total_nonelectrostatic_energy": 7.54, 
			 "SMD_solvation_energy": 3.01 
		},
		"coords": [
			{
				"x": -2.0167821594,
				"y": -0.3265531285,
				"z": 1.695699127,
				"element": "C" 
			},
			{
				"x": -1.6367839949,
				"y": 0.0526824838,
				"z": 0.2926808862,
				"element": "C" 
			},
			{
				"x": -0.3237147361,
				"y": -0.070725479,
				"z": -0.2108835418,
				"element": "C" 
			},
			{
				"x": 1.0528153116,
				"y": -0.7549956918,
				"z": 0.9425358091,
				"element": "Br" 
			},
			{
				"x": 0.0622009597,
				"y": 0.2454992326,
				"z": -1.4269412782,
				"element": "N" 
			},
			{
				"x": -0.8652240243,
				"y": 0.7291877731,
				"z": -2.272772876,
				"element": "C" 
			},
			{
				"x": -2.202780464,
				"y": 0.9043830701,
				"z": -1.9097704437,
				"element": "C" 
			},
			{
				"x": -2.5745844493,
				"y": 0.5581827334,
				"z": -0.6122981716,
				"element": "C" 
			},
			{
				"x": -0.4229053625,
				"y": 1.0703834816,
				"z": -3.6020339262,
				"element": "C" 
			},
			{
				"x": -0.103777693,
				"y": 1.3565313817,
				"z": -4.6821518607,
				"element": "N" 
			},
			{
				"x": -3.0807388991,
				"y": -0.1492584125,
				"z": 1.8699299231,
				"element": "H" 
			},
			{
				"x": -1.4424596757,
				"y": 0.2500059717,
				"z": 2.4281093962,
				"element": "H" 
			},
			{
				"x": -1.8028041979,
				"y": -1.3827091782,
				"z": 1.8891987463,
				"element": "H" 
			},
			{
				"x": -2.9200443674,
				"y": 1.2973849717,
				"z": -2.6212520526,
				"element": "H" 
			},
			{
				"x": -3.6059162477,
				"y": 0.6806007902,
				"z": -0.2940497371,
				"element": "H" 
			}
		],
		 "valence_orbital": [ 
			{
				"type": "occ",
				"energy": -0.33328,
				"method": "rhf"
			},
			{
				"type": "occ",
				"energy": -0.30369,
				"method": "rhf"
			},
			{
				"type": "occ",
				"energy": -0.30303,
				"method": "rhf"
			},
			{
				"type": "occ",
				"energy": -0.29237,
				"method": "rhf"
			},
			{
				"type": "occ",
				"energy": -0.26848,
				"method": "rhf"
			},
			{
				"type": "unocc",
				"energy": -0.07359,
				"method": "rhf"
			},
			{
				"type": "unocc",
				"energy": -0.05248,
				"method": "rhf"
			},
			{
				"type": "unocc",
				"energy": -0.00582,
				"method": "rhf"
			},
			{
				"type": "unocc",
				"energy": 0.02788,
				"method": "rhf"
			},
			{
				"type": "unocc",
				"energy": 0.05756,
				"method": "rhf"
			}
		],
		"cosmo_sigma_profile": { 
			"-0.025": 0.0,
			"-0.024": 0.0,
			"-0.023": 0.0,
			"-0.022": 0.0,
			"-0.021": 0.0,
			"-0.02": 0.0,
			"-0.019": 0.0,
			"-0.018": 0.0,
			"-0.017": 0.0,
			"-0.016": 0.0,
			"-0.015": 0.0,
			"-0.014": 0.0,
			"-0.013": 0.0,
			"-0.012": 0.0,
			"-0.011": 0.0,
			"-0.01": 0.42688902353,
			"-0.009": 3.82568161307,
			"-0.008": 6.34847746693,
			"-0.007": 5.7865707347,
			"-0.006": 5.1477594908,
			"-0.005": 9.97039342287,
			"-0.004": 11.5949233485,
			"-0.003": 17.8060864597,
			"-0.002": 23.6374593729,
			"-0.001": 18.8111331821,
			"0.0": 11.6960070454,
			"0.001": 7.88880371474,
			"0.002": 9.34412701275,
			"0.003": 11.4641218398,
			"0.004": 11.0230916487,
			"0.005": 5.41646258278,
			"0.006": 5.47656780092,
			"0.007": 4.87318300562,
			"0.008": 4.55030615655,
			"0.009": 3.92562767851,
			"0.01": 3.79289729902,
			"0.011": 3.33058007574,
			"0.012": 2.25708390912,
			"0.013": 0.173992321223,
			"0.014": 0.0,
			"0.015": 0.0,
			"0.016": 0.0,
			"0.017": 0.0,
			"0.018": 0.0,
			"0.019": 0.0,
			"0.02": 0.0,
			"0.021": 0.0,
			"0.022": 0.0,
			"0.023": 0.0,
			"0.024": 0.0,
			"0.025": 0.0
		}
	}
}
