{
	 "smiles": "NC1=C(C=C(C=C1)C#N)[N+]([O-])=O", 
	 "Tm": 433.15, 
	 "num_atms": 17, 
	 "gaussian": { 
		 "optdone": 1, 
		 "sigma_profile": "yes", 
		 "theory": "DFT", 
		 "functional": "B3LYP", 
		 "basiset": "6-31G**", 
		 "properties": { 
			 "R2extent": 2666.5691, 
			 "electric_dipole_moment_norm": 6.5611425537, 
			 "electric_quadrupole_moment_norm": 18.2406964862, 
			 "total_energy": -584.35125373, 
			 "HOMO_LUMO_gap": 0.14309, 
			 "cosmo_polarized_energy": -16.89, 
			 "cosmo_cavitation_energy": 23.21, 
			 "cosmo_dispersion_energy": -16.88, 
			 "cosmo_repulsion_energy": 1.34, 
			 "cosmo_total_nonelectrostatic_energy": 7.67, 
			 "SMD_solvation_energy": 7.45 
		},
		"coords": [
			{
				"x": -1.2563279323,
				"y": -0.6082349015,
				"z": -1.21424321,
				"element": "N" 
			},
			{
				"x": -0.4534073838,
				"y": -1.0871005121,
				"z": -0.2403626262,
				"element": "C" 
			},
			{
				"x": 0.1027417458,
				"y": -0.2847379112,
				"z": 0.8000467779,
				"element": "C" 
			},
			{
				"x": 0.9284760325,
				"y": -0.8357342823,
				"z": 1.7840427181,
				"element": "C" 
			},
			{
				"x": 1.233853972,
				"y": -2.1930503807,
				"z": 1.7767018167,
				"element": "C" 
			},
			{
				"x": 0.692424351,
				"y": -3.0077363564,
				"z": 0.7522739241,
				"element": "C" 
			},
			{
				"x": -0.1203356019,
				"y": -2.4696149759,
				"z": -0.2177675472,
				"element": "C" 
			},
			{
				"x": 2.0785451269,
				"y": -2.7583325619,
				"z": 2.7832303503,
				"element": "C" 
			},
			{
				"x": 2.764196067,
				"y": -3.2315632073,
				"z": 3.5957638392,
				"element": "N" 
			},
			{
				"x": -0.1583452041,
				"y": 1.1425144145,
				"z": 0.8914410114,
				"element": "N" 
			},
			{
				"x": 0.3531097294,
				"y": 1.7731919001,
				"z": 1.8140211923,
				"element": "O" 
			},
			{
				"x": -0.8887997803,
				"y": 1.670837998,
				"z": 0.0333247509,
				"element": "O" 
			},
			{
				"x": -1.4806875356,
				"y": 0.3770439247,
				"z": -1.2142030926,
				"element": "H" 
			},
			{
				"x": -1.6142131267,
				"y": -1.2294634712,
				"z": -1.9206416187,
				"element": "H" 
			},
			{
				"x": 1.3209623496,
				"y": -0.1771001279,
				"z": 2.5477399527,
				"element": "H" 
			},
			{
				"x": 0.9241491308,
				"y": -4.067503549,
				"z": 0.7367435569,
				"element": "H" 
			},
			{
				"x": -0.5280419402,
				"y": -3.106816,
				"z": -0.9970117957,
				"element": "H" 
			}
		],
		 "valence_orbital": [ 
			{
				"type": "occ",
				"energy": -0.32116,
				"method": "rhf"
			},
			{
				"type": "occ",
				"energy": -0.31897,
				"method": "rhf"
			},
			{
				"type": "occ",
				"energy": -0.30372,
				"method": "rhf"
			},
			{
				"type": "occ",
				"energy": -0.30057,
				"method": "rhf"
			},
			{
				"type": "occ",
				"energy": -0.24356,
				"method": "rhf"
			},
			{
				"type": "unocc",
				"energy": -0.10047,
				"method": "rhf"
			},
			{
				"type": "unocc",
				"energy": -0.05085,
				"method": "rhf"
			},
			{
				"type": "unocc",
				"energy": -0.01922,
				"method": "rhf"
			},
			{
				"type": "unocc",
				"energy": 0.03016,
				"method": "rhf"
			},
			{
				"type": "unocc",
				"energy": 0.05953,
				"method": "rhf"
			}
		],
		"cosmo_sigma_profile": { 
			"-0.025": 0.0,
			"-0.024": 0.0,
			"-0.023": 0.0,
			"-0.022": 0.0,
			"-0.021": 0.0,
			"-0.02": 0.0,
			"-0.019": 0.0,
			"-0.018": 0.0,
			"-0.017": 0.0,
			"-0.016": 0.246511044484,
			"-0.015": 1.81074738594,
			"-0.014": 1.58602654627,
			"-0.013": 1.5943958948,
			"-0.012": 1.48255280314,
			"-0.011": 2.78401575593,
			"-0.01": 2.66799681047,
			"-0.009": 4.03804257887,
			"-0.008": 6.10126838048,
			"-0.007": 7.20878648739,
			"-0.006": 7.67967959399,
			"-0.005": 7.84315369637,
			"-0.004": 8.00011687379,
			"-0.003": 10.1175774406,
			"-0.002": 13.4978030418,
			"-0.001": 18.1353696239,
			"0.0": 15.8661244044,
			"0.001": 11.4228735394,
			"0.002": 7.2637039606,
			"0.003": 4.31766478565,
			"0.004": 4.3261578636,
			"0.005": 4.86552749526,
			"0.006": 5.64442661591,
			"0.007": 7.884388168,
			"0.008": 9.02023963103,
			"0.009": 7.96748700233,
			"0.01": 6.64921474992,
			"0.011": 3.34319680366,
			"0.012": 2.51057735574,
			"0.013": 1.81553291645,
			"0.014": 0.1536828589,
			"0.015": 0.0,
			"0.016": 0.0,
			"0.017": 0.0,
			"0.018": 0.0,
			"0.019": 0.0,
			"0.02": 0.0,
			"0.021": 0.0,
			"0.022": 0.0,
			"0.023": 0.0,
			"0.024": 0.0,
			"0.025": 0.0
		}
	}
}
