{
	 "smiles": "COCCN(CCOC)C(=O)COC(=O)C1=CC=CC=C1", 
	 "Tm": 330.65, 
	 "num_atms": 42, 
	 "gaussian": { 
		 "optdone": 1, 
		 "sigma_profile": "yes", 
		 "theory": "DFT", 
		 "functional": "B3LYP", 
		 "basiset": "6-31G**", 
		 "properties": { 
			 "R2extent": 8988.1573, 
			 "electric_dipole_moment_norm": 4.24124980165, 
			 "electric_quadrupole_moment_norm": 24.3030440478, 
			 "total_energy": -1015.1093566, 
			 "HOMO_LUMO_gap": 0.1799, 
			 "cosmo_polarized_energy": -16.09, 
			 "cosmo_cavitation_energy": 45.32, 
			 "cosmo_dispersion_energy": -30.26, 
			 "cosmo_repulsion_energy": 2.39, 
			 "cosmo_total_nonelectrostatic_energy": 17.46, 
			 "SMD_solvation_energy": 9.82 
		},
		"coords": [
			{
				"x": 1.9805141613,
				"y": 4.5589682174,
				"z": 3.1039839897,
				"element": "C" 
			},
			{
				"x": 1.3949900827,
				"y": 3.2760784816,
				"z": 3.0849390573,
				"element": "O" 
			},
			{
				"x": 1.5160291991,
				"y": 2.6352638366,
				"z": 1.8300910633,
				"element": "C" 
			},
			{
				"x": 0.9151916936,
				"y": 1.2365316796,
				"z": 1.9762508288,
				"element": "C" 
			},
			{
				"x": 0.8921874582,
				"y": 0.509445567,
				"z": 0.699134635,
				"element": "N" 
			},
			{
				"x": -0.3196067941,
				"y": 0.5975237667,
				"z": -0.1157418743,
				"element": "C" 
			},
			{
				"x": -1.4600848337,
				"y": -0.3167814982,
				"z": 0.3317450828,
				"element": "C" 
			},
			{
				"x": -2.0175973539,
				"y": 0.1822638982,
				"z": 1.5333775789,
				"element": "O" 
			},
			{
				"x": -3.0425092162,
				"y": -0.6422923115,
				"z": 2.0487440232,
				"element": "C" 
			},
			{
				"x": 2.0491002064,
				"y": -0.1157807443,
				"z": 0.3178302543,
				"element": "C" 
			},
			{
				"x": 3.0781936438,
				"y": -0.0567554303,
				"z": 0.9864830112,
				"element": "O" 
			},
			{
				"x": 2.0844027918,
				"y": -0.8874511475,
				"z": -1.0064133302,
				"element": "C" 
			},
			{
				"x": 1.1261988613,
				"y": -1.9656924929,
				"z": -1.0289498814,
				"element": "O" 
			},
			{
				"x": 0.3690526822,
				"y": -2.1122595524,
				"z": -2.1471261863,
				"element": "C" 
			},
			{
				"x": 0.3740197179,
				"y": -1.3185452358,
				"z": -3.0695236691,
				"element": "O" 
			},
			{
				"x": -0.4761651411,
				"y": -3.3364585777,
				"z": -2.0972780457,
				"element": "C" 
			},
			{
				"x": -1.3612742371,
				"y": -3.5622234406,
				"z": -3.161324753,
				"element": "C" 
			},
			{
				"x": -2.1721092634,
				"y": -4.6940905844,
				"z": -3.1651113458,
				"element": "C" 
			},
			{
				"x": -2.1018572223,
				"y": -5.6067277276,
				"z": -2.1087038648,
				"element": "C" 
			},
			{
				"x": -1.218408516,
				"y": -5.3867631625,
				"z": -1.0488589922,
				"element": "C" 
			},
			{
				"x": -0.404603965,
				"y": -4.2551420164,
				"z": -1.0395862253,
				"element": "C" 
			},
			{
				"x": 3.0583081123,
				"y": 4.5209642626,
				"z": 2.8799330196,
				"element": "H" 
			},
			{
				"x": 1.5038420025,
				"y": 5.2387485695,
				"z": 2.3789844577,
				"element": "H" 
			},
			{
				"x": 1.843152687,
				"y": 4.9655294926,
				"z": 4.109179019,
				"element": "H" 
			},
			{
				"x": 0.9815398487,
				"y": 3.2057548666,
				"z": 1.0492488657,
				"element": "H" 
			},
			{
				"x": 2.5701129321,
				"y": 2.5544954105,
				"z": 1.5255970559,
				"element": "H" 
			},
			{
				"x": -0.1071455099,
				"y": 1.3036348113,
				"z": 2.3483003809,
				"element": "H" 
			},
			{
				"x": 1.5145737239,
				"y": 0.6667068729,
				"z": 2.6883914712,
				"element": "H" 
			},
			{
				"x": -0.0836833385,
				"y": 0.3753902852,
				"z": -1.157728834,
				"element": "H" 
			},
			{
				"x": -0.6804657021,
				"y": 1.6325564549,
				"z": -0.0884710381,
				"element": "H" 
			},
			{
				"x": -1.0853187859,
				"y": -1.3419814075,
				"z": 0.4702533411,
				"element": "H" 
			},
			{
				"x": -2.2263600237,
				"y": -0.3438684986,
				"z": -0.4627762115,
				"element": "H" 
			},
			{
				"x": -2.6730966047,
				"y": -1.6515509423,
				"z": 2.2875933639,
				"element": "H" 
			},
			{
				"x": -3.8799996637,
				"y": -0.7406481917,
				"z": 1.3401961307,
				"element": "H" 
			},
			{
				"x": -3.4074900505,
				"y": -0.172221196,
				"z": 2.9647139694,
				"element": "H" 
			},
			{
				"x": 1.9190292352,
				"y": -0.2388131613,
				"z": -1.8706562592,
				"element": "H" 
			},
			{
				"x": 3.0801353891,
				"y": -1.3283849897,
				"z": -1.0660357248,
				"element": "H" 
			},
			{
				"x": -1.3950624952,
				"y": -2.8413311151,
				"z": -3.971115061,
				"element": "H" 
			},
			{
				"x": -2.8572047983,
				"y": -4.866963443,
				"z": -3.9896670855,
				"element": "H" 
			},
			{
				"x": -2.7337350929,
				"y": -6.4903448774,
				"z": -2.1126905188,
				"element": "H" 
			},
			{
				"x": -1.1615996254,
				"y": -6.0988311154,
				"z": -0.2309913759,
				"element": "H" 
			},
			{
				"x": 0.2880038044,
				"y": -4.0799536128,
				"z": -0.2245203226,
				"element": "H" 
			}
		],
		 "valence_orbital": [ 
			{
				"type": "occ",
				"energy": -0.26763,
				"method": "rhf"
			},
			{
				"type": "occ",
				"energy": -0.26319,
				"method": "rhf"
			},
			{
				"type": "occ",
				"energy": -0.25142,
				"method": "rhf"
			},
			{
				"type": "occ",
				"energy": -0.24673,
				"method": "rhf"
			},
			{
				"type": "occ",
				"energy": -0.23708,
				"method": "rhf"
			},
			{
				"type": "unocc",
				"energy": -0.05718,
				"method": "rhf"
			},
			{
				"type": "unocc",
				"energy": -0.01729,
				"method": "rhf"
			},
			{
				"type": "unocc",
				"energy": 0.01309,
				"method": "rhf"
			},
			{
				"type": "unocc",
				"energy": 0.04676,
				"method": "rhf"
			},
			{
				"type": "unocc",
				"energy": 0.08117,
				"method": "rhf"
			}
		],
		"cosmo_sigma_profile": { 
			"-0.025": 0.0,
			"-0.024": 0.0,
			"-0.023": 0.0,
			"-0.022": 0.0,
			"-0.021": 0.0,
			"-0.02": 0.0,
			"-0.019": 0.0,
			"-0.018": 0.0,
			"-0.017": 0.0,
			"-0.016": 0.0,
			"-0.015": 0.0,
			"-0.014": 0.0,
			"-0.013": 0.0,
			"-0.012": 0.0,
			"-0.011": 0.0,
			"-0.01": 0.0,
			"-0.009": 0.117850467244,
			"-0.008": 1.48119319982,
			"-0.007": 4.76432628991,
			"-0.006": 14.5006195542,
			"-0.005": 24.1807979765,
			"-0.004": 39.6607414205,
			"-0.003": 44.3717845786,
			"-0.002": 45.4914344133,
			"-0.001": 28.1446164322,
			"0.0": 24.1929749336,
			"0.001": 21.3814277207,
			"0.002": 19.8394751348,
			"0.003": 19.2789293575,
			"0.004": 16.6581112013,
			"0.005": 7.04974587176,
			"0.006": 6.92436536646,
			"0.007": 5.40589382251,
			"0.008": 4.31426458904,
			"0.009": 3.7436813353,
			"0.01": 6.07863966348,
			"0.011": 7.7386414674,
			"0.012": 3.97204647311,
			"0.013": 4.80773032946,
			"0.014": 2.8472080414,
			"0.015": 0.180737005843,
			"0.016": 0.0,
			"0.017": 0.0,
			"0.018": 0.0,
			"0.019": 0.0,
			"0.02": 0.0,
			"0.021": 0.0,
			"0.022": 0.0,
			"0.023": 0.0,
			"0.024": 0.0,
			"0.025": 0.0
		}
	}
}
