{
	 "smiles": "CC(=O)CC(C)(C)C", 
	 "Tm": 209.15, 
	 "num_atms": 22, 
	 "gaussian": { 
		 "optdone": 1, 
		 "sigma_profile": "yes", 
		 "theory": "DFT", 
		 "functional": "B3LYP", 
		 "basiset": "6-31G**", 
		 "properties": { 
			 "R2extent": 1382.891, 
			 "electric_dipole_moment_norm": 2.51932877767, 
			 "electric_quadrupole_moment_norm": 8.29913288181, 
			 "total_energy": -350.423462514, 
			 "HOMO_LUMO_gap": 0.22828, 
			 "cosmo_polarized_energy": -6.16, 
			 "cosmo_cavitation_energy": 23.32, 
			 "cosmo_dispersion_energy": -16.54, 
			 "cosmo_repulsion_energy": 1.37, 
			 "cosmo_total_nonelectrostatic_energy": 8.15, 
			 "SMD_solvation_energy": 4.92 
		},
		"coords": [
			{
				"x": -2.016742849,
				"y": 2.1335486756,
				"z": 1.8205950774,
				"element": "C" 
			},
			{
				"x": -1.7949103677,
				"y": 0.8861183352,
				"z": 0.9760102147,
				"element": "C" 
			},
			{
				"x": -2.54021816,
				"y": -0.0720388984,
				"z": 1.0739261581,
				"element": "O" 
			},
			{
				"x": -0.5974821578,
				"y": 0.940137629,
				"z": 0.031133972,
				"element": "C" 
			},
			{
				"x": -0.2556289529,
				"y": -0.3089218227,
				"z": -0.8157290622,
				"element": "C" 
			},
			{
				"x": -1.415680816,
				"y": -0.6544567789,
				"z": -1.7708166872,
				"element": "C" 
			},
			{
				"x": 0.9972434041,
				"y": 0.0268602878,
				"z": -1.6503949626,
				"element": "C" 
			},
			{
				"x": 0.0563513397,
				"y": -1.5137395205,
				"z": 0.0942811132,
				"element": "C" 
			},
			{
				"x": -1.1678688271,
				"y": 2.2894823208,
				"z": 2.4967872179,
				"element": "H" 
			},
			{
				"x": -2.930041707,
				"y": 2.0209132491,
				"z": 2.4063479571,
				"element": "H" 
			},
			{
				"x": -2.0887438213,
				"y": 3.0263586468,
				"z": 1.1892916592,
				"element": "H" 
			},
			{
				"x": 0.2748162532,
				"y": 1.2250761831,
				"z": 0.6388393557,
				"element": "H" 
			},
			{
				"x": -0.7627246603,
				"y": 1.8018636986,
				"z": -0.6339820406,
				"element": "H" 
			},
			{
				"x": -1.6458184787,
				"y": 0.1901731128,
				"z": -2.431808516,
				"element": "H" 
			},
			{
				"x": -2.3187757206,
				"y": -0.9131581052,
				"z": -1.2151417427,
				"element": "H" 
			},
			{
				"x": -1.1449205662,
				"y": -1.5052741354,
				"z": -2.4062274721,
				"element": "H" 
			},
			{
				"x": 1.8521600736,
				"y": 0.2734192032,
				"z": -1.0096328205,
				"element": "H" 
			},
			{
				"x": 0.8192157056,
				"y": 0.8804286131,
				"z": -2.3152084814,
				"element": "H" 
			},
			{
				"x": 1.2844465481,
				"y": -0.8264995855,
				"z": -2.2745257473,
				"element": "H" 
			},
			{
				"x": 0.3547089902,
				"y": -2.3789531734,
				"z": -0.5083911744,
				"element": "H" 
			},
			{
				"x": -0.8151188221,
				"y": -1.7942096981,
				"z": 0.6889883593,
				"element": "H" 
			},
			{
				"x": 0.8839335921,
				"y": -1.2873282371,
				"z": 0.7777576226,
				"element": "H" 
			}
		],
		 "valence_orbital": [ 
			{
				"type": "occ",
				"energy": -0.34342,
				"method": "rhf"
			},
			{
				"type": "occ",
				"energy": -0.32391,
				"method": "rhf"
			},
			{
				"type": "occ",
				"energy": -0.31865,
				"method": "rhf"
			},
			{
				"type": "occ",
				"energy": -0.31733,
				"method": "rhf"
			},
			{
				"type": "occ",
				"energy": -0.24138,
				"method": "rhf"
			},
			{
				"type": "unocc",
				"energy": -0.0131,
				"method": "rhf"
			},
			{
				"type": "unocc",
				"energy": 0.07157,
				"method": "rhf"
			},
			{
				"type": "unocc",
				"energy": 0.10862,
				"method": "rhf"
			},
			{
				"type": "unocc",
				"energy": 0.13223,
				"method": "rhf"
			},
			{
				"type": "unocc",
				"energy": 0.13307,
				"method": "rhf"
			}
		],
		"cosmo_sigma_profile": { 
			"-0.025": 0.0,
			"-0.024": 0.0,
			"-0.023": 0.0,
			"-0.022": 0.0,
			"-0.021": 0.0,
			"-0.02": 0.0,
			"-0.019": 0.0,
			"-0.018": 0.0,
			"-0.017": 0.0,
			"-0.016": 0.0,
			"-0.015": 0.0,
			"-0.014": 0.0,
			"-0.013": 0.0,
			"-0.012": 0.0,
			"-0.011": 0.0,
			"-0.01": 0.0,
			"-0.009": 0.0,
			"-0.008": 0.0,
			"-0.007": 0.116794982174,
			"-0.006": 5.46773574524,
			"-0.005": 9.82215379623,
			"-0.004": 9.97366215968,
			"-0.003": 16.5367401664,
			"-0.002": 27.8463558547,
			"-0.001": 21.8875187688,
			"0.0": 22.9770164665,
			"0.001": 19.9388827032,
			"0.002": 19.8576847774,
			"0.003": 5.22593687811,
			"0.004": 1.99536202053,
			"0.005": 2.06116173709,
			"0.006": 2.05160681151,
			"0.007": 2.06712812439,
			"0.008": 1.64866592289,
			"0.009": 1.65328820926,
			"0.01": 1.53797515407,
			"0.011": 2.25751735561,
			"0.012": 2.90718438484,
			"0.013": 1.7769996982,
			"0.014": 0.248564769249,
			"0.015": 0.0,
			"0.016": 0.0,
			"0.017": 0.0,
			"0.018": 0.0,
			"0.019": 0.0,
			"0.02": 0.0,
			"0.021": 0.0,
			"0.022": 0.0,
			"0.023": 0.0,
			"0.024": 0.0,
			"0.025": 0.0
		}
	}
}
