{
	 "smiles": "CCN(CC)C1=CC2=C(C=C1)C=C(C1=NC3=C(S1)C=CC=C3)C(=O)O2", 
	 "Tm": 479.15, 
	 "num_atms": 43, 
	 "gaussian": { 
		 "optdone": 1, 
		 "sigma_profile": "yes", 
		 "theory": "DFT", 
		 "functional": "B3LYP", 
		 "basiset": "6-31G**", 
		 "properties": { 
			 "R2extent": 15825.4474, 
			 "electric_dipole_moment_norm": 7.88845900668, 
			 "electric_quadrupole_moment_norm": 25.0784545527, 
			 "total_energy": -1431.14695928, 
			 "HOMO_LUMO_gap": 0.12242, 
			 "cosmo_polarized_energy": -16.97, 
			 "cosmo_cavitation_energy": 47.55, 
			 "cosmo_dispersion_energy": -35.02, 
			 "cosmo_repulsion_energy": 2.55, 
			 "cosmo_total_nonelectrostatic_energy": 15.08, 
			 "SMD_solvation_energy": 6.78 
		},
		"coords": [
			{
				"x": 0.1172117659,
				"y": 0.2488376111,
				"z": -5.3002633898,
				"element": "C" 
			},
			{
				"x": 0.9776689574,
				"y": -0.8923847965,
				"z": -4.7436958468,
				"element": "C" 
			},
			{
				"x": 0.2358657703,
				"y": -1.8412718884,
				"z": -3.9117499106,
				"element": "N" 
			},
			{
				"x": -0.3222582299,
				"y": -3.0059852324,
				"z": -4.6001003692,
				"element": "C" 
			},
			{
				"x": 0.6043853382,
				"y": -4.2281782509,
				"z": -4.6013535065,
				"element": "C" 
			},
			{
				"x": 0.0676204388,
				"y": -1.6407459669,
				"z": -2.5607871101,
				"element": "C" 
			},
			{
				"x": 0.5071315564,
				"y": -0.4511917583,
				"z": -1.9353112658,
				"element": "C" 
			},
			{
				"x": 0.3316998199,
				"y": -0.2751742312,
				"z": -0.5710406709,
				"element": "C" 
			},
			{
				"x": -0.2849958003,
				"y": -1.2442399113,
				"z": 0.2485427847,
				"element": "C" 
			},
			{
				"x": -0.7223166972,
				"y": -2.4278254692,
				"z": -0.3848109457,
				"element": "C" 
			},
			{
				"x": -0.5552308522,
				"y": -2.6295645857,
				"z": -1.7378252891,
				"element": "C" 
			},
			{
				"x": -0.4192469832,
				"y": -0.9621902644,
				"z": 1.6332112947,
				"element": "C" 
			},
			{
				"x": 0.0296838895,
				"y": 0.2167058745,
				"z": 2.1745176898,
				"element": "C" 
			},
			{
				"x": -0.1224348176,
				"y": 0.4798467803,
				"z": 3.6048567916,
				"element": "C" 
			},
			{
				"x": -0.681388213,
				"y": -0.3809311163,
				"z": 4.4116827961,
				"element": "N" 
			},
			{
				"x": -0.7118040894,
				"y": 0.0864853971,
				"z": 5.7081710568,
				"element": "C" 
			},
			{
				"x": -0.145755798,
				"y": 1.3715893746,
				"z": 5.8985233461,
				"element": "C" 
			},
			{
				"x": 0.4383409039,
				"y": 1.9891540303,
				"z": 4.3681045219,
				"element": "S" 
			},
			{
				"x": -0.1097612343,
				"y": 1.9673719996,
				"z": 7.1629764464,
				"element": "C" 
			},
			{
				"x": -0.6462589945,
				"y": 1.2647641696,
				"z": 8.2383365123,
				"element": "C" 
			},
			{
				"x": -1.2109030419,
				"y": -0.0121864671,
				"z": 8.0604182853,
				"element": "C" 
			},
			{
				"x": -1.2483876656,
				"y": -0.6068314257,
				"z": 6.8064133139,
				"element": "C" 
			},
			{
				"x": 0.6626696245,
				"y": 1.2140547071,
				"z": 1.3146394157,
				"element": "C" 
			},
			{
				"x": 1.0983780419,
				"y": 2.2907304068,
				"z": 1.6648003237,
				"element": "O" 
			},
			{
				"x": 0.7769359619,
				"y": 0.8979282246,
				"z": -0.0362562685,
				"element": "O" 
			},
			{
				"x": 0.7234906161,
				"y": 0.9126270264,
				"z": -5.9254487779,
				"element": "H" 
			},
			{
				"x": -0.700356451,
				"y": -0.1412276748,
				"z": -5.915045341,
				"element": "H" 
			},
			{
				"x": -0.3228694626,
				"y": 0.8439585951,
				"z": -4.4954171731,
				"element": "H" 
			},
			{
				"x": 1.8216383498,
				"y": -0.4951708254,
				"z": -4.1718176622,
				"element": "H" 
			},
			{
				"x": 1.4183042967,
				"y": -1.459585177,
				"z": -5.5705469499,
				"element": "H" 
			},
			{
				"x": -0.5340054383,
				"y": -2.7033027266,
				"z": -5.6311541602,
				"element": "H" 
			},
			{
				"x": -1.2920117451,
				"y": -3.25765117,
				"z": -4.1606325341,
				"element": "H" 
			},
			{
				"x": 1.5590902767,
				"y": -3.9948286192,
				"z": -5.0833974538,
				"element": "H" 
			},
			{
				"x": 0.8179006785,
				"y": -4.5655562041,
				"z": -3.5831795198,
				"element": "H" 
			},
			{
				"x": 0.1427764545,
				"y": -5.0568415821,
				"z": -5.1487122255,
				"element": "H" 
			},
			{
				"x": 0.9687026225,
				"y": 0.3558404715,
				"z": -2.4871426248,
				"element": "H" 
			},
			{
				"x": -1.1948463373,
				"y": -3.1987804761,
				"z": 0.2176005424,
				"element": "H" 
			},
			{
				"x": -0.8892636989,
				"y": -3.5644506739,
				"z": -2.1677215178,
				"element": "H" 
			},
			{
				"x": -0.8870553091,
				"y": -1.686043764,
				"z": 2.2944988735,
				"element": "H" 
			},
			{
				"x": 0.3246178238,
				"y": 2.952071495,
				"z": 7.3053563022,
				"element": "H" 
			},
			{
				"x": -0.6282258342,
				"y": 1.7097711495,
				"z": 9.2288861191,
				"element": "H" 
			},
			{
				"x": -1.6222513922,
				"y": -0.5375935436,
				"z": 8.917323233,
				"element": "H" 
			},
			{
				"x": -1.6803851014,
				"y": -1.590603512,
				"z": 6.653850864,
				"element": "H" 
			}
		],
		 "valence_orbital": [ 
			{
				"type": "occ",
				"energy": -0.26505,
				"method": "rhf"
			},
			{
				"type": "occ",
				"energy": -0.24812,
				"method": "rhf"
			},
			{
				"type": "occ",
				"energy": -0.23075,
				"method": "rhf"
			},
			{
				"type": "occ",
				"energy": -0.22107,
				"method": "rhf"
			},
			{
				"type": "occ",
				"energy": -0.19495,
				"method": "rhf"
			},
			{
				"type": "unocc",
				"energy": -0.07253,
				"method": "rhf"
			},
			{
				"type": "unocc",
				"energy": -0.01892,
				"method": "rhf"
			},
			{
				"type": "unocc",
				"energy": -0.0041,
				"method": "rhf"
			},
			{
				"type": "unocc",
				"energy": 0.00716,
				"method": "rhf"
			},
			{
				"type": "unocc",
				"energy": 0.01511,
				"method": "rhf"
			}
		],
		"cosmo_sigma_profile": { 
			"-0.025": 0.0,
			"-0.024": 0.0,
			"-0.023": 0.0,
			"-0.022": 0.0,
			"-0.021": 0.0,
			"-0.02": 0.0,
			"-0.019": 0.0,
			"-0.018": 0.0,
			"-0.017": 0.0,
			"-0.016": 0.0,
			"-0.015": 0.0,
			"-0.014": 0.0,
			"-0.013": 0.0,
			"-0.012": 0.0,
			"-0.011": 0.0,
			"-0.01": 0.0,
			"-0.009": 0.0209235938031,
			"-0.008": 1.6544523409,
			"-0.007": 8.95055421984,
			"-0.006": 16.7055508221,
			"-0.005": 25.6141906259,
			"-0.004": 33.0672073942,
			"-0.003": 37.149398908,
			"-0.002": 31.4285486135,
			"-0.001": 30.5479283068,
			"0.0": 34.4412205108,
			"0.001": 35.7825730026,
			"0.002": 29.4762211118,
			"0.003": 27.1494580888,
			"0.004": 20.2861782707,
			"0.005": 16.2765444138,
			"0.006": 5.9236732387,
			"0.007": 4.62659354892,
			"0.008": 4.03069259692,
			"0.009": 4.0314145584,
			"0.01": 4.70780472365,
			"0.011": 4.85109661571,
			"0.012": 3.71943533824,
			"0.013": 1.42485884943,
			"0.014": 0.00464509725604,
			"0.015": 0.0,
			"0.016": 0.0,
			"0.017": 0.0,
			"0.018": 0.0,
			"0.019": 0.0,
			"0.02": 0.0,
			"0.021": 0.0,
			"0.022": 0.0,
			"0.023": 0.0,
			"0.024": 0.0,
			"0.025": 0.0
		}
	}
}
