{
	 "smiles": "FC1=CC=C(C=C1)C1=CSC(=O)N1", 
	 "Tm": 453.15, 
	 "num_atms": 19, 
	 "gaussian": { 
		 "optdone": 1, 
		 "sigma_profile": "yes", 
		 "theory": "DFT", 
		 "functional": "B3LYP", 
		 "basiset": "6-31G**", 
		 "properties": { 
			 "R2extent": 3892.4704, 
			 "electric_dipole_moment_norm": 3.55211117084, 
			 "electric_quadrupole_moment_norm": 21.4736776594, 
			 "total_energy": -974.578403037, 
			 "HOMO_LUMO_gap": 0.17057, 
			 "cosmo_polarized_energy": -12.28, 
			 "cosmo_cavitation_energy": 26.15, 
			 "cosmo_dispersion_energy": -19.72, 
			 "cosmo_repulsion_energy": 1.47, 
			 "cosmo_total_nonelectrostatic_energy": 7.9, 
			 "SMD_solvation_energy": 5.69 
		},
		"coords": [
			{
				"x": 2.5289270633,
				"y": -2.4540300682,
				"z": -2.2730469439,
				"element": "F" 
			},
			{
				"x": 1.7014012106,
				"y": -1.5247881343,
				"z": -1.7576073138,
				"element": "C" 
			},
			{
				"x": 0.4766956664,
				"y": -1.9264233297,
				"z": -1.2329011109,
				"element": "C" 
			},
			{
				"x": -0.3694027526,
				"y": -0.9638547386,
				"z": -0.6909417553,
				"element": "C" 
			},
			{
				"x": -0.0100031271,
				"y": 0.3955445522,
				"z": -0.683141816,
				"element": "C" 
			},
			{
				"x": 1.2347112701,
				"y": 0.7634746361,
				"z": -1.2239885129,
				"element": "C" 
			},
			{
				"x": 2.0959847652,
				"y": -0.1919143508,
				"z": -1.7593894865,
				"element": "C" 
			},
			{
				"x": -0.9256008028,
				"y": 1.4033547703,
				"z": -0.1287417677,
				"element": "C" 
			},
			{
				"x": -2.2800476193,
				"y": 1.3870406219,
				"z": -0.1365524227,
				"element": "C" 
			},
			{
				"x": -2.975424694,
				"y": 2.8161196495,
				"z": 0.6084465023,
				"element": "S" 
			},
			{
				"x": -1.3207402881,
				"y": 3.4792789023,
				"z": 0.9682109463,
				"element": "C" 
			},
			{
				"x": -1.0659084683,
				"y": 4.5119953208,
				"z": 1.5454880986,
				"element": "O" 
			},
			{
				"x": -0.4159354564,
				"y": 2.5630058244,
				"z": 0.4638818758,
				"element": "N" 
			},
			{
				"x": 0.2103249988,
				"y": -2.9776733001,
				"z": -1.2384616286,
				"element": "H" 
			},
			{
				"x": -1.3115938003,
				"y": -1.269126961,
				"z": -0.2472588123,
				"element": "H" 
			},
			{
				"x": 1.5247600161,
				"y": 1.8094903216,
				"z": -1.258739936,
				"element": "H" 
			},
			{
				"x": 3.0551926947,
				"y": 0.0834629534,
				"z": -2.1837662839,
				"element": "H" 
			},
			{
				"x": -2.9082535649,
				"y": 0.6378892712,
				"z": -0.5944600008,
				"element": "H" 
			},
			{
				"x": 0.5636128886,
				"y": 2.695154059,
				"z": 0.6732703682,
				"element": "H" 
			}
		],
		 "valence_orbital": [ 
			{
				"type": "occ",
				"energy": -0.30214,
				"method": "rhf"
			},
			{
				"type": "occ",
				"energy": -0.27991,
				"method": "rhf"
			},
			{
				"type": "occ",
				"energy": -0.27372,
				"method": "rhf"
			},
			{
				"type": "occ",
				"energy": -0.2681,
				"method": "rhf"
			},
			{
				"type": "occ",
				"energy": -0.21229,
				"method": "rhf"
			},
			{
				"type": "unocc",
				"energy": -0.04172,
				"method": "rhf"
			},
			{
				"type": "unocc",
				"energy": -0.03093,
				"method": "rhf"
			},
			{
				"type": "unocc",
				"energy": 0.00995,
				"method": "rhf"
			},
			{
				"type": "unocc",
				"energy": 0.01513,
				"method": "rhf"
			},
			{
				"type": "unocc",
				"energy": 0.04654,
				"method": "rhf"
			}
		],
		"cosmo_sigma_profile": { 
			"-0.025": 0.0,
			"-0.024": 0.0,
			"-0.023": 0.0,
			"-0.022": 0.0,
			"-0.021": 0.0,
			"-0.02": 0.0,
			"-0.019": 0.0,
			"-0.018": 0.0,
			"-0.017": 0.0862232289416,
			"-0.016": 0.864786710768,
			"-0.015": 0.688018260099,
			"-0.014": 1.40640695916,
			"-0.013": 1.33405154231,
			"-0.012": 0.900419127968,
			"-0.011": 1.05383326607,
			"-0.01": 1.76963065686,
			"-0.009": 2.51663417543,
			"-0.008": 5.62781924877,
			"-0.007": 9.25617832416,
			"-0.006": 10.2937807271,
			"-0.005": 9.83285271636,
			"-0.004": 8.42104480733,
			"-0.003": 7.8433684275,
			"-0.002": 8.89894256603,
			"-0.001": 12.4951770517,
			"0.0": 21.0363839773,
			"0.001": 21.6357532347,
			"0.002": 21.1778129997,
			"0.003": 24.6191127244,
			"0.004": 17.2789675071,
			"0.005": 5.14948911981,
			"0.006": 1.64603932186,
			"0.007": 1.69879006644,
			"0.008": 1.33009436963,
			"0.009": 1.26169803559,
			"0.01": 1.27474674406,
			"0.011": 3.05390341964,
			"0.012": 6.96752148126,
			"0.013": 1.75521431899,
			"0.014": 0.0,
			"0.015": 0.0,
			"0.016": 0.0,
			"0.017": 0.0,
			"0.018": 0.0,
			"0.019": 0.0,
			"0.02": 0.0,
			"0.021": 0.0,
			"0.022": 0.0,
			"0.023": 0.0,
			"0.024": 0.0,
			"0.025": 0.0
		}
	}
}
