{
	 "smiles": "CC1(CCCN1C(=O)C1=CC=CC=C1)C(O)=O", 
	 "Tm": 479.15, 
	 "num_atms": 32, 
	 "gaussian": { 
		 "optdone": 1, 
		 "sigma_profile": "yes", 
		 "theory": "DFT", 
		 "functional": "B3LYP", 
		 "basiset": "6-31G**", 
		 "properties": { 
			 "R2extent": 4331.3529, 
			 "electric_dipole_moment_norm": 6.78333630745, 
			 "electric_quadrupole_moment_norm": 18.9251190136, 
			 "total_energy": -784.882408778, 
			 "HOMO_LUMO_gap": 0.20113, 
			 "cosmo_polarized_energy": -15.33, 
			 "cosmo_cavitation_energy": 33.37, 
			 "cosmo_dispersion_energy": -24.05, 
			 "cosmo_repulsion_energy": 1.84, 
			 "cosmo_total_nonelectrostatic_energy": 11.17, 
			 "SMD_solvation_energy": 6.41 
		},
		"coords": [
			{
				"x": -0.1791593614,
				"y": 2.702127172,
				"z": -0.4145051355,
				"element": "C" 
			},
			{
				"x": 0.0491693839,
				"y": 1.5122569598,
				"z": -1.3715793645,
				"element": "C" 
			},
			{
				"x": 1.4137806735,
				"y": 1.6339611866,
				"z": -2.083396031,
				"element": "C" 
			},
			{
				"x": 2.3916629848,
				"y": 0.879901076,
				"z": -1.1793053706,
				"element": "C" 
			},
			{
				"x": 1.5654127623,
				"y": -0.3277589271,
				"z": -0.7387593959,
				"element": "C" 
			},
			{
				"x": 0.192854165,
				"y": 0.2140229993,
				"z": -0.6123508054,
				"element": "N" 
			},
			{
				"x": -0.7518959112,
				"y": -0.251854188,
				"z": 0.2440659644,
				"element": "C" 
			},
			{
				"x": -1.8449588096,
				"y": 0.3298319565,
				"z": 0.4064857893,
				"element": "O" 
			},
			{
				"x": -0.4944317304,
				"y": -1.4978514133,
				"z": 1.0427321356,
				"element": "C" 
			},
			{
				"x": -0.0030180192,
				"y": -2.6841249498,
				"z": 0.4807770458,
				"element": "C" 
			},
			{
				"x": 0.1219586903,
				"y": -3.8330271539,
				"z": 1.2629508331,
				"element": "C" 
			},
			{
				"x": -0.22977842,
				"y": -3.8035462169,
				"z": 2.6130752394,
				"element": "C" 
			},
			{
				"x": -0.7310596505,
				"y": -2.6268739143,
				"z": 3.175821315,
				"element": "C" 
			},
			{
				"x": -0.8797711282,
				"y": -1.4855434773,
				"z": 2.3916066491,
				"element": "C" 
			},
			{
				"x": -1.0992359381,
				"y": 1.4696232702,
				"z": -2.4278651257,
				"element": "C" 
			},
			{
				"x": -2.3278094296,
				"y": 1.2495343961,
				"z": -1.9655177828,
				"element": "O" 
			},
			{
				"x": -0.8833702467,
				"y": 1.689636711,
				"z": -3.5999067883,
				"element": "O" 
			},
			{
				"x": -1.0707343092,
				"y": 2.5716858766,
				"z": 0.1974757561,
				"element": "H" 
			},
			{
				"x": 0.6830378965,
				"y": 2.8206452131,
				"z": 0.2491887087,
				"element": "H" 
			},
			{
				"x": -0.28725085,
				"y": 3.6186453584,
				"z": -1.0023186827,
				"element": "H" 
			},
			{
				"x": 1.6822063786,
				"y": 2.6807903136,
				"z": -2.2406269493,
				"element": "H" 
			},
			{
				"x": 1.3463128206,
				"y": 1.1651752522,
				"z": -3.0678923951,
				"element": "H" 
			},
			{
				"x": 2.6755513265,
				"y": 1.4821644254,
				"z": -0.3092234465,
				"element": "H" 
			},
			{
				"x": 3.3087542888,
				"y": 0.5832080729,
				"z": -1.6948843524,
				"element": "H" 
			},
			{
				"x": 1.8915767842,
				"y": -0.765643931,
				"z": 0.2054408902,
				"element": "H" 
			},
			{
				"x": 1.5967907749,
				"y": -1.1096925696,
				"z": -1.5076958261,
				"element": "H" 
			},
			{
				"x": 0.254082779,
				"y": -2.7245330406,
				"z": -0.5725482752,
				"element": "H" 
			},
			{
				"x": 0.489299427,
				"y": -4.7513411682,
				"z": 0.8145577923,
				"element": "H" 
			},
			{
				"x": -0.1241029864,
				"y": -4.6965191565,
				"z": 3.2221796601,
				"element": "H" 
			},
			{
				"x": -1.0173913667,
				"y": -2.6026414295,
				"z": 4.2230635673,
				"element": "H" 
			},
			{
				"x": -1.3010375518,
				"y": -0.5771047408,
				"z": 2.8087739173,
				"element": "H" 
			},
			{
				"x": -2.2927454269,
				"y": 0.9983460373,
				"z": -1.0009195366,
				"element": "H" 
			}
		],
		 "valence_orbital": [ 
			{
				"type": "occ",
				"energy": -0.28569,
				"method": "rhf"
			},
			{
				"type": "occ",
				"energy": -0.27519,
				"method": "rhf"
			},
			{
				"type": "occ",
				"energy": -0.2684,
				"method": "rhf"
			},
			{
				"type": "occ",
				"energy": -0.25988,
				"method": "rhf"
			},
			{
				"type": "occ",
				"energy": -0.24602,
				"method": "rhf"
			},
			{
				"type": "unocc",
				"energy": -0.04489,
				"method": "rhf"
			},
			{
				"type": "unocc",
				"energy": -0.01842,
				"method": "rhf"
			},
			{
				"type": "unocc",
				"energy": 0.02016,
				"method": "rhf"
			},
			{
				"type": "unocc",
				"energy": 0.02213,
				"method": "rhf"
			},
			{
				"type": "unocc",
				"energy": 0.06912,
				"method": "rhf"
			}
		],
		"cosmo_sigma_profile": { 
			"-0.025": 0.0,
			"-0.024": 0.0,
			"-0.023": 0.0,
			"-0.022": 0.0,
			"-0.021": 0.0,
			"-0.02": 0.0,
			"-0.019": 0.0,
			"-0.018": 0.0,
			"-0.017": 0.0,
			"-0.016": 0.0,
			"-0.015": 0.0,
			"-0.014": 0.0,
			"-0.013": 0.0,
			"-0.012": 0.0,
			"-0.011": 0.0,
			"-0.01": 0.0,
			"-0.009": 0.0,
			"-0.008": 0.394289416492,
			"-0.007": 3.69934424759,
			"-0.006": 12.1594053523,
			"-0.005": 26.8778426343,
			"-0.004": 33.7097088286,
			"-0.003": 32.3340338867,
			"-0.002": 24.9256340768,
			"-0.001": 21.5098256326,
			"0.0": 15.4944216764,
			"0.001": 10.3755712421,
			"0.002": 11.893070111,
			"0.003": 11.0646824427,
			"0.004": 13.9094376675,
			"0.005": 6.7805881744,
			"0.006": 3.6156191311,
			"0.007": 4.53600280138,
			"0.008": 4.34207665827,
			"0.009": 3.52934937775,
			"0.01": 5.40492131998,
			"0.011": 5.93657162814,
			"0.012": 7.86922419113,
			"0.013": 3.21035325649,
			"0.014": 0.413090339298,
			"0.015": 0.0,
			"0.016": 0.0,
			"0.017": 0.0,
			"0.018": 0.0,
			"0.019": 0.0,
			"0.02": 0.0,
			"0.021": 0.0,
			"0.022": 0.0,
			"0.023": 0.0,
			"0.024": 0.0,
			"0.025": 0.0
		}
	}
}
