{
	 "smiles": "O=C1NC(CN2CCNCC2)=NC2=C1C=CC=C2", 
	 "Tm": 441.15, 
	 "num_atms": 34, 
	 "gaussian": { 
		 "optdone": 1, 
		 "sigma_profile": "yes", 
		 "theory": "DFT", 
		 "functional": "B3LYP", 
		 "basiset": "6-31G**", 
		 "properties": { 
			 "R2extent": 4886.0055, 
			 "electric_dipole_moment_norm": 1.30673869997, 
			 "electric_quadrupole_moment_norm": 15.7955428637, 
			 "total_energy": -799.267397453, 
			 "HOMO_LUMO_gap": 0.16078, 
			 "cosmo_polarized_energy": -16.28, 
			 "cosmo_cavitation_energy": 35.49, 
			 "cosmo_dispersion_energy": -25.28, 
			 "cosmo_repulsion_energy": 1.93, 
			 "cosmo_total_nonelectrostatic_energy": 12.14, 
			 "SMD_solvation_energy": 0.85 
		},
		"coords": [
			{
				"x": 0.7869103807,
				"y": 0.3175765121,
				"z": -3.2135321913,
				"element": "O" 
			},
			{
				"x": 0.6523134495,
				"y": 0.5324930842,
				"z": -2.0167196188,
				"element": "C" 
			},
			{
				"x": 1.7072371257,
				"y": 0.2943541701,
				"z": -1.1220520792,
				"element": "N" 
			},
			{
				"x": 1.6511395722,
				"y": 0.5032359636,
				"z": 0.23900377,
				"element": "C" 
			},
			{
				"x": 2.8908904928,
				"y": 0.1416790028,
				"z": 1.0533357133,
				"element": "C" 
			},
			{
				"x": 3.0028290836,
				"y": -1.2076264475,
				"z": 1.5790608784,
				"element": "N" 
			},
			{
				"x": 3.3368985588,
				"y": -2.3028293954,
				"z": 0.6708017447,
				"element": "C" 
			},
			{
				"x": 2.112958059,
				"y": -3.0786407637,
				"z": 0.1581537092,
				"element": "C" 
			},
			{
				"x": 1.3428259814,
				"y": -3.5336218094,
				"z": 1.316941538,
				"element": "N" 
			},
			{
				"x": 0.8610420301,
				"y": -2.4008459132,
				"z": 2.1142281453,
				"element": "C" 
			},
			{
				"x": 2.074362315,
				"y": -1.6163011115,
				"z": 2.6354759429,
				"element": "C" 
			},
			{
				"x": 0.5993554455,
				"y": 0.9675467291,
				"z": 0.8382743762,
				"element": "N" 
			},
			{
				"x": -0.5184767498,
				"y": 1.2446707607,
				"z": 0.0587893538,
				"element": "C" 
			},
			{
				"x": -0.5450885787,
				"y": 1.0460159304,
				"z": -1.3436785345,
				"element": "C" 
			},
			{
				"x": -1.699020651,
				"y": 1.3428529725,
				"z": -2.0855867143,
				"element": "C" 
			},
			{
				"x": -2.8261316482,
				"y": 1.8340960106,
				"z": -1.4449034751,
				"element": "C" 
			},
			{
				"x": -2.8079582372,
				"y": 2.0346395431,
				"z": -0.0525399012,
				"element": "C" 
			},
			{
				"x": -1.673703795,
				"y": 1.7460329926,
				"z": 0.6910151869,
				"element": "C" 
			},
			{
				"x": 2.5581710712,
				"y": -0.0522675163,
				"z": -1.5489189793,
				"element": "H" 
			},
			{
				"x": 3.783966531,
				"y": 0.34195197,
				"z": 0.4456395076,
				"element": "H" 
			},
			{
				"x": 2.9039704375,
				"y": 0.8386007739,
				"z": 1.8969301946,
				"element": "H" 
			},
			{
				"x": 3.9281823949,
				"y": -1.9116901877,
				"z": -0.1654880605,
				"element": "H" 
			},
			{
				"x": 3.9719434811,
				"y": -3.0141849528,
				"z": 1.2181592129,
				"element": "H" 
			},
			{
				"x": 1.5249983541,
				"y": -2.4384604505,
				"z": -0.5259909275,
				"element": "H" 
			},
			{
				"x": 2.4472508638,
				"y": -3.9523412213,
				"z": -0.4135111775,
				"element": "H" 
			},
			{
				"x": 0.5585745731,
				"y": -4.1020796996,
				"z": 1.0111126881,
				"element": "H" 
			},
			{
				"x": 0.2031220033,
				"y": -1.7207385,
				"z": 1.5453802897,
				"element": "H" 
			},
			{
				"x": 0.2857162342,
				"y": -2.7866724915,
				"z": 2.9638491888,
				"element": "H" 
			},
			{
				"x": 1.7444251865,
				"y": -0.7280664763,
				"z": 3.181365692,
				"element": "H" 
			},
			{
				"x": 2.6221507923,
				"y": -2.2660368815,
				"z": 3.3331555278,
				"element": "H" 
			},
			{
				"x": -1.6764369404,
				"y": 1.1777791021,
				"z": -3.1578488947,
				"element": "H" 
			},
			{
				"x": -3.721162064,
				"y": 2.0649233765,
				"z": -2.0144307107,
				"element": "H" 
			},
			{
				"x": -3.6927175614,
				"y": 2.4205580691,
				"z": 0.4460592905,
				"element": "H" 
			},
			{
				"x": -1.6431381915,
				"y": 1.8960968546,
				"z": 1.7651693138,
				"element": "H" 
			}
		],
		 "valence_orbital": [ 
			{
				"type": "occ",
				"energy": -0.26454,
				"method": "rhf"
			},
			{
				"type": "occ",
				"energy": -0.26086,
				"method": "rhf"
			},
			{
				"type": "occ",
				"energy": -0.23098,
				"method": "rhf"
			},
			{
				"type": "occ",
				"energy": -0.22807,
				"method": "rhf"
			},
			{
				"type": "occ",
				"energy": -0.2022,
				"method": "rhf"
			},
			{
				"type": "unocc",
				"energy": -0.04142,
				"method": "rhf"
			},
			{
				"type": "unocc",
				"energy": -0.03785,
				"method": "rhf"
			},
			{
				"type": "unocc",
				"energy": 0.02556,
				"method": "rhf"
			},
			{
				"type": "unocc",
				"energy": 0.05615,
				"method": "rhf"
			},
			{
				"type": "unocc",
				"energy": 0.0733,
				"method": "rhf"
			}
		],
		"cosmo_sigma_profile": { 
			"-0.025": 0.0,
			"-0.024": 0.0,
			"-0.023": 0.0,
			"-0.022": 0.0,
			"-0.021": 0.0,
			"-0.02": 0.0,
			"-0.019": 0.0,
			"-0.018": 0.0,
			"-0.017": 0.0,
			"-0.016": 0.0553667203011,
			"-0.015": 0.557266895193,
			"-0.014": 1.07141518415,
			"-0.013": 1.4881463267,
			"-0.012": 1.67759043728,
			"-0.011": 1.95570311025,
			"-0.01": 2.21156662475,
			"-0.009": 3.1744079471,
			"-0.008": 2.68323401448,
			"-0.007": 4.77488930608,
			"-0.006": 11.4393697692,
			"-0.005": 14.3067072753,
			"-0.004": 21.1020250653,
			"-0.003": 25.5914241621,
			"-0.002": 31.352100567,
			"-0.001": 27.2845629211,
			"0.0": 21.6333925336,
			"0.001": 16.132986003,
			"0.002": 16.3929836129,
			"0.003": 17.3915160025,
			"0.004": 13.5609257637,
			"0.005": 5.15686176936,
			"0.006": 4.48581861602,
			"0.007": 4.44345702311,
			"0.008": 3.12940722548,
			"0.009": 3.27396334307,
			"0.01": 4.2965573722,
			"0.011": 3.20571389872,
			"0.012": 4.76068313406,
			"0.013": 7.25154093403,
			"0.014": 1.76628634431,
			"0.015": 0.366226986098,
			"0.016": 0.693079481177,
			"0.017": 0.350117257419,
			"0.018": 0.397513587393,
			"0.019": 0.0758597606074,
			"0.02": 0.0,
			"0.021": 0.0,
			"0.022": 0.0,
			"0.023": 0.0,
			"0.024": 0.0,
			"0.025": 0.0
		}
	}
}
