{
	 "smiles": "NS(=O)(=O)CC1=NOC2=C1C=CC=C2", 
	 "Tm": 435.15, 
	 "num_atms": 22, 
	 "gaussian": { 
		 "optdone": 1, 
		 "sigma_profile": "yes", 
		 "theory": "DFT", 
		 "functional": "B3LYP", 
		 "basiset": "6-31G**", 
		 "properties": { 
			 "R2extent": 3499.2656, 
			 "electric_dipole_moment_norm": 3.1444896454, 
			 "electric_quadrupole_moment_norm": 24.1991147239, 
			 "total_energy": -1042.92493052, 
			 "HOMO_LUMO_gap": 0.19771, 
			 "cosmo_polarized_energy": -18.4, 
			 "cosmo_cavitation_energy": 27.91, 
			 "cosmo_dispersion_energy": -21.06, 
			 "cosmo_repulsion_energy": 1.6, 
			 "cosmo_total_nonelectrostatic_energy": 8.45, 
			 "SMD_solvation_energy": 4.1 
		},
		"coords": [
			{
				"x": 3.4209445352,
				"y": -2.9794410628,
				"z": 0.1809383709,
				"element": "N" 
			},
			{
				"x": 1.881502403,
				"y": -2.4630046359,
				"z": -0.3011553368,
				"element": "S" 
			},
			{
				"x": 0.9118298873,
				"y": -3.2906660706,
				"z": 0.4263910977,
				"element": "O" 
			},
			{
				"x": 1.8576822647,
				"y": -2.3420895817,
				"z": -1.7588440131,
				"element": "O" 
			},
			{
				"x": 1.8501779755,
				"y": -0.7886186759,
				"z": 0.4219844461,
				"element": "C" 
			},
			{
				"x": 0.6535716719,
				"y": 0.0052173456,
				"z": 0.0098707372,
				"element": "C" 
			},
			{
				"x": 0.8554711116,
				"y": 1.1122472282,
				"z": -0.6619502432,
				"element": "N" 
			},
			{
				"x": -0.3960823317,
				"y": 1.6978186598,
				"z": -0.8866859903,
				"element": "O" 
			},
			{
				"x": -1.3462970221,
				"y": 0.9031497312,
				"z": -0.3302181777,
				"element": "C" 
			},
			{
				"x": -0.7459705793,
				"y": -0.211998761,
				"z": 0.2666351968,
				"element": "C" 
			},
			{
				"x": -1.5394846399,
				"y": -1.1790795008,
				"z": 0.9065891195,
				"element": "C" 
			},
			{
				"x": -2.9123326084,
				"y": -0.9713673783,
				"z": 0.9247870924,
				"element": "C" 
			},
			{
				"x": -3.4929472274,
				"y": 0.1644359734,
				"z": 0.3189779422,
				"element": "C" 
			},
			{
				"x": -2.7230915483,
				"y": 1.1270590668,
				"z": -0.3251243485,
				"element": "C" 
			},
			{
				"x": 3.3319360582,
				"y": -3.8568413834,
				"z": 0.6869235503,
				"element": "H" 
			},
			{
				"x": 4.0207878236,
				"y": -3.0812415975,
				"z": -0.6339542444,
				"element": "H" 
			},
			{
				"x": 1.8936443278,
				"y": -0.9411059492,
				"z": 1.5038600718,
				"element": "H" 
			},
			{
				"x": 2.7588190227,
				"y": -0.2843700774,
				"z": 0.0882562335,
				"element": "H" 
			},
			{
				"x": -1.0917620705,
				"y": -2.0640182406,
				"z": 1.3440128494,
				"element": "H" 
			},
			{
				"x": -3.5572226038,
				"y": -1.6989567799,
				"z": 1.4074086003,
				"element": "H" 
			},
			{
				"x": -4.5714356229,
				"y": 0.2871988368,
				"z": 0.3532176897,
				"element": "H" 
			},
			{
				"x": -3.1582408272,
				"y": 2.0001728532,
				"z": -0.7975206437,
				"element": "H" 
			}
		],
		 "valence_orbital": [ 
			{
				"type": "occ",
				"energy": -0.31402,
				"method": "rhf"
			},
			{
				"type": "occ",
				"energy": -0.30731,
				"method": "rhf"
			},
			{
				"type": "occ",
				"energy": -0.30243,
				"method": "rhf"
			},
			{
				"type": "occ",
				"energy": -0.25746,
				"method": "rhf"
			},
			{
				"type": "occ",
				"energy": -0.24708,
				"method": "rhf"
			},
			{
				"type": "unocc",
				"energy": -0.04937,
				"method": "rhf"
			},
			{
				"type": "unocc",
				"energy": 0.00011,
				"method": "rhf"
			},
			{
				"type": "unocc",
				"energy": 0.01627,
				"method": "rhf"
			},
			{
				"type": "unocc",
				"energy": 0.05072,
				"method": "rhf"
			},
			{
				"type": "unocc",
				"energy": 0.06572,
				"method": "rhf"
			}
		],
		"cosmo_sigma_profile": { 
			"-0.025": 0.0,
			"-0.024": 0.0,
			"-0.023": 0.0,
			"-0.022": 0.0,
			"-0.021": 0.0,
			"-0.02": 0.0,
			"-0.019": 0.0,
			"-0.018": 0.0,
			"-0.017": 0.0,
			"-0.016": 0.0787793835579,
			"-0.015": 1.80243296549,
			"-0.014": 2.7269952405,
			"-0.013": 2.52380417453,
			"-0.012": 2.57651347056,
			"-0.011": 2.08845485333,
			"-0.01": 4.20885215758,
			"-0.009": 4.43877921331,
			"-0.008": 7.13243653945,
			"-0.007": 9.28198988375,
			"-0.006": 10.9469945753,
			"-0.005": 13.6572045917,
			"-0.004": 10.7867202957,
			"-0.003": 9.65201045598,
			"-0.002": 10.297972162,
			"-0.001": 11.1097791491,
			"0.0": 13.5040832345,
			"0.001": 13.3405884891,
			"0.002": 13.7042962189,
			"0.003": 14.5075825573,
			"0.004": 9.90956873532,
			"0.005": 6.14749086,
			"0.006": 5.23657789765,
			"0.007": 8.06150098218,
			"0.008": 8.11864919481,
			"0.009": 6.31717937574,
			"0.01": 9.35410049235,
			"0.011": 8.90484157301,
			"0.012": 2.36372240042,
			"0.013": 0.6144637303,
			"0.014": 0.00362804553356,
			"0.015": 0.0,
			"0.016": 0.0,
			"0.017": 0.0,
			"0.018": 0.0,
			"0.019": 0.0,
			"0.02": 0.0,
			"0.021": 0.0,
			"0.022": 0.0,
			"0.023": 0.0,
			"0.024": 0.0,
			"0.025": 0.0
		}
	}
}
