{
	 "smiles": "CC1=CC(O)=CC(C)=C1Cl", 
	 "Tm": 387.15, 
	 "num_atms": 19, 
	 "gaussian": { 
		 "optdone": 1, 
		 "sigma_profile": "yes", 
		 "theory": "DFT", 
		 "functional": "B3LYP", 
		 "basiset": "6-31G**", 
		 "properties": { 
			 "R2extent": 1891.1153, 
			 "electric_dipole_moment_norm": 1.96015437657, 
			 "electric_quadrupole_moment_norm": 9.33522885365, 
			 "total_energy": -845.703418646, 
			 "HOMO_LUMO_gap": 0.21252, 
			 "cosmo_polarized_energy": -8.1, 
			 "cosmo_cavitation_energy": 23.85, 
			 "cosmo_dispersion_energy": -17.77, 
			 "cosmo_repulsion_energy": 1.43, 
			 "cosmo_total_nonelectrostatic_energy": 7.51, 
			 "SMD_solvation_energy": 4.27 
		},
		"coords": [
			{
				"x": 2.8835582584,
				"y": 0.1883914054,
				"z": 0.5822872137,
				"element": "C" 
			},
			{
				"x": 1.4749509786,
				"y": 0.6213795789,
				"z": 0.2631474927,
				"element": "C" 
			},
			{
				"x": 1.2385555054,
				"y": 1.8666651792,
				"z": -0.3234806945,
				"element": "C" 
			},
			{
				"x": -0.0597949261,
				"y": 2.2822363321,
				"z": -0.6249830271,
				"element": "C" 
			},
			{
				"x": -0.2087285824,
				"y": 3.5138627575,
				"z": -1.1977892699,
				"element": "O" 
			},
			{
				"x": -1.1416235992,
				"y": 1.447840805,
				"z": -0.3394652551,
				"element": "C" 
			},
			{
				"x": -0.948736984,
				"y": 0.192134966,
				"z": 0.2481001265,
				"element": "C" 
			},
			{
				"x": -2.1301207776,
				"y": -0.6951131463,
				"z": 0.5490328602,
				"element": "C" 
			},
			{
				"x": 0.3662932849,
				"y": -0.196437891,
				"z": 0.53878464,
				"element": "C" 
			},
			{
				"x": 0.6394080037,
				"y": -1.7780491078,
				"z": 1.281582237,
				"element": "Cl" 
			},
			{
				"x": 3.0049281765,
				"y": -0.0125035595,
				"z": 1.6520383419,
				"element": "H" 
			},
			{
				"x": 3.1433487164,
				"y": -0.7373404476,
				"z": 0.0578966815,
				"element": "H" 
			},
			{
				"x": 3.5998881526,
				"y": 0.9608800336,
				"z": 0.2932453056,
				"element": "H" 
			},
			{
				"x": 2.0663794324,
				"y": 2.5295829856,
				"z": -0.5530141682,
				"element": "H" 
			},
			{
				"x": -1.1474367953,
				"y": 3.6789287636,
				"z": -1.3541612912,
				"element": "H" 
			},
			{
				"x": -2.1538722503,
				"y": 1.7713645098,
				"z": -0.5742839622,
				"element": "H" 
			},
			{
				"x": -2.1906612152,
				"y": -0.9279054375,
				"z": 1.6174467755,
				"element": "H" 
			},
			{
				"x": -3.0640304633,
				"y": -0.2135865491,
				"z": 0.2488979035,
				"element": "H" 
			},
			{
				"x": -2.0522049155,
				"y": -1.6528311779,
				"z": 0.0236180903,
				"element": "H" 
			}
		],
		 "valence_orbital": [ 
			{
				"type": "occ",
				"energy": -0.34678,
				"method": "rhf"
			},
			{
				"type": "occ",
				"energy": -0.30462,
				"method": "rhf"
			},
			{
				"type": "occ",
				"energy": -0.30396,
				"method": "rhf"
			},
			{
				"type": "occ",
				"energy": -0.24594,
				"method": "rhf"
			},
			{
				"type": "occ",
				"energy": -0.21602,
				"method": "rhf"
			},
			{
				"type": "unocc",
				"energy": -0.0035,
				"method": "rhf"
			},
			{
				"type": "unocc",
				"energy": 0.00553,
				"method": "rhf"
			},
			{
				"type": "unocc",
				"energy": 0.03844,
				"method": "rhf"
			},
			{
				"type": "unocc",
				"energy": 0.07028,
				"method": "rhf"
			},
			{
				"type": "unocc",
				"energy": 0.10178,
				"method": "rhf"
			}
		],
		"cosmo_sigma_profile": { 
			"-0.025": 0.0,
			"-0.024": 0.0,
			"-0.023": 0.0,
			"-0.022": 0.0,
			"-0.021": 0.0,
			"-0.02": 0.0,
			"-0.019": 0.0,
			"-0.018": 0.467779710644,
			"-0.017": 0.921134199567,
			"-0.016": 1.15279027386,
			"-0.015": 0.885104016869,
			"-0.014": 1.28677069161,
			"-0.013": 1.1043066936,
			"-0.012": 0.731854789253,
			"-0.011": 0.450515241412,
			"-0.01": 1.29867989737,
			"-0.009": 1.71162287112,
			"-0.008": 0.531691175905,
			"-0.007": 1.58461323726,
			"-0.006": 4.40592082915,
			"-0.005": 8.09509936069,
			"-0.004": 11.6465854522,
			"-0.003": 11.7940663049,
			"-0.002": 13.7755655373,
			"-0.001": 17.8965388663,
			"0.0": 22.8896656056,
			"0.001": 12.5192983693,
			"0.002": 13.2072308679,
			"0.003": 15.4437925298,
			"0.004": 21.8148395762,
			"0.005": 12.9684554555,
			"0.006": 3.63249644359,
			"0.007": 1.4262992131,
			"0.008": 1.4399575539,
			"0.009": 0.885636040141,
			"0.01": 1.92256715304,
			"0.011": 1.94229648709,
			"0.012": 0.671154306021,
			"0.013": 0.0,
			"0.014": 0.0,
			"0.015": 0.0,
			"0.016": 0.0,
			"0.017": 0.0,
			"0.018": 0.0,
			"0.019": 0.0,
			"0.02": 0.0,
			"0.021": 0.0,
			"0.022": 0.0,
			"0.023": 0.0,
			"0.024": 0.0,
			"0.025": 0.0
		}
	}
}
