{
	 "smiles": "CN(C)C(=O)C1=CC(N)=CC=C1", 
	 "Tm": 358.15, 
	 "num_atms": 24, 
	 "gaussian": { 
		 "optdone": 1, 
		 "sigma_profile": "yes", 
		 "theory": "DFT", 
		 "functional": "B3LYP", 
		 "basiset": "6-31G**", 
		 "properties": { 
			 "R2extent": 2759.4422, 
			 "electric_dipole_moment_norm": 3.83825690907, 
			 "electric_quadrupole_moment_norm": 17.3584168984, 
			 "total_energy": -534.928571111, 
			 "HOMO_LUMO_gap": 0.18653, 
			 "cosmo_polarized_energy": -14.92, 
			 "cosmo_cavitation_energy": 27.19, 
			 "cosmo_dispersion_energy": -19.66, 
			 "cosmo_repulsion_energy": 1.59, 
			 "cosmo_total_nonelectrostatic_energy": 9.11, 
			 "SMD_solvation_energy": 5.21 
		},
		"coords": [
			{
				"x": 1.4186317428,
				"y": 0.6234309859,
				"z": 3.4408572671,
				"element": "C" 
			},
			{
				"x": 1.1566944227,
				"y": 0.176928228,
				"z": 2.0790700726,
				"element": "N" 
			},
			{
				"x": 1.9424497209,
				"y": 0.84870135,
				"z": 1.0529285261,
				"element": "C" 
			},
			{
				"x": -0.0155874929,
				"y": -0.5144170058,
				"z": 1.8464079254,
				"element": "C" 
			},
			{
				"x": -0.8394481229,
				"y": -0.7089268705,
				"z": 2.7378178693,
				"element": "O" 
			},
			{
				"x": -0.2514060443,
				"y": -1.0866854929,
				"z": 0.4723499788,
				"element": "C" 
			},
			{
				"x": 0.7379947076,
				"y": -1.8006390727,
				"z": -0.2120118678,
				"element": "C" 
			},
			{
				"x": 0.4618982181,
				"y": -2.411707562,
				"z": -1.4463601861,
				"element": "C" 
			},
			{
				"x": 1.4655797472,
				"y": -3.0891446788,
				"z": -2.1445712612,
				"element": "N" 
			},
			{
				"x": -0.8270614524,
				"y": -2.2779227044,
				"z": -1.9897291617,
				"element": "C" 
			},
			{
				"x": -1.8121347222,
				"y": -1.5737835143,
				"z": -1.3000371368,
				"element": "C" 
			},
			{
				"x": -1.5410474909,
				"y": -0.9880161721,
				"z": -0.0647892435,
				"element": "C" 
			},
			{
				"x": 1.1204118082,
				"y": 1.6715657113,
				"z": 3.5848289122,
				"element": "H" 
			},
			{
				"x": 0.8494419713,
				"y": 0.0040285398,
				"z": 4.1316925298,
				"element": "H" 
			},
			{
				"x": 2.4900829203,
				"y": 0.5381839892,
				"z": 3.6538666054,
				"element": "H" 
			},
			{
				"x": 1.8711228581,
				"y": 1.9387623147,
				"z": 1.1743554984,
				"element": "H" 
			},
			{
				"x": 3.0018571787,
				"y": 0.571766162,
				"z": 1.1270926311,
				"element": "H" 
			},
			{
				"x": 1.5832503476,
				"y": 0.5903269851,
				"z": 0.0591572357,
				"element": "H" 
			},
			{
				"x": 1.7288024052,
				"y": -1.9037876897,
				"z": 0.223296222,
				"element": "H" 
			},
			{
				"x": 2.2151687826,
				"y": -3.4496442657,
				"z": -1.5698567109,
				"element": "H" 
			},
			{
				"x": 1.1332214138,
				"y": -3.7840199526,
				"z": -2.7993477429,
				"element": "H" 
			},
			{
				"x": -1.0527259214,
				"y": -2.7346939255,
				"z": -2.9503445791,
				"element": "H" 
			},
			{
				"x": -2.8063258172,
				"y": -1.4921205961,
				"z": -1.7304766291,
				"element": "H" 
			},
			{
				"x": -2.310771181,
				"y": -0.4682847628,
				"z": 0.4943032451,
				"element": "H" 
			}
		],
		 "valence_orbital": [ 
			{
				"type": "occ",
				"energy": -0.30837,
				"method": "rhf"
			},
			{
				"type": "occ",
				"energy": -0.25414,
				"method": "rhf"
			},
			{
				"type": "occ",
				"energy": -0.24017,
				"method": "rhf"
			},
			{
				"type": "occ",
				"energy": -0.2292,
				"method": "rhf"
			},
			{
				"type": "occ",
				"energy": -0.20506,
				"method": "rhf"
			},
			{
				"type": "unocc",
				"energy": -0.01853,
				"method": "rhf"
			},
			{
				"type": "unocc",
				"energy": 0.01204,
				"method": "rhf"
			},
			{
				"type": "unocc",
				"energy": 0.05702,
				"method": "rhf"
			},
			{
				"type": "unocc",
				"energy": 0.07748,
				"method": "rhf"
			},
			{
				"type": "unocc",
				"energy": 0.09377,
				"method": "rhf"
			}
		],
		"cosmo_sigma_profile": { 
			"-0.025": 0.0,
			"-0.024": 0.0,
			"-0.023": 0.0,
			"-0.022": 0.0,
			"-0.021": 0.0,
			"-0.02": 0.0,
			"-0.019": 0.0,
			"-0.018": 0.0,
			"-0.017": 0.0,
			"-0.016": 0.0,
			"-0.015": 0.0,
			"-0.014": 0.0,
			"-0.013": 0.409735283215,
			"-0.012": 2.68618566148,
			"-0.011": 2.88590939924,
			"-0.01": 2.48794646211,
			"-0.009": 3.99336018287,
			"-0.008": 2.86160758335,
			"-0.007": 3.11309648775,
			"-0.006": 5.36331901494,
			"-0.005": 11.5698760631,
			"-0.004": 21.6703909316,
			"-0.003": 23.1177483222,
			"-0.002": 25.1302345978,
			"-0.001": 17.9699554011,
			"0.0": 10.5811975839,
			"0.001": 9.3540267937,
			"0.002": 8.00951425115,
			"0.003": 8.9888704717,
			"0.004": 8.60796761334,
			"0.005": 10.3531759387,
			"0.006": 9.16369130259,
			"0.007": 3.09910918764,
			"0.008": 2.80251410491,
			"0.009": 2.13250181123,
			"0.01": 2.58677564395,
			"0.011": 2.3403021515,
			"0.012": 2.56111132353,
			"0.013": 3.63699551647,
			"0.014": 5.5152448551,
			"0.015": 1.58676064905,
			"0.016": 0.00128745172368,
			"0.017": 0.0,
			"0.018": 0.0,
			"0.019": 0.0,
			"0.02": 0.0,
			"0.021": 0.0,
			"0.022": 0.0,
			"0.023": 0.0,
			"0.024": 0.0,
			"0.025": 0.0
		}
	}
}
