{
	 "smiles": "CCOC(=O)C1=CN2C=CC=CC2=N1", 
	 "Tm": 354.65, 
	 "num_atms": 24, 
	 "gaussian": { 
		 "optdone": 1, 
		 "sigma_profile": "yes", 
		 "theory": "DFT", 
		 "functional": "B3LYP", 
		 "basiset": "6-31G**", 
		 "properties": { 
			 "R2extent": 3878.1264, 
			 "electric_dipole_moment_norm": 3.12879789855, 
			 "electric_quadrupole_moment_norm": 12.7651981414, 
			 "total_energy": -647.048983029, 
			 "HOMO_LUMO_gap": 0.16974, 
			 "cosmo_polarized_energy": -14.81, 
			 "cosmo_cavitation_energy": 28.8, 
			 "cosmo_dispersion_energy": -21.23, 
			 "cosmo_repulsion_energy": 1.67, 
			 "cosmo_total_nonelectrostatic_energy": 9.24, 
			 "SMD_solvation_energy": 4.96 
		},
		"coords": [
			{
				"x": -1.5563556284,
				"y": -2.6506775986,
				"z": 4.0264811724,
				"element": "C" 
			},
			{
				"x": -0.4862381671,
				"y": -3.2442362354,
				"z": 3.121844391,
				"element": "C" 
			},
			{
				"x": 0.182588486,
				"y": -2.2165702845,
				"z": 2.3554222956,
				"element": "O" 
			},
			{
				"x": -0.408864468,
				"y": -1.8522431849,
				"z": 1.2043359974,
				"element": "C" 
			},
			{
				"x": -1.44628994,
				"y": -2.3294685958,
				"z": 0.7771460877,
				"element": "O" 
			},
			{
				"x": 0.3402728233,
				"y": -0.7963604947,
				"z": 0.4875681785,
				"element": "C" 
			},
			{
				"x": -0.0786402197,
				"y": -0.2702396645,
				"z": -0.7242853163,
				"element": "C" 
			},
			{
				"x": 0.866756321,
				"y": 0.6656034182,
				"z": -1.0569444891,
				"element": "N" 
			},
			{
				"x": 0.9774468022,
				"y": 1.5010361641,
				"z": -2.1459402708,
				"element": "C" 
			},
			{
				"x": 2.0414610528,
				"y": 2.3516076626,
				"z": -2.2257504097,
				"element": "C" 
			},
			{
				"x": 3.0287406482,
				"y": 2.3775215619,
				"z": -1.1954653424,
				"element": "C" 
			},
			{
				"x": 2.9215675765,
				"y": 1.5465235668,
				"z": -0.1091586597,
				"element": "C" 
			},
			{
				"x": 1.8221802112,
				"y": 0.6580679872,
				"z": -0.0128327952,
				"element": "C" 
			},
			{
				"x": 1.5033479014,
				"y": -0.2269625962,
				"z": 0.922477229,
				"element": "N" 
			},
			{
				"x": -2.3569460969,
				"y": -2.2047365641,
				"z": 3.4313081291,
				"element": "H" 
			},
			{
				"x": -1.9909679117,
				"y": -3.4364264571,
				"z": 4.6536537141,
				"element": "H" 
			},
			{
				"x": -1.1306317867,
				"y": -1.8838443158,
				"z": 4.6801592144,
				"element": "H" 
			},
			{
				"x": 0.3133725764,
				"y": -3.7115228156,
				"z": 3.7014848039,
				"element": "H" 
			},
			{
				"x": -0.9149201175,
				"y": -3.9776480881,
				"z": 2.4344594455,
				"element": "H" 
			},
			{
				"x": -0.9376475197,
				"y": -0.4879198519,
				"z": -1.3377926783,
				"element": "H" 
			},
			{
				"x": 0.1944778113,
				"y": 1.430866049,
				"z": -2.8911743721,
				"element": "H" 
			},
			{
				"x": 2.1250995634,
				"y": 3.007736161,
				"z": -3.0844736841,
				"element": "H" 
			},
			{
				"x": 3.8666743299,
				"y": 3.0615708164,
				"z": -1.2789923224,
				"element": "H" 
			},
			{
				"x": 3.6508157521,
				"y": 1.5374233601,
				"z": 0.6924696813,
				"element": "H" 
			}
		],
		 "valence_orbital": [ 
			{
				"type": "occ",
				"energy": -0.28819,
				"method": "rhf"
			},
			{
				"type": "occ",
				"energy": -0.27937,
				"method": "rhf"
			},
			{
				"type": "occ",
				"energy": -0.26394,
				"method": "rhf"
			},
			{
				"type": "occ",
				"energy": -0.25141,
				"method": "rhf"
			},
			{
				"type": "occ",
				"energy": -0.21874,
				"method": "rhf"
			},
			{
				"type": "unocc",
				"energy": -0.049,
				"method": "rhf"
			},
			{
				"type": "unocc",
				"energy": -0.01443,
				"method": "rhf"
			},
			{
				"type": "unocc",
				"energy": 0.0124,
				"method": "rhf"
			},
			{
				"type": "unocc",
				"energy": 0.08201,
				"method": "rhf"
			},
			{
				"type": "unocc",
				"energy": 0.11359,
				"method": "rhf"
			}
		],
		"cosmo_sigma_profile": { 
			"-0.025": 0.0,
			"-0.024": 0.0,
			"-0.023": 0.0,
			"-0.022": 0.0,
			"-0.021": 0.0,
			"-0.02": 0.0,
			"-0.019": 0.0,
			"-0.018": 0.0,
			"-0.017": 0.0,
			"-0.016": 0.0,
			"-0.015": 0.0,
			"-0.014": 0.0,
			"-0.013": 0.0,
			"-0.012": 0.0,
			"-0.011": 0.600302803646,
			"-0.01": 3.26659470371,
			"-0.009": 3.722893567,
			"-0.008": 4.3368399185,
			"-0.007": 9.20559209888,
			"-0.006": 10.5740284034,
			"-0.005": 13.0288527452,
			"-0.004": 16.4182195556,
			"-0.003": 18.0766769201,
			"-0.002": 19.2529353436,
			"-0.001": 21.3346727099,
			"0.0": 21.4138321052,
			"0.001": 18.1061928209,
			"0.002": 17.1831500599,
			"0.003": 10.8164542697,
			"0.004": 5.78338358327,
			"0.005": 4.28045517935,
			"0.006": 3.58095989317,
			"0.007": 2.17820322175,
			"0.008": 3.3808561559,
			"0.009": 3.59095697614,
			"0.01": 3.34890046933,
			"0.011": 3.58357493896,
			"0.012": 5.62213582304,
			"0.013": 2.27727356368,
			"0.014": 1.59637825427,
			"0.015": 1.12686249323,
			"0.016": 1.45254026446,
			"0.017": 0.954059430425,
			"0.018": 0.357419292941,
			"0.019": 0.0,
			"0.02": 0.0,
			"0.021": 0.0,
			"0.022": 0.0,
			"0.023": 0.0,
			"0.024": 0.0,
			"0.025": 0.0
		}
	}
}
