{
	 "smiles": "BrC1=CC2=C(C=C1)C1=C(C=CC=C1)C2=O", 
	 "Tm": 419.15, 
	 "num_atms": 22, 
	 "gaussian": { 
		 "optdone": 1, 
		 "sigma_profile": "yes", 
		 "theory": "DFT", 
		 "functional": "B3LYP", 
		 "basiset": "6-31G**", 
		 "properties": { 
			 "R2extent": 7010.629, 
			 "electric_dipole_moment_norm": 4.06900299091, 
			 "electric_quadrupole_moment_norm": 8.22692278133, 
			 "total_energy": -3146.23824619, 
			 "HOMO_LUMO_gap": 0.13988, 
			 "cosmo_polarized_energy": -8.71, 
			 "cosmo_cavitation_energy": 29.32, 
			 "cosmo_dispersion_energy": -21.86, 
			 "cosmo_repulsion_energy": 1.66, 
			 "cosmo_total_nonelectrostatic_energy": 9.12, 
			 "SMD_solvation_energy": 3.89 
		},
		"coords": [
			{
				"x": -4.8027300494,
				"y": 3.1428837861,
				"z": -1.0298336055,
				"element": "Br" 
			},
			{
				"x": -3.2492008046,
				"y": 2.0947753933,
				"z": -0.6597285202,
				"element": "C" 
			},
			{
				"x": -1.989156079,
				"y": 2.5860616305,
				"z": -1.0185549703,
				"element": "C" 
			},
			{
				"x": -0.8915715413,
				"y": 1.7909666187,
				"z": -0.7304209784,
				"element": "C" 
			},
			{
				"x": -1.0159427481,
				"y": 0.535882817,
				"z": -0.1024742591,
				"element": "C" 
			},
			{
				"x": -2.2760158892,
				"y": 0.0633667865,
				"z": 0.2471704556,
				"element": "C" 
			},
			{
				"x": -3.3985948802,
				"y": 0.8540369149,
				"z": -0.0364131156,
				"element": "C" 
			},
			{
				"x": 0.3379963143,
				"y": -0.0472516741,
				"z": 0.0572021132,
				"element": "C" 
			},
			{
				"x": 1.280662071,
				"y": 0.8566854999,
				"z": -0.47486473,
				"element": "C" 
			},
			{
				"x": 2.6402106898,
				"y": 0.5821983675,
				"z": -0.4676978316,
				"element": "C" 
			},
			{
				"x": 3.0686315011,
				"y": -0.6309234414,
				"z": 0.0875920174,
				"element": "C" 
			},
			{
				"x": 2.139212574,
				"y": -1.5313599425,
				"z": 0.6167958924,
				"element": "C" 
			},
			{
				"x": 0.7643285095,
				"y": -1.2504418135,
				"z": 0.607842377,
				"element": "C" 
			},
			{
				"x": 0.5617715324,
				"y": 2.0618390569,
				"z": -0.9988475256,
				"element": "C" 
			},
			{
				"x": 1.0434188417,
				"y": 3.0467563891,
				"z": -1.5281480167,
				"element": "O" 
			},
			{
				"x": -1.8692796198,
				"y": 3.5489915418,
				"z": -1.5026492425,
				"element": "H" 
			},
			{
				"x": -2.4074628318,
				"y": -0.8994445476,
				"z": 0.7321948913,
				"element": "H" 
			},
			{
				"x": -4.390612867,
				"y": 0.5050691301,
				"z": 0.227428946,
				"element": "H" 
			},
			{
				"x": 3.3431822965,
				"y": 1.2973132147,
				"z": -0.8846054101,
				"element": "H" 
			},
			{
				"x": 4.1262674948,
				"y": -0.8753274906,
				"z": 0.1083572149,
				"element": "H" 
			},
			{
				"x": 2.4869879266,
				"y": -2.4677508717,
				"z": 1.0437930644,
				"element": "H" 
			},
			{
				"x": 0.0584975588,
				"y": -1.9635273656,
				"z": 1.0239612334,
				"element": "H" 
			}
		],
		 "valence_orbital": [ 
			{
				"type": "occ",
				"energy": -0.28189,
				"method": "rhf"
			},
			{
				"type": "occ",
				"energy": -0.27607,
				"method": "rhf"
			},
			{
				"type": "occ",
				"energy": -0.26876,
				"method": "rhf"
			},
			{
				"type": "occ",
				"energy": -0.25747,
				"method": "rhf"
			},
			{
				"type": "occ",
				"energy": -0.23124,
				"method": "rhf"
			},
			{
				"type": "unocc",
				"energy": -0.09136,
				"method": "rhf"
			},
			{
				"type": "unocc",
				"energy": -0.04796,
				"method": "rhf"
			},
			{
				"type": "unocc",
				"energy": -0.0126,
				"method": "rhf"
			},
			{
				"type": "unocc",
				"energy": 0.00152,
				"method": "rhf"
			},
			{
				"type": "unocc",
				"energy": 0.01786,
				"method": "rhf"
			}
		],
		"cosmo_sigma_profile": { 
			"-0.025": 0.0,
			"-0.024": 0.0,
			"-0.023": 0.0,
			"-0.022": 0.0,
			"-0.021": 0.0,
			"-0.02": 0.0,
			"-0.019": 0.0,
			"-0.018": 0.0,
			"-0.017": 0.0,
			"-0.016": 0.0,
			"-0.015": 0.0,
			"-0.014": 0.0,
			"-0.013": 0.0,
			"-0.012": 0.0,
			"-0.011": 0.0,
			"-0.01": 0.0,
			"-0.009": 0.0,
			"-0.008": 2.543867683,
			"-0.007": 11.4402726733,
			"-0.006": 13.8616716136,
			"-0.005": 14.4447532577,
			"-0.004": 13.2723643714,
			"-0.003": 15.4318136762,
			"-0.002": 13.431757004,
			"-0.001": 15.8732339765,
			"0.0": 23.0560204844,
			"0.001": 30.6042858497,
			"0.002": 26.7319470631,
			"0.003": 22.2955720159,
			"0.004": 16.4096956008,
			"0.005": 5.13542145838,
			"0.006": 1.15388935089,
			"0.007": 1.45154958067,
			"0.008": 1.65311209226,
			"0.009": 1.95678292662,
			"0.01": 3.27183200719,
			"0.011": 4.44345429289,
			"0.012": 2.0819607465,
			"0.013": 0.0,
			"0.014": 0.0,
			"0.015": 0.0,
			"0.016": 0.0,
			"0.017": 0.0,
			"0.018": 0.0,
			"0.019": 0.0,
			"0.02": 0.0,
			"0.021": 0.0,
			"0.022": 0.0,
			"0.023": 0.0,
			"0.024": 0.0,
			"0.025": 0.0
		}
	}
}
