{
	 "smiles": "CCCCCCCCCCCCCCCCCCCCCCCCCCCCCCCCCCC", 
	 "Tm": 348.15, 
	 "num_atms": 107, 
	 "gaussian": { 
		 "optdone": 1, 
		 "sigma_profile": "yes", 
		 "theory": "DFT", 
		 "functional": "B3LYP", 
		 "basiset": "6-31G**", 
		 "properties": { 
			 "R2extent": 54871.4912, 
			 "electric_dipole_moment_norm": 0.0488353355676, 
			 "electric_quadrupole_moment_norm": 0.863922479161, 
			 "total_energy": -1377.23813549, 
			 "HOMO_LUMO_gap": 0.36028, 
			 "cosmo_polarized_energy": -2.11, 
			 "cosmo_cavitation_energy": 100.15, 
			 "cosmo_dispersion_energy": -64.79, 
			 "cosmo_repulsion_energy": 5.22, 
			 "cosmo_total_nonelectrostatic_energy": 40.58, 
			 "SMD_solvation_energy": 11.88 
		},
		"coords": [
			{
				"x": 3.9230105589,
				"y": -4.9182222256,
				"z": -9.4064996431,
				"element": "C" 
			},
			{
				"x": 3.7947407948,
				"y": -3.4138656659,
				"z": -9.1448069974,
				"element": "C" 
			},
			{
				"x": 2.577524965,
				"y": -2.7876150815,
				"z": -9.840208056,
				"element": "C" 
			},
			{
				"x": 2.444623437,
				"y": -1.2658567223,
				"z": -9.6653160406,
				"element": "C" 
			},
			{
				"x": 2.1583909465,
				"y": -0.8036535505,
				"z": -8.229038298,
				"element": "C" 
			},
			{
				"x": 1.9605813411,
				"y": 0.715255625,
				"z": -8.1190414798,
				"element": "C" 
			},
			{
				"x": 1.7448562062,
				"y": 1.2378043362,
				"z": -6.6890116891,
				"element": "C" 
			},
			{
				"x": 0.437581461,
				"y": 0.7808279568,
				"z": -6.0254947833,
				"element": "C" 
			},
			{
				"x": 0.2314420906,
				"y": 1.3875627076,
				"z": -4.6298544351,
				"element": "C" 
			},
			{
				"x": -1.1017240257,
				"y": 1.0204802646,
				"z": -3.9567096265,
				"element": "C" 
			},
			{
				"x": -1.245700843,
				"y": -0.4666781241,
				"z": -3.5970065961,
				"element": "C" 
			},
			{
				"x": -2.5059020854,
				"y": -0.8047458238,
				"z": -2.7822098757,
				"element": "C" 
			},
			{
				"x": -3.8268135968,
				"y": -0.6045348498,
				"z": -3.5417039993,
				"element": "C" 
			},
			{
				"x": -5.0764049298,
				"y": -1.0866502984,
				"z": -2.7857547684,
				"element": "C" 
			},
			{
				"x": -5.4087241691,
				"y": -0.2898873899,
				"z": -1.5155822558,
				"element": "C" 
			},
			{
				"x": -6.7027593583,
				"y": -0.7595256584,
				"z": -0.8358992023,
				"element": "C" 
			},
			{
				"x": -7.1244069438,
				"y": 0.0723131177,
				"z": 0.3886934465,
				"element": "C" 
			},
			{
				"x": -6.1570877655,
				"y": 0.0520628495,
				"z": 1.5861963049,
				"element": "C" 
			},
			{
				"x": -5.9771854294,
				"y": -1.3303743173,
				"z": 2.2310928985,
				"element": "C" 
			},
			{
				"x": -5.162858222,
				"y": -1.3191674722,
				"z": 3.5376088978,
				"element": "C" 
			},
			{
				"x": -3.6947947534,
				"y": -0.8693839453,
				"z": 3.4197342547,
				"element": "C" 
			},
			{
				"x": -2.8163812165,
				"y": -1.7880303222,
				"z": 2.5571225282,
				"element": "C" 
			},
			{
				"x": -1.3424295363,
				"y": -1.357777697,
				"z": 2.4595017749,
				"element": "C" 
			},
			{
				"x": -0.5494661315,
				"y": -1.4585763676,
				"z": 3.7707558125,
				"element": "C" 
			},
			{
				"x": 0.9333027752,
				"y": -1.0970019191,
				"z": 3.6007416201,
				"element": "C" 
			},
			{
				"x": 1.7859783,
				"y": -1.2513447157,
				"z": 4.8710264436,
				"element": "C" 
			},
			{
				"x": 1.4398726638,
				"y": -0.2747456886,
				"z": 6.0046221061,
				"element": "C" 
			},
			{
				"x": 2.3690371172,
				"y": -0.4163429762,
				"z": 7.2186211165,
				"element": "C" 
			},
			{
				"x": 2.0057994574,
				"y": 0.4803736623,
				"z": 8.4156412795,
				"element": "C" 
			},
			{
				"x": 2.0805266848,
				"y": 1.998239718,
				"z": 8.1716563823,
				"element": "C" 
			},
			{
				"x": 3.4825191361,
				"y": 2.5264213512,
				"z": 7.8359451871,
				"element": "C" 
			},
			{
				"x": 3.5272218473,
				"y": 4.0544294368,
				"z": 7.6924830849,
				"element": "C" 
			},
			{
				"x": 4.9296637698,
				"y": 4.6363394635,
				"z": 7.4419707933,
				"element": "C" 
			},
			{
				"x": 5.6102617418,
				"y": 4.214042442,
				"z": 6.1275719699,
				"element": "C" 
			},
			{
				"x": 4.8707359424,
				"y": 4.6609582393,
				"z": 4.8610002863,
				"element": "C" 
			},
			{
				"x": 4.0221846252,
				"y": -5.127181518,
				"z": -10.477986658,
				"element": "H" 
			},
			{
				"x": 3.0402636241,
				"y": -5.4594155283,
				"z": -9.0467054252,
				"element": "H" 
			},
			{
				"x": 4.7989376374,
				"y": -5.3404866169,
				"z": -8.9029323704,
				"element": "H" 
			},
			{
				"x": 3.737825485,
				"y": -3.2401949025,
				"z": -8.0629912372,
				"element": "H" 
			},
			{
				"x": 4.7057835002,
				"y": -2.9034134132,
				"z": -9.4871438886,
				"element": "H" 
			},
			{
				"x": 2.6327025534,
				"y": -3.0156074664,
				"z": -10.9136557367,
				"element": "H" 
			},
			{
				"x": 1.6620788436,
				"y": -3.2761266929,
				"z": -9.4756197037,
				"element": "H" 
			},
			{
				"x": 3.3616808935,
				"y": -0.778375367,
				"z": -10.0269469665,
				"element": "H" 
			},
			{
				"x": 1.6362971735,
				"y": -0.9061611121,
				"z": -10.3166871662,
				"element": "H" 
			},
			{
				"x": 1.2656184699,
				"y": -1.3263166782,
				"z": -7.8600611187,
				"element": "H" 
			},
			{
				"x": 2.9822537084,
				"y": -1.1026025084,
				"z": -7.5670224055,
				"element": "H" 
			},
			{
				"x": 1.1093815117,
				"y": 1.0162463166,
				"z": -8.7469180539,
				"element": "H" 
			},
			{
				"x": 2.8407958879,
				"y": 1.2148739709,
				"z": -8.5464952347,
				"element": "H" 
			},
			{
				"x": 2.5951408841,
				"y": 0.9346457931,
				"z": -6.0609283564,
				"element": "H" 
			},
			{
				"x": 1.7628545729,
				"y": 2.3361607845,
				"z": -6.7094022804,
				"element": "H" 
			},
			{
				"x": 0.4208646829,
				"y": -0.3134596531,
				"z": -5.9579771648,
				"element": "H" 
			},
			{
				"x": -0.4100279066,
				"y": 1.0601540443,
				"z": -6.668885051,
				"element": "H" 
			},
			{
				"x": 0.2961355244,
				"y": 2.4814572548,
				"z": -4.7096768308,
				"element": "H" 
			},
			{
				"x": 1.0622249967,
				"y": 1.0833516756,
				"z": -3.9765999109,
				"element": "H" 
			},
			{
				"x": -1.205897183,
				"y": 1.6132598341,
				"z": -3.0371104039,
				"element": "H" 
			},
			{
				"x": -1.9278428748,
				"y": 1.3293405185,
				"z": -4.6110184315,
				"element": "H" 
			},
			{
				"x": -1.2390340474,
				"y": -1.0757513861,
				"z": -4.510883039,
				"element": "H" 
			},
			{
				"x": -0.3614232179,
				"y": -0.7736806077,
				"z": -3.0211163993,
				"element": "H" 
			},
			{
				"x": -2.5067934015,
				"y": -0.2030605199,
				"z": -1.8634597692,
				"element": "H" 
			},
			{
				"x": -2.4450274893,
				"y": -1.8532444376,
				"z": -2.4583671013,
				"element": "H" 
			},
			{
				"x": -3.7645262452,
				"y": -1.1434044687,
				"z": -4.4975399156,
				"element": "H" 
			},
			{
				"x": -3.9537726279,
				"y": 0.4553496563,
				"z": -3.7996031903,
				"element": "H" 
			},
			{
				"x": -4.9547439203,
				"y": -2.148341024,
				"z": -2.5258509591,
				"element": "H" 
			},
			{
				"x": -5.938806768,
				"y": -1.0398428837,
				"z": -3.4648345167,
				"element": "H" 
			},
			{
				"x": -5.5012532774,
				"y": 0.7759486973,
				"z": -1.7722118832,
				"element": "H" 
			},
			{
				"x": -4.5735614861,
				"y": -0.3599793975,
				"z": -0.8080283425,
				"element": "H" 
			},
			{
				"x": -6.6010211091,
				"y": -1.8161232254,
				"z": -0.5538065003,
				"element": "H" 
			},
			{
				"x": -7.5183554486,
				"y": -0.7266628335,
				"z": -1.5713084731,
				"element": "H" 
			},
			{
				"x": -7.2684162802,
				"y": 1.1143181271,
				"z": 0.0712443674,
				"element": "H" 
			},
			{
				"x": -8.1087491151,
				"y": -0.2786626104,
				"z": 0.7281351868,
				"element": "H" 
			},
			{
				"x": -6.5376902997,
				"y": 0.7472978867,
				"z": 2.34751056,
				"element": "H" 
			},
			{
				"x": -5.1827903646,
				"y": 0.4525738739,
				"z": 1.2796520428,
				"element": "H" 
			},
			{
				"x": -6.9702584855,
				"y": -1.747593246,
				"z": 2.4491362218,
				"element": "H" 
			},
			{
				"x": -5.5164532233,
				"y": -2.0214693692,
				"z": 1.5144873639,
				"element": "H" 
			},
			{
				"x": -5.6714335662,
				"y": -0.6660300586,
				"z": 4.260162501,
				"element": "H" 
			},
			{
				"x": -5.1856308396,
				"y": -2.3271836832,
				"z": 3.9743518102,
				"element": "H" 
			},
			{
				"x": -3.6469381921,
				"y": 0.1531296152,
				"z": 3.0207726772,
				"element": "H" 
			},
			{
				"x": -3.2778814073,
				"y": -0.8133215443,
				"z": 4.4328948419,
				"element": "H" 
			},
			{
				"x": -2.8686426782,
				"y": -2.8132058632,
				"z": 2.9524710861,
				"element": "H" 
			},
			{
				"x": -3.2286925041,
				"y": -1.8360161129,
				"z": 1.5412966757,
				"element": "H" 
			},
			{
				"x": -1.290951641,
				"y": -0.3256112036,
				"z": 2.0833728031,
				"element": "H" 
			},
			{
				"x": -0.844970162,
				"y": -1.9783856646,
				"z": 1.7015882449,
				"element": "H" 
			},
			{
				"x": -1.002734651,
				"y": -0.8087629821,
				"z": 4.5286860009,
				"element": "H" 
			},
			{
				"x": -0.6276937209,
				"y": -2.4841412937,
				"z": 4.1611502279,
				"element": "H" 
			},
			{
				"x": 1.0145252388,
				"y": -0.0634216083,
				"z": 3.2339317682,
				"element": "H" 
			},
			{
				"x": 1.3604300299,
				"y": -1.7304394884,
				"z": 2.8111581965,
				"element": "H" 
			},
			{
				"x": 2.8428886991,
				"y": -1.1161135043,
				"z": 4.6030348855,
				"element": "H" 
			},
			{
				"x": 1.6995309984,
				"y": -2.2828440979,
				"z": 5.2422499607,
				"element": "H" 
			},
			{
				"x": 0.4025734317,
				"y": -0.4294795379,
				"z": 6.3308380286,
				"element": "H" 
			},
			{
				"x": 1.4859088456,
				"y": 0.7511910379,
				"z": 5.6143054621,
				"element": "H" 
			},
			{
				"x": 3.4043727119,
				"y": -0.2239079849,
				"z": 6.9065224239,
				"element": "H" 
			},
			{
				"x": 2.3511907071,
				"y": -1.4621377677,
				"z": 7.5548874651,
				"element": "H" 
			},
			{
				"x": 2.6669676404,
				"y": 0.2275980248,
				"z": 9.2560027352,
				"element": "H" 
			},
			{
				"x": 0.9886569913,
				"y": 0.2285703202,
				"z": 8.746251112,
				"element": "H" 
			},
			{
				"x": 1.3849475858,
				"y": 2.2832583869,
				"z": 7.3708208945,
				"element": "H" 
			},
			{
				"x": 1.7183795317,
				"y": 2.5097967017,
				"z": 9.0739846408,
				"element": "H" 
			},
			{
				"x": 4.1846037817,
				"y": 2.2162670849,
				"z": 8.6241137396,
				"element": "H" 
			},
			{
				"x": 3.8406741366,
				"y": 2.0585883848,
				"z": 6.9105640166,
				"element": "H" 
			},
			{
				"x": 2.8453231921,
				"y": 4.362807142,
				"z": 6.8884473183,
				"element": "H" 
			},
			{
				"x": 3.1256188163,
				"y": 4.5060897416,
				"z": 8.6099302953,
				"element": "H" 
			},
			{
				"x": 4.8629455379,
				"y": 5.7329587978,
				"z": 7.4639110257,
				"element": "H" 
			},
			{
				"x": 5.58135639,
				"y": 4.3563458791,
				"z": 8.2811621218,
				"element": "H" 
			},
			{
				"x": 6.62363569,
				"y": 4.6356021461,
				"z": 6.1153754178,
				"element": "H" 
			},
			{
				"x": 5.741744058,
				"y": 3.1246282765,
				"z": 6.1085598417,
				"element": "H" 
			},
			{
				"x": 5.4317468054,
				"y": 4.3899892441,
				"z": 3.9604230727,
				"element": "H" 
			},
			{
				"x": 4.7290677276,
				"y": 5.7481431845,
				"z": 4.8493670835,
				"element": "H" 
			},
			{
				"x": 3.8809687813,
				"y": 4.1993871014,
				"z": 4.7803719263,
				"element": "H" 
			}
		],
		 "valence_orbital": [ 
			{
				"type": "occ",
				"energy": -0.29752,
				"method": "rhf"
			},
			{
				"type": "occ",
				"energy": -0.29721,
				"method": "rhf"
			},
			{
				"type": "occ",
				"energy": -0.296,
				"method": "rhf"
			},
			{
				"type": "occ",
				"energy": -0.29319,
				"method": "rhf"
			},
			{
				"type": "occ",
				"energy": -0.29237,
				"method": "rhf"
			},
			{
				"type": "unocc",
				"energy": 0.06791,
				"method": "rhf"
			},
			{
				"type": "unocc",
				"energy": 0.07534,
				"method": "rhf"
			},
			{
				"type": "unocc",
				"energy": 0.09128,
				"method": "rhf"
			},
			{
				"type": "unocc",
				"energy": 0.09478,
				"method": "rhf"
			},
			{
				"type": "unocc",
				"energy": 0.09567,
				"method": "rhf"
			}
		],
		"cosmo_sigma_profile": { 
			"-0.025": 0.0,
			"-0.024": 0.0,
			"-0.023": 0.0,
			"-0.022": 0.0,
			"-0.021": 0.0,
			"-0.02": 0.0,
			"-0.019": 0.0,
			"-0.018": 0.0,
			"-0.017": 0.0,
			"-0.016": 0.0,
			"-0.015": 0.0,
			"-0.014": 0.0,
			"-0.013": 0.0,
			"-0.012": 0.0,
			"-0.011": 0.0,
			"-0.01": 0.0,
			"-0.009": 0.0,
			"-0.008": 0.0,
			"-0.007": 0.0,
			"-0.006": 0.0,
			"-0.005": 0.0,
			"-0.004": 0.0,
			"-0.003": 2.4508059909,
			"-0.002": 74.6948409704,
			"-0.001": 197.680004046,
			"0.0": 214.52831154,
			"0.001": 191.441864963,
			"0.002": 78.5192789935,
			"0.003": 2.38534683848,
			"0.004": 0.0,
			"0.005": 0.0,
			"0.006": 0.0,
			"0.007": 0.0,
			"0.008": 0.0,
			"0.009": 0.0,
			"0.01": 0.0,
			"0.011": 0.0,
			"0.012": 0.0,
			"0.013": 0.0,
			"0.014": 0.0,
			"0.015": 0.0,
			"0.016": 0.0,
			"0.017": 0.0,
			"0.018": 0.0,
			"0.019": 0.0,
			"0.02": 0.0,
			"0.021": 0.0,
			"0.022": 0.0,
			"0.023": 0.0,
			"0.024": 0.0,
			"0.025": 0.0
		}
	}
}
