{
	 "smiles": "CN1CCN(CC1)C1=NC2=C(SC3=C1C=C(Cl)C=C3)C=CC=C2", 
	 "Tm": 392.15, 
	 "num_atms": 41, 
	 "gaussian": { 
		 "optdone": 1, 
		 "sigma_profile": "yes", 
		 "theory": "DFT", 
		 "functional": "B3LYP", 
		 "basiset": "6-31G**", 
		 "properties": { 
			 "R2extent": 9163.7317, 
			 "electric_dipole_moment_norm": 0.800283668458, 
			 "electric_quadrupole_moment_norm": 12.7158411959, 
			 "total_energy": -1719.38008875, 
			 "HOMO_LUMO_gap": 0.15285, 
			 "cosmo_polarized_energy": -10.3, 
			 "cosmo_cavitation_energy": 45.19, 
			 "cosmo_dispersion_energy": -31.9, 
			 "cosmo_repulsion_energy": 2.38, 
			 "cosmo_total_nonelectrostatic_energy": 15.67, 
			 "SMD_solvation_energy": 2.25 
		},
		"coords": [
			{
				"x": -3.441123894,
				"y": -1.9090177099,
				"z": 3.1213860542,
				"element": "C" 
			},
			{
				"x": -3.0436426217,
				"y": -0.5068453452,
				"z": 3.0494119332,
				"element": "N" 
			},
			{
				"x": -3.4000578146,
				"y": 0.1549639304,
				"z": 1.7932669477,
				"element": "C" 
			},
			{
				"x": -2.4900268023,
				"y": -0.1958775698,
				"z": 0.6052059941,
				"element": "C" 
			},
			{
				"x": -1.0903074991,
				"y": 0.0666048555,
				"z": 0.9645088438,
				"element": "N" 
			},
			{
				"x": -0.6818425371,
				"y": -0.6322411427,
				"z": 2.1962932807,
				"element": "C" 
			},
			{
				"x": -1.6323415049,
				"y": -0.2673968464,
				"z": 3.3470989748,
				"element": "C" 
			},
			{
				"x": -0.1795904764,
				"y": 0.2460551392,
				"z": -0.0699689788,
				"element": "C" 
			},
			{
				"x": -0.6053578062,
				"y": 0.1502252613,
				"z": -1.2852030848,
				"element": "N" 
			},
			{
				"x": 0.1363630137,
				"y": 0.3358631925,
				"z": -2.4454681395,
				"element": "C" 
			},
			{
				"x": 1.4103506092,
				"y": -0.233015966,
				"z": -2.6876482781,
				"element": "C" 
			},
			{
				"x": 2.2348208294,
				"y": -1.178861011,
				"z": -1.4060631563,
				"element": "S" 
			},
			{
				"x": 2.3554397438,
				"y": 0.1312338459,
				"z": -0.1913292329,
				"element": "C" 
			},
			{
				"x": 1.186963492,
				"y": 0.7015948237,
				"z": 0.3457229292,
				"element": "C" 
			},
			{
				"x": 1.2998229995,
				"y": 1.7601933654,
				"z": 1.2608513342,
				"element": "C" 
			},
			{
				"x": 2.5567521307,
				"y": 2.2079820935,
				"z": 1.6544179545,
				"element": "C" 
			},
			{
				"x": 2.6782795161,
				"y": 3.5290949715,
				"z": 2.8062390798,
				"element": "Cl" 
			},
			{
				"x": 3.7208429699,
				"y": 1.6246959562,
				"z": 1.1529666954,
				"element": "C" 
			},
			{
				"x": 3.6098683459,
				"y": 0.5950071594,
				"z": 0.2211504024,
				"element": "C" 
			},
			{
				"x": 2.0262333428,
				"y": -0.0961909335,
				"z": -3.9366092003,
				"element": "C" 
			},
			{
				"x": 1.3987815956,
				"y": 0.6035546114,
				"z": -4.964976554,
				"element": "C" 
			},
			{
				"x": 0.1448233147,
				"y": 1.1787595235,
				"z": -4.7375703135,
				"element": "C" 
			},
			{
				"x": -0.4775204049,
				"y": 1.0374758912,
				"z": -3.5030439239,
				"element": "C" 
			},
			{
				"x": -3.2153629956,
				"y": -2.2949012002,
				"z": 4.1211736507,
				"element": "H" 
			},
			{
				"x": -4.5236775954,
				"y": -1.9816458374,
				"z": 2.9730672085,
				"element": "H" 
			},
			{
				"x": -2.9595782787,
				"y": -2.5796414577,
				"z": 2.3882680397,
				"element": "H" 
			},
			{
				"x": -4.437838255,
				"y": -0.0902816325,
				"z": 1.5423585265,
				"element": "H" 
			},
			{
				"x": -3.348585087,
				"y": 1.2395786427,
				"z": 1.9581519822,
				"element": "H" 
			},
			{
				"x": -2.6153962798,
				"y": -1.2467446328,
				"z": 0.3013141586,
				"element": "H" 
			},
			{
				"x": -2.7394562474,
				"y": 0.4120317649,
				"z": -0.265058501,
				"element": "H" 
			},
			{
				"x": -0.6937444381,
				"y": -1.7205202718,
				"z": 2.0226986752,
				"element": "H" 
			},
			{
				"x": 0.3405707595,
				"y": -0.3565556699,
				"z": 2.4562626899,
				"element": "H" 
			},
			{
				"x": -1.5086927194,
				"y": 0.8001180145,
				"z": 3.5745859882,
				"element": "H" 
			},
			{
				"x": -1.3531588192,
				"y": -0.8307675705,
				"z": 4.2442122375,
				"element": "H" 
			},
			{
				"x": 0.4031973533,
				"y": 2.2179938846,
				"z": 1.6626318441,
				"element": "H" 
			},
			{
				"x": 4.6930972592,
				"y": 1.9815469478,
				"z": 1.4741013752,
				"element": "H" 
			},
			{
				"x": 4.5043342639,
				"y": 0.147728122,
				"z": -0.1997572431,
				"element": "H" 
			},
			{
				"x": 3.0048508248,
				"y": -0.5403550578,
				"z": -4.0906177365,
				"element": "H" 
			},
			{
				"x": 1.8836320074,
				"y": 0.6998196741,
				"z": -5.9316180499,
				"element": "H" 
			},
			{
				"x": -0.3533300522,
				"y": 1.7309219156,
				"z": -5.5294791459,
				"element": "H" 
			},
			{
				"x": -1.4609922425,
				"y": 1.4598162683,
				"z": -3.3226352618,
				"element": "H" 
			}
		],
		 "valence_orbital": [ 
			{
				"type": "occ",
				"energy": -0.25178,
				"method": "rhf"
			},
			{
				"type": "occ",
				"energy": -0.24696,
				"method": "rhf"
			},
			{
				"type": "occ",
				"energy": -0.22662,
				"method": "rhf"
			},
			{
				"type": "occ",
				"energy": -0.21064,
				"method": "rhf"
			},
			{
				"type": "occ",
				"energy": -0.2017,
				"method": "rhf"
			},
			{
				"type": "unocc",
				"energy": -0.04885,
				"method": "rhf"
			},
			{
				"type": "unocc",
				"energy": -0.02921,
				"method": "rhf"
			},
			{
				"type": "unocc",
				"energy": -0.00848,
				"method": "rhf"
			},
			{
				"type": "unocc",
				"energy": -0.00386,
				"method": "rhf"
			},
			{
				"type": "unocc",
				"energy": 0.01824,
				"method": "rhf"
			}
		],
		"cosmo_sigma_profile": { 
			"-0.025": 0.0,
			"-0.024": 0.0,
			"-0.023": 0.0,
			"-0.022": 0.0,
			"-0.021": 0.0,
			"-0.02": 0.0,
			"-0.019": 0.0,
			"-0.018": 0.0,
			"-0.017": 0.0,
			"-0.016": 0.0,
			"-0.015": 0.0,
			"-0.014": 0.0,
			"-0.013": 0.0,
			"-0.012": 0.0,
			"-0.011": 0.0,
			"-0.01": 0.0,
			"-0.009": 0.0241919239523,
			"-0.008": 1.67725531681,
			"-0.007": 4.413409764,
			"-0.006": 10.0657395836,
			"-0.005": 14.3424054394,
			"-0.004": 34.0043767011,
			"-0.003": 45.0811980821,
			"-0.002": 37.7504496863,
			"-0.001": 33.158068145,
			"0.0": 31.7007145234,
			"0.001": 29.1240857888,
			"0.002": 29.5628291787,
			"0.003": 23.2570185775,
			"0.004": 25.6154680264,
			"0.005": 19.0980694115,
			"0.006": 6.59684327335,
			"0.007": 5.32517128177,
			"0.008": 3.91258607486,
			"0.009": 1.54238238615,
			"0.01": 1.52655259933,
			"0.011": 1.42404848089,
			"0.012": 1.11973307603,
			"0.013": 0.790121035003,
			"0.014": 0.687392237072,
			"0.015": 0.407108351652,
			"0.016": 0.408188925811,
			"0.017": 0.0776944833077,
			"0.018": 0.0,
			"0.019": 0.0,
			"0.02": 0.0,
			"0.021": 0.0,
			"0.022": 0.0,
			"0.023": 0.0,
			"0.024": 0.0,
			"0.025": 0.0
		}
	}
}
