{
	 "smiles": "CC1(C)CCC2=C(C1)SC(N)=C2C(=O)N1CCOCC1", 
	 "Tm": 412.15, 
	 "num_atms": 42, 
	 "gaussian": { 
		 "optdone": 1, 
		 "sigma_profile": "yes", 
		 "theory": "DFT", 
		 "functional": "B3LYP", 
		 "basiset": "6-31G**", 
		 "properties": { 
			 "R2extent": 8192.4609, 
			 "electric_dipole_moment_norm": 2.06092638636, 
			 "electric_quadrupole_moment_norm": 13.7681235279, 
			 "total_energy": -1242.99543138, 
			 "HOMO_LUMO_gap": 0.18051, 
			 "cosmo_polarized_energy": -15.32, 
			 "cosmo_cavitation_energy": 41.91, 
			 "cosmo_dispersion_energy": -30.1, 
			 "cosmo_repulsion_energy": 2.27, 
			 "cosmo_total_nonelectrostatic_energy": 14.09, 
			 "SMD_solvation_energy": 6.06 
		},
		"coords": [
			{
				"x": 2.2918114217,
				"y": -1.5750612568,
				"z": 1.4421076288,
				"element": "C" 
			},
			{
				"x": 0.9003073413,
				"y": -1.8323941296,
				"z": 2.0532341114,
				"element": "C" 
			},
			{
				"x": 1.0665058478,
				"y": -2.604239172,
				"z": 3.3731299536,
				"element": "C" 
			},
			{
				"x": 0.1635499721,
				"y": -0.4983543117,
				"z": 2.3250050342,
				"element": "C" 
			},
			{
				"x": -0.0721630484,
				"y": 0.354999361,
				"z": 1.0673365258,
				"element": "C" 
			},
			{
				"x": -0.5748800152,
				"y": -0.4818623298,
				"z": -0.0829608931,
				"element": "C" 
			},
			{
				"x": -0.4958073024,
				"y": -1.8410881331,
				"z": -0.0507005947,
				"element": "C" 
			},
			{
				"x": 0.0386155475,
				"y": -2.6791778045,
				"z": 1.0766646982,
				"element": "C" 
			},
			{
				"x": -1.1475102755,
				"y": -2.5556225901,
				"z": -1.5241445127,
				"element": "S" 
			},
			{
				"x": -1.5245690747,
				"y": -0.9743826565,
				"z": -2.177058882,
				"element": "C" 
			},
			{
				"x": -2.108354242,
				"y": -0.8755531032,
				"z": -3.434394333,
				"element": "N" 
			},
			{
				"x": -1.1422336123,
				"y": 0.035444985,
				"z": -1.3143863214,
				"element": "C" 
			},
			{
				"x": -1.4485525964,
				"y": 1.4750409151,
				"z": -1.5251472442,
				"element": "C" 
			},
			{
				"x": -1.9113143961,
				"y": 2.1843326722,
				"z": -0.631010167,
				"element": "O" 
			},
			{
				"x": -1.2564849981,
				"y": 1.9975403873,
				"z": -2.8000123218,
				"element": "N" 
			},
			{
				"x": -0.2023143818,
				"y": 1.5235299576,
				"z": -3.7180892736,
				"element": "C" 
			},
			{
				"x": 0.688578167,
				"y": 2.6916897165,
				"z": -4.1334753312,
				"element": "C" 
			},
			{
				"x": -0.0327264062,
				"y": 3.7180485353,
				"z": -4.8094442152,
				"element": "O" 
			},
			{
				"x": -1.3967651,
				"y": 3.8367429969,
				"z": -4.4096271576,
				"element": "C" 
			},
			{
				"x": -1.634384113,
				"y": 3.411225817,
				"z": -2.9667807162,
				"element": "C" 
			},
			{
				"x": 2.8440431332,
				"y": -2.5148734331,
				"z": 1.3284281304,
				"element": "H" 
			},
			{
				"x": 2.8850171866,
				"y": -0.91690304,
				"z": 2.0872577047,
				"element": "H" 
			},
			{
				"x": 2.224245043,
				"y": -1.1102458183,
				"z": 0.4543777545,
				"element": "H" 
			},
			{
				"x": 1.7055963066,
				"y": -2.0523556352,
				"z": 4.0716023955,
				"element": "H" 
			},
			{
				"x": 1.5279981839,
				"y": -3.5841180201,
				"z": 3.2033763397,
				"element": "H" 
			},
			{
				"x": 0.0998363396,
				"y": -2.7687174828,
				"z": 3.862576956,
				"element": "H" 
			},
			{
				"x": -0.8070089303,
				"y": -0.729373373,
				"z": 2.7841018298,
				"element": "H" 
			},
			{
				"x": 0.7258485666,
				"y": 0.0857478794,
				"z": 3.0641018622,
				"element": "H" 
			},
			{
				"x": -0.788859415,
				"y": 1.1543110442,
				"z": 1.2742381837,
				"element": "H" 
			},
			{
				"x": 0.8591696212,
				"y": 0.8595403276,
				"z": 0.7712466267,
				"element": "H" 
			},
			{
				"x": 0.6369963708,
				"y": -3.5166245153,
				"z": 0.6933367013,
				"element": "H" 
			},
			{
				"x": -0.7956589061,
				"y": -3.132571403,
				"z": 1.6323535395,
				"element": "H" 
			},
			{
				"x": -2.5209335513,
				"y": 0.0352625942,
				"z": -3.6020897336,
				"element": "H" 
			},
			{
				"x": -2.7466344175,
				"y": -1.6261339891,
				"z": -3.6657434916,
				"element": "H" 
			},
			{
				"x": 0.393086784,
				"y": 0.7585071594,
				"z": -3.2155351522,
				"element": "H" 
			},
			{
				"x": -0.6383925374,
				"y": 1.0596328215,
				"z": -4.6105282549,
				"element": "H" 
			},
			{
				"x": 1.4622492049,
				"y": 2.3393933256,
				"z": -4.8241763767,
				"element": "H" 
			},
			{
				"x": 1.1935383416,
				"y": 3.1021863207,
				"z": -3.2451344007,
				"element": "H" 
			},
			{
				"x": -1.6736190526,
				"y": 4.8885321819,
				"z": -4.534313522,
				"element": "H" 
			},
			{
				"x": -2.0393665311,
				"y": 3.2433043744,
				"z": -5.0799506272,
				"element": "H" 
			},
			{
				"x": -1.0609986202,
				"y": 4.0459224292,
				"z": -2.2789313329,
				"element": "H" 
			},
			{
				"x": -2.6875618556,
				"y": 3.5341163953,
				"z": -2.6987411205,
				"element": "H" 
			}
		],
		 "valence_orbital": [ 
			{
				"type": "occ",
				"energy": -0.257,
				"method": "rhf"
			},
			{
				"type": "occ",
				"energy": -0.25003,
				"method": "rhf"
			},
			{
				"type": "occ",
				"energy": -0.2405,
				"method": "rhf"
			},
			{
				"type": "occ",
				"energy": -0.23447,
				"method": "rhf"
			},
			{
				"type": "occ",
				"energy": -0.19302,
				"method": "rhf"
			},
			{
				"type": "unocc",
				"energy": -0.01251,
				"method": "rhf"
			},
			{
				"type": "unocc",
				"energy": 0.01754,
				"method": "rhf"
			},
			{
				"type": "unocc",
				"energy": 0.02357,
				"method": "rhf"
			},
			{
				"type": "unocc",
				"energy": 0.06518,
				"method": "rhf"
			},
			{
				"type": "unocc",
				"energy": 0.07692,
				"method": "rhf"
			}
		],
		"cosmo_sigma_profile": { 
			"-0.025": 0.0,
			"-0.024": 0.0,
			"-0.023": 0.0,
			"-0.022": 0.0,
			"-0.021": 0.0,
			"-0.02": 0.0,
			"-0.019": 0.0,
			"-0.018": 0.0,
			"-0.017": 0.0,
			"-0.016": 0.0,
			"-0.015": 0.0,
			"-0.014": 0.468560671861,
			"-0.013": 1.76862480193,
			"-0.012": 1.15457022634,
			"-0.011": 2.71068905143,
			"-0.01": 2.3799960944,
			"-0.009": 2.31809977021,
			"-0.008": 1.6512388817,
			"-0.007": 2.45123712757,
			"-0.006": 4.99436726295,
			"-0.005": 16.1846144607,
			"-0.004": 29.1423728732,
			"-0.003": 29.674489726,
			"-0.002": 44.2776205583,
			"-0.001": 36.9154781595,
			"0.0": 30.2761713927,
			"0.001": 27.8073035324,
			"0.002": 20.0239551647,
			"0.003": 11.2115246805,
			"0.004": 11.6922866662,
			"0.005": 11.6715923156,
			"0.006": 7.67110879759,
			"0.007": 3.70303537289,
			"0.008": 3.73816714149,
			"0.009": 3.80910755643,
			"0.01": 3.73529532487,
			"0.011": 2.993143977,
			"0.012": 3.28190612763,
			"0.013": 5.09051347149,
			"0.014": 4.44442706362,
			"0.015": 0.530202081953,
			"0.016": 0.0,
			"0.017": 0.0,
			"0.018": 0.0,
			"0.019": 0.0,
			"0.02": 0.0,
			"0.021": 0.0,
			"0.022": 0.0,
			"0.023": 0.0,
			"0.024": 0.0,
			"0.025": 0.0
		}
	}
}
