{
	 "smiles": "CC12CCC3C(CCC4CCCCC34C)C1CCC2=O", 
	 "Tm": 394.15, 
	 "num_atms": 50, 
	 "gaussian": { 
		 "optdone": 1, 
		 "sigma_profile": "yes", 
		 "theory": "DFT", 
		 "functional": "B3LYP", 
		 "basiset": "6-31G**", 
		 "properties": { 
			 "R2extent": 5897.7276, 
			 "electric_dipole_moment_norm": 3.02578057532, 
			 "electric_quadrupole_moment_norm": 13.9820589682, 
			 "total_energy": -817.340229186, 
			 "HOMO_LUMO_gap": 0.21991, 
			 "cosmo_polarized_energy": -7.09, 
			 "cosmo_cavitation_energy": 41.14, 
			 "cosmo_dispersion_energy": -29.71, 
			 "cosmo_repulsion_energy": 2.2, 
			 "cosmo_total_nonelectrostatic_energy": 13.63, 
			 "SMD_solvation_energy": 5.85 
		},
		"coords": [
			{
				"x": 0.6735202089,
				"y": 1.2018707858,
				"z": 2.5409219658,
				"element": "C" 
			},
			{
				"x": -0.5117416863,
				"y": 1.2147979053,
				"z": 1.5645813406,
				"element": "C" 
			},
			{
				"x": -1.2291154052,
				"y": -0.1865327975,
				"z": 1.5014825161,
				"element": "C" 
			},
			{
				"x": -0.9643718385,
				"y": -0.9841311295,
				"z": 0.2047202824,
				"element": "C" 
			},
			{
				"x": 0.4814568893,
				"y": -0.7493992239,
				"z": -0.2720920684,
				"element": "C" 
			},
			{
				"x": 0.5782365027,
				"y": 0.7179549763,
				"z": -0.7918766088,
				"element": "C" 
			},
			{
				"x": 0.1303061685,
				"y": 0.8400023,
				"z": -2.2645929777,
				"element": "C" 
			},
			{
				"x": 0.8304976383,
				"y": -0.1578560244,
				"z": -3.1945366448,
				"element": "C" 
			},
			{
				"x": 0.6788493024,
				"y": -1.6173938211,
				"z": -2.7222020584,
				"element": "C" 
			},
			{
				"x": -0.7427358,
				"y": -2.1577758733,
				"z": -3.0157653323,
				"element": "C" 
			},
			{
				"x": -1.0493340758,
				"y": -3.5197609529,
				"z": -2.3421931606,
				"element": "C" 
			},
			{
				"x": 0.2223564502,
				"y": -4.1783016921,
				"z": -1.7980501374,
				"element": "C" 
			},
			{
				"x": 0.9191809126,
				"y": -3.2725964229,
				"z": -0.7690139477,
				"element": "C" 
			},
			{
				"x": 1.1510025668,
				"y": -1.7910414513,
				"z": -1.245631679,
				"element": "C" 
			},
			{
				"x": 2.6837330897,
				"y": -1.5555277279,
				"z": -1.1921740118,
				"element": "C" 
			},
			{
				"x": -0.1784225162,
				"y": 1.7313003439,
				"z": 0.1362614433,
				"element": "C" 
			},
			{
				"x": -1.5387013962,
				"y": 2.2997170825,
				"z": -0.3616137968,
				"element": "C" 
			},
			{
				"x": -2.1172727623,
				"y": 3.0076456677,
				"z": 0.8706077352,
				"element": "C" 
			},
			{
				"x": -1.5613619396,
				"y": 2.2280551033,
				"z": 2.0627685905,
				"element": "C" 
			},
			{
				"x": -1.8885835522,
				"y": 2.3815077746,
				"z": 3.2206390229,
				"element": "O" 
			},
			{
				"x": 0.3073186409,
				"y": 1.0238506629,
				"z": 3.556409343,
				"element": "H" 
			},
			{
				"x": 1.1923789728,
				"y": 2.167116528,
				"z": 2.5399431036,
				"element": "H" 
			},
			{
				"x": 1.4046379519,
				"y": 0.427160378,
				"z": 2.2945387158,
				"element": "H" 
			},
			{
				"x": -2.3110469198,
				"y": -0.0740684437,
				"z": 1.6389127895,
				"element": "H" 
			},
			{
				"x": -0.8865904379,
				"y": -0.7695192235,
				"z": 2.3635387088,
				"element": "H" 
			},
			{
				"x": -1.6758638747,
				"y": -0.6884966066,
				"z": -0.5741607404,
				"element": "H" 
			},
			{
				"x": -1.1694604768,
				"y": -2.0381320077,
				"z": 0.409544408,
				"element": "H" 
			},
			{
				"x": 1.0959207882,
				"y": -0.8111022058,
				"z": 0.6360504516,
				"element": "H" 
			},
			{
				"x": 1.636694952,
				"y": 1.0020797467,
				"z": -0.7600642354,
				"element": "H" 
			},
			{
				"x": 0.316529085,
				"y": 1.8621903833,
				"z": -2.6171925797,
				"element": "H" 
			},
			{
				"x": -0.9525530393,
				"y": 0.6936074668,
				"z": -2.3383610544,
				"element": "H" 
			},
			{
				"x": 0.424012061,
				"y": -0.0601967645,
				"z": -4.2096024363,
				"element": "H" 
			},
			{
				"x": 1.8937096018,
				"y": 0.098164326,
				"z": -3.2717620963,
				"element": "H" 
			},
			{
				"x": 1.3662275804,
				"y": -2.221253293,
				"z": -3.3303303617,
				"element": "H" 
			},
			{
				"x": -1.5004440741,
				"y": -1.4241197654,
				"z": -2.7222132951,
				"element": "H" 
			},
			{
				"x": -0.832640412,
				"y": -2.251390926,
				"z": -4.10516506,
				"element": "H" 
			},
			{
				"x": -1.5530581015,
				"y": -4.1889905063,
				"z": -3.0488439464,
				"element": "H" 
			},
			{
				"x": -1.7495772741,
				"y": -3.3772014874,
				"z": -1.5099656263,
				"element": "H" 
			},
			{
				"x": -0.0170601347,
				"y": -5.1420224757,
				"z": -1.3327873601,
				"element": "H" 
			},
			{
				"x": 0.9066481793,
				"y": -4.4037499706,
				"z": -2.6265526378,
				"element": "H" 
			},
			{
				"x": 0.3321537075,
				"y": -3.2843779351,
				"z": 0.1554751005,
				"element": "H" 
			},
			{
				"x": 1.8833237228,
				"y": -3.7202877557,
				"z": -0.502618358,
				"element": "H" 
			},
			{
				"x": 3.059628208,
				"y": -1.7279829967,
				"z": -0.1773262821,
				"element": "H" 
			},
			{
				"x": 2.9837500314,
				"y": -0.5468300245,
				"z": -1.4850936715,
				"element": "H" 
			},
			{
				"x": 3.1993161355,
				"y": -2.257480164,
				"z": -1.8572924591,
				"element": "H" 
			},
			{
				"x": 0.4770954188,
				"y": 2.6056316142,
				"z": 0.2597657782,
				"element": "H" 
			},
			{
				"x": -2.2121280287,
				"y": 1.4942530819,
				"z": -0.6721001399,
				"element": "H" 
			},
			{
				"x": -1.4231719744,
				"y": 2.9687722266,
				"z": -1.2179620715,
				"element": "H" 
			},
			{
				"x": -3.2087759799,
				"y": 3.0663429438,
				"z": 0.908336215,
				"element": "H" 
			},
			{
				"x": -1.7413730665,
				"y": 4.0363983716,
				"z": 0.9558393251,
				"element": "H" 
			}
		],
		 "valence_orbital": [ 
			{
				"type": "occ",
				"energy": -0.29704,
				"method": "rhf"
			},
			{
				"type": "occ",
				"energy": -0.28196,
				"method": "rhf"
			},
			{
				"type": "occ",
				"energy": -0.27435,
				"method": "rhf"
			},
			{
				"type": "occ",
				"energy": -0.27214,
				"method": "rhf"
			},
			{
				"type": "occ",
				"energy": -0.2288,
				"method": "rhf"
			},
			{
				"type": "unocc",
				"energy": -0.00889,
				"method": "rhf"
			},
			{
				"type": "unocc",
				"energy": 0.06214,
				"method": "rhf"
			},
			{
				"type": "unocc",
				"energy": 0.0694,
				"method": "rhf"
			},
			{
				"type": "unocc",
				"energy": 0.08336,
				"method": "rhf"
			},
			{
				"type": "unocc",
				"energy": 0.10043,
				"method": "rhf"
			}
		],
		"cosmo_sigma_profile": { 
			"-0.025": 0.0,
			"-0.024": 0.0,
			"-0.023": 0.0,
			"-0.022": 0.0,
			"-0.021": 0.0,
			"-0.02": 0.0,
			"-0.019": 0.0,
			"-0.018": 0.0,
			"-0.017": 0.0,
			"-0.016": 0.0,
			"-0.015": 0.0,
			"-0.014": 0.0,
			"-0.013": 0.0,
			"-0.012": 0.0,
			"-0.011": 0.0,
			"-0.01": 0.0,
			"-0.009": 0.0,
			"-0.008": 0.0,
			"-0.007": 0.0,
			"-0.006": 0.571138409778,
			"-0.005": 6.40454910052,
			"-0.004": 11.0152330084,
			"-0.003": 25.6526569362,
			"-0.002": 48.8155631841,
			"-0.001": 65.0731184739,
			"0.0": 61.1171479186,
			"0.001": 46.3287553656,
			"0.002": 22.9739404772,
			"0.003": 2.80094474259,
			"0.004": 1.66482067261,
			"0.005": 2.10016984538,
			"0.006": 2.07981267993,
			"0.007": 1.46530747986,
			"0.008": 1.70246882651,
			"0.009": 1.94424951891,
			"0.01": 1.67786138275,
			"0.011": 2.72261359232,
			"0.012": 4.5074353443,
			"0.013": 3.26189676119,
			"0.014": 0.482361737271,
			"0.015": 0.0,
			"0.016": 0.0,
			"0.017": 0.0,
			"0.018": 0.0,
			"0.019": 0.0,
			"0.02": 0.0,
			"0.021": 0.0,
			"0.022": 0.0,
			"0.023": 0.0,
			"0.024": 0.0,
			"0.025": 0.0
		}
	}
}
