{
	 "smiles": "OC(=O)CCN1CCNCC1", 
	 "Tm": 351.65, 
	 "num_atms": 25, 
	 "gaussian": { 
		 "optdone": 1, 
		 "sigma_profile": "yes", 
		 "theory": "DFT", 
		 "functional": "B3LYP", 
		 "basiset": "6-31G**", 
		 "properties": { 
			 "R2extent": 2189.4267, 
			 "electric_dipole_moment_norm": 3.71376267416, 
			 "electric_quadrupole_moment_norm": 17.5618891566, 
			 "total_energy": -535.114245288, 
			 "HOMO_LUMO_gap": 0.22203, 
			 "cosmo_polarized_energy": -16.94, 
			 "cosmo_cavitation_energy": 26.17, 
			 "cosmo_dispersion_energy": -19.31, 
			 "cosmo_repulsion_energy": 1.57, 
			 "cosmo_total_nonelectrostatic_energy": 8.44, 
			 "SMD_solvation_energy": 0.39 
		},
		"coords": [
			{
				"x": 1.9278279848,
				"y": -2.878880013,
				"z": -0.347638122,
				"element": "O" 
			},
			{
				"x": 0.6788075811,
				"y": -2.4398108696,
				"z": -0.0323287789,
				"element": "C" 
			},
			{
				"x": -0.2750853852,
				"y": -2.8492479136,
				"z": -0.6456992848,
				"element": "O" 
			},
			{
				"x": 0.5929486467,
				"y": -1.4765709684,
				"z": 1.1482345216,
				"element": "C" 
			},
			{
				"x": -0.5940116632,
				"y": -0.5044803627,
				"z": 1.0797996033,
				"element": "C" 
			},
			{
				"x": -0.2930833736,
				"y": 0.7051701177,
				"z": 0.3198905207,
				"element": "N" 
			},
			{
				"x": -1.2960221409,
				"y": 1.7543631862,
				"z": 0.5065815144,
				"element": "C" 
			},
			{
				"x": -0.7169066994,
				"y": 3.1049580361,
				"z": 0.0038065845,
				"element": "C" 
			},
			{
				"x": 0.3065597885,
				"y": 2.9441645063,
				"z": -1.037867492,
				"element": "N" 
			},
			{
				"x": -0.0225448363,
				"y": 1.8027645381,
				"z": -1.8893012648,
				"element": "C" 
			},
			{
				"x": -0.0742914459,
				"y": 0.4567378956,
				"z": -1.114544393,
				"element": "C" 
			},
			{
				"x": 2.5829501558,
				"y": -2.4534221266,
				"z": 0.2231031931,
				"element": "H" 
			},
			{
				"x": 0.4862359334,
				"y": -2.1061782389,
				"z": 2.0414630241,
				"element": "H" 
			},
			{
				"x": 1.5205388569,
				"y": -0.9038237647,
				"z": 1.2698760043,
				"element": "H" 
			},
			{
				"x": -1.4654938202,
				"y": -1.054902594,
				"z": 0.6833627711,
				"element": "H" 
			},
			{
				"x": -0.8397984746,
				"y": -0.1926465824,
				"z": 2.1006260361,
				"element": "H" 
			},
			{
				"x": -2.2411677713,
				"y": 1.5160961832,
				"z": -0.018932967,
				"element": "H" 
			},
			{
				"x": -1.5429512799,
				"y": 1.8242145534,
				"z": 1.5715937537,
				"element": "H" 
			},
			{
				"x": -0.2656134881,
				"y": 3.6564169924,
				"z": 0.834588534,
				"element": "H" 
			},
			{
				"x": -1.5336946656,
				"y": 3.7254689744,
				"z": -0.3881706991,
				"element": "H" 
			},
			{
				"x": 1.191533377,
				"y": 2.7458309,
				"z": -0.5771664808,
				"element": "H" 
			},
			{
				"x": 0.7016636992,
				"y": 1.735646964,
				"z": -2.7075253338,
				"element": "H" 
			},
			{
				"x": -0.9961045996,
				"y": 2.0067184104,
				"z": -2.3511247726,
				"element": "H" 
			},
			{
				"x": -0.855515732,
				"y": -0.1976536319,
				"z": -1.541775231,
				"element": "H" 
			},
			{
				"x": 0.8786193522,
				"y": -0.074034192,
				"z": -1.2328512412,
				"element": "H" 
			}
		],
		 "valence_orbital": [ 
			{
				"type": "occ",
				"energy": -0.32687,
				"method": "rhf"
			},
			{
				"type": "occ",
				"energy": -0.31634,
				"method": "rhf"
			},
			{
				"type": "occ",
				"energy": -0.27389,
				"method": "rhf"
			},
			{
				"type": "occ",
				"energy": -0.21965,
				"method": "rhf"
			},
			{
				"type": "occ",
				"energy": -0.21434,
				"method": "rhf"
			},
			{
				"type": "unocc",
				"energy": 0.00769,
				"method": "rhf"
			},
			{
				"type": "unocc",
				"energy": 0.04897,
				"method": "rhf"
			},
			{
				"type": "unocc",
				"energy": 0.07444,
				"method": "rhf"
			},
			{
				"type": "unocc",
				"energy": 0.10443,
				"method": "rhf"
			},
			{
				"type": "unocc",
				"energy": 0.10931,
				"method": "rhf"
			}
		],
		"cosmo_sigma_profile": { 
			"-0.025": 0.0,
			"-0.024": 0.0,
			"-0.023": 0.0,
			"-0.022": 0.0,
			"-0.021": 0.0,
			"-0.02": 0.0,
			"-0.019": 0.532614305768,
			"-0.018": 1.29255428062,
			"-0.017": 0.831138733915,
			"-0.016": 0.811532958914,
			"-0.015": 1.29194306479,
			"-0.014": 0.630120359592,
			"-0.013": 1.33448017681,
			"-0.012": 1.09359813168,
			"-0.011": 1.31148248284,
			"-0.01": 0.814876222919,
			"-0.009": 1.87909211697,
			"-0.008": 2.76463752433,
			"-0.007": 5.84967413725,
			"-0.006": 4.52552683224,
			"-0.005": 8.49598960492,
			"-0.004": 15.2987394209,
			"-0.003": 21.4681204475,
			"-0.002": 24.5079351223,
			"-0.001": 27.1393268595,
			"0.0": 14.2419880482,
			"0.001": 6.81615201183,
			"0.002": 4.72156845885,
			"0.003": 4.65988561069,
			"0.004": 4.06696198452,
			"0.005": 4.55470090574,
			"0.006": 4.32981355716,
			"0.007": 3.8267290354,
			"0.008": 3.35391843148,
			"0.009": 5.54335448023,
			"0.01": 5.33332116106,
			"0.011": 5.87710094946,
			"0.012": 6.04731828394,
			"0.013": 3.48138377926,
			"0.014": 0.747180059578,
			"0.015": 0.705250260389,
			"0.016": 0.451749254229,
			"0.017": 0.754809516552,
			"0.018": 0.394072827384,
			"0.019": 0.436873174241,
			"0.02": 0.0,
			"0.021": 0.0,
			"0.022": 0.0,
			"0.023": 0.0,
			"0.024": 0.0,
			"0.025": 0.0
		}
	}
}
