{
	 "smiles": "CC1=CC(Br)=C(C)C=C1Br", 
	 "Tm": 346.65, 
	 "num_atms": 18, 
	 "gaussian": { 
		 "optdone": 1, 
		 "sigma_profile": "yes", 
		 "theory": "DFT", 
		 "functional": "B3LYP", 
		 "basiset": "6-31G**", 
		 "properties": { 
			 "R2extent": 5134.9878, 
			 "electric_dipole_moment_norm": 0.0, 
			 "electric_quadrupole_moment_norm": 8.2143708067, 
			 "total_energy": -5452.49747443, 
			 "HOMO_LUMO_gap": 0.21263, 
			 "cosmo_polarized_energy": -3.6, 
			 "cosmo_cavitation_energy": 25.76, 
			 "cosmo_dispersion_energy": -19.64, 
			 "cosmo_repulsion_energy": 1.58, 
			 "cosmo_total_nonelectrostatic_energy": 7.7, 
			 "SMD_solvation_energy": 2.32 
		},
		"coords": [
			{
				"x": 0.9275442218,
				"y": 2.8379018968,
				"z": 0.458760392,
				"element": "C" 
			},
			{
				"x": -0.1049375692,
				"y": 1.936497425,
				"z": -0.1661892926,
				"element": "C" 
			},
			{
				"x": 0.0427620202,
				"y": 1.4889116066,
				"z": -1.4849578983,
				"element": "C" 
			},
			{
				"x": -0.9004725998,
				"y": 0.6557084592,
				"z": -2.0798101584,
				"element": "C" 
			},
			{
				"x": -0.5952358284,
				"y": 0.1057896925,
				"z": -3.8891757816,
				"element": "Br" 
			},
			{
				"x": -2.0443173325,
				"y": 0.2195563698,
				"z": -1.3985424612,
				"element": "C" 
			},
			{
				"x": -3.0767991303,
				"y": -0.6818468,
				"z": -2.0234933583,
				"element": "C" 
			},
			{
				"x": -2.1920192581,
				"y": 0.6671451937,
				"z": -0.0797760077,
				"element": "C" 
			},
			{
				"x": -1.2487831564,
				"y": 1.5003465041,
				"z": 0.5150775408,
				"element": "C" 
			},
			{
				"x": -1.554020399,
				"y": 2.0502679966,
				"z": 2.324442593,
				"element": "Br" 
			},
			{
				"x": 1.7333558229,
				"y": 3.052147593,
				"z": -0.2472379222,
				"element": "H" 
			},
			{
				"x": 0.4839843,
				"y": 3.7878130831,
				"z": 0.775378429,
				"element": "H" 
			},
			{
				"x": 1.3639900823,
				"y": 2.3796678888,
				"z": 1.3525418751,
				"element": "H" 
			},
			{
				"x": 0.911883865,
				"y": 1.7989101164,
				"z": -2.0549264393,
				"element": "H" 
			},
			{
				"x": -2.6332401812,
				"y": -1.6317607243,
				"z": -2.3401067257,
				"element": "H" 
			},
			{
				"x": -3.5132388958,
				"y": -0.2236169228,
				"z": -2.9172799256,
				"element": "H" 
			},
			{
				"x": -3.8826145336,
				"y": -0.8960880355,
				"z": -1.3174982855,
				"element": "H" 
			},
			{
				"x": -3.0611414281,
				"y": 0.357148657,
				"z": 0.4901934264,
				"element": "H" 
			}
		],
		 "valence_orbital": [ 
			{
				"type": "occ",
				"energy": -0.29168,
				"method": "rhf"
			},
			{
				"type": "occ",
				"energy": -0.29069,
				"method": "rhf"
			},
			{
				"type": "occ",
				"energy": -0.28853,
				"method": "rhf"
			},
			{
				"type": "occ",
				"energy": -0.25712,
				"method": "rhf"
			},
			{
				"type": "occ",
				"energy": -0.23503,
				"method": "rhf"
			},
			{
				"type": "unocc",
				"energy": -0.0224,
				"method": "rhf"
			},
			{
				"type": "unocc",
				"energy": -0.01529,
				"method": "rhf"
			},
			{
				"type": "unocc",
				"energy": -0.00041,
				"method": "rhf"
			},
			{
				"type": "unocc",
				"energy": 0.01268,
				"method": "rhf"
			},
			{
				"type": "unocc",
				"energy": 0.10774,
				"method": "rhf"
			}
		],
		"cosmo_sigma_profile": { 
			"-0.025": 0.0,
			"-0.024": 0.0,
			"-0.023": 0.0,
			"-0.022": 0.0,
			"-0.021": 0.0,
			"-0.02": 0.0,
			"-0.019": 0.0,
			"-0.018": 0.0,
			"-0.017": 0.0,
			"-0.016": 0.0,
			"-0.015": 0.0,
			"-0.014": 0.0,
			"-0.013": 0.0,
			"-0.012": 0.0,
			"-0.011": 0.0,
			"-0.01": 0.0,
			"-0.009": 0.0,
			"-0.008": 0.0555746160076,
			"-0.007": 3.62247560341,
			"-0.006": 4.85586798261,
			"-0.005": 8.54910716,
			"-0.004": 14.640928661,
			"-0.003": 16.5233278931,
			"-0.002": 18.2847764481,
			"-0.001": 24.8830178524,
			"0.0": 23.4327260311,
			"0.001": 17.4966478904,
			"0.002": 25.880918595,
			"0.003": 24.9076592121,
			"0.004": 19.5412056855,
			"0.005": 8.52761539832,
			"0.006": 0.0,
			"0.007": 0.0,
			"0.008": 0.0,
			"0.009": 0.0,
			"0.01": 0.0,
			"0.011": 0.0,
			"0.012": 0.0,
			"0.013": 0.0,
			"0.014": 0.0,
			"0.015": 0.0,
			"0.016": 0.0,
			"0.017": 0.0,
			"0.018": 0.0,
			"0.019": 0.0,
			"0.02": 0.0,
			"0.021": 0.0,
			"0.022": 0.0,
			"0.023": 0.0,
			"0.024": 0.0,
			"0.025": 0.0
		}
	}
}
