{
	 "smiles": "NNC(=O)C1=CN=CC=C1", 
	 "Tm": 434.65, 
	 "num_atms": 17, 
	 "gaussian": { 
		 "optdone": 1, 
		 "sigma_profile": "yes", 
		 "theory": "DFT", 
		 "functional": "B3LYP", 
		 "basiset": "6-31G**", 
		 "properties": { 
			 "R2extent": 1884.533, 
			 "electric_dipole_moment_norm": 5.68700354932, 
			 "electric_quadrupole_moment_norm": 6.86044996556, 
			 "total_energy": -472.300806535, 
			 "HOMO_LUMO_gap": 0.20235, 
			 "cosmo_polarized_energy": -16.57, 
			 "cosmo_cavitation_energy": 21.48, 
			 "cosmo_dispersion_energy": -16.09, 
			 "cosmo_repulsion_energy": 1.33, 
			 "cosmo_total_nonelectrostatic_energy": 6.72, 
			 "SMD_solvation_energy": 3.8 
		},
		"coords": [
			{
				"x": -0.4619659316,
				"y": -0.0315082366,
				"z": 1.9789228715,
				"element": "N" 
			},
			{
				"x": -0.0500205168,
				"y": 0.796306391,
				"z": 0.9222123693,
				"element": "N" 
			},
			{
				"x": -0.283961436,
				"y": 0.5129164607,
				"z": -0.4110168624,
				"element": "C" 
			},
			{
				"x": -0.2278969601,
				"y": 1.4301979969,
				"z": -1.2235592751,
				"element": "O" 
			},
			{
				"x": -0.564122696,
				"y": -0.8931221385,
				"z": -0.8470518697,
				"element": "C" 
			},
			{
				"x": -1.2328605084,
				"y": -1.0425037312,
				"z": -2.0732425652,
				"element": "C" 
			},
			{
				"x": -1.523046815,
				"y": -2.2206434987,
				"z": -2.6318159154,
				"element": "N" 
			},
			{
				"x": -1.123691098,
				"y": -3.3205115341,
				"z": -1.9788151699,
				"element": "C" 
			},
			{
				"x": -0.4344366402,
				"y": -3.2906670953,
				"z": -0.7662852433,
				"element": "C" 
			},
			{
				"x": -0.1529408446,
				"y": -2.0563550019,
				"z": -0.1851859196,
				"element": "C" 
			},
			{
				"x": 0.2670267302,
				"y": -0.0575773274,
				"z": 2.686188961,
				"element": "H" 
			},
			{
				"x": -1.3153564501,
				"y": 0.3256644249,
				"z": 2.4049936269,
				"element": "H" 
			},
			{
				"x": 0.0407093761,
				"y": 1.7973725973,
				"z": 1.0779375596,
				"element": "H" 
			},
			{
				"x": -1.5387831774,
				"y": -0.1506809733,
				"z": -2.6136982959,
				"element": "H" 
			},
			{
				"x": -1.3631906532,
				"y": -4.2716035261,
				"z": -2.4519797977,
				"element": "H" 
			},
			{
				"x": -0.1253567642,
				"y": -4.2152183498,
				"z": -0.2886585184,
				"element": "H" 
			},
			{
				"x": 0.3698943851,
				"y": -1.995366458,
				"z": 0.7599540445,
				"element": "H" 
			}
		],
		 "valence_orbital": [ 
			{
				"type": "occ",
				"energy": -0.2811,
				"method": "rhf"
			},
			{
				"type": "occ",
				"energy": -0.27021,
				"method": "rhf"
			},
			{
				"type": "occ",
				"energy": -0.26514,
				"method": "rhf"
			},
			{
				"type": "occ",
				"energy": -0.25469,
				"method": "rhf"
			},
			{
				"type": "occ",
				"energy": -0.24473,
				"method": "rhf"
			},
			{
				"type": "unocc",
				"energy": -0.04238,
				"method": "rhf"
			},
			{
				"type": "unocc",
				"energy": -0.01717,
				"method": "rhf"
			},
			{
				"type": "unocc",
				"energy": 0.04684,
				"method": "rhf"
			},
			{
				"type": "unocc",
				"energy": 0.05891,
				"method": "rhf"
			},
			{
				"type": "unocc",
				"energy": 0.10314,
				"method": "rhf"
			}
		],
		"cosmo_sigma_profile": { 
			"-0.025": 0.0,
			"-0.024": 0.0,
			"-0.023": 0.0,
			"-0.022": 0.0,
			"-0.021": 0.0,
			"-0.02": 0.0,
			"-0.019": 0.0,
			"-0.018": 0.0,
			"-0.017": 0.0,
			"-0.016": 0.0,
			"-0.015": 0.0,
			"-0.014": 0.142066953426,
			"-0.013": 1.16958763668,
			"-0.012": 4.32452273322,
			"-0.011": 5.59080482485,
			"-0.01": 4.67846119622,
			"-0.009": 4.45993104832,
			"-0.008": 3.13431675014,
			"-0.007": 6.09505794884,
			"-0.006": 8.22113995612,
			"-0.005": 9.47463573732,
			"-0.004": 7.23839669519,
			"-0.003": 8.48544879148,
			"-0.002": 8.77695327216,
			"-0.001": 9.67535488319,
			"0.0": 10.3000820042,
			"0.001": 13.5402011302,
			"0.002": 14.0375084383,
			"0.003": 6.77409485291,
			"0.004": 5.99924179675,
			"0.005": 5.43625361208,
			"0.006": 2.81462931977,
			"0.007": 4.08855465826,
			"0.008": 3.55320240981,
			"0.009": 1.97180824102,
			"0.01": 3.70478979665,
			"0.011": 3.47718848159,
			"0.012": 2.93977058063,
			"0.013": 5.67826117807,
			"0.014": 3.28924080758,
			"0.015": 0.958689677538,
			"0.016": 0.88775491356,
			"0.017": 0.0846998699691,
			"0.018": 0.0,
			"0.019": 0.0,
			"0.02": 0.0,
			"0.021": 0.0,
			"0.022": 0.0,
			"0.023": 0.0,
			"0.024": 0.0,
			"0.025": 0.0
		}
	}
}
