{
	 "smiles": "OC1=CC2=C(OC1=O)C=CC=C2", 
	 "Tm": 427.15, 
	 "num_atms": 18, 
	 "gaussian": { 
		 "optdone": 1, 
		 "sigma_profile": "yes", 
		 "theory": "DFT", 
		 "functional": "B3LYP", 
		 "basiset": "6-31G**", 
		 "properties": { 
			 "R2extent": 2353.1956, 
			 "electric_dipole_moment_norm": 3.26939988683, 
			 "electric_quadrupole_moment_norm": 6.92183171422, 
			 "total_energy": -572.249425197, 
			 "HOMO_LUMO_gap": 0.16249, 
			 "cosmo_polarized_energy": -9.0, 
			 "cosmo_cavitation_energy": 22.59, 
			 "cosmo_dispersion_energy": -17.32, 
			 "cosmo_repulsion_energy": 1.35, 
			 "cosmo_total_nonelectrostatic_energy": 6.62, 
			 "SMD_solvation_energy": 5.4 
		},
		"coords": [
			{
				"x": -2.167520596,
				"y": 2.3589525373,
				"z": 2.8494848924,
				"element": "O" 
			},
			{
				"x": -1.3744638076,
				"y": 1.7627129879,
				"z": 1.9382373598,
				"element": "C" 
			},
			{
				"x": -1.3458208767,
				"y": 0.4281274443,
				"z": 1.7066250585,
				"element": "C" 
			},
			{
				"x": -0.4536588394,
				"y": -0.0966727826,
				"z": 0.7036385791,
				"element": "C" 
			},
			{
				"x": 0.3645536841,
				"y": 0.8023043709,
				"z": -0.0073627573,
				"element": "C" 
			},
			{
				"x": 0.3171118821,
				"y": 2.1563055719,
				"z": 0.246619265,
				"element": "O" 
			},
			{
				"x": -0.5125502976,
				"y": 2.686618153,
				"z": 1.1857771142,
				"element": "C" 
			},
			{
				"x": -0.5315732411,
				"y": 3.8881109451,
				"z": 1.3872203118,
				"element": "O" 
			},
			{
				"x": 1.253169135,
				"y": 0.3759007561,
				"z": -0.9917598787,
				"element": "C" 
			},
			{
				"x": 1.3352029844,
				"y": -0.98280888,
				"z": -1.2822416519,
				"element": "C" 
			},
			{
				"x": 0.5336586084,
				"y": -1.9033388745,
				"z": -0.5917651715,
				"element": "C" 
			},
			{
				"x": -0.3481935913,
				"y": -1.4654551426,
				"z": 0.387364916,
				"element": "C" 
			},
			{
				"x": -1.9661529891,
				"y": 3.3123492608,
				"z": 2.7853675627,
				"element": "H" 
			},
			{
				"x": -1.9882997802,
				"y": -0.2406049562,
				"z": 2.2705567934,
				"element": "H" 
			},
			{
				"x": 1.8597920058,
				"y": 1.111735809,
				"z": -1.5083960581,
				"element": "H" 
			},
			{
				"x": 2.0240751942,
				"y": -1.326566933,
				"z": -2.0473665575,
				"element": "H" 
			},
			{
				"x": 0.6020430474,
				"y": -2.9617674806,
				"z": -0.8226994635,
				"element": "H" 
			},
			{
				"x": -0.9709725223,
				"y": -2.1751027867,
				"z": 0.9246996856,
				"element": "H" 
			}
		],
		 "valence_orbital": [ 
			{
				"type": "occ",
				"energy": -0.34288,
				"method": "rhf"
			},
			{
				"type": "occ",
				"energy": -0.30573,
				"method": "rhf"
			},
			{
				"type": "occ",
				"energy": -0.2962,
				"method": "rhf"
			},
			{
				"type": "occ",
				"energy": -0.2555,
				"method": "rhf"
			},
			{
				"type": "occ",
				"energy": -0.22474,
				"method": "rhf"
			},
			{
				"type": "unocc",
				"energy": -0.06225,
				"method": "rhf"
			},
			{
				"type": "unocc",
				"energy": -0.0146,
				"method": "rhf"
			},
			{
				"type": "unocc",
				"energy": -0.00283,
				"method": "rhf"
			},
			{
				"type": "unocc",
				"energy": 0.07899,
				"method": "rhf"
			},
			{
				"type": "unocc",
				"energy": 0.09111,
				"method": "rhf"
			}
		],
		"cosmo_sigma_profile": { 
			"-0.025": 0.0,
			"-0.024": 0.0,
			"-0.023": 0.0,
			"-0.022": 0.0,
			"-0.021": 0.0,
			"-0.02": 0.0,
			"-0.019": 0.0,
			"-0.018": 0.0,
			"-0.017": 0.0,
			"-0.016": 0.0,
			"-0.015": 0.0977196240611,
			"-0.014": 0.423879541038,
			"-0.013": 1.01839700083,
			"-0.012": 0.406414360486,
			"-0.011": 0.408456192885,
			"-0.01": 0.624932412005,
			"-0.009": 1.31088409663,
			"-0.008": 3.43110138117,
			"-0.007": 7.55761923249,
			"-0.006": 12.4047090222,
			"-0.005": 13.3800478804,
			"-0.004": 13.0811826578,
			"-0.003": 10.9499807608,
			"-0.002": 10.1324275075,
			"-0.001": 10.7100267005,
			"0.0": 12.2180535579,
			"0.001": 15.5464838768,
			"0.002": 14.7103188448,
			"0.003": 12.2115069293,
			"0.004": 10.7670390454,
			"0.005": 4.11084083634,
			"0.006": 4.08693243807,
			"0.007": 3.03046767024,
			"0.008": 4.16735426231,
			"0.009": 3.68430768851,
			"0.01": 5.07839162052,
			"0.011": 4.14064312583,
			"0.012": 2.09151883089,
			"0.013": 0.335404760166,
			"0.014": 0.0,
			"0.015": 0.0,
			"0.016": 0.0,
			"0.017": 0.0,
			"0.018": 0.0,
			"0.019": 0.0,
			"0.02": 0.0,
			"0.021": 0.0,
			"0.022": 0.0,
			"0.023": 0.0,
			"0.024": 0.0,
			"0.025": 0.0
		}
	}
}
