{
	 "smiles": "CC(C)[C@H](NC(=O)C1=C(F)C=CC=C1F)C(O)=O", 
	 "Tm": 446.15, 
	 "num_atms": 31, 
	 "gaussian": { 
		 "optdone": 1, 
		 "sigma_profile": "yes", 
		 "theory": "DFT", 
		 "functional": "B3LYP", 
		 "basiset": "6-31G**", 
		 "properties": { 
			 "R2extent": 5132.5133, 
			 "electric_dipole_moment_norm": 2.52125764451, 
			 "electric_quadrupole_moment_norm": 22.2801567894, 
			 "total_energy": -945.242256398, 
			 "HOMO_LUMO_gap": 0.20983, 
			 "cosmo_polarized_energy": -15.54, 
			 "cosmo_cavitation_energy": 35.85, 
			 "cosmo_dispersion_energy": -24.28, 
			 "cosmo_repulsion_energy": 1.84, 
			 "cosmo_total_nonelectrostatic_energy": 13.42, 
			 "SMD_solvation_energy": 8.49 
		},
		"coords": [
			{
				"x": -2.7880597257,
				"y": 0.9120287569,
				"z": 0.1537716968,
				"element": "C" 
			},
			{
				"x": -2.3179352024,
				"y": 0.0652038546,
				"z": 1.3434156261,
				"element": "C" 
			},
			{
				"x": -2.5102754851,
				"y": -1.4334481875,
				"z": 1.0696755606,
				"element": "C" 
			},
			{
				"x": -0.8384220103,
				"y": 0.4013492522,
				"z": 1.7181694188,
				"element": "C" 
			},
			{
				"x": 0.1247675039,
				"y": 0.0065451702,
				"z": 0.7089392901,
				"element": "N" 
			},
			{
				"x": 0.6526285144,
				"y": 0.898925645,
				"z": -0.1791569375,
				"element": "C" 
			},
			{
				"x": 0.295114421,
				"y": 2.0692945343,
				"z": -0.241224874,
				"element": "O" 
			},
			{
				"x": 1.7164514735,
				"y": 0.3465929095,
				"z": -1.0979759139,
				"element": "C" 
			},
			{
				"x": 1.700463292,
				"y": -0.9490550857,
				"z": -1.6319880844,
				"element": "C" 
			},
			{
				"x": 0.7198531624,
				"y": -1.8036741997,
				"z": -1.2524282801,
				"element": "F" 
			},
			{
				"x": 2.640342556,
				"y": -1.4189135643,
				"z": -2.5394514549,
				"element": "C" 
			},
			{
				"x": 3.666278983,
				"y": -0.5632682204,
				"z": -2.9383115915,
				"element": "C" 
			},
			{
				"x": 3.741227414,
				"y": 0.7329588233,
				"z": -2.4314517621,
				"element": "C" 
			},
			{
				"x": 2.7723885994,
				"y": 1.1652203361,
				"z": -1.5324911132,
				"element": "C" 
			},
			{
				"x": 2.8833625905,
				"y": 2.4079485834,
				"z": -1.04788923,
				"element": "F" 
			},
			{
				"x": -0.4543626196,
				"y": -0.2865258802,
				"z": 3.0203141078,
				"element": "C" 
			},
			{
				"x": -1.0958319533,
				"y": 0.2485040065,
				"z": 4.0796932666,
				"element": "O" 
			},
			{
				"x": 0.3067947632,
				"y": -1.2266317161,
				"z": 3.114186589,
				"element": "O" 
			},
			{
				"x": -2.2294861648,
				"y": 0.6640828422,
				"z": -0.7536864934,
				"element": "H" 
			},
			{
				"x": -3.848901277,
				"y": 0.7248128599,
				"z": -0.0437680906,
				"element": "H" 
			},
			{
				"x": -2.6546736428,
				"y": 1.9811817181,
				"z": 0.3401752111,
				"element": "H" 
			},
			{
				"x": -2.9155478777,
				"y": 0.3427622959,
				"z": 2.2210363855,
				"element": "H" 
			},
			{
				"x": -2.2302710333,
				"y": -2.0534054111,
				"z": 1.928043675,
				"element": "H" 
			},
			{
				"x": -3.5577910527,
				"y": -1.6455389306,
				"z": 0.8340888842,
				"element": "H" 
			},
			{
				"x": -1.9049276536,
				"y": -1.7504853799,
				"z": 0.2136153358,
				"element": "H" 
			},
			{
				"x": -0.7568430673,
				"y": 1.4844554841,
				"z": 1.8516900673,
				"element": "H" 
			},
			{
				"x": 0.5248747144,
				"y": -0.9163128343,
				"z": 0.8011573149,
				"element": "H" 
			},
			{
				"x": 2.5540845412,
				"y": -2.4323110499,
				"z": -2.9138730595,
				"element": "H" 
			},
			{
				"x": 4.413814217,
				"y": -0.9105938542,
				"z": -3.644218206,
				"element": "H" 
			},
			{
				"x": 4.5331444349,
				"y": 1.4164478363,
				"z": -2.7150991243,
				"element": "H" 
			},
			{
				"x": -0.8237624152,
				"y": -0.2680505945,
				"z": 4.8572417855,
				"element": "H" 
			}
		],
		 "valence_orbital": [ 
			{
				"type": "occ",
				"energy": -0.28948,
				"method": "rhf"
			},
			{
				"type": "occ",
				"energy": -0.27095,
				"method": "rhf"
			},
			{
				"type": "occ",
				"energy": -0.25674,
				"method": "rhf"
			},
			{
				"type": "occ",
				"energy": -0.25457,
				"method": "rhf"
			},
			{
				"type": "occ",
				"energy": -0.25128,
				"method": "rhf"
			},
			{
				"type": "unocc",
				"energy": -0.04145,
				"method": "rhf"
			},
			{
				"type": "unocc",
				"energy": -0.01006,
				"method": "rhf"
			},
			{
				"type": "unocc",
				"energy": -0.00313,
				"method": "rhf"
			},
			{
				"type": "unocc",
				"energy": 0.04347,
				"method": "rhf"
			},
			{
				"type": "unocc",
				"energy": 0.06467,
				"method": "rhf"
			}
		],
		"cosmo_sigma_profile": { 
			"-0.025": 0.0,
			"-0.024": 0.0,
			"-0.023": 0.0,
			"-0.022": 0.0,
			"-0.021": 0.0,
			"-0.02": 0.0,
			"-0.019": 0.290580710982,
			"-0.018": 1.00426931741,
			"-0.017": 0.791435898828,
			"-0.016": 1.01379125126,
			"-0.015": 0.960887958292,
			"-0.014": 0.737488522303,
			"-0.013": 0.624574297592,
			"-0.012": 0.629460599301,
			"-0.011": 0.673666402097,
			"-0.01": 1.48824680695,
			"-0.009": 0.911158052509,
			"-0.008": 4.57899316041,
			"-0.007": 8.89318663334,
			"-0.006": 9.22041092399,
			"-0.005": 11.0511704655,
			"-0.004": 12.0294496861,
			"-0.003": 22.2494457923,
			"-0.002": 25.7586090012,
			"-0.001": 32.1651990214,
			"0.0": 32.464841834,
			"0.001": 29.687068957,
			"0.002": 18.0339524702,
			"0.003": 15.8976668611,
			"0.004": 11.8158458774,
			"0.005": 4.83516115395,
			"0.006": 4.29973170489,
			"0.007": 4.65653430252,
			"0.008": 4.78927832794,
			"0.009": 3.45461261348,
			"0.01": 4.82263992876,
			"0.011": 5.68964619185,
			"0.012": 2.87517174062,
			"0.013": 4.08033999751,
			"0.014": 1.40005717807,
			"0.015": 0.0,
			"0.016": 0.0,
			"0.017": 0.0,
			"0.018": 0.0,
			"0.019": 0.0,
			"0.02": 0.0,
			"0.021": 0.0,
			"0.022": 0.0,
			"0.023": 0.0,
			"0.024": 0.0,
			"0.025": 0.0
		}
	}
}
