{
	 "smiles": "CC(=NO)C1=CC(NC(=O)C2=CC=C(F)C=C2)=CC=C1", 
	 "Tm": 470.15, 
	 "num_atms": 33, 
	 "gaussian": { 
		 "optdone": 1, 
		 "sigma_profile": "yes", 
		 "theory": "DFT", 
		 "functional": "B3LYP", 
		 "basiset": "6-31G**", 
		 "properties": { 
			 "R2extent": 7937.479, 
			 "electric_dipole_moment_norm": 3.06268093506, 
			 "electric_quadrupole_moment_norm": 7.37618579755, 
			 "total_energy": -939.178133337, 
			 "HOMO_LUMO_gap": 0.17657, 
			 "cosmo_polarized_energy": -15.7, 
			 "cosmo_cavitation_energy": 38.48, 
			 "cosmo_dispersion_energy": -26.94, 
			 "cosmo_repulsion_energy": 2.06, 
			 "cosmo_total_nonelectrostatic_energy": 13.6, 
			 "SMD_solvation_energy": 7.93 
		},
		"coords": [
			{
				"x": 0.8807417304,
				"y": 3.9328252485,
				"z": 1.1727783118,
				"element": "C" 
			},
			{
				"x": -0.479747728,
				"y": 3.6133856086,
				"z": 0.6081373608,
				"element": "C" 
			},
			{
				"x": -1.2948780734,
				"y": 4.4955021929,
				"z": 0.1417070728,
				"element": "N" 
			},
			{
				"x": -0.7924295761,
				"y": 5.7995211103,
				"z": 0.2095206322,
				"element": "O" 
			},
			{
				"x": -0.9562399265,
				"y": 2.2046481814,
				"z": 0.563980848,
				"element": "C" 
			},
			{
				"x": -0.1137073344,
				"y": 1.1569291707,
				"z": 0.9601426863,
				"element": "C" 
			},
			{
				"x": -0.5480371518,
				"y": -0.1756951195,
				"z": 0.9309620705,
				"element": "C" 
			},
			{
				"x": 0.3452818634,
				"y": -1.1776780836,
				"z": 1.3932493784,
				"element": "N" 
			},
			{
				"x": 0.4610629911,
				"y": -2.5161403633,
				"z": 1.0501607025,
				"element": "C" 
			},
			{
				"x": 0.9480351039,
				"y": -3.3048999799,
				"z": 1.8532725194,
				"element": "O" 
			},
			{
				"x": 0.0639113078,
				"y": -2.9618502494,
				"z": -0.324162479,
				"element": "C" 
			},
			{
				"x": -0.3156630654,
				"y": -4.303788484,
				"z": -0.4764370382,
				"element": "C" 
			},
			{
				"x": -0.6312446661,
				"y": -4.8177023771,
				"z": -1.7305428899,
				"element": "C" 
			},
			{
				"x": -0.5346292823,
				"y": -3.9776553168,
				"z": -2.8358274093,
				"element": "C" 
			},
			{
				"x": -0.8314113115,
				"y": -4.4674058104,
				"z": -4.055138411,
				"element": "F" 
			},
			{
				"x": -0.1338936894,
				"y": -2.6500759099,
				"z": -2.7241963452,
				"element": "C" 
			},
			{
				"x": 0.161349022,
				"y": -2.1441435632,
				"z": -1.4601606079,
				"element": "C" 
			},
			{
				"x": -1.8468249322,
				"y": -0.4704938051,
				"z": 0.5033497254,
				"element": "C" 
			},
			{
				"x": -2.6803283743,
				"y": 0.5680555835,
				"z": 0.0823941492,
				"element": "C" 
			},
			{
				"x": -2.251830966,
				"y": 1.8898850764,
				"z": 0.1128388148,
				"element": "C" 
			},
			{
				"x": 1.6688492757,
				"y": 3.4769842837,
				"z": 0.5628990353,
				"element": "H" 
			},
			{
				"x": 1.0429837,
				"y": 5.0083160223,
				"z": 1.1998210119,
				"element": "H" 
			},
			{
				"x": 0.9797233165,
				"y": 3.533773969,
				"z": 2.187602865,
				"element": "H" 
			},
			{
				"x": -1.5189980533,
				"y": 6.3137125284,
				"z": -0.1662049306,
				"element": "H" 
			},
			{
				"x": 0.8999753987,
				"y": 1.3579251074,
				"z": 1.2898830177,
				"element": "H" 
			},
			{
				"x": 0.7946303541,
				"y": -0.9958600316,
				"z": 2.2832913002,
				"element": "H" 
			},
			{
				"x": -0.3486625149,
				"y": -4.9357005029,
				"z": 0.4043909513,
				"element": "H" 
			},
			{
				"x": -0.9372585348,
				"y": -5.8493125643,
				"z": -1.8657099442,
				"element": "H" 
			},
			{
				"x": -0.0549248662,
				"y": -2.037440241,
				"z": -3.6155030209,
				"element": "H" 
			},
			{
				"x": 0.4819134177,
				"y": -1.1130501624,
				"z": -1.3640457139,
				"element": "H" 
			},
			{
				"x": -2.2017531515,
				"y": -1.4946929337,
				"z": 0.5065108697,
				"element": "H" 
			},
			{
				"x": -3.6871210583,
				"y": 0.337528974,
				"z": -0.2536905027,
				"element": "H" 
			},
			{
				"x": -2.907973225,
				"y": 2.6922924411,
				"z": -0.2016740305,
				"element": "H" 
			}
		],
		 "valence_orbital": [ 
			{
				"type": "occ",
				"energy": -0.26918,
				"method": "rhf"
			},
			{
				"type": "occ",
				"energy": -0.2625,
				"method": "rhf"
			},
			{
				"type": "occ",
				"energy": -0.24742,
				"method": "rhf"
			},
			{
				"type": "occ",
				"energy": -0.24253,
				"method": "rhf"
			},
			{
				"type": "occ",
				"energy": -0.22358,
				"method": "rhf"
			},
			{
				"type": "unocc",
				"energy": -0.04701,
				"method": "rhf"
			},
			{
				"type": "unocc",
				"energy": -0.03909,
				"method": "rhf"
			},
			{
				"type": "unocc",
				"energy": -0.01857,
				"method": "rhf"
			},
			{
				"type": "unocc",
				"energy": -0.00572,
				"method": "rhf"
			},
			{
				"type": "unocc",
				"energy": 0.03631,
				"method": "rhf"
			}
		],
		"cosmo_sigma_profile": { 
			"-0.025": 0.0,
			"-0.024": 0.0,
			"-0.023": 0.0,
			"-0.022": 0.0,
			"-0.021": 0.0,
			"-0.02": 0.0,
			"-0.019": 0.0,
			"-0.018": 0.0824958608826,
			"-0.017": 0.851281727916,
			"-0.016": 1.07394376688,
			"-0.015": 1.13705411522,
			"-0.014": 1.59709370101,
			"-0.013": 1.12180127516,
			"-0.012": 1.37012722982,
			"-0.011": 2.2457455719,
			"-0.01": 2.61696534765,
			"-0.009": 1.035055328,
			"-0.008": 3.17483664325,
			"-0.007": 6.87786579452,
			"-0.006": 16.5518486378,
			"-0.005": 20.5449909602,
			"-0.004": 17.9196252552,
			"-0.003": 19.2995426587,
			"-0.002": 19.6878544307,
			"-0.001": 20.2932723733,
			"0.0": 26.2200578195,
			"0.001": 22.4658009813,
			"0.002": 24.7277433769,
			"0.003": 26.2434629181,
			"0.004": 25.5775898899,
			"0.005": 9.32348797451,
			"0.006": 6.8065319787,
			"0.007": 4.68825715812,
			"0.008": 4.82002395636,
			"0.009": 5.00960322629,
			"0.01": 3.12375305659,
			"0.011": 1.53672619848,
			"0.012": 2.83090469527,
			"0.013": 5.41444227064,
			"0.014": 1.18621526438,
			"0.015": 0.0,
			"0.016": 0.0,
			"0.017": 0.0,
			"0.018": 0.0,
			"0.019": 0.0,
			"0.02": 0.0,
			"0.021": 0.0,
			"0.022": 0.0,
			"0.023": 0.0,
			"0.024": 0.0,
			"0.025": 0.0
		}
	}
}
