{
	 "smiles": "CN1C(C)=NC=C1Br", 
	 "Tm": 366.15, 
	 "num_atms": 15, 
	 "gaussian": { 
		 "optdone": 1, 
		 "sigma_profile": "yes", 
		 "theory": "DFT", 
		 "functional": "B3LYP", 
		 "basiset": "6-31G**", 
		 "properties": { 
			 "R2extent": 2785.3516, 
			 "electric_dipole_moment_norm": 3.42469742605, 
			 "electric_quadrupole_moment_norm": 1.12619386431, 
			 "total_energy": -2875.65269723, 
			 "HOMO_LUMO_gap": 0.22711, 
			 "cosmo_polarized_energy": -8.66, 
			 "cosmo_cavitation_energy": 20.73, 
			 "cosmo_dispersion_energy": -15.76, 
			 "cosmo_repulsion_energy": 1.3, 
			 "cosmo_total_nonelectrostatic_energy": 6.27, 
			 "SMD_solvation_energy": 1.16 
		},
		"coords": [
			{
				"x": -1.3558684224,
				"y": 1.6919091449,
				"z": -0.0695415706,
				"element": "C" 
			},
			{
				"x": 0.0073391385,
				"y": 1.1875518611,
				"z": -0.0622919391,
				"element": "N" 
			},
			{
				"x": 0.430891297,
				"y": -0.1073039643,
				"z": 0.1419754096,
				"element": "C" 
			},
			{
				"x": -0.4925212049,
				"y": -1.2538382718,
				"z": 0.4012405007,
				"element": "C" 
			},
			{
				"x": 1.7463261443,
				"y": -0.2020474436,
				"z": 0.0794248179,
				"element": "N" 
			},
			{
				"x": 2.2131535108,
				"y": 1.0645946097,
				"z": -0.173659788,
				"element": "C" 
			},
			{
				"x": 1.1576902662,
				"y": 1.9314968375,
				"z": -0.2637942218,
				"element": "C" 
			},
			{
				"x": 1.1033392954,
				"y": 3.7829107317,
				"z": -0.5891266229,
				"element": "Br" 
			},
			{
				"x": -1.5978917163,
				"y": 2.1386500911,
				"z": -1.0379682758,
				"element": "H" 
			},
			{
				"x": -2.0388879894,
				"y": 0.8640004913,
				"z": 0.1187049126,
				"element": "H" 
			},
			{
				"x": -1.4924851708,
				"y": 2.4486818151,
				"z": 0.7080399702,
				"element": "H" 
			},
			{
				"x": -1.1898089947,
				"y": -1.4250640058,
				"z": -0.4274658844,
				"element": "H" 
			},
			{
				"x": -1.0845414734,
				"y": -1.1160594599,
				"z": 1.3138260357,
				"element": "H" 
			},
			{
				"x": 0.1190818809,
				"y": -2.1488561518,
				"z": 0.5230897925,
				"element": "H" 
			},
			{
				"x": 3.265083439,
				"y": 1.2868737147,
				"z": -0.2766531364,
				"element": "H" 
			}
		],
		 "valence_orbital": [ 
			{
				"type": "occ",
				"energy": -0.31858,
				"method": "rhf"
			},
			{
				"type": "occ",
				"energy": -0.30474,
				"method": "rhf"
			},
			{
				"type": "occ",
				"energy": -0.27021,
				"method": "rhf"
			},
			{
				"type": "occ",
				"energy": -0.26328,
				"method": "rhf"
			},
			{
				"type": "occ",
				"energy": -0.21472,
				"method": "rhf"
			},
			{
				"type": "unocc",
				"energy": 0.01239,
				"method": "rhf"
			},
			{
				"type": "unocc",
				"energy": 0.02029,
				"method": "rhf"
			},
			{
				"type": "unocc",
				"energy": 0.06765,
				"method": "rhf"
			},
			{
				"type": "unocc",
				"energy": 0.08395,
				"method": "rhf"
			},
			{
				"type": "unocc",
				"energy": 0.12101,
				"method": "rhf"
			}
		],
		"cosmo_sigma_profile": { 
			"-0.025": 0.0,
			"-0.024": 0.0,
			"-0.023": 0.0,
			"-0.022": 0.0,
			"-0.021": 0.0,
			"-0.02": 0.0,
			"-0.019": 0.0,
			"-0.018": 0.0,
			"-0.017": 0.0,
			"-0.016": 0.0,
			"-0.015": 0.0,
			"-0.014": 0.0,
			"-0.013": 0.0,
			"-0.012": 0.0,
			"-0.011": 0.0,
			"-0.01": 0.0,
			"-0.009": 0.0,
			"-0.008": 0.0424998773627,
			"-0.007": 3.29353828604,
			"-0.006": 11.7544077382,
			"-0.005": 15.2090186825,
			"-0.004": 17.3547971519,
			"-0.003": 17.1810529738,
			"-0.002": 12.2286931288,
			"-0.001": 12.9794929603,
			"0.0": 9.4663034429,
			"0.001": 8.95170566853,
			"0.002": 12.7681167898,
			"0.003": 13.6036047277,
			"0.004": 12.4823507092,
			"0.005": 4.09938531537,
			"0.006": 2.47049111614,
			"0.007": 1.77816565024,
			"0.008": 1.7787850817,
			"0.009": 1.69449914843,
			"0.01": 1.16818493075,
			"0.011": 0.542182921902,
			"0.012": 1.35688040545,
			"0.013": 1.35218977609,
			"0.014": 1.30019601108,
			"0.015": 0.980005570387,
			"0.016": 0.725629294423,
			"0.017": 1.08865661687,
			"0.018": 0.546500193114,
			"0.019": 0.0,
			"0.02": 0.0,
			"0.021": 0.0,
			"0.022": 0.0,
			"0.023": 0.0,
			"0.024": 0.0,
			"0.025": 0.0
		}
	}
}
