{
	 "smiles": "CCOC(=O)C1=C(N=CC=C1)S(N)(=O)=O", 
	 "Tm": 366.15, 
	 "num_atms": 25, 
	 "gaussian": { 
		 "optdone": 1, 
		 "sigma_profile": "yes", 
		 "theory": "DFT", 
		 "functional": "B3LYP", 
		 "basiset": "6-31G**", 
		 "properties": { 
			 "R2extent": 3572.1814, 
			 "electric_dipole_moment_norm": 3.78082792388, 
			 "electric_quadrupole_moment_norm": 27.3014340874, 
			 "total_energy": -1119.38914759, 
			 "HOMO_LUMO_gap": 0.20324, 
			 "cosmo_polarized_energy": -22.22, 
			 "cosmo_cavitation_energy": 30.88, 
			 "cosmo_dispersion_energy": -22.32, 
			 "cosmo_repulsion_energy": 1.71, 
			 "cosmo_total_nonelectrostatic_energy": 10.27, 
			 "SMD_solvation_energy": 4.73 
		},
		"coords": [
			{
				"x": 0.8734834984,
				"y": -1.8009830536,
				"z": 2.9605895453,
				"element": "C" 
			},
			{
				"x": 1.1775312325,
				"y": -2.1169369887,
				"z": 1.508723735,
				"element": "C" 
			},
			{
				"x": 0.7007674475,
				"y": -1.0010441249,
				"z": 0.7138173003,
				"element": "O" 
			},
			{
				"x": 0.7060284815,
				"y": -1.17383729,
				"z": -0.6167586017,
				"element": "C" 
			},
			{
				"x": 1.0727623658,
				"y": -2.1901889745,
				"z": -1.1707162919,
				"element": "O" 
			},
			{
				"x": 0.1093465682,
				"y": -0.01443813,
				"z": -1.3588068806,
				"element": "C" 
			},
			{
				"x": 0.1250877866,
				"y": 1.3486069502,
				"z": -1.0054168464,
				"element": "C" 
			},
			{
				"x": -0.5041855058,
				"y": 2.2911737009,
				"z": -1.690915338,
				"element": "N" 
			},
			{
				"x": -1.1758396128,
				"y": 1.9484670288,
				"z": -2.7942730009,
				"element": "C" 
			},
			{
				"x": -1.2032604087,
				"y": 0.6436212329,
				"z": -3.2830385819,
				"element": "C" 
			},
			{
				"x": -0.549030096,
				"y": -0.3413785631,
				"z": -2.552150284,
				"element": "C" 
			},
			{
				"x": 1.0374722569,
				"y": 2.0815621345,
				"z": 0.4143826706,
				"element": "S" 
			},
			{
				"x": 2.4875735593,
				"y": 1.2046369075,
				"z": 0.3966537793,
				"element": "N" 
			},
			{
				"x": 1.3936005587,
				"y": 3.4454101357,
				"z": 0.0326993116,
				"element": "O" 
			},
			{
				"x": 0.3010105298,
				"y": 1.7974021777,
				"z": 1.6471138743,
				"element": "O" 
			},
			{
				"x": 1.3516069201,
				"y": -0.8691767735,
				"z": 3.2754802856,
				"element": "H" 
			},
			{
				"x": 1.239308014,
				"y": -2.6120087926,
				"z": 3.5977719911,
				"element": "H" 
			},
			{
				"x": -0.2028992366,
				"y": -1.6937492215,
				"z": 3.117174375,
				"element": "H" 
			},
			{
				"x": 0.6768336781,
				"y": -3.0264910237,
				"z": 1.16606499,
				"element": "H" 
			},
			{
				"x": 2.2499176874,
				"y": -2.2425242102,
				"z": 1.3225092046,
				"element": "H" 
			},
			{
				"x": -1.6957253326,
				"y": 2.7540431771,
				"z": -3.3075945218,
				"element": "H" 
			},
			{
				"x": -1.7259661779,
				"y": 0.4067342937,
				"z": -4.20366023,
				"element": "H" 
			},
			{
				"x": -0.5363235223,
				"y": -1.3768700928,
				"z": -2.8751801503,
				"element": "H" 
			},
			{
				"x": 3.2534471985,
				"y": 1.8716868805,
				"z": 0.3488545108,
				"element": "H" 
			},
			{
				"x": 2.5485521096,
				"y": 0.6122826194,
				"z": 1.2183751541,
				"element": "H" 
			}
		],
		 "valence_orbital": [ 
			{
				"type": "occ",
				"energy": -0.30633,
				"method": "rhf"
			},
			{
				"type": "occ",
				"energy": -0.2963,
				"method": "rhf"
			},
			{
				"type": "occ",
				"energy": -0.29327,
				"method": "rhf"
			},
			{
				"type": "occ",
				"energy": -0.27923,
				"method": "rhf"
			},
			{
				"type": "occ",
				"energy": -0.27345,
				"method": "rhf"
			},
			{
				"type": "unocc",
				"energy": -0.07021,
				"method": "rhf"
			},
			{
				"type": "unocc",
				"energy": -0.05175,
				"method": "rhf"
			},
			{
				"type": "unocc",
				"energy": 0.02279,
				"method": "rhf"
			},
			{
				"type": "unocc",
				"energy": 0.0442,
				"method": "rhf"
			},
			{
				"type": "unocc",
				"energy": 0.06908,
				"method": "rhf"
			}
		],
		"cosmo_sigma_profile": { 
			"-0.025": 0.0,
			"-0.024": 0.0,
			"-0.023": 0.0,
			"-0.022": 0.0,
			"-0.021": 0.0,
			"-0.02": 0.0,
			"-0.019": 0.0,
			"-0.018": 0.0,
			"-0.017": 0.0,
			"-0.016": 0.0,
			"-0.015": 0.649475502056,
			"-0.014": 1.4616912128,
			"-0.013": 1.94488860752,
			"-0.012": 3.04837061052,
			"-0.011": 2.17803288865,
			"-0.01": 2.38490514792,
			"-0.009": 2.99183860018,
			"-0.008": 10.5575716151,
			"-0.007": 10.0693850887,
			"-0.006": 9.6888034574,
			"-0.005": 16.3678675509,
			"-0.004": 18.6737232323,
			"-0.003": 17.3654337997,
			"-0.002": 18.442494068,
			"-0.001": 21.0312896734,
			"0.0": 17.5072081279,
			"0.001": 9.09867762218,
			"0.002": 6.54134389087,
			"0.003": 6.75948313529,
			"0.004": 6.2033264923,
			"0.005": 5.05355184767,
			"0.006": 5.39096950782,
			"0.007": 6.97834662511,
			"0.008": 6.2997375243,
			"0.009": 5.91057589848,
			"0.01": 11.7687294745,
			"0.011": 13.9756563676,
			"0.012": 3.65299972404,
			"0.013": 1.24780333644,
			"0.014": 1.29732330516,
			"0.015": 0.983837885006,
			"0.016": 0.36857307825,
			"0.017": 0.0,
			"0.018": 0.0,
			"0.019": 0.0,
			"0.02": 0.0,
			"0.021": 0.0,
			"0.022": 0.0,
			"0.023": 0.0,
			"0.024": 0.0,
			"0.025": 0.0
		}
	}
}
