{
	 "smiles": "OC(=O)C1=CC(CC#N)=CC=C1", 
	 "Tm": 440.15, 
	 "num_atms": 19, 
	 "gaussian": { 
		 "optdone": 1, 
		 "sigma_profile": "yes", 
		 "theory": "DFT", 
		 "functional": "B3LYP", 
		 "basiset": "6-31G**", 
		 "properties": { 
			 "R2extent": 3000.2088, 
			 "electric_dipole_moment_norm": 2.32280672033, 
			 "electric_quadrupole_moment_norm": 24.6552460844, 
			 "total_energy": -552.365972582, 
			 "HOMO_LUMO_gap": 0.21367, 
			 "cosmo_polarized_energy": -19.18, 
			 "cosmo_cavitation_energy": 24.83, 
			 "cosmo_dispersion_energy": -17.66, 
			 "cosmo_repulsion_energy": 1.4, 
			 "cosmo_total_nonelectrostatic_energy": 8.57, 
			 "SMD_solvation_energy": 6.71 
		},
		"coords": [
			{
				"x": -2.9179845309,
				"y": 2.1602204261,
				"z": -1.6855078641,
				"element": "O" 
			},
			{
				"x": -1.5639115276,
				"y": 2.2687778123,
				"z": -1.7101611983,
				"element": "C" 
			},
			{
				"x": -1.0167742119,
				"y": 2.8055782444,
				"z": -2.6444726326,
				"element": "O" 
			},
			{
				"x": -0.81632723,
				"y": 1.6958520031,
				"z": -0.541007576,
				"element": "C" 
			},
			{
				"x": 0.544489709,
				"y": 1.4279618985,
				"z": -0.7214843138,
				"element": "C" 
			},
			{
				"x": 1.3141856367,
				"y": 0.8963465625,
				"z": 0.3150989158,
				"element": "C" 
			},
			{
				"x": 2.7939616051,
				"y": 0.630007334,
				"z": 0.0536166388,
				"element": "C" 
			},
			{
				"x": 3.4928864504,
				"y": -0.0513618031,
				"z": 1.1450429141,
				"element": "C" 
			},
			{
				"x": 4.0390527186,
				"y": -0.5888263124,
				"z": 2.0163961604,
				"element": "N" 
			},
			{
				"x": 0.7111354832,
				"y": 0.6452558061,
				"z": 1.5521908442,
				"element": "C" 
			},
			{
				"x": -0.6417558038,
				"y": 0.9301101883,
				"z": 1.7469407138,
				"element": "C" 
			},
			{
				"x": -1.4072798436,
				"y": 1.453179701,
				"z": 0.7074315797,
				"element": "C" 
			},
			{
				"x": -3.196104246,
				"y": 1.5723414171,
				"z": -0.9697221626,
				"element": "H" 
			},
			{
				"x": 0.9816496955,
				"y": 1.6464617872,
				"z": -1.6913283053,
				"element": "H" 
			},
			{
				"x": 2.9103148792,
				"y": 0.0260823254,
				"z": -0.854503259,
				"element": "H" 
			},
			{
				"x": 3.3137866328,
				"y": 1.5769977239,
				"z": -0.1412556005,
				"element": "H" 
			},
			{
				"x": 1.2988208779,
				"y": 0.2310624559,
				"z": 2.3656479587,
				"element": "H" 
			},
			{
				"x": -1.0953684424,
				"y": 0.7484502077,
				"z": 2.7162746835,
				"element": "H" 
			},
			{
				"x": -2.4489778521,
				"y": 1.7038022222,
				"z": 0.8921025033,
				"element": "H" 
			}
		],
		 "valence_orbital": [ 
			{
				"type": "occ",
				"energy": -0.33832,
				"method": "rhf"
			},
			{
				"type": "occ",
				"energy": -0.3252,
				"method": "rhf"
			},
			{
				"type": "occ",
				"energy": -0.2876,
				"method": "rhf"
			},
			{
				"type": "occ",
				"energy": -0.27867,
				"method": "rhf"
			},
			{
				"type": "occ",
				"energy": -0.27568,
				"method": "rhf"
			},
			{
				"type": "unocc",
				"energy": -0.06201,
				"method": "rhf"
			},
			{
				"type": "unocc",
				"energy": -0.038,
				"method": "rhf"
			},
			{
				"type": "unocc",
				"energy": 0.0194,
				"method": "rhf"
			},
			{
				"type": "unocc",
				"energy": 0.02974,
				"method": "rhf"
			},
			{
				"type": "unocc",
				"energy": 0.03736,
				"method": "rhf"
			}
		],
		"cosmo_sigma_profile": { 
			"-0.025": 0.0,
			"-0.024": 0.0,
			"-0.023": 0.0,
			"-0.022": 0.0,
			"-0.021": 0.0,
			"-0.02": 0.0,
			"-0.019": 0.318503018896,
			"-0.018": 0.810033725851,
			"-0.017": 1.08030195159,
			"-0.016": 1.10443121503,
			"-0.015": 0.627299527181,
			"-0.014": 1.00583016647,
			"-0.013": 1.25156490506,
			"-0.012": 1.29483157529,
			"-0.011": 1.159297814,
			"-0.01": 1.72815664081,
			"-0.009": 6.96732426548,
			"-0.008": 9.0385849835,
			"-0.007": 10.7757306816,
			"-0.006": 11.5097774399,
			"-0.005": 10.5388141954,
			"-0.004": 9.26775380111,
			"-0.003": 10.1174316903,
			"-0.002": 10.8387233304,
			"-0.001": 8.29724653505,
			"0.0": 10.3942138347,
			"0.001": 9.85000781335,
			"0.002": 13.3715730714,
			"0.003": 12.2115337604,
			"0.004": 4.2954427757,
			"0.005": 4.6803774043,
			"0.006": 4.63195049485,
			"0.007": 4.8354468065,
			"0.008": 5.79640152034,
			"0.009": 7.38875012237,
			"0.01": 7.0831408607,
			"0.011": 8.39634621865,
			"0.012": 6.26268313751,
			"0.013": 3.01224459059,
			"0.014": 0.0839244598824,
			"0.015": 0.0,
			"0.016": 0.0,
			"0.017": 0.0,
			"0.018": 0.0,
			"0.019": 0.0,
			"0.02": 0.0,
			"0.021": 0.0,
			"0.022": 0.0,
			"0.023": 0.0,
			"0.024": 0.0,
			"0.025": 0.0
		}
	}
}
