{
	 "smiles": "CC(C)N1CSC2=NN=C(N2C1)C1=CC(=CC=C1)[N+]([O-])=O", 
	 "Tm": 438.15, 
	 "num_atms": 36, 
	 "gaussian": { 
		 "optdone": 1, 
		 "sigma_profile": "yes", 
		 "theory": "DFT", 
		 "functional": "B3LYP", 
		 "basiset": "6-31G**", 
		 "properties": { 
			 "R2extent": 8798.8163, 
			 "electric_dipole_moment_norm": 4.60202982389, 
			 "electric_quadrupole_moment_norm": 42.7519069409, 
			 "total_energy": -1326.6869394, 
			 "HOMO_LUMO_gap": 0.12389, 
			 "cosmo_polarized_energy": -22.83, 
			 "cosmo_cavitation_energy": 40.11, 
			 "cosmo_dispersion_energy": -28.56, 
			 "cosmo_repulsion_energy": 2.1, 
			 "cosmo_total_nonelectrostatic_energy": 13.65, 
			 "SMD_solvation_energy": 4.69 
		},
		"coords": [
			{
				"x": -0.5032416763,
				"y": -2.7739698259,
				"z": 1.6770296278,
				"element": "C" 
			},
			{
				"x": 0.6046764871,
				"y": -2.3640753201,
				"z": 0.6898031814,
				"element": "C" 
			},
			{
				"x": 1.5793299483,
				"y": -3.5190598397,
				"z": 0.4368250931,
				"element": "C" 
			},
			{
				"x": 1.3468835078,
				"y": -1.1212256375,
				"z": 1.0229672768,
				"element": "N" 
			},
			{
				"x": 2.3419701135,
				"y": -1.1047669979,
				"z": 2.0449701632,
				"element": "C" 
			},
			{
				"x": 1.6870254064,
				"y": -0.9537654393,
				"z": 3.8213074438,
				"element": "S" 
			},
			{
				"x": 0.3064563237,
				"y": 0.0728190855,
				"z": 3.4526694096,
				"element": "C" 
			},
			{
				"x": -0.5551136652,
				"y": 0.4926184164,
				"z": 4.3559989892,
				"element": "N" 
			},
			{
				"x": -1.5111349997,
				"y": 1.2176912776,
				"z": 3.6923466213,
				"element": "N" 
			},
			{
				"x": -1.213324111,
				"y": 1.2230205626,
				"z": 2.407749002,
				"element": "C" 
			},
			{
				"x": -0.0533951227,
				"y": 0.4941509471,
				"z": 2.1941755224,
				"element": "N" 
			},
			{
				"x": 0.633567883,
				"y": 0.1187734665,
				"z": 0.9297637256,
				"element": "C" 
			},
			{
				"x": -2.0221746304,
				"y": 1.9122930313,
				"z": 1.3968862507,
				"element": "C" 
			},
			{
				"x": -1.494316873,
				"y": 2.4098761307,
				"z": 0.1987914736,
				"element": "C" 
			},
			{
				"x": -2.3377219636,
				"y": 3.0678702845,
				"z": -0.6938321028,
				"element": "C" 
			},
			{
				"x": -3.6896627243,
				"y": 3.2722918815,
				"z": -0.4368782841,
				"element": "C" 
			},
			{
				"x": -4.2059408631,
				"y": 2.7946034927,
				"z": 0.768814732,
				"element": "C" 
			},
			{
				"x": -3.3891761219,
				"y": 2.1212896891,
				"z": 1.6724753016,
				"element": "C" 
			},
			{
				"x": -1.7652059215,
				"y": 3.5731079165,
				"z": -1.9536017857,
				"element": "N" 
			},
			{
				"x": -0.570055976,
				"y": 3.36150722,
				"z": -2.1632347568,
				"element": "O" 
			},
			{
				"x": -2.5153412296,
				"y": 4.1717975556,
				"z": -2.7219283984,
				"element": "O" 
			},
			{
				"x": -1.2384920046,
				"y": -1.9772996661,
				"z": 1.8195574521,
				"element": "H" 
			},
			{
				"x": -0.093103759,
				"y": -3.0357164774,
				"z": 2.6557713818,
				"element": "H" 
			},
			{
				"x": -1.0341646516,
				"y": -3.6478757143,
				"z": 1.2847735549,
				"element": "H" 
			},
			{
				"x": 0.1262031618,
				"y": -2.1314567754,
				"z": -0.2707923008,
				"element": "H" 
			},
			{
				"x": 2.3877111078,
				"y": -3.2138041528,
				"z": -0.2339051521,
				"element": "H" 
			},
			{
				"x": 2.0160734546,
				"y": -3.9002256935,
				"z": 1.3660555096,
				"element": "H" 
			},
			{
				"x": 1.0438390628,
				"y": -4.3515544083,
				"z": -0.0282338626,
				"element": "H" 
			},
			{
				"x": 2.9321633177,
				"y": -2.0195631041,
				"z": 2.0480329944,
				"element": "H" 
			},
			{
				"x": 3.009213139,
				"y": -0.2531177926,
				"z": 1.8891854382,
				"element": "H" 
			},
			{
				"x": -0.121953144,
				"y": 0.0530824946,
				"z": 0.1452719812,
				"element": "H" 
			},
			{
				"x": 1.335247297,
				"y": 0.9231516664,
				"z": 0.6752947505,
				"element": "H" 
			},
			{
				"x": -0.4456965425,
				"y": 2.3339600403,
				"z": -0.053419448,
				"element": "H" 
			},
			{
				"x": -4.3015111543,
				"y": 3.7913162865,
				"z": -1.1635198188,
				"element": "H" 
			},
			{
				"x": -5.2557456105,
				"y": 2.9438326785,
				"z": 1.0000021354,
				"element": "H" 
			},
			{
				"x": -3.7857874658,
				"y": 1.7495227209,
				"z": 2.610626898,
				"element": "H" 
			}
		],
		 "valence_orbital": [ 
			{
				"type": "occ",
				"energy": -0.28822,
				"method": "rhf"
			},
			{
				"type": "occ",
				"energy": -0.27837,
				"method": "rhf"
			},
			{
				"type": "occ",
				"energy": -0.25825,
				"method": "rhf"
			},
			{
				"type": "occ",
				"energy": -0.25237,
				"method": "rhf"
			},
			{
				"type": "occ",
				"energy": -0.22038,
				"method": "rhf"
			},
			{
				"type": "unocc",
				"energy": -0.09649,
				"method": "rhf"
			},
			{
				"type": "unocc",
				"energy": -0.05169,
				"method": "rhf"
			},
			{
				"type": "unocc",
				"energy": -0.01218,
				"method": "rhf"
			},
			{
				"type": "unocc",
				"energy": 0.00271,
				"method": "rhf"
			},
			{
				"type": "unocc",
				"energy": 0.02372,
				"method": "rhf"
			}
		],
		"cosmo_sigma_profile": { 
			"-0.025": 0.0,
			"-0.024": 0.0,
			"-0.023": 0.0,
			"-0.022": 0.0,
			"-0.021": 0.0,
			"-0.02": 0.0,
			"-0.019": 0.0,
			"-0.018": 0.0,
			"-0.017": 0.0,
			"-0.016": 0.0,
			"-0.015": 0.0,
			"-0.014": 0.0,
			"-0.013": 0.0,
			"-0.012": 0.0,
			"-0.011": 0.32971596366,
			"-0.01": 1.32552392425,
			"-0.009": 4.70495620701,
			"-0.008": 13.4790811054,
			"-0.007": 16.9255176487,
			"-0.006": 16.9991925559,
			"-0.005": 15.2583614666,
			"-0.004": 21.0062894635,
			"-0.003": 26.5774286567,
			"-0.002": 23.394051698,
			"-0.001": 26.704516482,
			"0.0": 29.9882826633,
			"0.001": 24.7002227193,
			"0.002": 12.7615701126,
			"0.003": 8.76467327951,
			"0.004": 10.5400303484,
			"0.005": 9.98403953225,
			"0.006": 9.40902742839,
			"0.007": 12.3478243511,
			"0.008": 9.55174386574,
			"0.009": 6.46866890694,
			"0.01": 4.18849606167,
			"0.011": 1.90619860002,
			"0.012": 3.11220600559,
			"0.013": 3.17488403837,
			"0.014": 3.03603059326,
			"0.015": 2.64774889506,
			"0.016": 1.38804870532,
			"0.017": 0.280216140539,
			"0.018": 0.0,
			"0.019": 0.0,
			"0.02": 0.0,
			"0.021": 0.0,
			"0.022": 0.0,
			"0.023": 0.0,
			"0.024": 0.0,
			"0.025": 0.0
		}
	}
}
