{
	 "smiles": "CC1=C2CCC2=C(C)C(C)=C1C", 
	 "Tm": 412.15, 
	 "num_atms": 28, 
	 "gaussian": { 
		 "optdone": 1, 
		 "sigma_profile": "yes", 
		 "theory": "DFT", 
		 "functional": "B3LYP", 
		 "basiset": "6-31G**", 
		 "properties": { 
			 "R2extent": 2267.4386, 
			 "electric_dipole_moment_norm": 0.171663012906, 
			 "electric_quadrupole_moment_norm": 3.39699491757, 
			 "total_energy": -466.90897461, 
			 "HOMO_LUMO_gap": 0.22333, 
			 "cosmo_polarized_energy": -3.02, 
			 "cosmo_cavitation_energy": 28.72, 
			 "cosmo_dispersion_energy": -20.89, 
			 "cosmo_repulsion_energy": 1.67, 
			 "cosmo_total_nonelectrostatic_energy": 9.5, 
			 "SMD_solvation_energy": 4.37 
		},
		"coords": [
			{
				"x": -0.7133546888,
				"y": 0.1956071281,
				"z": -3.020775476,
				"element": "C" 
			},
			{
				"x": -0.529092001,
				"y": -0.0940416809,
				"z": -1.5486853097,
				"element": "C" 
			},
			{
				"x": 0.1047143283,
				"y": 0.8115277397,
				"z": -0.7086402185,
				"element": "C" 
			},
			{
				"x": 0.784403019,
				"y": 2.1744516928,
				"z": -0.6768986141,
				"element": "C" 
			},
			{
				"x": 1.0016922746,
				"y": 1.9177330759,
				"z": 0.8694375626,
				"element": "C" 
			},
			{
				"x": 0.2954047404,
				"y": 0.5862215442,
				"z": 0.6486163625,
				"element": "C" 
			},
			{
				"x": -0.1293682506,
				"y": -0.5662640267,
				"z": 1.2957400693,
				"element": "C" 
			},
			{
				"x": 0.101120405,
				"y": -0.7666800089,
				"z": 2.7761439862,
				"element": "C" 
			},
			{
				"x": -0.781605572,
				"y": -1.5145305932,
				"z": 0.4672714781,
				"element": "C" 
			},
			{
				"x": -1.2895514724,
				"y": -2.8123437083,
				"z": 1.0615474695,
				"element": "C" 
			},
			{
				"x": -0.9768001816,
				"y": -1.2840367963,
				"z": -0.9206411645,
				"element": "C" 
			},
			{
				"x": -1.6831646494,
				"y": -2.3476504622,
				"z": -1.7362911977,
				"element": "C" 
			},
			{
				"x": -0.2204875627,
				"y": -0.5508320691,
				"z": -3.6549065504,
				"element": "H" 
			},
			{
				"x": -0.2872440321,
				"y": 1.1709863697,
				"z": -3.27139141,
				"element": "H" 
			},
			{
				"x": -1.7707431091,
				"y": 0.2150156715,
				"z": -3.3102207695,
				"element": "H" 
			},
			{
				"x": 1.7098816331,
				"y": 2.2640579068,
				"z": -1.2568054937,
				"element": "H" 
			},
			{
				"x": 0.1472676008,
				"y": 3.0352259181,
				"z": -0.9092025047,
				"element": "H" 
			},
			{
				"x": 0.4892856012,
				"y": 2.6311882511,
				"z": 1.5246135749,
				"element": "H" 
			},
			{
				"x": 2.0518815383,
				"y": 1.8599751665,
				"z": 1.1770193141,
				"element": "H" 
			},
			{
				"x": -0.837788545,
				"y": -0.8890836444,
				"z": 3.3290115471,
				"element": "H" 
			},
			{
				"x": 0.6201521316,
				"y": 0.0977513401,
				"z": 3.1993522934,
				"element": "H" 
			},
			{
				"x": 0.7139377161,
				"y": -1.6518171883,
				"z": 2.9840409802,
				"element": "H" 
			},
			{
				"x": -1.0829843696,
				"y": -2.8842966064,
				"z": 2.1298609373,
				"element": "H" 
			},
			{
				"x": -2.3734722863,
				"y": -2.921307977,
				"z": 0.9307356077,
				"element": "H" 
			},
			{
				"x": -0.8305422572,
				"y": -3.685282639,
				"z": 0.5808959982,
				"element": "H" 
			},
			{
				"x": -1.780896185,
				"y": -2.0646481333,
				"z": -2.7848601483,
				"element": "H" 
			},
			{
				"x": -2.6931421718,
				"y": -2.5458159722,
				"z": -1.3562751416,
				"element": "H" 
			},
			{
				"x": -1.1475036539,
				"y": -3.3047102985,
				"z": -1.705193182,
				"element": "H" 
			}
		],
		 "valence_orbital": [ 
			{
				"type": "occ",
				"energy": -0.31209,
				"method": "rhf"
			},
			{
				"type": "occ",
				"energy": -0.30177,
				"method": "rhf"
			},
			{
				"type": "occ",
				"energy": -0.29518,
				"method": "rhf"
			},
			{
				"type": "occ",
				"energy": -0.2163,
				"method": "rhf"
			},
			{
				"type": "occ",
				"energy": -0.2118,
				"method": "rhf"
			},
			{
				"type": "unocc",
				"energy": 0.01153,
				"method": "rhf"
			},
			{
				"type": "unocc",
				"energy": 0.01843,
				"method": "rhf"
			},
			{
				"type": "unocc",
				"energy": 0.09278,
				"method": "rhf"
			},
			{
				"type": "unocc",
				"energy": 0.10347,
				"method": "rhf"
			},
			{
				"type": "unocc",
				"energy": 0.11674,
				"method": "rhf"
			}
		],
		"cosmo_sigma_profile": { 
			"-0.025": 0.0,
			"-0.024": 0.0,
			"-0.023": 0.0,
			"-0.022": 0.0,
			"-0.021": 0.0,
			"-0.02": 0.0,
			"-0.019": 0.0,
			"-0.018": 0.0,
			"-0.017": 0.0,
			"-0.016": 0.0,
			"-0.015": 0.0,
			"-0.014": 0.0,
			"-0.013": 0.0,
			"-0.012": 0.0,
			"-0.011": 0.0,
			"-0.01": 0.0,
			"-0.009": 0.0,
			"-0.008": 0.0,
			"-0.007": 0.0,
			"-0.006": 0.0,
			"-0.005": 0.0,
			"-0.004": 7.8470777347,
			"-0.003": 32.5822571928,
			"-0.002": 30.377339177,
			"-0.001": 37.5508868662,
			"0.0": 37.3283711917,
			"0.001": 33.205855369,
			"0.002": 13.4332201799,
			"0.003": 7.97991267852,
			"0.004": 5.54222861724,
			"0.005": 5.42884539695,
			"0.006": 5.09192343149,
			"0.007": 4.64050816812,
			"0.008": 3.43744508884,
			"0.009": 0.229183760666,
			"0.01": 0.0,
			"0.011": 0.0,
			"0.012": 0.0,
			"0.013": 0.0,
			"0.014": 0.0,
			"0.015": 0.0,
			"0.016": 0.0,
			"0.017": 0.0,
			"0.018": 0.0,
			"0.019": 0.0,
			"0.02": 0.0,
			"0.021": 0.0,
			"0.022": 0.0,
			"0.023": 0.0,
			"0.024": 0.0,
			"0.025": 0.0
		}
	}
}
