{
	 "smiles": "CC(C)N(C)S(=O)(=O)C1=CC=C(N)C=C1", 
	 "Tm": 393.15, 
	 "num_atms": 31, 
	 "gaussian": { 
		 "optdone": 1, 
		 "sigma_profile": "yes", 
		 "theory": "DFT", 
		 "functional": "B3LYP", 
		 "basiset": "6-31G**", 
		 "properties": { 
			 "R2extent": 4406.8874, 
			 "electric_dipole_moment_norm": 7.27250706153, 
			 "electric_quadrupole_moment_norm": 20.6008239626, 
			 "total_energy": -1048.78026175, 
			 "HOMO_LUMO_gap": 0.19968, 
			 "cosmo_polarized_energy": -19.08, 
			 "cosmo_cavitation_energy": 33.54, 
			 "cosmo_dispersion_energy": -24.07, 
			 "cosmo_repulsion_energy": 1.83, 
			 "cosmo_total_nonelectrostatic_energy": 11.31, 
			 "SMD_solvation_energy": 4.81 
		},
		"coords": [
			{
				"x": 2.8749273167,
				"y": -1.4758488839,
				"z": 0.6356737326,
				"element": "C" 
			},
			{
				"x": 1.6244092951,
				"y": -0.8402680533,
				"z": 1.2553962878,
				"element": "C" 
			},
			{
				"x": 0.3282085122,
				"y": -1.4690325817,
				"z": 0.7255366535,
				"element": "C" 
			},
			{
				"x": 1.6760637743,
				"y": 0.6493994612,
				"z": 1.193500319,
				"element": "N" 
			},
			{
				"x": 1.391072456,
				"y": 1.3712968732,
				"z": 2.4347858971,
				"element": "C" 
			},
			{
				"x": 1.419621768,
				"y": 1.5038102129,
				"z": -0.2347776963,
				"element": "S" 
			},
			{
				"x": 2.0812844384,
				"y": 2.7998390005,
				"z": -0.0522350096,
				"element": "O" 
			},
			{
				"x": 1.7815673743,
				"y": 0.5997450433,
				"z": -1.3320213445,
				"element": "O" 
			},
			{
				"x": -0.3319446273,
				"y": 1.8559212204,
				"z": -0.3895643943,
				"element": "C" 
			},
			{
				"x": -1.1317211151,
				"y": 1.0814724046,
				"z": -1.2357209428,
				"element": "C" 
			},
			{
				"x": -2.4870503331,
				"y": 1.357844135,
				"z": -1.3600798424,
				"element": "C" 
			},
			{
				"x": -3.0732172974,
				"y": 2.4183899093,
				"z": -0.6416495402,
				"element": "C" 
			},
			{
				"x": -4.4150188207,
				"y": 2.7237611513,
				"z": -0.8014230975,
				"element": "N" 
			},
			{
				"x": -2.2521569664,
				"y": 3.2030997789,
				"z": 0.1920046729,
				"element": "C" 
			},
			{
				"x": -0.8955380255,
				"y": 2.9297477434,
				"z": 0.3097392011,
				"element": "C" 
			},
			{
				"x": 3.7793458405,
				"y": -1.0328117014,
				"z": 1.0620997818,
				"element": "H" 
			},
			{
				"x": 2.8943553587,
				"y": -1.324851757,
				"z": -0.4444952341,
				"element": "H" 
			},
			{
				"x": 2.8852016414,
				"y": -2.5517241862,
				"z": 0.8435981909,
				"element": "H" 
			},
			{
				"x": 1.658603707,
				"y": -1.0357527793,
				"z": 2.333404772,
				"element": "H" 
			},
			{
				"x": -0.5575897114,
				"y": -0.9927551929,
				"z": 1.1567540213,
				"element": "H" 
			},
			{
				"x": 0.3034451816,
				"y": -2.5317076747,
				"z": 0.9886082733,
				"element": "H" 
			},
			{
				"x": 0.2723136192,
				"y": -1.3935129647,
				"z": -0.3625749485,
				"element": "H" 
			},
			{
				"x": 1.667731633,
				"y": 2.4191098543,
				"z": 2.3140594911,
				"element": "H" 
			},
			{
				"x": 2.010895217,
				"y": 0.9534023259,
				"z": 3.2332840439,
				"element": "H" 
			},
			{
				"x": 0.3355791081,
				"y": 1.30635114,
				"z": 2.7398133534,
				"element": "H" 
			},
			{
				"x": -0.6809843773,
				"y": 0.2801080607,
				"z": -1.8099920701,
				"element": "H" 
			},
			{
				"x": -3.1010465871,
				"y": 0.7612080004,
				"z": -2.0297624364,
				"element": "H" 
			},
			{
				"x": -5.0091958038,
				"y": 1.9888143259,
				"z": -1.1555894284,
				"element": "H" 
			},
			{
				"x": -4.8462780569,
				"y": 3.2731826043,
				"z": -0.0728967553,
				"element": "H" 
			},
			{
				"x": -2.683138581,
				"y": 4.0427262012,
				"z": 0.7311444499,
				"element": "H" 
			},
			{
				"x": -0.2666459387,
				"y": 3.5656363288,
				"z": 0.9229795989,
				"element": "H" 
			}
		],
		 "valence_orbital": [ 
			{
				"type": "occ",
				"energy": -0.2884,
				"method": "rhf"
			},
			{
				"type": "occ",
				"energy": -0.28341,
				"method": "rhf"
			},
			{
				"type": "occ",
				"energy": -0.26347,
				"method": "rhf"
			},
			{
				"type": "occ",
				"energy": -0.24625,
				"method": "rhf"
			},
			{
				"type": "occ",
				"energy": -0.21543,
				"method": "rhf"
			},
			{
				"type": "unocc",
				"energy": -0.01575,
				"method": "rhf"
			},
			{
				"type": "unocc",
				"energy": -0.0135,
				"method": "rhf"
			},
			{
				"type": "unocc",
				"energy": 0.06132,
				"method": "rhf"
			},
			{
				"type": "unocc",
				"energy": 0.0773,
				"method": "rhf"
			},
			{
				"type": "unocc",
				"energy": 0.07918,
				"method": "rhf"
			}
		],
		"cosmo_sigma_profile": { 
			"-0.025": 0.0,
			"-0.024": 0.0,
			"-0.023": 0.0,
			"-0.022": 0.0,
			"-0.021": 0.0,
			"-0.02": 0.0,
			"-0.019": 0.0,
			"-0.018": 0.0,
			"-0.017": 0.0,
			"-0.016": 0.0,
			"-0.015": 0.0,
			"-0.014": 0.0425730511998,
			"-0.013": 2.24955568288,
			"-0.012": 3.27135358997,
			"-0.011": 2.99302580325,
			"-0.01": 3.11062670206,
			"-0.009": 3.21873843724,
			"-0.008": 3.02690740443,
			"-0.007": 4.59720367684,
			"-0.006": 10.6351773285,
			"-0.005": 14.1305055074,
			"-0.004": 19.467297308,
			"-0.003": 26.1341466814,
			"-0.002": 22.6399796308,
			"-0.001": 18.3655473539,
			"0.0": 19.9614583733,
			"0.001": 19.8357323853,
			"0.002": 12.5127849083,
			"0.003": 10.9943645412,
			"0.004": 17.8466492165,
			"0.005": 8.28059201385,
			"0.006": 4.5788579501,
			"0.007": 5.02334016707,
			"0.008": 4.75101235803,
			"0.009": 4.23466108176,
			"0.01": 5.44369414495,
			"0.011": 6.7923743728,
			"0.012": 7.60915077561,
			"0.013": 1.61931620615,
			"0.014": 0.0,
			"0.015": 0.0,
			"0.016": 0.0,
			"0.017": 0.0,
			"0.018": 0.0,
			"0.019": 0.0,
			"0.02": 0.0,
			"0.021": 0.0,
			"0.022": 0.0,
			"0.023": 0.0,
			"0.024": 0.0,
			"0.025": 0.0
		}
	}
}
