{
	 "smiles": "CCOC1=C2C=CC=CC2=C(OCC)C2=C1C=CC=C2", 
	 "Tm": 423.15, 
	 "num_atms": 38, 
	 "gaussian": { 
		 "optdone": 1, 
		 "sigma_profile": "yes", 
		 "theory": "DFT", 
		 "functional": "B3LYP", 
		 "basiset": "6-31G**", 
		 "properties": { 
			 "R2extent": 5920.4362, 
			 "electric_dipole_moment_norm": 0.000860232526704, 
			 "electric_quadrupole_moment_norm": 15.235204828, 
			 "total_energy": -847.213528396, 
			 "HOMO_LUMO_gap": 0.12487, 
			 "cosmo_polarized_energy": -8.06, 
			 "cosmo_cavitation_energy": 40.07, 
			 "cosmo_dispersion_energy": -28.12, 
			 "cosmo_repulsion_energy": 2.15, 
			 "cosmo_total_nonelectrostatic_energy": 14.1, 
			 "SMD_solvation_energy": 6.68 
		},
		"coords": [
			{
				"x": -0.2048318068,
				"y": 0.8432814947,
				"z": 4.9054289268,
				"element": "C" 
			},
			{
				"x": -0.7073937279,
				"y": 0.875785512,
				"z": 3.4737304627,
				"element": "C" 
			},
			{
				"x": 0.3337610988,
				"y": 0.3521272862,
				"z": 2.627468531,
				"element": "O" 
			},
			{
				"x": 0.0240930261,
				"y": 0.3200346665,
				"z": 1.2816398412,
				"element": "C" 
			},
			{
				"x": -0.5771437466,
				"y": -0.830782568,
				"z": 0.740405653,
				"element": "C" 
			},
			{
				"x": -0.8730022881,
				"y": -1.9786506694,
				"z": 1.5394967993,
				"element": "C" 
			},
			{
				"x": -1.473884779,
				"y": -3.0812118973,
				"z": 0.9907666002,
				"element": "C" 
			},
			{
				"x": -1.822381775,
				"y": -3.1017199253,
				"z": -0.3907665075,
				"element": "C" 
			},
			{
				"x": -1.538851263,
				"y": -2.028968313,
				"z": -1.1948898194,
				"element": "C" 
			},
			{
				"x": -0.8954202654,
				"y": -0.8666177102,
				"z": -0.6670500531,
				"element": "C" 
			},
			{
				"x": -0.5783117462,
				"y": 0.2414803266,
				"z": -1.4735016339,
				"element": "C" 
			},
			{
				"x": -0.8880066287,
				"y": 0.2093450517,
				"z": -2.8193229848,
				"element": "O" 
			},
			{
				"x": 0.1533690316,
				"y": -0.3137493929,
				"z": -3.66566222,
				"element": "C" 
			},
			{
				"x": -0.3481845201,
				"y": -0.2787331875,
				"z": -5.0976530896,
				"element": "C" 
			},
			{
				"x": 0.022907751,
				"y": 1.3923149802,
				"z": -0.9322656979,
				"element": "C" 
			},
			{
				"x": 0.3412312705,
				"y": 1.4281301355,
				"z": 0.4751833239,
				"element": "C" 
			},
			{
				"x": 0.9847240547,
				"y": 2.59045166,
				"z": 1.0029991669,
				"element": "C" 
			},
			{
				"x": 1.2682259073,
				"y": 3.6632222913,
				"z": 0.1988843684,
				"element": "C" 
			},
			{
				"x": 0.9196230664,
				"y": 3.6427613262,
				"z": -1.1826153554,
				"element": "C" 
			},
			{
				"x": 0.3187036948,
				"y": 2.5402094645,
				"z": -1.7313337443,
				"element": "C" 
			},
			{
				"x": -0.9703319159,
				"y": 1.2342490648,
				"z": 5.5830437537,
				"element": "H" 
			},
			{
				"x": 0.0361946456,
				"y": -0.179963391,
				"z": 5.2081261524,
				"element": "H" 
			},
			{
				"x": 0.6974035294,
				"y": 1.4524717023,
				"z": 5.0131754419,
				"element": "H" 
			},
			{
				"x": -0.951278221,
				"y": 1.9006549241,
				"z": 3.1629564848,
				"element": "H" 
			},
			{
				"x": -1.614081513,
				"y": 0.2665807027,
				"z": 3.3585817785,
				"element": "H" 
			},
			{
				"x": -0.5917682235,
				"y": -1.9593405397,
				"z": 2.5865374696,
				"element": "H" 
			},
			{
				"x": -1.6889045586,
				"y": -3.9477346164,
				"z": 1.6095583111,
				"element": "H" 
			},
			{
				"x": -2.3153895506,
				"y": -3.9765174294,
				"z": -0.8050988978,
				"element": "H" 
			},
			{
				"x": -1.8127353216,
				"y": -2.0300790044,
				"z": -2.2440503232,
				"element": "H" 
			},
			{
				"x": 0.3962657894,
				"y": -1.3392932231,
				"z": -3.3562997916,
				"element": "H" 
			},
			{
				"x": 1.0604240912,
				"y": 0.2945869687,
				"z": -3.5489302543,
				"element": "H" 
			},
			{
				"x": -1.2511347784,
				"y": -0.8866281548,
				"z": -5.2067300783,
				"element": "H" 
			},
			{
				"x": 0.417240603,
				"y": -0.6698718534,
				"z": -5.7752539617,
				"element": "H" 
			},
			{
				"x": -0.5876990862,
				"y": 0.7451909024,
				"z": -5.3992506488,
				"element": "H" 
			},
			{
				"x": 1.2586986665,
				"y": 2.5915405392,
				"z": 2.0521365261,
				"element": "H" 
			},
			{
				"x": 1.7612899506,
				"y": 4.5379918316,
				"z": 0.613208577,
				"element": "H" 
			},
			{
				"x": 1.1345879799,
				"y": 4.509303069,
				"z": -1.8013990821,
				"element": "H" 
			},
			{
				"x": 0.0373915587,
				"y": 2.5209479757,
				"z": -2.7783540251,
				"element": "H" 
			}
		],
		 "valence_orbital": [ 
			{
				"type": "occ",
				"energy": -0.27312,
				"method": "rhf"
			},
			{
				"type": "occ",
				"energy": -0.26886,
				"method": "rhf"
			},
			{
				"type": "occ",
				"energy": -0.25028,
				"method": "rhf"
			},
			{
				"type": "occ",
				"energy": -0.23726,
				"method": "rhf"
			},
			{
				"type": "occ",
				"energy": -0.18317,
				"method": "rhf"
			},
			{
				"type": "unocc",
				"energy": -0.0583,
				"method": "rhf"
			},
			{
				"type": "unocc",
				"energy": -0.01087,
				"method": "rhf"
			},
			{
				"type": "unocc",
				"energy": 0.00914,
				"method": "rhf"
			},
			{
				"type": "unocc",
				"energy": 0.05,
				"method": "rhf"
			},
			{
				"type": "unocc",
				"energy": 0.06418,
				"method": "rhf"
			}
		],
		"cosmo_sigma_profile": { 
			"-0.025": 0.0,
			"-0.024": 0.0,
			"-0.023": 0.0,
			"-0.022": 0.0,
			"-0.021": 0.0,
			"-0.02": 0.0,
			"-0.019": 0.0,
			"-0.018": 0.0,
			"-0.017": 0.0,
			"-0.016": 0.0,
			"-0.015": 0.0,
			"-0.014": 0.0,
			"-0.013": 0.0,
			"-0.012": 0.0,
			"-0.011": 0.0,
			"-0.01": 0.0,
			"-0.009": 0.0,
			"-0.008": 0.0,
			"-0.007": 0.00523596476438,
			"-0.006": 5.22566816612,
			"-0.005": 12.7426400631,
			"-0.004": 31.28759831,
			"-0.003": 49.1137618701,
			"-0.002": 36.3109574541,
			"-0.001": 29.4392522712,
			"0.0": 26.8947980851,
			"0.001": 19.5275181805,
			"0.002": 19.2092163001,
			"0.003": 29.0779755312,
			"0.004": 24.2820655015,
			"0.005": 19.4693402875,
			"0.006": 4.34349315838,
			"0.007": 2.40025981445,
			"0.008": 1.65443804086,
			"0.009": 2.60718228695,
			"0.01": 1.69594228775,
			"0.011": 1.63057680399,
			"0.012": 1.18543860948,
			"0.013": 0.0,
			"0.014": 0.0,
			"0.015": 0.0,
			"0.016": 0.0,
			"0.017": 0.0,
			"0.018": 0.0,
			"0.019": 0.0,
			"0.02": 0.0,
			"0.021": 0.0,
			"0.022": 0.0,
			"0.023": 0.0,
			"0.024": 0.0,
			"0.025": 0.0
		}
	}
}
