{
	 "smiles": "OC(=O)CCCCCCCCC(O)=O", 
	 "Tm": 406.15, 
	 "num_atms": 32, 
	 "gaussian": { 
		 "optdone": 1, 
		 "sigma_profile": "yes", 
		 "theory": "DFT", 
		 "functional": "B3LYP", 
		 "basiset": "6-31G**", 
		 "properties": { 
			 "R2extent": 6196.4273, 
			 "electric_dipole_moment_norm": 5.97571454974, 
			 "electric_quadrupole_moment_norm": 22.6595327472, 
			 "total_energy": -692.851076057, 
			 "HOMO_LUMO_gap": 0.26689, 
			 "cosmo_polarized_energy": -20.26, 
			 "cosmo_cavitation_energy": 35.08, 
			 "cosmo_dispersion_energy": -24.28, 
			 "cosmo_repulsion_energy": 1.99, 
			 "cosmo_total_nonelectrostatic_energy": 12.79, 
			 "SMD_solvation_energy": 7.37 
		},
		"coords": [
			{
				"x": 3.2115914185,
				"y": -1.4594223925,
				"z": 3.4019041424,
				"element": "O" 
			},
			{
				"x": 2.3220721758,
				"y": -2.4712172393,
				"z": 3.1848241385,
				"element": "C" 
			},
			{
				"x": 2.4074217327,
				"y": -3.4895236811,
				"z": 3.8231751292,
				"element": "O" 
			},
			{
				"x": 1.2749455638,
				"y": -2.2068500109,
				"z": 2.112047576,
				"element": "C" 
			},
			{
				"x": 1.8788228533,
				"y": -1.957628536,
				"z": 0.714437969,
				"element": "C" 
			},
			{
				"x": 0.8235558247,
				"y": -1.8235995955,
				"z": -0.3973883496,
				"element": "C" 
			},
			{
				"x": -0.1378564629,
				"y": -0.6269657082,
				"z": -0.2818699815,
				"element": "C" 
			},
			{
				"x": 0.5401987212,
				"y": 0.7466491697,
				"z": -0.400467524,
				"element": "C" 
			},
			{
				"x": -0.4193640746,
				"y": 1.9431047496,
				"z": -0.2832618798,
				"element": "C" 
			},
			{
				"x": -1.423453286,
				"y": 2.066972764,
				"z": -1.4387751129,
				"element": "C" 
			},
			{
				"x": -2.3154947775,
				"y": 3.308225801,
				"z": -1.3384811725,
				"element": "C" 
			},
			{
				"x": -3.3343324923,
				"y": 3.2306604157,
				"z": -0.2200183235,
				"element": "C" 
			},
			{
				"x": -3.9575691168,
				"y": 4.4196055833,
				"z": -0.0329400397,
				"element": "O" 
			},
			{
				"x": -3.6048357971,
				"y": 2.2466930995,
				"z": 0.4345091099,
				"element": "O" 
			},
			{
				"x": 3.0108653304,
				"y": -0.7094819256,
				"z": 2.8247264619,
				"element": "H" 
			},
			{
				"x": 0.6667904916,
				"y": -1.3471839287,
				"z": 2.4233958875,
				"element": "H" 
			},
			{
				"x": 0.6187757796,
				"y": -3.0801440909,
				"z": 2.0910734187,
				"element": "H" 
			},
			{
				"x": 2.5445311711,
				"y": -2.7930783196,
				"z": 0.4674422059,
				"element": "H" 
			},
			{
				"x": 2.5156468852,
				"y": -1.062692028,
				"z": 0.7282886319,
				"element": "H" 
			},
			{
				"x": 0.2342639246,
				"y": -2.7493488108,
				"z": -0.4279597794,
				"element": "H" 
			},
			{
				"x": 1.3468064448,
				"y": -1.7660231561,
				"z": -1.361121966,
				"element": "H" 
			},
			{
				"x": -0.6935952972,
				"y": -0.6759793327,
				"z": 0.6642607291,
				"element": "H" 
			},
			{
				"x": -0.8931591501,
				"y": -0.7292246675,
				"z": -1.069816017,
				"element": "H" 
			},
			{
				"x": 1.080044827,
				"y": 0.8023257946,
				"z": -1.3571858923,
				"element": "H" 
			},
			{
				"x": 1.305447775,
				"y": 0.8474245745,
				"z": 0.3805612457,
				"element": "H" 
			},
			{
				"x": 0.175301634,
				"y": 2.8658671753,
				"z": -0.2343390556,
				"element": "H" 
			},
			{
				"x": -0.9704962947,
				"y": 1.8755957983,
				"z": 0.6624798014,
				"element": "H" 
			},
			{
				"x": -0.8786047666,
				"y": 2.1074878656,
				"z": -2.3906475729,
				"element": "H" 
			},
			{
				"x": -2.0664899229,
				"y": 1.181930496,
				"z": -1.4760952657,
				"element": "H" 
			},
			{
				"x": -1.7262763541,
				"y": 4.2230022763,
				"z": -1.202099462,
				"element": "H" 
			},
			{
				"x": -2.8818544463,
				"y": 3.4587449852,
				"z": -2.2669696363,
				"element": "H" 
			},
			{
				"x": -4.6058003144,
				"y": 4.2757728744,
				"z": 0.6771105837,
				"element": "H" 
			}
		],
		 "valence_orbital": [ 
			{
				"type": "occ",
				"energy": -0.32183,
				"method": "rhf"
			},
			{
				"type": "occ",
				"energy": -0.31702,
				"method": "rhf"
			},
			{
				"type": "occ",
				"energy": -0.30892,
				"method": "rhf"
			},
			{
				"type": "occ",
				"energy": -0.28036,
				"method": "rhf"
			},
			{
				"type": "occ",
				"energy": -0.26255,
				"method": "rhf"
			},
			{
				"type": "unocc",
				"energy": 0.00434,
				"method": "rhf"
			},
			{
				"type": "unocc",
				"energy": 0.01389,
				"method": "rhf"
			},
			{
				"type": "unocc",
				"energy": 0.0396,
				"method": "rhf"
			},
			{
				"type": "unocc",
				"energy": 0.07453,
				"method": "rhf"
			},
			{
				"type": "unocc",
				"energy": 0.08332,
				"method": "rhf"
			}
		],
		"cosmo_sigma_profile": { 
			"-0.025": 0.0,
			"-0.024": 0.0,
			"-0.023": 0.0,
			"-0.022": 0.0,
			"-0.021": 0.0,
			"-0.02": 0.0,
			"-0.019": 0.0,
			"-0.018": 0.491609953802,
			"-0.017": 1.91482079727,
			"-0.016": 1.57886757711,
			"-0.015": 2.03299249823,
			"-0.014": 2.12508801309,
			"-0.013": 1.42815295445,
			"-0.012": 1.44875075086,
			"-0.011": 2.19150151427,
			"-0.01": 2.30204225067,
			"-0.009": 1.80206028857,
			"-0.008": 1.22527176465,
			"-0.007": 3.43192061997,
			"-0.006": 7.667296454,
			"-0.005": 9.7926961232,
			"-0.004": 15.4372364379,
			"-0.003": 24.533295001,
			"-0.002": 38.2699235948,
			"-0.001": 36.7327579477,
			"0.0": 28.7368362219,
			"0.001": 14.8272634982,
			"0.002": 7.52544273126,
			"0.003": 5.4379646406,
			"0.004": 4.15191816017,
			"0.005": 3.60401436563,
			"0.006": 5.12751986681,
			"0.007": 5.31162972482,
			"0.008": 5.87632350096,
			"0.009": 5.92025658472,
			"0.01": 7.08633764649,
			"0.011": 8.69488978342,
			"0.012": 10.6459595519,
			"0.013": 4.03473504242,
			"0.014": 0.304071585222,
			"0.015": 0.0,
			"0.016": 0.0,
			"0.017": 0.0,
			"0.018": 0.0,
			"0.019": 0.0,
			"0.02": 0.0,
			"0.021": 0.0,
			"0.022": 0.0,
			"0.023": 0.0,
			"0.024": 0.0,
			"0.025": 0.0
		}
	}
}
