{
	 "smiles": "O=C(CC#N)NCC1CCCO1", 
	 "Tm": 365.15, 
	 "num_atms": 24, 
	 "gaussian": { 
		 "optdone": 1, 
		 "sigma_profile": "yes", 
		 "theory": "DFT", 
		 "functional": "B3LYP", 
		 "basiset": "6-31G**", 
		 "properties": { 
			 "R2extent": 2923.6467, 
			 "electric_dipole_moment_norm": 4.99188016282, 
			 "electric_quadrupole_moment_norm": 16.6266909059, 
			 "total_energy": -572.017800076, 
			 "HOMO_LUMO_gap": 0.25973, 
			 "cosmo_polarized_energy": -16.24, 
			 "cosmo_cavitation_energy": 27.75, 
			 "cosmo_dispersion_energy": -19.56, 
			 "cosmo_repulsion_energy": 1.61, 
			 "cosmo_total_nonelectrostatic_energy": 9.8, 
			 "SMD_solvation_energy": 5.71 
		},
		"coords": [
			{
				"x": 0.9394948312,
				"y": -3.8057893367,
				"z": 0.5693227575,
				"element": "O" 
			},
			{
				"x": 0.3837058543,
				"y": -3.0237287119,
				"z": -0.1858765627,
				"element": "C" 
			},
			{
				"x": -0.1945531909,
				"y": -3.5347614776,
				"z": -1.5300653894,
				"element": "C" 
			},
			{
				"x": 0.3593940374,
				"y": -2.87354866,
				"z": -2.7110652489,
				"element": "C" 
			},
			{
				"x": 0.8062861846,
				"y": -2.3289739338,
				"z": -3.6340403714,
				"element": "N" 
			},
			{
				"x": 0.200268879,
				"y": -1.7091692959,
				"z": 0.1107172153,
				"element": "N" 
			},
			{
				"x": -0.3575770721,
				"y": -0.6397703452,
				"z": -0.7034210082,
				"element": "C" 
			},
			{
				"x": -0.9660961744,
				"y": 0.4327133907,
				"z": 0.2082298264,
				"element": "C" 
			},
			{
				"x": -1.3011114384,
				"y": 1.7403791134,
				"z": -0.5380002733,
				"element": "C" 
			},
			{
				"x": -0.0853469572,
				"y": 2.6331921014,
				"z": -0.2335000816,
				"element": "C" 
			},
			{
				"x": 0.2823048091,
				"y": 2.1780486347,
				"z": 1.1788889196,
				"element": "C" 
			},
			{
				"x": 0.0079516401,
				"y": 0.772398749,
				"z": 1.210211947,
				"element": "O" 
			},
			{
				"x": 0.0335149317,
				"y": -4.6021741603,
				"z": -1.5652053651,
				"element": "H" 
			},
			{
				"x": -1.2856586638,
				"y": -3.4220793681,
				"z": -1.5391938477,
				"element": "H" 
			},
			{
				"x": 0.6466456438,
				"y": -1.4054652378,
				"z": 0.9690921353,
				"element": "H" 
			},
			{
				"x": -1.1393864307,
				"y": -1.0322339528,
				"z": -1.3605869673,
				"element": "H" 
			},
			{
				"x": 0.4116123534,
				"y": -0.1869255776,
				"z": -1.344534455,
				"element": "H" 
			},
			{
				"x": -1.8450878539,
				"y": 0.011293739,
				"z": 0.7139089955,
				"element": "H" 
			},
			{
				"x": -2.2135942663,
				"y": 2.184572518,
				"z": -0.1279958672,
				"element": "H" 
			},
			{
				"x": -1.4605611327,
				"y": 1.5819389402,
				"z": -1.6087194137,
				"element": "H" 
			},
			{
				"x": 0.7349815668,
				"y": 2.4210385735,
				"z": -0.9272576929,
				"element": "H" 
			},
			{
				"x": -0.3118509425,
				"y": 3.7011143859,
				"z": -0.2928653936,
				"element": "H" 
			},
			{
				"x": -0.3291029275,
				"y": 2.6961208799,
				"z": 1.9334855273,
				"element": "H" 
			},
			{
				"x": 1.336466319,
				"y": 2.323209032,
				"z": 1.4326706142,
				"element": "H" 
			}
		],
		 "valence_orbital": [ 
			{
				"type": "occ",
				"energy": -0.33308,
				"method": "rhf"
			},
			{
				"type": "occ",
				"energy": -0.32986,
				"method": "rhf"
			},
			{
				"type": "occ",
				"energy": -0.27222,
				"method": "rhf"
			},
			{
				"type": "occ",
				"energy": -0.25983,
				"method": "rhf"
			},
			{
				"type": "occ",
				"energy": -0.25409,
				"method": "rhf"
			},
			{
				"type": "unocc",
				"energy": 0.00564,
				"method": "rhf"
			},
			{
				"type": "unocc",
				"energy": 0.02814,
				"method": "rhf"
			},
			{
				"type": "unocc",
				"energy": 0.04196,
				"method": "rhf"
			},
			{
				"type": "unocc",
				"energy": 0.06597,
				"method": "rhf"
			},
			{
				"type": "unocc",
				"energy": 0.08393,
				"method": "rhf"
			}
		],
		"cosmo_sigma_profile": { 
			"-0.025": 0.0,
			"-0.024": 0.0,
			"-0.023": 0.0,
			"-0.022": 0.0,
			"-0.021": 0.0,
			"-0.02": 0.0,
			"-0.019": 0.0,
			"-0.018": 0.0,
			"-0.017": 0.0,
			"-0.016": 0.0,
			"-0.015": 0.0,
			"-0.014": 0.0,
			"-0.013": 0.0,
			"-0.012": 0.0,
			"-0.011": 0.797045874402,
			"-0.01": 4.63094700828,
			"-0.009": 5.58061508686,
			"-0.008": 5.0249754856,
			"-0.007": 5.23642223802,
			"-0.006": 7.34404490626,
			"-0.005": 11.2605136556,
			"-0.004": 25.580702132,
			"-0.003": 26.6727973404,
			"-0.002": 23.2664234289,
			"-0.001": 16.8687307664,
			"0.0": 13.0074555244,
			"0.001": 6.51080208873,
			"0.002": 6.10990590565,
			"0.003": 5.8564535282,
			"0.004": 4.43222800146,
			"0.005": 4.90906675081,
			"0.006": 5.31180228608,
			"0.007": 4.79070025372,
			"0.008": 4.99786632067,
			"0.009": 4.81631911667,
			"0.01": 4.65634717188,
			"0.011": 5.06318421179,
			"0.012": 6.20142119109,
			"0.013": 7.5633898856,
			"0.014": 1.75700446355,
			"0.015": 0.0,
			"0.016": 0.0,
			"0.017": 0.0,
			"0.018": 0.0,
			"0.019": 0.0,
			"0.02": 0.0,
			"0.021": 0.0,
			"0.022": 0.0,
			"0.023": 0.0,
			"0.024": 0.0,
			"0.0": 0.0
		}
	}
}
