{
	 "smiles": "CC1(C)O[C@H]([C@H](O)CO)[C@H](O1)[C@H](O)CO", 
	 "Tm": 360.15, 
	 "num_atms": 33, 
	 "gaussian": { 
		 "optdone": 1, 
		 "sigma_profile": "yes", 
		 "theory": "DFT", 
		 "functional": "B3LYP", 
		 "basiset": "6-31G**", 
		 "properties": { 
			 "R2extent": 3975.7286, 
			 "electric_dipole_moment_norm": 5.12006918801, 
			 "electric_quadrupole_moment_norm": 7.03402160218, 
			 "total_energy": -805.123619426, 
			 "HOMO_LUMO_gap": 0.29188, 
			 "cosmo_polarized_energy": -16.89, 
			 "cosmo_cavitation_energy": 33.47, 
			 "cosmo_dispersion_energy": -23.32, 
			 "cosmo_repulsion_energy": 1.85, 
			 "cosmo_total_nonelectrostatic_energy": 12.0, 
			 "SMD_solvation_energy": 5.27 
		},
		"coords": [
			{
				"x": 1.3489947228,
				"y": 1.6159074232,
				"z": -2.5102578115,
				"element": "C" 
			},
			{
				"x": 0.7883654497,
				"y": 0.3621059534,
				"z": -1.8454733262,
				"element": "C" 
			},
			{
				"x": 1.5405768293,
				"y": -0.9100914919,
				"z": -2.2197750402,
				"element": "C" 
			},
			{
				"x": 0.8108926621,
				"y": 0.4916214878,
				"z": -0.4190977049,
				"element": "O" 
			},
			{
				"x": -0.5075823992,
				"y": 0.8254608111,
				"z": 0.039630534,
				"element": "C" 
			},
			{
				"x": -0.6962920653,
				"y": 0.3887552744,
				"z": 1.5019230791,
				"element": "C" 
			},
			{
				"x": -1.8806393398,
				"y": 0.9598461701,
				"z": 2.0199696231,
				"element": "O" 
			},
			{
				"x": 0.452683378,
				"y": 0.8612042335,
				"z": 2.4045078774,
				"element": "C" 
			},
			{
				"x": 1.6472247868,
				"y": 0.1282165013,
				"z": 2.2167801835,
				"element": "O" 
			},
			{
				"x": -1.3750102481,
				"y": 0.1189616953,
				"z": -1.0125496293,
				"element": "C" 
			},
			{
				"x": -0.5989599728,
				"y": 0.2450426839,
				"z": -2.20328747,
				"element": "O" 
			},
			{
				"x": -2.7707012186,
				"y": 0.7055458936,
				"z": -1.2586379344,
				"element": "C" 
			},
			{
				"x": -3.6016632543,
				"y": 0.4321448167,
				"z": -0.127877571,
				"element": "O" 
			},
			{
				"x": -3.4434621388,
				"y": 0.1324760643,
				"z": -2.5086698531,
				"element": "C" 
			},
			{
				"x": -3.7754572041,
				"y": -1.2423732489,
				"z": -2.2942208315,
				"element": "O" 
			},
			{
				"x": 2.4070592019,
				"y": 1.7367491951,
				"z": -2.2626216064,
				"element": "H" 
			},
			{
				"x": 1.2482446708,
				"y": 1.5460146391,
				"z": -3.5970145747,
				"element": "H" 
			},
			{
				"x": 0.8032353884,
				"y": 2.4983650544,
				"z": -2.1670468832,
				"element": "H" 
			},
			{
				"x": 1.0755344344,
				"y": -1.7734705567,
				"z": -1.7374081739,
				"element": "H" 
			},
			{
				"x": 2.5817936098,
				"y": -0.847768547,
				"z": -1.8910317134,
				"element": "H" 
			},
			{
				"x": 1.524724146,
				"y": -1.0547233686,
				"z": -3.3034219414,
				"element": "H" 
			},
			{
				"x": -0.6619859959,
				"y": 1.9151308872,
				"z": -0.0107598056,
				"element": "H" 
			},
			{
				"x": -0.7112470191,
				"y": -0.7142873404,
				"z": 1.5407636877,
				"element": "H" 
			},
			{
				"x": -2.6209210201,
				"y": 0.7336412163,
				"z": 1.426758282,
				"element": "H" 
			},
			{
				"x": 0.1360981882,
				"y": 0.7096780674,
				"z": 3.4405200587,
				"element": "H" 
			},
			{
				"x": 0.5984726333,
				"y": 1.9453324221,
				"z": 2.2627352252,
				"element": "H" 
			},
			{
				"x": 1.8593790971,
				"y": 0.1915992517,
				"z": 1.2745079716,
				"element": "H" 
			},
			{
				"x": -1.4833490764,
				"y": -0.943933546,
				"z": -0.7350439141,
				"element": "H" 
			},
			{
				"x": -2.695011872,
				"y": 1.7946420798,
				"z": -1.3532656641,
				"element": "H" 
			},
			{
				"x": -3.9566802523,
				"y": -0.4600089369,
				"z": -0.2837839932,
				"element": "H" 
			},
			{
				"x": -2.8067669718,
				"y": 0.271416887,
				"z": -3.3880135582,
				"element": "H" 
			},
			{
				"x": -4.3927395643,
				"y": 0.6513661978,
				"z": -2.6703082357,
				"element": "H" 
			},
			{
				"x": -2.9928095856,
				"y": -1.7736678701,
				"z": -2.4898292863,
				"element": "H" 
			}
		],
		 "valence_orbital": [ 
			{
				"type": "occ",
				"energy": -0.2898,
				"method": "rhf"
			},
			{
				"type": "occ",
				"energy": -0.28582,
				"method": "rhf"
			},
			{
				"type": "occ",
				"energy": -0.271,
				"method": "rhf"
			},
			{
				"type": "occ",
				"energy": -0.25921,
				"method": "rhf"
			},
			{
				"type": "occ",
				"energy": -0.24813,
				"method": "rhf"
			},
			{
				"type": "unocc",
				"energy": 0.04375,
				"method": "rhf"
			},
			{
				"type": "unocc",
				"energy": 0.06079,
				"method": "rhf"
			},
			{
				"type": "unocc",
				"energy": 0.08397,
				"method": "rhf"
			},
			{
				"type": "unocc",
				"energy": 0.08475,
				"method": "rhf"
			},
			{
				"type": "unocc",
				"energy": 0.09768,
				"method": "rhf"
			}
		],
		"cosmo_sigma_profile": { 
			"-0.025": 0.0,
			"-0.024": 0.0,
			"-0.023": 0.0,
			"-0.022": 0.0,
			"-0.021": 0.0,
			"-0.02": 0.0,
			"-0.019": 0.0,
			"-0.018": 0.0,
			"-0.017": 0.0,
			"-0.016": 0.368007421832,
			"-0.015": 0.773552351318,
			"-0.014": 0.930765570253,
			"-0.013": 0.941095416698,
			"-0.012": 1.54060848396,
			"-0.011": 1.15807194395,
			"-0.01": 1.69348809841,
			"-0.009": 2.12879547038,
			"-0.008": 2.57182527881,
			"-0.007": 3.1085223197,
			"-0.006": 7.98727578462,
			"-0.005": 17.079121822,
			"-0.004": 30.2235189961,
			"-0.003": 26.758968828,
			"-0.002": 25.4743437475,
			"-0.001": 23.9634788986,
			"0.0": 21.9543638635,
			"0.001": 12.4362718752,
			"0.002": 11.6403035527,
			"0.003": 8.51400419197,
			"0.004": 6.21604321946,
			"0.005": 5.4679929917,
			"0.006": 6.4535023494,
			"0.007": 5.0730853043,
			"0.008": 5.95470354157,
			"0.009": 4.13003233256,
			"0.01": 4.85263868342,
			"0.011": 3.74126267373,
			"0.012": 4.1208409949,
			"0.013": 4.6478380199,
			"0.014": 4.4179597318,
			"0.015": 1.7973090478,
			"0.016": 0.0,
			"0.017": 0.0,
			"0.018": 0.0,
			"0.019": 0.0,
			"0.02": 0.0,
			"0.021": 0.0,
			"0.022": 0.0,
			"0.023": 0.0,
			"0.024": 0.0,
			"0.025": 0.0
		}
	}
}
