{
	 "smiles": "NC1=C(C=NC(Br)=N1)C#N", 
	 "Tm": 523.15, 
	 "num_atms": 13, 
	 "gaussian": { 
		 "optdone": 1, 
		 "sigma_profile": "yes", 
		 "theory": "DFT", 
		 "functional": "B3LYP", 
		 "basiset": "6-31G**", 
		 "properties": { 
			 "R2extent": 3863.5118, 
			 "electric_dipole_moment_norm": 2.47276188502, 
			 "electric_quadrupole_moment_norm": 11.8884756651, 
			 "total_energy": -2982.73698743, 
			 "HOMO_LUMO_gap": 0.18888, 
			 "cosmo_polarized_energy": -14.12, 
			 "cosmo_cavitation_energy": 21.61, 
			 "cosmo_dispersion_energy": -16.17, 
			 "cosmo_repulsion_energy": 1.33, 
			 "cosmo_total_nonelectrostatic_energy": 6.76, 
			 "SMD_solvation_energy": 1.05 
		},
		"coords": [
			{
				"x": -1.0196895666,
				"y": 0.8668517561,
				"z": 0.9089289346,
				"element": "N" 
			},
			{
				"x": -0.5648715409,
				"y": -0.3825016311,
				"z": 0.6978972073,
				"element": "C" 
			},
			{
				"x": -0.6332041429,
				"y": -1.0131986871,
				"z": -0.5809155262,
				"element": "C" 
			},
			{
				"x": -0.1240955678,
				"y": -2.3103751969,
				"z": -0.6595335543,
				"element": "C" 
			},
			{
				"x": 0.4036658476,
				"y": -2.9542262201,
				"z": 0.3862347184,
				"element": "N" 
			},
			{
				"x": 0.407541952,
				"y": -2.2579154163,
				"z": 1.5204074724,
				"element": "C" 
			},
			{
				"x": 1.1548871462,
				"y": -3.1551552967,
				"z": 3.0305475684,
				"element": "Br" 
			},
			{
				"x": -0.0327335607,
				"y": -1.0336627832,
				"z": 1.7489936463,
				"element": "N" 
			},
			{
				"x": -1.1949371227,
				"y": -0.3317594408,
				"z": -1.6964363227,
				"element": "C" 
			},
			{
				"x": -1.6656628399,
				"y": 0.2770053245,
				"z": -2.5710597159,
				"element": "N" 
			},
			{
				"x": -1.4290177888,
				"y": 1.4099889043,
				"z": 0.1653453185,
				"element": "H" 
			},
			{
				"x": -0.9420832704,
				"y": 1.2549428423,
				"z": 1.8359356679,
				"element": "H" 
			},
			{
				"x": -0.1456995452,
				"y": -2.8465941552,
				"z": -1.6052454147,
				"element": "H" 
			}
		],
		 "valence_orbital": [ 
			{
				"type": "occ",
				"energy": -0.33065,
				"method": "rhf"
			},
			{
				"type": "occ",
				"energy": -0.3026,
				"method": "rhf"
			},
			{
				"type": "occ",
				"energy": -0.29134,
				"method": "rhf"
			},
			{
				"type": "occ",
				"energy": -0.27689,
				"method": "rhf"
			},
			{
				"type": "occ",
				"energy": -0.26405,
				"method": "rhf"
			},
			{
				"type": "unocc",
				"energy": -0.07517,
				"method": "rhf"
			},
			{
				"type": "unocc",
				"energy": -0.04456,
				"method": "rhf"
			},
			{
				"type": "unocc",
				"energy": 0.00207,
				"method": "rhf"
			},
			{
				"type": "unocc",
				"energy": 0.00729,
				"method": "rhf"
			},
			{
				"type": "unocc",
				"energy": 0.0443,
				"method": "rhf"
			}
		],
		"cosmo_sigma_profile": { 
			"-0.025": 0.0,
			"-0.024": 0.0,
			"-0.023": 0.0,
			"-0.022": 0.0,
			"-0.021": 0.0,
			"-0.02": 0.0,
			"-0.019": 0.0,
			"-0.018": 0.0,
			"-0.017": 0.0,
			"-0.016": 0.711022566599,
			"-0.015": 2.03500243544,
			"-0.014": 2.19742033047,
			"-0.013": 2.54497614813,
			"-0.012": 2.13918195964,
			"-0.011": 1.55684634222,
			"-0.01": 3.67770589005,
			"-0.009": 5.11983896013,
			"-0.008": 3.34911093443,
			"-0.007": 4.14242215521,
			"-0.006": 4.68137303347,
			"-0.005": 7.83802764617,
			"-0.004": 10.4504746181,
			"-0.003": 12.6764898908,
			"-0.002": 11.0883515964,
			"-0.001": 9.60036645492,
			"0.0": 9.83898149059,
			"0.001": 8.61818579297,
			"0.002": 10.2804972492,
			"0.003": 12.2083548021,
			"0.004": 11.5122841021,
			"0.005": 6.82319926923,
			"0.006": 6.29642584068,
			"0.007": 5.22986965068,
			"0.008": 5.6564295038,
			"0.009": 5.1840420892,
			"0.01": 4.53267680185,
			"0.011": 4.38636480565,
			"0.012": 2.98691588829,
			"0.013": 1.27578664041,
			"0.014": 0.213795258031,
			"0.015": 0.0,
			"0.016": 0.0,
			"0.017": 0.0,
			"0.018": 0.0,
			"0.019": 0.0,
			"0.02": 0.0,
			"0.021": 0.0,
			"0.022": 0.0,
			"0.023": 0.0,
			"0.024": 0.0,
			"0.025": 0.0
		}
	}
}
