{
	 "smiles": "NC1=CC(=NN1C1=CC=CC=C1)C1=CC=CS1", 
	 "Tm": 395.15, 
	 "num_atms": 28, 
	 "gaussian": { 
		 "optdone": 1, 
		 "sigma_profile": "yes", 
		 "theory": "DFT", 
		 "functional": "B3LYP", 
		 "basiset": "6-31G**", 
		 "properties": { 
			 "R2extent": 6539.0331, 
			 "electric_dipole_moment_norm": 2.99278369415, 
			 "electric_quadrupole_moment_norm": 11.2878621098, 
			 "total_energy": -1064.42413037, 
			 "HOMO_LUMO_gap": 0.16499, 
			 "cosmo_polarized_energy": -13.73, 
			 "cosmo_cavitation_energy": 33.88, 
			 "cosmo_dispersion_energy": -25.4, 
			 "cosmo_repulsion_energy": 1.91, 
			 "cosmo_total_nonelectrostatic_energy": 10.38, 
			 "SMD_solvation_energy": 4.99 
		},
		"coords": [
			{
				"x": 1.8157135674,
				"y": 1.1148469232,
				"z": 1.3919487053,
				"element": "N" 
			},
			{
				"x": 1.5326388106,
				"y": 0.4917099354,
				"z": 0.1783537533,
				"element": "C" 
			},
			{
				"x": 2.2218842921,
				"y": 0.5155703966,
				"z": -1.0180260755,
				"element": "C" 
			},
			{
				"x": 1.4763534915,
				"y": -0.3267452062,
				"z": -1.8867471008,
				"element": "C" 
			},
			{
				"x": 0.4037302939,
				"y": -0.8344398179,
				"z": -1.2802855127,
				"element": "N" 
			},
			{
				"x": 0.4541255212,
				"y": -0.3426905623,
				"z": -0.0013087998,
				"element": "N" 
			},
			{
				"x": -0.5895318469,
				"y": -0.6627954289,
				"z": 0.9048007332,
				"element": "C" 
			},
			{
				"x": -0.3329421613,
				"y": -0.8248073782,
				"z": 2.2731390874,
				"element": "C" 
			},
			{
				"x": -1.383831352,
				"y": -1.1352700135,
				"z": 3.1382093763,
				"element": "C" 
			},
			{
				"x": -2.6789360065,
				"y": -1.3061132357,
				"z": 2.6493451051,
				"element": "C" 
			},
			{
				"x": -2.9212657272,
				"y": -1.1670175323,
				"z": 1.2797754644,
				"element": "C" 
			},
			{
				"x": -1.8869482439,
				"y": -0.8420692421,
				"z": 0.4062763977,
				"element": "C" 
			},
			{
				"x": 1.7542300378,
				"y": -0.6634723709,
				"z": -3.2769327158,
				"element": "C" 
			},
			{
				"x": 1.0399238043,
				"y": -1.4948062449,
				"z": -4.1080782876,
				"element": "C" 
			},
			{
				"x": 1.5957518871,
				"y": -1.5981384252,
				"z": -5.4152206166,
				"element": "C" 
			},
			{
				"x": 2.7289896469,
				"y": -0.8474398362,
				"z": -5.5744602118,
				"element": "C" 
			},
			{
				"x": 3.1364592268,
				"y": 0.0032394681,
				"z": -4.1186150069,
				"element": "S" 
			},
			{
				"x": 0.9923307023,
				"y": 1.4261796442,
				"z": 1.8955191026,
				"element": "H" 
			},
			{
				"x": 2.4735037629,
				"y": 1.8757235546,
				"z": 1.2789285213,
				"element": "H" 
			},
			{
				"x": 3.1242117766,
				"y": 1.0686170438,
				"z": -1.2329418631,
				"element": "H" 
			},
			{
				"x": 0.679623512,
				"y": -0.7351552319,
				"z": 2.6497355937,
				"element": "H" 
			},
			{
				"x": -1.17937497,
				"y": -1.2611582942,
				"z": 4.1975258167,
				"element": "H" 
			},
			{
				"x": -3.4910544754,
				"y": -1.5531869747,
				"z": 3.3263577841,
				"element": "H" 
			},
			{
				"x": -3.9247987145,
				"y": -1.3058293079,
				"z": 0.8880769294,
				"element": "H" 
			},
			{
				"x": -2.0565511082,
				"y": -0.7341747562,
				"z": -0.6581204395,
				"element": "H" 
			},
			{
				"x": 0.1476993832,
				"y": -2.0101331437,
				"z": -3.774303884,
				"element": "H" 
			},
			{
				"x": 1.1702746114,
				"y": -2.2075647455,
				"z": -6.2046651988,
				"element": "H" 
			},
			{
				"x": 3.3500902777,
				"y": -0.7412792176,
				"z": -6.4527866575,
				"element": "H" 
			}
		],
		 "valence_orbital": [ 
			{
				"type": "occ",
				"energy": -0.25705,
				"method": "rhf"
			},
			{
				"type": "occ",
				"energy": -0.2439,
				"method": "rhf"
			},
			{
				"type": "occ",
				"energy": -0.2429,
				"method": "rhf"
			},
			{
				"type": "occ",
				"energy": -0.21499,
				"method": "rhf"
			},
			{
				"type": "occ",
				"energy": -0.1943,
				"method": "rhf"
			},
			{
				"type": "unocc",
				"energy": -0.02931,
				"method": "rhf"
			},
			{
				"type": "unocc",
				"energy": -0.00895,
				"method": "rhf"
			},
			{
				"type": "unocc",
				"energy": -0.00503,
				"method": "rhf"
			},
			{
				"type": "unocc",
				"energy": 0.03728,
				"method": "rhf"
			},
			{
				"type": "unocc",
				"energy": 0.04634,
				"method": "rhf"
			}
		],
		"cosmo_sigma_profile": { 
			"-0.025": 0.0,
			"-0.024": 0.0,
			"-0.023": 0.0,
			"-0.022": 0.0,
			"-0.021": 0.0,
			"-0.02": 0.0,
			"-0.019": 0.0,
			"-0.018": 0.0,
			"-0.017": 0.0,
			"-0.016": 0.0,
			"-0.015": 0.0,
			"-0.014": 0.358173543206,
			"-0.013": 1.87808019894,
			"-0.012": 2.74573524365,
			"-0.011": 2.87524430594,
			"-0.01": 2.64029375761,
			"-0.009": 2.94810700848,
			"-0.008": 4.68338589062,
			"-0.007": 6.55736397043,
			"-0.006": 14.1173350474,
			"-0.005": 16.0527338439,
			"-0.004": 19.5998931904,
			"-0.003": 16.9388484836,
			"-0.002": 13.8240848483,
			"-0.001": 14.456824477,
			"0.0": 14.466258037,
			"0.001": 17.1988738348,
			"0.002": 18.9787981708,
			"0.003": 23.0387530557,
			"0.004": 31.0391792313,
			"0.005": 28.2604093933,
			"0.006": 7.67903356584,
			"0.007": 2.80224799582,
			"0.008": 2.99526572551,
			"0.009": 2.73381633633,
			"0.01": 1.98208799827,
			"0.011": 1.22630989786,
			"0.012": 1.33209073958,
			"0.013": 0.839440626145,
			"0.014": 0.10846053515,
			"0.015": 0.0,
			"0.016": 0.0,
			"0.017": 0.0,
			"0.018": 0.0,
			"0.019": 0.0,
			"0.02": 0.0,
			"0.021": 0.0,
			"0.022": 0.0,
			"0.023": 0.0,
			"0.024": 0.0,
			"0.025": 0.0
		}
	}
}
