{
	 "smiles": "CC1(C)C2=CC=CC(P(C3=CC=CC=C3)C3=CC=CC=C3)=C2OC2=C1C=CC=C2P(C1=CC=CC=C1)C1=CC=CC=C1", 
	 "Tm": 501.15, 
	 "num_atms": 74, 
	 "gaussian": { 
		 "optdone": 1, 
		 "sigma_profile": "yes", 
		 "theory": "DFT", 
		 "functional": "B3LYP", 
		 "basiset": "6-31G**", 
		 "properties": { 
			 "R2extent": 20181.953, 
			 "electric_dipole_moment_norm": 3.34326074365, 
			 "electric_quadrupole_moment_norm": 18.7632122159, 
			 "total_energy": -2263.35893639, 
			 "HOMO_LUMO_gap": 0.17052, 
			 "cosmo_polarized_energy": -17.06, 
			 "cosmo_cavitation_energy": 75.49, 
			 "cosmo_dispersion_energy": -45.48, 
			 "cosmo_repulsion_energy": 3.44, 
			 "cosmo_total_nonelectrostatic_energy": 33.44, 
			 "SMD_solvation_energy": 12.44 
		},
		"coords": [
			{
				"x": 4.0630343223,
				"y": 1.0056983265,
				"z": -3.0814232088,
				"element": "C" 
			},
			{
				"x": 3.5672350368,
				"y": 0.7421310498,
				"z": -1.6341564955,
				"element": "C" 
			},
			{
				"x": 4.5938162537,
				"y": 1.3187354726,
				"z": -0.6221978647,
				"element": "C" 
			},
			{
				"x": 2.2187897472,
				"y": 1.431188789,
				"z": -1.431915865,
				"element": "C" 
			},
			{
				"x": 2.0998018142,
				"y": 2.8030806076,
				"z": -1.6864865139,
				"element": "C" 
			},
			{
				"x": 0.893901078,
				"y": 3.4759403773,
				"z": -1.5338542514,
				"element": "C" 
			},
			{
				"x": -0.2279876338,
				"y": 2.7651270642,
				"z": -1.1194084237,
				"element": "C" 
			},
			{
				"x": -0.1641721818,
				"y": 1.3947953754,
				"z": -0.8354270948,
				"element": "C" 
			},
			{
				"x": -1.6941525018,
				"y": 0.471636765,
				"z": -0.3190860509,
				"element": "P" 
			},
			{
				"x": -2.985877205,
				"y": 1.3433574457,
				"z": -1.3313152871,
				"element": "C" 
			},
			{
				"x": -3.2214012863,
				"y": 0.8356817342,
				"z": -2.6205496068,
				"element": "C" 
			},
			{
				"x": -4.1785898099,
				"y": 1.4149167252,
				"z": -3.45336903,
				"element": "C" 
			},
			{
				"x": -4.9333608606,
				"y": 2.5012451946,
				"z": -3.0051060141,
				"element": "C" 
			},
			{
				"x": -4.7218196923,
				"y": 3.0041928818,
				"z": -1.7207195531,
				"element": "C" 
			},
			{
				"x": -3.7545445801,
				"y": 2.4323659615,
				"z": -0.8907135275,
				"element": "C" 
			},
			{
				"x": -2.0206480887,
				"y": 1.1553411426,
				"z": 1.3745420298,
				"element": "C" 
			},
			{
				"x": -1.1555564552,
				"y": 2.0080148722,
				"z": 2.0754810242,
				"element": "C" 
			},
			{
				"x": -1.4480327305,
				"y": 2.4051416021,
				"z": 3.3834891389,
				"element": "C" 
			},
			{
				"x": -2.6120193061,
				"y": 1.9630533758,
				"z": 4.0119513098,
				"element": "C" 
			},
			{
				"x": -3.4819494088,
				"y": 1.1093601125,
				"z": 3.3269997732,
				"element": "C" 
			},
			{
				"x": -3.1823572216,
				"y": 0.7015338644,
				"z": 2.0280730554,
				"element": "C" 
			},
			{
				"x": 1.0800381846,
				"y": 0.7386937578,
				"z": -0.9905477674,
				"element": "C" 
			},
			{
				"x": 1.1199229491,
				"y": -0.6074981723,
				"z": -0.6865104616,
				"element": "O" 
			},
			{
				"x": 2.2514004805,
				"y": -1.3538060489,
				"z": -0.9382300741,
				"element": "C" 
			},
			{
				"x": 3.4346187936,
				"y": -0.7640365013,
				"z": -1.4080347307,
				"element": "C" 
			},
			{
				"x": 4.5406314952,
				"y": -1.5920532808,
				"z": -1.6492335744,
				"element": "C" 
			},
			{
				"x": 4.4871750756,
				"y": -2.963441946,
				"z": -1.4497674999,
				"element": "C" 
			},
			{
				"x": 3.3030152877,
				"y": -3.5272481746,
				"z": -0.9814722829,
				"element": "C" 
			},
			{
				"x": 2.1690631637,
				"y": -2.7500893428,
				"z": -0.7040186914,
				"element": "C" 
			},
			{
				"x": 0.7964145064,
				"y": -3.7639368951,
				"z": 0.0278758396,
				"element": "P" 
			},
			{
				"x": -0.7216339524,
				"y": -3.3416914629,
				"z": -0.9215979086,
				"element": "C" 
			},
			{
				"x": -1.9849870036,
				"y": -3.638123932,
				"z": -0.3819651724,
				"element": "C" 
			},
			{
				"x": -3.1388884018,
				"y": -3.5217378178,
				"z": -1.1565363352,
				"element": "C" 
			},
			{
				"x": -3.0531180477,
				"y": -3.12879932,
				"z": -2.4935531466,
				"element": "C" 
			},
			{
				"x": -1.801643234,
				"y": -2.8501968319,
				"z": -3.046616728,
				"element": "C" 
			},
			{
				"x": -0.6478064013,
				"y": -2.9532664806,
				"z": -2.2683785148,
				"element": "C" 
			},
			{
				"x": 0.5794019516,
				"y": -3.0564504929,
				"z": 1.7243516678,
				"element": "C" 
			},
			{
				"x": -0.3246780387,
				"y": -2.0484886034,
				"z": 2.0863842844,
				"element": "C" 
			},
			{
				"x": -0.4091425369,
				"y": -1.6127888515,
				"z": 3.4106797036,
				"element": "C" 
			},
			{
				"x": 0.4157127965,
				"y": -2.1710900106,
				"z": 4.3890477483,
				"element": "C" 
			},
			{
				"x": 1.3191632541,
				"y": -3.1774585998,
				"z": 4.0421184955,
				"element": "C" 
			},
			{
				"x": 1.3902285767,
				"y": -3.6241057646,
				"z": 2.7227019251,
				"element": "C" 
			},
			{
				"x": 3.3540700898,
				"y": 0.6063992664,
				"z": -3.812252643,
				"element": "H" 
			},
			{
				"x": 5.0349475051,
				"y": 0.5376138877,
				"z": -3.2589858192,
				"element": "H" 
			},
			{
				"x": 4.1798374791,
				"y": 2.0761651125,
				"z": -3.2707928444,
				"element": "H" 
			},
			{
				"x": 5.5740782553,
				"y": 0.8489227523,
				"z": -0.7492595696,
				"element": "H" 
			},
			{
				"x": 4.7173535496,
				"y": 2.3972747025,
				"z": -0.7618841858,
				"element": "H" 
			},
			{
				"x": 4.264496233,
				"y": 1.1439906878,
				"z": 0.4060557344,
				"element": "H" 
			},
			{
				"x": 2.9747643631,
				"y": 3.3552429808,
				"z": -2.0148326213,
				"element": "H" 
			},
			{
				"x": 0.8266523995,
				"y": 4.5393354492,
				"z": -1.7422558994,
				"element": "H" 
			},
			{
				"x": -1.1785291522,
				"y": 3.2779577962,
				"z": -1.0197396059,
				"element": "H" 
			},
			{
				"x": -2.658414578,
				"y": -0.0274477624,
				"z": -2.965133002,
				"element": "H" 
			},
			{
				"x": -4.3437369758,
				"y": 1.0106898359,
				"z": -4.4484457248,
				"element": "H" 
			},
			{
				"x": -5.6857909869,
				"y": 2.9472403362,
				"z": -3.6494863092,
				"element": "H" 
			},
			{
				"x": -5.3086148793,
				"y": 3.8455948822,
				"z": -1.3618307475,
				"element": "H" 
			},
			{
				"x": -3.6036104783,
				"y": 2.8326509036,
				"z": 0.1068899491,
				"element": "H" 
			},
			{
				"x": -0.2483487408,
				"y": 2.3664187226,
				"z": 1.6011885914,
				"element": "H" 
			},
			{
				"x": -0.7626764876,
				"y": 3.0647677541,
				"z": 3.9088669452,
				"element": "H" 
			},
			{
				"x": -2.8393862439,
				"y": 2.2757991289,
				"z": 5.0271136728,
				"element": "H" 
			},
			{
				"x": -4.3894709733,
				"y": 0.754535672,
				"z": 3.8077469009,
				"element": "H" 
			},
			{
				"x": -3.8590155609,
				"y": 0.024034786,
				"z": 1.5126994954,
				"element": "H" 
			},
			{
				"x": 5.4647470747,
				"y": -1.1446716631,
				"z": -2.0014990909,
				"element": "H" 
			},
			{
				"x": 5.3537234058,
				"y": -3.5853364098,
				"z": -1.6514442346,
				"element": "H" 
			},
			{
				"x": 3.2423317206,
				"y": -4.5984028474,
				"z": -0.8146901655,
				"element": "H" 
			},
			{
				"x": -2.0696386874,
				"y": -3.9600826203,
				"z": 0.6522208716,
				"element": "H" 
			},
			{
				"x": -4.1064821547,
				"y": -3.7463431838,
				"z": -0.7158955302,
				"element": "H" 
			},
			{
				"x": -3.9511661828,
				"y": -3.0471381733,
				"z": -3.0991255285,
				"element": "H" 
			},
			{
				"x": -1.7202357582,
				"y": -2.5545045451,
				"z": -4.0895883296,
				"element": "H" 
			},
			{
				"x": 0.3176110884,
				"y": -2.7356342755,
				"z": -2.7152548273,
				"element": "H" 
			},
			{
				"x": -0.9652559933,
				"y": -1.6067035812,
				"z": 1.3321449718,
				"element": "H" 
			},
			{
				"x": -1.1153463192,
				"y": -0.8305203465,
				"z": 3.6719243235,
				"element": "H" 
			},
			{
				"x": 0.3502040005,
				"y": -1.8280861028,
				"z": 5.4180720943,
				"element": "H" 
			},
			{
				"x": 1.9579174279,
				"y": -3.6242233186,
				"z": 4.7992399002,
				"element": "H" 
			},
			{
				"x": 2.0780873716,
				"y": -4.424963795,
				"z": 2.4627289077,
				"element": "H" 
			}
		],
		 "valence_orbital": [ 
			{
				"type": "occ",
				"energy": -0.23852,
				"method": "rhf"
			},
			{
				"type": "occ",
				"energy": -0.23745,
				"method": "rhf"
			},
			{
				"type": "occ",
				"energy": -0.21269,
				"method": "rhf"
			},
			{
				"type": "occ",
				"energy": -0.20787,
				"method": "rhf"
			},
			{
				"type": "occ",
				"energy": -0.19793,
				"method": "rhf"
			},
			{
				"type": "unocc",
				"energy": -0.02741,
				"method": "rhf"
			},
			{
				"type": "unocc",
				"energy": -0.02193,
				"method": "rhf"
			},
			{
				"type": "unocc",
				"energy": -0.0184,
				"method": "rhf"
			},
			{
				"type": "unocc",
				"energy": -0.01041,
				"method": "rhf"
			},
			{
				"type": "unocc",
				"energy": -0.00635,
				"method": "rhf"
			}
		],
		"cosmo_sigma_profile": { 
			"-0.025": 0.0,
			"-0.024": 0.0,
			"-0.023": 0.0,
			"-0.022": 0.0,
			"-0.021": 0.0,
			"-0.02": 0.0,
			"-0.019": 0.0,
			"-0.018": 0.0,
			"-0.017": 0.0,
			"-0.016": 0.0,
			"-0.015": 0.0,
			"-0.014": 0.0,
			"-0.013": 0.0,
			"-0.012": 0.0,
			"-0.011": 0.0,
			"-0.01": 0.0,
			"-0.009": 0.0,
			"-0.008": 0.0,
			"-0.007": 2.62863243483,
			"-0.006": 23.3268000607,
			"-0.005": 42.9938687479,
			"-0.004": 54.4888513486,
			"-0.003": 56.2326064355,
			"-0.002": 50.1855733533,
			"-0.001": 50.4900073061,
			"0.0": 53.256547288,
			"0.001": 56.88630575,
			"0.002": 50.5332777053,
			"0.003": 47.3770184613,
			"0.004": 47.2384493522,
			"0.005": 39.5098752039,
			"0.006": 14.8103043213,
			"0.007": 3.26492763718,
			"0.008": 3.21532231748,
			"0.009": 2.26703467041,
			"0.01": 2.66793096974,
			"0.011": 1.58268006517,
			"0.012": 0.881298657676,
			"0.013": 0.984005551375,
			"0.014": 0.0626536249629,
			"0.015": 0.0,
			"0.016": 0.0,
			"0.017": 0.0,
			"0.018": 0.0,
			"0.019": 0.0,
			"0.02": 0.0,
			"0.021": 0.0,
			"0.022": 0.0,
			"0.023": 0.0,
			"0.024": 0.0,
			"0.025": 0.0
		}
	}
}
