{
	 "smiles": "CC(C)=C(F)C(O)=O", 
	 "Tm": 338.15, 
	 "num_atms": 15, 
	 "gaussian": { 
		 "optdone": 1, 
		 "sigma_profile": "yes", 
		 "theory": "DFT", 
		 "functional": "B3LYP", 
		 "basiset": "6-31G**", 
		 "properties": { 
			 "R2extent": 1821.3967, 
			 "electric_dipole_moment_norm": 3.35531191099, 
			 "electric_quadrupole_moment_norm": 13.5784000401, 
			 "total_energy": -445.031439374, 
			 "HOMO_LUMO_gap": 0.20845, 
			 "cosmo_polarized_energy": -9.45, 
			 "cosmo_cavitation_energy": 19.28, 
			 "cosmo_dispersion_energy": -14.18, 
			 "cosmo_repulsion_energy": 1.18, 
			 "cosmo_total_nonelectrostatic_energy": 6.29, 
			 "SMD_solvation_energy": 5.62 
		},
		"coords": [
			{
				"x": 1.6296128099,
				"y": 0.4595061014,
				"z": 0.0124497155,
				"element": "C" 
			},
			{
				"x": 0.9606250372,
				"y": -0.8919564914,
				"z": -0.0027872185,
				"element": "C" 
			},
			{
				"x": 0.8171196466,
				"y": -1.5426580323,
				"z": 1.3461975662,
				"element": "C" 
			},
			{
				"x": 0.5501379703,
				"y": -1.410258657,
				"z": -1.175950837,
				"element": "C" 
			},
			{
				"x": 0.75281542,
				"y": -0.696549299,
				"z": -2.3113721953,
				"element": "F" 
			},
			{
				"x": -0.1256549487,
				"y": -2.687971719,
				"z": -1.5215040257,
				"element": "C" 
			},
			{
				"x": -0.389338103,
				"y": -3.4992781705,
				"z": -0.4652819293,
				"element": "O" 
			},
			{
				"x": -0.422983004,
				"y": -2.9917257474,
				"z": -2.6562940489,
				"element": "O" 
			},
			{
				"x": 1.0691599553,
				"y": 1.149442558,
				"z": 0.6555314908,
				"element": "H" 
			},
			{
				"x": 1.709896376,
				"y": 0.8946982239,
				"z": -0.9824291296,
				"element": "H" 
			},
			{
				"x": 2.6350588032,
				"y": 0.3765880895,
				"z": 0.4436466362,
				"element": "H" 
			},
			{
				"x": 0.2402301829,
				"y": -0.8847796156,
				"z": 2.0086985714,
				"element": "H" 
			},
			{
				"x": 1.8078020222,
				"y": -1.6512801954,
				"z": 1.8057526432,
				"element": "H" 
			},
			{
				"x": 0.3369485408,
				"y": -2.5160426274,
				"z": 1.3148023678,
				"element": "H" 
			},
			{
				"x": -0.8240307087,
				"y": -4.2790344177,
				"z": -0.8495596069,
				"element": "H" 
			}
		],
		 "valence_orbital": [ 
			{
				"type": "occ",
				"energy": -0.3762,
				"method": "rhf"
			},
			{
				"type": "occ",
				"energy": -0.354,
				"method": "rhf"
			},
			{
				"type": "occ",
				"energy": -0.32384,
				"method": "rhf"
			},
			{
				"type": "occ",
				"energy": -0.28238,
				"method": "rhf"
			},
			{
				"type": "occ",
				"energy": -0.25242,
				"method": "rhf"
			},
			{
				"type": "unocc",
				"energy": -0.04397,
				"method": "rhf"
			},
			{
				"type": "unocc",
				"energy": 0.07191,
				"method": "rhf"
			},
			{
				"type": "unocc",
				"energy": 0.09094,
				"method": "rhf"
			},
			{
				"type": "unocc",
				"energy": 0.09665,
				"method": "rhf"
			},
			{
				"type": "unocc",
				"energy": 0.11678,
				"method": "rhf"
			}
		],
		"cosmo_sigma_profile": { 
			"-0.025": 0.0,
			"-0.024": 0.0,
			"-0.023": 0.0,
			"-0.022": 0.0,
			"-0.021": 0.0,
			"-0.02": 0.0,
			"-0.019": 0.128763204915,
			"-0.018": 0.880850103868,
			"-0.017": 1.18676509256,
			"-0.016": 0.291860736153,
			"-0.015": 0.970116826638,
			"-0.014": 0.81197859569,
			"-0.013": 0.694076336514,
			"-0.012": 0.622190358145,
			"-0.011": 0.917476896177,
			"-0.01": 0.62178804721,
			"-0.009": 0.11336947195,
			"-0.008": 0.781109747013,
			"-0.007": 1.10088025442,
			"-0.006": 1.01515659872,
			"-0.005": 9.43110280793,
			"-0.004": 12.1160174773,
			"-0.003": 12.2330947703,
			"-0.002": 15.3325367546,
			"-0.001": 18.397390056,
			"0.0": 17.6332943187,
			"0.001": 10.3206604061,
			"0.002": 6.0260147785,
			"0.003": 5.56472228337,
			"0.004": 7.54717627368,
			"0.005": 6.55745529525,
			"0.006": 3.74415609302,
			"0.007": 1.58567191393,
			"0.008": 1.85240015489,
			"0.009": 1.9122566862,
			"0.01": 2.27253663264,
			"0.011": 5.09885834246,
			"0.012": 4.06320674429,
			"0.013": 0.702933397879,
			"0.014": 0.0,
			"0.015": 0.0,
			"0.016": 0.0,
			"0.017": 0.0,
			"0.018": 0.0,
			"0.019": 0.0,
			"0.02": 0.0,
			"0.021": 0.0,
			"0.022": 0.0,
			"0.023": 0.0,
			"0.024": 0.0,
			"0.025": 0.0
		}
	}
}
