{
	 "smiles": "CCC(C)O", 
	 "Tm": 158.15, 
	 "num_atms": 15, 
	 "gaussian": { 
		 "optdone": 1, 
		 "sigma_profile": "yes", 
		 "theory": "DFT", 
		 "functional": "B3LYP", 
		 "basiset": "6-31G**", 
		 "properties": { 
			 "R2extent": 867.1611, 
			 "electric_dipole_moment_norm": 1.55452783185, 
			 "electric_quadrupole_moment_norm": 5.62882734502, 
			 "total_energy": -233.680035842, 
			 "HOMO_LUMO_gap": 0.33614, 
			 "cosmo_polarized_energy": -5.6, 
			 "cosmo_cavitation_energy": 16.94, 
			 "cosmo_dispersion_energy": -12.6, 
			 "cosmo_repulsion_energy": 1.12, 
			 "cosmo_total_nonelectrostatic_energy": 5.46, 
			 "SMD_solvation_energy": 3.11 
		},
		"coords": [
			{
				"x": 1.9535399956,
				"y": -1.0648195838,
				"z": -0.8465847315,
				"element": "C" 
			},
			{
				"x": 0.5846744269,
				"y": -0.5513417323,
				"z": -1.3053321926,
				"element": "C" 
			},
			{
				"x": 0.5459513878,
				"y": 0.9440916034,
				"z": -1.6562658523,
				"element": "C" 
			},
			{
				"x": 0.7998165587,
				"y": 1.8584802607,
				"z": -0.4630332425,
				"element": "C" 
			},
			{
				"x": -0.7396737604,
				"y": 1.3092479175,
				"z": -2.1622461207,
				"element": "O" 
			},
			{
				"x": 2.2647609149,
				"y": -0.6041295594,
				"z": 0.0961687171,
				"element": "H" 
			},
			{
				"x": 2.7288621942,
				"y": -0.8525498586,
				"z": -1.5920516497,
				"element": "H" 
			},
			{
				"x": 1.9331835933,
				"y": -2.1479977866,
				"z": -0.6911787629,
				"element": "H" 
			},
			{
				"x": -0.1748330601,
				"y": -0.744211621,
				"z": -0.537061028,
				"element": "H" 
			},
			{
				"x": 0.2733117036,
				"y": -1.1167481585,
				"z": -2.1962610121,
				"element": "H" 
			},
			{
				"x": 1.3194775525,
				"y": 1.1407180237,
				"z": -2.4206551189,
				"element": "H" 
			},
			{
				"x": 1.8043791109,
				"y": 1.7136990319,
				"z": -0.0559410907,
				"element": "H" 
			},
			{
				"x": 0.6983176429,
				"y": 2.9038389289,
				"z": -0.7672520014,
				"element": "H" 
			},
			{
				"x": 0.0681424348,
				"y": 1.6612732428,
				"z": 0.3277448673,
				"element": "H" 
			},
			{
				"x": -0.9361106956,
				"y": 0.7331492913,
				"z": -2.9124507811,
				"element": "H" 
			}
		],
		 "valence_orbital": [ 
			{
				"type": "occ",
				"energy": -0.36596,
				"method": "rhf"
			},
			{
				"type": "occ",
				"energy": -0.34066,
				"method": "rhf"
			},
			{
				"type": "occ",
				"energy": -0.33809,
				"method": "rhf"
			},
			{
				"type": "occ",
				"energy": -0.31208,
				"method": "rhf"
			},
			{
				"type": "occ",
				"energy": -0.25854,
				"method": "rhf"
			},
			{
				"type": "unocc",
				"energy": 0.0776,
				"method": "rhf"
			},
			{
				"type": "unocc",
				"energy": 0.10133,
				"method": "rhf"
			},
			{
				"type": "unocc",
				"energy": 0.13259,
				"method": "rhf"
			},
			{
				"type": "unocc",
				"energy": 0.1358,
				"method": "rhf"
			},
			{
				"type": "unocc",
				"energy": 0.15302,
				"method": "rhf"
			}
		],
		"cosmo_sigma_profile": { 
			"-0.025": 0.0,
			"-0.024": 0.0,
			"-0.023": 0.0,
			"-0.022": 0.0,
			"-0.021": 0.0,
			"-0.02": 0.0,
			"-0.019": 0.0,
			"-0.018": 0.0,
			"-0.017": 0.0,
			"-0.016": 0.0,
			"-0.015": 0.411201995715,
			"-0.014": 0.912127743396,
			"-0.013": 0.765051351471,
			"-0.012": 1.09752779556,
			"-0.011": 0.779114333877,
			"-0.01": 0.926810818259,
			"-0.009": 1.0030843093,
			"-0.008": 0.657096744721,
			"-0.007": 0.918739743071,
			"-0.006": 1.61178916873,
			"-0.005": 1.37129177444,
			"-0.004": 1.83776480024,
			"-0.003": 11.7802302978,
			"-0.002": 20.2209147606,
			"-0.001": 21.5504412439,
			"0.0": 20.2787458291,
			"0.001": 19.0162148848,
			"0.002": 6.53309786591,
			"0.003": 1.00870022327,
			"0.004": 1.71668125507,
			"0.005": 2.0732774608,
			"0.006": 1.12790572457,
			"0.007": 0.889149793399,
			"0.008": 1.2225500359,
			"0.009": 1.43119336782,
			"0.01": 1.10464879805,
			"0.011": 1.55010553699,
			"0.012": 1.50088000243,
			"0.013": 1.321800535,
			"0.014": 2.0417037285,
			"0.015": 1.43890183732,
			"0.016": 0.0,
			"0.017": 0.0,
			"0.018": 0.0,
			"0.019": 0.0,
			"0.02": 0.0,
			"0.021": 0.0,
			"0.022": 0.0,
			"0.023": 0.0,
			"0.024": 0.0,
			"0.025": 0.0
		}
	}
}
