{
	 "smiles": "COC1=CC2=C(C=C1)N=C(C)C=C2Cl", 
	 "Tm": 373.15, 
	 "num_atms": 24, 
	 "gaussian": { 
		 "optdone": 1, 
		 "sigma_profile": "yes", 
		 "theory": "DFT", 
		 "functional": "B3LYP", 
		 "basiset": "6-31G**", 
		 "properties": { 
			 "R2extent": 4611.0505, 
			 "electric_dipole_moment_norm": 1.7606469862, 
			 "electric_quadrupole_moment_norm": 14.5240247604, 
			 "total_energy": -1015.36897992, 
			 "HOMO_LUMO_gap": 0.16014, 
			 "cosmo_polarized_energy": -7.98, 
			 "cosmo_cavitation_energy": 29.46, 
			 "cosmo_dispersion_energy": -22.05, 
			 "cosmo_repulsion_energy": 1.72, 
			 "cosmo_total_nonelectrostatic_energy": 9.13, 
			 "SMD_solvation_energy": 4.01 
		},
		"coords": [
			{
				"x": 2.8603056687,
				"y": -0.2553456581,
				"z": -2.9087022467,
				"element": "C" 
			},
			{
				"x": 1.8147218795,
				"y": -1.0950834236,
				"z": -2.443582992,
				"element": "O" 
			},
			{
				"x": 1.3799291987,
				"y": -0.9539804765,
				"z": -1.1589593883,
				"element": "C" 
			},
			{
				"x": 0.35763408,
				"y": -1.8021547865,
				"z": -0.765214835,
				"element": "C" 
			},
			{
				"x": -0.1614411425,
				"y": -1.7345758567,
				"z": 0.5437479381,
				"element": "C" 
			},
			{
				"x": 0.3707658295,
				"y": -0.7820526362,
				"z": 1.4761281832,
				"element": "C" 
			},
			{
				"x": 1.415135333,
				"y": 0.0676324756,
				"z": 1.0366286678,
				"element": "C" 
			},
			{
				"x": 1.9138287897,
				"y": -0.0082669176,
				"z": -0.2454365153,
				"element": "C" 
			},
			{
				"x": -0.0714845525,
				"y": -0.6484501427,
				"z": 2.7603747794,
				"element": "N" 
			},
			{
				"x": -1.0432882573,
				"y": -1.4349397814,
				"z": 3.1784136165,
				"element": "C" 
			},
			{
				"x": -1.5206549118,
				"y": -1.2745282136,
				"z": 4.6003302552,
				"element": "C" 
			},
			{
				"x": -1.6479572587,
				"y": -2.4180692544,
				"z": 2.33972402,
				"element": "C" 
			},
			{
				"x": -1.2095462306,
				"y": -2.5581832636,
				"z": 1.0496222941,
				"element": "C" 
			},
			{
				"x": -1.9534873866,
				"y": -3.7682957028,
				"z": 0.0166430768,
				"element": "Cl" 
			},
			{
				"x": 3.7846440889,
				"y": -0.3993428463,
				"z": -2.3347803767,
				"element": "H" 
			},
			{
				"x": 2.5771977625,
				"y": 0.8044968937,
				"z": -2.875536089,
				"element": "H" 
			},
			{
				"x": 3.0362747117,
				"y": -0.5447167405,
				"z": -3.9457799657,
				"element": "H" 
			},
			{
				"x": -0.0349748179,
				"y": -2.5163726014,
				"z": -1.4787688209,
				"element": "H" 
			},
			{
				"x": 1.8091124349,
				"y": 0.7833795867,
				"z": 1.7504822151,
				"element": "H" 
			},
			{
				"x": 2.7133415324,
				"y": 0.6576898929,
				"z": -0.5475423462,
				"element": "H" 
			},
			{
				"x": -0.9510027357,
				"y": -0.483376157,
				"z": 5.0896824013,
				"element": "H" 
			},
			{
				"x": -1.395385266,
				"y": -2.2044585242,
				"z": 5.1673141383,
				"element": "H" 
			},
			{
				"x": -2.5858407159,
				"y": -1.0172307252,
				"z": 4.633701121,
				"element": "H" 
			},
			{
				"x": -2.445328034,
				"y": -3.0457751406,
				"z": 2.7220108691,
				"element": "H" 
			}
		],
		 "valence_orbital": [ 
			{
				"type": "occ",
				"energy": -0.30422,
				"method": "rhf"
			},
			{
				"type": "occ",
				"energy": -0.28463,
				"method": "rhf"
			},
			{
				"type": "occ",
				"energy": -0.25543,
				"method": "rhf"
			},
			{
				"type": "occ",
				"energy": -0.24603,
				"method": "rhf"
			},
			{
				"type": "occ",
				"energy": -0.21411,
				"method": "rhf"
			},
			{
				"type": "unocc",
				"energy": -0.05397,
				"method": "rhf"
			},
			{
				"type": "unocc",
				"energy": -0.01306,
				"method": "rhf"
			},
			{
				"type": "unocc",
				"energy": 0.02145,
				"method": "rhf"
			},
			{
				"type": "unocc",
				"energy": 0.03013,
				"method": "rhf"
			},
			{
				"type": "unocc",
				"energy": 0.08603,
				"method": "rhf"
			}
		],
		"cosmo_sigma_profile": { 
			"-0.025": 0.0,
			"-0.024": 0.0,
			"-0.023": 0.0,
			"-0.022": 0.0,
			"-0.021": 0.0,
			"-0.02": 0.0,
			"-0.019": 0.0,
			"-0.018": 0.0,
			"-0.017": 0.0,
			"-0.016": 0.0,
			"-0.015": 0.0,
			"-0.014": 0.0,
			"-0.013": 0.0,
			"-0.012": 0.0,
			"-0.011": 0.0,
			"-0.01": 0.0,
			"-0.009": 0.0,
			"-0.008": 0.835495867336,
			"-0.007": 4.32453303507,
			"-0.006": 11.3486290238,
			"-0.005": 18.2980691394,
			"-0.004": 20.9051867355,
			"-0.003": 18.2256861319,
			"-0.002": 16.6259158568,
			"-0.001": 16.1303916495,
			"0.0": 21.288732957,
			"0.001": 26.3980859291,
			"0.002": 23.0820999445,
			"0.003": 23.4354541209,
			"0.004": 14.4844700397,
			"0.005": 4.68194895548,
			"0.006": 3.24137009707,
			"0.007": 2.47860931671,
			"0.008": 3.35148937786,
			"0.009": 2.22633297018,
			"0.01": 2.30480279667,
			"0.011": 0.80740263632,
			"0.012": 0.802210661836,
			"0.013": 1.09769145226,
			"0.014": 0.46911586255,
			"0.015": 0.747009236913,
			"0.016": 0.036544764738,
			"0.017": 0.0,
			"0.018": 0.0,
			"0.019": 0.0,
			"0.02": 0.0,
			"0.021": 0.0,
			"0.022": 0.0,
			"0.023": 0.0,
			"0.024": 0.0,
			"0.025": 0.0
		}
	}
}
