{
	 "smiles": "COC1=CC=CC=C1C1=NN=C(O1)C1=CC=CC=C1", 
	 "Tm": 373.15, 
	 "num_atms": 31, 
	 "gaussian": { 
		 "optdone": 1, 
		 "sigma_profile": "yes", 
		 "theory": "DFT", 
		 "functional": "B3LYP", 
		 "basiset": "6-31G**", 
		 "properties": { 
			 "R2extent": 6409.7878, 
			 "electric_dipole_moment_norm": 3.6840553416, 
			 "electric_quadrupole_moment_norm": 20.9894608311, 
			 "total_energy": -838.743092026, 
			 "HOMO_LUMO_gap": 0.16585, 
			 "cosmo_polarized_energy": -12.45, 
			 "cosmo_cavitation_energy": 36.17, 
			 "cosmo_dispersion_energy": -25.64, 
			 "cosmo_repulsion_energy": 1.93, 
			 "cosmo_total_nonelectrostatic_energy": 12.46, 
			 "SMD_solvation_energy": 5.19 
		},
		"coords": [
			{
				"x": 0.9049521436,
				"y": -0.5344463482,
				"z": 2.6594975505,
				"element": "C" 
			},
			{
				"x": 1.658653767,
				"y": 0.5560578458,
				"z": 2.1284464562,
				"element": "O" 
			},
			{
				"x": 2.6936437632,
				"y": 0.1937136275,
				"z": 1.2983712793,
				"element": "C" 
			},
			{
				"x": 3.9267246315,
				"y": -0.1399626777,
				"z": 1.8667503703,
				"element": "C" 
			},
			{
				"x": 5.0143431069,
				"y": -0.4679875724,
				"z": 1.0618855261,
				"element": "C" 
			},
			{
				"x": 4.8756833163,
				"y": -0.4646699772,
				"z": -0.3297884782,
				"element": "C" 
			},
			{
				"x": 3.6560185704,
				"y": -0.1299696219,
				"z": -0.9032090449,
				"element": "C" 
			},
			{
				"x": 2.5435746246,
				"y": 0.2011360552,
				"z": -0.1040949993,
				"element": "C" 
			},
			{
				"x": 1.3031275278,
				"y": 0.544520801,
				"z": -0.7940525686,
				"element": "C" 
			},
			{
				"x": 1.1091865007,
				"y": 0.5492893865,
				"z": -2.0855554146,
				"element": "N" 
			},
			{
				"x": -0.2032226178,
				"y": 0.9336930508,
				"z": -2.294735006,
				"element": "N" 
			},
			{
				"x": -0.7250889259,
				"y": 1.1365746137,
				"z": -1.1180380945,
				"element": "C" 
			},
			{
				"x": 0.1745043578,
				"y": 0.9060984218,
				"z": -0.1167531306,
				"element": "O" 
			},
			{
				"x": -2.0779259407,
				"y": 1.5617068126,
				"z": -0.7822607232,
				"element": "C" 
			},
			{
				"x": -3.0198488782,
				"y": 1.725928009,
				"z": -1.8118546678,
				"element": "C" 
			},
			{
				"x": -4.3150013387,
				"y": 2.1337313841,
				"z": -1.5080699517,
				"element": "C" 
			},
			{
				"x": -4.6833456579,
				"y": 2.3812543642,
				"z": -0.1821023098,
				"element": "C" 
			},
			{
				"x": -3.747796325,
				"y": 2.2206001326,
				"z": 0.8421664123,
				"element": "C" 
			},
			{
				"x": -2.4481265709,
				"y": 1.8126983715,
				"z": 0.5481514103,
				"element": "C" 
			},
			{
				"x": 0.3806799476,
				"y": -1.0805309461,
				"z": 1.8656460751,
				"element": "H" 
			},
			{
				"x": 1.5468857654,
				"y": -1.2322978413,
				"z": 3.2120879117,
				"element": "H" 
			},
			{
				"x": 0.1720241712,
				"y": -0.1009448678,
				"z": 3.3426819951,
				"element": "H" 
			},
			{
				"x": 4.0138840018,
				"y": -0.1182404847,
				"z": 2.9485557909,
				"element": "H" 
			},
			{
				"x": 5.967667511,
				"y": -0.7193156127,
				"z": 1.5173659468,
				"element": "H" 
			},
			{
				"x": 5.719250272,
				"y": -0.7155234665,
				"z": -0.9651428201,
				"element": "H" 
			},
			{
				"x": 3.5324949008,
				"y": -0.1151935155,
				"z": -1.9805086944,
				"element": "H" 
			},
			{
				"x": -2.719421392,
				"y": 1.5302967639,
				"z": -2.8356356581,
				"element": "H" 
			},
			{
				"x": -5.040183541,
				"y": 2.2589410893,
				"z": -2.3066307547,
				"element": "H" 
			},
			{
				"x": -5.6953520787,
				"y": 2.6993533156,
				"z": 0.0508127926,
				"element": "H" 
			},
			{
				"x": -4.0296573518,
				"y": 2.4156585901,
				"z": 1.8726455741,
				"element": "H" 
			},
			{
				"x": -1.7156282612,
				"y": 1.6942302969,
				"z": 1.3395672251,
				"element": "H" 
			}
		],
		 "valence_orbital": [ 
			{
				"type": "occ",
				"energy": -0.27049,
				"method": "rhf"
			},
			{
				"type": "occ",
				"energy": -0.26822,
				"method": "rhf"
			},
			{
				"type": "occ",
				"energy": -0.26083,
				"method": "rhf"
			},
			{
				"type": "occ",
				"energy": -0.25196,
				"method": "rhf"
			},
			{
				"type": "occ",
				"energy": -0.22362,
				"method": "rhf"
			},
			{
				"type": "unocc",
				"energy": -0.05777,
				"method": "rhf"
			},
			{
				"type": "unocc",
				"energy": -0.03005,
				"method": "rhf"
			},
			{
				"type": "unocc",
				"energy": -0.00969,
				"method": "rhf"
			},
			{
				"type": "unocc",
				"energy": -0.00834,
				"method": "rhf"
			},
			{
				"type": "unocc",
				"energy": 0.05119,
				"method": "rhf"
			}
		],
		"cosmo_sigma_profile": { 
			"-0.025": 0.0,
			"-0.024": 0.0,
			"-0.023": 0.0,
			"-0.022": 0.0,
			"-0.021": 0.0,
			"-0.02": 0.0,
			"-0.019": 0.0,
			"-0.018": 0.0,
			"-0.017": 0.0,
			"-0.016": 0.0,
			"-0.015": 0.0,
			"-0.014": 0.0,
			"-0.013": 0.0,
			"-0.012": 0.0,
			"-0.011": 0.0,
			"-0.01": 0.0,
			"-0.009": 0.0,
			"-0.008": 0.0,
			"-0.007": 4.51201201601,
			"-0.006": 16.9212621876,
			"-0.005": 27.003212618,
			"-0.004": 28.805813892,
			"-0.003": 26.2201654676,
			"-0.002": 23.6146086994,
			"-0.001": 19.7137635494,
			"0.0": 20.6346424974,
			"0.001": 21.8095060845,
			"0.002": 22.8852789492,
			"0.003": 24.8077271817,
			"0.004": 20.7795980372,
			"0.005": 4.15988327421,
			"0.006": 3.95815928513,
			"0.007": 2.81863848971,
			"0.008": 2.93629733482,
			"0.009": 4.3367111239,
			"0.01": 3.1036649528,
			"0.011": 4.73712870959,
			"0.012": 3.24314713391,
			"0.013": 2.70021223305,
			"0.014": 1.38546814074,
			"0.015": 0.0547987543172,
			"0.016": 0.0,
			"0.017": 0.0,
			"0.018": 0.0,
			"0.019": 0.0,
			"0.02": 0.0,
			"0.021": 0.0,
			"0.022": 0.0,
			"0.023": 0.0,
			"0.024": 0.0,
			"0.025": 0.0
		}
	}
}
