{
	 "smiles": "CC1=NC2=C(C=CC=C2)C2=C1C(=O)NC2=O", 
	 "Tm": 529.15, 
	 "num_atms": 24, 
	 "gaussian": { 
		 "optdone": 1, 
		 "sigma_profile": "yes", 
		 "theory": "DFT", 
		 "functional": "B3LYP", 
		 "basiset": "6-31G**", 
		 "properties": { 
			 "R2extent": 3581.1085, 
			 "electric_dipole_moment_norm": 1.61301954421, 
			 "electric_quadrupole_moment_norm": 6.58970296599, 
			 "total_energy": -722.092687935, 
			 "HOMO_LUMO_gap": 0.14327, 
			 "cosmo_polarized_energy": -11.86, 
			 "cosmo_cavitation_energy": 28.75, 
			 "cosmo_dispersion_energy": -21.32, 
			 "cosmo_repulsion_energy": 1.62, 
			 "cosmo_total_nonelectrostatic_energy": 9.04, 
			 "SMD_solvation_energy": 4.5 
		},
		"coords": [
			{
				"x": 0.7528875947,
				"y": -3.673068574,
				"z": -1.821364104,
				"element": "C" 
			},
			{
				"x": 0.3971145579,
				"y": -2.3377798295,
				"z": -1.2284129421,
				"element": "C" 
			},
			{
				"x": -0.6922035488,
				"y": -1.723956172,
				"z": -1.6667103586,
				"element": "N" 
			},
			{
				"x": -1.0520240632,
				"y": -0.50923251,
				"z": -1.1551702367,
				"element": "C" 
			},
			{
				"x": -0.3050392543,
				"y": 0.1793021697,
				"z": -0.1352874887,
				"element": "C" 
			},
			{
				"x": -0.746893609,
				"y": 1.4406734991,
				"z": 0.3434519561,
				"element": "C" 
			},
			{
				"x": -1.8935098014,
				"y": 2.0000068344,
				"z": -0.1738520379,
				"element": "C" 
			},
			{
				"x": -2.6362319303,
				"y": 1.3288366653,
				"z": -1.1790720321,
				"element": "C" 
			},
			{
				"x": -2.2286488113,
				"y": 0.1047225189,
				"z": -1.6600972067,
				"element": "C" 
			},
			{
				"x": 0.8465759344,
				"y": -0.5019503328,
				"z": 0.307138049,
				"element": "C" 
			},
			{
				"x": 1.1920257888,
				"y": -1.7276667201,
				"z": -0.2223751174,
				"element": "C" 
			},
			{
				"x": 2.4469047759,
				"y": -2.1977919529,
				"z": 0.4365467751,
				"element": "C" 
			},
			{
				"x": 3.0799155162,
				"y": -3.218392031,
				"z": 0.2613024456,
				"element": "O" 
			},
			{
				"x": 2.7766322675,
				"y": -1.1813731783,
				"z": 1.3487870174,
				"element": "N" 
			},
			{
				"x": 1.8683277032,
				"y": -0.1196253668,
				"z": 1.3395177181,
				"element": "C" 
			},
			{
				"x": 1.9278864216,
				"y": 0.8767383066,
				"z": 2.0313253769,
				"element": "O" 
			},
			{
				"x": 0.7983015543,
				"y": -4.4453005851,
				"z": -1.0466343158,
				"element": "H" 
			},
			{
				"x": 0.0079901927,
				"y": -3.9461168235,
				"z": -2.5696443992,
				"element": "H" 
			},
			{
				"x": 1.745627145,
				"y": -3.6442898849,
				"z": -2.282096006,
				"element": "H" 
			},
			{
				"x": -0.1661547739,
				"y": 1.9385201981,
				"z": 1.1119576295,
				"element": "H" 
			},
			{
				"x": -2.2361963234,
				"y": 2.9645221421,
				"z": 0.1885764079,
				"element": "H" 
			},
			{
				"x": -3.5376784009,
				"y": 1.7905750021,
				"z": -1.5714450076,
				"element": "H" 
			},
			{
				"x": -2.7824537942,
				"y": -0.4244154903,
				"z": -2.4282699808,
				"element": "H" 
			},
			{
				"x": 3.5877448588,
				"y": -1.2150378851,
				"z": 1.9500278581,
				"element": "H" 
			}
		],
		 "valence_orbital": [ 
			{
				"type": "occ",
				"energy": -0.30059,
				"method": "rhf"
			},
			{
				"type": "occ",
				"energy": -0.28388,
				"method": "rhf"
			},
			{
				"type": "occ",
				"energy": -0.26398,
				"method": "rhf"
			},
			{
				"type": "occ",
				"energy": -0.26188,
				"method": "rhf"
			},
			{
				"type": "occ",
				"energy": -0.24665,
				"method": "rhf"
			},
			{
				"type": "unocc",
				"energy": -0.10338,
				"method": "rhf"
			},
			{
				"type": "unocc",
				"energy": -0.04675,
				"method": "rhf"
			},
			{
				"type": "unocc",
				"energy": -0.01976,
				"method": "rhf"
			},
			{
				"type": "unocc",
				"energy": 0.01802,
				"method": "rhf"
			},
			{
				"type": "unocc",
				"energy": 0.06758,
				"method": "rhf"
			}
		],
		"cosmo_sigma_profile": { 
			"-0.025": 0.0,
			"-0.024": 0.0,
			"-0.023": 0.0,
			"-0.022": 0.0,
			"-0.021": 0.0,
			"-0.02": 0.0,
			"-0.019": 0.0,
			"-0.018": 0.0,
			"-0.017": 0.701027832373,
			"-0.016": 1.24132688317,
			"-0.015": 1.35316772326,
			"-0.014": 0.943375816386,
			"-0.013": 0.460260903804,
			"-0.012": 0.755905066179,
			"-0.011": 1.00718382802,
			"-0.01": 0.940881996497,
			"-0.009": 0.745837818272,
			"-0.008": 0.8701931982,
			"-0.007": 4.49067395941,
			"-0.006": 9.55747020357,
			"-0.005": 16.5490839311,
			"-0.004": 18.3725933054,
			"-0.003": 18.5747771558,
			"-0.002": 22.46993351,
			"-0.001": 19.8947600183,
			"0.0": 17.2916959924,
			"0.001": 16.6234111422,
			"0.002": 16.2796404559,
			"0.003": 14.4086129899,
			"0.004": 6.85790953375,
			"0.005": 4.21776787614,
			"0.006": 4.59694318075,
			"0.007": 4.39338213781,
			"0.008": 4.2687771442,
			"0.009": 4.70020395319,
			"0.01": 8.23485547096,
			"0.011": 7.84429339831,
			"0.012": 1.45660946856,
			"0.013": 0.861688840201,
			"0.014": 0.59399178996,
			"0.015": 0.0,
			"0.016": 0.0,
			"0.017": 0.0,
			"0.018": 0.0,
			"0.019": 0.0,
			"0.02": 0.0,
			"0.021": 0.0,
			"0.022": 0.0,
			"0.023": 0.0,
			"0.024": 0.0,
			"0.025": 0.0
		}
	}
}
