{
	 "smiles": "SC1=NC=C(N1C1=CC=CC=C1)C1=CC=CC=C1", 
	 "Tm": 524.15, 
	 "num_atms": 30, 
	 "gaussian": { 
		 "optdone": 1, 
		 "sigma_profile": "yes", 
		 "theory": "DFT", 
		 "functional": "B3LYP", 
		 "basiset": "6-31G**", 
		 "properties": { 
			 "R2extent": 5407.2204, 
			 "electric_dipole_moment_norm": 3.19514854428, 
			 "electric_quadrupole_moment_norm": 9.02100695599, 
			 "total_energy": -1086.51254642, 
			 "HOMO_LUMO_gap": 0.17054, 
			 "cosmo_polarized_energy": -10.53, 
			 "cosmo_cavitation_energy": 35.65, 
			 "cosmo_dispersion_energy": -25.13, 
			 "cosmo_repulsion_energy": 1.91, 
			 "cosmo_total_nonelectrostatic_energy": 12.44, 
			 "SMD_solvation_energy": 3.88 
		},
		"coords": [
			{
				"x": 2.4346418524,
				"y": 0.5241248495,
				"z": 3.5387709497,
				"element": "S" 
			},
			{
				"x": 2.114115461,
				"y": 0.1764925947,
				"z": 1.8284585478,
				"element": "C" 
			},
			{
				"x": 2.8781281293,
				"y": -0.5554175711,
				"z": 1.0505855761,
				"element": "N" 
			},
			{
				"x": 2.2182903086,
				"y": -0.5970061139,
				"z": -0.1547044557,
				"element": "C" 
			},
			{
				"x": 1.0415349272,
				"y": 0.1163141828,
				"z": -0.1191915683,
				"element": "C" 
			},
			{
				"x": 0.9824158445,
				"y": 0.6331831338,
				"z": 1.1881935515,
				"element": "N" 
			},
			{
				"x": -0.099536999,
				"y": 1.3358730341,
				"z": 1.8066563722,
				"element": "C" 
			},
			{
				"x": -1.3584542236,
				"y": 0.733672393,
				"z": 1.9003311396,
				"element": "C" 
			},
			{
				"x": -2.4055596265,
				"y": 1.421022487,
				"z": 2.5118825056,
				"element": "C" 
			},
			{
				"x": -2.1972340966,
				"y": 2.6973312106,
				"z": 3.0406033382,
				"element": "C" 
			},
			{
				"x": -0.9374961114,
				"y": 3.2911763516,
				"z": 2.9497142792,
				"element": "C" 
			},
			{
				"x": 0.1133076032,
				"y": 2.6170882415,
				"z": 2.3254497964,
				"element": "C" 
			},
			{
				"x": 0.0671875881,
				"y": 0.3704792395,
				"z": -1.185799092,
				"element": "C" 
			},
			{
				"x": -0.5624648321,
				"y": 1.6165660576,
				"z": -1.3605008339,
				"element": "C" 
			},
			{
				"x": -1.4449138033,
				"y": 1.824058848,
				"z": -2.4192522535,
				"element": "C" 
			},
			{
				"x": -1.7098145986,
				"y": 0.8008627258,
				"z": -3.3317203425,
				"element": "C" 
			},
			{
				"x": -1.0858871395,
				"y": -0.4383836053,
				"z": -3.1734364688,
				"element": "C" 
			},
			{
				"x": -0.214089048,
				"y": -0.6546378101,
				"z": -2.1084016014,
				"element": "C" 
			},
			{
				"x": 3.5310583127,
				"y": -0.2565903239,
				"z": 3.5440699395,
				"element": "H" 
			},
			{
				"x": 2.6442823536,
				"y": -1.1064628371,
				"z": -1.0081058507,
				"element": "H" 
			},
			{
				"x": -1.5055665965,
				"y": -0.2616639467,
				"z": 1.4951748211,
				"element": "H" 
			},
			{
				"x": -3.383605002,
				"y": 0.9547012548,
				"z": 2.5822930129,
				"element": "H" 
			},
			{
				"x": -3.0144728356,
				"y": 3.2265038948,
				"z": 3.5214004229,
				"element": "H" 
			},
			{
				"x": -0.7706040246,
				"y": 4.2839877789,
				"z": 3.3564007334,
				"element": "H" 
			},
			{
				"x": 1.0923144945,
				"y": 3.0761596378,
				"z": 2.2341133577,
				"element": "H" 
			},
			{
				"x": -0.3489580355,
				"y": 2.4294916497,
				"z": -0.6749936917,
				"element": "H" 
			},
			{
				"x": -1.9193714807,
				"y": 2.7942729861,
				"z": -2.5369437267,
				"element": "H" 
			},
			{
				"x": -2.3960273866,
				"y": 0.967290904,
				"z": -4.1569109474,
				"element": "H" 
			},
			{
				"x": -1.287777395,
				"y": -1.2440338879,
				"z": -3.873725479,
				"element": "H" 
			},
			{
				"x": 0.24785636,
				"y": -1.6279573597,
				"z": -1.9732120322,
				"element": "H" 
			}
		],
		 "valence_orbital": [ 
			{
				"type": "occ",
				"energy": -0.26704,
				"method": "rhf"
			},
			{
				"type": "occ",
				"energy": -0.25751,
				"method": "rhf"
			},
			{
				"type": "occ",
				"energy": -0.25302,
				"method": "rhf"
			},
			{
				"type": "occ",
				"energy": -0.24706,
				"method": "rhf"
			},
			{
				"type": "occ",
				"energy": -0.19713,
				"method": "rhf"
			},
			{
				"type": "unocc",
				"energy": -0.02659,
				"method": "rhf"
			},
			{
				"type": "unocc",
				"energy": -0.02171,
				"method": "rhf"
			},
			{
				"type": "unocc",
				"energy": -0.01594,
				"method": "rhf"
			},
			{
				"type": "unocc",
				"energy": -0.00066,
				"method": "rhf"
			},
			{
				"type": "unocc",
				"energy": 0.02351,
				"method": "rhf"
			}
		],
		"cosmo_sigma_profile": { 
			"-0.025": 0.0,
			"-0.024": 0.0,
			"-0.023": 0.0,
			"-0.022": 0.0,
			"-0.021": 0.0,
			"-0.02": 0.0,
			"-0.019": 0.0,
			"-0.018": 0.0,
			"-0.017": 0.0,
			"-0.016": 0.0,
			"-0.015": 0.0,
			"-0.014": 0.0,
			"-0.013": 0.0,
			"-0.012": 0.334407010075,
			"-0.011": 1.47743107692,
			"-0.01": 1.35627125031,
			"-0.009": 0.801543696268,
			"-0.008": 1.46655315102,
			"-0.007": 5.52493630443,
			"-0.006": 17.2128073456,
			"-0.005": 23.2662909499,
			"-0.004": 26.0210456987,
			"-0.003": 21.5807072764,
			"-0.002": 18.9607250404,
			"-0.001": 18.7302080455,
			"0.0": 16.6594032909,
			"0.001": 19.236178357,
			"0.002": 22.413564529,
			"0.003": 27.8593038188,
			"0.004": 27.1818065143,
			"0.005": 16.3900839585,
			"0.006": 7.80286740129,
			"0.007": 3.7714373557,
			"0.008": 1.75758849037,
			"0.009": 2.00090413586,
			"0.01": 0.831934903814,
			"0.011": 0.986932405538,
			"0.012": 1.45549031605,
			"0.013": 0.900481760959,
			"0.014": 0.775795760729,
			"0.015": 0.916008368258,
			"0.016": 0.945915531589,
			"0.017": 0.192870643932,
			"0.018": 0.0,
			"0.019": 0.0,
			"0.02": 0.0,
			"0.021": 0.0,
			"0.022": 0.0,
			"0.023": 0.0,
			"0.024": 0.0,
			"0.025": 0.0
		}
	}
}
