{
	 "smiles": "CN1CCNC(=O)CCSCCSCCC1=O", 
	 "Tm": 389.15, 
	 "num_atms": 37, 
	 "gaussian": { 
		 "optdone": 1, 
		 "sigma_profile": "yes", 
		 "theory": "DFT", 
		 "functional": "B3LYP", 
		 "basiset": "6-31G**", 
		 "properties": { 
			 "R2extent": 6602.386, 
			 "electric_dipole_moment_norm": 3.34109971267, 
			 "electric_quadrupole_moment_norm": 30.6637951982, 
			 "total_energy": -1487.57055985, 
			 "HOMO_LUMO_gap": 0.22881, 
			 "cosmo_polarized_energy": -25.81, 
			 "cosmo_cavitation_energy": 39.65, 
			 "cosmo_dispersion_energy": -27.9, 
			 "cosmo_repulsion_energy": 2.05, 
			 "cosmo_total_nonelectrostatic_energy": 13.8, 
			 "SMD_solvation_energy": 5.51 
		},
		"coords": [
			{
				"x": 3.3588560816,
				"y": -1.2825892641,
				"z": 1.5693010852,
				"element": "C" 
			},
			{
				"x": 1.9056150326,
				"y": -1.3661531269,
				"z": 1.7061544301,
				"element": "N" 
			},
			{
				"x": 1.2299454606,
				"y": -0.1923087194,
				"z": 2.2499096782,
				"element": "C" 
			},
			{
				"x": 0.7306223267,
				"y": 0.7729620672,
				"z": 1.1567536839,
				"element": "C" 
			},
			{
				"x": 0.0343555599,
				"y": 1.9047499291,
				"z": 1.741884321,
				"element": "N" 
			},
			{
				"x": -1.0759564956,
				"y": 2.5803018269,
				"z": 1.2880317518,
				"element": "C" 
			},
			{
				"x": -1.5117054479,
				"y": 3.5414341498,
				"z": 1.9083032479,
				"element": "O" 
			},
			{
				"x": -1.7732137229,
				"y": 2.0805567696,
				"z": 0.0220062107,
				"element": "C" 
			},
			{
				"x": -2.9396486063,
				"y": 1.1388690586,
				"z": 0.3705917219,
				"element": "C" 
			},
			{
				"x": -3.9786070576,
				"y": 0.6557603946,
				"z": -1.0664318213,
				"element": "S" 
			},
			{
				"x": -2.9293953855,
				"y": -0.5618933996,
				"z": -1.9587644015,
				"element": "C" 
			},
			{
				"x": -3.1778361715,
				"y": -2.0371817135,
				"z": -1.6213928593,
				"element": "C" 
			},
			{
				"x": -2.7106287517,
				"y": -2.5835349695,
				"z": 0.0678323877,
				"element": "S" 
			},
			{
				"x": -0.8772135946,
				"y": -2.5965415687,
				"z": -0.0711344861,
				"element": "C" 
			},
			{
				"x": -0.2547870032,
				"y": -2.5776584029,
				"z": 1.3341980455,
				"element": "C" 
			},
			{
				"x": 1.2680530545,
				"y": -2.4943927244,
				"z": 1.2284226494,
				"element": "C" 
			},
			{
				"x": 1.8845352059,
				"y": -3.4192622607,
				"z": 0.7084350766,
				"element": "O" 
			},
			{
				"x": 3.6482097869,
				"y": -0.4443275921,
				"z": 0.9243313591,
				"element": "H" 
			},
			{
				"x": 3.8268978351,
				"y": -1.144463497,
				"z": 2.5508565236,
				"element": "H" 
			},
			{
				"x": 3.7102187452,
				"y": -2.2122469859,
				"z": 1.1255682682,
				"element": "H" 
			},
			{
				"x": 0.3924699503,
				"y": -0.4785387711,
				"z": 2.8902238229,
				"element": "H" 
			},
			{
				"x": 1.9460245544,
				"y": 0.3273407789,
				"z": 2.8970235718,
				"element": "H" 
			},
			{
				"x": 1.5816316345,
				"y": 1.0892954903,
				"z": 0.5351288003,
				"element": "H" 
			},
			{
				"x": 0.0418480398,
				"y": 0.2330513985,
				"z": 0.5056834092,
				"element": "H" 
			},
			{
				"x": 0.4498128028,
				"y": 2.3498984341,
				"z": 2.5517284787,
				"element": "H" 
			},
			{
				"x": -1.0775952935,
				"y": 1.5984235546,
				"z": -0.671566879,
				"element": "H" 
			},
			{
				"x": -2.1692521918,
				"y": 2.9697576666,
				"z": -0.4728483936,
				"element": "H" 
			},
			{
				"x": -3.6288320157,
				"y": 1.6577215706,
				"z": 1.0430887755,
				"element": "H" 
			},
			{
				"x": -2.6050276421,
				"y": 0.2309879759,
				"z": 0.8786095064,
				"element": "H" 
			},
			{
				"x": -3.1584723582,
				"y": -0.4096641733,
				"z": -3.0194549949,
				"element": "H" 
			},
			{
				"x": -1.8767676495,
				"y": -0.2908145498,
				"z": -1.8327153196,
				"element": "H" 
			},
			{
				"x": -4.2455509519,
				"y": -2.2601302424,
				"z": -1.6965369632,
				"element": "H" 
			},
			{
				"x": -2.6600142793,
				"y": -2.6735765363,
				"z": -2.3491674337,
				"element": "H" 
			},
			{
				"x": -0.5350059613,
				"y": -3.4800549383,
				"z": -0.6149597113,
				"element": "H" 
			},
			{
				"x": -0.5609608959,
				"y": -1.7120199548,
				"z": -0.6344956224,
				"element": "H" 
			},
			{
				"x": -0.703700559,
				"y": -1.7755686678,
				"z": 1.9206953492,
				"element": "H" 
			},
			{
				"x": -0.4810240359,
				"y": -3.5199890067,
				"z": 1.8433067314,
				"element": "H" 
			}
		],
		 "valence_orbital": [ 
			{
				"type": "occ",
				"energy": -0.25876,
				"method": "rhf"
			},
			{
				"type": "occ",
				"energy": -0.25522,
				"method": "rhf"
			},
			{
				"type": "occ",
				"energy": -0.24761,
				"method": "rhf"
			},
			{
				"type": "occ",
				"energy": -0.23323,
				"method": "rhf"
			},
			{
				"type": "occ",
				"energy": -0.22439,
				"method": "rhf"
			},
			{
				"type": "unocc",
				"energy": 0.00442,
				"method": "rhf"
			},
			{
				"type": "unocc",
				"energy": 0.00703,
				"method": "rhf"
			},
			{
				"type": "unocc",
				"energy": 0.03029,
				"method": "rhf"
			},
			{
				"type": "unocc",
				"energy": 0.03623,
				"method": "rhf"
			},
			{
				"type": "unocc",
				"energy": 0.04605,
				"method": "rhf"
			}
		],
		"cosmo_sigma_profile": { 
			"-0.025": 0.0,
			"-0.024": 0.0,
			"-0.023": 0.0,
			"-0.022": 0.0,
			"-0.021": 0.0,
			"-0.02": 0.0,
			"-0.019": 0.0,
			"-0.018": 0.0,
			"-0.017": 0.0,
			"-0.016": 0.0,
			"-0.015": 0.0,
			"-0.014": 0.0326574173354,
			"-0.013": 0.915635173589,
			"-0.012": 1.56035415195,
			"-0.011": 1.32534660361,
			"-0.01": 0.990710631539,
			"-0.009": 2.56939676505,
			"-0.008": 6.78408851455,
			"-0.007": 9.44544440083,
			"-0.006": 18.6001587278,
			"-0.005": 34.0009171217,
			"-0.004": 32.4629495164,
			"-0.003": 32.5198590227,
			"-0.002": 29.4139856774,
			"-0.001": 18.1545495164,
			"0.0": 11.7429962001,
			"0.001": 12.1899530161,
			"0.002": 10.8496566227,
			"0.003": 7.45600313233,
			"0.004": 7.84846643244,
			"0.005": 9.15038300098,
			"0.006": 10.3191685863,
			"0.007": 8.82669216713,
			"0.008": 7.42181608511,
			"0.009": 6.0332569071,
			"0.01": 5.58975131442,
			"0.011": 4.27204057639,
			"0.012": 3.8181472499,
			"0.013": 5.42969787818,
			"0.014": 10.0464710772,
			"0.015": 3.28855722102,
			"0.016": 0.0937699358261,
			"0.017": 0.0,
			"0.018": 0.0,
			"0.019": 0.0,
			"0.02": 0.0,
			"0.021": 0.0,
			"0.022": 0.0,
			"0.023": 0.0,
			"0.024": 0.0,
			"0.025": 0.0
		}
	}
}
