{
	 "smiles": "CCCCC1=CC2=C(C=C1)N=C(N)S2", 
	 "Tm": 371.15, 
	 "num_atms": 28, 
	 "gaussian": { 
		 "optdone": 1, 
		 "sigma_profile": "yes", 
		 "theory": "DFT", 
		 "functional": "B3LYP", 
		 "basiset": "6-31G**", 
		 "properties": { 
			 "R2extent": 4486.3654, 
			 "electric_dipole_moment_norm": 1.71275113487, 
			 "electric_quadrupole_moment_norm": 21.5379095912, 
			 "total_energy": -935.326079425, 
			 "HOMO_LUMO_gap": 0.19401, 
			 "cosmo_polarized_energy": -10.72, 
			 "cosmo_cavitation_energy": 32.08, 
			 "cosmo_dispersion_energy": -23.44, 
			 "cosmo_repulsion_energy": 1.83, 
			 "cosmo_total_nonelectrostatic_energy": 10.47, 
			 "SMD_solvation_energy": 2.81 
		},
		"coords": [
			{
				"x": 0.1603125168,
				"y": -2.7211327962,
				"z": -0.0245772577,
				"element": "C" 
			},
			{
				"x": 1.5369245824,
				"y": -2.5676473948,
				"z": -0.6838544519,
				"element": "C" 
			},
			{
				"x": 1.7079977736,
				"y": -1.3450766911,
				"z": -1.6041125459,
				"element": "C" 
			},
			{
				"x": 1.8774749659,
				"y": 0.024422737,
				"z": -0.9061878174,
				"element": "C" 
			},
			{
				"x": 0.6420287723,
				"y": 0.6119601891,
				"z": -0.2498357481,
				"element": "C" 
			},
			{
				"x": -0.4634426942,
				"y": 0.9811230211,
				"z": -1.0294368545,
				"element": "C" 
			},
			{
				"x": -1.5792710929,
				"y": 1.5315181834,
				"z": -0.4072563706,
				"element": "C" 
			},
			{
				"x": -1.6356745772,
				"y": 1.7344480187,
				"z": 0.9937549351,
				"element": "C" 
			},
			{
				"x": -0.526902075,
				"y": 1.3717325588,
				"z": 1.7655486815,
				"element": "C" 
			},
			{
				"x": 0.5900422825,
				"y": 0.8219151577,
				"z": 1.1404338023,
				"element": "C" 
			},
			{
				"x": -2.8149305275,
				"y": 2.2806239575,
				"z": 1.4815521098,
				"element": "N" 
			},
			{
				"x": -3.6460747303,
				"y": 2.5115119687,
				"z": 0.5169044664,
				"element": "C" 
			},
			{
				"x": -4.8700164154,
				"y": 3.1096056744,
				"z": 0.6802164281,
				"element": "N" 
			},
			{
				"x": -3.0889812937,
				"y": 2.0870208344,
				"z": -1.1317280313,
				"element": "S" 
			},
			{
				"x": -0.6343561045,
				"y": -2.7481418648,
				"z": -0.7791587811,
				"element": "H" 
			},
			{
				"x": -0.0638443798,
				"y": -1.8989667971,
				"z": 0.6588762569,
				"element": "H" 
			},
			{
				"x": 0.1071517238,
				"y": -3.6554148024,
				"z": 0.5451477946,
				"element": "H" 
			},
			{
				"x": 1.7386592558,
				"y": -3.4674434177,
				"z": -1.2798304822,
				"element": "H" 
			},
			{
				"x": 2.3164325913,
				"y": -2.5432582323,
				"z": 0.0906717308,
				"element": "H" 
			},
			{
				"x": 0.8652690729,
				"y": -1.29698654,
				"z": -2.3073230954,
				"element": "H" 
			},
			{
				"x": 2.6031384153,
				"y": -1.5044816588,
				"z": -2.2192372056,
				"element": "H" 
			},
			{
				"x": 2.2432344703,
				"y": 0.7369659614,
				"z": -1.6580549398,
				"element": "H" 
			},
			{
				"x": 2.6753334371,
				"y": -0.0580025473,
				"z": -0.1577327516,
				"element": "H" 
			},
			{
				"x": -0.4419738337,
				"y": 0.8420467345,
				"z": -2.1067682551,
				"element": "H" 
			},
			{
				"x": -0.553556085,
				"y": 1.5268062042,
				"z": 2.8392418513,
				"element": "H" 
			},
			{
				"x": 1.4504882535,
				"y": 0.5445286889,
				"z": 1.743902548,
				"element": "H" 
			},
			{
				"x": -5.1756836414,
				"y": 3.1439385452,
				"z": 1.6438061862,
				"element": "H" 
			},
			{
				"x": -5.5943806625,
				"y": 2.8762843076,
				"z": 0.0169377969,
				"element": "H" 
			}
		],
		 "valence_orbital": [ 
			{
				"type": "occ",
				"energy": -0.2942,
				"method": "rhf"
			},
			{
				"type": "occ",
				"energy": -0.28265,
				"method": "rhf"
			},
			{
				"type": "occ",
				"energy": -0.27212,
				"method": "rhf"
			},
			{
				"type": "occ",
				"energy": -0.22696,
				"method": "rhf"
			},
			{
				"type": "occ",
				"energy": -0.20515,
				"method": "rhf"
			},
			{
				"type": "unocc",
				"energy": -0.01114,
				"method": "rhf"
			},
			{
				"type": "unocc",
				"energy": 0.00173,
				"method": "rhf"
			},
			{
				"type": "unocc",
				"energy": 0.00534,
				"method": "rhf"
			},
			{
				"type": "unocc",
				"energy": 0.04878,
				"method": "rhf"
			},
			{
				"type": "unocc",
				"energy": 0.07012,
				"method": "rhf"
			}
		],
		"cosmo_sigma_profile": { 
			"-0.025": 0.0,
			"-0.024": 0.0,
			"-0.023": 0.0,
			"-0.022": 0.0,
			"-0.021": 0.0,
			"-0.02": 0.0,
			"-0.019": 0.0,
			"-0.018": 0.0,
			"-0.017": 0.0,
			"-0.016": 0.0,
			"-0.015": 0.661343564322,
			"-0.014": 2.54769941705,
			"-0.013": 2.04756858705,
			"-0.012": 3.00923658215,
			"-0.011": 2.46226478414,
			"-0.01": 2.73604759933,
			"-0.009": 1.67258299526,
			"-0.008": 1.57816822074,
			"-0.007": 2.06393202753,
			"-0.006": 4.24193457574,
			"-0.005": 7.69296636028,
			"-0.004": 9.70698340919,
			"-0.003": 16.0379983329,
			"-0.002": 24.5938396418,
			"-0.001": 25.8742154819,
			"0.0": 28.7118424501,
			"0.001": 30.954722704,
			"0.002": 23.0412706052,
			"0.003": 15.5738423501,
			"0.004": 17.7614020656,
			"0.005": 13.7170158464,
			"0.006": 5.32343462798,
			"0.007": 2.02042854474,
			"0.008": 1.93085692132,
			"0.009": 1.86989323322,
			"0.01": 2.15102518357,
			"0.011": 0.758214247269,
			"0.012": 0.911840215782,
			"0.013": 1.54767835312,
			"0.014": 0.654697806976,
			"0.015": 0.82427667853,
			"0.016": 0.148792477568,
			"0.017": 0.0,
			"0.018": 0.0,
			"0.019": 0.0,
			"0.02": 0.0,
			"0.021": 0.0,
			"0.022": 0.0,
			"0.023": 0.0,
			"0.024": 0.0,
			"0.025": 0.0
		}
	}
}
