{
	 "smiles": "FC1=CC=C(C=C1)C1CNCCO1", 
	 "Tm": 330.15, 
	 "num_atms": 25, 
	 "gaussian": { 
		 "optdone": 1, 
		 "sigma_profile": "yes", 
		 "theory": "DFT", 
		 "functional": "B3LYP", 
		 "basiset": "6-31G**", 
		 "properties": { 
			 "R2extent": 3187.1362, 
			 "electric_dipole_moment_norm": 1.81322746505, 
			 "electric_quadrupole_moment_norm": 10.5541432225, 
			 "total_energy": -618.079392108, 
			 "HOMO_LUMO_gap": 0.20354, 
			 "cosmo_polarized_energy": -8.22, 
			 "cosmo_cavitation_energy": 27.53, 
			 "cosmo_dispersion_energy": -20.21, 
			 "cosmo_repulsion_energy": 1.57, 
			 "cosmo_total_nonelectrostatic_energy": 8.89, 
			 "SMD_solvation_energy": 2.09 
		},
		"coords": [
			{
				"x": 2.8700000534,
				"y": 1.48785025,
				"z": -3.9554648215,
				"element": "F" 
			},
			{
				"x": 2.3818845646,
				"y": 0.8635630764,
				"z": -2.8616211204,
				"element": "C" 
			},
			{
				"x": 1.7267875199,
				"y": 1.6104621096,
				"z": -1.8911530344,
				"element": "C" 
			},
			{
				"x": 1.2269136344,
				"y": 0.957855605,
				"z": -0.7624852838,
				"element": "C" 
			},
			{
				"x": 1.3803221408,
				"y": -0.4248362525,
				"z": -0.605043784,
				"element": "C" 
			},
			{
				"x": 2.0544375397,
				"y": -1.1453285492,
				"z": -1.6009514905,
				"element": "C" 
			},
			{
				"x": 2.5577244864,
				"y": -0.5105684406,
				"z": -2.7350299558,
				"element": "C" 
			},
			{
				"x": 0.7878064967,
				"y": -1.1577150117,
				"z": 0.5822714919,
				"element": "C" 
			},
			{
				"x": -0.5894658763,
				"y": -1.8224362907,
				"z": 0.2396679174,
				"element": "C" 
			},
			{
				"x": -1.7132394491,
				"y": -0.9457836927,
				"z": 0.5439237682,
				"element": "N" 
			},
			{
				"x": -1.748212262,
				"y": -0.6234901643,
				"z": 1.9795376318,
				"element": "C" 
			},
			{
				"x": -0.3351330873,
				"y": -0.6331431404,
				"z": 2.6078275369,
				"element": "C" 
			},
			{
				"x": 0.628340057,
				"y": -0.2190921374,
				"z": 1.6478777506,
				"element": "O" 
			},
			{
				"x": 1.6197853406,
				"y": 2.6820511537,
				"z": -2.0222549093,
				"element": "H" 
			},
			{
				"x": 0.7340244844,
				"y": 1.5232849963,
				"z": 0.019835556,
				"element": "H" 
			},
			{
				"x": 2.1947490586,
				"y": -2.2179668162,
				"z": -1.4889215476,
				"element": "H" 
			},
			{
				"x": 3.0846747421,
				"y": -1.0578262543,
				"z": -3.5092223779,
				"element": "H" 
			},
			{
				"x": 1.4908445467,
				"y": -1.9492972899,
				"z": 0.8964574673,
				"element": "H" 
			},
			{
				"x": -0.6124330052,
				"y": -2.1039296872,
				"z": -0.8170492721,
				"element": "H" 
			},
			{
				"x": -0.7122080284,
				"y": -2.745516184,
				"z": 0.8195081801,
				"element": "H" 
			},
			{
				"x": -1.602827276,
				"y": -0.0853756325,
				"z": 0.0135656746,
				"element": "H" 
			},
			{
				"x": -2.3878920524,
				"y": -1.3466404895,
				"z": 2.5054278285,
				"element": "H" 
			},
			{
				"x": -2.21276593,
				"y": 0.360441443,
				"z": 2.0972528825,
				"element": "H" 
			},
			{
				"x": -0.2608724649,
				"y": 0.0678799714,
				"z": 3.4440998777,
				"element": "H" 
			},
			{
				"x": -0.0820452338,
				"y": -1.6335425723,
				"z": 2.9935440338,
				"element": "H" 
			}
		],
		 "valence_orbital": [ 
			{
				"type": "occ",
				"energy": -0.32254,
				"method": "rhf"
			},
			{
				"type": "occ",
				"energy": -0.26785,
				"method": "rhf"
			},
			{
				"type": "occ",
				"energy": -0.25871,
				"method": "rhf"
			},
			{
				"type": "occ",
				"energy": -0.24217,
				"method": "rhf"
			},
			{
				"type": "occ",
				"energy": -0.21492,
				"method": "rhf"
			},
			{
				"type": "unocc",
				"energy": -0.01138,
				"method": "rhf"
			},
			{
				"type": "unocc",
				"energy": 0.00167,
				"method": "rhf"
			},
			{
				"type": "unocc",
				"energy": 0.07258,
				"method": "rhf"
			},
			{
				"type": "unocc",
				"energy": 0.09202,
				"method": "rhf"
			},
			{
				"type": "unocc",
				"energy": 0.09701,
				"method": "rhf"
			}
		],
		"cosmo_sigma_profile": { 
			"-0.025": 0.0,
			"-0.024": 0.0,
			"-0.023": 0.0,
			"-0.022": 0.0,
			"-0.021": 0.0,
			"-0.02": 0.0,
			"-0.019": 0.0,
			"-0.018": 0.0,
			"-0.017": 0.0,
			"-0.016": 0.0,
			"-0.015": 0.0,
			"-0.014": 0.0,
			"-0.013": 0.0,
			"-0.012": 0.0,
			"-0.011": 0.0,
			"-0.01": 0.0,
			"-0.009": 0.466055158665,
			"-0.008": 0.901585270804,
			"-0.007": 4.01590058368,
			"-0.006": 8.1502350473,
			"-0.005": 14.1020993732,
			"-0.004": 27.6572872342,
			"-0.003": 26.9375978114,
			"-0.002": 19.0541305199,
			"-0.001": 13.8423552219,
			"0.0": 11.481492527,
			"0.001": 13.5036589335,
			"0.002": 13.7982442679,
			"0.003": 11.893026661,
			"0.004": 19.9304802491,
			"0.005": 14.0037559462,
			"0.006": 2.71344526117,
			"0.007": 1.84857021339,
			"0.008": 1.8890056949,
			"0.009": 1.70976841377,
			"0.01": 1.70252864736,
			"0.011": 1.39783824165,
			"0.012": 2.06202997484,
			"0.013": 1.47981359924,
			"0.014": 0.582429514757,
			"0.015": 0.248617832566,
			"0.016": 0.348490894071,
			"0.017": 0.71282268561,
			"0.018": 0.509271509932,
			"0.019": 0.0,
			"0.02": 0.0,
			"0.021": 0.0,
			"0.022": 0.0,
			"0.023": 0.0,
			"0.024": 0.0,
			"0.025": 0.0
		}
	}
}
