{
	 "smiles": "S=C1SC=CS1", 
	 "Tm": 322.15, 
	 "num_atms": 8, 
	 "gaussian": { 
		 "optdone": 1, 
		 "sigma_profile": "yes", 
		 "theory": "DFT", 
		 "functional": "B3LYP", 
		 "basiset": "6-31G**", 
		 "properties": { 
			 "R2extent": 1466.0283, 
			 "electric_dipole_moment_norm": 4.70202890782, 
			 "electric_quadrupole_moment_norm": 7.83992821141, 
			 "total_energy": -1310.06041942, 
			 "HOMO_LUMO_gap": 0.15356, 
			 "cosmo_polarized_energy": -8.89, 
			 "cosmo_cavitation_energy": 17.19, 
			 "cosmo_dispersion_energy": -14.61, 
			 "cosmo_repulsion_energy": 1.08, 
			 "cosmo_total_nonelectrostatic_energy": 3.67, 
			 "SMD_solvation_energy": 2.01 
		},
		"coords": [
			{
				"x": 1.2346773464,
				"y": -2.2267546241,
				"z": -1.6154800898,
				"element": "S" 
			},
			{
				"x": 1.1959534363,
				"y": -1.2414994352,
				"z": -0.2984271605,
				"element": "C" 
			},
			{
				"x": 0.0929281922,
				"y": -1.4526278716,
				"z": 1.0702150801,
				"element": "S" 
			},
			{
				"x": 0.6402036124,
				"y": -0.0818175746,
				"z": 2.0092381206,
				"element": "C" 
			},
			{
				"x": 1.6311224324,
				"y": 0.6590485505,
				"z": 1.4841342001,
				"element": "C" 
			},
			{
				"x": 2.2519678689,
				"y": 0.1616323473,
				"z": -0.0739058823,
				"element": "S" 
			},
			{
				"x": 0.1618263634,
				"y": 0.1082113336,
				"z": 2.9628142713,
				"element": "H" 
			},
			{
				"x": 2.067620748,
				"y": 1.5331072741,
				"z": 1.9529114606,
				"element": "H" 
			}
		],
		 "valence_orbital": [ 
			{
				"type": "occ",
				"energy": -0.35505,
				"method": "rhf"
			},
			{
				"type": "occ",
				"energy": -0.3222,
				"method": "rhf"
			},
			{
				"type": "occ",
				"energy": -0.30733,
				"method": "rhf"
			},
			{
				"type": "occ",
				"energy": -0.22952,
				"method": "rhf"
			},
			{
				"type": "occ",
				"energy": -0.22476,
				"method": "rhf"
			},
			{
				"type": "unocc",
				"energy": -0.0712,
				"method": "rhf"
			},
			{
				"type": "unocc",
				"energy": -0.02512,
				"method": "rhf"
			},
			{
				"type": "unocc",
				"energy": -0.02259,
				"method": "rhf"
			},
			{
				"type": "unocc",
				"energy": 0.03782,
				"method": "rhf"
			},
			{
				"type": "unocc",
				"energy": 0.05315,
				"method": "rhf"
			}
		],
		"cosmo_sigma_profile": { 
			"-0.025": 0.0,
			"-0.024": 0.0,
			"-0.023": 0.0,
			"-0.022": 0.0,
			"-0.021": 0.0,
			"-0.02": 0.0,
			"-0.019": 0.0,
			"-0.018": 0.0,
			"-0.017": 0.0,
			"-0.016": 0.0,
			"-0.015": 0.0,
			"-0.014": 0.0,
			"-0.013": 0.0,
			"-0.012": 0.0,
			"-0.011": 3.15769076993,
			"-0.01": 5.21453577381,
			"-0.009": 3.54959654682,
			"-0.008": 4.68545296082,
			"-0.007": 3.58760322801,
			"-0.006": 4.2965055283,
			"-0.005": 2.09178040342,
			"-0.004": 4.30028454852,
			"-0.003": 6.37683355063,
			"-0.002": 6.24814136524,
			"-0.001": 11.0371372152,
			"0.0": 19.4436317837,
			"0.001": 20.9981923509,
			"0.002": 13.3649535239,
			"0.003": 5.85798092275,
			"0.004": 3.77063874481,
			"0.005": 5.96821208082,
			"0.006": 6.47635638832,
			"0.007": 6.85092331493,
			"0.008": 4.55465609619,
			"0.009": 3.32211738312,
			"0.01": 1.19867090195,
			"0.011": 0.0,
			"0.012": 0.0,
			"0.013": 0.0,
			"0.014": 0.0,
			"0.015": 0.0,
			"0.016": 0.0,
			"0.017": 0.0,
			"0.018": 0.0,
			"0.019": 0.0,
			"0.02": 0.0,
			"0.021": 0.0,
			"0.022": 0.0,
			"0.023": 0.0,
			"0.024": 0.0,
			"0.025": 0.0
		}
	}
}
