{
	 "smiles": "CCOC1=CC=C(C=C1)C(=O)C(C)Cl", 
	 "Tm": 336.15, 
	 "num_atms": 27, 
	 "gaussian": { 
		 "optdone": 1, 
		 "sigma_profile": "yes", 
		 "theory": "DFT", 
		 "functional": "B3LYP", 
		 "basiset": "6-31G**", 
		 "properties": { 
			 "R2extent": 5703.9589, 
			 "electric_dipole_moment_norm": 3.97979705136, 
			 "electric_quadrupole_moment_norm": 16.2495820368, 
			 "total_energy": -1037.6485488, 
			 "HOMO_LUMO_gap": 0.17377, 
			 "cosmo_polarized_energy": -9.67, 
			 "cosmo_cavitation_energy": 31.97, 
			 "cosmo_dispersion_energy": -23.26, 
			 "cosmo_repulsion_energy": 1.86, 
			 "cosmo_total_nonelectrostatic_energy": 10.57, 
			 "SMD_solvation_energy": 6.11 
		},
		"coords": [
			{
				"x": 3.8392908393,
				"y": -0.7721569697,
				"z": -1.6149060863,
				"element": "C" 
			},
			{
				"x": 2.6723998489,
				"y": 0.0762977312,
				"z": -1.1424781906,
				"element": "C" 
			},
			{
				"x": 1.7961499551,
				"y": -0.7754907104,
				"z": -0.3968909368,
				"element": "O" 
			},
			{
				"x": 0.6691062049,
				"y": -0.2528152412,
				"z": 0.1456262505,
				"element": "C" 
			},
			{
				"x": 0.272896453,
				"y": 1.0893562461,
				"z": 0.0265012653,
				"element": "C" 
			},
			{
				"x": -0.9079180371,
				"y": 1.5084738619,
				"z": 0.6275165339,
				"element": "C" 
			},
			{
				"x": -1.7213133711,
				"y": 0.6239242681,
				"z": 1.3549551437,
				"element": "C" 
			},
			{
				"x": -1.3054727681,
				"y": -0.7182493015,
				"z": 1.4685312375,
				"element": "C" 
			},
			{
				"x": -0.131551343,
				"y": -1.1503333178,
				"z": 0.8725466465,
				"element": "C" 
			},
			{
				"x": -2.9733368606,
				"y": 1.1803033684,
				"z": 1.9320066917,
				"element": "C" 
			},
			{
				"x": -3.2634379826,
				"y": 2.3623400184,
				"z": 1.7982259797,
				"element": "O" 
			},
			{
				"x": -4.0243124684,
				"y": 0.3084890996,
				"z": 2.6488365296,
				"element": "C" 
			},
			{
				"x": -4.739722657,
				"y": -0.6781033161,
				"z": 1.7297280026,
				"element": "C" 
			},
			{
				"x": -3.3337216598,
				"y": -0.5500455108,
				"z": 4.1180671702,
				"element": "Cl" 
			},
			{
				"x": 4.3749358249,
				"y": -1.2000738512,
				"z": -0.7631260391,
				"element": "H" 
			},
			{
				"x": 4.5378855654,
				"y": -0.1592454633,
				"z": -2.1924447466,
				"element": "H" 
			},
			{
				"x": 3.4891839355,
				"y": -1.5909371467,
				"z": -2.2494605928,
				"element": "H" 
			},
			{
				"x": 3.0178676649,
				"y": 0.9011230055,
				"z": -0.5046677577,
				"element": "H" 
			},
			{
				"x": 2.1309885093,
				"y": 0.510254253,
				"z": -1.9940946082,
				"element": "H" 
			},
			{
				"x": 0.8726143923,
				"y": 1.8015869459,
				"z": -0.5270558587,
				"element": "H" 
			},
			{
				"x": -1.2288990161,
				"y": 2.5410955857,
				"z": 0.5419683552,
				"element": "H" 
			},
			{
				"x": -1.8873758502,
				"y": -1.4275575478,
				"z": 2.0434617387,
				"element": "H" 
			},
			{
				"x": 0.1969066923,
				"y": -2.180607223,
				"z": 0.9591267997,
				"element": "H" 
			},
			{
				"x": -4.7359797268,
				"y": 1.0201986626,
				"z": 3.0656610114,
				"element": "H" 
			},
			{
				"x": -4.0607880898,
				"y": -1.4257960906,
				"z": 1.3156997234,
				"element": "H" 
			},
			{
				"x": -5.1888111508,
				"y": -0.1231636724,
				"z": 0.8983907544,
				"element": "H" 
			},
			{
				"x": -5.5374849044,
				"y": -1.1906676838,
				"z": 2.2727749826,
				"element": "H" 
			}
		],
		 "valence_orbital": [ 
			{
				"type": "occ",
				"energy": -0.30654,
				"method": "rhf"
			},
			{
				"type": "occ",
				"energy": -0.29509,
				"method": "rhf"
			},
			{
				"type": "occ",
				"energy": -0.26274,
				"method": "rhf"
			},
			{
				"type": "occ",
				"energy": -0.2509,
				"method": "rhf"
			},
			{
				"type": "occ",
				"energy": -0.23182,
				"method": "rhf"
			},
			{
				"type": "unocc",
				"energy": -0.05805,
				"method": "rhf"
			},
			{
				"type": "unocc",
				"energy": -0.01079,
				"method": "rhf"
			},
			{
				"type": "unocc",
				"energy": 0.01298,
				"method": "rhf"
			},
			{
				"type": "unocc",
				"energy": 0.06015,
				"method": "rhf"
			},
			{
				"type": "unocc",
				"energy": 0.08806,
				"method": "rhf"
			}
		],
		"cosmo_sigma_profile": { 
			"-0.025": 0.0,
			"-0.024": 0.0,
			"-0.023": 0.0,
			"-0.022": 0.0,
			"-0.021": 0.0,
			"-0.02": 0.0,
			"-0.019": 0.0,
			"-0.018": 0.0,
			"-0.017": 0.0,
			"-0.016": 0.0,
			"-0.015": 0.0,
			"-0.014": 0.0,
			"-0.013": 0.0,
			"-0.012": 0.0,
			"-0.011": 0.0,
			"-0.01": 0.0,
			"-0.009": 0.0,
			"-0.008": 0.0911172772695,
			"-0.007": 3.95559079082,
			"-0.006": 12.2567015533,
			"-0.005": 22.7832990127,
			"-0.004": 25.2459089549,
			"-0.003": 23.1376407066,
			"-0.002": 21.460690351,
			"-0.001": 20.5901611891,
			"0.0": 18.5968596987,
			"0.001": 15.8923002921,
			"0.002": 17.7757319886,
			"0.003": 21.5627712226,
			"0.004": 16.2661262404,
			"0.005": 9.97111046397,
			"0.006": 7.67987098796,
			"0.007": 2.97815475475,
			"0.008": 3.05758507505,
			"0.009": 2.98650333894,
			"0.01": 2.46844054314,
			"0.011": 3.69172130276,
			"0.012": 2.45731008461,
			"0.013": 0.283763051812,
			"0.014": 0.0,
			"0.015": 0.0,
			"0.016": 0.0,
			"0.017": 0.0,
			"0.018": 0.0,
			"0.019": 0.0,
			"0.02": 0.0,
			"0.021": 0.0,
			"0.022": 0.0,
			"0.023": 0.0,
			"0.024": 0.0,
			"0.025": 0.0
		}
	}
}
