{
	 "smiles": "CSC(NCC=C)=C(C#N)C#N", 
	 "Tm": 364.15, 
	 "num_atms": 21, 
	 "gaussian": { 
		 "optdone": 1, 
		 "sigma_profile": "yes", 
		 "theory": "DFT", 
		 "functional": "B3LYP", 
		 "basiset": "6-31G**", 
		 "properties": { 
			 "R2extent": 3419.3837, 
			 "electric_dipole_moment_norm": 6.75605218674, 
			 "electric_quadrupole_moment_norm": 18.6282771409, 
			 "total_energy": -872.634913439, 
			 "HOMO_LUMO_gap": 0.17494, 
			 "cosmo_polarized_energy": -17.99, 
			 "cosmo_cavitation_energy": 28.24, 
			 "cosmo_dispersion_energy": -19.39, 
			 "cosmo_repulsion_energy": 1.52, 
			 "cosmo_total_nonelectrostatic_energy": 10.37, 
			 "SMD_solvation_energy": 7.56 
		},
		"coords": [
			{
				"x": 0.6584774096,
				"y": -3.6606508795,
				"z": 1.5373062485,
				"element": "C" 
			},
			{
				"x": -0.6785158146,
				"y": -2.4804884412,
				"z": 1.9568218688,
				"element": "S" 
			},
			{
				"x": -0.9152148373,
				"y": -1.5145501577,
				"z": 0.4768011338,
				"element": "C" 
			},
			{
				"x": -1.051843982,
				"y": -0.203643576,
				"z": 0.7699923645,
				"element": "N" 
			},
			{
				"x": -1.6757134253,
				"y": 0.8754449788,
				"z": -0.018697401,
				"element": "C" 
			},
			{
				"x": -0.7192739971,
				"y": 2.0114815237,
				"z": -0.2830306505,
				"element": "C" 
			},
			{
				"x": -0.3393501855,
				"y": 2.3982241118,
				"z": -1.4999172074,
				"element": "C" 
			},
			{
				"x": -1.0008777638,
				"y": -2.0915566403,
				"z": -0.7910251946,
				"element": "C" 
			},
			{
				"x": -0.9147123424,
				"y": -1.3335059196,
				"z": -1.9944497772,
				"element": "C" 
			},
			{
				"x": -0.8349451562,
				"y": -0.7250523993,
				"z": -2.9861095069,
				"element": "N" 
			},
			{
				"x": -1.179905032,
				"y": -3.4954329519,
				"z": -0.950810131,
				"element": "C" 
			},
			{
				"x": -1.3228637133,
				"y": -4.6433297168,
				"z": -1.0958483758,
				"element": "N" 
			},
			{
				"x": 1.005342662,
				"y": -4.0388774056,
				"z": 2.5014796746,
				"element": "H" 
			},
			{
				"x": 1.4774968321,
				"y": -3.1429671884,
				"z": 1.0367728309,
				"element": "H" 
			},
			{
				"x": 0.2873668254,
				"y": -4.4816865194,
				"z": 0.9257590447,
				"element": "H" 
			},
			{
				"x": -0.742433554,
				"y": 0.0554779208,
				"z": 1.6978617705,
				"element": "H" 
			},
			{
				"x": -2.0555904587,
				"y": 0.4638758245,
				"z": -0.9508640232,
				"element": "H" 
			},
			{
				"x": -2.5383485099,
				"y": 1.2344002379,
				"z": 0.5597622449,
				"element": "H" 
			},
			{
				"x": -0.3482119881,
				"y": 2.5376938143,
				"z": 0.597176718,
				"element": "H" 
			},
			{
				"x": -0.6779925014,
				"y": 1.8846052057,
				"z": -2.3952042719,
				"element": "H" 
			},
			{
				"x": 0.3366095325,
				"y": 3.2372381782,
				"z": -1.6369773595,
				"element": "H" 
			}
		],
		 "valence_orbital": [ 
			{
				"type": "occ",
				"energy": -0.33511,
				"method": "rhf"
			},
			{
				"type": "occ",
				"energy": -0.32575,
				"method": "rhf"
			},
			{
				"type": "occ",
				"energy": -0.28261,
				"method": "rhf"
			},
			{
				"type": "occ",
				"energy": -0.27487,
				"method": "rhf"
			},
			{
				"type": "occ",
				"energy": -0.23546,
				"method": "rhf"
			},
			{
				"type": "unocc",
				"energy": -0.06052,
				"method": "rhf"
			},
			{
				"type": "unocc",
				"energy": -0.00876,
				"method": "rhf"
			},
			{
				"type": "unocc",
				"energy": -0.00573,
				"method": "rhf"
			},
			{
				"type": "unocc",
				"energy": 0.01593,
				"method": "rhf"
			},
			{
				"type": "unocc",
				"energy": 0.04152,
				"method": "rhf"
			}
		],
		"cosmo_sigma_profile": { 
			"-0.025": 0.0,
			"-0.024": 0.0,
			"-0.023": 0.0,
			"-0.022": 0.0,
			"-0.021": 0.0,
			"-0.02": 0.0,
			"-0.019": 0.0,
			"-0.018": 0.0,
			"-0.017": 0.0,
			"-0.016": 0.816669471328,
			"-0.015": 1.05787788283,
			"-0.014": 1.14319323087,
			"-0.013": 1.32045742731,
			"-0.012": 1.0862059905,
			"-0.011": 0.91310792887,
			"-0.01": 1.40512925069,
			"-0.009": 1.86788320562,
			"-0.008": 3.58781711688,
			"-0.007": 8.87536639552,
			"-0.006": 12.7837386109,
			"-0.005": 13.0696463126,
			"-0.004": 16.2163232623,
			"-0.003": 20.8411923067,
			"-0.002": 19.855891258,
			"-0.001": 17.1974909165,
			"0.0": 12.0716634781,
			"0.001": 11.1461211006,
			"0.002": 11.8524923841,
			"0.003": 12.3569265902,
			"0.004": 9.6782854681,
			"0.005": 10.1968498401,
			"0.006": 6.46606130837,
			"0.007": 4.65095981351,
			"0.008": 4.69441089574,
			"0.009": 5.69068037035,
			"0.01": 5.11822896844,
			"0.011": 4.86429922427,
			"0.012": 4.68714644189,
			"0.013": 3.31017367574,
			"0.014": 0.262338727909,
			"0.015": 0.0,
			"0.016": 0.0,
			"0.017": 0.0,
			"0.018": 0.0,
			"0.019": 0.0,
			"0.02": 0.0,
			"0.021": 0.0,
			"0.022": 0.0,
			"0.023": 0.0,
			"0.024": 0.0,
			"0.025": 0.0
		}
	}
}
