{
	 "smiles": "NC1=CC=C(C=C1)S(=O)C(F)(F)F", 
	 "Tm": 350.15, 
	 "num_atms": 19, 
	 "gaussian": { 
		 "optdone": 1, 
		 "sigma_profile": "yes", 
		 "theory": "DFT", 
		 "functional": "B3LYP", 
		 "basiset": "6-31G**", 
		 "properties": { 
			 "R2extent": 3723.4402, 
			 "electric_dipole_moment_norm": 5.87897802258, 
			 "electric_quadrupole_moment_norm": 9.53285392839, 
			 "total_energy": -1097.98201469, 
			 "HOMO_LUMO_gap": 0.1945, 
			 "cosmo_polarized_energy": -13.76, 
			 "cosmo_cavitation_energy": 26.4, 
			 "cosmo_dispersion_energy": -19.16, 
			 "cosmo_repulsion_energy": 1.43, 
			 "cosmo_total_nonelectrostatic_energy": 8.66, 
			 "SMD_solvation_energy": 5.04 
		},
		"coords": [
			{
				"x": -3.4663197698,
				"y": -0.6751267588,
				"z": -0.709584551,
				"element": "N" 
			},
			{
				"x": -2.1203000359,
				"y": -0.7728997503,
				"z": -0.3960432931,
				"element": "C" 
			},
			{
				"x": -1.4096711071,
				"y": 0.351088121,
				"z": 0.0718553026,
				"element": "C" 
			},
			{
				"x": -0.0498140706,
				"y": 0.2667777465,
				"z": 0.3380944102,
				"element": "C" 
			},
			{
				"x": 0.6197578733,
				"y": -0.9424973814,
				"z": 0.1431146133,
				"element": "C" 
			},
			{
				"x": -0.0612092442,
				"y": -2.0631627153,
				"z": -0.3395429301,
				"element": "C" 
			},
			{
				"x": -1.4236812414,
				"y": -1.9814372306,
				"z": -0.5987945863,
				"element": "C" 
			},
			{
				"x": 2.3988619209,
				"y": -1.0030178427,
				"z": 0.4360849409,
				"element": "S" 
			},
			{
				"x": 2.8897399163,
				"y": 0.4114953417,
				"z": 0.6067018848,
				"element": "O" 
			},
			{
				"x": 2.2796490131,
				"y": -1.7203084962,
				"z": 2.1799015049,
				"element": "C" 
			},
			{
				"x": 3.5208029218,
				"y": -1.8476322391,
				"z": 2.6651518188,
				"element": "F" 
			},
			{
				"x": 1.7161206972,
				"y": -2.9390973098,
				"z": 2.1153573778,
				"element": "F" 
			},
			{
				"x": 1.5706624302,
				"y": -0.9513476341,
				"z": 3.0088628173,
				"element": "F" 
			},
			{
				"x": -3.9885039323,
				"y": -1.5383969485,
				"z": -0.741286262,
				"element": "H" 
			},
			{
				"x": -3.9758264354,
				"y": 0.0844809271,
				"z": -0.2824420959,
				"element": "H" 
			},
			{
				"x": -1.9341564331,
				"y": 1.2919332318,
				"z": 0.217675648,
				"element": "H" 
			},
			{
				"x": 0.5120802502,
				"y": 1.1288371247,
				"z": 0.6845990775,
				"element": "H" 
			},
			{
				"x": 0.4636113722,
				"y": -2.9997329456,
				"z": -0.5058829914,
				"element": "H" 
			},
			{
				"x": -1.9573041256,
				"y": -2.8509552405,
				"z": -0.9733226863,
				"element": "H" 
			}
		],
		 "valence_orbital": [ 
			{
				"type": "occ",
				"energy": -0.32937,
				"method": "rhf"
			},
			{
				"type": "occ",
				"energy": -0.27927,
				"method": "rhf"
			},
			{
				"type": "occ",
				"energy": -0.26681,
				"method": "rhf"
			},
			{
				"type": "occ",
				"energy": -0.24782,
				"method": "rhf"
			},
			{
				"type": "occ",
				"energy": -0.21894,
				"method": "rhf"
			},
			{
				"type": "unocc",
				"energy": -0.02444,
				"method": "rhf"
			},
			{
				"type": "unocc",
				"energy": -0.01653,
				"method": "rhf"
			},
			{
				"type": "unocc",
				"energy": 0.02679,
				"method": "rhf"
			},
			{
				"type": "unocc",
				"energy": 0.03086,
				"method": "rhf"
			},
			{
				"type": "unocc",
				"energy": 0.06312,
				"method": "rhf"
			}
		],
		"cosmo_sigma_profile": { 
			"-0.025": 0.0,
			"-0.024": 0.0,
			"-0.023": 0.0,
			"-0.022": 0.0,
			"-0.021": 0.0,
			"-0.02": 0.0,
			"-0.019": 0.0,
			"-0.018": 0.0,
			"-0.017": 0.0,
			"-0.016": 0.0,
			"-0.015": 0.0,
			"-0.014": 0.117701143467,
			"-0.013": 2.42324370647,
			"-0.012": 2.99722132661,
			"-0.011": 3.52775084309,
			"-0.01": 2.91037128523,
			"-0.009": 2.5860245657,
			"-0.008": 3.87777756644,
			"-0.007": 7.2599338858,
			"-0.006": 8.40224976237,
			"-0.005": 9.15033027954,
			"-0.004": 10.8046168511,
			"-0.003": 10.0877564937,
			"-0.002": 9.32932243637,
			"-0.001": 11.6601581469,
			"0.0": 14.7266395085,
			"0.001": 28.7036346158,
			"0.002": 30.3295467347,
			"0.003": 11.4829297919,
			"0.004": 14.7301965706,
			"0.005": 4.70395771089,
			"0.006": 1.67562500002,
			"0.007": 2.26889174418,
			"0.008": 2.64360607119,
			"0.009": 1.41442049625,
			"0.01": 1.82826490538,
			"0.011": 2.50991269434,
			"0.012": 5.23689748232,
			"0.013": 3.37376376161,
			"0.014": 1.44112787956,
			"0.015": 0.0,
			"0.016": 0.0,
			"0.017": 0.0,
			"0.018": 0.0,
			"0.019": 0.0,
			"0.02": 0.0,
			"0.021": 0.0,
			"0.022": 0.0,
			"0.023": 0.0,
			"0.024": 0.0,
			"0.025": 0.0
		}
	}
}
