{
	 "smiles": "CC(=O)OC1=CC=C(C=C1)C(=O)NC1=CC=CC=C1", 
	 "Tm": 435.15, 
	 "num_atms": 32, 
	 "gaussian": { 
		 "optdone": 1, 
		 "sigma_profile": "yes", 
		 "theory": "DFT", 
		 "functional": "B3LYP", 
		 "basiset": "6-31G**", 
		 "properties": { 
			 "R2extent": 9026.8233, 
			 "electric_dipole_moment_norm": 2.90983825152, 
			 "electric_quadrupole_moment_norm": 22.2362751951, 
			 "total_energy": -859.885620474, 
			 "HOMO_LUMO_gap": 0.1712, 
			 "cosmo_polarized_energy": -15.88, 
			 "cosmo_cavitation_energy": 37.34, 
			 "cosmo_dispersion_energy": -27.23, 
			 "cosmo_repulsion_energy": 2.08, 
			 "cosmo_total_nonelectrostatic_energy": 12.18, 
			 "SMD_solvation_energy": 8.05 
		},
		"coords": [
			{
				"x": 3.6890605486,
				"y": 4.7040962755,
				"z": -2.8105812256,
				"element": "C" 
			},
			{
				"x": 2.8030409376,
				"y": 3.8110326121,
				"z": -1.9790341454,
				"element": "C" 
			},
			{
				"x": 1.9726716312,
				"y": 4.1765906919,
				"z": -1.1846944002,
				"element": "O" 
			},
			{
				"x": 3.0817248043,
				"y": 2.4984981983,
				"z": -2.2689092929,
				"element": "O" 
			},
			{
				"x": 2.4127051354,
				"y": 1.4366956567,
				"z": -1.6689671336,
				"element": "C" 
			},
			{
				"x": 2.2735660217,
				"y": 0.300843497,
				"z": -2.4708559766,
				"element": "C" 
			},
			{
				"x": 1.6785501442,
				"y": -0.8411282751,
				"z": -1.9503948042,
				"element": "C" 
			},
			{
				"x": 1.2001053259,
				"y": -0.8591868796,
				"z": -0.6326011207,
				"element": "C" 
			},
			{
				"x": 1.3695351398,
				"y": 0.2836427393,
				"z": 0.1610842378,
				"element": "C" 
			},
			{
				"x": 1.9742280172,
				"y": 1.4348382509,
				"z": -0.3431890868,
				"element": "C" 
			},
			{
				"x": 0.5702885719,
				"y": -2.1356031943,
				"z": -0.14896595,
				"element": "C" 
			},
			{
				"x": 0.8244886899,
				"y": -3.2111938805,
				"z": -0.6817686225,
				"element": "O" 
			},
			{
				"x": -0.3065103051,
				"y": -1.9885296402,
				"z": 0.9043661391,
				"element": "N" 
			},
			{
				"x": -1.0359088997,
				"y": -2.9788567776,
				"z": 1.5959835751,
				"element": "C" 
			},
			{
				"x": -0.9038321023,
				"y": -4.3538595278,
				"z": 1.3455686716,
				"element": "C" 
			},
			{
				"x": -1.6604662081,
				"y": -5.2585207651,
				"z": 2.09115031,
				"element": "C" 
			},
			{
				"x": -2.5456042785,
				"y": -4.8249091298,
				"z": 3.0788193517,
				"element": "C" 
			},
			{
				"x": -2.673920083,
				"y": -3.456160447,
				"z": 3.3235292663,
				"element": "C" 
			},
			{
				"x": -1.9258807089,
				"y": -2.5398508104,
				"z": 2.590288165,
				"element": "C" 
			},
			{
				"x": 4.7408894472,
				"y": 4.4747879929,
				"z": -2.6164498291,
				"element": "H" 
			},
			{
				"x": 3.5078129895,
				"y": 4.5255597115,
				"z": -3.874586025,
				"element": "H" 
			},
			{
				"x": 3.4812742875,
				"y": 5.7452461559,
				"z": -2.5668713062,
				"element": "H" 
			},
			{
				"x": 2.6406717926,
				"y": 0.330444797,
				"z": -3.4912854883,
				"element": "H" 
			},
			{
				"x": 1.5734018773,
				"y": -1.7383004642,
				"z": -2.5502967768,
				"element": "H" 
			},
			{
				"x": 1.0679727929,
				"y": 0.2822836153,
				"z": 1.204990248,
				"element": "H" 
			},
			{
				"x": 2.0984170662,
				"y": 2.3090391761,
				"z": 0.2795367207,
				"element": "H" 
			},
			{
				"x": -0.5329357105,
				"y": -1.0395182777,
				"z": 1.1624477603,
				"element": "H" 
			},
			{
				"x": -0.2244535075,
				"y": -4.6899504261,
				"z": 0.5758000082,
				"element": "H" 
			},
			{
				"x": -1.5519993204,
				"y": -6.3206263865,
				"z": 1.8898326025,
				"element": "H" 
			},
			{
				"x": -3.1280487964,
				"y": -5.541605722,
				"z": 3.6495928865,
				"element": "H" 
			},
			{
				"x": -3.357331714,
				"y": -3.0969392004,
				"z": 4.0875826709,
				"element": "H" 
			},
			{
				"x": -2.0297135866,
				"y": -1.474759566,
				"z": 2.7875785703,
				"element": "H" 
			}
		],
		 "valence_orbital": [ 
			{
				"type": "occ",
				"energy": -0.2667,
				"method": "rhf"
			},
			{
				"type": "occ",
				"energy": -0.25996,
				"method": "rhf"
			},
			{
				"type": "occ",
				"energy": -0.24981,
				"method": "rhf"
			},
			{
				"type": "occ",
				"energy": -0.24719,
				"method": "rhf"
			},
			{
				"type": "occ",
				"energy": -0.2181,
				"method": "rhf"
			},
			{
				"type": "unocc",
				"energy": -0.0469,
				"method": "rhf"
			},
			{
				"type": "unocc",
				"energy": -0.01805,
				"method": "rhf"
			},
			{
				"type": "unocc",
				"energy": -0.00618,
				"method": "rhf"
			},
			{
				"type": "unocc",
				"energy": 0.00064,
				"method": "rhf"
			},
			{
				"type": "unocc",
				"energy": 0.01355,
				"method": "rhf"
			}
		],
		"cosmo_sigma_profile": { 
			"-0.025": 0.0,
			"-0.024": 0.0,
			"-0.023": 0.0,
			"-0.022": 0.0,
			"-0.021": 0.0,
			"-0.02": 0.0,
			"-0.019": 0.0,
			"-0.018": 0.0,
			"-0.017": 0.0,
			"-0.016": 0.0,
			"-0.015": 0.604213576038,
			"-0.014": 1.41241062638,
			"-0.013": 1.74962617105,
			"-0.012": 0.993660159852,
			"-0.011": 1.28405064593,
			"-0.01": 1.80319471667,
			"-0.009": 2.07489348666,
			"-0.008": 2.4025709595,
			"-0.007": 7.91783156393,
			"-0.006": 17.4146918745,
			"-0.005": 20.9647106922,
			"-0.004": 22.9810269059,
			"-0.003": 22.2656489689,
			"-0.002": 22.7501519108,
			"-0.001": 18.9066246426,
			"0.0": 16.6529802057,
			"0.001": 20.3521015963,
			"0.002": 22.4985202278,
			"0.003": 24.6707432373,
			"0.004": 16.5361596781,
			"0.005": 15.1189807517,
			"0.006": 10.8386620614,
			"0.007": 4.10538499392,
			"0.008": 3.38369353402,
			"0.009": 3.49253758442,
			"0.01": 4.70345207058,
			"0.011": 5.59674540474,
			"0.012": 3.60488953688,
			"0.013": 2.42961266372,
			"0.014": 0.197453433379,
			"0.015": 0.0,
			"0.016": 0.0,
			"0.017": 0.0,
			"0.018": 0.0,
			"0.019": 0.0,
			"0.02": 0.0,
			"0.021": 0.0,
			"0.022": 0.0,
			"0.023": 0.0,
			"0.024": 0.0,
			"0.025": 0.0
		}
	}
}
