{
	 "smiles": "CNC(=S)NC1CC1", 
	 "Tm": 382.15, 
	 "num_atms": 18, 
	 "gaussian": { 
		 "optdone": 1, 
		 "sigma_profile": "yes", 
		 "theory": "DFT", 
		 "functional": "B3LYP", 
		 "basiset": "6-31G**", 
		 "properties": { 
			 "R2extent": 1572.1789, 
			 "electric_dipole_moment_norm": 5.57583305615, 
			 "electric_quadrupole_moment_norm": 14.8135437094, 
			 "total_energy": -704.222645804, 
			 "HOMO_LUMO_gap": 0.1914, 
			 "cosmo_polarized_energy": -15.08, 
			 "cosmo_cavitation_energy": 22.38, 
			 "cosmo_dispersion_energy": -16.81, 
			 "cosmo_repulsion_energy": 1.36, 
			 "cosmo_total_nonelectrostatic_energy": 6.93, 
			 "SMD_solvation_energy": 1.45 
		},
		"coords": [
			{
				"x": -1.4273137996,
				"y": -0.0933388623,
				"z": 1.6727256749,
				"element": "C" 
			},
			{
				"x": -0.1495590119,
				"y": 0.4988589047,
				"z": 2.0648685263,
				"element": "N" 
			},
			{
				"x": 1.0112503623,
				"y": 0.4724704264,
				"z": 1.3514383905,
				"element": "C" 
			},
			{
				"x": 2.5089138819,
				"y": 0.5105305599,
				"z": 2.1273595076,
				"element": "S" 
			},
			{
				"x": 0.9340567238,
				"y": 0.4184224763,
				"z": -0.0175689635,
				"element": "N" 
			},
			{
				"x": -0.0966292578,
				"y": 1.0359069634,
				"z": -0.8220570083,
				"element": "C" 
			},
			{
				"x": 0.0328840487,
				"y": 0.8879065072,
				"z": -2.3133561972,
				"element": "C" 
			},
			{
				"x": -1.0895855311,
				"y": 0.1900371262,
				"z": -1.5885269994,
				"element": "C" 
			},
			{
				"x": -1.2861826185,
				"y": -1.0517831576,
				"z": 1.1618908653,
				"element": "H" 
			},
			{
				"x": -2.005856224,
				"y": -0.2690929222,
				"z": 2.5817899079,
				"element": "H" 
			},
			{
				"x": -2.0085886407,
				"y": 0.5635121054,
				"z": 1.0214668052,
				"element": "H" 
			},
			{
				"x": 0.0384923158,
				"y": 0.526271323,
				"z": 3.0567909298,
				"element": "H" 
			},
			{
				"x": 1.8626296414,
				"y": 0.4555556012,
				"z": -0.4187622973,
				"element": "H" 
			},
			{
				"x": -0.4451841002,
				"y": 1.9972133074,
				"z": -0.4475280579,
				"element": "H" 
			},
			{
				"x": 0.8475562004,
				"y": 0.2709284279,
				"z": -2.6824955383,
				"element": "H" 
			},
			{
				"x": -0.1914144827,
				"y": 1.7505664515,
				"z": -2.932193875,
				"element": "H" 
			},
			{
				"x": -2.1010726464,
				"y": 0.5672865457,
				"z": -1.7074598583,
				"element": "H" 
			},
			{
				"x": -1.0126968617,
				"y": -0.8858517841,
				"z": -1.4703818124,
				"element": "H" 
			}
		],
		 "valence_orbital": [ 
			{
				"type": "occ",
				"energy": -0.32048,
				"method": "rhf"
			},
			{
				"type": "occ",
				"energy": -0.31706,
				"method": "rhf"
			},
			{
				"type": "occ",
				"energy": -0.25781,
				"method": "rhf"
			},
			{
				"type": "occ",
				"energy": -0.20857,
				"method": "rhf"
			},
			{
				"type": "occ",
				"energy": -0.19557,
				"method": "rhf"
			},
			{
				"type": "unocc",
				"energy": -0.00417,
				"method": "rhf"
			},
			{
				"type": "unocc",
				"energy": 0.06102,
				"method": "rhf"
			},
			{
				"type": "unocc",
				"energy": 0.07472,
				"method": "rhf"
			},
			{
				"type": "unocc",
				"energy": 0.08771,
				"method": "rhf"
			},
			{
				"type": "unocc",
				"energy": 0.09984,
				"method": "rhf"
			}
		],
		"cosmo_sigma_profile": { 
			"-0.025": 0.0,
			"-0.024": 0.0,
			"-0.023": 0.0,
			"-0.022": 0.0,
			"-0.021": 0.0,
			"-0.02": 0.0,
			"-0.019": 0.0,
			"-0.018": 0.0,
			"-0.017": 0.0,
			"-0.016": 0.0,
			"-0.015": 0.0,
			"-0.014": 0.550659891405,
			"-0.013": 0.888768604249,
			"-0.012": 1.97144626272,
			"-0.011": 1.93876998812,
			"-0.01": 1.03001767973,
			"-0.009": 2.94868691194,
			"-0.008": 2.28589979442,
			"-0.007": 3.35232160563,
			"-0.006": 6.99337681489,
			"-0.005": 15.287393549,
			"-0.004": 18.606827078,
			"-0.003": 19.2275361517,
			"-0.002": 17.3990683627,
			"-0.001": 12.9354996525,
			"0.0": 9.37334041621,
			"0.001": 6.20339246632,
			"0.002": 5.57399079419,
			"0.003": 4.58423243829,
			"0.004": 6.11702447507,
			"0.005": 4.595734435,
			"0.006": 4.32083324388,
			"0.007": 2.75996814891,
			"0.008": 3.7575088445,
			"0.009": 4.14808715391,
			"0.01": 4.1543840199,
			"0.011": 5.924725457,
			"0.012": 8.07376558987,
			"0.013": 3.26001823277,
			"0.014": 0.0733136152348,
			"0.015": 0.0,
			"0.016": 0.0,
			"0.017": 0.0,
			"0.018": 0.0,
			"0.019": 0.0,
			"0.02": 0.0,
			"0.021": 0.0,
			"0.022": 0.0,
			"0.023": 0.0,
			"0.024": 0.0,
			"0.025": 0.0
		}
	}
}
