{
	 "smiles": "CC(C)C1CNC2=C(N1)C=CC=C2", 
	 "Tm": 347.15, 
	 "num_atms": 29, 
	 "gaussian": { 
		 "optdone": 1, 
		 "sigma_profile": "yes", 
		 "theory": "DFT", 
		 "functional": "B3LYP", 
		 "basiset": "6-31G**", 
		 "properties": { 
			 "R2extent": 2711.1249, 
			 "electric_dipole_moment_norm": 2.66094164912, 
			 "electric_quadrupole_moment_norm": 7.79838871114, 
			 "total_energy": -538.324739386, 
			 "HOMO_LUMO_gap": 0.18926, 
			 "cosmo_polarized_energy": -9.23, 
			 "cosmo_cavitation_energy": 29.44, 
			 "cosmo_dispersion_energy": -21.36, 
			 "cosmo_repulsion_energy": 1.67, 
			 "cosmo_total_nonelectrostatic_energy": 9.75, 
			 "SMD_solvation_energy": 2.91 
		},
		"coords": [
			{
				"x": 1.8275198591,
				"y": 0.4721177635,
				"z": -1.3243090451,
				"element": "C" 
			},
			{
				"x": 0.3793274969,
				"y": 0.9648921961,
				"z": -1.1789618764,
				"element": "C" 
			},
			{
				"x": 0.1316312847,
				"y": 2.1503936287,
				"z": -2.1261918872,
				"element": "C" 
			},
			{
				"x": -0.6395268556,
				"y": -0.1838595225,
				"z": -1.4254470766,
				"element": "C" 
			},
			{
				"x": -2.099293035,
				"y": 0.2041531867,
				"z": -1.1033928583,
				"element": "C" 
			},
			{
				"x": -2.3244147684,
				"y": 0.3793184136,
				"z": 0.3253704387,
				"element": "N" 
			},
			{
				"x": -1.6352072906,
				"y": -0.4661575737,
				"z": 1.2156453429,
				"element": "C" 
			},
			{
				"x": -0.6674857311,
				"y": -1.373977508,
				"z": 0.7212636488,
				"element": "C" 
			},
			{
				"x": -0.3891290498,
				"y": -1.4013675231,
				"z": -0.6541312406,
				"element": "N" 
			},
			{
				"x": -0.0298143311,
				"y": -2.2424310192,
				"z": 1.6169268454,
				"element": "C" 
			},
			{
				"x": -0.3135119119,
				"y": -2.2055655233,
				"z": 2.9818177595,
				"element": "C" 
			},
			{
				"x": -1.2451686968,
				"y": -1.2892904978,
				"z": 3.4728661758,
				"element": "C" 
			},
			{
				"x": -1.9052085525,
				"y": -0.4363876454,
				"z": 2.5882996567,
				"element": "C" 
			},
			{
				"x": 2.0717482528,
				"y": -0.3023857528,
				"z": -0.5915354121,
				"element": "H" 
			},
			{
				"x": 2.0087576952,
				"y": 0.0646647266,
				"z": -2.3276120212,
				"element": "H" 
			},
			{
				"x": 2.5335289205,
				"y": 1.2952789955,
				"z": -1.1735952494,
				"element": "H" 
			},
			{
				"x": 0.2446186056,
				"y": 1.3116359034,
				"z": -0.1453778024,
				"element": "H" 
			},
			{
				"x": 0.2008328509,
				"y": 1.8359184981,
				"z": -3.1752789224,
				"element": "H" 
			},
			{
				"x": -0.8515284835,
				"y": 2.6082551164,
				"z": -1.9811643985,
				"element": "H" 
			},
			{
				"x": 0.8799907036,
				"y": 2.9341920927,
				"z": -1.9695231615,
				"element": "H" 
			},
			{
				"x": -0.5854581331,
				"y": -0.4594347891,
				"z": -2.4885335032,
				"element": "H" 
			},
			{
				"x": -2.3936943723,
				"y": 1.1202717117,
				"z": -1.6190041773,
				"element": "H" 
			},
			{
				"x": -2.7441994966,
				"y": -0.6003332249,
				"z": -1.4779675204,
				"element": "H" 
			},
			{
				"x": -2.4019707202,
				"y": 1.3369098072,
				"z": 0.6373161365,
				"element": "H" 
			},
			{
				"x": 0.4673381878,
				"y": -1.8844933086,
				"z": -0.8874301144,
				"element": "H" 
			},
			{
				"x": 0.7087762875,
				"y": -2.9426571075,
				"z": 1.2314679642,
				"element": "H" 
			},
			{
				"x": 0.1985563526,
				"y": -2.885783804,
				"z": 3.6559174477,
				"element": "H" 
			},
			{
				"x": -1.4697674761,
				"y": -1.2459254174,
				"z": 4.5342875237,
				"element": "H" 
			},
			{
				"x": -2.6530475923,
				"y": 0.2634481771,
				"z": 2.9538773269,
				"element": "H" 
			}
		],
		 "valence_orbital": [ 
			{
				"type": "occ",
				"energy": -0.32431,
				"method": "rhf"
			},
			{
				"type": "occ",
				"energy": -0.28033,
				"method": "rhf"
			},
			{
				"type": "occ",
				"energy": -0.27167,
				"method": "rhf"
			},
			{
				"type": "occ",
				"energy": -0.20571,
				"method": "rhf"
			},
			{
				"type": "occ",
				"energy": -0.17224,
				"method": "rhf"
			},
			{
				"type": "unocc",
				"energy": 0.01702,
				"method": "rhf"
			},
			{
				"type": "unocc",
				"energy": 0.03377,
				"method": "rhf"
			},
			{
				"type": "unocc",
				"energy": 0.06681,
				"method": "rhf"
			},
			{
				"type": "unocc",
				"energy": 0.09157,
				"method": "rhf"
			},
			{
				"type": "unocc",
				"energy": 0.11071,
				"method": "rhf"
			}
		],
		"cosmo_sigma_profile": { 
			"-0.025": 0.0,
			"-0.024": 0.0,
			"-0.023": 0.0,
			"-0.022": 0.0,
			"-0.021": 0.0,
			"-0.02": 0.0,
			"-0.019": 0.0,
			"-0.018": 0.0,
			"-0.017": 0.0,
			"-0.016": 0.0,
			"-0.015": 0.0,
			"-0.014": 0.0,
			"-0.013": 0.0,
			"-0.012": 0.639495465867,
			"-0.011": 1.75021723603,
			"-0.01": 2.2595318076,
			"-0.009": 2.65690137588,
			"-0.008": 3.04510074854,
			"-0.007": 3.36198374704,
			"-0.006": 4.77634770494,
			"-0.005": 8.50628108691,
			"-0.004": 13.3920413359,
			"-0.003": 22.5010895736,
			"-0.002": 31.2974958474,
			"-0.001": 23.7040374963,
			"0.0": 20.5751621669,
			"0.001": 24.0280147921,
			"0.002": 12.6800986565,
			"0.003": 6.38152014219,
			"0.004": 6.71367610571,
			"0.005": 7.28280780423,
			"0.006": 8.46207029211,
			"0.007": 9.66939726021,
			"0.008": 7.79258978481,
			"0.009": 3.8649107174,
			"0.01": 0.953999986943,
			"0.011": 1.49802006559,
			"0.012": 0.988056935332,
			"0.013": 0.861387783334,
			"0.014": 0.10808338248,
			"0.015": 0.0,
			"0.016": 0.0,
			"0.017": 0.0,
			"0.018": 0.0,
			"0.019": 0.0,
			"0.02": 0.0,
			"0.021": 0.0,
			"0.022": 0.0,
			"0.023": 0.0,
			"0.024": 0.0,
			"0.025": 0.0
		}
	}
}
