{
	 "smiles": "FC(F)CBr", 
	 "Tm": 198.15, 
	 "num_atms": 8, 
	 "gaussian": { 
		 "optdone": 1, 
		 "sigma_profile": "yes", 
		 "theory": "DFT", 
		 "functional": "B3LYP", 
		 "basiset": "6-31G**", 
		 "properties": { 
			 "R2extent": 853.376, 
			 "electric_dipole_moment_norm": 2.85424286283, 
			 "electric_quadrupole_moment_norm": 2.83879656016, 
			 "total_energy": -2849.09730135, 
			 "HOMO_LUMO_gap": 0.27026, 
			 "cosmo_polarized_energy": -7.04, 
			 "cosmo_cavitation_energy": 14.68, 
			 "cosmo_dispersion_energy": -11.22, 
			 "cosmo_repulsion_energy": 0.97, 
			 "cosmo_total_nonelectrostatic_energy": 4.44, 
			 "SMD_solvation_energy": 2.42 
		},
		"coords": [
			{
				"x": 0.2420889337,
				"y": 0.327994835,
				"z": -1.702531546,
				"element": "F" 
			},
			{
				"x": -0.4567881902,
				"y": -0.3241108672,
				"z": -0.7341485474,
				"element": "C" 
			},
			{
				"x": 0.0204968336,
				"y": -1.5948934877,
				"z": -0.6408994441,
				"element": "F" 
			},
			{
				"x": -0.3374696543,
				"y": 0.3948478325,
				"z": 0.5930141964,
				"element": "C" 
			},
			{
				"x": 1.5220277704,
				"y": 0.5199143487,
				"z": 1.2080218605,
				"element": "Br" 
			},
			{
				"x": -1.5106792988,
				"y": -0.3747686314,
				"z": -1.0459592051,
				"element": "H" 
			},
			{
				"x": -0.7110836483,
				"y": 1.4142067051,
				"z": 0.5036276877,
				"element": "H" 
			},
			{
				"x": -0.8905927461,
				"y": -0.1419907349,
				"z": 1.3627749979,
				"element": "H" 
			}
		],
		 "valence_orbital": [ 
			{
				"type": "occ",
				"energy": -0.39582,
				"method": "rhf"
			},
			{
				"type": "occ",
				"energy": -0.39572,
				"method": "rhf"
			},
			{
				"type": "occ",
				"energy": -0.34958,
				"method": "rhf"
			},
			{
				"type": "occ",
				"energy": -0.28456,
				"method": "rhf"
			},
			{
				"type": "occ",
				"energy": -0.28214,
				"method": "rhf"
			},
			{
				"type": "unocc",
				"energy": -0.01188,
				"method": "rhf"
			},
			{
				"type": "unocc",
				"energy": 0.08595,
				"method": "rhf"
			},
			{
				"type": "unocc",
				"energy": 0.10776,
				"method": "rhf"
			},
			{
				"type": "unocc",
				"energy": 0.13362,
				"method": "rhf"
			},
			{
				"type": "unocc",
				"energy": 0.1582,
				"method": "rhf"
			}
		],
		"cosmo_sigma_profile": { 
			"-0.025": 0.0,
			"-0.024": 0.0,
			"-0.023": 0.0,
			"-0.022": 0.0,
			"-0.021": 0.0,
			"-0.02": 0.0,
			"-0.019": 0.0,
			"-0.018": 0.0,
			"-0.017": 0.0,
			"-0.016": 0.0,
			"-0.015": 0.0,
			"-0.014": 0.0,
			"-0.013": 0.0,
			"-0.012": 0.0,
			"-0.011": 0.132836036454,
			"-0.01": 4.54297101611,
			"-0.009": 9.01019832811,
			"-0.008": 5.85861442615,
			"-0.007": 4.49378102088,
			"-0.006": 4.11495461259,
			"-0.005": 3.34151881195,
			"-0.004": 2.82237372051,
			"-0.003": 3.48224978903,
			"-0.002": 4.6108654674,
			"-0.001": 4.0998750363,
			"0.0": 3.42903719913,
			"0.001": 4.71928056239,
			"0.002": 6.50197706102,
			"0.003": 7.34015825272,
			"0.004": 22.1342123854,
			"0.005": 21.9491845151,
			"0.006": 7.25632895775,
			"0.007": 0.0,
			"0.008": 0.0,
			"0.009": 0.0,
			"0.01": 0.0,
			"0.011": 0.0,
			"0.012": 0.0,
			"0.013": 0.0,
			"0.014": 0.0,
			"0.015": 0.0,
			"0.016": 0.0,
			"0.017": 0.0,
			"0.018": 0.0,
			"0.019": 0.0,
			"0.02": 0.0,
			"0.021": 0.0,
			"0.022": 0.0,
			"0.023": 0.0,
			"0.024": 0.0,
			"0.025": 0.0
		}
	}
}
