{
	 "smiles": "BrCC1=C2N=CC=CC2=CC=C1", 
	 "Tm": 354.65, 
	 "num_atms": 20, 
	 "gaussian": { 
		 "optdone": 1, 
		 "sigma_profile": "yes", 
		 "theory": "DFT", 
		 "functional": "B3LYP", 
		 "basiset": "6-31G**", 
		 "properties": { 
			 "R2extent": 3593.3049, 
			 "electric_dipole_moment_norm": 3.8446431681, 
			 "electric_quadrupole_moment_norm": 11.3328375471, 
			 "total_energy": -3012.05354092, 
			 "HOMO_LUMO_gap": 0.16962, 
			 "cosmo_polarized_energy": -9.0, 
			 "cosmo_cavitation_energy": 26.09, 
			 "cosmo_dispersion_energy": -19.5, 
			 "cosmo_repulsion_energy": 1.55, 
			 "cosmo_total_nonelectrostatic_energy": 8.14, 
			 "SMD_solvation_energy": 2.08 
		},
		"coords": [
			{
				"x": -0.1958439951,
				"y": 3.2920400212,
				"z": -2.29317994,
				"element": "Br" 
			},
			{
				"x": -1.3254686764,
				"y": 1.7812151717,
				"z": -1.6028595439,
				"element": "C" 
			},
			{
				"x": -0.790721339,
				"y": 1.2308889255,
				"z": -0.324036175,
				"element": "C" 
			},
			{
				"x": 0.1136919032,
				"y": 0.1202603463,
				"z": -0.3494922797,
				"element": "C" 
			},
			{
				"x": 0.4507958603,
				"y": -0.4194309159,
				"z": -1.555147796,
				"element": "N" 
			},
			{
				"x": 1.2877037883,
				"y": -1.4371911426,
				"z": -1.5706376532,
				"element": "C" 
			},
			{
				"x": 1.8604847202,
				"y": -2.0121473756,
				"z": -0.4090781197,
				"element": "C" 
			},
			{
				"x": 1.5231159513,
				"y": -1.4895530053,
				"z": 0.8164826424,
				"element": "C" 
			},
			{
				"x": 0.6254736153,
				"y": -0.3930851626,
				"z": 0.8854081389,
				"element": "C" 
			},
			{
				"x": 0.2246605842,
				"y": 0.1988545646,
				"z": 2.1110457893,
				"element": "C" 
			},
			{
				"x": -0.6541579631,
				"y": 1.2583817233,
				"z": 2.1131458196,
				"element": "C" 
			},
			{
				"x": -1.1568069538,
				"y": 1.7705784218,
				"z": 0.8955775622,
				"element": "C" 
			},
			{
				"x": -1.3023123269,
				"y": 1.0478028188,
				"z": -2.4029982271,
				"element": "H" 
			},
			{
				"x": -2.313639961,
				"y": 2.2215506754,
				"z": -1.4874232704,
				"element": "H" 
			},
			{
				"x": 1.5352277034,
				"y": -1.8441538855,
				"z": -2.5504550746,
				"element": "H" 
			},
			{
				"x": 2.5449390325,
				"y": -2.8494238825,
				"z": -0.5001932163,
				"element": "H" 
			},
			{
				"x": 1.9317159461,
				"y": -1.901580336,
				"z": 1.735811216,
				"element": "H" 
			},
			{
				"x": 0.6195649054,
				"y": -0.1979427957,
				"z": 3.0427256133,
				"element": "H" 
			},
			{
				"x": -0.9646581241,
				"y": 1.709625282,
				"z": 3.0506467309,
				"element": "H" 
			},
			{
				"x": -1.8391646709,
				"y": 2.616210551,
				"z": 0.9170577834,
				"element": "H" 
			}
		],
		 "valence_orbital": [ 
			{
				"type": "occ",
				"energy": -0.26764,
				"method": "rhf"
			},
			{
				"type": "occ",
				"energy": -0.26196,
				"method": "rhf"
			},
			{
				"type": "occ",
				"energy": -0.2566,
				"method": "rhf"
			},
			{
				"type": "occ",
				"energy": -0.25615,
				"method": "rhf"
			},
			{
				"type": "occ",
				"energy": -0.23467,
				"method": "rhf"
			},
			{
				"type": "unocc",
				"energy": -0.06505,
				"method": "rhf"
			},
			{
				"type": "unocc",
				"energy": -0.02299,
				"method": "rhf"
			},
			{
				"type": "unocc",
				"energy": -0.01368,
				"method": "rhf"
			},
			{
				"type": "unocc",
				"energy": 0.03979,
				"method": "rhf"
			},
			{
				"type": "unocc",
				"energy": 0.08293,
				"method": "rhf"
			}
		],
		"cosmo_sigma_profile": { 
			"-0.025": 0.0,
			"-0.024": 0.0,
			"-0.023": 0.0,
			"-0.022": 0.0,
			"-0.021": 0.0,
			"-0.02": 0.0,
			"-0.019": 0.0,
			"-0.018": 0.0,
			"-0.017": 0.0,
			"-0.016": 0.0,
			"-0.015": 0.0,
			"-0.014": 0.0,
			"-0.013": 0.0,
			"-0.012": 0.0,
			"-0.011": 0.0,
			"-0.01": 0.0,
			"-0.009": 0.0,
			"-0.008": 1.55667820838,
			"-0.007": 11.9031212705,
			"-0.006": 17.0481472599,
			"-0.005": 15.7976154271,
			"-0.004": 14.2049834748,
			"-0.003": 11.4237107462,
			"-0.002": 10.4265070476,
			"-0.001": 11.2148081416,
			"0.0": 12.5403785361,
			"0.001": 19.0271375599,
			"0.002": 23.7960137453,
			"0.003": 15.8626568082,
			"0.004": 11.8502733018,
			"0.005": 8.82273588844,
			"0.006": 11.7596199043,
			"0.007": 8.98419434696,
			"0.008": 2.66218816794,
			"0.009": 1.51572533008,
			"0.01": 0.928019406405,
			"0.011": 1.04029494169,
			"0.012": 0.482168165704,
			"0.013": 0.0,
			"0.014": 0.0,
			"0.015": 0.0,
			"0.016": 0.0,
			"0.017": 0.0,
			"0.018": 0.0,
			"0.019": 0.0,
			"0.02": 0.0,
			"0.021": 0.0,
			"0.022": 0.0,
			"0.023": 0.0,
			"0.024": 0.0,
			"0.025": 0.0
		}
	}
}
