{
	 "smiles": "CC1=C(NC(=O)OCC(F)(F)F)C=C(C=C1)N1C=NN=N1", 
	 "Tm": 473.15, 
	 "num_atms": 31, 
	 "gaussian": { 
		 "optdone": 1, 
		 "sigma_profile": "yes", 
		 "theory": "DFT", 
		 "functional": "B3LYP", 
		 "basiset": "6-31G**", 
		 "properties": { 
			 "R2extent": 7292.5344, 
			 "electric_dipole_moment_norm": 6.89287266747, 
			 "electric_quadrupole_moment_norm": 23.6704113591, 
			 "total_energy": -1148.89251909, 
			 "HOMO_LUMO_gap": 0.19354, 
			 "cosmo_polarized_energy": -21.83, 
			 "cosmo_cavitation_energy": 38.34, 
			 "cosmo_dispersion_energy": -25.9, 
			 "cosmo_repulsion_energy": 1.9, 
			 "cosmo_total_nonelectrostatic_energy": 14.34, 
			 "SMD_solvation_energy": 7.38 
		},
		"coords": [
			{
				"x": 3.5086181686,
				"y": -0.3450421582,
				"z": 2.6738422461,
				"element": "C" 
			},
			{
				"x": 2.092612859,
				"y": -0.2748982973,
				"z": 2.1545670201,
				"element": "C" 
			},
			{
				"x": 1.822276698,
				"y": -0.0601543967,
				"z": 0.7808832349,
				"element": "C" 
			},
			{
				"x": 2.934618535,
				"y": 0.1191725404,
				"z": -0.068797053,
				"element": "N" 
			},
			{
				"x": 3.095000547,
				"y": 0.0442859433,
				"z": -1.4325508373,
				"element": "C" 
			},
			{
				"x": 4.1506714224,
				"y": 0.2798739888,
				"z": -1.9829423676,
				"element": "O" 
			},
			{
				"x": 1.9582354994,
				"y": -0.3533062331,
				"z": -2.0649476453,
				"element": "O" 
			},
			{
				"x": 1.9739803502,
				"y": -0.2975831152,
				"z": -3.4888026093,
				"element": "C" 
			},
			{
				"x": 1.2397409901,
				"y": 0.9539306545,
				"z": -3.9410011494,
				"element": "C" 
			},
			{
				"x": 1.2005979432,
				"y": 0.9925420021,
				"z": -5.2872896084,
				"element": "F" 
			},
			{
				"x": -0.0257600234,
				"y": 0.9759810367,
				"z": -3.4812898174,
				"element": "F" 
			},
			{
				"x": 1.8533237508,
				"y": 2.0689101449,
				"z": -3.5009947085,
				"element": "F" 
			},
			{
				"x": 0.5014415289,
				"y": 0.0166357764,
				"z": 0.3240798688,
				"element": "C" 
			},
			{
				"x": -0.5444613306,
				"y": -0.1605668624,
				"z": 1.2288895713,
				"element": "C" 
			},
			{
				"x": -0.3079153663,
				"y": -0.3910090333,
				"z": 2.5830625455,
				"element": "C" 
			},
			{
				"x": 1.0121971178,
				"y": -0.4299597588,
				"z": 3.0252177871,
				"element": "C" 
			},
			{
				"x": -1.8820399514,
				"y": -0.0919154032,
				"z": 0.7461179195,
				"element": "N" 
			},
			{
				"x": -3.0143523411,
				"y": 0.3349670984,
				"z": 1.3526240862,
				"element": "C" 
			},
			{
				"x": -4.0226736489,
				"y": 0.2172951159,
				"z": 0.516633428,
				"element": "N" 
			},
			{
				"x": -3.4901660285,
				"y": -0.2935474115,
				"z": -0.6297129779,
				"element": "N" 
			},
			{
				"x": -2.2186964648,
				"y": -0.4834792967,
				"z": -0.5129481137,
				"element": "N" 
			},
			{
				"x": 4.0423489814,
				"y": 0.6080891641,
				"z": 2.5550558567,
				"element": "H" 
			},
			{
				"x": 3.5168430965,
				"y": -0.5816102616,
				"z": 3.7399594072,
				"element": "H" 
			},
			{
				"x": 4.0944920871,
				"y": -1.1161649134,
				"z": 2.1591745702,
				"element": "H" 
			},
			{
				"x": 3.8145978478,
				"y": 0.329670717,
				"z": 0.3784616483,
				"element": "H" 
			},
			{
				"x": 1.4407680475,
				"y": -1.1754030745,
				"z": -3.8566790171,
				"element": "H" 
			},
			{
				"x": 2.9978195053,
				"y": -0.2763040855,
				"z": -3.864529377,
				"element": "H" 
			},
			{
				"x": 0.2763791086,
				"y": 0.2039520919,
				"z": -0.714608061,
				"element": "H" 
			},
			{
				"x": -1.1269259486,
				"y": -0.5619144964,
				"z": 3.2728418973,
				"element": "H" 
			},
			{
				"x": 1.2120442552,
				"y": -0.6084992814,
				"z": 4.0777215218,
				"element": "H" 
			},
			{
				"x": -3.0565172362,
				"y": 0.7292518048,
				"z": 2.3556607338,
				"element": "H" 
			}
		],
		 "valence_orbital": [ 
			{
				"type": "occ",
				"energy": -0.30409,
				"method": "rhf"
			},
			{
				"type": "occ",
				"energy": -0.29844,
				"method": "rhf"
			},
			{
				"type": "occ",
				"energy": -0.28664,
				"method": "rhf"
			},
			{
				"type": "occ",
				"energy": -0.26398,
				"method": "rhf"
			},
			{
				"type": "occ",
				"energy": -0.24369,
				"method": "rhf"
			},
			{
				"type": "unocc",
				"energy": -0.05015,
				"method": "rhf"
			},
			{
				"type": "unocc",
				"energy": -0.03328,
				"method": "rhf"
			},
			{
				"type": "unocc",
				"energy": 0.00276,
				"method": "rhf"
			},
			{
				"type": "unocc",
				"energy": 0.01914,
				"method": "rhf"
			},
			{
				"type": "unocc",
				"energy": 0.03992,
				"method": "rhf"
			}
		],
		"cosmo_sigma_profile": { 
			"-0.025": 0.0,
			"-0.024": 0.0,
			"-0.023": 0.0,
			"-0.022": 0.0,
			"-0.021": 0.0,
			"-0.02": 0.0,
			"-0.019": 0.0,
			"-0.018": 0.0,
			"-0.017": 0.0,
			"-0.016": 0.0,
			"-0.015": 0.0,
			"-0.014": 0.392272378288,
			"-0.013": 1.36312289518,
			"-0.012": 3.34771957921,
			"-0.011": 3.74180576044,
			"-0.01": 4.64656309579,
			"-0.009": 7.18240089544,
			"-0.008": 7.705693224,
			"-0.007": 10.7235341291,
			"-0.006": 13.6720082609,
			"-0.005": 15.222738471,
			"-0.004": 17.4579784496,
			"-0.003": 17.1306037327,
			"-0.002": 20.1225075005,
			"-0.001": 20.1981666989,
			"0.0": 18.759674736,
			"0.001": 19.7013936262,
			"0.002": 38.504196538,
			"0.003": 26.980383013,
			"0.004": 9.19489166247,
			"0.005": 5.64698660689,
			"0.006": 5.15461350806,
			"0.007": 5.36997992575,
			"0.008": 5.49728304977,
			"0.009": 5.90886043722,
			"0.01": 6.89866308286,
			"0.011": 6.5518375434,
			"0.012": 6.46749904967,
			"0.013": 2.51695375952,
			"0.014": 1.53091312173,
			"0.015": 0.372414359348,
			"0.016": 0.0,
			"0.017": 0.0,
			"0.018": 0.0,
			"0.019": 0.0,
			"0.02": 0.0,
			"0.021": 0.0,
			"0.022": 0.0,
			"0.023": 0.0,
			"0.024": 0.0,
			"0.025": 0.0
		}
	}
}
