{
	 "smiles": "CCOC(=O)CC(=O)CN1C(=O)C2=C(C=CC=C2)S1(=O)=O", 
	 "Tm": 378.15, 
	 "num_atms": 34, 
	 "gaussian": { 
		 "optdone": 1, 
		 "sigma_profile": "yes", 
		 "theory": "DFT", 
		 "functional": "B3LYP", 
		 "basiset": "6-31G**", 
		 "properties": { 
			 "R2extent": 8833.1259, 
			 "electric_dipole_moment_norm": 6.44881550674, 
			 "electric_quadrupole_moment_norm": 32.1822936238, 
			 "total_energy": -1407.44237869, 
			 "HOMO_LUMO_gap": 0.17183, 
			 "cosmo_polarized_energy": -21.84, 
			 "cosmo_cavitation_energy": 41.1, 
			 "cosmo_dispersion_energy": -28.35, 
			 "cosmo_repulsion_energy": 2.13, 
			 "cosmo_total_nonelectrostatic_energy": 14.88, 
			 "SMD_solvation_energy": 8.33 
		},
		"coords": [
			{
				"x": -2.6150579403,
				"y": 3.208164317,
				"z": -2.7850363479,
				"element": "C" 
			},
			{
				"x": -3.1989457095,
				"y": 2.577205102,
				"z": -1.5302933334,
				"element": "C" 
			},
			{
				"x": -2.1690845464,
				"y": 1.9072295298,
				"z": -0.7615006136,
				"element": "O" 
			},
			{
				"x": -1.8746951286,
				"y": 0.6452169841,
				"z": -1.1227808293,
				"element": "C" 
			},
			{
				"x": -2.4568785853,
				"y": 0.0110358055,
				"z": -1.9749969605,
				"element": "O" 
			},
			{
				"x": -0.7012236573,
				"y": 0.1199910444,
				"z": -0.3196659314,
				"element": "C" 
			},
			{
				"x": 0.6264351416,
				"y": 0.5719433197,
				"z": -0.9157710188,
				"element": "C" 
			},
			{
				"x": 0.720271999,
				"y": 1.3735443823,
				"z": -1.8190531151,
				"element": "O" 
			},
			{
				"x": 1.9076824222,
				"y": -0.0820156673,
				"z": -0.3722530348,
				"element": "C" 
			},
			{
				"x": 1.8206596668,
				"y": -0.6544270681,
				"z": 0.9635724856,
				"element": "N" 
			},
			{
				"x": 1.7916366599,
				"y": -2.0290379235,
				"z": 1.2035393872,
				"element": "C" 
			},
			{
				"x": 1.679171003,
				"y": -2.8699734382,
				"z": 0.3312213883,
				"element": "O" 
			},
			{
				"x": 1.9206930005,
				"y": -2.2736693266,
				"z": 2.6671264767,
				"element": "C" 
			},
			{
				"x": 2.0843891126,
				"y": -1.1138510508,
				"z": 3.4223814102,
				"element": "C" 
			},
			{
				"x": 2.2235398908,
				"y": -1.1339441733,
				"z": 4.8032394503,
				"element": "C" 
			},
			{
				"x": 2.2014714178,
				"y": -2.3860697161,
				"z": 5.4275237398,
				"element": "C" 
			},
			{
				"x": 2.041092804,
				"y": -3.5613408698,
				"z": 4.682751472,
				"element": "C" 
			},
			{
				"x": 1.8982295786,
				"y": -3.5165554741,
				"z": 3.2938914676,
				"element": "C" 
			},
			{
				"x": 2.0650188,
				"y": 0.3254871854,
				"z": 2.366502953,
				"element": "S" 
			},
			{
				"x": 3.3734427579,
				"y": 0.9713816775,
				"z": 2.2764763103,
				"element": "O" 
			},
			{
				"x": 0.8737026357,
				"y": 1.1433773815,
				"z": 2.5994407992,
				"element": "O" 
			},
			{
				"x": -2.2264572312,
				"y": 2.4387929305,
				"z": -3.4561743066,
				"element": "H" 
			},
			{
				"x": -1.8014428092,
				"y": 3.8933172323,
				"z": -2.5320029541,
				"element": "H" 
			},
			{
				"x": -3.3924250273,
				"y": 3.769686836,
				"z": -3.3141428793,
				"element": "H" 
			},
			{
				"x": -3.5988532487,
				"y": 3.3308201812,
				"z": -0.8478833256,
				"element": "H" 
			},
			{
				"x": -3.9814709872,
				"y": 1.8547473112,
				"z": -1.7744166465,
				"element": "H" 
			},
			{
				"x": -0.7432624142,
				"y": 0.4779310236,
				"z": 0.7154757305,
				"element": "H" 
			},
			{
				"x": -0.7345056722,
				"y": -0.9742430389,
				"z": -0.3081385805,
				"element": "H" 
			},
			{
				"x": 2.1566297634,
				"y": -0.9134882755,
				"z": -1.0423778986,
				"element": "H" 
			},
			{
				"x": 2.7189022088,
				"y": 0.650098425,
				"z": -0.4189615415,
				"element": "H" 
			},
			{
				"x": 2.3466884349,
				"y": -0.220773447,
				"z": 5.3754554808,
				"element": "H" 
			},
			{
				"x": 2.310537658,
				"y": -2.4442583384,
				"z": 6.50591657,
				"element": "H" 
			},
			{
				"x": 2.0273679438,
				"y": -4.5190091204,
				"z": 5.1934643281,
				"element": "H" 
			},
			{
				"x": 1.772340058,
				"y": -4.4153137413,
				"z": 2.6995698676,
				"element": "H" 
			}
		],
		 "valence_orbital": [ 
			{
				"type": "occ",
				"energy": -0.29855,
				"method": "rhf"
			},
			{
				"type": "occ",
				"energy": -0.29734,
				"method": "rhf"
			},
			{
				"type": "occ",
				"energy": -0.29291,
				"method": "rhf"
			},
			{
				"type": "occ",
				"energy": -0.26987,
				"method": "rhf"
			},
			{
				"type": "occ",
				"energy": -0.25915,
				"method": "rhf"
			},
			{
				"type": "unocc",
				"energy": -0.08732,
				"method": "rhf"
			},
			{
				"type": "unocc",
				"energy": -0.06068,
				"method": "rhf"
			},
			{
				"type": "unocc",
				"energy": -0.03126,
				"method": "rhf"
			},
			{
				"type": "unocc",
				"energy": 0.0109,
				"method": "rhf"
			},
			{
				"type": "unocc",
				"energy": 0.01941,
				"method": "rhf"
			}
		],
		"cosmo_sigma_profile": { 
			"-0.025": 0.0,
			"-0.024": 0.0,
			"-0.023": 0.0,
			"-0.022": 0.0,
			"-0.021": 0.0,
			"-0.02": 0.0,
			"-0.019": 0.0,
			"-0.018": 0.0,
			"-0.017": 0.0,
			"-0.016": 0.0,
			"-0.015": 0.0,
			"-0.014": 0.0,
			"-0.013": 0.0,
			"-0.012": 0.0,
			"-0.011": 0.286464317037,
			"-0.01": 1.99256208026,
			"-0.009": 5.57587786812,
			"-0.008": 12.2819016275,
			"-0.007": 18.2554683898,
			"-0.006": 20.041343778,
			"-0.005": 21.0067731049,
			"-0.004": 25.9191859763,
			"-0.003": 23.5522503119,
			"-0.002": 22.836632067,
			"-0.001": 23.1333814528,
			"0.0": 27.6721946113,
			"0.001": 20.4771611362,
			"0.002": 8.71870140425,
			"0.003": 8.08981170623,
			"0.004": 7.37760168094,
			"0.005": 8.37280909775,
			"0.006": 8.92356072238,
			"0.007": 11.3062737967,
			"0.008": 10.6602074058,
			"0.009": 16.3193956939,
			"0.01": 12.8460276159,
			"0.011": 8.67432260056,
			"0.012": 3.39021661749,
			"0.013": 0.362452772131,
			"0.014": 0.0,
			"0.015": 0.0,
			"0.016": 0.0,
			"0.017": 0.0,
			"0.018": 0.0,
			"0.019": 0.0,
			"0.02": 0.0,
			"0.021": 0.0,
			"0.022": 0.0,
			"0.023": 0.0,
			"0.024": 0.0,
			"0.025": 0.0
		}
	}
}
