{
	 "smiles": "ClS(=O)(=O)C1=CC2=C(NC(=O)CC2)C=C1", 
	 "Tm": 479.15, 
	 "num_atms": 23, 
	 "gaussian": { 
		 "optdone": 1, 
		 "sigma_profile": "yes", 
		 "theory": "DFT", 
		 "functional": "B3LYP", 
		 "basiset": "6-31G**", 
		 "properties": { 
			 "R2extent": 6616.6082, 
			 "electric_dipole_moment_norm": 3.62002816149, 
			 "electric_quadrupole_moment_norm": 37.9992507349, 
			 "total_energy": -1486.54528464, 
			 "HOMO_LUMO_gap": 0.16345, 
			 "cosmo_polarized_energy": -17.48, 
			 "cosmo_cavitation_energy": 30.52, 
			 "cosmo_dispersion_energy": -22.99, 
			 "cosmo_repulsion_energy": 1.76, 
			 "cosmo_total_nonelectrostatic_energy": 9.29, 
			 "SMD_solvation_energy": 4.08 
		},
		"coords": [
			{
				"x": 3.7712728525,
				"y": -1.6363930954,
				"z": -3.7468877215,
				"element": "Cl" 
			},
			{
				"x": 2.5104812249,
				"y": 0.0876575547,
				"z": -3.9140289484,
				"element": "S" 
			},
			{
				"x": 3.388703139,
				"y": 1.1864522008,
				"z": -4.2971688789,
				"element": "O" 
			},
			{
				"x": 1.377618959,
				"y": -0.3287561226,
				"z": -4.7320799205,
				"element": "O" 
			},
			{
				"x": 1.9786759003,
				"y": 0.3121830307,
				"z": -2.2349004656,
				"element": "C" 
			},
			{
				"x": 0.8163419672,
				"y": -0.3317169963,
				"z": -1.8000671339,
				"element": "C" 
			},
			{
				"x": 0.3804922261,
				"y": -0.1599298037,
				"z": -0.4918650242,
				"element": "C" 
			},
			{
				"x": 1.1441639367,
				"y": 0.6501962196,
				"z": 0.3779428191,
				"element": "C" 
			},
			{
				"x": 0.7143927192,
				"y": 0.8158414287,
				"z": 1.6938877029,
				"element": "N" 
			},
			{
				"x": -0.208661053,
				"y": 0.0125793475,
				"z": 2.3569637911,
				"element": "C" 
			},
			{
				"x": -0.4843599397,
				"y": 0.214137875,
				"z": 3.5246933413,
				"element": "O" 
			},
			{
				"x": -0.7714118912,
				"y": -1.1245415011,
				"z": 1.5204198427,
				"element": "C" 
			},
			{
				"x": -0.9044804419,
				"y": -0.7539640603,
				"z": 0.036137045,
				"element": "C" 
			},
			{
				"x": 2.3056381883,
				"y": 1.2945012019,
				"z": -0.0748979395,
				"element": "C" 
			},
			{
				"x": 2.7292918234,
				"y": 1.1286959693,
				"z": -1.3872936431,
				"element": "C" 
			},
			{
				"x": 0.2474068204,
				"y": -0.9450253804,
				"z": -2.4911663418,
				"element": "H" 
			},
			{
				"x": 1.1715723514,
				"y": 1.5030498792,
				"z": 2.2806769428,
				"element": "H" 
			},
			{
				"x": -1.727281851,
				"y": -1.4154105764,
				"z": 1.9597731245,
				"element": "H" 
			},
			{
				"x": -0.0868063506,
				"y": -1.9758354939,
				"z": 1.6363254526,
				"element": "H" 
			},
			{
				"x": -1.7119503824,
				"y": -0.0169700882,
				"z": -0.0798146094,
				"element": "H" 
			},
			{
				"x": -1.194470965,
				"y": -1.6288909149,
				"z": -0.5528058678,
				"element": "H" 
			},
			{
				"x": 2.8762016546,
				"y": 1.9200246723,
				"z": 0.6054137231,
				"element": "H" 
			},
			{
				"x": 3.622869112,
				"y": 1.6222146534,
				"z": -1.7517572906,
				"element": "H" 
			}
		],
		 "valence_orbital": [ 
			{
				"type": "occ",
				"energy": -0.32319,
				"method": "rhf"
			},
			{
				"type": "occ",
				"energy": -0.31149,
				"method": "rhf"
			},
			{
				"type": "occ",
				"energy": -0.28921,
				"method": "rhf"
			},
			{
				"type": "occ",
				"energy": -0.278,
				"method": "rhf"
			},
			{
				"type": "occ",
				"energy": -0.25367,
				"method": "rhf"
			},
			{
				"type": "unocc",
				"energy": -0.09022,
				"method": "rhf"
			},
			{
				"type": "unocc",
				"energy": -0.04733,
				"method": "rhf"
			},
			{
				"type": "unocc",
				"energy": -0.04365,
				"method": "rhf"
			},
			{
				"type": "unocc",
				"energy": 0.00283,
				"method": "rhf"
			},
			{
				"type": "unocc",
				"energy": 0.05166,
				"method": "rhf"
			}
		],
		"cosmo_sigma_profile": { 
			"-0.025": 0.0,
			"-0.024": 0.0,
			"-0.023": 0.0,
			"-0.022": 0.0,
			"-0.021": 0.0,
			"-0.02": 0.0,
			"-0.019": 0.0,
			"-0.018": 0.0,
			"-0.017": 0.0,
			"-0.016": 0.395638374406,
			"-0.015": 1.59556659333,
			"-0.014": 1.33562427771,
			"-0.013": 0.754039887819,
			"-0.012": 1.51329829965,
			"-0.011": 1.2627724009,
			"-0.01": 1.54893068319,
			"-0.009": 1.79756231453,
			"-0.008": 5.32483332955,
			"-0.007": 8.75165832366,
			"-0.006": 15.634246236,
			"-0.005": 16.727295743,
			"-0.004": 16.3551692786,
			"-0.003": 16.7643743948,
			"-0.002": 14.5377877937,
			"-0.001": 15.2412934639,
			"0.0": 17.9350460143,
			"0.001": 19.8324236993,
			"0.002": 13.0403041517,
			"0.003": 11.9188302032,
			"0.004": 16.0181555833,
			"0.005": 4.76160916455,
			"0.006": 4.9579504182,
			"0.007": 6.33347675893,
			"0.008": 10.8350908366,
			"0.009": 7.59778242551,
			"0.01": 2.04451626303,
			"0.011": 2.15167597476,
			"0.012": 4.92892907102,
			"0.013": 3.95779197083,
			"0.014": 0.531626934113,
			"0.015": 0.0,
			"0.016": 0.0,
			"0.017": 0.0,
			"0.018": 0.0,
			"0.019": 0.0,
			"0.02": 0.0,
			"0.021": 0.0,
			"0.022": 0.0,
			"0.023": 0.0,
			"0.024": 0.0,
			"0.025": 0.0
		}
	}
}
