{
	 "smiles": "OC(=O)C1=NN(C=C1Br)C1=C(F)C=CC=C1", 
	 "Tm": 509.15, 
	 "num_atms": 22, 
	 "gaussian": { 
		 "optdone": 1, 
		 "sigma_profile": "yes", 
		 "theory": "DFT", 
		 "functional": "B3LYP", 
		 "basiset": "6-31G**", 
		 "properties": { 
			 "R2extent": 8532.2521, 
			 "electric_dipole_moment_norm": 7.47022493771, 
			 "electric_quadrupole_moment_norm": 31.1795049848, 
			 "total_energy": -3315.84819368, 
			 "HOMO_LUMO_gap": 0.17934, 
			 "cosmo_polarized_energy": -13.63, 
			 "cosmo_cavitation_energy": 30.21, 
			 "cosmo_dispersion_energy": -22.63, 
			 "cosmo_repulsion_energy": 1.72, 
			 "cosmo_total_nonelectrostatic_energy": 9.3, 
			 "SMD_solvation_energy": 5.53 
		},
		"coords": [
			{
				"x": -4.2634188114,
				"y": -1.2739733021,
				"z": 2.8139160825,
				"element": "O" 
			},
			{
				"x": -4.7202097918,
				"y": -1.0863781913,
				"z": 1.5556951872,
				"element": "C" 
			},
			{
				"x": -5.8709877561,
				"y": -1.2868834545,
				"z": 1.251999553,
				"element": "O" 
			},
			{
				"x": -3.6824804928,
				"y": -0.6141541782,
				"z": 0.5973298742,
				"element": "C" 
			},
			{
				"x": -2.435656834,
				"y": -0.4206672669,
				"z": 1.0319964938,
				"element": "N" 
			},
			{
				"x": -1.7255625808,
				"y": -0.0004191477,
				"z": -0.0361533088,
				"element": "N" 
			},
			{
				"x": -2.5130611592,
				"y": 0.0772027971,
				"z": -1.1583002368,
				"element": "C" 
			},
			{
				"x": -3.77881111,
				"y": -0.311950054,
				"z": -0.7818324465,
				"element": "C" 
			},
			{
				"x": -5.269693792,
				"y": -0.4000947893,
				"z": -1.9125969002,
				"element": "Br" 
			},
			{
				"x": -0.3415511795,
				"y": 0.2900615099,
				"z": 0.1222664983,
				"element": "C" 
			},
			{
				"x": 0.4627051387,
				"y": 0.7330205428,
				"z": -0.9355849855,
				"element": "C" 
			},
			{
				"x": -0.0623144199,
				"y": 0.9036398725,
				"z": -2.1719222526,
				"element": "F" 
			},
			{
				"x": 1.8117083483,
				"y": 1.0117846654,
				"z": -0.7637708363,
				"element": "C" 
			},
			{
				"x": 2.3936422183,
				"y": 0.850397424,
				"z": 0.4913419465,
				"element": "C" 
			},
			{
				"x": 1.6109818773,
				"y": 0.4099338192,
				"z": 1.560645061,
				"element": "C" 
			},
			{
				"x": 0.2595956261,
				"y": 0.1329088199,
				"z": 1.379009272,
				"element": "C" 
			},
			{
				"x": -3.315841278,
				"y": -1.053630361,
				"z": 2.8322843095,
				"element": "H" 
			},
			{
				"x": -2.1312813771,
				"y": 0.3923659541,
				"z": -2.1117103554,
				"element": "H" 
			},
			{
				"x": 2.3786280506,
				"y": 1.3512870476,
				"z": -1.6236406401,
				"element": "H" 
			},
			{
				"x": 3.4476776151,
				"y": 1.0671747983,
				"z": 0.6297968019,
				"element": "H" 
			},
			{
				"x": 2.0511807103,
				"y": 0.2797960281,
				"z": 2.5437696743,
				"element": "H" 
			},
			{
				"x": -0.354049002,
				"y": -0.208822534,
				"z": 2.201761208,
				"element": "H" 
			}
		],
		 "valence_orbital": [ 
			{
				"type": "occ",
				"energy": -0.29866,
				"method": "rhf"
			},
			{
				"type": "occ",
				"energy": -0.27981,
				"method": "rhf"
			},
			{
				"type": "occ",
				"energy": -0.26935,
				"method": "rhf"
			},
			{
				"type": "occ",
				"energy": -0.26764,
				"method": "rhf"
			},
			{
				"type": "occ",
				"energy": -0.24563,
				"method": "rhf"
			},
			{
				"type": "unocc",
				"energy": -0.06629,
				"method": "rhf"
			},
			{
				"type": "unocc",
				"energy": -0.02911,
				"method": "rhf"
			},
			{
				"type": "unocc",
				"energy": -0.02037,
				"method": "rhf"
			},
			{
				"type": "unocc",
				"energy": 0.00719,
				"method": "rhf"
			},
			{
				"type": "unocc",
				"energy": 0.01416,
				"method": "rhf"
			}
		],
		"cosmo_sigma_profile": { 
			"-0.025": 0.0,
			"-0.024": 0.0,
			"-0.023": 0.0,
			"-0.022": 0.0,
			"-0.021": 0.0,
			"-0.02": 0.0,
			"-0.019": 0.0,
			"-0.018": 0.0,
			"-0.017": 0.0,
			"-0.016": 0.0,
			"-0.015": 0.256261643634,
			"-0.014": 0.351103477212,
			"-0.013": 0.952458900423,
			"-0.012": 0.936807422166,
			"-0.011": 0.300722678177,
			"-0.01": 0.725988870002,
			"-0.009": 1.32983133449,
			"-0.008": 4.31582008166,
			"-0.007": 8.72760379016,
			"-0.006": 11.5297789685,
			"-0.005": 15.0638896931,
			"-0.004": 15.7052005499,
			"-0.003": 15.395564248,
			"-0.002": 19.2119355909,
			"-0.001": 21.8693760265,
			"0.0": 23.4623916088,
			"0.001": 21.2546143682,
			"0.002": 20.6015755761,
			"0.003": 23.3579479584,
			"0.004": 9.56787477544,
			"0.005": 3.33232863309,
			"0.006": 3.11741831222,
			"0.007": 3.31870631118,
			"0.008": 2.9026728865,
			"0.009": 4.40913526152,
			"0.01": 6.0481824001,
			"0.011": 5.81183603822,
			"0.012": 3.44939463949,
			"0.013": 0.579119947901,
			"0.014": 0.0,
			"0.015": 0.0,
			"0.016": 0.0,
			"0.017": 0.0,
			"0.018": 0.0,
			"0.019": 0.0,
			"0.02": 0.0,
			"0.021": 0.0,
			"0.022": 0.0,
			"0.023": 0.0,
			"0.024": 0.0,
			"0.025": 0.0
		}
	}
}
