{
	 "smiles": "CC(=O)OC[C@@H](OC(C)=O)[C@@H](OC(C)=O)[C@H](OC(C)=O)[C@@H](OC(C)=O)C(O)=O", 
	 "Tm": 383.15, 
	 "num_atms": 50, 
	 "gaussian": { 
		 "optdone": 1, 
		 "sigma_profile": "yes", 
		 "theory": "DFT", 
		 "functional": "B3LYP", 
		 "basiset": "6-31G**", 
		 "properties": { 
			 "R2extent": 10098.897, 
			 "electric_dipole_moment_norm": 5.39390677802, 
			 "electric_quadrupole_moment_norm": 18.186520902, 
			 "total_energy": -1525.71411637, 
			 "HOMO_LUMO_gap": 0.26667, 
			 "cosmo_polarized_energy": -29.03, 
			 "cosmo_cavitation_energy": 53.96, 
			 "cosmo_dispersion_energy": -32.52, 
			 "cosmo_repulsion_energy": 2.51, 
			 "cosmo_total_nonelectrostatic_energy": 23.95, 
			 "SMD_solvation_energy": 14.65 
		},
		"coords": [
			{
				"x": -0.1468121611,
				"y": 5.7510979536,
				"z": -1.617764024,
				"element": "C" 
			},
			{
				"x": 0.5689885011,
				"y": 4.4477315171,
				"z": -1.3761188891,
				"element": "C" 
			},
			{
				"x": 1.1726034603,
				"y": 4.1532465393,
				"z": -0.366902802,
				"element": "O" 
			},
			{
				"x": 0.4155385411,
				"y": 3.6106556507,
				"z": -2.4349161042,
				"element": "O" 
			},
			{
				"x": 0.9761862902,
				"y": 2.2840858337,
				"z": -2.327160074,
				"element": "C" 
			},
			{
				"x": -0.1293061964,
				"y": 1.3313127555,
				"z": -1.8243254329,
				"element": "C" 
			},
			{
				"x": -0.1436068776,
				"y": 0.0431225726,
				"z": -2.4826855542,
				"element": "O" 
			},
			{
				"x": 1.0048787553,
				"y": -0.6450898668,
				"z": -2.6556076084,
				"element": "C" 
			},
			{
				"x": 0.7341074066,
				"y": -1.9379887419,
				"z": -3.3874380089,
				"element": "C" 
			},
			{
				"x": 2.0957093273,
				"y": -0.2639063046,
				"z": -2.2868042584,
				"element": "O" 
			},
			{
				"x": -0.2391689915,
				"y": 1.2617735563,
				"z": -0.2868615244,
				"element": "C" 
			},
			{
				"x": -1.5459491704,
				"y": 0.7742855591,
				"z": 0.0952683879,
				"element": "O" 
			},
			{
				"x": -2.5446878912,
				"y": 1.6992334361,
				"z": 0.1172085022,
				"element": "C" 
			},
			{
				"x": -3.8202806646,
				"y": 1.1077184525,
				"z": 0.6555412507,
				"element": "C" 
			},
			{
				"x": -2.3959057509,
				"y": 2.8495968539,
				"z": -0.2370717536,
				"element": "O" 
			},
			{
				"x": 0.7969692337,
				"y": 0.4647386051,
				"z": 0.5039333479,
				"element": "C" 
			},
			{
				"x": 0.6159240066,
				"y": -0.9331514873,
				"z": 0.2125012118,
				"element": "O" 
			},
			{
				"x": 1.5768935389,
				"y": -1.7734784896,
				"z": 0.6715553583,
				"element": "C" 
			},
			{
				"x": 1.3183043163,
				"y": -3.1924061548,
				"z": 0.2291326454,
				"element": "C" 
			},
			{
				"x": 2.5219860412,
				"y": -1.4122855864,
				"z": 1.3352139888,
				"element": "O" 
			},
			{
				"x": 0.6704630347,
				"y": 0.7451827446,
				"z": 2.0333537438,
				"element": "C" 
			},
			{
				"x": -0.0243363643,
				"y": -0.3152266923,
				"z": 2.6898424104,
				"element": "O" 
			},
			{
				"x": -1.2013876213,
				"y": -0.027821861,
				"z": 3.300476634,
				"element": "C" 
			},
			{
				"x": -1.7575521997,
				"y": -1.2622244029,
				"z": 3.9629959961,
				"element": "C" 
			},
			{
				"x": -1.7175610424,
				"y": 1.0685769552,
				"z": 3.3034147147,
				"element": "O" 
			},
			{
				"x": 2.0370740711,
				"y": 0.9782005674,
				"z": 2.6721784531,
				"element": "C" 
			},
			{
				"x": 2.1361008988,
				"y": 0.4647163863,
				"z": 3.9114978041,
				"element": "O" 
			},
			{
				"x": 2.8983612971,
				"y": 1.6407567916,
				"z": 2.1424828328,
				"element": "O" 
			},
			{
				"x": -1.2102609995,
				"y": 5.5976340099,
				"z": -1.4045198655,
				"element": "H" 
			},
			{
				"x": -0.0516233169,
				"y": 6.069546336,
				"z": -2.6577796138,
				"element": "H" 
			},
			{
				"x": 0.2442825975,
				"y": 6.5108200344,
				"z": -0.9411906051,
				"element": "H" 
			},
			{
				"x": 1.8588135033,
				"y": 2.3037510027,
				"z": -1.6902282802,
				"element": "H" 
			},
			{
				"x": 1.2644190975,
				"y": 2.0114459987,
				"z": -3.3419981222,
				"element": "H" 
			},
			{
				"x": -1.0671254228,
				"y": 1.7765918712,
				"z": -2.1606594132,
				"element": "H" 
			},
			{
				"x": 0.2495773316,
				"y": -1.7320887144,
				"z": -4.3461626026,
				"element": "H" 
			},
			{
				"x": 0.0475442739,
				"y": -2.5571608174,
				"z": -2.8030492703,
				"element": "H" 
			},
			{
				"x": 1.6724088237,
				"y": -2.4672681205,
				"z": -3.5515102971,
				"element": "H" 
			},
			{
				"x": -0.1474698365,
				"y": 2.298213482,
				"z": 0.0459384131,
				"element": "H" 
			},
			{
				"x": -3.9589003898,
				"y": 0.0845296356,
				"z": 0.299327697,
				"element": "H" 
			},
			{
				"x": -3.7461019445,
				"y": 1.0834718785,
				"z": 1.7475756578,
				"element": "H" 
			},
			{
				"x": -4.6628125369,
				"y": 1.7351029188,
				"z": 0.3648263384,
				"element": "H" 
			},
			{
				"x": 1.7979022493,
				"y": 0.7747578443,
				"z": 0.1949116227,
				"element": "H" 
			},
			{
				"x": 0.2484967237,
				"y": -3.4066476098,
				"z": 0.1890142713,
				"element": "H" 
			},
			{
				"x": 1.7353070316,
				"y": -3.3321329912,
				"z": -0.773622128,
				"element": "H" 
			},
			{
				"x": 1.8229490753,
				"y": -3.8776045774,
				"z": 0.9105417441,
				"element": "H" 
			},
			{
				"x": 0.106312364,
				"y": 1.6720565076,
				"z": 2.1819129778,
				"element": "H" 
			},
			{
				"x": -2.6858373983,
				"y": -1.0143108851,
				"z": 4.4764414693,
				"element": "H" 
			},
			{
				"x": -1.9401367377,
				"y": -2.035848975,
				"z": 3.2112177081,
				"element": "H" 
			},
			{
				"x": -1.0283170925,
				"y": -1.6615604457,
				"z": 4.673375343,
				"element": "H" 
			},
			{
				"x": 3.0259388149,
				"y": 0.7016484736,
				"z": 4.2228957074,
				"element": "H" 
			}
		],
		 "valence_orbital": [ 
			{
				"type": "occ",
				"energy": -0.28073,
				"method": "rhf"
			},
			{
				"type": "occ",
				"energy": -0.27814,
				"method": "rhf"
			},
			{
				"type": "occ",
				"energy": -0.27545,
				"method": "rhf"
			},
			{
				"type": "occ",
				"energy": -0.27089,
				"method": "rhf"
			},
			{
				"type": "occ",
				"energy": -0.26811,
				"method": "rhf"
			},
			{
				"type": "unocc",
				"energy": -0.00144,
				"method": "rhf"
			},
			{
				"type": "unocc",
				"energy": -2e-05,
				"method": "rhf"
			},
			{
				"type": "unocc",
				"energy": 0.00606,
				"method": "rhf"
			},
			{
				"type": "unocc",
				"energy": 0.00865,
				"method": "rhf"
			},
			{
				"type": "unocc",
				"energy": 0.01252,
				"method": "rhf"
			}
		],
		"cosmo_sigma_profile": { 
			"-0.025": 0.0,
			"-0.024": 0.0,
			"-0.023": 0.0,
			"-0.022": 0.0,
			"-0.021": 0.0,
			"-0.02": 0.0,
			"-0.019": 0.469384876405,
			"-0.018": 0.925558428716,
			"-0.017": 1.00091553502,
			"-0.016": 1.12450635319,
			"-0.015": 0.444389593519,
			"-0.014": 0.419644290498,
			"-0.013": 0.538404345345,
			"-0.012": 1.09037018028,
			"-0.011": 0.919421371599,
			"-0.01": 0.513930279398,
			"-0.009": 1.59293190424,
			"-0.008": 3.67911429752,
			"-0.007": 10.2832256752,
			"-0.006": 28.7956515933,
			"-0.005": 35.3003433281,
			"-0.004": 40.8985119421,
			"-0.003": 43.8876290733,
			"-0.002": 45.9172572933,
			"-0.001": 27.7320966733,
			"0.0": 15.8914811816,
			"0.001": 16.0157294389,
			"0.002": 17.7199561114,
			"0.003": 15.6146612766,
			"0.004": 12.9934160443,
			"0.005": 13.0454529355,
			"0.006": 12.463764858,
			"0.007": 13.2957166175,
			"0.008": 13.8186698621,
			"0.009": 13.9112730552,
			"0.01": 12.269030995,
			"0.011": 14.5113447528,
			"0.012": 7.00471994516,
			"0.013": 0.645506317432,
			"0.014": 0.0,
			"0.015": 0.0,
			"0.016": 0.0,
			"0.017": 0.0,
			"0.018": 0.0,
			"0.019": 0.0,
			"0.02": 0.0,
			"0.021": 0.0,
			"0.022": 0.0,
			"0.023": 0.0,
			"0.024": 0.0,
			"0.025": 0.0
		}
	}
}
