{
	 "smiles": "COC1=C(OC)C=C2C(=O)N(CCCC(O)=O)C=NC2=C1", 
	 "Tm": 472.15, 
	 "num_atms": 37, 
	 "gaussian": { 
		 "optdone": 1, 
		 "sigma_profile": "yes", 
		 "theory": "DFT", 
		 "functional": "B3LYP", 
		 "basiset": "6-31G**", 
		 "properties": { 
			 "R2extent": 7052.0356, 
			 "electric_dipole_moment_norm": 2.67780650907, 
			 "electric_quadrupole_moment_norm": 18.3582430575, 
			 "total_energy": -1028.77078716, 
			 "HOMO_LUMO_gap": 0.17496, 
			 "cosmo_polarized_energy": -21.3, 
			 "cosmo_cavitation_energy": 40.65, 
			 "cosmo_dispersion_energy": -27.98, 
			 "cosmo_repulsion_energy": 2.14, 
			 "cosmo_total_nonelectrostatic_energy": 14.82, 
			 "SMD_solvation_energy": 8.08 
		},
		"coords": [
			{
				"x": 2.9864659135,
				"y": -1.8442249736,
				"z": 3.6701378027,
				"element": "C" 
			},
			{
				"x": 1.9185016024,
				"y": -0.8949996368,
				"z": 3.7576731109,
				"element": "O" 
			},
			{
				"x": 1.1578673947,
				"y": -0.7205654092,
				"z": 2.6342979474,
				"element": "C" 
			},
			{
				"x": 0.3168773836,
				"y": -1.7636064399,
				"z": 2.1381171957,
				"element": "C" 
			},
			{
				"x": 0.3586098117,
				"y": -2.9377582343,
				"z": 2.8292562966,
				"element": "O" 
			},
			{
				"x": -0.5004983183,
				"y": -3.9878833,
				"z": 2.4055588613,
				"element": "C" 
			},
			{
				"x": -0.4807636354,
				"y": -1.5250091384,
				"z": 1.0296594684,
				"element": "C" 
			},
			{
				"x": -0.4708854856,
				"y": -0.2625954074,
				"z": 0.4088841715,
				"element": "C" 
			},
			{
				"x": -1.3299625122,
				"y": -0.0236034334,
				"z": -0.7493045358,
				"element": "C" 
			},
			{
				"x": -2.1031951402,
				"y": -0.8387600824,
				"z": -1.2475094455,
				"element": "O" 
			},
			{
				"x": -1.2136624717,
				"y": 1.2764578811,
				"z": -1.2831047726,
				"element": "N" 
			},
			{
				"x": -2.0784974305,
				"y": 1.6137776686,
				"z": -2.4252888028,
				"element": "C" 
			},
			{
				"x": -1.6423773829,
				"y": 0.9915445392,
				"z": -3.7600443638,
				"element": "C" 
			},
			{
				"x": -0.3774733073,
				"y": 1.600849021,
				"z": -4.3911803389,
				"element": "C" 
			},
			{
				"x": 0.9076151755,
				"y": 1.3569808988,
				"z": -3.628019488,
				"element": "C" 
			},
			{
				"x": 1.1348776986,
				"y": 0.0362580101,
				"z": -3.425891813,
				"element": "O" 
			},
			{
				"x": 1.6716774843,
				"y": 2.2162718286,
				"z": -3.2459088355,
				"element": "O" 
			},
			{
				"x": -0.3880165666,
				"y": 2.221388278,
				"z": -0.7060740676,
				"element": "C" 
			},
			{
				"x": 0.3638910523,
				"y": 2.0393323904,
				"z": 0.3257284685,
				"element": "N" 
			},
			{
				"x": 0.3402962903,
				"y": 0.7787996059,
				"z": 0.9043993241,
				"element": "C" 
			},
			{
				"x": 1.1571929848,
				"y": 0.5206763523,
				"z": 2.0231352931,
				"element": "C" 
			},
			{
				"x": 2.6138058478,
				"y": -2.8553544601,
				"z": 3.4875938919,
				"element": "H" 
			},
			{
				"x": 3.4970575522,
				"y": -1.8096353819,
				"z": 4.6343036286,
				"element": "H" 
			},
			{
				"x": 3.6921191253,
				"y": -1.5613102285,
				"z": 2.878582945,
				"element": "H" 
			},
			{
				"x": -0.2666735693,
				"y": -4.3131760436,
				"z": 1.3841284016,
				"element": "H" 
			},
			{
				"x": -0.3283792747,
				"y": -4.8135034676,
				"z": 3.0973112268,
				"element": "H" 
			},
			{
				"x": -1.5537854878,
				"y": -3.6858093372,
				"z": 2.4530127707,
				"element": "H" 
			},
			{
				"x": -1.1368071461,
				"y": -2.2807818106,
				"z": 0.6164990281,
				"element": "H" 
			},
			{
				"x": -3.080820117,
				"y": 1.2528183235,
				"z": -2.1824429939,
				"element": "H" 
			},
			{
				"x": -2.1132352801,
				"y": 2.7053920426,
				"z": -2.4978966793,
				"element": "H" 
			},
			{
				"x": -2.4709385996,
				"y": 1.1328741544,
				"z": -4.4640301246,
				"element": "H" 
			},
			{
				"x": -1.5229274807,
				"y": -0.0855271416,
				"z": -3.6242049113,
				"element": "H" 
			},
			{
				"x": -0.4740403643,
				"y": 2.6831068328,
				"z": -4.5137722317,
				"element": "H" 
			},
			{
				"x": -0.2447095211,
				"y": 1.1648006852,
				"z": -5.3889143862,
				"element": "H" 
			},
			{
				"x": 1.9680637179,
				"y": -0.0221340905,
				"z": -2.9284693962,
				"element": "H" 
			},
			{
				"x": -0.3918709804,
				"y": 3.1920241041,
				"z": -1.1964757376,
				"element": "H" 
			},
			{
				"x": 1.7887010367,
				"y": 1.3087854005,
				"z": 2.4169530914,
				"element": "H" 
			}
		],
		 "valence_orbital": [ 
			{
				"type": "occ",
				"energy": -0.26911,
				"method": "rhf"
			},
			{
				"type": "occ",
				"energy": -0.26783,
				"method": "rhf"
			},
			{
				"type": "occ",
				"energy": -0.25981,
				"method": "rhf"
			},
			{
				"type": "occ",
				"energy": -0.24141,
				"method": "rhf"
			},
			{
				"type": "occ",
				"energy": -0.21165,
				"method": "rhf"
			},
			{
				"type": "unocc",
				"energy": -0.03669,
				"method": "rhf"
			},
			{
				"type": "unocc",
				"energy": -0.02527,
				"method": "rhf"
			},
			{
				"type": "unocc",
				"energy": 0.00486,
				"method": "rhf"
			},
			{
				"type": "unocc",
				"energy": 0.03366,
				"method": "rhf"
			},
			{
				"type": "unocc",
				"energy": 0.07113,
				"method": "rhf"
			}
		],
		"cosmo_sigma_profile": { 
			"-0.025": 0.0,
			"-0.024": 0.0,
			"-0.023": 0.0,
			"-0.022": 0.0,
			"-0.021": 0.0,
			"-0.02": 0.0,
			"-0.019": 0.0,
			"-0.018": 0.452755886787,
			"-0.017": 1.03033904262,
			"-0.016": 0.879076084724,
			"-0.015": 0.724369206171,
			"-0.014": 0.624270817732,
			"-0.013": 0.573580397882,
			"-0.012": 0.483444502975,
			"-0.011": 0.747140886624,
			"-0.01": 2.15968479255,
			"-0.009": 3.02839760266,
			"-0.008": 3.35020263854,
			"-0.007": 6.89741794992,
			"-0.006": 19.9462611179,
			"-0.005": 27.7419758788,
			"-0.004": 32.7344175868,
			"-0.003": 32.7522984601,
			"-0.002": 22.9893296189,
			"-0.001": 16.2335295353,
			"0.0": 13.6157047498,
			"0.001": 18.8739427672,
			"0.002": 21.9631989437,
			"0.003": 17.60277905,
			"0.004": 9.12171119644,
			"0.005": 7.38802577225,
			"0.006": 8.67517536875,
			"0.007": 6.91253676296,
			"0.008": 7.25971176531,
			"0.009": 7.37453076428,
			"0.01": 7.24505390127,
			"0.011": 7.34735074892,
			"0.012": 7.1040613449,
			"0.013": 6.03799719351,
			"0.014": 0.84586122509,
			"0.015": 0.70460250828,
			"0.016": 0.208859204388,
			"0.017": 0.0,
			"0.018": 0.0,
			"0.019": 0.0,
			"0.02": 0.0,
			"0.021": 0.0,
			"0.022": 0.0,
			"0.023": 0.0,
			"0.024": 0.0,
			"0.025": 0.0
		}
	}
}
