{
	 "smiles": "OC(=O)C1=C(F)C=C(C=C1)C#N", 
	 "Tm": 489.15, 
	 "num_atms": 16, 
	 "gaussian": { 
		 "optdone": 1, 
		 "sigma_profile": "yes", 
		 "theory": "DFT", 
		 "functional": "B3LYP", 
		 "basiset": "6-31G**", 
		 "properties": { 
			 "R2extent": 2470.5768, 
			 "electric_dipole_moment_norm": 3.11744469718, 
			 "electric_quadrupole_moment_norm": 29.5553502368, 
			 "total_energy": -612.275166175, 
			 "HOMO_LUMO_gap": 0.19047, 
			 "cosmo_polarized_energy": -19.25, 
			 "cosmo_cavitation_energy": 23.28, 
			 "cosmo_dispersion_energy": -16.25, 
			 "cosmo_repulsion_energy": 1.28, 
			 "cosmo_total_nonelectrostatic_energy": 8.31, 
			 "SMD_solvation_energy": 7.11 
		},
		"coords": [
			{
				"x": 1.4397363803,
				"y": 1.5147274821,
				"z": -2.5555348086,
				"element": "O" 
			},
			{
				"x": 0.1670701829,
				"y": 1.0381879476,
				"z": -2.4950067255,
				"element": "C" 
			},
			{
				"x": -0.500926579,
				"y": 0.9368047667,
				"z": -3.4909282303,
				"element": "O" 
			},
			{
				"x": -0.3284303136,
				"y": 0.7023567556,
				"z": -1.1154652602,
				"element": "C" 
			},
			{
				"x": -1.1911007634,
				"y": -0.383480117,
				"z": -0.9099144473,
				"element": "C" 
			},
			{
				"x": -1.5133192252,
				"y": -1.1804273478,
				"z": -1.93257668,
				"element": "F" 
			},
			{
				"x": -1.7046158065,
				"y": -0.6882993955,
				"z": 0.3430232544,
				"element": "C" 
			},
			{
				"x": -1.3668458207,
				"y": 0.1266464383,
				"z": 1.4338551639,
				"element": "C" 
			},
			{
				"x": -0.5155953787,
				"y": 1.2297346323,
				"z": 1.2568135579,
				"element": "C" 
			},
			{
				"x": -0.0043429498,
				"y": 1.5010431179,
				"z": -0.0075326312,
				"element": "C" 
			},
			{
				"x": -1.8943054046,
				"y": -0.1711143955,
				"z": 2.734421652,
				"element": "C" 
			},
			{
				"x": -2.3172400446,
				"y": -0.4093175004,
				"z": 3.7909479387,
				"element": "N" 
			},
			{
				"x": 1.8904668382,
				"y": 1.384002437,
				"z": -1.7092277778,
				"element": "H" 
			},
			{
				"x": -2.3554409011,
				"y": -1.5467586695,
				"z": 0.4592758511,
				"element": "H" 
			},
			{
				"x": -0.2681611198,
				"y": 1.8620951288,
				"z": 2.1016156879,
				"element": "H" 
			},
			{
				"x": 0.6311509056,
				"y": 2.3708987194,
				"z": -0.1464665451,
				"element": "H" 
			}
		],
		 "valence_orbital": [ 
			{
				"type": "occ",
				"energy": -0.3526,
				"method": "rhf"
			},
			{
				"type": "occ",
				"energy": -0.33501,
				"method": "rhf"
			},
			{
				"type": "occ",
				"energy": -0.30164,
				"method": "rhf"
			},
			{
				"type": "occ",
				"energy": -0.29445,
				"method": "rhf"
			},
			{
				"type": "occ",
				"energy": -0.28279,
				"method": "rhf"
			},
			{
				"type": "unocc",
				"energy": -0.09232,
				"method": "rhf"
			},
			{
				"type": "unocc",
				"energy": -0.04879,
				"method": "rhf"
			},
			{
				"type": "unocc",
				"energy": -0.00255,
				"method": "rhf"
			},
			{
				"type": "unocc",
				"energy": 0.01552,
				"method": "rhf"
			},
			{
				"type": "unocc",
				"energy": 0.04728,
				"method": "rhf"
			}
		],
		"cosmo_sigma_profile": { 
			"-0.025": 0.0,
			"-0.024": 0.0,
			"-0.023": 0.0,
			"-0.022": 0.0,
			"-0.021": 0.0,
			"-0.02": 0.0060877417553,
			"-0.019": 0.668628936888,
			"-0.018": 0.956179420986,
			"-0.017": 1.0155187343,
			"-0.016": 1.03707437558,
			"-0.015": 1.00017747726,
			"-0.014": 1.0161882416,
			"-0.013": 1.39783444564,
			"-0.012": 1.22067610627,
			"-0.011": 1.51411102582,
			"-0.01": 3.00377364885,
			"-0.009": 7.04028744739,
			"-0.008": 7.79030891389,
			"-0.007": 6.69179979686,
			"-0.006": 6.15032401996,
			"-0.005": 6.89321292249,
			"-0.004": 7.54008414544,
			"-0.003": 11.7372127003,
			"-0.002": 17.3013989482,
			"-0.001": 15.3043900777,
			"0.0": 9.10056531162,
			"0.001": 5.80616698014,
			"0.002": 6.21358303257,
			"0.003": 10.2576105797,
			"0.004": 5.37936002482,
			"0.005": 5.60285560726,
			"0.006": 5.35014239782,
			"0.007": 6.50957420847,
			"0.008": 6.65457011764,
			"0.009": 7.86721166336,
			"0.01": 8.53509183751,
			"0.011": 8.24079044225,
			"0.012": 3.89854889535,
			"0.013": 0.312159666355,
			"0.014": 0.0,
			"0.015": 0.0,
			"0.016": 0.0,
			"0.017": 0.0,
			"0.018": 0.0,
			"0.019": 0.0,
			"0.02": 0.0,
			"0.021": 0.0,
			"0.022": 0.0,
			"0.023": 0.0,
			"0.024": 0.0,
			"0.025": 0.0
		}
	}
}
