{
	 "smiles": "CCOC1OC(=CC(C)C1Br)C(N)=O", 
	 "Tm": 404.15, 
	 "num_atms": 28, 
	 "gaussian": { 
		 "optdone": 1, 
		 "sigma_profile": "yes", 
		 "theory": "DFT", 
		 "functional": "B3LYP", 
		 "basiset": "6-31G**", 
		 "properties": { 
			 "R2extent": 5024.5104, 
			 "electric_dipole_moment_norm": 4.18112248804, 
			 "electric_quadrupole_moment_norm": 16.2914771829, 
			 "total_energy": -3203.22054257, 
			 "HOMO_LUMO_gap": 0.20753, 
			 "cosmo_polarized_energy": -17.64, 
			 "cosmo_cavitation_energy": 32.63, 
			 "cosmo_dispersion_energy": -23.25, 
			 "cosmo_repulsion_energy": 1.89, 
			 "cosmo_total_nonelectrostatic_energy": 11.27, 
			 "SMD_solvation_energy": 5.65 
		},
		"coords": [
			{
				"x": -1.7013159753,
				"y": 3.7246352051,
				"z": -0.4246234791,
				"element": "C" 
			},
			{
				"x": -0.3402005924,
				"y": 3.0401516464,
				"z": -0.4688277251,
				"element": "C" 
			},
			{
				"x": -0.2359041351,
				"y": 2.1282051392,
				"z": -1.5762496372,
				"element": "O" 
			},
			{
				"x": -0.655131837,
				"y": 0.8429943817,
				"z": -1.3218173348,
				"element": "C" 
			},
			{
				"x": 0.3197149057,
				"y": 0.1936904956,
				"z": -0.4862019507,
				"element": "O" 
			},
			{
				"x": 0.1303934489,
				"y": -1.1607699896,
				"z": -0.3265887937,
				"element": "C" 
			},
			{
				"x": -0.6697715833,
				"y": -1.9003999579,
				"z": -1.1045684215,
				"element": "C" 
			},
			{
				"x": -1.4179862652,
				"y": -1.3321909518,
				"z": -2.2845776446,
				"element": "C" 
			},
			{
				"x": -1.4717296231,
				"y": -2.3044684787,
				"z": -3.4710615296,
				"element": "C" 
			},
			{
				"x": -0.8710490694,
				"y": 0.0673294531,
				"z": -2.6207793326,
				"element": "C" 
			},
			{
				"x": 0.8263107505,
				"y": 0.0101125235,
				"z": -3.6493477961,
				"element": "Br" 
			},
			{
				"x": 0.9256480971,
				"y": -1.7663360215,
				"z": 0.7950459047,
				"element": "C" 
			},
			{
				"x": 1.7283407236,
				"y": -0.8855429158,
				"z": 1.4570373476,
				"element": "N" 
			},
			{
				"x": 0.8388415564,
				"y": -2.9541148945,
				"z": 1.081548739,
				"element": "O" 
			},
			{
				"x": -1.7304568268,
				"y": 4.4552088981,
				"z": 0.3907784556,
				"element": "H" 
			},
			{
				"x": -1.897440132,
				"y": 4.2478387394,
				"z": -1.3647992952,
				"element": "H" 
			},
			{
				"x": -2.510735307,
				"y": 3.0066763773,
				"z": -0.2558729174,
				"element": "H" 
			},
			{
				"x": -0.124866261,
				"y": 2.5145384782,
				"z": 0.468708403,
				"element": "H" 
			},
			{
				"x": 0.4545284699,
				"y": 3.7743320569,
				"z": -0.6274217546,
				"element": "H" 
			},
			{
				"x": -1.6105261355,
				"y": 0.8242185929,
				"z": -0.7656188684,
				"element": "H" 
			},
			{
				"x": -0.7438279181,
				"y": -2.9565322104,
				"z": -0.8713301911,
				"element": "H" 
			},
			{
				"x": -2.4638091092,
				"y": -1.1569807283,
				"z": -1.9789483447,
				"element": "H" 
			},
			{
				"x": -0.4681917599,
				"y": -2.5550452121,
				"z": -3.8205412206,
				"element": "H" 
			},
			{
				"x": -1.974320391,
				"y": -3.2285385588,
				"z": -3.1692611135,
				"element": "H" 
			},
			{
				"x": -2.0290216565,
				"y": -1.8715500905,
				"z": -4.307994593,
				"element": "H" 
			},
			{
				"x": -1.5535879971,
				"y": 0.6231739015,
				"z": -3.2634799358,
				"element": "H" 
			},
			{
				"x": 1.8557527976,
				"y": 0.0514523867,
				"z": 1.1093175403,
				"element": "H" 
			},
			{
				"x": 2.3599418252,
				"y": -1.2578882657,
				"z": 2.1485754888,
				"element": "H" 
			}
		],
		 "valence_orbital": [ 
			{
				"type": "occ",
				"energy": -0.27,
				"method": "rhf"
			},
			{
				"type": "occ",
				"energy": -0.26783,
				"method": "rhf"
			},
			{
				"type": "occ",
				"energy": -0.26538,
				"method": "rhf"
			},
			{
				"type": "occ",
				"energy": -0.24967,
				"method": "rhf"
			},
			{
				"type": "occ",
				"energy": -0.23173,
				"method": "rhf"
			},
			{
				"type": "unocc",
				"energy": -0.0242,
				"method": "rhf"
			},
			{
				"type": "unocc",
				"energy": 0.0002,
				"method": "rhf"
			},
			{
				"type": "unocc",
				"energy": 0.06973,
				"method": "rhf"
			},
			{
				"type": "unocc",
				"energy": 0.08141,
				"method": "rhf"
			},
			{
				"type": "unocc",
				"energy": 0.09306,
				"method": "rhf"
			}
		],
		"cosmo_sigma_profile": { 
			"-0.025": 0.0,
			"-0.024": 0.0,
			"-0.023": 0.0,
			"-0.022": 0.0,
			"-0.021": 0.0,
			"-0.02": 0.0,
			"-0.019": 0.0,
			"-0.018": 0.0,
			"-0.017": 0.0,
			"-0.016": 0.0,
			"-0.015": 0.0509306497836,
			"-0.014": 0.984120990678,
			"-0.013": 1.62025901463,
			"-0.012": 1.59321331068,
			"-0.011": 2.37927315087,
			"-0.01": 1.48647707531,
			"-0.009": 2.94618835751,
			"-0.008": 6.5921402529,
			"-0.007": 8.90779909361,
			"-0.006": 8.18713349242,
			"-0.005": 12.9620040686,
			"-0.004": 21.723676781,
			"-0.003": 22.7176243184,
			"-0.002": 19.8743421797,
			"-0.001": 21.4816435483,
			"0.0": 22.9273437839,
			"0.001": 16.8448912292,
			"0.002": 10.6851540826,
			"0.003": 9.70972575918,
			"0.004": 10.2765632269,
			"0.005": 11.2319285483,
			"0.006": 10.4509147455,
			"0.007": 5.26475119026,
			"0.008": 3.78229316988,
			"0.009": 3.74010023993,
			"0.01": 3.80279896306,
			"0.011": 4.58393815719,
			"0.012": 2.08911316787,
			"0.013": 4.55278581913,
			"0.014": 4.42802200999,
			"0.015": 0.462894568644,
			"0.016": 0.0,
			"0.017": 0.0,
			"0.018": 0.0,
			"0.019": 0.0,
			"0.02": 0.0,
			"0.021": 0.0,
			"0.022": 0.0,
			"0.023": 0.0,
			"0.024": 0.0,
			"0.025": 0.0
		}
	}
}
