{
	 "smiles": "NCP(O)(O)=O", 
	 "Tm": 573.15, 
	 "num_atms": 12, 
	 "gaussian": { 
		 "optdone": 1, 
		 "sigma_profile": "yes", 
		 "theory": "DFT", 
		 "functional": "B3LYP", 
		 "basiset": "6-31G**", 
		 "properties": { 
			 "R2extent": 817.4889, 
			 "electric_dipole_moment_norm": 2.42777736417, 
			 "electric_quadrupole_moment_norm": 8.33160440071, 
			 "total_energy": -663.558583219, 
			 "HOMO_LUMO_gap": 0.29267, 
			 "cosmo_polarized_energy": -18.74, 
			 "cosmo_cavitation_energy": 17.38, 
			 "cosmo_dispersion_energy": -13.48, 
			 "cosmo_repulsion_energy": 1.17, 
			 "cosmo_total_nonelectrostatic_energy": 5.07, 
			 "SMD_solvation_energy": 4.41 
		},
		"coords": [
			{
				"x": -1.35355378,
				"y": 0.9885768989,
				"z": 0.7503870154,
				"element": "N" 
			},
			{
				"x": -1.0829215992,
				"y": -0.2234226349,
				"z": -0.01455144,
				"element": "C" 
			},
			{
				"x": 0.5590725518,
				"y": -0.8811902161,
				"z": 0.431398536,
				"element": "P" 
			},
			{
				"x": 0.4292199941,
				"y": -1.0046239257,
				"z": 2.053216839,
				"element": "O" 
			},
			{
				"x": 0.4071851236,
				"y": -2.4050829657,
				"z": -0.118567431,
				"element": "O" 
			},
			{
				"x": 1.8035146732,
				"y": -0.1994809905,
				"z": -0.0080195127,
				"element": "O" 
			},
			{
				"x": -1.4998696839,
				"y": 0.755562098,
				"z": 1.7279698685,
				"element": "H" 
			},
			{
				"x": -2.1967812937,
				"y": 1.4403398915,
				"z": 0.4102933091,
				"element": "H" 
			},
			{
				"x": -1.808480216,
				"y": -1.0463984388,
				"z": 0.1005450341,
				"element": "H" 
			},
			{
				"x": -1.0353544777,
				"y": 0.0172673872,
				"z": -1.0816448286,
				"element": "H" 
			},
			{
				"x": 1.2365545115,
				"y": -0.6630428978,
				"z": 2.4639911524,
				"element": "H" 
			},
			{
				"x": 1.275714196,
				"y": -2.751004206,
				"z": -0.370318542,
				"element": "H" 
			}
		],
		 "valence_orbital": [ 
			{
				"type": "occ",
				"energy": -0.35351,
				"method": "rhf"
			},
			{
				"type": "occ",
				"energy": -0.33789,
				"method": "rhf"
			},
			{
				"type": "occ",
				"energy": -0.29033,
				"method": "rhf"
			},
			{
				"type": "occ",
				"energy": -0.28664,
				"method": "rhf"
			},
			{
				"type": "occ",
				"energy": -0.24615,
				"method": "rhf"
			},
			{
				"type": "unocc",
				"energy": 0.04652,
				"method": "rhf"
			},
			{
				"type": "unocc",
				"energy": 0.05942,
				"method": "rhf"
			},
			{
				"type": "unocc",
				"energy": 0.08915,
				"method": "rhf"
			},
			{
				"type": "unocc",
				"energy": 0.10664,
				"method": "rhf"
			},
			{
				"type": "unocc",
				"energy": 0.12562,
				"method": "rhf"
			}
		],
		"cosmo_sigma_profile": { 
			"-0.025": 0.0,
			"-0.024": 0.0,
			"-0.023": 0.0,
			"-0.022": 0.0,
			"-0.021": 0.0,
			"-0.02": 0.0,
			"-0.019": 0.49462673116,
			"-0.018": 1.9458651334,
			"-0.017": 1.77926646587,
			"-0.016": 1.27689325216,
			"-0.015": 2.13255833515,
			"-0.014": 1.49375063236,
			"-0.013": 1.30060080809,
			"-0.012": 0.817880667348,
			"-0.011": 2.48379334442,
			"-0.01": 3.62009505307,
			"-0.009": 4.46659677782,
			"-0.008": 4.59734058936,
			"-0.007": 6.1818715545,
			"-0.006": 7.39164214978,
			"-0.005": 8.65489959615,
			"-0.004": 7.60140286573,
			"-0.003": 7.51132009743,
			"-0.002": 2.87007948372,
			"-0.001": 4.28379567043,
			"0.0": 3.81857811124,
			"0.001": 3.87097690181,
			"0.002": 3.57104480321,
			"0.003": 3.07718677372,
			"0.004": 2.27202196048,
			"0.005": 3.7225177043,
			"0.006": 4.21400702947,
			"0.007": 2.63058029718,
			"0.008": 3.54358520504,
			"0.009": 4.31725147324,
			"0.01": 4.72066216258,
			"0.011": 4.22508272842,
			"0.012": 1.79749776064,
			"0.013": 2.2458408972,
			"0.014": 4.97325294396,
			"0.015": 6.46087417902,
			"0.016": 1.15706979057,
			"0.017": 0.526006897012,
			"0.018": 0.389408431307,
			"0.019": 0.101178910648,
			"0.02": 0.0,
			"0.021": 0.0,
			"0.022": 0.0,
			"0.023": 0.0,
			"0.024": 0.0,
			"0.025": 0.0
		}
	}
}
