{
	 "smiles": "FC1=C(Cl)C=C(Cl)C=C1", 
	 "Tm": 250.15, 
	 "num_atms": 12, 
	 "gaussian": { 
		 "optdone": 1, 
		 "sigma_profile": "yes", 
		 "theory": "DFT", 
		 "functional": "B3LYP", 
		 "basiset": "6-31G**", 
		 "properties": { 
			 "R2extent": 2864.4716, 
			 "electric_dipole_moment_norm": 1.39721168403, 
			 "electric_quadrupole_moment_norm": 7.0723797883, 
			 "total_energy": -1250.66018324, 
			 "HOMO_LUMO_gap": 0.21577, 
			 "cosmo_polarized_energy": -3.76, 
			 "cosmo_cavitation_energy": 20.58, 
			 "cosmo_dispersion_energy": -15.52, 
			 "cosmo_repulsion_energy": 1.25, 
			 "cosmo_total_nonelectrostatic_energy": 6.32, 
			 "SMD_solvation_energy": 3.53 
		},
		"coords": [
			{
				"x": -0.0181179915,
				"y": 2.313177602,
				"z": -1.975332694,
				"element": "F" 
			},
			{
				"x": 0.434862289,
				"y": 1.9733573306,
				"z": -0.7605097114,
				"element": "C" 
			},
			{
				"x": -0.4329977108,
				"y": 1.9900284847,
				"z": 0.333660107,
				"element": "C" 
			},
			{
				"x": -2.0987588396,
				"y": 2.4529772538,
				"z": 0.1099830102,
				"element": "Cl" 
			},
			{
				"x": 0.0386372579,
				"y": 1.6362939735,
				"z": 1.5977891161,
				"element": "C" 
			},
			{
				"x": 1.3764054574,
				"y": 1.270737253,
				"z": 1.7440925023,
				"element": "C" 
			},
			{
				"x": 1.9693090402,
				"y": 0.8258220911,
				"z": 3.3343452907,
				"element": "Cl" 
			},
			{
				"x": 2.2470207411,
				"y": 1.2526142206,
				"z": 0.6541172015,
				"element": "C" 
			},
			{
				"x": 1.766718457,
				"y": 1.607631775,
				"z": -0.6052327299,
				"element": "C" 
			},
			{
				"x": -0.6314411391,
				"y": 1.6480303689,
				"z": 2.4486544651,
				"element": "H" 
			},
			{
				"x": 3.2833756379,
				"y": 0.9656046318,
				"z": 0.7880804677,
				"element": "H" 
			},
			{
				"x": 2.4126868007,
				"y": 1.6057250149,
				"z": -1.4763470253,
				"element": "H" 
			}
		],
		 "valence_orbital": [ 
			{
				"type": "occ",
				"energy": -0.33043,
				"method": "rhf"
			},
			{
				"type": "occ",
				"energy": -0.33005,
				"method": "rhf"
			},
			{
				"type": "occ",
				"energy": -0.3232,
				"method": "rhf"
			},
			{
				"type": "occ",
				"energy": -0.27392,
				"method": "rhf"
			},
			{
				"type": "occ",
				"energy": -0.25246,
				"method": "rhf"
			},
			{
				"type": "unocc",
				"energy": -0.03669,
				"method": "rhf"
			},
			{
				"type": "unocc",
				"energy": -0.02437,
				"method": "rhf"
			},
			{
				"type": "unocc",
				"energy": -0.00259,
				"method": "rhf"
			},
			{
				"type": "unocc",
				"energy": 0.04085,
				"method": "rhf"
			},
			{
				"type": "unocc",
				"energy": 0.10508,
				"method": "rhf"
			}
		],
		"cosmo_sigma_profile": { 
			"-0.025": 0.0,
			"-0.024": 0.0,
			"-0.023": 0.0,
			"-0.022": 0.0,
			"-0.021": 0.0,
			"-0.02": 0.0,
			"-0.019": 0.0,
			"-0.018": 0.0,
			"-0.017": 0.0,
			"-0.016": 0.0,
			"-0.015": 0.0,
			"-0.014": 0.0,
			"-0.013": 0.0,
			"-0.012": 0.0,
			"-0.011": 0.0,
			"-0.01": 0.0,
			"-0.009": 1.62580039083,
			"-0.008": 5.17233026013,
			"-0.007": 6.18594250635,
			"-0.006": 4.72690196593,
			"-0.005": 4.6564874157,
			"-0.004": 5.59278766585,
			"-0.003": 5.95361472473,
			"-0.002": 10.9285512887,
			"-0.001": 17.3237729522,
			"0.0": 22.0047571837,
			"0.001": 22.3100601807,
			"0.002": 16.919458367,
			"0.003": 21.5526689348,
			"0.004": 22.2082784193,
			"0.005": 3.71250897006,
			"0.006": 0.0,
			"0.007": 0.0,
			"0.008": 0.0,
			"0.009": 0.0,
			"0.01": 0.0,
			"0.011": 0.0,
			"0.012": 0.0,
			"0.013": 0.0,
			"0.014": 0.0,
			"0.015": 0.0,
			"0.016": 0.0,
			"0.017": 0.0,
			"0.018": 0.0,
			"0.019": 0.0,
			"0.02": 0.0,
			"0.021": 0.0,
			"0.022": 0.0,
			"0.023": 0.0,
			"0.024": 0.0,
			"0.025": 0.0
		}
	}
}
