{
	 "smiles": "[O-][N+](=O)C1=CC(C=O)=CC=C1SC1=CC=C(Cl)C=C1", 
	 "Tm": 393.15, 
	 "num_atms": 27, 
	 "gaussian": { 
		 "optdone": 1, 
		 "sigma_profile": "yes", 
		 "theory": "DFT", 
		 "functional": "B3LYP", 
		 "basiset": "6-31G**", 
		 "properties": { 
			 "R2extent": 7389.0035, 
			 "electric_dipole_moment_norm": 4.86856052751, 
			 "electric_quadrupole_moment_norm": 14.1847776648, 
			 "total_energy": -1638.88183335, 
			 "HOMO_LUMO_gap": 0.13938, 
			 "cosmo_polarized_energy": -14.7, 
			 "cosmo_cavitation_energy": 36.7, 
			 "cosmo_dispersion_energy": -25.68, 
			 "cosmo_repulsion_energy": 1.93, 
			 "cosmo_total_nonelectrostatic_energy": 12.96, 
			 "SMD_solvation_energy": 8.65 
		},
		"coords": [
			{
				"x": 0.0178600407,
				"y": 2.8563189141,
				"z": 0.2431618784,
				"element": "O" 
			},
			{
				"x": -0.8599964433,
				"y": 2.1164315466,
				"z": 0.677747065,
				"element": "N" 
			},
			{
				"x": -2.06845785,
				"y": 2.3143459282,
				"z": 0.5785631962,
				"element": "O" 
			},
			{
				"x": -0.437784195,
				"y": 0.919795406,
				"z": 1.4334162516,
				"element": "C" 
			},
			{
				"x": -1.2058227923,
				"y": 0.6169105667,
				"z": 2.5502095551,
				"element": "C" 
			},
			{
				"x": -0.8225688109,
				"y": -0.4235707283,
				"z": 3.4019878234,
				"element": "C" 
			},
			{
				"x": -1.6274651806,
				"y": -0.7291819621,
				"z": 4.6089146064,
				"element": "C" 
			},
			{
				"x": -2.63137307,
				"y": -0.1258927946,
				"z": 4.9312484881,
				"element": "O" 
			},
			{
				"x": 0.3247083032,
				"y": -1.1664273266,
				"z": 3.0991935803,
				"element": "C" 
			},
			{
				"x": 1.0564030872,
				"y": -0.8924573882,
				"z": 1.9492012068,
				"element": "C" 
			},
			{
				"x": 0.6993768171,
				"y": 0.1578312321,
				"z": 1.0852612306,
				"element": "C" 
			},
			{
				"x": 1.7677018787,
				"y": 0.3839720364,
				"z": -0.3245955644,
				"element": "S" 
			},
			{
				"x": 0.652584175,
				"y": 0.658168276,
				"z": -1.7014797252,
				"element": "C" 
			},
			{
				"x": -0.3334478701,
				"y": -0.279883967,
				"z": -2.0335470754,
				"element": "C" 
			},
			{
				"x": -1.1358351511,
				"y": -0.086703504,
				"z": -3.1561440718,
				"element": "C" 
			},
			{
				"x": -0.9265177072,
				"y": 1.0358719919,
				"z": -3.9588691277,
				"element": "C" 
			},
			{
				"x": -1.9219659414,
				"y": 1.2716447316,
				"z": -5.3836163225,
				"element": "Cl" 
			},
			{
				"x": 0.0597386209,
				"y": 1.9713088529,
				"z": -3.6484006672,
				"element": "C" 
			},
			{
				"x": 0.8420242305,
				"y": 1.7851133542,
				"z": -2.5091951416,
				"element": "C" 
			},
			{
				"x": -2.0910295429,
				"y": 1.1999800315,
				"z": 2.776924542,
				"element": "H" 
			},
			{
				"x": -1.2407418119,
				"y": -1.5728387405,
				"z": 5.2215314623,
				"element": "H" 
			},
			{
				"x": 0.6292928084,
				"y": -1.9805814989,
				"z": 3.7522308898,
				"element": "H" 
			},
			{
				"x": 1.9122440454,
				"y": -1.5066945792,
				"z": 1.6889148687,
				"element": "H" 
			},
			{
				"x": -0.4741469107,
				"y": -1.1637982026,
				"z": -1.419800301,
				"element": "H" 
			},
			{
				"x": -1.905329548,
				"y": -0.8053121876,
				"z": -3.4150504505,
				"element": "H" 
			},
			{
				"x": 0.2017582611,
				"y": 2.842423667,
				"z": -4.2779345122,
				"element": "H" 
			},
			{
				"x": 1.5900905572,
				"y": 2.5226263443,
				"z": -2.2405736852,
				"element": "H" 
			}
		],
		 "valence_orbital": [ 
			{
				"type": "occ",
				"energy": -0.28813,
				"method": "rhf"
			},
			{
				"type": "occ",
				"energy": -0.27746,
				"method": "rhf"
			},
			{
				"type": "occ",
				"energy": -0.27413,
				"method": "rhf"
			},
			{
				"type": "occ",
				"energy": -0.26975,
				"method": "rhf"
			},
			{
				"type": "occ",
				"energy": -0.23888,
				"method": "rhf"
			},
			{
				"type": "unocc",
				"energy": -0.0995,
				"method": "rhf"
			},
			{
				"type": "unocc",
				"energy": -0.08442,
				"method": "rhf"
			},
			{
				"type": "unocc",
				"energy": -0.04011,
				"method": "rhf"
			},
			{
				"type": "unocc",
				"energy": -0.03101,
				"method": "rhf"
			},
			{
				"type": "unocc",
				"energy": -0.02671,
				"method": "rhf"
			}
		],
		"cosmo_sigma_profile": { 
			"-0.025": 0.0,
			"-0.024": 0.0,
			"-0.023": 0.0,
			"-0.022": 0.0,
			"-0.021": 0.0,
			"-0.02": 0.0,
			"-0.019": 0.0,
			"-0.018": 0.0,
			"-0.017": 0.0,
			"-0.016": 0.0,
			"-0.015": 0.0,
			"-0.014": 0.0,
			"-0.013": 0.0,
			"-0.012": 0.0,
			"-0.011": 0.0,
			"-0.01": 0.398883813007,
			"-0.009": 3.43874569046,
			"-0.008": 10.4376295172,
			"-0.007": 16.4970165084,
			"-0.006": 15.9267410293,
			"-0.005": 15.2112866056,
			"-0.004": 14.8098724843,
			"-0.003": 17.155998137,
			"-0.002": 22.0677074433,
			"-0.001": 25.7652421387,
			"0.0": 23.9102701345,
			"0.001": 23.57249219,
			"0.002": 24.2922312354,
			"0.003": 18.3745531518,
			"0.004": 15.881864249,
			"0.005": 10.0199992008,
			"0.006": 7.31930215213,
			"0.007": 11.7541710257,
			"0.008": 8.0213884421,
			"0.009": 6.15075825665,
			"0.01": 3.77405660647,
			"0.011": 3.74519966289,
			"0.012": 1.39044883512,
			"0.013": 0.0229458184101,
			"0.014": 0.0,
			"0.015": 0.0,
			"0.016": 0.0,
			"0.017": 0.0,
			"0.018": 0.0,
			"0.019": 0.0,
			"0.02": 0.0,
			"0.021": 0.0,
			"0.022": 0.0,
			"0.023": 0.0,
			"0.024": 0.0,
			"0.025": 0.0
		}
	}
}
