{
	 "smiles": "NC1=NC=C(C=C1)C1=CC(=CC=C1)C(F)(F)F", 
	 "Tm": 375.15, 
	 "num_atms": 26, 
	 "gaussian": { 
		 "optdone": 1, 
		 "sigma_profile": "yes", 
		 "theory": "DFT", 
		 "functional": "B3LYP", 
		 "basiset": "6-31G**", 
		 "properties": { 
			 "R2extent": 5433.5648, 
			 "electric_dipole_moment_norm": 2.79629699961, 
			 "electric_quadrupole_moment_norm": 19.5991552369, 
			 "total_energy": -871.74701819, 
			 "HOMO_LUMO_gap": 0.17638, 
			 "cosmo_polarized_energy": -10.95, 
			 "cosmo_cavitation_energy": 32.07, 
			 "cosmo_dispersion_energy": -22.94, 
			 "cosmo_repulsion_energy": 1.71, 
			 "cosmo_total_nonelectrostatic_energy": 10.83, 
			 "SMD_solvation_energy": 4.97 
		},
		"coords": [
			{
				"x": -5.4209845772,
				"y": 1.1294189254,
				"z": -0.8588262824,
				"element": "N" 
			},
			{
				"x": -4.119359535,
				"y": 0.7326340316,
				"z": -0.634861971,
				"element": "C" 
			},
			{
				"x": -3.9291878319,
				"y": -0.5757495662,
				"z": -0.4015289767,
				"element": "N" 
			},
			{
				"x": -2.6771562191,
				"y": -1.0084725035,
				"z": -0.238275675,
				"element": "C" 
			},
			{
				"x": -1.5342476412,
				"y": -0.1980110779,
				"z": -0.2853335513,
				"element": "C" 
			},
			{
				"x": -1.7609903068,
				"y": 1.1724560786,
				"z": -0.5165126552,
				"element": "C" 
			},
			{
				"x": -3.0475684839,
				"y": 1.6488505194,
				"z": -0.6936632068,
				"element": "C" 
			},
			{
				"x": -0.17707837,
				"y": -0.7544035994,
				"z": -0.089600076,
				"element": "C" 
			},
			{
				"x": 0.8080064393,
				"y": -0.0257901244,
				"z": 0.5964868155,
				"element": "C" 
			},
			{
				"x": 2.0868571518,
				"y": -0.5510398679,
				"z": 0.7821978444,
				"element": "C" 
			},
			{
				"x": 2.4114853255,
				"y": -1.8204430585,
				"z": 0.2969597217,
				"element": "C" 
			},
			{
				"x": 1.4405501215,
				"y": -2.5548810675,
				"z": -0.382225862,
				"element": "C" 
			},
			{
				"x": 0.1656119842,
				"y": -2.0275439729,
				"z": -0.5794961546,
				"element": "C" 
			},
			{
				"x": 3.1381567935,
				"y": 0.2771178709,
				"z": 1.4706384663,
				"element": "C" 
			},
			{
				"x": 4.0397428935,
				"y": -0.4908838414,
				"z": 2.1220934074,
				"element": "F" 
			},
			{
				"x": 2.6024682629,
				"y": 1.1287232706,
				"z": 2.3740707947,
				"element": "F" 
			},
			{
				"x": 3.8342717424,
				"y": 1.0327412053,
				"z": 0.5878035774,
				"element": "F" 
			},
			{
				"x": -5.6575736352,
				"y": 2.0932212851,
				"z": -0.6794306703,
				"element": "H" 
			},
			{
				"x": -6.1169333893,
				"y": 0.4527231852,
				"z": -0.5795410518,
				"element": "H" 
			},
			{
				"x": -2.5757081468,
				"y": -2.0720132957,
				"z": -0.0272689966,
				"element": "H" 
			},
			{
				"x": -0.9208900902,
				"y": 1.8582751888,
				"z": -0.5809238474,
				"element": "H" 
			},
			{
				"x": -3.2317292826,
				"y": 2.7003964101,
				"z": -0.8926052136,
				"element": "H" 
			},
			{
				"x": 0.5684270054,
				"y": 0.9450408598,
				"z": 1.0164083739,
				"element": "H" 
			},
			{
				"x": 3.4046538721,
				"y": -2.2256244991,
				"z": 0.455907486,
				"element": "H" 
			},
			{
				"x": 1.6815701566,
				"y": -3.5404956603,
				"z": -0.7690737857,
				"element": "H" 
			},
			{
				"x": -0.5692942395,
				"y": -2.598946696,
				"z": -1.138198511,
				"element": "H" 
			}
		],
		 "valence_orbital": [ 
			{
				"type": "occ",
				"energy": -0.28635,
				"method": "rhf"
			},
			{
				"type": "occ",
				"energy": -0.26931,
				"method": "rhf"
			},
			{
				"type": "occ",
				"energy": -0.26571,
				"method": "rhf"
			},
			{
				"type": "occ",
				"energy": -0.25757,
				"method": "rhf"
			},
			{
				"type": "occ",
				"energy": -0.21041,
				"method": "rhf"
			},
			{
				"type": "unocc",
				"energy": -0.03403,
				"method": "rhf"
			},
			{
				"type": "unocc",
				"energy": -0.02487,
				"method": "rhf"
			},
			{
				"type": "unocc",
				"energy": -0.01921,
				"method": "rhf"
			},
			{
				"type": "unocc",
				"energy": 0.02404,
				"method": "rhf"
			},
			{
				"type": "unocc",
				"energy": 0.08108,
				"method": "rhf"
			}
		],
		"cosmo_sigma_profile": { 
			"-0.025": 0.0,
			"-0.024": 0.0,
			"-0.023": 0.0,
			"-0.022": 0.0,
			"-0.021": 0.0,
			"-0.02": 0.0,
			"-0.019": 0.0,
			"-0.018": 0.0,
			"-0.017": 0.0,
			"-0.016": 0.0,
			"-0.015": 0.0,
			"-0.014": 0.240418186882,
			"-0.013": 1.59297027595,
			"-0.012": 2.73180760387,
			"-0.011": 1.96195673867,
			"-0.01": 2.21104444548,
			"-0.009": 3.5842827885,
			"-0.008": 2.17542717452,
			"-0.007": 7.66211462017,
			"-0.006": 14.6284406819,
			"-0.005": 14.8030366266,
			"-0.004": 13.8641773071,
			"-0.003": 10.9702749174,
			"-0.002": 10.4325176832,
			"-0.001": 14.052515914,
			"0.0": 15.0704167503,
			"0.001": 19.3419377269,
			"0.002": 33.3215507092,
			"0.003": 51.667572523,
			"0.004": 16.8695808052,
			"0.005": 3.14049034482,
			"0.006": 3.2355635645,
			"0.007": 1.95496366741,
			"0.008": 2.18491349414,
			"0.009": 2.15357902173,
			"0.01": 1.58532604087,
			"0.011": 1.65231613728,
			"0.012": 1.07466392548,
			"0.013": 0.853121541509,
			"0.014": 1.18817510233,
			"0.015": 0.594044916438,
			"0.016": 0.394865882135,
			"0.017": 0.00367461840398,
			"0.018": 0.0,
			"0.019": 0.0,
			"0.02": 0.0,
			"0.021": 0.0,
			"0.022": 0.0,
			"0.023": 0.0,
			"0.024": 0.0,
			"0.025": 0.0
		}
	}
}
