{
	 "smiles": "OC(=O)C1=C(SC2=CC=CC=C2)C(F)=CC=C1", 
	 "Tm": 435.15, 
	 "num_atms": 26, 
	 "gaussian": { 
		 "optdone": 1, 
		 "sigma_profile": "yes", 
		 "theory": "DFT", 
		 "functional": "B3LYP", 
		 "basiset": "6-31G**", 
		 "properties": { 
			 "R2extent": 5007.2295, 
			 "electric_dipole_moment_norm": 4.72725000502, 
			 "electric_quadrupole_moment_norm": 24.9466467516, 
			 "total_energy": -1149.28154915, 
			 "HOMO_LUMO_gap": 0.1958, 
			 "cosmo_polarized_energy": -11.62, 
			 "cosmo_cavitation_energy": 32.29, 
			 "cosmo_dispersion_energy": -23.36, 
			 "cosmo_repulsion_energy": 1.72, 
			 "cosmo_total_nonelectrostatic_energy": 10.65, 
			 "SMD_solvation_energy": 6.66 
		},
		"coords": [
			{
				"x": 1.1556661434,
				"y": -2.1264171482,
				"z": -3.381512395,
				"element": "O" 
			},
			{
				"x": -0.0613972795,
				"y": -2.4492609705,
				"z": -2.9173580428,
				"element": "C" 
			},
			{
				"x": -0.5202997249,
				"y": -3.5508753793,
				"z": -3.1274010456,
				"element": "O" 
			},
			{
				"x": -0.8532611557,
				"y": -1.4194363068,
				"z": -2.120864575,
				"element": "C" 
			},
			{
				"x": -0.4135511803,
				"y": -0.1440578367,
				"z": -1.6936225312,
				"element": "C" 
			},
			{
				"x": 1.1856501406,
				"y": 0.5870637412,
				"z": -2.1018740414,
				"element": "S" 
			},
			{
				"x": 2.1498585527,
				"y": 0.2669298483,
				"z": -0.6071025161,
				"element": "C" 
			},
			{
				"x": 2.8374360325,
				"y": -0.9431094941,
				"z": -0.4544254036,
				"element": "C" 
			},
			{
				"x": 3.6129585854,
				"y": -1.1538064974,
				"z": 0.6863469352,
				"element": "C" 
			},
			{
				"x": 3.7067852182,
				"y": -0.162043455,
				"z": 1.6651194287,
				"element": "C" 
			},
			{
				"x": 3.0219529832,
				"y": 1.0442957064,
				"z": 1.5064745711,
				"element": "C" 
			},
			{
				"x": 2.2411116643,
				"y": 1.2640077678,
				"z": 0.3705914094,
				"element": "C" 
			},
			{
				"x": -1.2939679776,
				"y": 0.6377633272,
				"z": -0.9347429935,
				"element": "C" 
			},
			{
				"x": -0.891264495,
				"y": 1.8498542507,
				"z": -0.5065167182,
				"element": "F" 
			},
			{
				"x": -2.5733596154,
				"y": 0.2210329939,
				"z": -0.5942114096,
				"element": "C" 
			},
			{
				"x": -2.9986095943,
				"y": -1.033048447,
				"z": -1.0265799881,
				"element": "C" 
			},
			{
				"x": -2.147180164,
				"y": -1.8392724412,
				"z": -1.775419759,
				"element": "C" 
			},
			{
				"x": 1.3810338873,
				"y": -1.1948658296,
				"z": -3.1553271814,
				"element": "H" 
			},
			{
				"x": 2.7628033788,
				"y": -1.7112961824,
				"z": -1.2172893441,
				"element": "H" 
			},
			{
				"x": 4.1453548284,
				"y": -2.0925833787,
				"z": 0.806798307,
				"element": "H" 
			},
			{
				"x": 4.3143027621,
				"y": -0.3288452162,
				"z": 2.5497637174,
				"element": "H" 
			},
			{
				"x": 3.0938979752,
				"y": 1.8166691128,
				"z": 2.2665644732,
				"element": "H" 
			},
			{
				"x": 1.6991176178,
				"y": 2.1943987346,
				"z": 0.2423252304,
				"element": "H" 
			},
			{
				"x": -3.204225096,
				"y": 0.8778638304,
				"z": -0.0052494007,
				"element": "H" 
			},
			{
				"x": -3.9951306569,
				"y": -1.3819993436,
				"z": -0.7750233147,
				"element": "H" 
			},
			{
				"x": -2.4553828304,
				"y": -2.8220613868,
				"z": -2.1108634124,
				"element": "H" 
			}
		],
		 "valence_orbital": [ 
			{
				"type": "occ",
				"energy": -0.27515,
				"method": "rhf"
			},
			{
				"type": "occ",
				"energy": -0.26897,
				"method": "rhf"
			},
			{
				"type": "occ",
				"energy": -0.26839,
				"method": "rhf"
			},
			{
				"type": "occ",
				"energy": -0.26521,
				"method": "rhf"
			},
			{
				"type": "occ",
				"energy": -0.26004,
				"method": "rhf"
			},
			{
				"type": "unocc",
				"energy": -0.06424,
				"method": "rhf"
			},
			{
				"type": "unocc",
				"energy": -0.03473,
				"method": "rhf"
			},
			{
				"type": "unocc",
				"energy": -0.02965,
				"method": "rhf"
			},
			{
				"type": "unocc",
				"energy": -0.01891,
				"method": "rhf"
			},
			{
				"type": "unocc",
				"energy": 0.03733,
				"method": "rhf"
			}
		],
		"cosmo_sigma_profile": { 
			"-0.025": 0.0,
			"-0.024": 0.0,
			"-0.023": 0.0,
			"-0.022": 0.0,
			"-0.021": 0.0,
			"-0.02": 0.0,
			"-0.019": 0.0,
			"-0.018": 0.0,
			"-0.017": 0.0,
			"-0.016": 0.0,
			"-0.015": 0.0,
			"-0.014": 0.0,
			"-0.013": 0.0,
			"-0.012": 0.0,
			"-0.011": 0.0,
			"-0.01": 0.0886963921574,
			"-0.009": 0.907401632206,
			"-0.008": 3.99955838213,
			"-0.007": 9.50164433391,
			"-0.006": 16.9047371357,
			"-0.005": 19.6175740965,
			"-0.004": 16.9696006521,
			"-0.003": 15.9036037633,
			"-0.002": 17.5514023484,
			"-0.001": 21.7813332403,
			"0.0": 24.2753238556,
			"0.001": 25.1687460548,
			"0.002": 21.9607777622,
			"0.003": 18.4390124012,
			"0.004": 17.0359295316,
			"0.005": 5.06528310444,
			"0.006": 3.27902839694,
			"0.007": 2.58977673003,
			"0.008": 2.93926496125,
			"0.009": 2.82926928673,
			"0.01": 4.01672044453,
			"0.011": 5.72771859467,
			"0.012": 4.08012654924,
			"0.013": 1.68684477807,
			"0.014": 0.0994090752057,
			"0.015": 0.0,
			"0.016": 0.0,
			"0.017": 0.0,
			"0.018": 0.0,
			"0.019": 0.0,
			"0.02": 0.0,
			"0.021": 0.0,
			"0.022": 0.0,
			"0.023": 0.0,
			"0.024": 0.0,
			"0.025": 0.0
		}
	}
}
