{
	 "smiles": "O=C(C1=CC=CS1)C1=NOC(=C1S(=O)(=O)C1=CC=CC=C1)C1=C2C=CC=CC2=CC=C1", 
	 "Tm": 397.15, 
	 "num_atms": 46, 
	 "gaussian": { 
		 "optdone": 1, 
		 "sigma_profile": "yes", 
		 "theory": "DFT", 
		 "functional": "B3LYP", 
		 "basiset": "6-31G**", 
		 "properties": { 
			 "R2extent": 14129.2926, 
			 "electric_dipole_moment_norm": 8.39697628197, 
			 "electric_quadrupole_moment_norm": 36.9089150584, 
			 "total_energy": -2075.47515084, 
			 "HOMO_LUMO_gap": 0.15744, 
			 "cosmo_polarized_energy": -23.5, 
			 "cosmo_cavitation_energy": 54.22, 
			 "cosmo_dispersion_energy": -35.86, 
			 "cosmo_repulsion_energy": 2.61, 
			 "cosmo_total_nonelectrostatic_energy": 20.96, 
			 "SMD_solvation_energy": 8.29 
		},
		"coords": [
			{
				"x": -2.5574609918,
				"y": -2.8978814237,
				"z": 2.6934172222,
				"element": "O" 
			},
			{
				"x": -1.7366687894,
				"y": -2.0020701714,
				"z": 2.7958841107,
				"element": "C" 
			},
			{
				"x": -0.7141701124,
				"y": -1.9557700742,
				"z": 3.8366552057,
				"element": "C" 
			},
			{
				"x": 0.2281816041,
				"y": -0.9819957036,
				"z": 4.1077507565,
				"element": "C" 
			},
			{
				"x": 1.0486664391,
				"y": -1.3040219419,
				"z": 5.2186744917,
				"element": "C" 
			},
			{
				"x": 0.7198360933,
				"y": -2.5176547396,
				"z": 5.7741195518,
				"element": "C" 
			},
			{
				"x": -0.5920957895,
				"y": -3.2863366125,
				"z": 4.9611578842,
				"element": "S" 
			},
			{
				"x": -1.7915182634,
				"y": -0.8441070015,
				"z": 1.8166245438,
				"element": "C" 
			},
			{
				"x": -2.1405681288,
				"y": 0.3420687323,
				"z": 2.254637439,
				"element": "N" 
			},
			{
				"x": -2.2622547456,
				"y": 1.1455803571,
				"z": 1.1144871227,
				"element": "O" 
			},
			{
				"x": -1.9786051642,
				"y": 0.427895872,
				"z": 0.0051225026,
				"element": "C" 
			},
			{
				"x": -1.6540986476,
				"y": -0.8551026289,
				"z": 0.3916975546,
				"element": "C" 
			},
			{
				"x": -1.016948494,
				"y": -2.2131336893,
				"z": -0.5816972327,
				"element": "S" 
			},
			{
				"x": -0.6093313972,
				"y": -3.238256952,
				"z": 0.3867195173,
				"element": "O" 
			},
			{
				"x": -1.9638569139,
				"y": -2.5112280524,
				"z": -1.6657954957,
				"element": "O" 
			},
			{
				"x": 0.482915776,
				"y": -1.5486726305,
				"z": -1.323327214,
				"element": "C" 
			},
			{
				"x": 0.4621893223,
				"y": -1.1020222989,
				"z": -2.6451573869,
				"element": "C" 
			},
			{
				"x": 1.6419888288,
				"y": -0.6129879007,
				"z": -3.2087488143,
				"element": "C" 
			},
			{
				"x": 2.8171906469,
				"y": -0.578358651,
				"z": -2.4558905573,
				"element": "C" 
			},
			{
				"x": 2.8251737933,
				"y": -1.0403908436,
				"z": -1.1364939742,
				"element": "C" 
			},
			{
				"x": 1.6549055571,
				"y": -1.5333416305,
				"z": -0.5617521575,
				"element": "C" 
			},
			{
				"x": -2.1047754874,
				"y": 1.1071470707,
				"z": -1.2911705665,
				"element": "C" 
			},
			{
				"x": -1.5383870307,
				"y": 2.4091693964,
				"z": -1.5241785618,
				"element": "C" 
			},
			{
				"x": -0.7584103133,
				"y": 3.1155428223,
				"z": -0.5680526096,
				"element": "C" 
			},
			{
				"x": -0.2302004403,
				"y": 4.3538572716,
				"z": -0.8603822156,
				"element": "C" 
			},
			{
				"x": -0.4499649543,
				"y": 4.9552356823,
				"z": -2.1214754253,
				"element": "C" 
			},
			{
				"x": -1.1924667813,
				"y": 4.2958230366,
				"z": -3.0729120008,
				"element": "C" 
			},
			{
				"x": -1.7481791172,
				"y": 3.0149931576,
				"z": -2.8082900833,
				"element": "C" 
			},
			{
				"x": -2.5005616135,
				"y": 2.3257708938,
				"z": -3.7964463335,
				"element": "C" 
			},
			{
				"x": -3.0251679245,
				"y": 1.079493746,
				"z": -3.5454339723,
				"element": "C" 
			},
			{
				"x": -2.8270471605,
				"y": 0.4681780129,
				"z": -2.2888639205,
				"element": "C" 
			},
			{
				"x": 0.3051992934,
				"y": -0.0656087833,
				"z": 3.5357753474,
				"element": "H" 
			},
			{
				"x": 1.8432768502,
				"y": -0.6689256232,
				"z": 5.592356611,
				"element": "H" 
			},
			{
				"x": 1.1845512995,
				"y": -3.001589049,
				"z": 6.6229663729,
				"element": "H" 
			},
			{
				"x": -0.4566842368,
				"y": -1.1526528316,
				"z": -3.2171702163,
				"element": "H" 
			},
			{
				"x": 1.6422489201,
				"y": -0.2645472379,
				"z": -4.2369898493,
				"element": "H" 
			},
			{
				"x": 3.7323874618,
				"y": -0.1980598003,
				"z": -2.9001202517,
				"element": "H" 
			},
			{
				"x": 3.7445425428,
				"y": -1.0256750019,
				"z": -0.5590441258,
				"element": "H" 
			},
			{
				"x": 1.6468911072,
				"y": -1.9192916229,
				"z": 0.4520938403,
				"element": "H" 
			},
			{
				"x": -0.5856318422,
				"y": 2.6791737466,
				"z": 0.4078449679,
				"element": "H" 
			},
			{
				"x": 0.3608102253,
				"y": 4.8747452147,
				"z": -0.1128303424,
				"element": "H" 
			},
			{
				"x": -0.0300742139,
				"y": 5.9336754257,
				"z": -2.3347745462,
				"element": "H" 
			},
			{
				"x": -1.3646101194,
				"y": 4.7438736065,
				"z": -4.0479989692,
				"element": "H" 
			},
			{
				"x": -2.6542854431,
				"y": 2.8045812559,
				"z": -4.7600810665,
				"element": "H" 
			},
			{
				"x": -3.6023070388,
				"y": 0.5601133401,
				"z": -4.3039065635,
				"element": "H" 
			},
			{
				"x": -3.2452246062,
				"y": -0.5132357448,
				"z": -2.0977005896,
				"element": "H" 
			}
		],
		 "valence_orbital": [ 
			{
				"type": "occ",
				"energy": -0.26605,
				"method": "rhf"
			},
			{
				"type": "occ",
				"energy": -0.26457,
				"method": "rhf"
			},
			{
				"type": "occ",
				"energy": -0.25999,
				"method": "rhf"
			},
			{
				"type": "occ",
				"energy": -0.25093,
				"method": "rhf"
			},
			{
				"type": "occ",
				"energy": -0.23102,
				"method": "rhf"
			},
			{
				"type": "unocc",
				"energy": -0.07358,
				"method": "rhf"
			},
			{
				"type": "unocc",
				"energy": -0.07159,
				"method": "rhf"
			},
			{
				"type": "unocc",
				"energy": -0.04504,
				"method": "rhf"
			},
			{
				"type": "unocc",
				"energy": -0.03331,
				"method": "rhf"
			},
			{
				"type": "unocc",
				"energy": -0.02631,
				"method": "rhf"
			}
		],
		"cosmo_sigma_profile": { 
			"-0.025": 0.0,
			"-0.024": 0.0,
			"-0.023": 0.0,
			"-0.022": 0.0,
			"-0.021": 0.0,
			"-0.02": 0.0,
			"-0.019": 0.0,
			"-0.018": 0.0,
			"-0.017": 0.0,
			"-0.016": 0.0,
			"-0.015": 0.0,
			"-0.014": 0.0,
			"-0.013": 0.0,
			"-0.012": 0.0,
			"-0.011": 0.0,
			"-0.01": 1.05326819108,
			"-0.009": 2.65601187723,
			"-0.008": 4.67643593302,
			"-0.007": 18.2874567844,
			"-0.006": 33.1884886161,
			"-0.005": 34.3819924563,
			"-0.004": 28.9717056029,
			"-0.003": 24.6004282844,
			"-0.002": 24.014603118,
			"-0.001": 27.1966496972,
			"0.0": 28.4425005647,
			"0.001": 42.5897359449,
			"0.002": 52.8035408074,
			"0.003": 39.6710780652,
			"0.004": 18.5718714845,
			"0.005": 9.66461113169,
			"0.006": 6.90944205094,
			"0.007": 6.08537552728,
			"0.008": 5.87571439848,
			"0.009": 6.95841630063,
			"0.01": 11.1636598177,
			"0.011": 11.2844492586,
			"0.012": 1.55827606146,
			"0.013": 0.0,
			"0.014": 0.0,
			"0.015": 0.0,
			"0.016": 0.0,
			"0.017": 0.0,
			"0.018": 0.0,
			"0.019": 0.0,
			"0.02": 0.0,
			"0.021": 0.0,
			"0.022": 0.0,
			"0.023": 0.0,
			"0.024": 0.0,
			"0.025": 0.0
		}
	}
}
