{
	 "smiles": "CC12CCC3C(CCC4=CC(=O)CCC34C)C1CCC2(O)C#C", 
	 "Tm": 542.15, 
	 "num_atms": 51, 
	 "gaussian": { 
		 "optdone": 1, 
		 "sigma_profile": "yes", 
		 "theory": "DFT", 
		 "functional": "B3LYP", 
		 "basiset": "6-31G**", 
		 "properties": { 
			 "R2extent": 7994.3965, 
			 "electric_dipole_moment_norm": 5.3344108925, 
			 "electric_quadrupole_moment_norm": 23.5235073758, 
			 "total_energy": -967.477001594, 
			 "HOMO_LUMO_gap": 0.18511, 
			 "cosmo_polarized_energy": -14.88, 
			 "cosmo_cavitation_energy": 45.78, 
			 "cosmo_dispersion_energy": -31.14, 
			 "cosmo_repulsion_energy": 2.28, 
			 "cosmo_total_nonelectrostatic_energy": 16.92, 
			 "SMD_solvation_energy": 8.54 
		},
		"coords": [
			{
				"x": -0.5705592714,
				"y": 3.063532026,
				"z": -0.9464255956,
				"element": "C" 
			},
			{
				"x": 0.575360691,
				"y": 2.0665364013,
				"z": -0.6769603409,
				"element": "C" 
			},
			{
				"x": 0.8245637976,
				"y": 1.9634177877,
				"z": 0.84540708,
				"element": "C" 
			},
			{
				"x": -0.208593762,
				"y": 1.0368782142,
				"z": 1.5000481363,
				"element": "C" 
			},
			{
				"x": -0.0523648189,
				"y": -0.4358720297,
				"z": 1.0419843559,
				"element": "C" 
			},
			{
				"x": 0.5946489217,
				"y": -0.5112423682,
				"z": -0.3881991241,
				"element": "C" 
			},
			{
				"x": 0.399202282,
				"y": -1.8861840181,
				"z": -1.0736133391,
				"element": "C" 
			},
			{
				"x": 0.0467868813,
				"y": -2.9942689053,
				"z": -0.0595732031,
				"element": "C" 
			},
			{
				"x": -1.2871219954,
				"y": -2.615964836,
				"z": 0.5138714122,
				"element": "C" 
			},
			{
				"x": -2.3973024808,
				"y": -3.3242754648,
				"z": 0.2141984306,
				"element": "C" 
			},
			{
				"x": -3.7616067214,
				"y": -2.892224654,
				"z": 0.5485043364,
				"element": "C" 
			},
			{
				"x": -4.7413651991,
				"y": -3.5832093984,
				"z": 0.2979285651,
				"element": "O" 
			},
			{
				"x": -3.9016756023,
				"y": -1.5263287658,
				"z": 1.2109136427,
				"element": "C" 
			},
			{
				"x": -2.680011897,
				"y": -0.6137959614,
				"z": 1.0240912072,
				"element": "C" 
			},
			{
				"x": -1.3334967628,
				"y": -1.3226417379,
				"z": 1.3279644552,
				"element": "C" 
			},
			{
				"x": -1.2793223476,
				"y": -1.7141185427,
				"z": 2.8324281747,
				"element": "C" 
			},
			{
				"x": 0.2194227887,
				"y": 0.6672834731,
				"z": -1.311869814,
				"element": "C" 
			},
			{
				"x": 0.9655096985,
				"y": 0.6157516474,
				"z": -2.6829958984,
				"element": "C" 
			},
			{
				"x": 1.5572604873,
				"y": 2.0174583469,
				"z": -2.907390839,
				"element": "C" 
			},
			{
				"x": 1.8587599901,
				"y": 2.5013621971,
				"z": -1.4723675286,
				"element": "C" 
			},
			{
				"x": 2.9549541381,
				"y": 1.7317761541,
				"z": -0.943183887,
				"element": "O" 
			},
			{
				"x": 2.1860583598,
				"y": 3.9313117265,
				"z": -1.3920093859,
				"element": "C" 
			},
			{
				"x": 2.5044897521,
				"y": 5.0963758974,
				"z": -1.3462549509,
				"element": "C" 
			},
			{
				"x": -0.8309904944,
				"y": 3.1189227395,
				"z": -2.0077863989,
				"element": "H" 
			},
			{
				"x": -0.3080428383,
				"y": 4.070636536,
				"z": -0.6107968461,
				"element": "H" 
			},
			{
				"x": -1.4742179184,
				"y": 2.7530649223,
				"z": -0.4131834744,
				"element": "H" 
			},
			{
				"x": 0.7648299507,
				"y": 2.9632872714,
				"z": 1.2915252271,
				"element": "H" 
			},
			{
				"x": 1.8362660984,
				"y": 1.597181144,
				"z": 1.0353147357,
				"element": "H" 
			},
			{
				"x": -1.2051114767,
				"y": 1.4131747285,
				"z": 1.2539714751,
				"element": "H" 
			},
			{
				"x": -0.126760625,
				"y": 1.0989996975,
				"z": 2.5910533773,
				"element": "H" 
			},
			{
				"x": 0.7161524842,
				"y": -0.8684624385,
				"z": 1.6945555507,
				"element": "H" 
			},
			{
				"x": 1.6707687431,
				"y": -0.4037475301,
				"z": -0.2103246024,
				"element": "H" 
			},
			{
				"x": -0.4161172332,
				"y": -1.8373020682,
				"z": -1.8068352423,
				"element": "H" 
			},
			{
				"x": 1.3005979401,
				"y": -2.1638368985,
				"z": -1.6299313768,
				"element": "H" 
			},
			{
				"x": -0.0052128866,
				"y": -3.9700743729,
				"z": -0.5517572364,
				"element": "H" 
			},
			{
				"x": 0.8233978933,
				"y": -3.0550587243,
				"z": 0.7145832102,
				"element": "H" 
			},
			{
				"x": -2.3273748486,
				"y": -4.2546226172,
				"z": -0.3453445301,
				"element": "H" 
			},
			{
				"x": -4.0925452574,
				"y": -1.7032055273,
				"z": 2.2775526716,
				"element": "H" 
			},
			{
				"x": -4.8109743302,
				"y": -1.058801918,
				"z": 0.8201066041,
				"element": "H" 
			},
			{
				"x": -2.800486541,
				"y": 0.2639837467,
				"z": 1.6657897501,
				"element": "H" 
			},
			{
				"x": -2.6607627832,
				"y": -0.2489520565,
				"z": -0.0107754492,
				"element": "H" 
			},
			{
				"x": -1.2687089217,
				"y": -0.8195221901,
				"z": 3.4641745281,
				"element": "H" 
			},
			{
				"x": -0.3743851402,
				"y": -2.2898265966,
				"z": 3.0523304254,
				"element": "H" 
			},
			{
				"x": -2.1342648477,
				"y": -2.3281816514,
				"z": 3.1248096207,
				"element": "H" 
			},
			{
				"x": -0.8635233765,
				"y": 0.6336141814,
				"z": -1.4905607009,
				"element": "H" 
			},
			{
				"x": 0.3122878173,
				"y": 0.3095049732,
				"z": -3.5049431718,
				"element": "H" 
			},
			{
				"x": 1.7822463224,
				"y": -0.1093569713,
				"z": -2.6327465179,
				"element": "H" 
			},
			{
				"x": 0.8433423616,
				"y": 2.6923906203,
				"z": -3.3886836699,
				"element": "H" 
			},
			{
				"x": 2.462670348,
				"y": 2.014136141,
				"z": -3.5237826441,
				"element": "H" 
			},
			{
				"x": 3.7562557726,
				"y": 2.0234659842,
				"z": -1.398332779,
				"element": "H" 
			},
			{
				"x": 2.7775668578,
				"y": 6.1252316855,
				"z": -1.2975784257,
				"element": "H" 
			}
		],
		 "valence_orbital": [ 
			{
				"type": "occ",
				"energy": -0.2816,
				"method": "rhf"
			},
			{
				"type": "occ",
				"energy": -0.27359,
				"method": "rhf"
			},
			{
				"type": "occ",
				"energy": -0.26402,
				"method": "rhf"
			},
			{
				"type": "occ",
				"energy": -0.24669,
				"method": "rhf"
			},
			{
				"type": "occ",
				"energy": -0.22483,
				"method": "rhf"
			},
			{
				"type": "unocc",
				"energy": -0.03972,
				"method": "rhf"
			},
			{
				"type": "unocc",
				"energy": 0.03055,
				"method": "rhf"
			},
			{
				"type": "unocc",
				"energy": 0.0444,
				"method": "rhf"
			},
			{
				"type": "unocc",
				"energy": 0.06171,
				"method": "rhf"
			},
			{
				"type": "unocc",
				"energy": 0.07318,
				"method": "rhf"
			}
		],
		"cosmo_sigma_profile": { 
			"-0.025": 0.0,
			"-0.024": 0.0,
			"-0.023": 0.0,
			"-0.022": 0.0,
			"-0.021": 0.0,
			"-0.02": 0.0,
			"-0.019": 0.0,
			"-0.018": 0.0,
			"-0.017": 0.0,
			"-0.016": 0.1110458797,
			"-0.015": 0.79233488572,
			"-0.014": 0.868219705581,
			"-0.013": 0.862916803497,
			"-0.012": 0.805581938432,
			"-0.011": 2.11285207114,
			"-0.01": 2.54899048197,
			"-0.009": 1.22945512552,
			"-0.008": 1.65640103691,
			"-0.007": 2.66157205006,
			"-0.006": 2.35528445541,
			"-0.005": 7.64106140906,
			"-0.004": 22.090342284,
			"-0.003": 42.306058002,
			"-0.002": 51.1337073086,
			"-0.001": 54.3005558354,
			"0.0": 42.6261039669,
			"0.001": 31.3008059401,
			"0.002": 16.361134232,
			"0.003": 11.6651196176,
			"0.004": 9.9330073667,
			"0.005": 8.26439956518,
			"0.006": 8.27891328109,
			"0.007": 7.96352913575,
			"0.008": 4.57693813768,
			"0.009": 2.33492367994,
			"0.01": 3.34853967734,
			"0.011": 2.24978553476,
			"0.012": 2.58201256235,
			"0.013": 4.82278189235,
			"0.014": 3.61672775791,
			"0.015": 1.18126239227,
			"0.016": 0.0,
			"0.017": 0.0,
			"0.018": 0.0,
			"0.019": 0.0,
			"0.02": 0.0,
			"0.021": 0.0,
			"0.022": 0.0,
			"0.023": 0.0,
			"0.024": 0.0,
			"0.025": 0.0
		}
	}
}
