{
	 "smiles": "CCOP(=S)(OCC)OC1=CC=C2C(C)=C(Cl)C(=O)OC2=C1", 
	 "Tm": 368.15, 
	 "num_atms": 38, 
	 "gaussian": { 
		 "optdone": 1, 
		 "sigma_profile": "yes", 
		 "theory": "DFT", 
		 "functional": "B3LYP", 
		 "basiset": "6-31G**", 
		 "properties": { 
			 "R2extent": 13905.9433, 
			 "electric_dipole_moment_norm": 7.16241594855, 
			 "electric_quadrupole_moment_norm": 32.288573621, 
			 "total_energy": -2119.0672686, 
			 "HOMO_LUMO_gap": 0.16234, 
			 "cosmo_polarized_energy": -17.92, 
			 "cosmo_cavitation_energy": 47.53, 
			 "cosmo_dispersion_energy": -33.18, 
			 "cosmo_repulsion_energy": 2.52, 
			 "cosmo_total_nonelectrostatic_energy": 16.87, 
			 "SMD_solvation_energy": 9.37 
		},
		"coords": [
			{
				"x": 2.0481420832,
				"y": 3.5977800401,
				"z": -1.7426611423,
				"element": "C" 
			},
			{
				"x": 0.9131963457,
				"y": 2.7373264799,
				"z": -2.2620780028,
				"element": "C" 
			},
			{
				"x": 0.7994483193,
				"y": 1.5805214156,
				"z": -1.387413779,
				"element": "O" 
			},
			{
				"x": -0.3747865079,
				"y": 0.5034256299,
				"z": -1.6143378992,
				"element": "P" 
			},
			{
				"x": -2.195935879,
				"y": 1.1533580659,
				"z": -1.6943879329,
				"element": "S" 
			},
			{
				"x": 0.1914752109,
				"y": -0.3037076436,
				"z": -2.8824562077,
				"element": "O" 
			},
			{
				"x": -0.5783692385,
				"y": -1.3651489734,
				"z": -3.5094228871,
				"element": "C" 
			},
			{
				"x": 0.160131304,
				"y": -1.7897241968,
				"z": -4.7635250052,
				"element": "C" 
			},
			{
				"x": -0.0254942733,
				"y": -0.5658428493,
				"z": -0.4269237978,
				"element": "O" 
			},
			{
				"x": -0.427073355,
				"y": -0.436199121,
				"z": 0.892973758,
				"element": "C" 
			},
			{
				"x": -0.1160890466,
				"y": 0.7068913174,
				"z": 1.6414839086,
				"element": "C" 
			},
			{
				"x": -0.4901401831,
				"y": 0.7607032577,
				"z": 2.9753817673,
				"element": "C" 
			},
			{
				"x": -1.1648695291,
				"y": -0.3096857914,
				"z": 3.5967224966,
				"element": "C" 
			},
			{
				"x": -1.5778673545,
				"y": -0.3067969827,
				"z": 4.9932093293,
				"element": "C" 
			},
			{
				"x": -1.2819043075,
				"y": 0.9010920903,
				"z": 5.8384030306,
				"element": "C" 
			},
			{
				"x": -2.2197824439,
				"y": -1.4119439319,
				"z": 5.4658155586,
				"element": "C" 
			},
			{
				"x": -2.7718087835,
				"y": -1.5505302825,
				"z": 7.11516736,
				"element": "Cl" 
			},
			{
				"x": -2.5134832709,
				"y": -2.5973048718,
				"z": 4.644043951,
				"element": "C" 
			},
			{
				"x": -3.0735422746,
				"y": -3.6000456145,
				"z": 5.0067605343,
				"element": "O" 
			},
			{
				"x": -2.0908580494,
				"y": -2.5250654034,
				"z": 3.324336954,
				"element": "O" 
			},
			{
				"x": -1.4468900119,
				"y": -1.4410039952,
				"z": 2.8091407712,
				"element": "C" 
			},
			{
				"x": -1.0892441092,
				"y": -1.5144391901,
				"z": 1.4635128993,
				"element": "C" 
			},
			{
				"x": 2.9882708847,
				"y": 3.0396802005,
				"z": -1.7337078019,
				"element": "H" 
			},
			{
				"x": 1.8393314743,
				"y": 3.9462687787,
				"z": -0.7272222359,
				"element": "H" 
			},
			{
				"x": 2.1704272505,
				"y": 4.4730652577,
				"z": -2.3883625242,
				"element": "H" 
			},
			{
				"x": -0.0400524939,
				"y": 3.2754938709,
				"z": -2.257667275,
				"element": "H" 
			},
			{
				"x": 1.1126506495,
				"y": 2.3810881912,
				"z": -3.277974821,
				"element": "H" 
			},
			{
				"x": -0.6668029469,
				"y": -2.1917035227,
				"z": -2.7963670826,
				"element": "H" 
			},
			{
				"x": -1.5803551334,
				"y": -0.9870748354,
				"z": -3.7353697091,
				"element": "H" 
			},
			{
				"x": 1.1640675343,
				"y": -2.1496536827,
				"z": -4.5225924267,
				"element": "H" 
			},
			{
				"x": -0.3887731996,
				"y": -2.5978375814,
				"z": -5.257095996,
				"element": "H" 
			},
			{
				"x": 0.2477105834,
				"y": -0.9540589746,
				"z": -5.4634101373,
				"element": "H" 
			},
			{
				"x": 0.4159237175,
				"y": 1.5264130994,
				"z": 1.1742062399,
				"element": "H" 
			},
			{
				"x": -0.2510667545,
				"y": 1.6472954617,
				"z": 3.5511904457,
				"element": "H" 
			},
			{
				"x": -1.7541406241,
				"y": 1.7918401786,
				"z": 5.4095610855,
				"element": "H" 
			},
			{
				"x": -0.2029524854,
				"y": 1.0885741016,
				"z": 5.8728141667,
				"element": "H" 
			},
			{
				"x": -1.6425084725,
				"y": 0.776606442,
				"z": 6.8575433549,
				"element": "H" 
			},
			{
				"x": -1.3274846293,
				"y": -2.3974564347,
				"z": 0.8836090523,
				"element": "H" 
			}
		],
		 "valence_orbital": [ 
			{
				"type": "occ",
				"energy": -0.28254,
				"method": "rhf"
			},
			{
				"type": "occ",
				"energy": -0.2622,
				"method": "rhf"
			},
			{
				"type": "occ",
				"energy": -0.25218,
				"method": "rhf"
			},
			{
				"type": "occ",
				"energy": -0.25028,
				"method": "rhf"
			},
			{
				"type": "occ",
				"energy": -0.23458,
				"method": "rhf"
			},
			{
				"type": "unocc",
				"energy": -0.07224,
				"method": "rhf"
			},
			{
				"type": "unocc",
				"energy": -0.02317,
				"method": "rhf"
			},
			{
				"type": "unocc",
				"energy": -0.00676,
				"method": "rhf"
			},
			{
				"type": "unocc",
				"energy": 0.0283,
				"method": "rhf"
			},
			{
				"type": "unocc",
				"energy": 0.03523,
				"method": "rhf"
			}
		],
		"cosmo_sigma_profile": { 
			"-0.025": 0.0,
			"-0.024": 0.0,
			"-0.023": 0.0,
			"-0.022": 0.0,
			"-0.021": 0.0,
			"-0.02": 0.0,
			"-0.019": 0.0,
			"-0.018": 0.0,
			"-0.017": 0.0,
			"-0.016": 0.0,
			"-0.015": 0.0,
			"-0.014": 0.0,
			"-0.013": 0.0,
			"-0.012": 0.0,
			"-0.011": 0.0,
			"-0.01": 0.0,
			"-0.009": 0.357843251759,
			"-0.008": 2.87552213501,
			"-0.007": 8.43385227601,
			"-0.006": 14.9561517485,
			"-0.005": 26.6195267566,
			"-0.004": 38.1686021322,
			"-0.003": 35.4430376774,
			"-0.002": 37.7518584629,
			"-0.001": 38.5107533003,
			"0.0": 35.0451302485,
			"0.001": 23.4639427817,
			"0.002": 19.7307503299,
			"0.003": 16.6216405487,
			"0.004": 15.9632518383,
			"0.005": 12.7743771165,
			"0.006": 12.2070686171,
			"0.007": 12.6464162279,
			"0.008": 11.4932382379,
			"0.009": 4.64799503496,
			"0.01": 3.18995878619,
			"0.011": 6.38434950951,
			"0.012": 3.85571849827,
			"0.013": 0.204716496955,
			"0.014": 0.0,
			"0.015": 0.0,
			"0.016": 0.0,
			"0.017": 0.0,
			"0.018": 0.0,
			"0.019": 0.0,
			"0.02": 0.0,
			"0.021": 0.0,
			"0.022": 0.0,
			"0.023": 0.0,
			"0.024": 0.0,
			"0.025": 0.0
		}
	}
}
