{
	 "smiles": "CCCC(C)C1(CC=C)C(=O)NC(=S)NC1=O", 
	 "Tm": 405.15, 
	 "num_atms": 35, 
	 "gaussian": { 
		 "optdone": 1, 
		 "sigma_profile": "yes", 
		 "theory": "DFT", 
		 "functional": "B3LYP", 
		 "basiset": "6-31G**", 
		 "properties": { 
			 "R2extent": 4975.986, 
			 "electric_dipole_moment_norm": 1.77151855198, 
			 "electric_quadrupole_moment_norm": 8.50477278003, 
			 "total_energy": -1126.29299021, 
			 "HOMO_LUMO_gap": 0.16114, 
			 "cosmo_polarized_energy": -14.5, 
			 "cosmo_cavitation_energy": 37.68, 
			 "cosmo_dispersion_energy": -25.85, 
			 "cosmo_repulsion_energy": 1.98, 
			 "cosmo_total_nonelectrostatic_energy": 13.8, 
			 "SMD_solvation_energy": 6.7 
		},
		"coords": [
			{
				"x": -0.2818590888,
				"y": 1.8319724724,
				"z": 3.137533902,
				"element": "C" 
			},
			{
				"x": -0.7441476113,
				"y": 2.4819347544,
				"z": 1.828181427,
				"element": "C" 
			},
			{
				"x": -0.9166023112,
				"y": 1.4995226055,
				"z": 0.6547823823,
				"element": "C" 
			},
			{
				"x": 0.3605525388,
				"y": 0.7402638943,
				"z": 0.2237716754,
				"element": "C" 
			},
			{
				"x": 1.4469469408,
				"y": 1.6990196733,
				"z": -0.2813485296,
				"element": "C" 
			},
			{
				"x": 0.0066386473,
				"y": -0.4200817669,
				"z": -0.7901655184,
				"element": "C" 
			},
			{
				"x": 1.2810798284,
				"y": -1.1991741653,
				"z": -1.2911852787,
				"element": "C" 
			},
			{
				"x": 2.2215562956,
				"y": -1.6941094167,
				"z": -0.224148196,
				"element": "C" 
			},
			{
				"x": 3.5349582849,
				"y": -1.4612927242,
				"z": -0.2343317994,
				"element": "C" 
			},
			{
				"x": -0.6488332859,
				"y": 0.1575882079,
				"z": -2.0482176086,
				"element": "C" 
			},
			{
				"x": -0.0797461784,
				"y": 0.922468187,
				"z": -2.8046555824,
				"element": "O" 
			},
			{
				"x": -1.9588207802,
				"y": -0.2281384087,
				"z": -2.339491259,
				"element": "N" 
			},
			{
				"x": -2.7357377182,
				"y": -1.1526121897,
				"z": -1.6862363993,
				"element": "C" 
			},
			{
				"x": -4.2622257406,
				"y": -1.5620906247,
				"z": -2.1848240707,
				"element": "S" 
			},
			{
				"x": -2.1354268611,
				"y": -1.7121930003,
				"z": -0.5844501287,
				"element": "N" 
			},
			{
				"x": -0.885679443,
				"y": -1.4145755065,
				"z": -0.0397584173,
				"element": "C" 
			},
			{
				"x": -0.550356168,
				"y": -1.9614655216,
				"z": 0.9950714274,
				"element": "O" 
			},
			{
				"x": 0.7288877014,
				"y": 1.4187063003,
				"z": 3.0577355807,
				"element": "H" 
			},
			{
				"x": -0.2716500271,
				"y": 2.5628860902,
				"z": 3.9524411776,
				"element": "H" 
			},
			{
				"x": -0.9492786172,
				"y": 1.0138299378,
				"z": 3.431320082,
				"element": "H" 
			},
			{
				"x": -1.7118466254,
				"y": 2.9714435675,
				"z": 1.9941501537,
				"element": "H" 
			},
			{
				"x": -0.0511702118,
				"y": 3.2841443373,
				"z": 1.5483986631,
				"element": "H" 
			},
			{
				"x": -1.310072291,
				"y": 2.0547956043,
				"z": -0.2076962714,
				"element": "H" 
			},
			{
				"x": -1.6943106891,
				"y": 0.7780142796,
				"z": 0.9403040273,
				"element": "H" 
			},
			{
				"x": 0.7544242061,
				"y": 0.2042720697,
				"z": 1.0935130047,
				"element": "H" 
			},
			{
				"x": 1.1153952885,
				"y": 2.2645686523,
				"z": -1.1547686902,
				"element": "H" 
			},
			{
				"x": 1.7043360535,
				"y": 2.4075572108,
				"z": 0.511175473,
				"element": "H" 
			},
			{
				"x": 2.3645451238,
				"y": 1.1689746406,
				"z": -0.5427188902,
				"element": "H" 
			},
			{
				"x": 0.9253057368,
				"y": -2.0563702174,
				"z": -1.8819692654,
				"element": "H" 
			},
			{
				"x": 1.8066399717,
				"y": -0.5416231694,
				"z": -1.9875405107,
				"element": "H" 
			},
			{
				"x": 1.7838280566,
				"y": -2.2967594122,
				"z": 0.5670118754,
				"element": "H" 
			},
			{
				"x": 4.1888336113,
				"y": -1.8694776887,
				"z": 0.5306261242,
				"element": "H" 
			},
			{
				"x": 4.0082887829,
				"y": -0.8650485759,
				"z": -1.0114923785,
				"element": "H" 
			},
			{
				"x": -2.3584763651,
				"y": 0.1810523008,
				"z": -3.1766137902,
				"element": "H" 
			},
			{
				"x": -2.6884770551,
				"y": -2.3867023979,
				"z": -0.0676043908,
				"element": "H" 
			}
		],
		 "valence_orbital": [ 
			{
				"type": "occ",
				"energy": -0.29412,
				"method": "rhf"
			},
			{
				"type": "occ",
				"energy": -0.28733,
				"method": "rhf"
			},
			{
				"type": "occ",
				"energy": -0.26506,
				"method": "rhf"
			},
			{
				"type": "occ",
				"energy": -0.25744,
				"method": "rhf"
			},
			{
				"type": "occ",
				"energy": -0.24152,
				"method": "rhf"
			},
			{
				"type": "unocc",
				"energy": -0.08038,
				"method": "rhf"
			},
			{
				"type": "unocc",
				"energy": -0.01743,
				"method": "rhf"
			},
			{
				"type": "unocc",
				"energy": 0.00546,
				"method": "rhf"
			},
			{
				"type": "unocc",
				"energy": 0.02151,
				"method": "rhf"
			},
			{
				"type": "unocc",
				"energy": 0.04813,
				"method": "rhf"
			}
		],
		"cosmo_sigma_profile": { 
			"-0.025": 0.0,
			"-0.024": 0.0,
			"-0.023": 0.0,
			"-0.022": 0.0,
			"-0.021": 0.0,
			"-0.02": 0.0,
			"-0.019": 0.0,
			"-0.018": 0.0,
			"-0.017": 0.0046011663,
			"-0.016": 1.47279756874,
			"-0.015": 1.68420612046,
			"-0.014": 1.36830472211,
			"-0.013": 1.70921214142,
			"-0.012": 1.83151954857,
			"-0.011": 1.92324294389,
			"-0.01": 2.39392954678,
			"-0.009": 2.11360425319,
			"-0.008": 3.72631502031,
			"-0.007": 4.56647908261,
			"-0.006": 5.5987851838,
			"-0.005": 11.6097132861,
			"-0.004": 17.6251755427,
			"-0.003": 25.9301941343,
			"-0.002": 31.3685574674,
			"-0.001": 32.2188969763,
			"0.0": 29.065032222,
			"0.001": 27.7791575174,
			"0.002": 16.262858307,
			"0.003": 11.0826072106,
			"0.004": 8.89141944252,
			"0.005": 10.9252934215,
			"0.006": 9.91331094985,
			"0.007": 10.0313633752,
			"0.008": 7.3683854092,
			"0.009": 7.31350481697,
			"0.01": 5.14870611022,
			"0.011": 6.45234424965,
			"0.012": 0.795584104039,
			"0.013": 0.0,
			"0.014": 0.0,
			"0.015": 0.0,
			"0.016": 0.0,
			"0.017": 0.0,
			"0.018": 0.0,
			"0.019": 0.0,
			"0.02": 0.0,
			"0.021": 0.0,
			"0.022": 0.0,
			"0.023": 0.0,
			"0.024": 0.0,
			"0.025": 0.0
		}
	}
}
