{
	 "smiles": "COC(=O)C1=C(O)C=C(C)S1", 
	 "Tm": 325.15, 
	 "num_atms": 19, 
	 "gaussian": { 
		 "optdone": 1, 
		 "sigma_profile": "yes", 
		 "theory": "DFT", 
		 "functional": "B3LYP", 
		 "basiset": "6-31G**", 
		 "properties": { 
			 "R2extent": 2927.716, 
			 "electric_dipole_moment_norm": 2.10407027449, 
			 "electric_quadrupole_moment_norm": 11.80881467, 
			 "total_energy": -895.43499268, 
			 "HOMO_LUMO_gap": 0.17436, 
			 "cosmo_polarized_energy": -7.48, 
			 "cosmo_cavitation_energy": 24.74, 
			 "cosmo_dispersion_energy": -19.02, 
			 "cosmo_repulsion_energy": 1.49, 
			 "cosmo_total_nonelectrostatic_energy": 7.21, 
			 "SMD_solvation_energy": 5.96 
		},
		"coords": [
			{
				"x": 2.4991528476,
				"y": 1.5644348128,
				"z": -3.8031414422,
				"element": "C" 
			},
			{
				"x": 2.3224956335,
				"y": 1.519694373,
				"z": -2.3779182063,
				"element": "O" 
			},
			{
				"x": 1.268156231,
				"y": 0.8046978732,
				"z": -1.9422029443,
				"element": "C" 
			},
			{
				"x": 0.4930540853,
				"y": 0.2188855385,
				"z": -2.7075346017,
				"element": "O" 
			},
			{
				"x": 1.1135196622,
				"y": 0.7757679286,
				"z": -0.5109960235,
				"element": "C" 
			},
			{
				"x": 0.0759091248,
				"y": 0.0829425551,
				"z": 0.1050380512,
				"element": "C" 
			},
			{
				"x": -0.8631690988,
				"y": -0.6112359139,
				"z": -0.5470939604,
				"element": "O" 
			},
			{
				"x": 0.1087613657,
				"y": 0.1849334097,
				"z": 1.527342466,
				"element": "C" 
			},
			{
				"x": 1.1552447676,
				"y": 0.9434990513,
				"z": 1.9824395256,
				"element": "C" 
			},
			{
				"x": 1.4960637955,
				"y": 1.2614731237,
				"z": 3.4074134692,
				"element": "C" 
			},
			{
				"x": 2.1379114179,
				"y": 1.5595174399,
				"z": 0.6751683053,
				"element": "S" 
			},
			{
				"x": 1.627531477,
				"y": 2.01344266,
				"z": -4.2855697163,
				"element": "H" 
			},
			{
				"x": 2.6476109014,
				"y": 0.5590918905,
				"z": -4.2047893531,
				"element": "H" 
			},
			{
				"x": 3.3853857125,
				"y": 2.1769107247,
				"z": -3.9672738674,
				"element": "H" 
			},
			{
				"x": -0.6513498704,
				"y": -0.5159702268,
				"z": -1.5068088293,
				"element": "H" 
			},
			{
				"x": -0.6215008853,
				"y": -0.2910427065,
				"z": 2.1707330788,
				"element": "H" 
			},
			{
				"x": 1.4815089194,
				"y": 2.3409505282,
				"z": 3.5939392844,
				"element": "H" 
			},
			{
				"x": 0.7724645263,
				"y": 0.7919434897,
				"z": 4.078552707,
				"element": "H" 
			},
			{
				"x": 2.4937493868,
				"y": 0.8958634482,
				"z": 3.6743020571,
				"element": "H" 
			}
		],
		 "valence_orbital": [ 
			{
				"type": "occ",
				"energy": -0.33572,
				"method": "rhf"
			},
			{
				"type": "occ",
				"energy": -0.30626,
				"method": "rhf"
			},
			{
				"type": "occ",
				"energy": -0.28478,
				"method": "rhf"
			},
			{
				"type": "occ",
				"energy": -0.24807,
				"method": "rhf"
			},
			{
				"type": "occ",
				"energy": -0.21988,
				"method": "rhf"
			},
			{
				"type": "unocc",
				"energy": -0.04552,
				"method": "rhf"
			},
			{
				"type": "unocc",
				"energy": 0.02274,
				"method": "rhf"
			},
			{
				"type": "unocc",
				"energy": 0.03689,
				"method": "rhf"
			},
			{
				"type": "unocc",
				"energy": 0.07944,
				"method": "rhf"
			},
			{
				"type": "unocc",
				"energy": 0.1094,
				"method": "rhf"
			}
		],
		"cosmo_sigma_profile": { 
			"-0.025": 0.0,
			"-0.024": 0.0,
			"-0.023": 0.0,
			"-0.022": 0.0,
			"-0.021": 0.0,
			"-0.02": 0.0,
			"-0.019": 0.0,
			"-0.018": 0.0,
			"-0.017": 0.0,
			"-0.016": 0.0,
			"-0.015": 0.0,
			"-0.014": 0.0,
			"-0.013": 0.0,
			"-0.012": 0.0,
			"-0.011": 0.0,
			"-0.01": 0.0,
			"-0.009": 0.232124887167,
			"-0.008": 0.876049115701,
			"-0.007": 3.63806418524,
			"-0.006": 10.9521296296,
			"-0.005": 15.8355807667,
			"-0.004": 19.8378083004,
			"-0.003": 17.2537483811,
			"-0.002": 16.2317224222,
			"-0.001": 15.7725405856,
			"0.0": 11.1446658394,
			"0.001": 12.768368197,
			"0.002": 20.6072652815,
			"0.003": 16.6334921402,
			"0.004": 9.90252294671,
			"0.005": 5.9303652068,
			"0.006": 4.4185741218,
			"0.007": 3.95768648834,
			"0.008": 2.27122189006,
			"0.009": 3.40779676873,
			"0.01": 3.23933470541,
			"0.011": 3.0996240716,
			"0.012": 1.08172302249,
			"0.013": 0.021980486201,
			"0.014": 0.0,
			"0.015": 0.0,
			"0.016": 0.0,
			"0.017": 0.0,
			"0.018": 0.0,
			"0.019": 0.0,
			"0.02": 0.0,
			"0.021": 0.0,
			"0.022": 0.0,
			"0.023": 0.0,
			"0.024": 0.0,
			"0.025": 0.0
		}
	}
}
