{
	 "smiles": "CCN(C(=O)OC1=CC=CC(NC(=O)OC(C)C)=C1)C1=CC=CC=C1", 
	 "Tm": 383.15, 
	 "num_atms": 47, 
	 "gaussian": { 
		 "optdone": 1, 
		 "sigma_profile": "yes", 
		 "theory": "DFT", 
		 "functional": "B3LYP", 
		 "basiset": "6-31G**", 
		 "properties": { 
			 "R2extent": 12509.3828, 
			 "electric_dipole_moment_norm": 2.93560768837, 
			 "electric_quadrupole_moment_norm": 17.239186035, 
			 "total_energy": -1147.73302879, 
			 "HOMO_LUMO_gap": 0.20581, 
			 "cosmo_polarized_energy": -16.94, 
			 "cosmo_cavitation_energy": 50.7, 
			 "cosmo_dispersion_energy": -34.05, 
			 "cosmo_repulsion_energy": 2.58, 
			 "cosmo_total_nonelectrostatic_energy": 19.23, 
			 "SMD_solvation_energy": 10.57 
		},
		"coords": [
			{
				"x": 2.4480934757,
				"y": -1.8642985741,
				"z": -0.3004057685,
				"element": "C" 
			},
			{
				"x": 1.4980249052,
				"y": -2.6376355349,
				"z": 0.6181217533,
				"element": "C" 
			},
			{
				"x": 0.1543362258,
				"y": -2.8793946878,
				"z": 0.0491557074,
				"element": "N" 
			},
			{
				"x": -0.7937515023,
				"y": -1.879528237,
				"z": 0.0262037658,
				"element": "C" 
			},
			{
				"x": -1.909230036,
				"y": -1.9514483732,
				"z": -0.4444189568,
				"element": "O" 
			},
			{
				"x": -0.2854838517,
				"y": -0.7470880467,
				"z": 0.6270141336,
				"element": "O" 
			},
			{
				"x": -1.0883216423,
				"y": 0.383710423,
				"z": 0.7740880853,
				"element": "C" 
			},
			{
				"x": -2.3794171718,
				"y": 0.3223821735,
				"z": 1.2937619015,
				"element": "C" 
			},
			{
				"x": -3.0596778662,
				"y": 1.52502535,
				"z": 1.4846184473,
				"element": "C" 
			},
			{
				"x": -2.4687014019,
				"y": 2.7450936733,
				"z": 1.1731050233,
				"element": "C" 
			},
			{
				"x": -1.1633042119,
				"y": 2.7902807676,
				"z": 0.6536502177,
				"element": "C" 
			},
			{
				"x": -0.637609391,
				"y": 4.067625505,
				"z": 0.3774410552,
				"element": "N" 
			},
			{
				"x": 0.5315648229,
				"y": 4.5223089947,
				"z": -0.1951180584,
				"element": "C" 
			},
			{
				"x": 0.7463911476,
				"y": 5.7129434877,
				"z": -0.3453552662,
				"element": "O" 
			},
			{
				"x": 1.3726866196,
				"y": 3.5322898078,
				"z": -0.5569791107,
				"element": "O" 
			},
			{
				"x": 2.6311475042,
				"y": 3.9485071825,
				"z": -1.1720612536,
				"element": "C" 
			},
			{
				"x": 3.6333206515,
				"y": 4.3125432812,
				"z": -0.082604634,
				"element": "C" 
			},
			{
				"x": 3.0718021655,
				"y": 2.7823384722,
				"z": -2.0450377856,
				"element": "C" 
			},
			{
				"x": -0.4692592556,
				"y": 1.5898949634,
				"z": 0.4531902812,
				"element": "C" 
			},
			{
				"x": -0.1517692009,
				"y": -4.1706059346,
				"z": -0.4894831796,
				"element": "C" 
			},
			{
				"x": 0.8473989828,
				"y": -4.9005583671,
				"z": -1.149757173,
				"element": "C" 
			},
			{
				"x": 0.5863481836,
				"y": -6.1836047428,
				"z": -1.6316759252,
				"element": "C" 
			},
			{
				"x": -0.6753420667,
				"y": -6.7545695692,
				"z": -1.4738625793,
				"element": "C" 
			},
			{
				"x": -1.6727464403,
				"y": -6.0271325068,
				"z": -0.8217924597,
				"element": "C" 
			},
			{
				"x": -1.4196911781,
				"y": -4.7498963961,
				"z": -0.3261456256,
				"element": "C" 
			},
			{
				"x": 3.4180895518,
				"y": -1.7388997397,
				"z": 0.1926904426,
				"element": "H" 
			},
			{
				"x": 2.6134747995,
				"y": -2.3839629966,
				"z": -1.2485701235,
				"element": "H" 
			},
			{
				"x": 2.0471709016,
				"y": -0.8724239389,
				"z": -0.5211902532,
				"element": "H" 
			},
			{
				"x": 1.3748136418,
				"y": -2.0971982319,
				"z": 1.5587340888,
				"element": "H" 
			},
			{
				"x": 1.9112146995,
				"y": -3.618896198,
				"z": 0.8606628171,
				"element": "H" 
			},
			{
				"x": -2.8397909153,
				"y": -0.6288830003,
				"z": 1.5224805046,
				"element": "H" 
			},
			{
				"x": -4.0693648623,
				"y": 1.5097486434,
				"z": 1.8836813272,
				"element": "H" 
			},
			{
				"x": -3.0175407836,
				"y": 3.670150764,
				"z": 1.3297345879,
				"element": "H" 
			},
			{
				"x": -1.2378052348,
				"y": 4.8457823464,
				"z": 0.6115866672,
				"element": "H" 
			},
			{
				"x": 2.4149798602,
				"y": 4.8290173229,
				"z": -1.7826017965,
				"element": "H" 
			},
			{
				"x": 3.8137894372,
				"y": 3.4579403796,
				"z": 0.5777276042,
				"element": "H" 
			},
			{
				"x": 4.5867474457,
				"y": 4.6067089858,
				"z": -0.5334140437,
				"element": "H" 
			},
			{
				"x": 3.2626273848,
				"y": 5.1511906264,
				"z": 0.5108124468,
				"element": "H" 
			},
			{
				"x": 2.3057427755,
				"y": 2.538824936,
				"z": -2.7862081562,
				"element": "H" 
			},
			{
				"x": 3.9941902074,
				"y": 3.0413144854,
				"z": -2.573855995,
				"element": "H" 
			},
			{
				"x": 3.2651262225,
				"y": 1.8905910799,
				"z": -1.4395152201,
				"element": "H" 
			},
			{
				"x": 0.5356854471,
				"y": 1.5836645984,
				"z": 0.0609479317,
				"element": "H" 
			},
			{
				"x": 1.829996799,
				"y": -4.4684655572,
				"z": -1.3006553089,
				"element": "H" 
			},
			{
				"x": 1.3753455923,
				"y": -6.729971707,
				"z": -2.1405240993,
				"element": "H" 
			},
			{
				"x": -0.8800602553,
				"y": -7.7507221488,
				"z": -1.8542408495,
				"element": "H" 
			},
			{
				"x": -2.6605073972,
				"y": -6.4585030901,
				"z": -0.6866087939,
				"element": "H" 
			},
			{
				"x": -2.2028347851,
				"y": -4.1961906714,
				"z": 0.1727736261,
				"element": "H" 
			}
		],
		 "valence_orbital": [ 
			{
				"type": "occ",
				"energy": -0.27727,
				"method": "rhf"
			},
			{
				"type": "occ",
				"energy": -0.24944,
				"method": "rhf"
			},
			{
				"type": "occ",
				"energy": -0.24505,
				"method": "rhf"
			},
			{
				"type": "occ",
				"energy": -0.22211,
				"method": "rhf"
			},
			{
				"type": "occ",
				"energy": -0.21761,
				"method": "rhf"
			},
			{
				"type": "unocc",
				"energy": -0.0118,
				"method": "rhf"
			},
			{
				"type": "unocc",
				"energy": -0.00603,
				"method": "rhf"
			},
			{
				"type": "unocc",
				"energy": -0.00067,
				"method": "rhf"
			},
			{
				"type": "unocc",
				"energy": 0.00345,
				"method": "rhf"
			},
			{
				"type": "unocc",
				"energy": 0.05103,
				"method": "rhf"
			}
		],
		"cosmo_sigma_profile": { 
			"-0.025": 0.0,
			"-0.024": 0.0,
			"-0.023": 0.0,
			"-0.022": 0.0,
			"-0.021": 0.0,
			"-0.02": 0.0,
			"-0.019": 0.0,
			"-0.018": 0.0,
			"-0.017": 0.0,
			"-0.016": 0.0,
			"-0.015": 0.558627939771,
			"-0.014": 1.42961748364,
			"-0.013": 1.16955414368,
			"-0.012": 0.835075235595,
			"-0.011": 0.895686372033,
			"-0.01": 1.43087819519,
			"-0.009": 1.13242203262,
			"-0.008": 1.20448746396,
			"-0.007": 2.33315450503,
			"-0.006": 11.9616591258,
			"-0.005": 21.7967023426,
			"-0.004": 37.3167165019,
			"-0.003": 41.7342553239,
			"-0.002": 42.6387661985,
			"-0.001": 39.2388609687,
			"0.0": 43.2602043398,
			"0.001": 29.0459337363,
			"0.002": 21.6402243442,
			"0.003": 24.4906964388,
			"0.004": 22.03349349,
			"0.005": 17.6713517385,
			"0.006": 8.54903025661,
			"0.007": 2.81074826958,
			"0.008": 3.30093541176,
			"0.009": 3.71936181379,
			"0.01": 2.8900882885,
			"0.011": 4.20888852286,
			"0.012": 7.37803652824,
			"0.013": 5.4419169435,
			"0.014": 0.169158353749,
			"0.015": 0.0,
			"0.016": 0.0,
			"0.017": 0.0,
			"0.018": 0.0,
			"0.019": 0.0,
			"0.02": 0.0,
			"0.021": 0.0,
			"0.022": 0.0,
			"0.023": 0.0,
			"0.024": 0.0,
			"0.025": 0.0
		}
	}
}
