{
	 "smiles": "CCCCCC1=CC=C(OC(=O)C2=CC=C(OC(=O)C3=CC=C(CCCCC)C=C3)C=C2Cl)C=C1", 
	 "Tm": 353.65, 
	 "num_atms": 68, 
	 "gaussian": { 
		 "optdone": 1, 
		 "sigma_profile": "yes", 
		 "theory": "DFT", 
		 "functional": "B3LYP", 
		 "basiset": "6-31G**", 
		 "properties": { 
			 "R2extent": 46379.8922, 
			 "electric_dipole_moment_norm": 4.23396949092, 
			 "electric_quadrupole_moment_norm": 38.8985929292, 
			 "total_energy": -1924.22225786, 
			 "HOMO_LUMO_gap": 0.16328, 
			 "cosmo_polarized_energy": -12.77, 
			 "cosmo_cavitation_energy": 73.11, 
			 "cosmo_dispersion_energy": -49.91, 
			 "cosmo_repulsion_energy": 3.77, 
			 "cosmo_total_nonelectrostatic_energy": 26.98, 
			 "SMD_solvation_energy": 12.68 
		},
		"coords": [
			{
				"x": -8.8695698747,
				"y": 2.5113656247,
				"z": 5.4158129491,
				"element": "C" 
			},
			{
				"x": -8.8132953955,
				"y": 1.2105816548,
				"z": 6.2262709854,
				"element": "C" 
			},
			{
				"x": -8.2327439709,
				"y": 0.0084979807,
				"z": 5.4624420481,
				"element": "C" 
			},
			{
				"x": -9.0925406587,
				"y": -0.4696278545,
				"z": 4.2851721127,
				"element": "C" 
			},
			{
				"x": -8.5357963507,
				"y": -1.720221114,
				"z": 3.5680091956,
				"element": "C" 
			},
			{
				"x": -7.2218030729,
				"y": -1.4900226643,
				"z": 2.8499255055,
				"element": "C" 
			},
			{
				"x": -6.0050884283,
				"y": -1.9274849208,
				"z": 3.3886970146,
				"element": "C" 
			},
			{
				"x": -4.7971689641,
				"y": -1.6915739178,
				"z": 2.7326790223,
				"element": "C" 
			},
			{
				"x": -4.7996715538,
				"y": -1.0089126272,
				"z": 1.5193967054,
				"element": "C" 
			},
			{
				"x": -3.5556097012,
				"y": -0.889708094,
				"z": 0.8928972414,
				"element": "O" 
			},
			{
				"x": -3.1862212222,
				"y": 0.250733889,
				"z": 0.2614010339,
				"element": "C" 
			},
			{
				"x": -3.8639916223,
				"y": 1.2558132887,
				"z": 0.2158632913,
				"element": "O" 
			},
			{
				"x": -1.8158575314,
				"y": 0.1720364761,
				"z": -0.3366485433,
				"element": "C" 
			},
			{
				"x": -1.2366895009,
				"y": 1.4221136616,
				"z": -0.6248663083,
				"element": "C" 
			},
			{
				"x": 0.0314681525,
				"y": 1.5413826548,
				"z": -1.1673871409,
				"element": "C" 
			},
			{
				"x": 0.7591264297,
				"y": 0.3839989795,
				"z": -1.4534016668,
				"element": "C" 
			},
			{
				"x": 2.0417994166,
				"y": 0.5982303193,
				"z": -1.9256496008,
				"element": "O" 
			},
			{
				"x": 2.6754743819,
				"y": -0.2576788979,
				"z": -2.8003463799,
				"element": "C" 
			},
			{
				"x": 2.1665018105,
				"y": -1.2613712782,
				"z": -3.2459771301,
				"element": "O" 
			},
			{
				"x": 4.0430380075,
				"y": 0.2194693154,
				"z": -3.1193379041,
				"element": "C" 
			},
			{
				"x": 4.8062462358,
				"y": -0.5471338421,
				"z": -4.0140701464,
				"element": "C" 
			},
			{
				"x": 6.0938213526,
				"y": -0.1505057022,
				"z": -4.3515804476,
				"element": "C" 
			},
			{
				"x": 6.6596190691,
				"y": 1.0160724766,
				"z": -3.8096528321,
				"element": "C" 
			},
			{
				"x": 8.0700518147,
				"y": 1.426134699,
				"z": -4.1752852579,
				"element": "C" 
			},
			{
				"x": 9.1648758105,
				"y": 0.5474283488,
				"z": -3.5197159255,
				"element": "C" 
			},
			{
				"x": 9.2898887298,
				"y": 0.6533926671,
				"z": -1.98423004,
				"element": "C" 
			},
			{
				"x": 10.285879544,
				"y": 1.7058315925,
				"z": -1.4636096831,
				"element": "C" 
			},
			{
				"x": 9.9484856005,
				"y": 3.1674616274,
				"z": -1.7810592752,
				"element": "C" 
			},
			{
				"x": 5.8854613857,
				"y": 1.7749177638,
				"z": -2.9200609866,
				"element": "C" 
			},
			{
				"x": 4.5927918366,
				"y": 1.3875344885,
				"z": -2.5740212177,
				"element": "C" 
			},
			{
				"x": 0.2198227273,
				"y": -0.8767627874,
				"z": -1.1995700338,
				"element": "C" 
			},
			{
				"x": -1.0591291198,
				"y": -0.9757779676,
				"z": -0.645214804,
				"element": "C" 
			},
			{
				"x": -1.6461973362,
				"y": -2.6131906616,
				"z": -0.4176326559,
				"element": "Cl" 
			},
			{
				"x": -5.9936665038,
				"y": -0.5693152382,
				"z": 0.9469796286,
				"element": "C" 
			},
			{
				"x": -7.1888148461,
				"y": -0.8142653717,
				"z": 1.6210555056,
				"element": "C" 
			},
			{
				"x": -9.5333998167,
				"y": 2.4263240054,
				"z": 4.5493492721,
				"element": "H" 
			},
			{
				"x": -7.875829288,
				"y": 2.7871093583,
				"z": 5.0443401259,
				"element": "H" 
			},
			{
				"x": -9.2373718767,
				"y": 3.3410426047,
				"z": 6.0286571945,
				"element": "H" 
			},
			{
				"x": -8.2057289995,
				"y": 1.3787768374,
				"z": 7.1247199443,
				"element": "H" 
			},
			{
				"x": -9.8209694696,
				"y": 0.9594032079,
				"z": 6.5858174949,
				"element": "H" 
			},
			{
				"x": -7.2265529696,
				"y": 0.2602609314,
				"z": 5.1025728213,
				"element": "H" 
			},
			{
				"x": -8.1049734637,
				"y": -0.8274037781,
				"z": 6.1646908804,
				"element": "H" 
			},
			{
				"x": -10.1034081025,
				"y": -0.7006053423,
				"z": 4.6485846047,
				"element": "H" 
			},
			{
				"x": -9.2061260816,
				"y": 0.3362809849,
				"z": 3.5496168698,
				"element": "H" 
			},
			{
				"x": -8.4144973014,
				"y": -2.5286808698,
				"z": 4.2997914504,
				"element": "H" 
			},
			{
				"x": -9.2838545154,
				"y": -2.0676217585,
				"z": 2.8443914459,
				"element": "H" 
			},
			{
				"x": -5.999489262,
				"y": -2.4648320473,
				"z": 4.333373206,
				"element": "H" 
			},
			{
				"x": -3.8540421697,
				"y": -2.0356527088,
				"z": 3.1440149311,
				"element": "H" 
			},
			{
				"x": -1.8267651675,
				"y": 2.3040263161,
				"z": -0.4038619572,
				"element": "H" 
			},
			{
				"x": 0.4696158516,
				"y": 2.5113283961,
				"z": -1.3740714579,
				"element": "H" 
			},
			{
				"x": 4.3677932435,
				"y": -1.4457207258,
				"z": -4.4348201642,
				"element": "H" 
			},
			{
				"x": 6.6718053895,
				"y": -0.7492307662,
				"z": -5.0511028925,
				"element": "H" 
			},
			{
				"x": 8.221515036,
				"y": 2.4769507319,
				"z": -3.9117880357,
				"element": "H" 
			},
			{
				"x": 8.1858894061,
				"y": 1.3574882654,
				"z": -5.264414874,
				"element": "H" 
			},
			{
				"x": 10.1299894231,
				"y": 0.7936242041,
				"z": -3.9821573212,
				"element": "H" 
			},
			{
				"x": 8.9603665954,
				"y": -0.4952235282,
				"z": -3.7917566834,
				"element": "H" 
			},
			{
				"x": 8.2998859557,
				"y": 0.8321321252,
				"z": -1.5441003495,
				"element": "H" 
			},
			{
				"x": 9.6119545757,
				"y": -0.3210465392,
				"z": -1.5970634108,
				"element": "H" 
			},
			{
				"x": 10.3618797038,
				"y": 1.5915874087,
				"z": -0.3745333627,
				"element": "H" 
			},
			{
				"x": 11.2842753521,
				"y": 1.4739717679,
				"z": -1.8596555148,
				"element": "H" 
			},
			{
				"x": 9.9829153515,
				"y": 3.3732020328,
				"z": -2.8558216615,
				"element": "H" 
			},
			{
				"x": 10.6618785525,
				"y": 3.8449044988,
				"z": -1.299893649,
				"element": "H" 
			},
			{
				"x": 8.947699336,
				"y": 3.4335590639,
				"z": -1.4206357279,
				"element": "H" 
			},
			{
				"x": 6.3004633907,
				"y": 2.6859471694,
				"z": -2.4973665747,
				"element": "H" 
			},
			{
				"x": 4.0087229254,
				"y": 1.9870997806,
				"z": -1.88573423,
				"element": "H" 
			},
			{
				"x": 0.7682840369,
				"y": -1.7730727659,
				"z": -1.4452014805,
				"element": "H" 
			},
			{
				"x": -5.988959716,
				"y": -0.0429397752,
				"z": 0.0018034844,
				"element": "H" 
			},
			{
				"x": -8.1201625774,
				"y": -0.4748336543,
				"z": 1.1740713624,
				"element": "H" 
			}
		],
		 "valence_orbital": [ 
			{
				"type": "occ",
				"energy": -0.26228,
				"method": "rhf"
			},
			{
				"type": "occ",
				"energy": -0.25688,
				"method": "rhf"
			},
			{
				"type": "occ",
				"energy": -0.25091,
				"method": "rhf"
			},
			{
				"type": "occ",
				"energy": -0.24861,
				"method": "rhf"
			},
			{
				"type": "occ",
				"energy": -0.22849,
				"method": "rhf"
			},
			{
				"type": "unocc",
				"energy": -0.06521,
				"method": "rhf"
			},
			{
				"type": "unocc",
				"energy": -0.04537,
				"method": "rhf"
			},
			{
				"type": "unocc",
				"energy": -0.02067,
				"method": "rhf"
			},
			{
				"type": "unocc",
				"energy": -0.01558,
				"method": "rhf"
			},
			{
				"type": "unocc",
				"energy": -0.00134,
				"method": "rhf"
			}
		],
		"cosmo_sigma_profile": { 
			"-0.025": 0.0,
			"-0.024": 0.0,
			"-0.023": 0.0,
			"-0.022": 0.0,
			"-0.021": 0.0,
			"-0.02": 0.0,
			"-0.019": 0.0,
			"-0.018": 0.0,
			"-0.017": 0.0,
			"-0.016": 0.0,
			"-0.015": 0.0,
			"-0.014": 0.0,
			"-0.013": 0.0,
			"-0.012": 0.0,
			"-0.011": 0.0,
			"-0.01": 0.0,
			"-0.009": 0.0,
			"-0.008": 1.06389211504,
			"-0.007": 3.6909067715,
			"-0.006": 13.1794709067,
			"-0.005": 22.04762326,
			"-0.004": 29.9221579739,
			"-0.003": 43.6689838708,
			"-0.002": 68.5765201253,
			"-0.001": 80.3187503037,
			"0.0": 87.5793737826,
			"0.001": 82.496811853,
			"0.002": 46.2751711723,
			"0.003": 29.5553584862,
			"0.004": 28.8261778105,
			"0.005": 14.62520121,
			"0.006": 4.77342540351,
			"0.007": 3.47471107799,
			"0.008": 4.05847087107,
			"0.009": 3.28936047433,
			"0.01": 5.64901327474,
			"0.011": 5.79253635112,
			"0.012": 0.605839868654,
			"0.013": 0.0,
			"0.014": 0.0,
			"0.015": 0.0,
			"0.016": 0.0,
			"0.017": 0.0,
			"0.018": 0.0,
			"0.019": 0.0,
			"0.02": 0.0,
			"0.021": 0.0,
			"0.022": 0.0,
			"0.023": 0.0,
			"0.024": 0.0,
			"0.025": 0.0
		}
	}
}
