{
	 "smiles": "O=C(OC1=CC=CC=C1)C1=C2C=CC=CC2=NC2=C1C=CC=C2", 
	 "Tm": 463.15, 
	 "num_atms": 36, 
	 "gaussian": { 
		 "optdone": 1, 
		 "sigma_profile": "yes", 
		 "theory": "DFT", 
		 "functional": "B3LYP", 
		 "basiset": "6-31G**", 
		 "properties": { 
			 "R2extent": 8319.4544, 
			 "electric_dipole_moment_norm": 1.97706612434, 
			 "electric_quadrupole_moment_norm": 9.97752609368, 
			 "total_energy": -975.174604932, 
			 "HOMO_LUMO_gap": 0.12788, 
			 "cosmo_polarized_energy": -10.8, 
			 "cosmo_cavitation_energy": 40.68, 
			 "cosmo_dispersion_energy": -29.26, 
			 "cosmo_repulsion_energy": 2.19, 
			 "cosmo_total_nonelectrostatic_energy": 13.6, 
			 "SMD_solvation_energy": 5.66 
		},
		"coords": [
			{
				"x": -0.6908989597,
				"y": -1.7256893973,
				"z": -1.1381847826,
				"element": "O" 
			},
			{
				"x": -0.08571051,
				"y": -0.9225252751,
				"z": -0.466433309,
				"element": "C" 
			},
			{
				"x": -0.6760987375,
				"y": -0.0581800128,
				"z": 0.4119515247,
				"element": "O" 
			},
			{
				"x": -2.0657757258,
				"y": -0.0383313083,
				"z": 0.5864930237,
				"element": "C" 
			},
			{
				"x": -2.5019669363,
				"y": 0.0692446032,
				"z": 1.9057753711,
				"element": "C" 
			},
			{
				"x": -3.8680915303,
				"y": 0.1748304607,
				"z": 2.1659422472,
				"element": "C" 
			},
			{
				"x": -4.7853423964,
				"y": 0.1718706054,
				"z": 1.1131597729,
				"element": "C" 
			},
			{
				"x": -4.3295234841,
				"y": 0.0667934095,
				"z": -0.2023560118,
				"element": "C" 
			},
			{
				"x": -2.965271352,
				"y": -0.0371637908,
				"z": -0.479609755,
				"element": "C" 
			},
			{
				"x": 1.4069312849,
				"y": -0.7675905709,
				"z": -0.4490410629,
				"element": "C" 
			},
			{
				"x": 2.0225932053,
				"y": 0.4945997028,
				"z": -0.6019791055,
				"element": "C" 
			},
			{
				"x": 1.3188583817,
				"y": 1.7239839329,
				"z": -0.8117686616,
				"element": "C" 
			},
			{
				"x": 1.9966884957,
				"y": 2.9033498315,
				"z": -0.9774768957,
				"element": "C" 
			},
			{
				"x": 3.4204895304,
				"y": 2.942768697,
				"z": -0.9443820797,
				"element": "C" 
			},
			{
				"x": 4.1342434399,
				"y": 1.7916462873,
				"z": -0.7537687956,
				"element": "C" 
			},
			{
				"x": 3.4689010732,
				"y": 0.5361188238,
				"z": -0.5844932199,
				"element": "C" 
			},
			{
				"x": 4.2351783898,
				"y": -0.5514256299,
				"z": -0.4172579957,
				"element": "N" 
			},
			{
				"x": 3.640314812,
				"y": -1.7454912453,
				"z": -0.2804643853,
				"element": "C" 
			},
			{
				"x": 2.2052560037,
				"y": -1.9249072393,
				"z": -0.3050786811,
				"element": "C" 
			},
			{
				"x": 1.6881291972,
				"y": -3.2513509212,
				"z": -0.1515469458,
				"element": "C" 
			},
			{
				"x": 2.5335932167,
				"y": -4.3166925039,
				"z": 0.016535863,
				"element": "C" 
			},
			{
				"x": 3.9469956344,
				"y": -4.1373555215,
				"z": 0.0422042428,
				"element": "C" 
			},
			{
				"x": 4.4836922728,
				"y": -2.8875331003,
				"z": -0.1026242206,
				"element": "C" 
			},
			{
				"x": -1.7688494839,
				"y": 0.0735148349,
				"z": 2.7054696462,
				"element": "H" 
			},
			{
				"x": -4.2126734508,
				"y": 0.2596664025,
				"z": 3.1922161647,
				"element": "H" 
			},
			{
				"x": -5.8488778942,
				"y": 0.2522007752,
				"z": 1.3162182423,
				"element": "H" 
			},
			{
				"x": -5.03817402,
				"y": 0.0652052309,
				"z": -1.0252523799,
				"element": "H" 
			},
			{
				"x": -2.6110019683,
				"y": -0.1279745112,
				"z": -1.4980426396,
				"element": "H" 
			},
			{
				"x": 0.2366734137,
				"y": 1.7200087673,
				"z": -0.8357661057,
				"element": "H" 
			},
			{
				"x": 1.4414438391,
				"y": 3.8229546799,
				"z": -1.137214726,
				"element": "H" 
			},
			{
				"x": 3.9331331278,
				"y": 3.8911552297,
				"z": -1.075668099,
				"element": "H" 
			},
			{
				"x": 5.2187552121,
				"y": 1.779095678,
				"z": -0.729796576,
				"element": "H" 
			},
			{
				"x": 0.617690747,
				"y": -3.4084125898,
				"z": -0.1870861096,
				"element": "H" 
			},
			{
				"x": 2.1213665866,
				"y": -5.3151911018,
				"z": 0.1287143318,
				"element": "H" 
			},
			{
				"x": 4.593640548,
				"y": -4.9995659315,
				"z": 0.176525676,
				"element": "H" 
			},
			{
				"x": 5.5538880371,
				"y": -2.7104273018,
				"z": -0.0888135625,
				"element": "H" 
			}
		],
		 "valence_orbital": [ 
			{
				"type": "occ",
				"energy": -0.25962,
				"method": "rhf"
			},
			{
				"type": "occ",
				"energy": -0.25578,
				"method": "rhf"
			},
			{
				"type": "occ",
				"energy": -0.2499,
				"method": "rhf"
			},
			{
				"type": "occ",
				"energy": -0.24729,
				"method": "rhf"
			},
			{
				"type": "occ",
				"energy": -0.21406,
				"method": "rhf"
			},
			{
				"type": "unocc",
				"energy": -0.08618,
				"method": "rhf"
			},
			{
				"type": "unocc",
				"energy": -0.02444,
				"method": "rhf"
			},
			{
				"type": "unocc",
				"energy": -0.02225,
				"method": "rhf"
			},
			{
				"type": "unocc",
				"energy": -0.01008,
				"method": "rhf"
			},
			{
				"type": "unocc",
				"energy": -0.0001,
				"method": "rhf"
			}
		],
		"cosmo_sigma_profile": { 
			"-0.025": 0.0,
			"-0.024": 0.0,
			"-0.023": 0.0,
			"-0.022": 0.0,
			"-0.021": 0.0,
			"-0.02": 0.0,
			"-0.019": 0.0,
			"-0.018": 0.0,
			"-0.017": 0.0,
			"-0.016": 0.0,
			"-0.015": 0.0,
			"-0.014": 0.0,
			"-0.013": 0.0,
			"-0.012": 0.0,
			"-0.011": 0.0,
			"-0.01": 0.0,
			"-0.009": 0.0,
			"-0.008": 0.15178956046,
			"-0.007": 6.10166868526,
			"-0.006": 24.1834356776,
			"-0.005": 28.9665068425,
			"-0.004": 28.0138410021,
			"-0.003": 20.3794775023,
			"-0.002": 20.309492445,
			"-0.001": 19.9055457856,
			"0.0": 24.712592296,
			"0.001": 28.4658686279,
			"0.002": 31.0810559602,
			"0.003": 33.7669938332,
			"0.004": 27.2778134399,
			"0.005": 12.0857665504,
			"0.006": 4.57513472449,
			"0.007": 3.71811940148,
			"0.008": 2.88220925053,
			"0.009": 2.99446387125,
			"0.01": 4.57700641565,
			"0.011": 2.37187402564,
			"0.012": 0.561292979516,
			"0.013": 1.03393568588,
			"0.014": 0.550214325819,
			"0.015": 0.166004328395,
			"0.016": 0.0,
			"0.017": 0.0,
			"0.018": 0.0,
			"0.019": 0.0,
			"0.02": 0.0,
			"0.021": 0.0,
			"0.022": 0.0,
			"0.023": 0.0,
			"0.024": 0.0,
			"0.025": 0.0
		}
	}
}
