{
	 "smiles": "ClC1=CN=CC(=N1)C(=O)NC1=CC(Br)=CC=C1", 
	 "Tm": 373.15, 
	 "num_atms": 24, 
	 "gaussian": { 
		 "optdone": 1, 
		 "sigma_profile": "yes", 
		 "theory": "DFT", 
		 "functional": "B3LYP", 
		 "basiset": "6-31G**", 
		 "properties": { 
			 "R2extent": 9586.8238, 
			 "electric_dipole_moment_norm": 1.36603482752, 
			 "electric_quadrupole_moment_norm": 10.7636819625, 
			 "total_energy": -3694.47391423, 
			 "HOMO_LUMO_gap": 0.14147, 
			 "cosmo_polarized_energy": -10.75, 
			 "cosmo_cavitation_energy": 34.19, 
			 "cosmo_dispersion_energy": -25.61, 
			 "cosmo_repulsion_energy": 1.97, 
			 "cosmo_total_nonelectrostatic_energy": 10.55, 
			 "SMD_solvation_energy": 2.48 
		},
		"coords": [
			{
				"x": 1.7048746484,
				"y": 3.4570160592,
				"z": -3.2674962778,
				"element": "Cl" 
			},
			{
				"x": 0.4607639776,
				"y": 2.2278586921,
				"z": -3.2092236331,
				"element": "C" 
			},
			{
				"x": -0.2222393016,
				"y": 1.8765631568,
				"z": -4.3843425638,
				"element": "C" 
			},
			{
				"x": -1.1734232175,
				"y": 0.9442268546,
				"z": -4.367682191,
				"element": "N" 
			},
			{
				"x": -1.4438158161,
				"y": 0.3649567279,
				"z": -3.190705131,
				"element": "C" 
			},
			{
				"x": -0.7571939212,
				"y": 0.7232091552,
				"z": -2.0281879315,
				"element": "C" 
			},
			{
				"x": 0.2021898871,
				"y": 1.6637384268,
				"z": -2.0453720453,
				"element": "N" 
			},
			{
				"x": -1.0885317275,
				"y": 0.0491021016,
				"z": -0.7187186493,
				"element": "C" 
			},
			{
				"x": -1.9583774123,
				"y": -0.8139310373,
				"z": -0.6660702755,
				"element": "O" 
			},
			{
				"x": -0.3342520881,
				"y": 0.5065231067,
				"z": 0.3242445831,
				"element": "N" 
			},
			{
				"x": -0.3683103565,
				"y": 0.1125432905,
				"z": 1.6740507959,
				"element": "C" 
			},
			{
				"x": 0.5270601574,
				"y": 0.7546898047,
				"z": 2.5452302437,
				"element": "C" 
			},
			{
				"x": 0.5391647828,
				"y": 0.4070609827,
				"z": 3.8904365933,
				"element": "C" 
			},
			{
				"x": 1.7642092812,
				"y": 1.2910901313,
				"z": 5.0626080103,
				"element": "Br" 
			},
			{
				"x": -0.3173715328,
				"y": -0.5663961881,
				"z": 4.4010284032,
				"element": "C" 
			},
			{
				"x": -1.2004570244,
				"y": -1.1944555613,
				"z": 3.5219224339,
				"element": "C" 
			},
			{
				"x": -1.2402734732,
				"y": -0.8711361102,
				"z": 2.1664578698,
				"element": "C" 
			},
			{
				"x": 0.0101808713,
				"y": 2.3568827405,
				"z": -5.3304017762,
				"element": "H" 
			},
			{
				"x": -2.2150179571,
				"y": -0.3968692307,
				"z": -3.1553351399,
				"element": "H" 
			},
			{
				"x": 0.3333295644,
				"y": 1.2265932686,
				"z": 0.0687098262,
				"element": "H" 
			},
			{
				"x": 1.2049839149,
				"y": 1.5163517631,
				"z": 2.1740745819,
				"element": "H" 
			},
			{
				"x": -0.2932172885,
				"y": -0.8238733725,
				"z": 5.4530941034,
				"element": "H" 
			},
			{
				"x": -1.8753559781,
				"y": -1.9555770563,
				"z": 3.9021531566,
				"element": "H" 
			},
			{
				"x": -1.9267199901,
				"y": -1.3615677058,
				"z": 1.4914250132,
				"element": "H" 
			}
		],
		 "valence_orbital": [ 
			{
				"type": "occ",
				"energy": -0.29058,
				"method": "rhf"
			},
			{
				"type": "occ",
				"energy": -0.28787,
				"method": "rhf"
			},
			{
				"type": "occ",
				"energy": -0.27001,
				"method": "rhf"
			},
			{
				"type": "occ",
				"energy": -0.2524,
				"method": "rhf"
			},
			{
				"type": "occ",
				"energy": -0.23473,
				"method": "rhf"
			},
			{
				"type": "unocc",
				"energy": -0.09326,
				"method": "rhf"
			},
			{
				"type": "unocc",
				"energy": -0.06722,
				"method": "rhf"
			},
			{
				"type": "unocc",
				"energy": -0.01818,
				"method": "rhf"
			},
			{
				"type": "unocc",
				"energy": -0.01461,
				"method": "rhf"
			},
			{
				"type": "unocc",
				"energy": 0.00239,
				"method": "rhf"
			}
		],
		"cosmo_sigma_profile": { 
			"-0.025": 0.0,
			"-0.024": 0.0,
			"-0.023": 0.0,
			"-0.022": 0.0,
			"-0.021": 0.0,
			"-0.02": 0.0,
			"-0.019": 0.0,
			"-0.018": 0.0,
			"-0.017": 0.0,
			"-0.016": 0.0,
			"-0.015": 0.0,
			"-0.014": 0.0367078863358,
			"-0.013": 0.971623685109,
			"-0.012": 1.36216003768,
			"-0.011": 1.21255831431,
			"-0.01": 1.65536662058,
			"-0.009": 3.21327200111,
			"-0.008": 4.50349854675,
			"-0.007": 6.65921400452,
			"-0.006": 10.4834290091,
			"-0.005": 13.8334859499,
			"-0.004": 22.7791539188,
			"-0.003": 22.0444742447,
			"-0.002": 18.1712176494,
			"-0.001": 17.8787216925,
			"0.0": 19.2558197831,
			"0.001": 22.640478799,
			"0.002": 29.1241620859,
			"0.003": 32.5653235553,
			"0.004": 23.6625421213,
			"0.005": 10.3616429227,
			"0.006": 3.01327951408,
			"0.007": 2.08729947744,
			"0.008": 2.15694851034,
			"0.009": 2.57078660985,
			"0.01": 3.14836801342,
			"0.011": 3.32656286602,
			"0.012": 2.66656916409,
			"0.013": 0.794695275402,
			"0.014": 0.17625058532,
			"0.015": 0.0,
			"0.016": 0.0,
			"0.017": 0.0,
			"0.018": 0.0,
			"0.019": 0.0,
			"0.02": 0.0,
			"0.021": 0.0,
			"0.022": 0.0,
			"0.023": 0.0,
			"0.024": 0.0,
			"0.025": 0.0
		}
	}
}
