{
	 "smiles": "[O-][N+](=O)C1=CC=CC=C1N1C(=O)C2ON=C(C2C1=O)C(=O)C1=CC=C2C=CC=CC2=C1", 
	 "Tm": 449.15, 
	 "num_atms": 44, 
	 "gaussian": { 
		 "optdone": 1, 
		 "sigma_profile": "yes", 
		 "theory": "DFT", 
		 "functional": "B3LYP", 
		 "basiset": "6-31G**", 
		 "properties": { 
			 "R2extent": 14856.0184, 
			 "electric_dipole_moment_norm": 3.19869935599, 
			 "electric_quadrupole_moment_norm": 44.2140168746, 
			 "total_energy": -1461.62546573, 
			 "HOMO_LUMO_gap": 0.119, 
			 "cosmo_polarized_energy": -24.15, 
			 "cosmo_cavitation_energy": 50.76, 
			 "cosmo_dispersion_energy": -34.39, 
			 "cosmo_repulsion_energy": 2.5, 
			 "cosmo_total_nonelectrostatic_energy": 18.86, 
			 "SMD_solvation_energy": 11.54 
		},
		"coords": [
			{
				"x": -1.4923026914,
				"y": -0.5546492748,
				"z": 0.0304850567,
				"element": "O" 
			},
			{
				"x": -2.1865904413,
				"y": 0.3774935208,
				"z": -0.3782905344,
				"element": "N" 
			},
			{
				"x": -2.6302237848,
				"y": 1.2789180638,
				"z": 0.3255636447,
				"element": "O" 
			},
			{
				"x": -2.559399644,
				"y": 0.3880104443,
				"z": -1.804707627,
				"element": "C" 
			},
			{
				"x": -3.7374553314,
				"y": 1.0548079162,
				"z": -2.1376504809,
				"element": "C" 
			},
			{
				"x": -4.2005032495,
				"y": 1.0305563369,
				"z": -3.4500318903,
				"element": "C" 
			},
			{
				"x": -3.4757000848,
				"y": 0.3499709404,
				"z": -4.4288661472,
				"element": "C" 
			},
			{
				"x": -2.280010309,
				"y": -0.2864975906,
				"z": -4.0996712385,
				"element": "C" 
			},
			{
				"x": -1.8053702012,
				"y": -0.2778251963,
				"z": -2.7869748146,
				"element": "C" 
			},
			{
				"x": -0.5658551032,
				"y": -0.9139311618,
				"z": -2.5050482431,
				"element": "N" 
			},
			{
				"x": -0.3544198306,
				"y": -2.2914196151,
				"z": -2.6748552666,
				"element": "C" 
			},
			{
				"x": -1.1328790202,
				"y": -3.0679355764,
				"z": -3.1723183595,
				"element": "O" 
			},
			{
				"x": 1.0382983581,
				"y": -2.6082669999,
				"z": -2.1149458656,
				"element": "C" 
			},
			{
				"x": 0.8896946869,
				"y": -3.3938302828,
				"z": -0.8938598902,
				"element": "O" 
			},
			{
				"x": 1.3546470381,
				"y": -2.6683387614,
				"z": 0.1893715814,
				"element": "N" 
			},
			{
				"x": 1.7827818981,
				"y": -1.5172974026,
				"z": -0.1855538013,
				"element": "C" 
			},
			{
				"x": 1.627180943,
				"y": -1.2712704834,
				"z": -1.6722240496,
				"element": "C" 
			},
			{
				"x": 0.5343811402,
				"y": -0.2307546031,
				"z": -1.9512699263,
				"element": "C" 
			},
			{
				"x": 0.5736201757,
				"y": 0.9555875955,
				"z": -1.7412999514,
				"element": "O" 
			},
			{
				"x": 2.5450652006,
				"y": -0.5816215058,
				"z": 0.7035791964,
				"element": "C" 
			},
			{
				"x": 3.413623959,
				"y": 0.0923077087,
				"z": 0.1601325015,
				"element": "O" 
			},
			{
				"x": 2.2760061004,
				"y": -0.5272908994,
				"z": 2.162562258,
				"element": "C" 
			},
			{
				"x": 1.065862577,
				"y": -1.0010311135,
				"z": 2.7459431497,
				"element": "C" 
			},
			{
				"x": 0.8687413986,
				"y": -0.8958987167,
				"z": 4.1018157536,
				"element": "C" 
			},
			{
				"x": 1.8573428373,
				"y": -0.3271885193,
				"z": 4.9499003123,
				"element": "C" 
			},
			{
				"x": 1.6834685429,
				"y": -0.2159249739,
				"z": 6.355004922,
				"element": "C" 
			},
			{
				"x": 2.66305316,
				"y": 0.3467511459,
				"z": 7.1424712658,
				"element": "C" 
			},
			{
				"x": 3.8653668607,
				"y": 0.8272679913,
				"z": 6.5641087228,
				"element": "C" 
			},
			{
				"x": 4.0655119641,
				"y": 0.7350359266,
				"z": 5.2064160259,
				"element": "C" 
			},
			{
				"x": 3.0736660969,
				"y": 0.1588034674,
				"z": 4.3641519557,
				"element": "C" 
			},
			{
				"x": 3.2468382848,
				"y": 0.0523438419,
				"z": 2.9654940352,
				"element": "C" 
			},
			{
				"x": -4.275606519,
				"y": 1.5722093562,
				"z": -1.3534168548,
				"element": "H" 
			},
			{
				"x": -5.1249867731,
				"y": 1.5387661693,
				"z": -3.7033732603,
				"element": "H" 
			},
			{
				"x": -3.8313241702,
				"y": 0.3231024557,
				"z": -5.4538705475,
				"element": "H" 
			},
			{
				"x": -1.6985122233,
				"y": -0.7971701241,
				"z": -4.8583215442,
				"element": "H" 
			},
			{
				"x": 1.6183059006,
				"y": -3.1995958343,
				"z": -2.8265666643,
				"element": "H" 
			},
			{
				"x": 2.5679012715,
				"y": -0.9551421914,
				"z": -2.1275394285,
				"element": "H" 
			},
			{
				"x": 0.2912018987,
				"y": -1.4205323905,
				"z": 2.1165326069,
				"element": "H" 
			},
			{
				"x": -0.0601792478,
				"y": -1.2460969548,
				"z": 4.5435529296,
				"element": "H" 
			},
			{
				"x": 0.7622108615,
				"y": -0.5830103032,
				"z": 6.7995404616,
				"element": "H" 
			},
			{
				"x": 2.5176112125,
				"y": 0.4254379212,
				"z": 8.2160483157,
				"element": "H" 
			},
			{
				"x": 4.6272063484,
				"y": 1.26893559,
				"z": 7.1995910496,
				"element": "H" 
			},
			{
				"x": 4.9839288488,
				"y": 1.1018719589,
				"z": 4.7558974846,
				"element": "H" 
			},
			{
				"x": 4.1552010605,
				"y": 0.423942124,
				"z": 2.5009931561,
				"element": "H" 
			}
		],
		 "valence_orbital": [ 
			{
				"type": "occ",
				"energy": -0.28152,
				"method": "rhf"
			},
			{
				"type": "occ",
				"energy": -0.26757,
				"method": "rhf"
			},
			{
				"type": "occ",
				"energy": -0.26177,
				"method": "rhf"
			},
			{
				"type": "occ",
				"energy": -0.24946,
				"method": "rhf"
			},
			{
				"type": "occ",
				"energy": -0.22089,
				"method": "rhf"
			},
			{
				"type": "unocc",
				"energy": -0.10189,
				"method": "rhf"
			},
			{
				"type": "unocc",
				"energy": -0.08171,
				"method": "rhf"
			},
			{
				"type": "unocc",
				"energy": -0.04936,
				"method": "rhf"
			},
			{
				"type": "unocc",
				"energy": -0.04787,
				"method": "rhf"
			},
			{
				"type": "unocc",
				"energy": -0.03748,
				"method": "rhf"
			}
		],
		"cosmo_sigma_profile": { 
			"-0.025": 0.0,
			"-0.024": 0.0,
			"-0.023": 0.0,
			"-0.022": 0.0,
			"-0.021": 0.0,
			"-0.02": 0.0,
			"-0.019": 0.0,
			"-0.018": 0.0,
			"-0.017": 0.0,
			"-0.016": 0.0,
			"-0.015": 0.0,
			"-0.014": 0.0,
			"-0.013": 0.19047726169,
			"-0.012": 1.05527481929,
			"-0.011": 2.56860018001,
			"-0.01": 8.42538366497,
			"-0.009": 5.85232460006,
			"-0.008": 13.3036569495,
			"-0.007": 19.0919637289,
			"-0.006": 22.8665048335,
			"-0.005": 21.8949172605,
			"-0.004": 23.1827039524,
			"-0.003": 17.8276365104,
			"-0.002": 21.0931119399,
			"-0.001": 26.1160495868,
			"0.0": 32.0176428807,
			"0.001": 29.2641542598,
			"0.002": 31.9951251561,
			"0.003": 30.0782856084,
			"0.004": 21.3478416682,
			"0.005": 13.2477325285,
			"0.006": 13.7480417557,
			"0.007": 14.7305936892,
			"0.008": 11.3798275072,
			"0.009": 12.0878926738,
			"0.01": 12.0159903422,
			"0.011": 4.07997466475,
			"0.012": 0.0501146806169,
			"0.013": 0.0,
			"0.014": 0.0,
			"0.015": 0.0,
			"0.016": 0.0,
			"0.017": 0.0,
			"0.018": 0.0,
			"0.019": 0.0,
			"0.02": 0.0,
			"0.021": 0.0,
			"0.022": 0.0,
			"0.023": 0.0,
			"0.024": 0.0,
			"0.025": 0.0
		}
	}
}
