{
	 "smiles": "OC1=C(Br)C=CC=N1", 
	 "Tm": 460.15, 
	 "num_atms": 12, 
	 "gaussian": { 
		 "optdone": 1, 
		 "sigma_profile": "yes", 
		 "theory": "DFT", 
		 "functional": "B3LYP", 
		 "basiset": "6-31G**", 
		 "properties": { 
			 "R2extent": 1485.5081, 
			 "electric_dipole_moment_norm": 1.9662263654, 
			 "electric_quadrupole_moment_norm": 4.44194580561, 
			 "total_energy": -2894.3191492, 
			 "HOMO_LUMO_gap": 0.20241, 
			 "cosmo_polarized_energy": -7.44, 
			 "cosmo_cavitation_energy": 18.67, 
			 "cosmo_dispersion_energy": -14.66, 
			 "cosmo_repulsion_energy": 1.22, 
			 "cosmo_total_nonelectrostatic_energy": 5.23, 
			 "SMD_solvation_energy": 1.41 
		},
		"coords": [
			{
				"x": 0.5771701564,
				"y": -1.3879223091,
				"z": -2.1994887745,
				"element": "O" 
			},
			{
				"x": 0.850628871,
				"y": -0.2911978877,
				"z": -1.468649325,
				"element": "C" 
			},
			{
				"x": 0.3789178892,
				"y": -0.1967452325,
				"z": -0.1463773564,
				"element": "C" 
			},
			{
				"x": -0.6426160435,
				"y": -1.6029352965,
				"z": 0.6230539523,
				"element": "Br" 
			},
			{
				"x": 0.6772938594,
				"y": 0.9462659953,
				"z": 0.5812920285,
				"element": "C" 
			},
			{
				"x": 1.4316570427,
				"y": 1.9597084934,
				"z": -0.0189046766,
				"element": "C" 
			},
			{
				"x": 1.8517095335,
				"y": 1.7719209666,
				"z": -1.3309557626,
				"element": "C" 
			},
			{
				"x": 1.5681491947,
				"y": 0.6712644091,
				"z": -2.0413109789,
				"element": "N" 
			},
			{
				"x": 0.9931265105,
				"y": -1.2392454101,
				"z": -3.0638453972,
				"element": "H" 
			},
			{
				"x": 0.3234322158,
				"y": 1.0394711993,
				"z": 1.602237384,
				"element": "H" 
			},
			{
				"x": 1.6817143098,
				"y": 2.8651817352,
				"z": 0.522755373,
				"element": "H" 
			},
			{
				"x": 2.4406164607,
				"y": 2.529333337,
				"z": -1.8432064665,
				"element": "H" 
			}
		],
		 "valence_orbital": [ 
			{
				"type": "occ",
				"energy": -0.33236,
				"method": "rhf"
			},
			{
				"type": "occ",
				"energy": -0.29575,
				"method": "rhf"
			},
			{
				"type": "occ",
				"energy": -0.27851,
				"method": "rhf"
			},
			{
				"type": "occ",
				"energy": -0.27551,
				"method": "rhf"
			},
			{
				"type": "occ",
				"energy": -0.23762,
				"method": "rhf"
			},
			{
				"type": "unocc",
				"energy": -0.03521,
				"method": "rhf"
			},
			{
				"type": "unocc",
				"energy": -0.00884,
				"method": "rhf"
			},
			{
				"type": "unocc",
				"energy": 0.00624,
				"method": "rhf"
			},
			{
				"type": "unocc",
				"energy": 0.08452,
				"method": "rhf"
			},
			{
				"type": "unocc",
				"energy": 0.1079,
				"method": "rhf"
			}
		],
		"cosmo_sigma_profile": { 
			"-0.025": 0.0,
			"-0.024": 0.0,
			"-0.023": 0.0,
			"-0.022": 0.0,
			"-0.021": 0.0,
			"-0.02": 0.0,
			"-0.019": 0.0,
			"-0.018": 0.255172791701,
			"-0.017": 0.729791277129,
			"-0.016": 0.758531752824,
			"-0.015": 0.930551147394,
			"-0.014": 0.536771172898,
			"-0.013": 0.259527041289,
			"-0.012": 0.663622053156,
			"-0.011": 1.10634780475,
			"-0.01": 0.803111896483,
			"-0.009": 0.528735951613,
			"-0.008": 2.04044599238,
			"-0.007": 7.34100976238,
			"-0.006": 7.56290167268,
			"-0.005": 7.71463975434,
			"-0.004": 6.24930152069,
			"-0.003": 6.52852852031,
			"-0.002": 6.87947925546,
			"-0.001": 10.4176140509,
			"0.0": 14.1121630754,
			"0.001": 16.3112039636,
			"0.002": 14.872034604,
			"0.003": 11.6253926793,
			"0.004": 11.1158041803,
			"0.005": 6.42786251122,
			"0.006": 3.06070456571,
			"0.007": 3.19725453744,
			"0.008": 3.57891345801,
			"0.009": 2.31228121539,
			"0.01": 2.6104008698,
			"0.011": 1.70455270968,
			"0.012": 0.582734267782,
			"0.013": 0.510534188284,
			"0.014": 0.013780132569,
			"0.015": 0.0,
			"0.016": 0.0,
			"0.017": 0.0,
			"0.018": 0.0,
			"0.019": 0.0,
			"0.02": 0.0,
			"0.021": 0.0,
			"0.022": 0.0,
			"0.023": 0.0,
			"0.024": 0.0,
			"0.025": 0.0
		}
	}
}
