{
	 "smiles": "O=C1CC2(CCCC2)CN1", 
	 "Tm": 342.15, 
	 "num_atms": 23, 
	 "gaussian": { 
		 "optdone": 1, 
		 "sigma_profile": "yes", 
		 "theory": "DFT", 
		 "functional": "B3LYP", 
		 "basiset": "6-31G**", 
		 "properties": { 
			 "R2extent": 1565.8786, 
			 "electric_dipole_moment_norm": 3.95787863129, 
			 "electric_quadrupole_moment_norm": 14.4156074045, 
			 "total_energy": -442.684714221, 
			 "HOMO_LUMO_gap": 0.27166, 
			 "cosmo_polarized_energy": -10.7, 
			 "cosmo_cavitation_energy": 23.75, 
			 "cosmo_dispersion_energy": -17.77, 
			 "cosmo_repulsion_energy": 1.45, 
			 "cosmo_total_nonelectrostatic_energy": 7.43, 
			 "SMD_solvation_energy": 3.3 
		},
		"coords": [
			{
				"x": -1.2384222472,
				"y": 3.1705515694,
				"z": 0.7070299525,
				"element": "O" 
			},
			{
				"x": -0.8914274774,
				"y": 2.1070439711,
				"z": 0.2235248977,
				"element": "C" 
			},
			{
				"x": -0.0210568443,
				"y": 1.0259382328,
				"z": 0.8722336611,
				"element": "C" 
			},
			{
				"x": -0.1862852987,
				"y": -0.2208583059,
				"z": -0.0309182761,
				"element": "C" 
			},
			{
				"x": -1.284806706,
				"y": -1.1613947474,
				"z": 0.5226107477,
				"element": "C" 
			},
			{
				"x": -0.5774087196,
				"y": -1.9976982973,
				"z": 1.6145216365,
				"element": "C" 
			},
			{
				"x": 0.9358714353,
				"y": -1.9884918169,
				"z": 1.237982984,
				"element": "C" 
			},
			{
				"x": 1.0360666614,
				"y": -1.1559562351,
				"z": -0.0605474135,
				"element": "C" 
			},
			{
				"x": -0.5476512277,
				"y": 0.4064588038,
				"z": -1.4024310414,
				"element": "C" 
			},
			{
				"x": -1.1958587741,
				"y": 1.6556426906,
				"z": -1.0357207568,
				"element": "N" 
			},
			{
				"x": 1.0139526584,
				"y": 1.3919351203,
				"z": 0.8770696626,
				"element": "H" 
			},
			{
				"x": -0.3168530421,
				"y": 0.8748962658,
				"z": 1.9131427173,
				"element": "H" 
			},
			{
				"x": -2.1608408004,
				"y": -0.6202887298,
				"z": 0.8944101516,
				"element": "H" 
			},
			{
				"x": -1.6300346105,
				"y": -1.8176476321,
				"z": -0.286282722,
				"element": "H" 
			},
			{
				"x": -0.7275625957,
				"y": -1.552570285,
				"z": 2.6033191409,
				"element": "H" 
			},
			{
				"x": -0.9859009842,
				"y": -3.0112708752,
				"z": 1.6666247858,
				"element": "H" 
			},
			{
				"x": 1.5232387229,
				"y": -1.5218433127,
				"z": 2.0355146536,
				"element": "H" 
			},
			{
				"x": 1.3379361152,
				"y": -2.996982091,
				"z": 1.1035343416,
				"element": "H" 
			},
			{
				"x": 0.9576635669,
				"y": -1.8140882274,
				"z": -0.9365049726,
				"element": "H" 
			},
			{
				"x": 1.982613041,
				"y": -0.6122381295,
				"z": -0.1519082152,
				"element": "H" 
			},
			{
				"x": 0.3557031917,
				"y": 0.5817396222,
				"z": -2.0073239573,
				"element": "H" 
			},
			{
				"x": -1.2171079452,
				"y": -0.2392263613,
				"z": -1.981953357,
				"element": "H" 
			},
			{
				"x": -1.6469281195,
				"y": 2.2711487707,
				"z": -1.6970286211,
				"element": "H" 
			}
		],
		 "valence_orbital": [ 
			{
				"type": "occ",
				"energy": -0.3299,
				"method": "rhf"
			},
			{
				"type": "occ",
				"energy": -0.32167,
				"method": "rhf"
			},
			{
				"type": "occ",
				"energy": -0.31293,
				"method": "rhf"
			},
			{
				"type": "occ",
				"energy": -0.24687,
				"method": "rhf"
			},
			{
				"type": "occ",
				"energy": -0.23518,
				"method": "rhf"
			},
			{
				"type": "unocc",
				"energy": 0.03648,
				"method": "rhf"
			},
			{
				"type": "unocc",
				"energy": 0.06688,
				"method": "rhf"
			},
			{
				"type": "unocc",
				"energy": 0.08863,
				"method": "rhf"
			},
			{
				"type": "unocc",
				"energy": 0.09958,
				"method": "rhf"
			},
			{
				"type": "unocc",
				"energy": 0.11168,
				"method": "rhf"
			}
		],
		"cosmo_sigma_profile": { 
			"-0.025": 0.0,
			"-0.024": 0.0,
			"-0.023": 0.0,
			"-0.022": 0.0,
			"-0.021": 0.0,
			"-0.02": 0.0,
			"-0.019": 0.0,
			"-0.018": 0.0,
			"-0.017": 0.0,
			"-0.016": 0.0,
			"-0.015": 0.0,
			"-0.014": 0.524125207229,
			"-0.013": 1.38389158932,
			"-0.012": 0.790547204522,
			"-0.011": 1.32744870369,
			"-0.01": 1.12877084269,
			"-0.009": 0.611226836661,
			"-0.008": 0.843455277813,
			"-0.007": 1.12757003592,
			"-0.006": 1.11146820485,
			"-0.005": 4.1844397859,
			"-0.004": 13.5238364925,
			"-0.003": 25.6589650237,
			"-0.002": 31.7143513007,
			"-0.001": 25.9443086218,
			"0.0": 19.6556429735,
			"0.001": 17.6696007575,
			"0.002": 7.83230146308,
			"0.003": 1.8145448978,
			"0.004": 1.73885641881,
			"0.005": 1.98111625368,
			"0.006": 2.4130417647,
			"0.007": 0.728598716358,
			"0.008": 0.870942740454,
			"0.009": 1.80039967415,
			"0.01": 1.38935529208,
			"0.011": 1.08318957829,
			"0.012": 1.51654082975,
			"0.013": 3.02246528764,
			"0.014": 6.14118261439,
			"0.015": 3.70377046744,
			"0.016": 0.339621193126,
			"0.017": 0.0,
			"0.018": 0.0,
			"0.019": 0.0,
			"0.02": 0.0,
			"0.021": 0.0,
			"0.022": 0.0,
			"0.023": 0.0,
			"0.024": 0.0,
			"0.025": 0.0
		}
	}
}
