{
	 "smiles": "COC(=O)NNC(=O)OC", 
	 "Tm": 403.15, 
	 "num_atms": 18, 
	 "gaussian": { 
		 "optdone": 1, 
		 "sigma_profile": "yes", 
		 "theory": "DFT", 
		 "functional": "B3LYP", 
		 "basiset": "6-31G**", 
		 "properties": { 
			 "R2extent": 2361.2641, 
			 "electric_dipole_moment_norm": 0.912479183324, 
			 "electric_quadrupole_moment_norm": 10.0344886546, 
			 "total_energy": -567.642588906, 
			 "HOMO_LUMO_gap": 0.30879, 
			 "cosmo_polarized_energy": -13.75, 
			 "cosmo_cavitation_energy": 23.33, 
			 "cosmo_dispersion_energy": -16.85, 
			 "cosmo_repulsion_energy": 1.42, 
			 "cosmo_total_nonelectrostatic_energy": 7.9, 
			 "SMD_solvation_energy": 7.67 
		},
		"coords": [
			{
				"x": 1.481390539,
				"y": 3.0079915483,
				"z": -0.8238178809,
				"element": "C" 
			},
			{
				"x": 1.7248681886,
				"y": 1.6375190327,
				"z": -0.4714635056,
				"element": "O" 
			},
			{
				"x": 1.2634878532,
				"y": 1.2783749248,
				"z": 0.7453273651,
				"element": "C" 
			},
			{
				"x": 0.6875536669,
				"y": 2.0001250301,
				"z": 1.5295455427,
				"element": "O" 
			},
			{
				"x": 1.615747511,
				"y": -0.0432865758,
				"z": 0.9930277075,
				"element": "N" 
			},
			{
				"x": 0.964219431,
				"y": -0.7077628695,
				"z": 2.0158294045,
				"element": "N" 
			},
			{
				"x": -0.4105137783,
				"y": -0.8831426532,
				"z": 1.9081521677,
				"element": "C" 
			},
			{
				"x": -1.0397642649,
				"y": -0.8052325102,
				"z": 0.8758771647,
				"element": "O" 
			},
			{
				"x": -0.9088432587,
				"y": -1.21761211,
				"z": 3.11738146,
				"element": "O" 
			},
			{
				"x": -2.3183790594,
				"y": -1.4909024835,
				"z": 3.1296096673,
				"element": "C" 
			},
			{
				"x": 1.9063766123,
				"y": 3.1331646983,
				"z": -1.8196245421,
				"element": "H" 
			},
			{
				"x": 1.9671378653,
				"y": 3.6813882206,
				"z": -0.1132045913,
				"element": "H" 
			},
			{
				"x": 0.4090449535,
				"y": 3.2168435123,
				"z": -0.8361233227,
				"element": "H" 
			},
			{
				"x": 1.8247768155,
				"y": -0.6137153419,
				"z": 0.184442969,
				"element": "H" 
			},
			{
				"x": 1.3233004611,
				"y": -0.5143200009,
				"z": 2.9413191954,
				"element": "H" 
			},
			{
				"x": -2.5545870415,
				"y": -2.330125314,
				"z": 2.4705953871,
				"element": "H" 
			},
			{
				"x": -2.8826617335,
				"y": -0.6135226012,
				"z": 2.8048239689,
				"element": "H" 
			},
			{
				"x": -2.5586547611,
				"y": -1.738384507,
				"z": 4.1635018428,
				"element": "H" 
			}
		],
		 "valence_orbital": [ 
			{
				"type": "occ",
				"energy": -0.29999,
				"method": "rhf"
			},
			{
				"type": "occ",
				"energy": -0.28917,
				"method": "rhf"
			},
			{
				"type": "occ",
				"energy": -0.2881,
				"method": "rhf"
			},
			{
				"type": "occ",
				"energy": -0.28267,
				"method": "rhf"
			},
			{
				"type": "occ",
				"energy": -0.27069,
				"method": "rhf"
			},
			{
				"type": "unocc",
				"energy": 0.0381,
				"method": "rhf"
			},
			{
				"type": "unocc",
				"energy": 0.04398,
				"method": "rhf"
			},
			{
				"type": "unocc",
				"energy": 0.09094,
				"method": "rhf"
			},
			{
				"type": "unocc",
				"energy": 0.09813,
				"method": "rhf"
			},
			{
				"type": "unocc",
				"energy": 0.11602,
				"method": "rhf"
			}
		],
		"cosmo_sigma_profile": { 
			"-0.025": 0.0,
			"-0.024": 0.0,
			"-0.023": 0.0,
			"-0.022": 0.0,
			"-0.021": 0.0,
			"-0.02": 0.0,
			"-0.019": 0.0,
			"-0.018": 0.0,
			"-0.017": 0.0,
			"-0.016": 0.163865386553,
			"-0.015": 1.70011712515,
			"-0.014": 2.06576873189,
			"-0.013": 1.61958748218,
			"-0.012": 1.07999433982,
			"-0.011": 1.28627594261,
			"-0.01": 1.07515742868,
			"-0.009": 2.40459768382,
			"-0.008": 1.59209447688,
			"-0.007": 3.69211495273,
			"-0.006": 11.6993850016,
			"-0.005": 15.1746842896,
			"-0.004": 19.4829877298,
			"-0.003": 17.0899089089,
			"-0.002": 9.92534503357,
			"-0.001": 7.64976983484,
			"0.0": 8.67703855877,
			"0.001": 8.52205559239,
			"0.002": 8.38607139801,
			"0.003": 8.32854296384,
			"0.004": 6.45173734731,
			"0.005": 5.75764596844,
			"0.006": 7.6471678116,
			"0.007": 4.98964548392,
			"0.008": 5.00496751385,
			"0.009": 3.34814432969,
			"0.01": 3.26912618277,
			"0.011": 4.25986332718,
			"0.012": 9.97507391262,
			"0.013": 1.62822158805,
			"0.014": 0.0,
			"0.015": 0.0,
			"0.016": 0.0,
			"0.017": 0.0,
			"0.018": 0.0,
			"0.019": 0.0,
			"0.02": 0.0,
			"0.021": 0.0,
			"0.022": 0.0,
			"0.023": 0.0,
			"0.024": 0.0,
			"0.025": 0.0
		}
	}
}
