{
	 "smiles": "O=C1CC(C(C#N)C(=O)C1)C1=CC=CC=C1", 
	 "Tm": 450.15, 
	 "num_atms": 27, 
	 "gaussian": { 
		 "optdone": 1, 
		 "sigma_profile": "yes", 
		 "theory": "DFT", 
		 "functional": "B3LYP", 
		 "basiset": "6-31G**", 
		 "properties": { 
			 "R2extent": 3417.5466, 
			 "electric_dipole_moment_norm": 4.00093562558, 
			 "electric_quadrupole_moment_norm": 25.3908276385, 
			 "total_energy": -707.175655045, 
			 "HOMO_LUMO_gap": 0.20651, 
			 "cosmo_polarized_energy": -20.18, 
			 "cosmo_cavitation_energy": 30.89, 
			 "cosmo_dispersion_energy": -21.29, 
			 "cosmo_repulsion_energy": 1.66, 
			 "cosmo_total_nonelectrostatic_energy": 11.26, 
			 "SMD_solvation_energy": 7.35 
		},
		"coords": [
			{
				"x": -0.1030558079,
				"y": -3.7204571791,
				"z": -1.3772213931,
				"element": "O" 
			},
			{
				"x": -0.111223803,
				"y": -2.5601513333,
				"z": -1.024179697,
				"element": "C" 
			},
			{
				"x": 0.6600556604,
				"y": -1.4913975803,
				"z": -1.7990706646,
				"element": "C" 
			},
			{
				"x": 0.6100021427,
				"y": -0.0651473893,
				"z": -1.1967275681,
				"element": "C" 
			},
			{
				"x": -0.8784447424,
				"y": 0.2518843426,
				"z": -0.8777615982,
				"element": "C" 
			},
			{
				"x": -1.1319735721,
				"y": 1.6519198109,
				"z": -0.5323838604,
				"element": "C" 
			},
			{
				"x": -1.3131379876,
				"y": 2.771080599,
				"z": -0.2867587176,
				"element": "N" 
			},
			{
				"x": -1.5129241186,
				"y": -0.7257719183,
				"z": 0.1440945871,
				"element": "C" 
			},
			{
				"x": -2.4571982029,
				"y": -0.4117547491,
				"z": 0.8300766669,
				"element": "O" 
			},
			{
				"x": -0.8855901287,
				"y": -2.112263113,
				"z": 0.2088013981,
				"element": "C" 
			},
			{
				"x": 1.5943327166,
				"y": 0.1349907648,
				"z": -0.0424202123,
				"element": "C" 
			},
			{
				"x": 1.2134282156,
				"y": 0.4665022207,
				"z": 1.2642793397,
				"element": "C" 
			},
			{
				"x": 2.1714232374,
				"y": 0.6339876359,
				"z": 2.2691425778,
				"element": "C" 
			},
			{
				"x": 3.5262676301,
				"y": 0.4801011344,
				"z": 1.9850323479,
				"element": "C" 
			},
			{
				"x": 3.9215922221,
				"y": 0.1653125721,
				"z": 0.6825916131,
				"element": "C" 
			},
			{
				"x": 2.9654233754,
				"y": -0.0021646301,
				"z": -0.3160268539,
				"element": "C" 
			},
			{
				"x": 0.2371549533,
				"y": -1.4821976439,
				"z": -2.8124586569,
				"element": "H" 
			},
			{
				"x": 1.6902219206,
				"y": -1.8415591032,
				"z": -1.9081375692,
				"element": "H" 
			},
			{
				"x": 0.9096761812,
				"y": 0.6261554306,
				"z": -1.9928569467,
				"element": "H" 
			},
			{
				"x": -1.4374563394,
				"y": 0.0578524661,
				"z": -1.8078061802,
				"element": "H" 
			},
			{
				"x": -0.1577040317,
				"y": -2.0685513981,
				"z": 1.0340564144,
				"element": "H" 
			},
			{
				"x": -1.6387978731,
				"y": -2.8547857872,
				"z": 0.4800637775,
				"element": "H" 
			},
			{
				"x": 0.1708502454,
				"y": 0.6224998213,
				"z": 1.5205678799,
				"element": "H" 
			},
			{
				"x": 1.8490914035,
				"y": 0.8929763593,
				"z": 3.2732346706,
				"element": "H" 
			},
			{
				"x": 4.2688718961,
				"y": 0.6125645408,
				"z": 2.7660480644,
				"element": "H" 
			},
			{
				"x": 4.9751655812,
				"y": 0.0551106685,
				"z": 0.4428744707,
				"element": "H" 
			},
			{
				"x": 3.2910492258,
				"y": -0.2335365418,
				"z": -1.3275538897,
				"element": "H" 
			}
		],
		 "valence_orbital": [ 
			{
				"type": "occ",
				"energy": -0.32839,
				"method": "rhf"
			},
			{
				"type": "occ",
				"energy": -0.28483,
				"method": "rhf"
			},
			{
				"type": "occ",
				"energy": -0.26756,
				"method": "rhf"
			},
			{
				"type": "occ",
				"energy": -0.26659,
				"method": "rhf"
			},
			{
				"type": "occ",
				"energy": -0.25973,
				"method": "rhf"
			},
			{
				"type": "unocc",
				"energy": -0.05322,
				"method": "rhf"
			},
			{
				"type": "unocc",
				"energy": -0.03946,
				"method": "rhf"
			},
			{
				"type": "unocc",
				"energy": -0.02224,
				"method": "rhf"
			},
			{
				"type": "unocc",
				"energy": -0.01816,
				"method": "rhf"
			},
			{
				"type": "unocc",
				"energy": 0.02215,
				"method": "rhf"
			}
		],
		"cosmo_sigma_profile": { 
			"-0.025": 0.0,
			"-0.024": 0.0,
			"-0.023": 0.0,
			"-0.022": 0.0,
			"-0.021": 0.0,
			"-0.02": 0.0,
			"-0.019": 0.0,
			"-0.018": 0.0,
			"-0.017": 0.0,
			"-0.016": 0.0,
			"-0.015": 0.154717728576,
			"-0.014": 0.790110345515,
			"-0.013": 0.997566295063,
			"-0.012": 2.38567225564,
			"-0.011": 3.92468614816,
			"-0.01": 2.52739010301,
			"-0.009": 3.25196868228,
			"-0.008": 8.0214973471,
			"-0.007": 14.5061866973,
			"-0.006": 19.4737253498,
			"-0.005": 19.2447593107,
			"-0.004": 18.3519316334,
			"-0.003": 13.5977420103,
			"-0.002": 10.5022075499,
			"-0.001": 8.77661721153,
			"0.0": 9.99940797978,
			"0.001": 9.33674756131,
			"0.002": 9.62748794024,
			"0.003": 11.3525629019,
			"0.004": 12.3693531486,
			"0.005": 12.8735433037,
			"0.006": 7.10482763517,
			"0.007": 6.76675435994,
			"0.008": 7.26803174408,
			"0.009": 8.33732213657,
			"0.01": 9.98234458232,
			"0.011": 8.76199628822,
			"0.012": 5.36343196132,
			"0.013": 0.997680254649,
			"0.014": 0.0,
			"0.015": 0.0,
			"0.016": 0.0,
			"0.017": 0.0,
			"0.018": 0.0,
			"0.019": 0.0,
			"0.02": 0.0,
			"0.021": 0.0,
			"0.022": 0.0,
			"0.023": 0.0,
			"0.024": 0.0,
			"0.025": 0.0
		}
	}
}
