{
	 "smiles": "CC(C)CS(=O)(=O)CC(O)=O", 
	 "Tm": 320.15, 
	 "num_atms": 23, 
	 "gaussian": { 
		 "optdone": 1, 
		 "sigma_profile": "yes", 
		 "theory": "DFT", 
		 "functional": "B3LYP", 
		 "basiset": "6-31G**", 
		 "properties": { 
			 "R2extent": 4205.7597, 
			 "electric_dipole_moment_norm": 5.34240037904, 
			 "electric_quadrupole_moment_norm": 23.798549706, 
			 "total_energy": -934.909230072, 
			 "HOMO_LUMO_gap": 0.25264, 
			 "cosmo_polarized_energy": -18.45, 
			 "cosmo_cavitation_energy": 26.73, 
			 "cosmo_dispersion_energy": -19.51, 
			 "cosmo_repulsion_energy": 1.53, 
			 "cosmo_total_nonelectrostatic_energy": 8.76, 
			 "SMD_solvation_energy": 5.27 
		},
		"coords": [
			{
				"x": -1.1702076255,
				"y": -0.6415829204,
				"z": -0.3549218078,
				"element": "C" 
			},
			{
				"x": -1.2221235057,
				"y": -1.6128827125,
				"z": 0.8343867285,
				"element": "C" 
			},
			{
				"x": -2.2805219943,
				"y": -2.7077074195,
				"z": 0.628546232,
				"element": "C" 
			},
			{
				"x": 0.1527629602,
				"y": -2.1815602733,
				"z": 1.2367227873,
				"element": "C" 
			},
			{
				"x": 1.1274296083,
				"y": -3.0958585837,
				"z": -0.0163871486,
				"element": "S" 
			},
			{
				"x": 0.237701397,
				"y": -3.6658456858,
				"z": -1.0417663495,
				"element": "O" 
			},
			{
				"x": 2.0693622451,
				"y": -3.9501328925,
				"z": 0.722036499,
				"element": "O" 
			},
			{
				"x": 2.134249812,
				"y": -1.8313303489,
				"z": -0.9048200135,
				"element": "C" 
			},
			{
				"x": 3.3525874528,
				"y": -1.3583503708,
				"z": -0.1462272342,
				"element": "C" 
			},
			{
				"x": 3.0102858201,
				"y": -0.6446593984,
				"z": 0.9559598923,
				"element": "O" 
			},
			{
				"x": 4.4950492714,
				"y": -1.5615465137,
				"z": -0.4740901423,
				"element": "O" 
			},
			{
				"x": -2.1449137028,
				"y": -0.1634661246,
				"z": -0.4921861532,
				"element": "H" 
			},
			{
				"x": -0.9318253235,
				"y": -1.1677021973,
				"z": -1.2846923459,
				"element": "H" 
			},
			{
				"x": -0.4342899092,
				"y": 0.1558012162,
				"z": -0.1977804877,
				"element": "H" 
			},
			{
				"x": -1.520354286,
				"y": -1.0283843298,
				"z": 1.7172285183,
				"element": "H" 
			},
			{
				"x": -2.0371535021,
				"y": -3.3346785461,
				"z": -0.2319165987,
				"element": "H" 
			},
			{
				"x": -3.2635005093,
				"y": -2.2551684727,
				"z": 0.4618037393,
				"element": "H" 
			},
			{
				"x": -2.3564107057,
				"y": -3.3533543798,
				"z": 1.5103329583,
				"element": "H" 
			},
			{
				"x": 0.0509637074,
				"y": -2.9318897254,
				"z": 2.0272021603,
				"element": "H" 
			},
			{
				"x": 0.8325607021,
				"y": -1.4054112533,
				"z": 1.5991555114,
				"element": "H" 
			},
			{
				"x": 1.4726967715,
				"y": -1.0011891571,
				"z": -1.1601307509,
				"element": "H" 
			},
			{
				"x": 2.4546080768,
				"y": -2.3452077718,
				"z": -1.8116910391,
				"element": "H" 
			},
			{
				"x": 3.8419432393,
				"y": -0.4095921387,
				"z": 1.4016350447,
				"element": "H" 
			}
		],
		 "valence_orbital": [ 
			{
				"type": "occ",
				"energy": -0.32722,
				"method": "rhf"
			},
			{
				"type": "occ",
				"energy": -0.31864,
				"method": "rhf"
			},
			{
				"type": "occ",
				"energy": -0.30622,
				"method": "rhf"
			},
			{
				"type": "occ",
				"energy": -0.29791,
				"method": "rhf"
			},
			{
				"type": "occ",
				"energy": -0.28206,
				"method": "rhf"
			},
			{
				"type": "unocc",
				"energy": -0.02942,
				"method": "rhf"
			},
			{
				"type": "unocc",
				"energy": 0.04691,
				"method": "rhf"
			},
			{
				"type": "unocc",
				"energy": 0.05882,
				"method": "rhf"
			},
			{
				"type": "unocc",
				"energy": 0.0669,
				"method": "rhf"
			},
			{
				"type": "unocc",
				"energy": 0.07271,
				"method": "rhf"
			}
		],
		"cosmo_sigma_profile": { 
			"-0.025": 0.0,
			"-0.024": 0.0,
			"-0.023": 0.0,
			"-0.022": 0.0,
			"-0.021": 0.0,
			"-0.02": 0.0220430560461,
			"-0.019": 0.709323008653,
			"-0.018": 1.0852412907,
			"-0.017": 0.99126698042,
			"-0.016": 0.71031640324,
			"-0.015": 0.923986575104,
			"-0.014": 0.614642247759,
			"-0.013": 0.679855731964,
			"-0.012": 0.55112639484,
			"-0.011": 0.74369665264,
			"-0.01": 1.67345469331,
			"-0.009": 3.8921060155,
			"-0.008": 6.34311318368,
			"-0.007": 8.28311546247,
			"-0.006": 8.87403584954,
			"-0.005": 10.6850143635,
			"-0.004": 15.8030071092,
			"-0.003": 17.2834185167,
			"-0.002": 14.5380433942,
			"-0.001": 14.6331733047,
			"0.0": 16.2341312718,
			"0.001": 15.2454122774,
			"0.002": 6.98604681413,
			"0.003": 4.88254506187,
			"0.004": 4.68467445582,
			"0.005": 5.28935281028,
			"0.006": 4.05939117894,
			"0.007": 4.58705137385,
			"0.008": 4.4010154642,
			"0.009": 6.05850868618,
			"0.01": 10.3116059898,
			"0.011": 12.0342274341,
			"0.012": 5.23259542776,
			"0.013": 0.00126913863868,
			"0.014": 0.0,
			"0.015": 0.0,
			"0.016": 0.0,
			"0.017": 0.0,
			"0.018": 0.0,
			"0.019": 0.0,
			"0.02": 0.0,
			"0.021": 0.0,
			"0.022": 0.0,
			"0.023": 0.0,
			"0.024": 0.0,
			"0.025": 0.0
		}
	}
}
