{
	 "smiles": "NC1=C(Cl)N=CN=C1Cl", 
	 "Tm": 418.15, 
	 "num_atms": 12, 
	 "gaussian": { 
		 "optdone": 1, 
		 "sigma_profile": "yes", 
		 "theory": "DFT", 
		 "functional": "B3LYP", 
		 "basiset": "6-31G**", 
		 "properties": { 
			 "R2extent": 2097.4849, 
			 "electric_dipole_moment_norm": 2.6784380859, 
			 "electric_quadrupole_moment_norm": 13.2845671442, 
			 "total_energy": -1238.87002704, 
			 "HOMO_LUMO_gap": 0.18736, 
			 "cosmo_polarized_energy": -9.05, 
			 "cosmo_cavitation_energy": 19.98, 
			 "cosmo_dispersion_energy": -15.71, 
			 "cosmo_repulsion_energy": 1.29, 
			 "cosmo_total_nonelectrostatic_energy": 5.57, 
			 "SMD_solvation_energy": 0.27 
		},
		"coords": [
			{
				"x": -2.9556257931,
				"y": 0.0960805818,
				"z": 0.178867313,
				"element": "N" 
			},
			{
				"x": -1.638090678,
				"y": 0.4571110824,
				"z": 0.1524929387,
				"element": "C" 
			},
			{
				"x": -1.1625971384,
				"y": 1.7314546876,
				"z": 0.5328208704,
				"element": "C" 
			},
			{
				"x": -2.3284469037,
				"y": 2.899531738,
				"z": 1.148402197,
				"element": "Cl" 
			},
			{
				"x": 0.0956290439,
				"y": 2.1091382016,
				"z": 0.4646769215,
				"element": "N" 
			},
			{
				"x": 0.9690072883,
				"y": 1.2095910254,
				"z": 0.004075704,
				"element": "C" 
			},
			{
				"x": 0.6657535551,
				"y": -0.0329661176,
				"z": -0.3808963997,
				"element": "N" 
			},
			{
				"x": -0.5993777725,
				"y": -0.3847437793,
				"z": -0.3025167696,
				"element": "C" 
			},
			{
				"x": -1.0182360035,
				"y": -2.0232692203,
				"z": -0.7948068752,
				"element": "Cl" 
			},
			{
				"x": -3.1668114937,
				"y": -0.8885918617,
				"z": 0.1216694077,
				"element": "H" 
			},
			{
				"x": -3.579457567,
				"y": 0.6621962738,
				"z": 0.7336609619,
				"element": "H" 
			},
			{
				"x": 2.0095534626,
				"y": 1.5115673882,
				"z": -0.0593462698,
				"element": "H" 
			}
		],
		 "valence_orbital": [ 
			{
				"type": "occ",
				"energy": -0.33418,
				"method": "rhf"
			},
			{
				"type": "occ",
				"energy": -0.33015,
				"method": "rhf"
			},
			{
				"type": "occ",
				"energy": -0.30554,
				"method": "rhf"
			},
			{
				"type": "occ",
				"energy": -0.27861,
				"method": "rhf"
			},
			{
				"type": "occ",
				"energy": -0.24103,
				"method": "rhf"
			},
			{
				"type": "unocc",
				"energy": -0.05367,
				"method": "rhf"
			},
			{
				"type": "unocc",
				"energy": -0.03196,
				"method": "rhf"
			},
			{
				"type": "unocc",
				"energy": -0.00136,
				"method": "rhf"
			},
			{
				"type": "unocc",
				"energy": 0.04216,
				"method": "rhf"
			},
			{
				"type": "unocc",
				"energy": 0.0736,
				"method": "rhf"
			}
		],
		"cosmo_sigma_profile": { 
			"-0.025": 0.0,
			"-0.024": 0.0,
			"-0.023": 0.0,
			"-0.022": 0.0,
			"-0.021": 0.0,
			"-0.02": 0.0,
			"-0.019": 0.0,
			"-0.018": 0.0,
			"-0.017": 0.0,
			"-0.016": 0.0,
			"-0.015": 0.0,
			"-0.014": 0.701766106381,
			"-0.013": 2.11066965879,
			"-0.012": 2.60487229802,
			"-0.011": 1.72295880538,
			"-0.01": 1.47763392902,
			"-0.009": 2.65837631611,
			"-0.008": 3.82901666814,
			"-0.007": 3.57628439085,
			"-0.006": 4.15300186407,
			"-0.005": 4.33181309326,
			"-0.004": 6.68700489885,
			"-0.003": 12.94160434,
			"-0.002": 13.2461493355,
			"-0.001": 15.4863537723,
			"0.0": 13.529307054,
			"0.001": 11.1742456178,
			"0.002": 12.936133399,
			"0.003": 15.3899271365,
			"0.004": 11.7715543829,
			"0.005": 5.76775858893,
			"0.006": 3.59719470701,
			"0.007": 3.29678386947,
			"0.008": 3.2588522828,
			"0.009": 2.47074998922,
			"0.01": 2.07163316565,
			"0.011": 1.63916868913,
			"0.012": 1.89532838075,
			"0.013": 1.39111592528,
			"0.014": 0.0377635089223,
			"0.015": 0.0,
			"0.016": 0.0,
			"0.017": 0.0,
			"0.018": 0.0,
			"0.019": 0.0,
			"0.02": 0.0,
			"0.021": 0.0,
			"0.022": 0.0,
			"0.023": 0.0,
			"0.024": 0.0,
			"0.025": 0.0
		}
	}
}
