{
	 "smiles": "OC(=O)C(CC1=CC=CC=C1)NC(=O)C1=CC=C(Cl)C=C1", 
	 "Tm": 469.15, 
	 "num_atms": 35, 
	 "gaussian": { 
		 "optdone": 1, 
		 "sigma_profile": "yes", 
		 "theory": "DFT", 
		 "functional": "B3LYP", 
		 "basiset": "6-31G**", 
		 "properties": { 
			 "R2extent": 9010.6364, 
			 "electric_dipole_moment_norm": 3.12331460471, 
			 "electric_quadrupole_moment_norm": 10.9659017559, 
			 "total_energy": -1358.7957121, 
			 "HOMO_LUMO_gap": 0.20103, 
			 "cosmo_polarized_energy": -17.5, 
			 "cosmo_cavitation_energy": 41.91, 
			 "cosmo_dispersion_energy": -28.41, 
			 "cosmo_repulsion_energy": 2.2, 
			 "cosmo_total_nonelectrostatic_energy": 15.7, 
			 "SMD_solvation_energy": 8.28 
		},
		"coords": [
			{
				"x": -1.4013018058,
				"y": 2.5467745103,
				"z": -0.3487641947,
				"element": "O" 
			},
			{
				"x": -1.0273599244,
				"y": 2.5809755692,
				"z": 0.9472898484,
				"element": "C" 
			},
			{
				"x": -0.8111592093,
				"y": 3.615469134,
				"z": 1.5415345763,
				"element": "O" 
			},
			{
				"x": -0.9327076642,
				"y": 1.1976434536,
				"z": 1.5954525917,
				"element": "C" 
			},
			{
				"x": 0.3196374262,
				"y": 1.1087855752,
				"z": 2.508180507,
				"element": "C" 
			},
			{
				"x": 1.630019825,
				"y": 1.0761341133,
				"z": 1.7485861431,
				"element": "C" 
			},
			{
				"x": 2.2033485141,
				"y": -0.1455387852,
				"z": 1.3636502962,
				"element": "C" 
			},
			{
				"x": 3.3956171436,
				"y": -0.1817178718,
				"z": 0.6371005081,
				"element": "C" 
			},
			{
				"x": 4.0365067162,
				"y": 1.0071350224,
				"z": 0.2856001973,
				"element": "C" 
			},
			{
				"x": 3.479252789,
				"y": 2.229569345,
				"z": 0.667334464,
				"element": "C" 
			},
			{
				"x": 2.2869625026,
				"y": 2.2643140206,
				"z": 1.3914686707,
				"element": "C" 
			},
			{
				"x": -1.0176627583,
				"y": 0.1120493735,
				"z": 0.6448429951,
				"element": "N" 
			},
			{
				"x": -2.0441283322,
				"y": -0.7956612278,
				"z": 0.6740562629,
				"element": "C" 
			},
			{
				"x": -2.9186727237,
				"y": -0.7722224613,
				"z": 1.5367038482,
				"element": "O" 
			},
			{
				"x": -2.0313411329,
				"y": -1.8419519509,
				"z": -0.4032478004,
				"element": "C" 
			},
			{
				"x": -2.7320568125,
				"y": -3.029516307,
				"z": -0.1551017998,
				"element": "C" 
			},
			{
				"x": -2.7701941743,
				"y": -4.0470139272,
				"z": -1.1036083385,
				"element": "C" 
			},
			{
				"x": -2.1116635319,
				"y": -3.86372637,
				"z": -2.320915704,
				"element": "C" 
			},
			{
				"x": -2.1550359586,
				"y": -5.1395446302,
				"z": -3.5259479607,
				"element": "Cl" 
			},
			{
				"x": -1.4278227534,
				"y": -2.6811739219,
				"z": -2.6021103676,
				"element": "C" 
			},
			{
				"x": -1.391105014,
				"y": -1.6742019504,
				"z": -1.6385804622,
				"element": "C" 
			},
			{
				"x": -1.4564771051,
				"y": 3.4754146528,
				"z": -0.6327091148,
				"element": "H" 
			},
			{
				"x": -1.8235355594,
				"y": 1.1006171238,
				"z": 2.2271924783,
				"element": "H" 
			},
			{
				"x": 0.291179087,
				"y": 1.967921199,
				"z": 3.1833316251,
				"element": "H" 
			},
			{
				"x": 0.213527914,
				"y": 0.2032607694,
				"z": 3.1131623161,
				"element": "H" 
			},
			{
				"x": 1.7179128053,
				"y": -1.0756929044,
				"z": 1.6491854066,
				"element": "H" 
			},
			{
				"x": 3.8262477713,
				"y": -1.1382010385,
				"z": 0.3541571143,
				"element": "H" 
			},
			{
				"x": 4.9668264291,
				"y": 0.9814834761,
				"z": -0.274448872,
				"element": "H" 
			},
			{
				"x": 3.9768531359,
				"y": 3.1592900482,
				"z": 0.4057866343,
				"element": "H" 
			},
			{
				"x": 1.8579727056,
				"y": 3.2173240434,
				"z": 1.6870326013,
				"element": "H" 
			},
			{
				"x": -0.255047764,
				"y": -0.0112754118,
				"z": -0.003575899,
				"element": "H" 
			},
			{
				"x": -3.2471138707,
				"y": -3.1350307588,
				"z": 0.7935646206,
				"element": "H" 
			},
			{
				"x": -3.3044225741,
				"y": -4.9701954459,
				"z": -0.908582364,
				"element": "H" 
			},
			{
				"x": -0.9415895425,
				"y": -2.5489513517,
				"z": -3.5620954426,
				"element": "H" 
			},
			{
				"x": -0.8901665538,
				"y": -0.7413451152,
				"z": -1.8803253855,
				"element": "H" 
			}
		],
		 "valence_orbital": [ 
			{
				"type": "occ",
				"energy": -0.26635,
				"method": "rhf"
			},
			{
				"type": "occ",
				"energy": -0.26038,
				"method": "rhf"
			},
			{
				"type": "occ",
				"energy": -0.2574,
				"method": "rhf"
			},
			{
				"type": "occ",
				"energy": -0.25278,
				"method": "rhf"
			},
			{
				"type": "occ",
				"energy": -0.24835,
				"method": "rhf"
			},
			{
				"type": "unocc",
				"energy": -0.04732,
				"method": "rhf"
			},
			{
				"type": "unocc",
				"energy": -0.024,
				"method": "rhf"
			},
			{
				"type": "unocc",
				"energy": -0.01375,
				"method": "rhf"
			},
			{
				"type": "unocc",
				"energy": -0.01099,
				"method": "rhf"
			},
			{
				"type": "unocc",
				"energy": 0.00024,
				"method": "rhf"
			}
		],
		"cosmo_sigma_profile": { 
			"-0.025": 0.0,
			"-0.024": 0.0,
			"-0.023": 0.0,
			"-0.022": 0.0,
			"-0.021": 0.0,
			"-0.02": 0.0,
			"-0.019": 0.204514073371,
			"-0.018": 0.850761532564,
			"-0.017": 1.26691372206,
			"-0.016": 0.564276410699,
			"-0.015": 0.512460463149,
			"-0.014": 1.13378673801,
			"-0.013": 1.51889834404,
			"-0.012": 0.718201232212,
			"-0.011": 1.7255082636,
			"-0.01": 1.21081429321,
			"-0.009": 2.17013817319,
			"-0.008": 5.10092345776,
			"-0.007": 9.05990852663,
			"-0.006": 12.883534382,
			"-0.005": 23.1149787654,
			"-0.004": 23.1393487534,
			"-0.003": 25.5284847418,
			"-0.002": 20.9773050668,
			"-0.001": 26.0210053195,
			"0.0": 21.5060472837,
			"0.001": 27.0500158217,
			"0.002": 30.221554086,
			"0.003": 23.8597277823,
			"0.004": 22.719918556,
			"0.005": 14.7902436147,
			"0.006": 9.63810330133,
			"0.007": 3.84936365005,
			"0.008": 4.41859243059,
			"0.009": 2.543260355,
			"0.01": 3.06122422059,
			"0.011": 5.32418630231,
			"0.012": 4.59912807371,
			"0.013": 4.63557438941,
			"0.014": 0.879191420143,
			"0.015": 0.0,
			"0.016": 0.0,
			"0.017": 0.0,
			"0.018": 0.0,
			"0.019": 0.0,
			"0.02": 0.0,
			"0.021": 0.0,
			"0.022": 0.0,
			"0.023": 0.0,
			"0.024": 0.0,
			"0.025": 0.0
		}
	}
}
