{
	 "smiles": "CC1=CC(NC(=O)CCl)=C(C)C=C1", 
	 "Tm": 435.15, 
	 "num_atms": 25, 
	 "gaussian": { 
		 "optdone": 1, 
		 "sigma_profile": "yes", 
		 "theory": "DFT", 
		 "functional": "B3LYP", 
		 "basiset": "6-31G**", 
		 "properties": { 
			 "R2extent": 4818.5647, 
			 "electric_dipole_moment_norm": 4.37493683726, 
			 "electric_quadrupole_moment_norm": 24.2945437002, 
			 "total_energy": -978.489237373, 
			 "HOMO_LUMO_gap": 0.20078, 
			 "cosmo_polarized_energy": -11.6, 
			 "cosmo_cavitation_energy": 30.05, 
			 "cosmo_dispersion_energy": -21.2, 
			 "cosmo_repulsion_energy": 1.7, 
			 "cosmo_total_nonelectrostatic_energy": 10.54, 
			 "SMD_solvation_energy": 5.74 
		},
		"coords": [
			{
				"x": 3.3950274131,
				"y": -0.5005159732,
				"z": -0.2901704606,
				"element": "C" 
			},
			{
				"x": 1.9324945676,
				"y": -0.203950997,
				"z": -0.0539966703,
				"element": "C" 
			},
			{
				"x": 1.4344472058,
				"y": -0.0705963671,
				"z": 1.2473395594,
				"element": "C" 
			},
			{
				"x": 0.0795421608,
				"y": 0.1877520809,
				"z": 1.4830163388,
				"element": "C" 
			},
			{
				"x": -0.4182104277,
				"y": 0.3202296169,
				"z": 2.8082012454,
				"element": "N" 
			},
			{
				"x": 0.0340024394,
				"y": 1.045813112,
				"z": 3.8880125351,
				"element": "C" 
			},
			{
				"x": -0.5380510536,
				"y": 0.992317216,
				"z": 4.9653687529,
				"element": "O" 
			},
			{
				"x": 1.2300037298,
				"y": 1.9726683493,
				"z": 3.681363548,
				"element": "C" 
			},
			{
				"x": 2.7414957501,
				"y": 1.2541256214,
				"z": 4.3820979604,
				"element": "Cl" 
			},
			{
				"x": -0.8321095863,
				"y": 0.2788675911,
				"z": 0.4101813269,
				"element": "C" 
			},
			{
				"x": -2.299098407,
				"y": 0.542184595,
				"z": 0.6480952459,
				"element": "C" 
			},
			{
				"x": -0.3251127278,
				"y": 0.1235162042,
				"z": -0.8829535799,
				"element": "C" 
			},
			{
				"x": 1.030829558,
				"y": -0.1021276938,
				"z": -1.118438337,
				"element": "C" 
			},
			{
				"x": 3.5865884479,
				"y": -1.5806861271,
				"z": -0.2751041021,
				"element": "H" 
			},
			{
				"x": 4.0257794213,
				"y": -0.0486808712,
				"z": 0.4809081734,
				"element": "H" 
			},
			{
				"x": 3.7250339924,
				"y": -0.1254937991,
				"z": -1.2634508026,
				"element": "H" 
			},
			{
				"x": 2.105843296,
				"y": -0.1847841834,
				"z": 2.0926424446,
				"element": "H" 
			},
			{
				"x": -1.2851385115,
				"y": -0.1574459746,
				"z": 3.0261740435,
				"element": "H" 
			},
			{
				"x": 1.0349192663,
				"y": 2.8838059381,
				"z": 4.2448491635,
				"element": "H" 
			},
			{
				"x": 1.4359148224,
				"y": 2.1975601928,
				"z": 2.6363182376,
				"element": "H" 
			},
			{
				"x": -2.4544672816,
				"y": 1.4206306244,
				"z": 1.2840942326,
				"element": "H" 
			},
			{
				"x": -2.7959942321,
				"y": -0.3029205133,
				"z": 1.1438348449,
				"element": "H" 
			},
			{
				"x": -2.8207976379,
				"y": 0.7105715001,
				"z": -0.2971523249,
				"element": "H" 
			},
			{
				"x": -1.0086397804,
				"y": 0.1971293675,
				"z": -1.7250213488,
				"element": "H" 
			},
			{
				"x": 1.3889975751,
				"y": -0.2041695097,
				"z": -2.1395100265,
				"element": "H" 
			}
		],
		 "valence_orbital": [ 
			{
				"type": "occ",
				"energy": -0.30555,
				"method": "rhf"
			},
			{
				"type": "occ",
				"energy": -0.29376,
				"method": "rhf"
			},
			{
				"type": "occ",
				"energy": -0.2611,
				"method": "rhf"
			},
			{
				"type": "occ",
				"energy": -0.2494,
				"method": "rhf"
			},
			{
				"type": "occ",
				"energy": -0.23185,
				"method": "rhf"
			},
			{
				"type": "unocc",
				"energy": -0.03107,
				"method": "rhf"
			},
			{
				"type": "unocc",
				"energy": -0.01006,
				"method": "rhf"
			},
			{
				"type": "unocc",
				"energy": -0.00388,
				"method": "rhf"
			},
			{
				"type": "unocc",
				"energy": 0.05732,
				"method": "rhf"
			},
			{
				"type": "unocc",
				"energy": 0.07912,
				"method": "rhf"
			}
		],
		"cosmo_sigma_profile": { 
			"-0.025": 0.0,
			"-0.024": 0.0,
			"-0.023": 0.0,
			"-0.022": 0.0,
			"-0.021": 0.0,
			"-0.02": 0.0,
			"-0.019": 0.0,
			"-0.018": 0.0,
			"-0.017": 0.0,
			"-0.016": 0.0,
			"-0.015": 0.0,
			"-0.014": 0.298672002384,
			"-0.013": 0.874497424101,
			"-0.012": 1.19366413488,
			"-0.011": 0.974858373802,
			"-0.01": 1.54099480894,
			"-0.009": 1.72616430231,
			"-0.008": 3.8779466319,
			"-0.007": 4.59966787026,
			"-0.006": 7.38476871517,
			"-0.005": 12.6355705717,
			"-0.004": 20.849602537,
			"-0.003": 21.1781477503,
			"-0.002": 21.7531874598,
			"-0.001": 23.0028987951,
			"0.0": 23.5209376651,
			"0.001": 15.3741515251,
			"0.002": 13.0375703063,
			"0.003": 11.843382631,
			"0.004": 12.9542409193,
			"0.005": 15.3733770872,
			"0.006": 8.42583649912,
			"0.007": 1.82505313112,
			"0.008": 0.977439918863,
			"0.009": 1.33178099137,
			"0.01": 1.3688232395,
			"0.011": 2.12956051802,
			"0.012": 3.68349844151,
			"0.013": 5.213314068,
			"0.014": 1.02727711087,
			"0.015": 0.0,
			"0.016": 0.0,
			"0.017": 0.0,
			"0.018": 0.0,
			"0.019": 0.0,
			"0.02": 0.0,
			"0.021": 0.0,
			"0.022": 0.0,
			"0.023": 0.0,
			"0.024": 0.0,
			"0.025": 0.0
		}
	}
}
