{
	 "smiles": "OC(=O)COC1=C(C=CC=C1)C(F)(F)F", 
	 "Tm": 425.15, 
	 "num_atms": 22, 
	 "gaussian": { 
		 "optdone": 1, 
		 "sigma_profile": "yes", 
		 "theory": "DFT", 
		 "functional": "B3LYP", 
		 "basiset": "6-31G**", 
		 "properties": { 
			 "R2extent": 3173.413, 
			 "electric_dipole_moment_norm": 4.06021394633, 
			 "electric_quadrupole_moment_norm": 15.33906992, 
			 "total_energy": -872.36973564, 
			 "HOMO_LUMO_gap": 0.20994, 
			 "cosmo_polarized_energy": -12.42, 
			 "cosmo_cavitation_energy": 27.47, 
			 "cosmo_dispersion_energy": -19.56, 
			 "cosmo_repulsion_energy": 1.47, 
			 "cosmo_total_nonelectrostatic_energy": 9.39, 
			 "SMD_solvation_energy": 7.19 
		},
		"coords": [
			{
				"x": 2.7406882908,
				"y": -0.2304977928,
				"z": -0.6299932837,
				"element": "O" 
			},
			{
				"x": 2.2872113332,
				"y": -1.3561538305,
				"z": -1.2042825839,
				"element": "C" 
			},
			{
				"x": 2.673050788,
				"y": -1.7430797533,
				"z": -2.2790470065,
				"element": "O" 
			},
			{
				"x": 1.2805797357,
				"y": -2.1646538988,
				"z": -0.3755205925,
				"element": "C" 
			},
			{
				"x": 0.6599381201,
				"y": -1.3903435034,
				"z": 0.6461878664,
				"element": "O" 
			},
			{
				"x": -0.368382178,
				"y": -0.5349612133,
				"z": 0.3315031922,
				"element": "C" 
			},
			{
				"x": -0.5778379247,
				"y": 0.5231162698,
				"z": 1.236994178,
				"element": "C" 
			},
			{
				"x": -1.6298134332,
				"y": 1.4146657092,
				"z": 1.028331465,
				"element": "C" 
			},
			{
				"x": -2.4700340637,
				"y": 1.2730313285,
				"z": -0.0757674949,
				"element": "C" 
			},
			{
				"x": -2.2462392346,
				"y": 0.2338327866,
				"z": -0.9762773672,
				"element": "C" 
			},
			{
				"x": -1.2003743059,
				"y": -0.6711922847,
				"z": -0.7809791968,
				"element": "C" 
			},
			{
				"x": 0.3528856357,
				"y": 0.7003469848,
				"z": 2.4055450798,
				"element": "C" 
			},
			{
				"x": 1.6478019139,
				"y": 0.8660599159,
				"z": 1.9901841556,
				"element": "F" 
			},
			{
				"x": 0.3505292128,
				"y": -0.3530232722,
				"z": 3.2422903638,
				"element": "F" 
			},
			{
				"x": 0.0463949278,
				"y": 1.7933752343,
				"z": 3.1312566292,
				"element": "F" 
			},
			{
				"x": 2.3227980215,
				"y": -0.0980849094,
				"z": 0.2397032225,
				"element": "H" 
			},
			{
				"x": 0.5697562705,
				"y": -2.6450358219,
				"z": -1.0500794083,
				"element": "H" 
			},
			{
				"x": 1.826205165,
				"y": -2.9536317121,
				"z": 0.1504938814,
				"element": "H" 
			},
			{
				"x": -1.7778396654,
				"y": 2.2251118156,
				"z": 1.732378906,
				"element": "H" 
			},
			{
				"x": -3.2841359942,
				"y": 1.9724418037,
				"z": -0.2330705908,
				"element": "H" 
			},
			{
				"x": -2.8878249582,
				"y": 0.1170877776,
				"z": -1.8444610242,
				"element": "H" 
			},
			{
				"x": -1.0483576571,
				"y": -1.4709116335,
				"z": -1.4952903913,
				"element": "H" 
			}
		],
		 "valence_orbital": [ 
			{
				"type": "occ",
				"energy": -0.34741,
				"method": "rhf"
			},
			{
				"type": "occ",
				"energy": -0.31904,
				"method": "rhf"
			},
			{
				"type": "occ",
				"energy": -0.2844,
				"method": "rhf"
			},
			{
				"type": "occ",
				"energy": -0.28226,
				"method": "rhf"
			},
			{
				"type": "occ",
				"energy": -0.25217,
				"method": "rhf"
			},
			{
				"type": "unocc",
				"energy": -0.04223,
				"method": "rhf"
			},
			{
				"type": "unocc",
				"energy": -0.02242,
				"method": "rhf"
			},
			{
				"type": "unocc",
				"energy": 0.00037,
				"method": "rhf"
			},
			{
				"type": "unocc",
				"energy": 0.06797,
				"method": "rhf"
			},
			{
				"type": "unocc",
				"energy": 0.08049,
				"method": "rhf"
			}
		],
		"cosmo_sigma_profile": { 
			"-0.025": 0.0,
			"-0.024": 0.0,
			"-0.023": 0.0,
			"-0.022": 0.0,
			"-0.021": 0.0,
			"-0.02": 0.0,
			"-0.019": 0.0,
			"-0.018": 0.0,
			"-0.017": 0.0,
			"-0.016": 0.0,
			"-0.015": 0.0,
			"-0.014": 0.0,
			"-0.013": 0.0,
			"-0.012": 0.000918488307032,
			"-0.011": 0.868163139447,
			"-0.01": 4.94226020293,
			"-0.009": 5.69718385423,
			"-0.008": 5.50244299488,
			"-0.007": 9.64815420854,
			"-0.006": 13.0415267051,
			"-0.005": 11.6451810957,
			"-0.004": 11.4236392222,
			"-0.003": 11.2000865461,
			"-0.002": 11.588220039,
			"-0.001": 10.6310439181,
			"0.0": 13.446503845,
			"0.001": 17.4390585016,
			"0.002": 28.8523667862,
			"0.003": 25.1615810334,
			"0.004": 7.00514563828,
			"0.005": 3.07765203354,
			"0.006": 4.19960336562,
			"0.007": 3.70293590015,
			"0.008": 2.62266010195,
			"0.009": 4.44712886811,
			"0.01": 4.56183009037,
			"0.011": 5.29713200393,
			"0.012": 4.09033743266,
			"0.013": 0.639503386748,
			"0.014": 0.0,
			"0.015": 0.0,
			"0.016": 0.0,
			"0.017": 0.0,
			"0.018": 0.0,
			"0.019": 0.0,
			"0.02": 0.0,
			"0.021": 0.0,
			"0.022": 0.0,
			"0.023": 0.0,
			"0.024": 0.0,
			"0.025": 0.0
		}
	}
}
