{
	 "smiles": "CC1=CP(=O)(CC1)C1=CC=CC=C1", 
	 "Tm": 333.15, 
	 "num_atms": 26, 
	 "gaussian": { 
		 "optdone": 1, 
		 "sigma_profile": "yes", 
		 "theory": "DFT", 
		 "functional": "B3LYP", 
		 "basiset": "6-31G**", 
		 "properties": { 
			 "R2extent": 3379.4336, 
			 "electric_dipole_moment_norm": 4.68079087121, 
			 "electric_quadrupole_moment_norm": 14.2387134464, 
			 "total_energy": -843.600310047, 
			 "HOMO_LUMO_gap": 0.22541, 
			 "cosmo_polarized_energy": -15.13, 
			 "cosmo_cavitation_energy": 30.17, 
			 "cosmo_dispersion_energy": -21.84, 
			 "cosmo_repulsion_energy": 1.72, 
			 "cosmo_total_nonelectrostatic_energy": 10.05, 
			 "SMD_solvation_energy": 6.36 
		},
		"coords": [
			{
				"x": 1.261537104,
				"y": 2.9331691993,
				"z": -0.102179839,
				"element": "C" 
			},
			{
				"x": 1.2183563332,
				"y": 1.4493403722,
				"z": -0.3283614722,
				"element": "C" 
			},
			{
				"x": 0.1128578628,
				"y": 0.7377076607,
				"z": -0.6056692207,
				"element": "C" 
			},
			{
				"x": 0.4683966496,
				"y": -1.0038322802,
				"z": -0.9268759113,
				"element": "P" 
			},
			{
				"x": 0.2480513231,
				"y": -1.5286395389,
				"z": -2.3186045202,
				"element": "O" 
			},
			{
				"x": 2.2290633222,
				"y": -0.840522178,
				"z": -0.3563927116,
				"element": "C" 
			},
			{
				"x": 2.5247028468,
				"y": 0.6737633918,
				"z": -0.2745814262,
				"element": "C" 
			},
			{
				"x": -0.4382633007,
				"y": -1.9951305045,
				"z": 0.3147999252,
				"element": "C" 
			},
			{
				"x": -0.4913194527,
				"y": -1.6408234972,
				"z": 1.6710037946,
				"element": "C" 
			},
			{
				"x": -1.1905164472,
				"y": -2.4363733232,
				"z": 2.5783814249,
				"element": "C" 
			},
			{
				"x": -1.8440859196,
				"y": -3.5899196459,
				"z": 2.1359419066,
				"element": "C" 
			},
			{
				"x": -1.7996437391,
				"y": -3.9444864868,
				"z": 0.7864337911,
				"element": "C" 
			},
			{
				"x": -1.0994885709,
				"y": -3.1496834532,
				"z": -0.1231840333,
				"element": "C" 
			},
			{
				"x": 0.2721007873,
				"y": 3.3886262608,
				"z": -0.1861003021,
				"element": "H" 
			},
			{
				"x": 1.9257134862,
				"y": 3.4144839285,
				"z": -0.8312890786,
				"element": "H" 
			},
			{
				"x": 1.6678901016,
				"y": 3.1650638056,
				"z": 0.8904513797,
				"element": "H" 
			},
			{
				"x": -0.8753067885,
				"y": 1.1745551298,
				"z": -0.7100009738,
				"element": "H" 
			},
			{
				"x": 2.8748371383,
				"y": -1.3641451236,
				"z": -1.0652082384,
				"element": "H" 
			},
			{
				"x": 2.3418863282,
				"y": -1.3224681846,
				"z": 0.6186866498,
				"element": "H" 
			},
			{
				"x": 3.165097492,
				"y": 1.0004008124,
				"z": -1.1047782928,
				"element": "H" 
			},
			{
				"x": 3.0747587724,
				"y": 0.924112095,
				"z": 0.6415473959,
				"element": "H" 
			},
			{
				"x": 0.0044260988,
				"y": -0.7374298013,
				"z": 2.017880988,
				"element": "H" 
			},
			{
				"x": -1.229888945,
				"y": -2.1564936581,
				"z": 3.6273920531,
				"element": "H" 
			},
			{
				"x": -2.3896153554,
				"y": -4.2085222522,
				"z": 2.8431247974,
				"element": "H" 
			},
			{
				"x": -2.3108423815,
				"y": -4.8388699072,
				"z": 0.4416543642,
				"element": "H" 
			},
			{
				"x": -1.0582047459,
				"y": -3.4054828213,
				"z": -1.17757245,
				"element": "H" 
			}
		],
		 "valence_orbital": [ 
			{
				"type": "occ",
				"energy": -0.27128,
				"method": "rhf"
			},
			{
				"type": "occ",
				"energy": -0.25556,
				"method": "rhf"
			},
			{
				"type": "occ",
				"energy": -0.25372,
				"method": "rhf"
			},
			{
				"type": "occ",
				"energy": -0.24936,
				"method": "rhf"
			},
			{
				"type": "occ",
				"energy": -0.24769,
				"method": "rhf"
			},
			{
				"type": "unocc",
				"energy": -0.02228,
				"method": "rhf"
			},
			{
				"type": "unocc",
				"energy": -0.0121,
				"method": "rhf"
			},
			{
				"type": "unocc",
				"energy": -0.00172,
				"method": "rhf"
			},
			{
				"type": "unocc",
				"energy": 0.07179,
				"method": "rhf"
			},
			{
				"type": "unocc",
				"energy": 0.08775,
				"method": "rhf"
			}
		],
		"cosmo_sigma_profile": { 
			"-0.025": 0.0,
			"-0.024": 0.0,
			"-0.023": 0.0,
			"-0.022": 0.0,
			"-0.021": 0.0,
			"-0.02": 0.0,
			"-0.019": 0.0,
			"-0.018": 0.0,
			"-0.017": 0.0,
			"-0.016": 0.0,
			"-0.015": 0.0,
			"-0.014": 0.0,
			"-0.013": 0.0,
			"-0.012": 0.0,
			"-0.011": 0.0,
			"-0.01": 0.0,
			"-0.009": 0.0,
			"-0.008": 0.0,
			"-0.007": 0.61166525065,
			"-0.006": 8.80642013434,
			"-0.005": 26.8062946815,
			"-0.004": 33.6917662331,
			"-0.003": 27.0330740463,
			"-0.002": 22.9118523155,
			"-0.001": 20.8385807905,
			"0.0": 15.619523917,
			"0.001": 11.7534404242,
			"0.002": 12.9348234898,
			"0.003": 11.3380901674,
			"0.004": 11.172790138,
			"0.005": 10.511382745,
			"0.006": 1.65335376705,
			"0.007": 1.42847896743,
			"0.008": 1.7477572157,
			"0.009": 1.2828756753,
			"0.01": 0.675562620413,
			"0.011": 1.15396654956,
			"0.012": 1.48741951307,
			"0.013": 1.21222253159,
			"0.014": 1.13828389701,
			"0.015": 1.42086565904,
			"0.016": 4.83206123603,
			"0.017": 5.04978990464,
			"0.018": 0.365676231872,
			"0.019": 0.0,
			"0.02": 0.0,
			"0.021": 0.0,
			"0.022": 0.0,
			"0.023": 0.0,
			"0.024": 0.0,
			"0.025": 0.0
		}
	}
}
