{
	 "smiles": "CC(=O)NC1=CC=C(Br)C=C1", 
	 "Tm": 441.15, 
	 "num_atms": 19, 
	 "gaussian": { 
		 "optdone": 1, 
		 "sigma_profile": "yes", 
		 "theory": "DFT", 
		 "functional": "B3LYP", 
		 "basiset": "6-31G**", 
		 "properties": { 
			 "R2extent": 5289.9089, 
			 "electric_dipole_moment_norm": 1.05365314027, 
			 "electric_quadrupole_moment_norm": 15.0646614721, 
			 "total_energy": -3011.06677604, 
			 "HOMO_LUMO_gap": 0.19691, 
			 "cosmo_polarized_energy": -11.59, 
			 "cosmo_cavitation_energy": 25.46, 
			 "cosmo_dispersion_energy": -19.26, 
			 "cosmo_repulsion_energy": 1.54, 
			 "cosmo_total_nonelectrostatic_energy": 7.74, 
			 "SMD_solvation_energy": 4.07 
		},
		"coords": [
			{
				"x": 2.577138666,
				"y": -0.2448813411,
				"z": 0.920321447,
				"element": "C" 
			},
			{
				"x": 1.7363412666,
				"y": 1.0007501636,
				"z": 0.7424740224,
				"element": "C" 
			},
			{
				"x": 2.2366677079,
				"y": 2.1157413453,
				"z": 0.7113704136,
				"element": "O" 
			},
			{
				"x": 0.3565648541,
				"y": 0.8977531744,
				"z": 0.6087824318,
				"element": "N" 
			},
			{
				"x": -0.5857972301,
				"y": -0.1441800282,
				"z": 0.5892089927,
				"element": "C" 
			},
			{
				"x": -0.2975501295,
				"y": -1.5125587361,
				"z": 0.7202450227,
				"element": "C" 
			},
			{
				"x": -1.3223280509,
				"y": -2.4590136221,
				"z": 0.6851980427,
				"element": "C" 
			},
			{
				"x": -2.6440039352,
				"y": -2.0585279269,
				"z": 0.5198152569,
				"element": "C" 
			},
			{
				"x": -4.0379703153,
				"y": -3.3627831138,
				"z": 0.4735585883,
				"element": "Br" 
			},
			{
				"x": -2.9534990076,
				"y": -0.7055847375,
				"z": 0.387711296,
				"element": "C" 
			},
			{
				"x": -1.9320598285,
				"y": 0.2355021801,
				"z": 0.4228238461,
				"element": "C" 
			},
			{
				"x": 2.4764493947,
				"y": -0.9215932455,
				"z": 0.0660927342,
				"element": "H" 
			},
			{
				"x": 3.6151466803,
				"y": 0.0759210052,
				"z": 1.0023510624,
				"element": "H" 
			},
			{
				"x": 2.2971394627,
				"y": -0.7913104118,
				"z": 1.8263036157,
				"element": "H" 
			},
			{
				"x": -0.036895262,
				"y": 1.825229985,
				"z": 0.499945878,
				"element": "H" 
			},
			{
				"x": 0.7142416089,
				"y": -1.8654089398,
				"z": 0.8503143671,
				"element": "H" 
			},
			{
				"x": -1.0817331898,
				"y": -3.511130182,
				"z": 0.7879296699,
				"element": "H" 
			},
			{
				"x": -3.9819218725,
				"y": -0.3881723729,
				"z": 0.2585790686,
				"element": "H" 
			},
			{
				"x": -2.1799308198,
				"y": 1.288846804,
				"z": 0.3192742437,
				"element": "H" 
			}
		],
		 "valence_orbital": [ 
			{
				"type": "occ",
				"energy": -0.29064,
				"method": "rhf"
			},
			{
				"type": "occ",
				"energy": -0.28831,
				"method": "rhf"
			},
			{
				"type": "occ",
				"energy": -0.2738,
				"method": "rhf"
			},
			{
				"type": "occ",
				"energy": -0.26359,
				"method": "rhf"
			},
			{
				"type": "occ",
				"energy": -0.22335,
				"method": "rhf"
			},
			{
				"type": "unocc",
				"energy": -0.02644,
				"method": "rhf"
			},
			{
				"type": "unocc",
				"energy": -0.02436,
				"method": "rhf"
			},
			{
				"type": "unocc",
				"energy": 0.00341,
				"method": "rhf"
			},
			{
				"type": "unocc",
				"energy": 0.02908,
				"method": "rhf"
			},
			{
				"type": "unocc",
				"energy": 0.08048,
				"method": "rhf"
			}
		],
		"cosmo_sigma_profile": { 
			"-0.025": 0.0,
			"-0.024": 0.0,
			"-0.023": 0.0,
			"-0.022": 0.0,
			"-0.021": 0.0,
			"-0.02": 0.0,
			"-0.019": 0.0,
			"-0.018": 0.0,
			"-0.017": 0.0,
			"-0.016": 0.0,
			"-0.015": 0.180393282934,
			"-0.014": 1.17489086768,
			"-0.013": 1.02056757308,
			"-0.012": 1.50796428051,
			"-0.011": 0.769528354969,
			"-0.01": 0.796955518976,
			"-0.009": 1.41133794505,
			"-0.008": 2.63143029656,
			"-0.007": 10.2238190163,
			"-0.006": 13.889346071,
			"-0.005": 12.1539795742,
			"-0.004": 12.1530437202,
			"-0.003": 12.9512772464,
			"-0.002": 12.9609577015,
			"-0.001": 13.4235569691,
			"0.0": 11.3438570604,
			"0.001": 14.2146791916,
			"0.002": 17.2608618549,
			"0.003": 20.2385861648,
			"0.004": 17.7984874044,
			"0.005": 9.49249643799,
			"0.006": 1.29018886308,
			"0.007": 2.05326078364,
			"0.008": 1.04592595168,
			"0.009": 0.851256983943,
			"0.01": 1.01358041206,
			"0.011": 2.68926314912,
			"0.012": 2.28507568135,
			"0.013": 5.7409105639,
			"0.014": 2.03121924685,
			"0.015": 0.159358553824,
			"0.016": 0.0,
			"0.017": 0.0,
			"0.018": 0.0,
			"0.019": 0.0,
			"0.02": 0.0,
			"0.021": 0.0,
			"0.022": 0.0,
			"0.023": 0.0,
			"0.024": 0.0,
			"0.025": 0.0
		}
	}
}
