{
	 "smiles": "CCC1=CC=C(C=C1)C(O)=O", 
	 "Tm": 386.15, 
	 "num_atms": 21, 
	 "gaussian": { 
		 "optdone": 1, 
		 "sigma_profile": "yes", 
		 "theory": "DFT", 
		 "functional": "B3LYP", 
		 "basiset": "6-31G**", 
		 "properties": { 
			 "R2extent": 2865.8198, 
			 "electric_dipole_moment_norm": 5.2158097147, 
			 "electric_quadrupole_moment_norm": 17.9683710581, 
			 "total_energy": -499.45212763, 
			 "HOMO_LUMO_gap": 0.20891, 
			 "cosmo_polarized_energy": -13.34, 
			 "cosmo_cavitation_energy": 24.95, 
			 "cosmo_dispersion_energy": -18.14, 
			 "cosmo_repulsion_energy": 1.46, 
			 "cosmo_total_nonelectrostatic_energy": 8.27, 
			 "SMD_solvation_energy": 5.41 
		},
		"coords": [
			{
				"x": -1.0941947581,
				"y": 1.6864409667,
				"z": -3.4485973461,
				"element": "C" 
			},
			{
				"x": -1.5206633336,
				"y": 1.2579241193,
				"z": -2.032175608,
				"element": "C" 
			},
			{
				"x": -0.6204987141,
				"y": 0.1904084809,
				"z": -1.4495704994,
				"element": "C" 
			},
			{
				"x": 0.547028651,
				"y": 0.5350472051,
				"z": -0.7508018233,
				"element": "C" 
			},
			{
				"x": 1.3996571564,
				"y": -0.442145875,
				"z": -0.2492307564,
				"element": "C" 
			},
			{
				"x": 1.0974228959,
				"y": -1.8005550921,
				"z": -0.4165283077,
				"element": "C" 
			},
			{
				"x": -0.0609022694,
				"y": -2.154267865,
				"z": -1.1226668638,
				"element": "C" 
			},
			{
				"x": -0.9055011598,
				"y": -1.1695921929,
				"z": -1.6313356102,
				"element": "C" 
			},
			{
				"x": 2.0558218192,
				"y": -2.8034552857,
				"z": 0.1481057701,
				"element": "C" 
			},
			{
				"x": 1.5812115503,
				"y": -4.065205787,
				"z": 0.3398271747,
				"element": "O" 
			},
			{
				"x": 3.201308751,
				"y": -2.5426118222,
				"z": 0.433204047,
				"element": "O" 
			},
			{
				"x": -1.1165736917,
				"y": 0.8374436942,
				"z": -4.1392810612,
				"element": "H" 
			},
			{
				"x": -0.0753850024,
				"y": 2.0867048528,
				"z": -3.4478872577,
				"element": "H" 
			},
			{
				"x": -1.7633257114,
				"y": 2.460110536,
				"z": -3.8385444321,
				"element": "H" 
			},
			{
				"x": -1.5186122267,
				"y": 2.1345617468,
				"z": -1.3738383667,
				"element": "H" 
			},
			{
				"x": -2.5529723641,
				"y": 0.8901247252,
				"z": -2.0607894876,
				"element": "H" 
			},
			{
				"x": 0.786868214,
				"y": 1.5845966288,
				"z": -0.5991703152,
				"element": "H" 
			},
			{
				"x": 2.3068446586,
				"y": -0.1775016433,
				"z": 0.2834037609,
				"element": "H" 
			},
			{
				"x": -0.2994525379,
				"y": -3.1978094963,
				"z": -1.3164732436,
				"element": "H" 
			},
			{
				"x": -1.7971616433,
				"y": -1.4605602773,
				"z": -2.1808786127,
				"element": "H" 
			},
			{
				"x": 0.6210797161,
				"y": -4.0795576192,
				"z": 0.2256288391,
				"element": "H" 
			}
		],
		 "valence_orbital": [ 
			{
				"type": "occ",
				"energy": -0.34659,
				"method": "rhf"
			},
			{
				"type": "occ",
				"energy": -0.31229,
				"method": "rhf"
			},
			{
				"type": "occ",
				"energy": -0.27205,
				"method": "rhf"
			},
			{
				"type": "occ",
				"energy": -0.26787,
				"method": "rhf"
			},
			{
				"type": "occ",
				"energy": -0.25643,
				"method": "rhf"
			},
			{
				"type": "unocc",
				"energy": -0.04752,
				"method": "rhf"
			},
			{
				"type": "unocc",
				"energy": -0.01967,
				"method": "rhf"
			},
			{
				"type": "unocc",
				"energy": 0.04909,
				"method": "rhf"
			},
			{
				"type": "unocc",
				"energy": 0.06286,
				"method": "rhf"
			},
			{
				"type": "unocc",
				"energy": 0.08849,
				"method": "rhf"
			}
		],
		"cosmo_sigma_profile": { 
			"-0.025": 0.0,
			"-0.024": 0.0,
			"-0.023": 0.0,
			"-0.022": 0.0,
			"-0.021": 0.0,
			"-0.02": 0.0,
			"-0.019": 0.118298619082,
			"-0.018": 0.643420755082,
			"-0.017": 0.850870770353,
			"-0.016": 1.08655056694,
			"-0.015": 1.02214897931,
			"-0.014": 0.961295995013,
			"-0.013": 0.454510019237,
			"-0.012": 1.27220679056,
			"-0.011": 1.72760975787,
			"-0.01": 1.04506933564,
			"-0.009": 1.14326823653,
			"-0.008": 1.05938887423,
			"-0.007": 2.02163245397,
			"-0.006": 6.73075585292,
			"-0.005": 9.92785943065,
			"-0.004": 13.4724989262,
			"-0.003": 18.382353783,
			"-0.002": 18.2399779253,
			"-0.001": 18.7393653243,
			"0.0": 19.2070450485,
			"0.001": 15.208647201,
			"0.002": 10.0473813663,
			"0.003": 12.205566821,
			"0.004": 11.3383988861,
			"0.005": 2.65720896442,
			"0.006": 2.28839633657,
			"0.007": 2.47609844722,
			"0.008": 2.62104350591,
			"0.009": 3.46863980314,
			"0.01": 4.0906976221,
			"0.011": 5.46245096672,
			"0.012": 5.43685172357,
			"0.013": 2.06458601791,
			"0.014": 0.188590998433,
			"0.015": 0.0,
			"0.016": 0.0,
			"0.017": 0.0,
			"0.018": 0.0,
			"0.019": 0.0,
			"0.02": 0.0,
			"0.021": 0.0,
			"0.022": 0.0,
			"0.023": 0.0,
			"0.024": 0.0,
			"0.025": 0.0
		}
	}
}
