{
	 "smiles": "CN1C=C(C(=O)N(C)C1=O)S(=O)(=O)NN", 
	 "Tm": 408.15, 
	 "num_atms": 25, 
	 "gaussian": { 
		 "optdone": 1, 
		 "sigma_profile": "yes", 
		 "theory": "DFT", 
		 "functional": "B3LYP", 
		 "basiset": "6-31G**", 
		 "properties": { 
			 "R2extent": 3995.8197, 
			 "electric_dipole_moment_norm": 4.05673745392, 
			 "electric_quadrupole_moment_norm": 5.84550210846, 
			 "total_energy": -1152.67953353, 
			 "HOMO_LUMO_gap": 0.19074, 
			 "cosmo_polarized_energy": -22.37, 
			 "cosmo_cavitation_energy": 30.41, 
			 "cosmo_dispersion_energy": -22.66, 
			 "cosmo_repulsion_energy": 1.71, 
			 "cosmo_total_nonelectrostatic_energy": 9.46, 
			 "SMD_solvation_energy": 6.57 
		},
		"coords": [
			{
				"x": 3.1612703768,
				"y": 1.8165825621,
				"z": -0.347736115,
				"element": "C" 
			},
			{
				"x": 2.3022870591,
				"y": 0.7274253493,
				"z": 0.1309531907,
				"element": "N" 
			},
			{
				"x": 0.9465304447,
				"y": 0.8152640261,
				"z": 0.1157075042,
				"element": "C" 
			},
			{
				"x": 0.1584169625,
				"y": -0.1945652351,
				"z": 0.5620268536,
				"element": "C" 
			},
			{
				"x": 0.7328767517,
				"y": -1.4053531552,
				"z": 1.1259571404,
				"element": "C" 
			},
			{
				"x": 0.0831114418,
				"y": -2.3169296944,
				"z": 1.6284970402,
				"element": "O" 
			},
			{
				"x": 2.1409057195,
				"y": -1.4432231185,
				"z": 1.0774823258,
				"element": "N" 
			},
			{
				"x": 2.8350491312,
				"y": -2.6285837991,
				"z": 1.599196129,
				"element": "C" 
			},
			{
				"x": 2.9608864587,
				"y": -0.4230125898,
				"z": 0.6030824676,
				"element": "C" 
			},
			{
				"x": 4.176573227,
				"y": -0.4981563664,
				"z": 0.5984245801,
				"element": "O" 
			},
			{
				"x": -1.6036904407,
				"y": -0.0348320234,
				"z": 0.3657148358,
				"element": "S" 
			},
			{
				"x": -2.0984735058,
				"y": -1.0468189743,
				"z": -0.5790878593,
				"element": "O" 
			},
			{
				"x": -1.8891235326,
				"y": 1.3803068209,
				"z": 0.091893492,
				"element": "O" 
			},
			{
				"x": -2.1362114941,
				"y": -0.3833731123,
				"z": 1.9677838601,
				"element": "N" 
			},
			{
				"x": -3.5503085014,
				"y": -0.4562644112,
				"z": 2.0749012093,
				"element": "N" 
			},
			{
				"x": 3.786904282,
				"y": 1.4641490909,
				"z": -1.1698186832,
				"element": "H" 
			},
			{
				"x": 3.8118032716,
				"y": 2.161322096,
				"z": 0.4582737538,
				"element": "H" 
			},
			{
				"x": 2.5254923194,
				"y": 2.6340364089,
				"z": -0.687547147,
				"element": "H" 
			},
			{
				"x": 0.5098135527,
				"y": 1.7300700731,
				"z": -0.2709950179,
				"element": "H" 
			},
			{
				"x": 3.4702955185,
				"y": -2.3459565127,
				"z": 2.4412108329,
				"element": "H" 
			},
			{
				"x": 2.0739607123,
				"y": -3.3372207754,
				"z": 1.9164091995,
				"element": "H" 
			},
			{
				"x": 3.4637401611,
				"y": -3.058256761,
				"z": 0.8173828098,
				"element": "H" 
			},
			{
				"x": -1.7252149453,
				"y": -1.2882596177,
				"z": 2.2144852278,
				"element": "H" 
			},
			{
				"x": -3.9534599756,
				"y": -0.9755811847,
				"z": 1.2918610791,
				"element": "H" 
			},
			{
				"x": -3.9055349951,
				"y": 0.4954309038,
				"z": 2.0530412906,
				"element": "H" 
			}
		],
		 "valence_orbital": [ 
			{
				"type": "occ",
				"energy": -0.2963,
				"method": "rhf"
			},
			{
				"type": "occ",
				"energy": -0.29134,
				"method": "rhf"
			},
			{
				"type": "occ",
				"energy": -0.28058,
				"method": "rhf"
			},
			{
				"type": "occ",
				"energy": -0.26683,
				"method": "rhf"
			},
			{
				"type": "occ",
				"energy": -0.25802,
				"method": "rhf"
			},
			{
				"type": "unocc",
				"energy": -0.06728,
				"method": "rhf"
			},
			{
				"type": "unocc",
				"energy": -0.02182,
				"method": "rhf"
			},
			{
				"type": "unocc",
				"energy": 0.044,
				"method": "rhf"
			},
			{
				"type": "unocc",
				"energy": 0.05015,
				"method": "rhf"
			},
			{
				"type": "unocc",
				"energy": 0.06392,
				"method": "rhf"
			}
		],
		"cosmo_sigma_profile": { 
			"-0.025": 0.0,
			"-0.024": 0.0,
			"-0.023": 0.0,
			"-0.022": 0.0,
			"-0.021": 0.0,
			"-0.02": 0.0,
			"-0.019": 0.0,
			"-0.018": 0.0,
			"-0.017": 0.0,
			"-0.016": 0.0,
			"-0.015": 0.0,
			"-0.014": 0.0,
			"-0.013": 0.968677985915,
			"-0.012": 3.10743183447,
			"-0.011": 4.83596234983,
			"-0.01": 3.68132030205,
			"-0.009": 4.64110487398,
			"-0.008": 6.54901131627,
			"-0.007": 12.1241776555,
			"-0.006": 20.0088787774,
			"-0.005": 23.0222348647,
			"-0.004": 22.428034901,
			"-0.003": 17.0359192074,
			"-0.002": 11.6815090519,
			"-0.001": 8.35211777957,
			"0.0": 5.67049979464,
			"0.001": 6.80289321213,
			"0.002": 6.00926502948,
			"0.003": 5.08535626232,
			"0.004": 5.60949717743,
			"0.005": 6.45225447613,
			"0.006": 6.00006013374,
			"0.007": 7.70411084429,
			"0.008": 8.57365993781,
			"0.009": 7.11173360444,
			"0.01": 15.216072771,
			"0.011": 16.2355770306,
			"0.012": 4.8319494733,
			"0.013": 0.46268352555,
			"0.014": 0.614340260414,
			"0.015": 0.645422790761,
			"0.016": 0.0,
			"0.017": 0.0,
			"0.018": 0.0,
			"0.019": 0.0,
			"0.02": 0.0,
			"0.021": 0.0,
			"0.022": 0.0,
			"0.023": 0.0,
			"0.024": 0.0,
			"0.025": 0.0
		}
	}
}
