{
	 "smiles": "OC1=CC2=C3C(OC(=O)C4=CC(O)=C(O)C(OC2=O)=C34)=C1O", 
	 "Tm": 723.15, 
	 "num_atms": 28, 
	 "gaussian": { 
		 "optdone": 1, 
		 "sigma_profile": "yes", 
		 "theory": "DFT", 
		 "functional": "B3LYP", 
		 "basiset": "6-31G**", 
		 "properties": { 
			 "R2extent": 6264.5506, 
			 "electric_dipole_moment_norm": 4.70260789456, 
			 "electric_quadrupole_moment_norm": 34.4644346128, 
			 "total_energy": -1138.91725941, 
			 "HOMO_LUMO_gap": 0.15037, 
			 "cosmo_polarized_energy": -24.89, 
			 "cosmo_cavitation_energy": 33.65, 
			 "cosmo_dispersion_energy": -25.77, 
			 "cosmo_repulsion_energy": 1.89, 
			 "cosmo_total_nonelectrostatic_energy": 9.76, 
			 "SMD_solvation_energy": 8.76 
		},
		"coords": [
			{
				"x": -4.0035150276,
				"y": 1.0907068008,
				"z": -1.9636592351,
				"element": "O" 
			},
			{
				"x": -2.7598093955,
				"y": 0.8149192451,
				"z": -1.4548246808,
				"element": "C" 
			},
			{
				"x": -1.6515039575,
				"y": 0.482917641,
				"z": -2.2203222441,
				"element": "C" 
			},
			{
				"x": -0.4329274181,
				"y": 0.2229210675,
				"z": -1.5773918077,
				"element": "C" 
			},
			{
				"x": -0.3613877967,
				"y": 0.3039755529,
				"z": -0.1765941305,
				"element": "C" 
			},
			{
				"x": -1.4810329256,
				"y": 0.6389857802,
				"z": 0.5904812959,
				"element": "C" 
			},
			{
				"x": -1.4132405155,
				"y": 0.7184960158,
				"z": 1.9549710051,
				"element": "O" 
			},
			{
				"x": -0.2400203596,
				"y": 0.4754794903,
				"z": 2.6772230937,
				"element": "C" 
			},
			{
				"x": -0.2962885433,
				"y": 0.5739063128,
				"z": 3.8778537336,
				"element": "O" 
			},
			{
				"x": 0.9600306063,
				"y": 0.1191078538,
				"z": 1.8983288646,
				"element": "C" 
			},
			{
				"x": 2.1805490841,
				"y": -0.1425855467,
				"z": 2.5311370368,
				"element": "C" 
			},
			{
				"x": 3.2971014235,
				"y": -0.4770376872,
				"z": 1.7652469163,
				"element": "C" 
			},
			{
				"x": 4.4833105411,
				"y": -0.7319104966,
				"z": 2.3716676251,
				"element": "O" 
			},
			{
				"x": 3.2036765867,
				"y": -0.5530506202,
				"z": 0.358237541,
				"element": "C" 
			},
			{
				"x": 4.3318667158,
				"y": -0.8846578806,
				"z": -0.3275021376,
				"element": "O" 
			},
			{
				"x": 1.9864294455,
				"y": -0.291217599,
				"z": -0.2603945719,
				"element": "C" 
			},
			{
				"x": 1.9360736657,
				"y": -0.3755441421,
				"z": -1.6323511111,
				"element": "O" 
			},
			{
				"x": 0.75985589,
				"y": -0.1310777284,
				"z": -2.3579764315,
				"element": "C" 
			},
			{
				"x": 0.8218849294,
				"y": -0.2331181024,
				"z": -3.5595237903,
				"element": "O" 
			},
			{
				"x": 0.8678547388,
				"y": 0.0433537929,
				"z": 0.4996657858,
				"element": "C" 
			},
			{
				"x": -2.6994334912,
				"y": 0.8997087156,
				"z": -0.0421788957,
				"element": "C" 
			},
			{
				"x": -3.7902150603,
				"y": 1.2241523617,
				"z": 0.679051877,
				"element": "O" 
			},
			{
				"x": -3.9945252863,
				"y": 1.0201417406,
				"z": -2.9264042675,
				"element": "H" 
			},
			{
				"x": -1.7075723913,
				"y": 0.420463506,
				"z": -3.3027613312,
				"element": "H" 
			},
			{
				"x": 2.2626141813,
				"y": -0.0869144241,
				"z": 3.6100166649,
				"element": "H" 
			},
			{
				"x": 5.1355296928,
				"y": -0.9440425957,
				"z": 1.6867297189,
				"element": "H" 
			},
			{
				"x": 4.127473561,
				"y": -0.9000221892,
				"z": -1.2751535595,
				"element": "H" 
			},
			{
				"x": -4.5224788934,
				"y": 1.3637431352,
				"z": 0.0581270358,
				"element": "H" 
			}
		],
		 "valence_orbital": [ 
			{
				"type": "occ",
				"energy": -0.28334,
				"method": "rhf"
			},
			{
				"type": "occ",
				"energy": -0.27442,
				"method": "rhf"
			},
			{
				"type": "occ",
				"energy": -0.2469,
				"method": "rhf"
			},
			{
				"type": "occ",
				"energy": -0.24105,
				"method": "rhf"
			},
			{
				"type": "occ",
				"energy": -0.22184,
				"method": "rhf"
			},
			{
				"type": "unocc",
				"energy": -0.07147,
				"method": "rhf"
			},
			{
				"type": "unocc",
				"energy": -0.04545,
				"method": "rhf"
			},
			{
				"type": "unocc",
				"energy": -0.03821,
				"method": "rhf"
			},
			{
				"type": "unocc",
				"energy": 0.00851,
				"method": "rhf"
			},
			{
				"type": "unocc",
				"energy": 0.02991,
				"method": "rhf"
			}
		],
		"cosmo_sigma_profile": { 
			"-0.025": 0.0,
			"-0.024": 0.0,
			"-0.023": 0.0,
			"-0.022": 0.0,
			"-0.021": 0.0,
			"-0.02": 0.134836400498,
			"-0.019": 1.26386970296,
			"-0.018": 1.10699284497,
			"-0.017": 1.9333705128,
			"-0.016": 2.90179954451,
			"-0.015": 2.67835822106,
			"-0.014": 3.31013181876,
			"-0.013": 2.65881327334,
			"-0.012": 2.51479852379,
			"-0.011": 3.04803642445,
			"-0.01": 3.24972772605,
			"-0.009": 3.5644326539,
			"-0.008": 4.03549966062,
			"-0.007": 5.770118922,
			"-0.006": 8.54268845421,
			"-0.005": 9.27693372926,
			"-0.004": 9.89880446685,
			"-0.003": 13.6252692611,
			"-0.002": 20.2491977212,
			"-0.001": 28.4650561674,
			"0.0": 23.4807160177,
			"0.001": 19.7173205315,
			"0.002": 14.2243756139,
			"0.003": 8.84219701387,
			"0.004": 9.2098548761,
			"0.005": 9.79413387892,
			"0.006": 7.59689220069,
			"0.007": 5.9002196471,
			"0.008": 7.83013756311,
			"0.009": 9.01156829381,
			"0.01": 11.4135329142,
			"0.011": 11.4977645595,
			"0.012": 4.48187614412,
			"0.013": 0.39243960786,
			"0.014": 0.0,
			"0.015": 0.0,
			"0.016": 0.0,
			"0.017": 0.0,
			"0.018": 0.0,
			"0.019": 0.0,
			"0.02": 0.0,
			"0.021": 0.0,
			"0.022": 0.0,
			"0.023": 0.0,
			"0.024": 0.0,
			"0.025": 0.0
		}
	}
}
