{
	 "smiles": "CC1=CC(=CC=C1)C1=NN(CC2=CC=CC=C2)C(N)=C1", 
	 "Tm": 353.15, 
	 "num_atms": 37, 
	 "gaussian": { 
		 "optdone": 1, 
		 "sigma_profile": "yes", 
		 "theory": "DFT", 
		 "functional": "B3LYP", 
		 "basiset": "6-31G**", 
		 "properties": { 
			 "R2extent": 7982.6683, 
			 "electric_dipole_moment_norm": 3.63121381634, 
			 "electric_quadrupole_moment_norm": 12.6134410575, 
			 "total_energy": -822.308832151, 
			 "HOMO_LUMO_gap": 0.18203, 
			 "cosmo_polarized_energy": -14.78, 
			 "cosmo_cavitation_energy": 40.68, 
			 "cosmo_dispersion_energy": -28.72, 
			 "cosmo_repulsion_energy": 2.2, 
			 "cosmo_total_nonelectrostatic_energy": 14.16, 
			 "SMD_solvation_energy": 5.79 
		},
		"coords": [
			{
				"x": 3.7497808784,
				"y": -4.0674427327,
				"z": -1.9176576298,
				"element": "C" 
			},
			{
				"x": 3.3234499277,
				"y": -2.6460796914,
				"z": -1.6289520885,
				"element": "C" 
			},
			{
				"x": 1.9812566797,
				"y": -2.3401800858,
				"z": -1.3791095584,
				"element": "C" 
			},
			{
				"x": 1.5630424197,
				"y": -1.0348534353,
				"z": -1.0796020535,
				"element": "C" 
			},
			{
				"x": 2.5270634983,
				"y": -0.0139526486,
				"z": -1.0369564676,
				"element": "C" 
			},
			{
				"x": 3.8644809381,
				"y": -0.3045714074,
				"z": -1.2887883805,
				"element": "C" 
			},
			{
				"x": 4.2643425464,
				"y": -1.6097266302,
				"z": -1.5831636018,
				"element": "C" 
			},
			{
				"x": 0.145161146,
				"y": -0.7326499493,
				"z": -0.8188575998,
				"element": "C" 
			},
			{
				"x": -0.2518589899,
				"y": 0.5283429132,
				"z": -0.6150208887,
				"element": "N" 
			},
			{
				"x": -1.5963778306,
				"y": 0.4480639843,
				"z": -0.4214293176,
				"element": "N" 
			},
			{
				"x": -2.3770521625,
				"y": 1.6422127613,
				"z": -0.1499204727,
				"element": "C" 
			},
			{
				"x": -2.776005529,
				"y": 1.7870111013,
				"z": 1.3102609863,
				"element": "C" 
			},
			{
				"x": -1.8141357142,
				"y": 1.6560585132,
				"z": 2.3223221347,
				"element": "C" 
			},
			{
				"x": -2.1748286885,
				"y": 1.8078824177,
				"z": 3.6599364045,
				"element": "C" 
			},
			{
				"x": -3.4999610286,
				"y": 2.0920777002,
				"z": 4.0046809132,
				"element": "C" 
			},
			{
				"x": -4.46276626,
				"y": 2.2211262389,
				"z": 3.0040908384,
				"element": "C" 
			},
			{
				"x": -4.1012296543,
				"y": 2.065908832,
				"z": 1.6626645448,
				"element": "C" 
			},
			{
				"x": -2.0482810825,
				"y": -0.8382514323,
				"z": -0.4635965156,
				"element": "C" 
			},
			{
				"x": -3.40929859,
				"y": -1.1202240481,
				"z": -0.3221818273,
				"element": "N" 
			},
			{
				"x": -0.948986208,
				"y": -1.6357488563,
				"z": -0.7308063117,
				"element": "C" 
			},
			{
				"x": 4.0590529812,
				"y": -4.5847587984,
				"z": -1.000437478,
				"element": "H" 
			},
			{
				"x": 2.9346575992,
				"y": -4.6488496251,
				"z": -2.3592737778,
				"element": "H" 
			},
			{
				"x": 4.5989367394,
				"y": -4.0983452711,
				"z": -2.6075797741,
				"element": "H" 
			},
			{
				"x": 1.2462164736,
				"y": -3.1394101403,
				"z": -1.426840472,
				"element": "H" 
			},
			{
				"x": 2.2096347078,
				"y": 0.9979680763,
				"z": -0.8106469111,
				"element": "H" 
			},
			{
				"x": 4.6030577104,
				"y": 0.492153305,
				"z": -1.2592284781,
				"element": "H" 
			},
			{
				"x": 5.3115688769,
				"y": -1.8253705838,
				"z": -1.7813346888,
				"element": "H" 
			},
			{
				"x": -3.2703673935,
				"y": 1.6267613512,
				"z": -0.7837666443,
				"element": "H" 
			},
			{
				"x": -1.7496232606,
				"y": 2.4786681075,
				"z": -0.469056046,
				"element": "H" 
			},
			{
				"x": -0.7866714617,
				"y": 1.4310184635,
				"z": 2.0498451288,
				"element": "H" 
			},
			{
				"x": -1.4216580703,
				"y": 1.7054887839,
				"z": 4.4360597457,
				"element": "H" 
			},
			{
				"x": -3.7784275171,
				"y": 2.209869332,
				"z": 5.0479557443,
				"element": "H" 
			},
			{
				"x": -5.4949815344,
				"y": 2.4384239549,
				"z": 3.2638288878,
				"element": "H" 
			},
			{
				"x": -4.853713923,
				"y": 2.1683749405,
				"z": 0.8837648038,
				"element": "H" 
			},
			{
				"x": -3.592280017,
				"y": -2.1153811274,
				"z": -0.3409350136,
				"element": "H" 
			},
			{
				"x": -3.8184604311,
				"y": -0.7089657412,
				"z": 0.5116109312,
				"element": "H" 
			},
			{
				"x": -0.9440377757,
				"y": -2.7108485723,
				"z": -0.8275790663,
				"element": "H" 
			}
		],
		 "valence_orbital": [ 
			{
				"type": "occ",
				"energy": -0.25746,
				"method": "rhf"
			},
			{
				"type": "occ",
				"energy": -0.2522,
				"method": "rhf"
			},
			{
				"type": "occ",
				"energy": -0.22947,
				"method": "rhf"
			},
			{
				"type": "occ",
				"energy": -0.21329,
				"method": "rhf"
			},
			{
				"type": "occ",
				"energy": -0.19629,
				"method": "rhf"
			},
			{
				"type": "unocc",
				"energy": -0.01426,
				"method": "rhf"
			},
			{
				"type": "unocc",
				"energy": -0.00998,
				"method": "rhf"
			},
			{
				"type": "unocc",
				"energy": -0.00492,
				"method": "rhf"
			},
			{
				"type": "unocc",
				"energy": 0.01437,
				"method": "rhf"
			},
			{
				"type": "unocc",
				"energy": 0.04994,
				"method": "rhf"
			}
		],
		"cosmo_sigma_profile": { 
			"-0.025": 0.0,
			"-0.024": 0.0,
			"-0.023": 0.0,
			"-0.022": 0.0,
			"-0.021": 0.0,
			"-0.02": 0.0,
			"-0.019": 0.0,
			"-0.018": 0.0,
			"-0.017": 0.0,
			"-0.016": 0.0,
			"-0.015": 0.0,
			"-0.014": 0.0776030808323,
			"-0.013": 1.14902594394,
			"-0.012": 1.51030615836,
			"-0.011": 1.70899099976,
			"-0.01": 3.02345786449,
			"-0.009": 1.99120773382,
			"-0.008": 2.25491156162,
			"-0.007": 4.75508172021,
			"-0.006": 15.0384609828,
			"-0.005": 21.5450443125,
			"-0.004": 30.5158103747,
			"-0.003": 29.9477586899,
			"-0.002": 22.050582771,
			"-0.001": 22.7840163242,
			"0.0": 23.7105335831,
			"0.001": 17.6394526788,
			"0.002": 19.0727442072,
			"0.003": 17.6233884602,
			"0.004": 22.0231805671,
			"0.005": 27.3719519412,
			"0.006": 19.9751374317,
			"0.007": 5.22103765014,
			"0.008": 3.62375607525,
			"0.009": 2.36252986603,
			"0.01": 1.76617624977,
			"0.011": 1.63793599538,
			"0.012": 1.7359379475,
			"0.013": 1.40899305218,
			"0.014": 0.310396592577,
			"0.015": 0.0581758959219,
			"0.016": 0.0,
			"0.017": 0.0,
			"0.018": 0.0,
			"0.019": 0.0,
			"0.02": 0.0,
			"0.021": 0.0,
			"0.022": 0.0,
			"0.023": 0.0,
			"0.024": 0.0,
			"0.025": 0.0
		}
	}
}
