{
	 "smiles": "NC1=C(Cl)N=C(Br)C=C1", 
	 "Tm": 387.15, 
	 "num_atms": 13, 
	 "gaussian": { 
		 "optdone": 1, 
		 "sigma_profile": "yes", 
		 "theory": "DFT", 
		 "functional": "B3LYP", 
		 "basiset": "6-31G**", 
		 "properties": { 
			 "R2extent": 6832.4629, 
			 "electric_dipole_moment_norm": 5.0141272082, 
			 "electric_quadrupole_moment_norm": 14.7156342395, 
			 "total_energy": -3334.04117145, 
			 "HOMO_LUMO_gap": 0.18297, 
			 "cosmo_polarized_energy": -11.33, 
			 "cosmo_cavitation_energy": 21.5, 
			 "cosmo_dispersion_energy": -16.91, 
			 "cosmo_repulsion_energy": 1.4, 
			 "cosmo_total_nonelectrostatic_energy": 6.0, 
			 "SMD_solvation_energy": 0.9 
		},
		"coords": [
			{
				"x": 0.119967714,
				"y": 0.3312176704,
				"z": -0.7317873564,
				"element": "N" 
			},
			{
				"x": -1.1916302024,
				"y": -0.0841189031,
				"z": -0.8235597415,
				"element": "C" 
			},
			{
				"x": -2.0129563434,
				"y": 0.2217905283,
				"z": -1.9303314343,
				"element": "C" 
			},
			{
				"x": -1.3511308628,
				"y": 1.2461479451,
				"z": -3.2101372874,
				"element": "Cl" 
			},
			{
				"x": -3.2514704165,
				"y": -0.1953610342,
				"z": -2.0861871937,
				"element": "N" 
			},
			{
				"x": -3.7846867466,
				"y": -0.9568319347,
				"z": -1.1481441217,
				"element": "C" 
			},
			{
				"x": -5.5910018221,
				"y": -1.5438877073,
				"z": -1.407782852,
				"element": "Br" 
			},
			{
				"x": -3.0992054895,
				"y": -1.3393872794,
				"z": 0.0052312732,
				"element": "C" 
			},
			{
				"x": -1.7925466474,
				"y": -0.8932704861,
				"z": 0.1579475106,
				"element": "C" 
			},
			{
				"x": 0.3883608319,
				"y": 1.1007751422,
				"z": -1.3281462805,
				"element": "H" 
			},
			{
				"x": 0.5213296897,
				"y": 0.3602309162,
				"z": 0.1936147191,
				"element": "H" 
			},
			{
				"x": -3.5725422292,
				"y": -1.9623549616,
				"z": 0.7539528438,
				"element": "H" 
			},
			{
				"x": -1.2216874758,
				"y": -1.1734498957,
				"z": 1.0392299208,
				"element": "H" 
			}
		],
		 "valence_orbital": [ 
			{
				"type": "occ",
				"energy": -0.29272,
				"method": "rhf"
			},
			{
				"type": "occ",
				"energy": -0.28992,
				"method": "rhf"
			},
			{
				"type": "occ",
				"energy": -0.28699,
				"method": "rhf"
			},
			{
				"type": "occ",
				"energy": -0.28197,
				"method": "rhf"
			},
			{
				"type": "occ",
				"energy": -0.22304,
				"method": "rhf"
			},
			{
				"type": "unocc",
				"energy": -0.04007,
				"method": "rhf"
			},
			{
				"type": "unocc",
				"energy": -0.01659,
				"method": "rhf"
			},
			{
				"type": "unocc",
				"energy": 0.00427,
				"method": "rhf"
			},
			{
				"type": "unocc",
				"energy": 0.03579,
				"method": "rhf"
			},
			{
				"type": "unocc",
				"energy": 0.06975,
				"method": "rhf"
			}
		],
		"cosmo_sigma_profile": { 
			"-0.025": 0.0,
			"-0.024": 0.0,
			"-0.023": 0.0,
			"-0.022": 0.0,
			"-0.021": 0.0,
			"-0.02": 0.0,
			"-0.019": 0.0,
			"-0.018": 0.0,
			"-0.017": 0.0,
			"-0.016": 0.0,
			"-0.015": 0.085519030565,
			"-0.014": 1.19457750975,
			"-0.013": 1.91021057535,
			"-0.012": 3.05839188586,
			"-0.011": 2.11714987735,
			"-0.01": 3.26804361289,
			"-0.009": 3.18891087386,
			"-0.008": 4.99727067937,
			"-0.007": 5.65260170008,
			"-0.006": 4.75083874593,
			"-0.005": 4.62081244673,
			"-0.004": 5.52833008646,
			"-0.003": 6.44452507585,
			"-0.002": 7.53779627624,
			"-0.001": 12.9878203658,
			"0.0": 16.8868856882,
			"0.001": 18.0767694981,
			"0.002": 15.4933480721,
			"0.003": 11.9502145489,
			"0.004": 19.0373656953,
			"0.005": 13.1342823216,
			"0.006": 4.44878976695,
			"0.007": 2.85030476312,
			"0.008": 2.69746538991,
			"0.009": 1.59843456569,
			"0.01": 2.15644511789,
			"0.011": 1.44986825529,
			"0.012": 0.833053379568,
			"0.013": 0.363952688346,
			"0.014": 0.0,
			"0.015": 0.0,
			"0.016": 0.0,
			"0.017": 0.0,
			"0.018": 0.0,
			"0.019": 0.0,
			"0.02": 0.0,
			"0.021": 0.0,
			"0.022": 0.0,
			"0.023": 0.0,
			"0.024": 0.0,
			"0.025": 0.0
		}
	}
}
