{
	 "smiles": "FC1=CC=C(C=C(/C#N)C2=NC3=C(C=CC=C3)C(=O)N2)C=C1", 
	 "Tm": 579.15, 
	 "num_atms": 32, 
	 "gaussian": { 
		 "optdone": 1, 
		 "sigma_profile": "yes", 
		 "theory": "DFT", 
		 "functional": "B3LYP", 
		 "basiset": "6-31G**", 
		 "properties": { 
			 "R2extent": 9787.1327, 
			 "electric_dipole_moment_norm": 2.41537609908, 
			 "electric_quadrupole_moment_norm": 23.4583295933, 
			 "total_energy": -993.149877248, 
			 "HOMO_LUMO_gap": 0.13103, 
			 "cosmo_polarized_energy": -20.6, 
			 "cosmo_cavitation_energy": 39.16, 
			 "cosmo_dispersion_energy": -27.77, 
			 "cosmo_repulsion_energy": 2.04, 
			 "cosmo_total_nonelectrostatic_energy": 13.42, 
			 "SMD_solvation_energy": 7.39 
		},
		"coords": [
			{
				"x": 2.1722576591,
				"y": -6.4800326629,
				"z": 1.2629987506,
				"element": "F" 
			},
			{
				"x": 1.6762713942,
				"y": -5.2390903571,
				"z": 1.1286330336,
				"element": "C" 
			},
			{
				"x": 1.5102062609,
				"y": -4.7120856699,
				"z": -0.1499147988,
				"element": "C" 
			},
			{
				"x": 0.9983056217,
				"y": -3.4286301803,
				"z": -0.2938156952,
				"element": "C" 
			},
			{
				"x": 0.6462481112,
				"y": -2.6593021812,
				"z": 0.8384299423,
				"element": "C" 
			},
			{
				"x": 0.0986341086,
				"y": -1.3103916999,
				"z": 0.8032023875,
				"element": "C" 
			},
			{
				"x": -0.1371998405,
				"y": -0.44221232,
				"z": -0.2221182035,
				"element": "C" 
			},
			{
				"x": 0.1941769373,
				"y": -0.7354271173,
				"z": -1.5851046293,
				"element": "C" 
			},
			{
				"x": 0.4597573978,
				"y": -1.0102200122,
				"z": -2.6840657173,
				"element": "N" 
			},
			{
				"x": -0.7150798923,
				"y": 0.9075351985,
				"z": -0.0121610776,
				"element": "C" 
			},
			{
				"x": -0.5315381761,
				"y": 1.8098419934,
				"z": -0.926482413,
				"element": "N" 
			},
			{
				"x": -1.0525603954,
				"y": 3.0745228627,
				"z": -0.7056699236,
				"element": "C" 
			},
			{
				"x": -1.7614819978,
				"y": 3.4159760478,
				"z": 0.4727611274,
				"element": "C" 
			},
			{
				"x": -2.2648563444,
				"y": 4.7125423048,
				"z": 0.6517956929,
				"element": "C" 
			},
			{
				"x": -2.0651075191,
				"y": 5.6721144752,
				"z": -0.3300161778,
				"element": "C" 
			},
			{
				"x": -1.3624652676,
				"y": 5.3408779501,
				"z": -1.502878697,
				"element": "C" 
			},
			{
				"x": -0.8616811691,
				"y": 4.0618808429,
				"z": -1.6928838587,
				"element": "C" 
			},
			{
				"x": -1.9865140427,
				"y": 2.3871050462,
				"z": 1.4924991332,
				"element": "C" 
			},
			{
				"x": -2.6037540826,
				"y": 2.513997192,
				"z": 2.5399851654,
				"element": "O" 
			},
			{
				"x": -1.4177828635,
				"y": 1.148645353,
				"z": 1.1504966925,
				"element": "N" 
			},
			{
				"x": 0.8281646002,
				"y": -3.2374700164,
				"z": 2.1149901824,
				"element": "C" 
			},
			{
				"x": 1.3414128304,
				"y": -4.5185759371,
				"z": 2.2709149341,
				"element": "C" 
			},
			{
				"x": 1.7819915474,
				"y": -5.3093373973,
				"z": -1.0132212271,
				"element": "H" 
			},
			{
				"x": 0.8726871739,
				"y": -3.0279531118,
				"z": -1.2907565467,
				"element": "H" 
			},
			{
				"x": -0.1346213335,
				"y": -0.9308958131,
				"z": 1.7957608785,
				"element": "H" 
			},
			{
				"x": -2.8060402635,
				"y": 4.9333189781,
				"z": 1.5659305157,
				"element": "H" 
			},
			{
				"x": -2.4504553113,
				"y": 6.6780653402,
				"z": -0.1953377487,
				"element": "H" 
			},
			{
				"x": -1.2102470811,
				"y": 6.0957708828,
				"z": -2.2689346232,
				"element": "H" 
			},
			{
				"x": -0.3173259753,
				"y": 3.7883304089,
				"z": -2.5904143997,
				"element": "H" 
			},
			{
				"x": -1.6328430592,
				"y": 0.4004565299,
				"z": 1.7964770607,
				"element": "H" 
			},
			{
				"x": 0.5618759653,
				"y": -2.6653939181,
				"z": 2.9996649638,
				"element": "H" 
			},
			{
				"x": 1.4831650066,
				"y": -4.962763012,
				"z": 3.2497352767,
				"element": "H" 
			}
		],
		 "valence_orbital": [ 
			{
				"type": "occ",
				"energy": -0.28505,
				"method": "rhf"
			},
			{
				"type": "occ",
				"energy": -0.27197,
				"method": "rhf"
			},
			{
				"type": "occ",
				"energy": -0.26662,
				"method": "rhf"
			},
			{
				"type": "occ",
				"energy": -0.25923,
				"method": "rhf"
			},
			{
				"type": "occ",
				"energy": -0.23027,
				"method": "rhf"
			},
			{
				"type": "unocc",
				"energy": -0.09924,
				"method": "rhf"
			},
			{
				"type": "unocc",
				"energy": -0.04749,
				"method": "rhf"
			},
			{
				"type": "unocc",
				"energy": -0.03383,
				"method": "rhf"
			},
			{
				"type": "unocc",
				"energy": -0.02958,
				"method": "rhf"
			},
			{
				"type": "unocc",
				"energy": 0.00839,
				"method": "rhf"
			}
		],
		"cosmo_sigma_profile": { 
			"-0.025": 0.0,
			"-0.024": 0.0,
			"-0.023": 0.0,
			"-0.022": 0.0,
			"-0.021": 0.0,
			"-0.02": 0.0,
			"-0.019": 0.0,
			"-0.018": 0.0831814332322,
			"-0.017": 0.837516910347,
			"-0.016": 1.61234515172,
			"-0.015": 1.01414965725,
			"-0.014": 0.646798034731,
			"-0.013": 1.07908047235,
			"-0.012": 2.00146556184,
			"-0.011": 1.81761747209,
			"-0.01": 2.23128831481,
			"-0.009": 2.56754041776,
			"-0.008": 6.44622382486,
			"-0.007": 9.79727000303,
			"-0.006": 15.1040613826,
			"-0.005": 18.0292909878,
			"-0.004": 17.8582501488,
			"-0.003": 22.4927173115,
			"-0.002": 19.7367479502,
			"-0.001": 26.4131587953,
			"0.0": 24.8715008448,
			"0.001": 26.8513686057,
			"0.002": 28.8281677621,
			"0.003": 24.3879806011,
			"0.004": 13.2505596347,
			"0.005": 4.38253944966,
			"0.006": 4.99538176432,
			"0.007": 4.61230028497,
			"0.008": 6.14808083372,
			"0.009": 5.92697581402,
			"0.01": 5.63802467415,
			"0.011": 5.65157573445,
			"0.012": 7.68770526594,
			"0.013": 4.84753418526,
			"0.014": 0.0731949158693,
			"0.015": 0.0,
			"0.016": 0.0,
			"0.017": 0.0,
			"0.018": 0.0,
			"0.019": 0.0,
			"0.02": 0.0,
			"0.021": 0.0,
			"0.022": 0.0,
			"0.023": 0.0,
			"0.024": 0.0,
			"0.025": 0.0
		}
	}
}
