{
	 "smiles": "CC1=NN=C(SC2=CC(C)=C(N)C=C2)S1", 
	 "Tm": 416.15, 
	 "num_atms": 26, 
	 "gaussian": { 
		 "optdone": 1, 
		 "sigma_profile": "yes", 
		 "theory": "DFT", 
		 "functional": "B3LYP", 
		 "basiset": "6-31G**", 
		 "properties": { 
			 "R2extent": 5791.4859, 
			 "electric_dipole_moment_norm": 1.71411391395, 
			 "electric_quadrupole_moment_norm": 21.2572737358, 
			 "total_energy": -1348.30087225, 
			 "HOMO_LUMO_gap": 0.18346, 
			 "cosmo_polarized_energy": -16.12, 
			 "cosmo_cavitation_energy": 33.74, 
			 "cosmo_dispersion_energy": -25.13, 
			 "cosmo_repulsion_energy": 1.91, 
			 "cosmo_total_nonelectrostatic_energy": 10.51, 
			 "SMD_solvation_energy": 3.32 
		},
		"coords": [
			{
				"x": -2.3982163909,
				"y": 4.8622001727,
				"z": -1.5333007928,
				"element": "C" 
			},
			{
				"x": -1.6072930911,
				"y": 3.7191252343,
				"z": -0.9807048603,
				"element": "C" 
			},
			{
				"x": -1.8847067499,
				"y": 3.1240537258,
				"z": 0.1402613568,
				"element": "N" 
			},
			{
				"x": -1.0272647538,
				"y": 2.0985017505,
				"z": 0.4557407687,
				"element": "N" 
			},
			{
				"x": -0.098021447,
				"y": 1.9248178493,
				"z": -0.4376949162,
				"element": "C" 
			},
			{
				"x": 1.1891716813,
				"y": 0.7074672076,
				"z": -0.3961978286,
				"element": "S" 
			},
			{
				"x": 0.874073832,
				"y": -0.1280962201,
				"z": 1.1532611012,
				"element": "C" 
			},
			{
				"x": 0.0152902626,
				"y": -1.2328885701,
				"z": 1.1969844191,
				"element": "C" 
			},
			{
				"x": -0.2100664041,
				"y": -1.9374195145,
				"z": 2.3776449831,
				"element": "C" 
			},
			{
				"x": -1.1323115291,
				"y": -3.1306166998,
				"z": 2.4098705144,
				"element": "C" 
			},
			{
				"x": 0.4526569985,
				"y": -1.5160998081,
				"z": 3.5564723244,
				"element": "C" 
			},
			{
				"x": 0.2906766272,
				"y": -2.2266284845,
				"z": 4.7419139271,
				"element": "N" 
			},
			{
				"x": 1.3215183894,
				"y": -0.4126871997,
				"z": 3.5062574427,
				"element": "C" 
			},
			{
				"x": 1.5333246293,
				"y": 0.2756488339,
				"z": 2.3181598534,
				"element": "C" 
			},
			{
				"x": -0.1949803967,
				"y": 3.0445860686,
				"z": -1.7969482014,
				"element": "S" 
			},
			{
				"x": -1.7807906725,
				"y": 5.7592479382,
				"z": -1.6476295668,
				"element": "H" 
			},
			{
				"x": -3.2129257953,
				"y": 5.0804128913,
				"z": -0.8401425425,
				"element": "H" 
			},
			{
				"x": -2.8222405297,
				"y": 4.6202058846,
				"z": -2.513400072,
				"element": "H" 
			},
			{
				"x": -0.4914824473,
				"y": -1.5478548248,
				"z": 0.2896676145,
				"element": "H" 
			},
			{
				"x": -1.9999524316,
				"y": -2.9616103886,
				"z": 3.0635428417,
				"element": "H" 
			},
			{
				"x": -0.6182265882,
				"y": -4.0265491922,
				"z": 2.7799350483,
				"element": "H" 
			},
			{
				"x": -1.5205530512,
				"y": -3.3532865218,
				"z": 1.4132384511,
				"element": "H" 
			},
			{
				"x": -0.5834021239,
				"y": -2.7204247214,
				"z": 4.850602941,
				"element": "H" 
			},
			{
				"x": 0.5619417906,
				"y": -1.7355192504,
				"z": 5.5820985216,
				"element": "H" 
			},
			{
				"x": 1.8321242068,
				"y": -0.0960462935,
				"z": 4.4124562476,
				"element": "H" 
			},
			{
				"x": 2.2026559845,
				"y": 1.1292601325,
				"z": 2.295810424,
				"element": "H" 
			}
		],
		 "valence_orbital": [ 
			{
				"type": "occ",
				"energy": -0.28271,
				"method": "rhf"
			},
			{
				"type": "occ",
				"energy": -0.25539,
				"method": "rhf"
			},
			{
				"type": "occ",
				"energy": -0.24691,
				"method": "rhf"
			},
			{
				"type": "occ",
				"energy": -0.22474,
				"method": "rhf"
			},
			{
				"type": "occ",
				"energy": -0.20838,
				"method": "rhf"
			},
			{
				"type": "unocc",
				"energy": -0.02492,
				"method": "rhf"
			},
			{
				"type": "unocc",
				"energy": -0.01139,
				"method": "rhf"
			},
			{
				"type": "unocc",
				"energy": 0.00106,
				"method": "rhf"
			},
			{
				"type": "unocc",
				"energy": 0.01129,
				"method": "rhf"
			},
			{
				"type": "unocc",
				"energy": 0.03856,
				"method": "rhf"
			}
		],
		"cosmo_sigma_profile": { 
			"-0.025": 0.0,
			"-0.024": 0.0,
			"-0.023": 0.0,
			"-0.022": 0.0,
			"-0.021": 0.0,
			"-0.02": 0.0,
			"-0.019": 0.0,
			"-0.018": 0.0,
			"-0.017": 0.0,
			"-0.016": 0.0,
			"-0.015": 0.0,
			"-0.014": 0.0,
			"-0.013": 0.722329023569,
			"-0.012": 2.6735020231,
			"-0.011": 2.16011368655,
			"-0.01": 3.14892129967,
			"-0.009": 3.85700508426,
			"-0.008": 2.47035934025,
			"-0.007": 4.72953041479,
			"-0.006": 13.6966738206,
			"-0.005": 17.3265918989,
			"-0.004": 19.6494547948,
			"-0.003": 19.3254596462,
			"-0.002": 21.624526746,
			"-0.001": 25.0676303994,
			"0.0": 25.2287254472,
			"0.001": 19.1110314201,
			"0.002": 17.5022335176,
			"0.003": 13.1146985962,
			"0.004": 12.2767439529,
			"0.005": 12.8429707652,
			"0.006": 6.74009860539,
			"0.007": 5.07805299039,
			"0.008": 3.15654253053,
			"0.009": 3.79942871932,
			"0.01": 3.11930492231,
			"0.011": 3.51930743768,
			"0.012": 4.98430250318,
			"0.013": 2.93503624776,
			"0.014": 2.32829418955,
			"0.015": 0.677800513965,
			"0.016": 0.000141565731371,
			"0.017": 0.0,
			"0.018": 0.0,
			"0.019": 0.0,
			"0.02": 0.0,
			"0.021": 0.0,
			"0.022": 0.0,
			"0.023": 0.0,
			"0.024": 0.0,
			"0.025": 0.0
		}
	}
}
