{
	 "smiles": "CN1C(=O)C(C2=NNC(=O)C2=N/NC2=CC=C(C)C=C2)=C(O)C2=CC=CC=C12", 
	 "Tm": 491.15, 
	 "num_atms": 45, 
	 "gaussian": { 
		 "optdone": 1, 
		 "sigma_profile": "yes", 
		 "theory": "DFT", 
		 "functional": "B3LYP", 
		 "basiset": "6-31G**", 
		 "properties": { 
			 "R2extent": 13400.1541, 
			 "electric_dipole_moment_norm": 4.44724329107, 
			 "electric_quadrupole_moment_norm": 18.8660342831, 
			 "total_energy": -1271.79268578, 
			 "HOMO_LUMO_gap": 0.10546, 
			 "cosmo_polarized_energy": -22.49, 
			 "cosmo_cavitation_energy": 48.9, 
			 "cosmo_dispersion_energy": -35.45, 
			 "cosmo_repulsion_energy": 2.59, 
			 "cosmo_total_nonelectrostatic_energy": 16.04, 
			 "SMD_solvation_energy": 8.09 
		},
		"coords": [
			{
				"x": 4.1725111591,
				"y": 2.9576222613,
				"z": 1.8821546247,
				"element": "C" 
			},
			{
				"x": 2.9294917172,
				"y": 2.478559967,
				"z": 1.2794830432,
				"element": "N" 
			},
			{
				"x": 2.1503075219,
				"y": 1.5883861281,
				"z": 2.0565050073,
				"element": "C" 
			},
			{
				"x": 2.5589548967,
				"y": 1.2320416289,
				"z": 3.1557790408,
				"element": "O" 
			},
			{
				"x": 0.8753097475,
				"y": 1.1295562059,
				"z": 1.4651474763,
				"element": "C" 
			},
			{
				"x": -0.0119326942,
				"y": 0.3377765985,
				"z": 2.3388567799,
				"element": "C" 
			},
			{
				"x": -0.0287215273,
				"y": 0.5193981739,
				"z": 3.6408145514,
				"element": "N" 
			},
			{
				"x": -0.9227191698,
				"y": -0.3877621832,
				"z": 4.1844700311,
				"element": "N" 
			},
			{
				"x": -1.5059474909,
				"y": -1.2178693831,
				"z": 3.2747412143,
				"element": "C" 
			},
			{
				"x": -2.3292761806,
				"y": -2.1283277645,
				"z": 3.4507374401,
				"element": "O" 
			},
			{
				"x": -0.9381842558,
				"y": -0.7408870818,
				"z": 1.9975880965,
				"element": "C" 
			},
			{
				"x": -1.2738438953,
				"y": -1.1804785958,
				"z": 0.8098048497,
				"element": "N" 
			},
			{
				"x": -2.1340302295,
				"y": -2.1721035822,
				"z": 0.7199973584,
				"element": "N" 
			},
			{
				"x": -2.5536801417,
				"y": -2.6913186245,
				"z": -0.5128074734,
				"element": "C" 
			},
			{
				"x": -3.508676584,
				"y": -3.7151329415,
				"z": -0.4992240858,
				"element": "C" 
			},
			{
				"x": -3.9536363663,
				"y": -4.2638780523,
				"z": -1.699603034,
				"element": "C" 
			},
			{
				"x": -3.4661899895,
				"y": -3.8143016115,
				"z": -2.932350789,
				"element": "C" 
			},
			{
				"x": -3.9442040511,
				"y": -4.4105522738,
				"z": -4.2343790693,
				"element": "C" 
			},
			{
				"x": -2.5084217466,
				"y": -2.7872099182,
				"z": -2.920638105,
				"element": "C" 
			},
			{
				"x": -2.0481597716,
				"y": -2.2253651864,
				"z": -1.7355734931,
				"element": "C" 
			},
			{
				"x": 0.5754362561,
				"y": 1.4539474612,
				"z": 0.1556590674,
				"element": "C" 
			},
			{
				"x": -0.5062966856,
				"y": 1.0308257137,
				"z": -0.5228036612,
				"element": "O" 
			},
			{
				"x": 1.416976301,
				"y": 2.3560389848,
				"z": -0.6032311704,
				"element": "C" 
			},
			{
				"x": 1.081284236,
				"y": 2.7344492922,
				"z": -1.9166478379,
				"element": "C" 
			},
			{
				"x": 1.8755158313,
				"y": 3.6189446815,
				"z": -2.6288633281,
				"element": "C" 
			},
			{
				"x": 3.0306013019,
				"y": 4.1377941006,
				"z": -2.0289398106,
				"element": "C" 
			},
			{
				"x": 3.3879511582,
				"y": 3.775420783,
				"z": -0.7370766807,
				"element": "C" 
			},
			{
				"x": 2.5882412811,
				"y": 2.8758826704,
				"z": -0.0020897882,
				"element": "C" 
			},
			{
				"x": 5.034264542,
				"y": 2.6681972185,
				"z": 1.272207975,
				"element": "H" 
			},
			{
				"x": 4.249165093,
				"y": 2.4976831264,
				"z": 2.8643338335,
				"element": "H" 
			},
			{
				"x": 4.1566958917,
				"y": 4.0474164561,
				"z": 1.9854583079,
				"element": "H" 
			},
			{
				"x": -1.0320068134,
				"y": -0.4186110271,
				"z": 5.1864251498,
				"element": "H" 
			},
			{
				"x": -2.4997303296,
				"y": -2.5456360591,
				"z": 1.6061731246,
				"element": "H" 
			},
			{
				"x": -3.9016357009,
				"y": -4.0771180841,
				"z": 0.4471100836,
				"element": "H" 
			},
			{
				"x": -4.6958377114,
				"y": -5.0570824751,
				"z": -1.6738154867,
				"element": "H" 
			},
			{
				"x": -3.1237817678,
				"y": -4.8954378973,
				"z": -4.7764597398,
				"element": "H" 
			},
			{
				"x": -4.3570549505,
				"y": -3.6422977177,
				"z": -4.8980689741,
				"element": "H" 
			},
			{
				"x": -4.7216700741,
				"y": -5.1610057929,
				"z": -4.0681656565,
				"element": "H" 
			},
			{
				"x": -2.1109710761,
				"y": -2.4186065323,
				"z": -3.8629906068,
				"element": "H" 
			},
			{
				"x": -1.3058689007,
				"y": -1.4361165202,
				"z": -1.7540048868,
				"element": "H" 
			},
			{
				"x": -0.888017971,
				"y": 0.213346975,
				"z": -0.1263333824,
				"element": "H" 
			},
			{
				"x": 0.1820017648,
				"y": 2.3183422456,
				"z": -2.3541749108,
				"element": "H" 
			},
			{
				"x": 1.6052590886,
				"y": 3.9056394794,
				"z": -3.6400752389,
				"element": "H" 
			},
			{
				"x": 3.6620532862,
				"y": 4.8322371292,
				"z": -2.575844694,
				"element": "H" 
			},
			{
				"x": 4.286875001,
				"y": 4.1887920233,
				"z": -0.2988851522,
				"element": "H" 
			}
		],
		 "valence_orbital": [ 
			{
				"type": "occ",
				"energy": -0.26096,
				"method": "rhf"
			},
			{
				"type": "occ",
				"energy": -0.23912,
				"method": "rhf"
			},
			{
				"type": "occ",
				"energy": -0.22489,
				"method": "rhf"
			},
			{
				"type": "occ",
				"energy": -0.21589,
				"method": "rhf"
			},
			{
				"type": "occ",
				"energy": -0.20276,
				"method": "rhf"
			},
			{
				"type": "unocc",
				"energy": -0.0973,
				"method": "rhf"
			},
			{
				"type": "unocc",
				"energy": -0.04558,
				"method": "rhf"
			},
			{
				"type": "unocc",
				"energy": -0.018,
				"method": "rhf"
			},
			{
				"type": "unocc",
				"energy": -0.00255,
				"method": "rhf"
			},
			{
				"type": "unocc",
				"energy": 0.00437,
				"method": "rhf"
			}
		],
		"cosmo_sigma_profile": { 
			"-0.025": 0.0,
			"-0.024": 0.0,
			"-0.023": 0.0,
			"-0.022": 0.0,
			"-0.021": 0.0,
			"-0.02": 0.0,
			"-0.019": 0.0,
			"-0.018": 0.0,
			"-0.017": 0.473658327745,
			"-0.016": 1.45038182297,
			"-0.015": 0.879807739806,
			"-0.014": 1.1896694654,
			"-0.013": 0.865453813566,
			"-0.012": 1.26025832717,
			"-0.011": 1.99665281457,
			"-0.01": 2.33341349035,
			"-0.009": 1.40558341856,
			"-0.008": 2.18762106932,
			"-0.007": 5.10636692509,
			"-0.006": 18.3169820383,
			"-0.005": 28.3905897466,
			"-0.004": 34.0215464447,
			"-0.003": 33.1567940565,
			"-0.002": 34.358698452,
			"-0.001": 33.8217090047,
			"0.0": 35.5258887792,
			"0.001": 26.6100198872,
			"0.002": 23.1941303184,
			"0.003": 23.9446029566,
			"0.004": 26.249425261,
			"0.005": 13.2585835553,
			"0.006": 4.75244725639,
			"0.007": 3.1167860056,
			"0.008": 4.32037069603,
			"0.009": 3.79244421288,
			"0.01": 3.3710295888,
			"0.011": 3.98489220319,
			"0.012": 4.46073128888,
			"0.013": 5.08097485331,
			"0.014": 3.57099877841,
			"0.015": 2.01945561339,
			"0.016": 1.62138673843,
			"0.017": 1.22877426106,
			"0.018": 0.979689752539,
			"0.019": 0.432808437343,
			"0.02": 0.00582100194862,
			"0.021": 0.0,
			"0.022": 0.0,
			"0.023": 0.0,
			"0.024": 0.0,
			"0.025": 0.0
		}
	}
}
