{
	 "smiles": "OC(=O)C1CSCN1C(=O)C1CCC1", 
	 "Tm": 389.15, 
	 "num_atms": 27, 
	 "gaussian": { 
		 "optdone": 1, 
		 "sigma_profile": "yes", 
		 "theory": "DFT", 
		 "functional": "B3LYP", 
		 "basiset": "6-31G**", 
		 "properties": { 
			 "R2extent": 3892.7433, 
			 "electric_dipole_moment_norm": 1.22347657517, 
			 "electric_quadrupole_moment_norm": 14.4941378481, 
			 "total_energy": -1029.39483197, 
			 "HOMO_LUMO_gap": 0.22596, 
			 "cosmo_polarized_energy": -14.9, 
			 "cosmo_cavitation_energy": 30.77, 
			 "cosmo_dispersion_energy": -22.27, 
			 "cosmo_repulsion_energy": 1.73, 
			 "cosmo_total_nonelectrostatic_energy": 10.23, 
			 "SMD_solvation_energy": 5.69 
		},
		"coords": [
			{
				"x": -4.2543263918,
				"y": -0.9373910477,
				"z": 2.0920430379,
				"element": "O" 
			},
			{
				"x": -3.2438125702,
				"y": -1.2031151061,
				"z": 1.2332244761,
				"element": "C" 
			},
			{
				"x": -3.2707660896,
				"y": -2.1082162665,
				"z": 0.4329111147,
				"element": "O" 
			},
			{
				"x": -2.0975783682,
				"y": -0.2018336738,
				"z": 1.410583958,
				"element": "C" 
			},
			{
				"x": -1.4938747278,
				"y": -0.2408580075,
				"z": 2.8248025225,
				"element": "C" 
			},
			{
				"x": -0.2665876247,
				"y": -1.6172361969,
				"z": 2.7911768508,
				"element": "S" 
			},
			{
				"x": -0.1830602315,
				"y": -1.6096991602,
				"z": 0.9302649922,
				"element": "C" 
			},
			{
				"x": -1.0087783798,
				"y": -0.4943523,
				"z": 0.5010410029,
				"element": "N" 
			},
			{
				"x": -0.8670279273,
				"y": 0.228023511,
				"z": -0.6683586026,
				"element": "C" 
			},
			{
				"x": -1.6345833417,
				"y": 1.1474985399,
				"z": -0.9339328254,
				"element": "O" 
			},
			{
				"x": 0.3021260434,
				"y": -0.1575664956,
				"z": -1.5625293812,
				"element": "C" 
			},
			{
				"x": 0.3665689626,
				"y": 0.6757671735,
				"z": -2.8693677654,
				"element": "C" 
			},
			{
				"x": 1.4523940243,
				"y": 1.5781784716,
				"z": -2.225633969,
				"element": "C" 
			},
			{
				"x": 1.6546577596,
				"y": 0.5085111116,
				"z": -1.1196025703,
				"element": "C" 
			},
			{
				"x": -4.9439589306,
				"y": -1.6008118605,
				"z": 1.9207265283,
				"element": "H" 
			},
			{
				"x": -2.4861642023,
				"y": 0.7914992097,
				"z": 1.1687783561,
				"element": "H" 
			},
			{
				"x": -2.2445877317,
				"y": -0.4404339324,
				"z": 3.5897868821,
				"element": "H" 
			},
			{
				"x": -0.9905876601,
				"y": 0.7026035942,
				"z": 3.0453657445,
				"element": "H" 
			},
			{
				"x": -0.5715897595,
				"y": -2.5662791679,
				"z": 0.5688041222,
				"element": "H" 
			},
			{
				"x": 0.8506071255,
				"y": -1.4775576839,
				"z": 0.6114927586,
				"element": "H" 
			},
			{
				"x": 0.3325708352,
				"y": -1.2449190565,
				"z": -1.6841147471,
				"element": "H" 
			},
			{
				"x": -0.5675250231,
				"y": 1.1582416034,
				"z": -3.1600624584,
				"element": "H" 
			},
			{
				"x": 0.7518196101,
				"y": 0.082136567,
				"z": -3.7030843078,
				"element": "H" 
			},
			{
				"x": 2.3254846253,
				"y": 1.8299270062,
				"z": -2.8337006938,
				"element": "H" 
			},
			{
				"x": 1.0236557549,
				"y": 2.5010193419,
				"z": -1.8266402726,
				"element": "H" 
			},
			{
				"x": 1.7228554412,
				"y": 0.858957965,
				"z": -0.0850099243,
				"element": "H" 
			},
			{
				"x": 2.5055687778,
				"y": -0.1489941393,
				"z": -1.320864829,
				"element": "H" 
			}
		],
		 "valence_orbital": [ 
			{
				"type": "occ",
				"energy": -0.30775,
				"method": "rhf"
			},
			{
				"type": "occ",
				"energy": -0.28883,
				"method": "rhf"
			},
			{
				"type": "occ",
				"energy": -0.25755,
				"method": "rhf"
			},
			{
				"type": "occ",
				"energy": -0.25018,
				"method": "rhf"
			},
			{
				"type": "occ",
				"energy": -0.23376,
				"method": "rhf"
			},
			{
				"type": "unocc",
				"energy": -0.0078,
				"method": "rhf"
			},
			{
				"type": "unocc",
				"energy": 0.00692,
				"method": "rhf"
			},
			{
				"type": "unocc",
				"energy": 0.01942,
				"method": "rhf"
			},
			{
				"type": "unocc",
				"energy": 0.05092,
				"method": "rhf"
			},
			{
				"type": "unocc",
				"energy": 0.07233,
				"method": "rhf"
			}
		],
		"cosmo_sigma_profile": { 
			"-0.025": 0.0,
			"-0.024": 0.0,
			"-0.023": 0.0,
			"-0.022": 0.0,
			"-0.021": 0.0,
			"-0.02": 0.0,
			"-0.019": 0.34141064603,
			"-0.018": 0.963945497508,
			"-0.017": 0.920715472706,
			"-0.016": 1.24586846169,
			"-0.015": 0.720680650209,
			"-0.014": 0.372058195087,
			"-0.013": 0.354487402051,
			"-0.012": 0.942083824115,
			"-0.011": 1.08579840256,
			"-0.01": 0.484978922138,
			"-0.009": 0.568166654111,
			"-0.008": 1.52318198628,
			"-0.007": 5.58541371308,
			"-0.006": 13.3209616617,
			"-0.005": 14.506925538,
			"-0.004": 18.8179424154,
			"-0.003": 24.774481418,
			"-0.002": 20.5470592289,
			"-0.001": 21.5392097971,
			"0.0": 17.6430045932,
			"0.001": 20.0459988972,
			"0.002": 9.79575107529,
			"0.003": 7.9202726014,
			"0.004": 8.37643893365,
			"0.005": 8.43937795407,
			"0.006": 6.86847926294,
			"0.007": 5.83778224112,
			"0.008": 5.91653608892,
			"0.009": 5.30381465675,
			"0.01": 5.5361084756,
			"0.011": 5.57875103088,
			"0.012": 3.14430714354,
			"0.013": 3.86107655493,
			"0.014": 0.623779027917,
			"0.015": 0.0,
			"0.016": 0.0,
			"0.017": 0.0,
			"0.018": 0.0,
			"0.019": 0.0,
			"0.02": 0.0,
			"0.021": 0.0,
			"0.022": 0.0,
			"0.023": 0.0,
			"0.024": 0.0,
			"0.025": 0.0
		}
	}
}
