{
	 "smiles": "CC(C)NC1=NC=C(C=C1)C#N", 
	 "Tm": 373.15, 
	 "num_atms": 23, 
	 "gaussian": { 
		 "optdone": 1, 
		 "sigma_profile": "yes", 
		 "theory": "DFT", 
		 "functional": "B3LYP", 
		 "basiset": "6-31G**", 
		 "properties": { 
			 "R2extent": 3151.1445, 
			 "electric_dipole_moment_norm": 7.04988817074, 
			 "electric_quadrupole_moment_norm": 22.0333730219, 
			 "total_energy": -513.836704502, 
			 "HOMO_LUMO_gap": 0.18374, 
			 "cosmo_polarized_energy": -12.8, 
			 "cosmo_cavitation_energy": 27.16, 
			 "cosmo_dispersion_energy": -19.29, 
			 "cosmo_repulsion_energy": 1.55, 
			 "cosmo_total_nonelectrostatic_energy": 9.42, 
			 "SMD_solvation_energy": 4.53 
		},
		"coords": [
			{
				"x": -1.7963338584,
				"y": -0.0505346642,
				"z": 2.0515472101,
				"element": "C" 
			},
			{
				"x": -1.5072714542,
				"y": -0.8259827744,
				"z": 0.7549122177,
				"element": "C" 
			},
			{
				"x": -2.506307345,
				"y": -0.5041337537,
				"z": -0.3695810852,
				"element": "C" 
			},
			{
				"x": -0.1087791479,
				"y": -0.7209528723,
				"z": 0.3251427955,
				"element": "N" 
			},
			{
				"x": 0.6087374423,
				"y": 0.3619674419,
				"z": -0.0893984412,
				"element": "C" 
			},
			{
				"x": 1.8927562614,
				"y": 0.0752073422,
				"z": -0.414353137,
				"element": "N" 
			},
			{
				"x": 2.6813796599,
				"y": 1.0560004878,
				"z": -0.8305601525,
				"element": "C" 
			},
			{
				"x": 2.2698990037,
				"y": 2.3942993832,
				"z": -0.9598530837,
				"element": "C" 
			},
			{
				"x": 0.9349311354,
				"y": 2.6883766679,
				"z": -0.621321721,
				"element": "C" 
			},
			{
				"x": 0.0967012197,
				"y": 1.6807817864,
				"z": -0.1854280041,
				"element": "C" 
			},
			{
				"x": 3.1721052918,
				"y": 3.4012525047,
				"z": -1.4144665952,
				"element": "C" 
			},
			{
				"x": 3.9110305233,
				"y": 4.2213361589,
				"z": -1.7859118931,
				"element": "N" 
			},
			{
				"x": -1.7190836875,
				"y": 1.0314307701,
				"z": 1.9149249086,
				"element": "H" 
			},
			{
				"x": -2.81133294,
				"y": -0.268958407,
				"z": 2.3983575499,
				"element": "H" 
			},
			{
				"x": -1.0938707623,
				"y": -0.341501873,
				"z": 2.837572848,
				"element": "H" 
			},
			{
				"x": -1.6268351028,
				"y": -1.8897450456,
				"z": 0.9893787181,
				"element": "H" 
			},
			{
				"x": -2.4753125776,
				"y": 0.5481761693,
				"z": -0.6644829213,
				"element": "H" 
			},
			{
				"x": -2.2942919871,
				"y": -1.1084786851,
				"z": -1.2560196836,
				"element": "H" 
			},
			{
				"x": -3.5256598993,
				"y": -0.7252134542,
				"z": -0.0375555907,
				"element": "H" 
			},
			{
				"x": 0.4441178851,
				"y": -1.5663499019,
				"z": 0.3197144287,
				"element": "H" 
			},
			{
				"x": 3.7040885867,
				"y": 0.7803171563,
				"z": -1.08056118,
				"element": "H" 
			},
			{
				"x": 0.568444911,
				"y": 3.7066073223,
				"z": -0.7040170383,
				"element": "H" 
			},
			{
				"x": -0.928513158,
				"y": 1.9050982405,
				"z": 0.0747598502,
				"element": "H" 
			}
		],
		 "valence_orbital": [ 
			{
				"type": "occ",
				"energy": -0.32495,
				"method": "rhf"
			},
			{
				"type": "occ",
				"energy": -0.30261,
				"method": "rhf"
			},
			{
				"type": "occ",
				"energy": -0.29596,
				"method": "rhf"
			},
			{
				"type": "occ",
				"energy": -0.27215,
				"method": "rhf"
			},
			{
				"type": "occ",
				"energy": -0.21917,
				"method": "rhf"
			},
			{
				"type": "unocc",
				"energy": -0.03543,
				"method": "rhf"
			},
			{
				"type": "unocc",
				"energy": -0.02882,
				"method": "rhf"
			},
			{
				"type": "unocc",
				"energy": 0.04282,
				"method": "rhf"
			},
			{
				"type": "unocc",
				"energy": 0.05988,
				"method": "rhf"
			},
			{
				"type": "unocc",
				"energy": 0.0769,
				"method": "rhf"
			}
		],
		"cosmo_sigma_profile": { 
			"-0.025": 0.0,
			"-0.024": 0.0,
			"-0.023": 0.0,
			"-0.022": 0.0,
			"-0.021": 0.0,
			"-0.02": 0.0,
			"-0.019": 0.0,
			"-0.018": 0.0,
			"-0.017": 0.0,
			"-0.016": 0.0,
			"-0.015": 0.0,
			"-0.014": 0.0222899022897,
			"-0.013": 1.037642153,
			"-0.012": 0.68867170596,
			"-0.011": 1.31861375844,
			"-0.01": 0.757507987899,
			"-0.009": 1.13345249058,
			"-0.008": 5.03743459375,
			"-0.007": 8.95972802379,
			"-0.006": 8.04356087471,
			"-0.005": 8.60019133848,
			"-0.004": 15.3929187542,
			"-0.003": 19.0244354501,
			"-0.002": 16.3622676947,
			"-0.001": 19.0058781188,
			"0.0": 28.2104083795,
			"0.001": 24.2365881997,
			"0.002": 11.2413724799,
			"0.003": 7.18592915241,
			"0.004": 4.32254980349,
			"0.005": 2.80464991315,
			"0.006": 3.16224113156,
			"0.007": 4.5594047491,
			"0.008": 4.13246337694,
			"0.009": 4.64604494367,
			"0.01": 4.27032721664,
			"0.011": 3.90722970479,
			"0.012": 3.63867059585,
			"0.013": 3.11268020529,
			"0.014": 1.4806640024,
			"0.015": 0.0499867278839,
			"0.016": 0.0,
			"0.017": 0.0,
			"0.018": 0.0,
			"0.019": 0.0,
			"0.02": 0.0,
			"0.021": 0.0,
			"0.022": 0.0,
			"0.023": 0.0,
			"0.024": 0.0,
			"0.025": 0.0
		}
	}
}
