{
	 "smiles": "ClC1=CN=C(NC(=O)C2CCCNC2)C=C1", 
	 "Tm": 430.15, 
	 "num_atms": 30, 
	 "gaussian": { 
		 "optdone": 1, 
		 "sigma_profile": "yes", 
		 "theory": "DFT", 
		 "functional": "B3LYP", 
		 "basiset": "6-31G**", 
		 "properties": { 
			 "R2extent": 5676.6203, 
			 "electric_dipole_moment_norm": 3.13528937899, 
			 "electric_quadrupole_moment_norm": 21.3298404649, 
			 "total_energy": -1127.28402329, 
			 "HOMO_LUMO_gap": 0.1598, 
			 "cosmo_polarized_energy": -13.97, 
			 "cosmo_cavitation_energy": 33.65, 
			 "cosmo_dispersion_energy": -24.87, 
			 "cosmo_repulsion_energy": 1.94, 
			 "cosmo_total_nonelectrostatic_energy": 10.71, 
			 "SMD_solvation_energy": 2.44 
		},
		"coords": [
			{
				"x": 3.5456282823,
				"y": -1.9285365529,
				"z": 3.5014907971,
				"element": "Cl" 
			},
			{
				"x": 2.5380545414,
				"y": -1.7430412057,
				"z": 2.0816479843,
				"element": "C" 
			},
			{
				"x": 1.9692090691,
				"y": -0.5102522058,
				"z": 1.7788779035,
				"element": "C" 
			},
			{
				"x": 1.1876335575,
				"y": -0.3129066076,
				"z": 0.7120555878,
				"element": "N" 
			},
			{
				"x": 0.9479210234,
				"y": -1.3407709392,
				"z": -0.1071142681,
				"element": "C" 
			},
			{
				"x": 0.1345611317,
				"y": -1.1654134251,
				"z": -1.2269001742,
				"element": "N" 
			},
			{
				"x": -0.4817181862,
				"y": -0.0685510699,
				"z": -1.8482251952,
				"element": "C" 
			},
			{
				"x": -1.1239282118,
				"y": -0.3097937992,
				"z": -2.8618749149,
				"element": "O" 
			},
			{
				"x": -0.3570096318,
				"y": 1.3225568564,
				"z": -1.2494170801,
				"element": "C" 
			},
			{
				"x": -1.4510305442,
				"y": 1.5196760399,
				"z": -0.1675588973,
				"element": "C" 
			},
			{
				"x": -2.8684902293,
				"y": 1.5370242252,
				"z": -0.7671328621,
				"element": "C" 
			},
			{
				"x": -2.9109856809,
				"y": 2.3710067709,
				"z": -2.0841031542,
				"element": "C" 
			},
			{
				"x": -1.7349252283,
				"y": 3.2213845139,
				"z": -2.2846879371,
				"element": "N" 
			},
			{
				"x": -0.502837495,
				"y": 2.4317386614,
				"z": -2.3478685214,
				"element": "C" 
			},
			{
				"x": 1.48570795,
				"y": -2.6254759776,
				"z": 0.1235041194,
				"element": "C" 
			},
			{
				"x": 2.2887205316,
				"y": -2.8259584565,
				"z": 1.2341727024,
				"element": "C" 
			},
			{
				"x": 2.144920589,
				"y": 0.349020113,
				"z": 2.4211961968,
				"element": "H" 
			},
			{
				"x": -0.0525112742,
				"y": -2.0052577374,
				"z": -1.7616635518,
				"element": "H" 
			},
			{
				"x": 0.6116468667,
				"y": 1.3944730594,
				"z": -0.7531024408,
				"element": "H" 
			},
			{
				"x": -1.2448332861,
				"y": 2.4791341891,
				"z": 0.3222915536,
				"element": "H" 
			},
			{
				"x": -1.3578801084,
				"y": 0.7582683846,
				"z": 0.6119923903,
				"element": "H" 
			},
			{
				"x": -3.204063131,
				"y": 0.5134194935,
				"z": -0.9684355307,
				"element": "H" 
			},
			{
				"x": -3.5595857676,
				"y": 1.9500292815,
				"z": -0.0225579018,
				"element": "H" 
			},
			{
				"x": -3.8060189876,
				"y": 3.0012670597,
				"z": -2.1154354088,
				"element": "H" 
			},
			{
				"x": -2.9610167491,
				"y": 1.6932495026,
				"z": -2.9417022042,
				"element": "H" 
			},
			{
				"x": -1.6707466167,
				"y": 3.8947387923,
				"z": -1.5247266662,
				"element": "H" 
			},
			{
				"x": -0.4552727051,
				"y": 1.9629563798,
				"z": -3.3353714045,
				"element": "H" 
			},
			{
				"x": 0.3414062389,
				"y": 3.1242570314,
				"z": -2.2698428549,
				"element": "H" 
			},
			{
				"x": 1.2771153897,
				"y": -3.44359012,
				"z": -0.5592508705,
				"element": "H" 
			},
			{
				"x": 2.718528662,
				"y": -3.7997522579,
				"z": 1.4425426037,
				"element": "H" 
			}
		],
		 "valence_orbital": [ 
			{
				"type": "occ",
				"energy": -0.30428,
				"method": "rhf"
			},
			{
				"type": "occ",
				"energy": -0.28085,
				"method": "rhf"
			},
			{
				"type": "occ",
				"energy": -0.26193,
				"method": "rhf"
			},
			{
				"type": "occ",
				"energy": -0.23715,
				"method": "rhf"
			},
			{
				"type": "occ",
				"energy": -0.20784,
				"method": "rhf"
			},
			{
				"type": "unocc",
				"energy": -0.04804,
				"method": "rhf"
			},
			{
				"type": "unocc",
				"energy": -0.0343,
				"method": "rhf"
			},
			{
				"type": "unocc",
				"energy": 0.01724,
				"method": "rhf"
			},
			{
				"type": "unocc",
				"energy": 0.02488,
				"method": "rhf"
			},
			{
				"type": "unocc",
				"energy": 0.07761,
				"method": "rhf"
			}
		],
		"cosmo_sigma_profile": { 
			"-0.025": 0.0,
			"-0.024": 0.0,
			"-0.023": 0.0,
			"-0.022": 0.0,
			"-0.021": 0.0,
			"-0.02": 0.0,
			"-0.019": 0.0,
			"-0.018": 0.0,
			"-0.017": 0.0,
			"-0.016": 0.0,
			"-0.015": 0.59221772441,
			"-0.014": 1.36692904756,
			"-0.013": 1.35209416627,
			"-0.012": 0.997523887119,
			"-0.011": 1.36482565355,
			"-0.01": 0.975368579861,
			"-0.009": 4.04455897743,
			"-0.008": 6.25690748725,
			"-0.007": 8.5286441738,
			"-0.006": 6.49524112791,
			"-0.005": 7.692712101,
			"-0.004": 10.3742312082,
			"-0.003": 18.2660570922,
			"-0.002": 27.5610425624,
			"-0.001": 28.620473437,
			"0.0": 36.0361619022,
			"0.001": 28.5124242794,
			"0.002": 14.1388859894,
			"0.003": 12.9908831222,
			"0.004": 14.9975312751,
			"0.005": 7.7508759332,
			"0.006": 4.41078142003,
			"0.007": 3.14328620502,
			"0.008": 2.75095181378,
			"0.009": 3.20297523191,
			"0.01": 2.04249532992,
			"0.011": 2.54435368496,
			"0.012": 3.08215517806,
			"0.013": 4.08176474504,
			"0.014": 1.12078950985,
			"0.015": 0.313675335873,
			"0.016": 0.631077398422,
			"0.017": 0.521406871714,
			"0.018": 0.532266663734,
			"0.019": 0.250266851197,
			"0.02": 0.0,
			"0.021": 0.0,
			"0.022": 0.0,
			"0.023": 0.0,
			"0.024": 0.0,
			"0.025": 0.0
		}
	}
}
