{
	 "smiles": "OC(=O)CSC1=NC(=NO1)C1=CN=CC=C1", 
	 "Tm": 428.15, 
	 "num_atms": 23, 
	 "gaussian": { 
		 "optdone": 1, 
		 "sigma_profile": "yes", 
		 "theory": "DFT", 
		 "functional": "B3LYP", 
		 "basiset": "6-31G**", 
		 "properties": { 
			 "R2extent": 8625.3993, 
			 "electric_dipole_moment_norm": 1.91126342507, 
			 "electric_quadrupole_moment_norm": 27.8422245259, 
			 "total_energy": -1135.24862018, 
			 "HOMO_LUMO_gap": 0.19281, 
			 "cosmo_polarized_energy": -16.49, 
			 "cosmo_cavitation_energy": 31.19, 
			 "cosmo_dispersion_energy": -22.75, 
			 "cosmo_repulsion_energy": 1.73, 
			 "cosmo_total_nonelectrostatic_energy": 10.18, 
			 "SMD_solvation_energy": 3.95 
		},
		"coords": [
			{
				"x": -0.6892926933,
				"y": -1.4014226448,
				"z": 5.0478933287,
				"element": "O" 
			},
			{
				"x": -1.1047461651,
				"y": -0.1161383833,
				"z": 5.0956753601,
				"element": "C" 
			},
			{
				"x": -2.2271848353,
				"y": 0.237749193,
				"z": 4.8350441928,
				"element": "O" 
			},
			{
				"x": 0.0531517087,
				"y": 0.7682980832,
				"z": 5.5431993708,
				"element": "C" 
			},
			{
				"x": -0.309383579,
				"y": 2.5509670998,
				"z": 5.5049512811,
				"element": "S" 
			},
			{
				"x": -0.2641132962,
				"y": 2.7743109983,
				"z": 3.7711536669,
				"element": "C" 
			},
			{
				"x": 0.0327694857,
				"y": 1.9129111047,
				"z": 2.8417157342,
				"element": "N" 
			},
			{
				"x": -0.0881556953,
				"y": 2.6780201135,
				"z": 1.6963859517,
				"element": "C" 
			},
			{
				"x": -0.4322470044,
				"y": 3.9286398075,
				"z": 1.9060366138,
				"element": "N" 
			},
			{
				"x": -0.5550285954,
				"y": 4.0002869109,
				"z": 3.3108908495,
				"element": "O" 
			},
			{
				"x": 0.1491249236,
				"y": 2.1404751448,
				"z": 0.3519686748,
				"element": "C" 
			},
			{
				"x": 0.5127059827,
				"y": 0.7966709632,
				"z": 0.1812158126,
				"element": "C" 
			},
			{
				"x": 0.7448582426,
				"y": 0.2372763185,
				"z": -1.0102902087,
				"element": "N" 
			},
			{
				"x": 0.6186261825,
				"y": 1.0168862392,
				"z": -2.0912852887,
				"element": "C" 
			},
			{
				"x": 0.2610524183,
				"y": 2.3668826212,
				"z": -2.0345687899,
				"element": "C" 
			},
			{
				"x": 0.0215904948,
				"y": 2.9409484869,
				"z": -0.7917424136,
				"element": "C" 
			},
			{
				"x": -1.4548034367,
				"y": -1.9287050881,
				"z": 4.762922436,
				"element": "H" 
			},
			{
				"x": 0.3014885972,
				"y": 0.5347910994,
				"z": 6.5830342097,
				"element": "H" 
			},
			{
				"x": 0.9308178731,
				"y": 0.5524146828,
				"z": 4.9313016278,
				"element": "H" 
			},
			{
				"x": 0.6167641037,
				"y": 0.1560218737,
				"z": 1.0529066603,
				"element": "H" 
			},
			{
				"x": 0.812370827,
				"y": 0.5401665473,
				"z": -3.0505877987,
				"element": "H" 
			},
			{
				"x": 0.1734750703,
				"y": 2.94995483,
				"z": -2.9457016342,
				"element": "H" 
			},
			{
				"x": -0.2591406096,
				"y": 3.984693998,
				"z": -0.6949196372,
				"element": "H" 
			}
		],
		 "valence_orbital": [ 
			{
				"type": "occ",
				"energy": -0.29576,
				"method": "rhf"
			},
			{
				"type": "occ",
				"energy": -0.29233,
				"method": "rhf"
			},
			{
				"type": "occ",
				"energy": -0.26993,
				"method": "rhf"
			},
			{
				"type": "occ",
				"energy": -0.26078,
				"method": "rhf"
			},
			{
				"type": "occ",
				"energy": -0.25119,
				"method": "rhf"
			},
			{
				"type": "unocc",
				"energy": -0.05838,
				"method": "rhf"
			},
			{
				"type": "unocc",
				"energy": -0.02746,
				"method": "rhf"
			},
			{
				"type": "unocc",
				"energy": -0.01237,
				"method": "rhf"
			},
			{
				"type": "unocc",
				"energy": -0.00871,
				"method": "rhf"
			},
			{
				"type": "unocc",
				"energy": -0.0017,
				"method": "rhf"
			}
		],
		"cosmo_sigma_profile": { 
			"-0.025": 0.0,
			"-0.024": 0.0,
			"-0.023": 0.0,
			"-0.022": 0.0,
			"-0.021": 0.0,
			"-0.02": 0.0,
			"-0.019": 0.245965148428,
			"-0.018": 1.26202171997,
			"-0.017": 0.790347685767,
			"-0.016": 0.935013077583,
			"-0.015": 0.535430439723,
			"-0.014": 0.889743778486,
			"-0.013": 1.07138247467,
			"-0.012": 0.600169401682,
			"-0.011": 3.15751211925,
			"-0.01": 3.56307003696,
			"-0.009": 2.69840815534,
			"-0.008": 4.93869283961,
			"-0.007": 10.7254886224,
			"-0.006": 12.8748661093,
			"-0.005": 10.3253149472,
			"-0.004": 11.3097719321,
			"-0.003": 13.1812732153,
			"-0.002": 16.7655292337,
			"-0.001": 21.500133904,
			"0.0": 22.9330492589,
			"0.001": 22.6172714957,
			"0.002": 14.3962510039,
			"0.003": 8.83195697723,
			"0.004": 11.854207396,
			"0.005": 11.3241035813,
			"0.006": 9.09028100592,
			"0.007": 6.16098404689,
			"0.008": 6.38019942334,
			"0.009": 4.85516022735,
			"0.01": 5.33737781913,
			"0.011": 6.88058248781,
			"0.012": 2.045651349,
			"0.013": 0.636956232569,
			"0.014": 1.08025873182,
			"0.015": 0.804389941215,
			"0.016": 0.672214850534,
			"0.017": 0.0,
			"0.018": 0.0,
			"0.019": 0.0,
			"0.02": 0.0,
			"0.021": 0.0,
			"0.022": 0.0,
			"0.023": 0.0,
			"0.024": 0.0,
			"0.025": 0.0
		}
	}
}
