{
	 "smiles": "NC1=CC(=NN1CCO)C1=CC=CC=C1", 
	 "Tm": 416.15, 
	 "num_atms": 28, 
	 "gaussian": { 
		 "optdone": 1, 
		 "sigma_profile": "yes", 
		 "theory": "DFT", 
		 "functional": "B3LYP", 
		 "basiset": "6-31G**", 
		 "properties": { 
			 "R2extent": 4522.4791, 
			 "electric_dipole_moment_norm": 3.3030711936, 
			 "electric_quadrupole_moment_norm": 11.4319979177, 
			 "total_energy": -666.458104967, 
			 "HOMO_LUMO_gap": 0.18882, 
			 "cosmo_polarized_energy": -17.7, 
			 "cosmo_cavitation_energy": 32.03, 
			 "cosmo_dispersion_energy": -23.26, 
			 "cosmo_repulsion_energy": 1.85, 
			 "cosmo_total_nonelectrostatic_energy": 10.61, 
			 "SMD_solvation_energy": 4.39 
		},
		"coords": [
			{
				"x": -3.1573098122,
				"y": 0.2710656431,
				"z": 1.947652962,
				"element": "N" 
			},
			{
				"x": -2.0997203289,
				"y": -0.2227590147,
				"z": 1.1760704065,
				"element": "C" 
			},
			{
				"x": -2.0558934244,
				"y": -0.7113201852,
				"z": -0.1172071292,
				"element": "C" 
			},
			{
				"x": -0.6781867749,
				"y": -0.956623603,
				"z": -0.36828911,
				"element": "C" 
			},
			{
				"x": 0.0682478553,
				"y": -0.6474780091,
				"z": 0.6951555594,
				"element": "N" 
			},
			{
				"x": -0.8130125057,
				"y": -0.2016601947,
				"z": 1.6329757576,
				"element": "N" 
			},
			{
				"x": -0.3098063564,
				"y": 0.3497722073,
				"z": 2.8761582382,
				"element": "C" 
			},
			{
				"x": -0.0257276105,
				"y": 1.848512385,
				"z": 2.7679423866,
				"element": "C" 
			},
			{
				"x": 0.4495203591,
				"y": 2.2589876192,
				"z": 4.0419511965,
				"element": "O" 
			},
			{
				"x": -0.0539383568,
				"y": -1.4968797155,
				"z": -1.5878521402,
				"element": "C" 
			},
			{
				"x": 1.3133482635,
				"y": -1.8229882099,
				"z": -1.6018179861,
				"element": "C" 
			},
			{
				"x": 1.9101270538,
				"y": -2.3314811271,
				"z": -2.7523043561,
				"element": "C" 
			},
			{
				"x": 1.1561267435,
				"y": -2.5281055462,
				"z": -3.9127583733,
				"element": "C" 
			},
			{
				"x": -0.2021423024,
				"y": -2.2072573775,
				"z": -3.9101767932,
				"element": "C" 
			},
			{
				"x": -0.8011157037,
				"y": -1.6953963853,
				"z": -2.7594431174,
				"element": "C" 
			},
			{
				"x": -4.0501026943,
				"y": 0.1169741542,
				"z": 1.4960711302,
				"element": "H" 
			},
			{
				"x": -3.1860045903,
				"y": -0.1064561781,
				"z": 2.8893285417,
				"element": "H" 
			},
			{
				"x": -2.9010715097,
				"y": -0.8912497864,
				"z": -0.7642474077,
				"element": "H" 
			},
			{
				"x": -1.0302546293,
				"y": 0.175095385,
				"z": 3.6812592783,
				"element": "H" 
			},
			{
				"x": 0.6083574301,
				"y": -0.1854914806,
				"z": 3.1251617735,
				"element": "H" 
			},
			{
				"x": -0.9499904244,
				"y": 2.3737533045,
				"z": 2.4839406208,
				"element": "H" 
			},
			{
				"x": 0.7170049601,
				"y": 2.0089441832,
				"z": 1.9730899053,
				"element": "H" 
			},
			{
				"x": 0.6739238572,
				"y": 3.1957598359,
				"z": 3.9930966979,
				"element": "H" 
			},
			{
				"x": 1.8930256496,
				"y": -1.6715387938,
				"z": -0.6976201336,
				"element": "H" 
			},
			{
				"x": 2.9683447364,
				"y": -2.5784467519,
				"z": -2.74377298,
				"element": "H" 
			},
			{
				"x": 1.6229490625,
				"y": -2.9267267939,
				"z": -4.8089888515,
				"element": "H" 
			},
			{
				"x": -0.7983127163,
				"y": -2.3527871016,
				"z": -4.8069023409,
				"element": "H" 
			},
			{
				"x": -1.8567862311,
				"y": -1.4411184628,
				"z": -2.7759737352,
				"element": "H" 
			}
		],
		 "valence_orbital": [ 
			{
				"type": "occ",
				"energy": -0.27282,
				"method": "rhf"
			},
			{
				"type": "occ",
				"energy": -0.26799,
				"method": "rhf"
			},
			{
				"type": "occ",
				"energy": -0.23852,
				"method": "rhf"
			},
			{
				"type": "occ",
				"energy": -0.21653,
				"method": "rhf"
			},
			{
				"type": "occ",
				"energy": -0.19952,
				"method": "rhf"
			},
			{
				"type": "unocc",
				"energy": -0.0107,
				"method": "rhf"
			},
			{
				"type": "unocc",
				"energy": 0.01144,
				"method": "rhf"
			},
			{
				"type": "unocc",
				"energy": 0.04773,
				"method": "rhf"
			},
			{
				"type": "unocc",
				"energy": 0.06028,
				"method": "rhf"
			},
			{
				"type": "unocc",
				"energy": 0.07199,
				"method": "rhf"
			}
		],
		"cosmo_sigma_profile": { 
			"-0.025": 0.0,
			"-0.024": 0.0,
			"-0.023": 0.0,
			"-0.022": 0.0,
			"-0.021": 0.0,
			"-0.02": 0.0,
			"-0.019": 0.0,
			"-0.018": 0.0,
			"-0.017": 0.01434624087,
			"-0.016": 1.05058843499,
			"-0.015": 0.774285631522,
			"-0.014": 1.35340003048,
			"-0.013": 3.09560294284,
			"-0.012": 4.45264194327,
			"-0.011": 3.67037178314,
			"-0.01": 4.94069472356,
			"-0.009": 3.01512184214,
			"-0.008": 3.30906223155,
			"-0.007": 5.74034726676,
			"-0.006": 9.32315815579,
			"-0.005": 13.0925428867,
			"-0.004": 17.8546075261,
			"-0.003": 19.5785171454,
			"-0.002": 16.5866150311,
			"-0.001": 14.0941152508,
			"0.0": 12.9873716589,
			"0.001": 10.067451392,
			"0.002": 11.9061637668,
			"0.003": 14.1328913753,
			"0.004": 18.1032131212,
			"0.005": 19.391354456,
			"0.006": 17.7733720889,
			"0.007": 5.81582920393,
			"0.008": 4.07296240411,
			"0.009": 2.32308166976,
			"0.01": 4.20202297498,
			"0.011": 3.11915479578,
			"0.012": 2.98651758419,
			"0.013": 3.7910063379,
			"0.014": 0.951180959185,
			"0.015": 0.0,
			"0.016": 0.0,
			"0.017": 0.0,
			"0.018": 0.0,
			"0.019": 0.0,
			"0.02": 0.0,
			"0.021": 0.0,
			"0.022": 0.0,
			"0.023": 0.0,
			"0.024": 0.0,
			"0.025": 0.0
		}
	}
}
