{
	 "smiles": "NC1=C(CN2CCSCC2)C=CC=C1", 
	 "Tm": 346.15, 
	 "num_atms": 30, 
	 "gaussian": { 
		 "optdone": 1, 
		 "sigma_profile": "yes", 
		 "theory": "DFT", 
		 "functional": "B3LYP", 
		 "basiset": "6-31G**", 
		 "properties": { 
			 "R2extent": 4446.4693, 
			 "electric_dipole_moment_norm": 1.972242262, 
			 "electric_quadrupole_moment_norm": 13.5480605933, 
			 "total_energy": -936.491345381, 
			 "HOMO_LUMO_gap": 0.20669, 
			 "cosmo_polarized_energy": -11.9, 
			 "cosmo_cavitation_energy": 32.11, 
			 "cosmo_dispersion_energy": -24.04, 
			 "cosmo_repulsion_energy": 1.85, 
			 "cosmo_total_nonelectrostatic_energy": 9.92, 
			 "SMD_solvation_energy": 2.92 
		},
		"coords": [
			{
				"x": 2.223348983,
				"y": -1.3059976959,
				"z": 0.5305972017,
				"element": "N" 
			},
			{
				"x": 1.9289580437,
				"y": 0.0410046506,
				"z": 0.2807225112,
				"element": "C" 
			},
			{
				"x": 0.6643867975,
				"y": 0.4347112927,
				"z": -0.2170793616,
				"element": "C" 
			},
			{
				"x": -0.422334438,
				"y": -0.60288814,
				"z": -0.4458726699,
				"element": "C" 
			},
			{
				"x": -1.7618559103,
				"y": -0.0451640497,
				"z": -0.605377444,
				"element": "N" 
			},
			{
				"x": -2.3439452128,
				"y": 0.458685675,
				"z": 0.6521229744,
				"element": "C" 
			},
			{
				"x": -3.2557645134,
				"y": -0.5350118546,
				"z": 1.3820298508,
				"element": "C" 
			},
			{
				"x": -4.791631529,
				"y": -0.8589120498,
				"z": 0.4106427173,
				"element": "S" 
			},
			{
				"x": -4.0999359833,
				"y": -0.5569607229,
				"z": -1.2741518131,
				"element": "C" 
			},
			{
				"x": -2.630602122,
				"y": -0.9571498076,
				"z": -1.3616125749,
				"element": "C" 
			},
			{
				"x": 0.4592496073,
				"y": 1.7783777154,
				"z": -0.5450341064,
				"element": "C" 
			},
			{
				"x": 1.4580324569,
				"y": 2.7374022911,
				"z": -0.3757539253,
				"element": "C" 
			},
			{
				"x": 2.6978212722,
				"y": 2.3454183904,
				"z": 0.1302774967,
				"element": "C" 
			},
			{
				"x": 2.929303044,
				"y": 1.0120400588,
				"z": 0.4550452615,
				"element": "C" 
			},
			{
				"x": 1.4388976125,
				"y": -1.8844431694,
				"z": 0.7990442637,
				"element": "H" 
			},
			{
				"x": 3.0140008541,
				"y": -1.4496997964,
				"z": 1.1445835568,
				"element": "H" 
			},
			{
				"x": -0.4059535364,
				"y": -1.3574426009,
				"z": 0.369979351,
				"element": "H" 
			},
			{
				"x": -0.1856503672,
				"y": -1.1672504718,
				"z": -1.358468732,
				"element": "H" 
			},
			{
				"x": -1.5172490148,
				"y": 0.7482456953,
				"z": 1.3080062185,
				"element": "H" 
			},
			{
				"x": -2.9156684963,
				"y": 1.3733984477,
				"z": 0.4531949453,
				"element": "H" 
			},
			{
				"x": -3.5760490333,
				"y": -0.1235472703,
				"z": 2.34310245,
				"element": "H" 
			},
			{
				"x": -2.7360153291,
				"y": -1.4787101053,
				"z": 1.5764992758,
				"element": "H" 
			},
			{
				"x": -4.6953224264,
				"y": -1.1649900014,
				"z": -1.9593663101,
				"element": "H" 
			},
			{
				"x": -4.2279157998,
				"y": 0.4935310908,
				"z": -1.5514345979,
				"element": "H" 
			},
			{
				"x": -2.5384830782,
				"y": -2.0049616244,
				"z": -1.019337806,
				"element": "H" 
			},
			{
				"x": -2.310406175,
				"y": -0.9383760274,
				"z": -2.4120567908,
				"element": "H" 
			},
			{
				"x": -0.5104160743,
				"y": 2.056833458,
				"z": -0.9446902575,
				"element": "H" 
			},
			{
				"x": 1.270043189,
				"y": 3.7741465425,
				"z": -0.6375404116,
				"element": "H" 
			},
			{
				"x": 3.4890686766,
				"y": 3.0759807647,
				"z": 0.2746444149,
				"element": "H" 
			},
			{
				"x": 3.8989885028,
				"y": 0.7056293146,
				"z": 0.8415843117,
				"element": "H" 
			}
		],
		 "valence_orbital": [ 
			{
				"type": "occ",
				"energy": -0.29837,
				"method": "rhf"
			},
			{
				"type": "occ",
				"energy": -0.23632,
				"method": "rhf"
			},
			{
				"type": "occ",
				"energy": -0.21717,
				"method": "rhf"
			},
			{
				"type": "occ",
				"energy": -0.21321,
				"method": "rhf"
			},
			{
				"type": "occ",
				"energy": -0.19849,
				"method": "rhf"
			},
			{
				"type": "unocc",
				"energy": 0.0082,
				"method": "rhf"
			},
			{
				"type": "unocc",
				"energy": 0.02116,
				"method": "rhf"
			},
			{
				"type": "unocc",
				"energy": 0.03828,
				"method": "rhf"
			},
			{
				"type": "unocc",
				"energy": 0.05997,
				"method": "rhf"
			},
			{
				"type": "unocc",
				"energy": 0.07315,
				"method": "rhf"
			}
		],
		"cosmo_sigma_profile": { 
			"-0.025": 0.0,
			"-0.024": 0.0,
			"-0.023": 0.0,
			"-0.022": 0.0,
			"-0.021": 0.0,
			"-0.02": 0.0,
			"-0.019": 0.0,
			"-0.018": 0.0,
			"-0.017": 0.0,
			"-0.016": 0.0,
			"-0.015": 0.0,
			"-0.014": 0.0,
			"-0.013": 0.0306153662934,
			"-0.012": 1.24831984213,
			"-0.011": 2.77836917591,
			"-0.01": 2.00012722233,
			"-0.009": 3.72112691924,
			"-0.008": 2.5297712149,
			"-0.007": 2.79672024633,
			"-0.006": 5.00463189869,
			"-0.005": 13.2432325103,
			"-0.004": 28.0837454424,
			"-0.003": 30.0372207046,
			"-0.002": 29.7157815333,
			"-0.001": 20.6980138435,
			"0.0": 13.669379187,
			"0.001": 11.7116481576,
			"0.002": 9.33057292489,
			"0.003": 10.3434794163,
			"0.004": 10.3443134098,
			"0.005": 11.8231878047,
			"0.006": 12.1083940815,
			"0.007": 11.5942380459,
			"0.008": 7.08618264896,
			"0.009": 4.25242073097,
			"0.01": 3.40508952636,
			"0.011": 3.06156471042,
			"0.012": 1.33447776158,
			"0.013": 0.316798738697,
			"0.014": 0.848920141678,
			"0.015": 0.347424107499,
			"0.016": 0.0,
			"0.017": 0.0,
			"0.018": 0.0,
			"0.019": 0.0,
			"0.02": 0.0,
			"0.021": 0.0,
			"0.022": 0.0,
			"0.023": 0.0,
			"0.024": 0.0,
			"0.025": 0.0
		}
	}
}
