{
	 "smiles": "CCS(=O)(=O)NC1CCCNC1", 
	 "Tm": 378.15, 
	 "num_atms": 28, 
	 "gaussian": { 
		 "optdone": 1, 
		 "sigma_profile": "yes", 
		 "theory": "DFT", 
		 "functional": "B3LYP", 
		 "basiset": "6-31G**", 
		 "properties": { 
			 "R2extent": 3438.0483, 
			 "electric_dipole_moment_norm": 4.78306445806, 
			 "electric_quadrupole_moment_norm": 13.8560307112, 
			 "total_energy": -934.45932073, 
			 "HOMO_LUMO_gap": 0.26703, 
			 "cosmo_polarized_energy": -16.2, 
			 "cosmo_cavitation_energy": 30.13, 
			 "cosmo_dispersion_energy": -22.05, 
			 "cosmo_repulsion_energy": 1.72, 
			 "cosmo_total_nonelectrostatic_energy": 9.8, 
			 "SMD_solvation_energy": 1.18 
		},
		"coords": [
			{
				"x": -2.7537681039,
				"y": 1.7996205948,
				"z": 2.1330223307,
				"element": "C" 
			},
			{
				"x": -2.4288966133,
				"y": 0.3169747063,
				"z": 1.9992894705,
				"element": "C" 
			},
			{
				"x": -0.7232033748,
				"y": -0.0911273696,
				"z": 2.4614627611,
				"element": "S" 
			},
			{
				"x": -0.4211959469,
				"y": 0.5549015971,
				"z": 3.7452811028,
				"element": "O" 
			},
			{
				"x": -0.572059475,
				"y": -1.5406017043,
				"z": 2.2762900121,
				"element": "O" 
			},
			{
				"x": 0.189117705,
				"y": 0.7353079897,
				"z": 1.2992019777,
				"element": "N" 
			},
			{
				"x": 0.8288517267,
				"y": -0.0286899386,
				"z": 0.203556937,
				"element": "C" 
			},
			{
				"x": 1.0692705235,
				"y": 0.8876128284,
				"z": -1.0226311979,
				"element": "C" 
			},
			{
				"x": 2.486502422,
				"y": 1.4729417646,
				"z": -1.0140849618,
				"element": "C" 
			},
			{
				"x": 3.5377101575,
				"y": 0.3340863782,
				"z": -1.078112904,
				"element": "C" 
			},
			{
				"x": 3.0992656702,
				"y": -0.9216937881,
				"z": -0.4450747535,
				"element": "N" 
			},
			{
				"x": 2.1591772246,
				"y": -0.703315218,
				"z": 0.6480469843,
				"element": "C" 
			},
			{
				"x": -2.1268576803,
				"y": 2.39644749,
				"z": 1.4656727187,
				"element": "H" 
			},
			{
				"x": -3.8012909977,
				"y": 1.9715448822,
				"z": 1.8677936582,
				"element": "H" 
			},
			{
				"x": -2.5951573442,
				"y": 2.1393987744,
				"z": 3.159026093,
				"element": "H" 
			},
			{
				"x": -2.555951563,
				"y": -0.0542981327,
				"z": 0.978510134,
				"element": "H" 
			},
			{
				"x": -3.0375287622,
				"y": -0.3033789716,
				"z": 2.6642586965,
				"element": "H" 
			},
			{
				"x": 0.8254469214,
				"y": 1.3499086494,
				"z": 1.8024320302,
				"element": "H" 
			},
			{
				"x": 0.1118855157,
				"y": -0.8078119771,
				"z": -0.0710680647,
				"element": "H" 
			},
			{
				"x": 0.3081275368,
				"y": 1.6734199943,
				"z": -1.0405649419,
				"element": "H" 
			},
			{
				"x": 0.933068225,
				"y": 0.2974848825,
				"z": -1.9376859733,
				"element": "H" 
			},
			{
				"x": 2.6269924692,
				"y": 2.1667575782,
				"z": -1.8501668126,
				"element": "H" 
			},
			{
				"x": 2.6319560579,
				"y": 2.0669700962,
				"z": -0.1022789644,
				"element": "H" 
			},
			{
				"x": 4.4685375207,
				"y": 0.6687654141,
				"z": -0.6004410355,
				"element": "H" 
			},
			{
				"x": 3.7867882488,
				"y": 0.1121561341,
				"z": -2.1215743476,
				"element": "H" 
			},
			{
				"x": 2.6816000333,
				"y": -1.5368014581,
				"z": -1.13680793,
				"element": "H" 
			},
			{
				"x": 1.9417421004,
				"y": -1.6488284081,
				"z": 1.1518178881,
				"element": "H" 
			},
			{
				"x": 2.6526698027,
				"y": -0.061952788,
				"z": 1.3919290922,
				"element": "H" 
			}
		],
		 "valence_orbital": [ 
			{
				"type": "occ",
				"energy": -0.31151,
				"method": "rhf"
			},
			{
				"type": "occ",
				"energy": -0.30269,
				"method": "rhf"
			},
			{
				"type": "occ",
				"energy": -0.29449,
				"method": "rhf"
			},
			{
				"type": "occ",
				"energy": -0.27403,
				"method": "rhf"
			},
			{
				"type": "occ",
				"energy": -0.21599,
				"method": "rhf"
			},
			{
				"type": "unocc",
				"energy": 0.05104,
				"method": "rhf"
			},
			{
				"type": "unocc",
				"energy": 0.06993,
				"method": "rhf"
			},
			{
				"type": "unocc",
				"energy": 0.07699,
				"method": "rhf"
			},
			{
				"type": "unocc",
				"energy": 0.08144,
				"method": "rhf"
			},
			{
				"type": "unocc",
				"energy": 0.09213,
				"method": "rhf"
			}
		],
		"cosmo_sigma_profile": { 
			"-0.025": 0.0,
			"-0.024": 0.0,
			"-0.023": 0.0,
			"-0.022": 0.0,
			"-0.021": 0.0,
			"-0.02": 0.0,
			"-0.019": 0.0,
			"-0.018": 0.0,
			"-0.017": 0.0,
			"-0.016": 0.0,
			"-0.015": 0.0,
			"-0.014": 0.0,
			"-0.013": 0.330377488936,
			"-0.012": 0.691564160523,
			"-0.011": 1.46565865074,
			"-0.01": 2.20757549219,
			"-0.009": 2.83751541566,
			"-0.008": 5.3967793569,
			"-0.007": 8.38485730545,
			"-0.006": 8.43061748383,
			"-0.005": 11.6108954187,
			"-0.004": 19.7001923704,
			"-0.003": 23.2222748883,
			"-0.002": 24.3643046149,
			"-0.001": 27.1837242992,
			"0.0": 24.4884167783,
			"0.001": 10.3639337633,
			"0.002": 5.33897411278,
			"0.003": 4.93403319675,
			"0.004": 5.41328041941,
			"0.005": 4.93515502029,
			"0.006": 3.6882062235,
			"0.007": 3.00094515393,
			"0.008": 3.8738498977,
			"0.009": 4.24364124336,
			"0.01": 5.11135690985,
			"0.011": 9.59564742966,
			"0.012": 8.09271508376,
			"0.013": 1.57253491332,
			"0.014": 0.321958400138,
			"0.015": 0.480530500028,
			"0.016": 0.830785703634,
			"0.017": 0.555853961617,
			"0.018": 0.408590291866,
			"0.019": 0.137536023101,
			"0.02": 0.0,
			"0.021": 0.0,
			"0.022": 0.0,
			"0.023": 0.0,
			"0.024": 0.0,
			"0.025": 0.0
		}
	}
}
