{
	 "smiles": "CC1=CSC(N)=C1C1=NC2=C(S1)C=CC=C2", 
	 "Tm": 385.15, 
	 "num_atms": 26, 
	 "gaussian": { 
		 "optdone": 1, 
		 "sigma_profile": "yes", 
		 "theory": "DFT", 
		 "functional": "B3LYP", 
		 "basiset": "6-31G**", 
		 "properties": { 
			 "R2extent": 5511.3104, 
			 "electric_dipole_moment_norm": 0.682459295489, 
			 "electric_quadrupole_moment_norm": 9.91677628718, 
			 "total_energy": -1369.19412956, 
			 "HOMO_LUMO_gap": 0.14808, 
			 "cosmo_polarized_energy": -8.56, 
			 "cosmo_cavitation_energy": 32.07, 
			 "cosmo_dispersion_energy": -25.16, 
			 "cosmo_repulsion_energy": 1.83, 
			 "cosmo_total_nonelectrostatic_energy": 8.74, 
			 "SMD_solvation_energy": 3.91 
		},
		"coords": [
			{
				"x": -2.3541155693,
				"y": -0.8202491876,
				"z": 3.3768801766,
				"element": "C" 
			},
			{
				"x": -2.2995666726,
				"y": -1.6801816044,
				"z": 2.1423128521,
				"element": "C" 
			},
			{
				"x": -3.220723103,
				"y": -2.6540524022,
				"z": 1.9180447689,
				"element": "C" 
			},
			{
				"x": -2.9523180312,
				"y": -3.5153556407,
				"z": 0.4165775353,
				"element": "S" 
			},
			{
				"x": -1.5417966377,
				"y": -2.5425194832,
				"z": 0.0731175314,
				"element": "C" 
			},
			{
				"x": -0.8424286933,
				"y": -2.7098978772,
				"z": -1.0759978997,
				"element": "N" 
			},
			{
				"x": -1.3031499228,
				"y": -1.5951017391,
				"z": 1.0823069208,
				"element": "C" 
			},
			{
				"x": -0.1598632493,
				"y": -0.7139000846,
				"z": 0.9884091244,
				"element": "C" 
			},
			{
				"x": 0.6937537517,
				"y": -0.7396099299,
				"z": -0.0113066768,
				"element": "N" 
			},
			{
				"x": 1.7066080136,
				"y": 0.1874788901,
				"z": 0.1266897447,
				"element": "C" 
			},
			{
				"x": 1.6414671489,
				"y": 0.9829783866,
				"z": 1.2943386091,
				"element": "C" 
			},
			{
				"x": 0.237948586,
				"y": 0.5179130984,
				"z": 2.2334691468,
				"element": "S" 
			},
			{
				"x": 2.5977120293,
				"y": 1.9627342454,
				"z": 1.5658952069,
				"element": "C" 
			},
			{
				"x": 3.6332739058,
				"y": 2.1440690725,
				"z": 0.6505866271,
				"element": "C" 
			},
			{
				"x": 3.7100208732,
				"y": 1.3609354817,
				"z": -0.5131340596,
				"element": "C" 
			},
			{
				"x": 2.7567640147,
				"y": 0.3854260188,
				"z": -0.7830538185,
				"element": "C" 
			},
			{
				"x": -3.2130089511,
				"y": -1.1007448386,
				"z": 3.9922495056,
				"element": "H" 
			},
			{
				"x": -2.4549526321,
				"y": 0.2426569931,
				"z": 3.131169322,
				"element": "H" 
			},
			{
				"x": -1.4547844655,
				"y": -0.92964064,
				"z": 3.9930081719,
				"element": "H" 
			},
			{
				"x": -4.056199999,
				"y": -2.9310581403,
				"z": 2.5445084235,
				"element": "H" 
			},
			{
				"x": -0.9348404354,
				"y": -3.5648789539,
				"z": -1.600320464,
				"element": "H" 
			},
			{
				"x": 0.0176083873,
				"y": -2.1634686825,
				"z": -1.1281412415,
				"element": "H" 
			},
			{
				"x": 2.5395423625,
				"y": 2.5685403895,
				"z": 2.4646731636,
				"element": "H" 
			},
			{
				"x": 4.3883260828,
				"y": 2.900602121,
				"z": 0.8416856178,
				"element": "H" 
			},
			{
				"x": 4.5258676666,
				"y": 1.5206129457,
				"z": -1.211876564,
				"element": "H" 
			},
			{
				"x": 2.8073555398,
				"y": -0.2236884385,
				"z": -1.6798917244,
				"element": "H" 
			}
		],
		 "valence_orbital": [ 
			{
				"type": "occ",
				"energy": -0.27551,
				"method": "rhf"
			},
			{
				"type": "occ",
				"energy": -0.26628,
				"method": "rhf"
			},
			{
				"type": "occ",
				"energy": -0.23101,
				"method": "rhf"
			},
			{
				"type": "occ",
				"energy": -0.22465,
				"method": "rhf"
			},
			{
				"type": "occ",
				"energy": -0.18662,
				"method": "rhf"
			},
			{
				"type": "unocc",
				"energy": -0.03854,
				"method": "rhf"
			},
			{
				"type": "unocc",
				"energy": -0.0014,
				"method": "rhf"
			},
			{
				"type": "unocc",
				"energy": 0.00868,
				"method": "rhf"
			},
			{
				"type": "unocc",
				"energy": 0.011,
				"method": "rhf"
			},
			{
				"type": "unocc",
				"energy": 0.02256,
				"method": "rhf"
			}
		],
		"cosmo_sigma_profile": { 
			"-0.025": 0.0,
			"-0.024": 0.0,
			"-0.023": 0.0,
			"-0.022": 0.0,
			"-0.021": 0.0,
			"-0.02": 0.0,
			"-0.019": 0.0,
			"-0.018": 0.0,
			"-0.017": 0.0,
			"-0.016": 0.0,
			"-0.015": 0.352595567791,
			"-0.014": 1.25309885073,
			"-0.013": 1.59905678511,
			"-0.012": 0.974803647667,
			"-0.011": 1.3723508518,
			"-0.01": 1.28543675933,
			"-0.009": 0.895313124864,
			"-0.008": 3.20623291961,
			"-0.007": 5.25527993732,
			"-0.006": 10.4372401493,
			"-0.005": 14.1682282877,
			"-0.004": 16.5573384535,
			"-0.003": 16.5468909753,
			"-0.002": 15.8397483631,
			"-0.001": 18.5938441289,
			"0.0": 18.8368077229,
			"0.001": 19.8733023391,
			"0.002": 24.0040746875,
			"0.003": 28.4391019191,
			"0.004": 29.5217764347,
			"0.005": 21.8506214976,
			"0.006": 7.07455851702,
			"0.007": 2.03912095845,
			"0.008": 0.879408275953,
			"0.009": 0.587043573109,
			"0.01": 0.0573978054777,
			"0.011": 0.0,
			"0.012": 0.0,
			"0.013": 0.0,
			"0.014": 0.0,
			"0.015": 0.0,
			"0.016": 0.0,
			"0.017": 0.0,
			"0.018": 0.0,
			"0.019": 0.0,
			"0.02": 0.0,
			"0.021": 0.0,
			"0.022": 0.0,
			"0.023": 0.0,
			"0.024": 0.0,
			"0.025": 0.0
		}
	}
}
