{
	 "smiles": "OC(=O)C1=NOC(=C1)C1=CC=CS1", 
	 "Tm": 441.15, 
	 "num_atms": 18, 
	 "gaussian": { 
		 "optdone": 1, 
		 "sigma_profile": "yes", 
		 "theory": "DFT", 
		 "functional": "B3LYP", 
		 "basiset": "6-31G**", 
		 "properties": { 
			 "R2extent": 4008.8489, 
			 "electric_dipole_moment_norm": 2.86482666317, 
			 "electric_quadrupole_moment_norm": 15.2425018432, 
			 "total_energy": -986.416931507, 
			 "HOMO_LUMO_gap": 0.16328, 
			 "cosmo_polarized_energy": -13.52, 
			 "cosmo_cavitation_energy": 25.97, 
			 "cosmo_dispersion_energy": -19.66, 
			 "cosmo_repulsion_energy": 1.5, 
			 "cosmo_total_nonelectrostatic_energy": 7.8, 
			 "SMD_solvation_energy": 5.67 
		},
		"coords": [
			{
				"x": 2.9892644024,
				"y": -2.9378225195,
				"z": -0.2502023984,
				"element": "O" 
			},
			{
				"x": 1.6804859789,
				"y": -2.7587006762,
				"z": 0.0019299736,
				"element": "C" 
			},
			{
				"x": 0.8360145158,
				"y": -3.6145753511,
				"z": -0.1618866239,
				"element": "O" 
			},
			{
				"x": 1.3586067783,
				"y": -1.3990517779,
				"z": 0.5061633293,
				"element": "C" 
			},
			{
				"x": 2.2821680866,
				"y": -0.4726561422,
				"z": 0.681917255,
				"element": "N" 
			},
			{
				"x": 1.5903679696,
				"y": 0.631526269,
				"z": 1.1544562473,
				"element": "O" 
			},
			{
				"x": 0.2638036997,
				"y": 0.3454389372,
				"z": 1.2530488596,
				"element": "C" 
			},
			{
				"x": 0.0585212006,
				"y": -0.9471595942,
				"z": 0.8488456176,
				"element": "C" 
			},
			{
				"x": -0.6063294015,
				"y": 1.3923554699,
				"z": 1.7325178398,
				"element": "C" 
			},
			{
				"x": -1.9722585895,
				"y": 1.3341530078,
				"z": 1.9137679987,
				"element": "C" 
			},
			{
				"x": -2.5197379149,
				"y": 2.550863451,
				"z": 2.4027467264,
				"element": "C" 
			},
			{
				"x": -1.5687424436,
				"y": 3.520042874,
				"z": 2.5883356012,
				"element": "C" 
			},
			{
				"x": 0.0158553956,
				"y": 2.9668564428,
				"z": 2.1696916478,
				"element": "S" 
			},
			{
				"x": 3.0798566642,
				"y": -3.8511086855,
				"z": -0.5705050909,
				"element": "H" 
			},
			{
				"x": -0.8595894144,
				"y": -1.5087551515,
				"z": 0.7949105574,
				"element": "H" 
			},
			{
				"x": -2.5591867057,
				"y": 0.4476957795,
				"z": 1.7024474347,
				"element": "H" 
			},
			{
				"x": -3.5733969314,
				"y": 2.6994029511,
				"z": 2.6075119,
				"element": "H" 
			},
			{
				"x": -1.7051032907,
				"y": 4.5306947158,
				"z": 2.947703125,
				"element": "H" 
			}
		],
		 "valence_orbital": [ 
			{
				"type": "occ",
				"energy": -0.31153,
				"method": "rhf"
			},
			{
				"type": "occ",
				"energy": -0.30405,
				"method": "rhf"
			},
			{
				"type": "occ",
				"energy": -0.29204,
				"method": "rhf"
			},
			{
				"type": "occ",
				"energy": -0.26868,
				"method": "rhf"
			},
			{
				"type": "occ",
				"energy": -0.23152,
				"method": "rhf"
			},
			{
				"type": "unocc",
				"energy": -0.06824,
				"method": "rhf"
			},
			{
				"type": "unocc",
				"energy": -0.04221,
				"method": "rhf"
			},
			{
				"type": "unocc",
				"energy": 0.01719,
				"method": "rhf"
			},
			{
				"type": "unocc",
				"energy": 0.02351,
				"method": "rhf"
			},
			{
				"type": "unocc",
				"energy": 0.06981,
				"method": "rhf"
			}
		],
		"cosmo_sigma_profile": { 
			"-0.025": 0.0,
			"-0.024": 0.0,
			"-0.023": 0.0,
			"-0.022": 0.0,
			"-0.021": 0.0,
			"-0.02": 0.07020602699,
			"-0.019": 1.08674777901,
			"-0.018": 0.71539652657,
			"-0.017": 0.754815083917,
			"-0.016": 1.15397644967,
			"-0.015": 0.467189693173,
			"-0.014": 0.525070544356,
			"-0.013": 0.782492844456,
			"-0.012": 0.712076902256,
			"-0.011": 0.914584675564,
			"-0.01": 0.796942635615,
			"-0.009": 5.48049783213,
			"-0.008": 7.67691240457,
			"-0.007": 6.82574771837,
			"-0.006": 7.71717189756,
			"-0.005": 9.24578821167,
			"-0.004": 9.70452287285,
			"-0.003": 8.51979976098,
			"-0.002": 13.3269686051,
			"-0.001": 16.3942621541,
			"0.0": 15.4694443826,
			"0.001": 18.2997498886,
			"0.002": 20.0263416845,
			"0.003": 16.9627946392,
			"0.004": 8.75750854955,
			"0.005": 4.95860809988,
			"0.006": 7.12474037089,
			"0.007": 3.87167249275,
			"0.008": 3.80915362858,
			"0.009": 5.04339866059,
			"0.01": 5.76745078784,
			"0.011": 6.52797691193,
			"0.012": 1.60546370013,
			"0.013": 0.811559573047,
			"0.014": 0.0,
			"0.015": 0.0,
			"0.016": 0.0,
			"0.017": 0.0,
			"0.018": 0.0,
			"0.019": 0.0,
			"0.02": 0.0,
			"0.021": 0.0,
			"0.022": 0.0,
			"0.023": 0.0,
			"0.024": 0.0,
			"0.025": 0.0
		}
	}
}
