{
	 "smiles": "CC(C)(C)C(=O)OCC(N)=S", 
	 "Tm": 357.65, 
	 "num_atms": 24, 
	 "gaussian": { 
		 "optdone": 1, 
		 "sigma_profile": "yes", 
		 "theory": "DFT", 
		 "functional": "B3LYP", 
		 "basiset": "6-31G**", 
		 "properties": { 
			 "R2extent": 3740.8038, 
			 "electric_dipole_moment_norm": 5.70293778416, 
			 "electric_quadrupole_moment_norm": 25.7541164187, 
			 "total_energy": -877.996370771, 
			 "HOMO_LUMO_gap": 0.17988, 
			 "cosmo_polarized_energy": -16.51, 
			 "cosmo_cavitation_energy": 28.98, 
			 "cosmo_dispersion_energy": -20.47, 
			 "cosmo_repulsion_energy": 1.63, 
			 "cosmo_total_nonelectrostatic_energy": 10.13, 
			 "SMD_solvation_energy": 5.1 
		},
		"coords": [
			{
				"x": -1.5053622814,
				"y": -0.4376660059,
				"z": 1.0155313123,
				"element": "C" 
			},
			{
				"x": -0.312406003,
				"y": 0.4972923842,
				"z": 0.7144049418,
				"element": "C" 
			},
			{
				"x": -0.4950386892,
				"y": 1.8379954939,
				"z": 1.4434868805,
				"element": "C" 
			},
			{
				"x": 1.0074480446,
				"y": -0.1728932378,
				"z": 1.1579403805,
				"element": "C" 
			},
			{
				"x": -0.2555910346,
				"y": 0.7683967634,
				"z": -0.7927760292,
				"element": "C" 
			},
			{
				"x": -0.3389951471,
				"y": 1.8517101665,
				"z": -1.3245156612,
				"element": "O" 
			},
			{
				"x": -0.0947559234,
				"y": -0.3803496496,
				"z": -1.5121712873,
				"element": "O" 
			},
			{
				"x": -0.0316569951,
				"y": -0.2167184259,
				"z": -2.9443543419,
				"element": "C" 
			},
			{
				"x": 0.1476606797,
				"y": -1.5635056296,
				"z": -3.6182741658,
				"element": "C" 
			},
			{
				"x": 0.2137214093,
				"y": -2.6163553054,
				"z": -2.7934767397,
				"element": "N" 
			},
			{
				"x": 0.2480215519,
				"y": -1.6545889365,
				"z": -5.274327908,
				"element": "S" 
			},
			{
				"x": -2.451901776,
				"y": 0.0123184861,
				"z": 0.6986850901,
				"element": "H" 
			},
			{
				"x": -1.4004662033,
				"y": -1.4013778337,
				"z": 0.5103006862,
				"element": "H" 
			},
			{
				"x": -1.5656910951,
				"y": -0.6218354803,
				"z": 2.0930912115,
				"element": "H" 
			},
			{
				"x": 0.3331901419,
				"y": 2.5192376693,
				"z": 1.2321668257,
				"element": "H" 
			},
			{
				"x": -1.4176446634,
				"y": 2.3348670717,
				"z": 1.132638609,
				"element": "H" 
			},
			{
				"x": -0.5386417924,
				"y": 1.6686304935,
				"z": 2.5240851515,
				"element": "H" 
			},
			{
				"x": 0.9837869699,
				"y": -0.3534577185,
				"z": 2.2375326777,
				"element": "H" 
			},
			{
				"x": 1.8691899606,
				"y": 0.4677001062,
				"z": 0.9438298975,
				"element": "H" 
			},
			{
				"x": 1.1622270419,
				"y": -1.1312454306,
				"z": 0.6553298117,
				"element": "H" 
			},
			{
				"x": 0.8009960437,
				"y": 0.4396497641,
				"z": -3.2093620338,
				"element": "H" 
			},
			{
				"x": -0.947708216,
				"y": 0.2559166939,
				"z": -3.3073854101,
				"element": "H" 
			},
			{
				"x": 0.332753336,
				"y": -3.538958215,
				"z": -3.1853203184,
				"element": "H" 
			},
			{
				"x": 0.1452646406,
				"y": -2.487363224,
				"z": -1.7940595805,
				"element": "H" 
			}
		],
		 "valence_orbital": [ 
			{
				"type": "occ",
				"energy": -0.3456,
				"method": "rhf"
			},
			{
				"type": "occ",
				"energy": -0.32036,
				"method": "rhf"
			},
			{
				"type": "occ",
				"energy": -0.28192,
				"method": "rhf"
			},
			{
				"type": "occ",
				"energy": -0.23418,
				"method": "rhf"
			},
			{
				"type": "occ",
				"energy": -0.21443,
				"method": "rhf"
			},
			{
				"type": "unocc",
				"energy": -0.03455,
				"method": "rhf"
			},
			{
				"type": "unocc",
				"energy": -0.00323,
				"method": "rhf"
			},
			{
				"type": "unocc",
				"energy": 0.04604,
				"method": "rhf"
			},
			{
				"type": "unocc",
				"energy": 0.07814,
				"method": "rhf"
			},
			{
				"type": "unocc",
				"energy": 0.08955,
				"method": "rhf"
			}
		],
		"cosmo_sigma_profile": { 
			"-0.025": 0.0,
			"-0.024": 0.0,
			"-0.023": 0.0,
			"-0.022": 0.0,
			"-0.021": 0.0,
			"-0.02": 0.0,
			"-0.019": 0.0,
			"-0.018": 0.0,
			"-0.017": 0.0,
			"-0.016": 0.266495227648,
			"-0.015": 1.43311123536,
			"-0.014": 1.13003705418,
			"-0.013": 2.25231910782,
			"-0.012": 2.66615608871,
			"-0.011": 1.52674737262,
			"-0.01": 1.58640783933,
			"-0.009": 1.12411355726,
			"-0.008": 3.52428279486,
			"-0.007": 5.66580055756,
			"-0.006": 4.30788570967,
			"-0.005": 6.83157237377,
			"-0.004": 19.8615711126,
			"-0.003": 27.5701075484,
			"-0.002": 20.5616135527,
			"-0.001": 20.120937232,
			"0.0": 26.4461411322,
			"0.001": 17.9500148226,
			"0.002": 4.27028355331,
			"0.003": 4.80413105513,
			"0.004": 5.2176604779,
			"0.005": 5.09622167564,
			"0.006": 4.56225324061,
			"0.007": 6.1212343907,
			"0.008": 5.98490546946,
			"0.009": 8.62461415037,
			"0.01": 7.19040866072,
			"0.011": 7.85611752471,
			"0.012": 4.25714888081,
			"0.013": 0.221767366356,
			"0.014": 0.0,
			"0.015": 0.0,
			"0.016": 0.0,
			"0.017": 0.0,
			"0.018": 0.0,
			"0.019": 0.0,
			"0.02": 0.0,
			"0.021": 0.0,
			"0.022": 0.0,
			"0.023": 0.0,
			"0.024": 0.0,
			"0.025": 0.0
		}
	}
}
