{
	 "smiles": "COC1=CC=CC=C1NC(=S)NN", 
	 "Tm": 425.15, 
	 "num_atms": 24, 
	 "gaussian": { 
		 "optdone": 1, 
		 "sigma_profile": "yes", 
		 "theory": "DFT", 
		 "functional": "B3LYP", 
		 "basiset": "6-31G**", 
		 "properties": { 
			 "R2extent": 3138.9349, 
			 "electric_dipole_moment_norm": 6.20305332639, 
			 "electric_quadrupole_moment_norm": 14.2789852584, 
			 "total_energy": -949.11032835, 
			 "HOMO_LUMO_gap": 0.16438, 
			 "cosmo_polarized_energy": -16.27, 
			 "cosmo_cavitation_energy": 29.07, 
			 "cosmo_dispersion_energy": -21.59, 
			 "cosmo_repulsion_energy": 1.69, 
			 "cosmo_total_nonelectrostatic_energy": 9.17, 
			 "SMD_solvation_energy": 5.15 
		},
		"coords": [
			{
				"x": 2.71877092,
				"y": -2.1147443509,
				"z": 0.8506060151,
				"element": "C" 
			},
			{
				"x": 1.6485622683,
				"y": -1.3021249501,
				"z": 0.3881558638,
				"element": "O" 
			},
			{
				"x": 1.4468960573,
				"y": -0.0895104717,
				"z": 0.9868627955,
				"element": "C" 
			},
			{
				"x": 2.1739123633,
				"y": 0.4005382158,
				"z": 2.0705893353,
				"element": "C" 
			},
			{
				"x": 1.8890777118,
				"y": 1.6687630102,
				"z": 2.5896571365,
				"element": "C" 
			},
			{
				"x": 0.8939889389,
				"y": 2.4517363827,
				"z": 2.0135284805,
				"element": "C" 
			},
			{
				"x": 0.1689069779,
				"y": 1.970835058,
				"z": 0.9186209328,
				"element": "C" 
			},
			{
				"x": 0.417343458,
				"y": 0.6928168845,
				"z": 0.4093698996,
				"element": "C" 
			},
			{
				"x": -0.2449676723,
				"y": 0.1374204658,
				"z": -0.7050189123,
				"element": "N" 
			},
			{
				"x": -1.3757579406,
				"y": 0.5583468863,
				"z": -1.3600824292,
				"element": "C" 
			},
			{
				"x": -1.5583906535,
				"y": 0.3513896932,
				"z": -3.0139704727,
				"element": "S" 
			},
			{
				"x": -2.3653375269,
				"y": 1.1336422835,
				"z": -0.6006693678,
				"element": "N" 
			},
			{
				"x": -2.6763067627,
				"y": 0.7415697229,
				"z": 0.7221566688,
				"element": "N" 
			},
			{
				"x": 2.5717763612,
				"y": -2.412735287,
				"z": 1.8960144885,
				"element": "H" 
			},
			{
				"x": 3.6832869136,
				"y": -1.6016744934,
				"z": 0.7525444097,
				"element": "H" 
			},
			{
				"x": 2.7149858714,
				"y": -3.00400121,
				"z": 0.2192245495,
				"element": "H" 
			},
			{
				"x": 2.9582184536,
				"y": -0.1988745568,
				"z": 2.5173200741,
				"element": "H" 
			},
			{
				"x": 2.4566110383,
				"y": 2.0368957511,
				"z": 3.4385048671,
				"element": "H" 
			},
			{
				"x": 0.683596518,
				"y": 3.4446361724,
				"z": 2.3979796233,
				"element": "H" 
			},
			{
				"x": -0.5745961215,
				"y": 2.5958564012,
				"z": 0.434874734,
				"element": "H" 
			},
			{
				"x": 0.328083558,
				"y": -0.4831565196,
				"z": -1.2625883991,
				"element": "H" 
			},
			{
				"x": -3.185014209,
				"y": 1.3700446256,
				"z": -1.1448576782,
				"element": "H" 
			},
			{
				"x": -2.5009542461,
				"y": -0.2568742869,
				"z": 0.8284691365,
				"element": "H" 
			},
			{
				"x": -2.0601922769,
				"y": 1.2294045733,
				"z": 1.3692082489,
				"element": "H" 
			}
		],
		 "valence_orbital": [ 
			{
				"type": "occ",
				"energy": -0.27832,
				"method": "rhf"
			},
			{
				"type": "occ",
				"energy": -0.25437,
				"method": "rhf"
			},
			{
				"type": "occ",
				"energy": -0.23264,
				"method": "rhf"
			},
			{
				"type": "occ",
				"energy": -0.21542,
				"method": "rhf"
			},
			{
				"type": "occ",
				"energy": -0.20094,
				"method": "rhf"
			},
			{
				"type": "unocc",
				"energy": -0.03656,
				"method": "rhf"
			},
			{
				"type": "unocc",
				"energy": -0.00667,
				"method": "rhf"
			},
			{
				"type": "unocc",
				"energy": 0.0121,
				"method": "rhf"
			},
			{
				"type": "unocc",
				"energy": 0.07452,
				"method": "rhf"
			},
			{
				"type": "unocc",
				"energy": 0.07715,
				"method": "rhf"
			}
		],
		"cosmo_sigma_profile": { 
			"-0.025": 0.0,
			"-0.024": 0.0,
			"-0.023": 0.0,
			"-0.022": 0.0,
			"-0.021": 0.0,
			"-0.02": 0.0,
			"-0.019": 0.0,
			"-0.018": 0.0,
			"-0.017": 0.0,
			"-0.016": 0.0,
			"-0.015": 0.0,
			"-0.014": 0.199112374781,
			"-0.013": 0.870243380927,
			"-0.012": 1.75443488005,
			"-0.011": 2.3434728562,
			"-0.01": 2.61923655921,
			"-0.009": 3.5592597393,
			"-0.008": 3.45731589543,
			"-0.007": 6.54944957918,
			"-0.006": 16.6149795635,
			"-0.005": 19.5142694619,
			"-0.004": 21.8023043736,
			"-0.003": 17.7372547055,
			"-0.002": 11.3641663208,
			"-0.001": 12.7939992668,
			"0.0": 10.7322156366,
			"0.001": 11.6523225644,
			"0.002": 13.3347608492,
			"0.003": 12.3836211352,
			"0.004": 12.1181852177,
			"0.005": 9.81034220318,
			"0.006": 6.28563891364,
			"0.007": 5.10542968172,
			"0.008": 4.87670685705,
			"0.009": 6.39886092846,
			"0.01": 8.57234412006,
			"0.011": 5.42806952007,
			"0.012": 3.27969597573,
			"0.013": 0.669531479919,
			"0.014": 1.05041976156,
			"0.015": 0.452970757379,
			"0.016": 0.189423207038,
			"0.017": 0.0,
			"0.018": 0.0,
			"0.019": 0.0,
			"0.02": 0.0,
			"0.021": 0.0,
			"0.022": 0.0,
			"0.023": 0.0,
			"0.024": 0.0,
			"0.025": 0.0
		}
	}
}
