{
	 "smiles": "O=C=NC1=CC=CC2=NSN=C12", 
	 "Tm": 354.65, 
	 "num_atms": 15, 
	 "gaussian": { 
		 "optdone": 1, 
		 "sigma_profile": "yes", 
		 "theory": "DFT", 
		 "functional": "B3LYP", 
		 "basiset": "6-31G**", 
		 "properties": { 
			 "R2extent": 2324.9037, 
			 "electric_dipole_moment_norm": 2.58190381308, 
			 "electric_quadrupole_moment_norm": 8.83677042307, 
			 "total_energy": -906.192784188, 
			 "HOMO_LUMO_gap": 0.13814, 
			 "cosmo_polarized_energy": -6.15, 
			 "cosmo_cavitation_energy": 22.79, 
			 "cosmo_dispersion_energy": -17.47, 
			 "cosmo_repulsion_energy": 1.33, 
			 "cosmo_total_nonelectrostatic_energy": 6.64, 
			 "SMD_solvation_energy": 2.9 
		},
		"coords": [
			{
				"x": -0.5324053167,
				"y": 3.149827268,
				"z": -3.0895118585,
				"element": "O" 
			},
			{
				"x": -0.7925265576,
				"y": 2.5292077107,
				"z": -2.1279234106,
				"element": "C" 
			},
			{
				"x": -1.2291866151,
				"y": 1.9776102677,
				"z": -1.1328146461,
				"element": "N" 
			},
			{
				"x": -0.7615898643,
				"y": 1.0167659551,
				"z": -0.2477017003,
				"element": "C" 
			},
			{
				"x": -1.528770434,
				"y": 0.5944628521,
				"z": 0.8141483081,
				"element": "C" 
			},
			{
				"x": -1.057910175,
				"y": -0.3944834421,
				"z": 1.7314374094,
				"element": "C" 
			},
			{
				"x": 0.1766592481,
				"y": -0.9818558594,
				"z": 1.6153550454,
				"element": "C" 
			},
			{
				"x": 1.0039281774,
				"y": -0.5735590648,
				"z": 0.5294859969,
				"element": "C" 
			},
			{
				"x": 2.2336435047,
				"y": -1.0231523419,
				"z": 0.2452632745,
				"element": "N" 
			},
			{
				"x": 2.7260245668,
				"y": -0.2236173289,
				"z": -1.1025196494,
				"element": "S" 
			},
			{
				"x": 1.4058455355,
				"y": 0.7204825001,
				"z": -1.3762820841,
				"element": "N" 
			},
			{
				"x": 0.5375191424,
				"y": 0.4286645086,
				"z": -0.4075480158,
				"element": "C" 
			},
			{
				"x": -2.5132710557,
				"y": 1.0287315221,
				"z": 0.9495328743,
				"element": "H" 
			},
			{
				"x": -1.7129063144,
				"y": -0.683074955,
				"z": 2.5477898648,
				"element": "H" 
			},
			{
				"x": 0.5313461577,
				"y": -1.7316095924,
				"z": 2.3127885912,
				"element": "H" 
			}
		],
		 "valence_orbital": [ 
			{
				"type": "occ",
				"energy": -0.31762,
				"method": "rhf"
			},
			{
				"type": "occ",
				"energy": -0.31394,
				"method": "rhf"
			},
			{
				"type": "occ",
				"energy": -0.30932,
				"method": "rhf"
			},
			{
				"type": "occ",
				"energy": -0.27641,
				"method": "rhf"
			},
			{
				"type": "occ",
				"energy": -0.23557,
				"method": "rhf"
			},
			{
				"type": "unocc",
				"energy": -0.09743,
				"method": "rhf"
			},
			{
				"type": "unocc",
				"energy": -0.01236,
				"method": "rhf"
			},
			{
				"type": "unocc",
				"energy": -0.00212,
				"method": "rhf"
			},
			{
				"type": "unocc",
				"energy": -0.00113,
				"method": "rhf"
			},
			{
				"type": "unocc",
				"energy": 0.00754,
				"method": "rhf"
			}
		],
		"cosmo_sigma_profile": { 
			"-0.025": 0.0,
			"-0.024": 0.0,
			"-0.023": 0.0,
			"-0.022": 0.0,
			"-0.021": 0.0,
			"-0.02": 0.0,
			"-0.019": 0.0,
			"-0.018": 0.0,
			"-0.017": 0.0,
			"-0.016": 0.0,
			"-0.015": 0.0,
			"-0.014": 0.0,
			"-0.013": 0.0,
			"-0.012": 0.0,
			"-0.011": 0.0,
			"-0.01": 0.0,
			"-0.009": 0.0,
			"-0.008": 1.92548499352,
			"-0.007": 6.44017634079,
			"-0.006": 6.55236392553,
			"-0.005": 8.54737511903,
			"-0.004": 12.6934293581,
			"-0.003": 18.0138364103,
			"-0.002": 22.4462378894,
			"-0.001": 20.0665530582,
			"0.0": 14.9176518137,
			"0.001": 16.5173513577,
			"0.002": 14.4152454015,
			"0.003": 9.21741051205,
			"0.004": 6.23363244,
			"0.005": 6.37577455176,
			"0.006": 8.10481644555,
			"0.007": 9.3569135873,
			"0.008": 1.97719266445,
			"0.009": 1.54495080021,
			"0.01": 0.715917881408,
			"0.011": 1.37810479475,
			"0.012": 0.792036889448,
			"0.013": 0.482341024236,
			"0.014": 0.0,
			"0.015": 0.0,
			"0.016": 0.0,
			"0.017": 0.0,
			"0.018": 0.0,
			"0.019": 0.0,
			"0.02": 0.0,
			"0.021": 0.0,
			"0.022": 0.0,
			"0.023": 0.0,
			"0.024": 0.0,
			"0.025": 0.0
		}
	}
}
