{
	 "smiles": "NCC(O)C1=CC=CO1", 
	 "Tm": 354.15, 
	 "num_atms": 18, 
	 "gaussian": { 
		 "optdone": 1, 
		 "sigma_profile": "yes", 
		 "theory": "DFT", 
		 "functional": "B3LYP", 
		 "basiset": "6-31G**", 
		 "properties": { 
			 "R2extent": 1680.4103, 
			 "electric_dipole_moment_norm": 2.63073467685, 
			 "electric_quadrupole_moment_norm": 6.73370056804, 
			 "total_energy": -439.218022272, 
			 "HOMO_LUMO_gap": 0.22794, 
			 "cosmo_polarized_energy": -10.71, 
			 "cosmo_cavitation_energy": 21.56, 
			 "cosmo_dispersion_energy": -15.69, 
			 "cosmo_repulsion_energy": 1.31, 
			 "cosmo_total_nonelectrostatic_energy": 7.18, 
			 "SMD_solvation_energy": 3.19 
		},
		"coords": [
			{
				"x": -0.798756023,
				"y": -1.8887333444,
				"z": -1.1001174203,
				"element": "N" 
			},
			{
				"x": -2.0625606354,
				"y": -1.2411226562,
				"z": -0.7745195356,
				"element": "C" 
			},
			{
				"x": -2.0001334893,
				"y": -0.1314433359,
				"z": 0.3022215883,
				"element": "C" 
			},
			{
				"x": -3.3436225513,
				"y": 0.2747086535,
				"z": 0.5311281167,
				"element": "O" 
			},
			{
				"x": -1.1654876329,
				"y": 1.0456184143,
				"z": -0.1112957434,
				"element": "C" 
			},
			{
				"x": -1.4805416724,
				"y": 2.2499828731,
				"z": -0.6711009203,
				"element": "C" 
			},
			{
				"x": -0.2423369423,
				"y": 2.9538159501,
				"z": -0.8478995978,
				"element": "C" 
			},
			{
				"x": 0.7339325617,
				"y": 2.1271291662,
				"z": -0.3871308471,
				"element": "C" 
			},
			{
				"x": 0.1906106799,
				"y": 0.9568875911,
				"z": 0.0682837389,
				"element": "O" 
			},
			{
				"x": -0.1153416343,
				"y": -1.1985615967,
				"z": -1.4012813898,
				"element": "H" 
			},
			{
				"x": -0.4077368515,
				"y": -2.3350958579,
				"z": -0.2737101376,
				"element": "H" 
			},
			{
				"x": -2.4870389592,
				"y": -0.802851014,
				"z": -1.6843448147,
				"element": "H" 
			},
			{
				"x": -2.7718662575,
				"y": -1.99751129,
				"z": -0.4211177914,
				"element": "H" 
			},
			{
				"x": -1.5506459486,
				"y": -0.5695161937,
				"z": 1.2109363998,
				"element": "H" 
			},
			{
				"x": -3.3282241936,
				"y": 0.9990641986,
				"z": 1.1708632618,
				"element": "H" 
			},
			{
				"x": -2.4735818778,
				"y": 2.5857072503,
				"z": -0.9309745783,
				"element": "H" 
			},
			{
				"x": -0.1043952228,
				"y": 3.9427221346,
				"z": -1.2611540299,
				"element": "H" 
			},
			{
				"x": 1.8070266503,
				"y": 2.2076990571,
				"z": -0.3097862995,
				"element": "H" 
			}
		],
		 "valence_orbital": [ 
			{
				"type": "occ",
				"energy": -0.34565,
				"method": "rhf"
			},
			{
				"type": "occ",
				"energy": -0.28442,
				"method": "rhf"
			},
			{
				"type": "occ",
				"energy": -0.28008,
				"method": "rhf"
			},
			{
				"type": "occ",
				"energy": -0.23779,
				"method": "rhf"
			},
			{
				"type": "occ",
				"energy": -0.22054,
				"method": "rhf"
			},
			{
				"type": "unocc",
				"energy": 0.0074,
				"method": "rhf"
			},
			{
				"type": "unocc",
				"energy": 0.06549,
				"method": "rhf"
			},
			{
				"type": "unocc",
				"energy": 0.07865,
				"method": "rhf"
			},
			{
				"type": "unocc",
				"energy": 0.0975,
				"method": "rhf"
			},
			{
				"type": "unocc",
				"energy": 0.11691,
				"method": "rhf"
			}
		],
		"cosmo_sigma_profile": { 
			"-0.025": 0.0,
			"-0.024": 0.0,
			"-0.023": 0.0,
			"-0.022": 0.0,
			"-0.021": 0.0,
			"-0.02": 0.0,
			"-0.019": 0.0,
			"-0.018": 0.0,
			"-0.017": 0.0,
			"-0.016": 0.132649523754,
			"-0.015": 0.929212132381,
			"-0.014": 0.740017966774,
			"-0.013": 1.09094115093,
			"-0.012": 0.643174277161,
			"-0.011": 0.826970805511,
			"-0.01": 1.70757242547,
			"-0.009": 2.62829043629,
			"-0.008": 4.47430216849,
			"-0.007": 7.22718448849,
			"-0.006": 9.3209562883,
			"-0.005": 9.20189113845,
			"-0.004": 12.8585896706,
			"-0.003": 12.8318193411,
			"-0.002": 11.3367562428,
			"-0.001": 10.6171827068,
			"0.0": 10.5982411012,
			"0.001": 9.61805863563,
			"0.002": 7.90465157421,
			"0.003": 9.69836899328,
			"0.004": 8.58713741835,
			"0.005": 8.7815090282,
			"0.006": 6.85572261349,
			"0.007": 2.39607339857,
			"0.008": 3.70485989543,
			"0.009": 1.71177934225,
			"0.01": 1.74933116703,
			"0.011": 1.34231803783,
			"0.012": 2.44616289755,
			"0.013": 3.01393999388,
			"0.014": 1.30311669074,
			"0.015": 0.50542858728,
			"0.016": 0.462100012517,
			"0.017": 0.734860711733,
			"0.018": 0.616749465578,
			"0.019": 0.676410749539,
			"0.02": 0.142878305474,
			"0.021": 0.0,
			"0.022": 0.0,
			"0.023": 0.0,
			"0.024": 0.0,
			"0.025": 0.0
		}
	}
}
