{
	 "smiles": "SC1=NN=C(N1C1CC1)C1=CC=NC=C1", 
	 "Tm": 577.15, 
	 "num_atms": 25, 
	 "gaussian": { 
		 "optdone": 1, 
		 "sigma_profile": "yes", 
		 "theory": "DFT", 
		 "functional": "B3LYP", 
		 "basiset": "6-31G**", 
		 "properties": { 
			 "R2extent": 4364.8785, 
			 "electric_dipole_moment_norm": 6.00495904732, 
			 "electric_quadrupole_moment_norm": 18.0026392801, 
			 "total_energy": -1004.21373684, 
			 "HOMO_LUMO_gap": 0.1825, 
			 "cosmo_polarized_energy": -20.05, 
			 "cosmo_cavitation_energy": 30.37, 
			 "cosmo_dispersion_energy": -22.2, 
			 "cosmo_repulsion_energy": 1.67, 
			 "cosmo_total_nonelectrostatic_energy": 9.85, 
			 "SMD_solvation_energy": 0.72 
		},
		"coords": [
			{
				"x": -3.1537538355,
				"y": 0.8778569375,
				"z": 2.8658521352,
				"element": "S" 
			},
			{
				"x": -2.6015751328,
				"y": -0.2781012845,
				"z": 1.6518318186,
				"element": "C" 
			},
			{
				"x": -3.3164067767,
				"y": -1.3240084975,
				"z": 1.3044906972,
				"element": "N" 
			},
			{
				"x": -2.6394520119,
				"y": -1.9630834128,
				"z": 0.2991589496,
				"element": "N" 
			},
			{
				"x": -1.5197419341,
				"y": -1.3056988896,
				"z": 0.0680827013,
				"element": "C" 
			},
			{
				"x": -1.4508105043,
				"y": -0.1905644045,
				"z": 0.8911504807,
				"element": "N" 
			},
			{
				"x": -0.4634148521,
				"y": 0.8603981187,
				"z": 0.9246675899,
				"element": "C" 
			},
			{
				"x": -0.0959496222,
				"y": 1.5702264685,
				"z": -0.3555097243,
				"element": "C" 
			},
			{
				"x": -0.8993504934,
				"y": 2.2889161958,
				"z": 0.6901365059,
				"element": "C" 
			},
			{
				"x": -0.5182222387,
				"y": -1.7613093339,
				"z": -0.904463134,
				"element": "C" 
			},
			{
				"x": -0.9495113364,
				"y": -2.5263493442,
				"z": -1.9999225017,
				"element": "C" 
			},
			{
				"x": -0.0046747116,
				"y": -2.996955648,
				"z": -2.9070767026,
				"element": "C" 
			},
			{
				"x": 1.3125671883,
				"y": -2.7656901814,
				"z": -2.8068631183,
				"element": "N" 
			},
			{
				"x": 1.717295496,
				"y": -2.0477379137,
				"z": -1.7534728835,
				"element": "C" 
			},
			{
				"x": 0.8592714125,
				"y": -1.530173308,
				"z": -0.7828154234,
				"element": "C" 
			},
			{
				"x": -1.9451072267,
				"y": 1.1265073757,
				"z": 3.409880974,
				"element": "H" 
			},
			{
				"x": 0.3306667439,
				"y": 0.6928008841,
				"z": 1.6491718647,
				"element": "H" 
			},
			{
				"x": -0.6081633241,
				"y": 1.2599032993,
				"z": -1.2595573481,
				"element": "H" 
			},
			{
				"x": 0.9478500692,
				"y": 1.8307502898,
				"z": -0.4966693,
				"element": "H" 
			},
			{
				"x": -0.4212342179,
				"y": 3.0577954138,
				"z": 1.2885582681,
				"element": "H" 
			},
			{
				"x": -1.9509730847,
				"y": 2.4609884164,
				"z": 0.4907431034,
				"element": "H" 
			},
			{
				"x": -2.0040386194,
				"y": -2.7446605737,
				"z": -2.122811144,
				"element": "H" 
			},
			{
				"x": -0.3227119852,
				"y": -3.5887890858,
				"z": -3.7633289692,
				"element": "H" 
			},
			{
				"x": 2.7895981563,
				"y": -1.8769170426,
				"z": -1.6725965919,
				"element": "H" 
			},
			{
				"x": 1.2690428414,
				"y": -0.9782044792,
				"z": 0.0544617525,
				"element": "H" 
			}
		],
		 "valence_orbital": [ 
			{
				"type": "occ",
				"energy": -0.28697,
				"method": "rhf"
			},
			{
				"type": "occ",
				"energy": -0.26955,
				"method": "rhf"
			},
			{
				"type": "occ",
				"energy": -0.26191,
				"method": "rhf"
			},
			{
				"type": "occ",
				"energy": -0.25742,
				"method": "rhf"
			},
			{
				"type": "occ",
				"energy": -0.23711,
				"method": "rhf"
			},
			{
				"type": "unocc",
				"energy": -0.05461,
				"method": "rhf"
			},
			{
				"type": "unocc",
				"energy": -0.01796,
				"method": "rhf"
			},
			{
				"type": "unocc",
				"energy": -0.00182,
				"method": "rhf"
			},
			{
				"type": "unocc",
				"energy": 0.02264,
				"method": "rhf"
			},
			{
				"type": "unocc",
				"energy": 0.04532,
				"method": "rhf"
			}
		],
		"cosmo_sigma_profile": { 
			"-0.025": 0.0,
			"-0.024": 0.0,
			"-0.023": 0.0,
			"-0.022": 0.0,
			"-0.021": 0.0,
			"-0.02": 0.0,
			"-0.019": 0.0,
			"-0.018": 0.0,
			"-0.017": 0.0,
			"-0.016": 0.0,
			"-0.015": 0.0,
			"-0.014": 0.0,
			"-0.013": 0.0,
			"-0.012": 1.03146342483,
			"-0.011": 2.75480198204,
			"-0.01": 1.8325023231,
			"-0.009": 2.0461414669,
			"-0.008": 6.30848108898,
			"-0.007": 10.0143236516,
			"-0.006": 20.8067649879,
			"-0.005": 19.2503660509,
			"-0.004": 16.4385239847,
			"-0.003": 15.345547313,
			"-0.002": 13.5857820482,
			"-0.001": 16.7967026447,
			"0.0": 15.52543361,
			"0.001": 20.1869860937,
			"0.002": 19.1449121591,
			"0.003": 9.95315566253,
			"0.004": 7.55355742867,
			"0.005": 6.35597026896,
			"0.006": 4.70141976552,
			"0.007": 5.72559331347,
			"0.008": 3.35700888593,
			"0.009": 3.31433383009,
			"0.01": 3.42205595094,
			"0.011": 3.25637543553,
			"0.012": 4.2794197117,
			"0.013": 4.01802162422,
			"0.014": 3.93682072244,
			"0.015": 2.44631622447,
			"0.016": 2.2210118479,
			"0.017": 0.0661910119034,
			"0.018": 0.0,
			"0.019": 0.0,
			"0.02": 0.0,
			"0.021": 0.0,
			"0.022": 0.0,
			"0.023": 0.0,
			"0.024": 0.0,
			"0.025": 0.0
		}
	}
}
