{
	 "smiles": "CC1=C(C(O)=O)C(=NO1)C1=C(Cl)C=CC=C1Cl", 
	 "Tm": 496.15, 
	 "num_atms": 24, 
	 "gaussian": { 
		 "optdone": 1, 
		 "sigma_profile": "yes", 
		 "theory": "DFT", 
		 "functional": "B3LYP", 
		 "basiset": "6-31G**", 
		 "properties": { 
			 "R2extent": 4496.5093, 
			 "electric_dipole_moment_norm": 2.38948161951, 
			 "electric_quadrupole_moment_norm": 21.3364180979, 
			 "total_energy": -1624.16371784, 
			 "HOMO_LUMO_gap": 0.2104, 
			 "cosmo_polarized_energy": -14.45, 
			 "cosmo_cavitation_energy": 33.55, 
			 "cosmo_dispersion_energy": -22.98, 
			 "cosmo_repulsion_energy": 1.81, 
			 "cosmo_total_nonelectrostatic_energy": 12.38, 
			 "SMD_solvation_energy": 6.26 
		},
		"coords": [
			{
				"x": -4.4161624142,
				"y": -1.2350321585,
				"z": 0.1285819608,
				"element": "C" 
			},
			{
				"x": -3.181644442,
				"y": -0.4093247611,
				"z": 0.0184450273,
				"element": "C" 
			},
			{
				"x": -1.8467190009,
				"y": -0.6390860509,
				"z": 0.2552561675,
				"element": "C" 
			},
			{
				"x": -1.1794295353,
				"y": -1.8553152305,
				"z": 0.7226348791,
				"element": "C" 
			},
			{
				"x": -2.0552795122,
				"y": -2.8743216049,
				"z": 0.938940967,
				"element": "O" 
			},
			{
				"x": 0.0144880247,
				"y": -1.9735873279,
				"z": 0.906092068,
				"element": "O" 
			},
			{
				"x": -1.2202232607,
				"y": 0.6108098787,
				"z": -0.0640519758,
				"element": "C" 
			},
			{
				"x": -2.0950909734,
				"y": 1.5052831307,
				"z": -0.4552287946,
				"element": "N" 
			},
			{
				"x": -3.3384103388,
				"y": 0.8543386356,
				"z": -0.4014709881,
				"element": "O" 
			},
			{
				"x": 0.2188187362,
				"y": 0.9684710407,
				"z": -0.0005372289,
				"element": "C" 
			},
			{
				"x": 0.7886514006,
				"y": 1.5095978172,
				"z": 1.1625397382,
				"element": "C" 
			},
			{
				"x": -0.2048629462,
				"y": 1.7501233348,
				"z": 2.5881524943,
				"element": "Cl" 
			},
			{
				"x": 2.1352102946,
				"y": 1.8604565885,
				"z": 1.2299071259,
				"element": "C" 
			},
			{
				"x": 2.944413509,
				"y": 1.6690722863,
				"z": 0.1122249054,
				"element": "C" 
			},
			{
				"x": 2.417564135,
				"y": 1.1304857948,
				"z": -1.0595358356,
				"element": "C" 
			},
			{
				"x": 1.0680973707,
				"y": 0.7871952329,
				"z": -1.1033182804,
				"element": "C" 
			},
			{
				"x": 0.4332725571,
				"y": 0.1002764906,
				"z": -2.5873720011,
				"element": "Cl" 
			},
			{
				"x": -4.5496813218,
				"y": -1.5905176271,
				"z": 1.153921711,
				"element": "H" 
			},
			{
				"x": -5.2837175706,
				"y": -0.6420692657,
				"z": -0.1661072579,
				"element": "H" 
			},
			{
				"x": -4.3449915688,
				"y": -2.1186729331,
				"z": -0.5114427888,
				"element": "H" 
			},
			{
				"x": -1.5158150724,
				"y": -3.6234585424,
				"z": 1.2425676775,
				"element": "H" 
			},
			{
				"x": 2.5358443154,
				"y": 2.2758684057,
				"z": 2.1471003301,
				"element": "H" 
			},
			{
				"x": 3.9947732241,
				"y": 1.9397015504,
				"z": 0.1554792844,
				"element": "H" 
			},
			{
				"x": 3.0390943899,
				"y": 0.974805315,
				"z": -1.933479185,
				"element": "H" 
			}
		],
		 "valence_orbital": [ 
			{
				"type": "occ",
				"energy": -0.3006,
				"method": "rhf"
			},
			{
				"type": "occ",
				"energy": -0.28796,
				"method": "rhf"
			},
			{
				"type": "occ",
				"energy": -0.2704,
				"method": "rhf"
			},
			{
				"type": "occ",
				"energy": -0.26216,
				"method": "rhf"
			},
			{
				"type": "occ",
				"energy": -0.25142,
				"method": "rhf"
			},
			{
				"type": "unocc",
				"energy": -0.04102,
				"method": "rhf"
			},
			{
				"type": "unocc",
				"energy": -0.03084,
				"method": "rhf"
			},
			{
				"type": "unocc",
				"energy": -0.02456,
				"method": "rhf"
			},
			{
				"type": "unocc",
				"energy": -0.01148,
				"method": "rhf"
			},
			{
				"type": "unocc",
				"energy": 0.00612,
				"method": "rhf"
			}
		],
		"cosmo_sigma_profile": { 
			"-0.025": 0.0,
			"-0.024": 0.0,
			"-0.023": 0.0,
			"-0.022": 0.0,
			"-0.021": 0.0,
			"-0.02": 0.0,
			"-0.019": 0.0976969316769,
			"-0.018": 0.902413923851,
			"-0.017": 0.951320806152,
			"-0.016": 0.682836187167,
			"-0.015": 0.806116961222,
			"-0.014": 0.963144059596,
			"-0.013": 0.564687192153,
			"-0.012": 0.854295412184,
			"-0.011": 0.63402578651,
			"-0.01": 0.674176673458,
			"-0.009": 0.568666203116,
			"-0.008": 5.40382583069,
			"-0.007": 10.6127933055,
			"-0.006": 12.8075345231,
			"-0.005": 12.0777743357,
			"-0.004": 13.4103905972,
			"-0.003": 20.0983013098,
			"-0.002": 18.8172258623,
			"-0.001": 16.6653841659,
			"0.0": 22.4970399872,
			"0.001": 25.1010612163,
			"0.002": 27.5693838629,
			"0.003": 21.9946926064,
			"0.004": 19.7639803767,
			"0.005": 8.79207857354,
			"0.006": 6.94942453067,
			"0.007": 4.87036924431,
			"0.008": 3.3369998117,
			"0.009": 3.35673931572,
			"0.01": 3.75949694065,
			"0.011": 4.23806128128,
			"0.012": 3.30531782805,
			"0.013": 0.624822294152,
			"0.014": 0.0,
			"0.015": 0.0,
			"0.016": 0.0,
			"0.017": 0.0,
			"0.018": 0.0,
			"0.019": 0.0,
			"0.02": 0.0,
			"0.021": 0.0,
			"0.022": 0.0,
			"0.023": 0.0,
			"0.024": 0.0,
			"0.025": 0.0
		}
	}
}
