{
	 "smiles": "IC1=CC(OCC2=CC=CC=C2)=CC=C1", 
	 "Tm": 324.15, 
	 "num_atms": 26, 
	 "gaussian": { 
		 "optdone": 1, 
		 "sigma_profile": "no", 
		 "theory": "DFT", 
		 "functional": "B3LYP", 
		 "basiset": "6-31G**", 
		 "properties": { 
			 "R2extent": 5226.6356, 
			 "electric_dipole_moment_norm": 3.33884441237, 
			 "electric_quadrupole_moment_norm": 12.6793905449, 
			 "total_energy": -588.613140961, 
			 "HOMO_LUMO_gap": 0.1927, 
			 "cosmo_polarized_energy": -104106.32, 
			 "cosmo_cavitation_energy": 33.19, 
			 "cosmo_dispersion_energy": -25.2, 
			 "cosmo_repulsion_energy": 1.96, 
			 "cosmo_total_nonelectrostatic_energy": 9.95, 
			 "SMD_solvation_energy": 4.82 
		},
		"coords": [
			{
				"x": -2.1629550838,
				"y": 0.6142722011,
				"z": -5.9103334602,
				"element": "I" 
			},
			{
				"x": -1.9311149758,
				"y": 1.4485318778,
				"z": -3.9704540505,
				"element": "C" 
			},
			{
				"x": -0.7112912525,
				"y": 1.3105200377,
				"z": -3.3194234132,
				"element": "C" 
			},
			{
				"x": -0.5519360983,
				"y": 1.8617173026,
				"z": -2.0378664444,
				"element": "C" 
			},
			{
				"x": 0.6860817734,
				"y": 1.6809808186,
				"z": -1.4865414669,
				"element": "O" 
			},
			{
				"x": 1.0048029652,
				"y": 2.3304293234,
				"z": -0.2559758254,
				"element": "C" 
			},
			{
				"x": 0.4352339328,
				"y": 1.649393653,
				"z": 0.973771419,
				"element": "C" 
			},
			{
				"x": 0.1354103897,
				"y": 2.4026152603,
				"z": 2.114866273,
				"element": "C" 
			},
			{
				"x": -0.3310886459,
				"y": 1.7798561366,
				"z": 3.2738828031,
				"element": "C" 
			},
			{
				"x": -0.5109950935,
				"y": 0.3959523378,
				"z": 3.2989818152,
				"element": "C" 
			},
			{
				"x": -0.2190037267,
				"y": -0.3601516896,
				"z": 2.1614875766,
				"element": "C" 
			},
			{
				"x": 0.2556244935,
				"y": 0.2616675665,
				"z": 1.0064632155,
				"element": "C" 
			},
			{
				"x": -1.6138744765,
				"y": 2.5369525108,
				"z": -1.4258232312,
				"element": "C" 
			},
			{
				"x": -2.8257369985,
				"y": 2.6611617135,
				"z": -2.1094616843,
				"element": "C" 
			},
			{
				"x": -3.0046106562,
				"y": 2.1247889226,
				"z": -3.3833649663,
				"element": "C" 
			},
			{
				"x": 0.1272635726,
				"y": 0.7943886769,
				"z": -3.7709606077,
				"element": "H" 
			},
			{
				"x": 2.0995434586,
				"y": 2.306662001,
				"z": -0.2243052469,
				"element": "H" 
			},
			{
				"x": 0.7012296895,
				"y": 3.3850256269,
				"z": -0.2906378934,
				"element": "H" 
			},
			{
				"x": 0.2668549514,
				"y": 3.4825536265,
				"z": 2.0981307632,
				"element": "H" 
			},
			{
				"x": -0.5611542818,
				"y": 2.3762325455,
				"z": 4.1522133997,
				"element": "H" 
			},
			{
				"x": -0.8799574613,
				"y": -0.0899533168,
				"z": 4.1975557909,
				"element": "H" 
			},
			{
				"x": -0.360456133,
				"y": -1.4371563215,
				"z": 2.1735568456,
				"element": "H" 
			},
			{
				"x": 0.4804599234,
				"y": -0.3238009175,
				"z": 0.1204211897,
				"element": "H" 
			},
			{
				"x": -1.5170344323,
				"y": 2.9404099962,
				"z": -0.4259809363,
				"element": "H" 
			},
			{
				"x": -3.6505813292,
				"y": 3.1828241447,
				"z": -1.6324468686,
				"element": "H" 
			},
			{
				"x": -3.950914505,
				"y": 2.2265259655,
				"z": -3.9007549961,
				"element": "H" 
			}
		],
		 "valence_orbital": [ 
			{
				"type": "occ",
				"energy": -0.26365,
				"method": "rhf"
			},
			{
				"type": "occ",
				"energy": -0.25691,
				"method": "rhf"
			},
			{
				"type": "occ",
				"energy": -0.25195,
				"method": "rhf"
			},
			{
				"type": "occ",
				"energy": -0.24009,
				"method": "rhf"
			},
			{
				"type": "occ",
				"energy": -0.22744,
				"method": "rhf"
			},
			{
				"type": "unocc",
				"energy": -0.03474,
				"method": "rhf"
			},
			{
				"type": "unocc",
				"energy": -0.01693,
				"method": "rhf"
			},
			{
				"type": "unocc",
				"energy": -0.01,
				"method": "rhf"
			},
			{
				"type": "unocc",
				"energy": -0.00757,
				"method": "rhf"
			},
			{
				"type": "unocc",
				"energy": 0.00124,
				"method": "rhf"
			}
		],
		"cosmo_sigma_profile": { 
			"0.0": 0.0,
			"0.0": 0.0,
			"0.0": 0.0,
			"0.0": 0.0,
			"0.0": 0.0,
			"0.0": 0.0,
			"0.0": 0.0,
			"0.0": 0.0,
			"0.0": 0.0,
			"0.0": 0.0,
			"0.0": 0.0,
			"0.0": 0.0,
			"0.0": 0.0,
			"0.0": 0.0,
			"0.0": 0.0,
			"0.0": 0.0,
			"0.0": 0.0,
			"0.0": 0.0,
			"0.0": 0.0,
			"0.0": 0.0,
			"0.0": 0.0,
			"0.0": 0.0,
			"0.0": 0.0,
			"0.0": 0.0,
			"0.0": 0.0,
			"0.0": 0.0,
			"0.0": 0.0,
			"0.0": 0.0,
			"0.0": 0.0,
			"0.0": 0.0,
			"0.0": 0.0,
			"0.0": 0.0,
			"0.0": 0.0,
			"0.0": 0.0,
			"0.0": 0.0,
			"0.0": 0.0,
			"0.0": 0.0,
			"0.0": 0.0,
			"0.0": 0.0,
			"0.0": 0.0,
			"0.0": 0.0,
			"0.0": 0.0,
			"0.0": 0.0,
			"0.0": 0.0,
			"0.0": 0.0,
			"0.0": 0.0,
			"0.0": 0.0,
			"0.0": 0.0,
			"0.0": 0.0,
			"0.0": 0.0,
			"0.0": 0.0
		}
	}
}
