{
	 "smiles": "BrCCCCCCCBr", 
	 "Tm": 314.85, 
	 "num_atms": 23, 
	 "gaussian": { 
		 "optdone": 1, 
		 "sigma_profile": "yes", 
		 "theory": "DFT", 
		 "functional": "B3LYP", 
		 "basiset": "6-31G**", 
		 "properties": { 
			 "R2extent": 6507.7153, 
			 "electric_dipole_moment_norm": 2.32296273539, 
			 "electric_quadrupole_moment_norm": 15.7674321901, 
			 "total_energy": -5418.01478767, 
			 "HOMO_LUMO_gap": 0.2709, 
			 "cosmo_polarized_energy": -7.04, 
			 "cosmo_cavitation_energy": 29.3, 
			 "cosmo_dispersion_energy": -21.64, 
			 "cosmo_repulsion_energy": 1.83, 
			 "cosmo_total_nonelectrostatic_energy": 9.49, 
			 "SMD_solvation_energy": 1.9 
		},
		"coords": [
			{
				"x": -3.8099080908,
				"y": -0.4587030508,
				"z": -0.0245307021,
				"element": "Br" 
			},
			{
				"x": -1.9986440381,
				"y": -0.5895213132,
				"z": -0.8224124469,
				"element": "C" 
			},
			{
				"x": -0.9904495973,
				"y": 0.2730631965,
				"z": -0.0780565819,
				"element": "C" 
			},
			{
				"x": 0.4058470549,
				"y": 0.1832322786,
				"z": -0.7224651295,
				"element": "C" 
			},
			{
				"x": 1.4889484868,
				"y": 1.0442087146,
				"z": -0.0325246104,
				"element": "C" 
			},
			{
				"x": 2.318311066,
				"y": 0.3416468431,
				"z": 1.056971417,
				"element": "C" 
			},
			{
				"x": 1.542250811,
				"y": -0.1010049852,
				"z": 2.3033245091,
				"element": "C" 
			},
			{
				"x": 2.4157970999,
				"y": -0.6498670222,
				"z": 3.4225338951,
				"element": "C" 
			},
			{
				"x": 3.3096492512,
				"y": -2.3566183392,
				"z": 2.9282749042,
				"element": "Br" 
			},
			{
				"x": -1.7469096374,
				"y": -1.649900019,
				"z": -0.7862827449,
				"element": "H" 
			},
			{
				"x": -2.1213994498,
				"y": -0.2834075698,
				"z": -1.8619010089,
				"element": "H" 
			},
			{
				"x": -0.9598447618,
				"y": -0.036677616,
				"z": 0.9707982287,
				"element": "H" 
			},
			{
				"x": -1.3301138963,
				"y": 1.3152233208,
				"z": -0.0864850615,
				"element": "H" 
			},
			{
				"x": 0.7364097874,
				"y": -0.8642836735,
				"z": -0.7530142673,
				"element": "H" 
			},
			{
				"x": 0.3161840108,
				"y": 0.4997462143,
				"z": -1.7695851181,
				"element": "H" 
			},
			{
				"x": 1.0256074417,
				"y": 1.9514133662,
				"z": 0.379918415,
				"element": "H" 
			},
			{
				"x": 2.192642601,
				"y": 1.3925251355,
				"z": -0.7977660582,
				"element": "H" 
			},
			{
				"x": 2.818532654,
				"y": -0.5322363806,
				"z": 0.6227859221,
				"element": "H" 
			},
			{
				"x": 3.1193636342,
				"y": 1.0248703244,
				"z": 1.3714954702,
				"element": "H" 
			},
			{
				"x": 1.001577138,
				"y": 0.7603270923,
				"z": 2.724836944,
				"element": "H" 
			},
			{
				"x": 0.7858571962,
				"y": -0.8500797705,
				"z": 2.0470728246,
				"element": "H" 
			},
			{
				"x": 3.2294498275,
				"y": 0.0270088816,
				"z": 3.686198973,
				"element": "H" 
			},
			{
				"x": 1.8386414108,
				"y": -0.891365628,
				"z": 4.3143122268,
				"element": "H" 
			}
		],
		 "valence_orbital": [ 
			{
				"type": "occ",
				"energy": -0.3261,
				"method": "rhf"
			},
			{
				"type": "occ",
				"energy": -0.27287,
				"method": "rhf"
			},
			{
				"type": "occ",
				"energy": -0.27061,
				"method": "rhf"
			},
			{
				"type": "occ",
				"energy": -0.26954,
				"method": "rhf"
			},
			{
				"type": "occ",
				"energy": -0.26947,
				"method": "rhf"
			},
			{
				"type": "unocc",
				"energy": 0.00143,
				"method": "rhf"
			},
			{
				"type": "unocc",
				"energy": 0.00282,
				"method": "rhf"
			},
			{
				"type": "unocc",
				"energy": 0.07685,
				"method": "rhf"
			},
			{
				"type": "unocc",
				"energy": 0.0919,
				"method": "rhf"
			},
			{
				"type": "unocc",
				"energy": 0.09891,
				"method": "rhf"
			}
		],
		"cosmo_sigma_profile": { 
			"-0.025": 0.0,
			"-0.024": 0.0,
			"-0.023": 0.0,
			"-0.022": 0.0,
			"-0.021": 0.0,
			"-0.02": 0.0,
			"-0.019": 0.0,
			"-0.018": 0.0,
			"-0.017": 0.0,
			"-0.016": 0.0,
			"-0.015": 0.0,
			"-0.014": 0.0,
			"-0.013": 0.0,
			"-0.012": 0.0,
			"-0.011": 0.0,
			"-0.01": 0.0,
			"-0.009": 0.0,
			"-0.008": 0.0,
			"-0.007": 2.23966980736,
			"-0.006": 8.91038991834,
			"-0.005": 10.1196532719,
			"-0.004": 19.4855279518,
			"-0.003": 29.0575615902,
			"-0.002": 31.3731695475,
			"-0.001": 25.345638888,
			"0.0": 20.0393180529,
			"0.001": 13.9985868634,
			"0.002": 9.43773600784,
			"0.003": 9.56930776139,
			"0.004": 9.52882772036,
			"0.005": 12.2406086193,
			"0.006": 18.6980677179,
			"0.007": 14.0293735048,
			"0.008": 0.0295553139269,
			"0.009": 0.0,
			"0.01": 0.0,
			"0.011": 0.0,
			"0.012": 0.0,
			"0.013": 0.0,
			"0.014": 0.0,
			"0.015": 0.0,
			"0.016": 0.0,
			"0.017": 0.0,
			"0.018": 0.0,
			"0.019": 0.0,
			"0.02": 0.0,
			"0.021": 0.0,
			"0.022": 0.0,
			"0.023": 0.0,
			"0.024": 0.0,
			"0.025": 0.0
		}
	}
}
