{
	 "smiles": "CC1=C(C=C(N)C=C1)S(=O)(=O)N1CCOCC1", 
	 "Tm": 460.15, 
	 "num_atms": 33, 
	 "gaussian": { 
		 "optdone": 1, 
		 "sigma_profile": "yes", 
		 "theory": "DFT", 
		 "functional": "B3LYP", 
		 "basiset": "6-31G**", 
		 "properties": { 
			 "R2extent": 5136.9873, 
			 "electric_dipole_moment_norm": 4.98805292775, 
			 "electric_quadrupole_moment_norm": 14.239701835, 
			 "total_energy": -1162.08504978, 
			 "HOMO_LUMO_gap": 0.18745, 
			 "cosmo_polarized_energy": -19.21, 
			 "cosmo_cavitation_energy": 35.67, 
			 "cosmo_dispersion_energy": -25.83, 
			 "cosmo_repulsion_energy": 1.95, 
			 "cosmo_total_nonelectrostatic_energy": 11.79, 
			 "SMD_solvation_energy": 5.2 
		},
		"coords": [
			{
				"x": 1.8642203062,
				"y": -3.8627970464,
				"z": -0.3186713134,
				"element": "C" 
			},
			{
				"x": 0.5775718047,
				"y": -3.3318895774,
				"z": -0.9053728653,
				"element": "C" 
			},
			{
				"x": 0.0125576705,
				"y": -2.0907166534,
				"z": -0.5504371475,
				"element": "C" 
			},
			{
				"x": -1.1763118948,
				"y": -1.6232194662,
				"z": -1.1054397261,
				"element": "C" 
			},
			{
				"x": -1.8658500633,
				"y": -2.3897210105,
				"z": -2.0590980988,
				"element": "C" 
			},
			{
				"x": -3.0256299372,
				"y": -1.9003141801,
				"z": -2.6618378281,
				"element": "N" 
			},
			{
				"x": -1.3208951724,
				"y": -3.6280700706,
				"z": -2.4267871583,
				"element": "C" 
			},
			{
				"x": -0.1311330788,
				"y": -4.0739477109,
				"z": -1.8576332989,
				"element": "C" 
			},
			{
				"x": 0.8709455915,
				"y": -1.0748038989,
				"z": 0.6710425159,
				"element": "S" 
			},
			{
				"x": 0.8557843069,
				"y": -1.7980746778,
				"z": 1.9496404019,
				"element": "O" 
			},
			{
				"x": 2.1461723606,
				"y": -0.6476114261,
				"z": 0.0769153705,
				"element": "O" 
			},
			{
				"x": -0.1023948654,
				"y": 0.2861368511,
				"z": 0.8585943491,
				"element": "N" 
			},
			{
				"x": -0.892930981,
				"y": 0.3800289814,
				"z": 2.1039304238,
				"element": "C" 
			},
			{
				"x": -1.699399005,
				"y": 1.674218081,
				"z": 2.0582454833,
				"element": "C" 
			},
			{
				"x": -0.8868789223,
				"y": 2.8404039343,
				"z": 1.9841060916,
				"element": "O" 
			},
			{
				"x": 0.3728959944,
				"y": 2.6486180516,
				"z": 1.3414824065,
				"element": "C" 
			},
			{
				"x": 0.3269078896,
				"y": 1.5692104597,
				"z": 0.2649880525,
				"element": "C" 
			},
			{
				"x": 1.7910234068,
				"y": -3.9719207242,
				"z": 0.7676446819,
				"element": "H" 
			},
			{
				"x": 2.1027336745,
				"y": -4.8385105694,
				"z": -0.7494105187,
				"element": "H" 
			},
			{
				"x": 2.7001537151,
				"y": -3.184543629,
				"z": -0.5155570658,
				"element": "H" 
			},
			{
				"x": -1.562652654,
				"y": -0.6574884537,
				"z": -0.7981159204,
				"element": "H" 
			},
			{
				"x": -3.5362622628,
				"y": -1.2143689084,
				"z": -2.1233465322,
				"element": "H" 
			},
			{
				"x": -3.6373781837,
				"y": -2.6044240664,
				"z": -3.0509738608,
				"element": "H" 
			},
			{
				"x": -1.8300392319,
				"y": -4.2422004528,
				"z": -3.1653694882,
				"element": "H" 
			},
			{
				"x": 0.2656067027,
				"y": -5.038980596,
				"z": -2.1619292926,
				"element": "H" 
			},
			{
				"x": -1.5723188607,
				"y": -0.4742835205,
				"z": 2.1741830319,
				"element": "H" 
			},
			{
				"x": -0.2508275765,
				"y": 0.3640632394,
				"z": 2.9920486707,
				"element": "H" 
			},
			{
				"x": -2.3946654265,
				"y": 1.6408695876,
				"z": 1.2038195859,
				"element": "H" 
			},
			{
				"x": -2.2989906831,
				"y": 1.759729152,
				"z": 2.9705911314,
				"element": "H" 
			},
			{
				"x": 0.647505979,
				"y": 3.6092856064,
				"z": 0.893402006,
				"element": "H" 
			},
			{
				"x": 1.1430132964,
				"y": 2.3904024491,
				"z": 2.083651654,
				"element": "H" 
			},
			{
				"x": -0.3711824425,
				"y": 1.8627473626,
				"z": -0.5300792261,
				"element": "H" 
			},
			{
				"x": 1.3160485429,
				"y": 1.4429728825,
				"z": -0.1791265158,
				"element": "H" 
			}
		],
		 "valence_orbital": [ 
			{
				"type": "occ",
				"energy": -0.29178,
				"method": "rhf"
			},
			{
				"type": "occ",
				"energy": -0.26009,
				"method": "rhf"
			},
			{
				"type": "occ",
				"energy": -0.25861,
				"method": "rhf"
			},
			{
				"type": "occ",
				"energy": -0.24881,
				"method": "rhf"
			},
			{
				"type": "occ",
				"energy": -0.21042,
				"method": "rhf"
			},
			{
				"type": "unocc",
				"energy": -0.02297,
				"method": "rhf"
			},
			{
				"type": "unocc",
				"energy": 0.00292,
				"method": "rhf"
			},
			{
				"type": "unocc",
				"energy": 0.05749,
				"method": "rhf"
			},
			{
				"type": "unocc",
				"energy": 0.06148,
				"method": "rhf"
			},
			{
				"type": "unocc",
				"energy": 0.07193,
				"method": "rhf"
			}
		],
		"cosmo_sigma_profile": { 
			"-0.025": 0.0,
			"-0.024": 0.0,
			"-0.023": 0.0,
			"-0.022": 0.0,
			"-0.021": 0.0,
			"-0.02": 0.0,
			"-0.019": 0.0,
			"-0.018": 0.0,
			"-0.017": 0.0,
			"-0.016": 0.0,
			"-0.015": 0.0,
			"-0.014": 0.0,
			"-0.013": 0.698521699562,
			"-0.012": 3.20651967073,
			"-0.011": 3.24174015075,
			"-0.01": 2.87418985585,
			"-0.009": 3.18112397509,
			"-0.008": 3.44588910144,
			"-0.007": 3.38178416498,
			"-0.006": 12.07363148,
			"-0.005": 26.6719683451,
			"-0.004": 34.2087557644,
			"-0.003": 25.129777881,
			"-0.002": 19.8188616186,
			"-0.001": 13.9082808764,
			"0.0": 16.6613893753,
			"0.001": 11.4589311844,
			"0.002": 10.3822978012,
			"0.003": 11.2581468345,
			"0.004": 18.0333473152,
			"0.005": 12.2934122945,
			"0.006": 5.88869620241,
			"0.007": 5.05182310734,
			"0.008": 5.36400365975,
			"0.009": 6.07279887693,
			"0.01": 6.89445914249,
			"0.011": 10.1501668905,
			"0.012": 6.07981031497,
			"0.013": 2.20465037851,
			"0.014": 0.729320018862,
			"0.015": 0.0459479092897,
			"0.016": 0.0,
			"0.017": 0.0,
			"0.018": 0.0,
			"0.019": 0.0,
			"0.02": 0.0,
			"0.021": 0.0,
			"0.022": 0.0,
			"0.023": 0.0,
			"0.024": 0.0,
			"0.025": 0.0
		}
	}
}
