{
	 "smiles": "CC(C)(C)C1=NN=C(NS(=O)(=O)C2=CC=C(N)C=C2)S1", 
	 "Tm": 495.15, 
	 "num_atms": 36, 
	 "gaussian": { 
		 "optdone": 1, 
		 "sigma_profile": "yes", 
		 "theory": "DFT", 
		 "functional": "B3LYP", 
		 "basiset": "6-31G**", 
		 "properties": { 
			 "R2extent": 8857.0855, 
			 "electric_dipole_moment_norm": 6.72876648205, 
			 "electric_quadrupole_moment_norm": 44.6417355602, 
			 "total_energy": -1632.66616157, 
			 "HOMO_LUMO_gap": 0.18716, 
			 "cosmo_polarized_energy": -23.27, 
			 "cosmo_cavitation_energy": 42.3, 
			 "cosmo_dispersion_energy": -29.77, 
			 "cosmo_repulsion_energy": 2.22, 
			 "cosmo_total_nonelectrostatic_energy": 14.75, 
			 "SMD_solvation_energy": 4.48 
		},
		"coords": [
			{
				"x": 0.5848984961,
				"y": 1.1638066591,
				"z": 3.0680858808,
				"element": "C" 
			},
			{
				"x": 0.8956381556,
				"y": 2.2474279614,
				"z": 2.0083517869,
				"element": "C" 
			},
			{
				"x": 2.4212926987,
				"y": 2.4178249962,
				"z": 1.8795188239,
				"element": "C" 
			},
			{
				"x": 0.2596990713,
				"y": 3.5883705928,
				"z": 2.439994099,
				"element": "C" 
			},
			{
				"x": 0.3272065691,
				"y": 1.8153876978,
				"z": 0.6676767846,
				"element": "C" 
			},
			{
				"x": 1.046576567,
				"y": 1.5008456822,
				"z": -0.3679993599,
				"element": "N" 
			},
			{
				"x": 0.3171780996,
				"y": 1.0846671687,
				"z": -1.4507883528,
				"element": "N" 
			},
			{
				"x": -0.9676462082,
				"y": 1.1019083174,
				"z": -1.2215877525,
				"element": "C" 
			},
			{
				"x": -1.8830190816,
				"y": 0.8301810387,
				"z": -2.2311973562,
				"element": "N" 
			},
			{
				"x": -3.2729605085,
				"y": -0.1606595732,
				"z": -2.0207384454,
				"element": "S" 
			},
			{
				"x": -3.9058359249,
				"y": -0.1277141128,
				"z": -3.3366557244,
				"element": "O" 
			},
			{
				"x": -3.9162155179,
				"y": 0.3434228255,
				"z": -0.8081549329,
				"element": "O" 
			},
			{
				"x": -2.6939395531,
				"y": -1.8097492057,
				"z": -1.7080059203,
				"element": "C" 
			},
			{
				"x": -2.4793722103,
				"y": -2.2379271849,
				"z": -0.3925956489,
				"element": "C" 
			},
			{
				"x": -1.9940446218,
				"y": -3.5158995722,
				"z": -0.1564202618,
				"element": "C" 
			},
			{
				"x": -1.7147271199,
				"y": -4.3892258346,
				"z": -1.2279396273,
				"element": "C" 
			},
			{
				"x": -1.2742222751,
				"y": -5.6750797418,
				"z": -0.9900108298,
				"element": "N" 
			},
			{
				"x": -1.948366637,
				"y": -3.9433180539,
				"z": -2.5460609978,
				"element": "C" 
			},
			{
				"x": -2.4323189886,
				"y": -2.6661616828,
				"z": -2.7844900935,
				"element": "C" 
			},
			{
				"x": -1.4146034464,
				"y": 1.6447117324,
				"z": 0.3829017949,
				"element": "S" 
			},
			{
				"x": 1.0051542787,
				"y": 1.4577776191,
				"z": 4.0357644945,
				"element": "H" 
			},
			{
				"x": -0.4929997416,
				"y": 1.0232367867,
				"z": 3.1986745043,
				"element": "H" 
			},
			{
				"x": 1.0223294421,
				"y": 0.2016648625,
				"z": 2.7839330694,
				"element": "H" 
			},
			{
				"x": 2.8349585546,
				"y": 2.7262629704,
				"z": 2.8453937584,
				"element": "H" 
			},
			{
				"x": 2.6729446502,
				"y": 3.1765099092,
				"z": 1.1341688117,
				"element": "H" 
			},
			{
				"x": 2.8999910579,
				"y": 1.484766767,
				"z": 1.5739823738,
				"element": "H" 
			},
			{
				"x": -0.8244251994,
				"y": 3.502149611,
				"z": 2.5689606313,
				"element": "H" 
			},
			{
				"x": 0.451640968,
				"y": 4.3718663903,
				"z": 1.7005154428,
				"element": "H" 
			},
			{
				"x": 0.683962257,
				"y": 3.9108040682,
				"z": 3.396614821,
				"element": "H" 
			},
			{
				"x": -1.4271599741,
				"y": 0.6663792038,
				"z": -3.1257323198,
				"element": "H" 
			},
			{
				"x": -2.7100122904,
				"y": -1.5759544395,
				"z": 0.4345171511,
				"element": "H" 
			},
			{
				"x": -1.8368296047,
				"y": -3.8536472645,
				"z": 0.8642775529,
				"element": "H" 
			},
			{
				"x": -0.8335544003,
				"y": -6.1643234209,
				"z": -1.7543539875,
				"element": "H" 
			},
			{
				"x": -0.8648199334,
				"y": -5.8666018111,
				"z": -0.0880878988,
				"element": "H" 
			},
			{
				"x": -1.7557864449,
				"y": -4.6128303679,
				"z": -3.3798744483,
				"element": "H" 
			},
			{
				"x": -2.626811184,
				"y": -2.3337805947,
				"z": -3.7986378232,
				"element": "H" 
			}
		],
		 "valence_orbital": [ 
			{
				"type": "occ",
				"energy": -0.28646,
				"method": "rhf"
			},
			{
				"type": "occ",
				"energy": -0.27512,
				"method": "rhf"
			},
			{
				"type": "occ",
				"energy": -0.26042,
				"method": "rhf"
			},
			{
				"type": "occ",
				"energy": -0.24779,
				"method": "rhf"
			},
			{
				"type": "occ",
				"energy": -0.22757,
				"method": "rhf"
			},
			{
				"type": "unocc",
				"energy": -0.04041,
				"method": "rhf"
			},
			{
				"type": "unocc",
				"energy": -0.02455,
				"method": "rhf"
			},
			{
				"type": "unocc",
				"energy": -0.02027,
				"method": "rhf"
			},
			{
				"type": "unocc",
				"energy": 0.01097,
				"method": "rhf"
			},
			{
				"type": "unocc",
				"energy": 0.03111,
				"method": "rhf"
			}
		],
		"cosmo_sigma_profile": { 
			"-0.025": 0.0,
			"-0.024": 0.0,
			"-0.023": 0.0,
			"-0.022": 0.0,
			"-0.021": 0.0,
			"-0.02": 0.0,
			"-0.019": 0.0,
			"-0.018": 0.0,
			"-0.017": 0.174903747768,
			"-0.016": 0.721763899549,
			"-0.015": 1.0030502133,
			"-0.014": 1.41187179535,
			"-0.013": 4.07798978331,
			"-0.012": 3.78879268183,
			"-0.011": 4.5638661425,
			"-0.01": 4.46263207389,
			"-0.009": 3.36894020106,
			"-0.008": 4.20585615238,
			"-0.007": 7.37557048165,
			"-0.006": 9.93228817304,
			"-0.005": 10.9465817576,
			"-0.004": 18.7004335141,
			"-0.003": 26.7348845972,
			"-0.002": 29.3816216153,
			"-0.001": 30.1430181241,
			"0.0": 36.5677437418,
			"0.001": 26.6210269087,
			"0.002": 17.132537799,
			"0.003": 20.5675001889,
			"0.004": 13.4252945592,
			"0.005": 5.99980324819,
			"0.006": 8.12739497401,
			"0.007": 5.87859638466,
			"0.008": 6.23059373594,
			"0.009": 8.00843104088,
			"0.01": 11.5072120026,
			"0.011": 8.41927879592,
			"0.012": 2.69353974304,
			"0.013": 2.38873924188,
			"0.014": 1.66312822419,
			"0.015": 0.0998165171147,
			"0.016": 0.0,
			"0.017": 0.0,
			"0.018": 0.0,
			"0.019": 0.0,
			"0.02": 0.0,
			"0.021": 0.0,
			"0.022": 0.0,
			"0.023": 0.0,
			"0.024": 0.0,
			"0.025": 0.0
		}
	}
}
