{
	 "smiles": "CC1=NOC(=N1)C1=CC(C)=C(N)C=C1", 
	 "Tm": 435.15, 
	 "num_atms": 25, 
	 "gaussian": { 
		 "optdone": 1, 
		 "sigma_profile": "yes", 
		 "theory": "DFT", 
		 "functional": "B3LYP", 
		 "basiset": "6-31G**", 
		 "properties": { 
			 "R2extent": 3768.7389, 
			 "electric_dipole_moment_norm": 4.52070155839, 
			 "electric_quadrupole_moment_norm": 15.5590003557, 
			 "total_energy": -627.159139705, 
			 "HOMO_LUMO_gap": 0.16776, 
			 "cosmo_polarized_energy": -13.65, 
			 "cosmo_cavitation_energy": 29.28, 
			 "cosmo_dispersion_energy": -21.74, 
			 "cosmo_repulsion_energy": 1.7, 
			 "cosmo_total_nonelectrostatic_energy": 9.24, 
			 "SMD_solvation_energy": 3.22 
		},
		"coords": [
			{
				"x": -0.4313965829,
				"y": -3.9310743766,
				"z": -3.0314228871,
				"element": "C" 
			},
			{
				"x": -0.4580074174,
				"y": -2.9724698811,
				"z": -1.8812361352,
				"element": "C" 
			},
			{
				"x": -0.4498890766,
				"y": -3.3762003138,
				"z": -0.6324302199,
				"element": "N" 
			},
			{
				"x": -0.4821435395,
				"y": -2.1675677302,
				"z": 0.0937515244,
				"element": "O" 
			},
			{
				"x": -0.5059265954,
				"y": -1.1697453131,
				"z": -0.8116703426,
				"element": "C" 
			},
			{
				"x": -0.4926645675,
				"y": -1.6086244274,
				"z": -2.0470698983,
				"element": "N" 
			},
			{
				"x": -0.5422503352,
				"y": 0.2072417261,
				"z": -0.3475089233,
				"element": "C" 
			},
			{
				"x": -0.5506896139,
				"y": 0.5195000161,
				"z": 1.0222382749,
				"element": "C" 
			},
			{
				"x": -0.5863026495,
				"y": 1.8335788396,
				"z": 1.4763138392,
				"element": "C" 
			},
			{
				"x": -0.5811184662,
				"y": 2.1503039616,
				"z": 2.9512988367,
				"element": "C" 
			},
			{
				"x": -0.6181735862,
				"y": 2.8820434281,
				"z": 0.5222773335,
				"element": "C" 
			},
			{
				"x": -0.6045152564,
				"y": 4.2058409375,
				"z": 0.9369216714,
				"element": "N" 
			},
			{
				"x": -0.6083146312,
				"y": 2.5704802182,
				"z": -0.8507114992,
				"element": "C" 
			},
			{
				"x": -0.5691323549,
				"y": 1.2546597966,
				"z": -1.2818783215,
				"element": "C" 
			},
			{
				"x": -1.2997841303,
				"y": -4.5955892188,
				"z": -3.0060426021,
				"element": "H" 
			},
			{
				"x": -0.4400888693,
				"y": -3.3716563595,
				"z": -3.9676563881,
				"element": "H" 
			},
			{
				"x": 0.4658866693,
				"y": -4.5555973196,
				"z": -2.998371484,
				"element": "H" 
			},
			{
				"x": -0.5274468176,
				"y": -0.2878317069,
				"z": 1.7478613496,
				"element": "H" 
			},
			{
				"x": -0.5146969015,
				"y": 1.2371826045,
				"z": 3.5472443932,
				"element": "H" 
			},
			{
				"x": -1.4955531528,
				"y": 2.6746869227,
				"z": 3.2637300454,
				"element": "H" 
			},
			{
				"x": 0.2673346154,
				"y": 2.7910788343,
				"z": 3.2224487355,
				"element": "H" 
			},
			{
				"x": -0.9653723359,
				"y": 4.4011197086,
				"z": 1.8587913248,
				"element": "H" 
			},
			{
				"x": -0.8819056845,
				"y": 4.8904828245,
				"z": 0.2486010928,
				"element": "H" 
			},
			{
				"x": -0.6292676411,
				"y": 3.3785269037,
				"z": -1.5778024498,
				"element": "H" 
			},
			{
				"x": -0.5630810789,
				"y": 1.0189299251,
				"z": -2.3405772705,
				"element": "H" 
			}
		],
		 "valence_orbital": [ 
			{
				"type": "occ",
				"energy": -0.30656,
				"method": "rhf"
			},
			{
				"type": "occ",
				"energy": -0.2791,
				"method": "rhf"
			},
			{
				"type": "occ",
				"energy": -0.27069,
				"method": "rhf"
			},
			{
				"type": "occ",
				"energy": -0.25196,
				"method": "rhf"
			},
			{
				"type": "occ",
				"energy": -0.20603,
				"method": "rhf"
			},
			{
				"type": "unocc",
				"energy": -0.03827,
				"method": "rhf"
			},
			{
				"type": "unocc",
				"energy": -0.00338,
				"method": "rhf"
			},
			{
				"type": "unocc",
				"energy": 0.03029,
				"method": "rhf"
			},
			{
				"type": "unocc",
				"energy": 0.06491,
				"method": "rhf"
			},
			{
				"type": "unocc",
				"energy": 0.07771,
				"method": "rhf"
			}
		],
		"cosmo_sigma_profile": { 
			"-0.025": 0.0,
			"-0.024": 0.0,
			"-0.023": 0.0,
			"-0.022": 0.0,
			"-0.021": 0.0,
			"-0.02": 0.0,
			"-0.019": 0.0,
			"-0.018": 0.0,
			"-0.017": 0.0,
			"-0.016": 0.0,
			"-0.015": 0.0,
			"-0.014": 0.077096518706,
			"-0.013": 1.55278164431,
			"-0.012": 2.79852899166,
			"-0.011": 1.94502660323,
			"-0.01": 3.68751001204,
			"-0.009": 2.81242794925,
			"-0.008": 3.05632062997,
			"-0.007": 3.48321219649,
			"-0.006": 8.12518943116,
			"-0.005": 15.4006934412,
			"-0.004": 16.240481217,
			"-0.003": 14.7888326172,
			"-0.002": 21.1540026751,
			"-0.001": 21.4817240684,
			"0.0": 18.2583692356,
			"0.001": 13.6449778495,
			"0.002": 13.9700562807,
			"0.003": 12.6942524241,
			"0.004": 15.0737128351,
			"0.005": 11.8318655023,
			"0.006": 5.22243081615,
			"0.007": 5.61581511475,
			"0.008": 4.23826079407,
			"0.009": 2.55781334389,
			"0.01": 3.0803858187,
			"0.011": 3.50146012782,
			"0.012": 3.41816807727,
			"0.013": 1.82506051258,
			"0.014": 1.4250428296,
			"0.015": 0.0033788041746,
			"0.016": 0.0,
			"0.017": 0.0,
			"0.018": 0.0,
			"0.019": 0.0,
			"0.02": 0.0,
			"0.021": 0.0,
			"0.022": 0.0,
			"0.023": 0.0,
			"0.024": 0.0,
			"0.025": 0.0
		}
	}
}
