{
	 "smiles": "CC1=C(C=C(O1)S(N)(=O)=O)C(O)=O", 
	 "Tm": 483.15, 
	 "num_atms": 20, 
	 "gaussian": { 
		 "optdone": 1, 
		 "sigma_profile": "yes", 
		 "theory": "DFT", 
		 "functional": "B3LYP", 
		 "basiset": "6-31G**", 
		 "properties": { 
			 "R2extent": 3991.6242, 
			 "electric_dipole_moment_norm": 6.68601671102, 
			 "electric_quadrupole_moment_norm": 23.600503912, 
			 "total_energy": -1061.83571371, 
			 "HOMO_LUMO_gap": 0.20697, 
			 "cosmo_polarized_energy": -22.93, 
			 "cosmo_cavitation_energy": 27.28, 
			 "cosmo_dispersion_energy": -20.22, 
			 "cosmo_repulsion_energy": 1.59, 
			 "cosmo_total_nonelectrostatic_energy": 8.64, 
			 "SMD_solvation_energy": 6.23 
		},
		"coords": [
			{
				"x": -0.5561627506,
				"y": -1.8225771752,
				"z": -1.0272085556,
				"element": "C" 
			},
			{
				"x": -0.5653968068,
				"y": -0.351855824,
				"z": -0.7953274673,
				"element": "C" 
			},
			{
				"x": 0.2606738064,
				"y": 0.6891718059,
				"z": -1.1649031772,
				"element": "C" 
			},
			{
				"x": -0.3055595215,
				"y": 1.8891318436,
				"z": -0.6207679638,
				"element": "C" 
			},
			{
				"x": -1.4272187031,
				"y": 1.4963987215,
				"z": 0.0357204631,
				"element": "C" 
			},
			{
				"x": -1.5979968333,
				"y": 0.1377099432,
				"z": -0.0600726002,
				"element": "O" 
			},
			{
				"x": -2.6612523963,
				"y": 2.4159350806,
				"z": 0.9150589883,
				"element": "S" 
			},
			{
				"x": -2.5792449472,
				"y": 1.9167609085,
				"z": 2.5083984549,
				"element": "N" 
			},
			{
				"x": -3.970092484,
				"y": 1.9928387507,
				"z": 0.4329001426,
				"element": "O" 
			},
			{
				"x": -2.1939494154,
				"y": 3.7966566577,
				"z": 0.8808847505,
				"element": "O" 
			},
			{
				"x": 1.4943729592,
				"y": 0.6473897701,
				"z": -1.9593201264,
				"element": "C" 
			},
			{
				"x": 1.8152367401,
				"y": -0.6092417068,
				"z": -2.3672399709,
				"element": "O" 
			},
			{
				"x": 2.1714445322,
				"y": 1.6169408604,
				"z": -2.2326909298,
				"element": "O" 
			},
			{
				"x": -1.4294322382,
				"y": -2.275088137,
				"z": -0.5538648149,
				"element": "H" 
			},
			{
				"x": -0.5729710654,
				"y": -2.0460472007,
				"z": -2.0976411317,
				"element": "H" 
			},
			{
				"x": 0.3515552241,
				"y": -2.2776554533,
				"z": -0.6202803801,
				"element": "H" 
			},
			{
				"x": 0.0777578658,
				"y": 2.8926233326,
				"z": -0.7215236482,
				"element": "H" 
			},
			{
				"x": -1.6911820418,
				"y": 2.1238919909,
				"z": 2.9535178707,
				"element": "H" 
			},
			{
				"x": -2.8998374171,
				"y": 0.9639242579,
				"z": 2.6460966998,
				"element": "H" 
			},
			{
				"x": 2.635955493,
				"y": -0.5191084266,
				"z": -2.8798366041,
				"element": "H" 
			}
		],
		 "valence_orbital": [ 
			{
				"type": "occ",
				"energy": -0.31914,
				"method": "rhf"
			},
			{
				"type": "occ",
				"energy": -0.3142,
				"method": "rhf"
			},
			{
				"type": "occ",
				"energy": -0.30791,
				"method": "rhf"
			},
			{
				"type": "occ",
				"energy": -0.29103,
				"method": "rhf"
			},
			{
				"type": "occ",
				"energy": -0.25623,
				"method": "rhf"
			},
			{
				"type": "unocc",
				"energy": -0.04926,
				"method": "rhf"
			},
			{
				"type": "unocc",
				"energy": -0.02435,
				"method": "rhf"
			},
			{
				"type": "unocc",
				"energy": 0.04979,
				"method": "rhf"
			},
			{
				"type": "unocc",
				"energy": 0.06199,
				"method": "rhf"
			},
			{
				"type": "unocc",
				"energy": 0.07071,
				"method": "rhf"
			}
		],
		"cosmo_sigma_profile": { 
			"-0.025": 0.0,
			"-0.024": 0.0,
			"-0.023": 0.0,
			"-0.022": 0.0,
			"-0.021": 0.0,
			"-0.02": 0.0,
			"-0.019": 0.125312238891,
			"-0.018": 0.735039095989,
			"-0.017": 1.23153165273,
			"-0.016": 2.05808045228,
			"-0.015": 3.08075567172,
			"-0.014": 3.73876033724,
			"-0.013": 2.76183620247,
			"-0.012": 3.84136860697,
			"-0.011": 2.97175757135,
			"-0.01": 2.53452462178,
			"-0.009": 2.89518808113,
			"-0.008": 3.17438884829,
			"-0.007": 4.70952722482,
			"-0.006": 8.57172416269,
			"-0.005": 8.39789650303,
			"-0.004": 9.35575019203,
			"-0.003": 16.1203265477,
			"-0.002": 20.0335436491,
			"-0.001": 15.8437376279,
			"0.0": 11.6626241638,
			"0.001": 9.53032175191,
			"0.002": 6.64899441911,
			"0.003": 5.7245541305,
			"0.004": 7.09666966557,
			"0.005": 7.67984609458,
			"0.006": 6.96549330336,
			"0.007": 6.47390052681,
			"0.008": 6.02062776732,
			"0.009": 6.44569364831,
			"0.01": 14.665692354,
			"0.011": 12.1840117919,
			"0.012": 3.83476620626,
			"0.013": 0.0271963554681,
			"0.014": 0.0,
			"0.015": 0.0,
			"0.016": 0.0,
			"0.017": 0.0,
			"0.018": 0.0,
			"0.019": 0.0,
			"0.02": 0.0,
			"0.021": 0.0,
			"0.022": 0.0,
			"0.023": 0.0,
			"0.024": 0.0,
			"0.025": 0.0
		}
	}
}
