{
	 "smiles": "SC1=NC=CN1C1=CC=C(C=C1)C(=O)NCC1=CC=CS1", 
	 "Tm": 469.15, 
	 "num_atms": 34, 
	 "gaussian": { 
		 "optdone": 1, 
		 "sigma_profile": "yes", 
		 "theory": "DFT", 
		 "functional": "B3LYP", 
		 "basiset": "6-31G**", 
		 "properties": { 
			 "R2extent": 11725.2017, 
			 "electric_dipole_moment_norm": 3.42819250626, 
			 "electric_quadrupole_moment_norm": 17.4778723614, 
			 "total_energy": -1615.26276652, 
			 "HOMO_LUMO_gap": 0.15992, 
			 "cosmo_polarized_energy": -18.06, 
			 "cosmo_cavitation_energy": 42.27, 
			 "cosmo_dispersion_energy": -30.59, 
			 "cosmo_repulsion_energy": 2.25, 
			 "cosmo_total_nonelectrostatic_energy": 13.93, 
			 "SMD_solvation_energy": 5.24 
		},
		"coords": [
			{
				"x": 1.0079425833,
				"y": -3.6463667493,
				"z": 0.3363979134,
				"element": "S" 
			},
			{
				"x": -0.7605073684,
				"y": -3.5594297624,
				"z": 0.4681953405,
				"element": "C" 
			},
			{
				"x": -1.5658286889,
				"y": -4.5950504197,
				"z": 0.4206180903,
				"element": "N" 
			},
			{
				"x": -2.8307828651,
				"y": -4.0824107877,
				"z": 0.6278845111,
				"element": "C" 
			},
			{
				"x": -2.7838491579,
				"y": -2.729734576,
				"z": 0.8081834636,
				"element": "C" 
			},
			{
				"x": -1.4376248864,
				"y": -2.3781384937,
				"z": 0.6983149984,
				"element": "N" 
			},
			{
				"x": -0.9156816847,
				"y": -1.0639883422,
				"z": 0.8493002316,
				"element": "C" 
			},
			{
				"x": -1.3284449873,
				"y": -0.2801721496,
				"z": 1.9353353594,
				"element": "C" 
			},
			{
				"x": -0.8369335244,
				"y": 1.0113890004,
				"z": 2.0821154874,
				"element": "C" 
			},
			{
				"x": 0.0602986102,
				"y": 1.5460685725,
				"z": 1.1471124288,
				"element": "C" 
			},
			{
				"x": 0.482274415,
				"y": 0.7473585473,
				"z": 0.076149437,
				"element": "C" 
			},
			{
				"x": -0.0074819109,
				"y": -0.5482891363,
				"z": -0.0812098276,
				"element": "C" 
			},
			{
				"x": 0.6067157139,
				"y": 2.9198455918,
				"z": 1.4091327255,
				"element": "C" 
			},
			{
				"x": 0.8179995499,
				"y": 3.3032501621,
				"z": 2.554810779,
				"element": "O" 
			},
			{
				"x": 0.92856534,
				"y": 3.7171001851,
				"z": 0.3240212953,
				"element": "N" 
			},
			{
				"x": 0.1599149802,
				"y": 3.8266878179,
				"z": -0.9133230108,
				"element": "C" 
			},
			{
				"x": -0.8834228301,
				"y": 4.9190960986,
				"z": -0.847679731,
				"element": "C" 
			},
			{
				"x": -1.4297702348,
				"y": 5.5128612891,
				"z": 0.2600005927,
				"element": "C" 
			},
			{
				"x": -2.4180123421,
				"y": 6.4969331293,
				"z": -0.0577356042,
				"element": "C" 
			},
			{
				"x": -2.6119764728,
				"y": 6.6405824168,
				"z": -1.4015063415,
				"element": "C" 
			},
			{
				"x": -1.5824254998,
				"y": 5.5754382715,
				"z": -2.3093306225,
				"element": "S" 
			},
			{
				"x": 0.9911379026,
				"y": -4.9919926715,
				"z": 0.32650948,
				"element": "H" 
			},
			{
				"x": -3.7004307201,
				"y": -4.7244627382,
				"z": 0.6268622819,
				"element": "H" 
			},
			{
				"x": -3.544864426,
				"y": -1.979971895,
				"z": 0.9554253484,
				"element": "H" 
			},
			{
				"x": -2.0108706554,
				"y": -0.6982455139,
				"z": 2.6678816939,
				"element": "H" 
			},
			{
				"x": -1.1244567908,
				"y": 1.6180930312,
				"z": 2.9340078072,
				"element": "H" 
			},
			{
				"x": 1.2095089319,
				"y": 1.1303531735,
				"z": -0.6324969381,
				"element": "H" 
			},
			{
				"x": 0.3047830938,
				"y": -1.152335175,
				"z": -0.9260852791,
				"element": "H" 
			},
			{
				"x": 1.3191112762,
				"y": 4.5971916911,
				"z": 0.645608417,
				"element": "H" 
			},
			{
				"x": -0.3155334087,
				"y": 2.8624295747,
				"z": -1.1103732139,
				"element": "H" 
			},
			{
				"x": 0.8479774474,
				"y": 4.0112116352,
				"z": -1.7477011117,
				"element": "H" 
			},
			{
				"x": -1.1357054343,
				"y": 5.2591081968,
				"z": 1.2723720099,
				"element": "H" 
			},
			{
				"x": -2.9556535863,
				"y": 7.0722069774,
				"z": 0.6874049371,
				"element": "H" 
			},
			{
				"x": -3.2896723694,
				"y": 7.3051830479,
				"z": -1.9190029489,
				"element": "H" 
			}
		],
		 "valence_orbital": [ 
			{
				"type": "occ",
				"energy": -0.25957,
				"method": "rhf"
			},
			{
				"type": "occ",
				"energy": -0.2582,
				"method": "rhf"
			},
			{
				"type": "occ",
				"energy": -0.25039,
				"method": "rhf"
			},
			{
				"type": "occ",
				"energy": -0.23619,
				"method": "rhf"
			},
			{
				"type": "occ",
				"energy": -0.21341,
				"method": "rhf"
			},
			{
				"type": "unocc",
				"energy": -0.05349,
				"method": "rhf"
			},
			{
				"type": "unocc",
				"energy": -0.03097,
				"method": "rhf"
			},
			{
				"type": "unocc",
				"energy": -0.01894,
				"method": "rhf"
			},
			{
				"type": "unocc",
				"energy": 0.01603,
				"method": "rhf"
			},
			{
				"type": "unocc",
				"energy": 0.01866,
				"method": "rhf"
			}
		],
		"cosmo_sigma_profile": { 
			"-0.025": 0.0,
			"-0.024": 0.0,
			"-0.023": 0.0,
			"-0.022": 0.0,
			"-0.021": 0.0,
			"-0.02": 0.0,
			"-0.019": 0.0,
			"-0.018": 0.0,
			"-0.017": 0.0,
			"-0.016": 0.0,
			"-0.015": 0.0,
			"-0.014": 0.0383964059888,
			"-0.013": 0.55333330705,
			"-0.012": 1.09612128702,
			"-0.011": 2.45022861916,
			"-0.01": 2.55563894181,
			"-0.009": 2.60904534252,
			"-0.008": 5.81725935243,
			"-0.007": 15.6477895993,
			"-0.006": 24.1790871312,
			"-0.005": 23.740136626,
			"-0.004": 20.2837409059,
			"-0.003": 22.5097675104,
			"-0.002": 22.5334735958,
			"-0.001": 20.347206736,
			"0.0": 20.7015200694,
			"0.001": 24.1729024816,
			"0.002": 31.2204349155,
			"0.003": 21.8509920615,
			"0.004": 21.4072163464,
			"0.005": 19.3798743352,
			"0.006": 10.1275674252,
			"0.007": 5.45450632479,
			"0.008": 2.72346315545,
			"0.009": 3.1468052552,
			"0.01": 2.70548935842,
			"0.011": 2.60151263477,
			"0.012": 3.1378754451,
			"0.013": 6.41103376234,
			"0.014": 2.42883503064,
			"0.015": 1.00862161987,
			"0.016": 0.736533148242,
			"0.017": 0.233454584774,
			"0.018": 0.0,
			"0.019": 0.0,
			"0.02": 0.0,
			"0.021": 0.0,
			"0.022": 0.0,
			"0.023": 0.0,
			"0.024": 0.0,
			"0.025": 0.0
		}
	}
}
