{
	 "smiles": "ClS(=O)(=O)C1=CNC=N1", 
	 "Tm": 438.15, 
	 "num_atms": 12, 
	 "gaussian": { 
		 "optdone": 1, 
		 "sigma_profile": "yes", 
		 "theory": "DFT", 
		 "functional": "B3LYP", 
		 "basiset": "6-31G**", 
		 "properties": { 
			 "R2extent": 2181.9318, 
			 "electric_dipole_moment_norm": 7.62469960589, 
			 "electric_quadrupole_moment_norm": 4.12829854056, 
			 "total_energy": -1234.36526209, 
			 "HOMO_LUMO_gap": 0.20094, 
			 "cosmo_polarized_energy": -19.64, 
			 "cosmo_cavitation_energy": 20.33, 
			 "cosmo_dispersion_energy": -15.94, 
			 "cosmo_repulsion_energy": 1.27, 
			 "cosmo_total_nonelectrostatic_energy": 5.66, 
			 "SMD_solvation_energy": 1.53 
		},
		"coords": [
			{
				"x": -0.0398082783,
				"y": 3.7118543983,
				"z": 0.3856599225,
				"element": "Cl" 
			},
			{
				"x": -0.3984012397,
				"y": 2.2045319108,
				"z": -1.0312882149,
				"element": "S" 
			},
			{
				"x": -1.8364050181,
				"y": 2.1648476687,
				"z": -1.2740099381,
				"element": "O" 
			},
			{
				"x": 0.5350076753,
				"y": 2.408888013,
				"z": -2.1337109957,
				"element": "O" 
			},
			{
				"x": 0.0800958037,
				"y": 0.7430058034,
				"z": -0.1262830511,
				"element": "C" 
			},
			{
				"x": 0.0175240065,
				"y": -0.5244146402,
				"z": -0.6602096628,
				"element": "C" 
			},
			{
				"x": 0.4679465741,
				"y": -1.3304527866,
				"z": 0.354229698,
				"element": "N" 
			},
			{
				"x": 0.7715627055,
				"y": -0.5277949759,
				"z": 1.4209929348,
				"element": "C" 
			},
			{
				"x": 0.544064662,
				"y": 0.7394403654,
				"z": 1.1546105041,
				"element": "N" 
			},
			{
				"x": -0.2920742727,
				"y": -0.8995215175,
				"z": -1.6223582825,
				"element": "H" 
			},
			{
				"x": 0.5571995682,
				"y": -2.3358386582,
				"z": 0.3143120288,
				"element": "H" 
			},
			{
				"x": 1.1500878134,
				"y": -0.9169455814,
				"z": 2.355355057,
				"element": "H" 
			}
		],
		 "valence_orbital": [ 
			{
				"type": "occ",
				"energy": -0.33134,
				"method": "rhf"
			},
			{
				"type": "occ",
				"energy": -0.32098,
				"method": "rhf"
			},
			{
				"type": "occ",
				"energy": -0.30747,
				"method": "rhf"
			},
			{
				"type": "occ",
				"energy": -0.30539,
				"method": "rhf"
			},
			{
				"type": "occ",
				"energy": -0.27033,
				"method": "rhf"
			},
			{
				"type": "unocc",
				"energy": -0.06939,
				"method": "rhf"
			},
			{
				"type": "unocc",
				"energy": -0.02117,
				"method": "rhf"
			},
			{
				"type": "unocc",
				"energy": 0.00648,
				"method": "rhf"
			},
			{
				"type": "unocc",
				"energy": 0.03885,
				"method": "rhf"
			},
			{
				"type": "unocc",
				"energy": 0.04378,
				"method": "rhf"
			}
		],
		"cosmo_sigma_profile": { 
			"-0.025": 0.0,
			"-0.024": 0.0,
			"-0.023": 0.0,
			"-0.022": 0.0,
			"-0.021": 0.0,
			"-0.02": 0.0,
			"-0.019": 0.376391822896,
			"-0.018": 2.10125601997,
			"-0.017": 1.83111014606,
			"-0.016": 1.57452838925,
			"-0.015": 1.2993279417,
			"-0.014": 1.34476236733,
			"-0.013": 1.33251436077,
			"-0.012": 1.98945674549,
			"-0.011": 5.49993209609,
			"-0.01": 6.00961190322,
			"-0.009": 3.52590971711,
			"-0.008": 3.21810606184,
			"-0.007": 2.74614413215,
			"-0.006": 2.79430617479,
			"-0.005": 2.80885435759,
			"-0.004": 3.81416572789,
			"-0.003": 5.11357654907,
			"-0.002": 6.80730894185,
			"-0.001": 12.6860433308,
			"0.0": 11.5586967898,
			"0.001": 10.3394120828,
			"0.002": 11.6604819235,
			"0.003": 15.0220438445,
			"0.004": 5.91426049632,
			"0.005": 4.25169918323,
			"0.006": 5.95796889666,
			"0.007": 5.80545589819,
			"0.008": 13.0465765096,
			"0.009": 10.0056500344,
			"0.01": 2.02944286795,
			"0.011": 1.13473434291,
			"0.012": 1.22294065553,
			"0.013": 1.13185660295,
			"0.014": 0.513057385162,
			"0.015": 0.0157813827034,
			"0.016": 0.0,
			"0.017": 0.0,
			"0.018": 0.0,
			"0.019": 0.0,
			"0.02": 0.0,
			"0.021": 0.0,
			"0.022": 0.0,
			"0.023": 0.0,
			"0.024": 0.0,
			"0.025": 0.0
		}
	}
}
