{
	 "smiles": "[O-][N+](=O)C1=CC=C(SC2=CC=C(C=C2)N=C=S)C=C1", 
	 "Tm": 398.15, 
	 "num_atms": 27, 
	 "gaussian": { 
		 "optdone": 1, 
		 "sigma_profile": "yes", 
		 "theory": "DFT", 
		 "functional": "B3LYP", 
		 "basiset": "6-31G**", 
		 "properties": { 
			 "R2extent": 10702.8804, 
			 "electric_dipole_moment_norm": 4.08079151881, 
			 "electric_quadrupole_moment_norm": 30.8647762837, 
			 "total_energy": -1556.4218858, 
			 "HOMO_LUMO_gap": 0.15458, 
			 "cosmo_polarized_energy": -12.78, 
			 "cosmo_cavitation_energy": 38.23, 
			 "cosmo_dispersion_energy": -27.86, 
			 "cosmo_repulsion_energy": 2.07, 
			 "cosmo_total_nonelectrostatic_energy": 12.43, 
			 "SMD_solvation_energy": 8.88 
		},
		"coords": [
			{
				"x": -3.2582134777,
				"y": -1.3837999936,
				"z": -4.4417987448,
				"element": "O" 
			},
			{
				"x": -2.9107161674,
				"y": -0.2149069858,
				"z": -4.6162465402,
				"element": "N" 
			},
			{
				"x": -3.3488419556,
				"y": 0.5212986846,
				"z": -5.5013612002,
				"element": "O" 
			},
			{
				"x": -1.9049055689,
				"y": 0.3394725,
				"z": -3.7064810716,
				"element": "C" 
			},
			{
				"x": -1.4880406902,
				"y": 1.6605806201,
				"z": -3.8750391738,
				"element": "C" 
			},
			{
				"x": -0.5349182869,
				"y": 2.1807548726,
				"z": -3.0105178164,
				"element": "C" 
			},
			{
				"x": 0.0010915228,
				"y": 1.3861477446,
				"z": -1.9806604724,
				"element": "C" 
			},
			{
				"x": 1.2177765904,
				"y": 2.1724607406,
				"z": -0.9370548891,
				"element": "S" 
			},
			{
				"x": 1.6813899256,
				"y": 0.9003092153,
				"z": 0.2355353736,
				"element": "C" 
			},
			{
				"x": 1.0125340379,
				"y": 0.7970253407,
				"z": 1.4636997844,
				"element": "C" 
			},
			{
				"x": 1.4095185707,
				"y": -0.1459985588,
				"z": 2.4058701932,
				"element": "C" 
			},
			{
				"x": 2.492494237,
				"y": -0.9971742146,
				"z": 2.124900134,
				"element": "C" 
			},
			{
				"x": 3.1708681133,
				"y": -0.8946154266,
				"z": 0.8978529669,
				"element": "C" 
			},
			{
				"x": 2.7648134785,
				"y": 0.0524667998,
				"z": -0.0362982316,
				"element": "C" 
			},
			{
				"x": 2.8895239305,
				"y": -1.9253399693,
				"z": 3.0493287198,
				"element": "N" 
			},
			{
				"x": 3.2365187811,
				"y": -2.7286336841,
				"z": 3.8533704568,
				"element": "C" 
			},
			{
				"x": 3.7002810971,
				"y": -3.8044038333,
				"z": 4.9286487393,
				"element": "S" 
			},
			{
				"x": -0.4318036476,
				"y": 0.0608562372,
				"z": -1.8287650154,
				"element": "C" 
			},
			{
				"x": -1.3869630811,
				"y": -0.4644223438,
				"z": -2.6933627007,
				"element": "C" 
			},
			{
				"x": -1.9129224415,
				"y": 2.2553914671,
				"z": -4.6739011599,
				"element": "H" 
			},
			{
				"x": -0.203131408,
				"y": 3.2074597141,
				"z": -3.1326640054,
				"element": "H" 
			},
			{
				"x": 0.1813281448,
				"y": 1.4598712781,
				"z": 1.6799907226,
				"element": "H" 
			},
			{
				"x": 0.8972480254,
				"y": -0.2319825956,
				"z": 3.357856119,
				"element": "H" 
			},
			{
				"x": 4.0076638367,
				"y": -1.5539193181,
				"z": 0.6949075067,
				"element": "H" 
			},
			{
				"x": 3.2905354228,
				"y": 0.1388751412,
				"z": -0.9813900808,
				"element": "H" 
			},
			{
				"x": -0.0264655932,
				"y": -0.5608472223,
				"z": -1.0393804441,
				"element": "H" 
			},
			{
				"x": -1.7358633966,
				"y": -1.48492621,
				"z": -2.5947391699,
				"element": "H" 
			}
		],
		 "valence_orbital": [ 
			{
				"type": "occ",
				"energy": -0.28899,
				"method": "rhf"
			},
			{
				"type": "occ",
				"energy": -0.28367,
				"method": "rhf"
			},
			{
				"type": "occ",
				"energy": -0.26592,
				"method": "rhf"
			},
			{
				"type": "occ",
				"energy": -0.24837,
				"method": "rhf"
			},
			{
				"type": "occ",
				"energy": -0.2432,
				"method": "rhf"
			},
			{
				"type": "unocc",
				"energy": -0.08862,
				"method": "rhf"
			},
			{
				"type": "unocc",
				"energy": -0.07509,
				"method": "rhf"
			},
			{
				"type": "unocc",
				"energy": -0.04384,
				"method": "rhf"
			},
			{
				"type": "unocc",
				"energy": -0.03053,
				"method": "rhf"
			},
			{
				"type": "unocc",
				"energy": -0.00987,
				"method": "rhf"
			}
		],
		"cosmo_sigma_profile": { 
			"-0.025": 0.0,
			"-0.024": 0.0,
			"-0.023": 0.0,
			"-0.022": 0.0,
			"-0.021": 0.0,
			"-0.02": 0.0,
			"-0.019": 0.0,
			"-0.018": 0.0,
			"-0.017": 0.0,
			"-0.016": 0.0,
			"-0.015": 0.0,
			"-0.014": 0.0,
			"-0.013": 0.0,
			"-0.012": 0.0,
			"-0.011": 0.0,
			"-0.01": 0.0,
			"-0.009": 0.204638634162,
			"-0.008": 8.0745863996,
			"-0.007": 14.9719418386,
			"-0.006": 16.836158864,
			"-0.005": 14.0760585781,
			"-0.004": 14.3259481939,
			"-0.003": 17.9297062556,
			"-0.002": 27.8136357434,
			"-0.001": 32.9995535126,
			"0.0": 27.4801578924,
			"0.001": 35.3373403537,
			"0.002": 25.6306284126,
			"0.003": 12.6055319394,
			"0.004": 11.8364658501,
			"0.005": 16.3286349373,
			"0.006": 13.5520639971,
			"0.007": 6.54509371936,
			"0.008": 9.36651804694,
			"0.009": 4.62812145061,
			"0.01": 3.66327689442,
			"0.011": 0.578651989797,
			"0.012": 0.0,
			"0.013": 0.0,
			"0.014": 0.0,
			"0.015": 0.0,
			"0.016": 0.0,
			"0.017": 0.0,
			"0.018": 0.0,
			"0.019": 0.0,
			"0.02": 0.0,
			"0.021": 0.0,
			"0.022": 0.0,
			"0.023": 0.0,
			"0.024": 0.0,
			"0.025": 0.0
		}
	}
}
