{
	 "smiles": "CN1C=C(C#N)C(=O)NC1=O", 
	 "Tm": 513.15, 
	 "num_atms": 16, 
	 "gaussian": { 
		 "optdone": 1, 
		 "sigma_profile": "yes", 
		 "theory": "DFT", 
		 "functional": "B3LYP", 
		 "basiset": "6-31G**", 
		 "properties": { 
			 "R2extent": 1979.5121, 
			 "electric_dipole_moment_norm": 5.95722993429, 
			 "electric_quadrupole_moment_norm": 27.8852604903, 
			 "total_energy": -546.364029318, 
			 "HOMO_LUMO_gap": 0.18577, 
			 "cosmo_polarized_energy": -21.61, 
			 "cosmo_cavitation_energy": 22.18, 
			 "cosmo_dispersion_energy": -15.86, 
			 "cosmo_repulsion_energy": 1.28, 
			 "cosmo_total_nonelectrostatic_energy": 7.59, 
			 "SMD_solvation_energy": 7.33 
		},
		"coords": [
			{
				"x": -0.8794247363,
				"y": 1.6602985674,
				"z": -2.1801545514,
				"element": "C" 
			},
			{
				"x": -0.1044900797,
				"y": 0.7177116505,
				"z": -1.3631440967,
				"element": "N" 
			},
			{
				"x": -0.221293095,
				"y": -0.6256480549,
				"z": -1.564407292,
				"element": "C" 
			},
			{
				"x": 0.4653555409,
				"y": -1.560907357,
				"z": -0.8458429257,
				"element": "C" 
			},
			{
				"x": 0.2958007515,
				"y": -2.9501736574,
				"z": -1.1086463055,
				"element": "C" 
			},
			{
				"x": 0.1404553917,
				"y": -4.0791834463,
				"z": -1.341866854,
				"element": "N" 
			},
			{
				"x": 1.3914068479,
				"y": -1.1266747882,
				"z": 0.2126467467,
				"element": "C" 
			},
			{
				"x": 2.0624028978,
				"y": -1.8457804273,
				"z": 0.9250851291,
				"element": "O" 
			},
			{
				"x": 1.4385483835,
				"y": 0.2740808448,
				"z": 0.3388283426,
				"element": "N" 
			},
			{
				"x": 0.7546297671,
				"y": 1.2420639318,
				"z": -0.3750373979,
				"element": "C" 
			},
			{
				"x": 0.8799535217,
				"y": 2.4343276834,
				"z": -0.1722946596,
				"element": "O" 
			},
			{
				"x": -0.6179588663,
				"y": 1.5474940273,
				"z": -3.235543433,
				"element": "H" 
			},
			{
				"x": -1.9498287174,
				"y": 1.4849001915,
				"z": -2.044486576,
				"element": "H" 
			},
			{
				"x": -0.6281223395,
				"y": 2.664777869,
				"z": -1.8463604895,
				"element": "H" 
			},
			{
				"x": -0.9092774601,
				"y": -0.9213445296,
				"z": -2.3492827623,
				"element": "H" 
			},
			{
				"x": 2.0612421923,
				"y": 0.6322574949,
				"z": 1.0539071251,
				"element": "H" 
			}
		],
		 "valence_orbital": [ 
			{
				"type": "occ",
				"energy": -0.34067,
				"method": "rhf"
			},
			{
				"type": "occ",
				"energy": -0.31841,
				"method": "rhf"
			},
			{
				"type": "occ",
				"energy": -0.30694,
				"method": "rhf"
			},
			{
				"type": "occ",
				"energy": -0.28641,
				"method": "rhf"
			},
			{
				"type": "occ",
				"energy": -0.26303,
				"method": "rhf"
			},
			{
				"type": "unocc",
				"energy": -0.07726,
				"method": "rhf"
			},
			{
				"type": "unocc",
				"energy": -0.02311,
				"method": "rhf"
			},
			{
				"type": "unocc",
				"energy": 0.02016,
				"method": "rhf"
			},
			{
				"type": "unocc",
				"energy": 0.0453,
				"method": "rhf"
			},
			{
				"type": "unocc",
				"energy": 0.061,
				"method": "rhf"
			}
		],
		"cosmo_sigma_profile": { 
			"-0.025": 0.0,
			"-0.024": 0.0,
			"-0.023": 0.0,
			"-0.022": 0.0,
			"-0.021": 0.0,
			"-0.02": 0.0,
			"-0.019": 0.0,
			"-0.018": 0.0,
			"-0.017": 0.333112738496,
			"-0.016": 1.1285508611,
			"-0.015": 1.1170397734,
			"-0.014": 0.50379942721,
			"-0.013": 0.629131248617,
			"-0.012": 3.31887825251,
			"-0.011": 3.75044932064,
			"-0.01": 3.65522631622,
			"-0.009": 3.75578752678,
			"-0.008": 6.49624659437,
			"-0.007": 9.86289719378,
			"-0.006": 11.3353333158,
			"-0.005": 13.174348284,
			"-0.004": 14.8928541515,
			"-0.003": 13.4786519042,
			"-0.002": 8.14022812318,
			"-0.001": 4.06975312933,
			"0.0": 4.51837144851,
			"0.001": 3.06944011359,
			"0.002": 4.39735108865,
			"0.003": 3.67500791711,
			"0.004": 4.72178378936,
			"0.005": 5.47870770092,
			"0.006": 5.90253298261,
			"0.007": 5.2592504885,
			"0.008": 6.21062358458,
			"0.009": 6.044441834,
			"0.01": 8.21210190169,
			"0.011": 12.015177792,
			"0.012": 8.47683039906,
			"0.013": 1.39306000444,
			"0.014": 0.0,
			"0.015": 0.0,
			"0.016": 0.0,
			"0.017": 0.0,
			"0.018": 0.0,
			"0.019": 0.0,
			"0.02": 0.0,
			"0.021": 0.0,
			"0.022": 0.0,
			"0.023": 0.0,
			"0.024": 0.0,
			"0.025": 0.0
		}
	}
}
