{
	 "smiles": "CN1C(=O)C(C2=NNC(=O)C2=C/C2=CC=C(C)C=C2)=C(O)C2=CC=CC=C12", 
	 "Tm": 553.15, 
	 "num_atms": 44, 
	 "gaussian": { 
		 "optdone": 1, 
		 "sigma_profile": "yes", 
		 "theory": "DFT", 
		 "functional": "B3LYP", 
		 "basiset": "6-31G**", 
		 "properties": { 
			 "R2extent": 12651.4568, 
			 "electric_dipole_moment_norm": 6.90092588715, 
			 "electric_quadrupole_moment_norm": 18.7884644495, 
			 "total_energy": -1200.40399367, 
			 "HOMO_LUMO_gap": 0.12702, 
			 "cosmo_polarized_energy": -27.34, 
			 "cosmo_cavitation_energy": 47.93, 
			 "cosmo_dispersion_energy": -34.15, 
			 "cosmo_repulsion_energy": 2.54, 
			 "cosmo_total_nonelectrostatic_energy": 16.31, 
			 "SMD_solvation_energy": 8.2 
		},
		"coords": [
			{
				"x": -1.0549937017,
				"y": -0.2097417751,
				"z": -3.8116027243,
				"element": "C" 
			},
			{
				"x": -0.0320647667,
				"y": -0.9098310883,
				"z": -3.0350343156,
				"element": "N" 
			},
			{
				"x": -0.2627763308,
				"y": -1.0309815337,
				"z": -1.6446795744,
				"element": "C" 
			},
			{
				"x": -1.274162288,
				"y": -0.5464003859,
				"z": -1.1395302521,
				"element": "O" 
			},
			{
				"x": 0.7609126863,
				"y": -1.7250092653,
				"z": -0.8673409857,
				"element": "C" 
			},
			{
				"x": 0.5302784791,
				"y": -1.8866171315,
				"z": 0.5847320244,
				"element": "C" 
			},
			{
				"x": 0.4345100911,
				"y": -3.0804753394,
				"z": 1.1017830604,
				"element": "N" 
			},
			{
				"x": 0.2604926789,
				"y": -2.9066826929,
				"z": 2.4554132107,
				"element": "N" 
			},
			{
				"x": 0.230692869,
				"y": -1.5937505768,
				"z": 2.8781805187,
				"element": "C" 
			},
			{
				"x": 0.0801338585,
				"y": -1.2395802772,
				"z": 4.0457063921,
				"element": "O" 
			},
			{
				"x": 0.4250390584,
				"y": -0.8359232581,
				"z": 1.6035205372,
				"element": "C" 
			},
			{
				"x": 0.5125892538,
				"y": 0.4987531988,
				"z": 1.3403392371,
				"element": "C" 
			},
			{
				"x": 0.4567831363,
				"y": 1.6930915508,
				"z": 2.162995473,
				"element": "C" 
			},
			{
				"x": 0.2801726219,
				"y": 1.7132648447,
				"z": 3.565074619,
				"element": "C" 
			},
			{
				"x": 0.2473890939,
				"y": 2.9228451831,
				"z": 4.248103846,
				"element": "C" 
			},
			{
				"x": 0.3827872051,
				"y": 4.1523756872,
				"z": 3.5840230279,
				"element": "C" 
			},
			{
				"x": 0.3123467976,
				"y": 5.4540112346,
				"z": 4.3432760392,
				"element": "C" 
			},
			{
				"x": 0.5608234466,
				"y": 4.1338208398,
				"z": 2.1930565888,
				"element": "C" 
			},
			{
				"x": 0.5958846111,
				"y": 2.9321607552,
				"z": 1.4981088512,
				"element": "C" 
			},
			{
				"x": 1.8825456688,
				"y": -2.2255215093,
				"z": -1.4731240871,
				"element": "C" 
			},
			{
				"x": 2.8258963885,
				"y": -2.82106274,
				"z": -0.7076319061,
				"element": "O" 
			},
			{
				"x": 2.0660929735,
				"y": -2.126359862,
				"z": -2.9086075082,
				"element": "C" 
			},
			{
				"x": 3.1692251361,
				"y": -2.6919854299,
				"z": -3.5755437009,
				"element": "C" 
			},
			{
				"x": 3.3312760216,
				"y": -2.5684326842,
				"z": -4.9463146482,
				"element": "C" 
			},
			{
				"x": 2.3683381638,
				"y": -1.8698843716,
				"z": -5.6847289343,
				"element": "C" 
			},
			{
				"x": 1.2582285854,
				"y": -1.3179629717,
				"z": -5.0613126737,
				"element": "C" 
			},
			{
				"x": 1.0797383561,
				"y": -1.440464477,
				"z": -3.6674094115,
				"element": "C" 
			},
			{
				"x": -1.4926409068,
				"y": -0.8734789359,
				"z": -4.5638504052,
				"element": "H" 
			},
			{
				"x": -0.6304848347,
				"y": 0.6678664224,
				"z": -4.3094112117,
				"element": "H" 
			},
			{
				"x": -1.8247869503,
				"y": 0.1038609017,
				"z": -3.1100680095,
				"element": "H" 
			},
			{
				"x": 0.1334734007,
				"y": -3.7103308942,
				"z": 3.0498163592,
				"element": "H" 
			},
			{
				"x": 0.6508518215,
				"y": 0.7241535124,
				"z": 0.284382439,
				"element": "H" 
			},
			{
				"x": 0.1719973113,
				"y": 0.7747007012,
				"z": 4.0967360741,
				"element": "H" 
			},
			{
				"x": 0.113294327,
				"y": 2.9152495067,
				"z": 5.3271894332,
				"element": "H" 
			},
			{
				"x": 0.8012950745,
				"y": 5.374444542,
				"z": 5.3192888205,
				"element": "H" 
			},
			{
				"x": 0.7853481765,
				"y": 6.2695753107,
				"z": 3.7887472019,
				"element": "H" 
			},
			{
				"x": -0.7298792433,
				"y": 5.7440750148,
				"z": 4.5279875516,
				"element": "H" 
			},
			{
				"x": 0.6724354281,
				"y": 5.0711165066,
				"z": 1.6538735548,
				"element": "H" 
			},
			{
				"x": 0.7332503978,
				"y": 2.9412411043,
				"z": 0.4197708736,
				"element": "H" 
			},
			{
				"x": 3.6357922475,
				"y": -2.9442314944,
				"z": -1.2179794137,
				"element": "H" 
			},
			{
				"x": 3.9077158504,
				"y": -3.2670199751,
				"z": -3.0217889387,
				"element": "H" 
			},
			{
				"x": 4.1884701641,
				"y": -3.0150625106,
				"z": -5.4387848444,
				"element": "H" 
			},
			{
				"x": 2.4804877027,
				"y": -1.7623003661,
				"z": -6.7594398213,
				"element": "H" 
			},
			{
				"x": 0.5234999388,
				"y": -0.7928152707,
				"z": -5.6572223671,
				"element": "H" 
			}
		],
		 "valence_orbital": [ 
			{
				"type": "occ",
				"energy": -0.24911,
				"method": "rhf"
			},
			{
				"type": "occ",
				"energy": -0.23821,
				"method": "rhf"
			},
			{
				"type": "occ",
				"energy": -0.23545,
				"method": "rhf"
			},
			{
				"type": "occ",
				"energy": -0.22179,
				"method": "rhf"
			},
			{
				"type": "occ",
				"energy": -0.20316,
				"method": "rhf"
			},
			{
				"type": "unocc",
				"energy": -0.07614,
				"method": "rhf"
			},
			{
				"type": "unocc",
				"energy": -0.05803,
				"method": "rhf"
			},
			{
				"type": "unocc",
				"energy": -0.01765,
				"method": "rhf"
			},
			{
				"type": "unocc",
				"energy": 0.00163,
				"method": "rhf"
			},
			{
				"type": "unocc",
				"energy": 0.01525,
				"method": "rhf"
			}
		],
		"cosmo_sigma_profile": { 
			"-0.025": 0.0,
			"-0.024": 0.0,
			"-0.023": 0.0,
			"-0.022": 0.0,
			"-0.021": 0.0,
			"-0.02": 0.0292838681544,
			"-0.019": 0.493897119035,
			"-0.018": 1.08442652658,
			"-0.017": 0.581370810274,
			"-0.016": 1.67783597189,
			"-0.015": 2.69874309611,
			"-0.014": 1.40780269705,
			"-0.013": 2.023552384,
			"-0.012": 2.13815039281,
			"-0.011": 1.1385236263,
			"-0.01": 2.27461746847,
			"-0.009": 2.17920496858,
			"-0.008": 3.23943646092,
			"-0.007": 9.44385641833,
			"-0.006": 19.3179922836,
			"-0.005": 26.604182921,
			"-0.004": 26.4104827625,
			"-0.003": 24.9387609312,
			"-0.002": 27.780178167,
			"-0.001": 31.6569179356,
			"0.0": 30.2838024798,
			"0.001": 26.4920671551,
			"0.002": 26.4609538356,
			"0.003": 28.5215002702,
			"0.004": 24.8392014434,
			"0.005": 7.54774386683,
			"0.006": 5.46317576759,
			"0.007": 6.06193860673,
			"0.008": 6.50450505498,
			"0.009": 4.45824486622,
			"0.01": 5.63655247596,
			"0.011": 5.74391714702,
			"0.012": 6.1363238356,
			"0.013": 8.40966071957,
			"0.014": 4.21971594456,
			"0.015": 0.535362738617,
			"0.016": 0.00255312267878,
			"0.017": 0.0,
			"0.018": 0.0,
			"0.019": 0.0,
			"0.02": 0.0,
			"0.021": 0.0,
			"0.022": 0.0,
			"0.023": 0.0,
			"0.024": 0.0,
			"0.025": 0.0
		}
	}
}
