{
	 "smiles": "NC(=O)NC1=CC(Cl)=C(F)C=C1", 
	 "Tm": 440.15, 
	 "num_atms": 18, 
	 "gaussian": { 
		 "optdone": 1, 
		 "sigma_profile": "yes", 
		 "theory": "DFT", 
		 "functional": "B3LYP", 
		 "basiset": "6-31G**", 
		 "properties": { 
			 "R2extent": 3699.4354, 
			 "electric_dipole_moment_norm": 2.10974808686, 
			 "electric_quadrupole_moment_norm": 20.5005161796, 
			 "total_energy": -1015.13594617, 
			 "HOMO_LUMO_gap": 0.19739, 
			 "cosmo_polarized_energy": -14.5, 
			 "cosmo_cavitation_energy": 25.09, 
			 "cosmo_dispersion_energy": -18.6, 
			 "cosmo_repulsion_energy": 1.48, 
			 "cosmo_total_nonelectrostatic_energy": 7.96, 
			 "SMD_solvation_energy": 5.57 
		},
		"coords": [
			{
				"x": -1.2305028707,
				"y": -2.014711944,
				"z": -0.6279517565,
				"element": "N" 
			},
			{
				"x": -0.8542912704,
				"y": -2.0191730041,
				"z": 0.7020080506,
				"element": "C" 
			},
			{
				"x": -0.7897397876,
				"y": -3.0376097512,
				"z": 1.3735890276,
				"element": "O" 
			},
			{
				"x": -0.5209579588,
				"y": -0.7855350759,
				"z": 1.2573033381,
				"element": "N" 
			},
			{
				"x": -0.4158627751,
				"y": 0.4937483815,
				"z": 0.6783243585,
				"element": "C" 
			},
			{
				"x": -0.7749433949,
				"y": 1.6066525275,
				"z": 1.4556742774,
				"element": "C" 
			},
			{
				"x": -0.6423639652,
				"y": 2.895413719,
				"z": 0.9463566075,
				"element": "C" 
			},
			{
				"x": -1.0800075895,
				"y": 4.2781671788,
				"z": 1.916331947,
				"element": "Cl" 
			},
			{
				"x": -0.1737827066,
				"y": 3.0835710043,
				"z": -0.3552387759,
				"element": "C" 
			},
			{
				"x": -0.0580678378,
				"y": 4.3235202279,
				"z": -0.8554511092,
				"element": "F" 
			},
			{
				"x": 0.1807485661,
				"y": 1.9902036767,
				"z": -1.134676269,
				"element": "C" 
			},
			{
				"x": 0.0781352653,
				"y": 0.6988362612,
				"z": -0.6207669777,
				"element": "C" 
			},
			{
				"x": -1.6442174016,
				"y": -2.8912555508,
				"z": -0.9114987438,
				"element": "H" 
			},
			{
				"x": -1.6645336407,
				"y": -1.1852751131,
				"z": -1.0084809827,
				"element": "H" 
			},
			{
				"x": -0.3739374733,
				"y": -0.8615858094,
				"z": 2.253907257,
				"element": "H" 
			},
			{
				"x": -1.1644038477,
				"y": 1.4697054032,
				"z": 2.4588471837,
				"element": "H" 
			},
			{
				"x": 0.5604389889,
				"y": 2.1659721678,
				"z": -2.1354746608,
				"element": "H" 
			},
			{
				"x": 0.4000896998,
				"y": -0.1466442992,
				"z": -1.2166027719,
				"element": "H" 
			}
		],
		 "valence_orbital": [ 
			{
				"type": "occ",
				"energy": -0.30576,
				"method": "rhf"
			},
			{
				"type": "occ",
				"energy": -0.28325,
				"method": "rhf"
			},
			{
				"type": "occ",
				"energy": -0.26903,
				"method": "rhf"
			},
			{
				"type": "occ",
				"energy": -0.26499,
				"method": "rhf"
			},
			{
				"type": "occ",
				"energy": -0.23238,
				"method": "rhf"
			},
			{
				"type": "unocc",
				"energy": -0.03499,
				"method": "rhf"
			},
			{
				"type": "unocc",
				"energy": -0.02122,
				"method": "rhf"
			},
			{
				"type": "unocc",
				"energy": 0.01376,
				"method": "rhf"
			},
			{
				"type": "unocc",
				"energy": 0.0531,
				"method": "rhf"
			},
			{
				"type": "unocc",
				"energy": 0.08137,
				"method": "rhf"
			}
		],
		"cosmo_sigma_profile": { 
			"-0.025": 0.0,
			"-0.024": 0.0,
			"-0.023": 0.0,
			"-0.022": 0.0,
			"-0.021": 0.0,
			"-0.02": 0.0,
			"-0.019": 0.0,
			"-0.018": 0.0,
			"-0.017": 0.0,
			"-0.016": 0.0,
			"-0.015": 0.338710441558,
			"-0.014": 1.42179475743,
			"-0.013": 3.13829770069,
			"-0.012": 3.43327694815,
			"-0.011": 3.95413370973,
			"-0.01": 3.49792573007,
			"-0.009": 3.87885488787,
			"-0.008": 5.0342911185,
			"-0.007": 5.93038582189,
			"-0.006": 7.61255648672,
			"-0.005": 7.35315089119,
			"-0.004": 6.1905005118,
			"-0.003": 7.75766367907,
			"-0.002": 9.19669648441,
			"-0.001": 12.209414014,
			"0.0": 19.1138674462,
			"0.001": 21.539824393,
			"0.002": 17.5887543521,
			"0.003": 17.0508038672,
			"0.004": 18.4767437187,
			"0.005": 6.31792814155,
			"0.006": 2.50506131581,
			"0.007": 1.16406436784,
			"0.008": 1.7064183099,
			"0.009": 1.12832068802,
			"0.01": 1.31931397873,
			"0.011": 1.95717178928,
			"0.012": 1.33176928125,
			"0.013": 3.51864222338,
			"0.014": 6.45900546911,
			"0.015": 0.851079007715,
			"0.016": 0.0,
			"0.017": 0.0,
			"0.018": 0.0,
			"0.019": 0.0,
			"0.02": 0.0,
			"0.021": 0.0,
			"0.022": 0.0,
			"0.023": 0.0,
			"0.024": 0.0,
			"0.025": 0.0
		}
	}
}
