{
	 "smiles": "CCCCN1C(=O)C2=CC=CC=C2C1=O", 
	 "Tm": 307.15, 
	 "num_atms": 28, 
	 "gaussian": { 
		 "optdone": 1, 
		 "sigma_profile": "yes", 
		 "theory": "DFT", 
		 "functional": "B3LYP", 
		 "basiset": "6-31G**", 
		 "properties": { 
			 "R2extent": 3943.6649, 
			 "electric_dipole_moment_norm": 2.34205044779, 
			 "electric_quadrupole_moment_norm": 16.6542327416, 
			 "total_energy": -670.357902065, 
			 "HOMO_LUMO_gap": 0.18306, 
			 "cosmo_polarized_energy": -9.54, 
			 "cosmo_cavitation_energy": 31.27, 
			 "cosmo_dispersion_energy": -22.13, 
			 "cosmo_repulsion_energy": 1.72, 
			 "cosmo_total_nonelectrostatic_energy": 10.86, 
			 "SMD_solvation_energy": 6.22 
		},
		"coords": [
			{
				"x": -1.280456226,
				"y": -0.0980781568,
				"z": 2.6318056199,
				"element": "C" 
			},
			{
				"x": -1.6511621947,
				"y": -0.7671760501,
				"z": 1.3027498657,
				"element": "C" 
			},
			{
				"x": -0.6707704449,
				"y": -1.8560114314,
				"z": 0.8397448087,
				"element": "C" 
			},
			{
				"x": 0.7566454887,
				"y": -1.3776592173,
				"z": 0.5307859821,
				"element": "C" 
			},
			{
				"x": 0.8270619005,
				"y": -0.4142848113,
				"z": -0.5655003969,
				"element": "N" 
			},
			{
				"x": 1.0555729558,
				"y": 0.9606054579,
				"z": -0.3966751337,
				"element": "C" 
			},
			{
				"x": 1.2007221404,
				"y": 1.528409075,
				"z": 0.6693494197,
				"element": "O" 
			},
			{
				"x": 1.0873404944,
				"y": 1.5377590945,
				"z": -1.7742847481,
				"element": "C" 
			},
			{
				"x": 1.2724749568,
				"y": 2.8474558879,
				"z": -2.1921197932,
				"element": "C" 
			},
			{
				"x": 1.2567819043,
				"y": 3.0916962369,
				"z": -3.5721523027,
				"element": "C" 
			},
			{
				"x": 1.0628906688,
				"y": 2.0502366229,
				"z": -4.4887328041,
				"element": "C" 
			},
			{
				"x": 0.878145769,
				"y": 0.7301293975,
				"z": -4.0555881353,
				"element": "C" 
			},
			{
				"x": 0.893998474,
				"y": 0.4995880716,
				"z": -2.6878616676,
				"element": "C" 
			},
			{
				"x": 0.7332086376,
				"y": -0.7721372092,
				"z": -1.9204804718,
				"element": "C" 
			},
			{
				"x": 0.5633904457,
				"y": -1.9015508366,
				"z": -2.3371841689,
				"element": "O" 
			},
			{
				"x": -2.0657013866,
				"y": 0.5958358988,
				"z": 2.9493257084,
				"element": "H" 
			},
			{
				"x": -0.3525178231,
				"y": 0.4750840366,
				"z": 2.5487949745,
				"element": "H" 
			},
			{
				"x": -1.1556414833,
				"y": -0.8420494481,
				"z": 3.4278731517,
				"element": "H" 
			},
			{
				"x": -1.7434989478,
				"y": -0.0019029199,
				"z": 0.5209353892,
				"element": "H" 
			},
			{
				"x": -2.6445185205,
				"y": -1.2249309496,
				"z": 1.3899719267,
				"element": "H" 
			},
			{
				"x": -1.0637008326,
				"y": -2.3543719319,
				"z": -0.0534684611,
				"element": "H" 
			},
			{
				"x": -0.5897156963,
				"y": -2.6283397603,
				"z": 1.616693008,
				"element": "H" 
			},
			{
				"x": 1.2120482547,
				"y": -0.8895703576,
				"z": 1.3954475653,
				"element": "H" 
			},
			{
				"x": 1.3757999902,
				"y": -2.2356378166,
				"z": 0.2519056765,
				"element": "H" 
			},
			{
				"x": 1.4232236103,
				"y": 3.6459175764,
				"z": -1.4727951378,
				"element": "H" 
			},
			{
				"x": 1.3976077833,
				"y": 4.1039948243,
				"z": -3.9391393622,
				"element": "H" 
			},
			{
				"x": 1.0563794349,
				"y": 2.2716052992,
				"z": -5.5518558416,
				"element": "H" 
			},
			{
				"x": 0.7284906461,
				"y": -0.0848165832,
				"z": -4.7564446711,
				"element": "H" 
			}
		],
		 "valence_orbital": [ 
			{
				"type": "occ",
				"energy": -0.2876,
				"method": "rhf"
			},
			{
				"type": "occ",
				"energy": -0.28341,
				"method": "rhf"
			},
			{
				"type": "occ",
				"energy": -0.27727,
				"method": "rhf"
			},
			{
				"type": "occ",
				"energy": -0.26628,
				"method": "rhf"
			},
			{
				"type": "occ",
				"energy": -0.26385,
				"method": "rhf"
			},
			{
				"type": "unocc",
				"energy": -0.08079,
				"method": "rhf"
			},
			{
				"type": "unocc",
				"energy": -0.04001,
				"method": "rhf"
			},
			{
				"type": "unocc",
				"energy": 0.02861,
				"method": "rhf"
			},
			{
				"type": "unocc",
				"energy": 0.07311,
				"method": "rhf"
			},
			{
				"type": "unocc",
				"energy": 0.08633,
				"method": "rhf"
			}
		],
		"cosmo_sigma_profile": { 
			"-0.025": 0.0,
			"-0.024": 0.0,
			"-0.023": 0.0,
			"-0.022": 0.0,
			"-0.021": 0.0,
			"-0.02": 0.0,
			"-0.019": 0.0,
			"-0.018": 0.0,
			"-0.017": 0.0,
			"-0.016": 0.0,
			"-0.015": 0.0,
			"-0.014": 0.0,
			"-0.013": 0.0,
			"-0.012": 0.0,
			"-0.011": 0.0,
			"-0.01": 0.0,
			"-0.009": 0.0,
			"-0.008": 1.25980929042,
			"-0.007": 7.85480449561,
			"-0.006": 9.5968649363,
			"-0.005": 13.2843242883,
			"-0.004": 14.866290547,
			"-0.003": 24.7212576795,
			"-0.002": 28.8580630098,
			"-0.001": 26.8048521996,
			"0.0": 28.5858939039,
			"0.001": 24.7316084261,
			"0.002": 21.3263515738,
			"0.003": 8.51534478199,
			"0.004": 4.23565066879,
			"0.005": 3.81266917819,
			"0.006": 3.61579360979,
			"0.007": 2.96512308596,
			"0.008": 3.03809146229,
			"0.009": 3.49523185827,
			"0.01": 4.7766560327,
			"0.011": 7.49351471866,
			"0.012": 4.03912199581,
			"0.013": 0.109071827233,
			"0.014": 0.0,
			"0.015": 0.0,
			"0.016": 0.0,
			"0.017": 0.0,
			"0.018": 0.0,
			"0.019": 0.0,
			"0.02": 0.0,
			"0.021": 0.0,
			"0.022": 0.0,
			"0.023": 0.0,
			"0.024": 0.0,
			"0.025": 0.0
		}
	}
}
