{
	 "smiles": "CC12CCC3=C(CCC4(C)CC(=O)CCC34)C1CCC2=O", 
	 "Tm": 422.15, 
	 "num_atms": 47, 
	 "gaussian": { 
		 "optdone": 1, 
		 "sigma_profile": "yes", 
		 "theory": "DFT", 
		 "functional": "B3LYP", 
		 "basiset": "6-31G**", 
		 "properties": { 
			 "R2extent": 7122.5602, 
			 "electric_dipole_moment_norm": 2.7769250566, 
			 "electric_quadrupole_moment_norm": 37.1214588882, 
			 "total_energy": -890.145471617, 
			 "HOMO_LUMO_gap": 0.21493, 
			 "cosmo_polarized_energy": -13.72, 
			 "cosmo_cavitation_energy": 42.56, 
			 "cosmo_dispersion_energy": -29.49, 
			 "cosmo_repulsion_energy": 2.2, 
			 "cosmo_total_nonelectrostatic_energy": 15.27, 
			 "SMD_solvation_energy": 6.88 
		},
		"coords": [
			{
				"x": -1.8555527458,
				"y": 1.4368103246,
				"z": -1.4517277172,
				"element": "C" 
			},
			{
				"x": -0.9496615943,
				"y": 0.3547854708,
				"z": -2.0962384577,
				"element": "C" 
			},
			{
				"x": -1.3608573556,
				"y": -1.043157912,
				"z": -1.6415350545,
				"element": "C" 
			},
			{
				"x": -1.1182159788,
				"y": -1.1905199835,
				"z": -0.1216591348,
				"element": "C" 
			},
			{
				"x": 0.1093887053,
				"y": -0.4740637084,
				"z": 0.4365744064,
				"element": "C" 
			},
			{
				"x": 0.8610847661,
				"y": 0.3645251675,
				"z": -0.3066191625,
				"element": "C" 
			},
			{
				"x": 2.048075829,
				"y": 1.1123317102,
				"z": 0.2517571247,
				"element": "C" 
			},
			{
				"x": 2.49931346,
				"y": 0.5817020075,
				"z": 1.6122738363,
				"element": "C" 
			},
			{
				"x": 1.3245341736,
				"y": 0.3204432285,
				"z": 2.5775187849,
				"element": "C" 
			},
			{
				"x": 0.5618903643,
				"y": 1.6239784264,
				"z": 2.8847395015,
				"element": "C" 
			},
			{
				"x": 1.9087053977,
				"y": -0.2413226688,
				"z": 3.9158267435,
				"element": "C" 
			},
			{
				"x": 0.9756681872,
				"y": -1.2111163495,
				"z": 4.6163197777,
				"element": "C" 
			},
			{
				"x": 0.5783349628,
				"y": -1.0554616482,
				"z": 5.7553169132,
				"element": "O" 
			},
			{
				"x": 0.5767026118,
				"y": -2.4174401041,
				"z": 3.7682934864,
				"element": "C" 
			},
			{
				"x": 0.7794807092,
				"y": -2.1597341007,
				"z": 2.2651889331,
				"element": "C" 
			},
			{
				"x": 0.3480722765,
				"y": -0.7111440352,
				"z": 1.9237765876,
				"element": "C" 
			},
			{
				"x": 0.5501276085,
				"y": 0.5405370745,
				"z": -1.7782389674,
				"element": "C" 
			},
			{
				"x": 0.9442096069,
				"y": 1.8161497553,
				"z": -2.5568867983,
				"element": "C" 
			},
			{
				"x": 0.1923148832,
				"y": 1.6244574113,
				"z": -3.8972833373,
				"element": "C" 
			},
			{
				"x": -0.9642669841,
				"y": 0.6459992766,
				"z": -3.5984470758,
				"element": "C" 
			},
			{
				"x": -1.7366295684,
				"y": 0.1967118562,
				"z": -4.4172267253,
				"element": "O" 
			},
			{
				"x": -2.9009710258,
				"y": 1.2280062929,
				"z": -1.6989569916,
				"element": "H" 
			},
			{
				"x": -1.7478435837,
				"y": 1.4475428509,
				"z": -0.3644920682,
				"element": "H" 
			},
			{
				"x": -1.6288227587,
				"y": 2.4437262095,
				"z": -1.8148702725,
				"element": "H" 
			},
			{
				"x": -2.4094596979,
				"y": -1.2494122486,
				"z": -1.8807194406,
				"element": "H" 
			},
			{
				"x": -0.7640061057,
				"y": -1.7832100539,
				"z": -2.1880698507,
				"element": "H" 
			},
			{
				"x": -1.07004237,
				"y": -2.2585128179,
				"z": 0.1243298518,
				"element": "H" 
			},
			{
				"x": -1.9952117457,
				"y": -0.8185987017,
				"z": 0.4295216922,
				"element": "H" 
			},
			{
				"x": 1.8016279029,
				"y": 2.1825478676,
				"z": 0.3184753387,
				"element": "H" 
			},
			{
				"x": 2.8851237401,
				"y": 1.0573648902,
				"z": -0.4577022399,
				"element": "H" 
			},
			{
				"x": 3.2106281244,
				"y": 1.2764294774,
				"z": 2.0762635535,
				"element": "H" 
			},
			{
				"x": 3.041484701,
				"y": -0.3606886202,
				"z": 1.4595102185,
				"element": "H" 
			},
			{
				"x": 1.2462259607,
				"y": 2.4080203747,
				"z": 3.2283160338,
				"element": "H" 
			},
			{
				"x": 0.0319470004,
				"y": 1.9972168005,
				"z": 2.0032864489,
				"element": "H" 
			},
			{
				"x": -0.1785774344,
				"y": 1.4606977511,
				"z": 3.6752280887,
				"element": "H" 
			},
			{
				"x": 2.8305982381,
				"y": -0.7988296669,
				"z": 3.6964419983,
				"element": "H" 
			},
			{
				"x": 2.1688514662,
				"y": 0.5680075289,
				"z": 4.6028293484,
				"element": "H" 
			},
			{
				"x": 1.1679825162,
				"y": -3.2776884296,
				"z": 4.1100319286,
				"element": "H" 
			},
			{
				"x": -0.4682160463,
				"y": -2.6513216536,
				"z": 4.0001669953,
				"element": "H" 
			},
			{
				"x": 1.8290572851,
				"y": -2.3063147145,
				"z": 1.982024108,
				"element": "H" 
			},
			{
				"x": 0.2065964395,
				"y": -2.8900233139,
				"z": 1.6869383099,
				"element": "H" 
			},
			{
				"x": -0.6327656406,
				"y": -0.5765566214,
				"z": 2.411389665,
				"element": "H" 
			},
			{
				"x": 1.0702472861,
				"y": -0.2797715275,
				"z": -2.3055720352,
				"element": "H" 
			},
			{
				"x": 0.6052828289,
				"y": 2.7206590498,
				"z": -2.0412213199,
				"element": "H" 
			},
			{
				"x": 2.0244823532,
				"y": 1.9104883347,
				"z": -2.6972975194,
				"element": "H" 
			},
			{
				"x": 0.8295098014,
				"y": 1.1614583507,
				"z": -4.6599598989,
				"element": "H" 
			},
			{
				"x": -0.1945485506,
				"y": 2.549391392,
				"z": -4.3363156076,
				"element": "H" 
			}
		],
		 "valence_orbital": [ 
			{
				"type": "occ",
				"energy": -0.30887,
				"method": "rhf"
			},
			{
				"type": "occ",
				"energy": -0.29076,
				"method": "rhf"
			},
			{
				"type": "occ",
				"energy": -0.2362,
				"method": "rhf"
			},
			{
				"type": "occ",
				"energy": -0.23347,
				"method": "rhf"
			},
			{
				"type": "occ",
				"energy": -0.22952,
				"method": "rhf"
			},
			{
				"type": "unocc",
				"energy": -0.01459,
				"method": "rhf"
			},
			{
				"type": "unocc",
				"energy": -0.01333,
				"method": "rhf"
			},
			{
				"type": "unocc",
				"energy": 0.01651,
				"method": "rhf"
			},
			{
				"type": "unocc",
				"energy": 0.06234,
				"method": "rhf"
			},
			{
				"type": "unocc",
				"energy": 0.08061,
				"method": "rhf"
			}
		],
		"cosmo_sigma_profile": { 
			"-0.025": 0.0,
			"-0.024": 0.0,
			"-0.023": 0.0,
			"-0.022": 0.0,
			"-0.021": 0.0,
			"-0.02": 0.0,
			"-0.019": 0.0,
			"-0.018": 0.0,
			"-0.017": 0.0,
			"-0.016": 0.0,
			"-0.015": 0.0,
			"-0.014": 0.0,
			"-0.013": 0.0,
			"-0.012": 0.0,
			"-0.011": 0.0,
			"-0.01": 0.0,
			"-0.009": 0.0,
			"-0.008": 0.0,
			"-0.007": 0.0,
			"-0.006": 3.08074720793,
			"-0.005": 16.3060138998,
			"-0.004": 26.0130929762,
			"-0.003": 45.1815666506,
			"-0.002": 58.0607011186,
			"-0.001": 52.4182393444,
			"0.0": 42.2296253899,
			"0.001": 23.6073583125,
			"0.002": 7.78378066002,
			"0.003": 5.51631825098,
			"0.004": 4.17876327032,
			"0.005": 3.67292346378,
			"0.006": 3.67829063491,
			"0.007": 2.80667458472,
			"0.008": 2.83617702498,
			"0.009": 3.35375412548,
			"0.01": 3.8570050491,
			"0.011": 5.93142996925,
			"0.012": 8.79122694866,
			"0.013": 6.95814239685,
			"0.014": 1.60501637094,
			"0.015": 0.0,
			"0.016": 0.0,
			"0.017": 0.0,
			"0.018": 0.0,
			"0.019": 0.0,
			"0.02": 0.0,
			"0.021": 0.0,
			"0.022": 0.0,
			"0.023": 0.0,
			"0.024": 0.0,
			"0.025": 0.0
		}
	}
}
