{
	 "smiles": "CC(C)(C)C(=O)NC1=C(N=CC=N1)C(O)=O", 
	 "Tm": 370.15, 
	 "num_atms": 29, 
	 "gaussian": { 
		 "optdone": 1, 
		 "sigma_profile": "yes", 
		 "theory": "DFT", 
		 "functional": "B3LYP", 
		 "basiset": "6-31G**", 
		 "properties": { 
			 "R2extent": 4678.4289, 
			 "electric_dipole_moment_norm": 6.45035396393, 
			 "electric_quadrupole_moment_norm": 19.8589078899, 
			 "total_energy": -778.855204461, 
			 "HOMO_LUMO_gap": 0.16263, 
			 "cosmo_polarized_energy": -14.35, 
			 "cosmo_cavitation_energy": 31.82, 
			 "cosmo_dispersion_energy": -22.94, 
			 "cosmo_repulsion_energy": 1.76, 
			 "cosmo_total_nonelectrostatic_energy": 10.65, 
			 "SMD_solvation_energy": 6.92 
		},
		"coords": [
			{
				"x": -3.3937574699,
				"y": -0.5633758797,
				"z": -1.9099075414,
				"element": "C" 
			},
			{
				"x": -2.0379672815,
				"y": -0.4721419976,
				"z": -1.1801709516,
				"element": "C" 
			},
			{
				"x": -1.5828510745,
				"y": -1.9038718183,
				"z": -0.8164925611,
				"element": "C" 
			},
			{
				"x": -2.2207244404,
				"y": 0.4043262113,
				"z": 0.0800839158,
				"element": "C" 
			},
			{
				"x": -1.0446325592,
				"y": 0.1831794376,
				"z": -2.1592079504,
				"element": "C" 
			},
			{
				"x": -1.3886758734,
				"y": 0.5228919061,
				"z": -3.27781814,
				"element": "O" 
			},
			{
				"x": 0.3238794977,
				"y": 0.449658652,
				"z": -1.8704832754,
				"element": "N" 
			},
			{
				"x": 1.2147299729,
				"y": 0.2949617372,
				"z": -0.8390613314,
				"element": "C" 
			},
			{
				"x": 2.5655223051,
				"y": 0.7373602145,
				"z": -1.0166936911,
				"element": "C" 
			},
			{
				"x": 3.4691081371,
				"y": 0.6094655398,
				"z": -0.0443223724,
				"element": "N" 
			},
			{
				"x": 3.0994301702,
				"y": 0.0578205837,
				"z": 1.1127835918,
				"element": "C" 
			},
			{
				"x": 1.7832857423,
				"y": -0.3724262331,
				"z": 1.2836287045,
				"element": "C" 
			},
			{
				"x": 0.8593040129,
				"y": -0.2580700289,
				"z": 0.3316903182,
				"element": "N" 
			},
			{
				"x": 3.0870572543,
				"y": 1.3707231533,
				"z": -2.2760330751,
				"element": "C" 
			},
			{
				"x": 4.3778131492,
				"y": 1.7062684221,
				"z": -2.2212100962,
				"element": "O" 
			},
			{
				"x": 2.4053027961,
				"y": 1.566999195,
				"z": -3.2665370568,
				"element": "O" 
			},
			{
				"x": -3.7593144639,
				"y": 0.4244422641,
				"z": -2.1996609353,
				"element": "H" 
			},
			{
				"x": -4.1286780263,
				"y": -1.0258534272,
				"z": -1.242946976,
				"element": "H" 
			},
			{
				"x": -3.3194829948,
				"y": -1.166126923,
				"z": -2.8179506715,
				"element": "H" 
			},
			{
				"x": -0.6406590557,
				"y": -1.9106007046,
				"z": -0.2693539608,
				"element": "H" 
			},
			{
				"x": -2.3457208566,
				"y": -2.3698632581,
				"z": -0.1835576067,
				"element": "H" 
			},
			{
				"x": -1.478665298,
				"y": -2.5180383043,
				"z": -1.7173839982,
				"element": "H" 
			},
			{
				"x": -2.9885964514,
				"y": -0.045839979,
				"z": 0.7184058517,
				"element": "H" 
			},
			{
				"x": -2.5626727481,
				"y": 1.4085327861,
				"z": -0.1924595723,
				"element": "H" 
			},
			{
				"x": -1.3033157472,
				"y": 0.4857008097,
				"z": 0.6622098817,
				"element": "H" 
			},
			{
				"x": 0.7572470437,
				"y": 0.8878259594,
				"z": -2.6897673791,
				"element": "H" 
			},
			{
				"x": 3.8463619261,
				"y": -0.039219562,
				"z": 1.8942603129,
				"element": "H" 
			},
			{
				"x": 1.4627004575,
				"y": -0.8247962336,
				"z": 2.2198180674,
				"element": "H" 
			},
			{
				"x": 4.6921718759,
				"y": 1.4466674773,
				"z": -1.3289615014,
				"element": "H" 
			}
		],
		 "valence_orbital": [ 
			{
				"type": "occ",
				"energy": -0.32421,
				"method": "rhf"
			},
			{
				"type": "occ",
				"energy": -0.30039,
				"method": "rhf"
			},
			{
				"type": "occ",
				"energy": -0.28207,
				"method": "rhf"
			},
			{
				"type": "occ",
				"energy": -0.26069,
				"method": "rhf"
			},
			{
				"type": "occ",
				"energy": -0.25597,
				"method": "rhf"
			},
			{
				"type": "unocc",
				"energy": -0.09334,
				"method": "rhf"
			},
			{
				"type": "unocc",
				"energy": -0.06074,
				"method": "rhf"
			},
			{
				"type": "unocc",
				"energy": 0.01603,
				"method": "rhf"
			},
			{
				"type": "unocc",
				"energy": 0.02689,
				"method": "rhf"
			},
			{
				"type": "unocc",
				"energy": 0.08525,
				"method": "rhf"
			}
		],
		"cosmo_sigma_profile": { 
			"-0.025": 0.0,
			"-0.024": 0.0,
			"-0.023": 0.0,
			"-0.022": 0.0,
			"-0.021": 0.0,
			"-0.02": 0.0,
			"-0.019": 0.0,
			"-0.018": 0.0,
			"-0.017": 0.0,
			"-0.016": 0.0,
			"-0.015": 0.0,
			"-0.014": 0.171276051066,
			"-0.013": 0.411189931039,
			"-0.012": 0.761899234783,
			"-0.011": 0.587308681681,
			"-0.01": 0.637659576503,
			"-0.009": 2.77732456137,
			"-0.008": 6.57645235965,
			"-0.007": 5.31979668485,
			"-0.006": 7.19911110994,
			"-0.005": 9.73766637116,
			"-0.004": 14.8598427347,
			"-0.003": 28.2801271825,
			"-0.002": 28.2805807228,
			"-0.001": 29.2016679678,
			"0.0": 26.5903192145,
			"0.001": 25.5330528863,
			"0.002": 10.9268472423,
			"0.003": 7.02841154385,
			"0.004": 5.50003655664,
			"0.005": 4.34202745252,
			"0.006": 4.53156882608,
			"0.007": 4.10346128725,
			"0.008": 4.77173064265,
			"0.009": 6.16746495307,
			"0.01": 5.72285331545,
			"0.011": 5.24315395315,
			"0.012": 5.98523254588,
			"0.013": 1.2397251326,
			"0.014": 0.0,
			"0.015": 0.0,
			"0.016": 0.0,
			"0.017": 0.0,
			"0.018": 0.0,
			"0.019": 0.0,
			"0.02": 0.0,
			"0.021": 0.0,
			"0.022": 0.0,
			"0.023": 0.0,
			"0.024": 0.0,
			"0.025": 0.0
		}
	}
}
