{
	 "smiles": "[O-][N+](=O)C1=CC=C(C=C1)C1=C(Cl)C=C(C=C1)[N+]([O-])=O", 
	 "Tm": 418.15, 
	 "num_atms": 26, 
	 "gaussian": { 
		 "optdone": 1, 
		 "sigma_profile": "yes", 
		 "theory": "DFT", 
		 "functional": "B3LYP", 
		 "basiset": "6-31G**", 
		 "properties": { 
			 "R2extent": 8260.1561, 
			 "electric_dipole_moment_norm": 1.08645083184, 
			 "electric_quadrupole_moment_norm": 40.2249520477, 
			 "total_energy": -1331.88659552, 
			 "HOMO_LUMO_gap": 0.16288, 
			 "cosmo_polarized_energy": -13.74, 
			 "cosmo_cavitation_energy": 34.58, 
			 "cosmo_dispersion_energy": -24.84, 
			 "cosmo_repulsion_energy": 1.89, 
			 "cosmo_total_nonelectrostatic_energy": 11.63, 
			 "SMD_solvation_energy": 10.03 
		},
		"coords": [
			{
				"x": -5.1546630361,
				"y": 3.3074784924,
				"z": -0.9120609034,
				"element": "O" 
			},
			{
				"x": -5.1872619878,
				"y": 2.0800592236,
				"z": -0.9858754131,
				"element": "N" 
			},
			{
				"x": -6.1784325012,
				"y": 1.4188812068,
				"z": -1.2909109626,
				"element": "O" 
			},
			{
				"x": -3.9457335886,
				"y": 1.3467422164,
				"z": -0.6849462696,
				"element": "C" 
			},
			{
				"x": -2.8052398664,
				"y": 2.0657180484,
				"z": -0.33771049,
				"element": "C" 
			},
			{
				"x": -1.6379089671,
				"y": 1.3645841373,
				"z": -0.0506146302,
				"element": "C" 
			},
			{
				"x": -1.6041241761,
				"y": -0.0386320005,
				"z": -0.1177103762,
				"element": "C" 
			},
			{
				"x": -2.7739424581,
				"y": -0.7324029292,
				"z": -0.4713028063,
				"element": "C" 
			},
			{
				"x": -3.9494016288,
				"y": -0.0448862535,
				"z": -0.7537437019,
				"element": "C" 
			},
			{
				"x": -0.3531473386,
				"y": -0.7591932096,
				"z": 0.243216486,
				"element": "C" 
			},
			{
				"x": 0.2788420941,
				"y": -1.7055341333,
				"z": -0.5893938078,
				"element": "C" 
			},
			{
				"x": -0.3461575361,
				"y": -2.074867805,
				"z": -2.1862356096,
				"element": "Cl" 
			},
			{
				"x": 1.447596853,
				"y": -2.3542664782,
				"z": -0.1989692939,
				"element": "C" 
			},
			{
				"x": 1.9940587817,
				"y": -2.0509264149,
				"z": 1.0430536133,
				"element": "C" 
			},
			{
				"x": 1.415720082,
				"y": -1.1181300529,
				"z": 1.8980329498,
				"element": "C" 
			},
			{
				"x": 0.2501728165,
				"y": -0.4838712104,
				"z": 1.4848705408,
				"element": "C" 
			},
			{
				"x": 3.22911193,
				"y": -2.7401730446,
				"z": 1.4580921976,
				"element": "N" 
			},
			{
				"x": 3.7104061527,
				"y": -3.5616860718,
				"z": 0.6806328222,
				"element": "O" 
			},
			{
				"x": 3.6967814257,
				"y": -2.4468324391,
				"z": 2.5565301937,
				"element": "O" 
			},
			{
				"x": -2.8458584412,
				"y": 3.1469930868,
				"z": -0.3002946002,
				"element": "H" 
			},
			{
				"x": -0.7369508807,
				"y": 1.9102369153,
				"z": 0.2112337307,
				"element": "H" 
			},
			{
				"x": -2.7673490688,
				"y": -1.8157121899,
				"z": -0.5123541205,
				"element": "H" 
			},
			{
				"x": -4.8619691663,
				"y": -0.5632227567,
				"z": -1.0197141248,
				"element": "H" 
			},
			{
				"x": 1.9349848381,
				"y": -3.0739910864,
				"z": -0.8432371976,
				"element": "H" 
			},
			{
				"x": 1.8723099201,
				"y": -0.9108329964,
				"z": 2.8572520567,
				"element": "H" 
			},
			{
				"x": -0.2283442521,
				"y": 0.2338677452,
				"z": 2.143059717,
				"element": "H" 
			}
		],
		 "valence_orbital": [ 
			{
				"type": "occ",
				"energy": -0.30696,
				"method": "rhf"
			},
			{
				"type": "occ",
				"energy": -0.30018,
				"method": "rhf"
			},
			{
				"type": "occ",
				"energy": -0.29174,
				"method": "rhf"
			},
			{
				"type": "occ",
				"energy": -0.28915,
				"method": "rhf"
			},
			{
				"type": "occ",
				"energy": -0.27599,
				"method": "rhf"
			},
			{
				"type": "unocc",
				"energy": -0.11311,
				"method": "rhf"
			},
			{
				"type": "unocc",
				"energy": -0.09523,
				"method": "rhf"
			},
			{
				"type": "unocc",
				"energy": -0.05219,
				"method": "rhf"
			},
			{
				"type": "unocc",
				"energy": -0.04121,
				"method": "rhf"
			},
			{
				"type": "unocc",
				"energy": -0.03131,
				"method": "rhf"
			}
		],
		"cosmo_sigma_profile": { 
			"-0.025": 0.0,
			"-0.024": 0.0,
			"-0.023": 0.0,
			"-0.022": 0.0,
			"-0.021": 0.0,
			"-0.02": 0.0,
			"-0.019": 0.0,
			"-0.018": 0.0,
			"-0.017": 0.0,
			"-0.016": 0.0,
			"-0.015": 0.0,
			"-0.014": 0.0,
			"-0.013": 0.0,
			"-0.012": 0.0,
			"-0.011": 0.0,
			"-0.01": 0.0,
			"-0.009": 0.536242068449,
			"-0.008": 7.53517825653,
			"-0.007": 15.7565725953,
			"-0.006": 16.9627024847,
			"-0.005": 14.0068748843,
			"-0.004": 13.8389088697,
			"-0.003": 18.0620507147,
			"-0.002": 24.2967465609,
			"-0.001": 32.4413683248,
			"0.0": 24.3781695703,
			"0.001": 21.3999060348,
			"0.002": 12.3723114235,
			"0.003": 13.680318735,
			"0.004": 10.3573547372,
			"0.005": 5.01728328744,
			"0.006": 9.35061441031,
			"0.007": 17.7881630319,
			"0.008": 11.9525425567,
			"0.009": 8.33437737404,
			"0.01": 3.17282852334,
			"0.011": 0.0547305921168,
			"0.012": 0.0,
			"0.013": 0.0,
			"0.014": 0.0,
			"0.015": 0.0,
			"0.016": 0.0,
			"0.017": 0.0,
			"0.018": 0.0,
			"0.019": 0.0,
			"0.02": 0.0,
			"0.021": 0.0,
			"0.022": 0.0,
			"0.023": 0.0,
			"0.024": 0.0,
			"0.025": 0.0
		}
	}
}
