{
	 "smiles": "CCC(C)CC(O)CC", 
	 "Tm": 182.05, 
	 "num_atms": 27, 
	 "gaussian": { 
		 "optdone": 1, 
		 "sigma_profile": "yes", 
		 "theory": "DFT", 
		 "functional": "B3LYP", 
		 "basiset": "6-31G**", 
		 "properties": { 
			 "R2extent": 1804.4237, 
			 "electric_dipole_moment_norm": 1.70555359341, 
			 "electric_quadrupole_moment_norm": 5.29786761632, 
			 "total_energy": -390.932223557, 
			 "HOMO_LUMO_gap": 0.31578, 
			 "cosmo_polarized_energy": -5.83, 
			 "cosmo_cavitation_energy": 26.85, 
			 "cosmo_dispersion_energy": -18.93, 
			 "cosmo_repulsion_energy": 1.57, 
			 "cosmo_total_nonelectrostatic_energy": 9.49, 
			 "SMD_solvation_energy": 4.4 
		},
		"coords": [
			{
				"x": 1.1534757546,
				"y": -2.7349996377,
				"z": -1.6030820895,
				"element": "C" 
			},
			{
				"x": 1.3568305501,
				"y": -2.7131903591,
				"z": -0.0820208259,
				"element": "C" 
			},
			{
				"x": 1.1030627812,
				"y": -1.3793248442,
				"z": 0.6633649397,
				"element": "C" 
			},
			{
				"x": 2.121397659,
				"y": -0.2938802454,
				"z": 0.2770153363,
				"element": "C" 
			},
			{
				"x": -0.3742033823,
				"y": -0.9069846034,
				"z": 0.6156889028,
				"element": "C" 
			},
			{
				"x": -0.868961795,
				"y": -0.1292161811,
				"z": -0.6302806446,
				"element": "C" 
			},
			{
				"x": -2.2436085402,
				"y": -0.4326875234,
				"z": -0.9010256604,
				"element": "O" 
			},
			{
				"x": -0.8128818987,
				"y": 1.3907944877,
				"z": -0.4515560899,
				"element": "C" 
			},
			{
				"x": -1.2063784593,
				"y": 2.1665909788,
				"z": -1.7116607076,
				"element": "C" 
			},
			{
				"x": 0.1068769607,
				"y": -2.5768696941,
				"z": -1.8832222997,
				"element": "H" 
			},
			{
				"x": 1.4512137288,
				"y": -3.7066415399,
				"z": -2.0115669088,
				"element": "H" 
			},
			{
				"x": 1.7522247696,
				"y": -1.9715708257,
				"z": -2.1106443873,
				"element": "H" 
			},
			{
				"x": 2.3886115929,
				"y": -3.022029742,
				"z": 0.1337004595,
				"element": "H" 
			},
			{
				"x": 0.7153031043,
				"y": -3.4829557087,
				"z": 0.3679762509,
				"element": "H" 
			},
			{
				"x": 1.294296542,
				"y": -1.6149530865,
				"z": 1.7201126718,
				"element": "H" 
			},
			{
				"x": 3.1442543871,
				"y": -0.6665768157,
				"z": 0.4016425923,
				"element": "H" 
			},
			{
				"x": 2.0149887063,
				"y": 0.5931239676,
				"z": 0.9104188568,
				"element": "H" 
			},
			{
				"x": 2.0164491355,
				"y": 0.0301794471,
				"z": -0.763372328,
				"element": "H" 
			},
			{
				"x": -0.5802365829,
				"y": -0.291652902,
				"z": 1.5014076512,
				"element": "H" 
			},
			{
				"x": -1.0116866079,
				"y": -1.7946016728,
				"z": 0.7269302257,
				"element": "H" 
			},
			{
				"x": -0.2580506506,
				"y": -0.3963801414,
				"z": -1.5057984274,
				"element": "H" 
			},
			{
				"x": -2.3038319011,
				"y": -1.3720336113,
				"z": -1.116338381,
				"element": "H" 
			},
			{
				"x": 0.1963243618,
				"y": 1.6743788918,
				"z": -0.1342102641,
				"element": "H" 
			},
			{
				"x": -1.4881440941,
				"y": 1.6499670799,
				"z": 0.3744216093,
				"element": "H" 
			},
			{
				"x": -2.2118129744,
				"y": 1.8865425439,
				"z": -2.0352206328,
				"element": "H" 
			},
			{
				"x": -0.516279448,
				"y": 1.9565782873,
				"z": -2.5376284768,
				"element": "H" 
			},
			{
				"x": -1.1893336992,
				"y": 3.2465934504,
				"z": -1.5324513726,
				"element": "H" 
			}
		],
		 "valence_orbital": [ 
			{
				"type": "occ",
				"energy": -0.32669,
				"method": "rhf"
			},
			{
				"type": "occ",
				"energy": -0.31622,
				"method": "rhf"
			},
			{
				"type": "occ",
				"energy": -0.31323,
				"method": "rhf"
			},
			{
				"type": "occ",
				"energy": -0.29598,
				"method": "rhf"
			},
			{
				"type": "occ",
				"energy": -0.25476,
				"method": "rhf"
			},
			{
				"type": "unocc",
				"energy": 0.06102,
				"method": "rhf"
			},
			{
				"type": "unocc",
				"energy": 0.08649,
				"method": "rhf"
			},
			{
				"type": "unocc",
				"energy": 0.09958,
				"method": "rhf"
			},
			{
				"type": "unocc",
				"energy": 0.11988,
				"method": "rhf"
			},
			{
				"type": "unocc",
				"energy": 0.12956,
				"method": "rhf"
			}
		],
		"cosmo_sigma_profile": { 
			"-0.025": 0.0,
			"-0.024": 0.0,
			"-0.023": 0.0,
			"-0.022": 0.0,
			"-0.021": 0.0,
			"-0.02": 0.0,
			"-0.019": 0.0,
			"-0.018": 0.0,
			"-0.017": 0.0,
			"-0.016": 0.0,
			"-0.015": 0.0,
			"-0.014": 0.585308711331,
			"-0.013": 1.02782946426,
			"-0.012": 0.456037844645,
			"-0.011": 1.16324780798,
			"-0.01": 1.00101022732,
			"-0.009": 1.23453284157,
			"-0.008": 1.68517794297,
			"-0.007": 1.55424081012,
			"-0.006": 1.28714004965,
			"-0.005": 1.68123938498,
			"-0.004": 1.83543737846,
			"-0.003": 8.76433910642,
			"-0.002": 32.2895517393,
			"-0.001": 38.9463827407,
			"0.0": 38.4836431772,
			"0.001": 34.6974123196,
			"0.002": 18.0909532127,
			"0.003": 3.16116375271,
			"0.004": 1.92082702518,
			"0.005": 1.61467420102,
			"0.006": 1.19287695105,
			"0.007": 1.21107311248,
			"0.008": 1.63279806845,
			"0.009": 1.74706498061,
			"0.01": 1.83412411558,
			"0.011": 1.5331186973,
			"0.012": 1.48816714863,
			"0.013": 0.684645692217,
			"0.014": 1.76427197677,
			"0.015": 0.627306368314,
			"0.016": 0.042786742509,
			"0.017": 0.0,
			"0.018": 0.0,
			"0.019": 0.0,
			"0.02": 0.0,
			"0.021": 0.0,
			"0.022": 0.0,
			"0.023": 0.0,
			"0.024": 0.0,
			"0.025": 0.0
		}
	}
}
