{
	 "smiles": "COCCOC1=C(NC(=O)CCl)C=C(C=C1)C(F)(F)F", 
	 "Tm": 354.15, 
	 "num_atms": 33, 
	 "gaussian": { 
		 "optdone": 1, 
		 "sigma_profile": "yes", 
		 "theory": "DFT", 
		 "functional": "B3LYP", 
		 "basiset": "6-31G**", 
		 "properties": { 
			 "R2extent": 7443.7798, 
			 "electric_dipole_moment_norm": 3.1849773657, 
			 "electric_quadrupole_moment_norm": 11.93402956, 
			 "total_energy": -1505.23173061, 
			 "HOMO_LUMO_gap": 0.21163, 
			 "cosmo_polarized_energy": -15.21, 
			 "cosmo_cavitation_energy": 40.77, 
			 "cosmo_dispersion_energy": -26.34, 
			 "cosmo_repulsion_energy": 2.02, 
			 "cosmo_total_nonelectrostatic_energy": 16.44, 
			 "SMD_solvation_energy": 9.49 
		},
		"coords": [
			{
				"x": -1.1987529066,
				"y": 3.933383759,
				"z": -1.7229569425,
				"element": "C" 
			},
			{
				"x": -1.5544059501,
				"y": 3.1112376562,
				"z": -2.8234381545,
				"element": "O" 
			},
			{
				"x": -2.1504080906,
				"y": 1.8777195402,
				"z": -2.4822941847,
				"element": "C" 
			},
			{
				"x": -1.1560096795,
				"y": 0.7613442174,
				"z": -2.2018155378,
				"element": "C" 
			},
			{
				"x": -0.5365102704,
				"y": 0.977888308,
				"z": -0.9155447942,
				"element": "O" 
			},
			{
				"x": 0.4264082305,
				"y": 0.0551226258,
				"z": -0.5741119249,
				"element": "C" 
			},
			{
				"x": 0.0729311989,
				"y": -1.1255361494,
				"z": 0.1066933296,
				"element": "C" 
			},
			{
				"x": -1.2831875357,
				"y": -1.4380236893,
				"z": 0.3871178204,
				"element": "N" 
			},
			{
				"x": -2.2163149574,
				"y": -0.7544215638,
				"z": 1.1395590053,
				"element": "C" 
			},
			{
				"x": -3.3728363256,
				"y": -1.1397808117,
				"z": 1.1976755709,
				"element": "O" 
			},
			{
				"x": -1.7688886609,
				"y": 0.4853471574,
				"z": 1.9079198316,
				"element": "C" 
			},
			{
				"x": -0.5935588467,
				"y": 0.0822934536,
				"z": 3.230539329,
				"element": "Cl" 
			},
			{
				"x": 1.07590532,
				"y": -2.0389005831,
				"z": 0.445288876,
				"element": "C" 
			},
			{
				"x": 2.4069361708,
				"y": -1.7836667796,
				"z": 0.1199865017,
				"element": "C" 
			},
			{
				"x": 2.7567462871,
				"y": -0.5972895069,
				"z": -0.5314431228,
				"element": "C" 
			},
			{
				"x": 1.7656611977,
				"y": 0.317523869,
				"z": -0.872216768,
				"element": "C" 
			},
			{
				"x": 3.4815582304,
				"y": -2.7532534709,
				"z": 0.5344420447,
				"element": "C" 
			},
			{
				"x": 3.0016804034,
				"y": -4.0091408013,
				"z": 0.6675761978,
				"element": "F" 
			},
			{
				"x": 4.4875988227,
				"y": -2.7935938311,
				"z": -0.3675164917,
				"element": "F" 
			},
			{
				"x": 4.0322390528,
				"y": -2.4114920538,
				"z": 1.7205218378,
				"element": "F" 
			},
			{
				"x": -2.0608055737,
				"y": 4.1125936475,
				"z": -1.0620286759,
				"element": "H" 
			},
			{
				"x": -0.8734394674,
				"y": 4.8900505957,
				"z": -2.1392521446,
				"element": "H" 
			},
			{
				"x": -0.3863997722,
				"y": 3.5035178476,
				"z": -1.1254613983,
				"element": "H" 
			},
			{
				"x": -2.8348160745,
				"y": 1.9841483277,
				"z": -1.6259310965,
				"element": "H" 
			},
			{
				"x": -2.7467751179,
				"y": 1.5715433742,
				"z": -3.3502527996,
				"element": "H" 
			},
			{
				"x": -0.3840577818,
				"y": 0.746942576,
				"z": -2.9812448951,
				"element": "H" 
			},
			{
				"x": -1.6764098215,
				"y": -0.2061319563,
				"z": -2.1984665038,
				"element": "H" 
			},
			{
				"x": -1.6384624944,
				"y": -2.3244479737,
				"z": 0.0493195977,
				"element": "H" 
			},
			{
				"x": -2.6553171306,
				"y": 0.9012462774,
				"z": 2.3814571321,
				"element": "H" 
			},
			{
				"x": -1.2948596508,
				"y": 1.219724822,
				"z": 1.2588602948,
				"element": "H" 
			},
			{
				"x": 0.80648159,
				"y": -2.9494158739,
				"z": 0.9691704448,
				"element": "H" 
			},
			{
				"x": 3.7939486301,
				"y": -0.3987465006,
				"z": -0.7779379439,
				"element": "H" 
			},
			{
				"x": 2.0093209743,
				"y": 1.2417134907,
				"z": -1.3859144355,
				"element": "H" 
			}
		],
		 "valence_orbital": [ 
			{
				"type": "occ",
				"energy": -0.29471,
				"method": "rhf"
			},
			{
				"type": "occ",
				"energy": -0.27768,
				"method": "rhf"
			},
			{
				"type": "occ",
				"energy": -0.26707,
				"method": "rhf"
			},
			{
				"type": "occ",
				"energy": -0.26294,
				"method": "rhf"
			},
			{
				"type": "occ",
				"energy": -0.25531,
				"method": "rhf"
			},
			{
				"type": "unocc",
				"energy": -0.04368,
				"method": "rhf"
			},
			{
				"type": "unocc",
				"energy": -0.03866,
				"method": "rhf"
			},
			{
				"type": "unocc",
				"energy": -0.01887,
				"method": "rhf"
			},
			{
				"type": "unocc",
				"energy": 0.0499,
				"method": "rhf"
			},
			{
				"type": "unocc",
				"energy": 0.07148,
				"method": "rhf"
			}
		],
		"cosmo_sigma_profile": { 
			"-0.025": 0.0,
			"-0.024": 0.0,
			"-0.023": 0.0,
			"-0.022": 0.0,
			"-0.021": 0.0,
			"-0.02": 0.0,
			"-0.019": 0.0,
			"-0.018": 0.0,
			"-0.017": 0.0,
			"-0.016": 0.0365392855877,
			"-0.015": 0.80092473295,
			"-0.014": 1.09082142233,
			"-0.013": 1.17299453145,
			"-0.012": 0.827266845473,
			"-0.011": 1.02842203687,
			"-0.01": 1.10625685507,
			"-0.009": 1.34352483037,
			"-0.008": 4.76280488049,
			"-0.007": 7.46100809491,
			"-0.006": 12.4661084036,
			"-0.005": 22.2559295626,
			"-0.004": 27.7222187117,
			"-0.003": 24.020385913,
			"-0.002": 25.6807193317,
			"-0.001": 20.8733596095,
			"0.0": 20.8730080071,
			"0.001": 26.1243321726,
			"0.002": 34.4068461043,
			"0.003": 37.6059989359,
			"0.004": 11.7949335447,
			"0.005": 10.3729039445,
			"0.006": 6.28016226416,
			"0.007": 2.33637994644,
			"0.008": 2.35314707405,
			"0.009": 2.81674489619,
			"0.01": 2.67922806606,
			"0.011": 3.30063336038,
			"0.012": 6.09765304878,
			"0.013": 5.4481393527,
			"0.014": 0.449495582538,
			"0.015": 0.0,
			"0.016": 0.0,
			"0.017": 0.0,
			"0.018": 0.0,
			"0.019": 0.0,
			"0.02": 0.0,
			"0.021": 0.0,
			"0.022": 0.0,
			"0.023": 0.0,
			"0.024": 0.0,
			"0.025": 0.0
		}
	}
}
