{
	 "smiles": "ClC1=C(N2C=CSC2=N1)S(Cl)(=O)=O", 
	 "Tm": 411.15, 
	 "num_atms": 15, 
	 "gaussian": { 
		 "optdone": 1, 
		 "sigma_profile": "yes", 
		 "theory": "DFT", 
		 "functional": "B3LYP", 
		 "basiset": "6-31G**", 
		 "properties": { 
			 "R2extent": 4744.3774, 
			 "electric_dipole_moment_norm": 5.46215097008, 
			 "electric_quadrupole_moment_norm": 10.9063148799, 
			 "total_energy": -2168.33332091, 
			 "HOMO_LUMO_gap": 0.16659, 
			 "cosmo_polarized_energy": -11.33, 
			 "cosmo_cavitation_energy": 26.96, 
			 "cosmo_dispersion_energy": -20.95, 
			 "cosmo_repulsion_energy": 1.55, 
			 "cosmo_total_nonelectrostatic_energy": 7.56, 
			 "SMD_solvation_energy": 1.53 
		},
		"coords": [
			{
				"x": -3.7597084536,
				"y": 1.118986008,
				"z": 0.8600534228,
				"element": "Cl" 
			},
			{
				"x": -2.2498510044,
				"y": 0.7136242287,
				"z": 0.1550624469,
				"element": "C" 
			},
			{
				"x": -1.6810428454,
				"y": -0.5641790186,
				"z": 0.0719510422,
				"element": "C" 
			},
			{
				"x": -0.4831681889,
				"y": -0.363654413,
				"z": -0.6166980616,
				"element": "N" 
			},
			{
				"x": 0.6162507888,
				"y": -1.0951918127,
				"z": -1.0612360088,
				"element": "C" 
			},
			{
				"x": 1.5322282427,
				"y": -0.2928050675,
				"z": -1.6479616422,
				"element": "C" 
			},
			{
				"x": 1.06869429,
				"y": 1.4054755331,
				"z": -1.6544475637,
				"element": "S" 
			},
			{
				"x": -0.4125651855,
				"y": 0.9849931697,
				"z": -0.8455384837,
				"element": "C" 
			},
			{
				"x": -1.4586296701,
				"y": 1.6617899399,
				"z": -0.3906582833,
				"element": "N" 
			},
			{
				"x": -2.2745817035,
				"y": -2.1508928843,
				"z": 0.4437749237,
				"element": "S" 
			},
			{
				"x": -3.3245810776,
				"y": -2.7079451084,
				"z": -1.330923061,
				"element": "Cl" 
			},
			{
				"x": -3.2737110002,
				"y": -2.0726282723,
				"z": 1.4949163848,
				"element": "O" 
			},
			{
				"x": -1.1236686976,
				"y": -3.0490785433,
				"z": 0.5022783744,
				"element": "O" 
			},
			{
				"x": 0.6474373533,
				"y": -2.1633203551,
				"z": -0.9096671257,
				"element": "H" 
			},
			{
				"x": 2.4720971518,
				"y": -0.5964734044,
				"z": -2.0841063649,
				"element": "H" 
			}
		],
		 "valence_orbital": [ 
			{
				"type": "occ",
				"energy": -0.33438,
				"method": "rhf"
			},
			{
				"type": "occ",
				"energy": -0.32578,
				"method": "rhf"
			},
			{
				"type": "occ",
				"energy": -0.32036,
				"method": "rhf"
			},
			{
				"type": "occ",
				"energy": -0.27026,
				"method": "rhf"
			},
			{
				"type": "occ",
				"energy": -0.26585,
				"method": "rhf"
			},
			{
				"type": "unocc",
				"energy": -0.09926,
				"method": "rhf"
			},
			{
				"type": "unocc",
				"energy": -0.05182,
				"method": "rhf"
			},
			{
				"type": "unocc",
				"energy": -0.02694,
				"method": "rhf"
			},
			{
				"type": "unocc",
				"energy": -0.01054,
				"method": "rhf"
			},
			{
				"type": "unocc",
				"energy": 0.00785,
				"method": "rhf"
			}
		],
		"cosmo_sigma_profile": { 
			"-0.025": 0.0,
			"-0.024": 0.0,
			"-0.023": 0.0,
			"-0.022": 0.0,
			"-0.021": 0.0,
			"-0.02": 0.0,
			"-0.019": 0.0,
			"-0.018": 0.0,
			"-0.017": 0.0,
			"-0.016": 0.0,
			"-0.015": 0.0,
			"-0.014": 0.0,
			"-0.013": 0.0,
			"-0.012": 0.446908284419,
			"-0.011": 2.71922122892,
			"-0.01": 3.28629942963,
			"-0.009": 3.68654210987,
			"-0.008": 3.76549731102,
			"-0.007": 3.58295137489,
			"-0.006": 5.26818016999,
			"-0.005": 12.5951984502,
			"-0.004": 13.6339972109,
			"-0.003": 15.9733218681,
			"-0.002": 20.5873577689,
			"-0.001": 19.5400389421,
			"0.0": 18.3405210222,
			"0.001": 17.6372033371,
			"0.002": 20.9926229777,
			"0.003": 19.3505631593,
			"0.004": 9.83331729397,
			"0.005": 5.94192114152,
			"0.006": 5.25531307089,
			"0.007": 9.35992469189,
			"0.008": 8.8726316635,
			"0.009": 2.31746728576,
			"0.01": 0.312211371572,
			"0.011": 1.43547485596,
			"0.012": 0.876052855116,
			"0.013": 0.671526765359,
			"0.014": 0.00267428224246,
			"0.015": 0.0,
			"0.016": 0.0,
			"0.017": 0.0,
			"0.018": 0.0,
			"0.019": 0.0,
			"0.02": 0.0,
			"0.021": 0.0,
			"0.022": 0.0,
			"0.023": 0.0,
			"0.024": 0.0,
			"0.025": 0.0
		}
	}
}
