{
	 "smiles": "CC(=O)N1CCN(CC1)S(=O)(=O)C1=CC=C(C=C1)C(O)=O", 
	 "Tm": 551.15, 
	 "num_atms": 37, 
	 "gaussian": { 
		 "optdone": 1, 
		 "sigma_profile": "yes", 
		 "theory": "DFT", 
		 "functional": "B3LYP", 
		 "basiset": "6-31G**", 
		 "properties": { 
			 "R2extent": 7779.309, 
			 "electric_dipole_moment_norm": 2.83712808312, 
			 "electric_quadrupole_moment_norm": 33.8700832265, 
			 "total_energy": -1388.78120028, 
			 "HOMO_LUMO_gap": 0.16224, 
			 "cosmo_polarized_energy": -33.98, 
			 "cosmo_cavitation_energy": 41.55, 
			 "cosmo_dispersion_energy": -28.89, 
			 "cosmo_repulsion_energy": 2.15, 
			 "cosmo_total_nonelectrostatic_energy": 14.82, 
			 "SMD_solvation_energy": 6.71 
		},
		"coords": [
			{
				"x": 5.0556741748,
				"y": 0.9073237154,
				"z": 0.1703492553,
				"element": "C" 
			},
			{
				"x": 4.0744913147,
				"y": -0.1265626221,
				"z": -0.3650415283,
				"element": "C" 
			},
			{
				"x": 4.4297790287,
				"y": -1.2780830301,
				"z": -0.5885474076,
				"element": "O" 
			},
			{
				"x": 2.7764571358,
				"y": 0.2851876964,
				"z": -0.5978813956,
				"element": "N" 
			},
			{
				"x": 1.7924445751,
				"y": -0.6938486587,
				"z": -1.0592035671,
				"element": "C" 
			},
			{
				"x": 1.031158916,
				"y": -0.1533842947,
				"z": -2.2734966694,
				"element": "C" 
			},
			{
				"x": 0.4842846312,
				"y": 1.1859566641,
				"z": -2.0106750063,
				"element": "N" 
			},
			{
				"x": 1.4577695486,
				"y": 2.1554238471,
				"z": -1.4995961213,
				"element": "C" 
			},
			{
				"x": 2.2245650473,
				"y": 1.6001195236,
				"z": -0.2887573159,
				"element": "C" 
			},
			{
				"x": -1.1581133038,
				"y": 1.4330944473,
				"z": -1.8364959374,
				"element": "S" 
			},
			{
				"x": -1.8128056215,
				"y": 0.496946898,
				"z": -2.7513443594,
				"element": "O" 
			},
			{
				"x": -1.3623792804,
				"y": 2.8812557789,
				"z": -1.8977563511,
				"element": "O" 
			},
			{
				"x": -1.6238576289,
				"y": 0.9219173545,
				"z": -0.1678140912,
				"element": "C" 
			},
			{
				"x": -2.0285425677,
				"y": -0.395381955,
				"z": 0.0570226491,
				"element": "C" 
			},
			{
				"x": -2.3473397541,
				"y": -0.7963558716,
				"z": 1.35368342,
				"element": "C" 
			},
			{
				"x": -2.2693796898,
				"y": 0.1126189541,
				"z": 2.4184183883,
				"element": "C" 
			},
			{
				"x": -1.9031939731,
				"y": 1.4421638315,
				"z": 2.1658467279,
				"element": "C" 
			},
			{
				"x": -1.5747910342,
				"y": 1.8504477888,
				"z": 0.8769805564,
				"element": "C" 
			},
			{
				"x": -2.6129781607,
				"y": -0.2509387481,
				"z": 3.8361291816,
				"element": "C" 
			},
			{
				"x": -2.5831870944,
				"y": -1.5694103683,
				"z": 4.1579178288,
				"element": "O" 
			},
			{
				"x": -2.903769832,
				"y": 0.5719603149,
				"z": 4.6707400623,
				"element": "O" 
			},
			{
				"x": 6.0183424972,
				"y": 0.4095705569,
				"z": 0.2805788353,
				"element": "H" 
			},
			{
				"x": 5.171614502,
				"y": 1.7553096069,
				"z": -0.5126123064,
				"element": "H" 
			},
			{
				"x": 4.7452472231,
				"y": 1.2994511316,
				"z": 1.1445337787,
				"element": "H" 
			},
			{
				"x": 1.0856415526,
				"y": -0.9162675121,
				"z": -0.2461953106,
				"element": "H" 
			},
			{
				"x": 2.3336989651,
				"y": -1.6073122466,
				"z": -1.3077625003,
				"element": "H" 
			},
			{
				"x": 1.7140858403,
				"y": -0.0691019386,
				"z": -3.1285663157,
				"element": "H" 
			},
			{
				"x": 0.2171130422,
				"y": -0.8177833326,
				"z": -2.5664925512,
				"element": "H" 
			},
			{
				"x": 0.9413874486,
				"y": 3.0843534403,
				"z": -1.2535670747,
				"element": "H" 
			},
			{
				"x": 2.1670693948,
				"y": 2.3717190032,
				"z": -2.3094632386,
				"element": "H" 
			},
			{
				"x": 3.0234878456,
				"y": 2.2915992406,
				"z": -0.0208831988,
				"element": "H" 
			},
			{
				"x": 1.5435873081,
				"y": 1.5251832467,
				"z": 0.5727152341,
				"element": "H" 
			},
			{
				"x": -2.1223412018,
				"y": -1.080971461,
				"z": -0.7776866814,
				"element": "H" 
			},
			{
				"x": -2.7020035181,
				"y": -1.8118574714,
				"z": 1.5113402494,
				"element": "H" 
			},
			{
				"x": -1.8927459817,
				"y": 2.1409350549,
				"z": 2.9952119116,
				"element": "H" 
			},
			{
				"x": -1.3125736842,
				"y": 2.8819745232,
				"z": 0.6690927539,
				"element": "H" 
			},
			{
				"x": -2.1826976656,
				"y": -2.086753108,
				"z": 3.4457780957,
				"element": "H" 
			}
		],
		 "valence_orbital": [ 
			{
				"type": "occ",
				"energy": -0.29601,
				"method": "rhf"
			},
			{
				"type": "occ",
				"energy": -0.28909,
				"method": "rhf"
			},
			{
				"type": "occ",
				"energy": -0.27672,
				"method": "rhf"
			},
			{
				"type": "occ",
				"energy": -0.25799,
				"method": "rhf"
			},
			{
				"type": "occ",
				"energy": -0.24424,
				"method": "rhf"
			},
			{
				"type": "unocc",
				"energy": -0.082,
				"method": "rhf"
			},
			{
				"type": "unocc",
				"energy": -0.04779,
				"method": "rhf"
			},
			{
				"type": "unocc",
				"energy": 0.01265,
				"method": "rhf"
			},
			{
				"type": "unocc",
				"energy": 0.01436,
				"method": "rhf"
			},
			{
				"type": "unocc",
				"energy": 0.03507,
				"method": "rhf"
			}
		],
		"cosmo_sigma_profile": { 
			"-0.025": 0.0,
			"-0.024": 0.0,
			"-0.023": 0.0,
			"-0.022": 0.0,
			"-0.021": 0.0,
			"-0.02": 0.0,
			"-0.019": 0.551993809055,
			"-0.018": 1.05330948189,
			"-0.017": 0.953779113499,
			"-0.016": 1.11189194179,
			"-0.015": 0.824967000136,
			"-0.014": 1.12064925853,
			"-0.013": 1.13446725499,
			"-0.012": 1.73836464245,
			"-0.011": 1.6810350804,
			"-0.01": 2.59792867751,
			"-0.009": 3.9044091842,
			"-0.008": 7.62094809423,
			"-0.007": 13.0916273496,
			"-0.006": 23.5944822857,
			"-0.005": 26.9918551215,
			"-0.004": 28.4980140812,
			"-0.003": 26.6531365691,
			"-0.002": 18.5870815753,
			"-0.001": 19.7267120097,
			"0.0": 15.5257579563,
			"0.001": 17.8991288994,
			"0.002": 10.7597624545,
			"0.003": 7.80811797996,
			"0.004": 8.02050841768,
			"0.005": 7.49041579532,
			"0.006": 10.9925726834,
			"0.007": 7.22047321083,
			"0.008": 8.62111558074,
			"0.009": 8.19684802955,
			"0.01": 12.6892460068,
			"0.011": 14.1703610744,
			"0.012": 8.3666890826,
			"0.013": 3.62628760806,
			"0.014": 5.09755746134,
			"0.015": 1.75586615591,
			"0.016": 0.1343366954,
			"0.017": 0.0,
			"0.018": 0.0,
			"0.019": 0.0,
			"0.02": 0.0,
			"0.021": 0.0,
			"0.022": 0.0,
			"0.023": 0.0,
			"0.024": 0.0,
			"0.025": 0.0
		}
	}
}
