{
	 "smiles": "CCOC(=O)C1=CN2N=C(OP(=S)(OCC)OCC)C=C2N=C1C", 
	 "Tm": 324.15, 
	 "num_atms": 44, 
	 "gaussian": { 
		 "optdone": 1, 
		 "sigma_profile": "yes", 
		 "theory": "DFT", 
		 "functional": "B3LYP", 
		 "basiset": "6-31G**", 
		 "properties": { 
			 "R2extent": 13069.4358, 
			 "electric_dipole_moment_norm": 4.85507827434, 
			 "electric_quadrupole_moment_norm": 31.4105837771, 
			 "total_energy": -1825.52556243, 
			 "HOMO_LUMO_gap": 0.16855, 
			 "cosmo_polarized_energy": -17.11, 
			 "cosmo_cavitation_energy": 51.85, 
			 "cosmo_dispersion_energy": -35.62, 
			 "cosmo_repulsion_energy": 2.74, 
			 "cosmo_total_nonelectrostatic_energy": 18.97, 
			 "SMD_solvation_energy": 8.41 
		},
		"coords": [
			{
				"x": -4.8032607234,
				"y": -2.3462159426,
				"z": 3.037927247,
				"element": "C" 
			},
			{
				"x": -4.6427310987,
				"y": -2.5678594703,
				"z": 1.5418918267,
				"element": "C" 
			},
			{
				"x": -3.3534424658,
				"y": -2.0989662328,
				"z": 1.0739455488,
				"element": "O" 
			},
			{
				"x": -2.3174854253,
				"y": -2.9659106964,
				"z": 1.1805071788,
				"element": "C" 
			},
			{
				"x": -2.4310786835,
				"y": -4.0898247872,
				"z": 1.6309210093,
				"element": "O" 
			},
			{
				"x": -1.0514526065,
				"y": -2.3697208199,
				"z": 0.6778663753,
				"element": "C" 
			},
			{
				"x": -1.0667209749,
				"y": -1.0749303335,
				"z": 0.2011788425,
				"element": "C" 
			},
			{
				"x": 0.0800204634,
				"y": -0.5357029458,
				"z": -0.2523953073,
				"element": "N" 
			},
			{
				"x": 0.2289031662,
				"y": 0.7161800544,
				"z": -0.7520813792,
				"element": "N" 
			},
			{
				"x": 1.531415499,
				"y": 0.763580555,
				"z": -1.045909628,
				"element": "C" 
			},
			{
				"x": 2.0668369306,
				"y": 1.8659378366,
				"z": -1.6443097148,
				"element": "O" 
			},
			{
				"x": 2.1836245799,
				"y": 3.3550560547,
				"z": -0.9229852871,
				"element": "P" 
			},
			{
				"x": 3.077544467,
				"y": 4.5781609036,
				"z": -2.1209360624,
				"element": "S" 
			},
			{
				"x": 2.8325906742,
				"y": 3.0492666689,
				"z": 0.5150330999,
				"element": "O" 
			},
			{
				"x": 4.2697647695,
				"y": 2.9147679828,
				"z": 0.6724546708,
				"element": "C" 
			},
			{
				"x": 4.5492197481,
				"y": 2.7384485093,
				"z": 2.1522146132,
				"element": "C" 
			},
			{
				"x": 0.7136668686,
				"y": 3.7078946322,
				"z": -0.4001002986,
				"element": "O" 
			},
			{
				"x": -0.3696920222,
				"y": 3.9571884329,
				"z": -1.3376533558,
				"element": "C" 
			},
			{
				"x": -1.5671554382,
				"y": 4.4171074406,
				"z": -0.5303619829,
				"element": "C" 
			},
			{
				"x": 2.2411957729,
				"y": -0.4184290278,
				"z": -0.7655959813,
				"element": "C" 
			},
			{
				"x": 1.2809060755,
				"y": -1.2737604272,
				"z": -0.2418674475,
				"element": "C" 
			},
			{
				"x": 1.3160996345,
				"y": -2.5394392145,
				"z": 0.219155048,
				"element": "N" 
			},
			{
				"x": 0.2037603007,
				"y": -3.0932405437,
				"z": 0.6695798939,
				"element": "C" 
			},
			{
				"x": 0.325779715,
				"y": -4.5080114625,
				"z": 1.1662367436,
				"element": "C" 
			},
			{
				"x": -4.6561247363,
				"y": -1.2932161921,
				"z": 3.2953084467,
				"element": "H" 
			},
			{
				"x": -4.0857798653,
				"y": -2.9522063287,
				"z": 3.5963454573,
				"element": "H" 
			},
			{
				"x": -5.8122357456,
				"y": -2.6375128978,
				"z": 3.3479781713,
				"element": "H" 
			},
			{
				"x": -4.7452355889,
				"y": -3.6243491437,
				"z": 1.2847234035,
				"element": "H" 
			},
			{
				"x": -5.36491283,
				"y": -1.9819664057,
				"z": 0.9686729232,
				"element": "H" 
			},
			{
				"x": -1.9496875116,
				"y": -0.4516165765,
				"z": 0.1662138841,
				"element": "H" 
			},
			{
				"x": 4.609926233,
				"y": 2.0476587915,
				"z": 0.0952647174,
				"element": "H" 
			},
			{
				"x": 4.7533708158,
				"y": 3.8095666657,
				"z": 0.2694206994,
				"element": "H" 
			},
			{
				"x": 4.1975293073,
				"y": 3.6059490852,
				"z": 2.7171114448,
				"element": "H" 
			},
			{
				"x": 4.0511440262,
				"y": 1.8454934534,
				"z": 2.5396472789,
				"element": "H" 
			},
			{
				"x": 5.6267930541,
				"y": 2.6326199013,
				"z": 2.3128105273,
				"element": "H" 
			},
			{
				"x": -0.5818147644,
				"y": 3.0248237092,
				"z": -1.8684210921,
				"element": "H" 
			},
			{
				"x": -0.0459751471,
				"y": 4.7199405337,
				"z": -2.0532117619,
				"element": "H" 
			},
			{
				"x": -2.4092700411,
				"y": 4.6139230345,
				"z": -1.2016178027,
				"element": "H" 
			},
			{
				"x": -1.3381552117,
				"y": 5.3349213548,
				"z": 0.0179930243,
				"element": "H" 
			},
			{
				"x": -1.8653859565,
				"y": 3.6466618096,
				"z": 0.1857601206,
				"element": "H" 
			},
			{
				"x": 3.2862195532,
				"y": -0.6227331443,
				"z": -0.9292021219,
				"element": "H" 
			},
			{
				"x": 1.3633888728,
				"y": -4.8238714575,
				"z": 1.0530030292,
				"element": "H" 
			},
			{
				"x": 0.0211320629,
				"y": -4.5879893378,
				"z": 2.2133389684,
				"element": "H" 
			},
			{
				"x": -0.3338357538,
				"y": -5.1808740214,
				"z": 0.6114450291,
				"element": "H" 
			}
		],
		 "valence_orbital": [ 
			{
				"type": "occ",
				"energy": -0.27705,
				"method": "rhf"
			},
			{
				"type": "occ",
				"energy": -0.26227,
				"method": "rhf"
			},
			{
				"type": "occ",
				"energy": -0.24269,
				"method": "rhf"
			},
			{
				"type": "occ",
				"energy": -0.23937,
				"method": "rhf"
			},
			{
				"type": "occ",
				"energy": -0.2379,
				"method": "rhf"
			},
			{
				"type": "unocc",
				"energy": -0.06935,
				"method": "rhf"
			},
			{
				"type": "unocc",
				"energy": -0.04657,
				"method": "rhf"
			},
			{
				"type": "unocc",
				"energy": 0.02225,
				"method": "rhf"
			},
			{
				"type": "unocc",
				"energy": 0.04141,
				"method": "rhf"
			},
			{
				"type": "unocc",
				"energy": 0.05668,
				"method": "rhf"
			}
		],
		"cosmo_sigma_profile": { 
			"-0.025": 0.0,
			"-0.024": 0.0,
			"-0.023": 0.0,
			"-0.022": 0.0,
			"-0.021": 0.0,
			"-0.02": 0.0,
			"-0.019": 0.0,
			"-0.018": 0.0,
			"-0.017": 0.0,
			"-0.016": 0.0,
			"-0.015": 0.0,
			"-0.014": 0.0,
			"-0.013": 0.0,
			"-0.012": 0.0,
			"-0.011": 0.0,
			"-0.01": 0.668047575028,
			"-0.009": 1.30575141403,
			"-0.008": 2.41794369627,
			"-0.007": 2.85703607253,
			"-0.006": 8.419563818,
			"-0.005": 28.8872730406,
			"-0.004": 48.2878750238,
			"-0.003": 50.5038789758,
			"-0.002": 44.6311816595,
			"-0.001": 38.738772021,
			"0.0": 39.8714117391,
			"0.001": 20.7124465057,
			"0.002": 21.3522362066,
			"0.003": 15.5660873479,
			"0.004": 13.2245690345,
			"0.005": 11.2686468971,
			"0.006": 12.8562805668,
			"0.007": 15.2755589527,
			"0.008": 13.3138865069,
			"0.009": 11.0620403912,
			"0.01": 4.7837879403,
			"0.011": 3.32253351319,
			"0.012": 1.98815697918,
			"0.013": 0.479079426699,
			"0.014": 0.475023111552,
			"0.015": 0.0,
			"0.016": 0.0,
			"0.017": 0.0,
			"0.018": 0.0,
			"0.019": 0.0,
			"0.02": 0.0,
			"0.021": 0.0,
			"0.022": 0.0,
			"0.023": 0.0,
			"0.024": 0.0,
			"0.025": 0.0
		}
	}
}
