{
	 "smiles": "CCl", 
	 "Tm": 175.85, 
	 "num_atms": 5, 
	 "gaussian": { 
		 "optdone": 1, 
		 "sigma_profile": "yes", 
		 "theory": "DFT", 
		 "functional": "B3LYP", 
		 "basiset": "6-31G**", 
		 "properties": { 
			 "R2extent": 412.5464, 
			 "electric_dipole_moment_norm": 2.07708355874, 
			 "electric_quadrupole_moment_norm": 3.91154596675, 
			 "total_energy": -500.108380332, 
			 "HOMO_LUMO_gap": 0.32223, 
			 "cosmo_polarized_energy": -3.52, 
			 "cosmo_cavitation_energy": 9.67, 
			 "cosmo_dispersion_energy": -7.59, 
			 "cosmo_repulsion_energy": 0.77, 
			 "cosmo_total_nonelectrostatic_energy": 2.85, 
			 "SMD_solvation_energy": 2.31 
		},
		"coords": [
			{
				"x": 1.2596838557,
				"y": 1.1841676999,
				"z": 0.0237136743,
				"element": "C" 
			},
			{
				"x": 1.6297205114,
				"y": -0.0945871576,
				"z": 1.2397455381,
				"element": "Cl" 
			},
			{
				"x": 1.4767814302,
				"y": 0.7902390167,
				"z": -0.9684031609,
				"element": "H" 
			},
			{
				"x": 1.8843856564,
				"y": 2.0514580356,
				"z": 0.2338584053,
				"element": "H" 
			},
			{
				"x": 0.2054285462,
				"y": 1.4452224055,
				"z": 0.1072855432,
				"element": "H" 
			}
		],
		 "valence_orbital": [ 
			{
				"type": "occ",
				"energy": -0.45157,
				"method": "rhf"
			},
			{
				"type": "occ",
				"energy": -0.45156,
				"method": "rhf"
			},
			{
				"type": "occ",
				"energy": -0.41203,
				"method": "rhf"
			},
			{
				"type": "occ",
				"energy": -0.29643,
				"method": "rhf"
			},
			{
				"type": "occ",
				"energy": -0.29643,
				"method": "rhf"
			},
			{
				"type": "unocc",
				"energy": 0.0258,
				"method": "rhf"
			},
			{
				"type": "unocc",
				"energy": 0.10659,
				"method": "rhf"
			},
			{
				"type": "unocc",
				"energy": 0.14303,
				"method": "rhf"
			},
			{
				"type": "unocc",
				"energy": 0.14303,
				"method": "rhf"
			},
			{
				"type": "unocc",
				"energy": 0.4085,
				"method": "rhf"
			}
		],
		"cosmo_sigma_profile": { 
			"-0.025": 0.0,
			"-0.024": 0.0,
			"-0.023": 0.0,
			"-0.022": 0.0,
			"-0.021": 0.0,
			"-0.02": 0.0,
			"-0.019": 0.0,
			"-0.018": 0.0,
			"-0.017": 0.0,
			"-0.016": 0.0,
			"-0.015": 0.0,
			"-0.014": 0.0,
			"-0.013": 0.0,
			"-0.012": 0.0,
			"-0.011": 0.0,
			"-0.01": 0.0,
			"-0.009": 0.0,
			"-0.008": 0.649586035017,
			"-0.007": 5.46271119661,
			"-0.006": 4.92258196529,
			"-0.005": 7.08806842915,
			"-0.004": 7.30574609812,
			"-0.003": 8.10061957161,
			"-0.002": 3.52413048291,
			"-0.001": 1.90115009007,
			"0.0": 3.89074552747,
			"0.001": 3.95148215888,
			"0.002": 3.37300160755,
			"0.003": 2.79643540161,
			"0.004": 3.83305591471,
			"0.005": 5.25909363119,
			"0.006": 8.218160228,
			"0.007": 8.51734852951,
			"0.008": 0.0278036993059,
			"0.009": 0.0,
			"0.01": 0.0,
			"0.011": 0.0,
			"0.012": 0.0,
			"0.013": 0.0,
			"0.014": 0.0,
			"0.015": 0.0,
			"0.016": 0.0,
			"0.017": 0.0,
			"0.018": 0.0,
			"0.019": 0.0,
			"0.02": 0.0,
			"0.021": 0.0,
			"0.022": 0.0,
			"0.023": 0.0,
			"0.024": 0.0,
			"0.025": 0.0
		}
	}
}
