{
	 "smiles": "COC1=CC2=C(C=C1)C(=O)C(=O)N2", 
	 "Tm": 497.15, 
	 "num_atms": 20, 
	 "gaussian": { 
		 "optdone": 1, 
		 "sigma_profile": "yes", 
		 "theory": "DFT", 
		 "functional": "B3LYP", 
		 "basiset": "6-31G**", 
		 "properties": { 
			 "R2extent": 2859.3178, 
			 "electric_dipole_moment_norm": 7.45513186604, 
			 "electric_quadrupole_moment_norm": 19.6751788668, 
			 "total_energy": -627.589643442, 
			 "HOMO_LUMO_gap": 0.14272, 
			 "cosmo_polarized_energy": -18.35, 
			 "cosmo_cavitation_energy": 25.29, 
			 "cosmo_dispersion_energy": -18.71, 
			 "cosmo_repulsion_energy": 1.47, 
			 "cosmo_total_nonelectrostatic_energy": 8.05, 
			 "SMD_solvation_energy": 6.51 
		},
		"coords": [
			{
				"x": 1.4408897191,
				"y": 0.7940378146,
				"z": 3.8900405924,
				"element": "C" 
			},
			{
				"x": 0.4173834448,
				"y": 0.0553476136,
				"z": 3.2335087651,
				"element": "O" 
			},
			{
				"x": 0.2378794741,
				"y": 0.2178119336,
				"z": 1.9012255691,
				"element": "C" 
			},
			{
				"x": 1.0153961093,
				"y": 1.0873552728,
				"z": 1.1120807031,
				"element": "C" 
			},
			{
				"x": 0.7166703493,
				"y": 1.15110858,
				"z": -0.2428593636,
				"element": "C" 
			},
			{
				"x": -0.3166463552,
				"y": 0.3849261797,
				"z": -0.8169593858,
				"element": "C" 
			},
			{
				"x": -1.0763150982,
				"y": -0.4719462386,
				"z": -0.0156658484,
				"element": "C" 
			},
			{
				"x": -0.8009377412,
				"y": -0.5565015241,
				"z": 1.3405630358,
				"element": "C" 
			},
			{
				"x": -0.3660945329,
				"y": 0.6851015103,
				"z": -2.2475872783,
				"element": "C" 
			},
			{
				"x": -1.0895318272,
				"y": 0.2633415781,
				"z": -3.1262418778,
				"element": "O" 
			},
			{
				"x": 0.7767872861,
				"y": 1.7399039319,
				"z": -2.4771316812,
				"element": "C" 
			},
			{
				"x": 1.1057004663,
				"y": 2.275534756,
				"z": -3.510157963,
				"element": "O" 
			},
			{
				"x": 1.3418967357,
				"y": 1.9329829373,
				"z": -1.2216242785,
				"element": "N" 
			},
			{
				"x": 1.3932470337,
				"y": 0.5009831347,
				"z": 4.9392009657,
				"element": "H" 
			},
			{
				"x": 2.432128892,
				"y": 0.5486768421,
				"z": 3.4900412571,
				"element": "H" 
			},
			{
				"x": 1.2714702574,
				"y": 1.8744327597,
				"z": 3.8076112329,
				"element": "H" 
			},
			{
				"x": 1.8133129468,
				"y": 1.6836493199,
				"z": 1.5366937391,
				"element": "H" 
			},
			{
				"x": -1.8717476816,
				"y": -1.0606737157,
				"z": -0.4621581551,
				"element": "H" 
			},
			{
				"x": -1.3638901598,
				"y": -1.2072158437,
				"z": 1.9998691749,
				"element": "H" 
			},
			{
				"x": 2.1107006815,
				"y": 2.5665431578,
				"z": -1.0593492035,
				"element": "H" 
			}
		],
		 "valence_orbital": [ 
			{
				"type": "occ",
				"energy": -0.31102,
				"method": "rhf"
			},
			{
				"type": "occ",
				"energy": -0.30351,
				"method": "rhf"
			},
			{
				"type": "occ",
				"energy": -0.26042,
				"method": "rhf"
			},
			{
				"type": "occ",
				"energy": -0.24005,
				"method": "rhf"
			},
			{
				"type": "occ",
				"energy": -0.22995,
				"method": "rhf"
			},
			{
				"type": "unocc",
				"energy": -0.08723,
				"method": "rhf"
			},
			{
				"type": "unocc",
				"energy": -0.01893,
				"method": "rhf"
			},
			{
				"type": "unocc",
				"energy": 0.01761,
				"method": "rhf"
			},
			{
				"type": "unocc",
				"energy": 0.07159,
				"method": "rhf"
			},
			{
				"type": "unocc",
				"energy": 0.08072,
				"method": "rhf"
			}
		],
		"cosmo_sigma_profile": { 
			"-0.025": 0.0,
			"-0.024": 0.0,
			"-0.023": 0.0,
			"-0.022": 0.0,
			"-0.021": 0.0,
			"-0.02": 0.0,
			"-0.019": 0.0,
			"-0.018": 0.0,
			"-0.017": 0.256388619068,
			"-0.016": 1.71322214128,
			"-0.015": 1.06037012806,
			"-0.014": 1.3005110553,
			"-0.013": 1.27196131117,
			"-0.012": 0.979567116229,
			"-0.011": 1.74678248544,
			"-0.01": 1.16094479091,
			"-0.009": 1.26866721646,
			"-0.008": 3.30644446091,
			"-0.007": 8.58918240286,
			"-0.006": 14.634623387,
			"-0.005": 15.0580198219,
			"-0.004": 15.2585838538,
			"-0.003": 11.6401409407,
			"-0.002": 11.6880123907,
			"-0.001": 10.3011370919,
			"0.0": 11.659492017,
			"0.001": 14.3279315046,
			"0.002": 15.8287842273,
			"0.003": 9.35942977959,
			"0.004": 5.63105905466,
			"0.005": 3.86069024167,
			"0.006": 3.26182244215,
			"0.007": 3.93599005116,
			"0.008": 4.9015131233,
			"0.009": 4.88085866407,
			"0.01": 6.50329421373,
			"0.011": 10.3937445964,
			"0.012": 6.27249249149,
			"0.013": 0.946041933155,
			"0.014": 0.0,
			"0.015": 0.0,
			"0.016": 0.0,
			"0.017": 0.0,
			"0.018": 0.0,
			"0.019": 0.0,
			"0.02": 0.0,
			"0.021": 0.0,
			"0.022": 0.0,
			"0.023": 0.0,
			"0.024": 0.0,
			"0.025": 0.0
		}
	}
}
