{
	 "smiles": "NCCCCC(O)=O", 
	 "Tm": 433.15, 
	 "num_atms": 19, 
	 "gaussian": { 
		 "optdone": 1, 
		 "sigma_profile": "yes", 
		 "theory": "DFT", 
		 "functional": "B3LYP", 
		 "basiset": "6-31G**", 
		 "properties": { 
			 "R2extent": 1497.0919, 
			 "electric_dipole_moment_norm": 4.39714369449, 
			 "electric_quadrupole_moment_norm": 12.8149054745, 
			 "total_energy": -402.368213571, 
			 "HOMO_LUMO_gap": 0.24138, 
			 "cosmo_polarized_energy": -17.41, 
			 "cosmo_cavitation_energy": 21.93, 
			 "cosmo_dispersion_energy": -15.98, 
			 "cosmo_repulsion_energy": 1.38, 
			 "cosmo_total_nonelectrostatic_energy": 7.34, 
			 "SMD_solvation_energy": 3.46 
		},
		"coords": [
			{
				"x": 2.053553711,
				"y": 0.5184671104,
				"z": -2.8364241945,
				"element": "N" 
			},
			{
				"x": 2.0075545364,
				"y": 0.6035137131,
				"z": -1.3729692494,
				"element": "C" 
			},
			{
				"x": 0.9461396076,
				"y": -0.3542536017,
				"z": -0.8237167701,
				"element": "C" 
			},
			{
				"x": 0.8875730173,
				"y": -0.4416310455,
				"z": 0.7095571797,
				"element": "C" 
			},
			{
				"x": 0.4051578055,
				"y": 0.8297734979,
				"z": 1.4213165728,
				"element": "C" 
			},
			{
				"x": -1.0740153905,
				"y": 1.1285615692,
				"z": 1.1996711051,
				"element": "C" 
			},
			{
				"x": -1.5040632536,
				"y": 2.3234600289,
				"z": 1.6933860496,
				"element": "O" 
			},
			{
				"x": -1.8556043518,
				"y": 0.3906897408,
				"z": 0.6537875184,
				"element": "O" 
			},
			{
				"x": 2.7601321619,
				"y": 1.1520285142,
				"z": -3.202142275,
				"element": "H" 
			},
			{
				"x": 1.1652576858,
				"y": 0.8299682152,
				"z": -3.2241093715,
				"element": "H" 
			},
			{
				"x": 2.9935836366,
				"y": 0.3084306386,
				"z": -0.9896662619,
				"element": "H" 
			},
			{
				"x": 1.8230603978,
				"y": 1.6272316048,
				"z": -0.9966201228,
				"element": "H" 
			},
			{
				"x": 1.1570425406,
				"y": -1.350060558,
				"z": -1.2292269711,
				"element": "H" 
			},
			{
				"x": -0.0429039462,
				"y": -0.0700185971,
				"z": -1.2035924275,
				"element": "H" 
			},
			{
				"x": 1.8806653839,
				"y": -0.698461318,
				"z": 1.0996749856,
				"element": "H" 
			},
			{
				"x": 0.2155404879,
				"y": -1.2586597577,
				"z": 0.9902350882,
				"element": "H" 
			},
			{
				"x": 0.5541283224,
				"y": 0.7322271632,
				"z": 2.5061866467,
				"element": "H" 
			},
			{
				"x": 0.9915420821,
				"y": 1.7064465202,
				"z": 1.1156688789,
				"element": "H" 
			},
			{
				"x": -0.7674444347,
				"y": 2.7984865614,
				"z": 2.1036836189,
				"element": "H" 
			}
		],
		 "valence_orbital": [ 
			{
				"type": "occ",
				"energy": -0.33321,
				"method": "rhf"
			},
			{
				"type": "occ",
				"energy": -0.33036,
				"method": "rhf"
			},
			{
				"type": "occ",
				"energy": -0.31465,
				"method": "rhf"
			},
			{
				"type": "occ",
				"energy": -0.27148,
				"method": "rhf"
			},
			{
				"type": "occ",
				"energy": -0.23217,
				"method": "rhf"
			},
			{
				"type": "unocc",
				"energy": 0.00921,
				"method": "rhf"
			},
			{
				"type": "unocc",
				"energy": 0.0519,
				"method": "rhf"
			},
			{
				"type": "unocc",
				"energy": 0.08387,
				"method": "rhf"
			},
			{
				"type": "unocc",
				"energy": 0.09091,
				"method": "rhf"
			},
			{
				"type": "unocc",
				"energy": 0.11972,
				"method": "rhf"
			}
		],
		"cosmo_sigma_profile": { 
			"-0.025": 0.0,
			"-0.024": 0.0,
			"-0.023": 0.0,
			"-0.022": 0.0,
			"-0.021": 0.0,
			"-0.02": 0.0,
			"-0.019": 0.400228364384,
			"-0.018": 0.91185521938,
			"-0.017": 0.997581562398,
			"-0.016": 1.36105203066,
			"-0.015": 1.01008226538,
			"-0.014": 0.604611174073,
			"-0.013": 1.38083564759,
			"-0.012": 1.00665021898,
			"-0.011": 1.14796932971,
			"-0.01": 1.98231326307,
			"-0.009": 3.93962934417,
			"-0.008": 3.53591095058,
			"-0.007": 5.52071397748,
			"-0.006": 7.42627906753,
			"-0.005": 8.11623416742,
			"-0.004": 7.76828092481,
			"-0.003": 14.0231245761,
			"-0.002": 20.3893505663,
			"-0.001": 15.0141369146,
			"0.0": 12.787350143,
			"0.001": 6.62788026855,
			"0.002": 4.68807738411,
			"0.003": 3.64144094838,
			"0.004": 3.43000910042,
			"0.005": 3.33697008546,
			"0.006": 2.74338355218,
			"0.007": 3.80882429404,
			"0.008": 4.03294420758,
			"0.009": 4.16901395548,
			"0.01": 3.70820281219,
			"0.011": 6.3211012078,
			"0.012": 6.58760143272,
			"0.013": 3.16139311118,
			"0.014": 0.59681533433,
			"0.015": 0.469084054866,
			"0.016": 0.839291895931,
			"0.017": 0.31174845225,
			"0.018": 0.565285227449,
			"0.019": 0.656229238035,
			"0.02": 0.463114431861,
			"0.021": 0.0463849935141,
			"0.022": 0.0,
			"0.023": 0.0,
			"0.024": 0.0,
			"0.025": 0.0
		}
	}
}
