{
	 "smiles": "CN1C=CSC1=NC1=CC=C(C)C=C1C", 
	 "Tm": 317.15, 
	 "num_atms": 29, 
	 "gaussian": { 
		 "optdone": 1, 
		 "sigma_profile": "yes", 
		 "theory": "DFT", 
		 "functional": "B3LYP", 
		 "basiset": "6-31G**", 
		 "properties": { 
			 "R2extent": 6491.1885, 
			 "electric_dipole_moment_norm": 3.99523157276, 
			 "electric_quadrupole_moment_norm": 20.1441421532, 
			 "total_energy": -973.391024008, 
			 "HOMO_LUMO_gap": 0.17821, 
			 "cosmo_polarized_energy": -10.18, 
			 "cosmo_cavitation_energy": 33.39, 
			 "cosmo_dispersion_energy": -24.03, 
			 "cosmo_repulsion_energy": 1.84, 
			 "cosmo_total_nonelectrostatic_energy": 11.19, 
			 "SMD_solvation_energy": 4.99 
		},
		"coords": [
			{
				"x": -3.3046399249,
				"y": 1.6172437641,
				"z": 1.9763844532,
				"element": "C" 
			},
			{
				"x": -3.2914673188,
				"y": 0.6020862271,
				"z": 3.0271413933,
				"element": "N" 
			},
			{
				"x": -4.2749860155,
				"y": 0.559439804,
				"z": 4.0161801123,
				"element": "C" 
			},
			{
				"x": -4.0019775728,
				"y": -0.2394918693,
				"z": 5.0604109559,
				"element": "C" 
			},
			{
				"x": -2.4392881275,
				"y": -1.0207397183,
				"z": 4.8642387717,
				"element": "S" 
			},
			{
				"x": -2.174390173,
				"y": -0.1955399405,
				"z": 3.2912452325,
				"element": "C" 
			},
			{
				"x": -1.0829166003,
				"y": -0.3767686744,
				"z": 2.6537113484,
				"element": "N" 
			},
			{
				"x": -0.8256792122,
				"y": -0.1067722301,
				"z": 1.3059397619,
				"element": "C" 
			},
			{
				"x": -1.6597220857,
				"y": -0.5761949469,
				"z": 0.2764770935,
				"element": "C" 
			},
			{
				"x": -1.3237117514,
				"y": -0.3827694966,
				"z": -1.0638365293,
				"element": "C" 
			},
			{
				"x": -0.1462899359,
				"y": 0.2788244014,
				"z": -1.4224360126,
				"element": "C" 
			},
			{
				"x": 0.2216177336,
				"y": 0.510861148,
				"z": -2.8694904515,
				"element": "C" 
			},
			{
				"x": 0.6902135048,
				"y": 0.7239764339,
				"z": -0.3873412846,
				"element": "C" 
			},
			{
				"x": 0.3869524146,
				"y": 0.5398370622,
				"z": 0.9618292355,
				"element": "C" 
			},
			{
				"x": 1.3157719566,
				"y": 1.0166035494,
				"z": 2.049107975,
				"element": "C" 
			},
			{
				"x": -2.3522708203,
				"y": 2.1528484188,
				"z": 1.9595097332,
				"element": "H" 
			},
			{
				"x": -4.1030743168,
				"y": 2.3288869444,
				"z": 2.1943361644,
				"element": "H" 
			},
			{
				"x": -3.4647824038,
				"y": 1.178341299,
				"z": 0.9885970158,
				"element": "H" 
			},
			{
				"x": -5.1639689696,
				"y": 1.1608883024,
				"z": 3.8783710831,
				"element": "H" 
			},
			{
				"x": -4.6196936033,
				"y": -0.4173633409,
				"z": 5.9273366567,
				"element": "H" 
			},
			{
				"x": -2.5596992687,
				"y": -1.1264681802,
				"z": 0.5381839088,
				"element": "H" 
			},
			{
				"x": -1.9855024547,
				"y": -0.7626452402,
				"z": -1.8389612229,
				"element": "H" 
			},
			{
				"x": 1.2542172139,
				"y": 0.2077457975,
				"z": -3.0764153338,
				"element": "H" 
			},
			{
				"x": -0.431975653,
				"y": -0.0527734827,
				"z": -3.5418054213,
				"element": "H" 
			},
			{
				"x": 0.1391700715,
				"y": 1.5704989218,
				"z": -3.143156524,
				"element": "H" 
			},
			{
				"x": 1.6207602866,
				"y": 1.2284327,
				"z": -0.6428720701,
				"element": "H" 
			},
			{
				"x": 1.5275707325,
				"y": 0.2103239651,
				"z": 2.7592460703,
				"element": "H" 
			},
			{
				"x": 2.2597097139,
				"y": 1.3787393592,
				"z": 1.632045893,
				"element": "H" 
			},
			{
				"x": 0.8704525803,
				"y": 1.8306490217,
				"z": 2.6345219916,
				"element": "H" 
			}
		],
		 "valence_orbital": [ 
			{
				"type": "occ",
				"energy": -0.28388,
				"method": "rhf"
			},
			{
				"type": "occ",
				"energy": -0.2782,
				"method": "rhf"
			},
			{
				"type": "occ",
				"energy": -0.23023,
				"method": "rhf"
			},
			{
				"type": "occ",
				"energy": -0.21197,
				"method": "rhf"
			},
			{
				"type": "occ",
				"energy": -0.18221,
				"method": "rhf"
			},
			{
				"type": "unocc",
				"energy": -0.004,
				"method": "rhf"
			},
			{
				"type": "unocc",
				"energy": 0.01239,
				"method": "rhf"
			},
			{
				"type": "unocc",
				"energy": 0.01728,
				"method": "rhf"
			},
			{
				"type": "unocc",
				"energy": 0.0214,
				"method": "rhf"
			},
			{
				"type": "unocc",
				"energy": 0.04364,
				"method": "rhf"
			}
		],
		"cosmo_sigma_profile": { 
			"-0.025": 0.0,
			"-0.024": 0.0,
			"-0.023": 0.0,
			"-0.022": 0.0,
			"-0.021": 0.0,
			"-0.02": 0.0,
			"-0.019": 0.0,
			"-0.018": 0.0,
			"-0.017": 0.0,
			"-0.016": 0.0,
			"-0.015": 0.0,
			"-0.014": 0.0,
			"-0.013": 0.0,
			"-0.012": 0.0,
			"-0.011": 0.0,
			"-0.01": 1.00057768741,
			"-0.009": 4.53692567563,
			"-0.008": 4.22217684194,
			"-0.007": 4.78426666406,
			"-0.006": 5.36853396608,
			"-0.005": 9.19575857318,
			"-0.004": 20.0505708313,
			"-0.003": 29.8042416923,
			"-0.002": 25.7522067295,
			"-0.001": 22.697818999,
			"0.0": 24.7207536904,
			"0.001": 23.4995202086,
			"0.002": 19.7828425089,
			"0.003": 15.717205018,
			"0.004": 15.0540151582,
			"0.005": 13.8937880809,
			"0.006": 11.7788086111,
			"0.007": 7.14133526931,
			"0.008": 2.88480364282,
			"0.009": 1.62740351723,
			"0.01": 1.24290285506,
			"0.011": 0.878947202106,
			"0.012": 0.777587840714,
			"0.013": 0.618126943037,
			"0.014": 0.128125294103,
			"0.015": 0.0,
			"0.016": 0.0,
			"0.017": 0.0,
			"0.018": 0.0,
			"0.019": 0.0,
			"0.02": 0.0,
			"0.021": 0.0,
			"0.022": 0.0,
			"0.023": 0.0,
			"0.024": 0.0,
			"0.025": 0.0
		}
	}
}
