{
	 "smiles": "NC1=NNC(=C1)C1CCOCC1", 
	 "Tm": 377.15, 
	 "num_atms": 25, 
	 "gaussian": { 
		 "optdone": 1, 
		 "sigma_profile": "yes", 
		 "theory": "DFT", 
		 "functional": "B3LYP", 
		 "basiset": "6-31G**", 
		 "properties": { 
			 "R2extent": 3670.7481, 
			 "electric_dipole_moment_norm": 1.93474987789, 
			 "electric_quadrupole_moment_norm": 12.3151010804, 
			 "total_energy": -552.135987155, 
			 "HOMO_LUMO_gap": 0.23145, 
			 "cosmo_polarized_energy": -14.41, 
			 "cosmo_cavitation_energy": 26.37, 
			 "cosmo_dispersion_energy": -19.99, 
			 "cosmo_repulsion_energy": 1.61, 
			 "cosmo_total_nonelectrostatic_energy": 7.99, 
			 "SMD_solvation_energy": 2.85 
		},
		"coords": [
			{
				"x": -4.4570186347,
				"y": -3.5565291678,
				"z": -0.3917194962,
				"element": "N" 
			},
			{
				"x": -3.6640804533,
				"y": -2.4121743769,
				"z": -0.2693484726,
				"element": "C" 
			},
			{
				"x": -3.1966743869,
				"y": -1.7888846595,
				"z": -1.3485438096,
				"element": "N" 
			},
			{
				"x": -2.416654162,
				"y": -0.7919196659,
				"z": -0.8411150223,
				"element": "N" 
			},
			{
				"x": -2.3935365111,
				"y": -0.7580201008,
				"z": 0.5214480368,
				"element": "C" 
			},
			{
				"x": -3.1996307365,
				"y": -1.8090632243,
				"z": 0.9288841514,
				"element": "C" 
			},
			{
				"x": -1.6300773966,
				"y": 0.2262072103,
				"z": 1.3715474018,
				"element": "C" 
			},
			{
				"x": -0.0888371184,
				"y": 0.1530553628,
				"z": 1.2038679813,
				"element": "C" 
			},
			{
				"x": 0.405787864,
				"y": 0.9231275919,
				"z": -0.0230084787,
				"element": "C" 
			},
			{
				"x": -0.0387252916,
				"y": 2.2732793989,
				"z": -0.0177549407,
				"element": "O" 
			},
			{
				"x": -1.4563857551,
				"y": 2.3701370095,
				"z": -0.0245265838,
				"element": "C" 
			},
			{
				"x": -2.0815021804,
				"y": 1.701487238,
				"z": 1.2024030129,
				"element": "C" 
			},
			{
				"x": -4.8024219303,
				"y": -3.6655667866,
				"z": -1.3381688639,
				"element": "H" 
			},
			{
				"x": -5.2201514898,
				"y": -3.5873564258,
				"z": 0.2727951156,
				"element": "H" 
			},
			{
				"x": -1.9473544759,
				"y": -0.1798583233,
				"z": -1.4864612685,
				"element": "H" 
			},
			{
				"x": -3.4065771667,
				"y": -2.1071329352,
				"z": 1.9464531648,
				"element": "H" 
			},
			{
				"x": -1.8598315757,
				"y": -0.068645759,
				"z": 2.4011412706,
				"element": "H" 
			},
			{
				"x": 0.3736777888,
				"y": 0.6017749869,
				"z": 2.0912639355,
				"element": "H" 
			},
			{
				"x": 0.2421598387,
				"y": -0.8899073609,
				"z": 1.1519163004,
				"element": "H" 
			},
			{
				"x": 1.4989223642,
				"y": 0.9626738378,
				"z": -0.0399735431,
				"element": "H" 
			},
			{
				"x": 0.0861050255,
				"y": 0.421157864,
				"z": -0.9536143208,
				"element": "H" 
			},
			{
				"x": -1.6885633327,
				"y": 3.4390974542,
				"z": -0.042754676,
				"element": "H" 
			},
			{
				"x": -1.8630081194,
				"y": 1.9354279273,
				"z": -0.9551905017,
				"element": "H" 
			},
			{
				"x": -1.7618533769,
				"y": 2.2614902931,
				"z": 2.0895298305,
				"element": "H" 
			},
			{
				"x": -3.1739687871,
				"y": 1.7650426112,
				"z": 1.1495297763,
				"element": "H" 
			}
		],
		 "valence_orbital": [ 
			{
				"type": "occ",
				"energy": -0.30395,
				"method": "rhf"
			},
			{
				"type": "occ",
				"energy": -0.2761,
				"method": "rhf"
			},
			{
				"type": "occ",
				"energy": -0.25497,
				"method": "rhf"
			},
			{
				"type": "occ",
				"energy": -0.22934,
				"method": "rhf"
			},
			{
				"type": "occ",
				"energy": -0.19891,
				"method": "rhf"
			},
			{
				"type": "unocc",
				"energy": 0.03254,
				"method": "rhf"
			},
			{
				"type": "unocc",
				"energy": 0.05998,
				"method": "rhf"
			},
			{
				"type": "unocc",
				"energy": 0.08115,
				"method": "rhf"
			},
			{
				"type": "unocc",
				"energy": 0.08555,
				"method": "rhf"
			},
			{
				"type": "unocc",
				"energy": 0.10838,
				"method": "rhf"
			}
		],
		"cosmo_sigma_profile": { 
			"-0.025": 0.0,
			"-0.024": 0.0,
			"-0.023": 0.0,
			"-0.022": 0.0,
			"-0.021": 0.0,
			"-0.02": 0.0,
			"-0.019": 0.0,
			"-0.018": 0.0,
			"-0.017": 0.0,
			"-0.016": 0.0,
			"-0.015": 0.11125381069,
			"-0.014": 0.818874174791,
			"-0.013": 1.17927499657,
			"-0.012": 2.37544788084,
			"-0.011": 3.36143188655,
			"-0.01": 3.86363307997,
			"-0.009": 3.59870069758,
			"-0.008": 3.35865252305,
			"-0.007": 2.9273400898,
			"-0.006": 4.61680509309,
			"-0.005": 9.74238998452,
			"-0.004": 18.3722523227,
			"-0.003": 28.9533228887,
			"-0.002": 23.6611893844,
			"-0.001": 16.0216516137,
			"0.0": 12.1330291046,
			"0.001": 4.97729965464,
			"0.002": 5.46736910582,
			"0.003": 7.07971220448,
			"0.004": 5.03080618474,
			"0.005": 5.67224661396,
			"0.006": 6.65215087009,
			"0.007": 6.92304340461,
			"0.008": 4.68937071876,
			"0.009": 3.35614752075,
			"0.01": 3.41264564885,
			"0.011": 3.19043929294,
			"0.012": 3.62401818905,
			"0.013": 3.95319525325,
			"0.014": 2.65379375706,
			"0.015": 1.37847377983,
			"0.016": 1.84191670942,
			"0.017": 0.820564954747,
			"0.018": 0.036725488451,
			"0.019": 0.0,
			"0.02": 0.0,
			"0.021": 0.0,
			"0.022": 0.0,
			"0.023": 0.0,
			"0.024": 0.0,
			"0.025": 0.0
		}
	}
}
