{
	 "smiles": "NNC1=NC(=NC(=C1)C(F)(F)F)C1=NC=CC=C1", 
	 "Tm": 443.15, 
	 "num_atms": 26, 
	 "gaussian": { 
		 "optdone": 1, 
		 "sigma_profile": "yes", 
		 "theory": "DFT", 
		 "functional": "B3LYP", 
		 "basiset": "6-31G**", 
		 "properties": { 
			 "R2extent": 5223.4433, 
			 "electric_dipole_moment_norm": 4.67883991391, 
			 "electric_quadrupole_moment_norm": 17.5614446228, 
			 "total_energy": -959.138307588, 
			 "HOMO_LUMO_gap": 0.17781, 
			 "cosmo_polarized_energy": -18.86, 
			 "cosmo_cavitation_energy": 33.13, 
			 "cosmo_dispersion_energy": -23.48, 
			 "cosmo_repulsion_energy": 1.76, 
			 "cosmo_total_nonelectrostatic_energy": 11.42, 
			 "SMD_solvation_energy": 4.31 
		},
		"coords": [
			{
				"x": 3.0840288597,
				"y": 1.0313221335,
				"z": -2.3837515598,
				"element": "N" 
			},
			{
				"x": 2.1390814166,
				"y": 1.9154542038,
				"z": -1.8386513546,
				"element": "N" 
			},
			{
				"x": 1.118986648,
				"y": 1.5195157566,
				"z": -1.0217066836,
				"element": "C" 
			},
			{
				"x": 0.9257120373,
				"y": 0.2059325094,
				"z": -0.8570640764,
				"element": "N" 
			},
			{
				"x": -0.0947265173,
				"y": -0.175866012,
				"z": -0.0649250105,
				"element": "C" 
			},
			{
				"x": -0.9331234852,
				"y": 0.6389809415,
				"z": 0.5772662523,
				"element": "N" 
			},
			{
				"x": -0.7161662086,
				"y": 1.9502549889,
				"z": 0.4010296777,
				"element": "C" 
			},
			{
				"x": 0.2900980244,
				"y": 2.4729378156,
				"z": -0.3826964908,
				"element": "C" 
			},
			{
				"x": -1.6788511849,
				"y": 2.860790653,
				"z": 1.1426600489,
				"element": "C" 
			},
			{
				"x": -1.6161026348,
				"y": 2.655939025,
				"z": 2.4693147938,
				"element": "F" 
			},
			{
				"x": -1.393364149,
				"y": 4.1656013282,
				"z": 0.9167457358,
				"element": "F" 
			},
			{
				"x": -2.9465177582,
				"y": 2.6491730751,
				"z": 0.7503297239,
				"element": "F" 
			},
			{
				"x": -0.2884789316,
				"y": -1.6513537051,
				"z": 0.0973595161,
				"element": "C" 
			},
			{
				"x": -1.2703946116,
				"y": -2.0538359277,
				"z": 0.9194487103,
				"element": "N" 
			},
			{
				"x": -1.4561225429,
				"y": -3.3653321716,
				"z": 1.0740809053,
				"element": "C" 
			},
			{
				"x": -0.6892878084,
				"y": -4.3408214769,
				"z": 0.4303588469,
				"element": "C" 
			},
			{
				"x": 0.3286751787,
				"y": -3.9177528116,
				"z": -0.4221732225,
				"element": "C" 
			},
			{
				"x": 0.5358950088,
				"y": -2.5515810429,
				"z": -0.593890769,
				"element": "C" 
			},
			{
				"x": 2.6115933043,
				"y": 0.4627273355,
				"z": -3.0850805324,
				"element": "H" 
			},
			{
				"x": 3.3753071929,
				"y": 0.3832580127,
				"z": -1.6515797971,
				"element": "H" 
			},
			{
				"x": 2.4161726063,
				"y": 2.8849787411,
				"z": -1.8450308818,
				"element": "H" 
			},
			{
				"x": 0.432778824,
				"y": 3.5396888341,
				"z": -0.5016898153,
				"element": "H" 
			},
			{
				"x": -2.2602651677,
				"y": -3.6564511347,
				"z": 1.7482259744,
				"element": "H" 
			},
			{
				"x": -0.888520907,
				"y": -5.3950025552,
				"z": 0.5959039274,
				"element": "H" 
			},
			{
				"x": 0.9510029506,
				"y": -4.6381833121,
				"z": -0.945362791,
				"element": "H" 
			},
			{
				"x": 1.3123898557,
				"y": -2.1699752042,
				"z": -1.244721128,
				"element": "H" 
			}
		],
		 "valence_orbital": [ 
			{
				"type": "occ",
				"energy": -0.28769,
				"method": "rhf"
			},
			{
				"type": "occ",
				"energy": -0.26683,
				"method": "rhf"
			},
			{
				"type": "occ",
				"energy": -0.25995,
				"method": "rhf"
			},
			{
				"type": "occ",
				"energy": -0.24616,
				"method": "rhf"
			},
			{
				"type": "occ",
				"energy": -0.24128,
				"method": "rhf"
			},
			{
				"type": "unocc",
				"energy": -0.06347,
				"method": "rhf"
			},
			{
				"type": "unocc",
				"energy": -0.03731,
				"method": "rhf"
			},
			{
				"type": "unocc",
				"energy": -0.01714,
				"method": "rhf"
			},
			{
				"type": "unocc",
				"energy": 0.02016,
				"method": "rhf"
			},
			{
				"type": "unocc",
				"energy": 0.06747,
				"method": "rhf"
			}
		],
		"cosmo_sigma_profile": { 
			"-0.025": 0.0,
			"-0.024": 0.0,
			"-0.023": 0.0,
			"-0.022": 0.0,
			"-0.021": 0.0,
			"-0.02": 0.0,
			"-0.019": 0.0,
			"-0.018": 0.0,
			"-0.017": 0.0,
			"-0.016": 0.0758045334602,
			"-0.015": 1.19206319609,
			"-0.014": 1.65333304811,
			"-0.013": 1.34777820098,
			"-0.012": 1.31553463274,
			"-0.011": 3.61752663659,
			"-0.01": 3.19797488825,
			"-0.009": 4.4111556061,
			"-0.008": 3.87157238346,
			"-0.007": 8.48673114802,
			"-0.006": 12.2213906089,
			"-0.005": 12.5257181728,
			"-0.004": 10.9726942959,
			"-0.003": 13.6254753006,
			"-0.002": 15.8723787979,
			"-0.001": 18.6513127875,
			"0.0": 20.7987785602,
			"0.001": 22.4237465051,
			"0.002": 41.0990920989,
			"0.003": 28.9070885617,
			"0.004": 7.50669214923,
			"0.005": 5.42957663906,
			"0.006": 3.23772854159,
			"0.007": 2.80071290605,
			"0.008": 2.59143383233,
			"0.009": 2.69700887569,
			"0.01": 2.63931118952,
			"0.011": 1.39704966428,
			"0.012": 1.74119639811,
			"0.013": 1.94400325362,
			"0.014": 1.6475979787,
			"0.015": 1.49120726019,
			"0.016": 1.19880779607,
			"0.017": 1.23067604253,
			"0.018": 0.449074602217,
			"0.019": 0.965599892135,
			"0.02": 0.642209767766,
			"0.021": 0.256002855604,
			"0.022": 0.0,
			"0.023": 0.0,
			"0.024": 0.0,
			"0.025": 0.0
		}
	}
}
