{
	 "smiles": "CC1=C(C)C=C(C=C1)C1=NN(C=C1C=O)C1=CC=CC=C1", 
	 "Tm": 376.15, 
	 "num_atms": 37, 
	 "gaussian": { 
		 "optdone": 1, 
		 "sigma_profile": "yes", 
		 "theory": "DFT", 
		 "functional": "B3LYP", 
		 "basiset": "6-31G**", 
		 "properties": { 
			 "R2extent": 9789.4758, 
			 "electric_dipole_moment_norm": 3.23325343733, 
			 "electric_quadrupole_moment_norm": 32.7804562024, 
			 "total_energy": -880.279734178, 
			 "HOMO_LUMO_gap": 0.16916, 
			 "cosmo_polarized_energy": -12.41, 
			 "cosmo_cavitation_energy": 41.41, 
			 "cosmo_dispersion_energy": -29.37, 
			 "cosmo_repulsion_energy": 2.22, 
			 "cosmo_total_nonelectrostatic_energy": 14.26, 
			 "SMD_solvation_energy": 7.4 
		},
		"coords": [
			{
				"x": 5.403723403,
				"y": -0.5264789669,
				"z": 0.1232807805,
				"element": "C" 
			},
			{
				"x": 3.9523862698,
				"y": -0.8372386487,
				"z": 0.3975030825,
				"element": "C" 
			},
			{
				"x": 2.9285672958,
				"y": 0.0405454164,
				"z": -0.0254960976,
				"element": "C" 
			},
			{
				"x": 3.2600234406,
				"y": 1.3155609341,
				"z": -0.7642493782,
				"element": "C" 
			},
			{
				"x": 1.5983502646,
				"y": -0.2854044718,
				"z": 0.2419420892,
				"element": "C" 
			},
			{
				"x": 1.2426532931,
				"y": -1.4620021617,
				"z": 0.9209360769,
				"element": "C" 
			},
			{
				"x": 2.2651969561,
				"y": -2.3185722825,
				"z": 1.3487710573,
				"element": "C" 
			},
			{
				"x": 3.5965496824,
				"y": -2.0032412579,
				"z": 1.0826597286,
				"element": "C" 
			},
			{
				"x": -0.1770141963,
				"y": -1.7545850164,
				"z": 1.186874085,
				"element": "C" 
			},
			{
				"x": -1.0246453912,
				"y": -0.7576729618,
				"z": 1.4370879689,
				"element": "N" 
			},
			{
				"x": -2.2411304539,
				"y": -1.3465410112,
				"z": 1.6277345216,
				"element": "N" 
			},
			{
				"x": -2.1763498162,
				"y": -2.6927455832,
				"z": 1.5128267908,
				"element": "C" 
			},
			{
				"x": -0.8601299565,
				"y": -3.0166177265,
				"z": 1.2155286334,
				"element": "C" 
			},
			{
				"x": -0.3955033005,
				"y": -4.3699469425,
				"z": 0.9151187509,
				"element": "C" 
			},
			{
				"x": -1.0992439521,
				"y": -5.3636846608,
				"z": 1.0140132662,
				"element": "O" 
			},
			{
				"x": -3.3746809888,
				"y": -0.5427774185,
				"z": 1.9342680605,
				"element": "C" 
			},
			{
				"x": -4.6663638536,
				"y": -1.035290254,
				"z": 1.7192431642,
				"element": "C" 
			},
			{
				"x": -5.7658919799,
				"y": -0.2417448813,
				"z": 2.043239601,
				"element": "C" 
			},
			{
				"x": -5.5847246593,
				"y": 1.0407503886,
				"z": 2.5635546007,
				"element": "C" 
			},
			{
				"x": -4.2906812534,
				"y": 1.5281185155,
				"z": 2.7592183326,
				"element": "C" 
			},
			{
				"x": -3.181873804,
				"y": 0.7427947561,
				"z": 2.4505944809,
				"element": "C" 
			},
			{
				"x": 5.7068859329,
				"y": 0.4256919267,
				"z": 0.5756427173,
				"element": "H" 
			},
			{
				"x": 6.0566097531,
				"y": -1.3076289539,
				"z": 0.5212120326,
				"element": "H" 
			},
			{
				"x": 5.6029074255,
				"y": -0.4400040721,
				"z": -0.9519385441,
				"element": "H" 
			},
			{
				"x": 3.9015393377,
				"y": 1.9741689132,
				"z": -0.1661390694,
				"element": "H" 
			},
			{
				"x": 2.3535127861,
				"y": 1.8717362314,
				"z": -1.0157799935,
				"element": "H" 
			},
			{
				"x": 3.7995396137,
				"y": 1.1144340815,
				"z": -1.6978203374,
				"element": "H" 
			},
			{
				"x": 0.8066435147,
				"y": 0.3821430491,
				"z": -0.084330825,
				"element": "H" 
			},
			{
				"x": 2.0287043863,
				"y": -3.2120929981,
				"z": 1.9174652148,
				"element": "H" 
			},
			{
				"x": 4.3798089703,
				"y": -2.6750456864,
				"z": 1.4246722774,
				"element": "H" 
			},
			{
				"x": -3.0272991926,
				"y": -3.3414512802,
				"z": 1.646864511,
				"element": "H" 
			},
			{
				"x": 0.6524290787,
				"y": -4.4500408763,
				"z": 0.5633822241,
				"element": "H" 
			},
			{
				"x": -4.8173966479,
				"y": -2.0176017447,
				"z": 1.2848946849,
				"element": "H" 
			},
			{
				"x": -6.767005409,
				"y": -0.6268962941,
				"z": 1.8747332073,
				"element": "H" 
			},
			{
				"x": -6.4444360984,
				"y": 1.6563849267,
				"z": 2.8094366984,
				"element": "H" 
			},
			{
				"x": -4.1393288287,
				"y": 2.5256055399,
				"z": 3.1609142137,
				"element": "H" 
			},
			{
				"x": -2.171831622,
				"y": 1.1037714722,
				"z": 2.598741392,
				"element": "H" 
			}
		],
		 "valence_orbital": [ 
			{
				"type": "occ",
				"energy": -0.26349,
				"method": "rhf"
			},
			{
				"type": "occ",
				"energy": -0.24898,
				"method": "rhf"
			},
			{
				"type": "occ",
				"energy": -0.24712,
				"method": "rhf"
			},
			{
				"type": "occ",
				"energy": -0.24022,
				"method": "rhf"
			},
			{
				"type": "occ",
				"energy": -0.22084,
				"method": "rhf"
			},
			{
				"type": "unocc",
				"energy": -0.05168,
				"method": "rhf"
			},
			{
				"type": "unocc",
				"energy": -0.03399,
				"method": "rhf"
			},
			{
				"type": "unocc",
				"energy": -0.01469,
				"method": "rhf"
			},
			{
				"type": "unocc",
				"energy": -0.00014,
				"method": "rhf"
			},
			{
				"type": "unocc",
				"energy": 0.00426,
				"method": "rhf"
			}
		],
		"cosmo_sigma_profile": { 
			"-0.025": 0.0,
			"-0.024": 0.0,
			"-0.023": 0.0,
			"-0.022": 0.0,
			"-0.021": 0.0,
			"-0.02": 0.0,
			"-0.019": 0.0,
			"-0.018": 0.0,
			"-0.017": 0.0,
			"-0.016": 0.0,
			"-0.015": 0.0,
			"-0.014": 0.0,
			"-0.013": 0.0,
			"-0.012": 0.0,
			"-0.011": 1.00178506984,
			"-0.01": 1.90620575105,
			"-0.009": 1.85177795036,
			"-0.008": 2.30888002724,
			"-0.007": 4.99411321987,
			"-0.006": 13.2082238004,
			"-0.005": 20.9695337289,
			"-0.004": 32.3514760001,
			"-0.003": 27.0140693701,
			"-0.002": 26.3640595198,
			"-0.001": 27.098232833,
			"0.0": 33.6776087251,
			"0.001": 29.8308170974,
			"0.002": 20.2197903502,
			"0.003": 20.0074144481,
			"0.004": 21.9472477952,
			"0.005": 17.1723011566,
			"0.006": 6.51372953243,
			"0.007": 3.22105922161,
			"0.008": 3.1619343011,
			"0.009": 2.98718241377,
			"0.01": 3.50379524283,
			"0.011": 3.30630767178,
			"0.012": 4.72483140943,
			"0.013": 1.69604874098,
			"0.014": 0.279492870746,
			"0.015": 0.0,
			"0.016": 0.0,
			"0.017": 0.0,
			"0.018": 0.0,
			"0.019": 0.0,
			"0.02": 0.0,
			"0.021": 0.0,
			"0.022": 0.0,
			"0.023": 0.0,
			"0.024": 0.0,
			"0.025": 0.0
		}
	}
}
