{
	 "smiles": "CC(=O)NS(=O)(=O)C1=CC=C(N)C=C1", 
	 "Tm": 455.15, 
	 "num_atms": 24, 
	 "gaussian": { 
		 "optdone": 1, 
		 "sigma_profile": "yes", 
		 "theory": "DFT", 
		 "functional": "B3LYP", 
		 "basiset": "6-31G**", 
		 "properties": { 
			 "R2extent": 3460.02, 
			 "electric_dipole_moment_norm": 6.37736878501, 
			 "electric_quadrupole_moment_norm": 20.6892647378, 
			 "total_energy": -1044.18834045, 
			 "HOMO_LUMO_gap": 0.19865, 
			 "cosmo_polarized_energy": -23.65, 
			 "cosmo_cavitation_energy": 29.8, 
			 "cosmo_dispersion_energy": -22.08, 
			 "cosmo_repulsion_energy": 1.72, 
			 "cosmo_total_nonelectrostatic_energy": 9.44, 
			 "SMD_solvation_energy": 5.3 
		},
		"coords": [
			{
				"x": 3.3676103008,
				"y": -1.1727687833,
				"z": -0.8758463671,
				"element": "C" 
			},
			{
				"x": 1.9631900785,
				"y": -1.1750115101,
				"z": -0.2955598328,
				"element": "C" 
			},
			{
				"x": 1.688846751,
				"y": -1.6282189889,
				"z": 0.7999138824,
				"element": "O" 
			},
			{
				"x": 1.0086706088,
				"y": -0.608470713,
				"z": -1.1305708267,
				"element": "N" 
			},
			{
				"x": -0.6995870512,
				"y": -0.6876038836,
				"z": -0.9012858141,
				"element": "S" 
			},
			{
				"x": -1.1856866308,
				"y": 0.0014907449,
				"z": -2.1008941789,
				"element": "O" 
			},
			{
				"x": -1.0649956891,
				"y": -2.0683449073,
				"z": -0.6073096267,
				"element": "O" 
			},
			{
				"x": -1.0215155019,
				"y": 0.3190436215,
				"z": 0.5211282573,
				"element": "C" 
			},
			{
				"x": -1.4094437944,
				"y": 1.650616034,
				"z": 0.3392980934,
				"element": "C" 
			},
			{
				"x": -1.6877274822,
				"y": 2.4409197846,
				"z": 1.4453457361,
				"element": "C" 
			},
			{
				"x": -1.5826163401,
				"y": 1.9125012288,
				"z": 2.7483306022,
				"element": "C" 
			},
			{
				"x": -1.9055044835,
				"y": 2.6846807776,
				"z": 3.8481313272,
				"element": "N" 
			},
			{
				"x": -1.1931074521,
				"y": 0.5664350426,
				"z": 2.9076900695,
				"element": "C" 
			},
			{
				"x": -0.9167716172,
				"y": -0.2281258064,
				"z": 1.8052448301,
				"element": "C" 
			},
			{
				"x": 3.6160327026,
				"y": -0.21566669,
				"z": -1.3449554111,
				"element": "H" 
			},
			{
				"x": 4.074449795,
				"y": -1.3827789086,
				"z": -0.0731825467,
				"element": "H" 
			},
			{
				"x": 3.4540604701,
				"y": -1.9559743038,
				"z": -1.6370183243,
				"element": "H" 
			},
			{
				"x": 1.253414763,
				"y": -0.263327057,
				"z": -2.0512832499,
				"element": "H" 
			},
			{
				"x": -1.5046042098,
				"y": 2.0508200656,
				"z": -0.6641027085,
				"element": "H" 
			},
			{
				"x": -2.0004620748,
				"y": 3.4726292741,
				"z": 1.3086682655,
				"element": "H" 
			},
			{
				"x": -1.8972730984,
				"y": 3.6863200549,
				"z": 3.7269936138,
				"element": "H" 
			},
			{
				"x": -1.5559005093,
				"y": 2.3785714436,
				"z": 4.7437812565,
				"element": "H" 
			},
			{
				"x": -1.11495117,
				"y": 0.1470636213,
				"z": 3.9071014162,
				"element": "H" 
			},
			{
				"x": -0.6045283649,
				"y": -1.2579001415,
				"z": 1.9274815368,
				"element": "H" 
			}
		],
		 "valence_orbital": [ 
			{
				"type": "occ",
				"energy": -0.30058,
				"method": "rhf"
			},
			{
				"type": "occ",
				"energy": -0.28573,
				"method": "rhf"
			},
			{
				"type": "occ",
				"energy": -0.26857,
				"method": "rhf"
			},
			{
				"type": "occ",
				"energy": -0.2607,
				"method": "rhf"
			},
			{
				"type": "occ",
				"energy": -0.22202,
				"method": "rhf"
			},
			{
				"type": "unocc",
				"energy": -0.02337,
				"method": "rhf"
			},
			{
				"type": "unocc",
				"energy": -0.01265,
				"method": "rhf"
			},
			{
				"type": "unocc",
				"energy": 0.00439,
				"method": "rhf"
			},
			{
				"type": "unocc",
				"energy": 0.0506,
				"method": "rhf"
			},
			{
				"type": "unocc",
				"energy": 0.06833,
				"method": "rhf"
			}
		],
		"cosmo_sigma_profile": { 
			"-0.025": 0.0,
			"-0.024": 0.0,
			"-0.023": 0.0,
			"-0.022": 0.0,
			"-0.021": 0.0,
			"-0.02": 0.0,
			"-0.019": 0.0,
			"-0.018": 0.0,
			"-0.017": 0.0605871321258,
			"-0.016": 0.942610493018,
			"-0.015": 0.570965526172,
			"-0.014": 1.63634376005,
			"-0.013": 4.03403146451,
			"-0.012": 3.39083062466,
			"-0.011": 5.62587160089,
			"-0.01": 4.82718492005,
			"-0.009": 3.48794408965,
			"-0.008": 5.20361053338,
			"-0.007": 10.0096652992,
			"-0.006": 13.9903688208,
			"-0.005": 12.7972579456,
			"-0.004": 12.2639084262,
			"-0.003": 11.718926812,
			"-0.002": 14.4897535179,
			"-0.001": 12.1430417746,
			"0.0": 8.93698986169,
			"0.001": 10.2648657317,
			"0.002": 10.5888332516,
			"0.003": 16.0920172796,
			"0.004": 14.5808325277,
			"0.005": 5.69431912563,
			"0.006": 6.3006725244,
			"0.007": 5.99789815107,
			"0.008": 4.91542246987,
			"0.009": 6.9598404857,
			"0.01": 13.2008258869,
			"0.011": 11.1613780684,
			"0.012": 3.38399199593,
			"0.013": 1.43747787122,
			"0.014": 0.158137435942,
			"0.015": 0.0,
			"0.016": 0.0,
			"0.017": 0.0,
			"0.018": 0.0,
			"0.019": 0.0,
			"0.02": 0.0,
			"0.021": 0.0,
			"0.022": 0.0,
			"0.023": 0.0,
			"0.024": 0.0,
			"0.025": 0.0
		}
	}
}
