{
	 "smiles": "ClC1=CC=C(S1)C(=O)CBr", 
	 "Tm": 387.15, 
	 "num_atms": 14, 
	 "gaussian": { 
		 "optdone": 1, 
		 "sigma_profile": "yes", 
		 "theory": "DFT", 
		 "functional": "B3LYP", 
		 "basiset": "6-31G**", 
		 "properties": { 
			 "R2extent": 4550.6753, 
			 "electric_dipole_moment_norm": 1.90903783619, 
			 "electric_quadrupole_moment_norm": 8.09297605952, 
			 "total_energy": -3736.03085652, 
			 "HOMO_LUMO_gap": 0.16432, 
			 "cosmo_polarized_energy": -7.64, 
			 "cosmo_cavitation_energy": 24.51, 
			 "cosmo_dispersion_energy": -18.83, 
			 "cosmo_repulsion_energy": 1.49, 
			 "cosmo_total_nonelectrostatic_energy": 7.17, 
			 "SMD_solvation_energy": 3.26 
		},
		"coords": [
			{
				"x": 3.2840677516,
				"y": -0.2024753945,
				"z": -1.9608923736,
				"element": "Cl" 
			},
			{
				"x": 1.8509393516,
				"y": -0.0406400436,
				"z": -1.010422686,
				"element": "C" 
			},
			{
				"x": 0.6347484891,
				"y": 0.4314815431,
				"z": -1.4406822174,
				"element": "C" 
			},
			{
				"x": -0.3217612794,
				"y": 0.4350083534,
				"z": -0.3972037067,
				"element": "C" 
			},
			{
				"x": 0.1650023271,
				"y": -0.0257434537,
				"z": 0.8086089418,
				"element": "C" 
			},
			{
				"x": 1.8557151869,
				"y": -0.4702304972,
				"z": 0.6708148794,
				"element": "S" 
			},
			{
				"x": -0.652489736,
				"y": -0.169028147,
				"z": 2.0263136414,
				"element": "C" 
			},
			{
				"x": -1.8260998997,
				"y": 0.1713907686,
				"z": 2.0334200173,
				"element": "O" 
			},
			{
				"x": -0.0498741794,
				"y": -0.7983394997,
				"z": 3.2764863448,
				"element": "C" 
			},
			{
				"x": 1.2316339293,
				"y": 0.4324146865,
				"z": 4.1477774635,
				"element": "Br" 
			},
			{
				"x": 0.4475178465,
				"y": 0.7547506649,
				"z": -2.4567831597,
				"element": "H" 
			},
			{
				"x": -1.3517315872,
				"y": 0.7536177709,
				"z": -0.5029874996,
				"element": "H" 
			},
			{
				"x": -0.8447387725,
				"y": -0.9770148976,
				"z": 3.9961596006,
				"element": "H" 
			},
			{
				"x": 0.506670572,
				"y": -1.7126918542,
				"z": 3.0669907541,
				"element": "H" 
			}
		],
		 "valence_orbital": [ 
			{
				"type": "occ",
				"energy": -0.29994,
				"method": "rhf"
			},
			{
				"type": "occ",
				"energy": -0.29173,
				"method": "rhf"
			},
			{
				"type": "occ",
				"energy": -0.27742,
				"method": "rhf"
			},
			{
				"type": "occ",
				"energy": -0.26758,
				"method": "rhf"
			},
			{
				"type": "occ",
				"energy": -0.25107,
				"method": "rhf"
			},
			{
				"type": "unocc",
				"energy": -0.08675,
				"method": "rhf"
			},
			{
				"type": "unocc",
				"energy": -0.02697,
				"method": "rhf"
			},
			{
				"type": "unocc",
				"energy": -0.00496,
				"method": "rhf"
			},
			{
				"type": "unocc",
				"energy": 0.01209,
				"method": "rhf"
			},
			{
				"type": "unocc",
				"energy": 0.01899,
				"method": "rhf"
			}
		],
		"cosmo_sigma_profile": { 
			"-0.025": 0.0,
			"-0.024": 0.0,
			"-0.023": 0.0,
			"-0.022": 0.0,
			"-0.021": 0.0,
			"-0.02": 0.0,
			"-0.019": 0.0,
			"-0.018": 0.0,
			"-0.017": 0.0,
			"-0.016": 0.0,
			"-0.015": 0.0,
			"-0.014": 0.0,
			"-0.013": 0.0,
			"-0.012": 0.0,
			"-0.011": 0.0,
			"-0.01": 0.536492834961,
			"-0.009": 4.8392150902,
			"-0.008": 7.78095237778,
			"-0.007": 6.49525144377,
			"-0.006": 8.47838499374,
			"-0.005": 7.30885555215,
			"-0.004": 7.32132331646,
			"-0.003": 10.8934802247,
			"-0.002": 12.6566014511,
			"-0.001": 15.3914198653,
			"0.0": 24.3649367926,
			"0.001": 24.8523155752,
			"0.002": 22.8178953546,
			"0.003": 15.9344321897,
			"0.004": 11.9895122815,
			"0.005": 8.73063858536,
			"0.006": 0.766437366784,
			"0.007": 1.42274918029,
			"0.008": 1.85481585823,
			"0.009": 2.12965852635,
			"0.01": 2.87727607391,
			"0.011": 4.16335394126,
			"0.012": 0.923978609111,
			"0.013": 0.0,
			"0.014": 0.0,
			"0.015": 0.0,
			"0.016": 0.0,
			"0.017": 0.0,
			"0.018": 0.0,
			"0.019": 0.0,
			"0.02": 0.0,
			"0.021": 0.0,
			"0.022": 0.0,
			"0.023": 0.0,
			"0.024": 0.0,
			"0.025": 0.0
		}
	}
}
