{
	 "smiles": "CC(=O)OC(OC(C)=O)C=C", 
	 "Tm": 235.55, 
	 "num_atms": 21, 
	 "gaussian": { 
		 "optdone": 1, 
		 "sigma_profile": "yes", 
		 "theory": "DFT", 
		 "functional": "B3LYP", 
		 "basiset": "6-31G**", 
		 "properties": { 
			 "R2extent": 2499.2402, 
			 "electric_dipole_moment_norm": 2.94385607155, 
			 "electric_quadrupole_moment_norm": 10.9228818519, 
			 "total_energy": -573.66680191, 
			 "HOMO_LUMO_gap": 0.26742, 
			 "cosmo_polarized_energy": -11.25, 
			 "cosmo_cavitation_energy": 26.27, 
			 "cosmo_dispersion_energy": -17.92, 
			 "cosmo_repulsion_energy": 1.5, 
			 "cosmo_total_nonelectrostatic_energy": 9.85, 
			 "SMD_solvation_energy": 7.66 
		},
		"coords": [
			{
				"x": -3.3168794253,
				"y": -1.1583843911,
				"z": -1.331991577,
				"element": "C" 
			},
			{
				"x": -1.9939435213,
				"y": -1.2818068475,
				"z": -0.6184739228,
				"element": "C" 
			},
			{
				"x": -1.7663371315,
				"y": -0.9439694116,
				"z": 0.5192986814,
				"element": "O" 
			},
			{
				"x": -1.0571458277,
				"y": -1.83411696,
				"z": -1.4445724411,
				"element": "O" 
			},
			{
				"x": 0.2543516706,
				"y": -1.9973218179,
				"z": -0.8915777437,
				"element": "C" 
			},
			{
				"x": 0.86329274,
				"y": -0.7109793406,
				"z": -0.8542916383,
				"element": "O" 
			},
			{
				"x": 1.450164757,
				"y": -0.3328203909,
				"z": 0.3257443327,
				"element": "C" 
			},
			{
				"x": 1.8082902434,
				"y": 1.1303044036,
				"z": 0.2803862914,
				"element": "C" 
			},
			{
				"x": 1.64239515,
				"y": -1.0824853697,
				"z": 1.2511827412,
				"element": "O" 
			},
			{
				"x": 0.9874241852,
				"y": -2.9487145519,
				"z": -1.7911155202,
				"element": "C" 
			},
			{
				"x": 2.1594453154,
				"y": -2.699093056,
				"z": -2.3680496416,
				"element": "C" 
			},
			{
				"x": -4.0636508628,
				"y": -0.7620624188,
				"z": -0.6448922756,
				"element": "H" 
			},
			{
				"x": -3.2113482795,
				"y": -0.4916005036,
				"z": -2.1931616825,
				"element": "H" 
			},
			{
				"x": -3.6333195275,
				"y": -2.1336615567,
				"z": -1.7126160339,
				"element": "H" 
			},
			{
				"x": 0.1761917718,
				"y": -2.3723237478,
				"z": 0.1323497004,
				"element": "H" 
			},
			{
				"x": 2.4564327638,
				"y": 1.3718616286,
				"z": 1.1221997552,
				"element": "H" 
			},
			{
				"x": 0.8898661791,
				"y": 1.7226162724,
				"z": 0.34636235,
				"element": "H" 
			},
			{
				"x": 2.2961148794,
				"y": 1.3816332181,
				"z": -0.6647141645,
				"element": "H" 
			},
			{
				"x": 0.484883785,
				"y": -3.9034355733,
				"z": -1.930460443,
				"element": "H" 
			},
			{
				"x": 2.6656584888,
				"y": -1.7485090374,
				"z": -2.2374616922,
				"element": "H" 
			},
			{
				"x": 2.6479126462,
				"y": -3.4419305481,
				"z": -2.990245076,
				"element": "H" 
			}
		],
		 "valence_orbital": [ 
			{
				"type": "occ",
				"energy": -0.32348,
				"method": "rhf"
			},
			{
				"type": "occ",
				"energy": -0.31033,
				"method": "rhf"
			},
			{
				"type": "occ",
				"energy": -0.2884,
				"method": "rhf"
			},
			{
				"type": "occ",
				"energy": -0.27415,
				"method": "rhf"
			},
			{
				"type": "occ",
				"energy": -0.26836,
				"method": "rhf"
			},
			{
				"type": "unocc",
				"energy": -0.00094,
				"method": "rhf"
			},
			{
				"type": "unocc",
				"energy": 0.00255,
				"method": "rhf"
			},
			{
				"type": "unocc",
				"energy": 0.0107,
				"method": "rhf"
			},
			{
				"type": "unocc",
				"energy": 0.10068,
				"method": "rhf"
			},
			{
				"type": "unocc",
				"energy": 0.10885,
				"method": "rhf"
			}
		],
		"cosmo_sigma_profile": { 
			"-0.025": 0.0,
			"-0.024": 0.0,
			"-0.023": 0.0,
			"-0.022": 0.0,
			"-0.021": 0.0,
			"-0.02": 0.0,
			"-0.019": 0.0,
			"-0.018": 0.0,
			"-0.017": 0.0,
			"-0.016": 0.0,
			"-0.015": 0.0,
			"-0.014": 0.0,
			"-0.013": 0.0,
			"-0.012": 0.0,
			"-0.011": 0.0,
			"-0.01": 0.0,
			"-0.009": 0.0,
			"-0.008": 0.408331885939,
			"-0.007": 7.07769087687,
			"-0.006": 17.9905989813,
			"-0.005": 19.1602602494,
			"-0.004": 20.2492781473,
			"-0.003": 20.7048584035,
			"-0.002": 21.7154624337,
			"-0.001": 13.4469860524,
			"0.0": 8.07128957489,
			"0.001": 7.7289784944,
			"0.002": 9.46032075724,
			"0.003": 8.21476739096,
			"0.004": 8.62905063832,
			"0.005": 8.86770912377,
			"0.006": 5.81456668675,
			"0.007": 5.29554919841,
			"0.008": 5.3247665494,
			"0.009": 3.50048750657,
			"0.01": 6.0271413233,
			"0.011": 7.08704696202,
			"0.012": 3.25230976969,
			"0.013": 0.167414340808,
			"0.014": 0.0,
			"0.015": 0.0,
			"0.016": 0.0,
			"0.017": 0.0,
			"0.018": 0.0,
			"0.019": 0.0,
			"0.02": 0.0,
			"0.021": 0.0,
			"0.022": 0.0,
			"0.023": 0.0,
			"0.024": 0.0,
			"0.025": 0.0
		}
	}
}
