{
	 "smiles": "CC(C)(C)NC(=O)N1CCCC2=C1C=CC=C2C(O)=O", 
	 "Tm": 408.15, 
	 "num_atms": 40, 
	 "gaussian": { 
		 "optdone": 1, 
		 "sigma_profile": "yes", 
		 "theory": "DFT", 
		 "functional": "B3LYP", 
		 "basiset": "6-31G**", 
		 "properties": { 
			 "R2extent": 6122.082, 
			 "electric_dipole_moment_norm": 2.21490128448, 
			 "electric_quadrupole_moment_norm": 10.9632061857, 
			 "total_energy": -918.872848044, 
			 "HOMO_LUMO_gap": 0.16904, 
			 "cosmo_polarized_energy": -14.23, 
			 "cosmo_cavitation_energy": 40.16, 
			 "cosmo_dispersion_energy": -27.38, 
			 "cosmo_repulsion_energy": 2.09, 
			 "cosmo_total_nonelectrostatic_energy": 14.88, 
			 "SMD_solvation_energy": 7.78 
		},
		"coords": [
			{
				"x": 0.4130872997,
				"y": -3.68181649,
				"z": -2.085968742,
				"element": "C" 
			},
			{
				"x": -0.9082359738,
				"y": -3.1432261997,
				"z": -1.501517298,
				"element": "C" 
			},
			{
				"x": -1.1074649995,
				"y": -1.6808379364,
				"z": -1.919060048,
				"element": "C" 
			},
			{
				"x": -2.0905135541,
				"y": -3.9787373945,
				"z": -2.0211234484,
				"element": "C" 
			},
			{
				"x": -0.9302126092,
				"y": -3.3206659603,
				"z": -0.0082624082,
				"element": "N" 
			},
			{
				"x": 0.144528915,
				"y": -2.9207681342,
				"z": 0.8137247856,
				"element": "C" 
			},
			{
				"x": 0.8737738701,
				"y": -3.7455397874,
				"z": 1.3550432543,
				"element": "O" 
			},
			{
				"x": 0.3484676497,
				"y": -1.5567735937,
				"z": 1.0110077069,
				"element": "N" 
			},
			{
				"x": 1.6614231254,
				"y": -1.2289835946,
				"z": 1.6236676169,
				"element": "C" 
			},
			{
				"x": 1.921361701,
				"y": 0.2814843682,
				"z": 1.6301071182,
				"element": "C" 
			},
			{
				"x": 1.1672300912,
				"y": 0.979723052,
				"z": 0.4852461897,
				"element": "C" 
			},
			{
				"x": -0.308976199,
				"y": 0.7544500118,
				"z": 0.7109061168,
				"element": "C" 
			},
			{
				"x": -0.6763424619,
				"y": -0.5707139584,
				"z": 1.0321692729,
				"element": "C" 
			},
			{
				"x": -1.9937959993,
				"y": -0.8795509881,
				"z": 1.3933388983,
				"element": "C" 
			},
			{
				"x": -2.9677512743,
				"y": 0.1150047983,
				"z": 1.3871226531,
				"element": "C" 
			},
			{
				"x": -2.6340555794,
				"y": 1.4214194601,
				"z": 1.0492119264,
				"element": "C" 
			},
			{
				"x": -1.3091218374,
				"y": 1.7526341282,
				"z": 0.7166054289,
				"element": "C" 
			},
			{
				"x": -1.0071159451,
				"y": 3.1637028714,
				"z": 0.3406508903,
				"element": "C" 
			},
			{
				"x": -2.0391488479,
				"y": 4.0074058449,
				"z": 0.6103853992,
				"element": "O" 
			},
			{
				"x": 0.0166420949,
				"y": 3.5848057005,
				"z": -0.1669296221,
				"element": "O" 
			},
			{
				"x": 0.5743626734,
				"y": -4.7260687866,
				"z": -1.7990510151,
				"element": "H" 
			},
			{
				"x": 1.2676220419,
				"y": -3.1000663529,
				"z": -1.7257918417,
				"element": "H" 
			},
			{
				"x": 0.404885723,
				"y": -3.6248174155,
				"z": -3.179745216,
				"element": "H" 
			},
			{
				"x": -2.0284260792,
				"y": -1.2698690114,
				"z": -1.4996189528,
				"element": "H" 
			},
			{
				"x": -1.1702294138,
				"y": -1.6255068927,
				"z": -3.0107439317,
				"element": "H" 
			},
			{
				"x": -0.2728582227,
				"y": -1.0515618088,
				"z": -1.6036232251,
				"element": "H" 
			},
			{
				"x": -1.9727480421,
				"y": -5.0377870365,
				"z": -1.7624465697,
				"element": "H" 
			},
			{
				"x": -3.0323114528,
				"y": -3.6236238581,
				"z": -1.5925130927,
				"element": "H" 
			},
			{
				"x": -2.1567888216,
				"y": -3.9093643557,
				"z": -3.1108929958,
				"element": "H" 
			},
			{
				"x": -1.014226903,
				"y": -4.3177054594,
				"z": 0.1738519106,
				"element": "H" 
			},
			{
				"x": 2.419885712,
				"y": -1.7511574277,
				"z": 1.0347663433,
				"element": "H" 
			},
			{
				"x": 1.7073640466,
				"y": -1.6497482302,
				"z": 2.6337308755,
				"element": "H" 
			},
			{
				"x": 1.5964990238,
				"y": 0.7218823391,
				"z": 2.5793086483,
				"element": "H" 
			},
			{
				"x": 2.9990781033,
				"y": 0.4583778973,
				"z": 1.5515544243,
				"element": "H" 
			},
			{
				"x": 1.4038338214,
				"y": 2.0388342564,
				"z": 0.4324684746,
				"element": "H" 
			},
			{
				"x": 1.4686337066,
				"y": 0.5345210957,
				"z": -0.4744121021,
				"element": "H" 
			},
			{
				"x": -2.2531559656,
				"y": -1.8990850067,
				"z": 1.6481394315,
				"element": "H" 
			},
			{
				"x": -3.9897466586,
				"y": -0.1317194761,
				"z": 1.6583840231,
				"element": "H" 
			},
			{
				"x": -3.390483418,
				"y": 2.1957373297,
				"z": 1.0424879301,
				"element": "H" 
			},
			{
				"x": -1.7413693407,
				"y": 4.8788120021,
				"z": 0.3020211906,
				"element": "H" 
			}
		],
		 "valence_orbital": [ 
			{
				"type": "occ",
				"energy": -0.27798,
				"method": "rhf"
			},
			{
				"type": "occ",
				"energy": -0.27147,
				"method": "rhf"
			},
			{
				"type": "occ",
				"energy": -0.25602,
				"method": "rhf"
			},
			{
				"type": "occ",
				"energy": -0.23759,
				"method": "rhf"
			},
			{
				"type": "occ",
				"energy": -0.21733,
				"method": "rhf"
			},
			{
				"type": "unocc",
				"energy": -0.04829,
				"method": "rhf"
			},
			{
				"type": "unocc",
				"energy": -0.01199,
				"method": "rhf"
			},
			{
				"type": "unocc",
				"energy": 0.02565,
				"method": "rhf"
			},
			{
				"type": "unocc",
				"energy": 0.06118,
				"method": "rhf"
			},
			{
				"type": "unocc",
				"energy": 0.06785,
				"method": "rhf"
			}
		],
		"cosmo_sigma_profile": { 
			"-0.025": 0.0,
			"-0.024": 0.0,
			"-0.023": 0.0,
			"-0.022": 0.0,
			"-0.021": 0.0,
			"-0.02": 0.0,
			"-0.019": 0.0,
			"-0.018": 0.558235355854,
			"-0.017": 0.817421704415,
			"-0.016": 0.875439357172,
			"-0.015": 0.5701886378,
			"-0.014": 1.00003745453,
			"-0.013": 0.849774567592,
			"-0.012": 0.55199007127,
			"-0.011": 0.713257291886,
			"-0.01": 1.82360127099,
			"-0.009": 1.65897481958,
			"-0.008": 1.61318273583,
			"-0.007": 2.41606558442,
			"-0.006": 5.43101442262,
			"-0.005": 8.88135889099,
			"-0.004": 23.9862413631,
			"-0.003": 37.2344248612,
			"-0.002": 39.3573587921,
			"-0.001": 37.4839186566,
			"0.0": 33.3093982386,
			"0.001": 27.9264050558,
			"0.002": 17.9347415647,
			"0.003": 15.2483218421,
			"0.004": 9.78018527433,
			"0.005": 6.10922439817,
			"0.006": 6.05636782097,
			"0.007": 4.84894262166,
			"0.008": 3.66319208833,
			"0.009": 2.94748322336,
			"0.01": 4.05153826886,
			"0.011": 4.249001911,
			"0.012": 4.09315207977,
			"0.013": 4.60656407194,
			"0.014": 3.37147363779,
			"0.015": 0.111112954679,
			"0.016": 0.0,
			"0.017": 0.0,
			"0.018": 0.0,
			"0.019": 0.0,
			"0.02": 0.0,
			"0.021": 0.0,
			"0.022": 0.0,
			"0.023": 0.0,
			"0.024": 0.0,
			"0.025": 0.0
		}
	}
}
