{
	 "smiles": "OC1=C(Cl)C=C(Br)C=C1", 
	 "Tm": 322.95, 
	 "num_atms": 13, 
	 "gaussian": { 
		 "optdone": 1, 
		 "sigma_profile": "yes", 
		 "theory": "DFT", 
		 "functional": "B3LYP", 
		 "basiset": "6-31G**", 
		 "properties": { 
			 "R2extent": 3199.1302, 
			 "electric_dipole_moment_norm": 3.06417488078, 
			 "electric_quadrupole_moment_norm": 8.30349651773, 
			 "total_energy": -3337.86054812, 
			 "HOMO_LUMO_gap": 0.2032, 
			 "cosmo_polarized_energy": -9.76, 
			 "cosmo_cavitation_energy": 21.57, 
			 "cosmo_dispersion_energy": -16.76, 
			 "cosmo_repulsion_energy": 1.38, 
			 "cosmo_total_nonelectrostatic_energy": 6.19, 
			 "SMD_solvation_energy": 2.72 
		},
		"coords": [
			{
				"x": 0.8290744822,
				"y": 1.0205038368,
				"z": -2.3743898568,
				"element": "O" 
			},
			{
				"x": 0.3750306986,
				"y": 0.2220265935,
				"z": -1.3745143989,
				"element": "C" 
			},
			{
				"x": -0.1506111451,
				"y": -1.0367843494,
				"z": -1.7114261967,
				"element": "C" 
			},
			{
				"x": -0.2026223278,
				"y": -1.528797002,
				"z": -3.3870275477,
				"element": "Cl" 
			},
			{
				"x": -0.6306104506,
				"y": -1.8972123179,
				"z": -0.7267042385,
				"element": "C" 
			},
			{
				"x": -0.5871349209,
				"y": -1.5006982155,
				"z": 0.608485851,
				"element": "C" 
			},
			{
				"x": -1.245592031,
				"y": -2.6816079351,
				"z": 1.9572836682,
				"element": "Br" 
			},
			{
				"x": -0.0711117723,
				"y": -0.2584307902,
				"z": 0.9680093034,
				"element": "C" 
			},
			{
				"x": 0.406104778,
				"y": 0.5936945942,
				"z": -0.0259011982,
				"element": "C" 
			},
			{
				"x": 1.1584985666,
				"y": 1.8464976056,
				"z": -1.996949118,
				"element": "H" 
			},
			{
				"x": -1.0316587838,
				"y": -2.8630019508,
				"z": -1.0078379708,
				"element": "H" 
			},
			{
				"x": -0.0404051427,
				"y": 0.0433725484,
				"z": 2.0082143386,
				"element": "H" 
			},
			{
				"x": 0.8105380489,
				"y": 1.5655373823,
				"z": 0.2482573644,
				"element": "H" 
			}
		],
		 "valence_orbital": [ 
			{
				"type": "occ",
				"energy": -0.31498,
				"method": "rhf"
			},
			{
				"type": "occ",
				"energy": -0.30014,
				"method": "rhf"
			},
			{
				"type": "occ",
				"energy": -0.29156,
				"method": "rhf"
			},
			{
				"type": "occ",
				"energy": -0.26283,
				"method": "rhf"
			},
			{
				"type": "occ",
				"energy": -0.23037,
				"method": "rhf"
			},
			{
				"type": "unocc",
				"energy": -0.02717,
				"method": "rhf"
			},
			{
				"type": "unocc",
				"energy": -0.01165,
				"method": "rhf"
			},
			{
				"type": "unocc",
				"energy": -0.0067,
				"method": "rhf"
			},
			{
				"type": "unocc",
				"energy": 0.03931,
				"method": "rhf"
			},
			{
				"type": "unocc",
				"energy": 0.05888,
				"method": "rhf"
			}
		],
		"cosmo_sigma_profile": { 
			"-0.025": 0.0,
			"-0.024": 0.0,
			"-0.023": 0.0,
			"-0.022": 0.0,
			"-0.021": 0.0,
			"-0.02": 0.0,
			"-0.019": 0.646069791379,
			"-0.018": 1.24921781037,
			"-0.017": 0.899397748429,
			"-0.016": 1.35841548079,
			"-0.015": 1.4997428794,
			"-0.014": 0.717279644748,
			"-0.013": 0.441078085056,
			"-0.012": 1.22325237718,
			"-0.011": 1.33179904402,
			"-0.01": 1.12986081253,
			"-0.009": 1.1066500245,
			"-0.008": 3.46683498718,
			"-0.007": 5.08532143461,
			"-0.006": 6.25426934359,
			"-0.005": 4.84804189532,
			"-0.004": 5.84819867782,
			"-0.003": 6.20870265423,
			"-0.002": 8.29752278453,
			"-0.001": 9.59608106256,
			"0.0": 11.3844469818,
			"0.001": 21.0069780835,
			"0.002": 25.0924898944,
			"0.003": 18.5945529522,
			"0.004": 19.3169869699,
			"0.005": 11.0506708463,
			"0.006": 2.11064830867,
			"0.007": 2.19361845679,
			"0.008": 1.56856362777,
			"0.009": 2.12788767397,
			"0.01": 2.03632274444,
			"0.011": 1.03434293002,
			"0.012": 0.0,
			"0.013": 0.0,
			"0.014": 0.0,
			"0.015": 0.0,
			"0.016": 0.0,
			"0.017": 0.0,
			"0.018": 0.0,
			"0.019": 0.0,
			"0.02": 0.0,
			"0.021": 0.0,
			"0.022": 0.0,
			"0.023": 0.0,
			"0.024": 0.0,
			"0.025": 0.0
		}
	}
}
