{
	 "smiles": "CCOC(=O)C1=C(N)SN=C1C", 
	 "Tm": 385.15, 
	 "num_atms": 22, 
	 "gaussian": { 
		 "optdone": 1, 
		 "sigma_profile": "yes", 
		 "theory": "DFT", 
		 "functional": "B3LYP", 
		 "basiset": "6-31G**", 
		 "properties": { 
			 "R2extent": 3781.7845, 
			 "electric_dipole_moment_norm": 4.87335950346, 
			 "electric_quadrupole_moment_norm": 15.2744302666, 
			 "total_energy": -930.924957318, 
			 "HOMO_LUMO_gap": 0.19805, 
			 "cosmo_polarized_energy": -13.36, 
			 "cosmo_cavitation_energy": 27.19, 
			 "cosmo_dispersion_energy": -20.5, 
			 "cosmo_repulsion_energy": 1.61, 
			 "cosmo_total_nonelectrostatic_energy": 8.3, 
			 "SMD_solvation_energy": 4.17 
		},
		"coords": [
			{
				"x": 1.6357019946,
				"y": -2.020188242,
				"z": -1.0121669494,
				"element": "C" 
			},
			{
				"x": 1.1744505084,
				"y": -0.7160517804,
				"z": -1.6449013464,
				"element": "C" 
			},
			{
				"x": 1.3546955107,
				"y": 0.403365147,
				"z": -0.7433087177,
				"element": "O" 
			},
			{
				"x": 0.3425734318,
				"y": 0.6251033023,
				"z": 0.160420575,
				"element": "C" 
			},
			{
				"x": -0.6572339166,
				"y": -0.0695760352,
				"z": 0.1901455993,
				"element": "O" 
			},
			{
				"x": 0.6170141749,
				"y": 1.7641393893,
				"z": 1.034450788,
				"element": "C" 
			},
			{
				"x": 1.7662640172,
				"y": 2.561402914,
				"z": 1.013977349,
				"element": "C" 
			},
			{
				"x": 2.8774841508,
				"y": 2.4383384788,
				"z": 0.2495634877,
				"element": "N" 
			},
			{
				"x": 1.6018577686,
				"y": 3.796329227,
				"z": 2.2318466031,
				"element": "S" 
			},
			{
				"x": 0.0655427352,
				"y": 3.2831740308,
				"z": 2.7472751219,
				"element": "N" 
			},
			{
				"x": -0.3029754881,
				"y": 2.2347927067,
				"z": 2.0480021063,
				"element": "C" 
			},
			{
				"x": -1.639785221,
				"y": 1.6209138821,
				"z": 2.3524483348,
				"element": "C" 
			},
			{
				"x": 2.6781528245,
				"y": -1.9513427344,
				"z": -0.6868321,
				"element": "H" 
			},
			{
				"x": 1.0113403932,
				"y": -2.2679467309,
				"z": -0.1507266007,
				"element": "H" 
			},
			{
				"x": 1.5562501705,
				"y": -2.8344597424,
				"z": -1.7402491107,
				"element": "H" 
			},
			{
				"x": 1.7759250639,
				"y": -0.4598761925,
				"z": -2.5210065555,
				"element": "H" 
			},
			{
				"x": 0.1220018452,
				"y": -0.767471818,
				"z": -1.9309871434,
				"element": "H" 
			},
			{
				"x": 3.5360181064,
				"y": 3.1976678493,
				"z": 0.1896480125,
				"element": "H" 
			},
			{
				"x": 2.8316113216,
				"y": 1.7708894281,
				"z": -0.5077644397,
				"element": "H" 
			},
			{
				"x": -2.1140809424,
				"y": 2.1826642641,
				"z": 3.1589687526,
				"element": "H" 
			},
			{
				"x": -1.5296584597,
				"y": 0.5730599083,
				"z": 2.6451712333,
				"element": "H" 
			},
			{
				"x": -2.2827499899,
				"y": 1.6275727479,
				"z": 1.4679249999,
				"element": "H" 
			}
		],
		 "valence_orbital": [ 
			{
				"type": "occ",
				"energy": -0.30129,
				"method": "rhf"
			},
			{
				"type": "occ",
				"energy": -0.28208,
				"method": "rhf"
			},
			{
				"type": "occ",
				"energy": -0.27242,
				"method": "rhf"
			},
			{
				"type": "occ",
				"energy": -0.25241,
				"method": "rhf"
			},
			{
				"type": "occ",
				"energy": -0.22314,
				"method": "rhf"
			},
			{
				"type": "unocc",
				"energy": -0.02509,
				"method": "rhf"
			},
			{
				"type": "unocc",
				"energy": -0.00028,
				"method": "rhf"
			},
			{
				"type": "unocc",
				"energy": 0.00718,
				"method": "rhf"
			},
			{
				"type": "unocc",
				"energy": 0.07621,
				"method": "rhf"
			},
			{
				"type": "unocc",
				"energy": 0.09093,
				"method": "rhf"
			}
		],
		"cosmo_sigma_profile": { 
			"-0.025": 0.0,
			"-0.024": 0.0,
			"-0.023": 0.0,
			"-0.022": 0.0,
			"-0.021": 0.0,
			"-0.02": 0.0,
			"-0.019": 0.0,
			"-0.018": 0.0,
			"-0.017": 0.0,
			"-0.016": 0.395725047973,
			"-0.015": 1.70679740285,
			"-0.014": 1.52034764099,
			"-0.013": 1.51282413139,
			"-0.012": 2.39360706705,
			"-0.011": 1.65180761954,
			"-0.01": 1.90793240464,
			"-0.009": 1.44895058163,
			"-0.008": 2.32791036371,
			"-0.007": 1.82203625053,
			"-0.006": 2.61009239898,
			"-0.005": 6.02922052386,
			"-0.004": 15.4525094783,
			"-0.003": 19.358557059,
			"-0.002": 18.0912187336,
			"-0.001": 23.2187608649,
			"0.0": 27.2256442872,
			"0.001": 23.7500809866,
			"0.002": 12.993429997,
			"0.003": 10.6288941379,
			"0.004": 8.78240329216,
			"0.005": 5.14492330017,
			"0.006": 3.65206348227,
			"0.007": 4.9293955754,
			"0.008": 3.2007579364,
			"0.009": 1.68031680593,
			"0.01": 3.30812371909,
			"0.011": 2.8880984512,
			"0.012": 4.01713098999,
			"0.013": 1.56540624778,
			"0.014": 1.39851838764,
			"0.015": 0.75830633039,
			"0.016": 0.200707164033,
			"0.017": 0.0,
			"0.018": 0.0,
			"0.019": 0.0,
			"0.02": 0.0,
			"0.021": 0.0,
			"0.022": 0.0,
			"0.023": 0.0,
			"0.024": 0.0,
			"0.025": 0.0
		}
	}
}
