{
	 "smiles": "ClC(C(=O)N1CCCCC1)C1=CC=CC=C1", 
	 "Tm": 341.65, 
	 "num_atms": 32, 
	 "gaussian": { 
		 "optdone": 1, 
		 "sigma_profile": "yes", 
		 "theory": "DFT", 
		 "functional": "B3LYP", 
		 "basiset": "6-31G**", 
		 "properties": { 
			 "R2extent": 4950.7426, 
			 "electric_dipole_moment_norm": 3.10173855442, 
			 "electric_quadrupole_moment_norm": 12.4126271881, 
			 "total_energy": -1095.21711972, 
			 "HOMO_LUMO_gap": 0.20311, 
			 "cosmo_polarized_energy": -11.79, 
			 "cosmo_cavitation_energy": 34.84, 
			 "cosmo_dispersion_energy": -25.03, 
			 "cosmo_repulsion_energy": 1.96, 
			 "cosmo_total_nonelectrostatic_energy": 11.76, 
			 "SMD_solvation_energy": 4.86 
		},
		"coords": [
			{
				"x": 1.8853219516,
				"y": 0.0963204234,
				"z": 0.775757513,
				"element": "Cl" 
			},
			{
				"x": 0.8456025995,
				"y": 0.4389947393,
				"z": -0.7238872629,
				"element": "C" 
			},
			{
				"x": -0.6340431674,
				"y": 0.3238894177,
				"z": -0.2895458237,
				"element": "C" 
			},
			{
				"x": -1.2757669055,
				"y": -0.6888091099,
				"z": -0.5470923865,
				"element": "O" 
			},
			{
				"x": -1.1856130339,
				"y": 1.4013757685,
				"z": 0.3533693242,
				"element": "N" 
			},
			{
				"x": -2.5953998621,
				"y": 1.325302645,
				"z": 0.7599653924,
				"element": "C" 
			},
			{
				"x": -2.7361158637,
				"y": 1.3878490225,
				"z": 2.2862098744,
				"element": "C" 
			},
			{
				"x": -2.0379059872,
				"y": 2.6333796963,
				"z": 2.8510003317,
				"element": "C" 
			},
			{
				"x": -0.5812267982,
				"y": 2.7028270446,
				"z": 2.3707944998,
				"element": "C" 
			},
			{
				"x": -0.4917936629,
				"y": 2.5973579859,
				"z": 0.8397062496,
				"element": "C" 
			},
			{
				"x": 1.232616925,
				"y": -0.4613635187,
				"z": -1.8633672521,
				"element": "C" 
			},
			{
				"x": 1.0724091045,
				"y": -1.8537467363,
				"z": -1.8056560042,
				"element": "C" 
			},
			{
				"x": 1.4473723597,
				"y": -2.6449244858,
				"z": -2.8882717473,
				"element": "C" 
			},
			{
				"x": 1.9834177045,
				"y": -2.0616635569,
				"z": -4.040456383,
				"element": "C" 
			},
			{
				"x": 2.1471877597,
				"y": -0.6786506723,
				"z": -4.1044731899,
				"element": "C" 
			},
			{
				"x": 1.776579046,
				"y": 0.1151696379,
				"z": -3.0174885597,
				"element": "C" 
			},
			{
				"x": 1.0939039406,
				"y": 1.4663589639,
				"z": -0.9867188894,
				"element": "H" 
			},
			{
				"x": -3.00317186,
				"y": 0.4013063895,
				"z": 0.3527827698,
				"element": "H" 
			},
			{
				"x": -3.1273698738,
				"y": 2.1725857771,
				"z": 0.3024725907,
				"element": "H" 
			},
			{
				"x": -3.8000571394,
				"y": 1.3853360598,
				"z": 2.5506561599,
				"element": "H" 
			},
			{
				"x": -2.2932513446,
				"y": 0.4822812678,
				"z": 2.7192532525,
				"element": "H" 
			},
			{
				"x": -2.0776960528,
				"y": 2.6352024688,
				"z": 3.9459989283,
				"element": "H" 
			},
			{
				"x": -2.5742400457,
				"y": 3.5329516559,
				"z": 2.5159226033,
				"element": "H" 
			},
			{
				"x": -0.0020232458,
				"y": 1.8809409007,
				"z": 2.808184145,
				"element": "H" 
			},
			{
				"x": -0.1099771722,
				"y": 3.6397031722,
				"z": 2.6906950222,
				"element": "H" 
			},
			{
				"x": 0.5523738649,
				"y": 2.5862032001,
				"z": 0.5335804563,
				"element": "H" 
			},
			{
				"x": -0.963312281,
				"y": 3.4791143646,
				"z": 0.3800819033,
				"element": "H" 
			},
			{
				"x": 0.6488856452,
				"y": -2.3049402591,
				"z": -0.9172352671,
				"element": "H" 
			},
			{
				"x": 1.3193698412,
				"y": -3.7221696096,
				"z": -2.8347386387,
				"element": "H" 
			},
			{
				"x": 2.2740246841,
				"y": -2.6846349446,
				"z": -4.8816320132,
				"element": "H" 
			},
			{
				"x": 2.5663112041,
				"y": -0.2164311562,
				"z": -4.9934545684,
				"element": "H" 
			},
			{
				"x": 1.9116876657,
				"y": 1.1930834479,
				"z": -3.0682130302,
				"element": "H" 
			}
		],
		 "valence_orbital": [ 
			{
				"type": "occ",
				"energy": -0.3022,
				"method": "rhf"
			},
			{
				"type": "occ",
				"energy": -0.25608,
				"method": "rhf"
			},
			{
				"type": "occ",
				"energy": -0.24673,
				"method": "rhf"
			},
			{
				"type": "occ",
				"energy": -0.24339,
				"method": "rhf"
			},
			{
				"type": "occ",
				"energy": -0.23942,
				"method": "rhf"
			},
			{
				"type": "unocc",
				"energy": -0.03631,
				"method": "rhf"
			},
			{
				"type": "unocc",
				"energy": 0.00177,
				"method": "rhf"
			},
			{
				"type": "unocc",
				"energy": 0.01268,
				"method": "rhf"
			},
			{
				"type": "unocc",
				"energy": 0.06233,
				"method": "rhf"
			},
			{
				"type": "unocc",
				"energy": 0.07862,
				"method": "rhf"
			}
		],
		"cosmo_sigma_profile": { 
			"-0.025": 0.0,
			"-0.024": 0.0,
			"-0.023": 0.0,
			"-0.022": 0.0,
			"-0.021": 0.0,
			"-0.02": 0.0,
			"-0.019": 0.0,
			"-0.018": 0.0,
			"-0.017": 0.0,
			"-0.016": 0.0,
			"-0.015": 0.0,
			"-0.014": 0.0,
			"-0.013": 0.0,
			"-0.012": 0.0,
			"-0.011": 0.0,
			"-0.01": 0.722899046565,
			"-0.009": 2.64662949481,
			"-0.008": 2.89880103293,
			"-0.007": 3.13943870274,
			"-0.006": 8.49126398614,
			"-0.005": 13.1763884222,
			"-0.004": 23.8150627869,
			"-0.003": 31.0537548384,
			"-0.002": 31.3993065655,
			"-0.001": 27.6740707654,
			"0.0": 26.0420138557,
			"0.001": 18.1586453644,
			"0.002": 13.8750897814,
			"0.003": 13.6940114416,
			"0.004": 14.6184398669,
			"0.005": 18.6252452467,
			"0.006": 9.77631190423,
			"0.007": 2.13251323242,
			"0.008": 1.88819925727,
			"0.009": 1.87804089055,
			"0.01": 1.3945330421,
			"0.011": 2.20786085142,
			"0.012": 2.3416752162,
			"0.013": 3.88300028215,
			"0.014": 0.829601386385,
			"0.015": 0.0,
			"0.016": 0.0,
			"0.017": 0.0,
			"0.018": 0.0,
			"0.019": 0.0,
			"0.02": 0.0,
			"0.021": 0.0,
			"0.022": 0.0,
			"0.023": 0.0,
			"0.024": 0.0,
			"0.025": 0.0
		}
	}
}
