{
	 "smiles": "CC1=CC=C(C=C1)C(=O)C1CCCCC1C(O)=O", 
	 "Tm": 443.15, 
	 "num_atms": 36, 
	 "gaussian": { 
		 "optdone": 1, 
		 "sigma_profile": "yes", 
		 "theory": "DFT", 
		 "functional": "B3LYP", 
		 "basiset": "6-31G**", 
		 "properties": { 
			 "R2extent": 5666.6228, 
			 "electric_dipole_moment_norm": 1.71683699284, 
			 "electric_quadrupole_moment_norm": 17.4728781645, 
			 "total_energy": -808.146858895, 
			 "HOMO_LUMO_gap": 0.18929, 
			 "cosmo_polarized_energy": -12.06, 
			 "cosmo_cavitation_energy": 36.68, 
			 "cosmo_dispersion_energy": -26.25, 
			 "cosmo_repulsion_energy": 2.02, 
			 "cosmo_total_nonelectrostatic_energy": 12.44, 
			 "SMD_solvation_energy": 7.02 
		},
		"coords": [
			{
				"x": -1.2074362111,
				"y": 3.7828921382,
				"z": 2.5862690889,
				"element": "C" 
			},
			{
				"x": -1.0779815913,
				"y": 2.6655878131,
				"z": 1.5801267374,
				"element": "C" 
			},
			{
				"x": -1.1727558648,
				"y": 1.3243583602,
				"z": 1.9692079904,
				"element": "C" 
			},
			{
				"x": -1.075016748,
				"y": 0.2896591799,
				"z": 1.0386668009,
				"element": "C" 
			},
			{
				"x": -0.8754620523,
				"y": 0.5764105529,
				"z": -0.3208043048,
				"element": "C" 
			},
			{
				"x": -0.7772227793,
				"y": 1.9236179986,
				"z": -0.7144254309,
				"element": "C" 
			},
			{
				"x": -0.8748404586,
				"y": 2.9464336752,
				"z": 0.2184071713,
				"element": "C" 
			},
			{
				"x": -0.781974592,
				"y": -0.4629872318,
				"z": -1.3977663079,
				"element": "C" 
			},
			{
				"x": -0.6945862102,
				"y": -0.1179646311,
				"z": -2.5692315536,
				"element": "O" 
			},
			{
				"x": -0.846152267,
				"y": -1.9598591529,
				"z": -1.0378486078,
				"element": "C" 
			},
			{
				"x": -1.0467208492,
				"y": -2.8419816058,
				"z": -2.2832842299,
				"element": "C" 
			},
			{
				"x": 0.1722213839,
				"y": -2.8734988474,
				"z": -3.238778864,
				"element": "C" 
			},
			{
				"x": 1.4988653188,
				"y": -2.5883662043,
				"z": -2.5071188502,
				"element": "C" 
			},
			{
				"x": 1.4673376531,
				"y": -3.1605477253,
				"z": -1.0863425995,
				"element": "C" 
			},
			{
				"x": 0.4163772708,
				"y": -2.4346099604,
				"z": -0.2077049656,
				"element": "C" 
			},
			{
				"x": -0.066796829,
				"y": -3.2704800128,
				"z": 0.9643913984,
				"element": "C" 
			},
			{
				"x": -0.298072833,
				"y": -4.5665860889,
				"z": 0.6417662692,
				"element": "O" 
			},
			{
				"x": -0.2895347631,
				"y": -2.8463186784,
				"z": 2.0813249238,
				"element": "O" 
			},
			{
				"x": -2.1934082214,
				"y": 4.2594397824,
				"z": 2.5191691823,
				"element": "H" 
			},
			{
				"x": -0.4609523267,
				"y": 4.5648585024,
				"z": 2.4125352037,
				"element": "H" 
			},
			{
				"x": -1.0869535735,
				"y": 3.4177245367,
				"z": 3.6097828264,
				"element": "H" 
			},
			{
				"x": -1.3214061566,
				"y": 1.0809087537,
				"z": 3.0179890253,
				"element": "H" 
			},
			{
				"x": -1.1370036433,
				"y": -0.7317117594,
				"z": 1.3971958344,
				"element": "H" 
			},
			{
				"x": -0.6249782001,
				"y": 2.1387354598,
				"z": -1.7666652367,
				"element": "H" 
			},
			{
				"x": -0.7929220458,
				"y": 3.9807246556,
				"z": -0.1073045348,
				"element": "H" 
			},
			{
				"x": -1.7304106613,
				"y": -2.0656285929,
				"z": -0.3957848427,
				"element": "H" 
			},
			{
				"x": -1.2599498296,
				"y": -3.8543865148,
				"z": -1.9224386499,
				"element": "H" 
			},
			{
				"x": -1.9370541605,
				"y": -2.5058054582,
				"z": -2.822671087,
				"element": "H" 
			},
			{
				"x": 0.2208071085,
				"y": -3.864468024,
				"z": -3.7067158032,
				"element": "H" 
			},
			{
				"x": 0.0352727095,
				"y": -2.1432920099,
				"z": -4.0385087989,
				"element": "H" 
			},
			{
				"x": 2.3395193042,
				"y": -3.0163512076,
				"z": -3.0642513621,
				"element": "H" 
			},
			{
				"x": 1.6749181626,
				"y": -1.507038079,
				"z": -2.4649780559,
				"element": "H" 
			},
			{
				"x": 2.4473837833,
				"y": -3.0747430323,
				"z": -0.6036897444,
				"element": "H" 
			},
			{
				"x": 1.2342488729,
				"y": -4.2287650081,
				"z": -1.1341537657,
				"element": "H" 
			},
			{
				"x": 0.8777421077,
				"y": -1.5550173985,
				"z": 0.248209445,
				"element": "H" 
			},
			{
				"x": -0.6464008078,
				"y": -4.9837441848,
				"z": 1.4480256984,
				"element": "H" 
			}
		],
		 "valence_orbital": [ 
			{
				"type": "occ",
				"energy": -0.3022,
				"method": "rhf"
			},
			{
				"type": "occ",
				"energy": -0.27567,
				"method": "rhf"
			},
			{
				"type": "occ",
				"energy": -0.25338,
				"method": "rhf"
			},
			{
				"type": "occ",
				"energy": -0.24632,
				"method": "rhf"
			},
			{
				"type": "occ",
				"energy": -0.24244,
				"method": "rhf"
			},
			{
				"type": "unocc",
				"energy": -0.05315,
				"method": "rhf"
			},
			{
				"type": "unocc",
				"energy": -0.00432,
				"method": "rhf"
			},
			{
				"type": "unocc",
				"energy": 0.00076,
				"method": "rhf"
			},
			{
				"type": "unocc",
				"energy": 0.04002,
				"method": "rhf"
			},
			{
				"type": "unocc",
				"energy": 0.06593,
				"method": "rhf"
			}
		],
		"cosmo_sigma_profile": { 
			"-0.025": 0.0,
			"-0.024": 0.0,
			"-0.023": 0.0,
			"-0.022": 0.0,
			"-0.021": 0.0,
			"-0.02": 0.0,
			"-0.019": 0.0354759544294,
			"-0.018": 0.630255973754,
			"-0.017": 1.08982917797,
			"-0.016": 0.751556018587,
			"-0.015": 0.991678736173,
			"-0.014": 0.583807234507,
			"-0.013": 0.59419883444,
			"-0.012": 0.614457369287,
			"-0.011": 0.737486570788,
			"-0.01": 0.805318143386,
			"-0.009": 0.361526866165,
			"-0.008": 0.717914494365,
			"-0.007": 1.74286937405,
			"-0.006": 6.4290040371,
			"-0.005": 15.5820339913,
			"-0.004": 22.5265961915,
			"-0.003": 22.9924371461,
			"-0.002": 32.4812280151,
			"-0.001": 35.7962386073,
			"0.0": 30.8126699242,
			"0.001": 24.1778362364,
			"0.002": 16.1939071348,
			"0.003": 14.2291788664,
			"0.004": 16.002118039,
			"0.005": 10.2580348451,
			"0.006": 4.7199183605,
			"0.007": 4.21417454516,
			"0.008": 3.80881717005,
			"0.009": 2.93529238942,
			"0.01": 3.93468214849,
			"0.011": 5.58789585925,
			"0.012": 5.29836523706,
			"0.013": 0.176189750039,
			"0.014": 0.0,
			"0.015": 0.0,
			"0.016": 0.0,
			"0.017": 0.0,
			"0.018": 0.0,
			"0.019": 0.0,
			"0.02": 0.0,
			"0.021": 0.0,
			"0.022": 0.0,
			"0.023": 0.0,
			"0.024": 0.0,
			"0.025": 0.0
		}
	}
}
