{
	 "smiles": "CCOC(=O)C(C#N)C1C(=O)N(C)C2=C1C=CC=C2", 
	 "Tm": 393.15, 
	 "num_atms": 33, 
	 "gaussian": { 
		 "optdone": 1, 
		 "sigma_profile": "yes", 
		 "theory": "DFT", 
		 "functional": "B3LYP", 
		 "basiset": "6-31G**", 
		 "properties": { 
			 "R2extent": 5608.5217, 
			 "electric_dipole_moment_norm": 4.79908916983, 
			 "electric_quadrupole_moment_norm": 28.1338530179, 
			 "total_energy": -877.114532472, 
			 "HOMO_LUMO_gap": 0.19118, 
			 "cosmo_polarized_energy": -17.8, 
			 "cosmo_cavitation_energy": 37.94, 
			 "cosmo_dispersion_energy": -25.27, 
			 "cosmo_repulsion_energy": 1.97, 
			 "cosmo_total_nonelectrostatic_energy": 14.65, 
			 "SMD_solvation_energy": 9.12 
		},
		"coords": [
			{
				"x": -1.4799619595,
				"y": -4.1682140366,
				"z": -3.401141706,
				"element": "C" 
			},
			{
				"x": -0.5601074714,
				"y": -3.7561450094,
				"z": -2.2635055873,
				"element": "C" 
			},
			{
				"x": -0.9785123324,
				"y": -2.4889307562,
				"z": -1.6846866657,
				"element": "O" 
			},
			{
				"x": -0.5212390723,
				"y": -1.372995019,
				"z": -2.2800155303,
				"element": "C" 
			},
			{
				"x": 0.2007677191,
				"y": -1.3434298269,
				"z": -3.2498964717,
				"element": "O" 
			},
			{
				"x": -1.0172061471,
				"y": -0.1473454523,
				"z": -1.5021247006,
				"element": "C" 
			},
			{
				"x": -1.0112206975,
				"y": 1.0548588253,
				"z": -2.34111866,
				"element": "C" 
			},
			{
				"x": -1.0340846237,
				"y": 2.0262680067,
				"z": -2.9739369703,
				"element": "N" 
			},
			{
				"x": -0.193762014,
				"y": 0.0431573582,
				"z": -0.1938267418,
				"element": "C" 
			},
			{
				"x": -0.9445120558,
				"y": 0.9833555758,
				"z": 0.7757348609,
				"element": "C" 
			},
			{
				"x": -2.1195454853,
				"y": 0.9050517239,
				"z": 1.088120939,
				"element": "O" 
			},
			{
				"x": -0.0375198437,
				"y": 1.9229074955,
				"z": 1.2200184214,
				"element": "N" 
			},
			{
				"x": -0.3889225034,
				"y": 2.9906281516,
				"z": 2.1349032703,
				"element": "C" 
			},
			{
				"x": 1.2116720758,
				"y": 1.7661743295,
				"z": 0.592334274,
				"element": "C" 
			},
			{
				"x": 1.1759871793,
				"y": 0.6710414699,
				"z": -0.2888941826,
				"element": "C" 
			},
			{
				"x": 2.3007080722,
				"y": 0.3429754913,
				"z": -1.0319269369,
				"element": "C" 
			},
			{
				"x": 3.462321702,
				"y": 1.1149061034,
				"z": -0.8807642089,
				"element": "C" 
			},
			{
				"x": 3.4856114079,
				"y": 2.1920246358,
				"z": 0.0055397941,
				"element": "C" 
			},
			{
				"x": 2.3558331158,
				"y": 2.5371481185,
				"z": 0.7593860404,
				"element": "C" 
			},
			{
				"x": -1.189986533,
				"y": -5.1583848905,
				"z": -3.7675787164,
				"element": "H" 
			},
			{
				"x": -2.519263977,
				"y": -4.2176008664,
				"z": -3.0641554952,
				"element": "H" 
			},
			{
				"x": -1.4078874406,
				"y": -3.4619008548,
				"z": -4.2317029439,
				"element": "H" 
			},
			{
				"x": 0.4739965495,
				"y": -3.6596417319,
				"z": -2.6020909551,
				"element": "H" 
			},
			{
				"x": -0.6082846408,
				"y": -4.458612529,
				"z": -1.4288129155,
				"element": "H" 
			},
			{
				"x": -2.047497212,
				"y": -0.3387838351,
				"z": -1.1780776582,
				"element": "H" 
			},
			{
				"x": -0.155630095,
				"y": -0.9415383512,
				"z": 0.2890601542,
				"element": "H" 
			},
			{
				"x": 0.2276579169,
				"y": 2.9476994304,
				"z": 3.0391276964,
				"element": "H" 
			},
			{
				"x": -1.4375833339,
				"y": 2.8573656838,
				"z": 2.4032152226,
				"element": "H" 
			},
			{
				"x": -0.2567166325,
				"y": 3.968418867,
				"z": 1.6591591362,
				"element": "H" 
			},
			{
				"x": 2.278768162,
				"y": -0.4823044476,
				"z": -1.7363829457,
				"element": "H" 
			},
			{
				"x": 4.3465224701,
				"y": 0.8735200203,
				"z": -1.461937613,
				"element": "H" 
			},
			{
				"x": 4.3920535371,
				"y": 2.7804747098,
				"z": 0.1130833176,
				"element": "H" 
			},
			{
				"x": 2.3768441633,
				"y": 3.38065161,
				"z": 1.4412944778,
				"element": "H" 
			}
		],
		 "valence_orbital": [ 
			{
				"type": "occ",
				"energy": -0.30848,
				"method": "rhf"
			},
			{
				"type": "occ",
				"energy": -0.29423,
				"method": "rhf"
			},
			{
				"type": "occ",
				"energy": -0.27066,
				"method": "rhf"
			},
			{
				"type": "occ",
				"energy": -0.26025,
				"method": "rhf"
			},
			{
				"type": "occ",
				"energy": -0.22242,
				"method": "rhf"
			},
			{
				"type": "unocc",
				"energy": -0.03124,
				"method": "rhf"
			},
			{
				"type": "unocc",
				"energy": -0.01045,
				"method": "rhf"
			},
			{
				"type": "unocc",
				"energy": -0.00707,
				"method": "rhf"
			},
			{
				"type": "unocc",
				"energy": 0.01523,
				"method": "rhf"
			},
			{
				"type": "unocc",
				"energy": 0.03314,
				"method": "rhf"
			}
		],
		"cosmo_sigma_profile": { 
			"-0.025": 0.0,
			"-0.024": 0.0,
			"-0.023": 0.0,
			"-0.022": 0.0,
			"-0.021": 0.0,
			"-0.02": 0.0,
			"-0.019": 0.0,
			"-0.018": 0.0,
			"-0.017": 0.0,
			"-0.016": 0.0,
			"-0.015": 0.0,
			"-0.014": 0.0,
			"-0.013": 0.0,
			"-0.012": 0.0,
			"-0.011": 0.217124115406,
			"-0.01": 1.29234649616,
			"-0.009": 2.58425488066,
			"-0.008": 4.06222276302,
			"-0.007": 5.63598335688,
			"-0.006": 19.1619737881,
			"-0.005": 28.5961422724,
			"-0.004": 30.8569746913,
			"-0.003": 30.2484995944,
			"-0.002": 24.5439640228,
			"-0.001": 21.4107693747,
			"0.0": 17.2415167847,
			"0.001": 12.4465128516,
			"0.002": 13.1119598563,
			"0.003": 14.434022532,
			"0.004": 14.6321557489,
			"0.005": 12.7380298992,
			"0.006": 7.45544769788,
			"0.007": 5.67101443667,
			"0.008": 7.02055226228,
			"0.009": 6.62481979243,
			"0.01": 7.01802027701,
			"0.011": 6.9397623147,
			"0.012": 6.77507774698,
			"0.013": 1.59971875946,
			"0.014": 0.0,
			"0.015": 0.0,
			"0.016": 0.0,
			"0.017": 0.0,
			"0.018": 0.0,
			"0.019": 0.0,
			"0.02": 0.0,
			"0.021": 0.0,
			"0.022": 0.0,
			"0.023": 0.0,
			"0.024": 0.0,
			"0.025": 0.0
		}
	}
}
