{
	 "smiles": "CCOC(=O)COC1=C(Cl)C=C(F)C(=C1)C1=NN(C)C(OC(F)F)=C1Cl", 
	 "Tm": 400.15, 
	 "num_atms": 39, 
	 "gaussian": { 
		 "optdone": 1, 
		 "sigma_profile": "yes", 
		 "theory": "DFT", 
		 "functional": "B3LYP", 
		 "basiset": "6-31G**", 
		 "properties": { 
			 "R2extent": 16550.607, 
			 "electric_dipole_moment_norm": 2.61224160636, 
			 "electric_quadrupole_moment_norm": 18.9623149557, 
			 "total_energy": -2209.68812338, 
			 "HOMO_LUMO_gap": 0.18565, 
			 "cosmo_polarized_energy": -15.31, 
			 "cosmo_cavitation_energy": 49.75, 
			 "cosmo_dispersion_energy": -33.17, 
			 "cosmo_repulsion_energy": 2.58, 
			 "cosmo_total_nonelectrostatic_energy": 19.16, 
			 "SMD_solvation_energy": 10.06 
		},
		"coords": [
			{
				"x": 3.1052134377,
				"y": -2.5032324731,
				"z": -2.0828405257,
				"element": "C" 
			},
			{
				"x": 2.3090263659,
				"y": -1.3630318872,
				"z": -1.4682952243,
				"element": "C" 
			},
			{
				"x": 3.0645356613,
				"y": -0.7049232246,
				"z": -0.4169796861,
				"element": "O" 
			},
			{
				"x": 2.9749342047,
				"y": -1.2368551707,
				"z": 0.807996123,
				"element": "C" 
			},
			{
				"x": 2.3321345655,
				"y": -2.2207412126,
				"z": 1.1074423689,
				"element": "O" 
			},
			{
				"x": 3.8299265081,
				"y": -0.4902359211,
				"z": 1.8335411827,
				"element": "C" 
			},
			{
				"x": 4.2177228715,
				"y": 0.8200067833,
				"z": 1.4756392564,
				"element": "O" 
			},
			{
				"x": 3.2859397561,
				"y": 1.8142304629,
				"z": 1.5166772987,
				"element": "C" 
			},
			{
				"x": 3.7335188525,
				"y": 3.1116506802,
				"z": 1.2006450969,
				"element": "C" 
			},
			{
				"x": 5.4054535368,
				"y": 3.3742351873,
				"z": 0.7698644971,
				"element": "Cl" 
			},
			{
				"x": 2.8581592477,
				"y": 4.1904860812,
				"z": 1.234776486,
				"element": "C" 
			},
			{
				"x": 1.5289826963,
				"y": 3.9778150204,
				"z": 1.5801639286,
				"element": "C" 
			},
			{
				"x": 0.7147355702,
				"y": 5.0504305027,
				"z": 1.6527672247,
				"element": "F" 
			},
			{
				"x": 1.0349094361,
				"y": 2.7070248227,
				"z": 1.8756566488,
				"element": "C" 
			},
			{
				"x": 1.9419944478,
				"y": 1.6332764822,
				"z": 1.8456309345,
				"element": "C" 
			},
			{
				"x": -0.3646008407,
				"y": 2.4582823099,
				"z": 2.2599469575,
				"element": "C" 
			},
			{
				"x": -0.6275500334,
				"y": 1.5816343601,
				"z": 3.2410963744,
				"element": "N" 
			},
			{
				"x": -1.969564054,
				"y": 1.5038006039,
				"z": 3.3304476851,
				"element": "N" 
			},
			{
				"x": -2.5973697819,
				"y": 0.6893376433,
				"z": 4.3584543314,
				"element": "C" 
			},
			{
				"x": -2.5765621661,
				"y": 2.3233936425,
				"z": 2.435263245,
				"element": "C" 
			},
			{
				"x": -3.9323484418,
				"y": 2.4613435862,
				"z": 2.3935020168,
				"element": "O" 
			},
			{
				"x": -4.5781156469,
				"y": 1.7643028379,
				"z": 1.3765603276,
				"element": "C" 
			},
			{
				"x": -5.8501111943,
				"y": 2.1779778268,
				"z": 1.3881581005,
				"element": "F" 
			},
			{
				"x": -4.5592724831,
				"y": 0.4310640865,
				"z": 1.6542504568,
				"element": "F" 
			},
			{
				"x": -1.5774124451,
				"y": 2.9575359295,
				"z": 1.718021293,
				"element": "C" 
			},
			{
				"x": -1.8503796984,
				"y": 4.0254736425,
				"z": 0.3853165555,
				"element": "Cl" 
			},
			{
				"x": 3.2752826586,
				"y": -3.2944194926,
				"z": -1.3484586979,
				"element": "H" 
			},
			{
				"x": 4.0706540143,
				"y": -2.1483159253,
				"z": -2.4546471177,
				"element": "H" 
			},
			{
				"x": 2.5489002732,
				"y": -2.9304085191,
				"z": -2.9237019279,
				"element": "H" 
			},
			{
				"x": 2.1135439621,
				"y": -0.5700680565,
				"z": -2.1930851576,
				"element": "H" 
			},
			{
				"x": 1.3643546196,
				"y": -1.718179946,
				"z": -1.0499844464,
				"element": "H" 
			},
			{
				"x": 3.3045145321,
				"y": -0.5228601869,
				"z": 2.7944650146,
				"element": "H" 
			},
			{
				"x": 4.7647103425,
				"y": -1.0482627132,
				"z": 1.9457308368,
				"element": "H" 
			},
			{
				"x": 3.2018953299,
				"y": 5.1933950791,
				"z": 1.0130412016,
				"element": "H" 
			},
			{
				"x": 1.5555450571,
				"y": 0.6512541424,
				"z": 2.0877155498,
				"element": "H" 
			},
			{
				"x": -1.9223631578,
				"y": -0.1373868293,
				"z": 4.5784636212,
				"element": "H" 
			},
			{
				"x": -2.7692223981,
				"y": 1.272691602,
				"z": 5.2681133993,
				"element": "H" 
			},
			{
				"x": -3.5460168432,
				"y": 0.3082456681,
				"z": 3.9814166949,
				"element": "H" 
			},
			{
				"x": -4.1220987628,
				"y": 1.9267325747,
				"z": 0.3954280755,
				"element": "H" 
			}
		],
		 "valence_orbital": [ 
			{
				"type": "occ",
				"energy": -0.28354,
				"method": "rhf"
			},
			{
				"type": "occ",
				"energy": -0.27907,
				"method": "rhf"
			},
			{
				"type": "occ",
				"energy": -0.2523,
				"method": "rhf"
			},
			{
				"type": "occ",
				"energy": -0.24692,
				"method": "rhf"
			},
			{
				"type": "occ",
				"energy": -0.22363,
				"method": "rhf"
			},
			{
				"type": "unocc",
				"energy": -0.03798,
				"method": "rhf"
			},
			{
				"type": "unocc",
				"energy": -0.00604,
				"method": "rhf"
			},
			{
				"type": "unocc",
				"energy": -0.0003,
				"method": "rhf"
			},
			{
				"type": "unocc",
				"energy": 0.00542,
				"method": "rhf"
			},
			{
				"type": "unocc",
				"energy": 0.02603,
				"method": "rhf"
			}
		],
		"cosmo_sigma_profile": { 
			"-0.025": 0.0,
			"-0.024": 0.0,
			"-0.023": 0.0,
			"-0.022": 0.0,
			"-0.021": 0.0,
			"-0.02": 0.0,
			"-0.019": 0.0,
			"-0.018": 0.0,
			"-0.017": 0.0,
			"-0.016": 0.0,
			"-0.015": 0.0,
			"-0.014": 0.0,
			"-0.013": 0.0,
			"-0.012": 0.0111618837228,
			"-0.011": 1.05449435323,
			"-0.01": 2.44972214005,
			"-0.009": 6.05783511435,
			"-0.008": 7.4879133825,
			"-0.007": 11.2604909462,
			"-0.006": 17.1342165695,
			"-0.005": 21.1066679513,
			"-0.004": 27.8700155638,
			"-0.003": 26.2709704827,
			"-0.002": 27.1399133331,
			"-0.001": 25.866586087,
			"0.0": 41.9449093354,
			"0.001": 36.7738377513,
			"0.002": 32.4327706236,
			"0.003": 40.054400721,
			"0.004": 28.4214491875,
			"0.005": 13.3533681473,
			"0.006": 6.97578456298,
			"0.007": 6.37586265109,
			"0.008": 4.85605915082,
			"0.009": 5.46885403833,
			"0.01": 2.60940826811,
			"0.011": 4.92292530555,
			"0.012": 3.41256846524,
			"0.013": 0.762086274623,
			"0.014": 0.0177175937291,
			"0.015": 0.0,
			"0.016": 0.0,
			"0.017": 0.0,
			"0.018": 0.0,
			"0.019": 0.0,
			"0.02": 0.0,
			"0.021": 0.0,
			"0.022": 0.0,
			"0.023": 0.0,
			"0.024": 0.0,
			"0.025": 0.0
		}
	}
}
