{
	 "smiles": "ClC1=CC=C(C=C1)C1C(=O)C2=CC=CC=C2C1=O", 
	 "Tm": 419.15, 
	 "num_atms": 27, 
	 "gaussian": { 
		 "optdone": 1, 
		 "sigma_profile": "yes", 
		 "theory": "DFT", 
		 "functional": "B3LYP", 
		 "basiset": "6-31G**", 
		 "properties": { 
			 "R2extent": 6766.5441, 
			 "electric_dipole_moment_norm": 5.07537177062, 
			 "electric_quadrupole_moment_norm": 8.81349453225, 
			 "total_energy": -1187.66162686, 
			 "HOMO_LUMO_gap": 0.14968, 
			 "cosmo_polarized_energy": -11.77, 
			 "cosmo_cavitation_energy": 33.79, 
			 "cosmo_dispersion_energy": -24.53, 
			 "cosmo_repulsion_energy": 1.86, 
			 "cosmo_total_nonelectrostatic_energy": 11.12, 
			 "SMD_solvation_energy": 6.13 
		},
		"coords": [
			{
				"x": 5.1621283545,
				"y": 2.4817006062,
				"z": 1.0398521973,
				"element": "Cl" 
			},
			{
				"x": 3.9738350786,
				"y": 1.2890629502,
				"z": 0.5296987174,
				"element": "C" 
			},
			{
				"x": 3.7469186365,
				"y": 0.1631994336,
				"z": 1.3200504049,
				"element": "C" 
			},
			{
				"x": 2.8070521223,
				"y": -0.7789788533,
				"z": 0.9073864402,
				"element": "C" 
			},
			{
				"x": 2.0857675521,
				"y": -0.6077469372,
				"z": -0.284133626,
				"element": "C" 
			},
			{
				"x": 2.3357894637,
				"y": 0.5287520146,
				"z": -1.0623688124,
				"element": "C" 
			},
			{
				"x": 3.2766465572,
				"y": 1.4786119042,
				"z": -0.660329898,
				"element": "C" 
			},
			{
				"x": 1.0641287385,
				"y": -1.6673434871,
				"z": -0.6809257871,
				"element": "C" 
			},
			{
				"x": -0.0199777729,
				"y": -1.9414032491,
				"z": 0.394281671,
				"element": "C" 
			},
			{
				"x": 0.1769256629,
				"y": -2.1728377425,
				"z": 1.5704577812,
				"element": "O" 
			},
			{
				"x": -1.3456914284,
				"y": -1.9020455672,
				"z": -0.2765161706,
				"element": "C" 
			},
			{
				"x": -2.6074182914,
				"y": -2.1225150879,
				"z": 0.277436329,
				"element": "C" 
			},
			{
				"x": -3.7128577413,
				"y": -2.0365731487,
				"z": -0.5686182434,
				"element": "C" 
			},
			{
				"x": -3.5584385659,
				"y": -1.7406618686,
				"z": -1.9353523906,
				"element": "C" 
			},
			{
				"x": -2.2953385496,
				"y": -1.5235506299,
				"z": -2.4853999141,
				"element": "C" 
			},
			{
				"x": -1.1919925817,
				"y": -1.6070409687,
				"z": -1.6350733161,
				"element": "C" 
			},
			{
				"x": 0.2460603697,
				"y": -1.4171535312,
				"z": -1.9642965001,
				"element": "C" 
			},
			{
				"x": 0.6887872224,
				"y": -1.13353809,
				"z": -3.0611676844,
				"element": "O" 
			},
			{
				"x": 4.2976403264,
				"y": 0.0252532872,
				"z": 2.2439409905,
				"element": "H" 
			},
			{
				"x": 2.6147873773,
				"y": -1.6462340755,
				"z": 1.5289983679,
				"element": "H" 
			},
			{
				"x": 1.8151456365,
				"y": 0.6726664839,
				"z": -2.001265618,
				"element": "H" 
			},
			{
				"x": 3.4668426184,
				"y": 2.3551793087,
				"z": -1.2697335968,
				"element": "H" 
			},
			{
				"x": 1.5956760119,
				"y": -2.6201853606,
				"z": -0.8303153245,
				"element": "H" 
			},
			{
				"x": -2.7105559572,
				"y": -2.3509818705,
				"z": 1.333392788,
				"element": "H" 
			},
			{
				"x": -4.7102074742,
				"y": -2.1999835326,
				"z": -0.170952176,
				"element": "H" 
			},
			{
				"x": -4.4394776536,
				"y": -1.6812245285,
				"z": -2.567643274,
				"element": "H" 
			},
			{
				"x": -2.1602757129,
				"y": -1.2947274595,
				"z": -3.5377033554,
				"element": "H" 
			}
		],
		 "valence_orbital": [ 
			{
				"type": "occ",
				"energy": -0.28485,
				"method": "rhf"
			},
			{
				"type": "occ",
				"energy": -0.28226,
				"method": "rhf"
			},
			{
				"type": "occ",
				"energy": -0.25904,
				"method": "rhf"
			},
			{
				"type": "occ",
				"energy": -0.25617,
				"method": "rhf"
			},
			{
				"type": "occ",
				"energy": -0.23847,
				"method": "rhf"
			},
			{
				"type": "unocc",
				"energy": -0.08879,
				"method": "rhf"
			},
			{
				"type": "unocc",
				"energy": -0.06991,
				"method": "rhf"
			},
			{
				"type": "unocc",
				"energy": -0.01356,
				"method": "rhf"
			},
			{
				"type": "unocc",
				"energy": -0.01004,
				"method": "rhf"
			},
			{
				"type": "unocc",
				"energy": 0.01973,
				"method": "rhf"
			}
		],
		"cosmo_sigma_profile": { 
			"-0.025": 0.0,
			"-0.024": 0.0,
			"-0.023": 0.0,
			"-0.022": 0.0,
			"-0.021": 0.0,
			"-0.02": 0.0,
			"-0.019": 0.0,
			"-0.018": 0.0,
			"-0.017": 0.0,
			"-0.016": 0.0,
			"-0.015": 0.0,
			"-0.014": 0.0,
			"-0.013": 0.0,
			"-0.012": 0.0,
			"-0.011": 0.0,
			"-0.01": 0.891934435776,
			"-0.009": 3.37093610876,
			"-0.008": 5.36275689319,
			"-0.007": 14.026998577,
			"-0.006": 17.2586339873,
			"-0.005": 16.711709057,
			"-0.004": 16.1861458455,
			"-0.003": 14.6250147932,
			"-0.002": 14.8252194603,
			"-0.001": 19.1367431658,
			"0.0": 21.2120599454,
			"0.001": 26.7106172529,
			"0.002": 25.229191706,
			"0.003": 20.2502947123,
			"0.004": 20.2072525473,
			"0.005": 10.9460016585,
			"0.006": 4.01697412965,
			"0.007": 2.96806547286,
			"0.008": 3.43976619328,
			"0.009": 4.51113292959,
			"0.01": 5.75035955263,
			"0.011": 6.4820415531,
			"0.012": 0.805377458548,
			"0.013": 0.0,
			"0.014": 0.0,
			"0.015": 0.0,
			"0.016": 0.0,
			"0.017": 0.0,
			"0.018": 0.0,
			"0.019": 0.0,
			"0.02": 0.0,
			"0.021": 0.0,
			"0.022": 0.0,
			"0.023": 0.0,
			"0.024": 0.0,
			"0.025": 0.0
		}
	}
}
