{
	 "smiles": "FC1=CC=C(NC(=O)C=C)C=C1", 
	 "Tm": 398.15, 
	 "num_atms": 20, 
	 "gaussian": { 
		 "optdone": 1, 
		 "sigma_profile": "yes", 
		 "theory": "DFT", 
		 "functional": "B3LYP", 
		 "basiset": "6-31G**", 
		 "properties": { 
			 "R2extent": 3290.4795, 
			 "electric_dipole_moment_norm": 1.92483551765, 
			 "electric_quadrupole_moment_norm": 18.1666364922, 
			 "total_energy": -577.575635933, 
			 "HOMO_LUMO_gap": 0.18654, 
			 "cosmo_polarized_energy": -10.95, 
			 "cosmo_cavitation_energy": 25.45, 
			 "cosmo_dispersion_energy": -18.08, 
			 "cosmo_repulsion_energy": 1.42, 
			 "cosmo_total_nonelectrostatic_energy": 8.79, 
			 "SMD_solvation_energy": 6.36 
		},
		"coords": [
			{
				"x": -1.2003442489,
				"y": 0.6894116709,
				"z": -4.5612918873,
				"element": "F" 
			},
			{
				"x": -1.4386646106,
				"y": 0.6355060621,
				"z": -3.2346817914,
				"element": "C" 
			},
			{
				"x": -2.2601638712,
				"y": -0.3690825163,
				"z": -2.7346523796,
				"element": "C" 
			},
			{
				"x": -2.4909540349,
				"y": -0.4282365506,
				"z": -1.3622915631,
				"element": "C" 
			},
			{
				"x": -1.9241077478,
				"y": 0.5209298514,
				"z": -0.4982465653,
				"element": "C" 
			},
			{
				"x": -2.2204501504,
				"y": 0.453215593,
				"z": 0.8843188759,
				"element": "N" 
			},
			{
				"x": -1.4108048802,
				"y": 0.6506062223,
				"z": 1.9917206276,
				"element": "C" 
			},
			{
				"x": -1.9158151617,
				"y": 0.7265087143,
				"z": 3.1061587053,
				"element": "O" 
			},
			{
				"x": 0.064012323,
				"y": 0.7028938971,
				"z": 1.767883191,
				"element": "C" 
			},
			{
				"x": 0.8772893197,
				"y": 1.0421129304,
				"z": 2.7706522627,
				"element": "C" 
			},
			{
				"x": -1.1248671924,
				"y": 1.5417765199,
				"z": -1.0350382505,
				"element": "C" 
			},
			{
				"x": -0.8636946556,
				"y": 1.5897548677,
				"z": -2.4038027439,
				"element": "C" 
			},
			{
				"x": -2.6943600927,
				"y": -1.095132952,
				"z": -3.4132130411,
				"element": "H" 
			},
			{
				"x": -3.1092810906,
				"y": -1.2205379074,
				"z": -0.9507843459,
				"element": "H" 
			},
			{
				"x": -3.1858678228,
				"y": 0.2940250406,
				"z": 1.1456878821,
				"element": "H" 
			},
			{
				"x": 0.4548565049,
				"y": 0.4362283137,
				"z": 0.7912836239,
				"element": "H" 
			},
			{
				"x": 0.4644956274,
				"y": 1.3006920228,
				"z": 3.7410573292,
				"element": "H" 
			},
			{
				"x": 1.9555172594,
				"y": 1.0630535748,
				"z": 2.6490256575,
				"element": "H" 
			},
			{
				"x": -0.7194542179,
				"y": 2.3066236363,
				"z": -0.3816799056,
				"element": "H" 
			},
			{
				"x": -0.2438412567,
				"y": 2.3699510091,
				"z": -2.8319056816,
				"element": "H" 
			}
		],
		 "valence_orbital": [ 
			{
				"type": "occ",
				"energy": -0.2968,
				"method": "rhf"
			},
			{
				"type": "occ",
				"energy": -0.27764,
				"method": "rhf"
			},
			{
				"type": "occ",
				"energy": -0.27272,
				"method": "rhf"
			},
			{
				"type": "occ",
				"energy": -0.25522,
				"method": "rhf"
			},
			{
				"type": "occ",
				"energy": -0.23025,
				"method": "rhf"
			},
			{
				"type": "unocc",
				"energy": -0.04371,
				"method": "rhf"
			},
			{
				"type": "unocc",
				"energy": -0.02382,
				"method": "rhf"
			},
			{
				"type": "unocc",
				"energy": -0.00672,
				"method": "rhf"
			},
			{
				"type": "unocc",
				"energy": 0.07874,
				"method": "rhf"
			},
			{
				"type": "unocc",
				"energy": 0.08906,
				"method": "rhf"
			}
		],
		"cosmo_sigma_profile": { 
			"-0.025": 0.0,
			"-0.024": 0.0,
			"-0.023": 0.0,
			"-0.022": 0.0,
			"-0.021": 0.0,
			"-0.02": 0.0,
			"-0.019": 0.0,
			"-0.018": 0.0,
			"-0.017": 0.0,
			"-0.016": 0.0,
			"-0.015": 0.131593364098,
			"-0.014": 0.760961689467,
			"-0.013": 1.35396517925,
			"-0.012": 0.440681959693,
			"-0.011": 1.27670476627,
			"-0.01": 1.35296810834,
			"-0.009": 0.957129290677,
			"-0.008": 2.28871800841,
			"-0.007": 9.44654163094,
			"-0.006": 10.9059921178,
			"-0.005": 13.4920948354,
			"-0.004": 12.8588864409,
			"-0.003": 12.5869786509,
			"-0.002": 12.5469309391,
			"-0.001": 12.4564912138,
			"0.0": 14.7494287744,
			"0.001": 20.8069232327,
			"0.002": 16.3865591831,
			"0.003": 18.3474501184,
			"0.004": 16.4095789696,
			"0.005": 5.12898998855,
			"0.006": 1.26382385531,
			"0.007": 1.72955698337,
			"0.008": 1.97932501952,
			"0.009": 1.00455366021,
			"0.01": 1.18288816833,
			"0.011": 1.90369122818,
			"0.012": 2.00951542728,
			"0.013": 4.78982423825,
			"0.014": 3.54857578244,
			"0.015": 0.0512881051704,
			"0.016": 0.0,
			"0.017": 0.0,
			"0.018": 0.0,
			"0.019": 0.0,
			"0.02": 0.0,
			"0.021": 0.0,
			"0.022": 0.0,
			"0.023": 0.0,
			"0.024": 0.0,
			"0.025": 0.0
		}
	}
}
