{
	 "smiles": "CC1=CC(C)=C(C=C1)C1=NC=C(S1)C(O)=O", 
	 "Tm": 445.15, 
	 "num_atms": 27, 
	 "gaussian": { 
		 "optdone": 1, 
		 "sigma_profile": "yes", 
		 "theory": "DFT", 
		 "functional": "B3LYP", 
		 "basiset": "6-31G**", 
		 "properties": { 
			 "R2extent": 6559.8953, 
			 "electric_dipole_moment_norm": 6.11724688483, 
			 "electric_quadrupole_moment_norm": 27.898571108, 
			 "total_energy": -1067.30795801, 
			 "HOMO_LUMO_gap": 0.15458, 
			 "cosmo_polarized_energy": -14.08, 
			 "cosmo_cavitation_energy": 32.81, 
			 "cosmo_dispersion_energy": -24.42, 
			 "cosmo_repulsion_energy": 1.84, 
			 "cosmo_total_nonelectrostatic_energy": 10.23, 
			 "SMD_solvation_energy": 5.81 
		},
		"coords": [
			{
				"x": 1.0471225516,
				"y": 2.9697433931,
				"z": 2.6416832598,
				"element": "C" 
			},
			{
				"x": 0.7445100238,
				"y": 1.6891879329,
				"z": 1.9031463257,
				"element": "C" 
			},
			{
				"x": 1.3681832869,
				"y": 1.3920392641,
				"z": 0.6871490787,
				"element": "C" 
			},
			{
				"x": 1.1060473706,
				"y": 0.2308713735,
				"z": -0.0497045988,
				"element": "C" 
			},
			{
				"x": 1.8328303939,
				"y": 0.022973033,
				"z": -1.3558877009,
				"element": "C" 
			},
			{
				"x": 0.1553131329,
				"y": -0.6851943571,
				"z": 0.4725788739,
				"element": "C" 
			},
			{
				"x": -0.4697697073,
				"y": -0.3917221731,
				"z": 1.6996481905,
				"element": "C" 
			},
			{
				"x": -0.1853936874,
				"y": 0.7690032437,
				"z": 2.4039942687,
				"element": "C" 
			},
			{
				"x": -0.1975701355,
				"y": -1.926620111,
				"z": -0.2246947554,
				"element": "C" 
			},
			{
				"x": 0.5384379773,
				"y": -2.5622817618,
				"z": -1.1042109416,
				"element": "N" 
			},
			{
				"x": -0.0675608942,
				"y": -3.6903774974,
				"z": -1.566169042,
				"element": "C" 
			},
			{
				"x": -1.3128669915,
				"y": -3.9738910946,
				"z": -1.0602124531,
				"element": "C" 
			},
			{
				"x": -1.7645836391,
				"y": -2.7190793445,
				"z": 0.0662148988,
				"element": "S" 
			},
			{
				"x": -2.1141254323,
				"y": -5.1601317982,
				"z": -1.436825487,
				"element": "C" 
			},
			{
				"x": -3.2830986312,
				"y": -5.3678288807,
				"z": -0.7756622143,
				"element": "O" 
			},
			{
				"x": -1.7593385568,
				"y": -5.9290318344,
				"z": -2.2999196401,
				"element": "O" 
			},
			{
				"x": 1.0647605401,
				"y": 2.8115497705,
				"z": 3.7245424238,
				"element": "H" 
			},
			{
				"x": 0.2825072409,
				"y": 3.7301018163,
				"z": 2.4387290228,
				"element": "H" 
			},
			{
				"x": 2.0121750218,
				"y": 3.3875903737,
				"z": 2.3421522204,
				"element": "H" 
			},
			{
				"x": 2.093048551,
				"y": 2.0971434675,
				"z": 0.2870312867,
				"element": "H" 
			},
			{
				"x": 1.1414659078,
				"y": -0.1989881015,
				"z": -2.1739584725,
				"element": "H" 
			},
			{
				"x": 2.5166954015,
				"y": -0.828182604,
				"z": -1.3021583819,
				"element": "H" 
			},
			{
				"x": 2.4040222195,
				"y": 0.9182901199,
				"z": -1.6154106251,
				"element": "H" 
			},
			{
				"x": -1.1724201615,
				"y": -1.104069499,
				"z": 2.1226917343,
				"element": "H" 
			},
			{
				"x": -0.67975106,
				"y": 0.9573113213,
				"z": 3.3531576676,
				"element": "H" 
			},
			{
				"x": 0.4318421619,
				"y": -4.322483752,
				"z": -2.2904657433,
				"element": "H" 
			},
			{
				"x": -3.4177828848,
				"y": -4.7144223002,
				"z": -0.0743391956,
				"element": "H" 
			}
		],
		 "valence_orbital": [ 
			{
				"type": "occ",
				"energy": -0.28787,
				"method": "rhf"
			},
			{
				"type": "occ",
				"energy": -0.28504,
				"method": "rhf"
			},
			{
				"type": "occ",
				"energy": -0.27818,
				"method": "rhf"
			},
			{
				"type": "occ",
				"energy": -0.25817,
				"method": "rhf"
			},
			{
				"type": "occ",
				"energy": -0.2339,
				"method": "rhf"
			},
			{
				"type": "unocc",
				"energy": -0.07932,
				"method": "rhf"
			},
			{
				"type": "unocc",
				"energy": -0.0218,
				"method": "rhf"
			},
			{
				"type": "unocc",
				"energy": -0.01878,
				"method": "rhf"
			},
			{
				"type": "unocc",
				"energy": -0.0058,
				"method": "rhf"
			},
			{
				"type": "unocc",
				"energy": 0.03083,
				"method": "rhf"
			}
		],
		"cosmo_sigma_profile": { 
			"-0.025": 0.0,
			"-0.024": 0.0,
			"-0.023": 0.0,
			"-0.022": 0.0,
			"-0.021": 0.0,
			"-0.02": 0.0,
			"-0.019": 0.0938331715276,
			"-0.018": 0.625688996257,
			"-0.017": 0.744540629689,
			"-0.016": 0.866417859936,
			"-0.015": 0.853003496342,
			"-0.014": 0.977047706923,
			"-0.013": 1.55839058283,
			"-0.012": 0.985575667349,
			"-0.011": 1.05679383112,
			"-0.01": 0.648792988719,
			"-0.009": 1.14931321651,
			"-0.008": 2.79005262324,
			"-0.007": 3.15549503873,
			"-0.006": 6.39635422785,
			"-0.005": 13.8625390838,
			"-0.004": 19.7166521582,
			"-0.003": 18.9996273912,
			"-0.002": 22.2151990174,
			"-0.001": 29.4099177545,
			"0.0": 33.8920853935,
			"0.001": 21.4603172935,
			"0.002": 15.8768897811,
			"0.003": 12.5492852275,
			"0.004": 14.8896568711,
			"0.005": 7.04023853617,
			"0.006": 3.38550100339,
			"0.007": 3.70244483135,
			"0.008": 4.3564077722,
			"0.009": 4.59638962154,
			"0.01": 6.08959321616,
			"0.011": 5.01082892678,
			"0.012": 4.17465510819,
			"0.013": 0.85726606741,
			"0.014": 0.0,
			"0.015": 0.0,
			"0.016": 0.0,
			"0.017": 0.0,
			"0.018": 0.0,
			"0.019": 0.0,
			"0.02": 0.0,
			"0.021": 0.0,
			"0.022": 0.0,
			"0.023": 0.0,
			"0.024": 0.0,
			"0.025": 0.0
		}
	}
}
