{
	 "smiles": "[O-][N+](=O)C1=CC=C(C=C1)C1=C(C(=NO1)C(=O)C1=CC=CO1)S(=O)(=O)C1=CC=CC=C1", 
	 "Tm": 411.15, 
	 "num_atms": 42, 
	 "gaussian": { 
		 "optdone": 1, 
		 "sigma_profile": "yes", 
		 "theory": "DFT", 
		 "functional": "B3LYP", 
		 "basiset": "6-31G**", 
		 "properties": { 
			 "R2extent": 14001.8369, 
			 "electric_dipole_moment_norm": 7.45850593819, 
			 "electric_quadrupole_moment_norm": 22.3268832798, 
			 "total_energy": -1803.34980378, 
			 "HOMO_LUMO_gap": 0.14428, 
			 "cosmo_polarized_energy": -24.61, 
			 "cosmo_cavitation_energy": 50.83, 
			 "cosmo_dispersion_energy": -33.54, 
			 "cosmo_repulsion_energy": 2.45, 
			 "cosmo_total_nonelectrostatic_energy": 19.75, 
			 "SMD_solvation_energy": 11.25 
		},
		"coords": [
			{
				"x": 0.8829706538,
				"y": -4.7729443675,
				"z": -5.4677913356,
				"element": "O" 
			},
			{
				"x": 1.6421789184,
				"y": -3.996565841,
				"z": -4.890279078,
				"element": "N" 
			},
			{
				"x": 2.6652653635,
				"y": -3.5180518955,
				"z": -5.3766655872,
				"element": "O" 
			},
			{
				"x": 1.2974474036,
				"y": -3.607600201,
				"z": -3.5109598192,
				"element": "C" 
			},
			{
				"x": 0.1370502634,
				"y": -4.1235628331,
				"z": -2.9362144315,
				"element": "C" 
			},
			{
				"x": -0.1871051765,
				"y": -3.7490781341,
				"z": -1.6386874406,
				"element": "C" 
			},
			{
				"x": 0.6413441023,
				"y": -2.8610442169,
				"z": -0.9254642225,
				"element": "C" 
			},
			{
				"x": 1.8135365906,
				"y": -2.366389319,
				"z": -1.5241501213,
				"element": "C" 
			},
			{
				"x": 2.1422417286,
				"y": -2.739887832,
				"z": -2.8237607851,
				"element": "C" 
			},
			{
				"x": 0.2754886251,
				"y": -2.4995806645,
				"z": 0.4469103688,
				"element": "C" 
			},
			{
				"x": 0.4564176709,
				"y": -1.4082310554,
				"z": 1.2717227233,
				"element": "C" 
			},
			{
				"x": -0.2015196598,
				"y": -1.7712822734,
				"z": 2.4890586953,
				"element": "C" 
			},
			{
				"x": -0.7418240276,
				"y": -2.9618016608,
				"z": 2.4052937955,
				"element": "N" 
			},
			{
				"x": -0.4472806347,
				"y": -3.4191580249,
				"z": 1.1178245045,
				"element": "O" 
			},
			{
				"x": -0.2362594805,
				"y": -1.0597386927,
				"z": 3.8343653883,
				"element": "C" 
			},
			{
				"x": 0.6460360425,
				"y": -1.2775943544,
				"z": 4.645062531,
				"element": "O" 
			},
			{
				"x": -1.3702748587,
				"y": -0.1943616931,
				"z": 4.123632064,
				"element": "C" 
			},
			{
				"x": -1.7021381247,
				"y": 0.5045012835,
				"z": 5.2565951411,
				"element": "C" 
			},
			{
				"x": -2.9292866481,
				"y": 1.1672504113,
				"z": 4.9769728804,
				"element": "C" 
			},
			{
				"x": -3.2595917829,
				"y": 0.8276930897,
				"z": 3.694330514,
				"element": "C" 
			},
			{
				"x": -2.3277019091,
				"y": 0.0019550217,
				"z": 3.1577515756,
				"element": "O" 
			},
			{
				"x": 1.2160099634,
				"y": 0.1800622334,
				"z": 0.9795981019,
				"element": "S" 
			},
			{
				"x": 0.9590861273,
				"y": 0.9503799364,
				"z": 2.2037278567,
				"element": "O" 
			},
			{
				"x": 2.5877330042,
				"y": -0.0190027284,
				"z": 0.4853266225,
				"element": "O" 
			},
			{
				"x": 0.2491568706,
				"y": 0.8934130301,
				"z": -0.3584786236,
				"element": "C" 
			},
			{
				"x": -1.0969162186,
				"y": 1.2013229384,
				"z": -0.1381448734,
				"element": "C" 
			},
			{
				"x": -1.8275749245,
				"y": 1.788368685,
				"z": -1.169148762,
				"element": "C" 
			},
			{
				"x": -1.2133072719,
				"y": 2.072342171,
				"z": -2.3930868179,
				"element": "C" 
			},
			{
				"x": 0.1347352993,
				"y": 1.7715924591,
				"z": -2.5926367375,
				"element": "C" 
			},
			{
				"x": 0.8777960299,
				"y": 1.1761387957,
				"z": -1.5713150757,
				"element": "C" 
			},
			{
				"x": -0.4873174339,
				"y": -4.7990485985,
				"z": -3.5070481143,
				"element": "H" 
			},
			{
				"x": -1.0848476277,
				"y": -4.1373456241,
				"z": -1.1716536106,
				"element": "H" 
			},
			{
				"x": 2.4718640732,
				"y": -1.7105377919,
				"z": -0.9660808208,
				"element": "H" 
			},
			{
				"x": 3.0422064262,
				"y": -2.3789114274,
				"z": -3.3054290095,
				"element": "H" 
			},
			{
				"x": -1.122880194,
				"y": 0.5256203596,
				"z": 6.1675632151,
				"element": "H" 
			},
			{
				"x": -3.495252566,
				"y": 1.8095276472,
				"z": 5.6357957372,
				"element": "H" 
			},
			{
				"x": -4.0922921541,
				"y": 1.0783701588,
				"z": 3.0549568838,
				"element": "H" 
			},
			{
				"x": -1.5594187209,
				"y": 0.9854001752,
				"z": 0.8194558643,
				"element": "H" 
			},
			{
				"x": -2.8748772817,
				"y": 2.0307420313,
				"z": -1.0169216883,
				"element": "H" 
			},
			{
				"x": -1.7879718383,
				"y": 2.5331310611,
				"z": -3.1910159625,
				"element": "H" 
			},
			{
				"x": 0.6111118292,
				"y": 2.0004155944,
				"z": -3.540889278,
				"element": "H" 
			},
			{
				"x": 1.9288615481,
				"y": 0.9436921467,
				"z": -1.6982222681,
				"element": "H" 
			}
		],
		 "valence_orbital": [ 
			{
				"type": "occ",
				"energy": -0.28792,
				"method": "rhf"
			},
			{
				"type": "occ",
				"energy": -0.28386,
				"method": "rhf"
			},
			{
				"type": "occ",
				"energy": -0.27591,
				"method": "rhf"
			},
			{
				"type": "occ",
				"energy": -0.27025,
				"method": "rhf"
			},
			{
				"type": "occ",
				"energy": -0.25539,
				"method": "rhf"
			},
			{
				"type": "unocc",
				"energy": -0.11111,
				"method": "rhf"
			},
			{
				"type": "unocc",
				"energy": -0.07453,
				"method": "rhf"
			},
			{
				"type": "unocc",
				"energy": -0.06034,
				"method": "rhf"
			},
			{
				"type": "unocc",
				"energy": -0.05336,
				"method": "rhf"
			},
			{
				"type": "unocc",
				"energy": -0.04346,
				"method": "rhf"
			}
		],
		"cosmo_sigma_profile": { 
			"-0.025": 0.0,
			"-0.024": 0.0,
			"-0.023": 0.0,
			"-0.022": 0.0,
			"-0.021": 0.0,
			"-0.02": 0.0,
			"-0.019": 0.0,
			"-0.018": 0.0,
			"-0.017": 0.0,
			"-0.016": 0.0,
			"-0.015": 0.0,
			"-0.014": 0.0,
			"-0.013": 0.0,
			"-0.012": 0.0,
			"-0.011": 0.386285603138,
			"-0.01": 2.25992586043,
			"-0.009": 3.76464808167,
			"-0.008": 11.5530050562,
			"-0.007": 19.6776017506,
			"-0.006": 22.8055743811,
			"-0.005": 27.9985692561,
			"-0.004": 27.178426278,
			"-0.003": 27.6618078184,
			"-0.002": 29.537234277,
			"-0.001": 36.5739883599,
			"0.0": 32.6455567499,
			"0.001": 25.1821598009,
			"0.002": 28.5310014817,
			"0.003": 19.8237894081,
			"0.004": 11.133746929,
			"0.005": 11.1020442966,
			"0.006": 11.2259169506,
			"0.007": 17.3609246867,
			"0.008": 12.3846171447,
			"0.009": 12.1860658209,
			"0.01": 12.6566153287,
			"0.011": 7.89345270883,
			"0.012": 0.508933385015,
			"0.013": 0.0,
			"0.014": 0.0,
			"0.015": 0.0,
			"0.016": 0.0,
			"0.017": 0.0,
			"0.018": 0.0,
			"0.019": 0.0,
			"0.02": 0.0,
			"0.021": 0.0,
			"0.022": 0.0,
			"0.023": 0.0,
			"0.024": 0.0,
			"0.025": 0.0
		}
	}
}
