{
	 "smiles": "COC(=O)C1=C(C)OC(C)=C1S(Cl)(=O)=O", 
	 "Tm": 343.65, 
	 "num_atms": 24, 
	 "gaussian": { 
		 "optdone": 1, 
		 "sigma_profile": "yes", 
		 "theory": "DFT", 
		 "functional": "B3LYP", 
		 "basiset": "6-31G**", 
		 "properties": { 
			 "R2extent": 4335.9791, 
			 "electric_dipole_moment_norm": 3.69930404671, 
			 "electric_quadrupole_moment_norm": 20.5889073855, 
			 "total_energy": -1544.7015802, 
			 "HOMO_LUMO_gap": 0.17554, 
			 "cosmo_polarized_energy": -11.4, 
			 "cosmo_cavitation_energy": 31.57, 
			 "cosmo_dispersion_energy": -22.77, 
			 "cosmo_repulsion_energy": 1.75, 
			 "cosmo_total_nonelectrostatic_energy": 10.56, 
			 "SMD_solvation_energy": 6.55 
		},
		"coords": [
			{
				"x": 1.7098973045,
				"y": -1.3478197136,
				"z": 2.1801008898,
				"element": "C" 
			},
			{
				"x": 1.1833662967,
				"y": -1.0071440328,
				"z": 0.8866765929,
				"element": "O" 
			},
			{
				"x": 1.9894902983,
				"y": -1.2378867861,
				"z": -0.1583875685,
				"element": "C" 
			},
			{
				"x": 3.1265111546,
				"y": -1.6623066209,
				"z": -0.0589415783,
				"element": "O" 
			},
			{
				"x": 1.3355296221,
				"y": -0.8895304849,
				"z": -1.4390074953,
				"element": "C" 
			},
			{
				"x": 2.0128707795,
				"y": -0.7485294847,
				"z": -2.6215021834,
				"element": "C" 
			},
			{
				"x": 3.4353388949,
				"y": -0.895688881,
				"z": -3.0215659989,
				"element": "C" 
			},
			{
				"x": 1.1405028006,
				"y": -0.3801206727,
				"z": -3.6082700244,
				"element": "O" 
			},
			{
				"x": -0.1142772102,
				"y": -0.2803700775,
				"z": -3.0912317737,
				"element": "C" 
			},
			{
				"x": -1.1866077632,
				"y": 0.0955143361,
				"z": -4.0535650578,
				"element": "C" 
			},
			{
				"x": -0.0498013589,
				"y": -0.5874220606,
				"z": -1.7542555888,
				"element": "C" 
			},
			{
				"x": -1.4958097942,
				"y": -0.7005729151,
				"z": -0.7554019666,
				"element": "S" 
			},
			{
				"x": -1.3389166778,
				"y": 1.0116781546,
				"z": 0.5022846487,
				"element": "Cl" 
			},
			{
				"x": -2.6482090259,
				"y": -0.4377684752,
				"z": -1.6126769962,
				"element": "O" 
			},
			{
				"x": -1.447440309,
				"y": -1.8713590931,
				"z": 0.1062658727,
				"element": "O" 
			},
			{
				"x": 2.5989421937,
				"y": -0.751376907,
				"z": 2.3984443287,
				"element": "H" 
			},
			{
				"x": 0.9102772068,
				"y": -1.1237788214,
				"z": 2.8843518657,
				"element": "H" 
			},
			{
				"x": 1.9722376267,
				"y": -2.4075552774,
				"z": 2.2165317171,
				"element": "H" 
			},
			{
				"x": 4.0260250986,
				"y": -1.17809837,
				"z": -2.151466737,
				"element": "H" 
			},
			{
				"x": 3.8167591555,
				"y": 0.0412075082,
				"z": -3.4423848465,
				"element": "H" 
			},
			{
				"x": 3.5381912826,
				"y": -1.6699751944,
				"z": -3.7900864084,
				"element": "H" 
			},
			{
				"x": -1.8057574501,
				"y": 0.9025739227,
				"z": -3.657833096,
				"element": "H" 
			},
			{
				"x": -1.8536365339,
				"y": -0.7491546834,
				"z": -4.2507416772,
				"element": "H" 
			},
			{
				"x": -0.7250835917,
				"y": 0.4102846302,
				"z": -4.9916369184,
				"element": "H" 
			}
		],
		 "valence_orbital": [ 
			{
				"type": "occ",
				"energy": -0.3143,
				"method": "rhf"
			},
			{
				"type": "occ",
				"energy": -0.3094,
				"method": "rhf"
			},
			{
				"type": "occ",
				"energy": -0.30412,
				"method": "rhf"
			},
			{
				"type": "occ",
				"energy": -0.28783,
				"method": "rhf"
			},
			{
				"type": "occ",
				"energy": -0.25677,
				"method": "rhf"
			},
			{
				"type": "unocc",
				"energy": -0.08123,
				"method": "rhf"
			},
			{
				"type": "unocc",
				"energy": -0.04377,
				"method": "rhf"
			},
			{
				"type": "unocc",
				"energy": -0.02555,
				"method": "rhf"
			},
			{
				"type": "unocc",
				"energy": 0.05345,
				"method": "rhf"
			},
			{
				"type": "unocc",
				"energy": 0.07068,
				"method": "rhf"
			}
		],
		"cosmo_sigma_profile": { 
			"-0.025": 0.0,
			"-0.024": 0.0,
			"-0.023": 0.0,
			"-0.022": 0.0,
			"-0.021": 0.0,
			"-0.02": 0.0,
			"-0.019": 0.0,
			"-0.018": 0.0,
			"-0.017": 0.0,
			"-0.016": 0.0,
			"-0.015": 0.0,
			"-0.014": 0.0,
			"-0.013": 0.0,
			"-0.012": 0.0,
			"-0.011": 0.0,
			"-0.01": 0.0,
			"-0.009": 0.0,
			"-0.008": 0.0,
			"-0.007": 4.51486693664,
			"-0.006": 17.1978397157,
			"-0.005": 19.7879530157,
			"-0.004": 22.9368244507,
			"-0.003": 30.7015279998,
			"-0.002": 25.8615666054,
			"-0.001": 19.2933353688,
			"0.0": 13.9982897315,
			"0.001": 10.6126892599,
			"0.002": 12.2215672466,
			"0.003": 16.8112245958,
			"0.004": 14.4708214025,
			"0.005": 8.40291762026,
			"0.006": 6.33918598249,
			"0.007": 7.11842018491,
			"0.008": 10.0790180712,
			"0.009": 7.33844737139,
			"0.01": 2.23093451934,
			"0.011": 3.04398043547,
			"0.012": 1.34049266104,
			"0.013": 0.0,
			"0.014": 0.0,
			"0.015": 0.0,
			"0.016": 0.0,
			"0.017": 0.0,
			"0.018": 0.0,
			"0.019": 0.0,
			"0.02": 0.0,
			"0.021": 0.0,
			"0.022": 0.0,
			"0.023": 0.0,
			"0.024": 0.0,
			"0.025": 0.0
		}
	}
}
