{
	 "smiles": "O=CC1=C(C=CC=C1)S(=O)(=O)N1CCOCC1", 
	 "Tm": 371.15, 
	 "num_atms": 30, 
	 "gaussian": { 
		 "optdone": 1, 
		 "sigma_profile": "yes", 
		 "theory": "DFT", 
		 "functional": "B3LYP", 
		 "basiset": "6-31G**", 
		 "properties": { 
			 "R2extent": 4696.0492, 
			 "electric_dipole_moment_norm": 3.70619491797, 
			 "electric_quadrupole_moment_norm": 19.2849519058, 
			 "total_energy": -1180.72588804, 
			 "HOMO_LUMO_gap": 0.17145, 
			 "cosmo_polarized_energy": -15.99, 
			 "cosmo_cavitation_energy": 33.75, 
			 "cosmo_dispersion_energy": -24.21, 
			 "cosmo_repulsion_energy": 1.81, 
			 "cosmo_total_nonelectrostatic_energy": 11.36, 
			 "SMD_solvation_energy": 5.5 
		},
		"coords": [
			{
				"x": -0.3230673504,
				"y": -2.5728411912,
				"z": -3.4084493609,
				"element": "O" 
			},
			{
				"x": -0.6191910431,
				"y": -1.5976649126,
				"z": -2.7439318614,
				"element": "C" 
			},
			{
				"x": -0.0605218157,
				"y": -0.2387421717,
				"z": -3.0337361462,
				"element": "C" 
			},
			{
				"x": -0.2235194568,
				"y": 0.8850961524,
				"z": -2.1982618026,
				"element": "C" 
			},
			{
				"x": 0.3058776282,
				"y": 2.12524196,
				"z": -2.5538759223,
				"element": "C" 
			},
			{
				"x": 1.0151980498,
				"y": 2.2591596089,
				"z": -3.7498139322,
				"element": "C" 
			},
			{
				"x": 1.1992894291,
				"y": 1.1536141933,
				"z": -4.5808780219,
				"element": "C" 
			},
			{
				"x": 0.6669637296,
				"y": -0.0823269136,
				"z": -4.2206647825,
				"element": "C" 
			},
			{
				"x": -1.1370591225,
				"y": 0.8161644534,
				"z": -0.6384972133,
				"element": "S" 
			},
			{
				"x": -2.4584699156,
				"y": 0.2190569541,
				"z": -0.8604312708,
				"element": "O" 
			},
			{
				"x": -1.0257270858,
				"y": 2.1474963935,
				"z": -0.0247114331,
				"element": "O" 
			},
			{
				"x": -0.2497656568,
				"y": -0.3379746233,
				"z": 0.2214832639,
				"element": "N" 
			},
			{
				"x": -1.0450947824,
				"y": -1.1443025979,
				"z": 1.1819696508,
				"element": "C" 
			},
			{
				"x": -0.0796066338,
				"y": -2.0265182465,
				"z": 1.9646682167,
				"element": "C" 
			},
			{
				"x": 0.8499421028,
				"y": -1.279597569,
				"z": 2.7472857911,
				"element": "O" 
			},
			{
				"x": 1.1169773985,
				"y": 0.0293036895,
				"z": 2.2557337488,
				"element": "C" 
			},
			{
				"x": 1.0768384108,
				"y": 0.0975180838,
				"z": 0.7315051079,
				"element": "C" 
			},
			{
				"x": -1.3348656549,
				"y": -1.6705328044,
				"z": -1.9105749221,
				"element": "H" 
			},
			{
				"x": 0.1589196747,
				"y": 2.9702500643,
				"z": -1.8909323968,
				"element": "H" 
			},
			{
				"x": 1.423158498,
				"y": 3.2268414229,
				"z": -4.0254776953,
				"element": "H" 
			},
			{
				"x": 1.754021726,
				"y": 1.2550682006,
				"z": -5.5087627479,
				"element": "H" 
			},
			{
				"x": 0.7925206922,
				"y": -0.9583051491,
				"z": -4.8486770365,
				"element": "H" 
			},
			{
				"x": -1.7552626326,
				"y": -1.7608170284,
				"z": 0.6273177155,
				"element": "H" 
			},
			{
				"x": -1.6178800626,
				"y": -0.5156229076,
				"z": 1.8761402383,
				"element": "H" 
			},
			{
				"x": 0.4579041337,
				"y": -2.6855600391,
				"z": 1.2660879421,
				"element": "H" 
			},
			{
				"x": -0.6465547602,
				"y": -2.6599357565,
				"z": 2.6547512358,
				"element": "H" 
			},
			{
				"x": 0.4007447734,
				"y": 0.754609559,
				"z": 2.6696608644,
				"element": "H" 
			},
			{
				"x": 2.1147470297,
				"y": 0.3025427483,
				"z": 2.6139203518,
				"element": "H" 
			},
			{
				"x": 1.2805066412,
				"y": 1.1226299553,
				"z": 0.4122863224,
				"element": "H" 
			},
			{
				"x": 1.8479760554,
				"y": -0.5530515284,
				"z": 0.3036660963,
				"element": "H" 
			}
		],
		 "valence_orbital": [ 
			{
				"type": "occ",
				"energy": -0.29123,
				"method": "rhf"
			},
			{
				"type": "occ",
				"energy": -0.28138,
				"method": "rhf"
			},
			{
				"type": "occ",
				"energy": -0.26619,
				"method": "rhf"
			},
			{
				"type": "occ",
				"energy": -0.26387,
				"method": "rhf"
			},
			{
				"type": "occ",
				"energy": -0.25496,
				"method": "rhf"
			},
			{
				"type": "unocc",
				"energy": -0.08351,
				"method": "rhf"
			},
			{
				"type": "unocc",
				"energy": -0.04313,
				"method": "rhf"
			},
			{
				"type": "unocc",
				"energy": 0.0189,
				"method": "rhf"
			},
			{
				"type": "unocc",
				"energy": 0.04687,
				"method": "rhf"
			},
			{
				"type": "unocc",
				"energy": 0.06701,
				"method": "rhf"
			}
		],
		"cosmo_sigma_profile": { 
			"-0.025": 0.0,
			"-0.024": 0.0,
			"-0.023": 0.0,
			"-0.022": 0.0,
			"-0.021": 0.0,
			"-0.02": 0.0,
			"-0.019": 0.0,
			"-0.018": 0.0,
			"-0.017": 0.0,
			"-0.016": 0.0,
			"-0.015": 0.0,
			"-0.014": 0.0,
			"-0.013": 0.0,
			"-0.012": 0.0,
			"-0.011": 0.0,
			"-0.01": 0.0,
			"-0.009": 0.0,
			"-0.008": 2.17009870835,
			"-0.007": 8.92985046159,
			"-0.006": 23.4707331778,
			"-0.005": 29.6357402248,
			"-0.004": 27.3786862584,
			"-0.003": 20.3713755138,
			"-0.002": 19.8703025148,
			"-0.001": 18.4055012066,
			"0.0": 18.4697405818,
			"0.001": 19.7267235298,
			"0.002": 11.475337319,
			"0.003": 6.03487995908,
			"0.004": 5.04920129712,
			"0.005": 4.3827197603,
			"0.006": 5.57607115275,
			"0.007": 4.6380225229,
			"0.008": 6.58514360488,
			"0.009": 7.48980370351,
			"0.01": 11.2955619202,
			"0.011": 11.0827224171,
			"0.012": 4.01439488147,
			"0.013": 1.77773064517,
			"0.014": 0.158308384724,
			"0.015": 0.0,
			"0.016": 0.0,
			"0.017": 0.0,
			"0.018": 0.0,
			"0.019": 0.0,
			"0.02": 0.0,
			"0.021": 0.0,
			"0.022": 0.0,
			"0.023": 0.0,
			"0.024": 0.0,
			"0.025": 0.0
		}
	}
}
