{
	 "smiles": "ClC1=CC2=C(N=CC=C2)C(CBr)=C1", 
	 "Tm": 390.15, 
	 "num_atms": 20, 
	 "gaussian": { 
		 "optdone": 1, 
		 "sigma_profile": "yes", 
		 "theory": "DFT", 
		 "functional": "B3LYP", 
		 "basiset": "6-31G**", 
		 "properties": { 
			 "R2extent": 4931.8729, 
			 "electric_dipole_moment_norm": 3.48602828158, 
			 "electric_quadrupole_moment_norm": 7.51872431866, 
			 "total_energy": -3471.6433031, 
			 "HOMO_LUMO_gap": 0.16723, 
			 "cosmo_polarized_energy": -8.96, 
			 "cosmo_cavitation_energy": 28.34, 
			 "cosmo_dispersion_energy": -21.12, 
			 "cosmo_repulsion_energy": 1.67, 
			 "cosmo_total_nonelectrostatic_energy": 8.9, 
			 "SMD_solvation_energy": 2.15 
		},
		"coords": [
			{
				"x": 4.0720742185,
				"y": 2.2162721748,
				"z": 1.3129115496,
				"element": "Cl" 
			},
			{
				"x": 2.6690480417,
				"y": 1.1624813012,
				"z": 1.259807655,
				"element": "C" 
			},
			{
				"x": 2.7364628604,
				"y": -0.0346851524,
				"z": 0.5872576353,
				"element": "C" 
			},
			{
				"x": 1.5969602724,
				"y": -0.8784806703,
				"z": 0.5613399071,
				"element": "C" 
			},
			{
				"x": 0.3950840702,
				"y": -0.479197136,
				"z": 1.2274070398,
				"element": "C" 
			},
			{
				"x": -0.7196554825,
				"y": -1.2610535548,
				"z": 1.247061654,
				"element": "N" 
			},
			{
				"x": -0.6817190037,
				"y": -2.4164357146,
				"z": 0.6141060517,
				"element": "C" 
			},
			{
				"x": 0.4517721525,
				"y": -2.8996628988,
				"z": -0.0858608339,
				"element": "C" 
			},
			{
				"x": 1.5904332838,
				"y": -2.1306964935,
				"z": -0.106771445,
				"element": "C" 
			},
			{
				"x": 0.3603813515,
				"y": 0.7815696957,
				"z": 1.9069565094,
				"element": "C" 
			},
			{
				"x": -0.8883715321,
				"y": 1.2198557874,
				"z": 2.5974651308,
				"element": "C" 
			},
			{
				"x": -2.048168082,
				"y": 2.3212971903,
				"z": 1.3908520986,
				"element": "Br" 
			},
			{
				"x": 1.4897929147,
				"y": 1.5772640468,
				"z": 1.9176370114,
				"element": "C" 
			},
			{
				"x": 3.6480867893,
				"y": -0.3374359128,
				"z": 0.0828185871,
				"element": "H" 
			},
			{
				"x": -1.5894541578,
				"y": -3.0172794558,
				"z": 0.6497855271,
				"element": "H" 
			},
			{
				"x": 0.4092637054,
				"y": -3.8615402147,
				"z": -0.5864594354,
				"element": "H" 
			},
			{
				"x": 2.4858977351,
				"y": -2.4636852246,
				"z": -0.6248382254,
				"element": "H" 
			},
			{
				"x": -1.5134724369,
				"y": 0.3761603945,
				"z": 2.8735839205,
				"element": "H" 
			},
			{
				"x": -0.6889556044,
				"y": 1.8690855015,
				"z": 3.4473260553,
				"element": "H" 
			},
			{
				"x": 1.4767389039,
				"y": 2.5369663362,
				"z": 2.4236136069,
				"element": "H" 
			}
		],
		 "valence_orbital": [ 
			{
				"type": "occ",
				"energy": -0.27506,
				"method": "rhf"
			},
			{
				"type": "occ",
				"energy": -0.26791,
				"method": "rhf"
			},
			{
				"type": "occ",
				"energy": -0.26448,
				"method": "rhf"
			},
			{
				"type": "occ",
				"energy": -0.25982,
				"method": "rhf"
			},
			{
				"type": "occ",
				"energy": -0.24176,
				"method": "rhf"
			},
			{
				"type": "unocc",
				"energy": -0.07453,
				"method": "rhf"
			},
			{
				"type": "unocc",
				"energy": -0.03325,
				"method": "rhf"
			},
			{
				"type": "unocc",
				"energy": -0.02134,
				"method": "rhf"
			},
			{
				"type": "unocc",
				"energy": 0.02114,
				"method": "rhf"
			},
			{
				"type": "unocc",
				"energy": 0.03003,
				"method": "rhf"
			}
		],
		"cosmo_sigma_profile": { 
			"-0.025": 0.0,
			"-0.024": 0.0,
			"-0.023": 0.0,
			"-0.022": 0.0,
			"-0.021": 0.0,
			"-0.02": 0.0,
			"-0.019": 0.0,
			"-0.018": 0.0,
			"-0.017": 0.0,
			"-0.016": 0.0,
			"-0.015": 0.0,
			"-0.014": 0.0,
			"-0.013": 0.0,
			"-0.012": 0.0,
			"-0.011": 0.0,
			"-0.01": 0.0,
			"-0.009": 1.27709342627,
			"-0.008": 8.85101751628,
			"-0.007": 11.3062622862,
			"-0.006": 12.2883258926,
			"-0.005": 11.8816159512,
			"-0.004": 11.2827114014,
			"-0.003": 9.92298704053,
			"-0.002": 11.8152754208,
			"-0.001": 13.5651774771,
			"0.0": 24.3375326804,
			"0.001": 30.8918259989,
			"0.002": 18.9116742718,
			"0.003": 14.6719818942,
			"0.004": 17.2175665204,
			"0.005": 11.6510732579,
			"0.006": 11.9962769545,
			"0.007": 6.68550315723,
			"0.008": 2.29469737013,
			"0.009": 0.563956137911,
			"0.01": 1.14050617401,
			"0.011": 0.912405761922,
			"0.012": 0.126648438472,
			"0.013": 0.0,
			"0.014": 0.0,
			"0.015": 0.0,
			"0.016": 0.0,
			"0.017": 0.0,
			"0.018": 0.0,
			"0.019": 0.0,
			"0.02": 0.0,
			"0.021": 0.0,
			"0.022": 0.0,
			"0.023": 0.0,
			"0.024": 0.0,
			"0.025": 0.0
		}
	}
}
