{
	 "smiles": "CC1=C(Br)C(Cl)=C(C=N1)C(O)=O", 
	 "Tm": 426.15, 
	 "num_atms": 17, 
	 "gaussian": { 
		 "optdone": 1, 
		 "sigma_profile": "yes", 
		 "theory": "DFT", 
		 "functional": "B3LYP", 
		 "basiset": "6-31G**", 
		 "properties": { 
			 "R2extent": 4148.2175, 
			 "electric_dipole_moment_norm": 4.16036338197, 
			 "electric_quadrupole_moment_norm": 13.8850920415, 
			 "total_energy": -3506.55289737, 
			 "HOMO_LUMO_gap": 0.19587, 
			 "cosmo_polarized_energy": -10.98, 
			 "cosmo_cavitation_energy": 25.27, 
			 "cosmo_dispersion_energy": -19.47, 
			 "cosmo_repulsion_energy": 1.52, 
			 "cosmo_total_nonelectrostatic_energy": 7.32, 
			 "SMD_solvation_energy": 3.09 
		},
		"coords": [
			{
				"x": 2.0141311788,
				"y": -0.056582328,
				"z": -3.3830474051,
				"element": "C" 
			},
			{
				"x": 0.7506178986,
				"y": 0.0956686259,
				"z": -2.5830532312,
				"element": "C" 
			},
			{
				"x": 0.3351207635,
				"y": -0.859772935,
				"z": -1.6352902084,
				"element": "C" 
			},
			{
				"x": 1.3997368505,
				"y": -2.4099631876,
				"z": -1.3547054769,
				"element": "Br" 
			},
			{
				"x": -0.8518730348,
				"y": -0.6543802735,
				"z": -0.9215270072,
				"element": "C" 
			},
			{
				"x": -1.3525561228,
				"y": -1.8688807258,
				"z": 0.2453370289,
				"element": "Cl" 
			},
			{
				"x": -1.6190634211,
				"y": 0.497790546,
				"z": -1.1642656341,
				"element": "C" 
			},
			{
				"x": -1.1106452251,
				"y": 1.3753693128,
				"z": -2.1360281019,
				"element": "C" 
			},
			{
				"x": 0.019058733,
				"y": 1.1957515355,
				"z": -2.8135096059,
				"element": "N" 
			},
			{
				"x": -2.929505306,
				"y": 0.9414917399,
				"z": -0.541154064,
				"element": "C" 
			},
			{
				"x": -3.3641384301,
				"y": 0.3502194203,
				"z": 0.5840937549,
				"element": "O" 
			},
			{
				"x": -3.5650810137,
				"y": 1.8432090418,
				"z": -1.0368558586,
				"element": "O" 
			},
			{
				"x": 2.1173731567,
				"y": 0.8074721948,
				"z": -4.039451988,
				"element": "H" 
			},
			{
				"x": 1.9932690193,
				"y": -0.971172957,
				"z": -3.9849138452,
				"element": "H" 
			},
			{
				"x": 2.8904413908,
				"y": -0.1260748643,
				"z": -2.7301396757,
				"element": "H" 
			},
			{
				"x": -1.6845665481,
				"y": 2.2707244331,
				"z": -2.3536310679,
				"element": "H" 
			},
			{
				"x": -2.7736198895,
				"y": -0.367269579,
				"z": 0.8645423864,
				"element": "H" 
			}
		],
		 "valence_orbital": [ 
			{
				"type": "occ",
				"energy": -0.31513,
				"method": "rhf"
			},
			{
				"type": "occ",
				"energy": -0.301,
				"method": "rhf"
			},
			{
				"type": "occ",
				"energy": -0.2949,
				"method": "rhf"
			},
			{
				"type": "occ",
				"energy": -0.27711,
				"method": "rhf"
			},
			{
				"type": "occ",
				"energy": -0.27294,
				"method": "rhf"
			},
			{
				"type": "unocc",
				"energy": -0.07707,
				"method": "rhf"
			},
			{
				"type": "unocc",
				"energy": -0.05681,
				"method": "rhf"
			},
			{
				"type": "unocc",
				"energy": -0.04085,
				"method": "rhf"
			},
			{
				"type": "unocc",
				"energy": 0.01793,
				"method": "rhf"
			},
			{
				"type": "unocc",
				"energy": 0.0267,
				"method": "rhf"
			}
		],
		"cosmo_sigma_profile": { 
			"-0.025": 0.0,
			"-0.024": 0.0,
			"-0.023": 0.0,
			"-0.022": 0.0,
			"-0.021": 0.0,
			"-0.02": 0.0,
			"-0.019": 0.0,
			"-0.018": 0.0,
			"-0.017": 0.0,
			"-0.016": 0.0,
			"-0.015": 8.40239353008e-05,
			"-0.014": 0.271676765689,
			"-0.013": 1.07443305617,
			"-0.012": 1.25004586697,
			"-0.011": 1.35256119864,
			"-0.01": 0.810331150775,
			"-0.009": 1.39015637246,
			"-0.008": 1.57202492415,
			"-0.007": 3.35208072154,
			"-0.006": 6.38959337901,
			"-0.005": 14.184863185,
			"-0.004": 16.0127695211,
			"-0.003": 24.0680097781,
			"-0.002": 22.1460941289,
			"-0.001": 19.3952072167,
			"0.0": 13.9498712956,
			"0.001": 14.2579293937,
			"0.002": 14.4235781007,
			"0.003": 13.0046712363,
			"0.004": 4.99732991644,
			"0.005": 2.69796498108,
			"0.006": 3.71453692808,
			"0.007": 3.43310438049,
			"0.008": 4.356832613,
			"0.009": 3.83427132657,
			"0.01": 6.55887406761,
			"0.011": 5.11260121688,
			"0.012": 3.27008172814,
			"0.013": 1.04453739355,
			"0.014": 0.450084894756,
			"0.015": 0.00664570485898,
			"0.016": 0.0,
			"0.017": 0.0,
			"0.018": 0.0,
			"0.019": 0.0,
			"0.02": 0.0,
			"0.021": 0.0,
			"0.022": 0.0,
			"0.023": 0.0,
			"0.024": 0.0,
			"0.025": 0.0
		}
	}
}
