{
	 "smiles": "CC1=CC=C(C=C1C#N)[N+]([O-])=O", 
	 "Tm": 379.15, 
	 "num_atms": 18, 
	 "gaussian": { 
		 "optdone": 1, 
		 "sigma_profile": "yes", 
		 "theory": "DFT", 
		 "functional": "B3LYP", 
		 "basiset": "6-31G**", 
		 "properties": { 
			 "R2extent": 2928.2157, 
			 "electric_dipole_moment_norm": 4.70294761825, 
			 "electric_quadrupole_moment_norm": 15.0226872686, 
			 "total_energy": -568.306005875, 
			 "HOMO_LUMO_gap": 0.18341, 
			 "cosmo_polarized_energy": -12.11, 
			 "cosmo_cavitation_energy": 24.29, 
			 "cosmo_dispersion_energy": -17.09, 
			 "cosmo_repulsion_energy": 1.35, 
			 "cosmo_total_nonelectrostatic_energy": 8.56, 
			 "SMD_solvation_energy": 7.8 
		},
		"coords": [
			{
				"x": -0.0609895994,
				"y": 1.5618240414,
				"z": 1.0629542828,
				"element": "C" 
			},
			{
				"x": 0.2055246917,
				"y": 0.3835666069,
				"z": 0.1645447748,
				"element": "C" 
			},
			{
				"x": -0.1700317728,
				"y": -0.9131467718,
				"z": 0.5349442462,
				"element": "C" 
			},
			{
				"x": 0.0724174789,
				"y": -2.0088003911,
				"z": -0.2893941644,
				"element": "C" 
			},
			{
				"x": 0.7053720465,
				"y": -1.800578837,
				"z": -1.5122694316,
				"element": "C" 
			},
			{
				"x": 1.09893788,
				"y": -0.5350606861,
				"z": -1.928811376,
				"element": "C" 
			},
			{
				"x": 0.8470811464,
				"y": 0.5551126153,
				"z": -1.0870982447,
				"element": "C" 
			},
			{
				"x": 1.2485860052,
				"y": 1.8676262225,
				"z": -1.5056539901,
				"element": "C" 
			},
			{
				"x": 1.5678119317,
				"y": 2.9378756477,
				"z": -1.8303246953,
				"element": "N" 
			},
			{
				"x": 0.9667702802,
				"y": -2.952140261,
				"z": -2.3916582387,
				"element": "N" 
			},
			{
				"x": 0.6070338708,
				"y": -4.0594366668,
				"z": -1.9958697242,
				"element": "O" 
			},
			{
				"x": 1.5269561838,
				"y": -2.7323143937,
				"z": -3.4637165828,
				"element": "O" 
			},
			{
				"x": -0.6916063322,
				"y": 2.3042653591,
				"z": 0.5619673432,
				"element": "H" 
			},
			{
				"x": -0.5600137036,
				"y": 1.2500722925,
				"z": 1.9827481407,
				"element": "H" 
			},
			{
				"x": 0.8709086966,
				"y": 2.0714488144,
				"z": 1.330785874,
				"element": "H" 
			},
			{
				"x": -0.6629003505,
				"y": -1.0658353914,
				"z": 1.4900968269,
				"element": "H" 
			},
			{
				"x": -0.2171221015,
				"y": -3.0128402316,
				"z": -0.0051660646,
				"element": "H" 
			},
			{
				"x": 1.5888636484,
				"y": -0.4079379692,
				"z": -2.8856789762,
				"element": "H" 
			}
		],
		 "valence_orbital": [ 
			{
				"type": "occ",
				"energy": -0.32271,
				"method": "rhf"
			},
			{
				"type": "occ",
				"energy": -0.32015,
				"method": "rhf"
			},
			{
				"type": "occ",
				"energy": -0.30461,
				"method": "rhf"
			},
			{
				"type": "occ",
				"energy": -0.2966,
				"method": "rhf"
			},
			{
				"type": "occ",
				"energy": -0.28748,
				"method": "rhf"
			},
			{
				"type": "unocc",
				"energy": -0.10407,
				"method": "rhf"
			},
			{
				"type": "unocc",
				"energy": -0.07217,
				"method": "rhf"
			},
			{
				"type": "unocc",
				"energy": -0.02205,
				"method": "rhf"
			},
			{
				"type": "unocc",
				"energy": 0.01836,
				"method": "rhf"
			},
			{
				"type": "unocc",
				"energy": 0.06461,
				"method": "rhf"
			}
		],
		"cosmo_sigma_profile": { 
			"-0.025": 0.0,
			"-0.024": 0.0,
			"-0.023": 0.0,
			"-0.022": 0.0,
			"-0.021": 0.0,
			"-0.02": 0.0,
			"-0.019": 0.0,
			"-0.018": 0.0,
			"-0.017": 0.0,
			"-0.016": 0.0,
			"-0.015": 0.0,
			"-0.014": 0.0,
			"-0.013": 0.0,
			"-0.012": 0.0,
			"-0.011": 0.0,
			"-0.01": 0.167322928501,
			"-0.009": 1.90007963466,
			"-0.008": 5.76275185922,
			"-0.007": 8.41673056258,
			"-0.006": 12.7492748969,
			"-0.005": 12.426817233,
			"-0.004": 14.0171167147,
			"-0.003": 18.1460666176,
			"-0.002": 24.5242986312,
			"-0.001": 19.1350191403,
			"0.0": 9.4388793244,
			"0.001": 6.50862921217,
			"0.002": 4.01207409417,
			"0.003": 4.65332802852,
			"0.004": 3.76214424445,
			"0.005": 5.70597614969,
			"0.006": 6.91875600432,
			"0.007": 12.311333571,
			"0.008": 8.54527338212,
			"0.009": 7.33601921917,
			"0.01": 4.22260607128,
			"0.011": 2.61926039452,
			"0.012": 2.13611775454,
			"0.013": 0.571800722995,
			"0.014": 0.0,
			"0.015": 0.0,
			"0.016": 0.0,
			"0.017": 0.0,
			"0.018": 0.0,
			"0.019": 0.0,
			"0.02": 0.0,
			"0.021": 0.0,
			"0.022": 0.0,
			"0.023": 0.0,
			"0.024": 0.0,
			"0.025": 0.0
		}
	}
}
