{
	 "smiles": "OC(=O)C1(CC1)C1=CC(Br)=CC=C1", 
	 "Tm": 417.15, 
	 "num_atms": 22, 
	 "gaussian": { 
		 "optdone": 1, 
		 "sigma_profile": "yes", 
		 "theory": "DFT", 
		 "functional": "B3LYP", 
		 "basiset": "6-31G**", 
		 "properties": { 
			 "R2extent": 4120.8788, 
			 "electric_dipole_moment_norm": 4.1734106376, 
			 "electric_quadrupole_moment_norm": 16.5552337471, 
			 "total_energy": -3108.32411706, 
			 "HOMO_LUMO_gap": 0.21772, 
			 "cosmo_polarized_energy": -12.48, 
			 "cosmo_cavitation_energy": 28.43, 
			 "cosmo_dispersion_energy": -20.43, 
			 "cosmo_repulsion_energy": 1.62, 
			 "cosmo_total_nonelectrostatic_energy": 9.62, 
			 "SMD_solvation_energy": 4.65 
		},
		"coords": [
			{
				"x": 1.5434776094,
				"y": -1.6626657331,
				"z": -1.6690981473,
				"element": "O" 
			},
			{
				"x": 0.3387166498,
				"y": -1.2774243343,
				"z": -2.148482048,
				"element": "C" 
			},
			{
				"x": -0.1326709559,
				"y": -1.8144275878,
				"z": -3.1241812715,
				"element": "O" 
			},
			{
				"x": -0.3639999621,
				"y": -0.15878184,
				"z": -1.4057046659,
				"element": "C" 
			},
			{
				"x": -1.2141935526,
				"y": 0.7362396713,
				"z": -2.3034619982,
				"element": "C" 
			},
			{
				"x": -1.8850461929,
				"y": -0.2660550079,
				"z": -1.4245641203,
				"element": "C" 
			},
			{
				"x": 0.3290265291,
				"y": 0.4364517196,
				"z": -0.2096383223,
				"element": "C" 
			},
			{
				"x": 0.070873168,
				"y": -0.0559158394,
				"z": 1.0795670579,
				"element": "C" 
			},
			{
				"x": 0.7424985848,
				"y": 0.4819290876,
				"z": 2.1756830739,
				"element": "C" 
			},
			{
				"x": 0.3694812962,
				"y": -0.1942283732,
				"z": 3.9232483821,
				"element": "Br" 
			},
			{
				"x": 1.6793219301,
				"y": 1.5032277429,
				"z": 2.0233676324,
				"element": "C" 
			},
			{
				"x": 1.9421462751,
				"y": 1.9877465697,
				"z": 0.7410042561,
				"element": "C" 
			},
			{
				"x": 1.2761585507,
				"y": 1.4615550111,
				"z": -0.3662053805,
				"element": "C" 
			},
			{
				"x": 1.770512262,
				"y": -1.1347503141,
				"z": -0.8875937106,
				"element": "H" 
			},
			{
				"x": -1.2720250648,
				"y": 1.7845641286,
				"z": -2.0283462712,
				"element": "H" 
			},
			{
				"x": -1.1677945749,
				"y": 0.5248251543,
				"z": -3.3660595297,
				"element": "H" 
			},
			{
				"x": -2.2929715601,
				"y": -1.1546558973,
				"z": -1.8933850633,
				"element": "H" 
			},
			{
				"x": -2.4098695383,
				"y": 0.0898807267,
				"z": -0.5437431674,
				"element": "H" 
			},
			{
				"x": -0.6553400098,
				"y": -0.8486444091,
				"z": 1.2218859217,
				"element": "H" 
			},
			{
				"x": 2.1901557015,
				"y": 1.9098636376,
				"z": 2.8885123856,
				"element": "H" 
			},
			{
				"x": 2.6687954027,
				"y": 2.7839084471,
				"z": 0.6095626033,
				"element": "H" 
			},
			{
				"x": 1.480147452,
				"y": 1.8492574397,
				"z": -1.3600676169,
				"element": "H" 
			}
		],
		 "valence_orbital": [ 
			{
				"type": "occ",
				"energy": -0.30061,
				"method": "rhf"
			},
			{
				"type": "occ",
				"energy": -0.29686,
				"method": "rhf"
			},
			{
				"type": "occ",
				"energy": -0.28855,
				"method": "rhf"
			},
			{
				"type": "occ",
				"energy": -0.2655,
				"method": "rhf"
			},
			{
				"type": "occ",
				"energy": -0.25592,
				"method": "rhf"
			},
			{
				"type": "unocc",
				"energy": -0.0382,
				"method": "rhf"
			},
			{
				"type": "unocc",
				"energy": -0.0343,
				"method": "rhf"
			},
			{
				"type": "unocc",
				"energy": -0.00554,
				"method": "rhf"
			},
			{
				"type": "unocc",
				"energy": 0.00938,
				"method": "rhf"
			},
			{
				"type": "unocc",
				"energy": 0.08653,
				"method": "rhf"
			}
		],
		"cosmo_sigma_profile": { 
			"-0.025": 0.0,
			"-0.024": 0.0,
			"-0.023": 0.0,
			"-0.022": 0.0,
			"-0.021": 0.0,
			"-0.02": 0.0,
			"-0.019": 0.0,
			"-0.018": 0.0,
			"-0.017": 0.0,
			"-0.016": 0.0,
			"-0.015": 0.0849967045488,
			"-0.014": 0.613133718918,
			"-0.013": 0.667487715231,
			"-0.012": 0.481539204509,
			"-0.011": 0.608123636946,
			"-0.01": 1.31876504113,
			"-0.009": 0.862821071595,
			"-0.008": 1.53342868534,
			"-0.007": 6.99102070305,
			"-0.006": 14.0396075774,
			"-0.005": 17.7874876954,
			"-0.004": 17.621689765,
			"-0.003": 17.8295006159,
			"-0.002": 17.9344565352,
			"-0.001": 17.4109519853,
			"0.0": 15.2446887122,
			"0.001": 15.5063736368,
			"0.002": 18.8082540198,
			"0.003": 17.2553708822,
			"0.004": 14.0822888867,
			"0.005": 6.97824844078,
			"0.006": 2.63198111832,
			"0.007": 1.7277732778,
			"0.008": 2.44186649741,
			"0.009": 3.66072790843,
			"0.01": 4.1091645905,
			"0.011": 4.0822459057,
			"0.012": 5.0398487541,
			"0.013": 2.46720260605,
			"0.014": 0.334509533759,
			"0.015": 0.0,
			"0.016": 0.0,
			"0.017": 0.0,
			"0.018": 0.0,
			"0.019": 0.0,
			"0.02": 0.0,
			"0.021": 0.0,
			"0.022": 0.0,
			"0.023": 0.0,
			"0.024": 0.0,
			"0.025": 0.0
		}
	}
}
