{
	 "smiles": "NC1=CC(Br)=CC=C1Br", 
	 "Tm": 325.65, 
	 "num_atms": 14, 
	 "gaussian": { 
		 "optdone": 1, 
		 "sigma_profile": "yes", 
		 "theory": "DFT", 
		 "functional": "B3LYP", 
		 "basiset": "6-31G**", 
		 "properties": { 
			 "R2extent": 4053.1175, 
			 "electric_dipole_moment_norm": 1.87364955368, 
			 "electric_quadrupole_moment_norm": 14.3515767284, 
			 "total_energy": -5429.21578368, 
			 "HOMO_LUMO_gap": 0.19758, 
			 "cosmo_polarized_energy": -7.39, 
			 "cosmo_cavitation_energy": 22.52, 
			 "cosmo_dispersion_energy": -17.83, 
			 "cosmo_repulsion_energy": 1.46, 
			 "cosmo_total_nonelectrostatic_energy": 6.15, 
			 "SMD_solvation_energy": 1.57 
		},
		"coords": [
			{
				"x": -1.659047532,
				"y": 0.7710127762,
				"z": 3.022756015,
				"element": "N" 
			},
			{
				"x": -1.1664834258,
				"y": 0.1455951238,
				"z": 1.8942881713,
				"element": "C" 
			},
			{
				"x": 0.0604823456,
				"y": -0.5464769419,
				"z": 1.9387233052,
				"element": "C" 
			},
			{
				"x": 0.5818132752,
				"y": -1.1300295074,
				"z": 0.7922359397,
				"element": "C" 
			},
			{
				"x": 2.2500811649,
				"y": -2.0572209537,
				"z": 0.9082600375,
				"element": "Br" 
			},
			{
				"x": -0.0744489632,
				"y": -1.0608040777,
				"z": -0.435568346,
				"element": "C" 
			},
			{
				"x": -1.2908617792,
				"y": -0.3817461111,
				"z": -0.4908188364,
				"element": "C" 
			},
			{
				"x": -1.8257768855,
				"y": 0.2062349212,
				"z": 0.6501452449,
				"element": "C" 
			},
			{
				"x": -3.5081108942,
				"y": 1.1152410365,
				"z": 0.5234396719,
				"element": "Br" 
			},
			{
				"x": -2.6410474465,
				"y": 1.0077938937,
				"z": 3.007685653,
				"element": "H" 
			},
			{
				"x": -1.3278565733,
				"y": 0.4219732533,
				"z": 3.909559737,
				"element": "H" 
			},
			{
				"x": 0.5997909255,
				"y": -0.6127589898,
				"z": 2.8775003465,
				"element": "H" 
			},
			{
				"x": 0.3460809716,
				"y": -1.5211369799,
				"z": -1.3207017721,
				"element": "H" 
			},
			{
				"x": -1.8316151828,
				"y": -0.3118774432,
				"z": -1.4280051675,
				"element": "H" 
			}
		],
		 "valence_orbital": [ 
			{
				"type": "occ",
				"energy": -0.29864,
				"method": "rhf"
			},
			{
				"type": "occ",
				"energy": -0.28968,
				"method": "rhf"
			},
			{
				"type": "occ",
				"energy": -0.28786,
				"method": "rhf"
			},
			{
				"type": "occ",
				"energy": -0.24442,
				"method": "rhf"
			},
			{
				"type": "occ",
				"energy": -0.21725,
				"method": "rhf"
			},
			{
				"type": "unocc",
				"energy": -0.01967,
				"method": "rhf"
			},
			{
				"type": "unocc",
				"energy": -0.00398,
				"method": "rhf"
			},
			{
				"type": "unocc",
				"energy": -0.00229,
				"method": "rhf"
			},
			{
				"type": "unocc",
				"energy": 0.01196,
				"method": "rhf"
			},
			{
				"type": "unocc",
				"energy": 0.07792,
				"method": "rhf"
			}
		],
		"cosmo_sigma_profile": { 
			"-0.025": 0.0,
			"-0.024": 0.0,
			"-0.023": 0.0,
			"-0.022": 0.0,
			"-0.021": 0.0,
			"-0.02": 0.0,
			"-0.019": 0.0,
			"-0.018": 0.0,
			"-0.017": 0.0,
			"-0.016": 0.0,
			"-0.015": 0.0,
			"-0.014": 0.434964029945,
			"-0.013": 1.78748274845,
			"-0.012": 1.67527729069,
			"-0.011": 2.90404481169,
			"-0.01": 2.41063513048,
			"-0.009": 2.45830484497,
			"-0.008": 2.54549760641,
			"-0.007": 5.86513481484,
			"-0.006": 7.18685947546,
			"-0.005": 6.50879732802,
			"-0.004": 7.20858353923,
			"-0.003": 9.17746379598,
			"-0.002": 8.78847422407,
			"-0.001": 9.59881256214,
			"0.0": 12.2502854514,
			"0.001": 13.218797989,
			"0.002": 21.6581105665,
			"0.003": 30.5469597465,
			"0.004": 24.7010043765,
			"0.005": 11.274673227,
			"0.006": 0.681552684087,
			"0.007": 0.841853448638,
			"0.008": 0.961305392906,
			"0.009": 0.206185928783,
			"0.01": 0.644506588432,
			"0.011": 0.963581541553,
			"0.012": 0.356276212178,
			"0.013": 0.0347858100739,
			"0.014": 0.0,
			"0.015": 0.0,
			"0.016": 0.0,
			"0.017": 0.0,
			"0.018": 0.0,
			"0.019": 0.0,
			"0.02": 0.0,
			"0.021": 0.0,
			"0.022": 0.0,
			"0.023": 0.0,
			"0.024": 0.0,
			"0.025": 0.0
		}
	}
}
