{
	 "smiles": "COC(=O)C1=CC=C(C=C1)C(=O)C1=CNC=C1", 
	 "Tm": 433.15, 
	 "num_atms": 28, 
	 "gaussian": { 
		 "optdone": 1, 
		 "sigma_profile": "yes", 
		 "theory": "DFT", 
		 "functional": "B3LYP", 
		 "basiset": "6-31G**", 
		 "properties": { 
			 "R2extent": 6477.3778, 
			 "electric_dipole_moment_norm": 6.42414261517, 
			 "electric_quadrupole_moment_norm": 17.33366065, 
			 "total_energy": -782.438142947, 
			 "HOMO_LUMO_gap": 0.16418, 
			 "cosmo_polarized_energy": -18.75, 
			 "cosmo_cavitation_energy": 33.43, 
			 "cosmo_dispersion_energy": -24.25, 
			 "cosmo_repulsion_energy": 1.87, 
			 "cosmo_total_nonelectrostatic_energy": 11.05, 
			 "SMD_solvation_energy": 8.13 
		},
		"coords": [
			{
				"x": -1.6193740959,
				"y": -1.9164733181,
				"z": -5.9030235662,
				"element": "C" 
			},
			{
				"x": -1.0668652488,
				"y": -1.6692713704,
				"z": -4.6012319874,
				"element": "O" 
			},
			{
				"x": -1.2450500417,
				"y": -0.4129581326,
				"z": -4.1303500845,
				"element": "C" 
			},
			{
				"x": -1.824893867,
				"y": 0.4529867496,
				"z": -4.7561385396,
				"element": "O" 
			},
			{
				"x": -0.6534450348,
				"y": -0.2220346758,
				"z": -2.7750937546,
				"element": "C" 
			},
			{
				"x": 0.0070588074,
				"y": -1.2509537191,
				"z": -2.0918743891,
				"element": "C" 
			},
			{
				"x": 0.5516669754,
				"y": -1.0128277162,
				"z": -0.8312761427,
				"element": "C" 
			},
			{
				"x": 0.4363905305,
				"y": 0.2505889476,
				"z": -0.2320041377,
				"element": "C" 
			},
			{
				"x": -0.254299172,
				"y": 1.2674168134,
				"z": -0.9106692448,
				"element": "C" 
			},
			{
				"x": -0.7823431399,
				"y": 1.039417795,
				"z": -2.1745863151,
				"element": "C" 
			},
			{
				"x": 0.9556523648,
				"y": 0.5572186605,
				"z": 1.1489535859,
				"element": "C" 
			},
			{
				"x": 0.3516464026,
				"y": 1.3657970776,
				"z": 1.8497292897,
				"element": "O" 
			},
			{
				"x": 2.1836210146,
				"y": -0.0892075639,
				"z": 1.6386450865,
				"element": "C" 
			},
			{
				"x": 3.1779064829,
				"y": -0.7447901281,
				"z": 0.9188608318,
				"element": "C" 
			},
			{
				"x": 4.1630749717,
				"y": -1.0948344418,
				"z": 1.7948253004,
				"element": "N" 
			},
			{
				"x": 3.8304528895,
				"y": -0.6817575462,
				"z": 3.0726347995,
				"element": "C" 
			},
			{
				"x": 2.6171353917,
				"y": -0.0492486385,
				"z": 3.0043584004,
				"element": "C" 
			},
			{
				"x": -1.3922932969,
				"y": -2.958965088,
				"z": -6.1261370509,
				"element": "H" 
			},
			{
				"x": -1.164822071,
				"y": -1.2564222535,
				"z": -6.6461435744,
				"element": "H" 
			},
			{
				"x": -2.6995912641,
				"y": -1.7505465015,
				"z": -5.9006810304,
				"element": "H" 
			},
			{
				"x": 0.0855468354,
				"y": -2.2314732246,
				"z": -2.5471424983,
				"element": "H" 
			},
			{
				"x": 1.0396471063,
				"y": -1.820466749,
				"z": -0.2964596448,
				"element": "H" 
			},
			{
				"x": -0.3658372273,
				"y": 2.2297786224,
				"z": -0.4227009494,
				"element": "H" 
			},
			{
				"x": -1.3048734067,
				"y": 1.8205860236,
				"z": -2.7162184085,
				"element": "H" 
			},
			{
				"x": 3.2688176517,
				"y": -0.9464499786,
				"z": -0.1371126401,
				"element": "H" 
			},
			{
				"x": 5.0141431672,
				"y": -1.5726528672,
				"z": 1.5434073482,
				"element": "H" 
			},
			{
				"x": 4.4868367047,
				"y": -0.8770320956,
				"z": 3.9073653027,
				"element": "H" 
			},
			{
				"x": 2.0671905699,
				"y": 0.4013753188,
				"z": 3.8165640134,
				"element": "H" 
			}
		],
		 "valence_orbital": [ 
			{
				"type": "occ",
				"energy": -0.26134,
				"method": "rhf"
			},
			{
				"type": "occ",
				"energy": -0.26061,
				"method": "rhf"
			},
			{
				"type": "occ",
				"energy": -0.25557,
				"method": "rhf"
			},
			{
				"type": "occ",
				"energy": -0.23952,
				"method": "rhf"
			},
			{
				"type": "occ",
				"energy": -0.22939,
				"method": "rhf"
			},
			{
				"type": "unocc",
				"energy": -0.06521,
				"method": "rhf"
			},
			{
				"type": "unocc",
				"energy": -0.01494,
				"method": "rhf"
			},
			{
				"type": "unocc",
				"energy": -0.00978,
				"method": "rhf"
			},
			{
				"type": "unocc",
				"energy": 0.02995,
				"method": "rhf"
			},
			{
				"type": "unocc",
				"energy": 0.05971,
				"method": "rhf"
			}
		],
		"cosmo_sigma_profile": { 
			"-0.025": 0.0,
			"-0.024": 0.0,
			"-0.023": 0.0,
			"-0.022": 0.0,
			"-0.021": 0.0,
			"-0.02": 0.0,
			"-0.019": 0.0,
			"-0.018": 0.0,
			"-0.017": 0.285976721397,
			"-0.016": 1.80604188669,
			"-0.015": 1.70338585926,
			"-0.014": 1.46013144608,
			"-0.013": 1.18391116205,
			"-0.012": 1.20181833635,
			"-0.011": 0.939393632252,
			"-0.01": 1.33161028823,
			"-0.009": 2.49352286105,
			"-0.008": 5.00324138923,
			"-0.007": 5.2114799041,
			"-0.006": 14.1596744881,
			"-0.005": 19.1300652132,
			"-0.004": 18.4239876602,
			"-0.003": 20.4494675473,
			"-0.002": 17.0783767443,
			"-0.001": 17.2430701832,
			"0.0": 17.1501557615,
			"0.001": 19.6001721305,
			"0.002": 19.9522711426,
			"0.003": 18.5915636469,
			"0.004": 12.2646495167,
			"0.005": 9.77153615258,
			"0.006": 9.33654433385,
			"0.007": 4.53403980296,
			"0.008": 3.32994672311,
			"0.009": 3.77349025113,
			"0.01": 3.67854574012,
			"0.011": 5.9492140807,
			"0.012": 7.01218217246,
			"0.013": 3.78724779235,
			"0.014": 0.235416065687,
			"0.015": 0.0,
			"0.016": 0.0,
			"0.017": 0.0,
			"0.018": 0.0,
			"0.019": 0.0,
			"0.02": 0.0,
			"0.021": 0.0,
			"0.022": 0.0,
			"0.023": 0.0,
			"0.024": 0.0,
			"0.025": 0.0
		}
	}
}
