{
	 "smiles": "CCC1(CC)CC(=O)NC1=O", 
	 "Tm": 356.15, 
	 "num_atms": 24, 
	 "gaussian": { 
		 "optdone": 1, 
		 "sigma_profile": "yes", 
		 "theory": "DFT", 
		 "functional": "B3LYP", 
		 "basiset": "6-31G**", 
		 "properties": { 
			 "R2extent": 1853.078, 
			 "electric_dipole_moment_norm": 2.0743450846, 
			 "electric_quadrupole_moment_norm": 11.8008874192, 
			 "total_energy": -517.931157863, 
			 "HOMO_LUMO_gap": 0.23354, 
			 "cosmo_polarized_energy": -12.24, 
			 "cosmo_cavitation_energy": 25.69, 
			 "cosmo_dispersion_energy": -18.44, 
			 "cosmo_repulsion_energy": 1.5, 
			 "cosmo_total_nonelectrostatic_energy": 8.74, 
			 "SMD_solvation_energy": 5.63 
		},
		"coords": [
			{
				"x": -0.6768022004,
				"y": 2.3960208461,
				"z": 0.1562030247,
				"element": "C" 
			},
			{
				"x": -0.219527346,
				"y": 1.1675532164,
				"z": -0.6379081011,
				"element": "C" 
			},
			{
				"x": 0.5718233686,
				"y": 0.0719856568,
				"z": 0.1417421589,
				"element": "C" 
			},
			{
				"x": 1.8332205577,
				"y": 0.6643181118,
				"z": 0.8110397168,
				"element": "C" 
			},
			{
				"x": 2.6692641104,
				"y": -0.3148643028,
				"z": 1.6440611915,
				"element": "C" 
			},
			{
				"x": 0.8581785604,
				"y": -1.1203548692,
				"z": -0.8091758937,
				"element": "C" 
			},
			{
				"x": -0.0584025671,
				"y": -2.2561277312,
				"z": -0.3686729392,
				"element": "C" 
			},
			{
				"x": -0.2237660701,
				"y": -3.3350203577,
				"z": -0.893899907,
				"element": "O" 
			},
			{
				"x": -0.687818561,
				"y": -1.8287199071,
				"z": 0.7985156049,
				"element": "N" 
			},
			{
				"x": -0.3523037056,
				"y": -0.5429223078,
				"z": 1.2103617697,
				"element": "C" 
			},
			{
				"x": -0.7489235905,
				"y": -0.0239527638,
				"z": 2.2344515582,
				"element": "O" 
			},
			{
				"x": 0.1692906854,
				"y": 2.99821531,
				"z": 0.4999144633,
				"element": "H" 
			},
			{
				"x": -1.263848605,
				"y": 2.1124149657,
				"z": 1.0326983407,
				"element": "H" 
			},
			{
				"x": -1.2952892949,
				"y": 3.0370869509,
				"z": -0.4802250107,
				"element": "H" 
			},
			{
				"x": 0.4195771258,
				"y": 1.4869411868,
				"z": -1.4717527014,
				"element": "H" 
			},
			{
				"x": -1.0949577265,
				"y": 0.6882522702,
				"z": -1.0961752618,
				"element": "H" 
			},
			{
				"x": 1.5143425205,
				"y": 1.4828080652,
				"z": 1.4626211012,
				"element": "H" 
			},
			{
				"x": 2.4546497431,
				"y": 1.1105756463,
				"z": 0.0235535226,
				"element": "H" 
			},
			{
				"x": 3.05940764,
				"y": -1.14946236,
				"z": 1.0519858862,
				"element": "H" 
			},
			{
				"x": 3.5306625581,
				"y": 0.2013637839,
				"z": 2.0787139253,
				"element": "H" 
			},
			{
				"x": 2.0855193569,
				"y": -0.7300534374,
				"z": 2.4718684254,
				"element": "H" 
			},
			{
				"x": 1.8904787862,
				"y": -1.4784533259,
				"z": -0.7489955744,
				"element": "H" 
			},
			{
				"x": 0.6647609872,
				"y": -0.8904589289,
				"z": -1.8608548715,
				"element": "H" 
			},
			{
				"x": -1.3246363331,
				"y": -2.4176457183,
				"z": 1.3211295714,
				"element": "H" 
			}
		],
		 "valence_orbital": [ 
			{
				"type": "occ",
				"energy": -0.33764,
				"method": "rhf"
			},
			{
				"type": "occ",
				"energy": -0.32552,
				"method": "rhf"
			},
			{
				"type": "occ",
				"energy": -0.29157,
				"method": "rhf"
			},
			{
				"type": "occ",
				"energy": -0.28153,
				"method": "rhf"
			},
			{
				"type": "occ",
				"energy": -0.25503,
				"method": "rhf"
			},
			{
				"type": "unocc",
				"energy": -0.02149,
				"method": "rhf"
			},
			{
				"type": "unocc",
				"energy": 0.02692,
				"method": "rhf"
			},
			{
				"type": "unocc",
				"energy": 0.07582,
				"method": "rhf"
			},
			{
				"type": "unocc",
				"energy": 0.09244,
				"method": "rhf"
			},
			{
				"type": "unocc",
				"energy": 0.09731,
				"method": "rhf"
			}
		],
		"cosmo_sigma_profile": { 
			"-0.025": 0.0,
			"-0.024": 0.0,
			"-0.023": 0.0,
			"-0.022": 0.0,
			"-0.021": 0.0,
			"-0.02": 0.0,
			"-0.019": 0.0,
			"-0.018": 0.0,
			"-0.017": 0.0147027365962,
			"-0.016": 0.895020815057,
			"-0.015": 1.29079761692,
			"-0.014": 1.05913258734,
			"-0.013": 1.12194660196,
			"-0.012": 0.422682556665,
			"-0.011": 0.984853317548,
			"-0.01": 0.758308867119,
			"-0.009": 0.753167077397,
			"-0.008": 0.623576252001,
			"-0.007": 3.91552295029,
			"-0.006": 7.96513267689,
			"-0.005": 8.70451987887,
			"-0.004": 14.408949341,
			"-0.003": 24.6597962246,
			"-0.002": 23.4745675019,
			"-0.001": 23.7016367054,
			"0.0": 19.7466570397,
			"0.001": 15.8519552449,
			"0.002": 5.85378177582,
			"0.003": 3.91700493281,
			"0.004": 2.40439411384,
			"0.005": 3.06067808486,
			"0.006": 3.27982711064,
			"0.007": 2.5565078747,
			"0.008": 2.57461357367,
			"0.009": 2.43729980571,
			"0.01": 4.41693231879,
			"0.011": 5.90833285371,
			"0.012": 9.78921175954,
			"0.013": 3.51192030848,
			"0.014": 0.0633220012978,
			"0.015": 0.0,
			"0.016": 0.0,
			"0.017": 0.0,
			"0.018": 0.0,
			"0.019": 0.0,
			"0.02": 0.0,
			"0.021": 0.0,
			"0.022": 0.0,
			"0.023": 0.0,
			"0.024": 0.0,
			"0.025": 0.0
		}
	}
}
