{
	 "smiles": "CC(C)C=O", 
	 "Tm": 207.65, 
	 "num_atms": 13, 
	 "gaussian": { 
		 "optdone": 1, 
		 "sigma_profile": "yes", 
		 "theory": "DFT", 
		 "functional": "B3LYP", 
		 "basiset": "6-31G**", 
		 "properties": { 
			 "R2extent": 564.4482, 
			 "electric_dipole_moment_norm": 2.60786548158, 
			 "electric_quadrupole_moment_norm": 3.60299019704, 
			 "total_energy": -232.466128189, 
			 "HOMO_LUMO_gap": 0.22878, 
			 "cosmo_polarized_energy": -5.72, 
			 "cosmo_cavitation_energy": 15.95, 
			 "cosmo_dispersion_energy": -11.56, 
			 "cosmo_repulsion_energy": 1.03, 
			 "cosmo_total_nonelectrostatic_energy": 5.42, 
			 "SMD_solvation_energy": 4.1 
		},
		"coords": [
			{
				"x": -1.5200207289,
				"y": 1.6001855228,
				"z": -0.8688122637,
				"element": "C" 
			},
			{
				"x": -0.2478665271,
				"y": 0.7434311778,
				"z": -0.7153780887,
				"element": "C" 
			},
			{
				"x": 0.2237819551,
				"y": 0.1261434798,
				"z": -2.0323666678,
				"element": "C" 
			},
			{
				"x": -0.4697522647,
				"y": -0.3060827757,
				"z": 0.3589898407,
				"element": "C" 
			},
			{
				"x": -0.278411515,
				"y": -1.4944196564,
				"z": 0.2243154772,
				"element": "O" 
			},
			{
				"x": -2.3431321059,
				"y": 1.0062167008,
				"z": -1.2806072524,
				"element": "H" 
			},
			{
				"x": -1.3373963534,
				"y": 2.4379273244,
				"z": -1.5481038489,
				"element": "H" 
			},
			{
				"x": -1.8480563387,
				"y": 2.0129195086,
				"z": 0.0914982233,
				"element": "H" 
			},
			{
				"x": 0.540881628,
				"y": 1.4008564868,
				"z": -0.3121667386,
				"element": "H" 
			},
			{
				"x": 0.442165327,
				"y": 0.9056784035,
				"z": -2.7686385717,
				"element": "H" 
			},
			{
				"x": 1.1235323193,
				"y": -0.4764536127,
				"z": -1.8847947754,
				"element": "H" 
			},
			{
				"x": -0.545389317,
				"y": -0.5323426977,
				"z": -2.4477488321,
				"element": "H" 
			},
			{
				"x": -0.8397360787,
				"y": 0.102340138,
				"z": 1.329513498,
				"element": "H" 
			}
		],
		 "valence_orbital": [ 
			{
				"type": "occ",
				"energy": -0.37838,
				"method": "rhf"
			},
			{
				"type": "occ",
				"energy": -0.37136,
				"method": "rhf"
			},
			{
				"type": "occ",
				"energy": -0.34966,
				"method": "rhf"
			},
			{
				"type": "occ",
				"energy": -0.34134,
				"method": "rhf"
			},
			{
				"type": "occ",
				"energy": -0.2501,
				"method": "rhf"
			},
			{
				"type": "unocc",
				"energy": -0.02132,
				"method": "rhf"
			},
			{
				"type": "unocc",
				"energy": 0.09039,
				"method": "rhf"
			},
			{
				"type": "unocc",
				"energy": 0.1255,
				"method": "rhf"
			},
			{
				"type": "unocc",
				"energy": 0.13455,
				"method": "rhf"
			},
			{
				"type": "unocc",
				"energy": 0.14624,
				"method": "rhf"
			}
		],
		"cosmo_sigma_profile": { 
			"-0.025": 0.0,
			"-0.024": 0.0,
			"-0.023": 0.0,
			"-0.022": 0.0,
			"-0.021": 0.0,
			"-0.02": 0.0,
			"-0.019": 0.0,
			"-0.018": 0.0,
			"-0.017": 0.0,
			"-0.016": 0.0,
			"-0.015": 0.0,
			"-0.014": 0.0,
			"-0.013": 0.0,
			"-0.012": 0.0,
			"-0.011": 0.0,
			"-0.01": 0.0,
			"-0.009": 0.0,
			"-0.008": 0.0,
			"-0.007": 0.0,
			"-0.006": 3.7779979553,
			"-0.005": 9.85888476747,
			"-0.004": 11.8003417175,
			"-0.003": 17.3378949012,
			"-0.002": 16.8113853202,
			"-0.001": 13.190795619,
			"0.0": 13.9008233786,
			"0.001": 10.7389531757,
			"0.002": 2.78704628081,
			"0.003": 1.85118636877,
			"0.004": 2.10565788931,
			"0.005": 1.94562792872,
			"0.006": 0.871455061665,
			"0.007": 1.86849872836,
			"0.008": 2.19296434244,
			"0.009": 1.93385240598,
			"0.01": 2.59994790399,
			"0.011": 4.1324256498,
			"0.012": 3.56204406614,
			"0.013": 0.870633504005,
			"0.014": 0.0,
			"0.015": 0.0,
			"0.016": 0.0,
			"0.017": 0.0,
			"0.018": 0.0,
			"0.019": 0.0,
			"0.02": 0.0,
			"0.021": 0.0,
			"0.022": 0.0,
			"0.023": 0.0,
			"0.024": 0.0,
			"0.025": 0.0
		}
	}
}
