{
	 "smiles": "NC1=CC=C(OC2=CC(Cl)=CC=C2)C=C1", 
	 "Tm": 315.15, 
	 "num_atms": 25, 
	 "gaussian": { 
		 "optdone": 1, 
		 "sigma_profile": "yes", 
		 "theory": "DFT", 
		 "functional": "B3LYP", 
		 "basiset": "6-31G**", 
		 "properties": { 
			 "R2extent": 6030.5539, 
			 "electric_dipole_moment_norm": 5.1157496352, 
			 "electric_quadrupole_moment_norm": 5.67243080963, 
			 "total_energy": -1053.4649238, 
			 "HOMO_LUMO_gap": 0.19246, 
			 "cosmo_polarized_energy": -10.76, 
			 "cosmo_cavitation_energy": 31.53, 
			 "cosmo_dispersion_energy": -23.0, 
			 "cosmo_repulsion_energy": 1.82, 
			 "cosmo_total_nonelectrostatic_energy": 10.35, 
			 "SMD_solvation_energy": 5.19 
		},
		"coords": [
			{
				"x": -2.7098293209,
				"y": 1.1688590372,
				"z": -3.4255276802,
				"element": "N" 
			},
			{
				"x": -1.541071195,
				"y": 0.8327229992,
				"z": -2.7394887843,
				"element": "C" 
			},
			{
				"x": -1.2191247745,
				"y": -0.5121934736,
				"z": -2.4837941867,
				"element": "C" 
			},
			{
				"x": -0.0245332444,
				"y": -0.8515885278,
				"z": -1.8537667527,
				"element": "C" 
			},
			{
				"x": 0.8669541076,
				"y": 0.1484796714,
				"z": -1.467684284,
				"element": "C" 
			},
			{
				"x": 2.0966713695,
				"y": -0.1945819007,
				"z": -0.91017735,
				"element": "O" 
			},
			{
				"x": 2.2122768072,
				"y": -0.3220047611,
				"z": 0.4521525314,
				"element": "C" 
			},
			{
				"x": 3.4862492614,
				"y": -0.6804948823,
				"z": 0.9112546954,
				"element": "C" 
			},
			{
				"x": 3.6884263245,
				"y": -0.829203276,
				"z": 2.2780516363,
				"element": "C" 
			},
			{
				"x": 5.2894381283,
				"y": -1.2798595664,
				"z": 2.855284587,
				"element": "Cl" 
			},
			{
				"x": 2.661101765,
				"y": -0.6320946066,
				"z": 3.2026184814,
				"element": "C" 
			},
			{
				"x": 1.4026968896,
				"y": -0.2758601025,
				"z": 2.7198934651,
				"element": "C" 
			},
			{
				"x": 1.1630519712,
				"y": -0.1175071171,
				"z": 1.3535777343,
				"element": "C" 
			},
			{
				"x": 0.5666180339,
				"y": 1.4872957499,
				"z": -1.7146012158,
				"element": "C" 
			},
			{
				"x": -0.6278583092,
				"y": 1.826723947,
				"z": -2.345006273,
				"element": "C" 
			},
			{
				"x": -3.454999564,
				"y": 0.4887998595,
				"z": -3.3663643697,
				"element": "H" 
			},
			{
				"x": -3.045598621,
				"y": 2.1092316016,
				"z": -3.2698955762,
				"element": "H" 
			},
			{
				"x": -1.90711515,
				"y": -1.2957774622,
				"z": -2.7909148266,
				"element": "H" 
			},
			{
				"x": 0.2254461948,
				"y": -1.8906810631,
				"z": -1.6645056795,
				"element": "H" 
			},
			{
				"x": 4.2872044769,
				"y": -0.8348271188,
				"z": 0.1983756754,
				"element": "H" 
			},
			{
				"x": 2.8457136264,
				"y": -0.7546930874,
				"z": 4.2632314788,
				"element": "H" 
			},
			{
				"x": 0.5892406242,
				"y": -0.1174701585,
				"z": 3.4220697496,
				"element": "H" 
			},
			{
				"x": 0.1802129059,
				"y": 0.1597878562,
				"z": 0.9927366959,
				"element": "H" 
			},
			{
				"x": 1.2735005476,
				"y": 2.255482137,
				"z": -1.4176043923,
				"element": "H" 
			},
			{
				"x": -0.8536728551,
				"y": 2.8713542453,
				"z": -2.5435153597,
				"element": "H" 
			}
		],
		 "valence_orbital": [ 
			{
				"type": "occ",
				"energy": -0.30526,
				"method": "rhf"
			},
			{
				"type": "occ",
				"energy": -0.25832,
				"method": "rhf"
			},
			{
				"type": "occ",
				"energy": -0.24577,
				"method": "rhf"
			},
			{
				"type": "occ",
				"energy": -0.2258,
				"method": "rhf"
			},
			{
				"type": "occ",
				"energy": -0.207,
				"method": "rhf"
			},
			{
				"type": "unocc",
				"energy": -0.01454,
				"method": "rhf"
			},
			{
				"type": "unocc",
				"energy": -0.0025,
				"method": "rhf"
			},
			{
				"type": "unocc",
				"energy": 0.00572,
				"method": "rhf"
			},
			{
				"type": "unocc",
				"energy": 0.01015,
				"method": "rhf"
			},
			{
				"type": "unocc",
				"energy": 0.03525,
				"method": "rhf"
			}
		],
		"cosmo_sigma_profile": { 
			"-0.025": 0.0,
			"-0.024": 0.0,
			"-0.023": 0.0,
			"-0.022": 0.0,
			"-0.021": 0.0,
			"-0.02": 0.0,
			"-0.019": 0.0,
			"-0.018": 0.0,
			"-0.017": 0.0,
			"-0.016": 0.0,
			"-0.015": 0.0,
			"-0.014": 0.0,
			"-0.013": 0.270315395115,
			"-0.012": 2.5553148347,
			"-0.011": 2.82058700911,
			"-0.01": 3.26289663609,
			"-0.009": 3.6522186866,
			"-0.008": 2.81293282529,
			"-0.007": 7.43578303664,
			"-0.006": 13.5775007131,
			"-0.005": 15.2274451303,
			"-0.004": 14.51391104,
			"-0.003": 12.2024609565,
			"-0.002": 13.3287837779,
			"-0.001": 13.928427331,
			"0.0": 15.4852564075,
			"0.001": 18.8335562067,
			"0.002": 22.9802330675,
			"0.003": 26.3615664446,
			"0.004": 27.5991880614,
			"0.005": 21.6572794792,
			"0.006": 6.10858481286,
			"0.007": 1.74127614238,
			"0.008": 1.95724010398,
			"0.009": 2.33530151325,
			"0.01": 1.30853812434,
			"0.011": 0.783700625768,
			"0.012": 0.49077165513,
			"0.013": 0.462321748469,
			"0.014": 0.863927696935,
			"0.015": 0.0517622135668,
			"0.016": 0.0,
			"0.017": 0.0,
			"0.018": 0.0,
			"0.019": 0.0,
			"0.02": 0.0,
			"0.021": 0.0,
			"0.022": 0.0,
			"0.023": 0.0,
			"0.024": 0.0,
			"0.025": 0.0
		}
	}
}
