{
	 "smiles": "CC1=CC(C(O)=O)=C(C)N1CC1=CC=C(C=C1)S(N)(=O)=O", 
	 "Tm": 473.15, 
	 "num_atms": 37, 
	 "gaussian": { 
		 "optdone": 1, 
		 "sigma_profile": "yes", 
		 "theory": "DFT", 
		 "functional": "B3LYP", 
		 "basiset": "6-31G**", 
		 "properties": { 
			 "R2extent": 10824.9165, 
			 "electric_dipole_moment_norm": 5.27489960758, 
			 "electric_quadrupole_moment_norm": 68.0540421488, 
			 "total_energy": -1351.66777725, 
			 "HOMO_LUMO_gap": 0.16985, 
			 "cosmo_polarized_energy": -32.69, 
			 "cosmo_cavitation_energy": 42.96, 
			 "cosmo_dispersion_energy": -29.79, 
			 "cosmo_repulsion_energy": 2.24, 
			 "cosmo_total_nonelectrostatic_energy": 15.41, 
			 "SMD_solvation_energy": 7.7 
		},
		"coords": [
			{
				"x": 3.275297068,
				"y": 1.9698357306,
				"z": -0.8098191169,
				"element": "C" 
			},
			{
				"x": 2.453257027,
				"y": 1.3011814117,
				"z": 0.24513003,
				"element": "C" 
			},
			{
				"x": 2.8417888325,
				"y": 0.5941553971,
				"z": 1.3548884572,
				"element": "C" 
			},
			{
				"x": 1.661589929,
				"y": 0.151831031,
				"z": 2.040416473,
				"element": "C" 
			},
			{
				"x": 1.579086365,
				"y": -0.6377384436,
				"z": 3.2825433654,
				"element": "C" 
			},
			{
				"x": 2.7465676798,
				"y": -0.7808572922,
				"z": 3.9746675651,
				"element": "O" 
			},
			{
				"x": 0.5730392947,
				"y": -1.1599667952,
				"z": 3.7181140657,
				"element": "O" 
			},
			{
				"x": 0.5669273134,
				"y": 0.6081935124,
				"z": 1.3114179113,
				"element": "C" 
			},
			{
				"x": -0.8976312341,
				"y": 0.4490079311,
				"z": 1.5644542672,
				"element": "C" 
			},
			{
				"x": 1.059317644,
				"y": 1.3125051027,
				"z": 0.2326811662,
				"element": "N" 
			},
			{
				"x": 0.2441266444,
				"y": 1.899063496,
				"z": -0.8170558653,
				"element": "C" 
			},
			{
				"x": -0.0690567216,
				"y": 0.9697161649,
				"z": -1.984019199,
				"element": "C" 
			},
			{
				"x": -0.8584590993,
				"y": 1.4566213896,
				"z": -3.0363102715,
				"element": "C" 
			},
			{
				"x": -1.1681252277,
				"y": 0.6509969594,
				"z": -4.1279847014,
				"element": "C" 
			},
			{
				"x": -0.6838253253,
				"y": -0.6597780212,
				"z": -4.1654640775,
				"element": "C" 
			},
			{
				"x": 0.1124101956,
				"y": -1.1586554094,
				"z": -3.1350661121,
				"element": "C" 
			},
			{
				"x": 0.4143968686,
				"y": -0.3413246597,
				"z": -2.0441629188,
				"element": "C" 
			},
			{
				"x": -1.0953450249,
				"y": -1.7162416822,
				"z": -5.5635889094,
				"element": "S" 
			},
			{
				"x": -2.4965769165,
				"y": -2.5468104295,
				"z": -5.1534218967,
				"element": "N" 
			},
			{
				"x": -1.4675167137,
				"y": -0.8392465172,
				"z": -6.6721166192,
				"element": "O" 
			},
			{
				"x": -0.0502435596,
				"y": -2.7327755969,
				"z": -5.6620525558,
				"element": "O" 
			},
			{
				"x": 4.3340029115,
				"y": 1.7864556686,
				"z": -0.6133010974,
				"element": "H" 
			},
			{
				"x": 3.0544904793,
				"y": 1.5926041569,
				"z": -1.8154259735,
				"element": "H" 
			},
			{
				"x": 3.1302093491,
				"y": 3.0577654237,
				"z": -0.8267745269,
				"element": "H" 
			},
			{
				"x": 3.8736516366,
				"y": 0.393383816,
				"z": 1.6149052206,
				"element": "H" 
			},
			{
				"x": 3.4323960822,
				"y": -0.223989506,
				"z": 3.5822058963,
				"element": "H" 
			},
			{
				"x": -1.4092077131,
				"y": -0.0112769307,
				"z": 0.7107694132,
				"element": "H" 
			},
			{
				"x": -1.0300741677,
				"y": -0.1926023468,
				"z": 2.4348544206,
				"element": "H" 
			},
			{
				"x": -1.3852849333,
				"y": 1.4125294151,
				"z": 1.7624091906,
				"element": "H" 
			},
			{
				"x": -0.6911366238,
				"y": 2.2494836731,
				"z": -0.3699370073,
				"element": "H" 
			},
			{
				"x": 0.7565885023,
				"y": 2.7910730691,
				"z": -1.1911863199,
				"element": "H" 
			},
			{
				"x": -1.2275172191,
				"y": 2.4791730206,
				"z": -3.0062948259,
				"element": "H" 
			},
			{
				"x": -1.7565091659,
				"y": 1.0320476724,
				"z": -4.9558392959,
				"element": "H" 
			},
			{
				"x": 0.509330141,
				"y": -2.1664174196,
				"z": -3.1982623899,
				"element": "H" 
			},
			{
				"x": 1.0356195508,
				"y": -0.7255785397,
				"z": -1.2419459147,
				"element": "H" 
			},
			{
				"x": -2.3675426105,
				"y": -3.1925175427,
				"z": -4.381188702,
				"element": "H" 
			},
			{
				"x": -3.3035412583,
				"y": -1.9413469092,
				"z": -5.0438391451,
				"element": "H" 
			}
		],
		 "valence_orbital": [ 
			{
				"type": "occ",
				"energy": -0.28473,
				"method": "rhf"
			},
			{
				"type": "occ",
				"energy": -0.27406,
				"method": "rhf"
			},
			{
				"type": "occ",
				"energy": -0.26253,
				"method": "rhf"
			},
			{
				"type": "occ",
				"energy": -0.25846,
				"method": "rhf"
			},
			{
				"type": "occ",
				"energy": -0.22138,
				"method": "rhf"
			},
			{
				"type": "unocc",
				"energy": -0.05153,
				"method": "rhf"
			},
			{
				"type": "unocc",
				"energy": -0.03659,
				"method": "rhf"
			},
			{
				"type": "unocc",
				"energy": -0.01671,
				"method": "rhf"
			},
			{
				"type": "unocc",
				"energy": 0.02156,
				"method": "rhf"
			},
			{
				"type": "unocc",
				"energy": 0.04551,
				"method": "rhf"
			}
		],
		"cosmo_sigma_profile": { 
			"-0.025": 0.0,
			"-0.024": 0.0,
			"-0.023": 0.0,
			"-0.022": 0.0,
			"-0.021": 0.0,
			"-0.02": 0.0,
			"-0.019": 0.0,
			"-0.018": 0.0623679844925,
			"-0.017": 0.55345144982,
			"-0.016": 0.854607083957,
			"-0.015": 3.15044897352,
			"-0.014": 4.0938931939,
			"-0.013": 2.78948322427,
			"-0.012": 4.3927821918,
			"-0.011": 3.59310859121,
			"-0.01": 3.85983367247,
			"-0.009": 3.2478205967,
			"-0.008": 2.95334464508,
			"-0.007": 16.1185082316,
			"-0.006": 17.5954648274,
			"-0.005": 20.3804164345,
			"-0.004": 18.8018640543,
			"-0.003": 19.8050486759,
			"-0.002": 29.2737434935,
			"-0.001": 25.0304975569,
			"0.0": 22.8841939621,
			"0.001": 17.3096122749,
			"0.002": 19.3250916161,
			"0.003": 15.6339901178,
			"0.004": 10.4613017551,
			"0.005": 9.250996066,
			"0.006": 7.13410838059,
			"0.007": 7.02202084027,
			"0.008": 5.92167514344,
			"0.009": 8.35694336323,
			"0.01": 10.6714554884,
			"0.011": 14.7025655812,
			"0.012": 10.4245304444,
			"0.013": 3.8291739477,
			"0.014": 1.87901566381,
			"0.015": 0.197043135556,
			"0.016": 0.0,
			"0.017": 0.0,
			"0.018": 0.0,
			"0.019": 0.0,
			"0.02": 0.0,
			"0.021": 0.0,
			"0.022": 0.0,
			"0.023": 0.0,
			"0.024": 0.0,
			"0.025": 0.0
		}
	}
}
