{
	 "smiles": "CC(C)(C)OC(=O)N1CCC(CC1)N1CC(O)C1", 
	 "Tm": 365.15, 
	 "num_atms": 42, 
	 "gaussian": { 
		 "optdone": 1, 
		 "sigma_profile": "yes", 
		 "theory": "DFT", 
		 "functional": "B3LYP", 
		 "basiset": "6-31G**", 
		 "properties": { 
			 "R2extent": 7547.5283, 
			 "electric_dipole_moment_norm": 3.47488608302, 
			 "electric_quadrupole_moment_norm": 10.4578075762, 
			 "total_energy": -845.020111837, 
			 "HOMO_LUMO_gap": 0.27652, 
			 "cosmo_polarized_energy": -12.89, 
			 "cosmo_cavitation_energy": 41.06, 
			 "cosmo_dispersion_energy": -28.62, 
			 "cosmo_repulsion_energy": 2.24, 
			 "cosmo_total_nonelectrostatic_energy": 14.68, 
			 "SMD_solvation_energy": 5.74 
		},
		"coords": [
			{
				"x": 2.8154486987,
				"y": -2.1121485973,
				"z": -3.1952406948,
				"element": "C" 
			},
			{
				"x": 2.799313378,
				"y": -2.0350545023,
				"z": -1.6656029587,
				"element": "C" 
			},
			{
				"x": 4.1089792093,
				"y": -1.4354629173,
				"z": -1.1411141412,
				"element": "C" 
			},
			{
				"x": 2.5075521218,
				"y": -3.412104043,
				"z": -1.0586361434,
				"element": "C" 
			},
			{
				"x": 1.6813837519,
				"y": -1.1190284646,
				"z": -1.4054667716,
				"element": "O" 
			},
			{
				"x": 1.3373202274,
				"y": -0.7850464307,
				"z": -0.1334054667,
				"element": "C" 
			},
			{
				"x": 1.8951545449,
				"y": -1.1998943751,
				"z": 0.8752698334,
				"element": "O" 
			},
			{
				"x": 0.2819851708,
				"y": 0.0872646599,
				"z": -0.1171611801,
				"element": "N" 
			},
			{
				"x": -0.2614760382,
				"y": 0.5264125386,
				"z": 1.1677510908,
				"element": "C" 
			},
			{
				"x": -0.3449393193,
				"y": 2.0568262602,
				"z": 1.2229413786,
				"element": "C" 
			},
			{
				"x": -1.1227828864,
				"y": 2.6381458203,
				"z": 0.0275027811,
				"element": "C" 
			},
			{
				"x": -0.5166636626,
				"y": 2.1041490712,
				"z": -1.2834836948,
				"element": "C" 
			},
			{
				"x": -0.4304178117,
				"y": 0.5713249666,
				"z": -1.2996656931,
				"element": "C" 
			},
			{
				"x": -2.5338648354,
				"y": 2.2712565144,
				"z": 0.1159169633,
				"element": "N" 
			},
			{
				"x": -3.4788551172,
				"y": 2.8648823389,
				"z": -0.8581464223,
				"element": "C" 
			},
			{
				"x": -4.5252850997,
				"y": 2.9611356129,
				"z": 0.2831083343,
				"element": "C" 
			},
			{
				"x": -5.237003266,
				"y": 4.1640651474,
				"z": 0.4516233779,
				"element": "O" 
			},
			{
				"x": -3.3324376246,
				"y": 2.8121868691,
				"z": 1.2417573403,
				"element": "C" 
			},
			{
				"x": 2.9826016225,
				"y": -1.122305352,
				"z": -3.6303859993,
				"element": "H" 
			},
			{
				"x": 1.8640826547,
				"y": -2.498867737,
				"z": -3.5724768077,
				"element": "H" 
			},
			{
				"x": 3.6169098854,
				"y": -2.7772750502,
				"z": -3.5304868174,
				"element": "H" 
			},
			{
				"x": 4.2657144624,
				"y": -0.4382910298,
				"z": -1.5651650942,
				"element": "H" 
			},
			{
				"x": 4.9504378765,
				"y": -2.0681864989,
				"z": -1.4424048849,
				"element": "H" 
			},
			{
				"x": 4.0933879366,
				"y": -1.3595193207,
				"z": -0.0539589707,
				"element": "H" 
			},
			{
				"x": 2.4737727576,
				"y": -3.3579057197,
				"z": 0.0293624622,
				"element": "H" 
			},
			{
				"x": 1.5485957648,
				"y": -3.7921134785,
				"z": -1.4255358053,
				"element": "H" 
			},
			{
				"x": 3.2891834359,
				"y": -4.1188280468,
				"z": -1.3565606097,
				"element": "H" 
			},
			{
				"x": -1.2644492989,
				"y": 0.0980910403,
				"z": 1.298839352,
				"element": "H" 
			},
			{
				"x": 0.3865197025,
				"y": 0.1349107821,
				"z": 1.9512355019,
				"element": "H" 
			},
			{
				"x": 0.66860937,
				"y": 2.4751071806,
				"z": 1.2160641167,
				"element": "H" 
			},
			{
				"x": -0.8103912713,
				"y": 2.3639937698,
				"z": 2.1667786908,
				"element": "H" 
			},
			{
				"x": -1.0147836538,
				"y": 3.7418653083,
				"z": 0.0403444489,
				"element": "H" 
			},
			{
				"x": -1.1059056972,
				"y": 2.4447909487,
				"z": -2.1431472802,
				"element": "H" 
			},
			{
				"x": 0.4898925629,
				"y": 2.5236328641,
				"z": -1.3987113019,
				"element": "H" 
			},
			{
				"x": -1.4447357456,
				"y": 0.1491014013,
				"z": -1.303864525,
				"element": "H" 
			},
			{
				"x": 0.0879871651,
				"y": 0.2223401587,
				"z": -2.190037842,
				"element": "H" 
			},
			{
				"x": -3.7037725788,
				"y": 2.2453042518,
				"z": -1.7341543015,
				"element": "H" 
			},
			{
				"x": -3.1918987441,
				"y": 3.8781671904,
				"z": -1.1861801261,
				"element": "H" 
			},
			{
				"x": -5.1871210962,
				"y": 2.0855509438,
				"z": 0.3073121281,
				"element": "H" 
			},
			{
				"x": -5.9932806168,
				"y": 4.1585914509,
				"z": -0.1487063768,
				"element": "H" 
			},
			{
				"x": -3.4374589705,
				"y": 2.1528817281,
				"z": 2.1097543957,
				"element": "H" 
			},
			{
				"x": -3.0010089652,
				"y": 3.8092527455,
				"z": 1.5758377136,
				"element": "H" 
			}
		],
		 "valence_orbital": [ 
			{
				"type": "occ",
				"energy": -0.27802,
				"method": "rhf"
			},
			{
				"type": "occ",
				"energy": -0.26957,
				"method": "rhf"
			},
			{
				"type": "occ",
				"energy": -0.24963,
				"method": "rhf"
			},
			{
				"type": "occ",
				"energy": -0.23139,
				"method": "rhf"
			},
			{
				"type": "occ",
				"energy": -0.21487,
				"method": "rhf"
			},
			{
				"type": "unocc",
				"energy": 0.06165,
				"method": "rhf"
			},
			{
				"type": "unocc",
				"energy": 0.06605,
				"method": "rhf"
			},
			{
				"type": "unocc",
				"energy": 0.08012,
				"method": "rhf"
			},
			{
				"type": "unocc",
				"energy": 0.09222,
				"method": "rhf"
			},
			{
				"type": "unocc",
				"energy": 0.10865,
				"method": "rhf"
			}
		],
		"cosmo_sigma_profile": { 
			"-0.025": 0.0,
			"-0.024": 0.0,
			"-0.023": 0.0,
			"-0.022": 0.0,
			"-0.021": 0.0,
			"-0.02": 0.0,
			"-0.019": 0.0,
			"-0.018": 0.0,
			"-0.017": 0.0,
			"-0.016": 0.859237947581,
			"-0.015": 0.960119752327,
			"-0.014": 0.995844729705,
			"-0.013": 1.19011160003,
			"-0.012": 0.644354510058,
			"-0.011": 0.721364307119,
			"-0.01": 0.455306261036,
			"-0.009": 0.674806874317,
			"-0.008": 1.1499933022,
			"-0.007": 1.56423124203,
			"-0.006": 1.03868458,
			"-0.005": 1.66634478313,
			"-0.004": 16.8503765703,
			"-0.003": 43.8256460836,
			"-0.002": 57.0825756012,
			"-0.001": 48.2948296466,
			"0.0": 37.4080318345,
			"0.001": 31.4738662136,
			"0.002": 13.5006545402,
			"0.003": 8.13777779746,
			"0.004": 7.58922509589,
			"0.005": 7.01833442018,
			"0.006": 4.46661578403,
			"0.007": 4.27944827497,
			"0.008": 4.63389166271,
			"0.009": 2.93629279641,
			"0.01": 2.17192627761,
			"0.011": 3.9818486413,
			"0.012": 3.02737618257,
			"0.013": 4.55776680434,
			"0.014": 3.79280907364,
			"0.015": 0.102138975361,
			"0.016": 0.0,
			"0.017": 0.0,
			"0.018": 0.0,
			"0.019": 0.0,
			"0.02": 0.0,
			"0.021": 0.0,
			"0.022": 0.0,
			"0.023": 0.0,
			"0.024": 0.0,
			"0.025": 0.0
		}
	}
}
