{
	 "smiles": "CC1CCCCN1CCCOC(=O)C1=CC=C(Cl)C(Cl)=C1", 
	 "Tm": 298.15, 
	 "num_atms": 42, 
	 "gaussian": { 
		 "optdone": 1, 
		 "sigma_profile": "yes", 
		 "theory": "DFT", 
		 "functional": "B3LYP", 
		 "basiset": "6-31G**", 
		 "properties": { 
			 "R2extent": 15356.5771, 
			 "electric_dipole_moment_norm": 1.53547971331, 
			 "electric_quadrupole_moment_norm": 13.1499394242, 
			 "total_energy": -1747.95048653, 
			 "HOMO_LUMO_gap": 0.13339, 
			 "cosmo_polarized_energy": -8.1, 
			 "cosmo_cavitation_energy": 46.55, 
			 "cosmo_dispersion_energy": -32.13, 
			 "cosmo_repulsion_energy": 2.52, 
			 "cosmo_total_nonelectrostatic_energy": 16.94, 
			 "SMD_solvation_energy": 5.89 
		},
		"coords": [
			{
				"x": 1.3986376926,
				"y": -2.179455554,
				"z": -1.4202256561,
				"element": "C" 
			},
			{
				"x": 0.6364715602,
				"y": -1.0064052336,
				"z": -0.7870880265,
				"element": "C" 
			},
			{
				"x": 1.4620605355,
				"y": 0.3275057376,
				"z": -0.8414968036,
				"element": "C" 
			},
			{
				"x": 0.8378785039,
				"y": 1.3640065418,
				"z": -1.7933822118,
				"element": "C" 
			},
			{
				"x": 0.3714924044,
				"y": 0.6890788924,
				"z": -3.0870861291,
				"element": "C" 
			},
			{
				"x": -0.6788769708,
				"y": -0.4177797632,
				"z": -2.7803003244,
				"element": "C" 
			},
			{
				"x": -0.7025114421,
				"y": -0.877496629,
				"z": -1.384392698,
				"element": "N" 
			},
			{
				"x": -1.6878870877,
				"y": -0.248743721,
				"z": -0.5001300657,
				"element": "C" 
			},
			{
				"x": -2.3669053292,
				"y": -1.2864544474,
				"z": 0.409039484,
				"element": "C" 
			},
			{
				"x": -3.4527601554,
				"y": -0.7154667642,
				"z": 1.3137608785,
				"element": "C" 
			},
			{
				"x": -2.8831008735,
				"y": 0.1436974354,
				"z": 2.3363554058,
				"element": "O" 
			},
			{
				"x": -3.0668372484,
				"y": 1.4750328436,
				"z": 2.2158712411,
				"element": "C" 
			},
			{
				"x": -3.6653450007,
				"y": 2.0087061701,
				"z": 1.3017457608,
				"element": "O" 
			},
			{
				"x": -2.4457709975,
				"y": 2.2310031435,
				"z": 3.3445016019,
				"element": "C" 
			},
			{
				"x": -2.5633081888,
				"y": 3.6261442686,
				"z": 3.3466602202,
				"element": "C" 
			},
			{
				"x": -2.002029664,
				"y": 4.3716602576,
				"z": 4.3756218079,
				"element": "C" 
			},
			{
				"x": -1.3162078899,
				"y": 3.7332910083,
				"z": 5.4140009883,
				"element": "C" 
			},
			{
				"x": -0.6259696574,
				"y": 4.7054507075,
				"z": 6.6857324744,
				"element": "Cl" 
			},
			{
				"x": -1.1962123349,
				"y": 2.3352149666,
				"z": 5.4148140283,
				"element": "C" 
			},
			{
				"x": -0.3487904766,
				"y": 1.4947037824,
				"z": 6.6899317154,
				"element": "Cl" 
			},
			{
				"x": -1.7611254409,
				"y": 1.5894799644,
				"z": 4.381215617,
				"element": "C" 
			},
			{
				"x": 0.8050022959,
				"y": -3.0964940064,
				"z": -1.3624892578,
				"element": "H" 
			},
			{
				"x": 2.3479056094,
				"y": -2.343539277,
				"z": -0.8992999055,
				"element": "H" 
			},
			{
				"x": 1.633506225,
				"y": -1.9919994673,
				"z": -2.4736538089,
				"element": "H" 
			},
			{
				"x": 0.47579315,
				"y": -1.2683421817,
				"z": 0.2645589255,
				"element": "H" 
			},
			{
				"x": 2.4822525539,
				"y": 0.1042894407,
				"z": -1.178617461,
				"element": "H" 
			},
			{
				"x": 1.562499566,
				"y": 0.7579673901,
				"z": 0.161233608,
				"element": "H" 
			},
			{
				"x": 1.5641524493,
				"y": 2.1554460166,
				"z": -2.0107675829,
				"element": "H" 
			},
			{
				"x": -0.0156422362,
				"y": 1.8560564685,
				"z": -1.3113717972,
				"element": "H" 
			},
			{
				"x": -0.0491448452,
				"y": 1.4241254346,
				"z": -3.7825487135,
				"element": "H" 
			},
			{
				"x": 1.2431793681,
				"y": 0.2527503283,
				"z": -3.5923123017,
				"element": "H" 
			},
			{
				"x": -0.5011574706,
				"y": -1.2789400525,
				"z": -3.4382304952,
				"element": "H" 
			},
			{
				"x": -1.6834176069,
				"y": -0.0578672586,
				"z": -3.02155662,
				"element": "H" 
			},
			{
				"x": -2.4569159606,
				"y": 0.2355167967,
				"z": -1.110954307,
				"element": "H" 
			},
			{
				"x": -1.2493701411,
				"y": 0.548657554,
				"z": 0.1214364731,
				"element": "H" 
			},
			{
				"x": -1.6186183937,
				"y": -1.7967459949,
				"z": 1.0274073193,
				"element": "H" 
			},
			{
				"x": -2.8249895447,
				"y": -2.056142019,
				"z": -0.2238525419,
				"element": "H" 
			},
			{
				"x": -4.1911727543,
				"y": -0.1410558496,
				"z": 0.7501025617,
				"element": "H" 
			},
			{
				"x": -3.9570556703,
				"y": -1.5136002421,
				"z": 1.8650444629,
				"element": "H" 
			},
			{
				"x": -3.0975991064,
				"y": 4.1077482132,
				"z": 2.5355447554,
				"element": "H" 
			},
			{
				"x": -2.0867565497,
				"y": 5.4524513566,
				"z": 4.3886738024,
				"element": "H" 
			},
			{
				"x": -1.6665528766,
				"y": 0.5111437425,
				"z": 4.3858035763,
				"element": "H" 
			}
		],
		 "valence_orbital": [ 
			{
				"type": "occ",
				"energy": -0.30121,
				"method": "rhf"
			},
			{
				"type": "occ",
				"energy": -0.28471,
				"method": "rhf"
			},
			{
				"type": "occ",
				"energy": -0.27165,
				"method": "rhf"
			},
			{
				"type": "occ",
				"energy": -0.25848,
				"method": "rhf"
			},
			{
				"type": "occ",
				"energy": -0.19561,
				"method": "rhf"
			},
			{
				"type": "unocc",
				"energy": -0.06222,
				"method": "rhf"
			},
			{
				"type": "unocc",
				"energy": -0.03037,
				"method": "rhf"
			},
			{
				"type": "unocc",
				"energy": -0.00255,
				"method": "rhf"
			},
			{
				"type": "unocc",
				"energy": 0.03995,
				"method": "rhf"
			},
			{
				"type": "unocc",
				"energy": 0.0559,
				"method": "rhf"
			}
		],
		"cosmo_sigma_profile": { 
			"-0.025": 0.0,
			"-0.024": 0.0,
			"-0.023": 0.0,
			"-0.022": 0.0,
			"-0.021": 0.0,
			"-0.02": 0.0,
			"-0.019": 0.0,
			"-0.018": 0.0,
			"-0.017": 0.0,
			"-0.016": 0.0,
			"-0.015": 0.0,
			"-0.014": 0.0,
			"-0.013": 0.0,
			"-0.012": 0.0,
			"-0.011": 0.0,
			"-0.01": 0.0,
			"-0.009": 0.429697085154,
			"-0.008": 1.89922723659,
			"-0.007": 4.10414206168,
			"-0.006": 6.28557838066,
			"-0.005": 8.08549478032,
			"-0.004": 17.4805289918,
			"-0.003": 30.7598198777,
			"-0.002": 51.1813060086,
			"-0.001": 54.1094566189,
			"0.0": 57.8695493491,
			"0.001": 46.1456596981,
			"0.002": 26.7054710056,
			"0.003": 20.9340354247,
			"0.004": 18.8153787794,
			"0.005": 6.29695952409,
			"0.006": 1.93139635992,
			"0.007": 2.23210403706,
			"0.008": 2.64142064178,
			"0.009": 2.55938043735,
			"0.01": 2.13751709763,
			"0.011": 3.94734253772,
			"0.012": 2.6045196724,
			"0.013": 0.351904032923,
			"0.014": 0.335292521645,
			"0.015": 0.0,
			"0.016": 0.0,
			"0.017": 0.0,
			"0.018": 0.0,
			"0.019": 0.0,
			"0.02": 0.0,
			"0.021": 0.0,
			"0.022": 0.0,
			"0.023": 0.0,
			"0.024": 0.0,
			"0.025": 0.0
		}
	}
}
