{
	 "smiles": "CCOC(=O)C1CCCN1S(N)(=O)=O", 
	 "Tm": 397.15, 
	 "num_atms": 28, 
	 "gaussian": { 
		 "optdone": 1, 
		 "sigma_profile": "yes", 
		 "theory": "DFT", 
		 "functional": "B3LYP", 
		 "basiset": "6-31G**", 
		 "properties": { 
			 "R2extent": 2926.9813, 
			 "electric_dipole_moment_norm": 5.56734581735, 
			 "electric_quadrupole_moment_norm": 13.9571505394, 
			 "total_energy": -1083.70629169, 
			 "HOMO_LUMO_gap": 0.23042, 
			 "cosmo_polarized_energy": -17.91, 
			 "cosmo_cavitation_energy": 30.44, 
			 "cosmo_dispersion_energy": -22.34, 
			 "cosmo_repulsion_energy": 1.72, 
			 "cosmo_total_nonelectrostatic_energy": 9.81, 
			 "SMD_solvation_energy": 4.09 
		},
		"coords": [
			{
				"x": -1.8754953263,
				"y": 1.45103196,
				"z": 2.3725924375,
				"element": "C" 
			},
			{
				"x": -2.02727452,
				"y": -0.0359938998,
				"z": 2.1003543003,
				"element": "C" 
			},
			{
				"x": -1.4371466678,
				"y": -0.3766287178,
				"z": 0.8106323321,
				"element": "O" 
			},
			{
				"x": -0.1693023855,
				"y": -0.7996868755,
				"z": 0.8075909144,
				"element": "C" 
			},
			{
				"x": 0.4957598692,
				"y": -1.0075371275,
				"z": 1.8077855914,
				"element": "O" 
			},
			{
				"x": 0.4087388469,
				"y": -1.0119809173,
				"z": -0.6030341823,
				"element": "C" 
			},
			{
				"x": -0.6057995995,
				"y": -1.4260898986,
				"z": -1.6826999191,
				"element": "C" 
			},
			{
				"x": -1.1196400119,
				"y": -0.094357433,
				"z": -2.2562764723,
				"element": "C" 
			},
			{
				"x": 0.0910008613,
				"y": 0.8539590814,
				"z": -2.1770729229,
				"element": "C" 
			},
			{
				"x": 1.0114040404,
				"y": 0.2013497006,
				"z": -1.2023585014,
				"element": "N" 
			},
			{
				"x": 1.9524085364,
				"y": 1.2635608396,
				"z": -0.268373212,
				"element": "S" 
			},
			{
				"x": 2.9632022684,
				"y": 0.2573281311,
				"z": 0.5800510524,
				"element": "N" 
			},
			{
				"x": 2.7375181862,
				"y": 2.0271490121,
				"z": -1.2284908279,
				"element": "O" 
			},
			{
				"x": 1.1167310587,
				"y": 1.9473603021,
				"z": 0.7206776002,
				"element": "O" 
			},
			{
				"x": -2.3320086919,
				"y": 1.693223046,
				"z": 3.3381798454,
				"element": "H" 
			},
			{
				"x": -0.82119624,
				"y": 1.7343771323,
				"z": 2.3973884725,
				"element": "H" 
			},
			{
				"x": -2.3728994793,
				"y": 2.0430926031,
				"z": 1.5991175053,
				"element": "H" 
			},
			{
				"x": -3.0747073438,
				"y": -0.3315956544,
				"z": 2.0053927583,
				"element": "H" 
			},
			{
				"x": -1.5442877294,
				"y": -0.6407797409,
				"z": 2.8695986683,
				"element": "H" 
			},
			{
				"x": 1.1889764119,
				"y": -1.7672786473,
				"z": -0.4696818487,
				"element": "H" 
			},
			{
				"x": -1.4027866603,
				"y": -2.0547670848,
				"z": -1.2796845835,
				"element": "H" 
			},
			{
				"x": -0.0747528939,
				"y": -1.9981065599,
				"z": -2.4501552823,
				"element": "H" 
			},
			{
				"x": -1.4918704985,
				"y": -0.1978196057,
				"z": -3.2788482305,
				"element": "H" 
			},
			{
				"x": -1.9331909052,
				"y": 0.2837955795,
				"z": -1.6339474881,
				"element": "H" 
			},
			{
				"x": -0.2024181978,
				"y": 1.8539488741,
				"z": -1.8423185278,
				"element": "H" 
			},
			{
				"x": 0.6120968829,
				"y": 0.9549263112,
				"z": -3.1334704611,
				"element": "H" 
			},
			{
				"x": 3.5713272032,
				"y": -0.2867380483,
				"z": -0.0231495058,
				"element": "H" 
			},
			{
				"x": 2.4600129855,
				"y": -0.2917423622,
				"z": 1.2780004876,
				"element": "H" 
			}
		],
		 "valence_orbital": [ 
			{
				"type": "occ",
				"energy": -0.31335,
				"method": "rhf"
			},
			{
				"type": "occ",
				"energy": -0.30785,
				"method": "rhf"
			},
			{
				"type": "occ",
				"energy": -0.29996,
				"method": "rhf"
			},
			{
				"type": "occ",
				"energy": -0.2893,
				"method": "rhf"
			},
			{
				"type": "occ",
				"energy": -0.24499,
				"method": "rhf"
			},
			{
				"type": "unocc",
				"energy": -0.01457,
				"method": "rhf"
			},
			{
				"type": "unocc",
				"energy": 0.05571,
				"method": "rhf"
			},
			{
				"type": "unocc",
				"energy": 0.06778,
				"method": "rhf"
			},
			{
				"type": "unocc",
				"energy": 0.08345,
				"method": "rhf"
			},
			{
				"type": "unocc",
				"energy": 0.0911,
				"method": "rhf"
			}
		],
		"cosmo_sigma_profile": { 
			"-0.025": 0.0,
			"-0.024": 0.0,
			"-0.023": 0.0,
			"-0.022": 0.0,
			"-0.021": 0.0,
			"-0.02": 0.0,
			"-0.019": 0.0,
			"-0.018": 0.0,
			"-0.017": 0.0,
			"-0.016": 0.414167393203,
			"-0.015": 1.20655209554,
			"-0.014": 1.64147220082,
			"-0.013": 1.03468311326,
			"-0.012": 1.47256930167,
			"-0.011": 1.22682770351,
			"-0.01": 1.59429848894,
			"-0.009": 2.04165385083,
			"-0.008": 2.35521449859,
			"-0.007": 3.21997176148,
			"-0.006": 8.09280470072,
			"-0.005": 17.4543690177,
			"-0.004": 27.3129956853,
			"-0.003": 27.7278887434,
			"-0.002": 20.29118891,
			"-0.001": 19.586085302,
			"0.0": 13.6082092781,
			"0.001": 8.22653321731,
			"0.002": 8.05833040649,
			"0.003": 7.37316236235,
			"0.004": 7.13552363991,
			"0.005": 6.5074004107,
			"0.006": 7.20708384598,
			"0.007": 7.17309364375,
			"0.008": 6.39943903684,
			"0.009": 7.49847585697,
			"0.01": 8.06212505293,
			"0.011": 11.4308860696,
			"0.012": 2.76426108808,
			"0.013": 0.0,
			"0.014": 0.0,
			"0.015": 0.0,
			"0.016": 0.0,
			"0.017": 0.0,
			"0.018": 0.0,
			"0.019": 0.0,
			"0.02": 0.0,
			"0.021": 0.0,
			"0.022": 0.0,
			"0.023": 0.0,
			"0.024": 0.0,
			"0.025": 0.0
		}
	}
}
