{
	 "smiles": "NNC(=O)CN1C=NC2=C1C=CC=C2", 
	 "Tm": 382.15, 
	 "num_atms": 24, 
	 "gaussian": { 
		 "optdone": 1, 
		 "sigma_profile": "yes", 
		 "theory": "DFT", 
		 "functional": "B3LYP", 
		 "basiset": "6-31G**", 
		 "properties": { 
			 "R2extent": 2987.2055, 
			 "electric_dipole_moment_norm": 0.956433552318, 
			 "electric_quadrupole_moment_norm": 10.477776443, 
			 "total_energy": -643.198997542, 
			 "HOMO_LUMO_gap": 0.20667, 
			 "cosmo_polarized_energy": -18.44, 
			 "cosmo_cavitation_energy": 28.55, 
			 "cosmo_dispersion_energy": -20.27, 
			 "cosmo_repulsion_energy": 1.6, 
			 "cosmo_total_nonelectrostatic_energy": 9.88, 
			 "SMD_solvation_energy": 4.27 
		},
		"coords": [
			{
				"x": 1.7219839176,
				"y": -1.602475407,
				"z": -2.025752144,
				"element": "N" 
			},
			{
				"x": 1.4116163423,
				"y": -0.5694349132,
				"z": -1.1181225283,
				"element": "N" 
			},
			{
				"x": 2.1931666951,
				"y": -0.3288796571,
				"z": -0.0317436293,
				"element": "C" 
			},
			{
				"x": 3.2484069215,
				"y": -0.9119394659,
				"z": 0.1797460067,
				"element": "O" 
			},
			{
				"x": 1.7020310337,
				"y": 0.7480581762,
				"z": 0.9487921104,
				"element": "C" 
			},
			{
				"x": 0.4222662013,
				"y": 1.3647979826,
				"z": 0.661167025,
				"element": "N" 
			},
			{
				"x": 0.2097611709,
				"y": 2.5935877163,
				"z": 0.0624171558,
				"element": "C" 
			},
			{
				"x": -1.0489667688,
				"y": 2.9136082773,
				"z": -0.075074131,
				"element": "N" 
			},
			{
				"x": -1.7445441342,
				"y": 1.8385282699,
				"z": 0.4658688208,
				"element": "C" 
			},
			{
				"x": -0.8425498122,
				"y": 0.8534818271,
				"z": 0.936560539,
				"element": "C" 
			},
			{
				"x": -1.2704745532,
				"y": -0.3370523596,
				"z": 1.5306117221,
				"element": "C" 
			},
			{
				"x": -2.6468131129,
				"y": -0.5157439523,
				"z": 1.6479349163,
				"element": "C" 
			},
			{
				"x": -3.5593737742,
				"y": 0.4548041783,
				"z": 1.1864273116,
				"element": "C" 
			},
			{
				"x": -3.1245950448,
				"y": 1.6355494038,
				"z": 0.5933620951,
				"element": "C" 
			},
			{
				"x": 2.5119200642,
				"y": -1.2879179138,
				"z": -2.5889824785,
				"element": "H" 
			},
			{
				"x": 2.079690982,
				"y": -2.3833359754,
				"z": -1.4744612264,
				"element": "H" 
			},
			{
				"x": 0.474037219,
				"y": -0.2017744439,
				"z": -1.185460147,
				"element": "H" 
			},
			{
				"x": 2.4708686848,
				"y": 1.5252388706,
				"z": 0.9771104854,
				"element": "H" 
			},
			{
				"x": 1.6798687923,
				"y": 0.2926009251,
				"z": 1.9436161773,
				"element": "H" 
			},
			{
				"x": 1.0485173612,
				"y": 3.2052852659,
				"z": -0.2481919636,
				"element": "H" 
			},
			{
				"x": -0.5734011232,
				"y": -1.0907128391,
				"z": 1.8841185218,
				"element": "H" 
			},
			{
				"x": -3.0251606873,
				"y": -1.4255725739,
				"z": 2.1041505109,
				"element": "H" 
			},
			{
				"x": -4.6238803008,
				"y": 0.2716629878,
				"z": 1.2974691731,
				"element": "H" 
			},
			{
				"x": -3.8214760745,
				"y": 2.3866356204,
				"z": 0.2361356769,
				"element": "H" 
			}
		],
		 "valence_orbital": [ 
			{
				"type": "occ",
				"energy": -0.27886,
				"method": "rhf"
			},
			{
				"type": "occ",
				"energy": -0.27109,
				"method": "rhf"
			},
			{
				"type": "occ",
				"energy": -0.2658,
				"method": "rhf"
			},
			{
				"type": "occ",
				"energy": -0.23608,
				"method": "rhf"
			},
			{
				"type": "occ",
				"energy": -0.23088,
				"method": "rhf"
			},
			{
				"type": "unocc",
				"energy": -0.02421,
				"method": "rhf"
			},
			{
				"type": "unocc",
				"energy": 0.0087,
				"method": "rhf"
			},
			{
				"type": "unocc",
				"energy": 0.01105,
				"method": "rhf"
			},
			{
				"type": "unocc",
				"energy": 0.04471,
				"method": "rhf"
			},
			{
				"type": "unocc",
				"energy": 0.07714,
				"method": "rhf"
			}
		],
		"cosmo_sigma_profile": { 
			"-0.025": 0.0,
			"-0.024": 0.0,
			"-0.023": 0.0,
			"-0.022": 0.0,
			"-0.021": 0.0,
			"-0.02": 0.0,
			"-0.019": 0.0,
			"-0.018": 0.0,
			"-0.017": 0.0,
			"-0.016": 0.0,
			"-0.015": 0.0,
			"-0.014": 0.0,
			"-0.013": 0.317023023908,
			"-0.012": 1.17741070013,
			"-0.011": 3.67569030646,
			"-0.01": 6.53434744167,
			"-0.009": 7.15691424231,
			"-0.008": 10.4328861493,
			"-0.007": 10.6200258122,
			"-0.006": 11.4921512733,
			"-0.005": 14.7752700646,
			"-0.004": 15.9731027479,
			"-0.003": 14.9101195562,
			"-0.002": 10.3413646586,
			"-0.001": 12.1490016278,
			"0.0": 10.5959349879,
			"0.001": 10.02571416,
			"0.002": 9.21221387734,
			"0.003": 11.3345832948,
			"0.004": 11.4025247215,
			"0.005": 12.0104205753,
			"0.006": 7.96201945457,
			"0.007": 3.28386416138,
			"0.008": 2.97696630375,
			"0.009": 3.05414071324,
			"0.01": 3.13352767783,
			"0.011": 3.01387585323,
			"0.012": 4.21227330427,
			"0.013": 7.1985448532,
			"0.014": 3.98552003915,
			"0.015": 1.50035294807,
			"0.016": 1.72280319105,
			"0.017": 1.1886380024,
			"0.018": 0.070277162574,
			"0.019": 0.0,
			"0.02": 0.0,
			"0.021": 0.0,
			"0.022": 0.0,
			"0.023": 0.0,
			"0.024": 0.0,
			"0.025": 0.0
		}
	}
}
