{
	 "smiles": "CC1=C(Cl)C=C(C=C1Cl)C1=NNC(=O)C=C1", 
	 "Tm": 525.15, 
	 "num_atms": 24, 
	 "gaussian": { 
		 "optdone": 1, 
		 "sigma_profile": "yes", 
		 "theory": "DFT", 
		 "functional": "B3LYP", 
		 "basiset": "6-31G**", 
		 "properties": { 
			 "R2extent": 6237.1231, 
			 "electric_dipole_moment_norm": 2.09147929705, 
			 "electric_quadrupole_moment_norm": 11.2712598049, 
			 "total_energy": -1529.09214461, 
			 "HOMO_LUMO_gap": 0.15638, 
			 "cosmo_polarized_energy": -12.68, 
			 "cosmo_cavitation_energy": 32.21, 
			 "cosmo_dispersion_energy": -24.03, 
			 "cosmo_repulsion_energy": 1.86, 
			 "cosmo_total_nonelectrostatic_energy": 10.04, 
			 "SMD_solvation_energy": 5.1 
		},
		"coords": [
			{
				"x": 3.8107411378,
				"y": 2.9785860073,
				"z": -1.4394013192,
				"element": "C" 
			},
			{
				"x": 2.7439245334,
				"y": 2.0129588286,
				"z": -0.9987963088,
				"element": "C" 
			},
			{
				"x": 2.3744014927,
				"y": 0.9143212685,
				"z": -1.8001503839,
				"element": "C" 
			},
			{
				"x": 3.1830596979,
				"y": 0.6784871158,
				"z": -3.3461733043,
				"element": "Cl" 
			},
			{
				"x": 1.3941719352,
				"y": -0.000590669,
				"z": -1.4441280148,
				"element": "C" 
			},
			{
				"x": 0.7140449287,
				"y": 0.1432670767,
				"z": -0.226138626,
				"element": "C" 
			},
			{
				"x": 1.0556215569,
				"y": 1.216661009,
				"z": 0.6034091775,
				"element": "C" 
			},
			{
				"x": 2.0445419277,
				"y": 2.1189774311,
				"z": 0.2137043912,
				"element": "C" 
			},
			{
				"x": 2.3998821748,
				"y": 3.4314940955,
				"z": 1.3361751855,
				"element": "Cl" 
			},
			{
				"x": -0.3310236775,
				"y": -0.8353131169,
				"z": 0.1622005409,
				"element": "C" 
			},
			{
				"x": -0.3188399106,
				"y": -1.9912387604,
				"z": -0.462735403,
				"element": "N" 
			},
			{
				"x": -1.257547083,
				"y": -2.8821935145,
				"z": -0.131514215,
				"element": "N" 
			},
			{
				"x": -2.2822393979,
				"y": -2.7715698474,
				"z": 0.8233753351,
				"element": "C" 
			},
			{
				"x": -3.0601769471,
				"y": -3.6962858832,
				"z": 1.0169347232,
				"element": "O" 
			},
			{
				"x": -2.2681708979,
				"y": -1.4725723904,
				"z": 1.4819480655,
				"element": "C" 
			},
			{
				"x": -1.3300822556,
				"y": -0.5462043685,
				"z": 1.1602372119,
				"element": "C" 
			},
			{
				"x": 4.7618874705,
				"y": 2.4582128505,
				"z": -1.5923769438,
				"element": "H" 
			},
			{
				"x": 3.5431351867,
				"y": 3.4372683455,
				"z": -2.3968384058,
				"element": "H" 
			},
			{
				"x": 3.9616672065,
				"y": 3.7686974566,
				"z": -0.7058317084,
				"element": "H" 
			},
			{
				"x": 1.1506868712,
				"y": -0.8241928847,
				"z": -2.1028169087,
				"element": "H" 
			},
			{
				"x": 0.5828031271,
				"y": 1.3562163578,
				"z": 1.567486433,
				"element": "H" 
			},
			{
				"x": -1.2093176634,
				"y": -3.7631097618,
				"z": -0.6316131624,
				"element": "H" 
			},
			{
				"x": -3.0403351166,
				"y": -1.2878333319,
				"z": 2.2202437949,
				"element": "H" 
			},
			{
				"x": -1.3431362975,
				"y": 0.427656686,
				"z": 1.6379998455,
				"element": "H" 
			}
		],
		 "valence_orbital": [ 
			{
				"type": "occ",
				"energy": -0.31856,
				"method": "rhf"
			},
			{
				"type": "occ",
				"energy": -0.2744,
				"method": "rhf"
			},
			{
				"type": "occ",
				"energy": -0.26071,
				"method": "rhf"
			},
			{
				"type": "occ",
				"energy": -0.25794,
				"method": "rhf"
			},
			{
				"type": "occ",
				"energy": -0.23534,
				"method": "rhf"
			},
			{
				"type": "unocc",
				"energy": -0.07896,
				"method": "rhf"
			},
			{
				"type": "unocc",
				"energy": -0.0488,
				"method": "rhf"
			},
			{
				"type": "unocc",
				"energy": -0.02872,
				"method": "rhf"
			},
			{
				"type": "unocc",
				"energy": 0.00158,
				"method": "rhf"
			},
			{
				"type": "unocc",
				"energy": 0.01671,
				"method": "rhf"
			}
		],
		"cosmo_sigma_profile": { 
			"-0.025": 0.0,
			"-0.024": 0.0,
			"-0.023": 0.0,
			"-0.022": 0.0,
			"-0.021": 0.0,
			"-0.02": 0.0,
			"-0.019": 0.0,
			"-0.018": 0.0,
			"-0.017": 0.0754627384041,
			"-0.016": 1.04756068581,
			"-0.015": 1.3181320877,
			"-0.014": 0.39641173766,
			"-0.013": 0.984220369308,
			"-0.012": 0.931526117489,
			"-0.011": 1.54479953883,
			"-0.01": 2.66584974048,
			"-0.009": 3.30121516003,
			"-0.008": 5.08111007221,
			"-0.007": 5.48060894631,
			"-0.006": 5.75403552405,
			"-0.005": 8.26643236547,
			"-0.004": 12.7704439462,
			"-0.003": 16.3883956456,
			"-0.002": 23.4163704517,
			"-0.001": 31.5588759133,
			"0.0": 26.7021478781,
			"0.001": 29.7641111023,
			"0.002": 22.9995238901,
			"0.003": 17.0760639511,
			"0.004": 16.7834816761,
			"0.005": 6.73289133065,
			"0.006": 2.19928544077,
			"0.007": 1.85878099302,
			"0.008": 1.44137647313,
			"0.009": 1.5300895089,
			"0.01": 1.95809856177,
			"0.011": 1.32508519645,
			"0.012": 2.08322049719,
			"0.013": 5.63835193558,
			"0.014": 3.92703628435,
			"0.015": 0.268850876028,
			"0.016": 0.0,
			"0.017": 0.0,
			"0.018": 0.0,
			"0.019": 0.0,
			"0.02": 0.0,
			"0.021": 0.0,
			"0.022": 0.0,
			"0.023": 0.0,
			"0.024": 0.0,
			"0.025": 0.0
		}
	}
}
