{
	 "smiles": "NC(=S)C1=CC(=CC=C1)C1=NN=C(N)O1", 
	 "Tm": 533.15, 
	 "num_atms": 23, 
	 "gaussian": { 
		 "optdone": 1, 
		 "sigma_profile": "yes", 
		 "theory": "DFT", 
		 "functional": "B3LYP", 
		 "basiset": "6-31G**", 
		 "properties": { 
			 "R2extent": 4818.2766, 
			 "electric_dipole_moment_norm": 5.01358021677, 
			 "electric_quadrupole_moment_norm": 31.9942586312, 
			 "total_energy": -1040.18277461, 
			 "HOMO_LUMO_gap": 0.14484, 
			 "cosmo_polarized_energy": -26.05, 
			 "cosmo_cavitation_energy": 30.36, 
			 "cosmo_dispersion_energy": -22.84, 
			 "cosmo_repulsion_energy": 1.76, 
			 "cosmo_total_nonelectrostatic_energy": 9.28, 
			 "SMD_solvation_energy": 2.8 
		},
		"coords": [
			{
				"x": 0.356595665,
				"y": 3.338339938,
				"z": 0.59505083,
				"element": "N" 
			},
			{
				"x": -0.9449265745,
				"y": 3.1839362316,
				"z": 0.2567567736,
				"element": "C" 
			},
			{
				"x": -2.043881567,
				"y": 4.4274264547,
				"z": 0.4186346144,
				"element": "S" 
			},
			{
				"x": -1.3105102011,
				"y": 1.8230506106,
				"z": -0.2319724203,
				"element": "C" 
			},
			{
				"x": -0.6394836146,
				"y": 0.6863982472,
				"z": 0.2444267193,
				"element": "C" 
			},
			{
				"x": -0.9841834994,
				"y": -0.5912959313,
				"z": -0.2163663225,
				"element": "C" 
			},
			{
				"x": -2.0015713707,
				"y": -0.7334251556,
				"z": -1.1742202291,
				"element": "C" 
			},
			{
				"x": -2.6696454491,
				"y": 0.3939789431,
				"z": -1.6436920485,
				"element": "C" 
			},
			{
				"x": -2.3385487534,
				"y": 1.6638247638,
				"z": -1.1732914088,
				"element": "C" 
			},
			{
				"x": -0.3078720594,
				"y": -1.78005279,
				"z": 0.2850503858,
				"element": "C" 
			},
			{
				"x": -0.4792976324,
				"y": -3.0196688507,
				"z": -0.0493427868,
				"element": "N" 
			},
			{
				"x": 0.3934677133,
				"y": -3.7860484749,
				"z": 0.7254205978,
				"element": "N" 
			},
			{
				"x": 1.0391040114,
				"y": -2.9321783245,
				"z": 1.4657483266,
				"element": "C" 
			},
			{
				"x": 2.0585041548,
				"y": -3.1669163306,
				"z": 2.3448755334,
				"element": "N" 
			},
			{
				"x": 0.6649888408,
				"y": -1.6432589395,
				"z": 1.2597812608,
				"element": "O" 
			},
			{
				"x": 1.0559013685,
				"y": 2.6740419976,
				"z": 0.2970667112,
				"element": "H" 
			},
			{
				"x": 0.660347324,
				"y": 4.2505049421,
				"z": 0.9036479089,
				"element": "H" 
			},
			{
				"x": 0.1242400001,
				"y": 0.7826132784,
				"z": 1.0085258321,
				"element": "H" 
			},
			{
				"x": -2.2567361229,
				"y": -1.7264998471,
				"z": -1.5279214965,
				"element": "H" 
			},
			{
				"x": -3.4585468888,
				"y": 0.2827464969,
				"z": -2.3811470273,
				"element": "H" 
			},
			{
				"x": -2.863496721,
				"y": 2.5448862687,
				"z": -1.5249594049,
				"element": "H" 
			},
			{
				"x": 2.1133735797,
				"y": -2.5356880104,
				"z": 3.1322383695,
				"element": "H" 
			},
			{
				"x": 2.156877797,
				"y": -4.1432155181,
				"z": 2.5871892812,
				"element": "H" 
			}
		],
		 "valence_orbital": [ 
			{
				"type": "occ",
				"energy": -0.27739,
				"method": "rhf"
			},
			{
				"type": "occ",
				"energy": -0.27349,
				"method": "rhf"
			},
			{
				"type": "occ",
				"energy": -0.2366,
				"method": "rhf"
			},
			{
				"type": "occ",
				"energy": -0.2279,
				"method": "rhf"
			},
			{
				"type": "occ",
				"energy": -0.21137,
				"method": "rhf"
			},
			{
				"type": "unocc",
				"energy": -0.06653,
				"method": "rhf"
			},
			{
				"type": "unocc",
				"energy": -0.05,
				"method": "rhf"
			},
			{
				"type": "unocc",
				"energy": 0.00648,
				"method": "rhf"
			},
			{
				"type": "unocc",
				"energy": 0.02968,
				"method": "rhf"
			},
			{
				"type": "unocc",
				"energy": 0.05655,
				"method": "rhf"
			}
		],
		"cosmo_sigma_profile": { 
			"-0.025": 0.0,
			"-0.024": 0.0,
			"-0.023": 0.0,
			"-0.022": 0.0,
			"-0.021": 0.0,
			"-0.02": 0.0,
			"-0.019": 0.0,
			"-0.018": 0.0,
			"-0.017": 0.0,
			"-0.016": 0.556669112182,
			"-0.015": 4.59917503719,
			"-0.014": 5.13046539361,
			"-0.013": 5.30551164649,
			"-0.012": 5.73264165408,
			"-0.011": 3.85871315927,
			"-0.01": 4.097643382,
			"-0.009": 3.83519347558,
			"-0.008": 3.68754822831,
			"-0.007": 6.94593207953,
			"-0.006": 7.472839684,
			"-0.005": 11.0918669924,
			"-0.004": 9.95970941935,
			"-0.003": 11.2512029669,
			"-0.002": 13.844053475,
			"-0.001": 13.727435161,
			"0.0": 14.9107418713,
			"0.001": 16.1130757908,
			"0.002": 19.1286372977,
			"0.003": 14.2670185569,
			"0.004": 8.74857174674,
			"0.005": 5.93111508002,
			"0.006": 6.25157777422,
			"0.007": 7.27200188376,
			"0.008": 9.66410528019,
			"0.009": 8.44810701703,
			"0.01": 6.70829032163,
			"0.011": 5.98245690172,
			"0.012": 4.02975639983,
			"0.013": 3.34392847008,
			"0.014": 2.36518241934,
			"0.015": 1.51054444984,
			"0.016": 0.586901759942,
			"0.017": 0.0,
			"0.018": 0.0,
			"0.019": 0.0,
			"0.02": 0.0,
			"0.021": 0.0,
			"0.022": 0.0,
			"0.023": 0.0,
			"0.024": 0.0,
			"0.025": 0.0
		}
	}
}
