{
	 "smiles": "CNC(=O)OC1=CC(C)=C(N(CC=C)CC=C)C(C)=C1", 
	 "Tm": 340.15, 
	 "num_atms": 42, 
	 "gaussian": { 
		 "optdone": 1, 
		 "sigma_profile": "yes", 
		 "theory": "DFT", 
		 "functional": "B3LYP", 
		 "basiset": "6-31G**", 
		 "properties": { 
			 "R2extent": 7968.1006, 
			 "electric_dipole_moment_norm": 1.84453279993, 
			 "electric_quadrupole_moment_norm": 20.1214355661, 
			 "total_energy": -882.876631271, 
			 "HOMO_LUMO_gap": 0.21166, 
			 "cosmo_polarized_energy": -12.33, 
			 "cosmo_cavitation_energy": 44.7, 
			 "cosmo_dispersion_energy": -29.68, 
			 "cosmo_repulsion_energy": 2.32, 
			 "cosmo_total_nonelectrostatic_energy": 17.35, 
			 "SMD_solvation_energy": 9.84 
		},
		"coords": [
			{
				"x": 1.6681622733,
				"y": -4.1987843231,
				"z": 5.2050282387,
				"element": "C" 
			},
			{
				"x": 1.3924555907,
				"y": -3.8859737931,
				"z": 3.8170578194,
				"element": "N" 
			},
			{
				"x": 1.094369944,
				"y": -2.6248202714,
				"z": 3.4032105415,
				"element": "C" 
			},
			{
				"x": 0.9918507518,
				"y": -1.6435345719,
				"z": 4.1111303862,
				"element": "O" 
			},
			{
				"x": 0.9257280458,
				"y": -2.650028911,
				"z": 2.0358992344,
				"element": "O" 
			},
			{
				"x": 0.5848481814,
				"y": -1.4939509716,
				"z": 1.337651603,
				"element": "C" 
			},
			{
				"x": -0.3837838087,
				"y": -0.5960860207,
				"z": 1.7733164083,
				"element": "C" 
			},
			{
				"x": -0.7256405681,
				"y": 0.5027483122,
				"z": 0.9763386408,
				"element": "C" 
			},
			{
				"x": -1.7474940359,
				"y": 1.4759399959,
				"z": 1.5255514501,
				"element": "C" 
			},
			{
				"x": -0.0983915017,
				"y": 0.6859459797,
				"z": -0.2786141105,
				"element": "C" 
			},
			{
				"x": -0.4171132541,
				"y": 1.7941475166,
				"z": -1.1435784118,
				"element": "N" 
			},
			{
				"x": -0.1118940406,
				"y": 3.1396729196,
				"z": -0.638830169,
				"element": "C" 
			},
			{
				"x": 0.295903932,
				"y": 4.0723500404,
				"z": -1.7508256874,
				"element": "C" 
			},
			{
				"x": -0.2725351218,
				"y": 5.2538041122,
				"z": -1.9945245491,
				"element": "C" 
			},
			{
				"x": -1.6662521151,
				"y": 1.6836404517,
				"z": -1.9112038715,
				"element": "C" 
			},
			{
				"x": -1.5853575598,
				"y": 0.6951697411,
				"z": -3.0445587216,
				"element": "C" 
			},
			{
				"x": -2.3840607144,
				"y": -0.3631606788,
				"z": -3.1813139761,
				"element": "C" 
			},
			{
				"x": 0.8864326253,
				"y": -0.2322911869,
				"z": -0.7065369306,
				"element": "C" 
			},
			{
				"x": 1.6021812615,
				"y": -0.0749636036,
				"z": -2.026965781,
				"element": "C" 
			},
			{
				"x": 1.2173444409,
				"y": -1.3154431569,
				"z": 0.1135105865,
				"element": "C" 
			},
			{
				"x": 2.706639159,
				"y": -4.5199325341,
				"z": 5.348144383,
				"element": "H" 
			},
			{
				"x": 1.0023933392,
				"y": -4.9877892539,
				"z": 5.5718272232,
				"element": "H" 
			},
			{
				"x": 1.4980404706,
				"y": -3.2928021824,
				"z": 5.7873995957,
				"element": "H" 
			},
			{
				"x": 1.4751925478,
				"y": -4.5973122224,
				"z": 3.1073408465,
				"element": "H" 
			},
			{
				"x": -0.85584779,
				"y": -0.7344410825,
				"z": 2.7374157575,
				"element": "H" 
			},
			{
				"x": -2.3287740026,
				"y": 1.007914961,
				"z": 2.3244332971,
				"element": "H" 
			},
			{
				"x": -2.4465983851,
				"y": 1.8303612054,
				"z": 0.7650584783,
				"element": "H" 
			},
			{
				"x": -1.2631953455,
				"y": 2.360846162,
				"z": 1.9553060017,
				"element": "H" 
			},
			{
				"x": 0.724654402,
				"y": 3.0322763788,
				"z": 0.0623277575,
				"element": "H" 
			},
			{
				"x": -0.9421910006,
				"y": 3.5973147116,
				"z": -0.0750156902,
				"element": "H" 
			},
			{
				"x": 1.1154982273,
				"y": 3.7218953381,
				"z": -2.3776856382,
				"element": "H" 
			},
			{
				"x": 0.069315483,
				"y": 5.9009294532,
				"z": -2.7969816925,
				"element": "H" 
			},
			{
				"x": -1.0990340182,
				"y": 5.6218627778,
				"z": -1.3902626611,
				"element": "H" 
			},
			{
				"x": -2.5329458275,
				"y": 1.4306882374,
				"z": -1.2782162154,
				"element": "H" 
			},
			{
				"x": -1.8599280844,
				"y": 2.6775353182,
				"z": -2.3339519065,
				"element": "H" 
			},
			{
				"x": -0.8210159879,
				"y": 0.9009901459,
				"z": -3.7927821238,
				"element": "H" 
			},
			{
				"x": -2.3067126716,
				"y": -1.0349527197,
				"z": -4.0312783034,
				"element": "H" 
			},
			{
				"x": -3.1491648319,
				"y": -0.5959616735,
				"z": -2.4440746983,
				"element": "H" 
			},
			{
				"x": 1.0084969184,
				"y": -0.4936005707,
				"z": -2.8472417842,
				"element": "H" 
			},
			{
				"x": 2.5626833379,
				"y": -0.5982585851,
				"z": -2.0113468842,
				"element": "H" 
			},
			{
				"x": 1.7718970993,
				"y": 0.9771275951,
				"z": -2.2631042342,
				"element": "H" 
			},
			{
				"x": 1.9739426344,
				"y": -2.0300730406,
				"z": -0.1954542088,
				"element": "H" 
			}
		],
		 "valence_orbital": [ 
			{
				"type": "occ",
				"energy": -0.25724,
				"method": "rhf"
			},
			{
				"type": "occ",
				"energy": -0.25184,
				"method": "rhf"
			},
			{
				"type": "occ",
				"energy": -0.23001,
				"method": "rhf"
			},
			{
				"type": "occ",
				"energy": -0.222,
				"method": "rhf"
			},
			{
				"type": "occ",
				"energy": -0.20753,
				"method": "rhf"
			},
			{
				"type": "unocc",
				"energy": 0.00413,
				"method": "rhf"
			},
			{
				"type": "unocc",
				"energy": 0.00842,
				"method": "rhf"
			},
			{
				"type": "unocc",
				"energy": 0.01435,
				"method": "rhf"
			},
			{
				"type": "unocc",
				"energy": 0.025,
				"method": "rhf"
			},
			{
				"type": "unocc",
				"energy": 0.05986,
				"method": "rhf"
			}
		],
		"cosmo_sigma_profile": { 
			"-0.025": 0.0,
			"-0.024": 0.0,
			"-0.023": 0.0,
			"-0.022": 0.0,
			"-0.021": 0.0,
			"-0.02": 0.0,
			"-0.019": 0.0,
			"-0.018": 0.0,
			"-0.017": 0.0,
			"-0.016": 0.0,
			"-0.015": 0.150854791206,
			"-0.014": 1.01407455265,
			"-0.013": 1.09165518663,
			"-0.012": 0.9882672239,
			"-0.011": 1.04668206251,
			"-0.01": 0.596963509025,
			"-0.009": 1.13321893854,
			"-0.008": 0.949321470308,
			"-0.007": 1.18094910419,
			"-0.006": 1.92551960942,
			"-0.005": 15.3566428772,
			"-0.004": 31.0018072405,
			"-0.003": 40.811474184,
			"-0.002": 44.3392095035,
			"-0.001": 38.3435773913,
			"0.0": 35.9848568984,
			"0.001": 31.1447969134,
			"0.002": 21.1057691214,
			"0.003": 19.7581667167,
			"0.004": 16.9698653005,
			"0.005": 16.6616097783,
			"0.006": 11.5270419794,
			"0.007": 4.62200999495,
			"0.008": 1.28075707919,
			"0.009": 1.9360256686,
			"0.01": 1.93707258332,
			"0.011": 1.60885012507,
			"0.012": 3.23048372772,
			"0.013": 4.26816322925,
			"0.014": 0.123959020886,
			"0.015": 0.0,
			"0.016": 0.0,
			"0.017": 0.0,
			"0.018": 0.0,
			"0.019": 0.0,
			"0.02": 0.0,
			"0.021": 0.0,
			"0.022": 0.0,
			"0.023": 0.0,
			"0.024": 0.0,
			"0.025": 0.0
		}
	}
}
