{
	 "smiles": "CC1(O)C2CC3CC(C2)CC1C3", 
	 "Tm": 489.15, 
	 "num_atms": 30, 
	 "gaussian": { 
		 "optdone": 1, 
		 "sigma_profile": "yes", 
		 "theory": "DFT", 
		 "functional": "B3LYP", 
		 "basiset": "6-31G**", 
		 "properties": { 
			 "R2extent": 1689.0328, 
			 "electric_dipole_moment_norm": 1.31265357197, 
			 "electric_quadrupole_moment_norm": 5.32062676853, 
			 "total_energy": -505.270355437, 
			 "HOMO_LUMO_gap": 0.31783, 
			 "cosmo_polarized_energy": -5.07, 
			 "cosmo_cavitation_energy": 26.37, 
			 "cosmo_dispersion_energy": -20.42, 
			 "cosmo_repulsion_energy": 1.57, 
			 "cosmo_total_nonelectrostatic_energy": 7.51, 
			 "SMD_solvation_energy": 3.3 
		},
		"coords": [
			{
				"x": 2.1565206617,
				"y": -1.3764343361,
				"z": -1.4694595025,
				"element": "C" 
			},
			{
				"x": 0.7456704977,
				"y": -0.8949632305,
				"z": -1.100384127,
				"element": "C" 
			},
			{
				"x": -0.1708634123,
				"y": -1.5061029501,
				"z": -2.0268602993,
				"element": "O" 
			},
			{
				"x": 0.6053269066,
				"y": 0.6543332189,
				"z": -1.1477941601,
				"element": "C" 
			},
			{
				"x": 1.4725932832,
				"y": 1.3167008584,
				"z": -0.05309673,
				"element": "C" 
			},
			{
				"x": 1.0208971847,
				"y": 0.8199440678,
				"z": 1.3363665742,
				"element": "C" 
			},
			{
				"x": -0.4563582078,
				"y": 1.2052326896,
				"z": 1.5599353328,
				"element": "C" 
			},
			{
				"x": -1.3301753435,
				"y": 0.5527067822,
				"z": 0.4688044627,
				"element": "C" 
			},
			{
				"x": -0.8714100876,
				"y": 1.0460415566,
				"z": -0.9198159409,
				"element": "C" 
			},
			{
				"x": -1.1798651413,
				"y": -0.9816432166,
				"z": 0.5389568896,
				"element": "C" 
			},
			{
				"x": 0.2970004762,
				"y": -1.3720574693,
				"z": 0.3053989402,
				"element": "C" 
			},
			{
				"x": 1.1645545867,
				"y": -0.7153777654,
				"z": 1.4021998586,
				"element": "C" 
			},
			{
				"x": 2.9345390179,
				"y": -1.0118638777,
				"z": -0.7954905026,
				"element": "H" 
			},
			{
				"x": 2.4171226502,
				"y": -1.0370758705,
				"z": -2.4803185158,
				"element": "H" 
			},
			{
				"x": 2.1816268702,
				"y": -2.4703537112,
				"z": -1.4643105452,
				"element": "H" 
			},
			{
				"x": 0.0813529125,
				"y": -1.2186939455,
				"z": -2.915006278,
				"element": "H" 
			},
			{
				"x": 0.9334235475,
				"y": 1.0042555985,
				"z": -2.1385069579,
				"element": "H" 
			},
			{
				"x": 2.5364348508,
				"y": 1.1022406889,
				"z": -0.2080403741,
				"element": "H" 
			},
			{
				"x": 1.3636017201,
				"y": 2.4073694698,
				"z": -0.1150836226,
				"element": "H" 
			},
			{
				"x": 1.6458646972,
				"y": 1.2812733723,
				"z": 2.1117570158,
				"element": "H" 
			},
			{
				"x": -0.5682646643,
				"y": 2.2975151508,
				"z": 1.5330263942,
				"element": "H" 
			},
			{
				"x": -0.7845767264,
				"y": 0.8752278133,
				"z": 2.5546095625,
				"element": "H" 
			},
			{
				"x": -2.3814803092,
				"y": 0.8264282947,
				"z": 0.6253004356,
				"element": "H" 
			},
			{
				"x": -0.9760848133,
				"y": 2.1369389037,
				"z": -0.9878861028,
				"element": "H" 
			},
			{
				"x": -1.4993156313,
				"y": 0.6062824035,
				"z": -1.7004955796,
				"element": "H" 
			},
			{
				"x": -1.5000721938,
				"y": -1.3457434182,
				"z": 1.5242004169,
				"element": "H" 
			},
			{
				"x": -1.8141424102,
				"y": -1.4619112289,
				"z": -0.2109305506,
				"element": "H" 
			},
			{
				"x": 0.400809784,
				"y": -2.4637785614,
				"z": 0.3447213211,
				"element": "H" 
			},
			{
				"x": 2.2172884036,
				"y": -1.004221693,
				"z": 1.3012553723,
				"element": "H" 
			},
			{
				"x": 0.8366808899,
				"y": -1.0794695944,
				"z": 2.3844472124,
				"element": "H" 
			}
		],
		 "valence_orbital": [ 
			{
				"type": "occ",
				"energy": -0.30736,
				"method": "rhf"
			},
			{
				"type": "occ",
				"energy": -0.2819,
				"method": "rhf"
			},
			{
				"type": "occ",
				"energy": -0.27703,
				"method": "rhf"
			},
			{
				"type": "occ",
				"energy": -0.27083,
				"method": "rhf"
			},
			{
				"type": "occ",
				"energy": -0.25339,
				"method": "rhf"
			},
			{
				"type": "unocc",
				"energy": 0.06444,
				"method": "rhf"
			},
			{
				"type": "unocc",
				"energy": 0.09278,
				"method": "rhf"
			},
			{
				"type": "unocc",
				"energy": 0.11604,
				"method": "rhf"
			},
			{
				"type": "unocc",
				"energy": 0.12248,
				"method": "rhf"
			},
			{
				"type": "unocc",
				"energy": 0.12717,
				"method": "rhf"
			}
		],
		"cosmo_sigma_profile": { 
			"-0.025": 0.0,
			"-0.024": 0.0,
			"-0.023": 0.0,
			"-0.022": 0.0,
			"-0.021": 0.0,
			"-0.02": 0.0,
			"-0.019": 0.0,
			"-0.018": 0.0,
			"-0.017": 0.0,
			"-0.016": 0.0,
			"-0.015": 0.000703665455572,
			"-0.014": 0.848842908242,
			"-0.013": 0.553355053698,
			"-0.012": 1.06010225463,
			"-0.011": 0.796314616576,
			"-0.01": 0.686929449435,
			"-0.009": 1.28470133407,
			"-0.008": 1.25220439813,
			"-0.007": 0.984738284805,
			"-0.006": 1.50989035653,
			"-0.005": 0.94979525707,
			"-0.004": 3.17549073819,
			"-0.003": 8.1128269404,
			"-0.002": 21.9882016141,
			"-0.001": 41.4263512421,
			"0.0": 41.5854056864,
			"0.001": 39.9869233166,
			"0.002": 17.1146759611,
			"0.003": 2.70973457475,
			"0.004": 1.7709464049,
			"0.005": 1.09533625341,
			"0.006": 1.14936871742,
			"0.007": 1.80182733343,
			"0.008": 1.5898986009,
			"0.009": 0.971811431104,
			"0.01": 0.960266477725,
			"0.011": 1.78395642204,
			"0.012": 0.918099817,
			"0.013": 1.30417891409,
			"0.014": 0.762671000751,
			"0.015": 0.614146744264,
			"0.016": 0.0291982177872,
			"0.017": 0.0,
			"0.018": 0.0,
			"0.019": 0.0,
			"0.02": 0.0,
			"0.021": 0.0,
			"0.022": 0.0,
			"0.023": 0.0,
			"0.024": 0.0,
			"0.025": 0.0
		}
	}
}
