{
	 "smiles": "OCCN(CCO)C1=CC=CC=C1", 
	 "Tm": 330.15, 
	 "num_atms": 28, 
	 "gaussian": { 
		 "optdone": 1, 
		 "sigma_profile": "yes", 
		 "theory": "DFT", 
		 "functional": "B3LYP", 
		 "basiset": "6-31G**", 
		 "properties": { 
			 "R2extent": 4406.0491, 
			 "electric_dipole_moment_norm": 3.07573378887, 
			 "electric_quadrupole_moment_norm": 6.82606603469, 
			 "total_energy": -595.266509571, 
			 "HOMO_LUMO_gap": 0.19519, 
			 "cosmo_polarized_energy": -13.38, 
			 "cosmo_cavitation_energy": 29.49, 
			 "cosmo_dispersion_energy": -21.63, 
			 "cosmo_repulsion_energy": 1.74, 
			 "cosmo_total_nonelectrostatic_energy": 9.61, 
			 "SMD_solvation_energy": 4.08 
		},
		"coords": [
			{
				"x": 0.5716157776,
				"y": -0.660448481,
				"z": -2.0961081127,
				"element": "O" 
			},
			{
				"x": 0.4396321559,
				"y": -1.4057022782,
				"z": -0.8895494569,
				"element": "C" 
			},
			{
				"x": 0.2696485653,
				"y": -0.4133023585,
				"z": 0.2617813321,
				"element": "C" 
			},
			{
				"x": 1.4503989838,
				"y": 0.387615994,
				"z": 0.570847137,
				"element": "N" 
			},
			{
				"x": 1.7168500809,
				"y": 1.5808645865,
				"z": -0.234682742,
				"element": "C" 
			},
			{
				"x": 0.4715412184,
				"y": 2.3471458366,
				"z": -0.6741551704,
				"element": "C" 
			},
			{
				"x": 0.9502977692,
				"y": 3.5904924842,
				"z": -1.1772617197,
				"element": "O" 
			},
			{
				"x": 2.5434647053,
				"y": -0.2332724837,
				"z": 1.1931039698,
				"element": "C" 
			},
			{
				"x": 3.8467790925,
				"y": 0.3093141955,
				"z": 1.1110355771,
				"element": "C" 
			},
			{
				"x": 4.9186006301,
				"y": -0.2829446699,
				"z": 1.7769259932,
				"element": "C" 
			},
			{
				"x": 4.7494867995,
				"y": -1.4400857892,
				"z": 2.5355391866,
				"element": "C" 
			},
			{
				"x": 3.4726246383,
				"y": -1.9978351931,
				"z": 2.6111493345,
				"element": "C" 
			},
			{
				"x": 2.3912758649,
				"y": -1.4168291738,
				"z": 1.9542672618,
				"element": "C" 
			},
			{
				"x": 0.9005506973,
				"y": -1.248352623,
				"z": -2.7862982057,
				"element": "H" 
			},
			{
				"x": -0.4430149694,
				"y": -2.066404381,
				"z": -0.9246177044,
				"element": "H" 
			},
			{
				"x": 1.3228523806,
				"y": -2.0329598481,
				"z": -0.7049074354,
				"element": "H" 
			},
			{
				"x": -0.0490719646,
				"y": -0.9573607057,
				"z": 1.1553481211,
				"element": "H" 
			},
			{
				"x": -0.5580012779,
				"y": 0.2560720693,
				"z": 0.0187204286,
				"element": "H" 
			},
			{
				"x": 2.3104739734,
				"y": 1.3494884208,
				"z": -1.131037991,
				"element": "H" 
			},
			{
				"x": 2.2986262809,
				"y": 2.2808134616,
				"z": 0.3733702648,
				"element": "H" 
			},
			{
				"x": -0.0701336902,
				"y": 1.7893231293,
				"z": -1.448256964,
				"element": "H" 
			},
			{
				"x": -0.2002483647,
				"y": 2.4959361009,
				"z": 0.1872934483,
				"element": "H" 
			},
			{
				"x": 0.2195235554,
				"y": 4.0297594106,
				"z": -1.6278497064,
				"element": "H" 
			},
			{
				"x": 4.0365295614,
				"y": 1.1945352054,
				"z": 0.5187161894,
				"element": "H" 
			},
			{
				"x": 5.9024326916,
				"y": 0.1705804041,
				"z": 1.6878660746,
				"element": "H" 
			},
			{
				"x": 5.5889864321,
				"y": -1.8986960423,
				"z": 3.0484152611,
				"element": "H" 
			},
			{
				"x": 3.3070189837,
				"y": -2.9025888343,
				"z": 3.1904983192,
				"element": "H" 
			},
			{
				"x": 1.4217594287,
				"y": -1.889458437,
				"z": 2.0524473095,
				"element": "H" 
			}
		],
		 "valence_orbital": [ 
			{
				"type": "occ",
				"energy": -0.28069,
				"method": "rhf"
			},
			{
				"type": "occ",
				"energy": -0.26843,
				"method": "rhf"
			},
			{
				"type": "occ",
				"energy": -0.26437,
				"method": "rhf"
			},
			{
				"type": "occ",
				"energy": -0.23662,
				"method": "rhf"
			},
			{
				"type": "occ",
				"energy": -0.18381,
				"method": "rhf"
			},
			{
				"type": "unocc",
				"energy": 0.01138,
				"method": "rhf"
			},
			{
				"type": "unocc",
				"energy": 0.02514,
				"method": "rhf"
			},
			{
				"type": "unocc",
				"energy": 0.06762,
				"method": "rhf"
			},
			{
				"type": "unocc",
				"energy": 0.07654,
				"method": "rhf"
			},
			{
				"type": "unocc",
				"energy": 0.09579,
				"method": "rhf"
			}
		],
		"cosmo_sigma_profile": { 
			"-0.025": 0.0,
			"-0.024": 0.0,
			"-0.023": 0.0,
			"-0.022": 0.0,
			"-0.021": 0.0,
			"-0.02": 0.0,
			"-0.019": 0.0,
			"-0.018": 0.0,
			"-0.017": 0.0,
			"-0.016": 0.881876218867,
			"-0.015": 2.20790977185,
			"-0.014": 2.28623976619,
			"-0.013": 1.16251631227,
			"-0.012": 2.22836360916,
			"-0.011": 1.45756267966,
			"-0.01": 1.72659203143,
			"-0.009": 1.74989548236,
			"-0.008": 1.92549808548,
			"-0.007": 2.93288155817,
			"-0.006": 4.98156923857,
			"-0.005": 13.1665371737,
			"-0.004": 19.7232420162,
			"-0.003": 27.7402989392,
			"-0.002": 23.34849803,
			"-0.001": 13.96427995,
			"0.0": 12.4009624445,
			"0.001": 10.2029132975,
			"0.002": 9.36368754489,
			"0.003": 10.874083413,
			"0.004": 11.4429260926,
			"0.005": 10.862097888,
			"0.006": 11.7629414497,
			"0.007": 12.2303104925,
			"0.008": 6.75039168217,
			"0.009": 3.04192753849,
			"0.01": 2.32512569462,
			"0.011": 2.15637672033,
			"0.012": 1.67999563191,
			"0.013": 2.09885896143,
			"0.014": 2.0160699606,
			"0.015": 0.0998082914651,
			"0.016": 0.0,
			"0.017": 0.0,
			"0.018": 0.0,
			"0.019": 0.0,
			"0.02": 0.0,
			"0.021": 0.0,
			"0.022": 0.0,
			"0.023": 0.0,
			"0.024": 0.0,
			"0.025": 0.0
		}
	}
}
