{
	 "smiles": "CC(C)N1N=C(C)C(NC(=O)OCC(F)(F)F)=C1C", 
	 "Tm": 459.15, 
	 "num_atms": 35, 
	 "gaussian": { 
		 "optdone": 1, 
		 "sigma_profile": "yes", 
		 "theory": "DFT", 
		 "functional": "B3LYP", 
		 "basiset": "6-31G**", 
		 "properties": { 
			 "R2extent": 7712.8119, 
			 "electric_dipole_moment_norm": 4.67336679173, 
			 "electric_quadrupole_moment_norm": 11.8303455875, 
			 "total_energy": -1043.06426138, 
			 "HOMO_LUMO_gap": 0.2475, 
			 "cosmo_polarized_energy": -14.37, 
			 "cosmo_cavitation_energy": 39.62, 
			 "cosmo_dispersion_energy": -26.07, 
			 "cosmo_repulsion_energy": 1.99, 
			 "cosmo_total_nonelectrostatic_energy": 15.54, 
			 "SMD_solvation_energy": 8.42 
		},
		"coords": [
			{
				"x": 1.1165113722,
				"y": -2.7212553724,
				"z": 3.0011121412,
				"element": "C" 
			},
			{
				"x": 0.9424948056,
				"y": -1.3153792693,
				"z": 2.4150795522,
				"element": "C" 
			},
			{
				"x": 0.1656789714,
				"y": -0.3707155729,
				"z": 3.3419885503,
				"element": "C" 
			},
			{
				"x": 0.3740272422,
				"y": -1.335005237,
				"z": 1.0574260089,
				"element": "N" 
			},
			{
				"x": 1.0708160557,
				"y": -0.6707115555,
				"z": 0.0926530883,
				"element": "N" 
			},
			{
				"x": 0.3563917231,
				"y": -0.7836662468,
				"z": -1.0227291357,
				"element": "C" 
			},
			{
				"x": 0.8109693188,
				"y": -0.1608847862,
				"z": -2.304952325,
				"element": "C" 
			},
			{
				"x": -0.8268325053,
				"y": -1.5214166663,
				"z": -0.7672344083,
				"element": "C" 
			},
			{
				"x": -1.8324020983,
				"y": -1.9065078353,
				"z": -1.68716885,
				"element": "N" 
			},
			{
				"x": -2.7196835114,
				"y": -1.0925907272,
				"z": -2.3323194771,
				"element": "C" 
			},
			{
				"x": -3.5192110036,
				"y": -1.4695006558,
				"z": -3.1664137475,
				"element": "O" 
			},
			{
				"x": -2.6037615704,
				"y": 0.203198482,
				"z": -1.8980733374,
				"element": "O" 
			},
			{
				"x": -3.4113625857,
				"y": 1.1510892398,
				"z": -2.5798109021,
				"element": "C" 
			},
			{
				"x": -2.5628321508,
				"y": 1.9312760336,
				"z": -3.5696229891,
				"element": "C" 
			},
			{
				"x": -3.3330206188,
				"y": 2.834080982,
				"z": -4.2122301434,
				"element": "F" 
			},
			{
				"x": -2.0000499173,
				"y": 1.1243840281,
				"z": -4.4875117737,
				"element": "F" 
			},
			{
				"x": -1.5655553973,
				"y": 2.6030442275,
				"z": -2.955537349,
				"element": "F" 
			},
			{
				"x": -0.793042253,
				"y": -1.8570277504,
				"z": 0.5820414924,
				"element": "C" 
			},
			{
				"x": -1.8015209432,
				"y": -2.6397266361,
				"z": 1.3613961986,
				"element": "C" 
			},
			{
				"x": 1.6479487032,
				"y": -3.3723846805,
				"z": 2.3013025079,
				"element": "H" 
			},
			{
				"x": 0.1599688509,
				"y": -3.1875347194,
				"z": 3.2528659498,
				"element": "H" 
			},
			{
				"x": 1.7035625712,
				"y": -2.6603872143,
				"z": 3.9228107394,
				"element": "H" 
			},
			{
				"x": 1.9342066995,
				"y": -0.8882575879,
				"z": 2.2460885101,
				"element": "H" 
			},
			{
				"x": 0.076452499,
				"y": 0.6202606521,
				"z": 2.8891049181,
				"element": "H" 
			},
			{
				"x": -0.8401836436,
				"y": -0.7440461602,
				"z": 3.5584195707,
				"element": "H" 
			},
			{
				"x": 0.693448355,
				"y": -0.2677304464,
				"z": 4.2956152702,
				"element": "H" 
			},
			{
				"x": 0.7289537888,
				"y": -0.8650873794,
				"z": -3.1398741319,
				"element": "H" 
			},
			{
				"x": 0.2046897946,
				"y": 0.7148102853,
				"z": -2.556796586,
				"element": "H" 
			},
			{
				"x": 1.8524458586,
				"y": 0.1550421632,
				"z": -2.2139906312,
				"element": "H" 
			},
			{
				"x": -1.8780575908,
				"y": -2.8629728632,
				"z": -2.0109060149,
				"element": "H" 
			},
			{
				"x": -3.8110937635,
				"y": 1.846550173,
				"z": -1.8388688529,
				"element": "H" 
			},
			{
				"x": -4.2194516153,
				"y": 0.6548578363,
				"z": -3.1205148464,
				"element": "H" 
			},
			{
				"x": -2.0808317125,
				"y": -2.1470507316,
				"z": 2.29732711,
				"element": "H" 
			},
			{
				"x": -1.449390672,
				"y": -3.6474477907,
				"z": 1.6095244411,
				"element": "H" 
			},
			{
				"x": -2.7058830573,
				"y": -2.7441062179,
				"z": 0.7563994525,
				"element": "H" 
			}
		],
		 "valence_orbital": [ 
			{
				"type": "occ",
				"energy": -0.29583,
				"method": "rhf"
			},
			{
				"type": "occ",
				"energy": -0.28356,
				"method": "rhf"
			},
			{
				"type": "occ",
				"energy": -0.26605,
				"method": "rhf"
			},
			{
				"type": "occ",
				"energy": -0.23517,
				"method": "rhf"
			},
			{
				"type": "occ",
				"energy": -0.22968,
				"method": "rhf"
			},
			{
				"type": "unocc",
				"energy": 0.01782,
				"method": "rhf"
			},
			{
				"type": "unocc",
				"energy": 0.04508,
				"method": "rhf"
			},
			{
				"type": "unocc",
				"energy": 0.06213,
				"method": "rhf"
			},
			{
				"type": "unocc",
				"energy": 0.0696,
				"method": "rhf"
			},
			{
				"type": "unocc",
				"energy": 0.08577,
				"method": "rhf"
			}
		],
		"cosmo_sigma_profile": { 
			"-0.025": 0.0,
			"-0.024": 0.0,
			"-0.023": 0.0,
			"-0.022": 0.0,
			"-0.021": 0.0,
			"-0.02": 0.0,
			"-0.019": 0.0,
			"-0.018": 0.0,
			"-0.017": 0.0,
			"-0.016": 0.0,
			"-0.015": 0.582637808801,
			"-0.014": 0.984878633284,
			"-0.013": 1.01251015818,
			"-0.012": 0.650890909221,
			"-0.011": 0.714642421739,
			"-0.01": 1.34577730945,
			"-0.009": 3.47445703174,
			"-0.008": 4.20451836796,
			"-0.007": 4.47741655411,
			"-0.006": 6.31902338462,
			"-0.005": 12.4143569446,
			"-0.004": 26.1883747784,
			"-0.003": 26.6883189406,
			"-0.002": 29.4421055682,
			"-0.001": 35.6570397831,
			"0.0": 35.8361754054,
			"0.001": 21.2367919216,
			"0.002": 28.7676460145,
			"0.003": 24.0629685344,
			"0.004": 8.70482465411,
			"0.005": 5.873064476,
			"0.006": 5.87983871007,
			"0.007": 3.65777184621,
			"0.008": 4.20625535093,
			"0.009": 2.92508002294,
			"0.01": 3.15114232819,
			"0.011": 3.18642078543,
			"0.012": 5.21946439914,
			"0.013": 3.06649486992,
			"0.014": 0.852282531292,
			"0.015": 1.0462533544,
			"0.016": 0.479490954869,
			"0.017": 0.000446388630746,
			"0.018": 0.0,
			"0.019": 0.0,
			"0.02": 0.0,
			"0.021": 0.0,
			"0.022": 0.0,
			"0.023": 0.0,
			"0.024": 0.0,
			"0.025": 0.0
		}
	}
}
