{
	 "smiles": "CC(=O)N1CCN(CC1)C1=C(C=O)C=CC=C1", 
	 "Tm": 360.15, 
	 "num_atms": 33, 
	 "gaussian": { 
		 "optdone": 1, 
		 "sigma_profile": "yes", 
		 "theory": "DFT", 
		 "functional": "B3LYP", 
		 "basiset": "6-31G**", 
		 "properties": { 
			 "R2extent": 5706.1795, 
			 "electric_dipole_moment_norm": 4.29185365198, 
			 "electric_quadrupole_moment_norm": 16.3857017897, 
			 "total_energy": -764.969670132, 
			 "HOMO_LUMO_gap": 0.15334, 
			 "cosmo_polarized_energy": -16.5, 
			 "cosmo_cavitation_energy": 34.49, 
			 "cosmo_dispersion_energy": -24.98, 
			 "cosmo_repulsion_energy": 1.91, 
			 "cosmo_total_nonelectrostatic_energy": 11.42, 
			 "SMD_solvation_energy": 5.72 
		},
		"coords": [
			{
				"x": 1.4838566414,
				"y": -2.8461073105,
				"z": 2.0437926098,
				"element": "C" 
			},
			{
				"x": 0.9098524902,
				"y": -1.6137344909,
				"z": 2.7279677526,
				"element": "C" 
			},
			{
				"x": 0.8450966719,
				"y": -1.5293264374,
				"z": 3.9505412469,
				"element": "O" 
			},
			{
				"x": 0.4744680919,
				"y": -0.5961159219,
				"z": 1.9115327279,
				"element": "N" 
			},
			{
				"x": -0.147687353,
				"y": 0.5781306319,
				"z": 2.5257541867,
				"element": "C" 
			},
			{
				"x": -1.2937905689,
				"y": 1.0825873661,
				"z": 1.6548238151,
				"element": "C" 
			},
			{
				"x": -0.798785034,
				"y": 1.478009027,
				"z": 0.3334797181,
				"element": "N" 
			},
			{
				"x": 0.3938781531,
				"y": 0.7627923638,
				"z": -0.1358244879,
				"element": "C" 
			},
			{
				"x": 0.4601886433,
				"y": -0.6508496593,
				"z": 0.4496898187,
				"element": "C" 
			},
			{
				"x": -1.6247005235,
				"y": 2.1725566708,
				"z": -0.5290635613,
				"element": "C" 
			},
			{
				"x": -1.134050146,
				"y": 2.8903435443,
				"z": -1.6691165362,
				"element": "C" 
			},
			{
				"x": 0.2608516164,
				"y": 3.3140652183,
				"z": -1.8816274649,
				"element": "C" 
			},
			{
				"x": 1.1980944949,
				"y": 3.2311521541,
				"z": -1.1033234522,
				"element": "O" 
			},
			{
				"x": -2.0555973526,
				"y": 3.4437065148,
				"z": -2.5814870644,
				"element": "C" 
			},
			{
				"x": -3.4247811299,
				"y": 3.3961744476,
				"z": -2.3769141855,
				"element": "C" 
			},
			{
				"x": -3.8958198492,
				"y": 2.7880282435,
				"z": -1.207481396,
				"element": "C" 
			},
			{
				"x": -3.0235103288,
				"y": 2.1937197841,
				"z": -0.3055947604,
				"element": "C" 
			},
			{
				"x": 0.7911997801,
				"y": -3.2742460025,
				"z": 1.3118284668,
				"element": "H" 
			},
			{
				"x": 2.4167730561,
				"y": -2.6109157389,
				"z": 1.5192892124,
				"element": "H" 
			},
			{
				"x": 1.6932389884,
				"y": -3.5840786843,
				"z": 2.8174601371,
				"element": "H" 
			},
			{
				"x": 0.5895541937,
				"y": 1.378335951,
				"z": 2.6739186124,
				"element": "H" 
			},
			{
				"x": -0.5148292001,
				"y": 0.2831635228,
				"z": 3.5101292863,
				"element": "H" 
			},
			{
				"x": -2.0625585326,
				"y": 0.2954383559,
				"z": 1.5875319091,
				"element": "H" 
			},
			{
				"x": -1.7555145257,
				"y": 1.9505699316,
				"z": 2.1372419349,
				"element": "H" 
			},
			{
				"x": 0.348288523,
				"y": 0.6819749673,
				"z": -1.2246856931,
				"element": "H" 
			},
			{
				"x": 1.3046213882,
				"y": 1.3186956186,
				"z": 0.1021751047,
				"element": "H" 
			},
			{
				"x": 1.3752301509,
				"y": -1.1232049003,
				"z": 0.0811634644,
				"element": "H" 
			},
			{
				"x": -0.3885304513,
				"y": -1.2475784607,
				"z": 0.0810830452,
				"element": "H" 
			},
			{
				"x": 0.4039897281,
				"y": 3.8226665557,
				"z": -2.8618992928,
				"element": "H" 
			},
			{
				"x": -1.6568510445,
				"y": 3.9656184582,
				"z": -3.4487511893,
				"element": "H" 
			},
			{
				"x": -4.1113827552,
				"y": 3.8409802653,
				"z": -3.0893427015,
				"element": "H" 
			},
			{
				"x": -4.9629756379,
				"y": 2.7541148167,
				"z": -1.0047921957,
				"element": "H" 
			},
			{
				"x": -3.4368181781,
				"y": 1.6941331973,
				"z": 0.5615009318,
				"element": "H" 
			}
		],
		 "valence_orbital": [ 
			{
				"type": "occ",
				"energy": -0.26195,
				"method": "rhf"
			},
			{
				"type": "occ",
				"energy": -0.24758,
				"method": "rhf"
			},
			{
				"type": "occ",
				"energy": -0.24423,
				"method": "rhf"
			},
			{
				"type": "occ",
				"energy": -0.23774,
				"method": "rhf"
			},
			{
				"type": "occ",
				"energy": -0.2078,
				"method": "rhf"
			},
			{
				"type": "unocc",
				"energy": -0.05446,
				"method": "rhf"
			},
			{
				"type": "unocc",
				"energy": -0.00357,
				"method": "rhf"
			},
			{
				"type": "unocc",
				"energy": 0.02897,
				"method": "rhf"
			},
			{
				"type": "unocc",
				"energy": 0.04019,
				"method": "rhf"
			},
			{
				"type": "unocc",
				"energy": 0.06901,
				"method": "rhf"
			}
		],
		"cosmo_sigma_profile": { 
			"-0.025": 0.0,
			"-0.024": 0.0,
			"-0.023": 0.0,
			"-0.022": 0.0,
			"-0.021": 0.0,
			"-0.02": 0.0,
			"-0.019": 0.0,
			"-0.018": 0.0,
			"-0.017": 0.0,
			"-0.016": 0.0,
			"-0.015": 0.0,
			"-0.014": 0.0,
			"-0.013": 0.0,
			"-0.012": 0.0,
			"-0.011": 0.0,
			"-0.01": 0.0,
			"-0.009": 0.0,
			"-0.008": 0.0,
			"-0.007": 3.67162703006,
			"-0.006": 17.5938127681,
			"-0.005": 33.9226038336,
			"-0.004": 38.3512373976,
			"-0.003": 29.1615539659,
			"-0.002": 18.9922919614,
			"-0.001": 18.4068349804,
			"0.0": 15.3395586134,
			"0.001": 11.0431692844,
			"0.002": 10.4822974375,
			"0.003": 11.7584849775,
			"0.004": 12.9998653021,
			"0.005": 11.2595383152,
			"0.006": 4.11990127926,
			"0.007": 2.84921512412,
			"0.008": 3.19637985709,
			"0.009": 3.61055870673,
			"0.01": 2.71487990998,
			"0.011": 4.27176217023,
			"0.012": 5.7607099077,
			"0.013": 4.20546943708,
			"0.014": 5.86816816705,
			"0.015": 2.38911538944,
			"0.016": 0.147385759227,
			"0.017": 0.0,
			"0.018": 0.0,
			"0.019": 0.0,
			"0.02": 0.0,
			"0.021": 0.0,
			"0.022": 0.0,
			"0.023": 0.0,
			"0.024": 0.0,
			"0.025": 0.0
		}
	}
}
