{
	 "smiles": "OC(=O)CN1C=CC=C(C1=O)C(F)(F)F", 
	 "Tm": 473.15, 
	 "num_atms": 21, 
	 "gaussian": { 
		 "optdone": 1, 
		 "sigma_profile": "yes", 
		 "theory": "DFT", 
		 "functional": "B3LYP", 
		 "basiset": "6-31G**", 
		 "properties": { 
			 "R2extent": 3277.1987, 
			 "electric_dipole_moment_norm": 6.05394640627, 
			 "electric_quadrupole_moment_norm": 18.7129327194, 
			 "total_energy": -888.430093332, 
			 "HOMO_LUMO_gap": 0.17589, 
			 "cosmo_polarized_energy": -17.93, 
			 "cosmo_cavitation_energy": 27.08, 
			 "cosmo_dispersion_energy": -19.28, 
			 "cosmo_repulsion_energy": 1.43, 
			 "cosmo_total_nonelectrostatic_energy": 9.23, 
			 "SMD_solvation_energy": 7.63 
		},
		"coords": [
			{
				"x": 1.3647758543,
				"y": 1.4466401233,
				"z": -2.6217823922,
				"element": "O" 
			},
			{
				"x": 1.4353828643,
				"y": 2.5531611575,
				"z": -1.8815762664,
				"element": "C" 
			},
			{
				"x": 2.3066617424,
				"y": 3.3810749252,
				"z": -2.0043845211,
				"element": "O" 
			},
			{
				"x": 0.3001639634,
				"y": 2.738850504,
				"z": -0.8501144066,
				"element": "C" 
			},
			{
				"x": 0.277575791,
				"y": 1.7062110467,
				"z": 0.2029623838,
				"element": "N" 
			},
			{
				"x": 0.7609027163,
				"y": 1.9860060904,
				"z": 1.449527186,
				"element": "C" 
			},
			{
				"x": 0.6937553954,
				"y": 1.0706113515,
				"z": 2.4620023543,
				"element": "C" 
			},
			{
				"x": 0.096718463,
				"y": -0.1847023706,
				"z": 2.1975465444,
				"element": "C" 
			},
			{
				"x": -0.3839622207,
				"y": -0.4846309555,
				"z": 0.9483964521,
				"element": "C" 
			},
			{
				"x": -0.2760063977,
				"y": 0.4573786803,
				"z": -0.1409484131,
				"element": "C" 
			},
			{
				"x": -0.625979412,
				"y": 0.2478051575,
				"z": -1.3149820187,
				"element": "O" 
			},
			{
				"x": -1.0140592653,
				"y": -1.8204044152,
				"z": 0.6471736147,
				"element": "C" 
			},
			{
				"x": -1.0591788861,
				"y": -2.591292001,
				"z": 1.7605790169,
				"element": "F" 
			},
			{
				"x": -2.277344541,
				"y": -1.6853846182,
				"z": 0.2026365735,
				"element": "F" 
			},
			{
				"x": -0.3224917936,
				"y": -2.502288998,
				"z": -0.2836928,
				"element": "F" 
			},
			{
				"x": 0.5760303664,
				"y": 0.9119198849,
				"z": -2.3492338641,
				"element": "H" 
			},
			{
				"x": 0.4390361218,
				"y": 3.7099293281,
				"z": -0.3787019915,
				"element": "H" 
			},
			{
				"x": -0.6670462535,
				"y": 2.7079522358,
				"z": -1.3600808271,
				"element": "H" 
			},
			{
				"x": 1.1913353788,
				"y": 2.9726109158,
				"z": 1.5760505071,
				"element": "H" 
			},
			{
				"x": 1.0841187274,
				"y": 1.315947533,
				"z": 3.4411609028,
				"element": "H" 
			},
			{
				"x": 0.0175113855,
				"y": -0.9252955754,
				"z": 2.9857619651,
				"element": "H" 
			}
		],
		 "valence_orbital": [ 
			{
				"type": "occ",
				"energy": -0.34011,
				"method": "rhf"
			},
			{
				"type": "occ",
				"energy": -0.31354,
				"method": "rhf"
			},
			{
				"type": "occ",
				"energy": -0.29831,
				"method": "rhf"
			},
			{
				"type": "occ",
				"energy": -0.27617,
				"method": "rhf"
			},
			{
				"type": "occ",
				"energy": -0.25772,
				"method": "rhf"
			},
			{
				"type": "unocc",
				"energy": -0.08183,
				"method": "rhf"
			},
			{
				"type": "unocc",
				"energy": -0.03155,
				"method": "rhf"
			},
			{
				"type": "unocc",
				"energy": -0.00385,
				"method": "rhf"
			},
			{
				"type": "unocc",
				"energy": 0.0593,
				"method": "rhf"
			},
			{
				"type": "unocc",
				"energy": 0.07521,
				"method": "rhf"
			}
		],
		"cosmo_sigma_profile": { 
			"-0.025": 0.0,
			"-0.024": 0.0,
			"-0.023": 0.0,
			"-0.022": 0.0,
			"-0.021": 0.0,
			"-0.02": 0.0,
			"-0.019": 0.0,
			"-0.018": 0.0,
			"-0.017": 0.0,
			"-0.016": 0.0,
			"-0.015": 0.0,
			"-0.014": 0.0,
			"-0.013": 0.178087710384,
			"-0.012": 1.38719873741,
			"-0.011": 2.81899828312,
			"-0.01": 3.45889315077,
			"-0.009": 6.57023465073,
			"-0.008": 9.75456284495,
			"-0.007": 10.8183649557,
			"-0.006": 12.2870662592,
			"-0.005": 10.8541946347,
			"-0.004": 11.1487118307,
			"-0.003": 11.5402031355,
			"-0.002": 9.71291522693,
			"-0.001": 12.8340772171,
			"0.0": 12.5605476734,
			"0.001": 10.4358809451,
			"0.002": 19.4987921947,
			"0.003": 22.6277439322,
			"0.004": 5.25111117442,
			"0.005": 4.79404463507,
			"0.006": 3.58260585097,
			"0.007": 3.92702150216,
			"0.008": 4.84036407469,
			"0.009": 5.60632170822,
			"0.01": 6.54239578396,
			"0.011": 7.86396847841,
			"0.012": 5.66387152301,
			"0.013": 1.06753118764,
			"0.014": 0.0,
			"0.015": 0.0,
			"0.016": 0.0,
			"0.017": 0.0,
			"0.018": 0.0,
			"0.019": 0.0,
			"0.02": 0.0,
			"0.021": 0.0,
			"0.022": 0.0,
			"0.023": 0.0,
			"0.024": 0.0,
			"0.025": 0.0
		}
	}
}
