{
	 "smiles": "CC1=CC=C(O1)C1=NN(C=C1C=CC(O)=O)C1=CC=CC=C1", 
	 "Tm": 512.15, 
	 "num_atms": 36, 
	 "gaussian": { 
		 "optdone": 1, 
		 "sigma_profile": "yes", 
		 "theory": "DFT", 
		 "functional": "B3LYP", 
		 "basiset": "6-31G**", 
		 "properties": { 
			 "R2extent": 9261.9607, 
			 "electric_dipole_moment_norm": 2.92968873773, 
			 "electric_quadrupole_moment_norm": 29.2380158723, 
			 "total_energy": -991.390477262, 
			 "HOMO_LUMO_gap": 0.14012, 
			 "cosmo_polarized_energy": -14.53, 
			 "cosmo_cavitation_energy": 41.71, 
			 "cosmo_dispersion_energy": -29.64, 
			 "cosmo_repulsion_energy": 2.25, 
			 "cosmo_total_nonelectrostatic_energy": 14.32, 
			 "SMD_solvation_energy": 8.41 
		},
		"coords": [
			{
				"x": -5.7810347186,
				"y": 0.1533114706,
				"z": 0.9204709314,
				"element": "C" 
			},
			{
				"x": -4.859707047,
				"y": 0.2681701947,
				"z": -0.241602901,
				"element": "C" 
			},
			{
				"x": -5.0378673979,
				"y": 0.5310681099,
				"z": -1.5700936664,
				"element": "C" 
			},
			{
				"x": -3.7456569793,
				"y": 0.5037431468,
				"z": -2.1763808792,
				"element": "C" 
			},
			{
				"x": -2.8512916786,
				"y": 0.2247790731,
				"z": -1.1771858291,
				"element": "C" 
			},
			{
				"x": -3.5268251269,
				"y": 0.0789984853,
				"z": 0.0096733294,
				"element": "O" 
			},
			{
				"x": -1.4078822716,
				"y": 0.0726161761,
				"z": -1.195504381,
				"element": "C" 
			},
			{
				"x": -0.7897051326,
				"y": 0.2096596544,
				"z": -2.368435917,
				"element": "N" 
			},
			{
				"x": 0.5284042962,
				"y": 0.01258212,
				"z": -2.1040413926,
				"element": "N" 
			},
			{
				"x": 0.7582074607,
				"y": -0.2406225825,
				"z": -0.7936740179,
				"element": "C" 
			},
			{
				"x": -0.468722249,
				"y": -0.2214919491,
				"z": -0.1364755163,
				"element": "C" 
			},
			{
				"x": -0.8093247646,
				"y": -0.409384896,
				"z": 1.259093511,
				"element": "C" 
			},
			{
				"x": -0.118599259,
				"y": -0.7201124775,
				"z": 2.3860359697,
				"element": "C" 
			},
			{
				"x": 1.2898030655,
				"y": -1.0168849197,
				"z": 2.6679865949,
				"element": "C" 
			},
			{
				"x": 2.1489887864,
				"y": -0.9927769643,
				"z": 1.6061815719,
				"element": "O" 
			},
			{
				"x": 1.7014758215,
				"y": -1.2798679668,
				"z": 3.7842046419,
				"element": "O" 
			},
			{
				"x": 1.4820495879,
				"y": 0.1015949464,
				"z": -3.153800427,
				"element": "C" 
			},
			{
				"x": 2.7374648407,
				"y": -0.502188556,
				"z": -3.0197653268,
				"element": "C" 
			},
			{
				"x": 3.6684085162,
				"y": -0.3869964259,
				"z": -4.051054766,
				"element": "C" 
			},
			{
				"x": 3.3507498947,
				"y": 0.3101463387,
				"z": -5.2178926328,
				"element": "C" 
			},
			{
				"x": 2.0889352599,
				"y": 0.8945810056,
				"z": -5.3481819915,
				"element": "C" 
			},
			{
				"x": 1.1519674165,
				"y": 0.7976400156,
				"z": -4.3217587331,
				"element": "C" 
			},
			{
				"x": -6.8098558183,
				"y": 0.3218636751,
				"z": 0.5945980161,
				"element": "H" 
			},
			{
				"x": -5.7256750191,
				"y": -0.8400696024,
				"z": 1.3808550555,
				"element": "H" 
			},
			{
				"x": -5.5427152927,
				"y": 0.8894254398,
				"z": 1.6971682504,
				"element": "H" 
			},
			{
				"x": -5.9837082017,
				"y": 0.7209279341,
				"z": -2.0572594891,
				"element": "H" 
			},
			{
				"x": -3.494965906,
				"y": 0.6654593627,
				"z": -3.2137619427,
				"element": "H" 
			},
			{
				"x": 1.744367955,
				"y": -0.3880914264,
				"z": -0.3942313255,
				"element": "H" 
			},
			{
				"x": -1.8700597556,
				"y": -0.2667146685,
				"z": 1.4369103855,
				"element": "H" 
			},
			{
				"x": -0.6967355632,
				"y": -0.7789559492,
				"z": 3.3024478332,
				"element": "H" 
			},
			{
				"x": 3.0140026294,
				"y": -1.2144821049,
				"z": 1.9895283688,
				"element": "H" 
			},
			{
				"x": 2.9801396856,
				"y": -1.0750315371,
				"z": -2.1314415412,
				"element": "H" 
			},
			{
				"x": 4.6411636831,
				"y": -0.8575149274,
				"z": -3.9436712248,
				"element": "H" 
			},
			{
				"x": 4.0776110484,
				"y": 0.3921402374,
				"z": -6.0200962664,
				"element": "H" 
			},
			{
				"x": 1.8306712141,
				"y": 1.4362487808,
				"z": -6.2533057206,
				"element": "H" 
			},
			{
				"x": 0.17052102,
				"y": 1.2472307866,
				"z": -4.4056385721,
				"element": "H" 
			}
		],
		 "valence_orbital": [ 
			{
				"type": "occ",
				"energy": -0.26789,
				"method": "rhf"
			},
			{
				"type": "occ",
				"energy": -0.26316,
				"method": "rhf"
			},
			{
				"type": "occ",
				"energy": -0.25456,
				"method": "rhf"
			},
			{
				"type": "occ",
				"energy": -0.23058,
				"method": "rhf"
			},
			{
				"type": "occ",
				"energy": -0.19969,
				"method": "rhf"
			},
			{
				"type": "unocc",
				"energy": -0.05957,
				"method": "rhf"
			},
			{
				"type": "unocc",
				"energy": -0.0365,
				"method": "rhf"
			},
			{
				"type": "unocc",
				"energy": -0.01329,
				"method": "rhf"
			},
			{
				"type": "unocc",
				"energy": 0.0073,
				"method": "rhf"
			},
			{
				"type": "unocc",
				"energy": 0.03848,
				"method": "rhf"
			}
		],
		"cosmo_sigma_profile": { 
			"-0.025": 0.0,
			"-0.024": 0.0,
			"-0.023": 0.0,
			"-0.022": 0.0,
			"-0.021": 0.0,
			"-0.02": 0.0,
			"-0.019": 0.0,
			"-0.018": 0.409203886245,
			"-0.017": 0.838811884927,
			"-0.016": 0.819869114052,
			"-0.015": 0.635076136676,
			"-0.014": 0.698650296786,
			"-0.013": 0.737767184088,
			"-0.012": 0.691795013528,
			"-0.011": 0.714910433791,
			"-0.01": 0.861637373955,
			"-0.009": 0.65251661911,
			"-0.008": 3.02792251825,
			"-0.007": 5.80446920898,
			"-0.006": 16.5534082563,
			"-0.005": 23.5818018545,
			"-0.004": 23.5502847784,
			"-0.003": 20.9146695579,
			"-0.002": 21.8722401423,
			"-0.001": 27.9316350888,
			"0.0": 28.1152990976,
			"0.001": 29.5118289327,
			"0.002": 33.1633439719,
			"0.003": 28.1961263933,
			"0.004": 25.8965943875,
			"0.005": 13.9054923138,
			"0.006": 4.50148639607,
			"0.007": 3.4642255179,
			"0.008": 2.26719347956,
			"0.009": 2.30145262303,
			"0.01": 2.48625583637,
			"0.011": 2.94036991282,
			"0.012": 5.3760868893,
			"0.013": 2.79916098499,
			"0.014": 0.242518505671,
			"0.015": 0.0,
			"0.016": 0.0,
			"0.017": 0.0,
			"0.018": 0.0,
			"0.019": 0.0,
			"0.02": 0.0,
			"0.021": 0.0,
			"0.022": 0.0,
			"0.023": 0.0,
			"0.024": 0.0,
			"0.025": 0.0
		}
	}
}
