{
	 "smiles": "NC1=C(N=CC=C1)N1C=CN=C1", 
	 "Tm": 489.15, 
	 "num_atms": 20, 
	 "gaussian": { 
		 "optdone": 1, 
		 "sigma_profile": "yes", 
		 "theory": "DFT", 
		 "functional": "B3LYP", 
		 "basiset": "6-31G**", 
		 "properties": { 
			 "R2extent": 2220.1817, 
			 "electric_dipole_moment_norm": 5.56881639938, 
			 "electric_quadrupole_moment_norm": 11.1254604875, 
			 "total_energy": -528.66551288, 
			 "HOMO_LUMO_gap": 0.18416, 
			 "cosmo_polarized_energy": -15.03, 
			 "cosmo_cavitation_energy": 24.05, 
			 "cosmo_dispersion_energy": -18.0, 
			 "cosmo_repulsion_energy": 1.41, 
			 "cosmo_total_nonelectrostatic_energy": 7.46, 
			 "SMD_solvation_energy": 2.27 
		},
		"coords": [
			{
				"x": 0.6403115472,
				"y": 0.9785641307,
				"z": -1.9103169339,
				"element": "N" 
			},
			{
				"x": -0.0655864214,
				"y": 0.2608024378,
				"z": -0.9488227995,
				"element": "C" 
			},
			{
				"x": 0.3613858472,
				"y": 0.168701043,
				"z": 0.3992522804,
				"element": "C" 
			},
			{
				"x": -0.3063803102,
				"y": -0.4904575647,
				"z": 1.3405206042,
				"element": "N" 
			},
			{
				"x": -1.4301833218,
				"y": -1.1330650703,
				"z": 1.0077329137,
				"element": "C" 
			},
			{
				"x": -1.9188190431,
				"y": -1.1540584691,
				"z": -0.2972870206,
				"element": "C" 
			},
			{
				"x": -1.2303574111,
				"y": -0.4470254935,
				"z": -1.2775748326,
				"element": "C" 
			},
			{
				"x": 1.5367015679,
				"y": 0.8418755356,
				"z": 0.8364121922,
				"element": "N" 
			},
			{
				"x": 2.7709034509,
				"y": 0.9414817168,
				"z": 0.1973568834,
				"element": "C" 
			},
			{
				"x": 3.5774699656,
				"y": 1.6251277655,
				"z": 1.068683951,
				"element": "C" 
			},
			{
				"x": 2.8935103677,
				"y": 1.9521407378,
				"z": 2.2208526459,
				"element": "N" 
			},
			{
				"x": 1.6874724612,
				"y": 1.4620780669,
				"z": 2.0569431719,
				"element": "C" 
			},
			{
				"x": 0.0971770785,
				"y": 1.2360455373,
				"z": -2.7234461473,
				"element": "H" 
			},
			{
				"x": 1.1921253256,
				"y": 1.7496172606,
				"z": -1.5567476249,
				"element": "H" 
			},
			{
				"x": -1.9451589427,
				"y": -1.6524041798,
				"z": 1.8119090594,
				"element": "H" 
			},
			{
				"x": -2.8240577103,
				"y": -1.7005984361,
				"z": -0.5410495079,
				"element": "H" 
			},
			{
				"x": -1.5951047048,
				"y": -0.4214368754,
				"z": -2.30142196,
				"element": "H" 
			},
			{
				"x": 2.9514281562,
				"y": 0.4893829703,
				"z": -0.7645539651,
				"element": "H" 
			},
			{
				"x": 4.6154584764,
				"y": 1.8964708197,
				"z": 0.9324471936,
				"element": "H" 
			},
			{
				"x": 0.869503621,
				"y": 1.5105580669,
				"z": 2.7602098962,
				"element": "H" 
			}
		],
		 "valence_orbital": [ 
			{
				"type": "occ",
				"energy": -0.27447,
				"method": "rhf"
			},
			{
				"type": "occ",
				"energy": -0.26883,
				"method": "rhf"
			},
			{
				"type": "occ",
				"energy": -0.25897,
				"method": "rhf"
			},
			{
				"type": "occ",
				"energy": -0.22912,
				"method": "rhf"
			},
			{
				"type": "occ",
				"energy": -0.21851,
				"method": "rhf"
			},
			{
				"type": "unocc",
				"energy": -0.03435,
				"method": "rhf"
			},
			{
				"type": "unocc",
				"energy": -0.011,
				"method": "rhf"
			},
			{
				"type": "unocc",
				"energy": 0.03682,
				"method": "rhf"
			},
			{
				"type": "unocc",
				"energy": 0.06216,
				"method": "rhf"
			},
			{
				"type": "unocc",
				"energy": 0.08147,
				"method": "rhf"
			}
		],
		"cosmo_sigma_profile": { 
			"-0.025": 0.0,
			"-0.024": 0.0,
			"-0.023": 0.0,
			"-0.022": 0.0,
			"-0.021": 0.0,
			"-0.02": 0.0,
			"-0.019": 0.0,
			"-0.018": 0.0,
			"-0.017": 0.0,
			"-0.016": 0.0,
			"-0.015": 0.0,
			"-0.014": 0.204694131962,
			"-0.013": 1.75015245059,
			"-0.012": 1.91335153074,
			"-0.011": 3.00699571994,
			"-0.01": 2.54554094893,
			"-0.009": 2.67912139715,
			"-0.008": 5.47617895406,
			"-0.007": 8.14441303392,
			"-0.006": 11.8818902669,
			"-0.005": 12.7376962671,
			"-0.004": 10.6678225241,
			"-0.003": 10.8266139214,
			"-0.002": 11.4013366994,
			"-0.001": 9.8621663213,
			"0.0": 10.275886224,
			"0.001": 11.6353131926,
			"0.002": 13.9648517329,
			"0.003": 16.482023119,
			"0.004": 10.112043437,
			"0.005": 7.16143725227,
			"0.006": 4.468002877,
			"0.007": 4.13707495656,
			"0.008": 3.96896943856,
			"0.009": 3.27229463947,
			"0.01": 2.79304122248,
			"0.011": 2.18357468837,
			"0.012": 1.98181630957,
			"0.013": 2.04404834161,
			"0.014": 2.19003223332,
			"0.015": 0.946927678244,
			"0.016": 0.678523096882,
			"0.017": 1.42053615531,
			"0.018": 0.470134084336,
			"0.019": 0.0,
			"0.02": 0.0,
			"0.021": 0.0,
			"0.022": 0.0,
			"0.023": 0.0,
			"0.024": 0.0,
			"0.025": 0.0
		}
	}
}
