{
	 "smiles": "CCOC(=O)C1=C(OC)C=C(OC)C=C1N", 
	 "Tm": 335.15, 
	 "num_atms": 31, 
	 "gaussian": { 
		 "optdone": 1, 
		 "sigma_profile": "yes", 
		 "theory": "DFT", 
		 "functional": "B3LYP", 
		 "basiset": "6-31G**", 
		 "properties": { 
			 "R2extent": 5265.5056, 
			 "electric_dipole_moment_norm": 2.07665771855, 
			 "electric_quadrupole_moment_norm": 9.5020638695, 
			 "total_energy": -783.853484782, 
			 "HOMO_LUMO_gap": 0.17388, 
			 "cosmo_polarized_energy": -12.31, 
			 "cosmo_cavitation_energy": 34.2, 
			 "cosmo_dispersion_energy": -24.4, 
			 "cosmo_repulsion_energy": 1.91, 
			 "cosmo_total_nonelectrostatic_energy": 11.71, 
			 "SMD_solvation_energy": 8.1 
		},
		"coords": [
			{
				"x": -3.798902411,
				"y": 2.5954876189,
				"z": 0.932301026,
				"element": "C" 
			},
			{
				"x": -3.5024853661,
				"y": 1.4622402777,
				"z": 1.8969051959,
				"element": "C" 
			},
			{
				"x": -2.226694848,
				"y": 0.8992706195,
				"z": 1.52272259,
				"element": "O" 
			},
			{
				"x": -1.8163821466,
				"y": -0.1565940745,
				"z": 2.2567675356,
				"element": "C" 
			},
			{
				"x": -2.4910389165,
				"y": -0.5547210225,
				"z": 3.2058642662,
				"element": "O" 
			},
			{
				"x": -0.5225498568,
				"y": -0.7413507005,
				"z": 1.8494254767,
				"element": "C" 
			},
			{
				"x": 0.0920464506,
				"y": -0.5106593497,
				"z": 0.5933353847,
				"element": "C" 
			},
			{
				"x": -0.5319558701,
				"y": 0.2429204784,
				"z": -0.3734722392,
				"element": "O" 
			},
			{
				"x": -0.0657545563,
				"y": 1.584628859,
				"z": -0.4907318656,
				"element": "C" 
			},
			{
				"x": 1.3082669305,
				"y": -1.0888227861,
				"z": 0.2403134807,
				"element": "C" 
			},
			{
				"x": 1.9558202964,
				"y": -1.9337932106,
				"z": 1.1527829853,
				"element": "C" 
			},
			{
				"x": 3.1438826902,
				"y": -2.5507313446,
				"z": 0.9079925553,
				"element": "O" 
			},
			{
				"x": 3.7793816573,
				"y": -2.32615102,
				"z": -0.3422000507,
				"element": "C" 
			},
			{
				"x": 1.3809879149,
				"y": -2.2001094442,
				"z": 2.3906803471,
				"element": "C" 
			},
			{
				"x": 0.1481681925,
				"y": -1.6361359058,
				"z": 2.7555104345,
				"element": "C" 
			},
			{
				"x": -0.3632002572,
				"y": -1.9144430947,
				"z": 3.9938393167,
				"element": "N" 
			},
			{
				"x": -3.0337139315,
				"y": 3.3750536087,
				"z": 0.9939517503,
				"element": "H" 
			},
			{
				"x": -3.8375038071,
				"y": 2.2304199984,
				"z": -0.0979397936,
				"element": "H" 
			},
			{
				"x": -4.766392893,
				"y": 3.0459556531,
				"z": 1.175722215,
				"element": "H" 
			},
			{
				"x": -3.4509288046,
				"y": 1.8084899397,
				"z": 2.9342663568,
				"element": "H" 
			},
			{
				"x": -4.264680124,
				"y": 0.6781628973,
				"z": 1.8530284764,
				"element": "H" 
			},
			{
				"x": -0.6049798875,
				"y": 2.0265652261,
				"z": -1.331333885,
				"element": "H" 
			},
			{
				"x": -0.2815274104,
				"y": 2.1565846067,
				"z": 0.4182796055,
				"element": "H" 
			},
			{
				"x": 1.012482433,
				"y": 1.6172890692,
				"z": -0.6954953727,
				"element": "H" 
			},
			{
				"x": 1.6968062954,
				"y": -0.8951663402,
				"z": -0.7504053557,
				"element": "H" 
			},
			{
				"x": 4.0176771873,
				"y": -1.2655181999,
				"z": -0.4898647084,
				"element": "H" 
			},
			{
				"x": 3.1616827991,
				"y": -2.6756147993,
				"z": -1.1787092598,
				"element": "H" 
			},
			{
				"x": 4.7056518437,
				"y": -2.9020717051,
				"z": -0.3149219102,
				"element": "H" 
			},
			{
				"x": 1.8994544442,
				"y": -2.8649155803,
				"z": 3.0739422407,
				"element": "H" 
			},
			{
				"x": 0.0380449806,
				"y": -2.6868951907,
				"z": 4.5002724047,
				"element": "H" 
			},
			{
				"x": -1.3386630289,
				"y": -1.6852750842,
				"z": 4.1412707967,
				"element": "H" 
			}
		],
		 "valence_orbital": [ 
			{
				"type": "occ",
				"energy": -0.28085,
				"method": "rhf"
			},
			{
				"type": "occ",
				"energy": -0.26594,
				"method": "rhf"
			},
			{
				"type": "occ",
				"energy": -0.25863,
				"method": "rhf"
			},
			{
				"type": "occ",
				"energy": -0.22065,
				"method": "rhf"
			},
			{
				"type": "occ",
				"energy": -0.19772,
				"method": "rhf"
			},
			{
				"type": "unocc",
				"energy": -0.02384,
				"method": "rhf"
			},
			{
				"type": "unocc",
				"energy": 0.01979,
				"method": "rhf"
			},
			{
				"type": "unocc",
				"energy": 0.07002,
				"method": "rhf"
			},
			{
				"type": "unocc",
				"energy": 0.09219,
				"method": "rhf"
			},
			{
				"type": "unocc",
				"energy": 0.10114,
				"method": "rhf"
			}
		],
		"cosmo_sigma_profile": { 
			"-0.025": 0.0,
			"-0.024": 0.0,
			"-0.023": 0.0,
			"-0.022": 0.0,
			"-0.021": 0.0,
			"-0.02": 0.0,
			"-0.019": 0.0,
			"-0.018": 0.0,
			"-0.017": 0.0,
			"-0.016": 0.0,
			"-0.015": 0.0,
			"-0.014": 0.0178633376566,
			"-0.013": 1.06293601201,
			"-0.012": 1.37199149156,
			"-0.011": 1.25309922043,
			"-0.01": 1.02658726671,
			"-0.009": 1.31212615595,
			"-0.008": 2.08904261364,
			"-0.007": 3.42577109165,
			"-0.006": 8.72693081154,
			"-0.005": 18.1379346951,
			"-0.004": 26.8084557491,
			"-0.003": 32.6201490945,
			"-0.002": 24.5244644578,
			"-0.001": 19.2399948043,
			"0.0": 18.6421553713,
			"0.001": 14.092470204,
			"0.002": 14.8835087355,
			"0.003": 17.2305807983,
			"0.004": 18.7429694543,
			"0.005": 10.8611409161,
			"0.006": 5.97816316494,
			"0.007": 4.5008859183,
			"0.008": 5.00872415024,
			"0.009": 4.76198281846,
			"0.01": 5.22256491331,
			"0.011": 3.53267149806,
			"0.012": 3.91202790173,
			"0.013": 0.731778135331,
			"0.014": 0.0,
			"0.015": 0.0,
			"0.016": 0.0,
			"0.017": 0.0,
			"0.018": 0.0,
			"0.019": 0.0,
			"0.02": 0.0,
			"0.021": 0.0,
			"0.022": 0.0,
			"0.023": 0.0,
			"0.024": 0.0,
			"0.025": 0.0
		}
	}
}
