{
	 "smiles": "CCC=O", 
	 "Tm": 192.65, 
	 "num_atms": 10, 
	 "gaussian": { 
		 "optdone": 1, 
		 "sigma_profile": "yes", 
		 "theory": "DFT", 
		 "functional": "B3LYP", 
		 "basiset": "6-31G**", 
		 "properties": { 
			 "R2extent": 935.0747, 
			 "electric_dipole_moment_norm": 2.53926426549, 
			 "electric_quadrupole_moment_norm": 8.84428448152, 
			 "total_energy": -193.150040688, 
			 "HOMO_LUMO_gap": 0.23363, 
			 "cosmo_polarized_energy": -5.89, 
			 "cosmo_cavitation_energy": 13.28, 
			 "cosmo_dispersion_energy": -9.8, 
			 "cosmo_repulsion_energy": 0.92, 
			 "cosmo_total_nonelectrostatic_energy": 4.4, 
			 "SMD_solvation_energy": 3.66 
		},
		"coords": [
			{
				"x": 1.8122637078,
				"y": -2.161473001,
				"z": 0.1077819609,
				"element": "C" 
			},
			{
				"x": 0.3951560555,
				"y": -2.0901077613,
				"z": 0.6710439124,
				"element": "C" 
			},
			{
				"x": 0.308056383,
				"y": -1.4435987616,
				"z": 2.034643545,
				"element": "C" 
			},
			{
				"x": 1.2548853043,
				"y": -1.0102826926,
				"z": 2.6538679304,
				"element": "O" 
			},
			{
				"x": 2.2432296055,
				"y": -1.161450812,
				"z": 0.0108965559,
				"element": "H" 
			},
			{
				"x": 2.4661597345,
				"y": -2.7339255101,
				"z": 0.7710155215,
				"element": "H" 
			},
			{
				"x": 1.816333322,
				"y": -2.6369303143,
				"z": -0.8770193201,
				"element": "H" 
			},
			{
				"x": -0.0604181499,
				"y": -3.0883651353,
				"z": 0.7570123074,
				"element": "H" 
			},
			{
				"x": -0.2808987725,
				"y": -1.5324009707,
				"z": 0.0051857639,
				"element": "H" 
			},
			{
				"x": -0.7217671903,
				"y": -1.3851650412,
				"z": 2.4575718227,
				"element": "H" 
			}
		],
		 "valence_orbital": [ 
			{
				"type": "occ",
				"energy": -0.38178,
				"method": "rhf"
			},
			{
				"type": "occ",
				"energy": -0.38111,
				"method": "rhf"
			},
			{
				"type": "occ",
				"energy": -0.36849,
				"method": "rhf"
			},
			{
				"type": "occ",
				"energy": -0.34861,
				"method": "rhf"
			},
			{
				"type": "occ",
				"energy": -0.25294,
				"method": "rhf"
			},
			{
				"type": "unocc",
				"energy": -0.01931,
				"method": "rhf"
			},
			{
				"type": "unocc",
				"energy": 0.09626,
				"method": "rhf"
			},
			{
				"type": "unocc",
				"energy": 0.12546,
				"method": "rhf"
			},
			{
				"type": "unocc",
				"energy": 0.14289,
				"method": "rhf"
			},
			{
				"type": "unocc",
				"energy": 0.15304,
				"method": "rhf"
			}
		],
		"cosmo_sigma_profile": { 
			"-0.025": 0.0,
			"-0.024": 0.0,
			"-0.023": 0.0,
			"-0.022": 0.0,
			"-0.021": 0.0,
			"-0.02": 0.0,
			"-0.019": 0.0,
			"-0.018": 0.0,
			"-0.017": 0.0,
			"-0.016": 0.0,
			"-0.015": 0.0,
			"-0.014": 0.0,
			"-0.013": 0.0,
			"-0.012": 0.0,
			"-0.011": 0.0,
			"-0.01": 0.0,
			"-0.009": 0.0,
			"-0.008": 0.0,
			"-0.007": 0.0183785540353,
			"-0.006": 9.49564537928,
			"-0.005": 11.2854471444,
			"-0.004": 8.23575815228,
			"-0.003": 11.3415222414,
			"-0.002": 12.1717752978,
			"-0.001": 10.346938191,
			"0.0": 8.39051274736,
			"0.001": 6.37951576156,
			"0.002": 2.93407377283,
			"0.003": 1.57270660255,
			"0.004": 1.45101804793,
			"0.005": 1.90513735586,
			"0.006": 1.28496461403,
			"0.007": 1.66431842447,
			"0.008": 2.28180696748,
			"0.009": 1.80232862915,
			"0.01": 2.58603304018,
			"0.011": 4.2468235491,
			"0.012": 3.64009286324,
			"0.013": 1.02079519899,
			"0.014": 0.0,
			"0.015": 0.0,
			"0.016": 0.0,
			"0.017": 0.0,
			"0.018": 0.0,
			"0.019": 0.0,
			"0.02": 0.0,
			"0.021": 0.0,
			"0.022": 0.0,
			"0.023": 0.0,
			"0.024": 0.0,
			"0.025": 0.0
		}
	}
}
