{
	 "smiles": "CC(=O)NC1=CC(=CC=C1)N=[N+]([O-])C1=CC=CC(NC(C)=O)=C1", 
	 "Tm": 527.15, 
	 "num_atms": 39, 
	 "gaussian": { 
		 "optdone": 1, 
		 "sigma_profile": "yes", 
		 "theory": "DFT", 
		 "functional": "B3LYP", 
		 "basiset": "6-31G**", 
		 "properties": { 
			 "R2extent": 7082.1004, 
			 "electric_dipole_moment_norm": 6.64845753991, 
			 "electric_quadrupole_moment_norm": 32.5693239125, 
			 "total_energy": -1063.95596337, 
			 "HOMO_LUMO_gap": 0.14865, 
			 "cosmo_polarized_energy": -29.28, 
			 "cosmo_cavitation_energy": 44.56, 
			 "cosmo_dispersion_energy": -28.72, 
			 "cosmo_repulsion_energy": 2.21, 
			 "cosmo_total_nonelectrostatic_energy": 18.04, 
			 "SMD_solvation_energy": 8.92 
		},
		"coords": [
			{
				"x": -1.464291483,
				"y": 2.0608120506,
				"z": 1.6758509178,
				"element": "C" 
			},
			{
				"x": -2.8577862217,
				"y": 1.9315300236,
				"z": 1.0929944696,
				"element": "C" 
			},
			{
				"x": -3.831885636,
				"y": 2.4455624345,
				"z": 1.6242997272,
				"element": "O" 
			},
			{
				"x": -3.0296870431,
				"y": 1.1937962919,
				"z": -0.0674304301,
				"element": "N" 
			},
			{
				"x": -2.1244241452,
				"y": 0.4625288818,
				"z": -0.8696959316,
				"element": "C" 
			},
			{
				"x": -0.8595619177,
				"y": 0.9566728409,
				"z": -1.2097573538,
				"element": "C" 
			},
			{
				"x": -0.0091003231,
				"y": 0.2069169189,
				"z": -2.0393001953,
				"element": "C" 
			},
			{
				"x": -0.452976935,
				"y": -1.008574432,
				"z": -2.5800638379,
				"element": "C" 
			},
			{
				"x": -1.7168836279,
				"y": -1.4883263296,
				"z": -2.2476262949,
				"element": "C" 
			},
			{
				"x": -2.5491062891,
				"y": -0.769159053,
				"z": -1.3927745811,
				"element": "C" 
			},
			{
				"x": 1.2213358031,
				"y": 0.7063321154,
				"z": -2.5179804024,
				"element": "N" 
			},
			{
				"x": 2.0849311407,
				"y": 1.1899016319,
				"z": -1.7070507222,
				"element": "N" 
			},
			{
				"x": 3.0712992881,
				"y": 1.8333074535,
				"z": -2.1222861185,
				"element": "O" 
			},
			{
				"x": 2.0835157969,
				"y": 0.9891127085,
				"z": -0.239963763,
				"element": "C" 
			},
			{
				"x": 2.3763906934,
				"y": 2.0967652309,
				"z": 0.5504652437,
				"element": "C" 
			},
			{
				"x": 2.458698694,
				"y": 1.9120597976,
				"z": 1.9295782662,
				"element": "C" 
			},
			{
				"x": 2.2849016032,
				"y": 0.6471307082,
				"z": 2.4848654433,
				"element": "C" 
			},
			{
				"x": 2.021866297,
				"y": -0.4645861928,
				"z": 1.6661665813,
				"element": "C" 
			},
			{
				"x": 1.8856867159,
				"y": -1.7175896043,
				"z": 2.2911789793,
				"element": "N" 
			},
			{
				"x": 1.6460452304,
				"y": -2.9507138111,
				"z": 1.7115413553,
				"element": "C" 
			},
			{
				"x": 1.6098285014,
				"y": -4.1092605884,
				"z": 2.6959148761,
				"element": "C" 
			},
			{
				"x": 1.4946963201,
				"y": -3.1178573981,
				"z": 0.5114299389,
				"element": "O" 
			},
			{
				"x": 1.9105247811,
				"y": -0.2907504969,
				"z": 0.2774419442,
				"element": "C" 
			},
			{
				"x": -0.9383453358,
				"y": 2.9077255781,
				"z": 1.2232368248,
				"element": "H" 
			},
			{
				"x": -1.578976298,
				"y": 2.2696775201,
				"z": 2.7401332299,
				"element": "H" 
			},
			{
				"x": -0.852910077,
				"y": 1.1681867209,
				"z": 1.529126647,
				"element": "H" 
			},
			{
				"x": -4.0124066692,
				"y": 1.086698885,
				"z": -0.2885440049,
				"element": "H" 
			},
			{
				"x": -0.5512791194,
				"y": 1.940322332,
				"z": -0.8794635258,
				"element": "H" 
			},
			{
				"x": 0.200367785,
				"y": -1.5548499463,
				"z": -3.2511621047,
				"element": "H" 
			},
			{
				"x": -2.0567215729,
				"y": -2.4355549767,
				"z": -2.6551985963,
				"element": "H" 
			},
			{
				"x": -3.530692109,
				"y": -1.1515713698,
				"z": -1.1280934745,
				"element": "H" 
			},
			{
				"x": 2.5503398738,
				"y": 3.0601058705,
				"z": 0.0871614364,
				"element": "H" 
			},
			{
				"x": 2.6734301894,
				"y": 2.7565518792,
				"z": 2.5766698161,
				"element": "H" 
			},
			{
				"x": 2.3643877873,
				"y": 0.5150327717,
				"z": 3.561212486,
				"element": "H" 
			},
			{
				"x": 1.9985799553,
				"y": -1.7090666287,
				"z": 3.294325085,
				"element": "H" 
			},
			{
				"x": 2.5347843294,
				"y": -4.6865532628,
				"z": 2.5973166801,
				"element": "H" 
			},
			{
				"x": 0.7819158091,
				"y": -4.7667414142,
				"z": 2.4238803716,
				"element": "H" 
			},
			{
				"x": 1.4990422506,
				"y": -3.8034221108,
				"z": 3.740026661,
				"element": "H" 
			},
			{
				"x": 1.7065659584,
				"y": -1.1416530301,
				"z": -0.3550256435,
				"element": "H" 
			}
		],
		 "valence_orbital": [ 
			{
				"type": "occ",
				"energy": -0.26541,
				"method": "rhf"
			},
			{
				"type": "occ",
				"energy": -0.25273,
				"method": "rhf"
			},
			{
				"type": "occ",
				"energy": -0.24341,
				"method": "rhf"
			},
			{
				"type": "occ",
				"energy": -0.23767,
				"method": "rhf"
			},
			{
				"type": "occ",
				"energy": -0.22168,
				"method": "rhf"
			},
			{
				"type": "unocc",
				"energy": -0.07303,
				"method": "rhf"
			},
			{
				"type": "unocc",
				"energy": -0.03572,
				"method": "rhf"
			},
			{
				"type": "unocc",
				"energy": -0.02474,
				"method": "rhf"
			},
			{
				"type": "unocc",
				"energy": -0.015,
				"method": "rhf"
			},
			{
				"type": "unocc",
				"energy": 0.00404,
				"method": "rhf"
			}
		],
		"cosmo_sigma_profile": { 
			"-0.025": 0.0,
			"-0.024": 0.0,
			"-0.023": 0.0,
			"-0.022": 0.0,
			"-0.021": 0.0,
			"-0.02": 0.0,
			"-0.019": 0.0,
			"-0.018": 0.0,
			"-0.017": 0.0235007608489,
			"-0.016": 0.729061010179,
			"-0.015": 1.37596023855,
			"-0.014": 1.92609458528,
			"-0.013": 2.78263555591,
			"-0.012": 2.2809914674,
			"-0.011": 2.81629677287,
			"-0.01": 2.79743419876,
			"-0.009": 3.40564833704,
			"-0.008": 7.33102365091,
			"-0.007": 12.9171483433,
			"-0.006": 22.0404758563,
			"-0.005": 24.403098136,
			"-0.004": 21.8260217801,
			"-0.003": 23.5590333529,
			"-0.002": 26.6109846649,
			"-0.001": 28.105652111,
			"0.0": 24.5511707525,
			"0.001": 23.0557309105,
			"0.002": 21.0161412,
			"0.003": 18.7169849344,
			"0.004": 13.0094518164,
			"0.005": 8.1442059171,
			"0.006": 4.75604474568,
			"0.007": 5.09319703647,
			"0.008": 5.71877412732,
			"0.009": 6.91601409014,
			"0.01": 9.13063656471,
			"0.011": 7.07623514278,
			"0.012": 7.76002779974,
			"0.013": 9.81049775869,
			"0.014": 5.1133702251,
			"0.015": 0.495212706988,
			"0.016": 0.0,
			"0.017": 0.0,
			"0.018": 0.0,
			"0.019": 0.0,
			"0.02": 0.0,
			"0.021": 0.0,
			"0.022": 0.0,
			"0.023": 0.0,
			"0.024": 0.0,
			"0.025": 0.0
		}
	}
}
