{
	 "smiles": "CCOC(=O)C1=C(N)C=CC=N1", 
	 "Tm": 401.15, 
	 "num_atms": 22, 
	 "gaussian": { 
		 "optdone": 1, 
		 "sigma_profile": "yes", 
		 "theory": "DFT", 
		 "functional": "B3LYP", 
		 "basiset": "6-31G**", 
		 "properties": { 
			 "R2extent": 2408.5922, 
			 "electric_dipole_moment_norm": 2.10849734408, 
			 "electric_quadrupole_moment_norm": 13.7056440936, 
			 "total_energy": -570.847312909, 
			 "HOMO_LUMO_gap": 0.16522, 
			 "cosmo_polarized_energy": -12.43, 
			 "cosmo_cavitation_energy": 25.88, 
			 "cosmo_dispersion_energy": -19.41, 
			 "cosmo_repulsion_energy": 1.57, 
			 "cosmo_total_nonelectrostatic_energy": 8.04, 
			 "SMD_solvation_energy": 4.37 
		},
		"coords": [
			{
				"x": 3.881659137,
				"y": 0.6026032358,
				"z": 0.4032058584,
				"element": "C" 
			},
			{
				"x": 3.247739027,
				"y": 0.4731073165,
				"z": -0.9742385214,
				"element": "C" 
			},
			{
				"x": 1.8419829658,
				"y": 0.8078186899,
				"z": -0.9408546877,
				"element": "O" 
			},
			{
				"x": 0.9973505747,
				"y": -0.1755984866,
				"z": -0.5990148147,
				"element": "C" 
			},
			{
				"x": 1.3756670509,
				"y": -1.3148503392,
				"z": -0.3301676087,
				"element": "O" 
			},
			{
				"x": -0.4281897128,
				"y": 0.2493547612,
				"z": -0.5787736151,
				"element": "C" 
			},
			{
				"x": -1.4495599413,
				"y": -0.6985715104,
				"z": -0.2691654228,
				"element": "C" 
			},
			{
				"x": -1.193543792,
				"y": -2.0163768195,
				"z": -0.0378725466,
				"element": "N" 
			},
			{
				"x": -2.7758124245,
				"y": -0.2060670646,
				"z": -0.2401393465,
				"element": "C" 
			},
			{
				"x": -3.0230929601,
				"y": 1.1245377337,
				"z": -0.5126368488,
				"element": "C" 
			},
			{
				"x": -1.9435802898,
				"y": 1.9712927984,
				"z": -0.8153522832,
				"element": "C" 
			},
			{
				"x": -0.6906470991,
				"y": 1.5405147005,
				"z": -0.8433930712,
				"element": "N" 
			},
			{
				"x": 3.7192547446,
				"y": 1.6040824795,
				"z": 0.8120575907,
				"element": "H" 
			},
			{
				"x": 4.9608856791,
				"y": 0.4294487399,
				"z": 0.3331562048,
				"element": "H" 
			},
			{
				"x": 3.460065683,
				"y": -0.1338834819,
				"z": 1.0915320181,
				"element": "H" 
			},
			{
				"x": 3.366007638,
				"y": -0.5389830289,
				"z": -1.3688420704,
				"element": "H" 
			},
			{
				"x": 3.6757296159,
				"y": 1.190373457,
				"z": -1.6785650374,
				"element": "H" 
			},
			{
				"x": -1.921088105,
				"y": -2.6002642021,
				"z": 0.3405756411,
				"element": "H" 
			},
			{
				"x": -0.2226165035,
				"y": -2.2926678824,
				"z": 0.0421786707,
				"element": "H" 
			},
			{
				"x": -3.5888716329,
				"y": -0.8889017401,
				"z": -0.0061351894,
				"element": "H" 
			},
			{
				"x": -4.0371283742,
				"y": 1.5132150762,
				"z": -0.4936553268,
				"element": "H" 
			},
			{
				"x": -2.1060112807,
				"y": 3.0241155672,
				"z": -1.0358995932,
				"element": "H" 
			}
		],
		 "valence_orbital": [ 
			{
				"type": "occ",
				"energy": -0.29185,
				"method": "rhf"
			},
			{
				"type": "occ",
				"energy": -0.27891,
				"method": "rhf"
			},
			{
				"type": "occ",
				"energy": -0.27653,
				"method": "rhf"
			},
			{
				"type": "occ",
				"energy": -0.24583,
				"method": "rhf"
			},
			{
				"type": "occ",
				"energy": -0.21158,
				"method": "rhf"
			},
			{
				"type": "unocc",
				"energy": -0.04636,
				"method": "rhf"
			},
			{
				"type": "unocc",
				"energy": 0.00174,
				"method": "rhf"
			},
			{
				"type": "unocc",
				"energy": 0.05864,
				"method": "rhf"
			},
			{
				"type": "unocc",
				"energy": 0.08752,
				"method": "rhf"
			},
			{
				"type": "unocc",
				"energy": 0.10786,
				"method": "rhf"
			}
		],
		"cosmo_sigma_profile": { 
			"-0.025": 0.0,
			"-0.024": 0.0,
			"-0.023": 0.0,
			"-0.022": 0.0,
			"-0.021": 0.0,
			"-0.02": 0.0,
			"-0.019": 0.0,
			"-0.018": 0.0,
			"-0.017": 0.0,
			"-0.016": 0.0,
			"-0.015": 0.0,
			"-0.014": 0.557479379872,
			"-0.013": 1.83937186533,
			"-0.012": 1.24228701452,
			"-0.011": 1.48480516011,
			"-0.01": 1.92254919609,
			"-0.009": 1.4371250452,
			"-0.008": 3.22366503107,
			"-0.007": 5.18254057752,
			"-0.006": 7.19469193168,
			"-0.005": 12.7077206298,
			"-0.004": 15.2896862627,
			"-0.003": 16.6812762057,
			"-0.002": 16.7211444045,
			"-0.001": 16.7525925717,
			"0.0": 16.619085306,
			"0.001": 16.8132253045,
			"0.002": 16.178368413,
			"0.003": 13.1914483749,
			"0.004": 6.43534635917,
			"0.005": 5.39450066438,
			"0.006": 4.41502974319,
			"0.007": 4.12598897941,
			"0.008": 3.81704906641,
			"0.009": 2.95991937862,
			"0.01": 3.43622841473,
			"0.011": 2.82676893008,
			"0.012": 1.48358510505,
			"0.013": 0.725228565505,
			"0.014": 1.26527574393,
			"0.015": 1.06792023899,
			"0.016": 0.981014541251,
			"0.017": 0.966074656343,
			"0.018": 0.634573018796,
			"0.019": 0.0528661009043,
			"0.02": 0.0,
			"0.021": 0.0,
			"0.022": 0.0,
			"0.023": 0.0,
			"0.024": 0.0,
			"0.025": 0.0
		}
	}
}
