{
	 "smiles": "CCCC(O)C(O)(CC)C1CCCCC1", 
	 "Tm": 351.15, 
	 "num_atms": 41, 
	 "gaussian": { 
		 "optdone": 1, 
		 "sigma_profile": "yes", 
		 "theory": "DFT", 
		 "functional": "B3LYP", 
		 "basiset": "6-31G**", 
		 "properties": { 
			 "R2extent": 5227.4885, 
			 "electric_dipole_moment_norm": 1.99465627615, 
			 "electric_quadrupole_moment_norm": 7.01837079741, 
			 "total_energy": -661.516121305, 
			 "HOMO_LUMO_gap": 0.30503, 
			 "cosmo_polarized_energy": -7.66, 
			 "cosmo_cavitation_energy": 36.85, 
			 "cosmo_dispersion_energy": -25.95, 
			 "cosmo_repulsion_energy": 2.03, 
			 "cosmo_total_nonelectrostatic_energy": 12.92, 
			 "SMD_solvation_energy": 5.32 
		},
		"coords": [
			{
				"x": -3.3513689091,
				"y": -3.1058629556,
				"z": 0.3935522254,
				"element": "C" 
			},
			{
				"x": -2.0754154474,
				"y": -2.890264315,
				"z": -0.4264626545,
				"element": "C" 
			},
			{
				"x": -1.61197995,
				"y": -1.4252074568,
				"z": -0.4087384538,
				"element": "C" 
			},
			{
				"x": -0.3811067964,
				"y": -1.0718191717,
				"z": -1.2629296382,
				"element": "C" 
			},
			{
				"x": -0.5964425385,
				"y": -1.5006413443,
				"z": -2.6203540403,
				"element": "O" 
			},
			{
				"x": 1.0251438715,
				"y": -1.6422366873,
				"z": -0.8935559742,
				"element": "C" 
			},
			{
				"x": 1.0106748028,
				"y": -3.0705165326,
				"z": -1.0121159633,
				"element": "O" 
			},
			{
				"x": 2.0416736765,
				"y": -1.113028947,
				"z": -1.9493496424,
				"element": "C" 
			},
			{
				"x": 2.1645498698,
				"y": 0.408147186,
				"z": -2.1146554613,
				"element": "C" 
			},
			{
				"x": 1.4384619629,
				"y": -1.3018419492,
				"z": 0.5809716227,
				"element": "C" 
			},
			{
				"x": 0.8684818308,
				"y": -2.297046221,
				"z": 1.6218592543,
				"element": "C" 
			},
			{
				"x": 1.1963595197,
				"y": -1.8848318153,
				"z": 3.0656516351,
				"element": "C" 
			},
			{
				"x": 2.7076737564,
				"y": -1.7560066607,
				"z": 3.2860017979,
				"element": "C" 
			},
			{
				"x": 3.3212011421,
				"y": -0.8077093377,
				"z": 2.2501688076,
				"element": "C" 
			},
			{
				"x": 2.9680733195,
				"y": -1.2127516366,
				"z": 0.8091705519,
				"element": "C" 
			},
			{
				"x": -4.1760085932,
				"y": -2.4840296818,
				"z": 0.0246783076,
				"element": "H" 
			},
			{
				"x": -3.1951384724,
				"y": -2.8499761088,
				"z": 1.448065219,
				"element": "H" 
			},
			{
				"x": -3.6790937053,
				"y": -4.1496878479,
				"z": 0.3522398536,
				"element": "H" 
			},
			{
				"x": -1.273774018,
				"y": -3.5362978985,
				"z": -0.0592058347,
				"element": "H" 
			},
			{
				"x": -2.2513353011,
				"y": -3.1944433438,
				"z": -1.4656863294,
				"element": "H" 
			},
			{
				"x": -2.4386138324,
				"y": -0.7995109321,
				"z": -0.7847314028,
				"element": "H" 
			},
			{
				"x": -1.4516563871,
				"y": -1.0837738652,
				"z": 0.6198470062,
				"element": "H" 
			},
			{
				"x": -0.2868185738,
				"y": 0.0245787209,
				"z": -1.2377435339,
				"element": "H" 
			},
			{
				"x": -1.5080556703,
				"y": -1.2916878362,
				"z": -2.8596327865,
				"element": "H" 
			},
			{
				"x": 0.6073648892,
				"y": -3.2519576928,
				"z": -1.8740980727,
				"element": "H" 
			},
			{
				"x": 3.014697756,
				"y": -1.5504490242,
				"z": -1.7124705828,
				"element": "H" 
			},
			{
				"x": 1.7450670188,
				"y": -1.5365892122,
				"z": -2.9131751627,
				"element": "H" 
			},
			{
				"x": 1.2646628995,
				"y": 0.8350270136,
				"z": -2.5678752188,
				"element": "H" 
			},
			{
				"x": 2.3386793212,
				"y": 0.9266704502,
				"z": -1.1658840561,
				"element": "H" 
			},
			{
				"x": 3.0031917744,
				"y": 0.6495469528,
				"z": -2.7763970178,
				"element": "H" 
			},
			{
				"x": 1.0240827331,
				"y": -0.3047435478,
				"z": 0.8008461458,
				"element": "H" 
			},
			{
				"x": 1.2942188216,
				"y": -3.2853676351,
				"z": 1.416820424,
				"element": "H" 
			},
			{
				"x": -0.2113595077,
				"y": -2.4098340417,
				"z": 1.5191761946,
				"element": "H" 
			},
			{
				"x": 0.7695818499,
				"y": -2.6161506287,
				"z": 3.7631905302,
				"element": "H" 
			},
			{
				"x": 0.7132298251,
				"y": -0.9226830704,
				"z": 3.2920053736,
				"element": "H" 
			},
			{
				"x": 3.1717973321,
				"y": -2.7477276665,
				"z": 3.1892377259,
				"element": "H" 
			},
			{
				"x": 2.9234942825,
				"y": -1.4065467892,
				"z": 4.3031714468,
				"element": "H" 
			},
			{
				"x": 2.9547831412,
				"y": 0.2130203541,
				"z": 2.4343517972,
				"element": "H" 
			},
			{
				"x": 4.4115638911,
				"y": -0.7684483293,
				"z": 2.3639391714,
				"element": "H" 
			},
			{
				"x": 3.4155911211,
				"y": -2.1905028427,
				"z": 0.5841629985,
				"element": "H" 
			},
			{
				"x": 3.4287672942,
				"y": -0.4934176522,
				"z": 0.1276537371,
				"element": "H" 
			}
		],
		 "valence_orbital": [ 
			{
				"type": "occ",
				"energy": -0.30479,
				"method": "rhf"
			},
			{
				"type": "occ",
				"energy": -0.28589,
				"method": "rhf"
			},
			{
				"type": "occ",
				"energy": -0.28419,
				"method": "rhf"
			},
			{
				"type": "occ",
				"energy": -0.27014,
				"method": "rhf"
			},
			{
				"type": "occ",
				"energy": -0.24614,
				"method": "rhf"
			},
			{
				"type": "unocc",
				"energy": 0.05889,
				"method": "rhf"
			},
			{
				"type": "unocc",
				"energy": 0.0879,
				"method": "rhf"
			},
			{
				"type": "unocc",
				"energy": 0.098,
				"method": "rhf"
			},
			{
				"type": "unocc",
				"energy": 0.10501,
				"method": "rhf"
			},
			{
				"type": "unocc",
				"energy": 0.11769,
				"method": "rhf"
			}
		],
		"cosmo_sigma_profile": { 
			"-0.025": 0.0,
			"-0.024": 0.0,
			"-0.023": 0.0,
			"-0.022": 0.0,
			"-0.021": 0.0,
			"-0.02": 0.0,
			"-0.019": 0.0,
			"-0.018": 0.0,
			"-0.017": 0.0,
			"-0.016": 0.0,
			"-0.015": 0.220467975622,
			"-0.014": 1.2075472761,
			"-0.013": 0.557668191434,
			"-0.012": 0.737747199649,
			"-0.011": 1.33264694725,
			"-0.01": 1.53051454506,
			"-0.009": 1.50762797675,
			"-0.008": 1.3651738826,
			"-0.007": 1.68368537721,
			"-0.006": 1.59333743167,
			"-0.005": 2.39537356883,
			"-0.004": 3.34326237752,
			"-0.003": 12.4494383369,
			"-0.002": 42.2206637068,
			"-0.001": 51.2136731142,
			"0.0": 52.670950718,
			"0.001": 50.013188506,
			"0.002": 25.1965792159,
			"0.003": 4.71382306258,
			"0.004": 3.53775044392,
			"0.005": 2.82073023205,
			"0.006": 2.34158102745,
			"0.007": 3.34655551343,
			"0.008": 2.98782283847,
			"0.009": 2.20249002825,
			"0.01": 2.28828272656,
			"0.011": 2.33815620206,
			"0.012": 1.34537177426,
			"0.013": 1.09139133734,
			"0.014": 0.707343210723,
			"0.015": 0.0262841953237,
			"0.016": 0.0,
			"0.017": 0.0,
			"0.018": 0.0,
			"0.019": 0.0,
			"0.02": 0.0,
			"0.021": 0.0,
			"0.022": 0.0,
			"0.023": 0.0,
			"0.024": 0.0,
			"0.025": 0.0
		}
	}
}
