{
	 "smiles": "CC(C)(S)C(O)=O", 
	 "Tm": 320.15, 
	 "num_atms": 15, 
	 "gaussian": { 
		 "optdone": 1, 
		 "sigma_profile": "yes", 
		 "theory": "DFT", 
		 "functional": "B3LYP", 
		 "basiset": "6-31G**", 
		 "properties": { 
			 "R2extent": 1156.4675, 
			 "electric_dipole_moment_norm": 1.47305985282, 
			 "electric_quadrupole_moment_norm": 9.27428958304, 
			 "total_energy": -705.897444806, 
			 "HOMO_LUMO_gap": 0.23199, 
			 "cosmo_polarized_energy": -10.26, 
			 "cosmo_cavitation_energy": 19.73, 
			 "cosmo_dispersion_energy": -14.7, 
			 "cosmo_repulsion_energy": 1.2, 
			 "cosmo_total_nonelectrostatic_energy": 6.23, 
			 "SMD_solvation_energy": 4.35 
		},
		"coords": [
			{
				"x": -0.2106946548,
				"y": -2.6175860077,
				"z": -1.2358531733,
				"element": "C" 
			},
			{
				"x": -0.0695875056,
				"y": -1.1685855209,
				"z": -0.7632764713,
				"element": "C" 
			},
			{
				"x": -0.047686598,
				"y": -0.1863033141,
				"z": -1.9488116403,
				"element": "C" 
			},
			{
				"x": -1.4547782576,
				"y": -0.7205359351,
				"z": 0.4261329002,
				"element": "S" 
			},
			{
				"x": 1.2161675505,
				"y": -1.025053034,
				"z": 0.0553217924,
				"element": "C" 
			},
			{
				"x": 1.3583108133,
				"y": 0.2233442889,
				"z": 0.5583029525,
				"element": "O" 
			},
			{
				"x": 2.0351182325,
				"y": -1.8982352458,
				"z": 0.2317393982,
				"element": "O" 
			},
			{
				"x": 0.6412529173,
				"y": -2.8854999746,
				"z": -1.8676551687,
				"element": "H" 
			},
			{
				"x": -1.1262946428,
				"y": -2.7358716073,
				"z": -1.8232116887,
				"element": "H" 
			},
			{
				"x": -0.2343851117,
				"y": -3.3104555588,
				"z": -0.3930242379,
				"element": "H" 
			},
			{
				"x": 0.0474236848,
				"y": 0.8447031438,
				"z": -1.6053462106,
				"element": "H" 
			},
			{
				"x": 0.7930637769,
				"y": -0.4157064409,
				"z": -2.6149949326,
				"element": "H" 
			},
			{
				"x": -0.9732105037,
				"y": -0.2777252681,
				"z": -2.5240819223,
				"element": "H" 
			},
			{
				"x": -2.3881301036,
				"y": -1.4795512408,
				"z": -0.1817869476,
				"element": "H" 
			},
			{
				"x": 2.1827304026,
				"y": 0.2189617155,
				"z": 1.0729453502,
				"element": "H" 
			}
		],
		 "valence_orbital": [ 
			{
				"type": "occ",
				"energy": -0.36086,
				"method": "rhf"
			},
			{
				"type": "occ",
				"energy": -0.32812,
				"method": "rhf"
			},
			{
				"type": "occ",
				"energy": -0.32027,
				"method": "rhf"
			},
			{
				"type": "occ",
				"energy": -0.28336,
				"method": "rhf"
			},
			{
				"type": "occ",
				"energy": -0.2433,
				"method": "rhf"
			},
			{
				"type": "unocc",
				"energy": -0.01131,
				"method": "rhf"
			},
			{
				"type": "unocc",
				"energy": 0.02218,
				"method": "rhf"
			},
			{
				"type": "unocc",
				"energy": 0.0644,
				"method": "rhf"
			},
			{
				"type": "unocc",
				"energy": 0.07955,
				"method": "rhf"
			},
			{
				"type": "unocc",
				"energy": 0.10195,
				"method": "rhf"
			}
		],
		"cosmo_sigma_profile": { 
			"-0.025": 0.0,
			"-0.024": 0.0,
			"-0.023": 0.0,
			"-0.022": 0.0,
			"-0.021": 0.0,
			"-0.02": 0.0,
			"-0.019": 0.23949410291,
			"-0.018": 0.999976993506,
			"-0.017": 1.06108032492,
			"-0.016": 0.630518056267,
			"-0.015": 0.645065809726,
			"-0.014": 0.376978733811,
			"-0.013": 0.830523172614,
			"-0.012": 0.930912435536,
			"-0.011": 1.22868353409,
			"-0.01": 0.784977548063,
			"-0.009": 2.54497151328,
			"-0.008": 3.09806499333,
			"-0.007": 3.11711885965,
			"-0.006": 4.36978112113,
			"-0.005": 7.84073087457,
			"-0.004": 11.7026871599,
			"-0.003": 11.573702135,
			"-0.002": 12.454007625,
			"-0.001": 15.8955172513,
			"0.0": 13.4392197737,
			"0.001": 6.32499003993,
			"0.002": 5.36699484476,
			"0.003": 5.2007760369,
			"0.004": 6.29818316537,
			"0.005": 8.10458273056,
			"0.006": 5.24147452905,
			"0.007": 5.84388754052,
			"0.008": 5.52749069094,
			"0.009": 4.02736842311,
			"0.01": 3.77847200096,
			"0.011": 4.62378531682,
			"0.012": 2.11339077282,
			"0.013": 0.0,
			"0.014": 0.0,
			"0.015": 0.0,
			"0.016": 0.0,
			"0.017": 0.0,
			"0.018": 0.0,
			"0.019": 0.0,
			"0.02": 0.0,
			"0.021": 0.0,
			"0.022": 0.0,
			"0.023": 0.0,
			"0.024": 0.0,
			"0.025": 0.0
		}
	}
}
