{
	 "smiles": "OC(=O)COC1=C(F)C=C(C=C1)S(Cl)(=O)=O", 
	 "Tm": 405.15, 
	 "num_atms": 22, 
	 "gaussian": { 
		 "optdone": 1, 
		 "sigma_profile": "yes", 
		 "theory": "DFT", 
		 "functional": "B3LYP", 
		 "basiset": "6-31G**", 
		 "properties": { 
			 "R2extent": 6500.9145, 
			 "electric_dipole_moment_norm": 1.48635654202, 
			 "electric_quadrupole_moment_norm": 32.9350339013, 
			 "total_energy": -1642.71663972, 
			 "HOMO_LUMO_gap": 0.17897, 
			 "cosmo_polarized_energy": -18.73, 
			 "cosmo_cavitation_energy": 31.78, 
			 "cosmo_dispersion_energy": -23.41, 
			 "cosmo_repulsion_energy": 1.78, 
			 "cosmo_total_nonelectrostatic_energy": 10.14, 
			 "SMD_solvation_energy": 6.21 
		},
		"coords": [
			{
				"x": 3.970634507,
				"y": 0.5885079163,
				"z": 2.986307977,
				"element": "O" 
			},
			{
				"x": 4.191487926,
				"y": 1.4450881572,
				"z": 1.9764255873,
				"element": "C" 
			},
			{
				"x": 4.9905667364,
				"y": 2.3440234985,
				"z": 2.035708026,
				"element": "O" 
			},
			{
				"x": 3.3617807819,
				"y": 1.2230292873,
				"z": 0.710684474,
				"element": "C" 
			},
			{
				"x": 2.5057199272,
				"y": 0.0806441014,
				"z": 0.9089477603,
				"element": "O" 
			},
			{
				"x": 1.3840830713,
				"y": -0.0893859887,
				"z": 0.1544838626,
				"element": "C" 
			},
			{
				"x": 1.294796254,
				"y": 0.2508815233,
				"z": -1.2058254921,
				"element": "C" 
			},
			{
				"x": 2.3614314722,
				"y": 0.7931523159,
				"z": -1.8264361069,
				"element": "F" 
			},
			{
				"x": 0.1381617041,
				"y": 0.0311346103,
				"z": -1.9355515973,
				"element": "C" 
			},
			{
				"x": -0.9427725156,
				"y": -0.5675318072,
				"z": -1.2886533267,
				"element": "C" 
			},
			{
				"x": -0.8874285496,
				"y": -0.9420777595,
				"z": 0.0543419444,
				"element": "C" 
			},
			{
				"x": 0.2802936266,
				"y": -0.6948121795,
				"z": 0.7678669119,
				"element": "C" 
			},
			{
				"x": -2.4309539566,
				"y": -0.8787117135,
				"z": -2.2215743804,
				"element": "S" 
			},
			{
				"x": -3.513541815,
				"y": 0.928022428,
				"z": -1.8981892223,
				"element": "Cl" 
			},
			{
				"x": -2.1074211939,
				"y": -0.9100371426,
				"z": -3.6417628763,
				"element": "O" 
			},
			{
				"x": -3.1927807918,
				"y": -1.9324834589,
				"z": -1.5647470662,
				"element": "O" 
			},
			{
				"x": 3.2877866048,
				"y": -0.0451208343,
				"z": 2.7060838627,
				"element": "H" 
			},
			{
				"x": 2.770685816,
				"y": 2.1241031088,
				"z": 0.5206408841,
				"element": "H" 
			},
			{
				"x": 4.0395152989,
				"y": 1.0642825877,
				"z": -0.1302584254,
				"element": "H" 
			},
			{
				"x": 0.1010517023,
				"y": 0.2977247324,
				"z": -2.9853572687,
				"element": "H" 
			},
			{
				"x": -1.7397417472,
				"y": -1.4158062993,
				"z": 0.5269378397,
				"element": "H" 
			},
			{
				"x": 0.3603451411,
				"y": -0.9673270837,
				"z": 1.8146266323,
				"element": "H" 
			}
		],
		 "valence_orbital": [ 
			{
				"type": "occ",
				"energy": -0.32956,
				"method": "rhf"
			},
			{
				"type": "occ",
				"energy": -0.32375,
				"method": "rhf"
			},
			{
				"type": "occ",
				"energy": -0.30398,
				"method": "rhf"
			},
			{
				"type": "occ",
				"energy": -0.29356,
				"method": "rhf"
			},
			{
				"type": "occ",
				"energy": -0.28049,
				"method": "rhf"
			},
			{
				"type": "unocc",
				"energy": -0.10152,
				"method": "rhf"
			},
			{
				"type": "unocc",
				"energy": -0.0597,
				"method": "rhf"
			},
			{
				"type": "unocc",
				"energy": -0.05134,
				"method": "rhf"
			},
			{
				"type": "unocc",
				"energy": -0.00716,
				"method": "rhf"
			},
			{
				"type": "unocc",
				"energy": 0.02571,
				"method": "rhf"
			}
		],
		"cosmo_sigma_profile": { 
			"-0.025": 0.0,
			"-0.024": 0.0,
			"-0.023": 0.0,
			"-0.022": 0.0,
			"-0.021": 0.0,
			"-0.02": 0.0,
			"-0.019": 0.0,
			"-0.018": 0.0,
			"-0.017": 0.0,
			"-0.016": 0.0,
			"-0.015": 0.583868579115,
			"-0.014": 0.96679288197,
			"-0.013": 0.559065158053,
			"-0.012": 0.479642519531,
			"-0.011": 1.03650862916,
			"-0.01": 2.1995513467,
			"-0.009": 10.0862291642,
			"-0.008": 12.1238815739,
			"-0.007": 11.5467687132,
			"-0.006": 11.4901944036,
			"-0.005": 10.0835898508,
			"-0.004": 11.0901227476,
			"-0.003": 13.2765620698,
			"-0.002": 20.5956945205,
			"-0.001": 20.8876799839,
			"0.0": 16.6314674014,
			"0.001": 13.7918259417,
			"0.002": 15.0066678365,
			"0.003": 21.0733379247,
			"0.004": 9.85059363222,
			"0.005": 4.63483223524,
			"0.006": 6.01207312636,
			"0.007": 9.44311521941,
			"0.008": 12.5416583544,
			"0.009": 8.26818140335,
			"0.01": 3.96721123189,
			"0.011": 5.50079140194,
			"0.012": 3.83512257413,
			"0.013": 0.567723658797,
			"0.014": 0.0,
			"0.015": 0.0,
			"0.016": 0.0,
			"0.017": 0.0,
			"0.018": 0.0,
			"0.019": 0.0,
			"0.02": 0.0,
			"0.021": 0.0,
			"0.022": 0.0,
			"0.023": 0.0,
			"0.024": 0.0,
			"0.025": 0.0
		}
	}
}
