{
	 "smiles": "CC1=CC(=CC=C1Br)C(O)=O", 
	 "Tm": 489.65, 
	 "num_atms": 18, 
	 "gaussian": { 
		 "optdone": 1, 
		 "sigma_profile": "yes", 
		 "theory": "DFT", 
		 "functional": "B3LYP", 
		 "basiset": "6-31G**", 
		 "properties": { 
			 "R2extent": 3808.2493, 
			 "electric_dipole_moment_norm": 3.41245116302, 
			 "electric_quadrupole_moment_norm": 19.2304373195, 
			 "total_energy": -3030.93754016, 
			 "HOMO_LUMO_gap": 0.19824, 
			 "cosmo_polarized_energy": -13.14, 
			 "cosmo_cavitation_energy": 24.61, 
			 "cosmo_dispersion_energy": -18.53, 
			 "cosmo_repulsion_energy": 1.48, 
			 "cosmo_total_nonelectrostatic_energy": 7.56, 
			 "SMD_solvation_energy": 4.37 
		},
		"coords": [
			{
				"x": -0.3536275927,
				"y": -2.9732669749,
				"z": 0.3464683438,
				"element": "C" 
			},
			{
				"x": -0.2267716333,
				"y": -1.6865922371,
				"z": -0.4259902779,
				"element": "C" 
			},
			{
				"x": -1.2178123014,
				"y": -0.7039308851,
				"z": -0.3439489089,
				"element": "C" 
			},
			{
				"x": -1.1274924518,
				"y": 0.5089132558,
				"z": -1.0366416492,
				"element": "C" 
			},
			{
				"x": -0.0237036191,
				"y": 0.7412239157,
				"z": -1.8665320606,
				"element": "C" 
			},
			{
				"x": 0.9769207618,
				"y": -0.2206236967,
				"z": -1.9783062554,
				"element": "C" 
			},
			{
				"x": 0.8711539408,
				"y": -1.409480086,
				"z": -1.2583123134,
				"element": "C" 
			},
			{
				"x": 2.2800041252,
				"y": -2.6892692408,
				"z": -1.4398364676,
				"element": "Br" 
			},
			{
				"x": -2.2538982488,
				"y": 1.4850750448,
				"z": -0.8727362023,
				"element": "C" 
			},
			{
				"x": -1.9938773248,
				"y": 2.780004538,
				"z": -1.1978215701,
				"element": "O" 
			},
			{
				"x": -3.3505207127,
				"y": 1.1711097601,
				"z": -0.473876361,
				"element": "O" 
			},
			{
				"x": 0.4856814116,
				"y": -3.10477303,
				"z": 1.0375547629,
				"element": "H" 
			},
			{
				"x": -1.2812847968,
				"y": -2.9870840416,
				"z": 0.922780064,
				"element": "H" 
			},
			{
				"x": -0.3496751971,
				"y": -3.8389159944,
				"z": -0.3241796495,
				"element": "H" 
			},
			{
				"x": -2.0938050584,
				"y": -0.8714113287,
				"z": 0.2743933704,
				"element": "H" 
			},
			{
				"x": 0.0542194839,
				"y": 1.6451262117,
				"z": -2.465324236,
				"element": "H" 
			},
			{
				"x": 1.8311888319,
				"y": -0.0559530264,
				"z": -2.6245663783,
				"element": "H" 
			},
			{
				"x": -1.0449996186,
				"y": 2.9080478158,
				"z": -1.3335242107,
				"element": "H" 
			}
		],
		 "valence_orbital": [ 
			{
				"type": "occ",
				"energy": -0.31687,
				"method": "rhf"
			},
			{
				"type": "occ",
				"energy": -0.29982,
				"method": "rhf"
			},
			{
				"type": "occ",
				"energy": -0.27951,
				"method": "rhf"
			},
			{
				"type": "occ",
				"energy": -0.27268,
				"method": "rhf"
			},
			{
				"type": "occ",
				"energy": -0.25759,
				"method": "rhf"
			},
			{
				"type": "unocc",
				"energy": -0.05935,
				"method": "rhf"
			},
			{
				"type": "unocc",
				"energy": -0.02955,
				"method": "rhf"
			},
			{
				"type": "unocc",
				"energy": -0.00481,
				"method": "rhf"
			},
			{
				"type": "unocc",
				"energy": 0.03777,
				"method": "rhf"
			},
			{
				"type": "unocc",
				"energy": 0.06156,
				"method": "rhf"
			}
		],
		"cosmo_sigma_profile": { 
			"-0.025": 0.0,
			"-0.024": 0.0,
			"-0.023": 0.0,
			"-0.022": 0.0,
			"-0.021": 0.0,
			"-0.02": 0.0,
			"-0.019": 0.178195530971,
			"-0.018": 0.689639554335,
			"-0.017": 1.0963059359,
			"-0.016": 1.2133237946,
			"-0.015": 1.2596708483,
			"-0.014": 0.822047316128,
			"-0.013": 0.832924185672,
			"-0.012": 0.950964676425,
			"-0.011": 1.55413845293,
			"-0.01": 1.49185321561,
			"-0.009": 1.62377909694,
			"-0.008": 2.22728467296,
			"-0.007": 5.48483153451,
			"-0.006": 6.66100079808,
			"-0.005": 7.55300909906,
			"-0.004": 11.5984192702,
			"-0.003": 13.3548000248,
			"-0.002": 14.2587308156,
			"-0.001": 18.5647795028,
			"0.0": 17.2887505299,
			"0.001": 16.8294010641,
			"0.002": 21.2036890188,
			"0.003": 12.5095879604,
			"0.004": 10.4984335729,
			"0.005": 3.21634425403,
			"0.006": 2.07399314002,
			"0.007": 2.66607652142,
			"0.008": 2.74422032511,
			"0.009": 3.13035154678,
			"0.01": 5.1088259674,
			"0.011": 5.13939602333,
			"0.012": 4.76972194945,
			"0.013": 1.2305583845,
			"0.014": 0.0153630070531,
			"0.015": 0.0,
			"0.016": 0.0,
			"0.017": 0.0,
			"0.018": 0.0,
			"0.019": 0.0,
			"0.02": 0.0,
			"0.021": 0.0,
			"0.022": 0.0,
			"0.023": 0.0,
			"0.024": 0.0,
			"0.025": 0.0
		}
	}
}
