{
	 "smiles": "OC1=CC=C2C=CC=CC2=C1CC1=C(O)C=CC2=CC=CC=C12", 
	 "Tm": 462.15, 
	 "num_atms": 39, 
	 "gaussian": { 
		 "optdone": 1, 
		 "sigma_profile": "yes", 
		 "theory": "DFT", 
		 "functional": "B3LYP", 
		 "basiset": "6-31G**", 
		 "properties": { 
			 "R2extent": 7788.7975, 
			 "electric_dipole_moment_norm": 3.40411954109, 
			 "electric_quadrupole_moment_norm": 14.8264095492, 
			 "total_energy": -960.344827475, 
			 "HOMO_LUMO_gap": 0.15147, 
			 "cosmo_polarized_energy": -14.8, 
			 "cosmo_cavitation_energy": 40.39, 
			 "cosmo_dispersion_energy": -29.2, 
			 "cosmo_repulsion_energy": 2.14, 
			 "cosmo_total_nonelectrostatic_energy": 13.33, 
			 "SMD_solvation_energy": 6.36 
		},
		"coords": [
			{
				"x": 1.5230616139,
				"y": -0.5510554969,
				"z": 2.8482849404,
				"element": "O" 
			},
			{
				"x": 1.3202159948,
				"y": -1.0887644314,
				"z": 1.6063280533,
				"element": "C" 
			},
			{
				"x": 1.8511219515,
				"y": -2.3902595818,
				"z": 1.4133663822,
				"element": "C" 
			},
			{
				"x": 1.7082840461,
				"y": -3.0270285362,
				"z": 0.2093614489,
				"element": "C" 
			},
			{
				"x": 1.0404541504,
				"y": -2.389533672,
				"z": -0.8699923194,
				"element": "C" 
			},
			{
				"x": 0.9005170937,
				"y": -3.0314525251,
				"z": -2.1280583196,
				"element": "C" 
			},
			{
				"x": 0.2458177317,
				"y": -2.4189684791,
				"z": -3.172587682,
				"element": "C" 
			},
			{
				"x": -0.2949198595,
				"y": -1.1262987208,
				"z": -2.9898326704,
				"element": "C" 
			},
			{
				"x": -0.1757407087,
				"y": -0.476198831,
				"z": -1.7797579535,
				"element": "C" 
			},
			{
				"x": 0.4909399806,
				"y": -1.0764512954,
				"z": -0.6745309352,
				"element": "C" 
			},
			{
				"x": 0.6174281408,
				"y": -0.4310622142,
				"z": 0.6015218096,
				"element": "C" 
			},
			{
				"x": -0.1052378653,
				"y": 0.8804693423,
				"z": 0.911959527,
				"element": "C" 
			},
			{
				"x": 0.4824454978,
				"y": 2.1756634349,
				"z": 0.3555458021,
				"element": "C" 
			},
			{
				"x": 1.7416948307,
				"y": 2.5811801694,
				"z": 0.7697861116,
				"element": "C" 
			},
			{
				"x": 2.384540249,
				"y": 1.8181808505,
				"z": 1.7222504221,
				"element": "O" 
			},
			{
				"x": 2.3732088828,
				"y": 3.7455946731,
				"z": 0.2779768359,
				"element": "C" 
			},
			{
				"x": 1.7243160261,
				"y": 4.5425935905,
				"z": -0.6304053825,
				"element": "C" 
			},
			{
				"x": 0.4103311037,
				"y": 4.2242098778,
				"z": -1.0550886871,
				"element": "C" 
			},
			{
				"x": -0.2836040579,
				"y": 5.0710823015,
				"z": -1.9605318263,
				"element": "C" 
			},
			{
				"x": -1.5702821676,
				"y": 4.7907144184,
				"z": -2.3549609462,
				"element": "C" 
			},
			{
				"x": -2.216229683,
				"y": 3.6410265394,
				"z": -1.8451088753,
				"element": "C" 
			},
			{
				"x": -1.5681107418,
				"y": 2.794989381,
				"z": -0.9722344053,
				"element": "C" 
			},
			{
				"x": -0.2278005527,
				"y": 3.0377871967,
				"z": -0.5480786428,
				"element": "C" 
			},
			{
				"x": 1.6888042032,
				"y": 0.3991454729,
				"z": 2.7295195771,
				"element": "H" 
			},
			{
				"x": 2.3729697769,
				"y": -2.8490054564,
				"z": 2.2469208466,
				"element": "H" 
			},
			{
				"x": 2.1146347971,
				"y": -4.0244088556,
				"z": 0.0620334548,
				"element": "H" 
			},
			{
				"x": 1.324360006,
				"y": -4.0254758594,
				"z": -2.2499634643,
				"element": "H" 
			},
			{
				"x": 0.1461114359,
				"y": -2.9209158308,
				"z": -4.130574393,
				"element": "H" 
			},
			{
				"x": -0.8062105483,
				"y": -0.635088653,
				"z": -3.8132433088,
				"element": "H" 
			},
			{
				"x": -0.5852297593,
				"y": 0.5206644342,
				"z": -1.6812803118,
				"element": "H" 
			},
			{
				"x": -1.1363031958,
				"y": 0.7762720164,
				"z": 0.570904453,
				"element": "H" 
			},
			{
				"x": -0.1747445523,
				"y": 0.9701397429,
				"z": 2.0019281372,
				"element": "H" 
			},
			{
				"x": 3.28730849,
				"y": 2.1356465332,
				"z": 1.8470815017,
				"element": "H" 
			},
			{
				"x": 3.3709634181,
				"y": 4.0021733081,
				"z": 0.6285189312,
				"element": "H" 
			},
			{
				"x": 2.2052794383,
				"y": 5.4356945875,
				"z": -1.0190836918,
				"element": "H" 
			},
			{
				"x": 0.2268809324,
				"y": 5.9561324041,
				"z": -2.3320362701,
				"element": "H" 
			},
			{
				"x": -2.0913553163,
				"y": 5.4471258017,
				"z": -3.0452598195,
				"element": "H" 
			},
			{
				"x": -3.2384421964,
				"y": 3.4228872712,
				"z": -2.1408952421,
				"element": "H" 
			},
			{
				"x": -2.1060785869,
				"y": 1.9328950912,
				"z": -0.596283088,
				"element": "H" 
			}
		],
		 "valence_orbital": [ 
			{
				"type": "occ",
				"energy": -0.263,
				"method": "rhf"
			},
			{
				"type": "occ",
				"energy": -0.24066,
				"method": "rhf"
			},
			{
				"type": "occ",
				"energy": -0.22011,
				"method": "rhf"
			},
			{
				"type": "occ",
				"energy": -0.21118,
				"method": "rhf"
			},
			{
				"type": "occ",
				"energy": -0.1948,
				"method": "rhf"
			},
			{
				"type": "unocc",
				"energy": -0.04333,
				"method": "rhf"
			},
			{
				"type": "unocc",
				"energy": -0.02639,
				"method": "rhf"
			},
			{
				"type": "unocc",
				"energy": -0.00921,
				"method": "rhf"
			},
			{
				"type": "unocc",
				"energy": 0.0086,
				"method": "rhf"
			},
			{
				"type": "unocc",
				"energy": 0.02528,
				"method": "rhf"
			}
		],
		"cosmo_sigma_profile": { 
			"-0.025": 0.0,
			"-0.024": 0.0,
			"-0.023": 0.0,
			"-0.022": 0.0,
			"-0.021": 0.0,
			"-0.02": 0.0,
			"-0.019": 0.49095268946,
			"-0.018": 1.17949120777,
			"-0.017": 1.12544982806,
			"-0.016": 0.876178086343,
			"-0.015": 1.06316847197,
			"-0.014": 0.704507599934,
			"-0.013": 0.938674460195,
			"-0.012": 1.02927214067,
			"-0.011": 1.51320970324,
			"-0.01": 0.96103125103,
			"-0.009": 0.895885659202,
			"-0.008": 2.07615743623,
			"-0.007": 4.94150883997,
			"-0.006": 16.1630744,
			"-0.005": 25.3785189044,
			"-0.004": 24.3193586203,
			"-0.003": 23.4072957303,
			"-0.002": 18.7723550517,
			"-0.001": 18.7330651086,
			"0.0": 17.0271272056,
			"0.001": 16.9328321948,
			"0.002": 20.4777994184,
			"0.003": 27.7240589792,
			"0.004": 42.7038994896,
			"0.005": 32.7673373411,
			"0.006": 12.28217447,
			"0.007": 1.57544792802,
			"0.008": 1.36157621799,
			"0.009": 1.40666793791,
			"0.01": 1.10620925197,
			"0.011": 1.8742846667,
			"0.012": 1.61657093386,
			"0.013": 0.684844422566,
			"0.014": 0.0,
			"0.015": 0.0,
			"0.016": 0.0,
			"0.017": 0.0,
			"0.018": 0.0,
			"0.019": 0.0,
			"0.02": 0.0,
			"0.021": 0.0,
			"0.022": 0.0,
			"0.023": 0.0,
			"0.024": 0.0,
			"0.025": 0.0
		}
	}
}
