{
	 "smiles": "CNC1=NC=C(I)C=N1", 
	 "Tm": 408.15, 
	 "num_atms": 15, 
	 "gaussian": { 
		 "optdone": 1, 
		 "sigma_profile": "yes", 
		 "theory": "DFT", 
		 "functional": "B3LYP", 
		 "basiset": "6-31G**", 
		 "properties": { 
			 "R2extent": 1827.8207, 
			 "electric_dipole_moment_norm": 2.25079096097, 
			 "electric_quadrupole_moment_norm": 6.85585850642, 
			 "total_energy": -369.790608193, 
			 "HOMO_LUMO_gap": 0.17779, 
			 "cosmo_polarized_energy": -7.41, 
			 "cosmo_cavitation_energy": 22.48, 
			 "cosmo_dispersion_energy": -18.39, 
			 "cosmo_repulsion_energy": 1.48, 
			 "cosmo_total_nonelectrostatic_energy": 5.56, 
			 "SMD_solvation_energy": 0.15 
		},
		"coords": [
			{
				"x": -3.2949029872,
				"y": -1.5786590116,
				"z": 0.8003149045,
				"element": "C" 
			},
			{
				"x": -2.1351877901,
				"y": -0.709894279,
				"z": 0.7595315571,
				"element": "N" 
			},
			{
				"x": -1.134231092,
				"y": -0.8299200125,
				"z": -0.1470208225,
				"element": "C" 
			},
			{
				"x": -1.2083310623,
				"y": -1.8474408731,
				"z": -1.0305337228,
				"element": "N" 
			},
			{
				"x": -0.204537467,
				"y": -1.9445558939,
				"z": -1.9016107371,
				"element": "C" 
			},
			{
				"x": 0.8656620584,
				"y": -1.0493963716,
				"z": -1.9108444459,
				"element": "C" 
			},
			{
				"x": 2.4415550203,
				"y": -1.2199133103,
				"z": -3.3001142428,
				"element": "I" 
			},
			{
				"x": 0.8398013852,
				"y": -0.0283906841,
				"z": -0.9530035241,
				"element": "C" 
			},
			{
				"x": -0.1454301816,
				"y": 0.093332521,
				"z": -0.0715771666,
				"element": "N" 
			},
			{
				"x": -2.9962407436,
				"y": -2.6263970643,
				"z": 0.9018407485,
				"element": "H" 
			},
			{
				"x": -3.9021126925,
				"y": -1.4909891233,
				"z": -0.1082204763,
				"element": "H" 
			},
			{
				"x": -3.9056303379,
				"y": -1.2999992243,
				"z": 1.6612688339,
				"element": "H" 
			},
			{
				"x": -2.0669236209,
				"y": 0.0824705033,
				"z": 1.3781196663,
				"element": "H" 
			},
			{
				"x": -0.2576710024,
				"y": -2.7633183234,
				"z": -2.6162684503,
				"element": "H" 
			},
			{
				"x": 1.6376805136,
				"y": 0.7095711471,
				"z": -0.899382122,
				"element": "H" 
			}
		],
		 "valence_orbital": [ 
			{
				"type": "occ",
				"energy": -0.31424,
				"method": "rhf"
			},
			{
				"type": "occ",
				"energy": -0.27595,
				"method": "rhf"
			},
			{
				"type": "occ",
				"energy": -0.27443,
				"method": "rhf"
			},
			{
				"type": "occ",
				"energy": -0.25205,
				"method": "rhf"
			},
			{
				"type": "occ",
				"energy": -0.21849,
				"method": "rhf"
			},
			{
				"type": "unocc",
				"energy": -0.0407,
				"method": "rhf"
			},
			{
				"type": "unocc",
				"energy": -0.03911,
				"method": "rhf"
			},
			{
				"type": "unocc",
				"energy": -0.0096,
				"method": "rhf"
			},
			{
				"type": "unocc",
				"energy": 0.04362,
				"method": "rhf"
			},
			{
				"type": "unocc",
				"energy": 0.04904,
				"method": "rhf"
			}
		],
		"cosmo_sigma_profile": { 
			"-0.025": 0.0,
			"-0.024": 0.0,
			"-0.023": 0.0,
			"-0.022": 0.0,
			"-0.021": 0.0,
			"-0.02": 0.0,
			"-0.019": 0.0,
			"-0.018": 0.0,
			"-0.017": 0.0,
			"-0.016": 0.0,
			"-0.015": 0.0,
			"-0.014": 0.580582504882,
			"-0.013": 1.43017161152,
			"-0.012": 0.641948701932,
			"-0.011": 0.852681662337,
			"-0.01": 1.40688933951,
			"-0.009": 0.616401579986,
			"-0.008": 2.43070973063,
			"-0.007": 6.64410205068,
			"-0.006": 7.33243221287,
			"-0.005": 7.94255961422,
			"-0.004": 11.7578715752,
			"-0.003": 11.7511387034,
			"-0.002": 14.9805561852,
			"-0.001": 15.8378088653,
			"0.0": 16.4612625911,
			"0.001": 17.4153398817,
			"0.002": 14.0591963561,
			"0.003": 13.2427358092,
			"0.004": 16.3202795348,
			"0.005": 5.87886677467,
			"0.006": 2.73648923255,
			"0.007": 2.56809237017,
			"0.008": 2.61612479081,
			"0.009": 1.4080700879,
			"0.01": 2.21485642399,
			"0.011": 1.88283121792,
			"0.012": 1.73854621746,
			"0.013": 1.19803860992,
			"0.014": 0.821114666504,
			"0.015": 0.0436966325964,
			"0.016": 0.0,
			"0.017": 0.0,
			"0.018": 0.0,
			"0.019": 0.0,
			"0.02": 0.0,
			"0.021": 0.0,
			"0.022": 0.0,
			"0.023": 0.0,
			"0.024": 0.0,
			"0.025": 0.0
		}
	}
}
