{
	 "smiles": "[O-][N+](=O)C1=CC=C(NC(=O)CCl)C=C1", 
	 "Tm": 459.15, 
	 "num_atms": 21, 
	 "gaussian": { 
		 "optdone": 1, 
		 "sigma_profile": "yes", 
		 "theory": "DFT", 
		 "functional": "B3LYP", 
		 "basiset": "6-31G**", 
		 "properties": { 
			 "R2extent": 6253.1924, 
			 "electric_dipole_moment_norm": 1.40806911052, 
			 "electric_quadrupole_moment_norm": 37.4136012466, 
			 "total_energy": -1104.34239114, 
			 "HOMO_LUMO_gap": 0.1633, 
			 "cosmo_polarized_energy": -20.15, 
			 "cosmo_cavitation_energy": 28.44, 
			 "cosmo_dispersion_energy": -20.94, 
			 "cosmo_repulsion_energy": 1.66, 
			 "cosmo_total_nonelectrostatic_energy": 9.16, 
			 "SMD_solvation_energy": 7.53 
		},
		"coords": [
			{
				"x": -3.4909551418,
				"y": 0.9980223906,
				"z": -5.394928049,
				"element": "O" 
			},
			{
				"x": -3.106054453,
				"y": 0.0173262807,
				"z": -4.7580402014,
				"element": "N" 
			},
			{
				"x": -3.2312669243,
				"y": -1.1518635183,
				"z": -5.122656501,
				"element": "O" 
			},
			{
				"x": -2.4503166144,
				"y": 0.2603278366,
				"z": -3.4693469829,
				"element": "C" 
			},
			{
				"x": -1.9815362077,
				"y": -0.8218715232,
				"z": -2.7290045404,
				"element": "C" 
			},
			{
				"x": -1.351901826,
				"y": -0.5935381121,
				"z": -1.5105107628,
				"element": "C" 
			},
			{
				"x": -1.2148523391,
				"y": 0.7159760353,
				"z": -1.0163254496,
				"element": "C" 
			},
			{
				"x": -0.578197751,
				"y": 1.018418664,
				"z": 0.1976767399,
				"element": "N" 
			},
			{
				"x": -0.515130911,
				"y": 0.3799749354,
				"z": 1.4340414992,
				"element": "C" 
			},
			{
				"x": 0.0956373909,
				"y": 0.9025682284,
				"z": 2.3436607515,
				"element": "O" 
			},
			{
				"x": -1.2455671478,
				"y": -0.9580759297,
				"z": 1.5697236355,
				"element": "C" 
			},
			{
				"x": -1.6168299113,
				"y": -1.3394993693,
				"z": 3.2783698951,
				"element": "Cl" 
			},
			{
				"x": -1.6856113134,
				"y": 1.7927582487,
				"z": -1.793229923,
				"element": "C" 
			},
			{
				"x": -2.2981773181,
				"y": 1.5711906235,
				"z": -3.0174629602,
				"element": "C" 
			},
			{
				"x": -2.0943695415,
				"y": -1.8237650651,
				"z": -3.1239863652,
				"element": "H" 
			},
			{
				"x": -0.9376299164,
				"y": -1.4340568917,
				"z": -0.9688800538,
				"element": "H" 
			},
			{
				"x": -0.1631327404,
				"y": 1.9410741818,
				"z": 0.2630056521,
				"element": "H" 
			},
			{
				"x": -0.6100085559,
				"y": -1.7631633169,
				"z": 1.1928120996,
				"element": "H" 
			},
			{
				"x": -2.1829345561,
				"y": -0.9621047159,
				"z": 1.0124734094,
				"element": "H" 
			},
			{
				"x": -1.5791480205,
				"y": 2.8066921543,
				"z": -1.419001151,
				"element": "H" 
			},
			{
				"x": -2.6699162012,
				"y": 2.3894088628,
				"z": -3.6213907419,
				"element": "H" 
			}
		],
		 "valence_orbital": [ 
			{
				"type": "occ",
				"energy": -0.3112,
				"method": "rhf"
			},
			{
				"type": "occ",
				"energy": -0.29887,
				"method": "rhf"
			},
			{
				"type": "occ",
				"energy": -0.29729,
				"method": "rhf"
			},
			{
				"type": "occ",
				"energy": -0.28997,
				"method": "rhf"
			},
			{
				"type": "occ",
				"energy": -0.2628,
				"method": "rhf"
			},
			{
				"type": "unocc",
				"energy": -0.0995,
				"method": "rhf"
			},
			{
				"type": "unocc",
				"energy": -0.04804,
				"method": "rhf"
			},
			{
				"type": "unocc",
				"energy": -0.0309,
				"method": "rhf"
			},
			{
				"type": "unocc",
				"energy": 5e-05,
				"method": "rhf"
			},
			{
				"type": "unocc",
				"energy": 0.01833,
				"method": "rhf"
			}
		],
		"cosmo_sigma_profile": { 
			"-0.025": 0.0,
			"-0.024": 0.0,
			"-0.023": 0.0,
			"-0.022": 0.0,
			"-0.021": 0.0,
			"-0.02": 0.0,
			"-0.019": 0.0,
			"-0.018": 0.0,
			"-0.017": 0.0,
			"-0.016": 0.289684660837,
			"-0.015": 1.26644598833,
			"-0.014": 1.40475477326,
			"-0.013": 1.60900728729,
			"-0.012": 1.84698508515,
			"-0.011": 3.12126466813,
			"-0.01": 5.13627621569,
			"-0.009": 6.79067282902,
			"-0.008": 8.24497909554,
			"-0.007": 10.1152592819,
			"-0.006": 10.1632308425,
			"-0.005": 9.65624131148,
			"-0.004": 10.2119633667,
			"-0.003": 11.0794347661,
			"-0.002": 10.9760932497,
			"-0.001": 17.5143762424,
			"0.0": 18.1635103768,
			"0.001": 16.4093086831,
			"0.002": 8.40903419489,
			"0.003": 6.14313253418,
			"0.004": 9.3897371345,
			"0.005": 10.3660825142,
			"0.006": 8.39195849382,
			"0.007": 9.56923320715,
			"0.008": 10.6539821018,
			"0.009": 6.86290801338,
			"0.01": 5.21737971526,
			"0.011": 4.29118999474,
			"0.012": 5.1430923758,
			"0.013": 1.77477940906,
			"0.014": 0.0661914881896,
			"0.015": 0.0,
			"0.016": 0.0,
			"0.017": 0.0,
			"0.018": 0.0,
			"0.019": 0.0,
			"0.02": 0.0,
			"0.021": 0.0,
			"0.022": 0.0,
			"0.023": 0.0,
			"0.024": 0.0,
			"0.025": 0.0
		}
	}
}
