{
	 "smiles": "NC1=C(C#N)C(=CC2=C(C#N)C(=N)N(N12)C(=O)C1=CC=C(Cl)C=C1)C1=CC=C(Br)C=C1", 
	 "Tm": 463.15, 
	 "num_atms": 43, 
	 "gaussian": { 
		 "optdone": 1, 
		 "sigma_profile": "yes", 
		 "theory": "DFT", 
		 "functional": "B3LYP", 
		 "basiset": "6-31G**", 
		 "properties": { 
			 "R2extent": 26760.9773, 
			 "electric_dipole_moment_norm": 2.75205707063, 
			 "electric_quadrupole_moment_norm": 27.3104457368, 
			 "total_energy": -4280.83686323, 
			 "HOMO_LUMO_gap": 0.1226, 
			 "cosmo_polarized_energy": -23.34, 
			 "cosmo_cavitation_energy": 54.57, 
			 "cosmo_dispersion_energy": -37.69, 
			 "cosmo_repulsion_energy": 2.8, 
			 "cosmo_total_nonelectrostatic_energy": 19.68, 
			 "SMD_solvation_energy": 9.15 
		},
		"coords": [
			{
				"x": -1.4578454877,
				"y": -0.2801584368,
				"z": -1.3938885337,
				"element": "N" 
			},
			{
				"x": -0.3251160583,
				"y": 0.2185502399,
				"z": -0.83459214,
				"element": "C" 
			},
			{
				"x": 0.4443625555,
				"y": 1.232787219,
				"z": -1.4496255597,
				"element": "C" 
			},
			{
				"x": -0.0003961457,
				"y": 1.6505656275,
				"z": -2.7340954584,
				"element": "C" 
			},
			{
				"x": -0.4387976151,
				"y": 1.927184504,
				"z": -3.7791348775,
				"element": "N" 
			},
			{
				"x": 1.5654832683,
				"y": 1.8207433008,
				"z": -0.7790712934,
				"element": "C" 
			},
			{
				"x": 1.8648664188,
				"y": 1.4000333416,
				"z": 0.501761507,
				"element": "C" 
			},
			{
				"x": 1.0899926884,
				"y": 0.4061340983,
				"z": 1.126073216,
				"element": "C" 
			},
			{
				"x": 1.0705350809,
				"y": -0.0845186239,
				"z": 2.4232090279,
				"element": "C" 
			},
			{
				"x": 1.9315461617,
				"y": 0.2994503131,
				"z": 3.4692839479,
				"element": "C" 
			},
			{
				"x": 2.6347591982,
				"y": 0.6074759919,
				"z": 4.347921145,
				"element": "N" 
			},
			{
				"x": -0.034344915,
				"y": -1.0066112496,
				"z": 2.5780466794,
				"element": "C" 
			},
			{
				"x": -0.5060717361,
				"y": -1.6674390593,
				"z": 3.5560929841,
				"element": "N" 
			},
			{
				"x": -0.6403129255,
				"y": -1.1064681726,
				"z": 1.2358340012,
				"element": "N" 
			},
			{
				"x": 0.077870254,
				"y": -0.2195936213,
				"z": 0.3966820082,
				"element": "N" 
			},
			{
				"x": -0.9888402976,
				"y": -2.3720541953,
				"z": 0.6729559079,
				"element": "C" 
			},
			{
				"x": -0.5722389538,
				"y": -2.6773405862,
				"z": -0.4394509841,
				"element": "O" 
			},
			{
				"x": -1.9413166681,
				"y": -3.2190259732,
				"z": 1.4211213448,
				"element": "C" 
			},
			{
				"x": -1.9534363883,
				"y": -4.5882306296,
				"z": 1.1087673639,
				"element": "C" 
			},
			{
				"x": -2.8770282306,
				"y": -5.4402050615,
				"z": 1.7019133606,
				"element": "C" 
			},
			{
				"x": -3.8132648298,
				"y": -4.9066134894,
				"z": 2.5912996212,
				"element": "C" 
			},
			{
				"x": -4.9918751401,
				"y": -5.9687593514,
				"z": 3.3317170129,
				"element": "Cl" 
			},
			{
				"x": -3.8339304449,
				"y": -3.5443936945,
				"z": 2.8968452411,
				"element": "C" 
			},
			{
				"x": -2.8895017438,
				"y": -2.7037225866,
				"z": 2.3174884031,
				"element": "C" 
			},
			{
				"x": 2.3918236879,
				"y": 2.8719507536,
				"z": -1.4208425719,
				"element": "C" 
			},
			{
				"x": 2.8213948651,
				"y": 2.7594412525,
				"z": -2.7533472828,
				"element": "C" 
			},
			{
				"x": 3.6295686437,
				"y": 3.7370381749,
				"z": -3.3289461352,
				"element": "C" 
			},
			{
				"x": 4.0082371983,
				"y": 4.8444015154,
				"z": -2.5713764107,
				"element": "C" 
			},
			{
				"x": 5.1074162033,
				"y": 6.1892820841,
				"z": -3.3569849541,
				"element": "Br" 
			},
			{
				"x": 3.5934514621,
				"y": 4.983302763,
				"z": -1.2472455115,
				"element": "C" 
			},
			{
				"x": 2.7926553242,
				"y": 3.9961506432,
				"z": -0.6791083871,
				"element": "C" 
			},
			{
				"x": -1.5828444557,
				"y": -1.2847542865,
				"z": -1.3186651481,
				"element": "H" 
			},
			{
				"x": -1.6603845978,
				"y": 0.0955956889,
				"z": -2.3128108917,
				"element": "H" 
			},
			{
				"x": 2.6934343221,
				"y": 1.821667641,
				"z": 1.0560399454,
				"element": "H" 
			},
			{
				"x": 0.0644031879,
				"y": -1.5127769424,
				"z": 4.3877285516,
				"element": "H" 
			},
			{
				"x": -1.2301811167,
				"y": -4.9729634229,
				"z": 0.398185426,
				"element": "H" 
			},
			{
				"x": -2.8810135875,
				"y": -6.5006480408,
				"z": 1.4777231387,
				"element": "H" 
			},
			{
				"x": -4.5760660292,
				"y": -3.1524388931,
				"z": 3.5825702174,
				"element": "H" 
			},
			{
				"x": -2.8939222258,
				"y": -1.6485180486,
				"z": 2.5568122218,
				"element": "H" 
			},
			{
				"x": 2.5438766198,
				"y": 1.8947861394,
				"z": -3.3459096347,
				"element": "H" 
			},
			{
				"x": 3.9636110108,
				"y": 3.6368942861,
				"z": -4.3550255439,
				"element": "H" 
			},
			{
				"x": 3.8872297834,
				"y": 5.8526269104,
				"z": -0.6705248094,
				"element": "H" 
			},
			{
				"x": 2.4547116587,
				"y": 4.1138718771,
				"z": 0.345673855,
				"element": "H" 
			}
		],
		 "valence_orbital": [ 
			{
				"type": "occ",
				"energy": -0.27715,
				"method": "rhf"
			},
			{
				"type": "occ",
				"energy": -0.27575,
				"method": "rhf"
			},
			{
				"type": "occ",
				"energy": -0.26408,
				"method": "rhf"
			},
			{
				"type": "occ",
				"energy": -0.25535,
				"method": "rhf"
			},
			{
				"type": "occ",
				"energy": -0.21642,
				"method": "rhf"
			},
			{
				"type": "unocc",
				"energy": -0.09382,
				"method": "rhf"
			},
			{
				"type": "unocc",
				"energy": -0.07719,
				"method": "rhf"
			},
			{
				"type": "unocc",
				"energy": -0.05729,
				"method": "rhf"
			},
			{
				"type": "unocc",
				"energy": -0.03411,
				"method": "rhf"
			},
			{
				"type": "unocc",
				"energy": -0.02998,
				"method": "rhf"
			}
		],
		"cosmo_sigma_profile": { 
			"-0.025": 0.0,
			"-0.024": 0.0,
			"-0.023": 0.0,
			"-0.022": 0.0,
			"-0.021": 0.0,
			"-0.02": 0.0,
			"-0.019": 0.0,
			"-0.018": 0.0,
			"-0.017": 0.0,
			"-0.016": 0.0,
			"-0.015": 0.122086842548,
			"-0.014": 0.9587482714,
			"-0.013": 2.17026482444,
			"-0.012": 1.89630923473,
			"-0.011": 1.80747478961,
			"-0.01": 2.66716026481,
			"-0.009": 3.62820079907,
			"-0.008": 10.537748222,
			"-0.007": 22.27548167,
			"-0.006": 24.3351151914,
			"-0.005": 22.0412360178,
			"-0.004": 25.5803665853,
			"-0.003": 26.6489191611,
			"-0.002": 31.4177780382,
			"-0.001": 32.7128984447,
			"0.0": 35.8719865866,
			"0.001": 39.0968963516,
			"0.002": 39.1967421269,
			"0.003": 27.8058034614,
			"0.004": 27.1716918642,
			"0.005": 10.3132384576,
			"0.006": 7.8270333715,
			"0.007": 8.22727160184,
			"0.008": 7.48577595807,
			"0.009": 10.9351689825,
			"0.01": 8.56522075539,
			"0.011": 7.21113951465,
			"0.012": 6.19272783984,
			"0.013": 3.35029647117,
			"0.014": 0.406910024321,
			"0.015": 0.0,
			"0.016": 0.0,
			"0.017": 0.0,
			"0.018": 0.0,
			"0.019": 0.0,
			"0.02": 0.0,
			"0.021": 0.0,
			"0.022": 0.0,
			"0.023": 0.0,
			"0.024": 0.0,
			"0.025": 0.0
		}
	}
}
