{
	 "smiles": "NCC=C", 
	 "Tm": 185.05, 
	 "num_atms": 11, 
	 "gaussian": { 
		 "optdone": 1, 
		 "sigma_profile": "yes", 
		 "theory": "DFT", 
		 "functional": "B3LYP", 
		 "basiset": "6-31G**", 
		 "properties": { 
			 "R2extent": 818.4809, 
			 "electric_dipole_moment_norm": 1.57116946572, 
			 "electric_quadrupole_moment_norm": 3.96269676735, 
			 "total_energy": -173.256554653, 
			 "HOMO_LUMO_gap": 0.26253, 
			 "cosmo_polarized_energy": -5.47, 
			 "cosmo_cavitation_energy": 13.93, 
			 "cosmo_dispersion_energy": -10.36, 
			 "cosmo_repulsion_energy": 0.96, 
			 "cosmo_total_nonelectrostatic_energy": 4.53, 
			 "SMD_solvation_energy": 2.39 
		},
		"coords": [
			{
				"x": -0.5877433427,
				"y": -0.2269777695,
				"z": -0.8103479744,
				"element": "N" 
			},
			{
				"x": -0.7469516287,
				"y": 1.226140454,
				"z": -0.8386552059,
				"element": "C" 
			},
			{
				"x": -2.1515109154,
				"y": 1.6485969234,
				"z": -1.1877124229,
				"element": "C" 
			},
			{
				"x": -3.1222683723,
				"y": 0.8325257029,
				"z": -1.5969940943,
				"element": "C" 
			},
			{
				"x": -1.1142117265,
				"y": -0.612316859,
				"z": -0.0297552781,
				"element": "H" 
			},
			{
				"x": 0.3868717341,
				"y": -0.466831519,
				"z": -0.6527969241,
				"element": "H" 
			},
			{
				"x": -0.0604570357,
				"y": 1.6266996225,
				"z": -1.59929085,
				"element": "H" 
			},
			{
				"x": -0.4627237566,
				"y": 1.731524879,
				"z": 0.1044368009,
				"element": "H" 
			},
			{
				"x": -2.350399032,
				"y": 2.7148995508,
				"z": -1.0785661396,
				"element": "H" 
			},
			{
				"x": -2.9427555598,
				"y": -0.2300580559,
				"z": -1.7266270991,
				"element": "H" 
			},
			{
				"x": -4.1155503643,
				"y": 1.2060970708,
				"z": -1.8269908124,
				"element": "H" 
			}
		],
		 "valence_orbital": [ 
			{
				"type": "occ",
				"energy": -0.40301,
				"method": "rhf"
			},
			{
				"type": "occ",
				"energy": -0.37625,
				"method": "rhf"
			},
			{
				"type": "occ",
				"energy": -0.33653,
				"method": "rhf"
			},
			{
				"type": "occ",
				"energy": -0.25097,
				"method": "rhf"
			},
			{
				"type": "occ",
				"energy": -0.2322,
				"method": "rhf"
			},
			{
				"type": "unocc",
				"energy": 0.03033,
				"method": "rhf"
			},
			{
				"type": "unocc",
				"energy": 0.0847,
				"method": "rhf"
			},
			{
				"type": "unocc",
				"energy": 0.12793,
				"method": "rhf"
			},
			{
				"type": "unocc",
				"energy": 0.15068,
				"method": "rhf"
			},
			{
				"type": "unocc",
				"energy": 0.15421,
				"method": "rhf"
			}
		],
		"cosmo_sigma_profile": { 
			"-0.025": 0.0,
			"-0.024": 0.0,
			"-0.023": 0.0,
			"-0.022": 0.0,
			"-0.021": 0.0,
			"-0.02": 0.0,
			"-0.019": 0.0,
			"-0.018": 0.0,
			"-0.017": 0.0,
			"-0.016": 0.0,
			"-0.015": 0.0,
			"-0.014": 0.0,
			"-0.013": 0.0,
			"-0.012": 0.0,
			"-0.011": 0.0,
			"-0.01": 0.879098661401,
			"-0.009": 2.94963859182,
			"-0.008": 1.93943271136,
			"-0.007": 2.43907326905,
			"-0.006": 3.18003958837,
			"-0.005": 4.84469902498,
			"-0.004": 8.32049529397,
			"-0.003": 11.0075302987,
			"-0.002": 14.9561534445,
			"-0.001": 11.4242058203,
			"0.0": 7.74311057768,
			"0.001": 5.8217240136,
			"0.002": 5.1353341042,
			"0.003": 4.22756252407,
			"0.004": 4.10037486253,
			"0.005": 3.55538920466,
			"0.006": 3.21090086771,
			"0.007": 3.23217213647,
			"0.008": 2.51173039812,
			"0.009": 1.08393598341,
			"0.01": 0.743136049832,
			"0.011": 0.70853827219,
			"0.012": 0.669509191046,
			"0.013": 0.826603738097,
			"0.014": 0.501936349377,
			"0.015": 0.678157226333,
			"0.016": 0.736561690169,
			"0.017": 0.28709354694,
			"0.018": 0.545574356648,
			"0.019": 0.326670423857,
			"0.02": 0.0270453887115,
			"0.021": 0.0,
			"0.022": 0.0,
			"0.023": 0.0,
			"0.024": 0.0,
			"0.025": 0.0
		}
	}
}
