{
	 "smiles": "CCN(CC)S(=O)(=O)C1=CC(C(O)=O)=C(C)C=C1", 
	 "Tm": 414.15, 
	 "num_atms": 35, 
	 "gaussian": { 
		 "optdone": 1, 
		 "sigma_profile": "yes", 
		 "theory": "DFT", 
		 "functional": "B3LYP", 
		 "basiset": "6-31G**", 
		 "properties": { 
			 "R2extent": 6835.6569, 
			 "electric_dipole_moment_norm": 4.30811188922, 
			 "electric_quadrupole_moment_norm": 24.0394767343, 
			 "total_energy": -1221.30539974, 
			 "HOMO_LUMO_gap": 0.18777, 
			 "cosmo_polarized_energy": -19.75, 
			 "cosmo_cavitation_energy": 38.82, 
			 "cosmo_dispersion_energy": -26.95, 
			 "cosmo_repulsion_energy": 2.05, 
			 "cosmo_total_nonelectrostatic_energy": 13.92, 
			 "SMD_solvation_energy": 6.44 
		},
		"coords": [
			{
				"x": 1.0245685056,
				"y": -3.4365796983,
				"z": -0.7920368546,
				"element": "C" 
			},
			{
				"x": 1.9300106313,
				"y": -2.2076729708,
				"z": -0.7193423209,
				"element": "C" 
			},
			{
				"x": 1.8083897448,
				"y": -1.5073797728,
				"z": 0.5778555633,
				"element": "N" 
			},
			{
				"x": 2.2164350248,
				"y": -2.2483885144,
				"z": 1.7939737149,
				"element": "C" 
			},
			{
				"x": 3.6850639776,
				"y": -2.680080591,
				"z": 1.8512341522,
				"element": "C" 
			},
			{
				"x": 2.2962480575,
				"y": 0.1146510943,
				"z": 0.5309949623,
				"element": "S" 
			},
			{
				"x": 2.2958085906,
				"y": 0.5908741217,
				"z": 1.9184761925,
				"element": "O" 
			},
			{
				"x": 3.484359404,
				"y": 0.3006242428,
				"z": -0.3171339803,
				"element": "O" 
			},
			{
				"x": 0.9211511623,
				"y": 0.886286197,
				"z": -0.3315962434,
				"element": "C" 
			},
			{
				"x": 1.1440840799,
				"y": 1.4890976599,
				"z": -1.5645761342,
				"element": "C" 
			},
			{
				"x": 0.0969045894,
				"y": 2.1379335132,
				"z": -2.2358617941,
				"element": "C" 
			},
			{
				"x": 0.3595333158,
				"y": 2.7477742913,
				"z": -3.5838749161,
				"element": "C" 
			},
			{
				"x": 1.6129799227,
				"y": 3.2315075835,
				"z": -3.7890894368,
				"element": "O" 
			},
			{
				"x": -0.4603006794,
				"y": 2.8122910293,
				"z": -4.4698676828,
				"element": "O" 
			},
			{
				"x": -1.196805055,
				"y": 2.1734227865,
				"z": -1.6647569383,
				"element": "C" 
			},
			{
				"x": -2.3728322023,
				"y": 2.8296896536,
				"z": -2.3440617754,
				"element": "C" 
			},
			{
				"x": -1.3764015832,
				"y": 1.5755769588,
				"z": -0.4073599982,
				"element": "C" 
			},
			{
				"x": -0.3390564319,
				"y": 0.9363639577,
				"z": 0.2644308994,
				"element": "C" 
			},
			{
				"x": -0.0115232161,
				"y": -3.1703542531,
				"z": -0.5632030042,
				"element": "H" 
			},
			{
				"x": 1.0589780621,
				"y": -3.8537758774,
				"z": -1.8031350304,
				"element": "H" 
			},
			{
				"x": 1.3386149222,
				"y": -4.2254833952,
				"z": -0.102637331,
				"element": "H" 
			},
			{
				"x": 2.9724517497,
				"y": -2.4788940297,
				"z": -0.9295701224,
				"element": "H" 
			},
			{
				"x": 1.6280156867,
				"y": -1.5022012922,
				"z": -1.4987026315,
				"element": "H" 
			},
			{
				"x": 1.5575729042,
				"y": -3.1199392297,
				"z": 1.8539631864,
				"element": "H" 
			},
			{
				"x": 1.9790915795,
				"y": -1.6100292106,
				"z": 2.6460953765,
				"element": "H" 
			},
			{
				"x": 4.3523185557,
				"y": -1.8140347446,
				"z": 1.8245119163,
				"element": "H" 
			},
			{
				"x": 3.8713121278,
				"y": -3.2224413523,
				"z": 2.7841185926,
				"element": "H" 
			},
			{
				"x": 3.9536939288,
				"y": -3.3441937427,
				"z": 1.0238478067,
				"element": "H" 
			},
			{
				"x": 2.1364850186,
				"y": 1.4159758066,
				"z": -1.9989636946,
				"element": "H" 
			},
			{
				"x": 2.109202147,
				"y": 3.2529109744,
				"z": -2.958568888,
				"element": "H" 
			},
			{
				"x": -2.1345274427,
				"y": 3.8425081541,
				"z": -2.6801101865,
				"element": "H" 
			},
			{
				"x": -2.6605851711,
				"y": 2.2756508861,
				"z": -3.2413942207,
				"element": "H" 
			},
			{
				"x": -3.2274663663,
				"y": 2.8768509104,
				"z": -1.6646161645,
				"element": "H" 
			},
			{
				"x": -2.3593430714,
				"y": 1.615958062,
				"z": 0.053033715,
				"element": "H" 
			},
			{
				"x": -0.5020324694,
				"y": 0.4832007918,
				"z": 1.2363232705,
				"element": "H" 
			}
		],
		 "valence_orbital": [ 
			{
				"type": "occ",
				"energy": -0.30377,
				"method": "rhf"
			},
			{
				"type": "occ",
				"energy": -0.28783,
				"method": "rhf"
			},
			{
				"type": "occ",
				"energy": -0.28012,
				"method": "rhf"
			},
			{
				"type": "occ",
				"energy": -0.27599,
				"method": "rhf"
			},
			{
				"type": "occ",
				"energy": -0.25197,
				"method": "rhf"
			},
			{
				"type": "unocc",
				"energy": -0.0642,
				"method": "rhf"
			},
			{
				"type": "unocc",
				"energy": -0.04488,
				"method": "rhf"
			},
			{
				"type": "unocc",
				"energy": 0.02533,
				"method": "rhf"
			},
			{
				"type": "unocc",
				"energy": 0.05147,
				"method": "rhf"
			},
			{
				"type": "unocc",
				"energy": 0.06416,
				"method": "rhf"
			}
		],
		"cosmo_sigma_profile": { 
			"-0.025": 0.0,
			"-0.024": 0.0,
			"-0.023": 0.0,
			"-0.022": 0.0,
			"-0.021": 0.0,
			"-0.02": 0.0,
			"-0.019": 0.582068950351,
			"-0.018": 0.5850987316,
			"-0.017": 1.06894687999,
			"-0.016": 1.20063383981,
			"-0.015": 0.765073713325,
			"-0.014": 0.537235920361,
			"-0.013": 1.35577112984,
			"-0.012": 1.13174039606,
			"-0.011": 0.836473720506,
			"-0.01": 1.05176884036,
			"-0.009": 1.06759089727,
			"-0.008": 2.71640520227,
			"-0.007": 6.19565431758,
			"-0.006": 8.12973513933,
			"-0.005": 16.555949968,
			"-0.004": 29.3602507701,
			"-0.003": 31.0256919936,
			"-0.002": 31.1670063728,
			"-0.001": 31.1864900689,
			"0.0": 32.149444881,
			"0.001": 21.7034658989,
			"0.002": 12.4836253079,
			"0.003": 6.42964118536,
			"0.004": 5.70797486717,
			"0.005": 6.38549208741,
			"0.006": 5.10256752086,
			"0.007": 5.32119524386,
			"0.008": 6.09925926701,
			"0.009": 7.25446920746,
			"0.01": 11.8361312768,
			"0.011": 11.9186587899,
			"0.012": 6.2213225186,
			"0.013": 0.912078391822,
			"0.014": 0.0,
			"0.015": 0.0,
			"0.016": 0.0,
			"0.017": 0.0,
			"0.018": 0.0,
			"0.019": 0.0,
			"0.02": 0.0,
			"0.021": 0.0,
			"0.022": 0.0,
			"0.023": 0.0,
			"0.024": 0.0,
			"0.025": 0.0
		}
	}
}
