{
	 "smiles": "NS(=O)(=O)CC1=C(Cl)C=CC=C1", 
	 "Tm": 378.15, 
	 "num_atms": 20, 
	 "gaussian": { 
		 "optdone": 1, 
		 "sigma_profile": "yes", 
		 "theory": "DFT", 
		 "functional": "B3LYP", 
		 "basiset": "6-31G**", 
		 "properties": { 
			 "R2extent": 2927.9594, 
			 "electric_dipole_moment_norm": 4.93804108326, 
			 "electric_quadrupole_moment_norm": 8.85288761817, 
			 "total_energy": -1335.08274118, 
			 "HOMO_LUMO_gap": 0.21987, 
			 "cosmo_polarized_energy": -16.77, 
			 "cosmo_cavitation_energy": 26.91, 
			 "cosmo_dispersion_energy": -20.05, 
			 "cosmo_repulsion_energy": 1.56, 
			 "cosmo_total_nonelectrostatic_energy": 8.42, 
			 "SMD_solvation_energy": 3.85 
		},
		"coords": [
			{
				"x": 1.1161201698,
				"y": -0.3106103644,
				"z": 1.5688698653,
				"element": "N" 
			},
			{
				"x": 1.4068583709,
				"y": -0.8348755388,
				"z": -0.0225492265,
				"element": "S" 
			},
			{
				"x": 0.6343924549,
				"y": -2.0579480585,
				"z": -0.2482816714,
				"element": "O" 
			},
			{
				"x": 2.857074373,
				"y": -0.7777833418,
				"z": -0.2300124371,
				"element": "O" 
			},
			{
				"x": 0.6829614277,
				"y": 0.5199388707,
				"z": -1.0160947824,
				"element": "C" 
			},
			{
				"x": -0.8081428309,
				"y": 0.6473251814,
				"z": -0.8983769573,
				"element": "C" 
			},
			{
				"x": -1.6970826494,
				"y": 0.0445526127,
				"z": -1.804085042,
				"element": "C" 
			},
			{
				"x": -1.0991720756,
				"y": -0.8922983365,
				"z": -3.1661143162,
				"element": "Cl" 
			},
			{
				"x": -3.0790580877,
				"y": 0.1829040959,
				"z": -1.6697919843,
				"element": "C" 
			},
			{
				"x": -3.5993264434,
				"y": 0.9295522651,
				"z": -0.6144518243,
				"element": "C" 
			},
			{
				"x": -2.738847995,
				"y": 1.5408475793,
				"z": 0.2985068241,
				"element": "C" 
			},
			{
				"x": -1.3617604291,
				"y": 1.398090968,
				"z": 0.1510520594,
				"element": "C" 
			},
			{
				"x": 0.4686329234,
				"y": -0.9511259393,
				"z": 2.0210754934,
				"element": "H" 
			},
			{
				"x": 2.0048662305,
				"y": -0.2820508366,
				"z": 2.0627573562,
				"element": "H" 
			},
			{
				"x": 1.0047161124,
				"y": 0.2897977089,
				"z": -2.0335383891,
				"element": "H" 
			},
			{
				"x": 1.2003107427,
				"y": 1.4193531395,
				"z": -0.6763196055,
				"element": "H" 
			},
			{
				"x": -3.7340850675,
				"y": -0.2933868556,
				"z": -2.3905526718,
				"element": "H" 
			},
			{
				"x": -4.6751957369,
				"y": 1.0349950042,
				"z": -0.5126527306,
				"element": "H" 
			},
			{
				"x": -3.1375697424,
				"y": 2.1289970703,
				"z": 1.1191962906,
				"element": "H" 
			},
			{
				"x": -0.6875917475,
				"y": 1.8665247755,
				"z": 0.8613637494,
				"element": "H" 
			}
		],
		 "valence_orbital": [ 
			{
				"type": "occ",
				"energy": -0.31371,
				"method": "rhf"
			},
			{
				"type": "occ",
				"energy": -0.30343,
				"method": "rhf"
			},
			{
				"type": "occ",
				"energy": -0.2976,
				"method": "rhf"
			},
			{
				"type": "occ",
				"energy": -0.26474,
				"method": "rhf"
			},
			{
				"type": "occ",
				"energy": -0.25273,
				"method": "rhf"
			},
			{
				"type": "unocc",
				"energy": -0.03286,
				"method": "rhf"
			},
			{
				"type": "unocc",
				"energy": -0.02147,
				"method": "rhf"
			},
			{
				"type": "unocc",
				"energy": 0.02494,
				"method": "rhf"
			},
			{
				"type": "unocc",
				"energy": 0.05376,
				"method": "rhf"
			},
			{
				"type": "unocc",
				"energy": 0.08006,
				"method": "rhf"
			}
		],
		"cosmo_sigma_profile": { 
			"-0.025": 0.0,
			"-0.024": 0.0,
			"-0.023": 0.0,
			"-0.022": 0.0,
			"-0.021": 0.0,
			"-0.02": 0.0,
			"-0.019": 0.0,
			"-0.018": 0.0,
			"-0.017": 0.0,
			"-0.016": 0.0,
			"-0.015": 0.721291366517,
			"-0.014": 2.25489572872,
			"-0.013": 2.86330442933,
			"-0.012": 2.72328046689,
			"-0.011": 2.09580004639,
			"-0.01": 1.57135537882,
			"-0.009": 2.84038904395,
			"-0.008": 5.14260697405,
			"-0.007": 9.04640643933,
			"-0.006": 13.4523099504,
			"-0.005": 14.5576827172,
			"-0.004": 11.8465799633,
			"-0.003": 10.3462997746,
			"-0.002": 10.1999960099,
			"-0.001": 9.96058008609,
			"0.0": 10.9862373783,
			"0.001": 13.7515469132,
			"0.002": 16.0559748258,
			"0.003": 18.041072569,
			"0.004": 14.1419898879,
			"0.005": 5.68662379541,
			"0.006": 4.06168253334,
			"0.007": 3.97733208996,
			"0.008": 4.6688568054,
			"0.009": 3.2901054599,
			"0.01": 7.62429070475,
			"0.011": 10.8097681702,
			"0.012": 3.73661838248,
			"0.013": 0.0,
			"0.014": 0.0,
			"0.015": 0.0,
			"0.016": 0.0,
			"0.017": 0.0,
			"0.018": 0.0,
			"0.019": 0.0,
			"0.02": 0.0,
			"0.021": 0.0,
			"0.022": 0.0,
			"0.023": 0.0,
			"0.024": 0.0,
			"0.025": 0.0
		}
	}
}
