{
	 "smiles": "BrC1=CC2=C(C=CN2)C=C1", 
	 "Tm": 365.15, 
	 "num_atms": 16, 
	 "gaussian": { 
		 "optdone": 1, 
		 "sigma_profile": "yes", 
		 "theory": "DFT", 
		 "functional": "B3LYP", 
		 "basiset": "6-31G**", 
		 "properties": { 
			 "R2extent": 3344.4223, 
			 "electric_dipole_moment_norm": 3.40720462843, 
			 "electric_quadrupole_moment_norm": 11.4456364131, 
			 "total_energy": -2934.62476683, 
			 "HOMO_LUMO_gap": 0.18926, 
			 "cosmo_polarized_energy": -8.9, 
			 "cosmo_cavitation_energy": 22.23, 
			 "cosmo_dispersion_energy": -17.31, 
			 "cosmo_repulsion_energy": 1.39, 
			 "cosmo_total_nonelectrostatic_energy": 6.32, 
			 "SMD_solvation_energy": 2.62 
		},
		"coords": [
			{
				"x": -2.7293941208,
				"y": 2.4198619291,
				"z": 2.2805828283,
				"element": "Br" 
			},
			{
				"x": -1.5805587841,
				"y": 1.307363318,
				"z": 1.2249387477,
				"element": "C" 
			},
			{
				"x": -0.2167495876,
				"y": 1.3246465276,
				"z": 1.4790004525,
				"element": "C" 
			},
			{
				"x": 0.5779801928,
				"y": 0.4949351293,
				"z": 0.6809060265,
				"element": "C" 
			},
			{
				"x": 0.0374564152,
				"y": -0.3324836997,
				"z": -0.3442720843,
				"element": "C" 
			},
			{
				"x": 1.1415750854,
				"y": -1.031096381,
				"z": -0.94132,
				"element": "C" 
			},
			{
				"x": 2.2747773214,
				"y": -0.6246622073,
				"z": -0.288584378,
				"element": "C" 
			},
			{
				"x": 1.9423423492,
				"y": 0.295179733,
				"z": 0.6905202525,
				"element": "N" 
			},
			{
				"x": -1.3511271447,
				"y": -0.3127580358,
				"z": -0.5609280327,
				"element": "C" 
			},
			{
				"x": -2.1556655127,
				"y": 0.5046930622,
				"z": 0.2216640853,
				"element": "C" 
			},
			{
				"x": 0.2015908639,
				"y": 1.952145176,
				"z": 2.2578877394,
				"element": "H" 
			},
			{
				"x": 1.0976396484,
				"y": -1.7440498197,
				"z": -1.7519940267,
				"element": "H" 
			},
			{
				"x": 3.3049506155,
				"y": -0.914642562,
				"z": -0.4380952777,
				"element": "H" 
			},
			{
				"x": 2.5940695708,
				"y": 0.7465239642,
				"z": 1.3110649991,
				"element": "H" 
			},
			{
				"x": -1.7981151576,
				"y": -0.9308788072,
				"z": -1.3341853224,
				"element": "H" 
			},
			{
				"x": -3.2280717553,
				"y": 0.5321226734,
				"z": 0.0681139904,
				"element": "H" 
			}
		],
		 "valence_orbital": [ 
			{
				"type": "occ",
				"energy": -0.29882,
				"method": "rhf"
			},
			{
				"type": "occ",
				"energy": -0.27854,
				"method": "rhf"
			},
			{
				"type": "occ",
				"energy": -0.2717,
				"method": "rhf"
			},
			{
				"type": "occ",
				"energy": -0.22632,
				"method": "rhf"
			},
			{
				"type": "occ",
				"energy": -0.20685,
				"method": "rhf"
			},
			{
				"type": "unocc",
				"energy": -0.01759,
				"method": "rhf"
			},
			{
				"type": "unocc",
				"energy": 0.01512,
				"method": "rhf"
			},
			{
				"type": "unocc",
				"energy": 0.01838,
				"method": "rhf"
			},
			{
				"type": "unocc",
				"energy": 0.06322,
				"method": "rhf"
			},
			{
				"type": "unocc",
				"energy": 0.07372,
				"method": "rhf"
			}
		],
		"cosmo_sigma_profile": { 
			"-0.025": 0.0,
			"-0.024": 0.0,
			"-0.023": 0.0,
			"-0.022": 0.0,
			"-0.021": 0.0,
			"-0.02": 0.0,
			"-0.019": 0.0,
			"-0.018": 0.0,
			"-0.017": 0.0,
			"-0.016": 0.739165628376,
			"-0.015": 1.85109036771,
			"-0.014": 1.47182984185,
			"-0.013": 1.30147376547,
			"-0.012": 1.16733762944,
			"-0.011": 1.22997538917,
			"-0.01": 1.29433797768,
			"-0.009": 1.572725343,
			"-0.008": 4.18256038033,
			"-0.007": 3.98735799637,
			"-0.006": 8.02856884369,
			"-0.005": 8.44785710451,
			"-0.004": 8.90904522704,
			"-0.003": 10.7478767974,
			"-0.002": 9.52378248861,
			"-0.001": 8.99575814341,
			"0.0": 8.09932966018,
			"0.001": 10.0520686766,
			"0.002": 12.3472047447,
			"0.003": 17.5253722604,
			"0.004": 24.2533194557,
			"0.005": 26.3152209801,
			"0.006": 8.80450678031,
			"0.007": 1.28650462989,
			"0.008": 0.0,
			"0.009": 0.0,
			"0.01": 0.0,
			"0.011": 0.0,
			"0.012": 0.0,
			"0.013": 0.0,
			"0.014": 0.0,
			"0.015": 0.0,
			"0.016": 0.0,
			"0.017": 0.0,
			"0.018": 0.0,
			"0.019": 0.0,
			"0.02": 0.0,
			"0.021": 0.0,
			"0.022": 0.0,
			"0.023": 0.0,
			"0.024": 0.0,
			"0.025": 0.0
		}
	}
}
