{
	 "smiles": "CC1N(C)C2=C(NC1=O)C=C(C=C2)C(O)=O", 
	 "Tm": 563.15, 
	 "num_atms": 28, 
	 "gaussian": { 
		 "optdone": 1, 
		 "sigma_profile": "yes", 
		 "theory": "DFT", 
		 "functional": "B3LYP", 
		 "basiset": "6-31G**", 
		 "properties": { 
			 "R2extent": 4898.5495, 
			 "electric_dipole_moment_norm": 4.09155976737, 
			 "electric_quadrupole_moment_norm": 2.51459829595, 
			 "total_energy": -761.62072556, 
			 "HOMO_LUMO_gap": 0.16422, 
			 "cosmo_polarized_energy": -17.7, 
			 "cosmo_cavitation_energy": 31.53, 
			 "cosmo_dispersion_energy": -22.79, 
			 "cosmo_repulsion_energy": 1.75, 
			 "cosmo_total_nonelectrostatic_energy": 10.49, 
			 "SMD_solvation_energy": 6.32 
		},
		"coords": [
			{
				"x": -1.0833343552,
				"y": -0.7763650376,
				"z": 2.2131583286,
				"element": "C" 
			},
			{
				"x": 0.1687986676,
				"y": -0.8005896297,
				"z": 1.3123428154,
				"element": "C" 
			},
			{
				"x": -0.128809694,
				"y": -0.9078706174,
				"z": -0.1216475798,
				"element": "N" 
			},
			{
				"x": -0.5744468263,
				"y": -2.2070217587,
				"z": -0.5950739467,
				"element": "C" 
			},
			{
				"x": -0.5007746318,
				"y": 0.2372220911,
				"z": -0.8077548525,
				"element": "C" 
			},
			{
				"x": 0.01823487,
				"y": 1.4814299761,
				"z": -0.3602899543,
				"element": "C" 
			},
			{
				"x": 0.8715417358,
				"y": 1.4762026554,
				"z": 0.7553527386,
				"element": "N" 
			},
			{
				"x": 1.0410763415,
				"y": 0.4201246745,
				"z": 1.6107928041,
				"element": "C" 
			},
			{
				"x": 1.7908012123,
				"y": 0.4606445865,
				"z": 2.5736975091,
				"element": "O" 
			},
			{
				"x": -0.2770867158,
				"y": 2.6550925452,
				"z": -1.0334432371,
				"element": "C" 
			},
			{
				"x": -1.0863804574,
				"y": 2.6363031252,
				"z": -2.1805404432,
				"element": "C" 
			},
			{
				"x": -1.6004536016,
				"y": 1.4163394755,
				"z": -2.6335400246,
				"element": "C" 
			},
			{
				"x": -1.3175130641,
				"y": 0.2353872415,
				"z": -1.9525872087,
				"element": "C" 
			},
			{
				"x": -1.3558633787,
				"y": 3.9221800226,
				"z": -2.8559061434,
				"element": "C" 
			},
			{
				"x": -2.1471188272,
				"y": 3.7959287376,
				"z": -3.9545948024,
				"element": "O" 
			},
			{
				"x": -0.9307578173,
				"y": 5.0050420368,
				"z": -2.495310681,
				"element": "O" 
			},
			{
				"x": -0.7826897253,
				"y": -0.7021262831,
				"z": 3.261574446,
				"element": "H" 
			},
			{
				"x": -1.6695658694,
				"y": -1.6913701144,
				"z": 2.0863355191,
				"element": "H" 
			},
			{
				"x": -1.7221292658,
				"y": 0.0786915146,
				"z": 1.9707342589,
				"element": "H" 
			},
			{
				"x": 0.7831953666,
				"y": -1.6641514004,
				"z": 1.5844047214,
				"element": "H" 
			},
			{
				"x": -0.0467402849,
				"y": -2.9837777072,
				"z": -0.0360298006,
				"element": "H" 
			},
			{
				"x": -1.6562477136,
				"y": -2.3713387739,
				"z": -0.4748766716,
				"element": "H" 
			},
			{
				"x": -0.3252309994,
				"y": -2.3259355631,
				"z": -1.6535661661,
				"element": "H" 
			},
			{
				"x": 1.3883036298,
				"y": 2.3153482953,
				"z": 0.9867641088,
				"element": "H" 
			},
			{
				"x": 0.1224491018,
				"y": 3.6054149636,
				"z": -0.6926784543,
				"element": "H" 
			},
			{
				"x": -2.231783957,
				"y": 1.3931416455,
				"z": -3.5140254851,
				"element": "H" 
			},
			{
				"x": -1.7382306934,
				"y": -0.6959198174,
				"z": -2.3118977266,
				"element": "H" 
			},
			{
				"x": -2.2493430473,
				"y": 4.6962731159,
				"z": -4.3032940719,
				"element": "H" 
			}
		],
		 "valence_orbital": [ 
			{
				"type": "occ",
				"energy": -0.29895,
				"method": "rhf"
			},
			{
				"type": "occ",
				"energy": -0.27108,
				"method": "rhf"
			},
			{
				"type": "occ",
				"energy": -0.26219,
				"method": "rhf"
			},
			{
				"type": "occ",
				"energy": -0.23965,
				"method": "rhf"
			},
			{
				"type": "occ",
				"energy": -0.20369,
				"method": "rhf"
			},
			{
				"type": "unocc",
				"energy": -0.03947,
				"method": "rhf"
			},
			{
				"type": "unocc",
				"energy": -0.01544,
				"method": "rhf"
			},
			{
				"type": "unocc",
				"energy": 0.0216,
				"method": "rhf"
			},
			{
				"type": "unocc",
				"energy": 0.07045,
				"method": "rhf"
			},
			{
				"type": "unocc",
				"energy": 0.07502,
				"method": "rhf"
			}
		],
		"cosmo_sigma_profile": { 
			"-0.025": 0.0,
			"-0.024": 0.0,
			"-0.023": 0.0,
			"-0.022": 0.0,
			"-0.021": 0.0,
			"-0.02": 0.0,
			"-0.019": 0.0,
			"-0.018": 0.293183616733,
			"-0.017": 1.18007824226,
			"-0.016": 1.03300160953,
			"-0.015": 1.37431122313,
			"-0.014": 2.26225263049,
			"-0.013": 1.87175235174,
			"-0.012": 1.50500652538,
			"-0.011": 1.67561982075,
			"-0.01": 2.20146582218,
			"-0.009": 1.98955361464,
			"-0.008": 1.95524282757,
			"-0.007": 4.97118697736,
			"-0.006": 10.3414314918,
			"-0.005": 14.1334470115,
			"-0.004": 22.4651833814,
			"-0.003": 19.9855038378,
			"-0.002": 19.8971044078,
			"-0.001": 19.864486872,
			"0.0": 16.4775010452,
			"0.001": 13.3139419624,
			"0.002": 16.7116623126,
			"0.003": 14.0553497304,
			"0.004": 13.8977039647,
			"0.005": 5.89282351256,
			"0.006": 4.84304652463,
			"0.007": 4.58888504222,
			"0.008": 2.83483978768,
			"0.009": 2.87413852973,
			"0.01": 3.7198973561,
			"0.011": 3.65988919044,
			"0.012": 8.27103119225,
			"0.013": 7.40812988562,
			"0.014": 1.90287948771,
			"0.015": 0.0272665347403,
			"0.016": 0.0,
			"0.017": 0.0,
			"0.018": 0.0,
			"0.019": 0.0,
			"0.02": 0.0,
			"0.021": 0.0,
			"0.022": 0.0,
			"0.023": 0.0,
			"0.024": 0.0,
			"0.025": 0.0
		}
	}
}
