{
	 "smiles": "CSC1=NC(=CN1)C1=CC=CC=C1", 
	 "Tm": 404.15, 
	 "num_atms": 23, 
	 "gaussian": { 
		 "optdone": 1, 
		 "sigma_profile": "yes", 
		 "theory": "DFT", 
		 "functional": "B3LYP", 
		 "basiset": "6-31G**", 
		 "properties": { 
			 "R2extent": 4789.0541, 
			 "electric_dipole_moment_norm": 2.00869727684, 
			 "electric_quadrupole_moment_norm": 12.593275296, 
			 "total_energy": -894.785332977, 
			 "HOMO_LUMO_gap": 0.18095, 
			 "cosmo_polarized_energy": -12.84, 
			 "cosmo_cavitation_energy": 28.73, 
			 "cosmo_dispersion_energy": -21.62, 
			 "cosmo_repulsion_energy": 1.66, 
			 "cosmo_total_nonelectrostatic_energy": 8.76, 
			 "SMD_solvation_energy": 4.01 
		},
		"coords": [
			{
				"x": 4.4400832948,
				"y": 2.9603230758,
				"z": 2.0551103458,
				"element": "C" 
			},
			{
				"x": 4.840151574,
				"y": 1.1896306655,
				"z": 2.2462949375,
				"element": "S" 
			},
			{
				"x": 3.3501998416,
				"y": 0.5014253004,
				"z": 1.5901165997,
				"element": "C" 
			},
			{
				"x": 2.3142167343,
				"y": 1.1585721509,
				"z": 1.1255353273,
				"element": "N" 
			},
			{
				"x": 1.3972549941,
				"y": 0.1930893557,
				"z": 0.7256815929,
				"element": "C" 
			},
			{
				"x": 1.9137990873,
				"y": -1.0610136689,
				"z": 0.9641673504,
				"element": "C" 
			},
			{
				"x": 3.1644362745,
				"y": -0.8528057605,
				"z": 1.5175630829,
				"element": "N" 
			},
			{
				"x": 0.1001290696,
				"y": 0.5681482882,
				"z": 0.1473354897,
				"element": "C" 
			},
			{
				"x": -0.8332981685,
				"y": -0.4003717467,
				"z": -0.2605733586,
				"element": "C" 
			},
			{
				"x": -2.0582970037,
				"y": -0.0246226818,
				"z": -0.8067016896,
				"element": "C" 
			},
			{
				"x": -2.3780075448,
				"y": 1.327093014,
				"z": -0.957503095,
				"element": "C" 
			},
			{
				"x": -1.4578279472,
				"y": 2.2973856302,
				"z": -0.5555767946,
				"element": "C" 
			},
			{
				"x": -0.2315149378,
				"y": 1.9240605731,
				"z": -0.0088684821,
				"element": "C" 
			},
			{
				"x": 3.5504744264,
				"y": 3.2099217336,
				"z": 2.6333277354,
				"element": "H" 
			},
			{
				"x": 4.2739338113,
				"y": 3.1975094773,
				"z": 1.0043107744,
				"element": "H" 
			},
			{
				"x": 5.3060290841,
				"y": 3.50515355,
				"z": 2.4355281404,
				"element": "H" 
			},
			{
				"x": 1.5287377559,
				"y": -2.0548945817,
				"z": 0.8006512432,
				"element": "H" 
			},
			{
				"x": 3.8143644024,
				"y": -1.565893848,
				"z": 1.8112345189,
				"element": "H" 
			},
			{
				"x": -0.6020468363,
				"y": -1.4564198516,
				"z": -0.1510564091,
				"element": "H" 
			},
			{
				"x": -2.7656738992,
				"y": -0.78940385,
				"z": -1.115619995,
				"element": "H" 
			},
			{
				"x": -3.3335103785,
				"y": 1.6192797097,
				"z": -1.3834876659,
				"element": "H" 
			},
			{
				"x": -1.6959715521,
				"y": 3.3516713701,
				"z": -0.6682569507,
				"element": "H" 
			},
			{
				"x": 0.4879379177,
				"y": 2.6720620947,
				"z": 0.3054873022,
				"element": "H" 
			}
		],
		 "valence_orbital": [ 
			{
				"type": "occ",
				"energy": -0.2863,
				"method": "rhf"
			},
			{
				"type": "occ",
				"energy": -0.2736,
				"method": "rhf"
			},
			{
				"type": "occ",
				"energy": -0.24114,
				"method": "rhf"
			},
			{
				"type": "occ",
				"energy": -0.23573,
				"method": "rhf"
			},
			{
				"type": "occ",
				"energy": -0.19295,
				"method": "rhf"
			},
			{
				"type": "unocc",
				"energy": -0.012,
				"method": "rhf"
			},
			{
				"type": "unocc",
				"energy": 0.00891,
				"method": "rhf"
			},
			{
				"type": "unocc",
				"energy": 0.01835,
				"method": "rhf"
			},
			{
				"type": "unocc",
				"energy": 0.03584,
				"method": "rhf"
			},
			{
				"type": "unocc",
				"energy": 0.08089,
				"method": "rhf"
			}
		],
		"cosmo_sigma_profile": { 
			"-0.025": 0.0,
			"-0.024": 0.0,
			"-0.023": 0.0,
			"-0.022": 0.0,
			"-0.021": 0.0,
			"-0.02": 0.0,
			"-0.019": 0.0,
			"-0.018": 0.0,
			"-0.017": 0.676307813043,
			"-0.016": 1.98609698124,
			"-0.015": 0.860567911835,
			"-0.014": 1.39385606306,
			"-0.013": 1.07626129521,
			"-0.012": 1.52160901002,
			"-0.011": 1.20639292006,
			"-0.01": 0.816640466326,
			"-0.009": 2.10833775803,
			"-0.008": 5.06129311077,
			"-0.007": 4.83850523495,
			"-0.006": 8.48802348462,
			"-0.005": 13.5016947746,
			"-0.004": 14.8745028396,
			"-0.003": 18.1887965103,
			"-0.002": 16.1715007821,
			"-0.001": 13.6291084851,
			"0.0": 10.6953678507,
			"0.001": 11.9488848157,
			"0.002": 13.6266945292,
			"0.003": 17.6047601119,
			"0.004": 19.8623749919,
			"0.005": 19.4293175391,
			"0.006": 15.4594772665,
			"0.007": 6.75179294759,
			"0.008": 4.39791782843,
			"0.009": 2.34918572065,
			"0.01": 1.93931791475,
			"0.011": 1.43159329778,
			"0.012": 0.00995527484588,
			"0.013": 0.0,
			"0.014": 0.0,
			"0.015": 0.0,
			"0.016": 0.0,
			"0.017": 0.0,
			"0.018": 0.0,
			"0.019": 0.0,
			"0.02": 0.0,
			"0.021": 0.0,
			"0.022": 0.0,
			"0.023": 0.0,
			"0.024": 0.0,
			"0.025": 0.0
		}
	}
}
