{
	 "smiles": "COC(=O)[C@@H]1C[C@@H]2CCCN2[C@@]11C(=O)C2=CC=CC3=C2C1=CC=C3", 
	 "Tm": 418.0, 
	 "num_atms": 43, 
	 "gaussian": { 
		 "optdone": 1, 
		 "sigma_profile": "yes", 
		 "theory": "DFT", 
		 "functional": "B3LYP", 
		 "basiset": "6-31G**", 
		 "properties": { 
			 "R2extent": 6659.7218, 
			 "electric_dipole_moment_norm": 3.43352270125, 
			 "electric_quadrupole_moment_norm": 17.630175087, 
			 "total_energy": -1054.00544295, 
			 "HOMO_LUMO_gap": 0.12907, 
			 "cosmo_polarized_energy": -13.87, 
			 "cosmo_cavitation_energy": 42.51, 
			 "cosmo_dispersion_energy": -29.39, 
			 "cosmo_repulsion_energy": 2.18, 
			 "cosmo_total_nonelectrostatic_energy": 15.29, 
			 "SMD_solvation_energy": 6.08 
		},
		"coords": [
			{
				"x": -3.6849450055,
				"y": -1.0417775697,
				"z": 1.6041807929,
				"element": "C" 
			},
			{
				"x": -2.280452606,
				"y": -1.2919134203,
				"z": 1.4263495355,
				"element": "O" 
			},
			{
				"x": -1.9283983449,
				"y": -1.7629069354,
				"z": 0.1989485892,
				"element": "C" 
			},
			{
				"x": -2.7360713403,
				"y": -1.9277477099,
				"z": -0.6894492503,
				"element": "O" 
			},
			{
				"x": -0.4473922736,
				"y": -2.0595764128,
				"z": 0.0851927186,
				"element": "C" 
			},
			{
				"x": 0.135566155,
				"y": -2.8579765014,
				"z": 1.2809336834,
				"element": "C" 
			},
			{
				"x": 0.9805897991,
				"y": -1.8549126378,
				"z": 2.1186008881,
				"element": "C" 
			},
			{
				"x": 0.4753757949,
				"y": -1.5196484118,
				"z": 3.5359504079,
				"element": "C" 
			},
			{
				"x": 0.7580894636,
				"y": -0.0141183742,
				"z": 3.6657785817,
				"element": "C" 
			},
			{
				"x": 0.4226502894,
				"y": 0.5023452875,
				"z": 2.2613296125,
				"element": "C" 
			},
			{
				"x": 0.95915992,
				"y": -0.5584492042,
				"z": 1.3969138691,
				"element": "N" 
			},
			{
				"x": 0.4751089315,
				"y": -0.7805581554,
				"z": 0.0339492173,
				"element": "C" 
			},
			{
				"x": 1.7657432258,
				"y": -1.1466198836,
				"z": -0.8063040219,
				"element": "C" 
			},
			{
				"x": 2.4409177554,
				"y": -2.144417741,
				"z": -0.639285729,
				"element": "O" 
			},
			{
				"x": 1.9759171958,
				"y": -0.0704623484,
				"z": -1.803830435,
				"element": "C" 
			},
			{
				"x": 2.9559583012,
				"y": 0.1332249525,
				"z": -2.7541403736,
				"element": "C" 
			},
			{
				"x": 2.8301393954,
				"y": 1.2539627415,
				"z": -3.6120785726,
				"element": "C" 
			},
			{
				"x": 1.7546961526,
				"y": 2.1269030374,
				"z": -3.524869208,
				"element": "C" 
			},
			{
				"x": 0.7298487821,
				"y": 1.9305548121,
				"z": -2.5595403529,
				"element": "C" 
			},
			{
				"x": 0.8835300535,
				"y": 0.8144887259,
				"z": -1.7057147889,
				"element": "C" 
			},
			{
				"x": -0.0369397991,
				"y": 0.4620819795,
				"z": -0.6874311472,
				"element": "C" 
			},
			{
				"x": -1.1547859156,
				"y": 1.2530594755,
				"z": -0.5292779215,
				"element": "C" 
			},
			{
				"x": -1.337634929,
				"y": 2.3835283225,
				"z": -1.3763391254,
				"element": "C" 
			},
			{
				"x": -0.4319786059,
				"y": 2.7260518375,
				"z": -2.361146688,
				"element": "C" 
			},
			{
				"x": -4.0372921594,
				"y": -0.28737143,
				"z": 0.895932111,
				"element": "H" 
			},
			{
				"x": -3.7946984921,
				"y": -0.6873868232,
				"z": 2.6290878043,
				"element": "H" 
			},
			{
				"x": -4.2598483354,
				"y": -1.9581619813,
				"z": 1.4504690478,
				"element": "H" 
			},
			{
				"x": -0.3523042476,
				"y": -2.6132431133,
				"z": -0.851083368,
				"element": "H" 
			},
			{
				"x": -0.6554172276,
				"y": -3.313252816,
				"z": 1.8827163815,
				"element": "H" 
			},
			{
				"x": 0.7714026371,
				"y": -3.6562770683,
				"z": 0.8960522086,
				"element": "H" 
			},
			{
				"x": 2.0119103065,
				"y": -2.2246079463,
				"z": 2.162378307,
				"element": "H" 
			},
			{
				"x": 0.9616196559,
				"y": -2.1226455262,
				"z": 4.3086200583,
				"element": "H" 
			},
			{
				"x": -0.6036529675,
				"y": -1.6982810153,
				"z": 3.5968818899,
				"element": "H" 
			},
			{
				"x": 0.1629533633,
				"y": 0.4747190917,
				"z": 4.4429906035,
				"element": "H" 
			},
			{
				"x": 1.8167386756,
				"y": 0.1605815004,
				"z": 3.8884017267,
				"element": "H" 
			},
			{
				"x": 0.8942647639,
				"y": 1.4654607503,
				"z": 2.0377444418,
				"element": "H" 
			},
			{
				"x": -0.6651940235,
				"y": 0.6287452906,
				"z": 2.1671104678,
				"element": "H" 
			},
			{
				"x": 3.7966050628,
				"y": -0.5479524049,
				"z": -2.8430351867,
				"element": "H" 
			},
			{
				"x": 3.5945679261,
				"y": 1.4314414852,
				"z": -4.3630436896,
				"element": "H" 
			},
			{
				"x": 1.6901044691,
				"y": 2.9716757913,
				"z": -4.2059896826,
				"element": "H" 
			},
			{
				"x": -1.8997922359,
				"y": 1.0390351209,
				"z": 0.228212767,
				"element": "H" 
			},
			{
				"x": -2.2251972291,
				"y": 2.9940434307,
				"z": -1.2366328364,
				"element": "H" 
			},
			{
				"x": -0.6057623376,
				"y": 3.5970617977,
				"z": -2.9872333338,
				"element": "H" 
			}
		],
		 "valence_orbital": [ 
			{
				"type": "occ",
				"energy": -0.26865,
				"method": "rhf"
			},
			{
				"type": "occ",
				"energy": -0.2541,
				"method": "rhf"
			},
			{
				"type": "occ",
				"energy": -0.25002,
				"method": "rhf"
			},
			{
				"type": "occ",
				"energy": -0.22566,
				"method": "rhf"
			},
			{
				"type": "occ",
				"energy": -0.19734,
				"method": "rhf"
			},
			{
				"type": "unocc",
				"energy": -0.06827,
				"method": "rhf"
			},
			{
				"type": "unocc",
				"energy": -0.02775,
				"method": "rhf"
			},
			{
				"type": "unocc",
				"energy": -0.01275,
				"method": "rhf"
			},
			{
				"type": "unocc",
				"energy": 0.00971,
				"method": "rhf"
			},
			{
				"type": "unocc",
				"energy": 0.05416,
				"method": "rhf"
			}
		],
		"cosmo_sigma_profile": { 
			"-0.025": 0.0,
			"-0.024": 0.0,
			"-0.023": 0.0,
			"-0.022": 0.0,
			"-0.021": 0.0,
			"-0.02": 0.0,
			"-0.019": 0.0,
			"-0.018": 0.0,
			"-0.017": 0.0,
			"-0.016": 0.0,
			"-0.015": 0.0,
			"-0.014": 0.0,
			"-0.013": 0.0,
			"-0.012": 0.0,
			"-0.011": 0.0,
			"-0.01": 0.0,
			"-0.009": 0.0,
			"-0.008": 0.014744578986,
			"-0.007": 5.66376554454,
			"-0.006": 19.0967261459,
			"-0.005": 23.1469764623,
			"-0.004": 24.5781896466,
			"-0.003": 32.9754697501,
			"-0.002": 33.838423514,
			"-0.001": 35.6248726774,
			"0.0": 30.4451335957,
			"0.001": 26.2439001044,
			"0.002": 27.1324635868,
			"0.003": 24.2509514055,
			"0.004": 10.2139674169,
			"0.005": 6.15826369415,
			"0.006": 4.86096348483,
			"0.007": 3.75228193308,
			"0.008": 4.251676996,
			"0.009": 3.82690200587,
			"0.01": 4.48446269976,
			"0.011": 7.05949401205,
			"0.012": 7.0361749857,
			"0.013": 1.4016868674,
			"0.014": 0.0,
			"0.015": 0.0,
			"0.016": 0.0,
			"0.017": 0.0,
			"0.018": 0.0,
			"0.019": 0.0,
			"0.02": 0.0,
			"0.021": 0.0,
			"0.022": 0.0,
			"0.023": 0.0,
			"0.024": 0.0,
			"0.025": 0.0
		}
	}
}
