{
	 "smiles": "COC1=CC(OC)=C(C=C1)C1=NN=C(N)N1", 
	 "Tm": 488.15, 
	 "num_atms": 28, 
	 "gaussian": { 
		 "optdone": 1, 
		 "sigma_profile": "yes", 
		 "theory": "DFT", 
		 "functional": "B3LYP", 
		 "basiset": "6-31G**", 
		 "properties": { 
			 "R2extent": 4860.9335, 
			 "electric_dipole_moment_norm": 7.8055147697, 
			 "electric_quadrupole_moment_norm": 17.4906751539, 
			 "total_energy": -757.715852057, 
			 "HOMO_LUMO_gap": 0.17341, 
			 "cosmo_polarized_energy": -25.1, 
			 "cosmo_cavitation_energy": 32.11, 
			 "cosmo_dispersion_energy": -23.67, 
			 "cosmo_repulsion_energy": 1.85, 
			 "cosmo_total_nonelectrostatic_energy": 10.28, 
			 "SMD_solvation_energy": 4.74 
		},
		"coords": [
			{
				"x": 3.8983933029,
				"y": -1.3882794932,
				"z": 1.838315189,
				"element": "C" 
			},
			{
				"x": 3.3212999472,
				"y": -0.1008681331,
				"z": 1.9759056929,
				"element": "O" 
			},
			{
				"x": 2.0232749232,
				"y": 0.0788497812,
				"z": 1.599223731,
				"element": "C" 
			},
			{
				"x": 1.213126154,
				"y": -0.9353858912,
				"z": 1.075529152,
				"element": "C" 
			},
			{
				"x": -0.1108515288,
				"y": -0.6506433473,
				"z": 0.7167937768,
				"element": "C" 
			},
			{
				"x": -0.9507128845,
				"y": -1.6119108314,
				"z": 0.1991612863,
				"element": "O" 
			},
			{
				"x": -0.4682232787,
				"y": -2.9392803285,
				"z": 0.046902145,
				"element": "C" 
			},
			{
				"x": -0.645011532,
				"y": 0.6444001498,
				"z": 0.872828584,
				"element": "C" 
			},
			{
				"x": 0.2000995131,
				"y": 1.6366502945,
				"z": 1.4028507649,
				"element": "C" 
			},
			{
				"x": 1.509961397,
				"y": 1.3724850542,
				"z": 1.7631857079,
				"element": "C" 
			},
			{
				"x": -2.0168673888,
				"y": 1.0157663271,
				"z": 0.5270933197,
				"element": "C" 
			},
			{
				"x": -2.5449781042,
				"y": 2.2106144122,
				"z": 0.7038636916,
				"element": "N" 
			},
			{
				"x": -3.8463908017,
				"y": 2.178362562,
				"z": 0.2402514127,
				"element": "N" 
			},
			{
				"x": -4.0736616179,
				"y": 0.9567611087,
				"z": -0.1887660126,
				"element": "C" 
			},
			{
				"x": -5.2855442911,
				"y": 0.4629052715,
				"z": -0.6647814981,
				"element": "N" 
			},
			{
				"x": -2.9596536645,
				"y": 0.1815026889,
				"z": -0.0383298741,
				"element": "N" 
			},
			{
				"x": 4.9249441756,
				"y": -1.2986915626,
				"z": 2.1967624702,
				"element": "H" 
			},
			{
				"x": 3.3706364662,
				"y": -2.1367151314,
				"z": 2.4440283497,
				"element": "H" 
			},
			{
				"x": 3.9113746375,
				"y": -1.7177620322,
				"z": 0.7909719101,
				"element": "H" 
			},
			{
				"x": 1.6052722642,
				"y": -1.9335737634,
				"z": 0.948100618,
				"element": "H" 
			},
			{
				"x": 0.3770160573,
				"y": -2.9829232472,
				"z": -0.6507052529,
				"element": "H" 
			},
			{
				"x": -1.298726561,
				"y": -3.517634872,
				"z": -0.3611174093,
				"element": "H" 
			},
			{
				"x": -0.1683085136,
				"y": -3.3710855961,
				"z": 1.0093485609,
				"element": "H" 
			},
			{
				"x": -0.2152403288,
				"y": 2.6310974948,
				"z": 1.5235893362,
				"element": "H" 
			},
			{
				"x": 2.1527484716,
				"y": 2.1445919037,
				"z": 2.1708337553,
				"element": "H" 
			},
			{
				"x": -5.2171802133,
				"y": 0.0453626309,
				"z": -1.58772893,
				"element": "H" 
			},
			{
				"x": -5.9675554271,
				"y": 1.2136191456,
				"z": -0.6786526528,
				"element": "H" 
			},
			{
				"x": -2.8321411741,
				"y": -0.8047145955,
				"z": -0.2049578244,
				"element": "H" 
			}
		],
		 "valence_orbital": [ 
			{
				"type": "occ",
				"energy": -0.28171,
				"method": "rhf"
			},
			{
				"type": "occ",
				"energy": -0.24935,
				"method": "rhf"
			},
			{
				"type": "occ",
				"energy": -0.23601,
				"method": "rhf"
			},
			{
				"type": "occ",
				"energy": -0.23241,
				"method": "rhf"
			},
			{
				"type": "occ",
				"energy": -0.1885,
				"method": "rhf"
			},
			{
				"type": "unocc",
				"energy": -0.01509,
				"method": "rhf"
			},
			{
				"type": "unocc",
				"energy": 0.00562,
				"method": "rhf"
			},
			{
				"type": "unocc",
				"energy": 0.06165,
				"method": "rhf"
			},
			{
				"type": "unocc",
				"energy": 0.07408,
				"method": "rhf"
			},
			{
				"type": "unocc",
				"energy": 0.0774,
				"method": "rhf"
			}
		],
		"cosmo_sigma_profile": { 
			"-0.025": 0.0,
			"-0.024": 0.0,
			"-0.023": 0.0,
			"-0.022": 0.0,
			"-0.021": 0.0,
			"-0.02": 0.0,
			"-0.019": 0.0,
			"-0.018": 0.0,
			"-0.017": 0.0,
			"-0.016": 0.0,
			"-0.015": 0.00498211444347,
			"-0.014": 1.38425079915,
			"-0.013": 3.46484342544,
			"-0.012": 3.85877772593,
			"-0.011": 3.54585421355,
			"-0.01": 3.55092899853,
			"-0.009": 2.4229085509,
			"-0.008": 3.01177911705,
			"-0.007": 5.55968061216,
			"-0.006": 17.7485914085,
			"-0.005": 22.8131268852,
			"-0.004": 21.5880984265,
			"-0.003": 19.857588566,
			"-0.002": 11.2480683357,
			"-0.001": 9.0563135497,
			"0.0": 12.6643592611,
			"0.001": 14.1008079234,
			"0.002": 15.4629621062,
			"0.003": 18.1511621446,
			"0.004": 16.3086433412,
			"0.005": 8.80734431189,
			"0.006": 4.094053227,
			"0.007": 3.42883537444,
			"0.008": 4.50418951177,
			"0.009": 4.15897410158,
			"0.01": 3.43880723858,
			"0.011": 2.52738432707,
			"0.012": 3.04538549293,
			"0.013": 3.26679220276,
			"0.014": 3.24077559022,
			"0.015": 3.37947790288,
			"0.016": 3.62964162844,
			"0.017": 1.64815375717,
			"0.018": 0.559748921867,
			"0.019": 0.0,
			"0.02": 0.0,
			"0.021": 0.0,
			"0.022": 0.0,
			"0.023": 0.0,
			"0.024": 0.0,
			"0.025": 0.0
		}
	}
}
