{
	 "smiles": "NC(=O)CSC1=C(C=CC=C1)C(O)=O", 
	 "Tm": 484.15, 
	 "num_atms": 23, 
	 "gaussian": { 
		 "optdone": 1, 
		 "sigma_profile": "yes", 
		 "theory": "DFT", 
		 "functional": "B3LYP", 
		 "basiset": "6-31G**", 
		 "properties": { 
			 "R2extent": 3613.609, 
			 "electric_dipole_moment_norm": 7.21160642437, 
			 "electric_quadrupole_moment_norm": 19.5998039628, 
			 "total_energy": -1027.01161182, 
			 "HOMO_LUMO_gap": 0.16614, 
			 "cosmo_polarized_energy": -19.92, 
			 "cosmo_cavitation_energy": 28.8, 
			 "cosmo_dispersion_energy": -21.31, 
			 "cosmo_repulsion_energy": 1.65, 
			 "cosmo_total_nonelectrostatic_energy": 9.14, 
			 "SMD_solvation_energy": 6.17 
		},
		"coords": [
			{
				"x": -3.1002575581,
				"y": 1.0220836741,
				"z": -1.3353990289,
				"element": "N" 
			},
			{
				"x": -3.5971474814,
				"y": 0.4628945268,
				"z": -0.1997047011,
				"element": "C" 
			},
			{
				"x": -4.7586612568,
				"y": 0.1047832582,
				"z": -0.0641061107,
				"element": "O" 
			},
			{
				"x": -2.577129223,
				"y": 0.3273273454,
				"z": 0.9365384747,
				"element": "C" 
			},
			{
				"x": -1.5317657933,
				"y": -1.1848466963,
				"z": 0.6686232087,
				"element": "S" 
			},
			{
				"x": -0.0004145686,
				"y": -0.7185444786,
				"z": 1.4834196562,
				"element": "C" 
			},
			{
				"x": 1.000392535,
				"y": 0.0668914845,
				"z": 0.8651427615,
				"element": "C" 
			},
			{
				"x": 2.2111471529,
				"y": 0.3018372247,
				"z": 1.5365737997,
				"element": "C" 
			},
			{
				"x": 2.4432288724,
				"y": -0.2267882876,
				"z": 2.8052096953,
				"element": "C" 
			},
			{
				"x": 1.4666391062,
				"y": -1.0172034063,
				"z": 3.4085603667,
				"element": "C" 
			},
			{
				"x": 0.2610182514,
				"y": -1.2611046122,
				"z": 2.7485131434,
				"element": "C" 
			},
			{
				"x": 0.8128369905,
				"y": 0.7016027339,
				"z": -0.4823326463,
				"element": "C" 
			},
			{
				"x": 1.8673988945,
				"y": 0.5986559517,
				"z": -1.3261601299,
				"element": "O" 
			},
			{
				"x": -0.1690469892,
				"y": 1.3197556579,
				"z": -0.8287304621,
				"element": "O" 
			},
			{
				"x": -2.1106872009,
				"y": 1.2059261618,
				"z": -1.4382567598,
				"element": "H" 
			},
			{
				"x": -3.7034266977,
				"y": 1.0512704516,
				"z": -2.1430760193,
				"element": "H" 
			},
			{
				"x": -1.9073724134,
				"y": 1.1870375119,
				"z": 0.9640165499,
				"element": "H" 
			},
			{
				"x": -3.1241151471,
				"y": 0.2235471922,
				"z": 1.8731279295,
				"element": "H" 
			},
			{
				"x": 2.9662071533,
				"y": 0.9306709849,
				"z": 1.0717675143,
				"element": "H" 
			},
			{
				"x": 3.379867532,
				"y": -0.0221533431,
				"z": 3.3143692001,
				"element": "H" 
			},
			{
				"x": 1.6377218297,
				"y": -1.443061769,
				"z": 4.3927048443,
				"element": "H" 
			},
			{
				"x": -0.4982478025,
				"y": -1.8828305145,
				"z": 3.2110233087,
				"element": "H" 
			},
			{
				"x": 2.5211138141,
				"y": -0.0148510522,
				"z": -0.9602245947,
				"element": "H" 
			}
		],
		 "valence_orbital": [ 
			{
				"type": "occ",
				"energy": -0.28363,
				"method": "rhf"
			},
			{
				"type": "occ",
				"energy": -0.27785,
				"method": "rhf"
			},
			{
				"type": "occ",
				"energy": -0.25564,
				"method": "rhf"
			},
			{
				"type": "occ",
				"energy": -0.23921,
				"method": "rhf"
			},
			{
				"type": "occ",
				"energy": -0.23124,
				"method": "rhf"
			},
			{
				"type": "unocc",
				"energy": -0.0651,
				"method": "rhf"
			},
			{
				"type": "unocc",
				"energy": -0.04282,
				"method": "rhf"
			},
			{
				"type": "unocc",
				"energy": 0.00889,
				"method": "rhf"
			},
			{
				"type": "unocc",
				"energy": 0.01762,
				"method": "rhf"
			},
			{
				"type": "unocc",
				"energy": 0.03416,
				"method": "rhf"
			}
		],
		"cosmo_sigma_profile": { 
			"-0.025": 0.0,
			"-0.024": 0.0,
			"-0.023": 0.0,
			"-0.022": 0.0,
			"-0.021": 0.0,
			"-0.02": 0.0,
			"-0.019": 0.276620007184,
			"-0.018": 1.07965073118,
			"-0.017": 0.503131391085,
			"-0.016": 1.0024217822,
			"-0.015": 1.04154194509,
			"-0.014": 1.34474523288,
			"-0.013": 2.47237897829,
			"-0.012": 2.2537161712,
			"-0.011": 2.05027275119,
			"-0.01": 1.84142426481,
			"-0.009": 2.89616638918,
			"-0.008": 4.32526731289,
			"-0.007": 9.94948922718,
			"-0.006": 13.2343794873,
			"-0.005": 13.4699710392,
			"-0.004": 11.5025355197,
			"-0.003": 13.218372079,
			"-0.002": 12.694911203,
			"-0.001": 13.3397343089,
			"0.0": 15.198530682,
			"0.001": 16.7155594348,
			"0.002": 18.2016598841,
			"0.003": 13.2941587459,
			"0.004": 9.52788734409,
			"0.005": 7.3319713922,
			"0.006": 6.26333139955,
			"0.007": 5.67202300621,
			"0.008": 6.62349170714,
			"0.009": 5.03489242463,
			"0.01": 4.50303716975,
			"0.011": 2.05884048907,
			"0.012": 1.95216396969,
			"0.013": 4.33878572033,
			"0.014": 5.21624522485,
			"0.015": 1.10406198215,
			"0.016": 0.0,
			"0.017": 0.0,
			"0.018": 0.0,
			"0.019": 0.0,
			"0.02": 0.0,
			"0.021": 0.0,
			"0.022": 0.0,
			"0.023": 0.0,
			"0.024": 0.0,
			"0.025": 0.0
		}
	}
}
