{
	 "smiles": "CC(SC1=CC=C(C=C1)[N+]([O-])=O)C(O)=O", 
	 "Tm": 388.15, 
	 "num_atms": 24, 
	 "gaussian": { 
		 "optdone": 1, 
		 "sigma_profile": "yes", 
		 "theory": "DFT", 
		 "functional": "B3LYP", 
		 "basiset": "6-31G**", 
		 "properties": { 
			 "R2extent": 4632.6424, 
			 "electric_dipole_moment_norm": 5.36113844813, 
			 "electric_quadrupole_moment_norm": 14.6077278582, 
			 "total_energy": -1102.12379428, 
			 "HOMO_LUMO_gap": 0.1587, 
			 "cosmo_polarized_energy": -16.73, 
			 "cosmo_cavitation_energy": 30.26, 
			 "cosmo_dispersion_energy": -22.15, 
			 "cosmo_repulsion_energy": 1.69, 
			 "cosmo_total_nonelectrostatic_energy": 9.79, 
			 "SMD_solvation_energy": 8.2 
		},
		"coords": [
			{
				"x": 2.6510404973,
				"y": -0.6962716856,
				"z": 0.0028349378,
				"element": "C" 
			},
			{
				"x": 1.9589710081,
				"y": 0.0199253273,
				"z": 1.1605574178,
				"element": "C" 
			},
			{
				"x": 0.8060633193,
				"y": 1.3758634267,
				"z": 0.6530202755,
				"element": "S" 
			},
			{
				"x": -0.4609583987,
				"y": 0.5983949871,
				"z": -0.3395613055,
				"element": "C" 
			},
			{
				"x": -1.1639288387,
				"y": 1.4572699021,
				"z": -1.2026544915,
				"element": "C" 
			},
			{
				"x": -2.2075485717,
				"y": 0.9739302274,
				"z": -1.9817715212,
				"element": "C" 
			},
			{
				"x": -2.5335991504,
				"y": -0.379225141,
				"z": -1.9047845701,
				"element": "C" 
			},
			{
				"x": -1.8465003978,
				"y": -1.2507887928,
				"z": -1.0640511541,
				"element": "C" 
			},
			{
				"x": -0.8122950287,
				"y": -0.7590924158,
				"z": -0.2718014551,
				"element": "C" 
			},
			{
				"x": -3.6279975625,
				"y": -0.8990041586,
				"z": -2.735070173,
				"element": "N" 
			},
			{
				"x": -4.2183951268,
				"y": -0.1010400366,
				"z": -3.4630244635,
				"element": "O" 
			},
			{
				"x": -3.8868062858,
				"y": -2.0991066242,
				"z": -2.6513011986,
				"element": "O" 
			},
			{
				"x": 1.3488047304,
				"y": -0.9529255606,
				"z": 2.1919440342,
				"element": "C" 
			},
			{
				"x": 0.525918613,
				"y": -0.4103952914,
				"z": 3.1088855636,
				"element": "O" 
			},
			{
				"x": 1.6272050984,
				"y": -2.1270940441,
				"z": 2.2122855111,
				"element": "O" 
			},
			{
				"x": 1.9339236374,
				"y": -1.2134463101,
				"z": -0.637762154,
				"element": "H" 
			},
			{
				"x": 3.3394290331,
				"y": -1.4439097213,
				"z": 0.4027002177,
				"element": "H" 
			},
			{
				"x": 3.2075337315,
				"y": 0.0203944716,
				"z": -0.6047012423,
				"element": "H" 
			},
			{
				"x": 2.704560582,
				"y": 0.6032875779,
				"z": 1.7189492848,
				"element": "H" 
			},
			{
				"x": -0.8859843161,
				"y": 2.5045800261,
				"z": -1.2675183207,
				"element": "H" 
			},
			{
				"x": -2.7610800405,
				"y": 1.6193972917,
				"z": -2.6521115736,
				"element": "H" 
			},
			{
				"x": -2.1308570319,
				"y": -2.2951466993,
				"z": -1.0308483859,
				"element": "H" 
			},
			{
				"x": -0.2919851479,
				"y": -1.4463111763,
				"z": 0.3839910561,
				"element": "H" 
			},
			{
				"x": 0.3357856471,
				"y": 0.5137144198,
				"z": 2.8649937105,
				"element": "H" 
			}
		],
		 "valence_orbital": [ 
			{
				"type": "occ",
				"energy": -0.312,
				"method": "rhf"
			},
			{
				"type": "occ",
				"energy": -0.29567,
				"method": "rhf"
			},
			{
				"type": "occ",
				"energy": -0.2913,
				"method": "rhf"
			},
			{
				"type": "occ",
				"energy": -0.29056,
				"method": "rhf"
			},
			{
				"type": "occ",
				"energy": -0.25514,
				"method": "rhf"
			},
			{
				"type": "unocc",
				"energy": -0.09644,
				"method": "rhf"
			},
			{
				"type": "unocc",
				"energy": -0.04203,
				"method": "rhf"
			},
			{
				"type": "unocc",
				"energy": -0.02634,
				"method": "rhf"
			},
			{
				"type": "unocc",
				"energy": -0.01166,
				"method": "rhf"
			},
			{
				"type": "unocc",
				"energy": 0.0112,
				"method": "rhf"
			}
		],
		"cosmo_sigma_profile": { 
			"-0.025": 0.0,
			"-0.024": 0.0,
			"-0.023": 0.0,
			"-0.022": 0.0,
			"-0.021": 0.0,
			"-0.02": 0.0,
			"-0.019": 0.0,
			"-0.018": 0.0,
			"-0.017": 0.0,
			"-0.016": 0.0,
			"-0.015": 0.541595313905,
			"-0.014": 1.14925956115,
			"-0.013": 1.16159664613,
			"-0.012": 1.61373922977,
			"-0.011": 2.3399555304,
			"-0.01": 3.8353724128,
			"-0.009": 2.74310580135,
			"-0.008": 6.02589840055,
			"-0.007": 9.51349169832,
			"-0.006": 11.2051923498,
			"-0.005": 11.8474120431,
			"-0.004": 16.498578148,
			"-0.003": 16.1450415894,
			"-0.002": 17.0290525503,
			"-0.001": 21.7897266184,
			"0.0": 20.2542435719,
			"0.001": 18.3199707069,
			"0.002": 9.54610741844,
			"0.003": 8.34372362098,
			"0.004": 6.64432709637,
			"0.005": 5.27683997253,
			"0.006": 6.09966765959,
			"0.007": 10.1858027889,
			"0.008": 11.5346349041,
			"0.009": 8.46893426875,
			"0.01": 7.40732114461,
			"0.011": 5.20826760491,
			"0.012": 2.46706526999,
			"0.013": 0.265862273521,
			"0.014": 0.0,
			"0.015": 0.0,
			"0.016": 0.0,
			"0.017": 0.0,
			"0.018": 0.0,
			"0.019": 0.0,
			"0.02": 0.0,
			"0.021": 0.0,
			"0.022": 0.0,
			"0.023": 0.0,
			"0.024": 0.0,
			"0.025": 0.0
		}
	}
}
