{
	 "smiles": "NC(=NO)C1=CC(Br)=CC=C1", 
	 "Tm": 406.15, 
	 "num_atms": 18, 
	 "gaussian": { 
		 "optdone": 1, 
		 "sigma_profile": "yes", 
		 "theory": "DFT", 
		 "functional": "B3LYP", 
		 "basiset": "6-31G**", 
		 "properties": { 
			 "R2extent": 3429.8883, 
			 "electric_dipole_moment_norm": 2.28229027514, 
			 "electric_quadrupole_moment_norm": 6.93287070989, 
			 "total_energy": -3027.037452, 
			 "HOMO_LUMO_gap": 0.17642, 
			 "cosmo_polarized_energy": -11.29, 
			 "cosmo_cavitation_energy": 24.81, 
			 "cosmo_dispersion_energy": -18.77, 
			 "cosmo_repulsion_energy": 1.54, 
			 "cosmo_total_nonelectrostatic_energy": 7.58, 
			 "SMD_solvation_energy": 3.24 
		},
		"coords": [
			{
				"x": 0.1623394875,
				"y": -1.73951474,
				"z": -3.4307870323,
				"element": "N" 
			},
			{
				"x": -0.5197728164,
				"y": -0.602068432,
				"z": -2.977705909,
				"element": "C" 
			},
			{
				"x": -1.2890459775,
				"y": -0.0293343762,
				"z": -3.8416383968,
				"element": "N" 
			},
			{
				"x": -1.7971618563,
				"y": 1.213079206,
				"z": -3.400498212,
				"element": "O" 
			},
			{
				"x": -0.2105866999,
				"y": -0.1876624471,
				"z": -1.5833678933,
				"element": "C" 
			},
			{
				"x": -1.1736444019,
				"y": 0.4373770792,
				"z": -0.7732402786,
				"element": "C" 
			},
			{
				"x": -0.8532457151,
				"y": 0.757977453,
				"z": 0.5412878074,
				"element": "C" 
			},
			{
				"x": -2.1751299692,
				"y": 1.5957479047,
				"z": 1.6430988262,
				"element": "Br" 
			},
			{
				"x": 0.4041563054,
				"y": 0.4855311209,
				"z": 1.0794145669,
				"element": "C" 
			},
			{
				"x": 1.3584731836,
				"y": -0.1308032609,
				"z": 0.2699325546,
				"element": "C" 
			},
			{
				"x": 1.0566323475,
				"y": -0.4709615195,
				"z": -1.0475907756,
				"element": "C" 
			},
			{
				"x": 0.119066285,
				"y": -2.5247867469,
				"z": -2.7908529608,
				"element": "H" 
			},
			{
				"x": -0.1306399546,
				"y": -1.9988696266,
				"z": -4.3663994715,
				"element": "H" 
			},
			{
				"x": -2.3055219537,
				"y": 1.4958685175,
				"z": -4.1710879161,
				"element": "H" 
			},
			{
				"x": -2.1501285546,
				"y": 0.670395178,
				"z": -1.1727669724,
				"element": "H" 
			},
			{
				"x": 0.6295236926,
				"y": 0.7517352959,
				"z": 2.1057585989,
				"element": "H" 
			},
			{
				"x": 2.3441751759,
				"y": -0.3443182214,
				"z": 0.6726450892,
				"element": "H" 
			},
			{
				"x": 1.8021114217,
				"y": -0.9431923846,
				"z": -1.6777016248,
				"element": "H" 
			}
		],
		 "valence_orbital": [ 
			{
				"type": "occ",
				"energy": -0.28544,
				"method": "rhf"
			},
			{
				"type": "occ",
				"energy": -0.27062,
				"method": "rhf"
			},
			{
				"type": "occ",
				"energy": -0.26567,
				"method": "rhf"
			},
			{
				"type": "occ",
				"energy": -0.24405,
				"method": "rhf"
			},
			{
				"type": "occ",
				"energy": -0.21521,
				"method": "rhf"
			},
			{
				"type": "unocc",
				"energy": -0.03879,
				"method": "rhf"
			},
			{
				"type": "unocc",
				"energy": -0.01425,
				"method": "rhf"
			},
			{
				"type": "unocc",
				"energy": 0.00829,
				"method": "rhf"
			},
			{
				"type": "unocc",
				"energy": 0.04924,
				"method": "rhf"
			},
			{
				"type": "unocc",
				"energy": 0.07447,
				"method": "rhf"
			}
		],
		"cosmo_sigma_profile": { 
			"-0.025": 0.0,
			"-0.024": 0.0,
			"-0.023": 0.0,
			"-0.022": 0.0,
			"-0.021": 0.0,
			"-0.02": 0.0,
			"-0.019": 0.0,
			"-0.018": 0.0,
			"-0.017": 0.415173345945,
			"-0.016": 1.12761461659,
			"-0.015": 0.653250414165,
			"-0.014": 1.24329692026,
			"-0.013": 1.13216407067,
			"-0.012": 2.5016402743,
			"-0.011": 3.29662839659,
			"-0.01": 3.25875052713,
			"-0.009": 2.19125403549,
			"-0.008": 3.38092450942,
			"-0.007": 6.78423462482,
			"-0.006": 7.50999310399,
			"-0.005": 9.4827237791,
			"-0.004": 8.58922262635,
			"-0.003": 9.48301927346,
			"-0.002": 9.22059651935,
			"-0.001": 12.2088608294,
			"0.0": 11.308671546,
			"0.001": 14.8159346247,
			"0.002": 20.7418909663,
			"0.003": 20.4166070266,
			"0.004": 16.278592721,
			"0.005": 10.833018125,
			"0.006": 5.7500823356,
			"0.007": 3.8017703298,
			"0.008": 3.59720707372,
			"0.009": 2.45780518707,
			"0.01": 3.39388782615,
			"0.011": 2.57181234681,
			"0.012": 1.62028263984,
			"0.013": 0.773888613563,
			"0.014": 0.244182283792,
			"0.015": 0.0,
			"0.016": 0.0,
			"0.017": 0.0,
			"0.018": 0.0,
			"0.019": 0.0,
			"0.02": 0.0,
			"0.021": 0.0,
			"0.022": 0.0,
			"0.023": 0.0,
			"0.024": 0.0,
			"0.025": 0.0
		}
	}
}
