{
	 "smiles": "CCC1=C2NC=C(CC#N)C2=CC=C1", 
	 "Tm": 389.15, 
	 "num_atms": 26, 
	 "gaussian": { 
		 "optdone": 1, 
		 "sigma_profile": "yes", 
		 "theory": "DFT", 
		 "functional": "B3LYP", 
		 "basiset": "6-31G**", 
		 "properties": { 
			 "R2extent": 3359.0193, 
			 "electric_dipole_moment_norm": 5.46866208409, 
			 "electric_quadrupole_moment_norm": 23.2875735754, 
			 "total_energy": -574.009846706, 
			 "HOMO_LUMO_gap": 0.19377, 
			 "cosmo_polarized_energy": -15.42, 
			 "cosmo_cavitation_energy": 30.45, 
			 "cosmo_dispersion_energy": -21.0, 
			 "cosmo_repulsion_energy": 1.66, 
			 "cosmo_total_nonelectrostatic_energy": 11.11, 
			 "SMD_solvation_energy": 6.33 
		},
		"coords": [
			{
				"x": -0.8684242953,
				"y": 0.4987563651,
				"z": 2.7756339484,
				"element": "C" 
			},
			{
				"x": 0.053771333,
				"y": 1.4566792581,
				"z": 1.9974864945,
				"element": "C" 
			},
			{
				"x": 0.7624820981,
				"y": 0.7978173869,
				"z": 0.8350720419,
				"element": "C" 
			},
			{
				"x": 0.1083225636,
				"y": 0.5379736338,
				"z": -0.3820083761,
				"element": "C" 
			},
			{
				"x": -1.1878818074,
				"y": 0.8308584803,
				"z": -0.768929029,
				"element": "N" 
			},
			{
				"x": -1.3860586546,
				"y": 0.4010889014,
				"z": -2.0646959576,
				"element": "C" 
			},
			{
				"x": -0.2358044164,
				"y": -0.1752408138,
				"z": -2.5407401967,
				"element": "C" 
			},
			{
				"x": -0.0366920242,
				"y": -0.7482855569,
				"z": -3.9193250162,
				"element": "C" 
			},
			{
				"x": 0.1554253492,
				"y": -2.2080326242,
				"z": -3.9302726745,
				"element": "C" 
			},
			{
				"x": 0.3114693722,
				"y": -3.3581323099,
				"z": -3.938090876,
				"element": "N" 
			},
			{
				"x": 0.7385892519,
				"y": -0.103829984,
				"z": -1.4810880812,
				"element": "C" 
			},
			{
				"x": 2.0780192383,
				"y": -0.5139051837,
				"z": -1.3578212732,
				"element": "C" 
			},
			{
				"x": 2.7389823872,
				"y": -0.2640180161,
				"z": -0.1637446708,
				"element": "C" 
			},
			{
				"x": 2.09044812,
				"y": 0.3820527267,
				"z": 0.908690292,
				"element": "C" 
			},
			{
				"x": -1.3701109607,
				"y": 1.0186022564,
				"z": 3.5985746754,
				"element": "H" 
			},
			{
				"x": -1.6390065846,
				"y": 0.0670403275,
				"z": 2.1280658254,
				"element": "H" 
			},
			{
				"x": -0.2948972124,
				"y": -0.3326967552,
				"z": 3.1960595474,
				"element": "H" 
			},
			{
				"x": -0.5323942197,
				"y": 2.3151807406,
				"z": 1.6392288972,
				"element": "H" 
			},
			{
				"x": 0.8020228535,
				"y": 1.8714693768,
				"z": 2.681682571,
				"element": "H" 
			},
			{
				"x": -1.8769782147,
				"y": 1.2957017964,
				"z": -0.2018443635,
				"element": "H" 
			},
			{
				"x": -2.3404340544,
				"y": 0.5401700873,
				"z": -2.5534365833,
				"element": "H" 
			},
			{
				"x": 0.8369063961,
				"y": -0.2964960324,
				"z": -4.4081116601,
				"element": "H" 
			},
			{
				"x": -0.8998834492,
				"y": -0.5175462156,
				"z": -4.5538409092,
				"element": "H" 
			},
			{
				"x": 2.5823579996,
				"y": -1.0210736027,
				"z": -2.1751199469,
				"element": "H" 
			},
			{
				"x": 3.7743176021,
				"y": -0.5703394392,
				"z": -0.047220419,
				"element": "H" 
			},
			{
				"x": 2.6426513286,
				"y": 0.5637051965,
				"z": 1.8275957401,
				"element": "H" 
			}
		],
		 "valence_orbital": [ 
			{
				"type": "occ",
				"energy": -0.31651,
				"method": "rhf"
			},
			{
				"type": "occ",
				"energy": -0.31492,
				"method": "rhf"
			},
			{
				"type": "occ",
				"energy": -0.27223,
				"method": "rhf"
			},
			{
				"type": "occ",
				"energy": -0.22489,
				"method": "rhf"
			},
			{
				"type": "occ",
				"energy": -0.20792,
				"method": "rhf"
			},
			{
				"type": "unocc",
				"energy": -0.01415,
				"method": "rhf"
			},
			{
				"type": "unocc",
				"energy": 0.02161,
				"method": "rhf"
			},
			{
				"type": "unocc",
				"energy": 0.03613,
				"method": "rhf"
			},
			{
				"type": "unocc",
				"energy": 0.04671,
				"method": "rhf"
			},
			{
				"type": "unocc",
				"energy": 0.05891,
				"method": "rhf"
			}
		],
		"cosmo_sigma_profile": { 
			"-0.025": 0.0,
			"-0.024": 0.0,
			"-0.023": 0.0,
			"-0.022": 0.0,
			"-0.021": 0.0,
			"-0.02": 0.0,
			"-0.019": 0.0,
			"-0.018": 0.0,
			"-0.017": 0.0,
			"-0.016": 0.0320982662095,
			"-0.015": 0.78878895028,
			"-0.014": 1.14263394291,
			"-0.013": 1.10597941605,
			"-0.012": 0.731472251091,
			"-0.011": 1.57908956406,
			"-0.01": 1.51024664066,
			"-0.009": 3.56382865911,
			"-0.008": 9.33994938902,
			"-0.007": 8.62608174129,
			"-0.006": 9.17753465724,
			"-0.005": 11.6548448266,
			"-0.004": 13.0404446237,
			"-0.003": 18.9063091194,
			"-0.002": 17.7298851769,
			"-0.001": 18.6395285308,
			"0.0": 19.5604276336,
			"0.001": 15.6565239134,
			"0.002": 11.7484810742,
			"0.003": 10.737077776,
			"0.004": 14.8405103941,
			"0.005": 13.3433036828,
			"0.006": 10.7834185087,
			"0.007": 8.66568918218,
			"0.008": 4.23027857253,
			"0.009": 3.64044012835,
			"0.01": 3.18348378881,
			"0.011": 3.14198516316,
			"0.012": 2.6297481773,
			"0.013": 2.19754671131,
			"0.014": 0.546399506229,
			"0.015": 0.0,
			"0.016": 0.0,
			"0.017": 0.0,
			"0.018": 0.0,
			"0.019": 0.0,
			"0.02": 0.0,
			"0.021": 0.0,
			"0.022": 0.0,
			"0.023": 0.0,
			"0.024": 0.0,
			"0.025": 0.0
		}
	}
}
