{
	 "smiles": "ClC=C(Cl)Cl", 
	 "Tm": 188.35, 
	 "num_atms": 6, 
	 "gaussian": { 
		 "optdone": 1, 
		 "sigma_profile": "yes", 
		 "theory": "DFT", 
		 "functional": "B3LYP", 
		 "basiset": "6-31G**", 
		 "properties": { 
			 "R2extent": 2312.3018, 
			 "electric_dipole_moment_norm": 0.948080344697, 
			 "electric_quadrupole_moment_norm": 1.59036284853, 
			 "total_energy": -1457.35545234, 
			 "HOMO_LUMO_gap": 0.23132, 
			 "cosmo_polarized_energy": -2.43, 
			 "cosmo_cavitation_energy": 15.82, 
			 "cosmo_dispersion_energy": -12.28, 
			 "cosmo_repulsion_energy": 1.1, 
			 "cosmo_total_nonelectrostatic_energy": 4.64, 
			 "SMD_solvation_energy": 2.63 
		},
		"coords": [
			{
				"x": -1.9464399634,
				"y": 1.0313418041,
				"z": -1.58458083,
				"element": "Cl" 
			},
			{
				"x": -1.5232878725,
				"y": -0.4203160517,
				"z": -0.7464652803,
				"element": "C" 
			},
			{
				"x": -1.3911568125,
				"y": -1.6159835551,
				"z": -1.329401274,
				"element": "C" 
			},
			{
				"x": -0.9596003201,
				"y": -3.0049131209,
				"z": -0.3714875957,
				"element": "Cl" 
			},
			{
				"x": -1.620218108,
				"y": -1.9143954672,
				"z": -3.016694921,
				"element": "Cl" 
			},
			{
				"x": -1.3654969236,
				"y": -0.3008336093,
				"z": 0.3175299008,
				"element": "H" 
			}
		],
		 "valence_orbital": [ 
			{
				"type": "occ",
				"energy": -0.35765,
				"method": "rhf"
			},
			{
				"type": "occ",
				"energy": -0.34408,
				"method": "rhf"
			},
			{
				"type": "occ",
				"energy": -0.3379,
				"method": "rhf"
			},
			{
				"type": "occ",
				"energy": -0.32397,
				"method": "rhf"
			},
			{
				"type": "occ",
				"energy": -0.26119,
				"method": "rhf"
			},
			{
				"type": "unocc",
				"energy": -0.02987,
				"method": "rhf"
			},
			{
				"type": "unocc",
				"energy": -0.01434,
				"method": "rhf"
			},
			{
				"type": "unocc",
				"energy": -0.00435,
				"method": "rhf"
			},
			{
				"type": "unocc",
				"energy": 0.06084,
				"method": "rhf"
			},
			{
				"type": "unocc",
				"energy": 0.16267,
				"method": "rhf"
			}
		],
		"cosmo_sigma_profile": { 
			"-0.025": 0.0,
			"-0.024": 0.0,
			"-0.023": 0.0,
			"-0.022": 0.0,
			"-0.021": 0.0,
			"-0.02": 0.0,
			"-0.019": 0.0,
			"-0.018": 0.0,
			"-0.017": 0.0,
			"-0.016": 0.0,
			"-0.015": 0.0,
			"-0.014": 0.0,
			"-0.013": 0.0,
			"-0.012": 0.0611768847397,
			"-0.011": 1.18955917908,
			"-0.01": 1.74319714308,
			"-0.009": 1.34661755509,
			"-0.008": 1.29419915894,
			"-0.007": 1.57070238527,
			"-0.006": 1.50284792484,
			"-0.005": 2.51893280791,
			"-0.004": 5.05979591563,
			"-0.003": 5.73572060128,
			"-0.002": 10.1828961932,
			"-0.001": 15.4500929705,
			"0.0": 16.9101072903,
			"0.001": 16.7517850518,
			"0.002": 23.1410528634,
			"0.003": 24.535052841,
			"0.004": 5.27109974835,
			"0.005": 0.0616290125219,
			"0.006": 0.0,
			"0.007": 0.0,
			"0.008": 0.0,
			"0.009": 0.0,
			"0.01": 0.0,
			"0.011": 0.0,
			"0.012": 0.0,
			"0.013": 0.0,
			"0.014": 0.0,
			"0.015": 0.0,
			"0.016": 0.0,
			"0.017": 0.0,
			"0.018": 0.0,
			"0.019": 0.0,
			"0.02": 0.0,
			"0.021": 0.0,
			"0.022": 0.0,
			"0.023": 0.0,
			"0.024": 0.0,
			"0.025": 0.0
		}
	}
}
