{
	 "smiles": "CNC1=C(OC)C=CC=C1", 
	 "Tm": 304.65, 
	 "num_atms": 21, 
	 "gaussian": { 
		 "optdone": 1, 
		 "sigma_profile": "yes", 
		 "theory": "DFT", 
		 "functional": "B3LYP", 
		 "basiset": "6-31G**", 
		 "properties": { 
			 "R2extent": 1828.6048, 
			 "electric_dipole_moment_norm": 1.43116681767, 
			 "electric_quadrupole_moment_norm": 5.28339295056, 
			 "total_energy": -441.433587445, 
			 "HOMO_LUMO_gap": 0.20791, 
			 "cosmo_polarized_energy": -6.62, 
			 "cosmo_cavitation_energy": 23.58, 
			 "cosmo_dispersion_energy": -17.32, 
			 "cosmo_repulsion_energy": 1.41, 
			 "cosmo_total_nonelectrostatic_energy": 7.67, 
			 "SMD_solvation_energy": 4.48 
		},
		"coords": [
			{
				"x": -0.4573029543,
				"y": 0.1186776541,
				"z": -2.5876301165,
				"element": "C" 
			},
			{
				"x": -0.4712697564,
				"y": 1.4203053569,
				"z": -1.908560059,
				"element": "N" 
			},
			{
				"x": -0.0926819185,
				"y": 1.4699418173,
				"z": -0.5510100271,
				"element": "C" 
			},
			{
				"x": -0.7814983772,
				"y": 0.7239575758,
				"z": 0.4329376457,
				"element": "C" 
			},
			{
				"x": -1.837893324,
				"y": -0.1041126194,
				"z": 0.0974057666,
				"element": "O" 
			},
			{
				"x": -3.0487965685,
				"y": 0.593960679,
				"z": -0.2130185332,
				"element": "C" 
			},
			{
				"x": -0.3946611552,
				"y": 0.7900440696,
				"z": 1.7705172982,
				"element": "C" 
			},
			{
				"x": 0.6534936146,
				"y": 1.6190141281,
				"z": 2.1737579266,
				"element": "C" 
			},
			{
				"x": 1.3143972677,
				"y": 2.3929954106,
				"z": 1.2200405441,
				"element": "C" 
			},
			{
				"x": 0.9507411969,
				"y": 2.3068133897,
				"z": -0.12339256,
				"element": "C" 
			},
			{
				"x": -0.8126282717,
				"y": 0.2539610933,
				"z": -3.6132196963,
				"element": "H" 
			},
			{
				"x": 0.5428208053,
				"y": -0.3409671533,
				"z": -2.6209021928,
				"element": "H" 
			},
			{
				"x": -1.1290150151,
				"y": -0.5684233067,
				"z": -2.0729323983,
				"element": "H" 
			},
			{
				"x": 0.0562324748,
				"y": 2.1031255905,
				"z": -2.4411699935,
				"element": "H" 
			},
			{
				"x": -3.7919568923,
				"y": -0.1696751013,
				"z": -0.453641776,
				"element": "H" 
			},
			{
				"x": -2.9141649083,
				"y": 1.2624780435,
				"z": -1.0701978981,
				"element": "H" 
			},
			{
				"x": -3.3944272022,
				"y": 1.1750240937,
				"z": 0.6515472711,
				"element": "H" 
			},
			{
				"x": -0.9445820911,
				"y": 0.1855861861,
				"z": 2.4854975535,
				"element": "H" 
			},
			{
				"x": 0.9403561937,
				"y": 1.6656642028,
				"z": 3.2197595949,
				"element": "H" 
			},
			{
				"x": 2.1277911895,
				"y": 3.0501529383,
				"z": 1.5138536526,
				"element": "H" 
			},
			{
				"x": 1.4894456922,
				"y": 2.8898759514,
				"z": -0.8678420025,
				"element": "H" 
			}
		],
		 "valence_orbital": [ 
			{
				"type": "occ",
				"energy": -0.33052,
				"method": "rhf"
			},
			{
				"type": "occ",
				"energy": -0.28292,
				"method": "rhf"
			},
			{
				"type": "occ",
				"energy": -0.26259,
				"method": "rhf"
			},
			{
				"type": "occ",
				"energy": -0.23357,
				"method": "rhf"
			},
			{
				"type": "occ",
				"energy": -0.19963,
				"method": "rhf"
			},
			{
				"type": "unocc",
				"energy": 0.00828,
				"method": "rhf"
			},
			{
				"type": "unocc",
				"energy": 0.01354,
				"method": "rhf"
			},
			{
				"type": "unocc",
				"energy": 0.08826,
				"method": "rhf"
			},
			{
				"type": "unocc",
				"energy": 0.09769,
				"method": "rhf"
			},
			{
				"type": "unocc",
				"energy": 0.12311,
				"method": "rhf"
			}
		],
		"cosmo_sigma_profile": { 
			"-0.025": 0.0,
			"-0.024": 0.0,
			"-0.023": 0.0,
			"-0.022": 0.0,
			"-0.021": 0.0,
			"-0.02": 0.0,
			"-0.019": 0.0,
			"-0.018": 0.0,
			"-0.017": 0.0,
			"-0.016": 0.0,
			"-0.015": 0.0,
			"-0.014": 0.0,
			"-0.013": 0.0,
			"-0.012": 0.285180055815,
			"-0.011": 1.47625723879,
			"-0.01": 1.45297476074,
			"-0.009": 1.7091214106,
			"-0.008": 1.47132966263,
			"-0.007": 1.44367444167,
			"-0.006": 3.61615725119,
			"-0.005": 10.6843617517,
			"-0.004": 14.8236091539,
			"-0.003": 19.516234829,
			"-0.002": 21.9464648791,
			"-0.001": 18.254129126,
			"0.0": 16.6748818651,
			"0.001": 10.3082394288,
			"0.002": 8.44087903921,
			"0.003": 9.30625953516,
			"0.004": 11.3843204618,
			"0.005": 10.4360255845,
			"0.006": 9.79470578324,
			"0.007": 5.78793549232,
			"0.008": 1.97126821087,
			"0.009": 1.72429009743,
			"0.01": 0.981196923484,
			"0.011": 1.52639445929,
			"0.012": 1.04176600165,
			"0.013": 0.286482605897,
			"0.014": 0.0,
			"0.015": 0.0,
			"0.016": 0.0,
			"0.017": 0.0,
			"0.018": 0.0,
			"0.019": 0.0,
			"0.02": 0.0,
			"0.021": 0.0,
			"0.022": 0.0,
			"0.023": 0.0,
			"0.024": 0.0,
			"0.025": 0.0
		}
	}
}
