{
	 "smiles": "NC1=CC=C(C=C1)C1=NN=CN1", 
	 "Tm": 477.15, 
	 "num_atms": 20, 
	 "gaussian": { 
		 "optdone": 1, 
		 "sigma_profile": "yes", 
		 "theory": "DFT", 
		 "functional": "B3LYP", 
		 "basiset": "6-31G**", 
		 "properties": { 
			 "R2extent": 2911.3184, 
			 "electric_dipole_moment_norm": 6.35030664693, 
			 "electric_quadrupole_moment_norm": 28.3117241035, 
			 "total_energy": -528.663213515, 
			 "HOMO_LUMO_gap": 0.17848, 
			 "cosmo_polarized_energy": -24.69, 
			 "cosmo_cavitation_energy": 24.5, 
			 "cosmo_dispersion_energy": -18.49, 
			 "cosmo_repulsion_energy": 1.45, 
			 "cosmo_total_nonelectrostatic_energy": 7.46, 
			 "SMD_solvation_energy": 2.58 
		},
		"coords": [
			{
				"x": 0.5198205363,
				"y": -1.0272472006,
				"z": 2.9440112244,
				"element": "N" 
			},
			{
				"x": 0.4193644616,
				"y": -0.347838588,
				"z": 1.7347057012,
				"element": "C" 
			},
			{
				"x": 1.4066040627,
				"y": 0.5775324632,
				"z": 1.3434722885,
				"element": "C" 
			},
			{
				"x": 1.3369491186,
				"y": 1.2139018556,
				"z": 0.1140344182,
				"element": "C" 
			},
			{
				"x": 0.2804280374,
				"y": 0.9558279775,
				"z": -0.7775444955,
				"element": "C" 
			},
			{
				"x": -0.703668644,
				"y": 0.0364392399,
				"z": -0.3841662005,
				"element": "C" 
			},
			{
				"x": -0.6395535334,
				"y": -0.6065057178,
				"z": 0.8468046096,
				"element": "C" 
			},
			{
				"x": 0.2469210627,
				"y": 1.6533403759,
				"z": -2.0618139337,
				"element": "C" 
			},
			{
				"x": 1.0706310875,
				"y": 2.6148334225,
				"z": -2.4391941409,
				"element": "N" 
			},
			{
				"x": 0.7187172652,
				"y": 3.0087412846,
				"z": -3.713464182,
				"element": "N" 
			},
			{
				"x": -0.3066618257,
				"y": 2.2795896514,
				"z": -4.0754048202,
				"element": "C" 
			},
			{
				"x": -0.6504842306,
				"y": 1.4092463576,
				"z": -3.075976307,
				"element": "N" 
			},
			{
				"x": 1.0830270498,
				"y": -0.5804097404,
				"z": 3.6536497122,
				"element": "H" 
			},
			{
				"x": -0.3423243428,
				"y": -1.4024367615,
				"z": 3.313178224,
				"element": "H" 
			},
			{
				"x": 2.2355129272,
				"y": 0.7894756151,
				"z": 2.0142596586,
				"element": "H" 
			},
			{
				"x": 2.099426092,
				"y": 1.926843032,
				"z": -0.1805460595,
				"element": "H" 
			},
			{
				"x": -1.548347899,
				"y": -0.1826628353,
				"z": -1.0330516029,
				"element": "H" 
			},
			{
				"x": -1.4139765663,
				"y": -1.3160098653,
				"z": 1.1269010498,
				"element": "H" 
			},
			{
				"x": -0.8264907766,
				"y": 2.337232962,
				"z": -5.020908427,
				"element": "H" 
			},
			{
				"x": -1.3827938825,
				"y": 0.7172064717,
				"z": -3.0983467173,
				"element": "H" 
			}
		],
		 "valence_orbital": [ 
			{
				"type": "occ",
				"energy": -0.29485,
				"method": "rhf"
			},
			{
				"type": "occ",
				"energy": -0.26173,
				"method": "rhf"
			},
			{
				"type": "occ",
				"energy": -0.25565,
				"method": "rhf"
			},
			{
				"type": "occ",
				"energy": -0.24276,
				"method": "rhf"
			},
			{
				"type": "occ",
				"energy": -0.19926,
				"method": "rhf"
			},
			{
				"type": "unocc",
				"energy": -0.02078,
				"method": "rhf"
			},
			{
				"type": "unocc",
				"energy": -0.00562,
				"method": "rhf"
			},
			{
				"type": "unocc",
				"energy": 0.0416,
				"method": "rhf"
			},
			{
				"type": "unocc",
				"energy": 0.05657,
				"method": "rhf"
			},
			{
				"type": "unocc",
				"energy": 0.06939,
				"method": "rhf"
			}
		],
		"cosmo_sigma_profile": { 
			"-0.025": 0.0,
			"-0.024": 0.0,
			"-0.023": 0.0,
			"-0.022": 0.0,
			"-0.021": 0.0,
			"-0.02": 0.0,
			"-0.019": 0.0,
			"-0.018": 0.110818734067,
			"-0.017": 1.4649951181,
			"-0.016": 1.39713306145,
			"-0.015": 1.69052365753,
			"-0.014": 1.30688739701,
			"-0.013": 2.64792864515,
			"-0.012": 4.14002066212,
			"-0.011": 4.05069834315,
			"-0.01": 7.92103658719,
			"-0.009": 6.83689951521,
			"-0.008": 4.45921679641,
			"-0.007": 6.74980802384,
			"-0.006": 7.21159051278,
			"-0.005": 8.4231584144,
			"-0.004": 8.36955267622,
			"-0.003": 8.39989640539,
			"-0.002": 7.22657997722,
			"-0.001": 7.83458763881,
			"0.0": 10.5350411242,
			"0.001": 9.88263167697,
			"0.002": 8.52091629777,
			"0.003": 10.2031121959,
			"0.004": 12.159517763,
			"0.005": 15.5435066079,
			"0.006": 6.6934365904,
			"0.007": 3.52633670885,
			"0.008": 2.79432329239,
			"0.009": 2.64362666923,
			"0.01": 2.58997988091,
			"0.011": 3.0662224303,
			"0.012": 3.90481400256,
			"0.013": 2.60804861295,
			"0.014": 3.39346760799,
			"0.015": 3.94029541147,
			"0.016": 2.27794037667,
			"0.017": 1.49268114133,
			"0.018": 0.178526194077,
			"0.019": 0.0,
			"0.02": 0.0,
			"0.021": 0.0,
			"0.022": 0.0,
			"0.023": 0.0,
			"0.024": 0.0,
			"0.025": 0.0
		}
	}
}
