{
	 "smiles": "CC(C)N1CCN(CC1)C1=CC=C(OC[C@H]2CO[C@@](CN3C=NC=N3)(O2)C2=CC=C(Cl)C=C2Cl)C=C1", 
	 "Tm": 399.45, 
	 "num_atms": 67, 
	 "gaussian": { 
		 "optdone": 1, 
		 "sigma_profile": "yes", 
		 "theory": "DFT", 
		 "functional": "B3LYP", 
		 "basiset": "6-31G**", 
		 "properties": { 
			 "R2extent": 26783.8075, 
			 "electric_dipole_moment_norm": 3.7312475943, 
			 "electric_quadrupole_moment_norm": 28.8992918107, 
			 "total_energy": -2429.1984566, 
			 "HOMO_LUMO_gap": 0.15434, 
			 "cosmo_polarized_energy": -20.27, 
			 "cosmo_cavitation_energy": 69.54, 
			 "cosmo_dispersion_energy": -44.29, 
			 "cosmo_repulsion_energy": 3.28, 
			 "cosmo_total_nonelectrostatic_energy": 28.53, 
			 "SMD_solvation_energy": 5.33 
		},
		"coords": [
			{
				"x": 5.580429244,
				"y": 1.379211991,
				"z": -4.8037002792,
				"element": "C" 
			},
			{
				"x": 4.9439290424,
				"y": 0.3529650455,
				"z": -3.8569707327,
				"element": "C" 
			},
			{
				"x": 4.9469750054,
				"y": -1.0570467481,
				"z": -4.4864318656,
				"element": "C" 
			},
			{
				"x": 3.6326743544,
				"y": 0.8219799557,
				"z": -3.3820826905,
				"element": "N" 
			},
			{
				"x": 3.1040798707,
				"y": 0.1275663083,
				"z": -2.197517976,
				"element": "C" 
			},
			{
				"x": 1.829289083,
				"y": -0.6841936551,
				"z": -2.4711899385,
				"element": "C" 
			},
			{
				"x": 0.7863631832,
				"y": 0.1777337561,
				"z": -3.0396792158,
				"element": "N" 
			},
			{
				"x": 1.2658906765,
				"y": 1.3482300264,
				"z": -3.7696984936,
				"element": "C" 
			},
			{
				"x": 2.6209438313,
				"y": 1.0554354654,
				"z": -4.4102468897,
				"element": "C" 
			},
			{
				"x": -0.500811015,
				"y": 0.1727585953,
				"z": -2.5150495167,
				"element": "C" 
			},
			{
				"x": -1.3327077042,
				"y": 1.3124420691,
				"z": -2.5721649121,
				"element": "C" 
			},
			{
				"x": -2.6124602178,
				"y": 1.3082225042,
				"z": -2.0156518565,
				"element": "C" 
			},
			{
				"x": -3.0982497531,
				"y": 0.1761160486,
				"z": -1.3612237022,
				"element": "C" 
			},
			{
				"x": -4.3653334134,
				"y": 0.099281957,
				"z": -0.8024527519,
				"element": "O" 
			},
			{
				"x": -4.8158034072,
				"y": 1.1712194387,
				"z": 0.0136765004,
				"element": "C" 
			},
			{
				"x": -4.4443213473,
				"y": 1.0141394569,
				"z": 1.4854723643,
				"element": "C" 
			},
			{
				"x": -4.7253964305,
				"y": -0.3507197739,
				"z": 2.1118556678,
				"element": "C" 
			},
			{
				"x": -3.7187330678,
				"y": -0.4732845253,
				"z": 3.1183010625,
				"element": "O" 
			},
			{
				"x": -2.6555078193,
				"y": 0.4281295849,
				"z": 2.826892527,
				"element": "C" 
			},
			{
				"x": -1.3999927678,
				"y": -0.4087809558,
				"z": 2.4943788987,
				"element": "C" 
			},
			{
				"x": -0.2343927186,
				"y": 0.3845668604,
				"z": 2.1481830088,
				"element": "N" 
			},
			{
				"x": 0.0461335437,
				"y": 1.0553291698,
				"z": 1.0053588315,
				"element": "C" 
			},
			{
				"x": 1.2400064469,
				"y": 1.6225894715,
				"z": 1.0865336526,
				"element": "N" 
			},
			{
				"x": 1.654700565,
				"y": 1.2608523895,
				"z": 2.3345857036,
				"element": "C" 
			},
			{
				"x": 0.8049527161,
				"y": 0.5120879182,
				"z": 3.0204152241,
				"element": "N" 
			},
			{
				"x": -3.0248188226,
				"y": 1.1281463177,
				"z": 1.6466344638,
				"element": "O" 
			},
			{
				"x": -2.449610321,
				"y": 1.4024981794,
				"z": 3.9957980477,
				"element": "C" 
			},
			{
				"x": -2.3559649507,
				"y": 2.7733649486,
				"z": 3.7239869878,
				"element": "C" 
			},
			{
				"x": -2.1663518732,
				"y": 3.7212143322,
				"z": 4.7266572667,
				"element": "C" 
			},
			{
				"x": -2.0613431678,
				"y": 3.287529214,
				"z": 6.0448421136,
				"element": "C" 
			},
			{
				"x": -1.8279439098,
				"y": 4.4549901046,
				"z": 7.333574878,
				"element": "Cl" 
			},
			{
				"x": -2.1347497453,
				"y": 1.9336304723,
				"z": 6.3613424416,
				"element": "C" 
			},
			{
				"x": -2.3226669664,
				"y": 1.0048235721,
				"z": 5.337190347,
				"element": "C" 
			},
			{
				"x": -2.380889171,
				"y": -0.6831580207,
				"z": 5.8259628317,
				"element": "Cl" 
			},
			{
				"x": -2.3098699426,
				"y": -0.9771062032,
				"z": -1.3369303988,
				"element": "C" 
			},
			{
				"x": -1.0428659082,
				"y": -0.98644596,
				"z": -1.9121058357,
				"element": "C" 
			},
			{
				"x": 5.0636176809,
				"y": 1.4220251748,
				"z": -5.7686724718,
				"element": "H" 
			},
			{
				"x": 5.5571920591,
				"y": 2.3771638646,
				"z": -4.3564499005,
				"element": "H" 
			},
			{
				"x": 6.6225608276,
				"y": 1.1122854024,
				"z": -5.0058870757,
				"element": "H" 
			},
			{
				"x": 5.5759021212,
				"y": 0.3136440519,
				"z": -2.9598541689,
				"element": "H" 
			},
			{
				"x": 4.5391276275,
				"y": -1.8052079061,
				"z": -3.7986315732,
				"element": "H" 
			},
			{
				"x": 4.3584450765,
				"y": -1.0895726155,
				"z": -5.4095512132,
				"element": "H" 
			},
			{
				"x": 5.9683666481,
				"y": -1.3625710624,
				"z": -4.7383652923,
				"element": "H" 
			},
			{
				"x": 3.867685627,
				"y": -0.5486303397,
				"z": -1.7977219582,
				"element": "H" 
			},
			{
				"x": 2.8758778876,
				"y": 0.8523787399,
				"z": -1.4034177439,
				"element": "H" 
			},
			{
				"x": 2.0474410531,
				"y": -1.5329564004,
				"z": -3.1362322944,
				"element": "H" 
			},
			{
				"x": 1.4774173682,
				"y": -1.0956371441,
				"z": -1.5208966605,
				"element": "H" 
			},
			{
				"x": 1.3582742454,
				"y": 2.2335586314,
				"z": -3.1181907965,
				"element": "H" 
			},
			{
				"x": 0.548191599,
				"y": 1.5947501738,
				"z": -4.5608010468,
				"element": "H" 
			},
			{
				"x": 2.4925777402,
				"y": 0.2055751109,
				"z": -5.1058628958,
				"element": "H" 
			},
			{
				"x": 2.9063379965,
				"y": 1.9212864258,
				"z": -5.0185136599,
				"element": "H" 
			},
			{
				"x": -0.9789040326,
				"y": 2.2242936961,
				"z": -3.0369757973,
				"element": "H" 
			},
			{
				"x": -3.2185795104,
				"y": 2.205445875,
				"z": -2.092502943,
				"element": "H" 
			},
			{
				"x": -5.9083557937,
				"y": 1.1819146872,
				"z": -0.0669344592,
				"element": "H" 
			},
			{
				"x": -4.4459570139,
				"y": 2.1381593011,
				"z": -0.3428071248,
				"element": "H" 
			},
			{
				"x": -4.9471034424,
				"y": 1.8130686492,
				"z": 2.0536063701,
				"element": "H" 
			},
			{
				"x": -5.7059507319,
				"y": -0.4115029194,
				"z": 2.5920684786,
				"element": "H" 
			},
			{
				"x": -4.6308558924,
				"y": -1.1479392649,
				"z": 1.3661262943,
				"element": "H" 
			},
			{
				"x": -1.6595924505,
				"y": -1.0572450392,
				"z": 1.6542158215,
				"element": "H" 
			},
			{
				"x": -1.1290573101,
				"y": -1.0190423342,
				"z": 3.3544480644,
				"element": "H" 
			},
			{
				"x": -0.6347344696,
				"y": 1.1002043944,
				"z": 0.1686558638,
				"element": "H" 
			},
			{
				"x": 2.6100238711,
				"y": 1.5537572122,
				"z": 2.7483753412,
				"element": "H" 
			},
			{
				"x": -2.4328805446,
				"y": 3.0943455691,
				"z": 2.6921005069,
				"element": "H" 
			},
			{
				"x": -2.0975785247,
				"y": 4.77618013,
				"z": 4.4877692502,
				"element": "H" 
			},
			{
				"x": -2.0445077906,
				"y": 1.5994019209,
				"z": 7.3873270702,
				"element": "H" 
			},
			{
				"x": -2.7082031425,
				"y": -1.8753891341,
				"z": -0.8745834063,
				"element": "H" 
			},
			{
				"x": -0.4717619011,
				"y": -1.9079641619,
				"z": -1.9007863428,
				"element": "H" 
			}
		],
		 "valence_orbital": [ 
			{
				"type": "occ",
				"energy": -0.25461,
				"method": "rhf"
			},
			{
				"type": "occ",
				"energy": -0.2523,
				"method": "rhf"
			},
			{
				"type": "occ",
				"energy": -0.24875,
				"method": "rhf"
			},
			{
				"type": "occ",
				"energy": -0.19673,
				"method": "rhf"
			},
			{
				"type": "occ",
				"energy": -0.18251,
				"method": "rhf"
			},
			{
				"type": "unocc",
				"energy": -0.02817,
				"method": "rhf"
			},
			{
				"type": "unocc",
				"energy": -0.02382,
				"method": "rhf"
			},
			{
				"type": "unocc",
				"energy": -0.00694,
				"method": "rhf"
			},
			{
				"type": "unocc",
				"energy": 0.00837,
				"method": "rhf"
			},
			{
				"type": "unocc",
				"energy": 0.01323,
				"method": "rhf"
			}
		],
		"cosmo_sigma_profile": { 
			"-0.025": 0.0,
			"-0.024": 0.0,
			"-0.023": 0.0,
			"-0.022": 0.0,
			"-0.021": 0.0,
			"-0.02": 0.0,
			"-0.019": 0.0,
			"-0.018": 0.0,
			"-0.017": 0.0,
			"-0.016": 0.0,
			"-0.015": 0.0,
			"-0.014": 0.0,
			"-0.013": 0.0,
			"-0.012": 0.0,
			"-0.011": 0.0,
			"-0.01": 0.0,
			"-0.009": 0.627812161458,
			"-0.008": 4.77521432252,
			"-0.007": 13.2969893137,
			"-0.006": 23.242061036,
			"-0.005": 27.6008692528,
			"-0.004": 34.9108730094,
			"-0.003": 52.3569056364,
			"-0.002": 62.1684106439,
			"-0.001": 53.1008132355,
			"0.0": 50.481170571,
			"0.001": 55.0260615488,
			"0.002": 45.2682014438,
			"0.003": 30.6994199192,
			"0.004": 30.3154948685,
			"0.005": 18.2601972968,
			"0.006": 15.1081279797,
			"0.007": 7.72209905652,
			"0.008": 5.13337446576,
			"0.009": 5.53070554495,
			"0.01": 5.77596110486,
			"0.011": 3.89635447451,
			"0.012": 2.52511414001,
			"0.013": 1.84478955424,
			"0.014": 1.81461611189,
			"0.015": 1.02665611649,
			"0.016": 0.49599316663,
			"0.017": 0.0,
			"0.018": 0.0,
			"0.019": 0.0,
			"0.02": 0.0,
			"0.021": 0.0,
			"0.022": 0.0,
			"0.023": 0.0,
			"0.024": 0.0,
			"0.025": 0.0
		}
	}
}
