{
	 "smiles": "NC(=O)C(Cl)C1=CC=C(C=C1)C#N", 
	 "Tm": 388.15, 
	 "num_atms": 20, 
	 "gaussian": { 
		 "optdone": 1, 
		 "sigma_profile": "yes", 
		 "theory": "DFT", 
		 "functional": "B3LYP", 
		 "basiset": "6-31G**", 
		 "properties": { 
			 "R2extent": 3552.9343, 
			 "electric_dipole_moment_norm": 4.65908668088, 
			 "electric_quadrupole_moment_norm": 23.7048240922, 
			 "total_energy": -992.096035305, 
			 "HOMO_LUMO_gap": 0.19697, 
			 "cosmo_polarized_energy": -17.6, 
			 "cosmo_cavitation_energy": 27.8, 
			 "cosmo_dispersion_energy": -19.32, 
			 "cosmo_repulsion_energy": 1.56, 
			 "cosmo_total_nonelectrostatic_energy": 10.04, 
			 "SMD_solvation_energy": 6.64 
		},
		"coords": [
			{
				"x": -2.1921726483,
				"y": -1.1263480853,
				"z": 1.025906804,
				"element": "N" 
			},
			{
				"x": -1.887003158,
				"y": -0.8654544484,
				"z": -0.2708598218,
				"element": "C" 
			},
			{
				"x": -2.5086497181,
				"y": -0.0973974615,
				"z": -0.9862993606,
				"element": "O" 
			},
			{
				"x": -0.6251249951,
				"y": -1.5270453918,
				"z": -0.8601012292,
				"element": "C" 
			},
			{
				"x": -0.0883866707,
				"y": -3.0382436984,
				"z": 0.0618179299,
				"element": "Cl" 
			},
			{
				"x": 0.5251840666,
				"y": -0.5558972898,
				"z": -0.9778159559,
				"element": "C" 
			},
			{
				"x": 0.9236524913,
				"y": 0.2281816826,
				"z": 0.1142966001,
				"element": "C" 
			},
			{
				"x": 1.9857611156,
				"y": 1.1156584272,
				"z": -0.0038519518,
				"element": "C" 
			},
			{
				"x": 2.6694036788,
				"y": 1.2309363145,
				"z": -1.227046852,
				"element": "C" 
			},
			{
				"x": 2.2741784506,
				"y": 0.4500014495,
				"z": -2.3243725506,
				"element": "C" 
			},
			{
				"x": 1.208999991,
				"y": -0.4358339981,
				"z": -2.1930594596,
				"element": "C" 
			},
			{
				"x": 3.7670034105,
				"y": 2.1455217539,
				"z": -1.3528816741,
				"element": "C" 
			},
			{
				"x": 4.6579738069,
				"y": 2.8864758876,
				"z": -1.4535159731,
				"element": "N" 
			},
			{
				"x": -1.7571913453,
				"y": -1.891395173,
				"z": 1.5185038106,
				"element": "H" 
			},
			{
				"x": -3.0508502774,
				"y": -0.7342858627,
				"z": 1.3835898061,
				"element": "H" 
			},
			{
				"x": -0.9089519465,
				"y": -1.8948352541,
				"z": -1.8451960852,
				"element": "H" 
			},
			{
				"x": 0.3965785131,
				"y": 0.144414631,
				"z": 1.0594639074,
				"element": "H" 
			},
			{
				"x": 2.2916122106,
				"y": 1.7235037746,
				"z": 0.8407525376,
				"element": "H" 
			},
			{
				"x": 2.8005421367,
				"y": 0.5423921304,
				"z": -3.2681440394,
				"element": "H" 
			},
			{
				"x": 0.9051408879,
				"y": -1.038049388,
				"z": -3.0440864423,
				"element": "H" 
			}
		],
		 "valence_orbital": [ 
			{
				"type": "occ",
				"energy": -0.3236,
				"method": "rhf"
			},
			{
				"type": "occ",
				"energy": -0.291,
				"method": "rhf"
			},
			{
				"type": "occ",
				"energy": -0.28486,
				"method": "rhf"
			},
			{
				"type": "occ",
				"energy": -0.27413,
				"method": "rhf"
			},
			{
				"type": "occ",
				"energy": -0.26898,
				"method": "rhf"
			},
			{
				"type": "unocc",
				"energy": -0.07201,
				"method": "rhf"
			},
			{
				"type": "unocc",
				"energy": -0.03477,
				"method": "rhf"
			},
			{
				"type": "unocc",
				"energy": -0.00371,
				"method": "rhf"
			},
			{
				"type": "unocc",
				"energy": 0.00963,
				"method": "rhf"
			},
			{
				"type": "unocc",
				"energy": 0.03123,
				"method": "rhf"
			}
		],
		"cosmo_sigma_profile": { 
			"-0.025": 0.0,
			"-0.024": 0.0,
			"-0.023": 0.0,
			"-0.022": 0.0,
			"-0.021": 0.0,
			"-0.02": 0.0,
			"-0.019": 0.0,
			"-0.018": 0.0,
			"-0.017": 0.0,
			"-0.016": 0.0,
			"-0.015": 0.646009142621,
			"-0.014": 1.7194970229,
			"-0.013": 1.47710682533,
			"-0.012": 1.94833825342,
			"-0.011": 2.44573276896,
			"-0.01": 3.75702595109,
			"-0.009": 4.78392439608,
			"-0.008": 10.3798958678,
			"-0.007": 10.9797746755,
			"-0.006": 11.2058104951,
			"-0.005": 9.92034984698,
			"-0.004": 9.95260403095,
			"-0.003": 8.79075268166,
			"-0.002": 13.8133071502,
			"-0.001": 14.1459699128,
			"0.0": 15.1752416184,
			"0.001": 18.76601771,
			"0.002": 16.1025479684,
			"0.003": 9.87216102298,
			"0.004": 7.94590454226,
			"0.005": 10.9545521578,
			"0.006": 5.33338148469,
			"0.007": 3.8874929407,
			"0.008": 4.74107221364,
			"0.009": 4.77003465114,
			"0.01": 4.34754823227,
			"0.011": 4.44445883416,
			"0.012": 6.62520572104,
			"0.013": 6.06139348846,
			"0.014": 0.637049951559,
			"0.015": 0.0,
			"0.016": 0.0,
			"0.017": 0.0,
			"0.018": 0.0,
			"0.019": 0.0,
			"0.02": 0.0,
			"0.021": 0.0,
			"0.022": 0.0,
			"0.023": 0.0,
			"0.024": 0.0,
			"0.025": 0.0
		}
	}
}
