{
	 "smiles": "CN1C2=C(C=CC=C2)N2C1=C(C#N)C1=CC(C)=NC(C)=C1C2=O", 
	 "Tm": 594.15, 
	 "num_atms": 37, 
	 "gaussian": { 
		 "optdone": 1, 
		 "sigma_profile": "yes", 
		 "theory": "DFT", 
		 "functional": "B3LYP", 
		 "basiset": "6-31G**", 
		 "properties": { 
			 "R2extent": 7542.0231, 
			 "electric_dipole_moment_norm": 4.7435543488, 
			 "electric_quadrupole_moment_norm": 15.126077873, 
			 "total_energy": -988.619286404, 
			 "HOMO_LUMO_gap": 0.15075, 
			 "cosmo_polarized_energy": -15.67, 
			 "cosmo_cavitation_energy": 40.45, 
			 "cosmo_dispersion_energy": -29.14, 
			 "cosmo_repulsion_energy": 2.12, 
			 "cosmo_total_nonelectrostatic_energy": 13.43, 
			 "SMD_solvation_energy": 6.6 
		},
		"coords": [
			{
				"x": 1.3999203832,
				"y": -0.7703199266,
				"z": 3.3820950349,
				"element": "C" 
			},
			{
				"x": 0.8489014264,
				"y": -0.0248733975,
				"z": 2.2555750627,
				"element": "N" 
			},
			{
				"x": 0.9021098007,
				"y": 1.3665375451,
				"z": 2.105174429,
				"element": "C" 
			},
			{
				"x": 0.2646489471,
				"y": 1.6922327982,
				"z": 0.8970430192,
				"element": "C" 
			},
			{
				"x": 0.1530605664,
				"y": 3.0103952816,
				"z": 0.4621612156,
				"element": "C" 
			},
			{
				"x": 0.7046344962,
				"y": 3.9984221455,
				"z": 1.2825253268,
				"element": "C" 
			},
			{
				"x": 1.3408278707,
				"y": 3.6762628381,
				"z": 2.4877362586,
				"element": "C" 
			},
			{
				"x": 1.4508837871,
				"y": 2.3524582863,
				"z": 2.9208833438,
				"element": "C" 
			},
			{
				"x": -0.1656465638,
				"y": 0.4730411836,
				"z": 0.3363487264,
				"element": "N" 
			},
			{
				"x": 0.1981771778,
				"y": -0.5654320828,
				"z": 1.1764907382,
				"element": "C" 
			},
			{
				"x": -0.1074636134,
				"y": -1.8826294021,
				"z": 0.8575501711,
				"element": "C" 
			},
			{
				"x": 0.2509444111,
				"y": -2.9695555789,
				"z": 1.6963390302,
				"element": "C" 
			},
			{
				"x": 0.5262601247,
				"y": -3.8918164756,
				"z": 2.3560772891,
				"element": "N" 
			},
			{
				"x": -0.8173833121,
				"y": -2.1335214456,
				"z": -0.3794915499,
				"element": "C" 
			},
			{
				"x": -1.1622720083,
				"y": -3.4382246337,
				"z": -0.7716671998,
				"element": "C" 
			},
			{
				"x": -1.842186627,
				"y": -3.640012682,
				"z": -1.963172276,
				"element": "C" 
			},
			{
				"x": -2.2279830849,
				"y": -5.0267901613,
				"z": -2.4144542304,
				"element": "C" 
			},
			{
				"x": -2.1958139232,
				"y": -2.623457308,
				"z": -2.7809841886,
				"element": "N" 
			},
			{
				"x": -1.8870319615,
				"y": -1.3704449655,
				"z": -2.445009833,
				"element": "C" 
			},
			{
				"x": -2.3314667523,
				"y": -0.3217310622,
				"z": -3.4326393525,
				"element": "C" 
			},
			{
				"x": -1.1894840997,
				"y": -1.0616737037,
				"z": -1.2403814946,
				"element": "C" 
			},
			{
				"x": -0.8637392877,
				"y": 0.3207151929,
				"z": -0.8963445458,
				"element": "C" 
			},
			{
				"x": -1.1236531165,
				"y": 1.3272999984,
				"z": -1.5441227791,
				"element": "O" 
			},
			{
				"x": 1.850962937,
				"y": -0.0596318017,
				"z": 4.0729961628,
				"element": "H" 
			},
			{
				"x": 0.6164881296,
				"y": -1.3234950841,
				"z": 3.9038027138,
				"element": "H" 
			},
			{
				"x": 2.1649689803,
				"y": -1.4735521587,
				"z": 3.0472167659,
				"element": "H" 
			},
			{
				"x": -0.3413611237,
				"y": 3.2389373474,
				"z": -0.4706103922,
				"element": "H" 
			},
			{
				"x": 0.6362167347,
				"y": 5.036904889,
				"z": 0.9750288981,
				"element": "H" 
			},
			{
				"x": 1.7588099272,
				"y": 4.4678018473,
				"z": 3.1017737564,
				"element": "H" 
			},
			{
				"x": 1.9455688559,
				"y": 2.1140927325,
				"z": 3.8558220327,
				"element": "H" 
			},
			{
				"x": -0.8955633029,
				"y": -4.2803098539,
				"z": -0.1416046619,
				"element": "H" 
			},
			{
				"x": -2.8804486211,
				"y": -5.5129300619,
				"z": -1.6805297837,
				"element": "H" 
			},
			{
				"x": -1.3438777647,
				"y": -5.6633948047,
				"z": -2.5318357933,
				"element": "H" 
			},
			{
				"x": -2.7515780999,
				"y": -4.9695545112,
				"z": -3.3696215598,
				"element": "H" 
			},
			{
				"x": -1.484469946,
				"y": 0.2568131628,
				"z": -3.8116900306,
				"element": "H" 
			},
			{
				"x": -2.8371158733,
				"y": -0.8267453092,
				"z": -4.2566228795,
				"element": "H" 
			},
			{
				"x": -3.0045454739,
				"y": 0.405381162,
				"z": -2.9699574249,
				"element": "H" 
			}
		],
		 "valence_orbital": [ 
			{
				"type": "occ",
				"energy": -0.26969,
				"method": "rhf"
			},
			{
				"type": "occ",
				"energy": -0.26127,
				"method": "rhf"
			},
			{
				"type": "occ",
				"energy": -0.25175,
				"method": "rhf"
			},
			{
				"type": "occ",
				"energy": -0.25144,
				"method": "rhf"
			},
			{
				"type": "occ",
				"energy": -0.20647,
				"method": "rhf"
			},
			{
				"type": "unocc",
				"energy": -0.05572,
				"method": "rhf"
			},
			{
				"type": "unocc",
				"energy": -0.04519,
				"method": "rhf"
			},
			{
				"type": "unocc",
				"energy": -0.01297,
				"method": "rhf"
			},
			{
				"type": "unocc",
				"energy": -0.00636,
				"method": "rhf"
			},
			{
				"type": "unocc",
				"energy": -1e-05,
				"method": "rhf"
			}
		],
		"cosmo_sigma_profile": { 
			"-0.025": 0.0,
			"-0.024": 0.0,
			"-0.023": 0.0,
			"-0.022": 0.0,
			"-0.021": 0.0,
			"-0.02": 0.0,
			"-0.019": 0.0,
			"-0.018": 0.0,
			"-0.017": 0.0,
			"-0.016": 0.0,
			"-0.015": 0.0,
			"-0.014": 0.0,
			"-0.013": 0.0,
			"-0.012": 0.0,
			"-0.011": 0.0,
			"-0.01": 0.962361920733,
			"-0.009": 2.28360610358,
			"-0.008": 2.80404444594,
			"-0.007": 7.6552299534,
			"-0.006": 14.4223412587,
			"-0.005": 23.4001570642,
			"-0.004": 32.6651602495,
			"-0.003": 26.5359168481,
			"-0.002": 25.3706320939,
			"-0.001": 29.8587017801,
			"0.0": 32.7633713843,
			"0.001": 27.8449210507,
			"0.002": 20.3589152964,
			"0.003": 15.7985527498,
			"0.004": 14.4172758397,
			"0.005": 7.39025519654,
			"0.006": 5.27825365782,
			"0.007": 5.14892342299,
			"0.008": 5.02103992429,
			"0.009": 5.10717415024,
			"0.01": 5.58852261255,
			"0.011": 6.23426658865,
			"0.012": 3.37645403128,
			"0.013": 3.09962240268,
			"0.014": 1.49121121461,
			"0.015": 0.551816184238,
			"0.016": 0.0,
			"0.017": 0.0,
			"0.018": 0.0,
			"0.019": 0.0,
			"0.02": 0.0,
			"0.021": 0.0,
			"0.022": 0.0,
			"0.023": 0.0,
			"0.024": 0.0,
			"0.025": 0.0
		}
	}
}
