{
	 "smiles": "CC(C)CC(NS(C)(=O)=O)C(O)=O", 
	 "Tm": 341.15, 
	 "num_atms": 28, 
	 "gaussian": { 
		 "optdone": 1, 
		 "sigma_profile": "yes", 
		 "theory": "DFT", 
		 "functional": "B3LYP", 
		 "basiset": "6-31G**", 
		 "properties": { 
			 "R2extent": 3687.2737, 
			 "electric_dipole_moment_norm": 3.83013959798, 
			 "electric_quadrupole_moment_norm": 14.1755478649, 
			 "total_energy": -1029.57087731, 
			 "HOMO_LUMO_gap": 0.26497, 
			 "cosmo_polarized_energy": -23.29, 
			 "cosmo_cavitation_energy": 31.27, 
			 "cosmo_dispersion_energy": -21.75, 
			 "cosmo_repulsion_energy": 1.68, 
			 "cosmo_total_nonelectrostatic_energy": 11.21, 
			 "SMD_solvation_energy": 5.69 
		},
		"coords": [
			{
				"x": 0.9049226316,
				"y": 0.0718262123,
				"z": 2.3659061356,
				"element": "C" 
			},
			{
				"x": 0.9470719391,
				"y": 0.9487862157,
				"z": 1.1054044418,
				"element": "C" 
			},
			{
				"x": 2.2982473344,
				"y": 0.8127300862,
				"z": 0.3850178107,
				"element": "C" 
			},
			{
				"x": -0.246070761,
				"y": 0.7323908153,
				"z": 0.1457197881,
				"element": "C" 
			},
			{
				"x": -0.379066777,
				"y": -0.6776738535,
				"z": -0.4932864463,
				"element": "C" 
			},
			{
				"x": -1.0314705693,
				"y": -1.6088106682,
				"z": 0.4224055167,
				"element": "N" 
			},
			{
				"x": -0.5224163478,
				"y": -3.2137732458,
				"z": 0.4964547884,
				"element": "S" 
			},
			{
				"x": -1.0364774712,
				"y": -4.0205213047,
				"z": -1.037261096,
				"element": "C" 
			},
			{
				"x": -1.2859612786,
				"y": -3.8216316586,
				"z": 1.5834866668,
				"element": "O" 
			},
			{
				"x": 0.9438438477,
				"y": -3.1684500798,
				"z": 0.4980258107,
				"element": "O" 
			},
			{
				"x": -1.1613053894,
				"y": -0.5967663182,
				"z": -1.8159333716,
				"element": "C" 
			},
			{
				"x": -0.5537458979,
				"y": 0.0610153472,
				"z": -2.830605146,
				"element": "O" 
			},
			{
				"x": -2.2627622589,
				"y": -1.0697443373,
				"z": -1.9654958725,
				"element": "O" 
			},
			{
				"x": -0.0605022456,
				"y": 0.1473297824,
				"z": 2.8757815832,
				"element": "H" 
			},
			{
				"x": 1.0754599093,
				"y": -0.9815555917,
				"z": 2.1300839042,
				"element": "H" 
			},
			{
				"x": 1.6835292898,
				"y": 0.3893261348,
				"z": 3.068076552,
				"element": "H" 
			},
			{
				"x": 0.8554645889,
				"y": 1.9961010847,
				"z": 1.427603285,
				"element": "H" 
			},
			{
				"x": 3.1172026189,
				"y": 1.1157522019,
				"z": 1.0449189336,
				"element": "H" 
			},
			{
				"x": 2.4986197959,
				"y": -0.223791135,
				"z": 0.0897745679,
				"element": "H" 
			},
			{
				"x": 2.3491431597,
				"y": 1.4451695207,
				"z": -0.5105102785,
				"element": "H" 
			},
			{
				"x": -1.186711227,
				"y": 0.9484201512,
				"z": 0.6658585865,
				"element": "H" 
			},
			{
				"x": -0.1692919073,
				"y": 1.4755414336,
				"z": -0.6593547579,
				"element": "H" 
			},
			{
				"x": 0.6208477138,
				"y": -1.0736041038,
				"z": -0.7040888582,
				"element": "H" 
			},
			{
				"x": -2.0475327291,
				"y": -1.5533877166,
				"z": 0.380239961,
				"element": "H" 
			},
			{
				"x": -2.1185175255,
				"y": -3.9362825628,
				"z": -1.1390953332,
				"element": "H" 
			},
			{
				"x": -0.534018794,
				"y": -3.5530339926,
				"z": -1.8843468389,
				"element": "H" 
			},
			{
				"x": -0.7373846107,
				"y": -5.0667125236,
				"z": -0.9512243199,
				"element": "H" 
			},
			{
				"x": 0.3275829612,
				"y": 0.3619501062,
				"z": -2.5643560133,
				"element": "H" 
			}
		],
		 "valence_orbital": [ 
			{
				"type": "occ",
				"energy": -0.31983,
				"method": "rhf"
			},
			{
				"type": "occ",
				"energy": -0.30641,
				"method": "rhf"
			},
			{
				"type": "occ",
				"energy": -0.30603,
				"method": "rhf"
			},
			{
				"type": "occ",
				"energy": -0.29999,
				"method": "rhf"
			},
			{
				"type": "occ",
				"energy": -0.28055,
				"method": "rhf"
			},
			{
				"type": "unocc",
				"energy": -0.01558,
				"method": "rhf"
			},
			{
				"type": "unocc",
				"energy": 0.02641,
				"method": "rhf"
			},
			{
				"type": "unocc",
				"energy": 0.05928,
				"method": "rhf"
			},
			{
				"type": "unocc",
				"energy": 0.0661,
				"method": "rhf"
			},
			{
				"type": "unocc",
				"energy": 0.08231,
				"method": "rhf"
			}
		],
		"cosmo_sigma_profile": { 
			"-0.025": 0.0,
			"-0.024": 0.0,
			"-0.023": 0.0,
			"-0.022": 0.0,
			"-0.021": 0.0,
			"-0.02": 0.0,
			"-0.019": 0.0,
			"-0.018": 0.331332057476,
			"-0.017": 1.21150978801,
			"-0.016": 1.31634203776,
			"-0.015": 1.29107233226,
			"-0.014": 1.61801027728,
			"-0.013": 2.8451872189,
			"-0.012": 2.50776895245,
			"-0.011": 3.2631633366,
			"-0.01": 3.22112389758,
			"-0.009": 5.27105020994,
			"-0.008": 7.28772272624,
			"-0.007": 8.22918741632,
			"-0.006": 7.37135959646,
			"-0.005": 10.2150641118,
			"-0.004": 12.3188769025,
			"-0.003": 17.9666878679,
			"-0.002": 21.4395502073,
			"-0.001": 17.2780184102,
			"0.0": 14.8268780526,
			"0.001": 18.3660256992,
			"0.002": 12.6636926686,
			"0.003": 6.16777773719,
			"0.004": 4.49458291898,
			"0.005": 5.47515371465,
			"0.006": 5.23999797293,
			"0.007": 5.86021763691,
			"0.008": 7.60017767229,
			"0.009": 6.35839047962,
			"0.01": 10.1236844537,
			"0.011": 13.6475871849,
			"0.012": 7.48189066509,
			"0.013": 0.411936853241,
			"0.014": 0.0,
			"0.015": 0.0,
			"0.016": 0.0,
			"0.017": 0.0,
			"0.018": 0.0,
			"0.019": 0.0,
			"0.02": 0.0,
			"0.021": 0.0,
			"0.022": 0.0,
			"0.023": 0.0,
			"0.024": 0.0,
			"0.025": 0.0
		}
	}
}
