{
	 "smiles": "CC(C)(O)C#C", 
	 "Tm": 275.95, 
	 "num_atms": 14, 
	 "gaussian": { 
		 "optdone": 1, 
		 "sigma_profile": "yes", 
		 "theory": "DFT", 
		 "functional": "B3LYP", 
		 "basiset": "6-31G**", 
		 "properties": { 
			 "R2extent": 755.0297, 
			 "electric_dipole_moment_norm": 1.88472479954, 
			 "electric_quadrupole_moment_norm": 8.37779293191, 
			 "total_energy": -270.49755284, 
			 "HOMO_LUMO_gap": 0.30049, 
			 "cosmo_polarized_energy": -8.96, 
			 "cosmo_cavitation_energy": 17.89, 
			 "cosmo_dispersion_energy": -12.31, 
			 "cosmo_repulsion_energy": 1.06, 
			 "cosmo_total_nonelectrostatic_energy": 6.65, 
			 "SMD_solvation_energy": 4.87 
		},
		"coords": [
			{
				"x": -0.7334409521,
				"y": 1.3677324105,
				"z": 1.5987476821,
				"element": "C" 
			},
			{
				"x": 0.0990852648,
				"y": 0.112747848,
				"z": 1.270892986,
				"element": "C" 
			},
			{
				"x": 1.5826825613,
				"y": 0.4697241185,
				"z": 1.0540647291,
				"element": "C" 
			},
			{
				"x": -0.0228143574,
				"y": -0.8456728882,
				"z": 2.332772694,
				"element": "O" 
			},
			{
				"x": -0.4380091277,
				"y": -0.5388686415,
				"z": 0.0632812893,
				"element": "C" 
			},
			{
				"x": -0.8694057709,
				"y": -1.0353202371,
				"z": -0.9483725993,
				"element": "C" 
			},
			{
				"x": -0.3365119512,
				"y": 1.8523616456,
				"z": 2.4989365281,
				"element": "H" 
			},
			{
				"x": -0.7006620641,
				"y": 2.0918009393,
				"z": 0.7796808987,
				"element": "H" 
			},
			{
				"x": -1.7735800068,
				"y": 1.0879169825,
				"z": 1.7806322979,
				"element": "H" 
			},
			{
				"x": 2.1591165334,
				"y": -0.4369997251,
				"z": 0.8571960687,
				"element": "H" 
			},
			{
				"x": 1.7074263519,
				"y": 1.1571954528,
				"z": 0.2126145757,
				"element": "H" 
			},
			{
				"x": 1.9837494135,
				"y": 0.9537789547,
				"z": 1.9527335807,
				"element": "H" 
			},
			{
				"x": 0.3279750275,
				"y": -0.4244524898,
				"z": 3.1298659265,
				"element": "H" 
			},
			{
				"x": -1.2544109222,
				"y": -1.4825443703,
				"z": -1.8352466573,
				"element": "H" 
			}
		],
		 "valence_orbital": [ 
			{
				"type": "occ",
				"energy": -0.36291,
				"method": "rhf"
			},
			{
				"type": "occ",
				"energy": -0.33458,
				"method": "rhf"
			},
			{
				"type": "occ",
				"energy": -0.27912,
				"method": "rhf"
			},
			{
				"type": "occ",
				"energy": -0.27016,
				"method": "rhf"
			},
			{
				"type": "occ",
				"energy": -0.25801,
				"method": "rhf"
			},
			{
				"type": "unocc",
				"energy": 0.04248,
				"method": "rhf"
			},
			{
				"type": "unocc",
				"energy": 0.0585,
				"method": "rhf"
			},
			{
				"type": "unocc",
				"energy": 0.07368,
				"method": "rhf"
			},
			{
				"type": "unocc",
				"energy": 0.12312,
				"method": "rhf"
			},
			{
				"type": "unocc",
				"energy": 0.13365,
				"method": "rhf"
			}
		],
		"cosmo_sigma_profile": { 
			"-0.025": 0.0,
			"-0.024": 0.0,
			"-0.023": 0.0,
			"-0.022": 0.0,
			"-0.021": 0.0,
			"-0.02": 0.0,
			"-0.019": 0.0,
			"-0.018": 0.0,
			"-0.017": 0.0,
			"-0.016": 0.116360417448,
			"-0.015": 1.09232338869,
			"-0.014": 0.717332824177,
			"-0.013": 0.395942417148,
			"-0.012": 1.77410009798,
			"-0.011": 2.7840200724,
			"-0.01": 1.98571081296,
			"-0.009": 2.0991726379,
			"-0.008": 2.56363385401,
			"-0.007": 2.04127202074,
			"-0.006": 2.37123163097,
			"-0.005": 5.08118478829,
			"-0.004": 10.6584303535,
			"-0.003": 11.7980701888,
			"-0.002": 11.3675545242,
			"-0.001": 12.9394919533,
			"0.0": 16.8936886686,
			"0.001": 7.48614042438,
			"0.002": 4.03613018113,
			"0.003": 4.89773903629,
			"0.004": 5.32965397246,
			"0.005": 5.12716463101,
			"0.006": 7.85946928767,
			"0.007": 6.13756743757,
			"0.008": 2.57127802605,
			"0.009": 1.53393735294,
			"0.01": 1.97587282257,
			"0.011": 1.60568657529,
			"0.012": 1.6196883397,
			"0.013": 2.14762279561,
			"0.014": 1.76126182028,
			"0.015": 0.0,
			"0.016": 0.0,
			"0.017": 0.0,
			"0.018": 0.0,
			"0.019": 0.0,
			"0.02": 0.0,
			"0.021": 0.0,
			"0.022": 0.0,
			"0.023": 0.0,
			"0.024": 0.0,
			"0.025": 0.0
		}
	}
}
