{
	 "smiles": "CC(=O)N1CCN(CC2=CC=C(C=C2)C(O)=O)CC1", 
	 "Tm": 503.15, 
	 "num_atms": 37, 
	 "gaussian": { 
		 "optdone": 1, 
		 "sigma_profile": "yes", 
		 "theory": "DFT", 
		 "functional": "B3LYP", 
		 "basiset": "6-31G**", 
		 "properties": { 
			 "R2extent": 7038.3913, 
			 "electric_dipole_moment_norm": 5.28795818724, 
			 "electric_quadrupole_moment_norm": 32.8191972734, 
			 "total_energy": -879.519161128, 
			 "HOMO_LUMO_gap": 0.15988, 
			 "cosmo_polarized_energy": -24.34, 
			 "cosmo_cavitation_energy": 39.06, 
			 "cosmo_dispersion_energy": -27.35, 
			 "cosmo_repulsion_energy": 2.11, 
			 "cosmo_total_nonelectrostatic_energy": 13.81, 
			 "SMD_solvation_energy": 5.15 
		},
		"coords": [
			{
				"x": 2.7873494596,
				"y": 1.7321156656,
				"z": -2.5164221395,
				"element": "C" 
			},
			{
				"x": 2.1135664693,
				"y": 2.6926405686,
				"z": -1.5457375211,
				"element": "C" 
			},
			{
				"x": 2.6301082808,
				"y": 3.7648001246,
				"z": -1.245150488,
				"element": "O" 
			},
			{
				"x": 0.9001490388,
				"y": 2.3087716388,
				"z": -1.0264531623,
				"element": "N" 
			},
			{
				"x": 0.2425604421,
				"y": 1.0306130322,
				"z": -1.3052040815,
				"element": "C" 
			},
			{
				"x": -1.2654205129,
				"y": 1.1633258304,
				"z": -1.0577565853,
				"element": "C" 
			},
			{
				"x": -1.6006573941,
				"y": 1.6171050468,
				"z": 0.2983487295,
				"element": "N" 
			},
			{
				"x": -2.3526348618,
				"y": 0.686233172,
				"z": 1.1413026006,
				"element": "C" 
			},
			{
				"x": -1.6185184472,
				"y": -0.5724552973,
				"z": 1.5905737605,
				"element": "C" 
			},
			{
				"x": -0.8161511483,
				"y": -0.5715489471,
				"z": 2.7438349282,
				"element": "C" 
			},
			{
				"x": -0.1130462346,
				"y": -1.7074110621,
				"z": 3.1319418709,
				"element": "C" 
			},
			{
				"x": -0.1850986143,
				"y": -2.8809517501,
				"z": 2.3693733193,
				"element": "C" 
			},
			{
				"x": -1.0070842839,
				"y": -2.9024740656,
				"z": 1.2340254423,
				"element": "C" 
			},
			{
				"x": -1.7148763005,
				"y": -1.7629017553,
				"z": 0.8551552504,
				"element": "C" 
			},
			{
				"x": 0.5884031105,
				"y": -4.0725187395,
				"z": 2.8483798817,
				"element": "C" 
			},
			{
				"x": 0.8287573614,
				"y": -5.0545084904,
				"z": 1.9374523762,
				"element": "O" 
			},
			{
				"x": 0.9954765245,
				"y": -4.1879029703,
				"z": 3.9802990289,
				"element": "O" 
			},
			{
				"x": -0.5202350688,
				"y": 2.336971871,
				"z": 0.9724694194,
				"element": "C" 
			},
			{
				"x": 0.2642011128,
				"y": 3.1786573961,
				"z": -0.0288547488,
				"element": "C" 
			},
			{
				"x": 3.7699569628,
				"y": 2.1400264298,
				"z": -2.7513546875,
				"element": "H" 
			},
			{
				"x": 2.2147351995,
				"y": 1.6374459752,
				"z": -3.445991737,
				"element": "H" 
			},
			{
				"x": 2.9029219413,
				"y": 0.7285921733,
				"z": -2.0941306327,
				"element": "H" 
			},
			{
				"x": 0.6516860273,
				"y": 0.2245800542,
				"z": -0.6775759497,
				"element": "H" 
			},
			{
				"x": 0.4046591331,
				"y": 0.7473901979,
				"z": -2.3489977431,
				"element": "H" 
			},
			{
				"x": -1.6743346724,
				"y": 1.8682640185,
				"z": -1.7964969277,
				"element": "H" 
			},
			{
				"x": -1.7336225899,
				"y": 0.1943951845,
				"z": -1.2537847982,
				"element": "H" 
			},
			{
				"x": -2.6802657831,
				"y": 1.2451266965,
				"z": 2.0267382218,
				"element": "H" 
			},
			{
				"x": -3.259933283,
				"y": 0.39851181,
				"z": 0.5975539887,
				"element": "H" 
			},
			{
				"x": -0.7595736397,
				"y": 0.3251188447,
				"z": 3.3549577197,
				"element": "H" 
			},
			{
				"x": 0.4952773705,
				"y": -1.7129800349,
				"z": 4.0300676466,
				"element": "H" 
			},
			{
				"x": -1.1453263607,
				"y": -3.818056375,
				"z": 0.6631258689,
				"element": "H" 
			},
			{
				"x": -2.3733361583,
				"y": -1.8090607206,
				"z": -0.008520398,
				"element": "H" 
			},
			{
				"x": 0.5894280335,
				"y": -4.7533853834,
				"z": 1.0502973825,
				"element": "H" 
			},
			{
				"x": 0.1887036406,
				"y": 1.6670954456,
				"z": 1.4907255163,
				"element": "H" 
			},
			{
				"x": -0.955890107,
				"y": 2.9942428542,
				"z": 1.7366147262,
				"element": "H" 
			},
			{
				"x": 1.0525521253,
				"y": 3.746050746,
				"z": 0.4685822191,
				"element": "H" 
			},
			{
				"x": -0.4039867732,
				"y": 3.9021808148,
				"z": -0.515388297,
				"element": "H" 
			}
		],
		 "valence_orbital": [ 
			{
				"type": "occ",
				"energy": -0.27712,
				"method": "rhf"
			},
			{
				"type": "occ",
				"energy": -0.26846,
				"method": "rhf"
			},
			{
				"type": "occ",
				"energy": -0.24337,
				"method": "rhf"
			},
			{
				"type": "occ",
				"energy": -0.23649,
				"method": "rhf"
			},
			{
				"type": "occ",
				"energy": -0.21745,
				"method": "rhf"
			},
			{
				"type": "unocc",
				"energy": -0.05757,
				"method": "rhf"
			},
			{
				"type": "unocc",
				"energy": -0.0301,
				"method": "rhf"
			},
			{
				"type": "unocc",
				"energy": 0.03027,
				"method": "rhf"
			},
			{
				"type": "unocc",
				"energy": 0.03873,
				"method": "rhf"
			},
			{
				"type": "unocc",
				"energy": 0.05538,
				"method": "rhf"
			}
		],
		"cosmo_sigma_profile": { 
			"-0.025": 0.0,
			"-0.024": 0.0,
			"-0.023": 0.0,
			"-0.022": 0.0,
			"-0.021": 0.0,
			"-0.02": 0.0,
			"-0.019": 0.00204670367225,
			"-0.018": 0.628991794004,
			"-0.017": 1.3276797486,
			"-0.016": 0.817622724838,
			"-0.015": 1.14603613406,
			"-0.014": 0.759866310629,
			"-0.013": 0.789262355868,
			"-0.012": 1.57689265368,
			"-0.011": 1.09298220697,
			"-0.01": 1.01222289812,
			"-0.009": 1.07493659893,
			"-0.008": 2.10235952414,
			"-0.007": 4.72215413642,
			"-0.006": 14.0529997166,
			"-0.005": 23.0926929959,
			"-0.004": 31.0314530577,
			"-0.003": 35.1004549824,
			"-0.002": 32.4196626606,
			"-0.001": 26.0798505846,
			"0.0": 19.5456163951,
			"0.001": 14.0748355571,
			"0.002": 14.1068240458,
			"0.003": 14.5769761275,
			"0.004": 7.4839824329,
			"0.005": 5.00248300676,
			"0.006": 5.64379789665,
			"0.007": 3.32260200498,
			"0.008": 5.20085089955,
			"0.009": 5.02540594948,
			"0.01": 7.21727163366,
			"0.011": 6.64439350868,
			"0.012": 6.58360114699,
			"0.013": 4.59695084413,
			"0.014": 5.63060906083,
			"0.015": 3.13194894363,
			"0.016": 0.490386941565,
			"0.017": 0.0,
			"0.018": 0.0,
			"0.019": 0.0,
			"0.02": 0.0,
			"0.021": 0.0,
			"0.022": 0.0,
			"0.023": 0.0,
			"0.024": 0.0,
			"0.025": 0.0
		}
	}
}
