{
	 "smiles": "NC1=CC=C(C=C1)C(=O)NC1=CC2=C(C=NN2)C=C1", 
	 "Tm": 546.15, 
	 "num_atms": 31, 
	 "gaussian": { 
		 "optdone": 1, 
		 "sigma_profile": "yes", 
		 "theory": "DFT", 
		 "functional": "B3LYP", 
		 "basiset": "6-31G**", 
		 "properties": { 
			 "R2extent": 6411.7694, 
			 "electric_dipole_moment_norm": 3.4421385373, 
			 "electric_quadrupole_moment_norm": 40.464359819, 
			 "total_energy": -834.954384023, 
			 "HOMO_LUMO_gap": 0.17115, 
			 "cosmo_polarized_energy": -22.46, 
			 "cosmo_cavitation_energy": 35.71, 
			 "cosmo_dispersion_energy": -25.71, 
			 "cosmo_repulsion_energy": 1.98, 
			 "cosmo_total_nonelectrostatic_energy": 11.98, 
			 "SMD_solvation_energy": 5.55 
		},
		"coords": [
			{
				"x": 0.3812604498,
				"y": 2.6593124302,
				"z": -5.2951728694,
				"element": "N" 
			},
			{
				"x": -0.2655328082,
				"y": 2.4060488679,
				"z": -4.095070621,
				"element": "C" 
			},
			{
				"x": 0.4697294271,
				"y": 2.164758401,
				"z": -2.9185381941,
				"element": "C" 
			},
			{
				"x": -0.1791063578,
				"y": 1.9499646367,
				"z": -1.7098941749,
				"element": "C" 
			},
			{
				"x": -1.5808535416,
				"y": 1.9755216518,
				"z": -1.6282651592,
				"element": "C" 
			},
			{
				"x": -2.3096207738,
				"y": 2.2461861322,
				"z": -2.797787906,
				"element": "C" 
			},
			{
				"x": -1.6715744904,
				"y": 2.4439010958,
				"z": -4.0127451804,
				"element": "C" 
			},
			{
				"x": -2.3445278003,
				"y": 1.8475994839,
				"z": -0.3561384951,
				"element": "C" 
			},
			{
				"x": -3.4364008551,
				"y": 2.3880018584,
				"z": -0.2030621707,
				"element": "O" 
			},
			{
				"x": -1.7801563981,
				"y": 1.163913161,
				"z": 0.7187747832,
				"element": "N" 
			},
			{
				"x": -0.8799891177,
				"y": 0.0709909093,
				"z": 0.7568478054,
				"element": "C" 
			},
			{
				"x": -0.0725208025,
				"y": -0.071480017,
				"z": 1.8831743497,
				"element": "C" 
			},
			{
				"x": 0.7659413288,
				"y": -1.1941014833,
				"z": 1.9385595851,
				"element": "C" 
			},
			{
				"x": 0.8284254748,
				"y": -2.1499838821,
				"z": 0.8932413043,
				"element": "C" 
			},
			{
				"x": 1.7998273173,
				"y": -3.098441758,
				"z": 1.3392499137,
				"element": "C" 
			},
			{
				"x": 2.2900144296,
				"y": -2.7760792192,
				"z": 2.522643234,
				"element": "N" 
			},
			{
				"x": 1.6590051774,
				"y": -1.622469287,
				"z": 2.8807058074,
				"element": "N" 
			},
			{
				"x": 0.002949039,
				"y": -1.9816785359,
				"z": -0.2339934082,
				"element": "C" 
			},
			{
				"x": -0.846473362,
				"y": -0.8922568436,
				"z": -0.2901700303,
				"element": "C" 
			},
			{
				"x": -0.1619140926,
				"y": 2.5273438689,
				"z": -6.1358145999,
				"element": "H" 
			},
			{
				"x": 1.3296198539,
				"y": 2.3229529558,
				"z": -5.3763301781,
				"element": "H" 
			},
			{
				"x": 1.5560315676,
				"y": 2.1566863616,
				"z": -2.9591960428,
				"element": "H" 
			},
			{
				"x": 0.4147296271,
				"y": 1.7763767742,
				"z": -0.8192268128,
				"element": "H" 
			},
			{
				"x": -3.3909763674,
				"y": 2.3013960371,
				"z": -2.7289089054,
				"element": "H" 
			},
			{
				"x": -2.2547582173,
				"y": 2.643050813,
				"z": -4.9084379106,
				"element": "H" 
			},
			{
				"x": -2.3261951366,
				"y": 1.3145919271,
				"z": 1.5587332948,
				"element": "H" 
			},
			{
				"x": -0.0959421432,
				"y": 0.6706284354,
				"z": 2.6752891474,
				"element": "H" 
			},
			{
				"x": 2.1487383917,
				"y": -3.9923460005,
				"z": 0.8394013975,
				"element": "H" 
			},
			{
				"x": 1.8926731991,
				"y": -1.1951635027,
				"z": 3.7620750591,
				"element": "H" 
			},
			{
				"x": 0.0131650303,
				"y": -2.7063205652,
				"z": -1.042871357,
				"element": "H" 
			},
			{
				"x": -1.5090680488,
				"y": -0.7635047067,
				"z": -1.1374716657,
				"element": "H" 
			}
		],
		 "valence_orbital": [ 
			{
				"type": "occ",
				"energy": -0.25527,
				"method": "rhf"
			},
			{
				"type": "occ",
				"energy": -0.24774,
				"method": "rhf"
			},
			{
				"type": "occ",
				"energy": -0.2295,
				"method": "rhf"
			},
			{
				"type": "occ",
				"energy": -0.21629,
				"method": "rhf"
			},
			{
				"type": "occ",
				"energy": -0.20799,
				"method": "rhf"
			},
			{
				"type": "unocc",
				"energy": -0.03684,
				"method": "rhf"
			},
			{
				"type": "unocc",
				"energy": -0.0212,
				"method": "rhf"
			},
			{
				"type": "unocc",
				"energy": -0.00052,
				"method": "rhf"
			},
			{
				"type": "unocc",
				"energy": 0.01619,
				"method": "rhf"
			},
			{
				"type": "unocc",
				"energy": 0.05261,
				"method": "rhf"
			}
		],
		"cosmo_sigma_profile": { 
			"-0.025": 0.0,
			"-0.024": 0.0,
			"-0.023": 0.0,
			"-0.022": 0.0,
			"-0.021": 0.0,
			"-0.02": 0.0,
			"-0.019": 0.0,
			"-0.018": 0.0,
			"-0.017": 0.0503658140542,
			"-0.016": 1.43469840235,
			"-0.015": 1.36654504216,
			"-0.014": 1.4447531143,
			"-0.013": 4.55774128761,
			"-0.012": 4.85216822191,
			"-0.011": 3.77761193275,
			"-0.01": 6.13390432816,
			"-0.009": 5.15887959694,
			"-0.008": 6.0400474011,
			"-0.007": 9.89168101398,
			"-0.006": 11.1981387825,
			"-0.005": 15.2980265481,
			"-0.004": 17.1195743222,
			"-0.003": 13.3795430506,
			"-0.002": 12.5243692338,
			"-0.001": 13.6473751286,
			"0.0": 14.0465948905,
			"0.001": 17.5403262994,
			"0.002": 18.1791192172,
			"0.003": 24.1547319008,
			"0.004": 23.710480446,
			"0.005": 18.8118533377,
			"0.006": 6.47953496767,
			"0.007": 3.76922456865,
			"0.008": 4.13647667803,
			"0.009": 3.15478267474,
			"0.01": 3.49251031294,
			"0.011": 3.5415558127,
			"0.012": 4.09492539511,
			"0.013": 5.36814811037,
			"0.014": 5.60828759225,
			"0.015": 1.12442742492,
			"0.016": 0.337348940801,
			"0.017": 0.0,
			"0.018": 0.0,
			"0.019": 0.0,
			"0.02": 0.0,
			"0.021": 0.0,
			"0.022": 0.0,
			"0.023": 0.0,
			"0.024": 0.0,
			"0.025": 0.0
		}
	}
}
