{
	 "smiles": "CC1=C(SC(=N1)C1=CC=C(F)C=C1)C(O)=O", 
	 "Tm": 525.15, 
	 "num_atms": 24, 
	 "gaussian": { 
		 "optdone": 1, 
		 "sigma_profile": "yes", 
		 "theory": "DFT", 
		 "functional": "B3LYP", 
		 "basiset": "6-31G**", 
		 "properties": { 
			 "R2extent": 5605.1312, 
			 "electric_dipole_moment_norm": 3.9085050211, 
			 "electric_quadrupole_moment_norm": 21.8085068164, 
			 "total_energy": -1127.22565842, 
			 "HOMO_LUMO_gap": 0.15215, 
			 "cosmo_polarized_energy": -13.87, 
			 "cosmo_cavitation_energy": 31.07, 
			 "cosmo_dispersion_energy": -23.22, 
			 "cosmo_repulsion_energy": 1.72, 
			 "cosmo_total_nonelectrostatic_energy": 9.57, 
			 "SMD_solvation_energy": 5.47 
		},
		"coords": [
			{
				"x": -3.5121456233,
				"y": 0.1563692973,
				"z": 0.2004620613,
				"element": "C" 
			},
			{
				"x": -2.1925929377,
				"y": -0.3089446298,
				"z": -0.3397737785,
				"element": "C" 
			},
			{
				"x": -1.9548834094,
				"y": -0.7870099285,
				"z": -1.6186236013,
				"element": "C" 
			},
			{
				"x": -0.2623946766,
				"y": -1.2065888723,
				"z": -1.7805372556,
				"element": "S" 
			},
			{
				"x": -0.0042719113,
				"y": -0.705733229,
				"z": -0.1123124522,
				"element": "C" 
			},
			{
				"x": -1.0933806705,
				"y": -0.2745821496,
				"z": 0.4749045966,
				"element": "N" 
			},
			{
				"x": 1.3058206674,
				"y": -0.7708538611,
				"z": 0.540362389,
				"element": "C" 
			},
			{
				"x": 2.4531459114,
				"y": -1.2390134755,
				"z": -0.122312272,
				"element": "C" 
			},
			{
				"x": 3.6823003027,
				"y": -1.2875958655,
				"z": 0.5271795084,
				"element": "C" 
			},
			{
				"x": 3.7558015825,
				"y": -0.8625687169,
				"z": 1.8502975716,
				"element": "C" 
			},
			{
				"x": 4.9418960736,
				"y": -0.9072707222,
				"z": 2.4834094329,
				"element": "F" 
			},
			{
				"x": 2.6398295361,
				"y": -0.3930214097,
				"z": 2.5376064545,
				"element": "C" 
			},
			{
				"x": 1.416815402,
				"y": -0.3488254513,
				"z": 1.8789242922,
				"element": "C" 
			},
			{
				"x": -2.9603365478,
				"y": -0.9268988591,
				"z": -2.688656578,
				"element": "C" 
			},
			{
				"x": -2.5482507485,
				"y": -1.4167340937,
				"z": -3.8896059565,
				"element": "O" 
			},
			{
				"x": -4.1235758324,
				"y": -0.6233982307,
				"z": -2.5367227332,
				"element": "O" 
			},
			{
				"x": -4.2597544249,
				"y": -0.6396847139,
				"z": 0.1473702869,
				"element": "H" 
			},
			{
				"x": -3.9089947326,
				"y": 0.9836722381,
				"z": -0.394110131,
				"element": "H" 
			},
			{
				"x": -3.3825014689,
				"y": 0.4738245364,
				"z": 1.2361530647,
				"element": "H" 
			},
			{
				"x": 2.3930140374,
				"y": -1.5701383257,
				"z": -1.1551361762,
				"element": "H" 
			},
			{
				"x": 4.5756480845,
				"y": -1.6463678609,
				"z": 0.0284681878,
				"element": "H" 
			},
			{
				"x": 2.7419126139,
				"y": -0.0716404375,
				"z": 3.5682951137,
				"element": "H" 
			},
			{
				"x": 0.5286445807,
				"y": 0.0113115475,
				"z": 2.3851479403,
				"element": "H" 
			},
			{
				"x": -1.6030458084,
				"y": -1.6234067865,
				"z": -3.8940899652,
				"element": "H" 
			}
		],
		 "valence_orbital": [ 
			{
				"type": "occ",
				"energy": -0.29128,
				"method": "rhf"
			},
			{
				"type": "occ",
				"energy": -0.28685,
				"method": "rhf"
			},
			{
				"type": "occ",
				"energy": -0.28013,
				"method": "rhf"
			},
			{
				"type": "occ",
				"energy": -0.27847,
				"method": "rhf"
			},
			{
				"type": "occ",
				"energy": -0.23571,
				"method": "rhf"
			},
			{
				"type": "unocc",
				"energy": -0.08356,
				"method": "rhf"
			},
			{
				"type": "unocc",
				"energy": -0.03015,
				"method": "rhf"
			},
			{
				"type": "unocc",
				"energy": -0.01848,
				"method": "rhf"
			},
			{
				"type": "unocc",
				"energy": -0.01826,
				"method": "rhf"
			},
			{
				"type": "unocc",
				"energy": 0.03602,
				"method": "rhf"
			}
		],
		"cosmo_sigma_profile": { 
			"-0.025": 0.0,
			"-0.024": 0.0,
			"-0.023": 0.0,
			"-0.022": 0.0,
			"-0.021": 0.0,
			"-0.02": 0.0,
			"-0.019": 0.0,
			"-0.018": 0.746366564994,
			"-0.017": 0.630576228575,
			"-0.016": 0.85801027525,
			"-0.015": 0.754109936341,
			"-0.014": 0.571412203912,
			"-0.013": 1.25358329578,
			"-0.012": 1.5540719598,
			"-0.011": 1.05249798816,
			"-0.01": 1.13253864768,
			"-0.009": 0.644004351015,
			"-0.008": 4.86951934735,
			"-0.007": 7.71398242698,
			"-0.006": 9.14750525186,
			"-0.005": 10.5315727077,
			"-0.004": 12.5198093011,
			"-0.003": 14.8865238069,
			"-0.002": 17.5536561997,
			"-0.001": 27.8730199275,
			"0.0": 29.3705550394,
			"0.001": 21.9569775277,
			"0.002": 23.5384308405,
			"0.003": 14.1139853056,
			"0.004": 13.3859831267,
			"0.005": 4.0478377196,
			"0.006": 3.56470740981,
			"0.007": 3.9464897184,
			"0.008": 4.02360674807,
			"0.009": 4.61024348362,
			"0.01": 5.41839100354,
			"0.011": 4.59477829712,
			"0.012": 3.57532354693,
			"0.013": 1.51831702883,
			"0.014": 0.018061661631,
			"0.015": 0.0,
			"0.016": 0.0,
			"0.017": 0.0,
			"0.018": 0.0,
			"0.019": 0.0,
			"0.02": 0.0,
			"0.021": 0.0,
			"0.022": 0.0,
			"0.023": 0.0,
			"0.024": 0.0,
			"0.025": 0.0
		}
	}
}
