{
	 "smiles": "OCC(O)COC1=CC=CC=C1", 
	 "Tm": 335.9, 
	 "num_atms": 24, 
	 "gaussian": { 
		 "optdone": 1, 
		 "sigma_profile": "yes", 
		 "theory": "DFT", 
		 "functional": "B3LYP", 
		 "basiset": "6-31G**", 
		 "properties": { 
			 "R2extent": 2950.6096, 
			 "electric_dipole_moment_norm": 1.17581387132, 
			 "electric_quadrupole_moment_norm": 8.08954416083, 
			 "total_energy": -575.834708647, 
			 "HOMO_LUMO_gap": 0.2227, 
			 "cosmo_polarized_energy": -9.73, 
			 "cosmo_cavitation_energy": 26.91, 
			 "cosmo_dispersion_energy": -19.76, 
			 "cosmo_repulsion_energy": 1.59, 
			 "cosmo_total_nonelectrostatic_energy": 8.74, 
			 "SMD_solvation_energy": 4.65 
		},
		"coords": [
			{
				"x": -1.3581524631,
				"y": -0.0877363507,
				"z": -3.6976554578,
				"element": "O" 
			},
			{
				"x": -0.077218403,
				"y": 0.4738912988,
				"z": -3.9237153013,
				"element": "C" 
			},
			{
				"x": 0.6890981466,
				"y": 0.6554417012,
				"z": -2.6130924944,
				"element": "C" 
			},
			{
				"x": 0.7417951296,
				"y": -0.6359274171,
				"z": -2.0112656029,
				"element": "O" 
			},
			{
				"x": -0.0062479214,
				"y": 1.6451946998,
				"z": -1.6785402542,
				"element": "C" 
			},
			{
				"x": 0.6394639146,
				"y": 1.6065527517,
				"z": -0.3958686509,
				"element": "O" 
			},
			{
				"x": -0.1177884725,
				"y": 1.3325594185,
				"z": 0.7243165862,
				"element": "C" 
			},
			{
				"x": 0.1606412711,
				"y": 2.0808650679,
				"z": 1.8720994074,
				"element": "C" 
			},
			{
				"x": -0.5264213691,
				"y": 1.8140215711,
				"z": 3.0554659967,
				"element": "C" 
			},
			{
				"x": -1.4986567107,
				"y": 0.8115753315,
				"z": 3.0990564743,
				"element": "C" 
			},
			{
				"x": -1.7682373599,
				"y": 0.0667502151,
				"z": 1.9499589394,
				"element": "C" 
			},
			{
				"x": -1.0786824131,
				"y": 0.3150969823,
				"z": 0.7614456013,
				"element": "C" 
			},
			{
				"x": -1.1983798548,
				"y": -0.8812390607,
				"z": -3.1656206704,
				"element": "H" 
			},
			{
				"x": 0.5252091322,
				"y": -0.1530976916,
				"z": -4.5983294142,
				"element": "H" 
			},
			{
				"x": -0.2288654319,
				"y": 1.4424276836,
				"z": -4.412335773,
				"element": "H" 
			},
			{
				"x": 1.705928706,
				"y": 1.018448371,
				"z": -2.8332383517,
				"element": "H" 
			},
			{
				"x": 1.0864528143,
				"y": -0.5081793243,
				"z": -1.1156623109,
				"element": "H" 
			},
			{
				"x": 0.0819061767,
				"y": 2.6667356781,
				"z": -2.0694951327,
				"element": "H" 
			},
			{
				"x": -1.0656555068,
				"y": 1.3914920269,
				"z": -1.5946620807,
				"element": "H" 
			},
			{
				"x": 0.9132897376,
				"y": 2.8605109961,
				"z": 1.8159867768,
				"element": "H" 
			},
			{
				"x": -0.3065497418,
				"y": 2.3987431798,
				"z": 3.944240179,
				"element": "H" 
			},
			{
				"x": -2.0367572017,
				"y": 0.6102647196,
				"z": 4.0202214698,
				"element": "H" 
			},
			{
				"x": -2.5132687159,
				"y": -0.7234831085,
				"z": 1.9757262385,
				"element": "H" 
			},
			{
				"x": -1.265303463,
				"y": -0.2882087403,
				"z": -0.1206361744,
				"element": "H" 
			}
		],
		 "valence_orbital": [ 
			{
				"type": "occ",
				"energy": -0.30285,
				"method": "rhf"
			},
			{
				"type": "occ",
				"energy": -0.28191,
				"method": "rhf"
			},
			{
				"type": "occ",
				"energy": -0.26856,
				"method": "rhf"
			},
			{
				"type": "occ",
				"energy": -0.2534,
				"method": "rhf"
			},
			{
				"type": "occ",
				"energy": -0.22867,
				"method": "rhf"
			},
			{
				"type": "unocc",
				"energy": -0.00597,
				"method": "rhf"
			},
			{
				"type": "unocc",
				"energy": 0.00518,
				"method": "rhf"
			},
			{
				"type": "unocc",
				"energy": 0.07318,
				"method": "rhf"
			},
			{
				"type": "unocc",
				"energy": 0.08648,
				"method": "rhf"
			},
			{
				"type": "unocc",
				"energy": 0.103,
				"method": "rhf"
			}
		],
		"cosmo_sigma_profile": { 
			"-0.025": 0.0,
			"-0.024": 0.0,
			"-0.023": 0.0,
			"-0.022": 0.0,
			"-0.021": 0.0,
			"-0.02": 0.0,
			"-0.019": 0.0,
			"-0.018": 0.0,
			"-0.017": 0.0,
			"-0.016": 0.0,
			"-0.015": 0.0,
			"-0.014": 0.0,
			"-0.013": 0.330120217691,
			"-0.012": 1.06339485325,
			"-0.011": 1.61775767191,
			"-0.01": 0.939154629648,
			"-0.009": 1.21054151879,
			"-0.008": 1.40698500738,
			"-0.007": 1.4576607695,
			"-0.006": 10.135202679,
			"-0.005": 20.7252163057,
			"-0.004": 22.295829926,
			"-0.003": 23.087890364,
			"-0.002": 17.8313691046,
			"-0.001": 12.8150182727,
			"0.0": 10.7702702688,
			"0.001": 9.84964362736,
			"0.002": 10.0860698671,
			"0.003": 12.3468439391,
			"0.004": 11.313561861,
			"0.005": 12.3734353223,
			"0.006": 9.43214100394,
			"0.007": 3.66092854768,
			"0.008": 2.39036287032,
			"0.009": 2.35129776399,
			"0.01": 2.43067935137,
			"0.011": 3.53140083963,
			"0.012": 1.50644871566,
			"0.013": 2.62236387195,
			"0.014": 2.05846923819,
			"0.015": 0.291416537415,
			"0.016": 0.0,
			"0.017": 0.0,
			"0.018": 0.0,
			"0.019": 0.0,
			"0.02": 0.0,
			"0.021": 0.0,
			"0.022": 0.0,
			"0.023": 0.0,
			"0.024": 0.0,
			"0.025": 0.0
		}
	}
}
