{
	 "smiles": "ClCC1=CN(N=N1)C1=CC(Cl)=C(Cl)C=C1", 
	 "Tm": 412.15, 
	 "num_atms": 21, 
	 "gaussian": { 
		 "optdone": 1, 
		 "sigma_profile": "yes", 
		 "theory": "DFT", 
		 "functional": "B3LYP", 
		 "basiset": "6-31G**", 
		 "properties": { 
			 "R2extent": 7492.2736, 
			 "electric_dipole_moment_norm": 3.96977299729, 
			 "electric_quadrupole_moment_norm": 12.997955118, 
			 "total_energy": -1891.36124691, 
			 "HOMO_LUMO_gap": 0.19259, 
			 "cosmo_polarized_energy": -14.17, 
			 "cosmo_cavitation_energy": 31.91, 
			 "cosmo_dispersion_energy": -23.65, 
			 "cosmo_repulsion_energy": 1.86, 
			 "cosmo_total_nonelectrostatic_energy": 10.12, 
			 "SMD_solvation_energy": 3.37 
		},
		"coords": [
			{
				"x": 0.6006996231,
				"y": 4.0460617905,
				"z": 2.058586115,
				"element": "Cl" 
			},
			{
				"x": -0.4775871212,
				"y": 2.5960089958,
				"z": 2.3651590755,
				"element": "C" 
			},
			{
				"x": -0.0801379008,
				"y": 1.4071197694,
				"z": 1.5700549062,
				"element": "C" 
			},
			{
				"x": -0.2563082377,
				"y": 1.1262518671,
				"z": 0.2322448271,
				"element": "C" 
			},
			{
				"x": 0.297940629,
				"y": -0.1047011751,
				"z": 0.066632568,
				"element": "N" 
			},
			{
				"x": 0.7892517736,
				"y": -0.5650168999,
				"z": 1.2543663056,
				"element": "N" 
			},
			{
				"x": 0.5625006551,
				"y": 0.3458355241,
				"z": 2.1486582631,
				"element": "N" 
			},
			{
				"x": 0.4039015379,
				"y": -0.893776466,
				"z": -1.1089935088,
				"element": "C" 
			},
			{
				"x": 0.5095889167,
				"y": -2.2800019639,
				"z": -0.983720723,
				"element": "C" 
			},
			{
				"x": 0.6152787706,
				"y": -3.0693938525,
				"z": -2.1275963136,
				"element": "C" 
			},
			{
				"x": 0.7466284738,
				"y": -4.7961043457,
				"z": -1.9337548008,
				"element": "Cl" 
			},
			{
				"x": 0.6026974379,
				"y": -2.4754297999,
				"z": -3.3990582423,
				"element": "C" 
			},
			{
				"x": 0.7204198198,
				"y": -3.4271422551,
				"z": -4.8539198062,
				"element": "Cl" 
			},
			{
				"x": 0.4979071541,
				"y": -1.0870388791,
				"z": -3.5064936625,
				"element": "C" 
			},
			{
				"x": 0.406712628,
				"y": -0.2911227916,
				"z": -2.3694961511,
				"element": "C" 
			},
			{
				"x": -0.3943547304,
				"y": 2.3707088247,
				"z": 3.4273882431,
				"element": "H" 
			},
			{
				"x": -1.4880286232,
				"y": 2.9332078711,
				"z": 2.1345208176,
				"element": "H" 
			},
			{
				"x": -0.7259485402,
				"y": 1.6749753561,
				"z": -0.5677125309,
				"element": "H" 
			},
			{
				"x": 0.514084419,
				"y": -2.7347604381,
				"z": -0.0017431745,
				"element": "H" 
			},
			{
				"x": 0.5023078841,
				"y": -0.6332725826,
				"z": -4.4908865238,
				"element": "H" 
			},
			{
				"x": 0.3615454309,
				"y": 0.7872914503,
				"z": -2.4704356836,
				"element": "H" 
			}
		],
		 "valence_orbital": [ 
			{
				"type": "occ",
				"energy": -0.30164,
				"method": "rhf"
			},
			{
				"type": "occ",
				"energy": -0.28741,
				"method": "rhf"
			},
			{
				"type": "occ",
				"energy": -0.28446,
				"method": "rhf"
			},
			{
				"type": "occ",
				"energy": -0.27532,
				"method": "rhf"
			},
			{
				"type": "occ",
				"energy": -0.25662,
				"method": "rhf"
			},
			{
				"type": "unocc",
				"energy": -0.06403,
				"method": "rhf"
			},
			{
				"type": "unocc",
				"energy": -0.04537,
				"method": "rhf"
			},
			{
				"type": "unocc",
				"energy": -0.01467,
				"method": "rhf"
			},
			{
				"type": "unocc",
				"energy": -0.01102,
				"method": "rhf"
			},
			{
				"type": "unocc",
				"energy": -0.00181,
				"method": "rhf"
			}
		],
		"cosmo_sigma_profile": { 
			"-0.025": 0.0,
			"-0.024": 0.0,
			"-0.023": 0.0,
			"-0.022": 0.0,
			"-0.021": 0.0,
			"-0.02": 0.0,
			"-0.019": 0.0,
			"-0.018": 0.0,
			"-0.017": 0.0,
			"-0.016": 0.0,
			"-0.015": 0.0,
			"-0.014": 0.0,
			"-0.013": 0.00756463533666,
			"-0.012": 1.65297017419,
			"-0.011": 2.68160218546,
			"-0.01": 2.79875079148,
			"-0.009": 4.83609528551,
			"-0.008": 11.1758894784,
			"-0.007": 9.26457301643,
			"-0.006": 8.01056772499,
			"-0.005": 10.3102274753,
			"-0.004": 10.4956419542,
			"-0.003": 14.0815999065,
			"-0.002": 13.7238826506,
			"-0.001": 23.6227660957,
			"0.0": 30.8339674994,
			"0.001": 19.8333326839,
			"0.002": 18.2536284865,
			"0.003": 21.3469276325,
			"0.004": 19.7304967447,
			"0.005": 10.0113003506,
			"0.006": 12.1923261501,
			"0.007": 4.2677426604,
			"0.008": 2.81377635195,
			"0.009": 3.21696977962,
			"0.01": 2.69819883143,
			"0.011": 2.72518105647,
			"0.012": 1.23732176933,
			"0.013": 1.20688106938,
			"0.014": 0.826875892766,
			"0.015": 0.250656316913,
			"0.016": 0.0,
			"0.017": 0.0,
			"0.018": 0.0,
			"0.019": 0.0,
			"0.02": 0.0,
			"0.021": 0.0,
			"0.022": 0.0,
			"0.023": 0.0,
			"0.024": 0.0,
			"0.025": 0.0
		}
	}
}
