{
	 "smiles": "OC1=C(C=O)C(F)=CC=C1", 
	 "Tm": 311.15, 
	 "num_atms": 15, 
	 "gaussian": { 
		 "optdone": 1, 
		 "sigma_profile": "yes", 
		 "theory": "DFT", 
		 "functional": "B3LYP", 
		 "basiset": "6-31G**", 
		 "properties": { 
			 "R2extent": 2024.6453, 
			 "electric_dipole_moment_norm": 2.62843306363, 
			 "electric_quadrupole_moment_norm": 7.41499315104, 
			 "total_energy": -520.039460295, 
			 "HOMO_LUMO_gap": 0.164, 
			 "cosmo_polarized_energy": -6.08, 
			 "cosmo_cavitation_energy": 19.75, 
			 "cosmo_dispersion_energy": -14.9, 
			 "cosmo_repulsion_energy": 1.17, 
			 "cosmo_total_nonelectrostatic_energy": 6.01, 
			 "SMD_solvation_energy": 5.19 
		},
		"coords": [
			{
				"x": -1.0688665098,
				"y": 2.9496135391,
				"z": 1.4559246844,
				"element": "O" 
			},
			{
				"x": -0.9045539264,
				"y": 1.8434254574,
				"z": 0.7262571174,
				"element": "C" 
			},
			{
				"x": -0.3592287567,
				"y": 1.9060918044,
				"z": -0.5886658881,
				"element": "C" 
			},
			{
				"x": 0.0292829415,
				"y": 3.1830050779,
				"z": -1.1607069605,
				"element": "C" 
			},
			{
				"x": -0.0858065945,
				"y": 4.2584165171,
				"z": -0.5609277635,
				"element": "O" 
			},
			{
				"x": -0.214402467,
				"y": 0.6997287668,
				"z": -1.3001967156,
				"element": "C" 
			},
			{
				"x": 0.3020445311,
				"y": 0.7617007533,
				"z": -2.5447505215,
				"element": "F" 
			},
			{
				"x": -0.5751323262,
				"y": -0.5265210235,
				"z": -0.7815032675,
				"element": "C" 
			},
			{
				"x": -1.109563512,
				"y": -0.5533258928,
				"z": 0.5173889896,
				"element": "C" 
			},
			{
				"x": -1.2765554172,
				"y": 0.6026215628,
				"z": 1.268266818,
				"element": "C" 
			},
			{
				"x": -0.7508960814,
				"y": 3.7110702886,
				"z": 0.9041250835,
				"element": "H" 
			},
			{
				"x": 0.4447090159,
				"y": 3.1665587498,
				"z": -2.1812555869,
				"element": "H" 
			},
			{
				"x": -0.4433259608,
				"y": -1.4260678603,
				"z": -1.3704787202,
				"element": "H" 
			},
			{
				"x": -1.4001107155,
				"y": -1.5084844614,
				"z": 0.9448806758,
				"element": "H" 
			},
			{
				"x": -1.6893942212,
				"y": 0.5766667209,
				"z": 2.2702420552,
				"element": "H" 
			}
		],
		 "valence_orbital": [ 
			{
				"type": "occ",
				"energy": -0.36938,
				"method": "rhf"
			},
			{
				"type": "occ",
				"energy": -0.34522,
				"method": "rhf"
			},
			{
				"type": "occ",
				"energy": -0.27578,
				"method": "rhf"
			},
			{
				"type": "occ",
				"energy": -0.27217,
				"method": "rhf"
			},
			{
				"type": "occ",
				"energy": -0.23991,
				"method": "rhf"
			},
			{
				"type": "unocc",
				"energy": -0.07591,
				"method": "rhf"
			},
			{
				"type": "unocc",
				"energy": -0.00407,
				"method": "rhf"
			},
			{
				"type": "unocc",
				"energy": 0.02464,
				"method": "rhf"
			},
			{
				"type": "unocc",
				"energy": 0.07776,
				"method": "rhf"
			},
			{
				"type": "unocc",
				"energy": 0.12674,
				"method": "rhf"
			}
		],
		"cosmo_sigma_profile": { 
			"-0.025": 0.0,
			"-0.024": 0.0,
			"-0.023": 0.0,
			"-0.022": 0.0,
			"-0.021": 0.0,
			"-0.02": 0.0,
			"-0.019": 0.0,
			"-0.018": 0.0,
			"-0.017": 0.0,
			"-0.016": 0.0,
			"-0.015": 0.0,
			"-0.014": 0.0,
			"-0.013": 0.0,
			"-0.012": 0.0,
			"-0.011": 0.0,
			"-0.01": 0.0,
			"-0.009": 0.0,
			"-0.008": 2.53795880157,
			"-0.007": 8.61260662297,
			"-0.006": 8.91016996482,
			"-0.005": 9.63781521899,
			"-0.004": 10.9441599247,
			"-0.003": 11.5559284976,
			"-0.002": 11.1540575184,
			"-0.001": 10.3537577617,
			"0.0": 14.2325068716,
			"0.001": 14.6863078192,
			"0.002": 13.4350211104,
			"0.003": 16.4303272756,
			"0.004": 5.32867628951,
			"0.005": 2.34618965755,
			"0.006": 3.31788737263,
			"0.007": 2.91770107561,
			"0.008": 2.45085915495,
			"0.009": 2.81663521343,
			"0.01": 4.03555154256,
			"0.011": 2.52482475609,
			"0.012": 1.06485184774,
			"0.013": 0.0698563594866,
			"0.014": 0.0,
			"0.015": 0.0,
			"0.016": 0.0,
			"0.017": 0.0,
			"0.018": 0.0,
			"0.019": 0.0,
			"0.02": 0.0,
			"0.021": 0.0,
			"0.022": 0.0,
			"0.023": 0.0,
			"0.024": 0.0,
			"0.025": 0.0
		}
	}
}
