{
	 "smiles": "CC1=CSC(CC(=O)NN)=N1", 
	 "Tm": 347.15, 
	 "num_atms": 20, 
	 "gaussian": { 
		 "optdone": 1, 
		 "sigma_profile": "yes", 
		 "theory": "DFT", 
		 "functional": "B3LYP", 
		 "basiset": "6-31G**", 
		 "properties": { 
			 "R2extent": 4221.5943, 
			 "electric_dipole_moment_norm": 3.25792211693, 
			 "electric_quadrupole_moment_norm": 14.3385207755, 
			 "total_energy": -871.712310803, 
			 "HOMO_LUMO_gap": 0.20471, 
			 "cosmo_polarized_energy": -11.85, 
			 "cosmo_cavitation_energy": 25.82, 
			 "cosmo_dispersion_energy": -19.37, 
			 "cosmo_repulsion_energy": 1.56, 
			 "cosmo_total_nonelectrostatic_energy": 8.0, 
			 "SMD_solvation_energy": 4.58 
		},
		"coords": [
			{
				"x": 1.0359630103,
				"y": 2.4758357875,
				"z": -2.3962330255,
				"element": "C" 
			},
			{
				"x": 1.3229298793,
				"y": 1.0759705292,
				"z": -2.8516420305,
				"element": "C" 
			},
			{
				"x": 1.5234461953,
				"y": 0.6684921982,
				"z": -4.1409152923,
				"element": "C" 
			},
			{
				"x": 1.8124814339,
				"y": -1.0402948439,
				"z": -4.2001297832,
				"element": "S" 
			},
			{
				"x": 1.648496665,
				"y": -1.0976381267,
				"z": -2.4543872406,
				"element": "C" 
			},
			{
				"x": 1.8149127106,
				"y": -2.3832027953,
				"z": -1.6915585208,
				"element": "C" 
			},
			{
				"x": 0.7453289282,
				"y": -2.7070830324,
				"z": -0.629384344,
				"element": "C" 
			},
			{
				"x": 0.3550111809,
				"y": -3.855929841,
				"z": -0.4583172276,
				"element": "O" 
			},
			{
				"x": 0.3317115852,
				"y": -1.6573336651,
				"z": 0.1273505368,
				"element": "N" 
			},
			{
				"x": -0.690960234,
				"y": -1.8088927673,
				"z": 1.0874925274,
				"element": "N" 
			},
			{
				"x": 1.4013015766,
				"y": 0.0630622744,
				"z": -1.9128208132,
				"element": "N" 
			},
			{
				"x": 1.8017726828,
				"y": 2.8190644167,
				"z": -1.6925184759,
				"element": "H" 
			},
			{
				"x": 1.0078397062,
				"y": 3.1677279287,
				"z": -3.241202176,
				"element": "H" 
			},
			{
				"x": 0.072738079,
				"y": 2.5246554995,
				"z": -1.8770665058,
				"element": "H" 
			},
			{
				"x": 1.5120557123,
				"y": 1.2669864117,
				"z": -5.0405192919,
				"element": "H" 
			},
			{
				"x": 2.78427959,
				"y": -2.3630912648,
				"z": -1.174810158,
				"element": "H" 
			},
			{
				"x": 1.8331727429,
				"y": -3.2379214245,
				"z": -2.3696622024,
				"element": "H" 
			},
			{
				"x": 0.5451731547,
				"y": -0.7097713698,
				"z": -0.1688969874,
				"element": "H" 
			},
			{
				"x": -0.2960820545,
				"y": -2.3266064139,
				"z": 1.8727213766,
				"element": "H" 
			},
			{
				"x": -1.3876725446,
				"y": -2.4365295013,
				"z": 0.6838996342,
				"element": "H" 
			}
		],
		 "valence_orbital": [ 
			{
				"type": "occ",
				"energy": -0.29087,
				"method": "rhf"
			},
			{
				"type": "occ",
				"energy": -0.27478,
				"method": "rhf"
			},
			{
				"type": "occ",
				"energy": -0.26008,
				"method": "rhf"
			},
			{
				"type": "occ",
				"energy": -0.24963,
				"method": "rhf"
			},
			{
				"type": "occ",
				"energy": -0.2375,
				"method": "rhf"
			},
			{
				"type": "unocc",
				"energy": -0.03279,
				"method": "rhf"
			},
			{
				"type": "unocc",
				"energy": 0.00746,
				"method": "rhf"
			},
			{
				"type": "unocc",
				"energy": 0.02627,
				"method": "rhf"
			},
			{
				"type": "unocc",
				"energy": 0.03864,
				"method": "rhf"
			},
			{
				"type": "unocc",
				"energy": 0.08437,
				"method": "rhf"
			}
		],
		"cosmo_sigma_profile": { 
			"-0.025": 0.0,
			"-0.024": 0.0,
			"-0.023": 0.0,
			"-0.022": 0.0,
			"-0.021": 0.0,
			"-0.02": 0.0,
			"-0.019": 0.0,
			"-0.018": 0.0,
			"-0.017": 0.0,
			"-0.016": 0.0,
			"-0.015": 0.0,
			"-0.014": 0.0,
			"-0.013": 0.0,
			"-0.012": 0.236009820011,
			"-0.011": 1.73987188724,
			"-0.01": 2.30033422597,
			"-0.009": 3.42106993718,
			"-0.008": 6.2505164439,
			"-0.007": 8.35802189961,
			"-0.006": 8.69293106636,
			"-0.005": 11.5357443936,
			"-0.004": 15.3722726355,
			"-0.003": 14.9029759772,
			"-0.002": 13.9402418561,
			"-0.001": 17.121706492,
			"0.0": 18.0681328924,
			"0.001": 16.570446522,
			"0.002": 15.7894119329,
			"0.003": 13.8566904991,
			"0.004": 6.90836923557,
			"0.005": 3.03696435601,
			"0.006": 2.80574290303,
			"0.007": 3.12332412182,
			"0.008": 2.54718358978,
			"0.009": 2.01150012411,
			"0.01": 1.65129973899,
			"0.011": 2.00010948638,
			"0.012": 2.89396504316,
			"0.013": 5.27069914966,
			"0.014": 4.20405174657,
			"0.015": 0.928211785472,
			"0.016": 0.789869753043,
			"0.017": 0.350482680348,
			"0.018": 0.0,
			"0.019": 0.0,
			"0.02": 0.0,
			"0.021": 0.0,
			"0.022": 0.0,
			"0.023": 0.0,
			"0.024": 0.0,
			"0.025": 0.0
		}
	}
}
