{
	 "smiles": "OC(=O)C1=C(F)C=CC(=C1)N1CCCC1=O", 
	 "Tm": 528.15, 
	 "num_atms": 26, 
	 "gaussian": { 
		 "optdone": 1, 
		 "sigma_profile": "yes", 
		 "theory": "DFT", 
		 "functional": "B3LYP", 
		 "basiset": "6-31G**", 
		 "properties": { 
			 "R2extent": 4662.7963, 
			 "electric_dipole_moment_norm": 9.02932918217, 
			 "electric_quadrupole_moment_norm": 19.3267065368, 
			 "total_energy": -805.477768658, 
			 "HOMO_LUMO_gap": 0.18192, 
			 "cosmo_polarized_energy": -20.08, 
			 "cosmo_cavitation_energy": 30.2, 
			 "cosmo_dispersion_energy": -22.21, 
			 "cosmo_repulsion_energy": 1.69, 
			 "cosmo_total_nonelectrostatic_energy": 9.68, 
			 "SMD_solvation_energy": 6.64 
		},
		"coords": [
			{
				"x": -2.5319185429,
				"y": -3.7736348981,
				"z": -0.1140620542,
				"element": "O" 
			},
			{
				"x": -3.2518952796,
				"y": -2.6283205379,
				"z": -0.255724066,
				"element": "C" 
			},
			{
				"x": -4.4444621525,
				"y": -2.6337440943,
				"z": -0.078754822,
				"element": "O" 
			},
			{
				"x": -2.4595894214,
				"y": -1.4028260404,
				"z": -0.6150939873,
				"element": "C" 
			},
			{
				"x": -3.0451177715,
				"y": -0.3652824062,
				"z": -1.3513230982,
				"element": "C" 
			},
			{
				"x": -4.2989629649,
				"y": -0.4749729556,
				"z": -1.8110141714,
				"element": "F" 
			},
			{
				"x": -2.3318273475,
				"y": 0.7876347885,
				"z": -1.6478794359,
				"element": "C" 
			},
			{
				"x": -1.0196609335,
				"y": 0.9292017425,
				"z": -1.2039558782,
				"element": "C" 
			},
			{
				"x": -0.3978581406,
				"y": -0.0925200852,
				"z": -0.4647296181,
				"element": "C" 
			},
			{
				"x": -1.1372745648,
				"y": -1.2529896973,
				"z": -0.1777257892,
				"element": "C" 
			},
			{
				"x": 0.937860603,
				"y": 0.0664120126,
				"z": -0.0288114632,
				"element": "N" 
			},
			{
				"x": 1.7117876996,
				"y": 1.2717005715,
				"z": -0.3573026151,
				"element": "C" 
			},
			{
				"x": 3.1508352016,
				"y": 0.9224440118,
				"z": 0.0650430668,
				"element": "C" 
			},
			{
				"x": 2.9635844444,
				"y": -0.1306636053,
				"z": 1.1610493824,
				"element": "C" 
			},
			{
				"x": 1.6241117999,
				"y": -0.7814636631,
				"z": 0.8358183693,
				"element": "C" 
			},
			{
				"x": 1.2242241181,
				"y": -1.8472107401,
				"z": 1.2761665339,
				"element": "O" 
			},
			{
				"x": -1.6161710587,
				"y": -3.6323868849,
				"z": -0.3931395982,
				"element": "H" 
			},
			{
				"x": -2.8133922391,
				"y": 1.5692722197,
				"z": -2.2250265273,
				"element": "H" 
			},
			{
				"x": -0.4938211072,
				"y": 1.8470434949,
				"z": -1.4351184564,
				"element": "H" 
			},
			{
				"x": -0.6708007967,
				"y": -2.0127311368,
				"z": 0.4351399078,
				"element": "H" 
			},
			{
				"x": 1.6424466771,
				"y": 1.4924517355,
				"z": -1.4263927232,
				"element": "H" 
			},
			{
				"x": 1.3190328211,
				"y": 2.1382236372,
				"z": 0.1925161929,
				"element": "H" 
			},
			{
				"x": 3.6879943292,
				"y": 0.4895168699,
				"z": -0.7843758461,
				"element": "H" 
			},
			{
				"x": 3.7024559031,
				"y": 1.8061526254,
				"z": 0.3928390337,
				"element": "H" 
			},
			{
				"x": 3.7482573808,
				"y": -0.8881225665,
				"z": 1.2076472569,
				"element": "H" 
			},
			{
				"x": 2.882461343,
				"y": 0.3191156021,
				"z": 2.158610406,
				"element": "H" 
			}
		],
		 "valence_orbital": [ 
			{
				"type": "occ",
				"energy": -0.30529,
				"method": "rhf"
			},
			{
				"type": "occ",
				"energy": -0.28012,
				"method": "rhf"
			},
			{
				"type": "occ",
				"energy": -0.26789,
				"method": "rhf"
			},
			{
				"type": "occ",
				"energy": -0.26374,
				"method": "rhf"
			},
			{
				"type": "occ",
				"energy": -0.232,
				"method": "rhf"
			},
			{
				"type": "unocc",
				"energy": -0.05008,
				"method": "rhf"
			},
			{
				"type": "unocc",
				"energy": -0.02922,
				"method": "rhf"
			},
			{
				"type": "unocc",
				"energy": 0.01741,
				"method": "rhf"
			},
			{
				"type": "unocc",
				"energy": 0.05048,
				"method": "rhf"
			},
			{
				"type": "unocc",
				"energy": 0.0654,
				"method": "rhf"
			}
		],
		"cosmo_sigma_profile": { 
			"-0.025": 0.0,
			"-0.024": 0.0,
			"-0.023": 0.0,
			"-0.022": 0.0,
			"-0.021": 0.0,
			"-0.02": 0.0,
			"-0.019": 0.00613826149661,
			"-0.018": 0.697958866672,
			"-0.017": 0.638810850821,
			"-0.016": 0.854947627257,
			"-0.015": 0.61849792819,
			"-0.014": 0.65372436645,
			"-0.013": 0.73964577218,
			"-0.012": 1.50110239386,
			"-0.011": 0.992209216476,
			"-0.01": 0.845631492543,
			"-0.009": 0.742600517625,
			"-0.008": 4.95185339414,
			"-0.007": 6.22901988156,
			"-0.006": 13.3305956591,
			"-0.005": 21.6600655135,
			"-0.004": 24.9425426066,
			"-0.003": 17.5592612321,
			"-0.002": 14.4319568091,
			"-0.001": 15.7897349326,
			"0.0": 15.1588715245,
			"0.001": 17.3330591081,
			"0.002": 12.9203030556,
			"0.003": 9.10966392415,
			"0.004": 9.33061795566,
			"0.005": 4.58855591696,
			"0.006": 4.46634963561,
			"0.007": 4.34081827267,
			"0.008": 4.47104328213,
			"0.009": 5.46727130391,
			"0.01": 7.0691478801,
			"0.011": 7.98415777726,
			"0.012": 7.09054450647,
			"0.013": 3.65633255935,
			"0.014": 0.767701981336,
			"0.015": 0.0,
			"0.016": 0.0,
			"0.017": 0.0,
			"0.018": 0.0,
			"0.019": 0.0,
			"0.02": 0.0,
			"0.021": 0.0,
			"0.022": 0.0,
			"0.023": 0.0,
			"0.024": 0.0,
			"0.025": 0.0
		}
	}
}
