{
	 "smiles": "BrC1=CC=C(C=C1)C(=O)N1CCC2=C1C=CC=C2", 
	 "Tm": 397.15, 
	 "num_atms": 30, 
	 "gaussian": { 
		 "optdone": 1, 
		 "sigma_profile": "yes", 
		 "theory": "DFT", 
		 "functional": "B3LYP", 
		 "basiset": "6-31G**", 
		 "properties": { 
			 "R2extent": 9593.3295, 
			 "electric_dipole_moment_norm": 3.03537788422, 
			 "electric_quadrupole_moment_norm": 5.23129578212, 
			 "total_energy": -3280.22370136, 
			 "HOMO_LUMO_gap": 0.16534, 
			 "cosmo_polarized_energy": -10.15, 
			 "cosmo_cavitation_energy": 35.69, 
			 "cosmo_dispersion_energy": -25.99, 
			 "cosmo_repulsion_energy": 2.01, 
			 "cosmo_total_nonelectrostatic_energy": 11.71, 
			 "SMD_solvation_energy": 4.68 
		},
		"coords": [
			{
				"x": 1.8234844242,
				"y": 1.458565675,
				"z": 6.0533756478,
				"element": "Br" 
			},
			{
				"x": 1.3657942395,
				"y": 0.7245709668,
				"z": 4.3506448213,
				"element": "C" 
			},
			{
				"x": 1.8933180774,
				"y": -0.5106918531,
				"z": 3.9732014745,
				"element": "C" 
			},
			{
				"x": 1.5480453945,
				"y": -1.0424670074,
				"z": 2.733285388,
				"element": "C" 
			},
			{
				"x": 0.7097195597,
				"y": -0.3374905893,
				"z": 1.8596082537,
				"element": "C" 
			},
			{
				"x": 0.1829288178,
				"y": 0.896414467,
				"z": 2.2644848885,
				"element": "C" 
			},
			{
				"x": 0.5041224407,
				"y": 1.4304096685,
				"z": 3.5116466064,
				"element": "C" 
			},
			{
				"x": 0.2954830448,
				"y": -1.0155070452,
				"z": 0.5870560701,
				"element": "C" 
			},
			{
				"x": 0.0729195611,
				"y": -2.2241153413,
				"z": 0.5760278414,
				"element": "O" 
			},
			{
				"x": 0.0798242585,
				"y": -0.2610924222,
				"z": -0.5498413654,
				"element": "N" 
			},
			{
				"x": -0.6089331432,
				"y": -0.9099646831,
				"z": -1.6897268294,
				"element": "C" 
			},
			{
				"x": -0.9341183507,
				"y": 0.2618385067,
				"z": -2.6374507639,
				"element": "C" 
			},
			{
				"x": 0.0941782977,
				"y": 1.2987612923,
				"z": -2.2434502499,
				"element": "C" 
			},
			{
				"x": 0.6536448544,
				"y": 0.9570782828,
				"z": -0.9998170481,
				"element": "C" 
			},
			{
				"x": 1.6634710485,
				"y": 1.7378469885,
				"z": -0.4339260429,
				"element": "C" 
			},
			{
				"x": 2.070846583,
				"y": 2.889167337,
				"z": -1.117264237,
				"element": "C" 
			},
			{
				"x": 1.5019923184,
				"y": 3.2490113449,
				"z": -2.3397566259,
				"element": "C" 
			},
			{
				"x": 0.5093607564,
				"y": 2.4431456063,
				"z": -2.9106644544,
				"element": "C" 
			},
			{
				"x": 2.5535742687,
				"y": -1.0497291991,
				"z": 4.6428029184,
				"element": "H" 
			},
			{
				"x": 1.9170536488,
				"y": -2.0172864885,
				"z": 2.4324674081,
				"element": "H" 
			},
			{
				"x": -0.4885047382,
				"y": 1.441500848,
				"z": 1.6093214828,
				"element": "H" 
			},
			{
				"x": 0.0887482225,
				"y": 2.3797471363,
				"z": 3.8295770814,
				"element": "H" 
			},
			{
				"x": -1.4817537168,
				"y": -1.4540851634,
				"z": -1.327898596,
				"element": "H" 
			},
			{
				"x": 0.065909995,
				"y": -1.6355600813,
				"z": -2.1594284651,
				"element": "H" 
			},
			{
				"x": -1.9516073613,
				"y": 0.6363873699,
				"z": -2.4633753913,
				"element": "H" 
			},
			{
				"x": -0.8701903123,
				"y": -0.0309209343,
				"z": -3.6891348929,
				"element": "H" 
			},
			{
				"x": 2.1353388233,
				"y": 1.4653840465,
				"z": 0.500719734,
				"element": "H" 
			},
			{
				"x": 2.8562199985,
				"y": 3.5032790603,
				"z": -0.6862191344,
				"element": "H" 
			},
			{
				"x": 1.8383740154,
				"y": 4.143852529,
				"z": -2.8541819244,
				"element": "H" 
			},
			{
				"x": 0.0741549737,
				"y": 2.7040496824,
				"z": -3.8717835952,
				"element": "H" 
			}
		],
		 "valence_orbital": [ 
			{
				"type": "occ",
				"energy": -0.27252,
				"method": "rhf"
			},
			{
				"type": "occ",
				"energy": -0.26276,
				"method": "rhf"
			},
			{
				"type": "occ",
				"energy": -0.25256,
				"method": "rhf"
			},
			{
				"type": "occ",
				"energy": -0.24483,
				"method": "rhf"
			},
			{
				"type": "occ",
				"energy": -0.21406,
				"method": "rhf"
			},
			{
				"type": "unocc",
				"energy": -0.04872,
				"method": "rhf"
			},
			{
				"type": "unocc",
				"energy": -0.0225,
				"method": "rhf"
			},
			{
				"type": "unocc",
				"energy": -0.00645,
				"method": "rhf"
			},
			{
				"type": "unocc",
				"energy": -0.00137,
				"method": "rhf"
			},
			{
				"type": "unocc",
				"energy": 0.00315,
				"method": "rhf"
			}
		],
		"cosmo_sigma_profile": { 
			"-0.025": 0.0,
			"-0.024": 0.0,
			"-0.023": 0.0,
			"-0.022": 0.0,
			"-0.021": 0.0,
			"-0.02": 0.0,
			"-0.019": 0.0,
			"-0.018": 0.0,
			"-0.017": 0.0,
			"-0.016": 0.0,
			"-0.015": 0.0,
			"-0.014": 0.0,
			"-0.013": 0.0,
			"-0.012": 0.0,
			"-0.011": 0.0,
			"-0.01": 0.0,
			"-0.009": 0.0,
			"-0.008": 0.715996308694,
			"-0.007": 5.48605154588,
			"-0.006": 11.6303742729,
			"-0.005": 21.5981847578,
			"-0.004": 29.1096152194,
			"-0.003": 29.784673801,
			"-0.002": 25.0971789039,
			"-0.001": 21.7579949482,
			"0.0": 18.9139818188,
			"0.001": 23.1916238277,
			"0.002": 25.9423434256,
			"0.003": 19.4657072879,
			"0.004": 21.0808227494,
			"0.005": 12.2517283672,
			"0.006": 6.42964920167,
			"0.007": 1.36397340097,
			"0.008": 1.80925091066,
			"0.009": 1.61417003358,
			"0.01": 1.42266994061,
			"0.011": 1.80861561531,
			"0.012": 2.58531523933,
			"0.013": 4.89681286411,
			"0.014": 1.00926368545,
			"0.015": 0.0,
			"0.016": 0.0,
			"0.017": 0.0,
			"0.018": 0.0,
			"0.019": 0.0,
			"0.02": 0.0,
			"0.021": 0.0,
			"0.022": 0.0,
			"0.023": 0.0,
			"0.024": 0.0,
			"0.025": 0.0
		}
	}
}
