{
	 "smiles": "OC(=O)COCC1=NC2=C(C=CC=C2)C(=O)N1", 
	 "Tm": 533.15, 
	 "num_atms": 27, 
	 "gaussian": { 
		 "optdone": 1, 
		 "sigma_profile": "yes", 
		 "theory": "DFT", 
		 "functional": "B3LYP", 
		 "basiset": "6-31G**", 
		 "properties": { 
			 "R2extent": 7043.5698, 
			 "electric_dipole_moment_norm": 2.61728716804, 
			 "electric_quadrupole_moment_norm": 21.1012790188, 
			 "total_energy": -835.62073394, 
			 "HOMO_LUMO_gap": 0.18968, 
			 "cosmo_polarized_energy": -22.08, 
			 "cosmo_cavitation_energy": 32.41, 
			 "cosmo_dispersion_energy": -23.75, 
			 "cosmo_repulsion_energy": 1.85, 
			 "cosmo_total_nonelectrostatic_energy": 10.5, 
			 "SMD_solvation_energy": 5.84 
		},
		"coords": [
			{
				"x": -0.3427074992,
				"y": -1.2628259143,
				"z": -4.758209484,
				"element": "O" 
			},
			{
				"x": 0.208910071,
				"y": -0.0399027664,
				"z": -4.8792922732,
				"element": "C" 
			},
			{
				"x": -0.0973464599,
				"y": 0.7390120059,
				"z": -5.7450274893,
				"element": "O" 
			},
			{
				"x": 1.2982156543,
				"y": 0.2635055644,
				"z": -3.8414843492,
				"element": "C" 
			},
			{
				"x": 1.2606792548,
				"y": -0.634752776,
				"z": -2.736109236,
				"element": "O" 
			},
			{
				"x": 0.3458987222,
				"y": -0.2520528101,
				"z": -1.7059581212,
				"element": "C" 
			},
			{
				"x": 0.5302394759,
				"y": -1.1670841372,
				"z": -0.5174185006,
				"element": "C" 
			},
			{
				"x": -0.4513025595,
				"y": -1.3217699635,
				"z": 0.3082489335,
				"element": "N" 
			},
			{
				"x": -0.2120836001,
				"y": -2.1116872335,
				"z": 1.4293090118,
				"element": "C" 
			},
			{
				"x": 1.035346129,
				"y": -2.7403271839,
				"z": 1.6676663475,
				"element": "C" 
			},
			{
				"x": 1.2258266974,
				"y": -3.5321652752,
				"z": 2.8104539716,
				"element": "C" 
			},
			{
				"x": 0.1893464929,
				"y": -3.701251783,
				"z": 3.7160871358,
				"element": "C" 
			},
			{
				"x": -1.0509536924,
				"y": -3.0797179836,
				"z": 3.4854708653,
				"element": "C" 
			},
			{
				"x": -1.2530356067,
				"y": -2.2959857224,
				"z": 2.3590777119,
				"element": "C" 
			},
			{
				"x": 2.1296826349,
				"y": -2.5637382345,
				"z": 0.7047722565,
				"element": "C" 
			},
			{
				"x": 3.2477833749,
				"y": -3.0527348418,
				"z": 0.7683726199,
				"element": "O" 
			},
			{
				"x": 1.769244647,
				"y": -1.732617511,
				"z": -0.3684586275,
				"element": "N" 
			},
			{
				"x": 0.0913163924,
				"y": -1.706017626,
				"z": -4.006640945,
				"element": "H" 
			},
			{
				"x": 1.2053605776,
				"y": 1.3088443848,
				"z": -3.5272977853,
				"element": "H" 
			},
			{
				"x": 2.2732186897,
				"y": 0.1358275642,
				"z": -4.3227072496,
				"element": "H" 
			},
			{
				"x": -0.6976064843,
				"y": -0.3126187511,
				"z": -2.0360498096,
				"element": "H" 
			},
			{
				"x": 0.5470662849,
				"y": 0.78570813,
				"z": -1.4000248538,
				"element": "H" 
			},
			{
				"x": 2.1947798393,
				"y": -3.9981702087,
				"z": 2.9563798936,
				"element": "H" 
			},
			{
				"x": 0.3329288987,
				"y": -4.3125303564,
				"z": 4.6016815226,
				"element": "H" 
			},
			{
				"x": -1.8604445154,
				"y": -3.2149911257,
				"z": 4.1971159605,
				"element": "H" 
			},
			{
				"x": -2.203789676,
				"y": -1.8103621191,
				"z": 2.1659819284,
				"element": "H" 
			},
			{
				"x": 2.4634262565,
				"y": -1.5902933258,
				"z": -1.0935394349,
				"element": "H" 
			}
		],
		 "valence_orbital": [ 
			{
				"type": "occ",
				"energy": -0.28924,
				"method": "rhf"
			},
			{
				"type": "occ",
				"energy": -0.27769,
				"method": "rhf"
			},
			{
				"type": "occ",
				"energy": -0.27049,
				"method": "rhf"
			},
			{
				"type": "occ",
				"energy": -0.26718,
				"method": "rhf"
			},
			{
				"type": "occ",
				"energy": -0.23805,
				"method": "rhf"
			},
			{
				"type": "unocc",
				"energy": -0.04837,
				"method": "rhf"
			},
			{
				"type": "unocc",
				"energy": -0.04678,
				"method": "rhf"
			},
			{
				"type": "unocc",
				"energy": -0.00611,
				"method": "rhf"
			},
			{
				"type": "unocc",
				"energy": 0.01674,
				"method": "rhf"
			},
			{
				"type": "unocc",
				"energy": 0.0446,
				"method": "rhf"
			}
		],
		"cosmo_sigma_profile": { 
			"-0.025": 0.0,
			"-0.024": 0.0,
			"-0.023": 0.0,
			"-0.022": 0.0,
			"-0.021": 0.0,
			"-0.02": 0.0,
			"-0.019": 0.0,
			"-0.018": 0.0,
			"-0.017": 0.0,
			"-0.016": 0.1943048054,
			"-0.015": 0.566811556191,
			"-0.014": 0.784930045084,
			"-0.013": 0.846031476056,
			"-0.012": 1.99212121304,
			"-0.011": 1.96363101055,
			"-0.01": 2.97549705591,
			"-0.009": 8.27688395892,
			"-0.008": 11.9943125784,
			"-0.007": 13.4600765666,
			"-0.006": 17.2610557227,
			"-0.005": 14.5674605663,
			"-0.004": 16.3861057094,
			"-0.003": 14.9134918946,
			"-0.002": 13.3297252318,
			"-0.001": 11.4123327329,
			"0.0": 12.2074771934,
			"0.001": 13.6353222412,
			"0.002": 16.0018953901,
			"0.003": 17.7621420108,
			"0.004": 10.7324299479,
			"0.005": 4.38375565968,
			"0.006": 4.71449237403,
			"0.007": 5.09921117734,
			"0.008": 4.83251664838,
			"0.009": 7.51451765682,
			"0.01": 6.60347495681,
			"0.011": 7.91622874487,
			"0.012": 9.54332075268,
			"0.013": 6.4612989117,
			"0.014": 0.685585982341,
			"0.015": 0.0646483899771,
			"0.016": 0.0,
			"0.017": 0.0,
			"0.018": 0.0,
			"0.019": 0.0,
			"0.02": 0.0,
			"0.021": 0.0,
			"0.022": 0.0,
			"0.023": 0.0,
			"0.024": 0.0,
			"0.025": 0.0
		}
	}
}
