{
	 "smiles": "CC(N1C(=O)C2=C(C=C(C)C=C2)C1=O)C(O)=O", 
	 "Tm": 415.15, 
	 "num_atms": 28, 
	 "gaussian": { 
		 "optdone": 1, 
		 "sigma_profile": "yes", 
		 "theory": "DFT", 
		 "functional": "B3LYP", 
		 "basiset": "6-31G**", 
		 "properties": { 
			 "R2extent": 4823.1753, 
			 "electric_dipole_moment_norm": 4.4912610434, 
			 "electric_quadrupole_moment_norm": 8.79152929416, 
			 "total_energy": -819.610525932, 
			 "HOMO_LUMO_gap": 0.1779, 
			 "cosmo_polarized_energy": -15.67, 
			 "cosmo_cavitation_energy": 33.07, 
			 "cosmo_dispersion_energy": -23.07, 
			 "cosmo_repulsion_energy": 1.79, 
			 "cosmo_total_nonelectrostatic_energy": 11.79, 
			 "SMD_solvation_energy": 8.29 
		},
		"coords": [
			{
				"x": 3.4281338971,
				"y": 0.7791657774,
				"z": 1.7508840159,
				"element": "C" 
			},
			{
				"x": 2.3332808914,
				"y": -0.1116531267,
				"z": 2.3444485478,
				"element": "C" 
			},
			{
				"x": 1.0776438591,
				"y": -0.0331628493,
				"z": 1.6126274625,
				"element": "N" 
			},
			{
				"x": -0.1055823494,
				"y": 0.4938485989,
				"z": 2.1669216307,
				"element": "C" 
			},
			{
				"x": -0.2027613922,
				"y": 0.9622946294,
				"z": 3.283809908,
				"element": "O" 
			},
			{
				"x": -1.1415521031,
				"y": 0.3466249221,
				"z": 1.106997139,
				"element": "C" 
			},
			{
				"x": -0.5529387404,
				"y": -0.2650039646,
				"z": -0.002852324,
				"element": "C" 
			},
			{
				"x": -1.2742381355,
				"y": -0.5345371737,
				"z": -1.1533171322,
				"element": "C" 
			},
			{
				"x": -2.6361954594,
				"y": -0.1778665241,
				"z": -1.1901673568,
				"element": "C" 
			},
			{
				"x": -3.4641332866,
				"y": -0.4732505095,
				"z": -2.417932454,
				"element": "C" 
			},
			{
				"x": -3.213418663,
				"y": 0.4389620056,
				"z": -0.0667708905,
				"element": "C" 
			},
			{
				"x": -2.4793820266,
				"y": 0.7091857729,
				"z": 1.0952170288,
				"element": "C" 
			},
			{
				"x": 0.8818622259,
				"y": -0.5297711996,
				"z": 0.313824543,
				"element": "C" 
			},
			{
				"x": 1.7358288051,
				"y": -1.0617012056,
				"z": -0.3684137583,
				"element": "O" 
			},
			{
				"x": 2.814496329,
				"y": -1.5571475508,
				"z": 2.5021080391,
				"element": "C" 
			},
			{
				"x": 1.7924804384,
				"y": -2.4360152977,
				"z": 2.5846976561,
				"element": "O" 
			},
			{
				"x": 3.975384764,
				"y": -1.8779934143,
				"z": 2.6088640059,
				"element": "O" 
			},
			{
				"x": 3.6494784289,
				"y": 0.4791381565,
				"z": 0.7247653966,
				"element": "H" 
			},
			{
				"x": 3.1024493439,
				"y": 1.8223816955,
				"z": 1.7593955213,
				"element": "H" 
			},
			{
				"x": 4.3397732774,
				"y": 0.6830718269,
				"z": 2.3430052984,
				"element": "H" 
			},
			{
				"x": 2.0816889884,
				"y": 0.2346666622,
				"z": 3.355452221,
				"element": "H" 
			},
			{
				"x": -0.7959762831,
				"y": -1.009379135,
				"z": -2.0052901036,
				"element": "H" 
			},
			{
				"x": -4.4196426042,
				"y": 0.0569390067,
				"z": -2.395478468,
				"element": "H" 
			},
			{
				"x": -3.6808093233,
				"y": -1.5455271567,
				"z": -2.4955025292,
				"element": "H" 
			},
			{
				"x": -2.9356886426,
				"y": -0.1851088344,
				"z": -3.3323162211,
				"element": "H" 
			},
			{
				"x": -4.2639147381,
				"y": 0.7143308389,
				"z": -0.1054596428,
				"element": "H" 
			},
			{
				"x": -2.9370503705,
				"y": 1.1861960497,
				"z": 1.9559191699,
				"element": "H" 
			},
			{
				"x": 2.1998828697,
				"y": -3.3100880007,
				"z": 2.7057632964,
				"element": "H" 
			}
		],
		 "valence_orbital": [ 
			{
				"type": "occ",
				"energy": -0.29049,
				"method": "rhf"
			},
			{
				"type": "occ",
				"energy": -0.27967,
				"method": "rhf"
			},
			{
				"type": "occ",
				"energy": -0.27359,
				"method": "rhf"
			},
			{
				"type": "occ",
				"energy": -0.26964,
				"method": "rhf"
			},
			{
				"type": "occ",
				"energy": -0.25927,
				"method": "rhf"
			},
			{
				"type": "unocc",
				"energy": -0.08137,
				"method": "rhf"
			},
			{
				"type": "unocc",
				"energy": -0.04272,
				"method": "rhf"
			},
			{
				"type": "unocc",
				"energy": 0.00534,
				"method": "rhf"
			},
			{
				"type": "unocc",
				"energy": 0.02771,
				"method": "rhf"
			},
			{
				"type": "unocc",
				"energy": 0.07111,
				"method": "rhf"
			}
		],
		"cosmo_sigma_profile": { 
			"-0.025": 0.0,
			"-0.024": 0.0,
			"-0.023": 0.0,
			"-0.022": 0.0,
			"-0.021": 0.0,
			"-0.02": 0.0,
			"-0.019": 0.479083253513,
			"-0.018": 0.998461858973,
			"-0.017": 0.521273896009,
			"-0.016": 1.08105429386,
			"-0.015": 0.882646736349,
			"-0.014": 0.502823473294,
			"-0.013": 0.27799982216,
			"-0.012": 1.21240319758,
			"-0.011": 0.616152964443,
			"-0.01": 0.613806612449,
			"-0.009": 1.15275307344,
			"-0.008": 2.90989389805,
			"-0.007": 7.66722099337,
			"-0.006": 9.79643541557,
			"-0.005": 17.0514507524,
			"-0.004": 21.4310261071,
			"-0.003": 22.4336841395,
			"-0.002": 21.835944975,
			"-0.001": 27.3341390681,
			"0.0": 22.0202129672,
			"0.001": 17.0522609378,
			"0.002": 17.7228312414,
			"0.003": 7.7205684176,
			"0.004": 8.00360678259,
			"0.005": 6.22180407126,
			"0.006": 5.67160199191,
			"0.007": 5.28396131471,
			"0.008": 5.06272610181,
			"0.009": 5.63498497828,
			"0.01": 8.23484547429,
			"0.011": 13.1003574684,
			"0.012": 2.70875015048,
			"0.013": 0.0,
			"0.014": 0.0,
			"0.015": 0.0,
			"0.016": 0.0,
			"0.017": 0.0,
			"0.018": 0.0,
			"0.019": 0.0,
			"0.02": 0.0,
			"0.021": 0.0,
			"0.022": 0.0,
			"0.023": 0.0,
			"0.024": 0.0,
			"0.025": 0.0
		}
	}
}
