{
	 "smiles": "FC1(F)C(Cl)=C(Cl)C(F)(F)C1(F)F", 
	 "Tm": 167.15, 
	 "num_atms": 13, 
	 "gaussian": { 
		 "optdone": 1, 
		 "sigma_profile": "yes", 
		 "theory": "DFT", 
		 "functional": "B3LYP", 
		 "basiset": "6-31G**", 
		 "properties": { 
			 "R2extent": 3526.4613, 
			 "electric_dipole_moment_norm": 1.3975555302, 
			 "electric_quadrupole_moment_norm": 4.4184432349, 
			 "total_energy": -1709.90201583, 
			 "HOMO_LUMO_gap": 0.22849, 
			 "cosmo_polarized_energy": -2.6, 
			 "cosmo_cavitation_energy": 23.95, 
			 "cosmo_dispersion_energy": -16.65, 
			 "cosmo_repulsion_energy": 1.22, 
			 "cosmo_total_nonelectrostatic_energy": 8.53, 
			 "SMD_solvation_energy": 5.89 
		},
		"coords": [
			{
				"x": -2.1050343179,
				"y": 1.4607593655,
				"z": -1.7087078459,
				"element": "F" 
			},
			{
				"x": -1.4766348364,
				"y": 0.5419073558,
				"z": -0.9432961712,
				"element": "C" 
			},
			{
				"x": -0.8402245009,
				"y": -0.3245981229,
				"z": -1.7718466704,
				"element": "F" 
			},
			{
				"x": -2.4237538537,
				"y": -0.1804558395,
				"z": -0.0158539281,
				"element": "C" 
			},
			{
				"x": -3.8827239424,
				"y": -0.845869028,
				"z": -0.6144620728,
				"element": "Cl" 
			},
			{
				"x": -1.951097329,
				"y": -0.2402907043,
				"z": 1.2379214776,
				"element": "C" 
			},
			{
				"x": -2.6742420502,
				"y": -0.9988152807,
				"z": 2.5912110885,
				"element": "Cl" 
			},
			{
				"x": -0.6054638185,
				"y": 0.4315924031,
				"z": 1.3675604703,
				"element": "C" 
			},
			{
				"x": -0.5446244545,
				"y": 1.2631873348,
				"z": 2.4304636165,
				"element": "F" 
			},
			{
				"x": 0.3915154445,
				"y": -0.4805421687,
				"z": 1.4954853321,
				"element": "F" 
			},
			{
				"x": -0.4536180266,
				"y": 1.2095528114,
				"z": 0.0251778613,
				"element": "C" 
			},
			{
				"x": -0.8018993701,
				"y": 2.4998590857,
				"z": 0.2180990291,
				"element": "F" 
			},
			{
				"x": 0.8017010556,
				"y": 1.1516127878,
				"z": -0.4508521871,
				"element": "F" 
			}
		],
		 "valence_orbital": [ 
			{
				"type": "occ",
				"energy": -0.37901,
				"method": "rhf"
			},
			{
				"type": "occ",
				"energy": -0.36089,
				"method": "rhf"
			},
			{
				"type": "occ",
				"energy": -0.35034,
				"method": "rhf"
			},
			{
				"type": "occ",
				"energy": -0.34092,
				"method": "rhf"
			},
			{
				"type": "occ",
				"energy": -0.29811,
				"method": "rhf"
			},
			{
				"type": "unocc",
				"energy": -0.06962,
				"method": "rhf"
			},
			{
				"type": "unocc",
				"energy": -0.02142,
				"method": "rhf"
			},
			{
				"type": "unocc",
				"energy": 0.02896,
				"method": "rhf"
			},
			{
				"type": "unocc",
				"energy": 0.03717,
				"method": "rhf"
			},
			{
				"type": "unocc",
				"energy": 0.08482,
				"method": "rhf"
			}
		],
		"cosmo_sigma_profile": { 
			"-0.025": 0.0,
			"-0.024": 0.0,
			"-0.023": 0.0,
			"-0.022": 0.0,
			"-0.021": 0.0,
			"-0.02": 0.0,
			"-0.019": 0.0,
			"-0.018": 0.0,
			"-0.017": 0.0,
			"-0.016": 0.0,
			"-0.015": 0.0,
			"-0.014": 0.0,
			"-0.013": 0.0,
			"-0.012": 0.0,
			"-0.011": 0.0,
			"-0.01": 0.0,
			"-0.009": 0.038298255276,
			"-0.008": 0.611000600414,
			"-0.007": 1.4056885388,
			"-0.006": 3.79401028237,
			"-0.005": 7.55885668618,
			"-0.004": 10.1954719892,
			"-0.003": 10.9100541639,
			"-0.002": 13.8136978134,
			"-0.001": 15.0006991746,
			"0.0": 22.7291643464,
			"0.001": 41.3061319167,
			"0.002": 60.9270568152,
			"0.003": 9.73225011159,
			"0.004": 0.0,
			"0.005": 0.0,
			"0.006": 0.0,
			"0.007": 0.0,
			"0.008": 0.0,
			"0.009": 0.0,
			"0.01": 0.0,
			"0.011": 0.0,
			"0.012": 0.0,
			"0.013": 0.0,
			"0.014": 0.0,
			"0.015": 0.0,
			"0.016": 0.0,
			"0.017": 0.0,
			"0.018": 0.0,
			"0.019": 0.0,
			"0.02": 0.0,
			"0.021": 0.0,
			"0.022": 0.0,
			"0.023": 0.0,
			"0.024": 0.0,
			"0.025": 0.0
		}
	}
}
