{
	 "smiles": "CCOC(=O)C1=C(N)SC(C(=O)OCCOC)=C1C", 
	 "Tm": 392.15, 
	 "num_atms": 36, 
	 "gaussian": { 
		 "optdone": 1, 
		 "sigma_profile": "yes", 
		 "theory": "DFT", 
		 "functional": "B3LYP", 
		 "basiset": "6-31G**", 
		 "properties": { 
			 "R2extent": 7811.3946, 
			 "electric_dipole_moment_norm": 2.431604386, 
			 "electric_quadrupole_moment_norm": 17.2233635269, 
			 "total_energy": -1296.59632873, 
			 "HOMO_LUMO_gap": 0.17055, 
			 "cosmo_polarized_energy": -16.22, 
			 "cosmo_cavitation_energy": 41.16, 
			 "cosmo_dispersion_energy": -29.32, 
			 "cosmo_repulsion_energy": 2.26, 
			 "cosmo_total_nonelectrostatic_energy": 14.1, 
			 "SMD_solvation_energy": 9.15 
		},
		"coords": [
			{
				"x": 3.1555025156,
				"y": 3.5931001329,
				"z": -1.0202354306,
				"element": "C" 
			},
			{
				"x": 1.7378015579,
				"y": 3.952952979,
				"z": -0.6173785536,
				"element": "C" 
			},
			{
				"x": 1.0361112261,
				"y": 2.7174745052,
				"z": -0.351440089,
				"element": "O" 
			},
			{
				"x": -0.2549166812,
				"y": 2.8416828835,
				"z": 0.025939711,
				"element": "C" 
			},
			{
				"x": -0.787441105,
				"y": 3.9490270359,
				"z": 0.1277362323,
				"element": "O" 
			},
			{
				"x": -0.9421539371,
				"y": 1.5777853181,
				"z": 0.2834337351,
				"element": "C" 
			},
			{
				"x": -2.3052443214,
				"y": 1.6139673199,
				"z": 0.640912713,
				"element": "C" 
			},
			{
				"x": -3.0617917755,
				"y": 2.7165116223,
				"z": 0.7853983471,
				"element": "N" 
			},
			{
				"x": -2.9590355137,
				"y": 0.0245288722,
				"z": 0.8913016952,
				"element": "S" 
			},
			{
				"x": -1.3944401092,
				"y": -0.7100872797,
				"z": 0.4990077352,
				"element": "C" 
			},
			{
				"x": -1.4146943248,
				"y": -2.1684694556,
				"z": 0.565919349,
				"element": "C" 
			},
			{
				"x": -2.3836878713,
				"y": -2.7986182687,
				"z": 0.9660773619,
				"element": "O" 
			},
			{
				"x": -0.2789416233,
				"y": -2.7644282986,
				"z": 0.1198267893,
				"element": "O" 
			},
			{
				"x": -0.2269588107,
				"y": -4.1991347512,
				"z": 0.2324329638,
				"element": "C" 
			},
			{
				"x": 0.29710702,
				"y": -4.6280758992,
				"z": 1.5998059063,
				"element": "C" 
			},
			{
				"x": 1.5962611886,
				"y": -4.1522451876,
				"z": 1.8966781202,
				"element": "O" 
			},
			{
				"x": 2.636844382,
				"y": -4.8586789226,
				"z": 1.2529394757,
				"element": "C" 
			},
			{
				"x": -0.425742393,
				"y": 0.2314747149,
				"z": 0.2154288501,
				"element": "C" 
			},
			{
				"x": 1.0098599031,
				"y": -0.0983889253,
				"z": -0.0960582788,
				"element": "C" 
			},
			{
				"x": 3.6664210836,
				"y": 3.0520788279,
				"z": -0.2185297748,
				"element": "H" 
			},
			{
				"x": 3.7216970084,
				"y": 4.505017063,
				"z": -1.2341451941,
				"element": "H" 
			},
			{
				"x": 3.1614991179,
				"y": 2.9668232545,
				"z": -1.9169962268,
				"element": "H" 
			},
			{
				"x": 1.7116334071,
				"y": 4.5768552116,
				"z": 0.2814178876,
				"element": "H" 
			},
			{
				"x": 1.2113764588,
				"y": 4.4962913681,
				"z": -1.4082235292,
				"element": "H" 
			},
			{
				"x": -2.5912998726,
				"y": 3.6033697486,
				"z": 0.6266776681,
				"element": "H" 
			},
			{
				"x": -4.0319489258,
				"y": 2.6622941794,
				"z": 1.045586922,
				"element": "H" 
			},
			{
				"x": -1.2240116276,
				"y": -4.6176224679,
				"z": 0.0738837838,
				"element": "H" 
			},
			{
				"x": 0.4353633901,
				"y": -4.5187895358,
				"z": -0.5756383049,
				"element": "H" 
			},
			{
				"x": -0.3628180668,
				"y": -4.2254855346,
				"z": 2.3734251923,
				"element": "H" 
			},
			{
				"x": 0.255727678,
				"y": -5.729536179,
				"z": 1.6580666675,
				"element": "H" 
			},
			{
				"x": 2.6238290908,
				"y": -4.7390517159,
				"z": 0.1592348541,
				"element": "H" 
			},
			{
				"x": 3.5785607274,
				"y": -4.4524623653,
				"z": 1.629927339,
				"element": "H" 
			},
			{
				"x": 2.5985299659,
				"y": -5.9357321203,
				"z": 1.4820043299,
				"element": "H" 
			},
			{
				"x": 1.2119839502,
				"y": -1.1540569377,
				"z": 0.0639353262,
				"element": "H" 
			},
			{
				"x": 1.6763269095,
				"y": 0.5010846242,
				"z": 0.5279654362,
				"element": "H" 
			},
			{
				"x": 1.2457903779,
				"y": 0.1581441838,
				"z": -1.13421901,
				"element": "H" 
			}
		],
		 "valence_orbital": [ 
			{
				"type": "occ",
				"energy": -0.27927,
				"method": "rhf"
			},
			{
				"type": "occ",
				"energy": -0.2674,
				"method": "rhf"
			},
			{
				"type": "occ",
				"energy": -0.25384,
				"method": "rhf"
			},
			{
				"type": "occ",
				"energy": -0.25024,
				"method": "rhf"
			},
			{
				"type": "occ",
				"energy": -0.20356,
				"method": "rhf"
			},
			{
				"type": "unocc",
				"energy": -0.03301,
				"method": "rhf"
			},
			{
				"type": "unocc",
				"energy": -0.01777,
				"method": "rhf"
			},
			{
				"type": "unocc",
				"energy": 0.01586,
				"method": "rhf"
			},
			{
				"type": "unocc",
				"energy": 0.08155,
				"method": "rhf"
			},
			{
				"type": "unocc",
				"energy": 0.08828,
				"method": "rhf"
			}
		],
		"cosmo_sigma_profile": { 
			"-0.025": 0.0,
			"-0.024": 0.0,
			"-0.023": 0.0,
			"-0.022": 0.0,
			"-0.021": 0.0,
			"-0.02": 0.0,
			"-0.019": 0.0,
			"-0.018": 0.0,
			"-0.017": 0.0,
			"-0.016": 0.513696532513,
			"-0.015": 1.2818910228,
			"-0.014": 1.6117697642,
			"-0.013": 0.991998328415,
			"-0.012": 1.3981805338,
			"-0.011": 1.30463821035,
			"-0.01": 2.84603231621,
			"-0.009": 1.34002569862,
			"-0.008": 1.35574938458,
			"-0.007": 1.54957410109,
			"-0.006": 8.11149391305,
			"-0.005": 19.1046205712,
			"-0.004": 30.0491586326,
			"-0.003": 31.80788353,
			"-0.002": 30.3871414757,
			"-0.001": 26.886131067,
			"0.0": 30.3836231774,
			"0.001": 29.6781382034,
			"0.002": 26.0599429819,
			"0.003": 19.360597188,
			"0.004": 13.7433288844,
			"0.005": 7.37927608993,
			"0.006": 5.99515060322,
			"0.007": 4.85489988251,
			"0.008": 4.38818272985,
			"0.009": 4.68913911249,
			"0.01": 4.34510852787,
			"0.011": 5.5201137043,
			"0.012": 7.25253213686,
			"0.013": 2.22873169395,
			"0.014": 0.335398844564,
			"0.015": 0.0,
			"0.016": 0.0,
			"0.017": 0.0,
			"0.018": 0.0,
			"0.019": 0.0,
			"0.02": 0.0,
			"0.021": 0.0,
			"0.022": 0.0,
			"0.023": 0.0,
			"0.024": 0.0,
			"0.025": 0.0
		}
	}
}
