{
	 "smiles": "CCCCCCCCCCCCCCCCCC(=O)OC1=CC=CC=C1", 
	 "Tm": 325.15, 
	 "num_atms": 66, 
	 "gaussian": { 
		 "optdone": 1, 
		 "sigma_profile": "yes", 
		 "theory": "DFT", 
		 "functional": "B3LYP", 
		 "basiset": "6-31G**", 
		 "properties": { 
			 "R2extent": 15316.0446, 
			 "electric_dipole_moment_norm": 1.46683025944, 
			 "electric_quadrupole_moment_norm": 16.273147054, 
			 "total_energy": -1089.16529372, 
			 "HOMO_LUMO_gap": 0.22882, 
			 "cosmo_polarized_energy": -7.94, 
			 "cosmo_cavitation_energy": 64.73, 
			 "cosmo_dispersion_energy": -39.68, 
			 "cosmo_repulsion_energy": 3.09, 
			 "cosmo_total_nonelectrostatic_energy": 28.14, 
			 "SMD_solvation_energy": 9.27 
		},
		"coords": [
			{
				"x": 5.5607297903,
				"y": 4.3631375381,
				"z": -3.7614419853,
				"element": "C" 
			},
			{
				"x": 4.2713598545,
				"y": 3.5546044553,
				"z": -3.5822600117,
				"element": "C" 
			},
			{
				"x": 4.5250432671,
				"y": 2.0481240156,
				"z": -3.4353973275,
				"element": "C" 
			},
			{
				"x": 3.254617314,
				"y": 1.1866959993,
				"z": -3.3322011348,
				"element": "C" 
			},
			{
				"x": 2.3414983125,
				"y": 1.4071508083,
				"z": -2.1095728485,
				"element": "C" 
			},
			{
				"x": 2.9518045965,
				"y": 1.0295707271,
				"z": -0.739915755,
				"element": "C" 
			},
			{
				"x": 3.6861230274,
				"y": 2.1472591878,
				"z": 0.0282357625,
				"element": "C" 
			},
			{
				"x": 2.8118764365,
				"y": 3.3299437619,
				"z": 0.4896029896,
				"element": "C" 
			},
			{
				"x": 1.6405572997,
				"y": 2.9809596328,
				"z": 1.4252830312,
				"element": "C" 
			},
			{
				"x": 2.0587851048,
				"y": 2.3647651859,
				"z": 2.7687014475,
				"element": "C" 
			},
			{
				"x": 0.8966889921,
				"y": 2.1505442557,
				"z": 3.756430524,
				"element": "C" 
			},
			{
				"x": -0.2067558442,
				"y": 1.178552742,
				"z": 3.2983912327,
				"element": "C" 
			},
			{
				"x": 0.2619700861,
				"y": -0.2722920426,
				"z": 3.1100104761,
				"element": "C" 
			},
			{
				"x": -0.8076626461,
				"y": -1.2189260822,
				"z": 2.5389333713,
				"element": "C" 
			},
			{
				"x": -2.0106057436,
				"y": -1.4584960222,
				"z": 3.4639309484,
				"element": "C" 
			},
			{
				"x": -3.0149717088,
				"y": -2.5110950296,
				"z": 2.9637264072,
				"element": "C" 
			},
			{
				"x": -3.7079129328,
				"y": -2.1558779706,
				"z": 1.6358982652,
				"element": "C" 
			},
			{
				"x": -2.8644544394,
				"y": -2.4685674252,
				"z": 0.4151620456,
				"element": "C" 
			},
			{
				"x": -2.1640289442,
				"y": -3.4428844683,
				"z": 0.280055331,
				"element": "O" 
			},
			{
				"x": -3.0366252053,
				"y": -1.5007178123,
				"z": -0.5401250226,
				"element": "O" 
			},
			{
				"x": -2.3985017574,
				"y": -1.5813346658,
				"z": -1.7808738448,
				"element": "C" 
			},
			{
				"x": -1.0448195012,
				"y": -1.8909585017,
				"z": -1.9185230936,
				"element": "C" 
			},
			{
				"x": -0.4769777815,
				"y": -1.8631768984,
				"z": -3.193849292,
				"element": "C" 
			},
			{
				"x": -1.2446743723,
				"y": -1.5276618506,
				"z": -4.311261997,
				"element": "C" 
			},
			{
				"x": -2.5963462903,
				"y": -1.2162922645,
				"z": -4.1530939232,
				"element": "C" 
			},
			{
				"x": -3.1783433196,
				"y": -1.2430332148,
				"z": -2.885672744,
				"element": "C" 
			},
			{
				"x": 6.1109732882,
				"y": 4.0398005689,
				"z": -4.6526573663,
				"element": "H" 
			},
			{
				"x": 6.2285561547,
				"y": 4.2398573204,
				"z": -2.9009132563,
				"element": "H" 
			},
			{
				"x": 5.3528134615,
				"y": 5.4328887918,
				"z": -3.8689203289,
				"element": "H" 
			},
			{
				"x": 3.6093286161,
				"y": 3.7246592129,
				"z": -4.4427624763,
				"element": "H" 
			},
			{
				"x": 3.7294502257,
				"y": 3.9306109102,
				"z": -2.7054227915,
				"element": "H" 
			},
			{
				"x": 5.1732968048,
				"y": 1.8692377595,
				"z": -2.5673313297,
				"element": "H" 
			},
			{
				"x": 5.1000049313,
				"y": 1.705587537,
				"z": -4.3072299471,
				"element": "H" 
			},
			{
				"x": 3.5505348042,
				"y": 0.1283998639,
				"z": -3.3513027359,
				"element": "H" 
			},
			{
				"x": 2.6553529357,
				"y": 1.3462064185,
				"z": -4.2397708921,
				"element": "H" 
			},
			{
				"x": 1.4452993793,
				"y": 0.7944237011,
				"z": -2.2685989832,
				"element": "H" 
			},
			{
				"x": 1.9823090198,
				"y": 2.4434741901,
				"z": -2.0910650181,
				"element": "H" 
			},
			{
				"x": 3.646405948,
				"y": 0.1901080189,
				"z": -0.8818867049,
				"element": "H" 
			},
			{
				"x": 2.1540343176,
				"y": 0.6377577223,
				"z": -0.096460937,
				"element": "H" 
			},
			{
				"x": 4.5020538425,
				"y": 2.5466352311,
				"z": -0.5854228014,
				"element": "H" 
			},
			{
				"x": 4.170840953,
				"y": 1.6975749748,
				"z": 0.9043913879,
				"element": "H" 
			},
			{
				"x": 2.4102460959,
				"y": 3.851795621,
				"z": -0.3887358786,
				"element": "H" 
			},
			{
				"x": 3.4621909148,
				"y": 4.0578475913,
				"z": 0.9942143848,
				"element": "H" 
			},
			{
				"x": 0.9462733623,
				"y": 2.3090425795,
				"z": 0.9059575757,
				"element": "H" 
			},
			{
				"x": 1.0711215619,
				"y": 3.9000764165,
				"z": 1.6222184575,
				"element": "H" 
			},
			{
				"x": 2.5781569541,
				"y": 1.4138150509,
				"z": 2.598314277,
				"element": "H" 
			},
			{
				"x": 2.7979365235,
				"y": 3.0244587762,
				"z": 3.2442183041,
				"element": "H" 
			},
			{
				"x": 1.307132738,
				"y": 1.7940445101,
				"z": 4.7112789937,
				"element": "H" 
			},
			{
				"x": 0.4358028311,
				"y": 3.1245348894,
				"z": 3.9710119328,
				"element": "H" 
			},
			{
				"x": -1.014881796,
				"y": 1.2078398039,
				"z": 4.0398905907,
				"element": "H" 
			},
			{
				"x": -0.6508029537,
				"y": 1.5372286693,
				"z": 2.3598013105,
				"element": "H" 
			},
			{
				"x": 1.1252058875,
				"y": -0.2906226932,
				"z": 2.4332426389,
				"element": "H" 
			},
			{
				"x": 0.6239460108,
				"y": -0.6651572788,
				"z": 4.0713725685,
				"element": "H" 
			},
			{
				"x": -1.1533500548,
				"y": -0.8087072899,
				"z": 1.5798488663,
				"element": "H" 
			},
			{
				"x": -0.3429685962,
				"y": -2.1856560954,
				"z": 2.3070163903,
				"element": "H" 
			},
			{
				"x": -1.6410867974,
				"y": -1.777975408,
				"z": 4.44810732,
				"element": "H" 
			},
			{
				"x": -2.5446311184,
				"y": -0.5138693294,
				"z": 3.6330942378,
				"element": "H" 
			},
			{
				"x": -2.5189637812,
				"y": -3.4809595354,
				"z": 2.8431570005,
				"element": "H" 
			},
			{
				"x": -3.7889680521,
				"y": -2.6449186867,
				"z": 3.7281664603,
				"element": "H" 
			},
			{
				"x": -4.6188958837,
				"y": -2.7595409536,
				"z": 1.5272264413,
				"element": "H" 
			},
			{
				"x": -4.0196671346,
				"y": -1.1077273156,
				"z": 1.6071430628,
				"element": "H" 
			},
			{
				"x": -0.4541140015,
				"y": -2.1595816468,
				"z": -1.0528153929,
				"element": "H" 
			},
			{
				"x": 0.5746024294,
				"y": -2.108498148,
				"z": -3.3103946741,
				"element": "H" 
			},
			{
				"x": -0.791849198,
				"y": -1.5089293858,
				"z": -5.2979089094,
				"element": "H" 
			},
			{
				"x": -3.2016379393,
				"y": -0.9514788946,
				"z": -5.0150318791,
				"element": "H" 
			},
			{
				"x": -4.2255262796,
				"y": -1.0006775289,
				"z": -2.7373127509,
				"element": "H" 
			}
		],
		 "valence_orbital": [ 
			{
				"type": "occ",
				"energy": -0.29467,
				"method": "rhf"
			},
			{
				"type": "occ",
				"energy": -0.29353,
				"method": "rhf"
			},
			{
				"type": "occ",
				"energy": -0.27603,
				"method": "rhf"
			},
			{
				"type": "occ",
				"energy": -0.25293,
				"method": "rhf"
			},
			{
				"type": "occ",
				"energy": -0.24048,
				"method": "rhf"
			},
			{
				"type": "unocc",
				"energy": -0.01166,
				"method": "rhf"
			},
			{
				"type": "unocc",
				"energy": -0.00467,
				"method": "rhf"
			},
			{
				"type": "unocc",
				"energy": 0.01897,
				"method": "rhf"
			},
			{
				"type": "unocc",
				"energy": 0.06348,
				"method": "rhf"
			},
			{
				"type": "unocc",
				"energy": 0.08126,
				"method": "rhf"
			}
		],
		"cosmo_sigma_profile": { 
			"-0.025": 0.0,
			"-0.024": 0.0,
			"-0.023": 0.0,
			"-0.022": 0.0,
			"-0.021": 0.0,
			"-0.02": 0.0,
			"-0.019": 0.0,
			"-0.018": 0.0,
			"-0.017": 0.0,
			"-0.016": 0.0,
			"-0.015": 0.0,
			"-0.014": 0.0,
			"-0.013": 0.0,
			"-0.012": 0.0,
			"-0.011": 0.0,
			"-0.01": 0.0,
			"-0.009": 0.0,
			"-0.008": 0.0,
			"-0.007": 1.7294058596,
			"-0.006": 9.49486753802,
			"-0.005": 12.7034320937,
			"-0.004": 15.9528691686,
			"-0.003": 21.7656240184,
			"-0.002": 59.3999392919,
			"-0.001": 97.2554289219,
			"0.0": 98.7130110303,
			"0.001": 88.7084188673,
			"0.002": 39.9398531296,
			"0.003": 12.0470562367,
			"0.004": 12.8723847147,
			"0.005": 11.9815780884,
			"0.006": 3.2284846054,
			"0.007": 2.69568266694,
			"0.008": 1.96191516412,
			"0.009": 1.73906754102,
			"0.01": 2.24404771276,
			"0.011": 3.53101238831,
			"0.012": 2.36971540549,
			"0.013": 0.0285372629382,
			"0.014": 0.0,
			"0.015": 0.0,
			"0.016": 0.0,
			"0.017": 0.0,
			"0.018": 0.0,
			"0.019": 0.0,
			"0.02": 0.0,
			"0.021": 0.0,
			"0.022": 0.0,
			"0.023": 0.0,
			"0.024": 0.0,
			"0.025": 0.0
		}
	}
}
