{
	 "smiles": "OCC(F)(F)F", 
	 "Tm": 229.35, 
	 "num_atms": 9, 
	 "gaussian": { 
		 "optdone": 1, 
		 "sigma_profile": "yes", 
		 "theory": "DFT", 
		 "functional": "B3LYP", 
		 "basiset": "6-31G**", 
		 "properties": { 
			 "R2extent": 1321.2172, 
			 "electric_dipole_moment_norm": 1.45460934618, 
			 "electric_quadrupole_moment_norm": 5.97412453084, 
			 "total_energy": -452.758235636, 
			 "HOMO_LUMO_gap": 0.3621, 
			 "cosmo_polarized_energy": -6.25, 
			 "cosmo_cavitation_energy": 14.15, 
			 "cosmo_dispersion_energy": -10.21, 
			 "cosmo_repulsion_energy": 0.85, 
			 "cosmo_total_nonelectrostatic_energy": 4.8, 
			 "SMD_solvation_energy": 3.93 
		},
		"coords": [
			{
				"x": -0.1571492232,
				"y": -0.1278702087,
				"z": 0.1008867491,
				"element": "O" 
			},
			{
				"x": 0.5748071859,
				"y": -1.2547326934,
				"z": 0.5133046796,
				"element": "C" 
			},
			{
				"x": -0.2398479462,
				"y": -2.5331818761,
				"z": 0.392705155,
				"element": "C" 
			},
			{
				"x": 0.5109589039,
				"y": -3.6085894085,
				"z": 0.7066765572,
				"element": "F" 
			},
			{
				"x": -1.3225141716,
				"y": -2.5336363875,
				"z": 1.186947668,
				"element": "F" 
			},
			{
				"x": -0.6734467975,
				"y": -2.6878363146,
				"z": -0.8852381279,
				"element": "F" 
			},
			{
				"x": -0.4126259303,
				"y": -0.2641624203,
				"z": -0.82175152,
				"element": "H" 
			},
			{
				"x": 0.8400395724,
				"y": -1.1122553776,
				"z": 1.5637835275,
				"element": "H" 
			},
			{
				"x": 1.5017784066,
				"y": -1.4047353133,
				"z": -0.0594146886,
				"element": "H" 
			}
		],
		 "valence_orbital": [ 
			{
				"type": "occ",
				"energy": -0.41746,
				"method": "rhf"
			},
			{
				"type": "occ",
				"energy": -0.40732,
				"method": "rhf"
			},
			{
				"type": "occ",
				"energy": -0.40378,
				"method": "rhf"
			},
			{
				"type": "occ",
				"energy": -0.35523,
				"method": "rhf"
			},
			{
				"type": "occ",
				"energy": -0.29723,
				"method": "rhf"
			},
			{
				"type": "unocc",
				"energy": 0.06487,
				"method": "rhf"
			},
			{
				"type": "unocc",
				"energy": 0.11789,
				"method": "rhf"
			},
			{
				"type": "unocc",
				"energy": 0.12079,
				"method": "rhf"
			},
			{
				"type": "unocc",
				"energy": 0.13951,
				"method": "rhf"
			},
			{
				"type": "unocc",
				"energy": 0.20176,
				"method": "rhf"
			}
		],
		"cosmo_sigma_profile": { 
			"-0.025": 0.0,
			"-0.024": 0.0,
			"-0.023": 0.0,
			"-0.022": 0.0,
			"-0.021": 0.0,
			"-0.02": 0.0,
			"-0.019": 0.0,
			"-0.018": 0.0,
			"-0.017": 0.0514481700408,
			"-0.016": 0.556254545846,
			"-0.015": 0.973426833237,
			"-0.014": 0.570739094556,
			"-0.013": 1.19104647197,
			"-0.012": 0.583575270173,
			"-0.011": 0.714202226548,
			"-0.01": 0.917362311116,
			"-0.009": 1.38795596644,
			"-0.008": 3.79213680729,
			"-0.007": 6.3767383198,
			"-0.006": 4.75359471614,
			"-0.005": 4.90028976505,
			"-0.004": 4.99962081718,
			"-0.003": 2.93672972136,
			"-0.002": 2.7426378934,
			"-0.001": 3.77476608073,
			"0.0": 5.56890101166,
			"0.001": 5.79891255889,
			"0.002": 16.5824346019,
			"0.003": 26.8192742412,
			"0.004": 3.25402314769,
			"0.005": 1.65418474952,
			"0.006": 1.29231453667,
			"0.007": 0.903777607014,
			"0.008": 1.28762245468,
			"0.009": 1.46202357516,
			"0.01": 1.36266342936,
			"0.011": 1.37659776996,
			"0.012": 1.94424251272,
			"0.013": 1.38208236271,
			"0.014": 0.0,
			"0.015": 0.0,
			"0.016": 0.0,
			"0.017": 0.0,
			"0.018": 0.0,
			"0.019": 0.0,
			"0.02": 0.0,
			"0.021": 0.0,
			"0.022": 0.0,
			"0.023": 0.0,
			"0.024": 0.0,
			"0.025": 0.0
		}
	}
}
