{
	 "smiles": "CC1=CC(C)=C(Br)C(C)=C1", 
	 "Tm": 273.65, 
	 "num_atms": 21, 
	 "gaussian": { 
		 "optdone": 1, 
		 "sigma_profile": "yes", 
		 "theory": "DFT", 
		 "functional": "B3LYP", 
		 "basiset": "6-31G**", 
		 "properties": { 
			 "R2extent": 2708.2733, 
			 "electric_dipole_moment_norm": 1.70246935362, 
			 "electric_quadrupole_moment_norm": 4.17286179857, 
			 "total_energy": -2921.01546128, 
			 "HOMO_LUMO_gap": 0.22195, 
			 "cosmo_polarized_energy": -3.47, 
			 "cosmo_cavitation_energy": 25.65, 
			 "cosmo_dispersion_energy": -19.13, 
			 "cosmo_repulsion_energy": 1.54, 
			 "cosmo_total_nonelectrostatic_energy": 8.06, 
			 "SMD_solvation_energy": 3.54 
		},
		"coords": [
			{
				"x": 0.7549924163,
				"y": -3.0554145134,
				"z": 0.5725851322,
				"element": "C" 
			},
			{
				"x": 0.5319857403,
				"y": -1.6557593854,
				"z": 0.0499483815,
				"element": "C" 
			},
			{
				"x": 1.1552496107,
				"y": -0.5574451395,
				"z": 0.6481136189,
				"element": "C" 
			},
			{
				"x": 0.9451758921,
				"y": 0.7543789313,
				"z": 0.2060378843,
				"element": "C" 
			},
			{
				"x": 1.6437640469,
				"y": 1.9051211449,
				"z": 0.8847514019,
				"element": "C" 
			},
			{
				"x": 0.0743476497,
				"y": 0.9353398516,
				"z": -0.8780552136,
				"element": "C" 
			},
			{
				"x": -0.2382090934,
				"y": 2.7223355409,
				"z": -1.5207337323,
				"element": "Br" 
			},
			{
				"x": -0.5731752557,
				"y": -0.1312485598,
				"z": -1.5179666676,
				"element": "C" 
			},
			{
				"x": -1.5025403315,
				"y": 0.0699451583,
				"z": -2.6878629273,
				"element": "C" 
			},
			{
				"x": -0.3227025363,
				"y": -1.4194951169,
				"z": -1.0299763739,
				"element": "C" 
			},
			{
				"x": 0.6567846974,
				"y": -3.8000176101,
				"z": -0.2230473802,
				"element": "H" 
			},
			{
				"x": 0.022337506,
				"y": -3.3103183579,
				"z": 1.3487045764,
				"element": "H" 
			},
			{
				"x": 1.7489182813,
				"y": -3.1628848068,
				"z": 1.0171857842,
				"element": "H" 
			},
			{
				"x": 1.829921742,
				"y": -0.718231526,
				"z": 1.4858970864,
				"element": "H" 
			},
			{
				"x": 2.2729330443,
				"y": 2.4608647657,
				"z": 0.1813564457,
				"element": "H" 
			},
			{
				"x": 0.9245061802,
				"y": 2.6217138804,
				"z": 1.2954049946,
				"element": "H" 
			},
			{
				"x": 2.2749841264,
				"y": 1.5450148883,
				"z": 1.7009800966,
				"element": "H" 
			},
			{
				"x": -0.9908158633,
				"y": 0.5567559084,
				"z": -3.524898086,
				"element": "H" 
			},
			{
				"x": -1.8969242616,
				"y": -0.8881083918,
				"z": -3.0356307158,
				"element": "H" 
			},
			{
				"x": -2.3470490087,
				"y": 0.713689689,
				"z": -2.4197935877,
				"element": "H" 
			},
			{
				"x": -0.8133845832,
				"y": -2.260036351,
				"z": -1.5154007184,
				"element": "H" 
			}
		],
		 "valence_orbital": [ 
			{
				"type": "occ",
				"energy": -0.33516,
				"method": "rhf"
			},
			{
				"type": "occ",
				"energy": -0.30018,
				"method": "rhf"
			},
			{
				"type": "occ",
				"energy": -0.27843,
				"method": "rhf"
			},
			{
				"type": "occ",
				"energy": -0.2412,
				"method": "rhf"
			},
			{
				"type": "occ",
				"energy": -0.22744,
				"method": "rhf"
			},
			{
				"type": "unocc",
				"energy": -0.00549,
				"method": "rhf"
			},
			{
				"type": "unocc",
				"energy": -0.00024,
				"method": "rhf"
			},
			{
				"type": "unocc",
				"energy": 0.01697,
				"method": "rhf"
			},
			{
				"type": "unocc",
				"energy": 0.10483,
				"method": "rhf"
			},
			{
				"type": "unocc",
				"energy": 0.11826,
				"method": "rhf"
			}
		],
		"cosmo_sigma_profile": { 
			"-0.025": 0.0,
			"-0.024": 0.0,
			"-0.023": 0.0,
			"-0.022": 0.0,
			"-0.021": 0.0,
			"-0.02": 0.0,
			"-0.019": 0.0,
			"-0.018": 0.0,
			"-0.017": 0.0,
			"-0.016": 0.0,
			"-0.015": 0.0,
			"-0.014": 0.0,
			"-0.013": 0.0,
			"-0.012": 0.0,
			"-0.011": 0.0,
			"-0.01": 0.0,
			"-0.009": 0.0,
			"-0.008": 0.0,
			"-0.007": 0.0,
			"-0.006": 0.6362965127,
			"-0.005": 7.93085922724,
			"-0.004": 19.9191480593,
			"-0.003": 18.9976060518,
			"-0.002": 22.288995991,
			"-0.001": 23.4409835226,
			"0.0": 30.7487586963,
			"0.001": 18.2887511631,
			"0.002": 13.7473198855,
			"0.003": 15.3709725908,
			"0.004": 17.1105299307,
			"0.005": 14.4139128333,
			"0.006": 2.37196833057,
			"0.007": 0.0,
			"0.008": 0.0,
			"0.009": 0.0,
			"0.01": 0.0,
			"0.011": 0.0,
			"0.012": 0.0,
			"0.013": 0.0,
			"0.014": 0.0,
			"0.015": 0.0,
			"0.016": 0.0,
			"0.017": 0.0,
			"0.018": 0.0,
			"0.019": 0.0,
			"0.02": 0.0,
			"0.021": 0.0,
			"0.022": 0.0,
			"0.023": 0.0,
			"0.024": 0.0,
			"0.025": 0.0
		}
	}
}
