{
	 "smiles": "CCCCOC1=CC=C(O)C=C1", 
	 "Tm": 338.35, 
	 "num_atms": 26, 
	 "gaussian": { 
		 "optdone": 1, 
		 "sigma_profile": "yes", 
		 "theory": "DFT", 
		 "functional": "B3LYP", 
		 "basiset": "6-31G**", 
		 "properties": { 
			 "R2extent": 3257.4321, 
			 "electric_dipole_moment_norm": 2.29369836073, 
			 "electric_quadrupole_moment_norm": 9.12327320867, 
			 "total_energy": -539.945220251, 
			 "HOMO_LUMO_gap": 0.19632, 
			 "cosmo_polarized_energy": -9.63, 
			 "cosmo_cavitation_energy": 28.91, 
			 "cosmo_dispersion_energy": -20.98, 
			 "cosmo_repulsion_energy": 1.7, 
			 "cosmo_total_nonelectrostatic_energy": 9.64, 
			 "SMD_solvation_energy": 5.24 
		},
		"coords": [
			{
				"x": -3.3625528714,
				"y": -1.1486113859,
				"z": 1.7311396574,
				"element": "C" 
			},
			{
				"x": -3.2603299854,
				"y": -1.2169262547,
				"z": 0.2030318737,
				"element": "C" 
			},
			{
				"x": -2.194104404,
				"y": -2.193853158,
				"z": -0.3191122129,
				"element": "C" 
			},
			{
				"x": -0.757313449,
				"y": -1.8136168527,
				"z": 0.0222227999,
				"element": "C" 
			},
			{
				"x": -0.4813169668,
				"y": -0.5522908013,
				"z": -0.5790237536,
				"element": "O" 
			},
			{
				"x": 0.7559653122,
				"y": 0.0051704379,
				"z": -0.3941413574,
				"element": "C" 
			},
			{
				"x": 0.9579419602,
				"y": 1.2590789382,
				"z": -0.9922835501,
				"element": "C" 
			},
			{
				"x": 2.1748657445,
				"y": 1.9146140795,
				"z": -0.871153875,
				"element": "C" 
			},
			{
				"x": 3.2206895542,
				"y": 1.3277998309,
				"z": -0.1456267145,
				"element": "C" 
			},
			{
				"x": 4.399476891,
				"y": 2.0237421825,
				"z": -0.0604318758,
				"element": "O" 
			},
			{
				"x": 3.024882038,
				"y": 0.0829730812,
				"z": 0.4495259236,
				"element": "C" 
			},
			{
				"x": 1.7979601322,
				"y": -0.5814969185,
				"z": 0.3285450766,
				"element": "C" 
			},
			{
				"x": -3.5667192505,
				"y": -2.1361484675,
				"z": 2.1619657385,
				"element": "H" 
			},
			{
				"x": -4.1725057008,
				"y": -0.4794670307,
				"z": 2.039091966,
				"element": "H" 
			},
			{
				"x": -2.4409602092,
				"y": -0.7710281475,
				"z": 2.1864843202,
				"element": "H" 
			},
			{
				"x": -4.2316323284,
				"y": -1.5179414362,
				"z": -0.2086715603,
				"element": "H" 
			},
			{
				"x": -3.0495977754,
				"y": -0.2193808248,
				"z": -0.1978750086,
				"element": "H" 
			},
			{
				"x": -2.2748061383,
				"y": -2.2732471121,
				"z": -1.4097907849,
				"element": "H" 
			},
			{
				"x": -2.3771715743,
				"y": -3.1987492657,
				"z": 0.0850959888,
				"element": "H" 
			},
			{
				"x": -0.6102397923,
				"y": -1.7508379582,
				"z": 1.1101925614,
				"element": "H" 
			},
			{
				"x": -0.0623838935,
				"y": -2.5744279154,
				"z": -0.3628764004,
				"element": "H" 
			},
			{
				"x": 0.1400320875,
				"y": 1.7024774875,
				"z": -1.5509747579,
				"element": "H" 
			},
			{
				"x": 2.3350816692,
				"y": 2.8839010169,
				"z": -1.3317935702,
				"element": "H" 
			},
			{
				"x": 5.0288430609,
				"y": 1.5105517798,
				"z": 0.4618700979,
				"element": "H" 
			},
			{
				"x": 3.8293869861,
				"y": -0.3833374594,
				"z": 1.0149526525,
				"element": "H" 
			},
			{
				"x": 1.6767089033,
				"y": -1.548847846,
				"z": 0.8009367652,
				"element": "H" 
			}
		],
		 "valence_orbital": [ 
			{
				"type": "occ",
				"energy": -0.32542,
				"method": "rhf"
			},
			{
				"type": "occ",
				"energy": -0.31297,
				"method": "rhf"
			},
			{
				"type": "occ",
				"energy": -0.28893,
				"method": "rhf"
			},
			{
				"type": "occ",
				"energy": -0.24811,
				"method": "rhf"
			},
			{
				"type": "occ",
				"energy": -0.1958,
				"method": "rhf"
			},
			{
				"type": "unocc",
				"energy": 0.00052,
				"method": "rhf"
			},
			{
				"type": "unocc",
				"energy": 0.03081,
				"method": "rhf"
			},
			{
				"type": "unocc",
				"energy": 0.07461,
				"method": "rhf"
			},
			{
				"type": "unocc",
				"energy": 0.08703,
				"method": "rhf"
			},
			{
				"type": "unocc",
				"energy": 0.09774,
				"method": "rhf"
			}
		],
		"cosmo_sigma_profile": { 
			"-0.025": 0.0,
			"-0.024": 0.0,
			"-0.023": 0.0,
			"-0.022": 0.0,
			"-0.021": 0.0,
			"-0.02": 0.0,
			"-0.019": 0.0,
			"-0.018": 0.0222889833587,
			"-0.017": 1.00703723465,
			"-0.016": 1.00931273959,
			"-0.015": 1.31573592881,
			"-0.014": 0.998282734976,
			"-0.013": 0.823283331949,
			"-0.012": 0.501906940498,
			"-0.011": 0.304678225856,
			"-0.01": 1.41610965708,
			"-0.009": 1.91578577978,
			"-0.008": 1.33273163344,
			"-0.007": 1.3356858229,
			"-0.006": 4.88502201496,
			"-0.005": 9.06665859037,
			"-0.004": 14.2320827161,
			"-0.003": 22.1726502168,
			"-0.002": 22.9231390821,
			"-0.001": 22.0641027233,
			"0.0": 22.8378604612,
			"0.001": 21.5640398071,
			"0.002": 10.6830253618,
			"0.003": 9.41392503321,
			"0.004": 13.6949356764,
			"0.005": 15.2843080331,
			"0.006": 11.4651731857,
			"0.007": 3.58930385646,
			"0.008": 2.12750299162,
			"0.009": 2.5323483314,
			"0.01": 2.51693767981,
			"0.011": 1.78683473189,
			"0.012": 1.79228755938,
			"0.013": 0.0702971263804,
			"0.014": 0.0,
			"0.015": 0.0,
			"0.016": 0.0,
			"0.017": 0.0,
			"0.018": 0.0,
			"0.019": 0.0,
			"0.02": 0.0,
			"0.021": 0.0,
			"0.022": 0.0,
			"0.023": 0.0,
			"0.024": 0.0,
			"0.025": 0.0
		}
	}
}
