{
	 "smiles": "COC1=CC=C(C=C1)C1=NN(C=C1CNC1=CC=C(F)C(Cl)=C1)C1=CC=CC=C1", 
	 "Tm": 390.15, 
	 "num_atms": 48, 
	 "gaussian": { 
		 "optdone": 1, 
		 "sigma_profile": "yes", 
		 "theory": "DFT", 
		 "functional": "B3LYP", 
		 "basiset": "6-31G**", 
		 "properties": { 
			 "R2extent": 18871.3954, 
			 "electric_dipole_moment_norm": 3.16728957154, 
			 "electric_quadrupole_moment_norm": 34.7830008277, 
			 "total_energy": -1687.37433247, 
			 "HOMO_LUMO_gap": 0.16973, 
			 "cosmo_polarized_energy": -18.43, 
			 "cosmo_cavitation_energy": 54.67, 
			 "cosmo_dispersion_energy": -38.12, 
			 "cosmo_repulsion_energy": 2.82, 
			 "cosmo_total_nonelectrostatic_energy": 19.37, 
			 "SMD_solvation_energy": 9.12 
		},
		"coords": [
			{
				"x": -0.9439050229,
				"y": -4.045621637,
				"z": 5.2665574832,
				"element": "C" 
			},
			{
				"x": -0.2080603888,
				"y": -2.834586921,
				"z": 5.2069403983,
				"element": "O" 
			},
			{
				"x": -0.1072563139,
				"y": -2.1986596815,
				"z": 4.0039481927,
				"element": "C" 
			},
			{
				"x": -0.6855728717,
				"y": -2.6475260885,
				"z": 2.8119568893,
				"element": "C" 
			},
			{
				"x": -0.5166752738,
				"y": -1.909342781,
				"z": 1.6372478405,
				"element": "C" 
			},
			{
				"x": 0.2185954969,
				"y": -0.7178197769,
				"z": 1.6235126691,
				"element": "C" 
			},
			{
				"x": 0.7997018556,
				"y": -0.2859895031,
				"z": 2.8331257296,
				"element": "C" 
			},
			{
				"x": 0.6415279853,
				"y": -1.0104809563,
				"z": 4.0032907745,
				"element": "C" 
			},
			{
				"x": 0.4157938832,
				"y": 0.0742334249,
				"z": 0.3962533201,
				"element": "C" 
			},
			{
				"x": 1.5397523595,
				"y": 0.7816226111,
				"z": 0.2526348363,
				"element": "N" 
			},
			{
				"x": 1.414770563,
				"y": 1.4467029436,
				"z": -0.9216299575,
				"element": "N" 
			},
			{
				"x": 0.2207830748,
				"y": 1.1751634705,
				"z": -1.52226025,
				"element": "C" 
			},
			{
				"x": -0.4622083045,
				"y": 0.2845503893,
				"z": -0.7197791712,
				"element": "C" 
			},
			{
				"x": -1.8829517935,
				"y": -0.1684242738,
				"z": -0.942752598,
				"element": "C" 
			},
			{
				"x": -2.0805024395,
				"y": -1.5886513937,
				"z": -1.2624070517,
				"element": "N" 
			},
			{
				"x": -1.9853937933,
				"y": -2.0906296258,
				"z": -2.5630500874,
				"element": "C" 
			},
			{
				"x": -1.2151546668,
				"y": -1.4724557957,
				"z": -3.5637555823,
				"element": "C" 
			},
			{
				"x": -1.1314875903,
				"y": -2.0318704435,
				"z": -4.8381241059,
				"element": "C" 
			},
			{
				"x": -1.8045933475,
				"y": -3.2076077632,
				"z": -5.1369508414,
				"element": "C" 
			},
			{
				"x": -1.7176082922,
				"y": -3.7378815393,
				"z": -6.3707832415,
				"element": "F" 
			},
			{
				"x": -2.569236063,
				"y": -3.8367455366,
				"z": -4.1533639736,
				"element": "C" 
			},
			{
				"x": -3.4185590791,
				"y": -5.3169658582,
				"z": -4.534032452,
				"element": "Cl" 
			},
			{
				"x": -2.6610558798,
				"y": -3.2849220252,
				"z": -2.8806002829,
				"element": "C" 
			},
			{
				"x": 2.4517233636,
				"y": 2.3030774182,
				"z": -1.3740417487,
				"element": "C" 
			},
			{
				"x": 2.5178513773,
				"y": 2.6888377287,
				"z": -2.7181282163,
				"element": "C" 
			},
			{
				"x": 3.5304199548,
				"y": 3.5497324628,
				"z": -3.1399286906,
				"element": "C" 
			},
			{
				"x": 4.4869479845,
				"y": 4.0153202735,
				"z": -2.2368858132,
				"element": "C" 
			},
			{
				"x": 4.423270154,
				"y": 3.6109174516,
				"z": -0.9013608122,
				"element": "C" 
			},
			{
				"x": 3.4107877282,
				"y": 2.7608955493,
				"z": -0.4627987468,
				"element": "C" 
			},
			{
				"x": -0.8960420376,
				"y": -4.3773720483,
				"z": 6.3049324288,
				"element": "H" 
			},
			{
				"x": -1.9943003863,
				"y": -3.8964841581,
				"z": 4.9841597808,
				"element": "H" 
			},
			{
				"x": -0.5066461408,
				"y": -4.8181929638,
				"z": 4.6209245884,
				"element": "H" 
			},
			{
				"x": -1.2529801224,
				"y": -3.5703503492,
				"z": 2.7800238156,
				"element": "H" 
			},
			{
				"x": -0.9373448939,
				"y": -2.2832758765,
				"z": 0.7097249911,
				"element": "H" 
			},
			{
				"x": 1.3773018367,
				"y": 0.6321471247,
				"z": 2.8381222419,
				"element": "H" 
			},
			{
				"x": 1.0837376568,
				"y": -0.6773718434,
				"z": 4.9366671092,
				"element": "H" 
			},
			{
				"x": -0.0817302086,
				"y": 1.6616326105,
				"z": -2.4374527849,
				"element": "H" 
			},
			{
				"x": -2.4516689388,
				"y": 0.0126417171,
				"z": -0.0245458738,
				"element": "H" 
			},
			{
				"x": -2.3304908211,
				"y": 0.4658633855,
				"z": -1.7226590444,
				"element": "H" 
			},
			{
				"x": -2.8528371591,
				"y": -1.9914470283,
				"z": -0.7502704838,
				"element": "H" 
			},
			{
				"x": -0.6573357635,
				"y": -0.5727143292,
				"z": -3.3430126383,
				"element": "H" 
			},
			{
				"x": -0.5364026596,
				"y": -1.5629265066,
				"z": -5.6147243273,
				"element": "H" 
			},
			{
				"x": -3.2637686622,
				"y": -3.7892701478,
				"z": -2.1315943585,
				"element": "H" 
			},
			{
				"x": 1.8017121355,
				"y": 2.3067195292,
				"z": -3.4375271516,
				"element": "H" 
			},
			{
				"x": 3.5755332995,
				"y": 3.8447467465,
				"z": -4.1841023345,
				"element": "H" 
			},
			{
				"x": 5.2768486308,
				"y": 4.6806762299,
				"z": -2.5713856928,
				"element": "H" 
			},
			{
				"x": 5.164932035,
				"y": 3.9628749025,
				"z": -0.1902975105,
				"element": "H" 
			},
			{
				"x": 3.34837754,
				"y": 2.4395308821,
				"z": 0.5691827339,
				"element": "H" 
			}
		],
		 "valence_orbital": [ 
			{
				"type": "occ",
				"energy": -0.25191,
				"method": "rhf"
			},
			{
				"type": "occ",
				"energy": -0.24889,
				"method": "rhf"
			},
			{
				"type": "occ",
				"energy": -0.2356,
				"method": "rhf"
			},
			{
				"type": "occ",
				"energy": -0.20756,
				"method": "rhf"
			},
			{
				"type": "occ",
				"energy": -0.20273,
				"method": "rhf"
			},
			{
				"type": "unocc",
				"energy": -0.033,
				"method": "rhf"
			},
			{
				"type": "unocc",
				"energy": -0.01725,
				"method": "rhf"
			},
			{
				"type": "unocc",
				"energy": -0.01129,
				"method": "rhf"
			},
			{
				"type": "unocc",
				"energy": -0.00034,
				"method": "rhf"
			},
			{
				"type": "unocc",
				"energy": 0.00108,
				"method": "rhf"
			}
		],
		"cosmo_sigma_profile": { 
			"-0.025": 0.0,
			"-0.024": 0.0,
			"-0.023": 0.0,
			"-0.022": 0.0,
			"-0.021": 0.0,
			"-0.02": 0.0,
			"-0.019": 0.0,
			"-0.018": 0.0,
			"-0.017": 0.0,
			"-0.016": 0.0,
			"-0.015": 0.0,
			"-0.014": 0.0,
			"-0.013": 1.31276561772,
			"-0.012": 1.51517009029,
			"-0.011": 1.52956915043,
			"-0.01": 2.81807845058,
			"-0.009": 5.08424008378,
			"-0.008": 5.59377839109,
			"-0.007": 8.82534639075,
			"-0.006": 21.1179357728,
			"-0.005": 31.8612068962,
			"-0.004": 32.3555792794,
			"-0.003": 30.9944452364,
			"-0.002": 26.2921385812,
			"-0.001": 21.1264119105,
			"0.0": 24.2878815243,
			"0.001": 32.4582956484,
			"0.002": 36.4295364355,
			"0.003": 44.3753472462,
			"0.004": 52.6064842561,
			"0.005": 36.0386569746,
			"0.006": 10.6374819829,
			"0.007": 3.5655903447,
			"0.008": 2.58718470317,
			"0.009": 2.92371270274,
			"0.01": 2.18965174235,
			"0.011": 0.851862713506,
			"0.012": 0.78446723518,
			"0.013": 0.615403751451,
			"0.014": 0.0,
			"0.015": 0.0,
			"0.016": 0.0,
			"0.017": 0.0,
			"0.018": 0.0,
			"0.019": 0.0,
			"0.02": 0.0,
			"0.021": 0.0,
			"0.022": 0.0,
			"0.023": 0.0,
			"0.024": 0.0,
			"0.025": 0.0
		}
	}
}
