{
	 "smiles": "CC(=O)N(C1=NC(C=O)=CS1)C1=CC=CC=C1", 
	 "Tm": 424.15, 
	 "num_atms": 27, 
	 "gaussian": { 
		 "optdone": 1, 
		 "sigma_profile": "yes", 
		 "theory": "DFT", 
		 "functional": "B3LYP", 
		 "basiset": "6-31G**", 
		 "properties": { 
			 "R2extent": 6275.7862, 
			 "electric_dipole_moment_norm": 5.7344328499, 
			 "electric_quadrupole_moment_norm": 24.9740729564, 
			 "total_energy": -1121.43380611, 
			 "HOMO_LUMO_gap": 0.17629, 
			 "cosmo_polarized_energy": -14.19, 
			 "cosmo_cavitation_energy": 33.88, 
			 "cosmo_dispersion_energy": -23.93, 
			 "cosmo_repulsion_energy": 1.84, 
			 "cosmo_total_nonelectrostatic_energy": 11.78, 
			 "SMD_solvation_energy": 6.77 
		},
		"coords": [
			{
				"x": -0.6688731283,
				"y": 0.4564182273,
				"z": 2.0119274971,
				"element": "C" 
			},
			{
				"x": 0.7868814651,
				"y": 0.1125857617,
				"z": 1.7795739515,
				"element": "C" 
			},
			{
				"x": 1.5545390827,
				"y": -0.1362933736,
				"z": 2.6991373972,
				"element": "O" 
			},
			{
				"x": 1.2308617378,
				"y": 0.0888861074,
				"z": 0.4554668142,
				"element": "N" 
			},
			{
				"x": 2.5626431061,
				"y": -0.2194994712,
				"z": 0.1420923669,
				"element": "C" 
			},
			{
				"x": 2.9886448944,
				"y": -0.2452818519,
				"z": -1.0862781352,
				"element": "N" 
			},
			{
				"x": 4.3294795529,
				"y": -0.5735633066,
				"z": -1.1278829807,
				"element": "C" 
			},
			{
				"x": 5.0105373592,
				"y": -0.6574140567,
				"z": -2.4330668949,
				"element": "C" 
			},
			{
				"x": 6.1863989248,
				"y": -0.9385688293,
				"z": -2.5742752604,
				"element": "O" 
			},
			{
				"x": 4.9246292074,
				"y": -0.7988507277,
				"z": 0.0848486523,
				"element": "C" 
			},
			{
				"x": 3.7836411139,
				"y": -0.6001878351,
				"z": 1.3684566337,
				"element": "S" 
			},
			{
				"x": 0.3459709015,
				"y": 0.3789188767,
				"z": -0.6527392618,
				"element": "C" 
			},
			{
				"x": -0.3668248824,
				"y": -0.6576139551,
				"z": -1.25724504,
				"element": "C" 
			},
			{
				"x": -1.2336323122,
				"y": -0.3722357185,
				"z": -2.3125829453,
				"element": "C" 
			},
			{
				"x": -1.3801905542,
				"y": 0.9413942202,
				"z": -2.7631158101,
				"element": "C" 
			},
			{
				"x": -0.6555639422,
				"y": 1.9719406421,
				"z": -2.1606349982,
				"element": "C" 
			},
			{
				"x": 0.2127258235,
				"y": 1.6925903899,
				"z": -1.1049035953,
				"element": "C" 
			},
			{
				"x": -0.8429367588,
				"y": 0.4303917637,
				"z": 3.0871233855,
				"element": "H" 
			},
			{
				"x": -1.3315095458,
				"y": -0.2565427271,
				"z": 1.513470292,
				"element": "H" 
			},
			{
				"x": -0.9114027002,
				"y": 1.4491308895,
				"z": 1.6226636062,
				"element": "H" 
			},
			{
				"x": 4.3485779477,
				"y": -0.4382491151,
				"z": -3.296750374,
				"element": "H" 
			},
			{
				"x": 5.9568754632,
				"y": -1.0652228219,
				"z": 0.2634137958,
				"element": "H" 
			},
			{
				"x": -0.2349662029,
				"y": -1.6753933318,
				"z": -0.9035324567,
				"element": "H" 
			},
			{
				"x": -1.7906211997,
				"y": -1.1762536481,
				"z": -2.7839429751,
				"element": "H" 
			},
			{
				"x": -2.05480361,
				"y": 1.161031718,
				"z": -3.5851699704,
				"element": "H" 
			},
			{
				"x": -0.7624419492,
				"y": 2.9931067183,
				"z": -2.5137037404,
				"element": "H" 
			},
			{
				"x": 0.7902602057,
				"y": 2.4819754546,
				"z": -0.6340499539,
				"element": "H" 
			}
		],
		 "valence_orbital": [ 
			{
				"type": "occ",
				"energy": -0.28015,
				"method": "rhf"
			},
			{
				"type": "occ",
				"energy": -0.27232,
				"method": "rhf"
			},
			{
				"type": "occ",
				"energy": -0.26548,
				"method": "rhf"
			},
			{
				"type": "occ",
				"energy": -0.2494,
				"method": "rhf"
			},
			{
				"type": "occ",
				"energy": -0.23207,
				"method": "rhf"
			},
			{
				"type": "unocc",
				"energy": -0.05578,
				"method": "rhf"
			},
			{
				"type": "unocc",
				"energy": -0.02938,
				"method": "rhf"
			},
			{
				"type": "unocc",
				"energy": -0.02571,
				"method": "rhf"
			},
			{
				"type": "unocc",
				"energy": -0.02355,
				"method": "rhf"
			},
			{
				"type": "unocc",
				"energy": 0.02745,
				"method": "rhf"
			}
		],
		"cosmo_sigma_profile": { 
			"-0.025": 0.0,
			"-0.024": 0.0,
			"-0.023": 0.0,
			"-0.022": 0.0,
			"-0.021": 0.0,
			"-0.02": 0.0,
			"-0.019": 0.0,
			"-0.018": 0.0,
			"-0.017": 0.0,
			"-0.016": 0.0,
			"-0.015": 0.0,
			"-0.014": 0.0,
			"-0.013": 0.0,
			"-0.012": 0.0,
			"-0.011": 0.0,
			"-0.01": 0.841695894737,
			"-0.009": 1.70680065847,
			"-0.008": 1.70980711533,
			"-0.007": 7.76862057239,
			"-0.006": 23.5856281971,
			"-0.005": 23.7159843201,
			"-0.004": 22.3552269378,
			"-0.003": 19.9437658765,
			"-0.002": 24.4025825093,
			"-0.001": 18.3309548285,
			"0.0": 18.0267279392,
			"0.001": 20.0362460898,
			"0.002": 16.4306709453,
			"0.003": 12.9269100152,
			"0.004": 11.8078665568,
			"0.005": 8.84748523706,
			"0.006": 5.48810137025,
			"0.007": 4.44139638338,
			"0.008": 4.76102693432,
			"0.009": 6.19960677386,
			"0.01": 5.80416641366,
			"0.011": 7.61827327846,
			"0.012": 5.81043650689,
			"0.013": 1.4501923654,
			"0.014": 0.0,
			"0.015": 0.0,
			"0.016": 0.0,
			"0.017": 0.0,
			"0.018": 0.0,
			"0.019": 0.0,
			"0.02": 0.0,
			"0.021": 0.0,
			"0.022": 0.0,
			"0.023": 0.0,
			"0.024": 0.0,
			"0.025": 0.0
		}
	}
}
