{
	 "smiles": "COC1=CC=C(C=C1)C1=CN2C(SC3=C2C=CC=C3)=N1", 
	 "Tm": 451.15, 
	 "num_atms": 32, 
	 "gaussian": { 
		 "optdone": 1, 
		 "sigma_profile": "yes", 
		 "theory": "DFT", 
		 "functional": "B3LYP", 
		 "basiset": "6-31G**", 
		 "properties": { 
			 "R2extent": 9467.4338, 
			 "electric_dipole_moment_norm": 2.25007197663, 
			 "electric_quadrupole_moment_norm": 23.146972688, 
			 "total_energy": -1199.84096776, 
			 "HOMO_LUMO_gap": 0.15937, 
			 "cosmo_polarized_energy": -13.05, 
			 "cosmo_cavitation_energy": 38.04, 
			 "cosmo_dispersion_energy": -28.71, 
			 "cosmo_repulsion_energy": 2.08, 
			 "cosmo_total_nonelectrostatic_energy": 11.41, 
			 "SMD_solvation_energy": 5.12 
		},
		"coords": [
			{
				"x": -4.411473094,
				"y": 0.2728924576,
				"z": 4.7780641338,
				"element": "C" 
			},
			{
				"x": -3.9144676236,
				"y": 1.2438531417,
				"z": 3.8717966189,
				"element": "O" 
			},
			{
				"x": -2.874630625,
				"y": 0.8939579687,
				"z": 3.058729736,
				"element": "C" 
			},
			{
				"x": -2.4234236934,
				"y": 1.8933633087,
				"z": 2.182248888,
				"element": "C" 
			},
			{
				"x": -1.372076771,
				"y": 1.6383891589,
				"z": 1.315230242,
				"element": "C" 
			},
			{
				"x": -0.7346627467,
				"y": 0.3831240812,
				"z": 1.2902189087,
				"element": "C" 
			},
			{
				"x": -1.1966385022,
				"y": -0.6034854749,
				"z": 2.170947919,
				"element": "C" 
			},
			{
				"x": -2.2536440188,
				"y": -0.3603458208,
				"z": 3.0486804272,
				"element": "C" 
			},
			{
				"x": 0.379071791,
				"y": 0.0958718254,
				"z": 0.3794965422,
				"element": "C" 
			},
			{
				"x": 0.9709749492,
				"y": 0.9298992533,
				"z": -0.5526458138,
				"element": "C" 
			},
			{
				"x": 1.9704098249,
				"y": 0.1710781025,
				"z": -1.1423250625,
				"element": "N" 
			},
			{
				"x": 1.9198391839,
				"y": -1.0652620331,
				"z": -0.5335754492,
				"element": "C" 
			},
			{
				"x": 3.1389636009,
				"y": -2.16471876,
				"z": -1.1740731781,
				"element": "S" 
			},
			{
				"x": 3.6912172898,
				"y": -0.8805313703,
				"z": -2.2734344254,
				"element": "C" 
			},
			{
				"x": 2.9506740042,
				"y": 0.3118986114,
				"z": -2.1226211026,
				"element": "C" 
			},
			{
				"x": 3.2350416867,
				"y": 1.4351741294,
				"z": -2.8984317422,
				"element": "C" 
			},
			{
				"x": 4.2707026335,
				"y": 1.3528724193,
				"z": -3.8291470853,
				"element": "C" 
			},
			{
				"x": 5.0078147137,
				"y": 0.1723672041,
				"z": -3.9822075104,
				"element": "C" 
			},
			{
				"x": 4.7234485291,
				"y": -0.9529411124,
				"z": -3.2054714769,
				"element": "C" 
			},
			{
				"x": 0.9906207511,
				"y": -1.1571566375,
				"z": 0.3768428871,
				"element": "N" 
			},
			{
				"x": -4.8001323441,
				"y": -0.6101130115,
				"z": 4.2541854913,
				"element": "H" 
			},
			{
				"x": -5.2262225175,
				"y": 0.7551074241,
				"z": 5.3206176789,
				"element": "H" 
			},
			{
				"x": -3.6419681113,
				"y": -0.0468678718,
				"z": 5.4927767729,
				"element": "H" 
			},
			{
				"x": -2.9153959037,
				"y": 2.8603818096,
				"z": 2.2023415982,
				"element": "H" 
			},
			{
				"x": -1.0426131662,
				"y": 2.429448728,
				"z": 0.6473205628,
				"element": "H" 
			},
			{
				"x": -0.7133402446,
				"y": -1.5743088158,
				"z": 2.1606489856,
				"element": "H" 
			},
			{
				"x": -2.5809423767,
				"y": -1.150523465,
				"z": 3.7141570538,
				"element": "H" 
			},
			{
				"x": 0.7827525478,
				"y": 1.950955379,
				"z": -0.8403315843,
				"element": "H" 
			},
			{
				"x": 2.6617425731,
				"y": 2.3483888057,
				"z": -2.7771597213,
				"element": "H" 
			},
			{
				"x": 4.5052291004,
				"y": 2.2180859951,
				"z": -4.4411778839,
				"element": "H" 
			},
			{
				"x": 5.8101894677,
				"y": 0.1272436132,
				"z": -4.7117469262,
				"element": "H" 
			},
			{
				"x": 5.2960390918,
				"y": -1.8670990436,
				"z": -3.3256554842,
				"element": "H" 
			}
		],
		 "valence_orbital": [ 
			{
				"type": "occ",
				"energy": -0.2654,
				"method": "rhf"
			},
			{
				"type": "occ",
				"energy": -0.24622,
				"method": "rhf"
			},
			{
				"type": "occ",
				"energy": -0.24381,
				"method": "rhf"
			},
			{
				"type": "occ",
				"energy": -0.22115,
				"method": "rhf"
			},
			{
				"type": "occ",
				"energy": -0.19017,
				"method": "rhf"
			},
			{
				"type": "unocc",
				"energy": -0.0308,
				"method": "rhf"
			},
			{
				"type": "unocc",
				"energy": -0.01836,
				"method": "rhf"
			},
			{
				"type": "unocc",
				"energy": 0.00352,
				"method": "rhf"
			},
			{
				"type": "unocc",
				"energy": 0.00383,
				"method": "rhf"
			},
			{
				"type": "unocc",
				"energy": 0.00631,
				"method": "rhf"
			}
		],
		"cosmo_sigma_profile": { 
			"-0.025": 0.0,
			"-0.024": 0.0,
			"-0.023": 0.0,
			"-0.022": 0.0,
			"-0.021": 0.0,
			"-0.02": 0.0,
			"-0.019": 0.0,
			"-0.018": 0.0,
			"-0.017": 0.0,
			"-0.016": 0.0,
			"-0.015": 0.0,
			"-0.014": 0.0,
			"-0.013": 0.0,
			"-0.012": 0.0,
			"-0.011": 0.0,
			"-0.01": 0.150229018841,
			"-0.009": 3.18711519725,
			"-0.008": 6.51924997953,
			"-0.007": 8.49416094122,
			"-0.006": 16.4146912583,
			"-0.005": 24.8337841803,
			"-0.004": 22.6952520099,
			"-0.003": 21.65250667,
			"-0.002": 19.0412106987,
			"-0.001": 17.9473287683,
			"0.0": 21.4370199169,
			"0.001": 21.7291583842,
			"0.002": 23.7690633931,
			"0.003": 26.4928756544,
			"0.004": 30.6304249859,
			"0.005": 18.483919719,
			"0.006": 8.79909664333,
			"0.007": 2.77866329897,
			"0.008": 3.09719201604,
			"0.009": 3.65373504781,
			"0.01": 2.31574534463,
			"0.011": 1.48571232965,
			"0.012": 1.64727844397,
			"0.013": 0.868463179388,
			"0.014": 0.575780228412,
			"0.015": 0.0,
			"0.016": 0.0,
			"0.017": 0.0,
			"0.018": 0.0,
			"0.019": 0.0,
			"0.02": 0.0,
			"0.021": 0.0,
			"0.022": 0.0,
			"0.023": 0.0,
			"0.024": 0.0,
			"0.025": 0.0
		}
	}
}
