{
	 "smiles": "ON=CC1=CC(=CC=C1)[N+]([O-])=O", 
	 "Tm": 396.65, 
	 "num_atms": 18, 
	 "gaussian": { 
		 "optdone": 1, 
		 "sigma_profile": "yes", 
		 "theory": "DFT", 
		 "functional": "B3LYP", 
		 "basiset": "6-31G**", 
		 "properties": { 
			 "R2extent": 2370.6032, 
			 "electric_dipole_moment_norm": 4.07816743403, 
			 "electric_quadrupole_moment_norm": 15.9494484159, 
			 "total_energy": -605.370771531, 
			 "HOMO_LUMO_gap": 0.16286, 
			 "cosmo_polarized_energy": -12.03, 
			 "cosmo_cavitation_energy": 23.66, 
			 "cosmo_dispersion_energy": -17.41, 
			 "cosmo_repulsion_energy": 1.39, 
			 "cosmo_total_nonelectrostatic_energy": 7.64, 
			 "SMD_solvation_energy": 6.55 
		},
		"coords": [
			{
				"x": 0.1832417344,
				"y": -1.1758062249,
				"z": 2.2818601367,
				"element": "O" 
			},
			{
				"x": 1.1358694015,
				"y": -0.2739783745,
				"z": 2.7536440089,
				"element": "N" 
			},
			{
				"x": 1.3136787941,
				"y": 0.7453380207,
				"z": 1.9911304123,
				"element": "C" 
			},
			{
				"x": 0.714319754,
				"y": 1.1580575393,
				"z": 0.7139701498,
				"element": "C" 
			},
			{
				"x": -0.2700670534,
				"y": 0.4345505426,
				"z": 0.0162171049,
				"element": "C" 
			},
			{
				"x": -0.7507063799,
				"y": 0.9432954036,
				"z": -1.1852968938,
				"element": "C" 
			},
			{
				"x": -0.3029633488,
				"y": 2.1420634282,
				"z": -1.7368250361,
				"element": "C" 
			},
			{
				"x": 0.6720721331,
				"y": 2.8575566364,
				"z": -1.0450069385,
				"element": "C" 
			},
			{
				"x": 1.1714330371,
				"y": 2.3715206572,
				"z": 0.1610875098,
				"element": "C" 
			},
			{
				"x": -1.7838938751,
				"y": 0.1767932717,
				"z": -1.9098322173,
				"element": "N" 
			},
			{
				"x": -2.1681731342,
				"y": -0.8793402331,
				"z": -1.4119503205,
				"element": "O" 
			},
			{
				"x": -2.197354901,
				"y": 0.6440942051,
				"z": -2.9705297096,
				"element": "O" 
			},
			{
				"x": 0.185021085,
				"y": -1.8582898099,
				"z": 2.9661036484,
				"element": "H" 
			},
			{
				"x": 2.0647274405,
				"y": 1.4226379879,
				"z": 2.3957619019,
				"element": "H" 
			},
			{
				"x": -0.6553961459,
				"y": -0.4993998831,
				"z": 0.3928325669,
				"element": "H" 
			},
			{
				"x": -0.7158220298,
				"y": 2.4866267005,
				"z": -2.6762969906,
				"element": "H" 
			},
			{
				"x": 1.0421129002,
				"y": 3.7949292081,
				"z": -1.4476441098,
				"element": "H" 
			},
			{
				"x": 1.9317005881,
				"y": 2.938850924,
				"z": 0.6911747765,
				"element": "H" 
			}
		],
		 "valence_orbital": [ 
			{
				"type": "occ",
				"energy": -0.30831,
				"method": "rhf"
			},
			{
				"type": "occ",
				"energy": -0.29162,
				"method": "rhf"
			},
			{
				"type": "occ",
				"energy": -0.28631,
				"method": "rhf"
			},
			{
				"type": "occ",
				"energy": -0.28507,
				"method": "rhf"
			},
			{
				"type": "occ",
				"energy": -0.25333,
				"method": "rhf"
			},
			{
				"type": "unocc",
				"energy": -0.09047,
				"method": "rhf"
			},
			{
				"type": "unocc",
				"energy": -0.06223,
				"method": "rhf"
			},
			{
				"type": "unocc",
				"energy": -0.00811,
				"method": "rhf"
			},
			{
				"type": "unocc",
				"energy": 0.04124,
				"method": "rhf"
			},
			{
				"type": "unocc",
				"energy": 0.05518,
				"method": "rhf"
			}
		],
		"cosmo_sigma_profile": { 
			"-0.025": 0.0,
			"-0.024": 0.0,
			"-0.023": 0.0,
			"-0.022": 0.0,
			"-0.021": 0.0,
			"-0.02": 0.0,
			"-0.019": 0.0,
			"-0.018": 0.69263071048,
			"-0.017": 1.02646987311,
			"-0.016": 0.939570891831,
			"-0.015": 0.997555606173,
			"-0.014": 0.828075824389,
			"-0.013": 0.167466052022,
			"-0.012": 0.458448907477,
			"-0.011": 0.790703808957,
			"-0.01": 1.05778351033,
			"-0.009": 2.80731267038,
			"-0.008": 6.91163867174,
			"-0.007": 8.82703616983,
			"-0.006": 9.16005084202,
			"-0.005": 7.55153702038,
			"-0.004": 8.55734246925,
			"-0.003": 7.37423526366,
			"-0.002": 10.0928953692,
			"-0.001": 13.0314598984,
			"0.0": 20.3907176925,
			"0.001": 20.0283707512,
			"0.002": 9.46733009009,
			"0.003": 7.32701776539,
			"0.004": 7.72461236609,
			"0.005": 6.64326485124,
			"0.006": 6.46498344697,
			"0.007": 12.1966421055,
			"0.008": 7.36229871998,
			"0.009": 5.33601488822,
			"0.01": 3.53331557427,
			"0.011": 0.818161483106,
			"0.012": 1.06084012066,
			"0.013": 0.472660424568,
			"0.014": 0.0570452125483,
			"0.015": 0.0,
			"0.016": 0.0,
			"0.017": 0.0,
			"0.018": 0.0,
			"0.019": 0.0,
			"0.02": 0.0,
			"0.021": 0.0,
			"0.022": 0.0,
			"0.023": 0.0,
			"0.024": 0.0,
			"0.025": 0.0
		}
	}
}
