{
	 "smiles": "CC(=O)NC(CC1=CC=C2OCOC2=C1)C(O)=O", 
	 "Tm": 365.15, 
	 "num_atms": 31, 
	 "gaussian": { 
		 "optdone": 1, 
		 "sigma_profile": "yes", 
		 "theory": "DFT", 
		 "functional": "B3LYP", 
		 "basiset": "6-31G**", 
		 "properties": { 
			 "R2extent": 6302.0288, 
			 "electric_dipole_moment_norm": 5.69681597912, 
			 "electric_quadrupole_moment_norm": 23.5748943766, 
			 "total_energy": -895.990842205, 
			 "HOMO_LUMO_gap": 0.19529, 
			 "cosmo_polarized_energy": -22.81, 
			 "cosmo_cavitation_energy": 34.98, 
			 "cosmo_dispersion_energy": -25.07, 
			 "cosmo_repulsion_energy": 1.95, 
			 "cosmo_total_nonelectrostatic_energy": 11.86, 
			 "SMD_solvation_energy": 7.57 
		},
		"coords": [
			{
				"x": 3.9305789857,
				"y": 0.8221052447,
				"z": -3.0072098781,
				"element": "C" 
			},
			{
				"x": 3.135791491,
				"y": 0.9710297388,
				"z": -1.7261446588,
				"element": "C" 
			},
			{
				"x": 2.9795654962,
				"y": 2.0846195318,
				"z": -1.2042327215,
				"element": "O" 
			},
			{
				"x": 2.6169720459,
				"y": -0.1643954815,
				"z": -1.1969778633,
				"element": "N" 
			},
			{
				"x": 1.7135145066,
				"y": -0.2346528143,
				"z": -0.0323105012,
				"element": "C" 
			},
			{
				"x": 0.3938125567,
				"y": 0.545418646,
				"z": -0.2848413365,
				"element": "C" 
			},
			{
				"x": -0.6281266009,
				"y": 0.3610297153,
				"z": 0.8165547817,
				"element": "C" 
			},
			{
				"x": -0.6692289796,
				"y": 1.2421757042,
				"z": 1.9022372857,
				"element": "C" 
			},
			{
				"x": -1.5885377261,
				"y": 1.085949406,
				"z": 2.9552807419,
				"element": "C" 
			},
			{
				"x": -2.4548895354,
				"y": 0.0152037204,
				"z": 2.8728388524,
				"element": "C" 
			},
			{
				"x": -3.4610854287,
				"y": -0.3452020264,
				"z": 3.7381417231,
				"element": "O" 
			},
			{
				"x": -3.944317955,
				"y": -1.6051451638,
				"z": 3.2612514822,
				"element": "C" 
			},
			{
				"x": -3.4103044536,
				"y": -1.8159918704,
				"z": 1.9484608922,
				"element": "O" 
			},
			{
				"x": -2.4246590396,
				"y": -0.8692907003,
				"z": 1.796597375,
				"element": "C" 
			},
			{
				"x": -1.5307557241,
				"y": -0.7247564082,
				"z": 0.756273303,
				"element": "C" 
			},
			{
				"x": 2.4016742903,
				"y": 0.1788281496,
				"z": 1.2925761213,
				"element": "C" 
			},
			{
				"x": 2.8669859933,
				"y": 1.4323659171,
				"z": 1.355280295,
				"element": "O" 
			},
			{
				"x": 2.4726394071,
				"y": -0.5874339645,
				"z": 2.2244304967,
				"element": "O" 
			},
			{
				"x": 4.9339140909,
				"y": 1.2248060867,
				"z": -2.845996117,
				"element": "H" 
			},
			{
				"x": 4.0081799184,
				"y": -0.2087010495,
				"z": -3.3614260167,
				"element": "H" 
			},
			{
				"x": 3.4562878028,
				"y": 1.4308137208,
				"z": -3.7819976364,
				"element": "H" 
			},
			{
				"x": 2.8317181377,
				"y": -1.0366182738,
				"z": -1.6560219991,
				"element": "H" 
			},
			{
				"x": 1.4773550985,
				"y": -1.2912894451,
				"z": 0.1015548762,
				"element": "H" 
			},
			{
				"x": -0.0117780714,
				"y": 0.1890059494,
				"z": -1.238697331,
				"element": "H" 
			},
			{
				"x": 0.6274961613,
				"y": 1.6044123033,
				"z": -0.4162833948,
				"element": "H" 
			},
			{
				"x": 0.0382301307,
				"y": 2.0647080567,
				"z": 1.9430601917,
				"element": "H" 
			},
			{
				"x": -1.6170244075,
				"y": 1.7735103568,
				"z": 3.7927361635,
				"element": "H" 
			},
			{
				"x": -3.6009774396,
				"y": -2.4080515846,
				"z": 3.9299404287,
				"element": "H" 
			},
			{
				"x": -5.0369668522,
				"y": -1.581146472,
				"z": 3.2101758639,
				"element": "H" 
			},
			{
				"x": -1.530656557,
				"y": -1.4177624891,
				"z": -0.079090329,
				"element": "H" 
			},
			{
				"x": 2.8374926575,
				"y": 1.8576554959,
				"z": 0.4584389091,
				"element": "H" 
			}
		],
		 "valence_orbital": [ 
			{
				"type": "occ",
				"energy": -0.29477,
				"method": "rhf"
			},
			{
				"type": "occ",
				"energy": -0.2817,
				"method": "rhf"
			},
			{
				"type": "occ",
				"energy": -0.25281,
				"method": "rhf"
			},
			{
				"type": "occ",
				"energy": -0.24216,
				"method": "rhf"
			},
			{
				"type": "occ",
				"energy": -0.20465,
				"method": "rhf"
			},
			{
				"type": "unocc",
				"energy": -0.00936,
				"method": "rhf"
			},
			{
				"type": "unocc",
				"energy": -0.00191,
				"method": "rhf"
			},
			{
				"type": "unocc",
				"energy": 0.0105,
				"method": "rhf"
			},
			{
				"type": "unocc",
				"energy": 0.01981,
				"method": "rhf"
			},
			{
				"type": "unocc",
				"energy": 0.04579,
				"method": "rhf"
			}
		],
		"cosmo_sigma_profile": { 
			"-0.025": 0.0,
			"-0.024": 0.0,
			"-0.023": 0.0,
			"-0.022": 0.0,
			"-0.021": 0.0,
			"-0.02": 0.0,
			"-0.019": 0.0,
			"-0.018": 0.0,
			"-0.017": 0.0,
			"-0.016": 0.686510861749,
			"-0.015": 1.96910189815,
			"-0.014": 1.5990443179,
			"-0.013": 1.50236719394,
			"-0.012": 1.55840249281,
			"-0.011": 1.66853837344,
			"-0.01": 1.61910288591,
			"-0.009": 1.61839030896,
			"-0.008": 4.08798474053,
			"-0.007": 13.0444471986,
			"-0.006": 20.6270642228,
			"-0.005": 21.444096787,
			"-0.004": 19.3758150829,
			"-0.003": 21.839677773,
			"-0.002": 20.7426470802,
			"-0.001": 15.0135674674,
			"0.0": 11.4511802629,
			"0.001": 11.6708268818,
			"0.002": 13.9141876636,
			"0.003": 13.7036357071,
			"0.004": 13.3485372998,
			"0.005": 11.2154333714,
			"0.006": 6.83437438945,
			"0.007": 5.7388852831,
			"0.008": 7.11931966783,
			"0.009": 7.39494816708,
			"0.01": 6.39607927045,
			"0.011": 7.1615682774,
			"0.012": 7.85947950363,
			"0.013": 4.58588735884,
			"0.014": 0.709919402224,
			"0.015": 0.0,
			"0.016": 0.0,
			"0.017": 0.0,
			"0.018": 0.0,
			"0.019": 0.0,
			"0.02": 0.0,
			"0.021": 0.0,
			"0.022": 0.0,
			"0.023": 0.0,
			"0.024": 0.0,
			"0.025": 0.0
		}
	}
}
