{
	 "smiles": "COC1=CC(C=C(C)[N+]([O-])=O)=CC(OC)=C1", 
	 "Tm": 361.15, 
	 "num_atms": 29, 
	 "gaussian": { 
		 "optdone": 1, 
		 "sigma_profile": "yes", 
		 "theory": "DFT", 
		 "functional": "B3LYP", 
		 "basiset": "6-31G**", 
		 "properties": { 
			 "R2extent": 4911.915, 
			 "electric_dipole_moment_norm": 3.84786359685, 
			 "electric_quadrupole_moment_norm": 24.6442657697, 
			 "total_energy": -782.518317319, 
			 "HOMO_LUMO_gap": 0.14317, 
			 "cosmo_polarized_energy": -12.82, 
			 "cosmo_cavitation_energy": 33.52, 
			 "cosmo_dispersion_energy": -23.87, 
			 "cosmo_repulsion_energy": 1.87, 
			 "cosmo_total_nonelectrostatic_energy": 11.52, 
			 "SMD_solvation_energy": 9.6 
		},
		"coords": [
			{
				"x": 1.8763547503,
				"y": 4.3283303661,
				"z": -0.2810803251,
				"element": "C" 
			},
			{
				"x": 0.470445476,
				"y": 4.1493075575,
				"z": -0.3745412046,
				"element": "O" 
			},
			{
				"x": -0.0236233415,
				"y": 2.8803002273,
				"z": -0.3761783152,
				"element": "C" 
			},
			{
				"x": 0.7622886459,
				"y": 1.7252686292,
				"z": -0.2899218993,
				"element": "C" 
			},
			{
				"x": 0.1469237201,
				"y": 0.4602201144,
				"z": -0.2786163063,
				"element": "C" 
			},
			{
				"x": 1.0312572659,
				"y": -0.7042456642,
				"z": -0.1800917181,
				"element": "C" 
			},
			{
				"x": 0.7875487659,
				"y": -1.9171306895,
				"z": 0.3517362564,
				"element": "C" 
			},
			{
				"x": -0.4176399403,
				"y": -2.4294524057,
				"z": 1.0750585986,
				"element": "C" 
			},
			{
				"x": 1.8931765517,
				"y": -2.8997440733,
				"z": 0.2472803125,
				"element": "N" 
			},
			{
				"x": 2.9583385788,
				"y": -2.5630882719,
				"z": -0.2733012199,
				"element": "O" 
			},
			{
				"x": 1.6681713708,
				"y": -4.0277414747,
				"z": 0.6924257489,
				"element": "O" 
			},
			{
				"x": -1.2503163567,
				"y": 0.3546262702,
				"z": -0.3983416105,
				"element": "C" 
			},
			{
				"x": -2.0213769918,
				"y": 1.5195992875,
				"z": -0.5033100147,
				"element": "C" 
			},
			{
				"x": -3.377354813,
				"y": 1.5317584125,
				"z": -0.637123605,
				"element": "O" 
			},
			{
				"x": -4.067983166,
				"y": 0.2920094504,
				"z": -0.6688003932,
				"element": "C" 
			},
			{
				"x": -1.4130621795,
				"y": 2.7771250771,
				"z": -0.4814237621,
				"element": "C" 
			},
			{
				"x": 2.4000648756,
				"y": 3.8713317072,
				"z": -1.1301768885,
				"element": "H" 
			},
			{
				"x": 2.2757848909,
				"y": 3.9143896525,
				"z": 0.6533916034,
				"element": "H" 
			},
			{
				"x": 2.0423466449,
				"y": 5.4063320843,
				"z": -0.2956841403,
				"element": "H" 
			},
			{
				"x": 1.8408763047,
				"y": 1.7859797631,
				"z": -0.215801755,
				"element": "H" 
			},
			{
				"x": 2.0369592261,
				"y": -0.5688379619,
				"z": -0.5682071115,
				"element": "H" 
			},
			{
				"x": -0.1124981679,
				"y": -3.0044435355,
				"z": 1.9515021758,
				"element": "H" 
			},
			{
				"x": -1.0448531304,
				"y": -1.5953581338,
				"z": 1.3918455823,
				"element": "H" 
			},
			{
				"x": -1.0148593898,
				"y": -3.103047176,
				"z": 0.449655966,
				"element": "H" 
			},
			{
				"x": -1.7132692973,
				"y": -0.6194707301,
				"z": -0.4595179244,
				"element": "H" 
			},
			{
				"x": -3.9177115403,
				"y": -0.2793737587,
				"z": 0.2561743104,
				"element": "H" 
			},
			{
				"x": -3.7607739761,
				"y": -0.3218707138,
				"z": -1.5250432631,
				"element": "H" 
			},
			{
				"x": -5.125445002,
				"y": 0.540680121,
				"z": -0.7682175568,
				"element": "H" 
			},
			{
				"x": -2.0181697751,
				"y": 3.6724458688,
				"z": -0.5626915407,
				"element": "H" 
			}
		],
		 "valence_orbital": [ 
			{
				"type": "occ",
				"energy": -0.29832,
				"method": "rhf"
			},
			{
				"type": "occ",
				"energy": -0.2806,
				"method": "rhf"
			},
			{
				"type": "occ",
				"energy": -0.27818,
				"method": "rhf"
			},
			{
				"type": "occ",
				"energy": -0.2319,
				"method": "rhf"
			},
			{
				"type": "occ",
				"energy": -0.23094,
				"method": "rhf"
			},
			{
				"type": "unocc",
				"energy": -0.08777,
				"method": "rhf"
			},
			{
				"type": "unocc",
				"energy": -0.01721,
				"method": "rhf"
			},
			{
				"type": "unocc",
				"energy": 0.00663,
				"method": "rhf"
			},
			{
				"type": "unocc",
				"energy": 0.04814,
				"method": "rhf"
			},
			{
				"type": "unocc",
				"energy": 0.07735,
				"method": "rhf"
			}
		],
		"cosmo_sigma_profile": { 
			"-0.025": 0.0,
			"-0.024": 0.0,
			"-0.023": 0.0,
			"-0.022": 0.0,
			"-0.021": 0.0,
			"-0.02": 0.0,
			"-0.019": 0.0,
			"-0.018": 0.0,
			"-0.017": 0.0,
			"-0.016": 0.0,
			"-0.015": 0.0,
			"-0.014": 0.0,
			"-0.013": 0.0,
			"-0.012": 0.0,
			"-0.011": 0.0,
			"-0.01": 0.0,
			"-0.009": 0.0,
			"-0.008": 1.11680555721,
			"-0.007": 4.02542153684,
			"-0.006": 17.525588153,
			"-0.005": 29.4372764448,
			"-0.004": 27.9991606694,
			"-0.003": 27.7032446281,
			"-0.002": 18.8365447553,
			"-0.001": 17.2847304595,
			"0.0": 14.4508685902,
			"0.001": 12.8283257696,
			"0.002": 12.8049055374,
			"0.003": 19.5543178783,
			"0.004": 12.7463463459,
			"0.005": 7.11394921274,
			"0.006": 5.351033292,
			"0.007": 7.24235525042,
			"0.008": 12.9804158781,
			"0.009": 8.48275407906,
			"0.01": 7.14047195878,
			"0.011": 1.69308624737,
			"0.012": 0.0,
			"0.013": 0.0,
			"0.014": 0.0,
			"0.015": 0.0,
			"0.016": 0.0,
			"0.017": 0.0,
			"0.018": 0.0,
			"0.019": 0.0,
			"0.02": 0.0,
			"0.021": 0.0,
			"0.022": 0.0,
			"0.023": 0.0,
			"0.024": 0.0,
			"0.025": 0.0
		}
	}
}
