{
	 "smiles": "ON=CC1=CC=C(OC2=NC=CC=N2)C=C1", 
	 "Tm": 451.15, 
	 "num_atms": 25, 
	 "gaussian": { 
		 "optdone": 1, 
		 "sigma_profile": "yes", 
		 "theory": "DFT", 
		 "functional": "B3LYP", 
		 "basiset": "6-31G**", 
		 "properties": { 
			 "R2extent": 5976.9581, 
			 "electric_dipole_moment_norm": 2.62839982118, 
			 "electric_quadrupole_moment_norm": 17.2679100901, 
			 "total_energy": -739.223791897, 
			 "HOMO_LUMO_gap": 0.17256, 
			 "cosmo_polarized_energy": -14.72, 
			 "cosmo_cavitation_energy": 31.26, 
			 "cosmo_dispersion_energy": -22.81, 
			 "cosmo_repulsion_energy": 1.79, 
			 "cosmo_total_nonelectrostatic_energy": 10.24, 
			 "SMD_solvation_energy": 3.8 
		},
		"coords": [
			{
				"x": -0.6536492642,
				"y": -3.5622447038,
				"z": 3.752984109,
				"element": "O" 
			},
			{
				"x": -0.4240555481,
				"y": -2.6863046595,
				"z": 2.6847922905,
				"element": "N" 
			},
			{
				"x": -1.4217322418,
				"y": -1.8986988288,
				"z": 2.5174743536,
				"element": "C" 
			},
			{
				"x": -1.4308899563,
				"y": -0.8846343573,
				"z": 1.4603519212,
				"element": "C" 
			},
			{
				"x": -2.5490298987,
				"y": -0.0490263115,
				"z": 1.3244471403,
				"element": "C" 
			},
			{
				"x": -2.5950139973,
				"y": 0.9289766504,
				"z": 0.3323914861,
				"element": "C" 
			},
			{
				"x": -1.5145751511,
				"y": 1.0735566351,
				"z": -0.5323309796,
				"element": "C" 
			},
			{
				"x": -1.6539163051,
				"y": 1.9884799912,
				"z": -1.5701052649,
				"element": "O" 
			},
			{
				"x": -0.7625369316,
				"y": 2.9936893503,
				"z": -1.7501941058,
				"element": "C" 
			},
			{
				"x": -0.9823622697,
				"y": 3.693912259,
				"z": -2.8676665241,
				"element": "N" 
			},
			{
				"x": -0.1457595479,
				"y": 4.711970045,
				"z": -3.0758340219,
				"element": "C" 
			},
			{
				"x": 0.8921979311,
				"y": 5.0327528985,
				"z": -2.1989097207,
				"element": "C" 
			},
			{
				"x": 1.0109321568,
				"y": 4.2210402239,
				"z": -1.0750460013,
				"element": "C" 
			},
			{
				"x": 0.1863754036,
				"y": 3.1943399947,
				"z": -0.8361006717,
				"element": "N" 
			},
			{
				"x": -0.392163691,
				"y": 0.2465283449,
				"z": -0.424442594,
				"element": "C" 
			},
			{
				"x": -0.3534215931,
				"y": -0.7221963159,
				"z": 0.5684505308,
				"element": "C" 
			},
			{
				"x": 0.1569976652,
				"y": -4.0882232037,
				"z": 3.7696733941,
				"element": "H" 
			},
			{
				"x": -2.2952458532,
				"y": -1.9721868755,
				"z": 3.1706828036,
				"element": "H" 
			},
			{
				"x": -3.3910417275,
				"y": -0.1645771949,
				"z": 2.001693803,
				"element": "H" 
			},
			{
				"x": -3.4573442714,
				"y": 1.5765460622,
				"z": 0.2162303461,
				"element": "H" 
			},
			{
				"x": -0.3144677833,
				"y": 5.2915526175,
				"z": -3.9820312788,
				"element": "H" 
			},
			{
				"x": 1.5643583429,
				"y": 5.8623904401,
				"z": -2.3828993533,
				"element": "H" 
			},
			{
				"x": 1.7884675239,
				"y": 4.3921578829,
				"z": -0.3325873263,
				"element": "H" 
			},
			{
				"x": 0.4367891021,
				"y": 0.368218131,
				"z": -1.1121034567,
				"element": "H" 
			},
			{
				"x": 0.5103879057,
				"y": -1.3708190759,
				"z": 0.665379121,
				"element": "H" 
			}
		],
		 "valence_orbital": [ 
			{
				"type": "occ",
				"energy": -0.27809,
				"method": "rhf"
			},
			{
				"type": "occ",
				"energy": -0.26319,
				"method": "rhf"
			},
			{
				"type": "occ",
				"energy": -0.26099,
				"method": "rhf"
			},
			{
				"type": "occ",
				"energy": -0.25414,
				"method": "rhf"
			},
			{
				"type": "occ",
				"energy": -0.21907,
				"method": "rhf"
			},
			{
				"type": "unocc",
				"energy": -0.04651,
				"method": "rhf"
			},
			{
				"type": "unocc",
				"energy": -0.04117,
				"method": "rhf"
			},
			{
				"type": "unocc",
				"energy": -0.01541,
				"method": "rhf"
			},
			{
				"type": "unocc",
				"energy": -0.00575,
				"method": "rhf"
			},
			{
				"type": "unocc",
				"energy": 0.0533,
				"method": "rhf"
			}
		],
		"cosmo_sigma_profile": { 
			"-0.025": 0.0,
			"-0.024": 0.0,
			"-0.023": 0.0,
			"-0.022": 0.0,
			"-0.021": 0.0,
			"-0.02": 0.0,
			"-0.019": 0.0,
			"-0.018": 0.148691474942,
			"-0.017": 1.02038378316,
			"-0.016": 0.893840330387,
			"-0.015": 1.16143492022,
			"-0.014": 0.537184669958,
			"-0.013": 0.643066169326,
			"-0.012": 1.03717014737,
			"-0.011": 0.301207125518,
			"-0.01": 0.663641529693,
			"-0.009": 0.864082562282,
			"-0.008": 8.09460050055,
			"-0.007": 15.0996261737,
			"-0.006": 15.7055441224,
			"-0.005": 14.0518844875,
			"-0.004": 13.0457374956,
			"-0.003": 13.4666910874,
			"-0.002": 13.2021769136,
			"-0.001": 17.7739948361,
			"0.0": 17.5741675133,
			"0.001": 17.6640448925,
			"0.002": 17.3513044193,
			"0.003": 19.55307367,
			"0.004": 12.1168527626,
			"0.005": 9.56280580952,
			"0.006": 7.40076974938,
			"0.007": 3.77039653678,
			"0.008": 6.44690308876,
			"0.009": 7.26927374575,
			"0.01": 5.11288220056,
			"0.011": 3.96485643171,
			"0.012": 2.73321046102,
			"0.013": 1.500849014,
			"0.014": 0.97403197145,
			"0.015": 0.779826447672,
			"0.016": 0.0661186941826,
			"0.017": 0.0,
			"0.018": 0.0,
			"0.019": 0.0,
			"0.02": 0.0,
			"0.021": 0.0,
			"0.022": 0.0,
			"0.023": 0.0,
			"0.024": 0.0,
			"0.025": 0.0
		}
	}
}
