{
	 "smiles": "O=N(=O)C1=CC=CC(=C1)S(=O)(=O)NCCNS(=O)(=O)C1=CC(=CC=C1)N(=O)=O", 
	 "Tm": 463.15, 
	 "num_atms": 42, 
	 "gaussian": { 
		 "optdone": 1, 
		 "sigma_profile": "yes", 
		 "theory": "DFT", 
		 "functional": "B3LYP", 
		 "basiset": "6-31G**", 
		 "properties": { 
			 "R2extent": 14442.5177, 
			 "electric_dipole_moment_norm": 7.17667936096, 
			 "electric_quadrupole_moment_norm": 33.9360838684, 
			 "total_energy": -2158.74918967, 
			 "HOMO_LUMO_gap": 0.17315, 
			 "cosmo_polarized_energy": -30.68, 
			 "cosmo_cavitation_energy": 51.6, 
			 "cosmo_dispersion_energy": -35.07, 
			 "cosmo_repulsion_energy": 2.55, 
			 "cosmo_total_nonelectrostatic_energy": 19.07, 
			 "SMD_solvation_energy": 10.71 
		},
		"coords": [
			{
				"x": 3.3690273225,
				"y": 5.105011592,
				"z": 0.1060238255,
				"element": "O" 
			},
			{
				"x": 3.3334935773,
				"y": 4.2978806883,
				"z": -0.8199525439,
				"element": "N" 
			},
			{
				"x": 3.6063009028,
				"y": 4.5515655396,
				"z": -1.9911942823,
				"element": "O" 
			},
			{
				"x": 2.9282087402,
				"y": 2.9150130388,
				"z": -0.5013758024,
				"element": "C" 
			},
			{
				"x": 2.8540951046,
				"y": 1.9790714901,
				"z": -1.5304485439,
				"element": "C" 
			},
			{
				"x": 2.4727522984,
				"y": 0.6726008726,
				"z": -1.2237156078,
				"element": "C" 
			},
			{
				"x": 2.1760750607,
				"y": 0.3156792911,
				"z": 0.0918481425,
				"element": "C" 
			},
			{
				"x": 2.2499578251,
				"y": 1.2866252475,
				"z": 1.0959883621,
				"element": "C" 
			},
			{
				"x": 2.6315342605,
				"y": 2.5967460537,
				"z": 0.8215765922,
				"element": "C" 
			},
			{
				"x": 1.8663980936,
				"y": 0.8444431474,
				"z": 2.7964848545,
				"element": "S" 
			},
			{
				"x": 2.1984719861,
				"y": 2.0007175518,
				"z": 3.6326238267,
				"element": "O" 
			},
			{
				"x": 2.4055848745,
				"y": -0.4905056401,
				"z": 3.0633581528,
				"element": "O" 
			},
			{
				"x": 0.1641092618,
				"y": 0.6835119658,
				"z": 2.7606223328,
				"element": "N" 
			},
			{
				"x": -0.4337437868,
				"y": -0.5141702999,
				"z": 3.3991677923,
				"element": "C" 
			},
			{
				"x": -0.4783085193,
				"y": -1.7015554571,
				"z": 2.4398079898,
				"element": "C" 
			},
			{
				"x": -1.2129827189,
				"y": -1.2911916011,
				"z": 1.2217194181,
				"element": "N" 
			},
			{
				"x": -1.0952005831,
				"y": -2.3621922796,
				"z": -0.0804217249,
				"element": "S" 
			},
			{
				"x": 0.0761034165,
				"y": -2.0439850259,
				"z": -0.9141066702,
				"element": "O" 
			},
			{
				"x": -1.2804020175,
				"y": -3.7054136659,
				"z": 0.4706773551,
				"element": "O" 
			},
			{
				"x": -2.5552024463,
				"y": -1.9154520574,
				"z": -1.02881155,
				"element": "C" 
			},
			{
				"x": -2.4157808267,
				"y": -1.0790617093,
				"z": -2.1319299169,
				"element": "C" 
			},
			{
				"x": -3.567249163,
				"y": -0.7622018158,
				"z": -2.8480656263,
				"element": "C" 
			},
			{
				"x": -4.8216259966,
				"y": -1.2594344008,
				"z": -2.5028981042,
				"element": "C" 
			},
			{
				"x": -4.9286345674,
				"y": -2.1062889898,
				"z": -1.3990934867,
				"element": "C" 
			},
			{
				"x": -3.7963971293,
				"y": -2.4402346757,
				"z": -0.655924462,
				"element": "C" 
			},
			{
				"x": -3.4477270793,
				"y": 0.1285907976,
				"z": -4.0184427287,
				"element": "N" 
			},
			{
				"x": -2.3292127485,
				"y": 0.5602207918,
				"z": -4.2887291095,
				"element": "O" 
			},
			{
				"x": -4.4750010053,
				"y": 0.3826103865,
				"z": -4.6432033199,
				"element": "O" 
			},
			{
				"x": 3.0929045616,
				"y": 2.2837563354,
				"z": -2.5417753387,
				"element": "H" 
			},
			{
				"x": 2.4033556633,
				"y": -0.0742741125,
				"z": -2.0070699744,
				"element": "H" 
			},
			{
				"x": 1.8878884866,
				"y": -0.704357414,
				"z": 0.3183336693,
				"element": "H" 
			},
			{
				"x": 2.7052992099,
				"y": 3.3431065171,
				"z": 1.6022104273,
				"element": "H" 
			},
			{
				"x": -0.2267808884,
				"y": 1.552098538,
				"z": 3.1170006675,
				"element": "H" 
			},
			{
				"x": 0.0966224995,
				"y": -0.8118529301,
				"z": 4.3091976212,
				"element": "H" 
			},
			{
				"x": -1.4523692893,
				"y": -0.2242562988,
				"z": 3.672832852,
				"element": "H" 
			},
			{
				"x": 0.5432404338,
				"y": -2.0349116851,
				"z": 2.2278083058,
				"element": "H" 
			},
			{
				"x": -1.0139725191,
				"y": -2.5304316244,
				"z": 2.9076637944,
				"element": "H" 
			},
			{
				"x": -0.8875976332,
				"y": -0.3697857784,
				"z": 0.9219356863,
				"element": "H" 
			},
			{
				"x": -1.4508939686,
				"y": -0.6959460487,
				"z": -2.4382715985,
				"element": "H" 
			},
			{
				"x": -5.6825930217,
				"y": -0.9837688535,
				"z": -3.0990256128,
				"element": "H" 
			},
			{
				"x": -5.8967904229,
				"y": -2.5100784583,
				"z": -1.1220658836,
				"element": "H" 
			},
			{
				"x": -3.8626572484,
				"y": -3.1088990229,
				"z": 0.1953402195,
				"element": "H" 
			}
		],
		 "valence_orbital": [ 
			{
				"type": "occ",
				"energy": -0.30787,
				"method": "rhf"
			},
			{
				"type": "occ",
				"energy": -0.30368,
				"method": "rhf"
			},
			{
				"type": "occ",
				"energy": -0.30017,
				"method": "rhf"
			},
			{
				"type": "occ",
				"energy": -0.2916,
				"method": "rhf"
			},
			{
				"type": "occ",
				"energy": -0.28386,
				"method": "rhf"
			},
			{
				"type": "unocc",
				"energy": -0.11071,
				"method": "rhf"
			},
			{
				"type": "unocc",
				"energy": -0.10393,
				"method": "rhf"
			},
			{
				"type": "unocc",
				"energy": -0.06833,
				"method": "rhf"
			},
			{
				"type": "unocc",
				"energy": -0.062,
				"method": "rhf"
			},
			{
				"type": "unocc",
				"energy": -0.02857,
				"method": "rhf"
			}
		],
		"cosmo_sigma_profile": { 
			"-0.025": 0.0,
			"-0.024": 0.0,
			"-0.023": 0.0,
			"-0.022": 0.0,
			"-0.021": 0.0,
			"-0.02": 0.0,
			"-0.019": 0.0,
			"-0.018": 0.0,
			"-0.017": 0.0,
			"-0.016": 0.0979857226751,
			"-0.015": 1.1332131773,
			"-0.014": 1.2894284802,
			"-0.013": 1.42806680765,
			"-0.012": 1.91909210145,
			"-0.011": 1.3553248966,
			"-0.01": 2.98127758061,
			"-0.009": 6.50122747376,
			"-0.008": 15.1390926314,
			"-0.007": 18.8369967629,
			"-0.006": 24.2775772714,
			"-0.005": 26.724607982,
			"-0.004": 25.9618604096,
			"-0.003": 30.224128012,
			"-0.002": 32.5995710896,
			"-0.001": 31.6218946051,
			"0.0": 27.7509779528,
			"0.001": 15.5371401825,
			"0.002": 12.7373469258,
			"0.003": 12.2167577518,
			"0.004": 11.6215955856,
			"0.005": 11.9532900235,
			"0.006": 16.1648406782,
			"0.007": 24.7856484203,
			"0.008": 16.7634209801,
			"0.009": 15.8673094143,
			"0.01": 15.2260820603,
			"0.011": 10.1684065483,
			"0.012": 0.621633619142,
			"0.013": 0.0,
			"0.014": 0.0,
			"0.015": 0.0,
			"0.016": 0.0,
			"0.017": 0.0,
			"0.018": 0.0,
			"0.019": 0.0,
			"0.02": 0.0,
			"0.021": 0.0,
			"0.022": 0.0,
			"0.023": 0.0,
			"0.024": 0.0,
			"0.025": 0.0
		}
	}
}
