{
	 "smiles": "NC1=CC2=CC=CC=C2N=C1", 
	 "Tm": 365.95, 
	 "num_atms": 19, 
	 "gaussian": { 
		 "optdone": 1, 
		 "sigma_profile": "yes", 
		 "theory": "DFT", 
		 "functional": "B3LYP", 
		 "basiset": "6-31G**", 
		 "properties": { 
			 "R2extent": 1949.9262, 
			 "electric_dipole_moment_norm": 3.05400376555, 
			 "electric_quadrupole_moment_norm": 14.5027207461, 
			 "total_energy": -457.29037169, 
			 "HOMO_LUMO_gap": 0.16165, 
			 "cosmo_polarized_energy": -11.62, 
			 "cosmo_cavitation_energy": 22.76, 
			 "cosmo_dispersion_energy": -17.29, 
			 "cosmo_repulsion_energy": 1.37, 
			 "cosmo_total_nonelectrostatic_energy": 6.83, 
			 "SMD_solvation_energy": 2.22 
		},
		"coords": [
			{
				"x": -1.0972818275,
				"y": -0.3828367005,
				"z": -3.2050435458,
				"element": "N" 
			},
			{
				"x": -1.1479905964,
				"y": -0.2852633868,
				"z": -1.8173764818,
				"element": "C" 
			},
			{
				"x": -0.5004355441,
				"y": 0.7052315764,
				"z": -1.1022224182,
				"element": "C" 
			},
			{
				"x": -0.5510494292,
				"y": 0.697152723,
				"z": 0.312684518,
				"element": "C" 
			},
			{
				"x": 0.0871026297,
				"y": 1.6762296633,
				"z": 1.1210268754,
				"element": "C" 
			},
			{
				"x": -0.0021465558,
				"y": 1.6166127139,
				"z": 2.4944309067,
				"element": "C" 
			},
			{
				"x": -0.7319704753,
				"y": 0.5794252145,
				"z": 3.1265277142,
				"element": "C" 
			},
			{
				"x": -1.3623069525,
				"y": -0.3837699157,
				"z": 2.3696734006,
				"element": "C" 
			},
			{
				"x": -1.2879921198,
				"y": -0.3491372753,
				"z": 0.953824107,
				"element": "C" 
			},
			{
				"x": -1.927770757,
				"y": -1.3218873443,
				"z": 0.237783855,
				"element": "N" 
			},
			{
				"x": -1.8517493884,
				"y": -1.2822613672,
				"z": -1.0705988747,
				"element": "C" 
			},
			{
				"x": -0.8770327789,
				"y": 0.4729288229,
				"z": -3.6952954793,
				"element": "H" 
			},
			{
				"x": -1.8659434255,
				"y": -0.8804368501,
				"z": -3.6331007421,
				"element": "H" 
			},
			{
				"x": 0.051599278,
				"y": 1.4897982338,
				"z": -1.615686697,
				"element": "H" 
			},
			{
				"x": 0.6480315999,
				"y": 2.4728965366,
				"z": 0.63851344,
				"element": "H" 
			},
			{
				"x": 0.4910456457,
				"y": 2.3707870035,
				"z": 3.1013401742,
				"element": "H" 
			},
			{
				"x": -0.7912956196,
				"y": 0.5482511828,
				"z": 4.2104704827,
				"element": "H" 
			},
			{
				"x": -1.9288332527,
				"y": -1.1907277894,
				"z": 2.8234986639,
				"element": "H" 
			},
			{
				"x": -2.3673804306,
				"y": -2.0749930413,
				"z": -1.6168498987,
				"element": "H" 
			}
		],
		 "valence_orbital": [ 
			{
				"type": "occ",
				"energy": -0.32013,
				"method": "rhf"
			},
			{
				"type": "occ",
				"energy": -0.27665,
				"method": "rhf"
			},
			{
				"type": "occ",
				"energy": -0.24929,
				"method": "rhf"
			},
			{
				"type": "occ",
				"energy": -0.23199,
				"method": "rhf"
			},
			{
				"type": "occ",
				"energy": -0.20336,
				"method": "rhf"
			},
			{
				"type": "unocc",
				"energy": -0.04171,
				"method": "rhf"
			},
			{
				"type": "unocc",
				"energy": -0.00059,
				"method": "rhf"
			},
			{
				"type": "unocc",
				"energy": 0.0295,
				"method": "rhf"
			},
			{
				"type": "unocc",
				"energy": 0.07192,
				"method": "rhf"
			},
			{
				"type": "unocc",
				"energy": 0.10317,
				"method": "rhf"
			}
		],
		"cosmo_sigma_profile": { 
			"-0.025": 0.0,
			"-0.024": 0.0,
			"-0.023": 0.0,
			"-0.022": 0.0,
			"-0.021": 0.0,
			"-0.02": 0.0,
			"-0.019": 0.0,
			"-0.018": 0.0,
			"-0.017": 0.0,
			"-0.016": 0.0,
			"-0.015": 0.0,
			"-0.014": 0.0,
			"-0.013": 1.46600775925,
			"-0.012": 3.49111369623,
			"-0.011": 2.776854409,
			"-0.01": 3.04664357888,
			"-0.009": 3.61705134032,
			"-0.008": 2.95620551942,
			"-0.007": 4.46272707538,
			"-0.006": 9.29683494063,
			"-0.005": 11.8521565879,
			"-0.004": 11.4749836521,
			"-0.003": 10.5119536761,
			"-0.002": 9.24222453536,
			"-0.001": 7.37940852623,
			"0.0": 8.30512443271,
			"0.001": 8.98844656908,
			"0.002": 14.1867638789,
			"0.003": 15.9756179524,
			"0.004": 19.1793890676,
			"0.005": 12.5953135079,
			"0.006": 5.47369665912,
			"0.007": 2.24086478114,
			"0.008": 2.19479824836,
			"0.009": 2.14380487306,
			"0.01": 2.29588022596,
			"0.011": 1.39595240883,
			"0.012": 1.24605081687,
			"0.013": 1.41731297242,
			"0.014": 0.849921515442,
			"0.015": 1.08923566057,
			"0.016": 0.778148621655,
			"0.017": 0.139567843146,
			"0.018": 0.0,
			"0.019": 0.0,
			"0.02": 0.0,
			"0.021": 0.0,
			"0.022": 0.0,
			"0.023": 0.0,
			"0.024": 0.0,
			"0.025": 0.0
		}
	}
}
