{
	 "smiles": "COC1=CC=C2C(=O)C(C)=C(OC2=C1CN(C)C)C1=CC=CC=C1", 
	 "Tm": 383.15, 
	 "num_atms": 45, 
	 "gaussian": { 
		 "optdone": 1, 
		 "sigma_profile": "yes", 
		 "theory": "DFT", 
		 "functional": "B3LYP", 
		 "basiset": "6-31G**", 
		 "properties": { 
			 "R2extent": 8729.2613, 
			 "electric_dipole_moment_norm": 4.29110147748, 
			 "electric_quadrupole_moment_norm": 18.1986086589, 
			 "total_energy": -1055.19029274, 
			 "HOMO_LUMO_gap": 0.16076, 
			 "cosmo_polarized_energy": -12.59, 
			 "cosmo_cavitation_energy": 46.91, 
			 "cosmo_dispersion_energy": -31.48, 
			 "cosmo_repulsion_energy": 2.35, 
			 "cosmo_total_nonelectrostatic_energy": 17.79, 
			 "SMD_solvation_energy": 9.24 
		},
		"coords": [
			{
				"x": -2.6619129028,
				"y": -2.453890332,
				"z": -3.1756601667,
				"element": "C" 
			},
			{
				"x": -2.0995371569,
				"y": -1.1371815928,
				"z": -3.1591685011,
				"element": "O" 
			},
			{
				"x": -2.0150505486,
				"y": -0.5471274504,
				"z": -1.9228648981,
				"element": "C" 
			},
			{
				"x": -3.1680495806,
				"y": 0.0163098519,
				"z": -1.3459603122,
				"element": "C" 
			},
			{
				"x": -3.0770792828,
				"y": 0.6860311653,
				"z": -0.1397641105,
				"element": "C" 
			},
			{
				"x": -1.8381065455,
				"y": 0.8145550947,
				"z": 0.5083634056,
				"element": "C" 
			},
			{
				"x": -1.7203612059,
				"y": 1.5297804584,
				"z": 1.7907882731,
				"element": "C" 
			},
			{
				"x": -2.6964118895,
				"y": 2.0260332991,
				"z": 2.3589541333,
				"element": "O" 
			},
			{
				"x": -0.3629716426,
				"y": 1.6059029617,
				"z": 2.3583459174,
				"element": "C" 
			},
			{
				"x": -0.2504285654,
				"y": 2.2882703478,
				"z": 3.6960310223,
				"element": "C" 
			},
			{
				"x": 0.6817959808,
				"y": 1.0462723171,
				"z": 1.6855895251,
				"element": "C" 
			},
			{
				"x": 0.5228657859,
				"y": 0.3591463563,
				"z": 0.507905094,
				"element": "O" 
			},
			{
				"x": -0.7054094962,
				"y": 0.2435288185,
				"z": -0.0851074556,
				"element": "C" 
			},
			{
				"x": -0.7614947606,
				"y": -0.4601626821,
				"z": -1.3032477689,
				"element": "C" 
			},
			{
				"x": 0.4545195103,
				"y": -1.0815326508,
				"z": -1.9544529921,
				"element": "C" 
			},
			{
				"x": 0.4673509483,
				"y": -2.5516472163,
				"z": -1.8550449173,
				"element": "N" 
			},
			{
				"x": 0.677958871,
				"y": -3.0165412059,
				"z": -0.4897870633,
				"element": "C" 
			},
			{
				"x": 1.4577381148,
				"y": -3.1228929287,
				"z": -2.760181533,
				"element": "C" 
			},
			{
				"x": 2.1088194081,
				"y": 1.048687469,
				"z": 2.0813238303,
				"element": "C" 
			},
			{
				"x": 2.8830942112,
				"y": -0.1129012005,
				"z": 1.9170220403,
				"element": "C" 
			},
			{
				"x": 4.2285479345,
				"y": -0.1231938726,
				"z": 2.2770060658,
				"element": "C" 
			},
			{
				"x": 4.8271477289,
				"y": 1.0284217427,
				"z": 2.7935468439,
				"element": "C" 
			},
			{
				"x": 4.0715829097,
				"y": 2.1921643662,
				"z": 2.9438073107,
				"element": "C" 
			},
			{
				"x": 2.7227545864,
				"y": 2.2044013428,
				"z": 2.5900054497,
				"element": "C" 
			},
			{
				"x": -3.6632282092,
				"y": -2.4669149057,
				"z": -2.7267953835,
				"element": "H" 
			},
			{
				"x": -2.7377433628,
				"y": -2.7406899308,
				"z": -4.2265174923,
				"element": "H" 
			},
			{
				"x": -2.0023657436,
				"y": -3.1488343211,
				"z": -2.6455957753,
				"element": "H" 
			},
			{
				"x": -4.1113010516,
				"y": -0.0651464049,
				"z": -1.8765123904,
				"element": "H" 
			},
			{
				"x": -3.9414068103,
				"y": 1.1388657756,
				"z": 0.3342653248,
				"element": "H" 
			},
			{
				"x": -1.1483904282,
				"y": 2.0635543392,
				"z": 4.2768354048,
				"element": "H" 
			},
			{
				"x": -0.2216388392,
				"y": 3.379561282,
				"z": 3.5894463431,
				"element": "H" 
			},
			{
				"x": 0.6346558611,
				"y": 1.9744434157,
				"z": 4.2514777634,
				"element": "H" 
			},
			{
				"x": 0.4256547082,
				"y": -0.8357941737,
				"z": -3.0197873987,
				"element": "H" 
			},
			{
				"x": 1.3717282915,
				"y": -0.6376638368,
				"z": -1.5336368747,
				"element": "H" 
			},
			{
				"x": -0.0895468055,
				"y": -2.6046959074,
				"z": 0.1706154501,
				"element": "H" 
			},
			{
				"x": 1.6696711476,
				"y": -2.7349934047,
				"z": -0.084651003,
				"element": "H" 
			},
			{
				"x": 0.6007759705,
				"y": -4.1081727609,
				"z": -0.4582434937,
				"element": "H" 
			},
			{
				"x": 2.4949987883,
				"y": -2.8140106381,
				"z": -2.5259658325,
				"element": "H" 
			},
			{
				"x": 1.2384121377,
				"y": -2.8216610916,
				"z": -3.7892677379,
				"element": "H" 
			},
			{
				"x": 1.4146888952,
				"y": -4.2156121462,
				"z": -2.7089161696,
				"element": "H" 
			},
			{
				"x": 2.4206525081,
				"y": -1.0071104348,
				"z": 1.5133700082,
				"element": "H" 
			},
			{
				"x": 4.8111796821,
				"y": -1.0315393413,
				"z": 2.1539287646,
				"element": "H" 
			},
			{
				"x": 5.877104113,
				"y": 1.0199650593,
				"z": 3.0712662275,
				"element": "H" 
			},
			{
				"x": 4.5333315892,
				"y": 3.0964991404,
				"z": 3.3290624889,
				"element": "H" 
			},
			{
				"x": 2.1498051456,
				"y": 3.1200158263,
				"z": 2.6849725836,
				"element": "H" 
			}
		],
		 "valence_orbital": [ 
			{
				"type": "occ",
				"energy": -0.25,
				"method": "rhf"
			},
			{
				"type": "occ",
				"energy": -0.23936,
				"method": "rhf"
			},
			{
				"type": "occ",
				"energy": -0.2356,
				"method": "rhf"
			},
			{
				"type": "occ",
				"energy": -0.2259,
				"method": "rhf"
			},
			{
				"type": "occ",
				"energy": -0.21762,
				"method": "rhf"
			},
			{
				"type": "unocc",
				"energy": -0.05686,
				"method": "rhf"
			},
			{
				"type": "unocc",
				"energy": -0.0239,
				"method": "rhf"
			},
			{
				"type": "unocc",
				"energy": -0.0121,
				"method": "rhf"
			},
			{
				"type": "unocc",
				"energy": -0.00409,
				"method": "rhf"
			},
			{
				"type": "unocc",
				"energy": 0.0187,
				"method": "rhf"
			}
		],
		"cosmo_sigma_profile": { 
			"-0.025": 0.0,
			"-0.024": 0.0,
			"-0.023": 0.0,
			"-0.022": 0.0,
			"-0.021": 0.0,
			"-0.02": 0.0,
			"-0.019": 0.0,
			"-0.018": 0.0,
			"-0.017": 0.0,
			"-0.016": 0.0,
			"-0.015": 0.0,
			"-0.014": 0.0,
			"-0.013": 0.0,
			"-0.012": 0.0,
			"-0.011": 0.0,
			"-0.01": 0.0,
			"-0.009": 0.0,
			"-0.008": 0.0,
			"-0.007": 1.55243042507,
			"-0.006": 11.2582367505,
			"-0.005": 20.5983670789,
			"-0.004": 32.2594341752,
			"-0.003": 35.611024997,
			"-0.002": 48.0088815349,
			"-0.001": 44.7360377669,
			"0.0": 44.6417411365,
			"0.001": 28.6204059634,
			"0.002": 23.3070774063,
			"0.003": 22.0035880861,
			"0.004": 19.1356019882,
			"0.005": 10.8097548345,
			"0.006": 5.19793552705,
			"0.007": 3.98706204362,
			"0.008": 2.61675340555,
			"0.009": 2.85949820944,
			"0.01": 2.39636314792,
			"0.011": 3.0524424353,
			"0.012": 2.33560053004,
			"0.013": 4.26070389285,
			"0.014": 2.79646931777,
			"0.015": 0.0181120589857,
			"0.016": 0.0,
			"0.017": 0.0,
			"0.018": 0.0,
			"0.019": 0.0,
			"0.02": 0.0,
			"0.021": 0.0,
			"0.022": 0.0,
			"0.023": 0.0,
			"0.024": 0.0,
			"0.025": 0.0
		}
	}
}
