{
	 "smiles": "COC1=CC(=CC=C1C#N)[N+]([O-])=O", 
	 "Tm": 451.65, 
	 "num_atms": 19, 
	 "gaussian": { 
		 "optdone": 1, 
		 "sigma_profile": "yes", 
		 "theory": "DFT", 
		 "functional": "B3LYP", 
		 "basiset": "6-31G**", 
		 "properties": { 
			 "R2extent": 3284.5034, 
			 "electric_dipole_moment_norm": 1.86406668604, 
			 "electric_quadrupole_moment_norm": 27.7529533517, 
			 "total_energy": -643.508372781, 
			 "HOMO_LUMO_gap": 0.15202, 
			 "cosmo_polarized_energy": -13.52, 
			 "cosmo_cavitation_energy": 25.65, 
			 "cosmo_dispersion_energy": -18.08, 
			 "cosmo_repulsion_energy": 1.44, 
			 "cosmo_total_nonelectrostatic_energy": 9.0, 
			 "SMD_solvation_energy": 8.95 
		},
		"coords": [
			{
				"x": -1.0682636177,
				"y": 1.0181715868,
				"z": -1.984763105,
				"element": "C" 
			},
			{
				"x": -0.2168502546,
				"y": -0.0344979595,
				"z": -1.5344825758,
				"element": "O" 
			},
			{
				"x": 0.6700102681,
				"y": 0.2217731417,
				"z": -0.5532509496,
				"element": "C" 
			},
			{
				"x": 0.8268363011,
				"y": 1.4610796822,
				"z": 0.0724418339,
				"element": "C" 
			},
			{
				"x": 1.7850267672,
				"y": 1.5867720541,
				"z": 1.0751148609,
				"element": "C" 
			},
			{
				"x": 2.5992977488,
				"y": 0.5381101212,
				"z": 1.4896710823,
				"element": "C" 
			},
			{
				"x": 2.4392830126,
				"y": -0.694035048,
				"z": 0.863617841,
				"element": "C" 
			},
			{
				"x": 1.4869434679,
				"y": -0.8662240665,
				"z": -0.1509042236,
				"element": "C" 
			},
			{
				"x": 1.336267839,
				"y": -2.1408778916,
				"z": -0.7838196389,
				"element": "C" 
			},
			{
				"x": 1.2371622379,
				"y": -3.188336763,
				"z": -1.2792907492,
				"element": "N" 
			},
			{
				"x": 1.9363702289,
				"y": 2.9047363923,
				"z": 1.724952331,
				"element": "N" 
			},
			{
				"x": 2.784399162,
				"y": 3.0066737968,
				"z": 2.6082730504,
				"element": "O" 
			},
			{
				"x": 1.2043904332,
				"y": 3.8156925814,
				"z": 1.3408709708,
				"element": "O" 
			},
			{
				"x": -1.6866375172,
				"y": 0.5796963964,
				"z": -2.7674298029,
				"element": "H" 
			},
			{
				"x": -0.4862496659,
				"y": 1.8491048124,
				"z": -2.3995030733,
				"element": "H" 
			},
			{
				"x": -1.7081732113,
				"y": 1.3850118616,
				"z": -1.1741170729,
				"element": "H" 
			},
			{
				"x": 0.233424552,
				"y": 2.324519825,
				"z": -0.1920438477,
				"element": "H" 
			},
			{
				"x": 3.3270777344,
				"y": 0.6947350157,
				"z": 2.2743750868,
				"element": "H" 
			},
			{
				"x": 3.0525845137,
				"y": -1.539505539,
				"z": 1.1547879817,
				"element": "H" 
			}
		],
		 "valence_orbital": [ 
			{
				"type": "occ",
				"energy": -0.3249,
				"method": "rhf"
			},
			{
				"type": "occ",
				"energy": -0.32227,
				"method": "rhf"
			},
			{
				"type": "occ",
				"energy": -0.30639,
				"method": "rhf"
			},
			{
				"type": "occ",
				"energy": -0.29403,
				"method": "rhf"
			},
			{
				"type": "occ",
				"energy": -0.26388,
				"method": "rhf"
			},
			{
				"type": "unocc",
				"energy": -0.11186,
				"method": "rhf"
			},
			{
				"type": "unocc",
				"energy": -0.04249,
				"method": "rhf"
			},
			{
				"type": "unocc",
				"energy": -0.03099,
				"method": "rhf"
			},
			{
				"type": "unocc",
				"energy": 0.02275,
				"method": "rhf"
			},
			{
				"type": "unocc",
				"energy": 0.06603,
				"method": "rhf"
			}
		],
		"cosmo_sigma_profile": { 
			"-0.025": 0.0,
			"-0.024": 0.0,
			"-0.023": 0.0,
			"-0.022": 0.0,
			"-0.021": 0.0,
			"-0.02": 0.0,
			"-0.019": 0.0,
			"-0.018": 0.0,
			"-0.017": 0.0,
			"-0.016": 0.0,
			"-0.015": 0.0,
			"-0.014": 0.0,
			"-0.013": 0.0,
			"-0.012": 0.0,
			"-0.011": 0.0,
			"-0.01": 0.223018478078,
			"-0.009": 3.42662087364,
			"-0.008": 7.26926647729,
			"-0.007": 13.5786749333,
			"-0.006": 12.8825135932,
			"-0.005": 14.1784645578,
			"-0.004": 12.7417917889,
			"-0.003": 13.5473171731,
			"-0.002": 21.5653091793,
			"-0.001": 16.9967154682,
			"0.0": 11.4785610604,
			"0.001": 6.67397995075,
			"0.002": 5.32411296704,
			"0.003": 5.19092965964,
			"0.004": 5.18927595416,
			"0.005": 8.16661744753,
			"0.006": 9.51284039824,
			"0.007": 14.8527594988,
			"0.008": 8.62539829538,
			"0.009": 7.12582837135,
			"0.01": 3.40280470288,
			"0.011": 2.68789266611,
			"0.012": 2.16614886692,
			"0.013": 0.447304083971,
			"0.014": 0.0,
			"0.015": 0.0,
			"0.016": 0.0,
			"0.017": 0.0,
			"0.018": 0.0,
			"0.019": 0.0,
			"0.02": 0.0,
			"0.021": 0.0,
			"0.022": 0.0,
			"0.023": 0.0,
			"0.024": 0.0,
			"0.025": 0.0
		}
	}
}
