{
	 "smiles": "C[C@]1(CCC[C@]2(C)[C@@H]1CCC13CC(CC[C@@]21O)C(=C)[C@@H]3O)C(=O)O[C@@H]1OC(CO)C(O)C(O)C1O", 
	 "Tm": 492.15, 
	 "num_atms": 75, 
	 "gaussian": { 
		 "optdone": 1, 
		 "sigma_profile": "yes", 
		 "theory": "DFT", 
		 "functional": "B3LYP", 
		 "basiset": "6-31G**", 
		 "properties": { 
			 "R2extent": 19764.6911, 
			 "electric_dipole_moment_norm": 5.30187996186, 
			 "electric_quadrupole_moment_norm": 22.895738308, 
			 "total_energy": -1691.82951098, 
			 "HOMO_LUMO_gap": 0.22988, 
			 "cosmo_polarized_energy": -25.0, 
			 "cosmo_cavitation_energy": 63.2, 
			 "cosmo_dispersion_energy": -42.65, 
			 "cosmo_repulsion_energy": 3.09, 
			 "cosmo_total_nonelectrostatic_energy": 23.64, 
			 "SMD_solvation_energy": 9.57 
		},
		"coords": [
			{
				"x": 2.0097085152,
				"y": 2.5785719629,
				"z": -0.8958318883,
				"element": "C" 
			},
			{
				"x": 1.3020630519,
				"y": 1.1959967131,
				"z": -0.9085439052,
				"element": "C" 
			},
			{
				"x": 1.8997316419,
				"y": 0.3588069133,
				"z": -2.0637336812,
				"element": "C" 
			},
			{
				"x": 1.426297877,
				"y": -1.0962202145,
				"z": -2.0662111558,
				"element": "C" 
			},
			{
				"x": 1.7396586476,
				"y": -1.7714416153,
				"z": -0.7257004285,
				"element": "C" 
			},
			{
				"x": 1.1189010204,
				"y": -1.0464082556,
				"z": 0.5065330895,
				"element": "C" 
			},
			{
				"x": -0.4136522703,
				"y": -1.2627613422,
				"z": 0.4327889248,
				"element": "C" 
			},
			{
				"x": 1.579951805,
				"y": 0.4552052072,
				"z": 0.4538807097,
				"element": "C" 
			},
			{
				"x": 1.2101077142,
				"y": 1.2902618984,
				"z": 1.7158550683,
				"element": "C" 
			},
			{
				"x": 0.6361425674,
				"y": 0.4718922951,
				"z": 2.8749777695,
				"element": "C" 
			},
			{
				"x": 1.3918970189,
				"y": -0.8296215709,
				"z": 3.1668908993,
				"element": "C" 
			},
			{
				"x": 0.6301594044,
				"y": -1.7232199592,
				"z": 4.1848945701,
				"element": "C" 
			},
			{
				"x": 1.7000611502,
				"y": -2.7738438283,
				"z": 4.5384320228,
				"element": "C" 
			},
			{
				"x": 1.8308412913,
				"y": -3.7707400355,
				"z": 3.3494685949,
				"element": "C" 
			},
			{
				"x": 1.3233897621,
				"y": -3.1503908107,
				"z": 2.0329286366,
				"element": "C" 
			},
			{
				"x": 1.7388731112,
				"y": -1.6720882269,
				"z": 1.842297354,
				"element": "C" 
			},
			{
				"x": 3.1784882849,
				"y": -1.6404478945,
				"z": 1.7217552756,
				"element": "O" 
			},
			{
				"x": 2.9532036876,
				"y": -1.9181232069,
				"z": 4.6729580848,
				"element": "C" 
			},
			{
				"x": 4.0772452618,
				"y": -2.2432946637,
				"z": 5.3147223401,
				"element": "C" 
			},
			{
				"x": 2.6972263989,
				"y": -0.5774170177,
				"z": 3.9980078969,
				"element": "C" 
			},
			{
				"x": 2.3965691291,
				"y": 0.4142217113,
				"z": 4.9986691702,
				"element": "O" 
			},
			{
				"x": -0.1823761098,
				"y": 1.5197617415,
				"z": -1.1309027908,
				"element": "C" 
			},
			{
				"x": -0.9139514877,
				"y": 2.0428563388,
				"z": -0.3123237529,
				"element": "O" 
			},
			{
				"x": -0.606615911,
				"y": 1.2375043897,
				"z": -2.3980848932,
				"element": "O" 
			},
			{
				"x": -1.979209979,
				"y": 1.5058607889,
				"z": -2.6705298656,
				"element": "C" 
			},
			{
				"x": -2.7249777417,
				"y": 0.4671199653,
				"z": -2.0806059931,
				"element": "O" 
			},
			{
				"x": -4.1487589265,
				"y": 0.7450860216,
				"z": -2.0419351036,
				"element": "C" 
			},
			{
				"x": -4.5184331326,
				"y": 1.3859963997,
				"z": -0.7031392626,
				"element": "C" 
			},
			{
				"x": -3.8377528151,
				"y": 2.6053363391,
				"z": -0.4642875089,
				"element": "O" 
			},
			{
				"x": -4.565813002,
				"y": 1.5608807327,
				"z": -3.2776338251,
				"element": "C" 
			},
			{
				"x": -5.9192986366,
				"y": 1.2597311463,
				"z": -3.5616054545,
				"element": "O" 
			},
			{
				"x": -3.6736219997,
				"y": 1.1744204082,
				"z": -4.4685067474,
				"element": "C" 
			},
			{
				"x": -4.1464253113,
				"y": 1.774551274,
				"z": -5.6612523727,
				"element": "O" 
			},
			{
				"x": -2.1925120673,
				"y": 1.5346667606,
				"z": -4.1880175895,
				"element": "C" 
			},
			{
				"x": -1.9743229508,
				"y": 2.8506503731,
				"z": -4.6974561905,
				"element": "O" 
			},
			{
				"x": 1.9090374155,
				"y": 3.0719126117,
				"z": -1.8690532842,
				"element": "H" 
			},
			{
				"x": 3.0772256362,
				"y": 2.4412327993,
				"z": -0.6972938999,
				"element": "H" 
			},
			{
				"x": 1.597511691,
				"y": 3.2422709397,
				"z": -0.1339973373,
				"element": "H" 
			},
			{
				"x": 1.6908413108,
				"y": 0.8382007664,
				"z": -3.0244709784,
				"element": "H" 
			},
			{
				"x": 2.9903883869,
				"y": 0.3751814664,
				"z": -1.935742977,
				"element": "H" 
			},
			{
				"x": 0.3554375421,
				"y": -1.1422838293,
				"z": -2.2876642922,
				"element": "H" 
			},
			{
				"x": 1.9306485627,
				"y": -1.6438363961,
				"z": -2.8718914702,
				"element": "H" 
			},
			{
				"x": 2.8307371033,
				"y": -1.7906904709,
				"z": -0.6217831018,
				"element": "H" 
			},
			{
				"x": 1.399282448,
				"y": -2.812811859,
				"z": -0.7579926051,
				"element": "H" 
			},
			{
				"x": -0.8696990189,
				"y": -0.7362991387,
				"z": -0.4068558133,
				"element": "H" 
			},
			{
				"x": -0.6389781628,
				"y": -2.3228397767,
				"z": 0.2799671147,
				"element": "H" 
			},
			{
				"x": -0.9446654482,
				"y": -0.9418012713,
				"z": 1.328041881,
				"element": "H" 
			},
			{
				"x": 2.6731180757,
				"y": 0.3698433141,
				"z": 0.4568165535,
				"element": "H" 
			},
			{
				"x": 0.4844470832,
				"y": 2.0636382364,
				"z": 1.4652872977,
				"element": "H" 
			},
			{
				"x": 2.1124140014,
				"y": 1.8061313593,
				"z": 2.0643231308,
				"element": "H" 
			},
			{
				"x": 0.6502999541,
				"y": 1.07852304,
				"z": 3.7832249327,
				"element": "H" 
			},
			{
				"x": -0.417166743,
				"y": 0.2487239988,
				"z": 2.6845485152,
				"element": "H" 
			},
			{
				"x": -0.2986508834,
				"y": -2.1501035491,
				"z": 3.796502929,
				"element": "H" 
			},
			{
				"x": 0.3787790598,
				"y": -1.111731262,
				"z": 5.05602743,
				"element": "H" 
			},
			{
				"x": 1.492110566,
				"y": -3.3243716155,
				"z": 5.4616546965,
				"element": "H" 
			},
			{
				"x": 1.2422728892,
				"y": -4.6722726319,
				"z": 3.55630044,
				"element": "H" 
			},
			{
				"x": 2.8734273811,
				"y": -4.0898483911,
				"z": 3.255314576,
				"element": "H" 
			},
			{
				"x": 1.6836667907,
				"y": -3.7446891323,
				"z": 1.1839275022,
				"element": "H" 
			},
			{
				"x": 0.2348386422,
				"y": -3.2278740235,
				"z": 2.0021592366,
				"element": "H" 
			},
			{
				"x": 3.4463757972,
				"y": -2.3893818786,
				"z": 1.1762595856,
				"element": "H" 
			},
			{
				"x": 4.1861564859,
				"y": -3.1872160439,
				"z": 5.8433129923,
				"element": "H" 
			},
			{
				"x": 4.9401525198,
				"y": -1.5808952704,
				"z": 5.3254183254,
				"element": "H" 
			},
			{
				"x": 3.5401369954,
				"y": -0.2408666937,
				"z": 3.3925639409,
				"element": "H" 
			},
			{
				"x": 2.967305849,
				"y": 0.2220602883,
				"z": 5.7534348169,
				"element": "H" 
			},
			{
				"x": -2.2432392465,
				"y": 2.4800951287,
				"z": -2.2515769354,
				"element": "H" 
			},
			{
				"x": -4.6381326544,
				"y": -0.2320775009,
				"z": -2.1221146556,
				"element": "H" 
			},
			{
				"x": -5.5921415561,
				"y": 1.6057838903,
				"z": -0.7116380745,
				"element": "H" 
			},
			{
				"x": -4.3295042754,
				"y": 0.6572755141,
				"z": 0.0988926315,
				"element": "H" 
			},
			{
				"x": -2.9144045414,
				"y": 2.3955784433,
				"z": -0.2437971611,
				"element": "H" 
			},
			{
				"x": -4.4464615727,
				"y": 2.6367228677,
				"z": -3.0707527022,
				"element": "H" 
			},
			{
				"x": -6.0764740776,
				"y": 1.6075043762,
				"z": -4.4531822288,
				"element": "H" 
			},
			{
				"x": -3.7546594454,
				"y": 0.0898966285,
				"z": -4.6022731686,
				"element": "H" 
			},
			{
				"x": -3.6469387441,
				"y": 2.6027304002,
				"z": -5.754183505,
				"element": "H" 
			},
			{
				"x": -1.528508987,
				"y": 0.8110181583,
				"z": -4.6764212925,
				"element": "H" 
			},
			{
				"x": -1.0275818303,
				"y": 2.9849057681,
				"z": -4.822351043,
				"element": "H" 
			}
		],
		 "valence_orbital": [ 
			{
				"type": "occ",
				"energy": -0.25761,
				"method": "rhf"
			},
			{
				"type": "occ",
				"energy": -0.25653,
				"method": "rhf"
			},
			{
				"type": "occ",
				"energy": -0.25487,
				"method": "rhf"
			},
			{
				"type": "occ",
				"energy": -0.24227,
				"method": "rhf"
			},
			{
				"type": "occ",
				"energy": -0.24153,
				"method": "rhf"
			},
			{
				"type": "unocc",
				"energy": -0.01165,
				"method": "rhf"
			},
			{
				"type": "unocc",
				"energy": 0.01053,
				"method": "rhf"
			},
			{
				"type": "unocc",
				"energy": 0.04298,
				"method": "rhf"
			},
			{
				"type": "unocc",
				"energy": 0.06352,
				"method": "rhf"
			},
			{
				"type": "unocc",
				"energy": 0.07603,
				"method": "rhf"
			}
		],
		"cosmo_sigma_profile": { 
			"-0.025": 0.0,
			"-0.024": 0.0,
			"-0.023": 0.0,
			"-0.022": 0.0,
			"-0.021": 0.0,
			"-0.02": 0.0,
			"-0.019": 0.0,
			"-0.018": 0.0,
			"-0.017": 0.730481116974,
			"-0.016": 0.687698688718,
			"-0.015": 1.07172108221,
			"-0.014": 1.54162114644,
			"-0.013": 2.55999447091,
			"-0.012": 2.90845628123,
			"-0.011": 3.13983294601,
			"-0.01": 4.0407680849,
			"-0.009": 4.19593498561,
			"-0.008": 3.90813807241,
			"-0.007": 4.40402131272,
			"-0.006": 8.92375781428,
			"-0.005": 16.6143318064,
			"-0.004": 30.4816544477,
			"-0.003": 48.894720635,
			"-0.002": 53.7879815415,
			"-0.001": 54.6168099093,
			"0.0": 55.7791736735,
			"0.001": 47.4754220614,
			"0.002": 27.2037917388,
			"0.003": 17.7556315751,
			"0.004": 15.993105391,
			"0.005": 14.6353865709,
			"0.006": 11.4760907921,
			"0.007": 11.1716778775,
			"0.008": 8.18552468993,
			"0.009": 6.34544993705,
			"0.01": 6.644752683,
			"0.011": 7.41117753198,
			"0.012": 4.90651783454,
			"0.013": 5.20790385942,
			"0.014": 2.55389986085,
			"0.015": 0.445283422589,
			"0.016": 0.0,
			"0.017": 0.0,
			"0.018": 0.0,
			"0.019": 0.0,
			"0.02": 0.0,
			"0.021": 0.0,
			"0.022": 0.0,
			"0.023": 0.0,
			"0.024": 0.0,
			"0.025": 0.0
		}
	}
}
