{
	 "smiles": "OC(=O)C1=CN2C(C=C1)=NN=C2C1CC1", 
	 "Tm": 564.15, 
	 "num_atms": 24, 
	 "gaussian": { 
		 "optdone": 1, 
		 "sigma_profile": "yes", 
		 "theory": "DFT", 
		 "functional": "B3LYP", 
		 "basiset": "6-31G**", 
		 "properties": { 
			 "R2extent": 3728.3021, 
			 "electric_dipole_moment_norm": 1.50386144641, 
			 "electric_quadrupole_moment_norm": 26.6705988737, 
			 "total_energy": -701.138800472, 
			 "HOMO_LUMO_gap": 0.15761, 
			 "cosmo_polarized_energy": -23.46, 
			 "cosmo_cavitation_energy": 29.08, 
			 "cosmo_dispersion_energy": -21.09, 
			 "cosmo_repulsion_energy": 1.63, 
			 "cosmo_total_nonelectrostatic_energy": 9.62, 
			 "SMD_solvation_energy": 3.91 
		},
		"coords": [
			{
				"x": 2.4760225527,
				"y": 1.2883955648,
				"z": -3.969586151,
				"element": "O" 
			},
			{
				"x": 1.5362392668,
				"y": 1.6987161661,
				"z": -3.0808549314,
				"element": "C" 
			},
			{
				"x": 1.2371400285,
				"y": 2.868239517,
				"z": -3.0115598751,
				"element": "O" 
			},
			{
				"x": 0.9189964855,
				"y": 0.6446718768,
				"z": -2.2146437719,
				"element": "C" 
			},
			{
				"x": 0.2376933042,
				"y": 1.0937483437,
				"z": -1.114272492,
				"element": "C" 
			},
			{
				"x": -0.3432223954,
				"y": 0.1887604381,
				"z": -0.2696279687,
				"element": "N" 
			},
			{
				"x": -0.267458396,
				"y": -1.2002165502,
				"z": -0.4770226537,
				"element": "C" 
			},
			{
				"x": 0.413087685,
				"y": -1.6714313292,
				"z": -1.6296889665,
				"element": "C" 
			},
			{
				"x": 0.9919831529,
				"y": -0.7677844633,
				"z": -2.477749617,
				"element": "C" 
			},
			{
				"x": -0.894920035,
				"y": -1.8328069844,
				"z": 0.4981939796,
				"element": "N" 
			},
			{
				"x": -1.39466706,
				"y": -0.8767472531,
				"z": 1.3422283042,
				"element": "N" 
			},
			{
				"x": -1.074239989,
				"y": 0.3232588038,
				"z": 0.8974729989,
				"element": "C" 
			},
			{
				"x": -1.3845106158,
				"y": 1.6151146144,
				"z": 1.5325673459,
				"element": "C" 
			},
			{
				"x": -2.2014600818,
				"y": 1.6205491118,
				"z": 2.803469912,
				"element": "C" 
			},
			{
				"x": -0.745187581,
				"y": 1.9722970089,
				"z": 2.8723373138,
				"element": "C" 
			},
			{
				"x": 2.7245422906,
				"y": 0.3676478273,
				"z": -3.8099075029,
				"element": "H" 
			},
			{
				"x": 0.1465680755,
				"y": 2.1476112135,
				"z": -0.8849514209,
				"element": "H" 
			},
			{
				"x": 0.4437932302,
				"y": -2.7396526026,
				"z": -1.8079899833,
				"element": "H" 
			},
			{
				"x": 1.4748774624,
				"y": -1.1300271622,
				"z": -3.3808581102,
				"element": "H" 
			},
			{
				"x": -1.5458671795,
				"y": 2.4386585593,
				"z": 0.8411254784,
				"element": "H" 
			},
			{
				"x": -2.9338439059,
				"y": 2.4130839708,
				"z": 2.9170513504,
				"element": "H" 
			},
			{
				"x": -2.5075473193,
				"y": 0.6501403892,
				"z": 3.1782026585,
				"element": "H" 
			},
			{
				"x": -0.0673023858,
				"y": 1.2421028478,
				"z": 3.3023986618,
				"element": "H" 
			},
			{
				"x": -0.4613165899,
				"y": 3.0086700916,
				"z": 3.0279654411,
				"element": "H" 
			}
		],
		 "valence_orbital": [ 
			{
				"type": "occ",
				"energy": -0.3182,
				"method": "rhf"
			},
			{
				"type": "occ",
				"energy": -0.29163,
				"method": "rhf"
			},
			{
				"type": "occ",
				"energy": -0.2801,
				"method": "rhf"
			},
			{
				"type": "occ",
				"energy": -0.26164,
				"method": "rhf"
			},
			{
				"type": "occ",
				"energy": -0.23148,
				"method": "rhf"
			},
			{
				"type": "unocc",
				"energy": -0.07387,
				"method": "rhf"
			},
			{
				"type": "unocc",
				"energy": -0.04742,
				"method": "rhf"
			},
			{
				"type": "unocc",
				"energy": 0.02056,
				"method": "rhf"
			},
			{
				"type": "unocc",
				"energy": 0.04182,
				"method": "rhf"
			},
			{
				"type": "unocc",
				"energy": 0.05258,
				"method": "rhf"
			}
		],
		"cosmo_sigma_profile": { 
			"-0.025": 0.0,
			"-0.024": 0.0,
			"-0.023": 0.0,
			"-0.022": 0.0,
			"-0.021": 0.0,
			"-0.02": 0.140827946953,
			"-0.019": 0.948410916448,
			"-0.018": 0.744232635335,
			"-0.017": 1.54533205363,
			"-0.016": 0.782148936434,
			"-0.015": 0.934644218133,
			"-0.014": 1.05321109251,
			"-0.013": 1.16744567015,
			"-0.012": 1.09923094285,
			"-0.011": 1.93145558124,
			"-0.01": 1.15379259292,
			"-0.009": 2.85782131586,
			"-0.008": 9.2329874942,
			"-0.007": 9.02785023401,
			"-0.006": 9.48524349424,
			"-0.005": 14.1903018864,
			"-0.004": 19.0534376293,
			"-0.003": 16.6417806929,
			"-0.002": 16.4683151782,
			"-0.001": 18.1549570706,
			"0.0": 16.8886666172,
			"0.001": 12.0378478469,
			"0.002": 9.92994752768,
			"0.003": 6.68057005247,
			"0.004": 5.50659065757,
			"0.005": 5.12520176519,
			"0.006": 4.70067555746,
			"0.007": 3.83276420404,
			"0.008": 4.47211442129,
			"0.009": 5.63502960336,
			"0.01": 7.25257404659,
			"0.011": 7.38432839129,
			"0.012": 5.77853964015,
			"0.013": 4.37344126299,
			"0.014": 2.73987202219,
			"0.015": 2.28242794382,
			"0.016": 1.43060576567,
			"0.017": 0.529493159924,
			"0.018": 0.0,
			"0.019": 0.0,
			"0.02": 0.0,
			"0.021": 0.0,
			"0.022": 0.0,
			"0.023": 0.0,
			"0.024": 0.0,
			"0.025": 0.0
		}
	}
}
