{
	 "smiles": "CC(C)(C)OC(=O)NC1=CC=CO1", 
	 "Tm": 372.15, 
	 "num_atms": 26, 
	 "gaussian": { 
		 "optdone": 1, 
		 "sigma_profile": "yes", 
		 "theory": "DFT", 
		 "functional": "B3LYP", 
		 "basiset": "6-31G**", 
		 "properties": { 
			 "R2extent": 3782.8824, 
			 "electric_dipole_moment_norm": 1.50846555479, 
			 "electric_quadrupole_moment_norm": 11.160584633, 
			 "total_energy": -631.216137287, 
			 "HOMO_LUMO_gap": 0.20994, 
			 "cosmo_polarized_energy": -10.48, 
			 "cosmo_cavitation_energy": 29.45, 
			 "cosmo_dispersion_energy": -20.7, 
			 "cosmo_repulsion_energy": 1.64, 
			 "cosmo_total_nonelectrostatic_energy": 10.4, 
			 "SMD_solvation_energy": 7.39 
		},
		"coords": [
			{
				"x": -0.7397329457,
				"y": -3.088463225,
				"z": 0.9550313297,
				"element": "C" 
			},
			{
				"x": 0.6135889569,
				"y": -2.5417789072,
				"z": 0.4903140887,
				"element": "C" 
			},
			{
				"x": 1.2250802101,
				"y": -1.6213423515,
				"z": 1.5489353413,
				"element": "C" 
			},
			{
				"x": 1.5910937859,
				"y": -3.6552633021,
				"z": 0.1017250821,
				"element": "C" 
			},
			{
				"x": 0.4197895769,
				"y": -1.6235806441,
				"z": -0.6488229571,
				"element": "O" 
			},
			{
				"x": -0.1073026153,
				"y": -2.0593037743,
				"z": -1.7981301836,
				"element": "C" 
			},
			{
				"x": -0.4793437924,
				"y": -3.1907645264,
				"z": -2.0629797208,
				"element": "O" 
			},
			{
				"x": -0.2078424567,
				"y": -1.0487738301,
				"z": -2.7429691123,
				"element": "N" 
			},
			{
				"x": 0.1247951755,
				"y": 0.3016153639,
				"z": -2.7309559678,
				"element": "C" 
			},
			{
				"x": -0.0122042837,
				"y": 1.2349297281,
				"z": -3.7229771428,
				"element": "C" 
			},
			{
				"x": 0.4890380691,
				"y": 2.4599573269,
				"z": -3.1683877847,
				"element": "C" 
			},
			{
				"x": 0.8856643572,
				"y": 2.1790647045,
				"z": -1.9010222522,
				"element": "C" 
			},
			{
				"x": 0.6652819643,
				"y": 0.8484420632,
				"z": -1.6199846344,
				"element": "O" 
			},
			{
				"x": -0.6021844475,
				"y": -3.6743437138,
				"z": 1.8696105674,
				"element": "H" 
			},
			{
				"x": -1.1878530199,
				"y": -3.7259633958,
				"z": 0.1924787443,
				"element": "H" 
			},
			{
				"x": -1.4252509545,
				"y": -2.265206457,
				"z": 1.179298653,
				"element": "H" 
			},
			{
				"x": 0.543143663,
				"y": -0.7997504023,
				"z": 1.7851745239,
				"element": "H" 
			},
			{
				"x": 2.1660556894,
				"y": -1.1944571003,
				"z": 1.1909007197,
				"element": "H" 
			},
			{
				"x": 1.4235530964,
				"y": -2.1850233069,
				"z": 2.4653583376,
				"element": "H" 
			},
			{
				"x": 2.5276957096,
				"y": -3.2264659601,
				"z": -0.2682667707,
				"element": "H" 
			},
			{
				"x": 1.1662864921,
				"y": -4.2987460046,
				"z": -0.6690928276,
				"element": "H" 
			},
			{
				"x": 1.8208333991,
				"y": -4.2632017692,
				"z": 0.9827884355,
				"element": "H" 
			},
			{
				"x": -0.6063333973,
				"y": -1.3850276,
				"z": -3.6072885278,
				"element": "H" 
			},
			{
				"x": -0.4144008406,
				"y": 1.0733710947,
				"z": -4.712278774,
				"element": "H" 
			},
			{
				"x": 0.5421758811,
				"y": 3.4206711299,
				"z": -3.6601335291,
				"element": "H" 
			},
			{
				"x": 1.319472727,
				"y": 2.7528048596,
				"z": -1.0986256384,
				"element": "H" 
			}
		],
		 "valence_orbital": [ 
			{
				"type": "occ",
				"energy": -0.31751,
				"method": "rhf"
			},
			{
				"type": "occ",
				"energy": -0.29084,
				"method": "rhf"
			},
			{
				"type": "occ",
				"energy": -0.27509,
				"method": "rhf"
			},
			{
				"type": "occ",
				"energy": -0.27038,
				"method": "rhf"
			},
			{
				"type": "occ",
				"energy": -0.19805,
				"method": "rhf"
			},
			{
				"type": "unocc",
				"energy": 0.01189,
				"method": "rhf"
			},
			{
				"type": "unocc",
				"energy": 0.05759,
				"method": "rhf"
			},
			{
				"type": "unocc",
				"energy": 0.07793,
				"method": "rhf"
			},
			{
				"type": "unocc",
				"energy": 0.09105,
				"method": "rhf"
			},
			{
				"type": "unocc",
				"energy": 0.09706,
				"method": "rhf"
			}
		],
		"cosmo_sigma_profile": { 
			"-0.025": 0.0,
			"-0.024": 0.0,
			"-0.023": 0.0,
			"-0.022": 0.0,
			"-0.021": 0.0,
			"-0.02": 0.0,
			"-0.019": 0.0,
			"-0.018": 0.0,
			"-0.017": 0.00156337286276,
			"-0.016": 0.538951037131,
			"-0.015": 1.08730883489,
			"-0.014": 0.696076047347,
			"-0.013": 1.00512112698,
			"-0.012": 0.900504326422,
			"-0.011": 0.842282135082,
			"-0.01": 1.31457344949,
			"-0.009": 1.28446489955,
			"-0.008": 3.37455754239,
			"-0.007": 5.41491486654,
			"-0.006": 5.09887152424,
			"-0.005": 6.50373152985,
			"-0.004": 17.5266188541,
			"-0.003": 20.1212794416,
			"-0.002": 19.6411549474,
			"-0.001": 24.507980592,
			"0.0": 30.7602382053,
			"0.001": 21.2936516609,
			"0.002": 11.6163229361,
			"0.003": 10.3580087097,
			"0.004": 10.1119584682,
			"0.005": 9.19676467299,
			"0.006": 7.95552544017,
			"0.007": 4.05324133221,
			"0.008": 2.39401844738,
			"0.009": 3.76895959218,
			"0.01": 3.06613148659,
			"0.011": 1.65495404044,
			"0.012": 2.75917517817,
			"0.013": 3.22328614246,
			"0.014": 0.176120599302,
			"0.015": 0.0,
			"0.016": 0.0,
			"0.017": 0.0,
			"0.018": 0.0,
			"0.019": 0.0,
			"0.02": 0.0,
			"0.021": 0.0,
			"0.022": 0.0,
			"0.023": 0.0,
			"0.024": 0.0,
			"0.025": 0.0
		}
	}
}
