{
	 "smiles": "CC1=C(C(Cl)=CC(Cl)=C1)S(N)(=O)=O", 
	 "Tm": 442.15, 
	 "num_atms": 20, 
	 "gaussian": { 
		 "optdone": 1, 
		 "sigma_profile": "yes", 
		 "theory": "DFT", 
		 "functional": "B3LYP", 
		 "basiset": "6-31G**", 
		 "properties": { 
			 "R2extent": 3929.7243, 
			 "electric_dipole_moment_norm": 4.2958631042, 
			 "electric_quadrupole_moment_norm": 19.4591490043, 
			 "total_energy": -1794.65771229, 
			 "HOMO_LUMO_gap": 0.21238, 
			 "cosmo_polarized_energy": -15.82, 
			 "cosmo_cavitation_energy": 28.18, 
			 "cosmo_dispersion_energy": -21.66, 
			 "cosmo_repulsion_energy": 1.65, 
			 "cosmo_total_nonelectrostatic_energy": 8.18, 
			 "SMD_solvation_energy": 3.96 
		},
		"coords": [
			{
				"x": 0.9208750108,
				"y": 1.0583599479,
				"z": -1.7152243024,
				"element": "C" 
			},
			{
				"x": 0.3161038895,
				"y": 0.4079698775,
				"z": -0.4883343438,
				"element": "C" 
			},
			{
				"x": -0.2853212112,
				"y": -0.8759905808,
				"z": -0.4552131405,
				"element": "C" 
			},
			{
				"x": -0.8510182954,
				"y": -1.3276584953,
				"z": 0.7531143238,
				"element": "C" 
			},
			{
				"x": -1.6629314858,
				"y": -2.8825685384,
				"z": 0.9034457957,
				"element": "Cl" 
			},
			{
				"x": -0.805239832,
				"y": -0.5745036634,
				"z": 1.9228370871,
				"element": "C" 
			},
			{
				"x": -0.1943375346,
				"y": 0.6727071568,
				"z": 1.8777558882,
				"element": "C" 
			},
			{
				"x": -0.1212206298,
				"y": 1.6431890691,
				"z": 3.331255673,
				"element": "Cl" 
			},
			{
				"x": 0.3506705905,
				"y": 1.1583874782,
				"z": 0.6959697385,
				"element": "C" 
			},
			{
				"x": -0.407757068,
				"y": -1.9084572866,
				"z": -1.9606600772,
				"element": "S" 
			},
			{
				"x": 0.2942830093,
				"y": -3.3811652169,
				"z": -1.6049237141,
				"element": "N" 
			},
			{
				"x": -1.8247397488,
				"y": -2.1477265026,
				"z": -2.2047808522,
				"element": "O" 
			},
			{
				"x": 0.4623293138,
				"y": -1.3222035705,
				"z": -2.9769070939,
				"element": "O" 
			},
			{
				"x": 0.2101293181,
				"y": 1.1072851085,
				"z": -2.5419504756,
				"element": "H" 
			},
			{
				"x": 1.2394978195,
				"y": 2.0729553475,
				"z": -1.4655490526,
				"element": "H" 
			},
			{
				"x": 1.7821016879,
				"y": 0.5000378396,
				"z": -2.0869857178,
				"element": "H" 
			},
			{
				"x": -1.243270345,
				"y": -0.9537903541,
				"z": 2.8371745838,
				"element": "H" 
			},
			{
				"x": 0.8081474951,
				"y": 2.1409777755,
				"z": 0.6862136899,
				"element": "H" 
			},
			{
				"x": -0.1797048229,
				"y": -3.9061182718,
				"z": -0.8780113996,
				"element": "H" 
			},
			{
				"x": 1.300802839,
				"y": -3.3227871203,
				"z": -1.4940266101,
				"element": "H" 
			}
		],
		 "valence_orbital": [ 
			{
				"type": "occ",
				"energy": -0.31835,
				"method": "rhf"
			},
			{
				"type": "occ",
				"energy": -0.31136,
				"method": "rhf"
			},
			{
				"type": "occ",
				"energy": -0.30626,
				"method": "rhf"
			},
			{
				"type": "occ",
				"energy": -0.27554,
				"method": "rhf"
			},
			{
				"type": "occ",
				"energy": -0.271,
				"method": "rhf"
			},
			{
				"type": "unocc",
				"energy": -0.05862,
				"method": "rhf"
			},
			{
				"type": "unocc",
				"energy": -0.04192,
				"method": "rhf"
			},
			{
				"type": "unocc",
				"energy": -0.01638,
				"method": "rhf"
			},
			{
				"type": "unocc",
				"energy": 0.02469,
				"method": "rhf"
			},
			{
				"type": "unocc",
				"energy": 0.05632,
				"method": "rhf"
			}
		],
		"cosmo_sigma_profile": { 
			"-0.025": 0.0,
			"-0.024": 0.0,
			"-0.023": 0.0,
			"-0.022": 0.0,
			"-0.021": 0.0,
			"-0.02": 0.0,
			"-0.019": 0.0,
			"-0.018": 0.0,
			"-0.017": 0.0,
			"-0.016": 0.601144544422,
			"-0.015": 1.29603703333,
			"-0.014": 1.75751139029,
			"-0.013": 1.36972325466,
			"-0.012": 2.82048707088,
			"-0.011": 1.88463246724,
			"-0.01": 2.52382236551,
			"-0.009": 4.11665498924,
			"-0.008": 5.14626827678,
			"-0.007": 5.20682274712,
			"-0.006": 6.57623442647,
			"-0.005": 8.0438023347,
			"-0.004": 11.6914849932,
			"-0.003": 14.7442083729,
			"-0.002": 15.2015729403,
			"-0.001": 25.4933733291,
			"0.0": 27.188385739,
			"0.001": 14.5150110892,
			"0.002": 12.2203538631,
			"0.003": 16.2298349421,
			"0.004": 9.57233047544,
			"0.005": 3.2190752275,
			"0.006": 4.04991483286,
			"0.007": 4.73121814241,
			"0.008": 5.90032177684,
			"0.009": 4.44308834082,
			"0.01": 7.94540026973,
			"0.011": 9.61702228234,
			"0.012": 1.44154045875,
			"0.013": 0.0,
			"0.014": 0.0,
			"0.015": 0.0,
			"0.016": 0.0,
			"0.017": 0.0,
			"0.018": 0.0,
			"0.019": 0.0,
			"0.02": 0.0,
			"0.021": 0.0,
			"0.022": 0.0,
			"0.023": 0.0,
			"0.024": 0.0,
			"0.025": 0.0
		}
	}
}
