{
	 "smiles": "CC12CC(=O)CC1(C)CC(=O)C2", 
	 "Tm": 502.15, 
	 "num_atms": 26, 
	 "gaussian": { 
		 "optdone": 1, 
		 "sigma_profile": "yes", 
		 "theory": "DFT", 
		 "functional": "B3LYP", 
		 "basiset": "6-31G**", 
		 "properties": { 
			 "R2extent": 2798.8693, 
			 "electric_dipole_moment_norm": 0.000141421356237, 
			 "electric_quadrupole_moment_norm": 19.3309652915, 
			 "total_energy": -539.934401795, 
			 "HOMO_LUMO_gap": 0.20518, 
			 "cosmo_polarized_energy": -12.09, 
			 "cosmo_cavitation_energy": 26.02, 
			 "cosmo_dispersion_energy": -18.99, 
			 "cosmo_repulsion_energy": 1.49, 
			 "cosmo_total_nonelectrostatic_energy": 8.51, 
			 "SMD_solvation_energy": 5.48 
		},
		"coords": [
			{
				"x": -0.7176783879,
				"y": 1.9531219428,
				"z": 0.6005307601,
				"element": "C" 
			},
			{
				"x": -0.6870541726,
				"y": 1.1239493067,
				"z": -0.7132878393,
				"element": "C" 
			},
			{
				"x": -0.9180695339,
				"y": 2.1106907044,
				"z": -1.8642294416,
				"element": "C" 
			},
			{
				"x": -2.4629655777,
				"y": 2.2739292667,
				"z": -1.8457671722,
				"element": "C" 
			},
			{
				"x": -3.0791563492,
				"y": 3.1470816814,
				"z": -2.4103722768,
				"element": "O" 
			},
			{
				"x": -3.0933935799,
				"y": 1.1412993863,
				"z": -0.9892929078,
				"element": "C" 
			},
			{
				"x": -1.9289035879,
				"y": 0.1517555816,
				"z": -0.8604849941,
				"element": "C" 
			},
			{
				"x": -1.8982488846,
				"y": -0.677438462,
				"z": -2.1742886693,
				"element": "C" 
			},
			{
				"x": -1.6978925638,
				"y": -0.8349707878,
				"z": 0.2904705448,
				"element": "C" 
			},
			{
				"x": -0.1529956246,
				"y": -0.9981955851,
				"z": 0.272031059,
				"element": "C" 
			},
			{
				"x": 0.4631884246,
				"y": -1.8714083025,
				"z": 0.8365491506,
				"element": "O" 
			},
			{
				"x": 0.4774207294,
				"y": 0.1343861675,
				"z": -0.5845118527,
				"element": "C" 
			},
			{
				"x": -0.6880397918,
				"y": 1.3347853448,
				"z": 1.5018349537,
				"element": "H" 
			},
			{
				"x": 0.1697181679,
				"y": 2.5945486763,
				"z": 0.6232302522,
				"element": "H" 
			},
			{
				"x": -1.5886125312,
				"y": 2.609880967,
				"z": 0.6760680241,
				"element": "H" 
			},
			{
				"x": -0.6138893268,
				"y": 1.7220840143,
				"z": -2.8425905577,
				"element": "H" 
			},
			{
				"x": -0.4395076797,
				"y": 3.0862135083,
				"z": -1.7415736006,
				"element": "H" 
			},
			{
				"x": -3.4202943141,
				"y": 1.5607780231,
				"z": -0.0312368256,
				"element": "H" 
			},
			{
				"x": -3.9826989747,
				"y": 0.7480474193,
				"z": -1.4894866731,
				"element": "H" 
			},
			{
				"x": -1.9279166816,
				"y": -0.0591212232,
				"z": -3.0756048409,
				"element": "H" 
			},
			{
				"x": -2.785617133,
				"y": -1.3189049118,
				"z": -2.1969735142,
				"element": "H" 
			},
			{
				"x": -1.0272849036,
				"y": -1.3341601028,
				"z": -2.2498148615,
				"element": "H" 
			},
			{
				"x": -2.1764457817,
				"y": -1.8104985081,
				"z": 0.1678191528,
				"element": "H" 
			},
			{
				"x": -2.0020856825,
				"y": -0.4463567253,
				"z": 1.268824944,
				"element": "H" 
			},
			{
				"x": 0.8042649406,
				"y": -0.2851278188,
				"z": -1.5425724808,
				"element": "H" 
			},
			{
				"x": 1.3667588002,
				"y": 0.5276304368,
				"z": -0.084370333,
				"element": "H" 
			}
		],
		 "valence_orbital": [ 
			{
				"type": "occ",
				"energy": -0.33976,
				"method": "rhf"
			},
			{
				"type": "occ",
				"energy": -0.32924,
				"method": "rhf"
			},
			{
				"type": "occ",
				"energy": -0.30706,
				"method": "rhf"
			},
			{
				"type": "occ",
				"energy": -0.25931,
				"method": "rhf"
			},
			{
				"type": "occ",
				"energy": -0.23621,
				"method": "rhf"
			},
			{
				"type": "unocc",
				"energy": -0.03103,
				"method": "rhf"
			},
			{
				"type": "unocc",
				"energy": -0.01874,
				"method": "rhf"
			},
			{
				"type": "unocc",
				"energy": 0.06049,
				"method": "rhf"
			},
			{
				"type": "unocc",
				"energy": 0.10224,
				"method": "rhf"
			},
			{
				"type": "unocc",
				"energy": 0.10843,
				"method": "rhf"
			}
		],
		"cosmo_sigma_profile": { 
			"-0.025": 0.0,
			"-0.024": 0.0,
			"-0.023": 0.0,
			"-0.022": 0.0,
			"-0.021": 0.0,
			"-0.02": 0.0,
			"-0.019": 0.0,
			"-0.018": 0.0,
			"-0.017": 0.0,
			"-0.016": 0.0,
			"-0.015": 0.0,
			"-0.014": 0.0,
			"-0.013": 0.0,
			"-0.012": 0.0,
			"-0.011": 0.0,
			"-0.01": 0.0,
			"-0.009": 0.0,
			"-0.008": 0.0,
			"-0.007": 1.90993356861,
			"-0.006": 11.5020584621,
			"-0.005": 18.475817247,
			"-0.004": 28.8817791155,
			"-0.003": 28.5362214231,
			"-0.002": 22.0284061827,
			"-0.001": 18.9958615757,
			"0.0": 14.9534289447,
			"0.001": 7.45088348575,
			"0.002": 3.02313781034,
			"0.003": 3.15760015224,
			"0.004": 1.60890272605,
			"0.005": 3.43214506335,
			"0.006": 3.9200753122,
			"0.007": 2.92352486587,
			"0.008": 2.50742109186,
			"0.009": 3.08376353176,
			"0.01": 4.9492358824,
			"0.011": 8.54455724209,
			"0.012": 8.72520260883,
			"0.013": 3.72776058718,
			"0.014": 0.0506185906304,
			"0.015": 0.0,
			"0.016": 0.0,
			"0.017": 0.0,
			"0.018": 0.0,
			"0.019": 0.0,
			"0.02": 0.0,
			"0.021": 0.0,
			"0.022": 0.0,
			"0.023": 0.0,
			"0.024": 0.0,
			"0.025": 0.0
		}
	}
}
