{
	 "smiles": "OC(=O)C1=C(I)C=C(I)C(NC(=O)CCCCC(=O)NC2=C(I)C(C(O)=O)=C(I)C=C2I)=C1I", 
	 "Tm": 580.15, 
	 "num_atms": 48, 
	 "gaussian": { 
		 "optdone": 1, 
		 "sigma_profile": "no", 
		 "theory": "DFT", 
		 "functional": "B3LYP", 
		 "basiset": "6-31G**", 
		 "properties": { 
			 "R2extent": 15555.708, 
			 "electric_dipole_moment_norm": 3.08930081734, 
			 "electric_quadrupole_moment_norm": 32.8074667952, 
			 "total_energy": -1399.73691428, 
			 "HOMO_LUMO_gap": 0.16166, 
			 "cosmo_polarized_energy": -449333.13, 
			 "cosmo_cavitation_energy": 71.21, 
			 "cosmo_dispersion_energy": -46.74, 
			 "cosmo_repulsion_energy": 3.37, 
			 "cosmo_total_nonelectrostatic_energy": 27.84, 
			 "SMD_solvation_energy": 9.48 
		},
		"coords": [
			{
				"x": -2.8536441003,
				"y": -1.393459985,
				"z": -2.30533432,
				"element": "O" 
			},
			{
				"x": -3.5782673121,
				"y": -1.4076172841,
				"z": -1.1769496828,
				"element": "C" 
			},
			{
				"x": -4.4172611675,
				"y": -2.246316182,
				"z": -0.9684194198,
				"element": "O" 
			},
			{
				"x": -3.2968137091,
				"y": -0.3116954311,
				"z": -0.1602805787,
				"element": "C" 
			},
			{
				"x": -3.9257464023,
				"y": 0.9378836088,
				"z": -0.2459974971,
				"element": "C" 
			},
			{
				"x": -5.1044387466,
				"y": 1.464253199,
				"z": -1.9332742302,
				"element": "I" 
			},
			{
				"x": -3.8243602547,
				"y": 1.8736636756,
				"z": 0.7816598136,
				"element": "C" 
			},
			{
				"x": -3.0736454189,
				"y": 1.5702751137,
				"z": 1.9172407752,
				"element": "C" 
			},
			{
				"x": -3.1460866437,
				"y": 2.9396479162,
				"z": 3.5272824348,
				"element": "I" 
			},
			{
				"x": -2.3467938957,
				"y": 0.3665918449,
				"z": 2.0160882307,
				"element": "C" 
			},
			{
				"x": -1.5715789384,
				"y": 0.055677981,
				"z": 3.1526238636,
				"element": "N" 
			},
			{
				"x": -0.2913974768,
				"y": 0.5000423052,
				"z": 3.4985350279,
				"element": "C" 
			},
			{
				"x": 0.2819925598,
				"y": -0.0312745328,
				"z": 4.4344664033,
				"element": "O" 
			},
			{
				"x": 0.3430975427,
				"y": 1.5990096115,
				"z": 2.6642404586,
				"element": "C" 
			},
			{
				"x": 1.144663134,
				"y": 1.0576240302,
				"z": 1.4605559385,
				"element": "C" 
			},
			{
				"x": 2.3571437782,
				"y": 0.195253458,
				"z": 1.8310445606,
				"element": "C" 
			},
			{
				"x": 3.1064160834,
				"y": -0.3163340137,
				"z": 0.588705833,
				"element": "C" 
			},
			{
				"x": 3.8597197292,
				"y": 0.8017186562,
				"z": -0.1196560779,
				"element": "C" 
			},
			{
				"x": 4.5569518692,
				"y": 1.6010084124,
				"z": 0.4811966494,
				"element": "O" 
			},
			{
				"x": 3.7621999938,
				"y": 0.9004531476,
				"z": -1.5099627481,
				"element": "N" 
			},
			{
				"x": 2.8548466136,
				"y": 0.2505474743,
				"z": -2.3738469244,
				"element": "C" 
			},
			{
				"x": 1.7012095221,
				"y": 0.9112993595,
				"z": -2.849475749,
				"element": "C" 
			},
			{
				"x": 1.3946987551,
				"y": 2.9359831696,
				"z": -2.2959154931,
				"element": "I" 
			},
			{
				"x": 0.7807675728,
				"y": 0.2830201275,
				"z": -3.701118164,
				"element": "C" 
			},
			{
				"x": -0.4384883406,
				"y": 1.0218436997,
				"z": -4.1903861423,
				"element": "C" 
			},
			{
				"x": -1.47679699,
				"y": 0.9028945169,
				"z": -3.31576839,
				"element": "O" 
			},
			{
				"x": -0.5100357003,
				"y": 1.6474138898,
				"z": -5.2153780463,
				"element": "O" 
			},
			{
				"x": 1.028820321,
				"y": -1.0380810525,
				"z": -4.1009531329,
				"element": "C" 
			},
			{
				"x": -0.3049466202,
				"y": -2.074161917,
				"z": -5.3728108608,
				"element": "I" 
			},
			{
				"x": 2.1765691672,
				"y": -1.7062690301,
				"z": -3.6763478059,
				"element": "C" 
			},
			{
				"x": 3.0832078052,
				"y": -1.0606766226,
				"z": -2.8363295479,
				"element": "C" 
			},
			{
				"x": 4.8523333356,
				"y": -2.0946301884,
				"z": -2.3217955654,
				"element": "I" 
			},
			{
				"x": -2.4942977322,
				"y": -0.5649565149,
				"z": 0.9634496454,
				"element": "C" 
			},
			{
				"x": -1.4652774429,
				"y": -2.4156757035,
				"z": 1.1064812252,
				"element": "I" 
			},
			{
				"x": -2.2520309247,
				"y": -0.6285493904,
				"z": -2.3616745404,
				"element": "H" 
			},
			{
				"x": -4.3540424592,
				"y": 2.815174749,
				"z": 0.716636643,
				"element": "H" 
			},
			{
				"x": -1.8217582038,
				"y": -0.7868826818,
				"z": 3.6597563314,
				"element": "H" 
			},
			{
				"x": 1.0116154996,
				"y": 2.1413578056,
				"z": 3.3384639645,
				"element": "H" 
			},
			{
				"x": -0.4104448601,
				"y": 2.3028817832,
				"z": 2.3038103611,
				"element": "H" 
			},
			{
				"x": 0.4753377798,
				"y": 0.4874093025,
				"z": 0.8025684722,
				"element": "H" 
			},
			{
				"x": 1.4800479334,
				"y": 1.9243564309,
				"z": 0.8799267901,
				"element": "H" 
			},
			{
				"x": 2.0408165522,
				"y": -0.6615483065,
				"z": 2.4339190353,
				"element": "H" 
			},
			{
				"x": 3.0542193829,
				"y": 0.7760879938,
				"z": 2.4435634996,
				"element": "H" 
			},
			{
				"x": 3.8655738898,
				"y": -1.045855326,
				"z": 0.8938525851,
				"element": "H" 
			},
			{
				"x": 2.4216803565,
				"y": -0.8364239731,
				"z": -0.0878183472,
				"element": "H" 
			},
			{
				"x": 4.223628522,
				"y": 1.7331690655,
				"z": -1.8613339436,
				"element": "H" 
			},
			{
				"x": -2.2280394541,
				"y": 1.4049756364,
				"z": -3.6830911883,
				"element": "H" 
			},
			{
				"x": 2.3706350953,
				"y": -2.717309829,
				"z": -4.0099501462,
				"element": "H" 
			}
		],
		 "valence_orbital": [ 
			{
				"type": "occ",
				"energy": -0.27141,
				"method": "rhf"
			},
			{
				"type": "occ",
				"energy": -0.26767,
				"method": "rhf"
			},
			{
				"type": "occ",
				"energy": -0.2649,
				"method": "rhf"
			},
			{
				"type": "occ",
				"energy": -0.25892,
				"method": "rhf"
			},
			{
				"type": "occ",
				"energy": -0.25613,
				"method": "rhf"
			},
			{
				"type": "unocc",
				"energy": -0.09447,
				"method": "rhf"
			},
			{
				"type": "unocc",
				"energy": -0.09331,
				"method": "rhf"
			},
			{
				"type": "unocc",
				"energy": -0.07018,
				"method": "rhf"
			},
			{
				"type": "unocc",
				"energy": -0.06835,
				"method": "rhf"
			},
			{
				"type": "unocc",
				"energy": -0.0648,
				"method": "rhf"
			}
		],
		"cosmo_sigma_profile": { 
			"0.0": 0.0,
			"0.0": 0.0,
			"0.0": 0.0,
			"0.0": 0.0,
			"0.0": 0.0,
			"0.0": 0.0,
			"0.0": 0.0,
			"0.0": 0.0,
			"0.0": 0.0,
			"0.0": 0.0,
			"0.0": 0.0,
			"0.0": 0.0,
			"0.0": 0.0,
			"0.0": 0.0,
			"0.0": 0.0,
			"0.0": 0.0,
			"0.0": 0.0,
			"0.0": 0.0,
			"0.0": 0.0,
			"0.0": 0.0,
			"0.0": 0.0,
			"0.0": 0.0,
			"0.0": 0.0,
			"0.0": 0.0,
			"0.0": 0.0,
			"0.0": 0.0,
			"0.0": 0.0,
			"0.0": 0.0,
			"0.0": 0.0,
			"0.0": 0.0,
			"0.0": 0.0,
			"0.0": 0.0,
			"0.0": 0.0,
			"0.0": 0.0,
			"0.0": 0.0,
			"0.0": 0.0,
			"0.0": 0.0,
			"0.0": 0.0,
			"0.0": 0.0,
			"0.0": 0.0,
			"0.0": 0.0,
			"0.0": 0.0,
			"0.0": 0.0,
			"0.0": 0.0,
			"0.0": 0.0,
			"0.0": 0.0,
			"0.0": 0.0,
			"0.0": 0.0,
			"0.0": 0.0,
			"0.0": 0.0,
			"0.0": 0.0
		}
	}
}
