{
	 "smiles": "OC(=O)C1=C(F)C=C(F)C=C1F", 
	 "Tm": 415.15, 
	 "num_atms": 15, 
	 "gaussian": { 
		 "optdone": 1, 
		 "sigma_profile": "yes", 
		 "theory": "DFT", 
		 "functional": "B3LYP", 
		 "basiset": "6-31G**", 
		 "properties": { 
			 "R2extent": 2086.9956, 
			 "electric_dipole_moment_norm": 1.66260080897, 
			 "electric_quadrupole_moment_norm": 6.1684400986, 
			 "total_energy": -718.506480859, 
			 "HOMO_LUMO_gap": 0.2154, 
			 "cosmo_polarized_energy": -9.61, 
			 "cosmo_cavitation_energy": 21.87, 
			 "cosmo_dispersion_energy": -15.83, 
			 "cosmo_repulsion_energy": 1.2, 
			 "cosmo_total_nonelectrostatic_energy": 7.23, 
			 "SMD_solvation_energy": 6.5 
		},
		"coords": [
			{
				"x": -1.9307921218,
				"y": -1.5294678949,
				"z": 0.8197282738,
				"element": "O" 
			},
			{
				"x": -1.1431282991,
				"y": -0.4398893228,
				"z": 0.9666373027,
				"element": "C" 
			},
			{
				"x": -1.2254218182,
				"y": 0.300116017,
				"z": 1.9229551831,
				"element": "O" 
			},
			{
				"x": -0.174085152,
				"y": -0.2722813942,
				"z": -0.1537098728,
				"element": "C" 
			},
			{
				"x": 1.0435136772,
				"y": 0.4009492559,
				"z": 0.0596955781,
				"element": "C" 
			},
			{
				"x": 1.3458740844,
				"y": 0.8411123973,
				"z": 1.2832277557,
				"element": "F" 
			},
			{
				"x": 1.9813924377,
				"y": 0.6106158799,
				"z": -0.9425988469,
				"element": "C" 
			},
			{
				"x": 1.6824677122,
				"y": 0.1386386628,
				"z": -2.2147451446,
				"element": "C" 
			},
			{
				"x": 2.5701095563,
				"y": 0.3340375686,
				"z": -3.2001518157,
				"element": "F" 
			},
			{
				"x": 0.4984532204,
				"y": -0.527760636,
				"z": -2.5045818237,
				"element": "C" 
			},
			{
				"x": -0.4032647446,
				"y": -0.7222096326,
				"z": -1.4661267373,
				"element": "C" 
			},
			{
				"x": -1.5490895527,
				"y": -1.3457068773,
				"z": -1.763399313,
				"element": "F" 
			},
			{
				"x": -2.5225450655,
				"y": -1.5261724559,
				"z": 1.5911392919,
				"element": "H" 
			},
			{
				"x": 2.9116288164,
				"y": 1.1220300717,
				"z": -0.731339078,
				"element": "H" 
			},
			{
				"x": 0.2764872491,
				"y": -0.8808116395,
				"z": -3.5034307533,
				"element": "H" 
			}
		],
		 "valence_orbital": [ 
			{
				"type": "occ",
				"energy": -0.36209,
				"method": "rhf"
			},
			{
				"type": "occ",
				"energy": -0.32417,
				"method": "rhf"
			},
			{
				"type": "occ",
				"energy": -0.28691,
				"method": "rhf"
			},
			{
				"type": "occ",
				"energy": -0.27107,
				"method": "rhf"
			},
			{
				"type": "occ",
				"energy": -0.27016,
				"method": "rhf"
			},
			{
				"type": "unocc",
				"energy": -0.05476,
				"method": "rhf"
			},
			{
				"type": "unocc",
				"energy": -0.02439,
				"method": "rhf"
			},
			{
				"type": "unocc",
				"energy": 0.03482,
				"method": "rhf"
			},
			{
				"type": "unocc",
				"energy": 0.06033,
				"method": "rhf"
			},
			{
				"type": "unocc",
				"energy": 0.07885,
				"method": "rhf"
			}
		],
		"cosmo_sigma_profile": { 
			"-0.025": 0.0,
			"-0.024": 0.0,
			"-0.023": 0.0,
			"-0.022": 0.0,
			"-0.021": 0.0,
			"-0.02": 0.0,
			"-0.019": 0.244431581957,
			"-0.018": 0.971714610905,
			"-0.017": 1.08490207076,
			"-0.016": 0.972036024339,
			"-0.015": 0.400531769308,
			"-0.014": 0.449566773415,
			"-0.013": 0.555784211605,
			"-0.012": 0.700450576782,
			"-0.011": 1.22071571755,
			"-0.01": 1.16501357011,
			"-0.009": 3.86006646021,
			"-0.008": 3.25935135972,
			"-0.007": 4.35562095312,
			"-0.006": 3.78907617125,
			"-0.005": 4.44086840034,
			"-0.004": 6.55626195997,
			"-0.003": 8.32951077374,
			"-0.002": 20.2373691043,
			"-0.001": 23.8156437452,
			"0.0": 13.5164740785,
			"0.001": 7.91425984494,
			"0.002": 10.1898556759,
			"0.003": 23.8621528833,
			"0.004": 6.90220164214,
			"0.005": 4.08763523736,
			"0.006": 3.55541352752,
			"0.007": 2.83322718066,
			"0.008": 4.4981834947,
			"0.009": 2.93543127902,
			"0.01": 2.57923459122,
			"0.011": 5.54632028991,
			"0.012": 1.88636614628,
			"0.013": 0.0,
			"0.014": 0.0,
			"0.015": 0.0,
			"0.016": 0.0,
			"0.017": 0.0,
			"0.018": 0.0,
			"0.019": 0.0,
			"0.02": 0.0,
			"0.021": 0.0,
			"0.022": 0.0,
			"0.023": 0.0,
			"0.024": 0.0,
			"0.025": 0.0
		}
	}
}
