{
	 "smiles": "C1CCC(CC1)C1=NN=NN1", 
	 "Tm": 383.15, 
	 "num_atms": 23, 
	 "gaussian": { 
		 "optdone": 1, 
		 "sigma_profile": "yes", 
		 "theory": "DFT", 
		 "functional": "B3LYP", 
		 "basiset": "6-31G**", 
		 "properties": { 
			 "R2extent": 2309.9133, 
			 "electric_dipole_moment_norm": 5.75932531465, 
			 "electric_quadrupole_moment_norm": 21.9982436942, 
			 "total_energy": -492.939111615, 
			 "HOMO_LUMO_gap": 0.2666, 
			 "cosmo_polarized_energy": -16.87, 
			 "cosmo_cavitation_energy": 24.89, 
			 "cosmo_dispersion_energy": -18.56, 
			 "cosmo_repulsion_energy": 1.51, 
			 "cosmo_total_nonelectrostatic_energy": 7.83, 
			 "SMD_solvation_energy": 1.65 
		},
		"coords": [
			{
				"x": -0.1288110157,
				"y": 0.4516393369,
				"z": 2.3427838313,
				"element": "C" 
			},
			{
				"x": 0.5465578742,
				"y": -0.7372948136,
				"z": 1.6178004227,
				"element": "C" 
			},
			{
				"x": 0.8444448735,
				"y": -0.4317696409,
				"z": 0.1314426445,
				"element": "C" 
			},
			{
				"x": -0.219977329,
				"y": 0.5228278678,
				"z": -0.4605047282,
				"element": "C" 
			},
			{
				"x": -0.1630311284,
				"y": 1.9033204442,
				"z": 0.253302907,
				"element": "C" 
			},
			{
				"x": 0.3017806665,
				"y": 1.7869633721,
				"z": 1.7226775485,
				"element": "C" 
			},
			{
				"x": -0.0551551035,
				"y": 0.6699143844,
				"z": -1.9429651509,
				"element": "C" 
			},
			{
				"x": 0.7986549369,
				"y": 1.4517685423,
				"z": -2.5802269234,
				"element": "N" 
			},
			{
				"x": 0.6232304724,
				"y": 1.2152173978,
				"z": -3.9108672474,
				"element": "N" 
			},
			{
				"x": -0.2943696942,
				"y": 0.3292458913,
				"z": -4.1126047873,
				"element": "N" 
			},
			{
				"x": -0.7333087758,
				"y": -0.0285942861,
				"z": -2.8817979573,
				"element": "N" 
			},
			{
				"x": -1.2211875454,
				"y": 0.3620626681,
				"z": 2.2724649164,
				"element": "H" 
			},
			{
				"x": 0.1086405249,
				"y": 0.4243864427,
				"z": 3.4115985621,
				"element": "H" 
			},
			{
				"x": -0.0928552509,
				"y": -1.6248164775,
				"z": 1.6942326987,
				"element": "H" 
			},
			{
				"x": 1.4875437437,
				"y": -0.9940645269,
				"z": 2.1174753907,
				"element": "H" 
			},
			{
				"x": 0.8913399166,
				"y": -1.3614128467,
				"z": -0.4464395329,
				"element": "H" 
			},
			{
				"x": 1.8238548176,
				"y": 0.0472504672,
				"z": 0.0215370743,
				"element": "H" 
			},
			{
				"x": -1.2051223831,
				"y": 0.0683560208,
				"z": -0.2844252021,
				"element": "H" 
			},
			{
				"x": 0.5123223346,
				"y": 2.5584299666,
				"z": -0.3037420553,
				"element": "H" 
			},
			{
				"x": -1.1574266497,
				"y": 2.3621576634,
				"z": 0.206080909,
				"element": "H" 
			},
			{
				"x": -0.0928796554,
				"y": 2.6294265201,
				"z": 2.3006177987,
				"element": "H" 
			},
			{
				"x": 1.3949551683,
				"y": 1.8676116951,
				"z": 1.77421821,
				"element": "H" 
			},
			{
				"x": -1.468200798,
				"y": -0.7140260889,
				"z": -2.783559329,
				"element": "H" 
			}
		],
		 "valence_orbital": [ 
			{
				"type": "occ",
				"energy": -0.31906,
				"method": "rhf"
			},
			{
				"type": "occ",
				"energy": -0.31434,
				"method": "rhf"
			},
			{
				"type": "occ",
				"energy": -0.29183,
				"method": "rhf"
			},
			{
				"type": "occ",
				"energy": -0.28366,
				"method": "rhf"
			},
			{
				"type": "occ",
				"energy": -0.27725,
				"method": "rhf"
			},
			{
				"type": "unocc",
				"energy": -0.01065,
				"method": "rhf"
			},
			{
				"type": "unocc",
				"energy": 0.02527,
				"method": "rhf"
			},
			{
				"type": "unocc",
				"energy": 0.05365,
				"method": "rhf"
			},
			{
				"type": "unocc",
				"energy": 0.07331,
				"method": "rhf"
			},
			{
				"type": "unocc",
				"energy": 0.09541,
				"method": "rhf"
			}
		],
		"cosmo_sigma_profile": { 
			"-0.025": 0.0,
			"-0.024": 0.0,
			"-0.023": 0.0,
			"-0.022": 0.0,
			"-0.021": 0.0,
			"-0.02": 0.0,
			"-0.019": 0.41222568492,
			"-0.018": 1.84189074391,
			"-0.017": 1.65171416028,
			"-0.016": 1.20632657553,
			"-0.015": 1.24867916273,
			"-0.014": 0.893622039018,
			"-0.013": 1.39524656415,
			"-0.012": 1.02280178742,
			"-0.011": 1.02791064589,
			"-0.01": 0.99512479695,
			"-0.009": 1.29964376106,
			"-0.008": 1.28805177794,
			"-0.007": 1.77007485227,
			"-0.006": 1.84277241159,
			"-0.005": 3.52052175649,
			"-0.004": 7.19322925941,
			"-0.003": 20.2344850435,
			"-0.002": 29.399357816,
			"-0.001": 28.6289103218,
			"0.0": 23.2642385673,
			"0.001": 16.9094446527,
			"0.002": 3.0949975737,
			"0.003": 2.60426847052,
			"0.004": 3.22262223739,
			"0.005": 2.69121418315,
			"0.006": 2.88729692202,
			"0.007": 3.63630976585,
			"0.008": 5.1825152318,
			"0.009": 4.8058364704,
			"0.01": 3.85663237209,
			"0.011": 4.99552365456,
			"0.012": 4.33725318131,
			"0.013": 2.61450819623,
			"0.014": 2.22459060446,
			"0.015": 0.818450336878,
			"0.016": 0.150228739733,
			"0.017": 0.0,
			"0.018": 0.0,
			"0.019": 0.0,
			"0.02": 0.0,
			"0.021": 0.0,
			"0.022": 0.0,
			"0.023": 0.0,
			"0.024": 0.0,
			"0.025": 0.0
		}
	}
}
