{
	 "smiles": "OC1=C(C=C(Cl)C=C1Cl)S(Cl)(=O)=O", 
	 "Tm": 352.15, 
	 "num_atms": 16, 
	 "gaussian": { 
		 "optdone": 1, 
		 "sigma_profile": "yes", 
		 "theory": "DFT", 
		 "functional": "B3LYP", 
		 "basiset": "6-31G**", 
		 "properties": { 
			 "R2extent": 5182.2128, 
			 "electric_dipole_moment_norm": 4.7741955647, 
			 "electric_quadrupole_moment_norm": 10.3624181869, 
			 "total_energy": -2234.7995969, 
			 "HOMO_LUMO_gap": 0.16849, 
			 "cosmo_polarized_energy": -11.58, 
			 "cosmo_cavitation_energy": 27.85, 
			 "cosmo_dispersion_energy": -21.36, 
			 "cosmo_repulsion_energy": 1.66, 
			 "cosmo_total_nonelectrostatic_energy": 8.15, 
			 "SMD_solvation_energy": 3.36 
		},
		"coords": [
			{
				"x": -1.2918192368,
				"y": -2.8109102719,
				"z": 0.7929181456,
				"element": "O" 
			},
			{
				"x": -1.3670769561,
				"y": -2.0760942254,
				"z": -0.325284848,
				"element": "C" 
			},
			{
				"x": -0.7148628086,
				"y": -0.8313915201,
				"z": -0.3877973151,
				"element": "C" 
			},
			{
				"x": -0.778300334,
				"y": -0.0135238196,
				"z": -1.5167569716,
				"element": "C" 
			},
			{
				"x": -1.5026019896,
				"y": -0.4466934795,
				"z": -2.6226600831,
				"element": "C" 
			},
			{
				"x": -1.5918234934,
				"y": 0.5563186532,
				"z": -4.0523538684,
				"element": "Cl" 
			},
			{
				"x": -2.1613444506,
				"y": -1.676916396,
				"z": -2.6056844355,
				"element": "C" 
			},
			{
				"x": -2.089016065,
				"y": -2.4704346882,
				"z": -1.4670816867,
				"element": "C" 
			},
			{
				"x": -2.9167481961,
				"y": -4.0169641787,
				"z": -1.4211926361,
				"element": "Cl" 
			},
			{
				"x": 0.2889405695,
				"y": -0.2484932222,
				"z": 0.9795887262,
				"element": "S" 
			},
			{
				"x": -1.1900378892,
				"y": 0.1326572902,
				"z": 2.4512785805,
				"element": "Cl" 
			},
			{
				"x": 1.1307971337,
				"y": -1.3200363579,
				"z": 1.4869982249,
				"element": "O" 
			},
			{
				"x": 0.8371197069,
				"y": 1.0498214929,
				"z": 0.6065965077,
				"element": "O" 
			},
			{
				"x": -1.7986758052,
				"y": -3.6306985359,
				"z": 0.679223453,
				"element": "H" 
			},
			{
				"x": -0.263741743,
				"y": 0.9392303362,
				"z": -1.5175837914,
				"element": "H" 
			},
			{
				"x": -2.7264084424,
				"y": -2.013971077,
				"z": -3.4663080021,
				"element": "H" 
			}
		],
		 "valence_orbital": [ 
			{
				"type": "occ",
				"energy": -0.33666,
				"method": "rhf"
			},
			{
				"type": "occ",
				"energy": -0.33412,
				"method": "rhf"
			},
			{
				"type": "occ",
				"energy": -0.31726,
				"method": "rhf"
			},
			{
				"type": "occ",
				"energy": -0.30002,
				"method": "rhf"
			},
			{
				"type": "occ",
				"energy": -0.26356,
				"method": "rhf"
			},
			{
				"type": "unocc",
				"energy": -0.09507,
				"method": "rhf"
			},
			{
				"type": "unocc",
				"energy": -0.06389,
				"method": "rhf"
			},
			{
				"type": "unocc",
				"energy": -0.04531,
				"method": "rhf"
			},
			{
				"type": "unocc",
				"energy": -0.02456,
				"method": "rhf"
			},
			{
				"type": "unocc",
				"energy": 0.01829,
				"method": "rhf"
			}
		],
		"cosmo_sigma_profile": { 
			"-0.025": 0.0,
			"-0.024": 0.0,
			"-0.023": 0.0,
			"-0.022": 0.0,
			"-0.021": 0.0,
			"-0.02": 0.0,
			"-0.019": 0.0,
			"-0.018": 0.139882971742,
			"-0.017": 0.772674218018,
			"-0.016": 0.348179269119,
			"-0.015": 0.982657438581,
			"-0.014": 0.871376342955,
			"-0.013": 0.53394414922,
			"-0.012": 1.36769787367,
			"-0.011": 0.8630620875,
			"-0.01": 2.28776896955,
			"-0.009": 3.56895654031,
			"-0.008": 4.56063173555,
			"-0.007": 4.1360779544,
			"-0.006": 4.58408090188,
			"-0.005": 7.4216428495,
			"-0.004": 10.2422719508,
			"-0.003": 18.2042490803,
			"-0.002": 22.0018949508,
			"-0.001": 24.1011150685,
			"0.0": 15.5048161747,
			"0.001": 16.4669075472,
			"0.002": 21.8859722638,
			"0.003": 25.1532876878,
			"0.004": 11.8655377153,
			"0.005": 4.84842491084,
			"0.006": 5.59456877362,
			"0.007": 7.59306419504,
			"0.008": 10.8983603837,
			"0.009": 4.04397898488,
			"0.01": 0.985984679057,
			"0.011": 0.00805360654998,
			"0.012": 0.0,
			"0.013": 0.0,
			"0.014": 0.0,
			"0.015": 0.0,
			"0.016": 0.0,
			"0.017": 0.0,
			"0.018": 0.0,
			"0.019": 0.0,
			"0.02": 0.0,
			"0.021": 0.0,
			"0.022": 0.0,
			"0.023": 0.0,
			"0.024": 0.0,
			"0.025": 0.0
		}
	}
}
