{
	 "smiles": "CCCCCCCCCCCCCC(=O)OC", 
	 "Tm": 291.65, 
	 "num_atms": 47, 
	 "gaussian": { 
		 "optdone": 1, 
		 "sigma_profile": "yes", 
		 "theory": "DFT", 
		 "functional": "B3LYP", 
		 "basiset": "6-31G**", 
		 "properties": { 
			 "R2extent": 8917.1489, 
			 "electric_dipole_moment_norm": 1.89312664922, 
			 "electric_quadrupole_moment_norm": 15.4958530598, 
			 "total_energy": -740.173003622, 
			 "HOMO_LUMO_gap": 0.27835, 
			 "cosmo_polarized_energy": -6.82, 
			 "cosmo_cavitation_energy": 47.07, 
			 "cosmo_dispersion_energy": -30.88, 
			 "cosmo_repulsion_energy": 2.52, 
			 "cosmo_total_nonelectrostatic_energy": 18.72, 
			 "SMD_solvation_energy": 7.91 
		},
		"coords": [
			{
				"x": 5.1824546152,
				"y": -2.5670393614,
				"z": -0.9697777733,
				"element": "C" 
			},
			{
				"x": 4.1964054455,
				"y": -1.6428575373,
				"z": -0.2454444028,
				"element": "C" 
			},
			{
				"x": 4.3844910342,
				"y": -0.1468860213,
				"z": -0.5535259854,
				"element": "C" 
			},
			{
				"x": 4.1804584204,
				"y": 0.2651516789,
				"z": -2.0236663713,
				"element": "C" 
			},
			{
				"x": 2.7869199552,
				"y": -0.0147936052,
				"z": -2.613463554,
				"element": "C" 
			},
			{
				"x": 1.6367855389,
				"y": 0.7418998309,
				"z": -1.9335840402,
				"element": "C" 
			},
			{
				"x": 0.2814533822,
				"y": 0.5070576465,
				"z": -2.6156324271,
				"element": "C" 
			},
			{
				"x": -0.8866979347,
				"y": 1.3151611127,
				"z": -2.0226748931,
				"element": "C" 
			},
			{
				"x": -1.249468185,
				"y": 1.0049142436,
				"z": -0.5591640612,
				"element": "C" 
			},
			{
				"x": -1.7393783008,
				"y": -0.4317128166,
				"z": -0.3210325893,
				"element": "C" 
			},
			{
				"x": -2.2640421486,
				"y": -0.6987292197,
				"z": 1.0995884743,
				"element": "C" 
			},
			{
				"x": -1.1923220195,
				"y": -0.6147063401,
				"z": 2.1957510898,
				"element": "C" 
			},
			{
				"x": -1.7182852747,
				"y": -0.9883911356,
				"z": 3.594578518,
				"element": "C" 
			},
			{
				"x": -2.8004846621,
				"y": -0.0611511875,
				"z": 4.1125547859,
				"element": "C" 
			},
			{
				"x": -3.9073650932,
				"y": -0.3981843189,
				"z": 4.4733796652,
				"element": "O" 
			},
			{
				"x": -2.3733927838,
				"y": 1.2251776288,
				"z": 4.1377762876,
				"element": "O" 
			},
			{
				"x": -3.3308903311,
				"y": 2.1799084667,
				"z": 4.6213809026,
				"element": "C" 
			},
			{
				"x": 5.0441814593,
				"y": -3.609225944,
				"z": -0.6633364212,
				"element": "H" 
			},
			{
				"x": 5.0580078139,
				"y": -2.5268178604,
				"z": -2.0569093955,
				"element": "H" 
			},
			{
				"x": 6.2195270702,
				"y": -2.2901559105,
				"z": -0.7462390654,
				"element": "H" 
			},
			{
				"x": 3.1691115767,
				"y": -1.9468967516,
				"z": -0.4853711863,
				"element": "H" 
			},
			{
				"x": 4.3032932805,
				"y": -1.7867040135,
				"z": 0.8374954415,
				"element": "H" 
			},
			{
				"x": 5.3992019853,
				"y": 0.147988727,
				"z": -0.2521674839,
				"element": "H" 
			},
			{
				"x": 3.705233379,
				"y": 0.4323232689,
				"z": 0.0848422034,
				"element": "H" 
			},
			{
				"x": 4.9319501977,
				"y": -0.2349466144,
				"z": -2.6477024224,
				"element": "H" 
			},
			{
				"x": 4.3901421541,
				"y": 1.3400492403,
				"z": -2.1116317509,
				"element": "H" 
			},
			{
				"x": 2.8035951491,
				"y": 0.253302105,
				"z": -3.678738546,
				"element": "H" 
			},
			{
				"x": 2.5773027861,
				"y": -1.0928785238,
				"z": -2.5834080723,
				"element": "H" 
			},
			{
				"x": 1.861090301,
				"y": 1.818934367,
				"z": -1.9355228407,
				"element": "H" 
			},
			{
				"x": 1.5750685994,
				"y": 0.4475258181,
				"z": -0.878578792,
				"element": "H" 
			},
			{
				"x": 0.0448132844,
				"y": -0.5652588187,
				"z": -2.5918527799,
				"element": "H" 
			},
			{
				"x": 0.3733019525,
				"y": 0.7660008687,
				"z": -3.6793048896,
				"element": "H" 
			},
			{
				"x": -0.650853509,
				"y": 2.384990716,
				"z": -2.1059087516,
				"element": "H" 
			},
			{
				"x": -1.7768196275,
				"y": 1.1527767681,
				"z": -2.6460251351,
				"element": "H" 
			},
			{
				"x": -2.0399356606,
				"y": 1.70071897,
				"z": -0.2453092681,
				"element": "H" 
			},
			{
				"x": -0.389831382,
				"y": 1.2206194566,
				"z": 0.087084354,
				"element": "H" 
			},
			{
				"x": -2.5425596956,
				"y": -0.6519989592,
				"z": -1.037589907,
				"element": "H" 
			},
			{
				"x": -0.9337208344,
				"y": -1.1449376048,
				"z": -0.542313588,
				"element": "H" 
			},
			{
				"x": -3.0737256593,
				"y": 0.0098937961,
				"z": 1.3238095284,
				"element": "H" 
			},
			{
				"x": -2.7201970179,
				"y": -1.6973305237,
				"z": 1.1283887291,
				"element": "H" 
			},
			{
				"x": -0.7674455218,
				"y": 0.3931530845,
				"z": 2.2387758997,
				"element": "H" 
			},
			{
				"x": -0.3669777002,
				"y": -1.2948497062,
				"z": 1.9479158742,
				"element": "H" 
			},
			{
				"x": -0.8893309583,
				"y": -0.964128903,
				"z": 4.3126771532,
				"element": "H" 
			},
			{
				"x": -2.1379780478,
				"y": -1.9978338473,
				"z": 3.6010200102,
				"element": "H" 
			},
			{
				"x": -4.2303771398,
				"y": 2.1740606199,
				"z": 4.0004574429,
				"element": "H" 
			},
			{
				"x": -3.6162698379,
				"y": 1.9522508195,
				"z": 5.6516983959,
				"element": "H" 
			},
			{
				"x": -2.8352400554,
				"y": 3.149356291,
				"z": 4.5676016378,
				"element": "H" 
			}
		],
		 "valence_orbital": [ 
			{
				"type": "occ",
				"energy": -0.30527,
				"method": "rhf"
			},
			{
				"type": "occ",
				"energy": -0.30142,
				"method": "rhf"
			},
			{
				"type": "occ",
				"energy": -0.29863,
				"method": "rhf"
			},
			{
				"type": "occ",
				"energy": -0.29757,
				"method": "rhf"
			},
			{
				"type": "occ",
				"energy": -0.2637,
				"method": "rhf"
			},
			{
				"type": "unocc",
				"energy": 0.01465,
				"method": "rhf"
			},
			{
				"type": "unocc",
				"energy": 0.07045,
				"method": "rhf"
			},
			{
				"type": "unocc",
				"energy": 0.08944,
				"method": "rhf"
			},
			{
				"type": "unocc",
				"energy": 0.09703,
				"method": "rhf"
			},
			{
				"type": "unocc",
				"energy": 0.1034,
				"method": "rhf"
			}
		],
		"cosmo_sigma_profile": { 
			"-0.025": 0.0,
			"-0.024": 0.0,
			"-0.023": 0.0,
			"-0.022": 0.0,
			"-0.021": 0.0,
			"-0.02": 0.0,
			"-0.019": 0.0,
			"-0.018": 0.0,
			"-0.017": 0.0,
			"-0.016": 0.0,
			"-0.015": 0.0,
			"-0.014": 0.0,
			"-0.013": 0.0,
			"-0.012": 0.0,
			"-0.011": 0.0,
			"-0.01": 0.0,
			"-0.009": 0.0,
			"-0.008": 0.0,
			"-0.007": 0.213647720747,
			"-0.006": 4.28375125137,
			"-0.005": 9.76820071019,
			"-0.004": 11.2311891355,
			"-0.003": 20.9481362958,
			"-0.002": 50.3418865995,
			"-0.001": 71.9444511823,
			"0.0": 75.3706249598,
			"0.001": 60.1679740443,
			"0.002": 25.8615533847,
			"0.003": 3.71707430443,
			"0.004": 3.16556680589,
			"0.005": 2.85223293826,
			"0.006": 3.46355242423,
			"0.007": 2.22448208771,
			"0.008": 2.00998457289,
			"0.009": 2.45011601739,
			"0.01": 1.71913247212,
			"0.011": 2.41036152433,
			"0.012": 4.66139840044,
			"0.013": 2.44802269935,
			"0.014": 0.122271726658,
			"0.015": 0.0,
			"0.016": 0.0,
			"0.017": 0.0,
			"0.018": 0.0,
			"0.019": 0.0,
			"0.02": 0.0,
			"0.021": 0.0,
			"0.022": 0.0,
			"0.023": 0.0,
			"0.024": 0.0,
			"0.025": 0.0
		}
	}
}
