{
	 "smiles": "CC1=C(F)C=CC(C(Cl)=O)=C1F", 
	 "Tm": 310.15, 
	 "num_atms": 17, 
	 "gaussian": { 
		 "optdone": 1, 
		 "sigma_profile": "yes", 
		 "theory": "DFT", 
		 "functional": "B3LYP", 
		 "basiset": "6-31G**", 
		 "properties": { 
			 "R2extent": 3771.7428, 
			 "electric_dipole_moment_norm": 3.89030994267, 
			 "electric_quadrupole_moment_norm": 15.40157876, 
			 "total_energy": -1042.96008346, 
			 "HOMO_LUMO_gap": 0.19454, 
			 "cosmo_polarized_energy": -6.37, 
			 "cosmo_cavitation_energy": 24.29, 
			 "cosmo_dispersion_energy": -17.81, 
			 "cosmo_repulsion_energy": 1.38, 
			 "cosmo_total_nonelectrostatic_energy": 7.86, 
			 "SMD_solvation_energy": 5.72 
		},
		"coords": [
			{
				"x": 1.5664187167,
				"y": 1.0173026326,
				"z": 0.6596883716,
				"element": "C" 
			},
			{
				"x": 0.0988516244,
				"y": 0.8041663442,
				"z": 0.3982399968,
				"element": "C" 
			},
			{
				"x": -0.5058535579,
				"y": 1.1009976998,
				"z": -0.8235123032,
				"element": "C" 
			},
			{
				"x": 0.2586273999,
				"y": 1.5998565705,
				"z": -1.8103589169,
				"element": "F" 
			},
			{
				"x": -1.8626005275,
				"y": 0.9069929878,
				"z": -1.0739654538,
				"element": "C" 
			},
			{
				"x": -2.6607215707,
				"y": 0.3932333149,
				"z": -0.0639555272,
				"element": "C" 
			},
			{
				"x": -2.1220734726,
				"y": 0.0697914748,
				"z": 1.195156187,
				"element": "C" 
			},
			{
				"x": -2.9227389619,
				"y": -0.4799717005,
				"z": 2.3081310551,
				"element": "C" 
			},
			{
				"x": -4.7126386189,
				"y": -0.713752682,
				"z": 1.9149160751,
				"element": "Cl" 
			},
			{
				"x": -2.5452541428,
				"y": -0.7783846453,
				"z": 3.397895253,
				"element": "O" 
			},
			{
				"x": -0.742486833,
				"y": 0.2891086521,
				"z": 1.3858041979,
				"element": "C" 
			},
			{
				"x": -0.17011352,
				"y": 0.001792724,
				"z": 2.5605011313,
				"element": "F" 
			},
			{
				"x": 2.0554521092,
				"y": 1.4303433538,
				"z": -0.2225123479,
				"element": "H" 
			},
			{
				"x": 2.0569028882,
				"y": 0.0748748701,
				"z": 0.922429659,
				"element": "H" 
			},
			{
				"x": 1.717573435,
				"y": 1.7045855672,
				"z": 1.4977937965,
				"element": "H" 
			},
			{
				"x": -2.266696138,
				"y": 1.1595143737,
				"z": -2.047148883,
				"element": "H" 
			},
			{
				"x": -3.7168488301,
				"y": 0.2348484624,
				"z": -0.2375022913,
				"element": "H" 
			}
		],
		 "valence_orbital": [ 
			{
				"type": "occ",
				"energy": -0.32075,
				"method": "rhf"
			},
			{
				"type": "occ",
				"energy": -0.31929,
				"method": "rhf"
			},
			{
				"type": "occ",
				"energy": -0.29212,
				"method": "rhf"
			},
			{
				"type": "occ",
				"energy": -0.27712,
				"method": "rhf"
			},
			{
				"type": "occ",
				"energy": -0.27369,
				"method": "rhf"
			},
			{
				"type": "unocc",
				"energy": -0.07915,
				"method": "rhf"
			},
			{
				"type": "unocc",
				"energy": -0.03265,
				"method": "rhf"
			},
			{
				"type": "unocc",
				"energy": 0.01174,
				"method": "rhf"
			},
			{
				"type": "unocc",
				"energy": 0.02375,
				"method": "rhf"
			},
			{
				"type": "unocc",
				"energy": 0.06899,
				"method": "rhf"
			}
		],
		"cosmo_sigma_profile": { 
			"-0.025": 0.0,
			"-0.024": 0.0,
			"-0.023": 0.0,
			"-0.022": 0.0,
			"-0.021": 0.0,
			"-0.02": 0.0,
			"-0.019": 0.0,
			"-0.018": 0.0,
			"-0.017": 0.0,
			"-0.016": 0.0,
			"-0.015": 0.0,
			"-0.014": 0.0,
			"-0.013": 0.0,
			"-0.012": 0.0,
			"-0.011": 0.0,
			"-0.01": 0.0,
			"-0.009": 0.564942122155,
			"-0.008": 2.57093770445,
			"-0.007": 3.15229630806,
			"-0.006": 5.19351436604,
			"-0.005": 8.48994225404,
			"-0.004": 13.0966821874,
			"-0.003": 14.8341306538,
			"-0.002": 29.3602146738,
			"-0.001": 25.7129134629,
			"0.0": 14.180544351,
			"0.001": 13.7556820771,
			"0.002": 13.496820106,
			"0.003": 18.1283853,
			"0.004": 10.8756080108,
			"0.005": 8.46475478496,
			"0.006": 3.76952277234,
			"0.007": 3.66963751248,
			"0.008": 5.08340207002,
			"0.009": 3.3997494598,
			"0.01": 0.197510516827,
			"0.011": 0.0,
			"0.012": 0.0,
			"0.013": 0.0,
			"0.014": 0.0,
			"0.015": 0.0,
			"0.016": 0.0,
			"0.017": 0.0,
			"0.018": 0.0,
			"0.019": 0.0,
			"0.02": 0.0,
			"0.021": 0.0,
			"0.022": 0.0,
			"0.023": 0.0,
			"0.024": 0.0,
			"0.025": 0.0
		}
	}
}
