{
	 "smiles": "CN(C(=O)C1=CC=NC=C1)C1=CC=C(C=C1)C#N", 
	 "Tm": 379.15, 
	 "num_atms": 29, 
	 "gaussian": { 
		 "optdone": 1, 
		 "sigma_profile": "yes", 
		 "theory": "DFT", 
		 "functional": "B3LYP", 
		 "basiset": "6-31G**", 
		 "properties": { 
			 "R2extent": 5400.7707, 
			 "electric_dipole_moment_norm": 3.36417006259, 
			 "electric_quadrupole_moment_norm": 28.5187871837, 
			 "total_energy": -779.579269254, 
			 "HOMO_LUMO_gap": 0.17645, 
			 "cosmo_polarized_energy": -17.64, 
			 "cosmo_cavitation_energy": 34.74, 
			 "cosmo_dispersion_energy": -23.49, 
			 "cosmo_repulsion_energy": 1.82, 
			 "cosmo_total_nonelectrostatic_energy": 13.07, 
			 "SMD_solvation_energy": 6.66 
		},
		"coords": [
			{
				"x": -2.3576000715,
				"y": -2.56129441,
				"z": -0.6700075928,
				"element": "C" 
			},
			{
				"x": -1.9061651201,
				"y": -1.3210250206,
				"z": -0.0214629974,
				"element": "N" 
			},
			{
				"x": -2.8208535339,
				"y": -0.2734833873,
				"z": 0.0481381688,
				"element": "C" 
			},
			{
				"x": -3.9992449897,
				"y": -0.4315942985,
				"z": -0.246965083,
				"element": "O" 
			},
			{
				"x": -2.3357538486,
				"y": 1.104459588,
				"z": 0.4177471107,
				"element": "C" 
			},
			{
				"x": -3.1945780197,
				"y": 1.9249342209,
				"z": 1.1568091459,
				"element": "C" 
			},
			{
				"x": -2.8027604292,
				"y": 3.2347414894,
				"z": 1.4281426679,
				"element": "C" 
			},
			{
				"x": -1.6551627397,
				"y": 3.7732831575,
				"z": 0.9945547832,
				"element": "N" 
			},
			{
				"x": -0.8552234354,
				"y": 2.990445759,
				"z": 0.2608303584,
				"element": "C" 
			},
			{
				"x": -1.1393050978,
				"y": 1.6595620886,
				"z": -0.0486473372,
				"element": "C" 
			},
			{
				"x": -0.6423883991,
				"y": -1.340740673,
				"z": 0.6240350586,
				"element": "C" 
			},
			{
				"x": -0.4897224441,
				"y": -0.8698767339,
				"z": 1.938777648,
				"element": "C" 
			},
			{
				"x": 0.7474601783,
				"y": -0.9231420078,
				"z": 2.5675829729,
				"element": "C" 
			},
			{
				"x": 1.8565208678,
				"y": -1.4752363215,
				"z": 1.9039113352,
				"element": "C" 
			},
			{
				"x": 1.7013622929,
				"y": -1.97085161,
				"z": 0.5987920564,
				"element": "C" 
			},
			{
				"x": 0.4651443544,
				"y": -1.9019796461,
				"z": -0.0324892513,
				"element": "C" 
			},
			{
				"x": 3.1308333545,
				"y": -1.5422252777,
				"z": 2.5553602494,
				"element": "C" 
			},
			{
				"x": 4.1663657107,
				"y": -1.5969872132,
				"z": 3.0829188796,
				"element": "N" 
			},
			{
				"x": -2.0594692557,
				"y": -3.4232100615,
				"z": -0.0689754836,
				"element": "H" 
			},
			{
				"x": -1.9350023313,
				"y": -2.6615576796,
				"z": -1.6758362234,
				"element": "H" 
			},
			{
				"x": -3.4427923612,
				"y": -2.5191132796,
				"z": -0.7464238468,
				"element": "H" 
			},
			{
				"x": -4.1502478748,
				"y": 1.5424129946,
				"z": 1.4979359691,
				"element": "H" 
			},
			{
				"x": -3.4460201106,
				"y": 3.8865058146,
				"z": 2.0163271166,
				"element": "H" 
			},
			{
				"x": 0.0643448378,
				"y": 3.4475759842,
				"z": -0.0999288583,
				"element": "H" 
			},
			{
				"x": -0.4441480387,
				"y": 1.0817606192,
				"z": -0.6474976329,
				"element": "H" 
			},
			{
				"x": -1.3456089525,
				"y": -0.4698132999,
				"z": 2.4698846107,
				"element": "H" 
			},
			{
				"x": 0.8574094897,
				"y": -0.5561734186,
				"z": 3.5823636257,
				"element": "H" 
			},
			{
				"x": 2.5533044092,
				"y": -2.4007299309,
				"z": 0.0829653431,
				"element": "H" 
			},
			{
				"x": 0.3598015582,
				"y": -2.2759474464,
				"z": -1.0450427934,
				"element": "H" 
			}
		],
		 "valence_orbital": [ 
			{
				"type": "occ",
				"energy": -0.28849,
				"method": "rhf"
			},
			{
				"type": "occ",
				"energy": -0.27815,
				"method": "rhf"
			},
			{
				"type": "occ",
				"energy": -0.27216,
				"method": "rhf"
			},
			{
				"type": "occ",
				"energy": -0.26338,
				"method": "rhf"
			},
			{
				"type": "occ",
				"energy": -0.24802,
				"method": "rhf"
			},
			{
				"type": "unocc",
				"energy": -0.07157,
				"method": "rhf"
			},
			{
				"type": "unocc",
				"energy": -0.0524,
				"method": "rhf"
			},
			{
				"type": "unocc",
				"energy": -0.03901,
				"method": "rhf"
			},
			{
				"type": "unocc",
				"energy": -0.02166,
				"method": "rhf"
			},
			{
				"type": "unocc",
				"energy": 0.02286,
				"method": "rhf"
			}
		],
		"cosmo_sigma_profile": { 
			"-0.025": 0.0,
			"-0.024": 0.0,
			"-0.023": 0.0,
			"-0.022": 0.0,
			"-0.021": 0.0,
			"-0.02": 0.0,
			"-0.019": 0.0,
			"-0.018": 0.0,
			"-0.017": 0.0,
			"-0.016": 0.0,
			"-0.015": 0.0,
			"-0.014": 0.0,
			"-0.013": 0.0,
			"-0.012": 0.0,
			"-0.011": 0.0,
			"-0.01": 0.0,
			"-0.009": 0.360671512722,
			"-0.008": 7.04529174462,
			"-0.007": 16.2987717483,
			"-0.006": 22.3153084842,
			"-0.005": 19.4883793915,
			"-0.004": 21.5353509274,
			"-0.003": 21.4074354964,
			"-0.002": 22.2375326565,
			"-0.001": 18.6490473312,
			"0.0": 18.6500063845,
			"0.001": 26.1952603786,
			"0.002": 17.5431635085,
			"0.003": 8.09323058135,
			"0.004": 5.75101272163,
			"0.005": 4.94795913193,
			"0.006": 6.07922799004,
			"0.007": 4.85599709877,
			"0.008": 6.33479703976,
			"0.009": 6.18465585506,
			"0.01": 6.28140857783,
			"0.011": 5.86511031295,
			"0.012": 7.50708643077,
			"0.013": 3.93581902859,
			"0.014": 0.710752010646,
			"0.015": 1.17549771624,
			"0.016": 0.564683827777,
			"0.017": 0.0735372783051,
			"0.018": 0.0,
			"0.019": 0.0,
			"0.02": 0.0,
			"0.021": 0.0,
			"0.022": 0.0,
			"0.023": 0.0,
			"0.024": 0.0,
			"0.025": 0.0
		}
	}
}
