{
	 "smiles": "NC1=CC=C(C(O)=O)C(O)=C1", 
	 "Tm": 423.65, 
	 "num_atms": 18, 
	 "gaussian": { 
		 "optdone": 1, 
		 "sigma_profile": "yes", 
		 "theory": "DFT", 
		 "functional": "B3LYP", 
		 "basiset": "6-31G**", 
		 "properties": { 
			 "R2extent": 2056.6469, 
			 "electric_dipole_moment_norm": 5.38355265972, 
			 "electric_quadrupole_moment_norm": 15.2588281192, 
			 "total_energy": -551.397387323, 
			 "HOMO_LUMO_gap": 0.18497, 
			 "cosmo_polarized_energy": -18.7, 
			 "cosmo_cavitation_energy": 22.36, 
			 "cosmo_dispersion_energy": -16.95, 
			 "cosmo_repulsion_energy": 1.36, 
			 "cosmo_total_nonelectrostatic_energy": 6.77, 
			 "SMD_solvation_energy": 5.04 
		},
		"coords": [
			{
				"x": -2.0372729925,
				"y": -0.4931882704,
				"z": 3.7939542803,
				"element": "N" 
			},
			{
				"x": -1.2168256885,
				"y": -0.3416653821,
				"z": 2.693077117,
				"element": "C" 
			},
			{
				"x": -0.9353121271,
				"y": 0.9457541534,
				"z": 2.1818271766,
				"element": "C" 
			},
			{
				"x": -0.1545725483,
				"y": 1.07983695,
				"z": 1.0506822174,
				"element": "C" 
			},
			{
				"x": 0.3598586526,
				"y": -0.0350524355,
				"z": 0.3617910901,
				"element": "C" 
			},
			{
				"x": 1.1528758821,
				"y": 0.2162382336,
				"z": -0.8642119657,
				"element": "C" 
			},
			{
				"x": 1.2354880515,
				"y": -0.8340496136,
				"z": -1.7623545163,
				"element": "O" 
			},
			{
				"x": 1.7250402281,
				"y": 1.2491826286,
				"z": -1.1175882414,
				"element": "O" 
			},
			{
				"x": 0.1048450873,
				"y": -1.315906835,
				"z": 0.9040697546,
				"element": "C" 
			},
			{
				"x": 0.5995149035,
				"y": -2.47342617,
				"z": 0.3591016973,
				"element": "O" 
			},
			{
				"x": -0.6749944492,
				"y": -1.4635546123,
				"z": 2.0472119108,
				"element": "C" 
			},
			{
				"x": -1.9897112496,
				"y": -1.3719882568,
				"z": 4.2875950335,
				"element": "H" 
			},
			{
				"x": -2.1478456712,
				"y": 0.3087644135,
				"z": 4.3963293474,
				"element": "H" 
			},
			{
				"x": -1.3383367058,
				"y": 1.8231881374,
				"z": 2.6792392485,
				"element": "H" 
			},
			{
				"x": 0.0743075821,
				"y": 2.0625461829,
				"z": 0.6515568979,
				"element": "H" 
			},
			{
				"x": 0.4687518873,
				"y": -1.4170116464,
				"z": -1.6477032544,
				"element": "H" 
			},
			{
				"x": 1.3691435185,
				"y": -2.2651488049,
				"z": -0.1919960913,
				"element": "H" 
			},
			{
				"x": -0.8368543609,
				"y": -2.4646186723,
				"z": 2.4344182976,
				"element": "H" 
			}
		],
		 "valence_orbital": [ 
			{
				"type": "occ",
				"energy": -0.31884,
				"method": "rhf"
			},
			{
				"type": "occ",
				"energy": -0.30706,
				"method": "rhf"
			},
			{
				"type": "occ",
				"energy": -0.27099,
				"method": "rhf"
			},
			{
				"type": "occ",
				"energy": -0.24395,
				"method": "rhf"
			},
			{
				"type": "occ",
				"energy": -0.21952,
				"method": "rhf"
			},
			{
				"type": "unocc",
				"energy": -0.03455,
				"method": "rhf"
			},
			{
				"type": "unocc",
				"energy": -0.00313,
				"method": "rhf"
			},
			{
				"type": "unocc",
				"energy": 0.05056,
				"method": "rhf"
			},
			{
				"type": "unocc",
				"energy": 0.06674,
				"method": "rhf"
			},
			{
				"type": "unocc",
				"energy": 0.0736,
				"method": "rhf"
			}
		],
		"cosmo_sigma_profile": { 
			"-0.025": 0.0,
			"-0.024": 0.0,
			"-0.023": 0.0,
			"-0.022": 0.0,
			"-0.021": 0.0,
			"-0.02": 0.0,
			"-0.019": 0.0,
			"-0.018": 0.0235991413639,
			"-0.017": 0.594297143237,
			"-0.016": 1.03177718088,
			"-0.015": 1.43994142758,
			"-0.014": 1.94359543582,
			"-0.013": 4.99846350356,
			"-0.012": 4.58613614834,
			"-0.011": 6.05600639015,
			"-0.01": 4.91335818754,
			"-0.009": 3.76757324628,
			"-0.008": 3.56332091585,
			"-0.007": 5.12738125829,
			"-0.006": 7.2853445806,
			"-0.005": 6.73954739254,
			"-0.004": 6.25028769732,
			"-0.003": 6.83466378776,
			"-0.002": 6.39075163711,
			"-0.001": 7.12620964459,
			"0.0": 6.58396562412,
			"0.001": 7.2310219008,
			"0.002": 9.5102297602,
			"0.003": 11.5966751344,
			"0.004": 16.2636718046,
			"0.005": 8.54708508665,
			"0.006": 4.96266117726,
			"0.007": 3.51181083449,
			"0.008": 4.04646217262,
			"0.009": 5.36075152151,
			"0.01": 5.8768407577,
			"0.011": 6.91881900826,
			"0.012": 6.34372471744,
			"0.013": 2.24303054111,
			"0.014": 0.237527860037,
			"0.015": 0.0,
			"0.016": 0.0,
			"0.017": 0.0,
			"0.018": 0.0,
			"0.019": 0.0,
			"0.02": 0.0,
			"0.021": 0.0,
			"0.022": 0.0,
			"0.023": 0.0,
			"0.024": 0.0,
			"0.025": 0.0
		}
	}
}
