{
	 "smiles": "NC(=O)C1=NNC2=C1C=C(N)C=C2", 
	 "Tm": 473.15, 
	 "num_atms": 21, 
	 "gaussian": { 
		 "optdone": 1, 
		 "sigma_profile": "yes", 
		 "theory": "DFT", 
		 "functional": "B3LYP", 
		 "basiset": "6-31G**", 
		 "properties": { 
			 "R2extent": 3603.1806, 
			 "electric_dipole_moment_norm": 5.88536590706, 
			 "electric_quadrupole_moment_norm": 36.9037972274, 
			 "total_energy": -603.902672914, 
			 "HOMO_LUMO_gap": 0.16358, 
			 "cosmo_polarized_energy": -25.19, 
			 "cosmo_cavitation_energy": 25.61, 
			 "cosmo_dispersion_energy": -19.24, 
			 "cosmo_repulsion_energy": 1.54, 
			 "cosmo_total_nonelectrostatic_energy": 7.9, 
			 "SMD_solvation_energy": 4.07 
		},
		"coords": [
			{
				"x": -2.2448115606,
				"y": -1.414864496,
				"z": -2.3435198254,
				"element": "N" 
			},
			{
				"x": -1.48000616,
				"y": -0.8194012527,
				"z": -3.3316375466,
				"element": "C" 
			},
			{
				"x": -1.6467165373,
				"y": -1.0589616953,
				"z": -4.5164448022,
				"element": "O" 
			},
			{
				"x": -0.4771641865,
				"y": 0.1566822778,
				"z": -2.8173910069,
				"element": "C" 
			},
			{
				"x": 0.5958207364,
				"y": 0.4300083761,
				"z": -3.5552260736,
				"element": "N" 
			},
			{
				"x": 1.3191020736,
				"y": 1.3161212863,
				"z": -2.850835217,
				"element": "N" 
			},
			{
				"x": 0.7405316559,
				"y": 1.6469274676,
				"z": -1.6494960464,
				"element": "C" 
			},
			{
				"x": -0.4597456415,
				"y": 0.9008201629,
				"z": -1.5847419732,
				"element": "C" 
			},
			{
				"x": -1.3146487696,
				"y": 1.0521257625,
				"z": -0.4760715297,
				"element": "C" 
			},
			{
				"x": -0.9422765356,
				"y": 1.9157487132,
				"z": 0.5526357792,
				"element": "C" 
			},
			{
				"x": -1.72842852,
				"y": 2.0518537403,
				"z": 1.7047213512,
				"element": "N" 
			},
			{
				"x": 0.2837827046,
				"y": 2.6350861548,
				"z": 0.4667281521,
				"element": "C" 
			},
			{
				"x": 1.1274107073,
				"y": 2.5202767066,
				"z": -0.6230556266,
				"element": "C" 
			},
			{
				"x": -1.8561256404,
				"y": -1.5090280249,
				"z": -1.4160667902,
				"element": "H" 
			},
			{
				"x": -2.820311359,
				"y": -2.1806831693,
				"z": -2.6664899673,
				"element": "H" 
			},
			{
				"x": 2.190823705,
				"y": 1.6442785073,
				"z": -3.2356161881,
				"element": "H" 
			},
			{
				"x": -2.2623602769,
				"y": 0.524102822,
				"z": -0.4304559466,
				"element": "H" 
			},
			{
				"x": -1.6458524252,
				"y": 2.9469322482,
				"z": 2.1680492925,
				"element": "H" 
			},
			{
				"x": -2.6986806247,
				"y": 1.794033899,
				"z": 1.5822298631,
				"element": "H" 
			},
			{
				"x": 0.5572915589,
				"y": 3.2954040961,
				"z": 1.285642493,
				"element": "H" 
			},
			{
				"x": 2.0495650955,
				"y": 3.0909364174,
				"z": -0.6746583913,
				"element": "H" 
			}
		],
		 "valence_orbital": [ 
			{
				"type": "occ",
				"energy": -0.28682,
				"method": "rhf"
			},
			{
				"type": "occ",
				"energy": -0.26485,
				"method": "rhf"
			},
			{
				"type": "occ",
				"energy": -0.24243,
				"method": "rhf"
			},
			{
				"type": "occ",
				"energy": -0.23268,
				"method": "rhf"
			},
			{
				"type": "occ",
				"energy": -0.20153,
				"method": "rhf"
			},
			{
				"type": "unocc",
				"energy": -0.03795,
				"method": "rhf"
			},
			{
				"type": "unocc",
				"energy": 0.00602,
				"method": "rhf"
			},
			{
				"type": "unocc",
				"energy": 0.02361,
				"method": "rhf"
			},
			{
				"type": "unocc",
				"energy": 0.0728,
				"method": "rhf"
			},
			{
				"type": "unocc",
				"energy": 0.08065,
				"method": "rhf"
			}
		],
		"cosmo_sigma_profile": { 
			"-0.025": 0.0,
			"-0.024": 0.0,
			"-0.023": 0.0,
			"-0.022": 0.0,
			"-0.021": 0.0,
			"-0.02": 0.0,
			"-0.019": 0.0,
			"-0.018": 0.0,
			"-0.017": 0.6895755544,
			"-0.016": 1.65311725435,
			"-0.015": 1.33142030327,
			"-0.014": 1.68700909006,
			"-0.013": 2.87283311985,
			"-0.012": 5.09544636418,
			"-0.011": 7.47940593024,
			"-0.01": 6.1344910124,
			"-0.009": 6.4061145908,
			"-0.008": 7.55213414837,
			"-0.007": 8.43155748669,
			"-0.006": 8.67916746031,
			"-0.005": 8.25130176555,
			"-0.004": 6.61633829891,
			"-0.003": 6.26895843797,
			"-0.002": 5.74747663571,
			"-0.001": 7.57507623333,
			"0.0": 7.52807700251,
			"0.001": 10.1910337527,
			"0.002": 13.8752068789,
			"0.003": 12.9114029572,
			"0.004": 12.6138449174,
			"0.005": 12.0069999802,
			"0.006": 4.57934821098,
			"0.007": 3.58348955363,
			"0.008": 2.95933946045,
			"0.009": 3.72495132421,
			"0.01": 3.09730326313,
			"0.011": 3.08519404948,
			"0.012": 3.06148580624,
			"0.013": 6.64153791956,
			"0.014": 6.23367261343,
			"0.015": 3.62894730567,
			"0.016": 1.71153307287,
			"0.017": 0.0,
			"0.018": 0.0,
			"0.019": 0.0,
			"0.02": 0.0,
			"0.021": 0.0,
			"0.022": 0.0,
			"0.023": 0.0,
			"0.024": 0.0,
			"0.025": 0.0
		}
	}
}
