{
	 "smiles": "O=C1C=CC=C2CC1=CC=CC2=O", 
	 "Tm": 420.15, 
	 "num_atms": 21, 
	 "gaussian": { 
		 "optdone": 1, 
		 "sigma_profile": "yes", 
		 "theory": "DFT", 
		 "functional": "B3LYP", 
		 "basiset": "6-31G**", 
		 "properties": { 
			 "R2extent": 2160.7646, 
			 "electric_dipole_moment_norm": 0.720123440807, 
			 "electric_quadrupole_moment_norm": 23.6438647401, 
			 "total_energy": -574.3501816, 
			 "HOMO_LUMO_gap": 0.12376, 
			 "cosmo_polarized_energy": -12.08, 
			 "cosmo_cavitation_energy": 24.75, 
			 "cosmo_dispersion_energy": -18.12, 
			 "cosmo_repulsion_energy": 1.4, 
			 "cosmo_total_nonelectrostatic_energy": 8.03, 
			 "SMD_solvation_energy": 5.24 
		},
		"coords": [
			{
				"x": -2.6097302519,
				"y": -0.7514527533,
				"z": -0.624864148,
				"element": "O" 
			},
			{
				"x": -1.4036255653,
				"y": -0.935460692,
				"z": -0.5167146071,
				"element": "C" 
			},
			{
				"x": -0.8600883015,
				"y": -2.3256625393,
				"z": -0.390978618,
				"element": "C" 
			},
			{
				"x": 0.3014520882,
				"y": -2.7262396387,
				"z": 0.1920384628,
				"element": "C" 
			},
			{
				"x": 1.345795554,
				"y": -1.8824415375,
				"z": 0.7674331292,
				"element": "C" 
			},
			{
				"x": 1.6518752444,
				"y": -0.6499984217,
				"z": 0.2992443287,
				"element": "C" 
			},
			{
				"x": 0.9690990383,
				"y": -0.1160888378,
				"z": -0.924627348,
				"element": "C" 
			},
			{
				"x": -0.408076829,
				"y": 0.1765559026,
				"z": -0.4081460082,
				"element": "C" 
			},
			{
				"x": -0.6174121675,
				"y": 1.2299728088,
				"z": 0.4154521339,
				"element": "C" 
			},
			{
				"x": 0.4552292748,
				"y": 2.0837607118,
				"z": 0.9196769361,
				"element": "C" 
			},
			{
				"x": 1.735370022,
				"y": 1.7243901755,
				"z": 1.205404664,
				"element": "C" 
			},
			{
				"x": 2.3474499937,
				"y": 0.3579337624,
				"z": 1.1593074045,
				"element": "C" 
			},
			{
				"x": 3.3189883249,
				"y": 0.0926336782,
				"z": 1.8564267984,
				"element": "O" 
			},
			{
				"x": -1.5788474853,
				"y": -3.0836222812,
				"z": -0.6927988133,
				"element": "H" 
			},
			{
				"x": 0.4274758903,
				"y": -3.7990692212,
				"z": 0.3343573215,
				"element": "H" 
			},
			{
				"x": 1.8484899591,
				"y": -2.2429526319,
				"z": 1.6624441348,
				"element": "H" 
			},
			{
				"x": 0.9448631838,
				"y": -0.8593771681,
				"z": -1.725598424,
				"element": "H" 
			},
			{
				"x": 1.4594053657,
				"y": 0.789118038,
				"z": -1.291783881,
				"element": "H" 
			},
			{
				"x": -1.6241851797,
				"y": 1.415404982,
				"z": 0.7838948968,
				"element": "H" 
			},
			{
				"x": 0.1662395316,
				"y": 3.1000357332,
				"z": 1.1857020879,
				"element": "H" 
			},
			{
				"x": 2.3933323094,
				"y": 2.4612599301,
				"z": 1.6596295491,
				"element": "H" 
			}
		],
		 "valence_orbital": [ 
			{
				"type": "occ",
				"energy": -0.31836,
				"method": "rhf"
			},
			{
				"type": "occ",
				"energy": -0.27254,
				"method": "rhf"
			},
			{
				"type": "occ",
				"energy": -0.26536,
				"method": "rhf"
			},
			{
				"type": "occ",
				"energy": -0.25802,
				"method": "rhf"
			},
			{
				"type": "occ",
				"energy": -0.23356,
				"method": "rhf"
			},
			{
				"type": "unocc",
				"energy": -0.1098,
				"method": "rhf"
			},
			{
				"type": "unocc",
				"energy": -0.05162,
				"method": "rhf"
			},
			{
				"type": "unocc",
				"energy": -0.03364,
				"method": "rhf"
			},
			{
				"type": "unocc",
				"energy": 0.02916,
				"method": "rhf"
			},
			{
				"type": "unocc",
				"energy": 0.061,
				"method": "rhf"
			}
		],
		"cosmo_sigma_profile": { 
			"-0.025": 0.0,
			"-0.024": 0.0,
			"-0.023": 0.0,
			"-0.022": 0.0,
			"-0.021": 0.0,
			"-0.02": 0.0,
			"-0.019": 0.0,
			"-0.018": 0.0,
			"-0.017": 0.0,
			"-0.016": 0.0,
			"-0.015": 0.0,
			"-0.014": 0.0,
			"-0.013": 0.0,
			"-0.012": 0.0,
			"-0.011": 0.0,
			"-0.01": 0.0,
			"-0.009": 0.0,
			"-0.008": 2.84059393328,
			"-0.007": 12.0218772227,
			"-0.006": 18.4911472129,
			"-0.005": 14.0239405802,
			"-0.004": 13.6978503164,
			"-0.003": 13.5605504227,
			"-0.002": 18.4343751469,
			"-0.001": 17.3124344486,
			"0.0": 16.5663645664,
			"0.001": 13.0309267035,
			"0.002": 10.5575150415,
			"0.003": 5.67665780941,
			"0.004": 3.52853220761,
			"0.005": 3.15409741951,
			"0.006": 2.73313492319,
			"0.007": 3.60745325046,
			"0.008": 2.51470670221,
			"0.009": 4.30984171527,
			"0.01": 3.84031300977,
			"0.011": 7.22492148882,
			"0.012": 8.47311477288,
			"0.013": 2.80465505187,
			"0.014": 0.0,
			"0.015": 0.0,
			"0.016": 0.0,
			"0.017": 0.0,
			"0.018": 0.0,
			"0.019": 0.0,
			"0.02": 0.0,
			"0.021": 0.0,
			"0.022": 0.0,
			"0.023": 0.0,
			"0.024": 0.0,
			"0.025": 0.0
		}
	}
}
