{
	 "smiles": "CC(C)CNC(=O)NC(=O)C(C)Cl", 
	 "Tm": 359.15, 
	 "num_atms": 28, 
	 "gaussian": { 
		 "optdone": 1, 
		 "sigma_profile": "yes", 
		 "theory": "DFT", 
		 "functional": "B3LYP", 
		 "basiset": "6-31G**", 
		 "properties": { 
			 "R2extent": 4616.0234, 
			 "electric_dipole_moment_norm": 4.99825974615, 
			 "electric_quadrupole_moment_norm": 13.3676962473, 
			 "total_energy": -1034.08129716, 
			 "HOMO_LUMO_gap": 0.23304, 
			 "cosmo_polarized_energy": -19.27, 
			 "cosmo_cavitation_energy": 32.95, 
			 "cosmo_dispersion_energy": -22.88, 
			 "cosmo_repulsion_energy": 1.87, 
			 "cosmo_total_nonelectrostatic_energy": 11.94, 
			 "SMD_solvation_energy": 6.32 
		},
		"coords": [
			{
				"x": -0.7880377909,
				"y": -0.1202936931,
				"z": -3.9545930937,
				"element": "C" 
			},
			{
				"x": -1.0009163313,
				"y": 0.6262125649,
				"z": -2.630634792,
				"element": "C" 
			},
			{
				"x": -2.4946615833,
				"y": 0.8232240727,
				"z": -2.3350403256,
				"element": "C" 
			},
			{
				"x": -0.2821584834,
				"y": -0.1141005842,
				"z": -1.4897048911,
				"element": "C" 
			},
			{
				"x": -0.3181882168,
				"y": 0.660403603,
				"z": -0.2524157446,
				"element": "N" 
			},
			{
				"x": 0.1946944221,
				"y": 0.315203611,
				"z": 0.9796058337,
				"element": "C" 
			},
			{
				"x": 0.3551971691,
				"y": 1.1197799629,
				"z": 1.8747667731,
				"element": "O" 
			},
			{
				"x": 0.4767489814,
				"y": -1.0682108359,
				"z": 1.0972062707,
				"element": "N" 
			},
			{
				"x": 1.0373867163,
				"y": -1.6884402502,
				"z": 2.1936496588,
				"element": "C" 
			},
			{
				"x": 1.4116658736,
				"y": -1.1535141291,
				"z": 3.2157363028,
				"element": "O" 
			},
			{
				"x": 1.1895698345,
				"y": -3.2252565678,
				"z": 2.1201370959,
				"element": "C" 
			},
			{
				"x": 0.338680892,
				"y": -3.9048467429,
				"z": 3.18877538,
				"element": "C" 
			},
			{
				"x": 0.8239320247,
				"y": -3.9611791239,
				"z": 0.4708802957,
				"element": "Cl" 
			},
			{
				"x": -1.2674032391,
				"y": 0.4126479537,
				"z": -4.7813871312,
				"element": "H" 
			},
			{
				"x": -1.2237618195,
				"y": -1.1256830728,
				"z": -3.9128915051,
				"element": "H" 
			},
			{
				"x": 0.2755053332,
				"y": -0.2241582935,
				"z": -4.1940433934,
				"element": "H" 
			},
			{
				"x": -0.5293147221,
				"y": 1.6167484652,
				"z": -2.7224368879,
				"element": "H" 
			},
			{
				"x": -2.6595889299,
				"y": 1.3456598358,
				"z": -1.3884553265,
				"element": "H" 
			},
			{
				"x": -2.9739919748,
				"y": 1.4031585571,
				"z": -3.1300390757,
				"element": "H" 
			},
			{
				"x": -3.0066200609,
				"y": -0.144586761,
				"z": -2.273147212,
				"element": "H" 
			},
			{
				"x": -0.7895689369,
				"y": -1.0777508672,
				"z": -1.3384954598,
				"element": "H" 
			},
			{
				"x": 0.7531938765,
				"y": -0.3326193887,
				"z": -1.7921506522,
				"element": "H" 
			},
			{
				"x": -0.4010254519,
				"y": 1.6643985365,
				"z": -0.3403053864,
				"element": "H" 
			},
			{
				"x": 0.2525392245,
				"y": -1.6753421102,
				"z": 0.32046589,
				"element": "H" 
			},
			{
				"x": 2.2482153534,
				"y": -3.4349331512,
				"z": 2.2795119941,
				"element": "H" 
			},
			{
				"x": 0.5402036988,
				"y": -4.9776078936,
				"z": 3.2173545926,
				"element": "H" 
			},
			{
				"x": 0.590805827,
				"y": -3.46378271,
				"z": 4.1564268083,
				"element": "H" 
			},
			{
				"x": -0.7268016864,
				"y": -3.7507309874,
				"z": 2.9978239817,
				"element": "H" 
			}
		],
		 "valence_orbital": [ 
			{
				"type": "occ",
				"energy": -0.31593,
				"method": "rhf"
			},
			{
				"type": "occ",
				"energy": -0.28511,
				"method": "rhf"
			},
			{
				"type": "occ",
				"energy": -0.27957,
				"method": "rhf"
			},
			{
				"type": "occ",
				"energy": -0.25801,
				"method": "rhf"
			},
			{
				"type": "occ",
				"energy": -0.24852,
				"method": "rhf"
			},
			{
				"type": "unocc",
				"energy": -0.01548,
				"method": "rhf"
			},
			{
				"type": "unocc",
				"energy": 0.00502,
				"method": "rhf"
			},
			{
				"type": "unocc",
				"energy": 0.0646,
				"method": "rhf"
			},
			{
				"type": "unocc",
				"energy": 0.0711,
				"method": "rhf"
			},
			{
				"type": "unocc",
				"energy": 0.07973,
				"method": "rhf"
			}
		],
		"cosmo_sigma_profile": { 
			"-0.025": 0.0,
			"-0.024": 0.0,
			"-0.023": 0.0,
			"-0.022": 0.0,
			"-0.021": 0.0,
			"-0.02": 0.0,
			"-0.019": 0.0,
			"-0.018": 0.0,
			"-0.017": 0.0,
			"-0.016": 0.0,
			"-0.015": 0.0,
			"-0.014": 0.089995014457,
			"-0.013": 0.725324568048,
			"-0.012": 0.727092763859,
			"-0.011": 1.05259108624,
			"-0.01": 2.11286552676,
			"-0.009": 3.68216126386,
			"-0.008": 5.08469383199,
			"-0.007": 5.56283783801,
			"-0.006": 10.2767009451,
			"-0.005": 14.091161654,
			"-0.004": 19.658144742,
			"-0.003": 29.1775863888,
			"-0.002": 29.9663242283,
			"-0.001": 25.9942507354,
			"0.0": 19.5029803731,
			"0.001": 21.6428702745,
			"0.002": 10.6330486946,
			"0.003": 6.81402828864,
			"0.004": 7.22378410792,
			"0.005": 9.19254141732,
			"0.006": 4.18622341128,
			"0.007": 1.68077819313,
			"0.008": 2.08338046321,
			"0.009": 2.07478897362,
			"0.01": 2.85940436689,
			"0.011": 4.03124135132,
			"0.012": 5.37026385833,
			"0.013": 6.40936715564,
			"0.014": 3.44580007817,
			"0.015": 1.55902618469,
			"0.016": 1.11177110979,
			"0.017": 1.2279461528,
			"0.018": 0.380714693565,
			"0.019": 0.00040016983889,
			"0.02": 0.0,
			"0.021": 0.0,
			"0.022": 0.0,
			"0.023": 0.0,
			"0.024": 0.0,
			"0.025": 0.0
		}
	}
}
