{
	 "smiles": "CC1CCCN(C1)C1=C(O)C=CC=C1", 
	 "Tm": 318.15, 
	 "num_atms": 31, 
	 "gaussian": { 
		 "optdone": 1, 
		 "sigma_profile": "yes", 
		 "theory": "DFT", 
		 "functional": "B3LYP", 
		 "basiset": "6-31G**", 
		 "properties": { 
			 "R2extent": 3324.708, 
			 "electric_dipole_moment_norm": 1.85778843252, 
			 "electric_quadrupole_moment_norm": 8.58375768064, 
			 "total_energy": -597.496351008, 
			 "HOMO_LUMO_gap": 0.20408, 
			 "cosmo_polarized_energy": -8.01, 
			 "cosmo_cavitation_energy": 31.29, 
			 "cosmo_dispersion_energy": -22.56, 
			 "cosmo_repulsion_energy": 1.78, 
			 "cosmo_total_nonelectrostatic_energy": 10.51, 
			 "SMD_solvation_energy": 4.65 
		},
		"coords": [
			{
				"x": 3.2071692398,
				"y": -1.5136049153,
				"z": -0.1968322188,
				"element": "C" 
			},
			{
				"x": 2.1210771188,
				"y": -1.268178203,
				"z": 0.8610277253,
				"element": "C" 
			},
			{
				"x": 2.2850378996,
				"y": 0.0836966085,
				"z": 1.5879832112,
				"element": "C" 
			},
			{
				"x": 1.9145914051,
				"y": 1.2710651481,
				"z": 0.6862553413,
				"element": "C" 
			},
			{
				"x": 0.5185361642,
				"y": 1.0826205206,
				"z": 0.0829221776,
				"element": "C" 
			},
			{
				"x": 0.4514257219,
				"y": -0.2032597605,
				"z": -0.6279358732,
				"element": "N" 
			},
			{
				"x": 0.7043379233,
				"y": -1.348571284,
				"z": 0.2603061369,
				"element": "C" 
			},
			{
				"x": -0.6698187572,
				"y": -0.3536235428,
				"z": -1.5066755132,
				"element": "C" 
			},
			{
				"x": -2.0069964177,
				"y": -0.4167904017,
				"z": -1.056808906,
				"element": "C" 
			},
			{
				"x": -2.231268932,
				"y": -0.3311487648,
				"z": 0.2922670325,
				"element": "O" 
			},
			{
				"x": -3.0561142472,
				"y": -0.5626893824,
				"z": -1.9693801083,
				"element": "C" 
			},
			{
				"x": -2.7939631372,
				"y": -0.64887025,
				"z": -3.3371240923,
				"element": "C" 
			},
			{
				"x": -1.4804569496,
				"y": -0.5894198609,
				"z": -3.8001232221,
				"element": "C" 
			},
			{
				"x": -0.43788162,
				"y": -0.4427281664,
				"z": -2.8824785171,
				"element": "C" 
			},
			{
				"x": 3.1243239075,
				"y": -2.525248286,
				"z": -0.6101140396,
				"element": "H" 
			},
			{
				"x": 4.20959739,
				"y": -1.4107873213,
				"z": 0.2337120056,
				"element": "H" 
			},
			{
				"x": 3.1165970446,
				"y": -0.8105670857,
				"z": -1.029006878,
				"element": "H" 
			},
			{
				"x": 2.1953039427,
				"y": -2.0664477883,
				"z": 1.6128697307,
				"element": "H" 
			},
			{
				"x": 3.3100426409,
				"y": 0.1911754453,
				"z": 1.963785606,
				"element": "H" 
			},
			{
				"x": 1.6258119222,
				"y": 0.0911318613,
				"z": 2.4674031062,
				"element": "H" 
			},
			{
				"x": 2.6441275283,
				"y": 1.3734675068,
				"z": -0.1254408332,
				"element": "H" 
			},
			{
				"x": 1.9402118114,
				"y": 2.2051645643,
				"z": 1.260769389,
				"element": "H" 
			},
			{
				"x": -0.2409832465,
				"y": 1.1472513948,
				"z": 0.881912598,
				"element": "H" 
			},
			{
				"x": 0.3039971752,
				"y": 1.8797293815,
				"z": -0.6365471593,
				"element": "H" 
			},
			{
				"x": 0.5990222413,
				"y": -2.2640635225,
				"z": -0.3319177485,
				"element": "H" 
			},
			{
				"x": -0.0356416262,
				"y": -1.3986234369,
				"z": 1.0777394501,
				"element": "H" 
			},
			{
				"x": -3.1816851785,
				"y": -0.3882558889,
				"z": 0.4554817498,
				"element": "H" 
			},
			{
				"x": -4.0807587672,
				"y": -0.6092714142,
				"z": -1.603684794,
				"element": "H" 
			},
			{
				"x": -3.6195529812,
				"y": -0.7623979295,
				"z": -4.0337762542,
				"element": "H" 
			},
			{
				"x": -1.2677088385,
				"y": -0.65589216,
				"z": -4.862568112,
				"element": "H" 
			},
			{
				"x": 0.595019622,
				"y": -0.3930630659,
				"z": -3.2132209904,
				"element": "H" 
			}
		],
		 "valence_orbital": [ 
			{
				"type": "occ",
				"energy": -0.29831,
				"method": "rhf"
			},
			{
				"type": "occ",
				"energy": -0.29676,
				"method": "rhf"
			},
			{
				"type": "occ",
				"energy": -0.24336,
				"method": "rhf"
			},
			{
				"type": "occ",
				"energy": -0.21787,
				"method": "rhf"
			},
			{
				"type": "occ",
				"energy": -0.20225,
				"method": "rhf"
			},
			{
				"type": "unocc",
				"energy": 0.00183,
				"method": "rhf"
			},
			{
				"type": "unocc",
				"energy": 0.01519,
				"method": "rhf"
			},
			{
				"type": "unocc",
				"energy": 0.06716,
				"method": "rhf"
			},
			{
				"type": "unocc",
				"energy": 0.08941,
				"method": "rhf"
			},
			{
				"type": "unocc",
				"energy": 0.09808,
				"method": "rhf"
			}
		],
		"cosmo_sigma_profile": { 
			"-0.025": 0.0,
			"-0.024": 0.0,
			"-0.023": 0.0,
			"-0.022": 0.0,
			"-0.021": 0.0,
			"-0.02": 0.0,
			"-0.019": 0.0,
			"-0.018": 0.32833452125,
			"-0.017": 1.00327074465,
			"-0.016": 0.986900850614,
			"-0.015": 1.17811112095,
			"-0.014": 1.18349633489,
			"-0.013": 0.679478150157,
			"-0.012": 1.12188787889,
			"-0.011": 0.26013118208,
			"-0.01": 1.13322023409,
			"-0.009": 1.3027116767,
			"-0.008": 1.24928675476,
			"-0.007": 1.39657169273,
			"-0.006": 3.07265820754,
			"-0.005": 6.42164851319,
			"-0.004": 7.9745225057,
			"-0.003": 13.5499211676,
			"-0.002": 25.8749645826,
			"-0.001": 34.8366299165,
			"0.0": 37.2407807445,
			"0.001": 26.9418700864,
			"0.002": 18.3070216494,
			"0.003": 13.7634502179,
			"0.004": 10.8761388408,
			"0.005": 10.4999337308,
			"0.006": 11.6847752968,
			"0.007": 6.18043559138,
			"0.008": 3.48825485749,
			"0.009": 1.15935402679,
			"0.01": 0.0863160787991,
			"0.011": 0.0,
			"0.012": 0.0,
			"0.013": 0.0,
			"0.014": 0.0,
			"0.015": 0.0,
			"0.016": 0.0,
			"0.017": 0.0,
			"0.018": 0.0,
			"0.019": 0.0,
			"0.02": 0.0,
			"0.021": 0.0,
			"0.022": 0.0,
			"0.023": 0.0,
			"0.024": 0.0,
			"0.025": 0.0
		}
	}
}
