{
	 "smiles": "OC(=O)C1(O)C2=CC=CC=C2C2=C1C=CC=C2", 
	 "Tm": 344.15, 
	 "num_atms": 27, 
	 "gaussian": { 
		 "optdone": 1, 
		 "sigma_profile": "yes", 
		 "theory": "DFT", 
		 "functional": "B3LYP", 
		 "basiset": "6-31G**", 
		 "properties": { 
			 "R2extent": 3749.5361, 
			 "electric_dipole_moment_norm": 1.61423984277, 
			 "electric_quadrupole_moment_norm": 17.9152585027, 
			 "total_energy": -765.19772726, 
			 "HOMO_LUMO_gap": 0.1789, 
			 "cosmo_polarized_energy": -15.17, 
			 "cosmo_cavitation_energy": 31.3, 
			 "cosmo_dispersion_energy": -22.24, 
			 "cosmo_repulsion_energy": 1.7, 
			 "cosmo_total_nonelectrostatic_energy": 10.76, 
			 "SMD_solvation_energy": 5.98 
		},
		"coords": [
			{
				"x": -3.2274190022,
				"y": -1.0327724795,
				"z": -2.1401595926,
				"element": "O" 
			},
			{
				"x": -2.2664793845,
				"y": -1.3973784738,
				"z": -1.2439399167,
				"element": "C" 
			},
			{
				"x": -1.7581568001,
				"y": -2.4910279624,
				"z": -1.2435533507,
				"element": "O" 
			},
			{
				"x": -1.9237710128,
				"y": -0.2126125228,
				"z": -0.3218547439,
				"element": "C" 
			},
			{
				"x": -3.0896223206,
				"y": 0.5415107728,
				"z": -0.0226957777,
				"element": "O" 
			},
			{
				"x": -0.7944497009,
				"y": 0.5942324997,
				"z": -0.9845315105,
				"element": "C" 
			},
			{
				"x": -0.8071743667,
				"y": 1.2754209571,
				"z": -2.1935223083,
				"element": "C" 
			},
			{
				"x": 0.3490666869,
				"y": 1.9599992139,
				"z": -2.5911927446,
				"element": "C" 
			},
			{
				"x": 1.4923612215,
				"y": 1.9441501336,
				"z": -1.7874059306,
				"element": "C" 
			},
			{
				"x": 1.505555912,
				"y": 1.2514803947,
				"z": -0.5718967518,
				"element": "C" 
			},
			{
				"x": 0.3538446429,
				"y": 0.5759387012,
				"z": -0.1706586344,
				"element": "C" 
			},
			{
				"x": 0.0607480126,
				"y": -0.2074167856,
				"z": 1.0413520725,
				"element": "C" 
			},
			{
				"x": -1.2651944395,
				"y": -0.6680166636,
				"z": 0.9713744271,
				"element": "C" 
			},
			{
				"x": -1.8254310591,
				"y": -1.4060246446,
				"z": 2.0028174116,
				"element": "C" 
			},
			{
				"x": -1.0353566178,
				"y": -1.7004047774,
				"z": 3.1205604375,
				"element": "C" 
			},
			{
				"x": 0.2891133089,
				"y": -1.2567412806,
				"z": 3.190444933,
				"element": "C" 
			},
			{
				"x": 0.8487802047,
				"y": -0.5051398057,
				"z": 2.1529119554,
				"element": "C" 
			},
			{
				"x": -3.3729246821,
				"y": -1.8013663453,
				"z": -2.7166895074,
				"element": "H" 
			},
			{
				"x": -3.5706903281,
				"y": 0.6720734554,
				"z": -0.8519214948,
				"element": "H" 
			},
			{
				"x": -1.6920045041,
				"y": 1.2779083508,
				"z": -2.8242873799,
				"element": "H" 
			},
			{
				"x": 0.3577666226,
				"y": 2.5032698277,
				"z": -3.5314781112,
				"element": "H" 
			},
			{
				"x": 2.3826508983,
				"y": 2.4759813954,
				"z": -2.1106727664,
				"element": "H" 
			},
			{
				"x": 2.3995534514,
				"y": 1.2452930023,
				"z": 0.045213149,
				"element": "H" 
			},
			{
				"x": -2.8549809194,
				"y": -1.7458057244,
				"z": 1.9462118104,
				"element": "H" 
			},
			{
				"x": -1.4539510942,
				"y": -2.2774507729,
				"z": 3.939788132,
				"element": "H" 
			},
			{
				"x": 0.8895253658,
				"y": -1.495818575,
				"z": 4.0635894126,
				"element": "H" 
			},
			{
				"x": 1.8764399045,
				"y": -0.1591818909,
				"z": 2.2184967804,
				"element": "H" 
			}
		],
		 "valence_orbital": [ 
			{
				"type": "occ",
				"energy": -0.28472,
				"method": "rhf"
			},
			{
				"type": "occ",
				"energy": -0.26452,
				"method": "rhf"
			},
			{
				"type": "occ",
				"energy": -0.25508,
				"method": "rhf"
			},
			{
				"type": "occ",
				"energy": -0.24927,
				"method": "rhf"
			},
			{
				"type": "occ",
				"energy": -0.21833,
				"method": "rhf"
			},
			{
				"type": "unocc",
				"energy": -0.03943,
				"method": "rhf"
			},
			{
				"type": "unocc",
				"energy": -0.02471,
				"method": "rhf"
			},
			{
				"type": "unocc",
				"energy": -0.00244,
				"method": "rhf"
			},
			{
				"type": "unocc",
				"energy": 0.0155,
				"method": "rhf"
			},
			{
				"type": "unocc",
				"energy": 0.03927,
				"method": "rhf"
			}
		],
		"cosmo_sigma_profile": { 
			"-0.025": 0.0,
			"-0.024": 0.0,
			"-0.023": 0.0,
			"-0.022": 0.0,
			"-0.021": 0.0,
			"-0.02": 0.0,
			"-0.019": 0.372740062585,
			"-0.018": 1.16583999859,
			"-0.017": 0.901817381239,
			"-0.016": 0.675848562897,
			"-0.015": 0.934441090771,
			"-0.014": 1.2240735367,
			"-0.013": 1.1508528866,
			"-0.012": 1.61362317251,
			"-0.011": 0.869631694493,
			"-0.01": 1.07659068591,
			"-0.009": 1.61096232052,
			"-0.008": 2.16685245756,
			"-0.007": 3.73715329502,
			"-0.006": 17.498264159,
			"-0.005": 18.6952951654,
			"-0.004": 20.2541073868,
			"-0.003": 14.9503297496,
			"-0.002": 13.4319767385,
			"-0.001": 12.6882220189,
			"0.0": 12.9946508343,
			"0.001": 15.3876007832,
			"0.002": 17.9184478339,
			"0.003": 19.4240061193,
			"0.004": 21.5640492244,
			"0.005": 18.621304656,
			"0.006": 3.86847740852,
			"0.007": 3.56643170243,
			"0.008": 3.30448146982,
			"0.009": 4.20947270343,
			"0.01": 4.59497305749,
			"0.011": 6.51825704202,
			"0.012": 2.76673886913,
			"0.013": 0.736403200422,
			"0.014": 0.0,
			"0.015": 0.0,
			"0.016": 0.0,
			"0.017": 0.0,
			"0.018": 0.0,
			"0.019": 0.0,
			"0.02": 0.0,
			"0.021": 0.0,
			"0.022": 0.0,
			"0.023": 0.0,
			"0.024": 0.0,
			"0.025": 0.0
		}
	}
}
