{
	 "smiles": "NC(=S)C(N)=S", 
	 "Tm": 443.15, 
	 "num_atms": 10, 
	 "gaussian": { 
		 "optdone": 1, 
		 "sigma_profile": "yes", 
		 "theory": "DFT", 
		 "functional": "B3LYP", 
		 "basiset": "6-31G**", 
		 "properties": { 
			 "R2extent": 1068.2745, 
			 "electric_dipole_moment_norm": 0.000141421356237, 
			 "electric_quadrupole_moment_norm": 16.8735547171, 
			 "total_energy": -984.518609784, 
			 "HOMO_LUMO_gap": 0.12707, 
			 "cosmo_polarized_energy": -13.06, 
			 "cosmo_cavitation_energy": 17.41, 
			 "cosmo_dispersion_energy": -14.25, 
			 "cosmo_repulsion_energy": 1.14, 
			 "cosmo_total_nonelectrostatic_energy": 4.29, 
			 "SMD_solvation_energy": 1.54 
		},
		"coords": [
			{
				"x": -0.4439699838,
				"y": -1.4014161116,
				"z": 1.9863742093,
				"element": "N" 
			},
			{
				"x": -0.7506208512,
				"y": -0.6887491094,
				"z": 0.90457643,
				"element": "C" 
			},
			{
				"x": -2.1771978888,
				"y": 0.1615771758,
				"z": 0.7147436477,
				"element": "S" 
			},
			{
				"x": 0.3391686501,
				"y": -0.7148427933,
				"z": -0.1752124505,
				"element": "C" 
			},
			{
				"x": 0.0325372217,
				"y": -0.0021266933,
				"z": -1.2569830897,
				"element": "N" 
			},
			{
				"x": 1.7657380588,
				"y": -1.565186437,
				"z": 0.0146027336,
				"element": "S" 
			},
			{
				"x": 0.4507642297,
				"y": -1.8861254495,
				"z": 2.0098153267,
				"element": "H" 
			},
			{
				"x": -1.0946868569,
				"y": -1.4490729423,
				"z": 2.7554623801,
				"element": "H" 
			},
			{
				"x": -0.8622146325,
				"y": 0.4825492958,
				"z": -1.2804355237,
				"element": "H" 
			},
			{
				"x": 0.683282053,
				"y": 0.0455930647,
				"z": -2.0260436635,
				"element": "H" 
			}
		],
		 "valence_orbital": [ 
			{
				"type": "occ",
				"energy": -0.36574,
				"method": "rhf"
			},
			{
				"type": "occ",
				"energy": -0.25637,
				"method": "rhf"
			},
			{
				"type": "occ",
				"energy": -0.25495,
				"method": "rhf"
			},
			{
				"type": "occ",
				"energy": -0.24762,
				"method": "rhf"
			},
			{
				"type": "occ",
				"energy": -0.2242,
				"method": "rhf"
			},
			{
				"type": "unocc",
				"energy": -0.09713,
				"method": "rhf"
			},
			{
				"type": "unocc",
				"energy": 0.01832,
				"method": "rhf"
			},
			{
				"type": "unocc",
				"energy": 0.06489,
				"method": "rhf"
			},
			{
				"type": "unocc",
				"energy": 0.06849,
				"method": "rhf"
			},
			{
				"type": "unocc",
				"energy": 0.08698,
				"method": "rhf"
			}
		],
		"cosmo_sigma_profile": { 
			"-0.025": 0.0,
			"-0.024": 0.0,
			"-0.023": 0.0,
			"-0.022": 0.0,
			"-0.021": 0.0,
			"-0.02": 0.0,
			"-0.019": 0.0,
			"-0.018": 0.0,
			"-0.017": 0.0662159128143,
			"-0.016": 2.03324207828,
			"-0.015": 2.24738290262,
			"-0.014": 2.18736699877,
			"-0.013": 4.20365515154,
			"-0.012": 5.07926800997,
			"-0.011": 2.81192338791,
			"-0.01": 2.35649085393,
			"-0.009": 3.06413922291,
			"-0.008": 2.16696969727,
			"-0.007": 3.14426130297,
			"-0.006": 3.63198753873,
			"-0.005": 2.35207423415,
			"-0.004": 2.42968367333,
			"-0.003": 5.13275615237,
			"-0.002": 7.47170855761,
			"-0.001": 8.03253126485,
			"0.0": 9.92179638476,
			"0.001": 6.11987421025,
			"0.002": 5.53595387493,
			"0.003": 6.97824584608,
			"0.004": 7.94869506526,
			"0.005": 9.72064811863,
			"0.006": 11.2075272981,
			"0.007": 13.3418861583,
			"0.008": 7.10762196987,
			"0.009": 4.58266332969,
			"0.01": 3.02456384344,
			"0.011": 0.370695895699,
			"0.012": 0.0,
			"0.013": 0.0,
			"0.014": 0.0,
			"0.015": 0.0,
			"0.016": 0.0,
			"0.017": 0.0,
			"0.018": 0.0,
			"0.019": 0.0,
			"0.02": 0.0,
			"0.021": 0.0,
			"0.022": 0.0,
			"0.023": 0.0,
			"0.024": 0.0,
			"0.025": 0.0
		}
	}
}
