{
	 "smiles": "CC1=CC=C(C=C1)C1=NNC=C1", 
	 "Tm": 357.15, 
	 "num_atms": 22, 
	 "gaussian": { 
		 "optdone": 1, 
		 "sigma_profile": "yes", 
		 "theory": "DFT", 
		 "functional": "B3LYP", 
		 "basiset": "6-31G**", 
		 "properties": { 
			 "R2extent": 2915.8271, 
			 "electric_dipole_moment_norm": 2.01731995727, 
			 "electric_quadrupole_moment_norm": 12.7919971412, 
			 "total_energy": -496.584450406, 
			 "HOMO_LUMO_gap": 0.1949, 
			 "cosmo_polarized_energy": -11.01, 
			 "cosmo_cavitation_energy": 25.78, 
			 "cosmo_dispersion_energy": -19.31, 
			 "cosmo_repulsion_energy": 1.52, 
			 "cosmo_total_nonelectrostatic_energy": 7.99, 
			 "SMD_solvation_energy": 3.93 
		},
		"coords": [
			{
				"x": -2.6178261207,
				"y": -4.4546064358,
				"z": 0.1149583946,
				"element": "C" 
			},
			{
				"x": -1.836615495,
				"y": -3.1925335772,
				"z": -0.1642657394,
				"element": "C" 
			},
			{
				"x": -0.7948023624,
				"y": -2.7860925191,
				"z": 0.6836302804,
				"element": "C" 
			},
			{
				"x": -0.0853448106,
				"y": -1.6138275157,
				"z": 0.4481394274,
				"element": "C" 
			},
			{
				"x": -0.391203629,
				"y": -0.7971993754,
				"z": -0.65424191,
				"element": "C" 
			},
			{
				"x": -1.42917937,
				"y": -1.2017850273,
				"z": -1.5051820102,
				"element": "C" 
			},
			{
				"x": -2.1363872978,
				"y": -2.3786858299,
				"z": -1.26252507,
				"element": "C" 
			},
			{
				"x": 0.3644847711,
				"y": 0.4423146592,
				"z": -0.9015042535,
				"element": "C" 
			},
			{
				"x": 1.3581022671,
				"y": 0.8114975679,
				"z": -0.0814158803,
				"element": "N" 
			},
			{
				"x": 1.8172621842,
				"y": 1.9678586897,
				"z": -0.5963555396,
				"element": "N" 
			},
			{
				"x": 1.1547609288,
				"y": 2.3553430101,
				"z": -1.7178554954,
				"element": "C" 
			},
			{
				"x": 0.2001834894,
				"y": 1.3894934778,
				"z": -1.9514872123,
				"element": "C" 
			},
			{
				"x": -3.3383150778,
				"y": -4.3059014389,
				"z": 0.9292866918,
				"element": "H" 
			},
			{
				"x": -3.180971544,
				"y": -4.7798400679,
				"z": -0.7646666198,
				"element": "H" 
			},
			{
				"x": -1.9586796506,
				"y": -5.2756604679,
				"z": 0.4164116592,
				"element": "H" 
			},
			{
				"x": -0.5355147433,
				"y": -3.4013919137,
				"z": 1.5423973324,
				"element": "H" 
			},
			{
				"x": 0.7182832178,
				"y": -1.3149435406,
				"z": 1.1126190126,
				"element": "H" 
			},
			{
				"x": -1.6895988724,
				"y": -0.597644478,
				"z": -2.3692849006,
				"element": "H" 
			},
			{
				"x": -2.9350608509,
				"y": -2.6694546633,
				"z": -1.9408665023,
				"element": "H" 
			},
			{
				"x": 2.5805534178,
				"y": 2.4371124978,
				"z": -0.1352030013,
				"element": "H" 
			},
			{
				"x": 1.4068918489,
				"y": 3.2624853032,
				"z": -2.2473787067,
				"element": "H" 
			},
			{
				"x": -0.5114223007,
				"y": 1.3724616448,
				"z": -2.7624099571,
				"element": "H" 
			}
		],
		 "valence_orbital": [ 
			{
				"type": "occ",
				"energy": -0.28417,
				"method": "rhf"
			},
			{
				"type": "occ",
				"energy": -0.27764,
				"method": "rhf"
			},
			{
				"type": "occ",
				"energy": -0.24709,
				"method": "rhf"
			},
			{
				"type": "occ",
				"energy": -0.23879,
				"method": "rhf"
			},
			{
				"type": "occ",
				"energy": -0.20751,
				"method": "rhf"
			},
			{
				"type": "unocc",
				"energy": -0.01261,
				"method": "rhf"
			},
			{
				"type": "unocc",
				"energy": 0.00788,
				"method": "rhf"
			},
			{
				"type": "unocc",
				"energy": 0.03386,
				"method": "rhf"
			},
			{
				"type": "unocc",
				"energy": 0.07997,
				"method": "rhf"
			},
			{
				"type": "unocc",
				"energy": 0.09304,
				"method": "rhf"
			}
		],
		"cosmo_sigma_profile": { 
			"-0.025": 0.0,
			"-0.024": 0.0,
			"-0.023": 0.0,
			"-0.022": 0.0,
			"-0.021": 0.0,
			"-0.02": 0.0,
			"-0.019": 0.0,
			"-0.018": 0.0,
			"-0.017": 0.407397252426,
			"-0.016": 1.77855654981,
			"-0.015": 1.28172366922,
			"-0.014": 1.19252402402,
			"-0.013": 0.919554548628,
			"-0.012": 0.901653199613,
			"-0.011": 1.30202219488,
			"-0.01": 0.702806990011,
			"-0.009": 3.15897874542,
			"-0.008": 2.68280175197,
			"-0.007": 4.76570119783,
			"-0.006": 4.90636185417,
			"-0.005": 8.60766964816,
			"-0.004": 14.8867124685,
			"-0.003": 17.8189127982,
			"-0.002": 15.8317283316,
			"-0.001": 14.1650936625,
			"0.0": 14.7328640226,
			"0.001": 12.9981939825,
			"0.002": 9.92881170468,
			"0.003": 11.8931169199,
			"0.004": 16.3449299489,
			"0.005": 18.5687058568,
			"0.006": 13.7824761453,
			"0.007": 3.17700772589,
			"0.008": 1.76528994681,
			"0.009": 1.58770318132,
			"0.01": 1.48056525098,
			"0.011": 1.09832723107,
			"0.012": 1.05312702072,
			"0.013": 1.34435898514,
			"0.014": 0.701146170345,
			"0.015": 0.106297328059,
			"0.016": 0.0,
			"0.017": 0.0,
			"0.018": 0.0,
			"0.019": 0.0,
			"0.02": 0.0,
			"0.021": 0.0,
			"0.022": 0.0,
			"0.023": 0.0,
			"0.024": 0.0,
			"0.025": 0.0
		}
	}
}
