{
	 "smiles": "O=C1CC(CN1C1=CC=CC=C1)C#N", 
	 "Tm": 412.15, 
	 "num_atms": 24, 
	 "gaussian": { 
		 "optdone": 1, 
		 "sigma_profile": "yes", 
		 "theory": "DFT", 
		 "functional": "B3LYP", 
		 "basiset": "6-31G**", 
		 "properties": { 
			 "R2extent": 4010.8779, 
			 "electric_dipole_moment_norm": 4.41874714597, 
			 "electric_quadrupole_moment_norm": 16.0465536587, 
			 "total_energy": -609.918604855, 
			 "HOMO_LUMO_gap": 0.20498, 
			 "cosmo_polarized_energy": -17.18, 
			 "cosmo_cavitation_energy": 28.23, 
			 "cosmo_dispersion_energy": -20.24, 
			 "cosmo_repulsion_energy": 1.59, 
			 "cosmo_total_nonelectrostatic_energy": 9.58, 
			 "SMD_solvation_energy": 6.2 
		},
		"coords": [
			{
				"x": 0.5706418949,
				"y": -2.681547407,
				"z": -1.4057877803,
				"element": "O" 
			},
			{
				"x": 0.5455889007,
				"y": -1.4910340051,
				"z": -1.1545434714,
				"element": "C" 
			},
			{
				"x": -0.0706353757,
				"y": -0.4196098217,
				"z": -2.0531773168,
				"element": "C" 
			},
			{
				"x": 0.4653069901,
				"y": 0.9150287968,
				"z": -1.4946683363,
				"element": "C" 
			},
			{
				"x": 0.7676898654,
				"y": 0.5754045598,
				"z": -0.0106018563,
				"element": "C" 
			},
			{
				"x": 1.0314276072,
				"y": -0.8631699071,
				"z": -0.0143130854,
				"element": "N" 
			},
			{
				"x": 1.5820040755,
				"y": -1.5076081777,
				"z": 1.1250366774,
				"element": "C" 
			},
			{
				"x": 2.0475340597,
				"y": -2.8332555921,
				"z": 1.0641603368,
				"element": "C" 
			},
			{
				"x": 2.5952408566,
				"y": -3.4247870317,
				"z": 2.2001691836,
				"element": "C" 
			},
			{
				"x": 2.6955277165,
				"y": -2.7245734268,
				"z": 3.4038732436,
				"element": "C" 
			},
			{
				"x": 2.2338692412,
				"y": -1.4110560142,
				"z": 3.4629702142,
				"element": "C" 
			},
			{
				"x": 1.679335667,
				"y": -0.8031707226,
				"z": 2.3366957904,
				"element": "C" 
			},
			{
				"x": 1.6726540542,
				"y": 1.3596319939,
				"z": -2.2025846175,
				"element": "C" 
			},
			{
				"x": 2.6231461099,
				"y": 1.7177433666,
				"z": -2.7642447581,
				"element": "N" 
			},
			{
				"x": -1.1609020627,
				"y": -0.4708547505,
				"z": -1.9562561154,
				"element": "H" 
			},
			{
				"x": 0.1828871807,
				"y": -0.6043832932,
				"z": -3.0976118525,
				"element": "H" 
			},
			{
				"x": -0.2722913271,
				"y": 1.7202746966,
				"z": -1.5612727399,
				"element": "H" 
			},
			{
				"x": -0.1019663171,
				"y": 0.8189535429,
				"z": 0.6146675462,
				"element": "H" 
			},
			{
				"x": 1.6293466677,
				"y": 1.1277929215,
				"z": 0.3712551534,
				"element": "H" 
			},
			{
				"x": 1.9660708809,
				"y": -3.3850555014,
				"z": 0.1392756767,
				"element": "H" 
			},
			{
				"x": 2.9512942282,
				"y": -4.4490502896,
				"z": 2.1364794418,
				"element": "H" 
			},
			{
				"x": 3.1270030606,
				"y": -3.1960408764,
				"z": 4.281452178,
				"element": "H" 
			},
			{
				"x": 2.2997067329,
				"y": -0.8479595064,
				"z": 4.3894351833,
				"element": "H" 
			},
			{
				"x": 1.3187192927,
				"y": 0.2158264457,
				"z": 2.4167913046,
				"element": "H" 
			}
		],
		 "valence_orbital": [ 
			{
				"type": "occ",
				"energy": -0.33586,
				"method": "rhf"
			},
			{
				"type": "occ",
				"energy": -0.30454,
				"method": "rhf"
			},
			{
				"type": "occ",
				"energy": -0.26494,
				"method": "rhf"
			},
			{
				"type": "occ",
				"energy": -0.25515,
				"method": "rhf"
			},
			{
				"type": "occ",
				"energy": -0.22789,
				"method": "rhf"
			},
			{
				"type": "unocc",
				"energy": -0.02291,
				"method": "rhf"
			},
			{
				"type": "unocc",
				"energy": -0.00645,
				"method": "rhf"
			},
			{
				"type": "unocc",
				"energy": 0.01726,
				"method": "rhf"
			},
			{
				"type": "unocc",
				"energy": 0.0199,
				"method": "rhf"
			},
			{
				"type": "unocc",
				"energy": 0.03449,
				"method": "rhf"
			}
		],
		"cosmo_sigma_profile": { 
			"-0.025": 0.0,
			"-0.024": 0.0,
			"-0.023": 0.0,
			"-0.022": 0.0,
			"-0.021": 0.0,
			"-0.02": 0.0,
			"-0.019": 0.0,
			"-0.018": 0.0,
			"-0.017": 0.0,
			"-0.016": 0.0,
			"-0.015": 0.0,
			"-0.014": 0.0,
			"-0.013": 0.0,
			"-0.012": 0.0,
			"-0.011": 0.0,
			"-0.01": 0.909004585415,
			"-0.009": 6.02909055357,
			"-0.008": 11.5430401549,
			"-0.007": 16.0539327726,
			"-0.006": 16.0460542905,
			"-0.005": 16.5537487056,
			"-0.004": 15.6311580691,
			"-0.003": 14.1486732067,
			"-0.002": 10.493310137,
			"-0.001": 9.35255573711,
			"0.0": 8.89205707103,
			"0.001": 9.99626002954,
			"0.002": 9.90902612833,
			"0.003": 12.1572554249,
			"0.004": 10.9912319072,
			"0.005": 14.6443502483,
			"0.006": 8.96743326218,
			"0.007": 3.46092754421,
			"0.008": 5.60364912524,
			"0.009": 4.84336850455,
			"0.01": 5.22025314901,
			"0.011": 4.80295238199,
			"0.012": 5.82349604208,
			"0.013": 3.82834883432,
			"0.014": 0.38364325862,
			"0.015": 0.0,
			"0.016": 0.0,
			"0.017": 0.0,
			"0.018": 0.0,
			"0.019": 0.0,
			"0.02": 0.0,
			"0.021": 0.0,
			"0.022": 0.0,
			"0.023": 0.0,
			"0.024": 0.0,
			"0.025": 0.0
		}
	}
}
