{
	 "smiles": "COC1=C(C)C=C(CC(O)=O)C=C1", 
	 "Tm": 367.15, 
	 "num_atms": 25, 
	 "gaussian": { 
		 "optdone": 1, 
		 "sigma_profile": "yes", 
		 "theory": "DFT", 
		 "functional": "B3LYP", 
		 "basiset": "6-31G**", 
		 "properties": { 
			 "R2extent": 3237.0981, 
			 "electric_dipole_moment_norm": 1.40815482103, 
			 "electric_quadrupole_moment_norm": 14.2631291044, 
			 "total_energy": -613.981283193, 
			 "HOMO_LUMO_gap": 0.21083, 
			 "cosmo_polarized_energy": -11.26, 
			 "cosmo_cavitation_energy": 29.06, 
			 "cosmo_dispersion_energy": -20.77, 
			 "cosmo_repulsion_energy": 1.67, 
			 "cosmo_total_nonelectrostatic_energy": 9.96, 
			 "SMD_solvation_energy": 6.86 
		},
		"coords": [
			{
				"x": -3.6941880729,
				"y": -1.2900150307,
				"z": 1.1825600007,
				"element": "C" 
			},
			{
				"x": -2.3442000366,
				"y": -1.6822750051,
				"z": 1.3670230347,
				"element": "O" 
			},
			{
				"x": -1.4124340265,
				"y": -1.252605681,
				"z": 0.4617919857,
				"element": "C" 
			},
			{
				"x": -0.0911607999,
				"y": -1.6784072414,
				"z": 0.7108230119,
				"element": "C" 
			},
			{
				"x": 0.2086233468,
				"y": -2.5431167094,
				"z": 1.9083262679,
				"element": "C" 
			},
			{
				"x": 0.9062818422,
				"y": -1.2752758932,
				"z": -0.1762612007,
				"element": "C" 
			},
			{
				"x": 0.6358383577,
				"y": -0.4751308161,
				"z": -1.2944480495,
				"element": "C" 
			},
			{
				"x": 1.7494036013,
				"y": -0.0595462002,
				"z": -2.2448782371,
				"element": "C" 
			},
			{
				"x": 1.9317354602,
				"y": 1.4465816425,
				"z": -2.2427023913,
				"element": "C" 
			},
			{
				"x": 2.8931345741,
				"y": 1.8431631081,
				"z": -1.3752556841,
				"element": "O" 
			},
			{
				"x": 1.2858617222,
				"y": 2.2303627815,
				"z": -2.904382229,
				"element": "O" 
			},
			{
				"x": -0.6800158766,
				"y": -0.0646110945,
				"z": -1.5145271779,
				"element": "C" 
			},
			{
				"x": -1.702688644,
				"y": -0.4487441618,
				"z": -0.6447478891,
				"element": "C" 
			},
			{
				"x": -3.808250241,
				"y": -0.1988448433,
				"z": 1.2188693714,
				"element": "H" 
			},
			{
				"x": -4.253805057,
				"y": -1.736371596,
				"z": 2.0062647795,
				"element": "H" 
			},
			{
				"x": -4.0976940113,
				"y": -1.6595037206,
				"z": 0.2308749039,
				"element": "H" 
			},
			{
				"x": -0.3566135751,
				"y": -3.481021883,
				"z": 1.8731136671,
				"element": "H" 
			},
			{
				"x": -0.0776312343,
				"y": -2.0439078332,
				"z": 2.8406265521,
				"element": "H" 
			},
			{
				"x": 1.2737523105,
				"y": -2.7838237222,
				"z": 1.9590338003,
				"element": "H" 
			},
			{
				"x": 1.9277232789,
				"y": -1.5989782121,
				"z": 0.0114431221,
				"element": "H" 
			},
			{
				"x": 2.6875351001,
				"y": -0.5418995318,
				"z": -1.9612125981,
				"element": "H" 
			},
			{
				"x": 1.5042074296,
				"y": -0.3473962352,
				"z": -3.2718589972,
				"element": "H" 
			},
			{
				"x": 2.9032264425,
				"y": 2.8148150568,
				"z": -1.4114821158,
				"element": "H" 
			},
			{
				"x": -0.9100500606,
				"y": 0.5698196407,
				"z": -2.3655841467,
				"element": "H" 
			},
			{
				"x": -2.7157918304,
				"y": -0.1171668187,
				"z": -0.8393097807,
				"element": "H" 
			}
		],
		 "valence_orbital": [ 
			{
				"type": "occ",
				"energy": -0.3148,
				"method": "rhf"
			},
			{
				"type": "occ",
				"energy": -0.31378,
				"method": "rhf"
			},
			{
				"type": "occ",
				"energy": -0.27155,
				"method": "rhf"
			},
			{
				"type": "occ",
				"energy": -0.24268,
				"method": "rhf"
			},
			{
				"type": "occ",
				"energy": -0.21158,
				"method": "rhf"
			},
			{
				"type": "unocc",
				"energy": -0.00075,
				"method": "rhf"
			},
			{
				"type": "unocc",
				"energy": 0.00235,
				"method": "rhf"
			},
			{
				"type": "unocc",
				"energy": 0.02727,
				"method": "rhf"
			},
			{
				"type": "unocc",
				"energy": 0.08148,
				"method": "rhf"
			},
			{
				"type": "unocc",
				"energy": 0.09861,
				"method": "rhf"
			}
		],
		"cosmo_sigma_profile": { 
			"-0.025": 0.0,
			"-0.024": 0.0,
			"-0.023": 0.0,
			"-0.022": 0.0,
			"-0.021": 0.0,
			"-0.02": 0.0,
			"-0.019": 0.0540048935277,
			"-0.018": 0.716293729743,
			"-0.017": 0.578584113294,
			"-0.016": 1.03137945698,
			"-0.015": 1.14522975366,
			"-0.014": 0.758559529483,
			"-0.013": 0.667740575589,
			"-0.012": 0.219950207119,
			"-0.011": 0.666241013742,
			"-0.01": 0.586849221375,
			"-0.009": 0.707493837759,
			"-0.008": 0.445218952995,
			"-0.007": 1.92716620833,
			"-0.006": 9.86453950527,
			"-0.005": 17.7706381078,
			"-0.004": 22.6644002283,
			"-0.003": 24.6377921894,
			"-0.002": 16.727022748,
			"-0.001": 13.7524260019,
			"0.0": 15.1375315014,
			"0.001": 15.3356545451,
			"0.002": 13.1119407728,
			"0.003": 11.457878908,
			"0.004": 13.543017938,
			"0.005": 12.693237162,
			"0.006": 9.82454399195,
			"0.007": 3.91634994484,
			"0.008": 3.98885000929,
			"0.009": 4.50791417032,
			"0.01": 2.62329056052,
			"0.011": 3.40593995019,
			"0.012": 4.28838335847,
			"0.013": 0.551791148743,
			"0.014": 0.0,
			"0.015": 0.0,
			"0.016": 0.0,
			"0.017": 0.0,
			"0.018": 0.0,
			"0.019": 0.0,
			"0.02": 0.0,
			"0.021": 0.0,
			"0.022": 0.0,
			"0.023": 0.0,
			"0.024": 0.0,
			"0.025": 0.0
		}
	}
}
