{
	 "smiles": "FC1=C(Cl)C(F)=C(Br)C(F)=C1Cl", 
	 "Tm": 331.95, 
	 "num_atms": 12, 
	 "gaussian": { 
		 "optdone": 1, 
		 "sigma_profile": "yes", 
		 "theory": "DFT", 
		 "functional": "B3LYP", 
		 "basiset": "6-31G**", 
		 "properties": { 
			 "R2extent": 4953.7374, 
			 "electric_dipole_moment_norm": 0.297578628265, 
			 "electric_quadrupole_moment_norm": 2.0414136597, 
			 "total_energy": -4019.9006766, 
			 "HOMO_LUMO_gap": 0.21552, 
			 "cosmo_polarized_energy": -2.68, 
			 "cosmo_cavitation_energy": 24.41, 
			 "cosmo_dispersion_energy": -18.43, 
			 "cosmo_repulsion_energy": 1.42, 
			 "cosmo_total_nonelectrostatic_energy": 7.39, 
			 "SMD_solvation_energy": 4.01 
		},
		"coords": [
			{
				"x": -0.7465205731,
				"y": -0.6843737222,
				"z": -2.3411914254,
				"element": "F" 
			},
			{
				"x": -0.6890782776,
				"y": -0.9733898031,
				"z": -1.0433408864,
				"element": "C" 
			},
			{
				"x": -1.6293328646,
				"y": -0.4152739029,
				"z": -0.1745729589,
				"element": "C" 
			},
			{
				"x": -2.8611437848,
				"y": 0.6437297433,
				"z": -0.7729562477,
				"element": "Cl" 
			},
			{
				"x": -1.5564565305,
				"y": -0.7278348147,
				"z": 1.1848624872,
				"element": "C" 
			},
			{
				"x": -2.4488492922,
				"y": -0.200209945,
				"z": 2.0200203442,
				"element": "F" 
			},
			{
				"x": -0.5686181451,
				"y": -1.579676501,
				"z": 1.6790410594,
				"element": "C" 
			},
			{
				"x": -0.4872446797,
				"y": -1.9893101221,
				"z": 3.518477595,
				"element": "Br" 
			},
			{
				"x": 0.3579861373,
				"y": -2.1233203157,
				"z": 0.7893774546,
				"element": "C" 
			},
			{
				"x": 1.3074228468,
				"y": -2.9382449318,
				"z": 1.2440390378,
				"element": "F" 
			},
			{
				"x": 0.3103518485,
				"y": -1.8291805312,
				"z": -0.5752844401,
				"element": "C" 
			},
			{
				"x": 1.467483315,
				"y": -2.5116151535,
				"z": -1.6671720197,
				"element": "Cl" 
			}
		],
		 "valence_orbital": [ 
			{
				"type": "occ",
				"energy": -0.33997,
				"method": "rhf"
			},
			{
				"type": "occ",
				"energy": -0.31923,
				"method": "rhf"
			},
			{
				"type": "occ",
				"energy": -0.31313,
				"method": "rhf"
			},
			{
				"type": "occ",
				"energy": -0.26826,
				"method": "rhf"
			},
			{
				"type": "occ",
				"energy": -0.26548,
				"method": "rhf"
			},
			{
				"type": "unocc",
				"energy": -0.04996,
				"method": "rhf"
			},
			{
				"type": "unocc",
				"energy": -0.04519,
				"method": "rhf"
			},
			{
				"type": "unocc",
				"energy": -0.0443,
				"method": "rhf"
			},
			{
				"type": "unocc",
				"energy": 0.00926,
				"method": "rhf"
			},
			{
				"type": "unocc",
				"energy": 0.02428,
				"method": "rhf"
			}
		],
		"cosmo_sigma_profile": { 
			"-0.025": 0.0,
			"-0.024": 0.0,
			"-0.023": 0.0,
			"-0.022": 0.0,
			"-0.021": 0.0,
			"-0.02": 0.0,
			"-0.019": 0.0,
			"-0.018": 0.0,
			"-0.017": 0.0,
			"-0.016": 0.0,
			"-0.015": 0.0,
			"-0.014": 0.0,
			"-0.013": 0.0,
			"-0.012": 0.0,
			"-0.011": 0.0,
			"-0.01": 0.0,
			"-0.009": 0.0,
			"-0.008": 0.0,
			"-0.007": 0.741153784358,
			"-0.006": 1.71669260694,
			"-0.005": 5.4045848744,
			"-0.004": 22.0621129178,
			"-0.003": 21.2800500943,
			"-0.002": 15.5051112333,
			"-0.001": 13.339142778,
			"0.0": 16.6018688193,
			"0.001": 20.8796356459,
			"0.002": 48.2351155602,
			"0.003": 39.1381885209,
			"0.004": 1.33916961354,
			"0.005": 0.0,
			"0.006": 0.0,
			"0.007": 0.0,
			"0.008": 0.0,
			"0.009": 0.0,
			"0.01": 0.0,
			"0.011": 0.0,
			"0.012": 0.0,
			"0.013": 0.0,
			"0.014": 0.0,
			"0.015": 0.0,
			"0.016": 0.0,
			"0.017": 0.0,
			"0.018": 0.0,
			"0.019": 0.0,
			"0.02": 0.0,
			"0.021": 0.0,
			"0.022": 0.0,
			"0.023": 0.0,
			"0.024": 0.0,
			"0.025": 0.0
		}
	}
}
