{
	 "smiles": "CC1=CC=CC(CC(O)=O)=C1", 
	 "Tm": 337.15, 
	 "num_atms": 21, 
	 "gaussian": { 
		 "optdone": 1, 
		 "sigma_profile": "yes", 
		 "theory": "DFT", 
		 "functional": "B3LYP", 
		 "basiset": "6-31G**", 
		 "properties": { 
			 "R2extent": 2015.4899, 
			 "electric_dipole_moment_norm": 1.2214136441, 
			 "electric_quadrupole_moment_norm": 5.84304950604, 
			 "total_energy": -499.457351385, 
			 "HOMO_LUMO_gap": 0.22764, 
			 "cosmo_polarized_energy": -9.49, 
			 "cosmo_cavitation_energy": 25.2, 
			 "cosmo_dispersion_energy": -18.03, 
			 "cosmo_repulsion_energy": 1.48, 
			 "cosmo_total_nonelectrostatic_energy": 8.65, 
			 "SMD_solvation_energy": 5.48 
		},
		"coords": [
			{
				"x": -1.0217535969,
				"y": 0.8185723219,
				"z": 3.1245755407,
				"element": "C" 
			},
			{
				"x": -0.8138820066,
				"y": 0.9781913877,
				"z": 1.6363129181,
				"element": "C" 
			},
			{
				"x": -1.4703616033,
				"y": 1.9941902169,
				"z": 0.9256007133,
				"element": "C" 
			},
			{
				"x": -1.2615041154,
				"y": 2.1532632909,
				"z": -0.4425604805,
				"element": "C" 
			},
			{
				"x": -0.3935609369,
				"y": 1.2990785215,
				"z": -1.1263353084,
				"element": "C" 
			},
			{
				"x": 0.2729815142,
				"y": 0.2824906084,
				"z": -0.4373884426,
				"element": "C" 
			},
			{
				"x": 1.2266886816,
				"y": -0.6551573706,
				"z": -1.1650695009,
				"element": "C" 
			},
			{
				"x": 0.7313123766,
				"y": -2.0885679327,
				"z": -1.1112301833,
				"element": "C" 
			},
			{
				"x": 0.0041977195,
				"y": -2.4166085846,
				"z": -2.2049865082,
				"element": "O" 
			},
			{
				"x": 0.922940844,
				"y": -2.8607978905,
				"z": -0.1971589077,
				"element": "O" 
			},
			{
				"x": 0.0517374435,
				"y": 0.1303931388,
				"z": 0.9381051067,
				"element": "C" 
			},
			{
				"x": -0.4354752978,
				"y": 1.5552861477,
				"z": 3.6879343818,
				"element": "H" 
			},
			{
				"x": -2.0714170489,
				"y": 0.9642604113,
				"z": 3.3997465123,
				"element": "H" 
			},
			{
				"x": -0.7163534391,
				"y": -0.174166231,
				"z": 3.4666572366,
				"element": "H" 
			},
			{
				"x": -2.1498824629,
				"y": 2.6617613419,
				"z": 1.4500103991,
				"element": "H" 
			},
			{
				"x": -1.778762963,
				"y": 2.9419273977,
				"z": -0.981905739,
				"element": "H" 
			},
			{
				"x": -0.2359893962,
				"y": 1.4227713027,
				"z": -2.1944340327,
				"element": "H" 
			},
			{
				"x": 2.2102082133,
				"y": -0.6420581814,
				"z": -0.6856579566,
				"element": "H" 
			},
			{
				"x": 1.3393054041,
				"y": -0.3455216067,
				"z": -2.2063994387,
				"element": "H" 
			},
			{
				"x": -0.3025452112,
				"y": -3.3281035028,
				"z": -2.0612693216,
				"element": "H" 
			},
			{
				"x": 0.5579158814,
				"y": -0.6736047873,
				"z": 1.4666530117,
				"element": "H" 
			}
		],
		 "valence_orbital": [ 
			{
				"type": "occ",
				"energy": -0.33719,
				"method": "rhf"
			},
			{
				"type": "occ",
				"energy": -0.31765,
				"method": "rhf"
			},
			{
				"type": "occ",
				"energy": -0.27603,
				"method": "rhf"
			},
			{
				"type": "occ",
				"energy": -0.24403,
				"method": "rhf"
			},
			{
				"type": "occ",
				"energy": -0.23784,
				"method": "rhf"
			},
			{
				"type": "unocc",
				"energy": -0.0102,
				"method": "rhf"
			},
			{
				"type": "unocc",
				"energy": 0.0007,
				"method": "rhf"
			},
			{
				"type": "unocc",
				"energy": 0.01924,
				"method": "rhf"
			},
			{
				"type": "unocc",
				"energy": 0.07912,
				"method": "rhf"
			},
			{
				"type": "unocc",
				"energy": 0.09834,
				"method": "rhf"
			}
		],
		"cosmo_sigma_profile": { 
			"-0.025": 0.0,
			"-0.024": 0.0,
			"-0.023": 0.0,
			"-0.022": 0.0,
			"-0.021": 0.0,
			"-0.02": 0.0,
			"-0.019": 0.0152122035722,
			"-0.018": 0.659521820157,
			"-0.017": 0.997139588572,
			"-0.016": 0.705301813288,
			"-0.015": 1.03502994518,
			"-0.014": 0.248087626202,
			"-0.013": 0.972680399794,
			"-0.012": 1.14930441555,
			"-0.011": 0.695158265136,
			"-0.01": 0.468566247526,
			"-0.009": 0.405166158577,
			"-0.008": 0.631026659882,
			"-0.007": 1.63524548319,
			"-0.006": 7.16804656896,
			"-0.005": 11.7756905287,
			"-0.004": 19.7029176053,
			"-0.003": 20.2686618338,
			"-0.002": 15.4929359313,
			"-0.001": 16.143862374,
			"0.0": 15.8386239872,
			"0.001": 11.9938170329,
			"0.002": 10.6498159974,
			"0.003": 11.0792321544,
			"0.004": 10.6564779979,
			"0.005": 10.6002391046,
			"0.006": 9.25042126702,
			"0.007": 2.68420804826,
			"0.008": 2.6248996307,
			"0.009": 3.81706741263,
			"0.01": 1.92543504985,
			"0.011": 3.35928289376,
			"0.012": 4.17117994397,
			"0.013": 0.509520200631,
			"0.014": 0.0,
			"0.015": 0.0,
			"0.016": 0.0,
			"0.017": 0.0,
			"0.018": 0.0,
			"0.019": 0.0,
			"0.02": 0.0,
			"0.021": 0.0,
			"0.022": 0.0,
			"0.023": 0.0,
			"0.024": 0.0,
			"0.025": 0.0
		}
	}
}
