{
	 "smiles": "CCC=CCC(O)=O", 
	 "Tm": 284.65, 
	 "num_atms": 18, 
	 "gaussian": { 
		 "optdone": 1, 
		 "sigma_profile": "yes", 
		 "theory": "DFT", 
		 "functional": "B3LYP", 
		 "basiset": "6-31G**", 
		 "properties": { 
			 "R2extent": 1901.5946, 
			 "electric_dipole_moment_norm": 5.11223998165, 
			 "electric_quadrupole_moment_norm": 18.5294392802, 
			 "total_energy": -385.110572776, 
			 "HOMO_LUMO_gap": 0.24466, 
			 "cosmo_polarized_energy": -11.56, 
			 "cosmo_cavitation_energy": 21.83, 
			 "cosmo_dispersion_energy": -15.61, 
			 "cosmo_repulsion_energy": 1.35, 
			 "cosmo_total_nonelectrostatic_energy": 7.57, 
			 "SMD_solvation_energy": 5.09 
		},
		"coords": [
			{
				"x": -0.7436763236,
				"y": -1.2900057045,
				"z": 1.6708391207,
				"element": "C" 
			},
			{
				"x": -1.2126290827,
				"y": -0.692231024,
				"z": 0.3331965951,
				"element": "C" 
			},
			{
				"x": -0.0862728196,
				"y": -0.1085517616,
				"z": -0.4743064366,
				"element": "C" 
			},
			{
				"x": -0.0015809882,
				"y": 1.1631748506,
				"z": -0.8864747703,
				"element": "C" 
			},
			{
				"x": 1.1467070839,
				"y": 1.7347300696,
				"z": -1.6748168188,
				"element": "C" 
			},
			{
				"x": 2.0577081805,
				"y": 2.6775178324,
				"z": -0.8714455108,
				"element": "C" 
			},
			{
				"x": 2.1775273188,
				"y": 2.3799310882,
				"z": 0.4442966443,
				"element": "O" 
			},
			{
				"x": 2.663902217,
				"y": 3.5964252863,
				"z": -1.3617859821,
				"element": "O" 
			},
			{
				"x": 0.0119637414,
				"y": -2.0676698952,
				"z": 1.5149047291,
				"element": "H" 
			},
			{
				"x": -1.5808644274,
				"y": -1.7422934206,
				"z": 2.2111991766,
				"element": "H" 
			},
			{
				"x": -0.3032881041,
				"y": -0.5209270216,
				"z": 2.3139975057,
				"element": "H" 
			},
			{
				"x": -1.9756663423,
				"y": 0.0744824805,
				"z": 0.5114163107,
				"element": "H" 
			},
			{
				"x": -1.696810814,
				"y": -1.4838241786,
				"z": -0.2561265116,
				"element": "H" 
			},
			{
				"x": 0.7156997329,
				"y": -0.8004355237,
				"z": -0.7434021219,
				"element": "H" 
			},
			{
				"x": -0.8023941515,
				"y": 1.8571756556,
				"z": -0.6273931462,
				"element": "H" 
			},
			{
				"x": 0.8046856655,
				"y": 2.3025905721,
				"z": -2.544431443,
				"element": "H" 
			},
			{
				"x": 1.7872110767,
				"y": 0.9262066729,
				"z": -2.0508926354,
				"element": "H" 
			},
			{
				"x": 1.5854780369,
				"y": 1.6357040215,
				"z": 0.6481252944,
				"element": "H" 
			}
		],
		 "valence_orbital": [ 
			{
				"type": "occ",
				"energy": -0.35877,
				"method": "rhf"
			},
			{
				"type": "occ",
				"energy": -0.3542,
				"method": "rhf"
			},
			{
				"type": "occ",
				"energy": -0.30781,
				"method": "rhf"
			},
			{
				"type": "occ",
				"energy": -0.28795,
				"method": "rhf"
			},
			{
				"type": "occ",
				"energy": -0.25401,
				"method": "rhf"
			},
			{
				"type": "unocc",
				"energy": -0.00935,
				"method": "rhf"
			},
			{
				"type": "unocc",
				"energy": 0.01887,
				"method": "rhf"
			},
			{
				"type": "unocc",
				"energy": 0.07599,
				"method": "rhf"
			},
			{
				"type": "unocc",
				"energy": 0.09589,
				"method": "rhf"
			},
			{
				"type": "unocc",
				"energy": 0.09958,
				"method": "rhf"
			}
		],
		"cosmo_sigma_profile": { 
			"-0.025": 0.0,
			"-0.024": 0.0,
			"-0.023": 0.0,
			"-0.022": 0.0,
			"-0.021": 0.0,
			"-0.02": 0.0,
			"-0.019": 0.0,
			"-0.018": 0.0,
			"-0.017": 0.0,
			"-0.016": 0.0,
			"-0.015": 0.0,
			"-0.014": 0.0,
			"-0.013": 0.0675758807704,
			"-0.012": 0.6184932616,
			"-0.011": 0.741263061344,
			"-0.01": 1.11089234393,
			"-0.009": 1.94682392946,
			"-0.008": 1.49654198666,
			"-0.007": 4.44169490202,
			"-0.006": 8.22231828586,
			"-0.005": 10.7619128653,
			"-0.004": 14.7317105731,
			"-0.003": 20.3709560568,
			"-0.002": 18.1026449797,
			"-0.001": 16.5017547779,
			"0.0": 15.1612772415,
			"0.001": 12.3491618909,
			"0.002": 4.94590091773,
			"0.003": 3.51516791713,
			"0.004": 3.11185131314,
			"0.005": 3.20041931903,
			"0.006": 2.80524162078,
			"0.007": 1.82171074794,
			"0.008": 1.69103721999,
			"0.009": 3.98261242312,
			"0.01": 4.35761684113,
			"0.011": 5.41576111733,
			"0.012": 5.67241525725,
			"0.013": 3.40163338124,
			"0.014": 0.424682270263,
			"0.015": 0.0,
			"0.016": 0.0,
			"0.017": 0.0,
			"0.018": 0.0,
			"0.019": 0.0,
			"0.02": 0.0,
			"0.021": 0.0,
			"0.022": 0.0,
			"0.023": 0.0,
			"0.024": 0.0,
			"0.025": 0.0
		}
	}
}
