{
	 "smiles": "ON1C(=O)C2=CC=CC3=C2C(=CC=C3)C1=O", 
	 "Tm": 518.15, 
	 "num_atms": 23, 
	 "gaussian": { 
		 "optdone": 1, 
		 "sigma_profile": "yes", 
		 "theory": "DFT", 
		 "functional": "B3LYP", 
		 "basiset": "6-31G**", 
		 "properties": { 
			 "R2extent": 4225.1484, 
			 "electric_dipole_moment_norm": 6.03586775369, 
			 "electric_quadrupole_moment_norm": 15.0383765992, 
			 "total_energy": -741.905058622, 
			 "HOMO_LUMO_gap": 0.14713, 
			 "cosmo_polarized_energy": -14.36, 
			 "cosmo_cavitation_energy": 27.34, 
			 "cosmo_dispersion_energy": -20.77, 
			 "cosmo_repulsion_energy": 1.54, 
			 "cosmo_total_nonelectrostatic_energy": 8.11, 
			 "SMD_solvation_energy": 6.35 
		},
		"coords": [
			{
				"x": 0.895567806,
				"y": 2.8473299307,
				"z": 3.752593934,
				"element": "O" 
			},
			{
				"x": 0.954597375,
				"y": 1.8525900909,
				"z": 2.7907115675,
				"element": "N" 
			},
			{
				"x": 2.2201584704,
				"y": 1.6036320592,
				"z": 2.2388007977,
				"element": "C" 
			},
			{
				"x": 3.203583909,
				"y": 2.2279771547,
				"z": 2.5890246539,
				"element": "O" 
			},
			{
				"x": 2.2206380128,
				"y": 0.5272795937,
				"z": 1.2133652641,
				"element": "C" 
			},
			{
				"x": 3.4135385144,
				"y": 0.1918790891,
				"z": 0.5974257825,
				"element": "C" 
			},
			{
				"x": 3.4520398403,
				"y": -0.8244198253,
				"z": -0.3802473155,
				"element": "C" 
			},
			{
				"x": 2.3001371239,
				"y": -1.4966328954,
				"z": -0.7343631052,
				"element": "C" 
			},
			{
				"x": 1.0570608705,
				"y": -1.1805518362,
				"z": -0.1244208028,
				"element": "C" 
			},
			{
				"x": 1.0224206197,
				"y": -0.1515374231,
				"z": 0.8644202475,
				"element": "C" 
			},
			{
				"x": -0.2138172516,
				"y": 0.1759330078,
				"z": 1.4835303013,
				"element": "C" 
			},
			{
				"x": -1.3750893466,
				"y": -0.4919186826,
				"z": 1.1357589853,
				"element": "C" 
			},
			{
				"x": -1.3420478654,
				"y": -1.5087348725,
				"z": 0.1589280645,
				"element": "C" 
			},
			{
				"x": -0.1535009186,
				"y": -1.8453997422,
				"z": -0.4570371301,
				"element": "C" 
			},
			{
				"x": -0.2566072018,
				"y": 1.2362498933,
				"z": 2.5043833922,
				"element": "C" 
			},
			{
				"x": -1.2621934884,
				"y": 1.6109008643,
				"z": 3.1110083072,
				"element": "O" 
			},
			{
				"x": -0.063530436,
				"y": 2.8252293336,
				"z": 3.9702014396,
				"element": "H" 
			},
			{
				"x": 4.3114144919,
				"y": 0.7285073477,
				"z": 0.8854961473,
				"element": "H" 
			},
			{
				"x": 4.3960757045,
				"y": -1.0751203403,
				"z": -0.8536432978,
				"element": "H" 
			},
			{
				"x": 2.3303186527,
				"y": -2.2794007516,
				"z": -1.4875438295,
				"element": "H" 
			},
			{
				"x": -2.301900107,
				"y": -0.2168205581,
				"z": 1.6280850528,
				"element": "H" 
			},
			{
				"x": -2.2585723523,
				"y": -2.0260645692,
				"z": -0.1062286335,
				"element": "H" 
			},
			{
				"x": -0.1296924235,
				"y": -2.6291068685,
				"z": -1.2095498227,
				"element": "H" 
			}
		],
		 "valence_orbital": [ 
			{
				"type": "occ",
				"energy": -0.30011,
				"method": "rhf"
			},
			{
				"type": "occ",
				"energy": -0.27354,
				"method": "rhf"
			},
			{
				"type": "occ",
				"energy": -0.27208,
				"method": "rhf"
			},
			{
				"type": "occ",
				"energy": -0.24907,
				"method": "rhf"
			},
			{
				"type": "occ",
				"energy": -0.24559,
				"method": "rhf"
			},
			{
				"type": "unocc",
				"energy": -0.09846,
				"method": "rhf"
			},
			{
				"type": "unocc",
				"energy": -0.0361,
				"method": "rhf"
			},
			{
				"type": "unocc",
				"energy": -0.02908,
				"method": "rhf"
			},
			{
				"type": "unocc",
				"energy": 0.00116,
				"method": "rhf"
			},
			{
				"type": "unocc",
				"energy": 0.07436,
				"method": "rhf"
			}
		],
		"cosmo_sigma_profile": { 
			"-0.025": 0.0,
			"-0.024": 0.0,
			"-0.023": 0.0,
			"-0.022": 0.0,
			"-0.021": 0.0,
			"-0.02": 0.0,
			"-0.019": 0.0,
			"-0.018": 0.0,
			"-0.017": 0.0,
			"-0.016": 0.0,
			"-0.015": 0.0,
			"-0.014": 0.235408788476,
			"-0.013": 0.717184112121,
			"-0.012": 0.689383621977,
			"-0.011": 0.442996771924,
			"-0.01": 0.420507887346,
			"-0.009": 0.455476160537,
			"-0.008": 5.34735416146,
			"-0.007": 13.6698568316,
			"-0.006": 15.100400026,
			"-0.005": 14.760148811,
			"-0.004": 12.8961540363,
			"-0.003": 13.560793029,
			"-0.002": 12.4576475631,
			"-0.001": 15.1493388765,
			"0.0": 23.8188368094,
			"0.001": 25.3537004258,
			"0.002": 16.121033061,
			"0.003": 4.79343624571,
			"0.004": 3.92254083348,
			"0.005": 4.87819029877,
			"0.006": 2.50657493187,
			"0.007": 3.13702780434,
			"0.008": 3.56089868293,
			"0.009": 5.55224688632,
			"0.01": 5.22671272479,
			"0.011": 8.12314539839,
			"0.012": 5.16941058757,
			"0.013": 2.18626992732,
			"0.014": 0.726345929727,
			"0.015": 0.0,
			"0.016": 0.0,
			"0.017": 0.0,
			"0.018": 0.0,
			"0.019": 0.0,
			"0.02": 0.0,
			"0.021": 0.0,
			"0.022": 0.0,
			"0.023": 0.0,
			"0.024": 0.0,
			"0.025": 0.0
		}
	}
}
