{
	 "smiles": "OC(=O)C1=C2C=C(Br)C=CC2=NC(C=CC2=CC=C(F)C=C2)=C1", 
	 "Tm": 573.15, 
	 "num_atms": 34, 
	 "gaussian": { 
		 "optdone": 1, 
		 "sigma_profile": "yes", 
		 "theory": "DFT", 
		 "functional": "B3LYP", 
		 "basiset": "6-31G**", 
		 "properties": { 
			 "R2extent": 16294.3286, 
			 "electric_dipole_moment_norm": 4.28475315858, 
			 "electric_quadrupole_moment_norm": 27.5385398734, 
			 "total_energy": -3568.99107337, 
			 "HOMO_LUMO_gap": 0.12577, 
			 "cosmo_polarized_energy": -17.91, 
			 "cosmo_cavitation_energy": 43.02, 
			 "cosmo_dispersion_energy": -31.28, 
			 "cosmo_repulsion_energy": 2.32, 
			 "cosmo_total_nonelectrostatic_energy": 14.06, 
			 "SMD_solvation_energy": 6.22 
		},
		"coords": [
			{
				"x": 0.0271350558,
				"y": 3.9823348295,
				"z": -2.9177455318,
				"element": "O" 
			},
			{
				"x": 0.1970677962,
				"y": 2.6658064103,
				"z": -3.2068613354,
				"element": "C" 
			},
			{
				"x": 0.2571404932,
				"y": 2.3018395215,
				"z": -4.3566540715,
				"element": "O" 
			},
			{
				"x": 0.2716555351,
				"y": 1.7446143984,
				"z": -2.0181316767,
				"element": "C" 
			},
			{
				"x": 1.0998870779,
				"y": 0.5772660372,
				"z": -2.0237592284,
				"element": "C" 
			},
			{
				"x": 1.9367097385,
				"y": 0.1954923852,
				"z": -3.104762426,
				"element": "C" 
			},
			{
				"x": 2.7180201554,
				"y": -0.9309980167,
				"z": -2.9896106327,
				"element": "C" 
			},
			{
				"x": 3.8456810424,
				"y": -1.4490737276,
				"z": -4.4392692553,
				"element": "Br" 
			},
			{
				"x": 2.7144863887,
				"y": -1.7306147269,
				"z": -1.8219636433,
				"element": "C" 
			},
			{
				"x": 1.9074221787,
				"y": -1.3795084599,
				"z": -0.7676197248,
				"element": "C" 
			},
			{
				"x": 1.0788920211,
				"y": -0.2248603386,
				"z": -0.8323912718,
				"element": "C" 
			},
			{
				"x": 0.3047891164,
				"y": 0.0540225264,
				"z": 0.2456681589,
				"element": "N" 
			},
			{
				"x": -0.4792427491,
				"y": 1.1256125634,
				"z": 0.2192482857,
				"element": "C" 
			},
			{
				"x": -1.3327309625,
				"y": 1.4201540188,
				"z": 1.3727499433,
				"element": "C" 
			},
			{
				"x": -1.3692212803,
				"y": 0.660113977,
				"z": 2.4868525789,
				"element": "C" 
			},
			{
				"x": -2.1825102833,
				"y": 0.8681619491,
				"z": 3.6826002708,
				"element": "C" 
			},
			{
				"x": -2.0564312713,
				"y": -0.0416738567,
				"z": 4.7505394451,
				"element": "C" 
			},
			{
				"x": -2.7994369113,
				"y": 0.0967611481,
				"z": 5.9197444416,
				"element": "C" 
			},
			{
				"x": -3.684106275,
				"y": 1.1637608353,
				"z": 6.0211122507,
				"element": "C" 
			},
			{
				"x": -4.4101210544,
				"y": 1.311147063,
				"z": 7.1459762418,
				"element": "F" 
			},
			{
				"x": -3.8429931461,
				"y": 2.0876895453,
				"z": 4.9901577787,
				"element": "C" 
			},
			{
				"x": -3.093488737,
				"y": 1.9347255999,
				"z": 3.8302643825,
				"element": "C" 
			},
			{
				"x": -0.504981387,
				"y": 2.0000179604,
				"z": -0.9071908332,
				"element": "C" 
			},
			{
				"x": 0.1439006,
				"y": 4.1298347991,
				"z": -1.968308343,
				"element": "H" 
			},
			{
				"x": 1.9375954916,
				"y": 0.7805084764,
				"z": -4.0140241253,
				"element": "H" 
			},
			{
				"x": 3.3454506633,
				"y": -2.610663958,
				"z": -1.7725822366,
				"element": "H" 
			},
			{
				"x": 1.8762400636,
				"y": -1.9686506962,
				"z": 0.1425807311,
				"element": "H" 
			},
			{
				"x": -1.9547407673,
				"y": 2.3077862154,
				"z": 1.2833464648,
				"element": "H" 
			},
			{
				"x": -0.7170345472,
				"y": -0.2109247451,
				"z": 2.500361171,
				"element": "H" 
			},
			{
				"x": -1.361221561,
				"y": -0.8713031741,
				"z": 4.6574287449,
				"element": "H" 
			},
			{
				"x": -2.7038352529,
				"y": -0.6024132034,
				"z": 6.7432067633,
				"element": "H" 
			},
			{
				"x": -4.5457842082,
				"y": 2.9050809708,
				"z": 5.109966121,
				"element": "H" 
			},
			{
				"x": -3.2212658057,
				"y": 2.654823544,
				"z": 3.0284751537,
				"element": "H" 
			},
			{
				"x": -1.1797272181,
				"y": 2.8518301286,
				"z": -0.888504592,
				"element": "H" 
			}
		],
		 "valence_orbital": [ 
			{
				"type": "occ",
				"energy": -0.27395,
				"method": "rhf"
			},
			{
				"type": "occ",
				"energy": -0.27025,
				"method": "rhf"
			},
			{
				"type": "occ",
				"energy": -0.26694,
				"method": "rhf"
			},
			{
				"type": "occ",
				"energy": -0.25125,
				"method": "rhf"
			},
			{
				"type": "occ",
				"energy": -0.21956,
				"method": "rhf"
			},
			{
				"type": "unocc",
				"energy": -0.09379,
				"method": "rhf"
			},
			{
				"type": "unocc",
				"energy": -0.06083,
				"method": "rhf"
			},
			{
				"type": "unocc",
				"energy": -0.02399,
				"method": "rhf"
			},
			{
				"type": "unocc",
				"energy": -0.02073,
				"method": "rhf"
			},
			{
				"type": "unocc",
				"energy": -0.01533,
				"method": "rhf"
			}
		],
		"cosmo_sigma_profile": { 
			"-0.025": 0.0,
			"-0.024": 0.0,
			"-0.023": 0.0,
			"-0.022": 0.0,
			"-0.021": 0.0,
			"-0.02": 0.0,
			"-0.019": 0.313812205516,
			"-0.018": 0.98625576827,
			"-0.017": 1.12721278148,
			"-0.016": 1.14621267723,
			"-0.015": 0.840669613476,
			"-0.014": 0.907037694405,
			"-0.013": 0.969261182928,
			"-0.012": 1.38806537137,
			"-0.011": 1.52909940979,
			"-0.01": 1.430842412,
			"-0.009": 3.14479740565,
			"-0.008": 6.35482099754,
			"-0.007": 14.1875458627,
			"-0.006": 16.3073100387,
			"-0.005": 17.0517002538,
			"-0.004": 14.9044404962,
			"-0.003": 16.8573384467,
			"-0.002": 17.6427485797,
			"-0.001": 21.353438038,
			"0.0": 30.6036689058,
			"0.001": 36.2687250217,
			"0.002": 35.3687018734,
			"0.003": 35.3337200819,
			"0.004": 34.6743042862,
			"0.005": 8.78843735528,
			"0.006": 4.51515576837,
			"0.007": 4.32280280893,
			"0.008": 4.43409244436,
			"0.009": 5.9472591714,
			"0.01": 6.34918895213,
			"0.011": 3.89784647487,
			"0.012": 1.65469181736,
			"0.013": 0.132345790844,
			"0.014": 0.0,
			"0.015": 0.0,
			"0.016": 0.0,
			"0.017": 0.0,
			"0.018": 0.0,
			"0.019": 0.0,
			"0.02": 0.0,
			"0.021": 0.0,
			"0.022": 0.0,
			"0.023": 0.0,
			"0.024": 0.0,
			"0.025": 0.0
		}
	}
}
