{
	 "smiles": "ClC(Cl)(Cl)C1OC(C(=O)O1)C(Cl)(Cl)Cl", 
	 "Tm": 389.15, 
	 "num_atms": 16, 
	 "gaussian": { 
		 "optdone": 1, 
		 "sigma_profile": "yes", 
		 "theory": "DFT", 
		 "functional": "B3LYP", 
		 "basiset": "6-31G**", 
		 "properties": { 
			 "R2extent": 6186.1867, 
			 "electric_dipole_moment_norm": 2.46191889793, 
			 "electric_quadrupole_moment_norm": 7.06746671446, 
			 "total_energy": -3178.50603474, 
			 "HOMO_LUMO_gap": 0.24996, 
			 "cosmo_polarized_energy": -10.34, 
			 "cosmo_cavitation_energy": 30.87, 
			 "cosmo_dispersion_energy": -22.22, 
			 "cosmo_repulsion_energy": 1.75, 
			 "cosmo_total_nonelectrostatic_energy": 10.4, 
			 "SMD_solvation_energy": 4.1 
		},
		"coords": [
			{
				"x": 0.0878143649,
				"y": -4.5234908284,
				"z": -1.2108960639,
				"element": "Cl" 
			},
			{
				"x": 0.8207641945,
				"y": -2.9882002837,
				"z": -1.784447046,
				"element": "C" 
			},
			{
				"x": 0.963422222,
				"y": -3.0203938161,
				"z": -3.5755433782,
				"element": "Cl" 
			},
			{
				"x": 2.4197492713,
				"y": -2.745963935,
				"z": -1.04320176,
				"element": "Cl" 
			},
			{
				"x": -0.1570029939,
				"y": -1.840041968,
				"z": -1.4161639434,
				"element": "C" 
			},
			{
				"x": -0.370271058,
				"y": -1.7876831515,
				"z": -0.0278452699,
				"element": "O" 
			},
			{
				"x": -0.5184676871,
				"y": -0.4300269312,
				"z": 0.3341522434,
				"element": "C" 
			},
			{
				"x": 0.1787463933,
				"y": 0.3302433971,
				"z": -0.8120567607,
				"element": "C" 
			},
			{
				"x": 0.4786455143,
				"y": 1.4812952164,
				"z": -0.9025263918,
				"element": "O" 
			},
			{
				"x": 0.368262804,
				"y": -0.5869612751,
				"z": -1.8116946491,
				"element": "O" 
			},
			{
				"x": 0.0450778237,
				"y": -0.1692487096,
				"z": 1.7483642148,
				"element": "C" 
			},
			{
				"x": 1.8160992013,
				"y": -0.4128202065,
				"z": 1.8022898596,
				"element": "Cl" 
			},
			{
				"x": -0.7539179604,
				"y": -1.3020951187,
				"z": 2.8965016282,
				"element": "Cl" 
			},
			{
				"x": -0.3622108119,
				"y": 1.5177467348,
				"z": 2.2041567813,
				"element": "Cl" 
			},
			{
				"x": -1.0946000818,
				"y": -2.0262454842,
				"z": -1.9575196723,
				"element": "H" 
			},
			{
				"x": -1.5792111961,
				"y": -0.1408136402,
				"z": 0.3624302082,
				"element": "H" 
			}
		],
		 "valence_orbital": [ 
			{
				"type": "occ",
				"energy": -0.33071,
				"method": "rhf"
			},
			{
				"type": "occ",
				"energy": -0.32693,
				"method": "rhf"
			},
			{
				"type": "occ",
				"energy": -0.32304,
				"method": "rhf"
			},
			{
				"type": "occ",
				"energy": -0.32004,
				"method": "rhf"
			},
			{
				"type": "occ",
				"energy": -0.30921,
				"method": "rhf"
			},
			{
				"type": "unocc",
				"energy": -0.05925,
				"method": "rhf"
			},
			{
				"type": "unocc",
				"energy": -0.05561,
				"method": "rhf"
			},
			{
				"type": "unocc",
				"energy": -0.03559,
				"method": "rhf"
			},
			{
				"type": "unocc",
				"energy": -0.02735,
				"method": "rhf"
			},
			{
				"type": "unocc",
				"energy": -0.01623,
				"method": "rhf"
			}
		],
		"cosmo_sigma_profile": { 
			"-0.025": 0.0,
			"-0.024": 0.0,
			"-0.023": 0.0,
			"-0.022": 0.0,
			"-0.021": 0.0,
			"-0.02": 0.0,
			"-0.019": 0.0,
			"-0.018": 0.0,
			"-0.017": 0.0,
			"-0.016": 0.0887290454107,
			"-0.015": 0.656256720919,
			"-0.014": 1.03382491232,
			"-0.013": 1.83251116779,
			"-0.012": 2.7072299712,
			"-0.011": 4.14088279974,
			"-0.01": 3.87097841786,
			"-0.009": 3.46654072767,
			"-0.008": 2.50395183567,
			"-0.007": 2.03930844948,
			"-0.006": 2.01449197481,
			"-0.005": 7.06191763906,
			"-0.004": 11.0572464271,
			"-0.003": 12.746545663,
			"-0.002": 15.9144130574,
			"-0.001": 17.8176355113,
			"0.0": 23.1866676115,
			"0.001": 35.4439068139,
			"0.002": 58.3003336045,
			"0.003": 21.8387932719,
			"0.004": 8.09511530264,
			"0.005": 6.0561182376,
			"0.006": 4.85269242574,
			"0.007": 3.40249998234,
			"0.008": 3.87830998605,
			"0.009": 5.01810930254,
			"0.01": 0.847176950654,
			"0.011": 0.0,
			"0.012": 0.0,
			"0.013": 0.0,
			"0.014": 0.0,
			"0.015": 0.0,
			"0.016": 0.0,
			"0.017": 0.0,
			"0.018": 0.0,
			"0.019": 0.0,
			"0.02": 0.0,
			"0.021": 0.0,
			"0.022": 0.0,
			"0.023": 0.0,
			"0.024": 0.0,
			"0.025": 0.0
		}
	}
}
