{
	 "smiles": "O=C1NC(=O)C(=CC2=CC=C(O2)C2=CC=CC=C2)C(=O)N1", 
	 "Tm": 543.15, 
	 "num_atms": 31, 
	 "gaussian": { 
		 "optdone": 1, 
		 "sigma_profile": "yes", 
		 "theory": "DFT", 
		 "functional": "B3LYP", 
		 "basiset": "6-31G**", 
		 "properties": { 
			 "R2extent": 9349.1742, 
			 "electric_dipole_moment_norm": 5.79899165114, 
			 "electric_quadrupole_moment_norm": 3.17744806409, 
			 "total_energy": -988.062269144, 
			 "HOMO_LUMO_gap": 0.12039, 
			 "cosmo_polarized_energy": -17.18, 
			 "cosmo_cavitation_energy": 37.33, 
			 "cosmo_dispersion_energy": -27.57, 
			 "cosmo_repulsion_energy": 2.05, 
			 "cosmo_total_nonelectrostatic_energy": 11.8, 
			 "SMD_solvation_energy": 8.75 
		},
		"coords": [
			{
				"x": 1.9788225098,
				"y": 4.8058568721,
				"z": -3.9882320482,
				"element": "O" 
			},
			{
				"x": 1.6076922158,
				"y": 3.9617576229,
				"z": -3.1954583358,
				"element": "C" 
			},
			{
				"x": 0.7844426955,
				"y": 4.2422482137,
				"z": -2.1155032965,
				"element": "N" 
			},
			{
				"x": 0.3063918615,
				"y": 3.3517056206,
				"z": -1.1537935123,
				"element": "C" 
			},
			{
				"x": -0.416665909,
				"y": 3.7586108064,
				"z": -0.2552473628,
				"element": "O" 
			},
			{
				"x": 0.7376759363,
				"y": 1.940421705,
				"z": -1.3194322214,
				"element": "C" 
			},
			{
				"x": 0.2602866764,
				"y": 1.0718906427,
				"z": -0.3665291632,
				"element": "C" 
			},
			{
				"x": 0.4087798628,
				"y": -0.3144612792,
				"z": -0.1385746108,
				"element": "C" 
			},
			{
				"x": 1.0555232171,
				"y": -1.405090471,
				"z": -0.7102163364,
				"element": "C" 
			},
			{
				"x": 0.7504298002,
				"y": -2.5277537823,
				"z": 0.0776340121,
				"element": "C" 
			},
			{
				"x": -0.0723676814,
				"y": -2.0915798694,
				"z": 1.1057886806,
				"element": "C" 
			},
			{
				"x": -0.2815805866,
				"y": -0.76333277,
				"z": 0.9819597705,
				"element": "O" 
			},
			{
				"x": -0.7073850281,
				"y": -2.7760181988,
				"z": 2.2221767247,
				"element": "C" 
			},
			{
				"x": -0.524938621,
				"y": -4.1596514715,
				"z": 2.4034993496,
				"element": "C" 
			},
			{
				"x": -1.1309808757,
				"y": -4.8159598393,
				"z": 3.4700367568,
				"element": "C" 
			},
			{
				"x": -1.9277136508,
				"y": -4.1057551262,
				"z": 4.3723897712,
				"element": "C" 
			},
			{
				"x": -2.1142926104,
				"y": -2.7320669065,
				"z": 4.2000558614,
				"element": "C" 
			},
			{
				"x": -1.5111183885,
				"y": -2.0686236079,
				"z": 3.1352741216,
				"element": "C" 
			},
			{
				"x": 1.6097561211,
				"y": 1.5722823167,
				"z": -2.4416279419,
				"element": "C" 
			},
			{
				"x": 2.0325373998,
				"y": 0.4469893589,
				"z": -2.6851310602,
				"element": "O" 
			},
			{
				"x": 1.969359595,
				"y": 2.6251259747,
				"z": -3.2873952075,
				"element": "N" 
			},
			{
				"x": 0.4997644063,
				"y": 5.2084218114,
				"z": -2.0154436499,
				"element": "H" 
			},
			{
				"x": -0.3707403913,
				"y": 1.5603639683,
				"z": 0.374674047,
				"element": "H" 
			},
			{
				"x": 1.6671628367,
				"y": -1.3489858414,
				"z": -1.5949537462,
				"element": "H" 
			},
			{
				"x": 1.090623025,
				"y": -3.5397857605,
				"z": -0.0842460457,
				"element": "H" 
			},
			{
				"x": 0.0919639905,
				"y": -4.7207042066,
				"z": 1.708589308,
				"element": "H" 
			},
			{
				"x": -0.9818969094,
				"y": -5.8838621827,
				"z": 3.5983402037,
				"element": "H" 
			},
			{
				"x": -2.3996641311,
				"y": -4.6202693335,
				"z": 5.2040444743,
				"element": "H" 
			},
			{
				"x": -2.7322501976,
				"y": -2.1749858383,
				"z": 4.8978734544,
				"element": "H" 
			},
			{
				"x": -1.6560128799,
				"y": -1.0024268593,
				"z": 3.001596732,
				"element": "H" 
			},
			{
				"x": 2.571195711,
				"y": 2.3858384308,
				"z": -4.065348729,
				"element": "H" 
			}
		],
		 "valence_orbital": [ 
			{
				"type": "occ",
				"energy": -0.28707,
				"method": "rhf"
			},
			{
				"type": "occ",
				"energy": -0.27996,
				"method": "rhf"
			},
			{
				"type": "occ",
				"energy": -0.27014,
				"method": "rhf"
			},
			{
				"type": "occ",
				"energy": -0.25806,
				"method": "rhf"
			},
			{
				"type": "occ",
				"energy": -0.22196,
				"method": "rhf"
			},
			{
				"type": "unocc",
				"energy": -0.10157,
				"method": "rhf"
			},
			{
				"type": "unocc",
				"energy": -0.0388,
				"method": "rhf"
			},
			{
				"type": "unocc",
				"energy": -0.01903,
				"method": "rhf"
			},
			{
				"type": "unocc",
				"energy": 0.00254,
				"method": "rhf"
			},
			{
				"type": "unocc",
				"energy": 0.01266,
				"method": "rhf"
			}
		],
		"cosmo_sigma_profile": { 
			"-0.025": 0.0,
			"-0.024": 0.0,
			"-0.023": 0.0,
			"-0.022": 0.0,
			"-0.021": 0.0,
			"-0.02": 0.0,
			"-0.019": 0.0,
			"-0.018": 0.0,
			"-0.017": 0.0215963182626,
			"-0.016": 1.42611910611,
			"-0.015": 1.53370444769,
			"-0.014": 1.6723230618,
			"-0.013": 1.70727990272,
			"-0.012": 1.30254267688,
			"-0.011": 1.75981621188,
			"-0.01": 1.61164214801,
			"-0.009": 2.94769473012,
			"-0.008": 5.04458399728,
			"-0.007": 7.49792276022,
			"-0.006": 15.2360873446,
			"-0.005": 18.6770565537,
			"-0.004": 18.4922242646,
			"-0.003": 18.7170074547,
			"-0.002": 21.640101443,
			"-0.001": 24.6760899709,
			"0.0": 28.7489851569,
			"0.001": 24.3149361919,
			"0.002": 21.9468327933,
			"0.003": 17.7672763407,
			"0.004": 15.4525348223,
			"0.005": 6.03868820331,
			"0.006": 4.90639656823,
			"0.007": 2.95156118252,
			"0.008": 3.52446175801,
			"0.009": 4.50871802297,
			"0.01": 4.76423952423,
			"0.011": 7.9088117032,
			"0.012": 12.2592141683,
			"0.013": 2.22051993662,
			"0.014": 0.0,
			"0.015": 0.0,
			"0.016": 0.0,
			"0.017": 0.0,
			"0.018": 0.0,
			"0.019": 0.0,
			"0.02": 0.0,
			"0.021": 0.0,
			"0.022": 0.0,
			"0.023": 0.0,
			"0.024": 0.0,
			"0.025": 0.0
		}
	}
}
