{
	 "smiles": "ClS(=O)(=O)C1=C2NC(=O)COC2=CC=C1", 
	 "Tm": 370.15, 
	 "num_atms": 21, 
	 "gaussian": { 
		 "optdone": 1, 
		 "sigma_profile": "yes", 
		 "theory": "DFT", 
		 "functional": "B3LYP", 
		 "basiset": "6-31G**", 
		 "properties": { 
			 "R2extent": 3853.6065, 
			 "electric_dipole_moment_norm": 5.23527809481, 
			 "electric_quadrupole_moment_norm": 6.22108640753, 
			 "total_energy": -1522.42813118, 
			 "HOMO_LUMO_gap": 0.1453, 
			 "cosmo_polarized_energy": -13.08, 
			 "cosmo_cavitation_energy": 28.68, 
			 "cosmo_dispersion_energy": -21.75, 
			 "cosmo_repulsion_energy": 1.65, 
			 "cosmo_total_nonelectrostatic_energy": 8.59, 
			 "SMD_solvation_energy": 4.43 
		},
		"coords": [
			{
				"x": 0.6020835145,
				"y": -1.7639473514,
				"z": -2.6508069715,
				"element": "Cl" 
			},
			{
				"x": -0.4135638766,
				"y": -0.1045800847,
				"z": -1.7833629804,
				"element": "S" 
			},
			{
				"x": -0.1747780239,
				"y": 1.0300075209,
				"z": -2.6623999778,
				"element": "O" 
			},
			{
				"x": -1.7688223854,
				"y": -0.5809794596,
				"z": -1.4987460413,
				"element": "O" 
			},
			{
				"x": 0.4754833596,
				"y": 0.1116390178,
				"z": -0.2577201671,
				"element": "C" 
			},
			{
				"x": 0.1922190856,
				"y": -0.6823346864,
				"z": 0.8712009053,
				"element": "C" 
			},
			{
				"x": -0.8236937874,
				"y": -1.6319414116,
				"z": 0.9393106077,
				"element": "N" 
			},
			{
				"x": -0.9213352815,
				"y": -2.563799168,
				"z": 1.9523436711,
				"element": "C" 
			},
			{
				"x": -1.8072035041,
				"y": -3.3939477705,
				"z": 2.0044071163,
				"element": "O" 
			},
			{
				"x": 0.2128956031,
				"y": -2.499399192,
				"z": 2.9668413472,
				"element": "C" 
			},
			{
				"x": 0.7247518009,
				"y": -1.1768432805,
				"z": 3.1619625887,
				"element": "O" 
			},
			{
				"x": 0.976954506,
				"y": -0.466673534,
				"z": 2.024189044,
				"element": "C" 
			},
			{
				"x": 1.9678695003,
				"y": 0.5080855665,
				"z": 2.045358212,
				"element": "C" 
			},
			{
				"x": 2.2110355979,
				"y": 1.2961883416,
				"z": 0.9173122747,
				"element": "C" 
			},
			{
				"x": 1.4747995011,
				"y": 1.0935635769,
				"z": -0.2432205923,
				"element": "C" 
			},
			{
				"x": -1.5275773951,
				"y": -1.6606580523,
				"z": 0.206676516,
				"element": "H" 
			},
			{
				"x": -0.1629931486,
				"y": -2.8382258911,
				"z": 3.9315779126,
				"element": "H" 
			},
			{
				"x": 1.0181850792,
				"y": -3.1754552666,
				"z": 2.6424407307,
				"element": "H" 
			},
			{
				"x": 2.5315031283,
				"y": 0.6421693008,
				"z": 2.9624888307,
				"element": "H" 
			},
			{
				"x": 2.9809798123,
				"y": 2.0593455303,
				"z": 0.9446257364,
				"element": "H" 
			},
			{
				"x": 1.6496069138,
				"y": 1.683586294,
				"z": -1.134578763,
				"element": "H" 
			}
		],
		 "valence_orbital": [ 
			{
				"type": "occ",
				"energy": -0.33753,
				"method": "rhf"
			},
			{
				"type": "occ",
				"energy": -0.32478,
				"method": "rhf"
			},
			{
				"type": "occ",
				"energy": -0.28779,
				"method": "rhf"
			},
			{
				"type": "occ",
				"energy": -0.27634,
				"method": "rhf"
			},
			{
				"type": "occ",
				"energy": -0.24589,
				"method": "rhf"
			},
			{
				"type": "unocc",
				"energy": -0.10059,
				"method": "rhf"
			},
			{
				"type": "unocc",
				"energy": -0.05263,
				"method": "rhf"
			},
			{
				"type": "unocc",
				"energy": -0.03987,
				"method": "rhf"
			},
			{
				"type": "unocc",
				"energy": 0.00474,
				"method": "rhf"
			},
			{
				"type": "unocc",
				"energy": 0.03883,
				"method": "rhf"
			}
		],
		"cosmo_sigma_profile": { 
			"-0.025": 0.0,
			"-0.024": 0.0,
			"-0.023": 0.0,
			"-0.022": 0.0,
			"-0.021": 0.0,
			"-0.02": 0.0,
			"-0.019": 0.0,
			"-0.018": 0.0,
			"-0.017": 0.0,
			"-0.016": 0.0,
			"-0.015": 0.0,
			"-0.014": 0.0,
			"-0.013": 0.0,
			"-0.012": 0.0,
			"-0.011": 0.0,
			"-0.01": 0.246469689792,
			"-0.009": 3.88061960943,
			"-0.008": 11.6483344531,
			"-0.007": 12.2502422363,
			"-0.006": 12.4843424497,
			"-0.005": 13.4072794765,
			"-0.004": 13.4584724758,
			"-0.003": 11.5798925881,
			"-0.002": 16.1169128876,
			"-0.001": 16.5408382913,
			"0.0": 18.6052757961,
			"0.001": 16.5214306754,
			"0.002": 18.2645722259,
			"0.003": 16.3697577398,
			"0.004": 8.3844843977,
			"0.005": 4.68194770904,
			"0.006": 6.13651774604,
			"0.007": 7.78125172413,
			"0.008": 9.88499748418,
			"0.009": 3.75578695017,
			"0.01": 2.203036441,
			"0.011": 3.74981243702,
			"0.012": 4.78311761645,
			"0.013": 0.800579532629,
			"0.014": 0.0,
			"0.015": 0.0,
			"0.016": 0.0,
			"0.017": 0.0,
			"0.018": 0.0,
			"0.019": 0.0,
			"0.02": 0.0,
			"0.021": 0.0,
			"0.022": 0.0,
			"0.023": 0.0,
			"0.024": 0.0,
			"0.025": 0.0
		}
	}
}
