{
	 "smiles": "ClC1=C(I)C=CC(Br)=C1", 
	 "Tm": 309.15, 
	 "num_atms": 12, 
	 "gaussian": { 
		 "optdone": 1, 
		 "sigma_profile": "no", 
		 "theory": "DFT", 
		 "functional": "B3LYP", 
		 "basiset": "6-31G**", 
		 "properties": { 
			 "R2extent": 5451.804, 
			 "electric_dipole_moment_norm": 1.31294585189, 
			 "electric_quadrupole_moment_norm": 6.74110995312, 
			 "total_energy": -3273.42141507, 
			 "HOMO_LUMO_gap": 0.19112, 
			 "cosmo_polarized_energy": -90707.44, 
			 "cosmo_cavitation_energy": 23.59, 
			 "cosmo_dispersion_energy": -19.45, 
			 "cosmo_repulsion_energy": 1.55, 
			 "cosmo_total_nonelectrostatic_energy": 5.69, 
			 "SMD_solvation_energy": 1.8 
		},
		"coords": [
			{
				"x": -5.2409919348,
				"y": 1.1654003156,
				"z": -2.2389745442,
				"element": "Cl" 
			},
			{
				"x": -3.5152096861,
				"y": 1.1102489984,
				"z": -1.9775623562,
				"element": "C" 
			},
			{
				"x": -2.7404594565,
				"y": 2.2722385325,
				"z": -1.8540343785,
				"element": "C" 
			},
			{
				"x": -3.5689594189,
				"y": 4.2087935337,
				"z": -1.9698906984,
				"element": "I" 
			},
			{
				"x": -1.362099678,
				"y": 2.1509706694,
				"z": -1.6455436795,
				"element": "C" 
			},
			{
				"x": -0.7564503045,
				"y": 0.8995212849,
				"z": -1.560105057,
				"element": "C" 
			},
			{
				"x": -1.5438850015,
				"y": -0.2432880375,
				"z": -1.6854643244,
				"element": "C" 
			},
			{
				"x": -0.7353204114,
				"y": -1.9656289022,
				"z": -1.5713619651,
				"element": "Br" 
			},
			{
				"x": -2.9161007033,
				"y": -0.1506725725,
				"z": -1.8931850067,
				"element": "C" 
			},
			{
				"x": -0.7554503256,
				"y": 3.0442066823,
				"z": -1.5488856969,
				"element": "H" 
			},
			{
				"x": 0.3118397182,
				"y": 0.8180607562,
				"z": -1.3984120866,
				"element": "H" 
			},
			{
				"x": -3.5246127978,
				"y": -1.0409512608,
				"z": -1.9900802064,
				"element": "H" 
			}
		],
		 "valence_orbital": [ 
			{
				"type": "occ",
				"energy": -0.30152,
				"method": "rhf"
			},
			{
				"type": "occ",
				"energy": -0.2908,
				"method": "rhf"
			},
			{
				"type": "occ",
				"energy": -0.27466,
				"method": "rhf"
			},
			{
				"type": "occ",
				"energy": -0.27205,
				"method": "rhf"
			},
			{
				"type": "occ",
				"energy": -0.24689,
				"method": "rhf"
			},
			{
				"type": "unocc",
				"energy": -0.05577,
				"method": "rhf"
			},
			{
				"type": "unocc",
				"energy": -0.04007,
				"method": "rhf"
			},
			{
				"type": "unocc",
				"energy": -0.03746,
				"method": "rhf"
			},
			{
				"type": "unocc",
				"energy": -0.01089,
				"method": "rhf"
			},
			{
				"type": "unocc",
				"energy": 0.03196,
				"method": "rhf"
			}
		],
		"cosmo_sigma_profile": { 
			"0.0": 0.0,
			"0.0": 0.0,
			"0.0": 0.0,
			"0.0": 0.0,
			"0.0": 0.0,
			"0.0": 0.0,
			"0.0": 0.0,
			"0.0": 0.0,
			"0.0": 0.0,
			"0.0": 0.0,
			"0.0": 0.0,
			"0.0": 0.0,
			"0.0": 0.0,
			"0.0": 0.0,
			"0.0": 0.0,
			"0.0": 0.0,
			"0.0": 0.0,
			"0.0": 0.0,
			"0.0": 0.0,
			"0.0": 0.0,
			"0.0": 0.0,
			"0.0": 0.0,
			"0.0": 0.0,
			"0.0": 0.0,
			"0.0": 0.0,
			"0.0": 0.0,
			"0.0": 0.0,
			"0.0": 0.0,
			"0.0": 0.0,
			"0.0": 0.0,
			"0.0": 0.0,
			"0.0": 0.0,
			"0.0": 0.0,
			"0.0": 0.0,
			"0.0": 0.0,
			"0.0": 0.0,
			"0.0": 0.0,
			"0.0": 0.0,
			"0.0": 0.0,
			"0.0": 0.0,
			"0.0": 0.0,
			"0.0": 0.0,
			"0.0": 0.0,
			"0.0": 0.0,
			"0.0": 0.0,
			"0.0": 0.0,
			"0.0": 0.0,
			"0.0": 0.0,
			"0.0": 0.0,
			"0.0": 0.0,
			"0.0": 0.0
		}
	}
}
