{
	 "smiles": "ClCC(=O)NNC(=O)C1=CC(Cl)=CC=C1", 
	 "Tm": 429.15, 
	 "num_atms": 23, 
	 "gaussian": { 
		 "optdone": 1, 
		 "sigma_profile": "yes", 
		 "theory": "DFT", 
		 "functional": "B3LYP", 
		 "basiset": "6-31G**", 
		 "properties": { 
			 "R2extent": 4907.778, 
			 "electric_dipole_moment_norm": 4.68333891791, 
			 "electric_quadrupole_moment_norm": 6.22538315608, 
			 "total_energy": -1528.10569731, 
			 "HOMO_LUMO_gap": 0.20305, 
			 "cosmo_polarized_energy": -18.09, 
			 "cosmo_cavitation_energy": 32.19, 
			 "cosmo_dispersion_energy": -22.4, 
			 "cosmo_repulsion_energy": 1.81, 
			 "cosmo_total_nonelectrostatic_energy": 11.6, 
			 "SMD_solvation_energy": 6.53 
		},
		"coords": [
			{
				"x": -4.5548708664,
				"y": -0.0186671273,
				"z": -0.5025708212,
				"element": "Cl" 
			},
			{
				"x": -3.4081663822,
				"y": 1.3245510079,
				"z": -0.9217568555,
				"element": "C" 
			},
			{
				"x": -2.1648569697,
				"y": 1.4655865523,
				"z": -0.0454414324,
				"element": "C" 
			},
			{
				"x": -1.4081009929,
				"y": 2.3978458492,
				"z": -0.2493693352,
				"element": "O" 
			},
			{
				"x": -1.9576563789,
				"y": 0.5102734557,
				"z": 0.9106282493,
				"element": "N" 
			},
			{
				"x": -0.8752237246,
				"y": 0.5889727534,
				"z": 1.7750811984,
				"element": "N" 
			},
			{
				"x": 0.4413478017,
				"y": 0.4577434461,
				"z": 1.3028236112,
				"element": "C" 
			},
			{
				"x": 1.3365660832,
				"y": 1.048194018,
				"z": 1.879980027,
				"element": "O" 
			},
			{
				"x": 0.6993685212,
				"y": -0.4701506414,
				"z": 0.1556680934,
				"element": "C" 
			},
			{
				"x": 1.7915993286,
				"y": -0.1603090937,
				"z": -0.6650906116,
				"element": "C" 
			},
			{
				"x": 2.1144677092,
				"y": -1.0097159727,
				"z": -1.7180512393,
				"element": "C" 
			},
			{
				"x": 3.4688139593,
				"y": -0.6118179318,
				"z": -2.7630403857,
				"element": "Cl" 
			},
			{
				"x": 1.3878078381,
				"y": -2.1776472096,
				"z": -1.9565875952,
				"element": "C" 
			},
			{
				"x": 0.3184603011,
				"y": -2.4922690806,
				"z": -1.1174428565,
				"element": "C" 
			},
			{
				"x": -0.0325468542,
				"y": -1.6434130581,
				"z": -0.0682980214,
				"element": "C" 
			},
			{
				"x": -3.9678076182,
				"y": 2.258322028,
				"z": -0.8702078692,
				"element": "H" 
			},
			{
				"x": -3.0839360896,
				"y": 1.1625376352,
				"z": -1.9503730014,
				"element": "H" 
			},
			{
				"x": -2.6433213771,
				"y": -0.2103508349,
				"z": 1.0853516288,
				"element": "H" 
			},
			{
				"x": -0.9314249788,
				"y": 1.3599061079,
				"z": 2.436572239,
				"element": "H" 
			},
			{
				"x": 2.3701866942,
				"y": 0.7341120652,
				"z": -0.4673359084,
				"element": "H" 
			},
			{
				"x": 1.6617408818,
				"y": -2.8286566546,
				"z": -2.779405611,
				"element": "H" 
			},
			{
				"x": -0.2403298856,
				"y": -3.408088497,
				"z": -1.2842235766,
				"element": "H" 
			},
			{
				"x": -0.8525170004,
				"y": -1.9103588172,
				"z": 0.5885900735,
				"element": "H" 
			}
		],
		 "valence_orbital": [ 
			{
				"type": "occ",
				"energy": -0.29658,
				"method": "rhf"
			},
			{
				"type": "occ",
				"energy": -0.28121,
				"method": "rhf"
			},
			{
				"type": "occ",
				"energy": -0.27708,
				"method": "rhf"
			},
			{
				"type": "occ",
				"energy": -0.26299,
				"method": "rhf"
			},
			{
				"type": "occ",
				"energy": -0.25673,
				"method": "rhf"
			},
			{
				"type": "unocc",
				"energy": -0.05368,
				"method": "rhf"
			},
			{
				"type": "unocc",
				"energy": -0.02354,
				"method": "rhf"
			},
			{
				"type": "unocc",
				"energy": -0.00786,
				"method": "rhf"
			},
			{
				"type": "unocc",
				"energy": -0.00138,
				"method": "rhf"
			},
			{
				"type": "unocc",
				"energy": 0.02269,
				"method": "rhf"
			}
		],
		"cosmo_sigma_profile": { 
			"-0.025": 0.0,
			"-0.024": 0.0,
			"-0.023": 0.0,
			"-0.022": 0.0,
			"-0.021": 0.0,
			"-0.02": 0.0,
			"-0.019": 0.0,
			"-0.018": 0.0,
			"-0.017": 0.0,
			"-0.016": 0.0,
			"-0.015": 0.262119589275,
			"-0.014": 1.58735718859,
			"-0.013": 1.74487765057,
			"-0.012": 1.84671721249,
			"-0.011": 2.42178161272,
			"-0.01": 3.61245346547,
			"-0.009": 6.5940502236,
			"-0.008": 8.35066884818,
			"-0.007": 11.1687213156,
			"-0.006": 13.6766905269,
			"-0.005": 13.7092364142,
			"-0.004": 11.0171874828,
			"-0.003": 10.3845510264,
			"-0.002": 12.7622381092,
			"-0.001": 14.6455551198,
			"0.0": 17.3668938067,
			"0.001": 22.6557656326,
			"0.002": 24.3930244118,
			"0.003": 17.7119056617,
			"0.004": 18.431592746,
			"0.005": 14.1017195317,
			"0.006": 3.85263650722,
			"0.007": 2.94307446111,
			"0.008": 2.826325613,
			"0.009": 2.93412071949,
			"0.01": 3.79295288835,
			"0.011": 5.81426308187,
			"0.012": 9.30248821251,
			"0.013": 1.91094903251,
			"0.014": 0.00283138269788,
			"0.015": 0.0,
			"0.016": 0.0,
			"0.017": 0.0,
			"0.018": 0.0,
			"0.019": 0.0,
			"0.02": 0.0,
			"0.021": 0.0,
			"0.022": 0.0,
			"0.023": 0.0,
			"0.024": 0.0,
			"0.025": 0.0
		}
	}
}
