{
	 "smiles": "OC(=O)CCC(=O)C1=C2C=CC3=CC=CC4=C3C2=C(C=C4)C=C1", 
	 "Tm": 458.15, 
	 "num_atms": 37, 
	 "gaussian": { 
		 "optdone": 1, 
		 "sigma_profile": "yes", 
		 "theory": "DFT", 
		 "functional": "B3LYP", 
		 "basiset": "6-31G**", 
		 "properties": { 
			 "R2extent": 9334.1413, 
			 "electric_dipole_moment_norm": 4.7958288439, 
			 "electric_quadrupole_moment_norm": 22.0078779356, 
			 "total_energy": -996.299826387, 
			 "HOMO_LUMO_gap": 0.12572, 
			 "cosmo_polarized_energy": -17.09, 
			 "cosmo_cavitation_energy": 40.25, 
			 "cosmo_dispersion_energy": -29.54, 
			 "cosmo_repulsion_energy": 2.17, 
			 "cosmo_total_nonelectrostatic_energy": 12.88, 
			 "SMD_solvation_energy": 7.09 
		},
		"coords": [
			{
				"x": -3.0367653943,
				"y": 2.9692385627,
				"z": -2.7703364488,
				"element": "O" 
			},
			{
				"x": -3.797172204,
				"y": 3.5757886688,
				"z": -1.8218823154,
				"element": "C" 
			},
			{
				"x": -3.9338159033,
				"y": 4.7764958927,
				"z": -1.7724942918,
				"element": "O" 
			},
			{
				"x": -4.4974638881,
				"y": 2.5816085536,
				"z": -0.9176840908,
				"element": "C" 
			},
			{
				"x": -3.7747185951,
				"y": 1.2497289575,
				"z": -0.7096629357,
				"element": "C" 
			},
			{
				"x": -2.4250933477,
				"y": 1.4338233676,
				"z": -0.0011613003,
				"element": "C" 
			},
			{
				"x": -2.0669782742,
				"y": 2.5781654695,
				"z": 0.2567137989,
				"element": "O" 
			},
			{
				"x": -1.6213066106,
				"y": 0.2192195956,
				"z": 0.3401437231,
				"element": "C" 
			},
			{
				"x": -0.3887288991,
				"y": 0.2724947115,
				"z": 1.0650042845,
				"element": "C" 
			},
			{
				"x": 0.2039757675,
				"y": 1.4939679231,
				"z": 1.5467595882,
				"element": "C" 
			},
			{
				"x": 1.3790819286,
				"y": 1.4930855955,
				"z": 2.237920622,
				"element": "C" 
			},
			{
				"x": 2.0917171177,
				"y": 0.2853521398,
				"z": 2.5242597739,
				"element": "C" 
			},
			{
				"x": 3.3041834902,
				"y": 0.2761980718,
				"z": 3.2349435035,
				"element": "C" 
			},
			{
				"x": 3.9690898571,
				"y": -0.9195924245,
				"z": 3.4946999317,
				"element": "C" 
			},
			{
				"x": 3.4379753876,
				"y": -2.129687806,
				"z": 3.0508398302,
				"element": "C" 
			},
			{
				"x": 2.2290479547,
				"y": -2.1672021397,
				"z": 2.3373530507,
				"element": "C" 
			},
			{
				"x": 1.5383691735,
				"y": -0.9455809269,
				"z": 2.0652180876,
				"element": "C" 
			},
			{
				"x": 0.3052113294,
				"y": -0.9543870431,
				"z": 1.3406295465,
				"element": "C" 
			},
			{
				"x": -0.2228787232,
				"y": -2.2058944329,
				"z": 0.8951946106,
				"element": "C" 
			},
			{
				"x": 0.4903739989,
				"y": -3.4183112814,
				"z": 1.1809097667,
				"element": "C" 
			},
			{
				"x": 1.6634397559,
				"y": -3.4010486534,
				"z": 1.8707424626,
				"element": "C" 
			},
			{
				"x": -1.4327267276,
				"y": -2.2168689976,
				"z": 0.1857245503,
				"element": "C" 
			},
			{
				"x": -2.1052275532,
				"y": -1.0354795462,
				"z": -0.0770538598,
				"element": "C" 
			},
			{
				"x": -2.6497091338,
				"y": 3.688581555,
				"z": -3.2965391268,
				"element": "H" 
			},
			{
				"x": -5.4800368702,
				"y": 2.3872358308,
				"z": -1.3667270919,
				"element": "H" 
			},
			{
				"x": -4.6711221955,
				"y": 3.0946389185,
				"z": 0.0296990738,
				"element": "H" 
			},
			{
				"x": -3.613054598,
				"y": 0.7560431991,
				"z": -1.673766828,
				"element": "H" 
			},
			{
				"x": -4.409795307,
				"y": 0.5801461918,
				"z": -0.1175192518,
				"element": "H" 
			},
			{
				"x": -0.3084708923,
				"y": 2.4213624112,
				"z": 1.3415828979,
				"element": "H" 
			},
			{
				"x": 1.7975590429,
				"y": 2.4339130289,
				"z": 2.586756284,
				"element": "H" 
			},
			{
				"x": 3.7191430807,
				"y": 1.2189855886,
				"z": 3.5812907346,
				"element": "H" 
			},
			{
				"x": 4.905190968,
				"y": -0.9099103839,
				"z": 4.0451440921,
				"element": "H" 
			},
			{
				"x": 3.9589328483,
				"y": -3.0614441907,
				"z": 3.2546646774,
				"element": "H" 
			},
			{
				"x": 0.0685763507,
				"y": -4.3566714876,
				"z": 0.8311377791,
				"element": "H" 
			},
			{
				"x": 2.1936603562,
				"y": -4.3263088257,
				"z": 2.0806997152,
				"element": "H" 
			},
			{
				"x": -1.84054952,
				"y": -3.1632729173,
				"z": -0.1582159564,
				"element": "H" 
			},
			{
				"x": -3.0341137706,
				"y": -1.0932131768,
				"z": -0.6306888875,
				"element": "H" 
			}
		],
		 "valence_orbital": [ 
			{
				"type": "occ",
				"energy": -0.26263,
				"method": "rhf"
			},
			{
				"type": "occ",
				"energy": -0.25939,
				"method": "rhf"
			},
			{
				"type": "occ",
				"energy": -0.24741,
				"method": "rhf"
			},
			{
				"type": "occ",
				"energy": -0.23959,
				"method": "rhf"
			},
			{
				"type": "occ",
				"energy": -0.20736,
				"method": "rhf"
			},
			{
				"type": "unocc",
				"energy": -0.08164,
				"method": "rhf"
			},
			{
				"type": "unocc",
				"energy": -0.03707,
				"method": "rhf"
			},
			{
				"type": "unocc",
				"energy": -0.0147,
				"method": "rhf"
			},
			{
				"type": "unocc",
				"energy": -0.0087,
				"method": "rhf"
			},
			{
				"type": "unocc",
				"energy": 0.02311,
				"method": "rhf"
			}
		],
		"cosmo_sigma_profile": { 
			"-0.025": 0.0,
			"-0.024": 0.0,
			"-0.023": 0.0,
			"-0.022": 0.0,
			"-0.021": 0.0,
			"-0.02": 0.0,
			"-0.019": 0.0,
			"-0.018": 0.34336815952,
			"-0.017": 1.10771921001,
			"-0.016": 0.58927960987,
			"-0.015": 1.03122043595,
			"-0.014": 0.716690099079,
			"-0.013": 0.814471911015,
			"-0.012": 0.51828927437,
			"-0.011": 0.703978478923,
			"-0.01": 0.687439587568,
			"-0.009": 0.644373937966,
			"-0.008": 0.56998486114,
			"-0.007": 11.2348388535,
			"-0.006": 27.6837353343,
			"-0.005": 23.9870128596,
			"-0.004": 25.8887289054,
			"-0.003": 18.6495333493,
			"-0.002": 16.8033249187,
			"-0.001": 13.1064597031,
			"0.0": 14.7116567292,
			"0.001": 16.3418458629,
			"0.002": 39.3018757172,
			"0.003": 42.7842250614,
			"0.004": 22.4098664203,
			"0.005": 7.07407939077,
			"0.006": 5.37662735452,
			"0.007": 3.99612059453,
			"0.008": 4.64612911283,
			"0.009": 4.04572137915,
			"0.01": 4.23124356243,
			"0.011": 4.51126582661,
			"0.012": 5.8194847037,
			"0.013": 2.03077716884,
			"0.014": 0.0780304323743,
			"0.015": 0.0,
			"0.016": 0.0,
			"0.017": 0.0,
			"0.018": 0.0,
			"0.019": 0.0,
			"0.02": 0.0,
			"0.021": 0.0,
			"0.022": 0.0,
			"0.023": 0.0,
			"0.024": 0.0,
			"0.025": 0.0
		}
	}
}
