{
	 "smiles": "CC1=C(O)C(=O)C2OC2C1=O", 
	 "Tm": 400.15, 
	 "num_atms": 17, 
	 "gaussian": { 
		 "optdone": 1, 
		 "sigma_profile": "yes", 
		 "theory": "DFT", 
		 "functional": "B3LYP", 
		 "basiset": "6-31G**", 
		 "properties": { 
			 "R2extent": 2027.3117, 
			 "electric_dipole_moment_norm": 3.95062828041, 
			 "electric_quadrupole_moment_norm": 14.602182642, 
			 "total_energy": -571.110035841, 
			 "HOMO_LUMO_gap": 0.16876, 
			 "cosmo_polarized_energy": -16.97, 
			 "cosmo_cavitation_energy": 21.64, 
			 "cosmo_dispersion_energy": -15.94, 
			 "cosmo_repulsion_energy": 1.28, 
			 "cosmo_total_nonelectrostatic_energy": 6.98, 
			 "SMD_solvation_energy": 5.26 
		},
		"coords": [
			{
				"x": 1.689452853,
				"y": 1.458146275,
				"z": -0.6176073099,
				"element": "C" 
			},
			{
				"x": 1.0877716729,
				"y": 0.5347709415,
				"z": 0.4101884697,
				"element": "C" 
			},
			{
				"x": -0.2690577021,
				"y": 0.3255609102,
				"z": 0.4936987916,
				"element": "C" 
			},
			{
				"x": -1.1719891299,
				"y": 0.8638333388,
				"z": -0.3466563506,
				"element": "O" 
			},
			{
				"x": -0.9394505372,
				"y": -0.5633832061,
				"z": 1.5639767504,
				"element": "C" 
			},
			{
				"x": -2.0089847035,
				"y": -1.1007592816,
				"z": 1.4179969386,
				"element": "O" 
			},
			{
				"x": 0.1062634219,
				"y": -0.6201949796,
				"z": 2.6478041766,
				"element": "C" 
			},
			{
				"x": 0.8336542019,
				"y": -1.6704270927,
				"z": 3.2850476389,
				"element": "O" 
			},
			{
				"x": 1.2421809572,
				"y": -1.2833250318,
				"z": 1.966937334,
				"element": "C" 
			},
			{
				"x": 2.043749728,
				"y": -0.1419638064,
				"z": 1.3680071916,
				"element": "C" 
			},
			{
				"x": 3.1842223683,
				"y": 0.218988577,
				"z": 1.5684560161,
				"element": "O" 
			},
			{
				"x": 1.146959112,
				"y": 2.4097138276,
				"z": -0.6874336212,
				"element": "H" 
			},
			{
				"x": 1.7164632393,
				"y": 1.0071819824,
				"z": -1.6185076556,
				"element": "H" 
			},
			{
				"x": 2.7186812515,
				"y": 1.6830413553,
				"z": -0.3288920108,
				"element": "H" 
			},
			{
				"x": -0.7200578391,
				"y": 1.3541377612,
				"z": -1.0486651576,
				"element": "H" 
			},
			{
				"x": 0.3198628056,
				"y": 0.3532767,
				"z": 3.0891831861,
				"element": "H" 
			},
			{
				"x": 0.9881783004,
				"y": -2.0482982707,
				"z": 1.2322656123,
				"element": "H" 
			}
		],
		 "valence_orbital": [ 
			{
				"type": "occ",
				"energy": -0.3331,
				"method": "rhf"
			},
			{
				"type": "occ",
				"energy": -0.31747,
				"method": "rhf"
			},
			{
				"type": "occ",
				"energy": -0.2735,
				"method": "rhf"
			},
			{
				"type": "occ",
				"energy": -0.26897,
				"method": "rhf"
			},
			{
				"type": "occ",
				"energy": -0.26145,
				"method": "rhf"
			},
			{
				"type": "unocc",
				"energy": -0.09269,
				"method": "rhf"
			},
			{
				"type": "unocc",
				"energy": -0.02174,
				"method": "rhf"
			},
			{
				"type": "unocc",
				"energy": 0.0233,
				"method": "rhf"
			},
			{
				"type": "unocc",
				"energy": 0.03959,
				"method": "rhf"
			},
			{
				"type": "unocc",
				"energy": 0.05614,
				"method": "rhf"
			}
		],
		"cosmo_sigma_profile": { 
			"-0.025": 0.0,
			"-0.024": 0.0,
			"-0.023": 0.0,
			"-0.022": 0.0,
			"-0.021": 0.0,
			"-0.02": 0.0,
			"-0.019": 0.056344996806,
			"-0.018": 0.571200244045,
			"-0.017": 1.06126304798,
			"-0.016": 0.582374519457,
			"-0.015": 1.03808454644,
			"-0.014": 1.13933592382,
			"-0.013": 1.17168049396,
			"-0.012": 1.51549731109,
			"-0.011": 1.70017819078,
			"-0.01": 6.19685419392,
			"-0.009": 6.62732710514,
			"-0.008": 6.33252413025,
			"-0.007": 5.08441741318,
			"-0.006": 7.22645752658,
			"-0.005": 7.24831680623,
			"-0.004": 7.84240338324,
			"-0.003": 11.5992375082,
			"-0.002": 11.3090475801,
			"-0.001": 11.5415083782,
			"0.0": 7.01192068797,
			"0.001": 5.62869585196,
			"0.002": 5.47923732426,
			"0.003": 5.63222138688,
			"0.004": 4.79770722477,
			"0.005": 6.22915473569,
			"0.006": 6.1207428502,
			"0.007": 5.40271496836,
			"0.008": 8.77477713992,
			"0.009": 9.91741028683,
			"0.01": 9.27410764867,
			"0.011": 7.15957635858,
			"0.012": 1.39763299649,
			"0.013": 0.0,
			"0.014": 0.0,
			"0.015": 0.0,
			"0.016": 0.0,
			"0.017": 0.0,
			"0.018": 0.0,
			"0.019": 0.0,
			"0.02": 0.0,
			"0.021": 0.0,
			"0.022": 0.0,
			"0.023": 0.0,
			"0.024": 0.0,
			"0.025": 0.0
		}
	}
}
