{
	 "smiles": "NC1=CC=C(C=C1)S(=O)C1=CC=C(N)C=C1", 
	 "Tm": 448.15, 
	 "num_atms": 28, 
	 "gaussian": { 
		 "optdone": 1, 
		 "sigma_profile": "yes", 
		 "theory": "DFT", 
		 "functional": "B3LYP", 
		 "basiset": "6-31G**", 
		 "properties": { 
			 "R2extent": 4916.1508, 
			 "electric_dipole_moment_norm": 7.13991052045, 
			 "electric_quadrupole_moment_norm": 8.072425148, 
			 "total_energy": -1047.37534171, 
			 "HOMO_LUMO_gap": 0.19226, 
			 "cosmo_polarized_energy": -22.55, 
			 "cosmo_cavitation_energy": 33.74, 
			 "cosmo_dispersion_energy": -24.65, 
			 "cosmo_repulsion_energy": 1.89, 
			 "cosmo_total_nonelectrostatic_energy": 10.98, 
			 "SMD_solvation_energy": 5.01 
		},
		"coords": [
			{
				"x": 3.5112000954,
				"y": 1.6538780379,
				"z": 2.6021998736,
				"element": "N" 
			},
			{
				"x": 2.4916745062,
				"y": 0.9580760665,
				"z": 1.9573678179,
				"element": "C" 
			},
			{
				"x": 1.1863161012,
				"y": 0.9467640685,
				"z": 2.4842854449,
				"element": "C" 
			},
			{
				"x": 0.1814391338,
				"y": 0.2066990804,
				"z": 1.871389986,
				"element": "C" 
			},
			{
				"x": 0.4620672311,
				"y": -0.5272604035,
				"z": 0.7197944628,
				"element": "C" 
			},
			{
				"x": 1.755516476,
				"y": -0.5473087811,
				"z": 0.1967413798,
				"element": "C" 
			},
			{
				"x": 2.7620922938,
				"y": 0.1969474018,
				"z": 0.8045508564,
				"element": "C" 
			},
			{
				"x": -0.8684811598,
				"y": -1.5228656981,
				"z": -0.0248140309,
				"element": "S" 
			},
			{
				"x": -2.0039948354,
				"y": -1.5270139223,
				"z": 0.9828286611,
				"element": "O" 
			},
			{
				"x": -1.375047468,
				"y": -0.3800874492,
				"z": -1.3492047334,
				"element": "C" 
			},
			{
				"x": -2.5023236511,
				"y": 0.4152393279,
				"z": -1.1486136503,
				"element": "C" 
			},
			{
				"x": -2.9359887145,
				"y": 1.2704121454,
				"z": -2.155516119,
				"element": "C" 
			},
			{
				"x": -2.2511973535,
				"y": 1.3377428776,
				"z": -3.3835779317,
				"element": "C" 
			},
			{
				"x": -2.7174097325,
				"y": 2.1523752376,
				"z": -4.4123966221,
				"element": "N" 
			},
			{
				"x": -1.1256895355,
				"y": 0.5145417881,
				"z": -3.576113033,
				"element": "C" 
			},
			{
				"x": -0.6975220276,
				"y": -0.3444660566,
				"z": -2.5685199839,
				"element": "C" 
			},
			{
				"x": 3.2128887832,
				"y": 2.4133589365,
				"z": 3.1978162538,
				"element": "H" 
			},
			{
				"x": 4.3033594672,
				"y": 1.9040343603,
				"z": 2.0274617756,
				"element": "H" 
			},
			{
				"x": 0.9695226897,
				"y": 1.5156975785,
				"z": 3.385368373,
				"element": "H" 
			},
			{
				"x": -0.8254102812,
				"y": 0.1734296185,
				"z": 2.2772728533,
				"element": "H" 
			},
			{
				"x": 1.9866677044,
				"y": -1.1406877956,
				"z": -0.6845238483,
				"element": "H" 
			},
			{
				"x": 3.7704578703,
				"y": 0.1797806866,
				"z": 0.398389593,
				"element": "H" 
			},
			{
				"x": -3.0314359442,
				"y": 0.3390231812,
				"z": -0.2031930807,
				"element": "H" 
			},
			{
				"x": -3.8180282344,
				"y": 1.8876436077,
				"z": -2.0016772202,
				"element": "H" 
			},
			{
				"x": -2.0334302984,
				"y": 2.4161020628,
				"z": -5.1074112782,
				"element": "H" 
			},
			{
				"x": -3.2945869976,
				"y": 2.9304739401,
				"z": -4.1260496407,
				"element": "H" 
			},
			{
				"x": -0.5990963407,
				"y": 0.5410245156,
				"z": -4.526936143,
				"element": "H" 
			},
			{
				"x": 0.1654402222,
				"y": -0.9830544132,
				"z": -2.7407200156,
				"element": "H" 
			}
		],
		 "valence_orbital": [ 
			{
				"type": "occ",
				"energy": -0.25426,
				"method": "rhf"
			},
			{
				"type": "occ",
				"energy": -0.24859,
				"method": "rhf"
			},
			{
				"type": "occ",
				"energy": -0.23008,
				"method": "rhf"
			},
			{
				"type": "occ",
				"energy": -0.20198,
				"method": "rhf"
			},
			{
				"type": "occ",
				"energy": -0.20176,
				"method": "rhf"
			},
			{
				"type": "unocc",
				"energy": -0.0095,
				"method": "rhf"
			},
			{
				"type": "unocc",
				"energy": -0.00548,
				"method": "rhf"
			},
			{
				"type": "unocc",
				"energy": 0.00236,
				"method": "rhf"
			},
			{
				"type": "unocc",
				"energy": 0.00873,
				"method": "rhf"
			},
			{
				"type": "unocc",
				"energy": 0.04974,
				"method": "rhf"
			}
		],
		"cosmo_sigma_profile": { 
			"-0.025": 0.0,
			"-0.024": 0.0,
			"-0.023": 0.0,
			"-0.022": 0.0,
			"-0.021": 0.0,
			"-0.02": 0.0,
			"-0.019": 0.0,
			"-0.018": 0.0,
			"-0.017": 0.0,
			"-0.016": 0.0,
			"-0.015": 0.0,
			"-0.014": 0.0,
			"-0.013": 1.68503764845,
			"-0.012": 6.08804098244,
			"-0.011": 5.77016614879,
			"-0.01": 6.27870493299,
			"-0.009": 6.71415488262,
			"-0.008": 6.82312281224,
			"-0.007": 10.6635740867,
			"-0.006": 13.8475940231,
			"-0.005": 14.3155013908,
			"-0.004": 15.3254890571,
			"-0.003": 11.9880063424,
			"-0.002": 10.9015061082,
			"-0.001": 13.5160311652,
			"0.0": 12.847027786,
			"0.001": 14.5992771798,
			"0.002": 16.3373987105,
			"0.003": 17.5597279911,
			"0.004": 19.0064452626,
			"0.005": 26.720349717,
			"0.006": 9.85225651704,
			"0.007": 3.05401810584,
			"0.008": 3.62030509455,
			"0.009": 3.39765048338,
			"0.01": 1.69226345482,
			"0.011": 2.98507741381,
			"0.012": 2.76741293568,
			"0.013": 3.80713164112,
			"0.014": 3.28108611361,
			"0.015": 3.01397148169,
			"0.016": 1.24355296664,
			"0.017": 0.0,
			"0.018": 0.0,
			"0.019": 0.0,
			"0.02": 0.0,
			"0.021": 0.0,
			"0.022": 0.0,
			"0.023": 0.0,
			"0.024": 0.0,
			"0.025": 0.0
		}
	}
}
