{
	 "smiles": "ClC1=C(C=O)C(=O)N2C=CC=CC2=N1", 
	 "Tm": 487.15, 
	 "num_atms": 19, 
	 "gaussian": { 
		 "optdone": 1, 
		 "sigma_profile": "yes", 
		 "theory": "DFT", 
		 "functional": "B3LYP", 
		 "basiset": "6-31G**", 
		 "properties": { 
			 "R2extent": 3155.1798, 
			 "electric_dipole_moment_norm": 8.00061429766, 
			 "electric_quadrupole_moment_norm": 4.12517981547, 
			 "total_energy": -1066.10225566, 
			 "HOMO_LUMO_gap": 0.14399, 
			 "cosmo_polarized_energy": -16.62, 
			 "cosmo_cavitation_energy": 25.94, 
			 "cosmo_dispersion_energy": -19.57, 
			 "cosmo_repulsion_energy": 1.49, 
			 "cosmo_total_nonelectrostatic_energy": 7.86, 
			 "SMD_solvation_energy": 4.78 
		},
		"coords": [
			{
				"x": -2.8681261019,
				"y": -2.0153304643,
				"z": -1.2878298139,
				"element": "Cl" 
			},
			{
				"x": -1.5793132933,
				"y": -1.0152618768,
				"z": -0.6755858731,
				"element": "C" 
			},
			{
				"x": -1.0732194952,
				"y": -1.210648127,
				"z": 0.6154594703,
				"element": "C" 
			},
			{
				"x": -1.5165318128,
				"y": -2.2241612815,
				"z": 1.6013855833,
				"element": "C" 
			},
			{
				"x": -2.3957189702,
				"y": -3.0498484064,
				"z": 1.4396470144,
				"element": "O" 
			},
			{
				"x": -0.0074298622,
				"y": -0.3520680359,
				"z": 1.0650124244,
				"element": "C" 
			},
			{
				"x": 0.5625891548,
				"y": -0.3627387109,
				"z": 2.1457515997,
				"element": "O" 
			},
			{
				"x": 0.4202076237,
				"y": 0.6469752963,
				"z": 0.0761740963,
				"element": "N" 
			},
			{
				"x": 1.4349582808,
				"y": 1.4970197409,
				"z": 0.4459701716,
				"element": "C" 
			},
			{
				"x": 1.893258363,
				"y": 2.4542524883,
				"z": -0.4111572823,
				"element": "C" 
			},
			{
				"x": 1.3085376488,
				"y": 2.5665423514,
				"z": -1.6997704149,
				"element": "C" 
			},
			{
				"x": 0.2966307185,
				"y": 1.7181512343,
				"z": -2.0672956336,
				"element": "C" 
			},
			{
				"x": -0.1792417988,
				"y": 0.7207337909,
				"z": -1.1711850158,
				"element": "C" 
			},
			{
				"x": -1.1632834419,
				"y": -0.097289226,
				"z": -1.5412167595,
				"element": "N" 
			},
			{
				"x": -0.9502007258,
				"y": -2.1649934834,
				"z": 2.549267536,
				"element": "H" 
			},
			{
				"x": 1.8055346834,
				"y": 1.3222738835,
				"z": 1.4476710955,
				"element": "H" 
			},
			{
				"x": 2.6941672683,
				"y": 3.1130194977,
				"z": -0.0976424348,
				"element": "H" 
			},
			{
				"x": 1.6634621417,
				"y": 3.323674904,
				"z": -2.3917619901,
				"element": "H" 
			},
			{
				"x": -0.1835803807,
				"y": 1.7607964249,
				"z": -3.0370937736,
				"element": "H" 
			}
		],
		 "valence_orbital": [ 
			{
				"type": "occ",
				"energy": -0.30212,
				"method": "rhf"
			},
			{
				"type": "occ",
				"energy": -0.29404,
				"method": "rhf"
			},
			{
				"type": "occ",
				"energy": -0.28397,
				"method": "rhf"
			},
			{
				"type": "occ",
				"energy": -0.24322,
				"method": "rhf"
			},
			{
				"type": "occ",
				"energy": -0.23977,
				"method": "rhf"
			},
			{
				"type": "unocc",
				"energy": -0.09578,
				"method": "rhf"
			},
			{
				"type": "unocc",
				"energy": -0.07257,
				"method": "rhf"
			},
			{
				"type": "unocc",
				"energy": -0.01359,
				"method": "rhf"
			},
			{
				"type": "unocc",
				"energy": -0.00622,
				"method": "rhf"
			},
			{
				"type": "unocc",
				"energy": 0.03425,
				"method": "rhf"
			}
		],
		"cosmo_sigma_profile": { 
			"-0.025": 0.0,
			"-0.024": 0.0,
			"-0.023": 0.0,
			"-0.022": 0.0,
			"-0.021": 0.0,
			"-0.02": 0.0,
			"-0.019": 0.0,
			"-0.018": 0.0,
			"-0.017": 0.0,
			"-0.016": 0.0,
			"-0.015": 0.0,
			"-0.014": 0.0,
			"-0.013": 0.0,
			"-0.012": 0.0,
			"-0.011": 0.0,
			"-0.01": 0.291925416687,
			"-0.009": 6.89413292265,
			"-0.008": 10.5039785542,
			"-0.007": 10.1595290767,
			"-0.006": 10.3021449485,
			"-0.005": 10.627273539,
			"-0.004": 12.2470151163,
			"-0.003": 18.3168746352,
			"-0.002": 19.9835880088,
			"-0.001": 18.3500628342,
			"0.0": 14.83966385,
			"0.001": 7.06436922453,
			"0.002": 7.97390369461,
			"0.003": 10.3143395014,
			"0.004": 8.83746836574,
			"0.005": 5.99770416016,
			"0.006": 4.33009513147,
			"0.007": 4.05891616641,
			"0.008": 4.29575783347,
			"0.009": 5.44255264717,
			"0.01": 6.48156297581,
			"0.011": 8.58290341485,
			"0.012": 5.35229162566,
			"0.013": 1.44761013529,
			"0.014": 0.0,
			"0.015": 0.0,
			"0.016": 0.0,
			"0.017": 0.0,
			"0.018": 0.0,
			"0.019": 0.0,
			"0.02": 0.0,
			"0.021": 0.0,
			"0.022": 0.0,
			"0.023": 0.0,
			"0.024": 0.0,
			"0.0": 0.0
		}
	}
}
