{
	 "smiles": "COC1=CC(CC(NC(C)=O)C(O)=O)=CC=C1", 
	 "Tm": 422.15, 
	 "num_atms": 32, 
	 "gaussian": { 
		 "optdone": 1, 
		 "sigma_profile": "yes", 
		 "theory": "DFT", 
		 "functional": "B3LYP", 
		 "basiset": "6-31G**", 
		 "properties": { 
			 "R2extent": 4996.2111, 
			 "electric_dipole_moment_norm": 5.63556027827, 
			 "electric_quadrupole_moment_norm": 32.5155701845, 
			 "total_energy": -821.994714106, 
			 "HOMO_LUMO_gap": 0.21357, 
			 "cosmo_polarized_energy": -19.27, 
			 "cosmo_cavitation_energy": 35.72, 
			 "cosmo_dispersion_energy": -24.61, 
			 "cosmo_repulsion_energy": 1.94, 
			 "cosmo_total_nonelectrostatic_energy": 13.06, 
			 "SMD_solvation_energy": 7.93 
		},
		"coords": [
			{
				"x": -1.037948882,
				"y": -2.2602296391,
				"z": -2.9275495512,
				"element": "C" 
			},
			{
				"x": -0.5049990318,
				"y": -1.0328918557,
				"z": -3.4025330775,
				"element": "O" 
			},
			{
				"x": 0.278729746,
				"y": -0.2972264085,
				"z": -2.565166877,
				"element": "C" 
			},
			{
				"x": 0.5983180776,
				"y": -0.6607246751,
				"z": -1.2535746533,
				"element": "C" 
			},
			{
				"x": 1.4196368801,
				"y": 0.1656668617,
				"z": -0.4679128991,
				"element": "C" 
			},
			{
				"x": 1.7353854509,
				"y": -0.2167372818,
				"z": 0.9627362209,
				"element": "C" 
			},
			{
				"x": 0.5410162057,
				"y": -0.0616000783,
				"z": 1.9200926527,
				"element": "C" 
			},
			{
				"x": -0.0061735709,
				"y": 1.3003941417,
				"z": 1.8308052958,
				"element": "N" 
			},
			{
				"x": -1.2551634478,
				"y": 1.6187424435,
				"z": 2.2471657495,
				"element": "C" 
			},
			{
				"x": -1.7855007511,
				"y": 2.9795124408,
				"z": 1.8508145665,
				"element": "C" 
			},
			{
				"x": -1.9378283319,
				"y": 0.8382549229,
				"z": 2.9280379469,
				"element": "O" 
			},
			{
				"x": 0.9578267263,
				"y": -0.4279543581,
				"z": 3.3704203703,
				"element": "C" 
			},
			{
				"x": -0.0238880394,
				"y": -0.3898441248,
				"z": 4.2720597576,
				"element": "O" 
			},
			{
				"x": 2.0880497742,
				"y": -0.7578592284,
				"z": 3.6516727486,
				"element": "O" 
			},
			{
				"x": 1.9174001735,
				"y": 1.3527999322,
				"z": -1.0130485238,
				"element": "C" 
			},
			{
				"x": 1.593491555,
				"y": 1.7137487962,
				"z": -2.3278709387,
				"element": "C" 
			},
			{
				"x": 0.7789629951,
				"y": 0.9013183705,
				"z": -3.1026815062,
				"element": "C" 
			},
			{
				"x": -1.6940804429,
				"y": -2.1083292815,
				"z": -2.0609439746,
				"element": "H" 
			},
			{
				"x": -1.6220307953,
				"y": -2.6730857203,
				"z": -3.7511799252,
				"element": "H" 
			},
			{
				"x": -0.2443144677,
				"y": -2.9684302104,
				"z": -2.6575929093,
				"element": "H" 
			},
			{
				"x": 0.2227447393,
				"y": -1.5861115862,
				"z": -0.8306166971,
				"element": "H" 
			},
			{
				"x": 2.5659680174,
				"y": 0.3830735889,
				"z": 1.3467183175,
				"element": "H" 
			},
			{
				"x": 2.065880318,
				"y": -1.257179318,
				"z": 1.0276326732,
				"element": "H" 
			},
			{
				"x": -0.2641009562,
				"y": -0.7533719141,
				"z": 1.6348517407,
				"element": "H" 
			},
			{
				"x": 0.4626046154,
				"y": 1.9306645266,
				"z": 1.1940030791,
				"element": "H" 
			},
			{
				"x": -2.6909729559,
				"y": 2.8391987682,
				"z": 1.2536942971,
				"element": "H" 
			},
			{
				"x": -1.0709442331,
				"y": 3.5774705213,
				"z": 1.280313975,
				"element": "H" 
			},
			{
				"x": -2.0717656029,
				"y": 3.5231038446,
				"z": 2.7548005828,
				"element": "H" 
			},
			{
				"x": -0.8643719945,
				"y": -0.0624498004,
				"z": 3.8521804628,
				"element": "H" 
			},
			{
				"x": 2.5796239264,
				"y": 1.9823606276,
				"z": -0.4238113276,
				"element": "H" 
			},
			{
				"x": 1.9885204191,
				"y": 2.6338998874,
				"z": -2.748961877,
				"element": "H" 
			},
			{
				"x": 0.5193238833,
				"y": 1.1596158066,
				"z": -4.1238556992,
				"element": "H" 
			}
		],
		 "valence_orbital": [ 
			{
				"type": "occ",
				"energy": -0.2948,
				"method": "rhf"
			},
			{
				"type": "occ",
				"energy": -0.28073,
				"method": "rhf"
			},
			{
				"type": "occ",
				"energy": -0.2607,
				"method": "rhf"
			},
			{
				"type": "occ",
				"energy": -0.25086,
				"method": "rhf"
			},
			{
				"type": "occ",
				"energy": -0.23188,
				"method": "rhf"
			},
			{
				"type": "unocc",
				"energy": -0.01831,
				"method": "rhf"
			},
			{
				"type": "unocc",
				"energy": -0.00366,
				"method": "rhf"
			},
			{
				"type": "unocc",
				"energy": -0.00246,
				"method": "rhf"
			},
			{
				"type": "unocc",
				"energy": 0.01687,
				"method": "rhf"
			},
			{
				"type": "unocc",
				"energy": 0.07038,
				"method": "rhf"
			}
		],
		"cosmo_sigma_profile": { 
			"-0.025": 0.0,
			"-0.024": 0.0,
			"-0.023": 0.0,
			"-0.022": 0.0,
			"-0.021": 0.0,
			"-0.02": 0.0,
			"-0.019": 0.0,
			"-0.018": 0.0,
			"-0.017": 0.0,
			"-0.016": 0.0,
			"-0.015": 0.0,
			"-0.014": 0.0,
			"-0.013": 0.322043743975,
			"-0.012": 1.07687621069,
			"-0.011": 2.10007793414,
			"-0.01": 1.47883554835,
			"-0.009": 1.69987112028,
			"-0.008": 3.34773978044,
			"-0.007": 8.59413425602,
			"-0.006": 18.887889179,
			"-0.005": 28.4138610438,
			"-0.004": 26.3438589298,
			"-0.003": 27.7938405228,
			"-0.002": 23.2194894873,
			"-0.001": 16.6985491547,
			"0.0": 13.2256792929,
			"0.001": 10.6345552679,
			"0.002": 9.57012555112,
			"0.003": 12.4047510267,
			"0.004": 13.7090042849,
			"0.005": 12.3166409438,
			"0.006": 8.84700974382,
			"0.007": 4.64635868692,
			"0.008": 5.31825840643,
			"0.009": 5.82146209863,
			"0.01": 6.39836627778,
			"0.011": 7.3306140026,
			"0.012": 8.04182388809,
			"0.013": 3.505778974,
			"0.014": 0.701263072133,
			"0.015": 0.0,
			"0.016": 0.0,
			"0.017": 0.0,
			"0.018": 0.0,
			"0.019": 0.0,
			"0.02": 0.0,
			"0.021": 0.0,
			"0.022": 0.0,
			"0.023": 0.0,
			"0.024": 0.0,
			"0.025": 0.0
		}
	}
}
