{
	 "smiles": "CC(=O)NC(=O)COC(=O)C1=CC=CC=C1", 
	 "Tm": 377.15, 
	 "num_atms": 27, 
	 "gaussian": { 
		 "optdone": 1, 
		 "sigma_profile": "yes", 
		 "theory": "DFT", 
		 "functional": "B3LYP", 
		 "basiset": "6-31G**", 
		 "properties": { 
			 "R2extent": 4584.6371, 
			 "electric_dipole_moment_norm": 4.36682400264, 
			 "electric_quadrupole_moment_norm": 14.1920525943, 
			 "total_energy": -781.480127676, 
			 "HOMO_LUMO_gap": 0.21295, 
			 "cosmo_polarized_energy": -17.6, 
			 "cosmo_cavitation_energy": 32.72, 
			 "cosmo_dispersion_energy": -22.73, 
			 "cosmo_repulsion_energy": 1.81, 
			 "cosmo_total_nonelectrostatic_energy": 11.8, 
			 "SMD_solvation_energy": 8.05 
		},
		"coords": [
			{
				"x": -2.6628956929,
				"y": -1.4295941591,
				"z": 2.1121352562,
				"element": "C" 
			},
			{
				"x": -1.7392467395,
				"y": -1.1603496706,
				"z": 0.937983813,
				"element": "C" 
			},
			{
				"x": -1.988198753,
				"y": -0.3562187782,
				"z": 0.0620137931,
				"element": "O" 
			},
			{
				"x": -0.5751974219,
				"y": -1.9380534229,
				"z": 0.9589836561,
				"element": "N" 
			},
			{
				"x": 0.491024837,
				"y": -1.9887878566,
				"z": 0.0517971707,
				"element": "C" 
			},
			{
				"x": 1.2962337211,
				"y": -2.8970043613,
				"z": 0.1348131778,
				"element": "O" 
			},
			{
				"x": 0.6068751196,
				"y": -0.8957627178,
				"z": -0.9967584653,
				"element": "C" 
			},
			{
				"x": 0.7579420739,
				"y": 0.3542455346,
				"z": -0.3117417247,
				"element": "O" 
			},
			{
				"x": 0.445881016,
				"y": 1.4585346791,
				"z": -1.0425686737,
				"element": "C" 
			},
			{
				"x": 0.1220602817,
				"y": 1.4058013327,
				"z": -2.2105655433,
				"element": "O" 
			},
			{
				"x": 0.5703762767,
				"y": 2.7131095165,
				"z": -0.2507203557,
				"element": "C" 
			},
			{
				"x": 0.9734742876,
				"y": 2.7194129625,
				"z": 1.0919066034,
				"element": "C" 
			},
			{
				"x": 1.0748061566,
				"y": 3.9272227661,
				"z": 1.7802623221,
				"element": "C" 
			},
			{
				"x": 0.7743487685,
				"y": 5.1294473667,
				"z": 1.1350230709,
				"element": "C" 
			},
			{
				"x": 0.3721663838,
				"y": 5.1251106257,
				"z": -0.2034275891,
				"element": "C" 
			},
			{
				"x": 0.2713364502,
				"y": 3.9210994601,
				"z": -0.8956776288,
				"element": "C" 
			},
			{
				"x": -2.9799138623,
				"y": -2.478230295,
				"z": 2.1277254831,
				"element": "H" 
			},
			{
				"x": -3.5396574514,
				"y": -0.7900029545,
				"z": 2.0183559522,
				"element": "H" 
			},
			{
				"x": -2.1569934539,
				"y": -1.2186519275,
				"z": 3.0603956235,
				"element": "H" 
			},
			{
				"x": -0.5058051928,
				"y": -2.6669406708,
				"z": 1.6600065006,
				"element": "H" 
			},
			{
				"x": 1.497845591,
				"y": -1.1114801808,
				"z": -1.5905942712,
				"element": "H" 
			},
			{
				"x": -0.2740663065,
				"y": -0.859970372,
				"z": -1.6411189858,
				"element": "H" 
			},
			{
				"x": 1.2061304209,
				"y": 1.7826222839,
				"z": 1.5847618551,
				"element": "H" 
			},
			{
				"x": 1.3887821298,
				"y": 3.9316426379,
				"z": 2.8199604785,
				"element": "H" 
			},
			{
				"x": 0.8542036792,
				"y": 6.0689508443,
				"z": 1.6746573362,
				"element": "H" 
			},
			{
				"x": 0.1385910718,
				"y": 6.0595294089,
				"z": -0.70504965,
				"element": "H" 
			},
			{
				"x": -0.0380033911,
				"y": 3.890917948,
				"z": -1.9348592049,
				"element": "H" 
			}
		],
		 "valence_orbital": [ 
			{
				"type": "occ",
				"energy": -0.28667,
				"method": "rhf"
			},
			{
				"type": "occ",
				"energy": -0.27494,
				"method": "rhf"
			},
			{
				"type": "occ",
				"energy": -0.27027,
				"method": "rhf"
			},
			{
				"type": "occ",
				"energy": -0.25945,
				"method": "rhf"
			},
			{
				"type": "occ",
				"energy": -0.25804,
				"method": "rhf"
			},
			{
				"type": "unocc",
				"energy": -0.04509,
				"method": "rhf"
			},
			{
				"type": "unocc",
				"energy": -0.04019,
				"method": "rhf"
			},
			{
				"type": "unocc",
				"energy": -0.00754,
				"method": "rhf"
			},
			{
				"type": "unocc",
				"energy": 0.0232,
				"method": "rhf"
			},
			{
				"type": "unocc",
				"energy": 0.0587,
				"method": "rhf"
			}
		],
		"cosmo_sigma_profile": { 
			"-0.025": 0.0,
			"-0.024": 0.0,
			"-0.023": 0.0,
			"-0.022": 0.0,
			"-0.021": 0.0,
			"-0.02": 0.0,
			"-0.019": 0.0,
			"-0.018": 0.0,
			"-0.017": 0.0,
			"-0.016": 0.350118928169,
			"-0.015": 0.982232995684,
			"-0.014": 1.37858791444,
			"-0.013": 1.12873516041,
			"-0.012": 1.17113081461,
			"-0.011": 0.994901336248,
			"-0.01": 1.37680057306,
			"-0.009": 1.63065297499,
			"-0.008": 3.23226201438,
			"-0.007": 10.397815605,
			"-0.006": 19.1315882701,
			"-0.005": 19.0766243208,
			"-0.004": 20.2444593112,
			"-0.003": 17.9212715082,
			"-0.002": 17.3966471678,
			"-0.001": 16.1692629673,
			"0.0": 13.3987307481,
			"0.001": 15.9880681972,
			"0.002": 17.1907221779,
			"0.003": 17.0595835281,
			"0.004": 16.5283972844,
			"0.005": 5.57829844232,
			"0.006": 4.56892396621,
			"0.007": 4.14237145983,
			"0.008": 4.67787220567,
			"0.009": 5.59760165924,
			"0.01": 6.40040239077,
			"0.011": 10.7471242179,
			"0.012": 5.71237257988,
			"0.013": 0.911573606137,
			"0.014": 0.0,
			"0.015": 0.0,
			"0.016": 0.0,
			"0.017": 0.0,
			"0.018": 0.0,
			"0.019": 0.0,
			"0.02": 0.0,
			"0.021": 0.0,
			"0.022": 0.0,
			"0.023": 0.0,
			"0.024": 0.0,
			"0.025": 0.0
		}
	}
}
