{
	 "smiles": "CC(C)C(NC(=O)CCC1=CC=CC=C1)C(O)=O", 
	 "Tm": 421.15, 
	 "num_atms": 37, 
	 "gaussian": { 
		 "optdone": 1, 
		 "sigma_profile": "yes", 
		 "theory": "DFT", 
		 "functional": "B3LYP", 
		 "basiset": "6-31G**", 
		 "properties": { 
			 "R2extent": 5732.6321, 
			 "electric_dipole_moment_norm": 5.5506386065, 
			 "electric_quadrupole_moment_norm": 21.7837384085, 
			 "total_energy": -825.417125912, 
			 "HOMO_LUMO_gap": 0.2362, 
			 "cosmo_polarized_energy": -17.21, 
			 "cosmo_cavitation_energy": 38.98, 
			 "cosmo_dispersion_energy": -26.44, 
			 "cosmo_repulsion_energy": 2.08, 
			 "cosmo_total_nonelectrostatic_energy": 14.61, 
			 "SMD_solvation_energy": 7.13 
		},
		"coords": [
			{
				"x": -3.5224108643,
				"y": 0.0640673282,
				"z": 1.0905766342,
				"element": "C" 
			},
			{
				"x": -2.2077709236,
				"y": -0.6529678427,
				"z": 1.4459686288,
				"element": "C" 
			},
			{
				"x": -2.4297166031,
				"y": -1.7033747683,
				"z": 2.5454788583,
				"element": "C" 
			},
			{
				"x": -1.0509574152,
				"y": 0.3000750046,
				"z": 1.8193028928,
				"element": "C" 
			},
			{
				"x": -0.690252687,
				"y": 1.1367841881,
				"z": 0.6634075528,
				"element": "N" 
			},
			{
				"x": 0.5394394995,
				"y": 1.6709857724,
				"z": 0.4900454022,
				"element": "C" 
			},
			{
				"x": 1.408435536,
				"y": 1.6066524199,
				"z": 1.3757426226,
				"element": "O" 
			},
			{
				"x": 0.8104564075,
				"y": 2.3748429288,
				"z": -0.8294331331,
				"element": "C" 
			},
			{
				"x": 2.1545514069,
				"y": 1.9320503441,
				"z": -1.4497388733,
				"element": "C" 
			},
			{
				"x": 2.1506530637,
				"y": 0.4925361882,
				"z": -1.9220394024,
				"element": "C" 
			},
			{
				"x": 2.5436881249,
				"y": -0.5465257534,
				"z": -1.0660385985,
				"element": "C" 
			},
			{
				"x": 2.5097703081,
				"y": -1.874753313,
				"z": -1.4945645419,
				"element": "C" 
			},
			{
				"x": 2.0827360211,
				"y": -2.1859585288,
				"z": -2.7867912789,
				"element": "C" 
			},
			{
				"x": 1.6912171255,
				"y": -1.159884431,
				"z": -3.6490632416,
				"element": "C" 
			},
			{
				"x": 1.7261720019,
				"y": 0.1669246206,
				"z": -3.2178677992,
				"element": "C" 
			},
			{
				"x": -1.2908856142,
				"y": 1.1739567934,
				"z": 3.080103978,
				"element": "C" 
			},
			{
				"x": -0.2233941779,
				"y": 1.8780244412,
				"z": 3.471641072,
				"element": "O" 
			},
			{
				"x": -2.3365977465,
				"y": 1.2132190497,
				"z": 3.6899329637,
				"element": "O" 
			},
			{
				"x": -4.2677343548,
				"y": -0.6694911342,
				"z": 0.7672463205,
				"element": "H" 
			},
			{
				"x": -3.4094533845,
				"y": 0.7801083806,
				"z": 0.2664686667,
				"element": "H" 
			},
			{
				"x": -3.9119819537,
				"y": 0.6034539281,
				"z": 1.955193339,
				"element": "H" 
			},
			{
				"x": -1.8550884509,
				"y": -1.1824828966,
				"z": 0.548866533,
				"element": "H" 
			},
			{
				"x": -3.1705344753,
				"y": -2.4395683322,
				"z": 2.2180998622,
				"element": "H" 
			},
			{
				"x": -2.7923131222,
				"y": -1.2346605586,
				"z": 3.4627387194,
				"element": "H" 
			},
			{
				"x": -1.5039559901,
				"y": -2.2434849778,
				"z": 2.7739112528,
				"element": "H" 
			},
			{
				"x": -0.1634213008,
				"y": -0.3080912488,
				"z": 2.0402644486,
				"element": "H" 
			},
			{
				"x": -1.371668443,
				"y": 1.2298841219,
				"z": -0.0752328332,
				"element": "H" 
			},
			{
				"x": -0.0091186348,
				"y": 2.2128900348,
				"z": -1.5381888178,
				"element": "H" 
			},
			{
				"x": 0.8521793317,
				"y": 3.4495319274,
				"z": -0.612866885,
				"element": "H" 
			},
			{
				"x": 2.3758654812,
				"y": 2.5986569985,
				"z": -2.2901172896,
				"element": "H" 
			},
			{
				"x": 2.9351934385,
				"y": 2.0826838588,
				"z": -0.6985200041,
				"element": "H" 
			},
			{
				"x": 2.8751435716,
				"y": -0.3072918991,
				"z": -0.0594266242,
				"element": "H" 
			},
			{
				"x": 2.8232039374,
				"y": -2.6664396505,
				"z": -0.8196376393,
				"element": "H" 
			},
			{
				"x": 2.0610788574,
				"y": -3.2190276032,
				"z": -3.121740107,
				"element": "H" 
			},
			{
				"x": 1.3651283576,
				"y": -1.3914824443,
				"z": -4.6592747991,
				"element": "H" 
			},
			{
				"x": 1.4290027169,
				"y": 0.961869134,
				"z": -3.8987518618,
				"element": "H" 
			},
			{
				"x": 0.5326409545,
				"y": 1.7433879194,
				"z": 2.8439039825,
				"element": "H" 
			}
		],
		 "valence_orbital": [ 
			{
				"type": "occ",
				"energy": -0.29459,
				"method": "rhf"
			},
			{
				"type": "occ",
				"energy": -0.28088,
				"method": "rhf"
			},
			{
				"type": "occ",
				"energy": -0.25515,
				"method": "rhf"
			},
			{
				"type": "occ",
				"energy": -0.25194,
				"method": "rhf"
			},
			{
				"type": "occ",
				"energy": -0.24903,
				"method": "rhf"
			},
			{
				"type": "unocc",
				"energy": -0.01283,
				"method": "rhf"
			},
			{
				"type": "unocc",
				"energy": -0.00842,
				"method": "rhf"
			},
			{
				"type": "unocc",
				"energy": -0.00073,
				"method": "rhf"
			},
			{
				"type": "unocc",
				"energy": 0.01399,
				"method": "rhf"
			},
			{
				"type": "unocc",
				"energy": 0.05434,
				"method": "rhf"
			}
		],
		"cosmo_sigma_profile": { 
			"-0.025": 0.0,
			"-0.024": 0.0,
			"-0.023": 0.0,
			"-0.022": 0.0,
			"-0.021": 0.0,
			"-0.02": 0.0,
			"-0.019": 0.0,
			"-0.018": 0.0,
			"-0.017": 0.0,
			"-0.016": 0.0,
			"-0.015": 0.180199700904,
			"-0.014": 1.3779225137,
			"-0.013": 0.992906499085,
			"-0.012": 1.9067560941,
			"-0.011": 1.24988968902,
			"-0.01": 0.963404584199,
			"-0.009": 2.16544308946,
			"-0.008": 2.20558615924,
			"-0.007": 4.05477625876,
			"-0.006": 8.37185157416,
			"-0.005": 18.9483153627,
			"-0.004": 28.2915792157,
			"-0.003": 34.8612180944,
			"-0.002": 29.9182932045,
			"-0.001": 27.1618532551,
			"0.0": 24.0780157939,
			"0.001": 22.9652907136,
			"0.002": 16.2417894185,
			"0.003": 11.0806883605,
			"0.004": 12.6502127282,
			"0.005": 11.6570281932,
			"0.006": 12.2440159284,
			"0.007": 5.43058749544,
			"0.008": 3.90530782282,
			"0.009": 4.16158796705,
			"0.01": 4.68057638816,
			"0.011": 6.38481629693,
			"0.012": 5.32439946944,
			"0.013": 2.51828816344,
			"0.014": 0.252152688391,
			"0.015": 0.0,
			"0.016": 0.0,
			"0.017": 0.0,
			"0.018": 0.0,
			"0.019": 0.0,
			"0.02": 0.0,
			"0.021": 0.0,
			"0.022": 0.0,
			"0.023": 0.0,
			"0.024": 0.0,
			"0.025": 0.0
		}
	}
}
