{
	 "smiles": "COC1=CC2=C(CCNC2C)C=C1O", 
	 "Tm": 495.15, 
	 "num_atms": 29, 
	 "gaussian": { 
		 "optdone": 1, 
		 "sigma_profile": "yes", 
		 "theory": "DFT", 
		 "functional": "B3LYP", 
		 "basiset": "6-31G**", 
		 "properties": { 
			 "R2extent": 3331.6946, 
			 "electric_dipole_moment_norm": 2.31634827476, 
			 "electric_quadrupole_moment_norm": 12.358103808, 
			 "total_energy": -633.399551169, 
			 "HOMO_LUMO_gap": 0.20585, 
			 "cosmo_polarized_energy": -9.94, 
			 "cosmo_cavitation_energy": 30.17, 
			 "cosmo_dispersion_energy": -22.39, 
			 "cosmo_repulsion_energy": 1.76, 
			 "cosmo_total_nonelectrostatic_energy": 9.54, 
			 "SMD_solvation_energy": 3.4 
		},
		"coords": [
			{
				"x": -0.3646447638,
				"y": -3.0304003029,
				"z": 0.7739371658,
				"element": "C" 
			},
			{
				"x": -1.341935736,
				"y": -2.2507194222,
				"z": 0.1052583318,
				"element": "O" 
			},
			{
				"x": -1.0407819322,
				"y": -0.9376915437,
				"z": -0.1821393723,
				"element": "C" 
			},
			{
				"x": 0.1484968957,
				"y": -0.2845930741,
				"z": 0.1112910532,
				"element": "C" 
			},
			{
				"x": 0.3411311201,
				"y": 1.0647957036,
				"z": -0.2437295479,
				"element": "C" 
			},
			{
				"x": -0.7043876149,
				"y": 1.7563951936,
				"z": -0.8737110219,
				"element": "C" 
			},
			{
				"x": -0.5630363572,
				"y": 3.2234108891,
				"z": -1.2329736591,
				"element": "C" 
			},
			{
				"x": 0.5616299637,
				"y": 3.8843958402,
				"z": -0.4269753046,
				"element": "C" 
			},
			{
				"x": 1.8023816366,
				"y": 3.111525265,
				"z": -0.4637386682,
				"element": "N" 
			},
			{
				"x": 1.6557537225,
				"y": 1.7708708968,
				"z": 0.1195262551,
				"element": "C" 
			},
			{
				"x": 2.9025371817,
				"y": 0.956086027,
				"z": -0.2507559487,
				"element": "C" 
			},
			{
				"x": -1.903636195,
				"y": 1.0866271471,
				"z": -1.166294743,
				"element": "C" 
			},
			{
				"x": -2.0819523921,
				"y": -0.2476641824,
				"z": -0.834928873,
				"element": "C" 
			},
			{
				"x": -3.2519808761,
				"y": -0.8840456421,
				"z": -1.1253316261,
				"element": "O" 
			},
			{
				"x": -0.7991953845,
				"y": -4.0231725152,
				"z": 0.9016384486,
				"element": "H" 
			},
			{
				"x": -0.1228855266,
				"y": -2.611272504,
				"z": 1.7590032929,
				"element": "H" 
			},
			{
				"x": 0.556331718,
				"y": -3.1112924846,
				"z": 0.1826209246,
				"element": "H" 
			},
			{
				"x": 0.9402030436,
				"y": -0.8196165254,
				"z": 0.6232616444,
				"element": "H" 
			},
			{
				"x": -0.3422022078,
				"y": 3.3277576211,
				"z": -2.3062806079,
				"element": "H" 
			},
			{
				"x": -1.5165150112,
				"y": 3.7417869983,
				"z": -1.0692824799,
				"element": "H" 
			},
			{
				"x": 0.7626211591,
				"y": 4.8958591522,
				"z": -0.797742625,
				"element": "H" 
			},
			{
				"x": 0.2599459493,
				"y": 3.983725602,
				"z": 0.6238452184,
				"element": "H" 
			},
			{
				"x": 2.0932603673,
				"y": 3.0108993719,
				"z": -1.4358601408,
				"element": "H" 
			},
			{
				"x": 1.662960497,
				"y": 1.9085291748,
				"z": 1.2131681244,
				"element": "H" 
			},
			{
				"x": 2.9164335317,
				"y": 0.7356089012,
				"z": -1.3246719425,
				"element": "H" 
			},
			{
				"x": 2.9479184428,
				"y": 0.0041995672,
				"z": 0.2838538649,
				"element": "H" 
			},
			{
				"x": 3.7992775192,
				"y": 1.5307553229,
				"z": -0.0015209563,
				"element": "H" 
			},
			{
				"x": -2.7219361428,
				"y": 1.6093203005,
				"z": -1.6535665997,
				"element": "H" 
			},
			{
				"x": -3.1649926081,
				"y": -1.7931807777,
				"z": -0.8002002074,
				"element": "H" 
			}
		],
		 "valence_orbital": [ 
			{
				"type": "occ",
				"energy": -0.31718,
				"method": "rhf"
			},
			{
				"type": "occ",
				"energy": -0.29758,
				"method": "rhf"
			},
			{
				"type": "occ",
				"energy": -0.22849,
				"method": "rhf"
			},
			{
				"type": "occ",
				"energy": -0.21434,
				"method": "rhf"
			},
			{
				"type": "occ",
				"energy": -0.19684,
				"method": "rhf"
			},
			{
				"type": "unocc",
				"energy": 0.00901,
				"method": "rhf"
			},
			{
				"type": "unocc",
				"energy": 0.02165,
				"method": "rhf"
			},
			{
				"type": "unocc",
				"energy": 0.07948,
				"method": "rhf"
			},
			{
				"type": "unocc",
				"energy": 0.09031,
				"method": "rhf"
			},
			{
				"type": "unocc",
				"energy": 0.09882,
				"method": "rhf"
			}
		],
		"cosmo_sigma_profile": { 
			"-0.025": 0.0,
			"-0.024": 0.0,
			"-0.023": 0.0,
			"-0.022": 0.0,
			"-0.021": 0.0,
			"-0.02": 0.0,
			"-0.019": 0.0,
			"-0.018": 0.0,
			"-0.017": 0.0,
			"-0.016": 0.0,
			"-0.015": 0.0,
			"-0.014": 0.480814190518,
			"-0.013": 0.31032414318,
			"-0.012": 0.650624386302,
			"-0.011": 0.287622426419,
			"-0.01": 0.765581494341,
			"-0.009": 2.07377916181,
			"-0.008": 1.26463284463,
			"-0.007": 2.75979209067,
			"-0.006": 6.81241567894,
			"-0.005": 16.3873950371,
			"-0.004": 17.1509078716,
			"-0.003": 29.7796719992,
			"-0.002": 23.2212965392,
			"-0.001": 24.3261237303,
			"0.0": 21.0315328621,
			"0.001": 15.9574943108,
			"0.002": 10.9798971823,
			"0.003": 11.2998568016,
			"0.004": 9.99630193847,
			"0.005": 11.9252529942,
			"0.006": 10.1465765987,
			"0.007": 3.5104814796,
			"0.008": 2.10342175798,
			"0.009": 2.58519880944,
			"0.01": 2.03691087809,
			"0.011": 2.39934348692,
			"0.012": 2.47845521179,
			"0.013": 0.609554030348,
			"0.014": 0.566453531518,
			"0.015": 0.284840390075,
			"0.016": 1.0167883057,
			"0.017": 0.210437184792,
			"0.018": 0.547167101389,
			"0.019": 0.122376045044,
			"0.02": 0.0,
			"0.021": 0.0,
			"0.022": 0.0,
			"0.023": 0.0,
			"0.024": 0.0,
			"0.025": 0.0
		}
	}
}
