{
	 "smiles": "NC(=S)N1CCOCC1", 
	 "Tm": 427.15, 
	 "num_atms": 19, 
	 "gaussian": { 
		 "optdone": 1, 
		 "sigma_profile": "yes", 
		 "theory": "DFT", 
		 "functional": "B3LYP", 
		 "basiset": "6-31G**", 
		 "properties": { 
			 "R2extent": 1787.1972, 
			 "electric_dipole_moment_norm": 4.48738606986, 
			 "electric_quadrupole_moment_norm": 23.201810752, 
			 "total_energy": -779.463140265, 
			 "HOMO_LUMO_gap": 0.20049, 
			 "cosmo_polarized_energy": -18.09, 
			 "cosmo_cavitation_energy": 22.4, 
			 "cosmo_dispersion_energy": -17.66, 
			 "cosmo_repulsion_energy": 1.41, 
			 "cosmo_total_nonelectrostatic_energy": 6.15, 
			 "SMD_solvation_energy": 2.23 
		},
		"coords": [
			{
				"x": 1.8803681306,
				"y": -0.6022086078,
				"z": -2.3175673247,
				"element": "N" 
			},
			{
				"x": 1.9512022889,
				"y": -0.6367540256,
				"z": -0.9454161051,
				"element": "C" 
			},
			{
				"x": 3.3296719269,
				"y": -1.2377103459,
				"z": -0.1803835018,
				"element": "S" 
			},
			{
				"x": 0.8735285295,
				"y": -0.1197076327,
				"z": -0.2953628195,
				"element": "N" 
			},
			{
				"x": 0.7829335859,
				"y": -0.123115875,
				"z": 1.1671792903,
				"element": "C" 
			},
			{
				"x": -0.6676660171,
				"y": -0.3175159774,
				"z": 1.5958534148,
				"element": "C" 
			},
			{
				"x": -1.5717246033,
				"y": 0.639407153,
				"z": 1.0286629343,
				"element": "O" 
			},
			{
				"x": -1.0237740648,
				"y": 1.4086849019,
				"z": -0.0255715856,
				"element": "C" 
			},
			{
				"x": -0.2167684564,
				"y": 0.5610366934,
				"z": -1.0075863606,
				"element": "C" 
			},
			{
				"x": 0.981788096,
				"y": -0.6611776014,
				"z": -2.7769564026,
				"element": "H" 
			},
			{
				"x": 2.6348591637,
				"y": -1.0945101176,
				"z": -2.7724176472,
				"element": "H" 
			},
			{
				"x": 1.4026999188,
				"y": -0.9385315338,
				"z": 1.5439234631,
				"element": "H" 
			},
			{
				"x": 1.1943736368,
				"y": 0.8079253356,
				"z": 1.5785162357,
				"element": "H" 
			},
			{
				"x": -1.0000045718,
				"y": -1.3252810187,
				"z": 1.3095892745,
				"element": "H" 
			},
			{
				"x": -0.7359525487,
				"y": -0.238542106,
				"z": 2.687057665,
				"element": "H" 
			},
			{
				"x": -1.8679613758,
				"y": 1.8665952694,
				"z": -0.549415712,
				"element": "H" 
			},
			{
				"x": -0.3904927854,
				"y": 2.2232456383,
				"z": 0.3591807967,
				"element": "H" 
			},
			{
				"x": 0.2005962346,
				"y": 1.2060253675,
				"z": -1.7900870844,
				"element": "H" 
			},
			{
				"x": -0.8875770885,
				"y": -0.169265517,
				"z": -1.4862985308,
				"element": "H" 
			}
		],
		 "valence_orbital": [ 
			{
				"type": "occ",
				"energy": -0.32029,
				"method": "rhf"
			},
			{
				"type": "occ",
				"energy": -0.26974,
				"method": "rhf"
			},
			{
				"type": "occ",
				"energy": -0.25964,
				"method": "rhf"
			},
			{
				"type": "occ",
				"energy": -0.21128,
				"method": "rhf"
			},
			{
				"type": "occ",
				"energy": -0.20025,
				"method": "rhf"
			},
			{
				"type": "unocc",
				"energy": 0.00024,
				"method": "rhf"
			},
			{
				"type": "unocc",
				"energy": 0.06221,
				"method": "rhf"
			},
			{
				"type": "unocc",
				"energy": 0.07921,
				"method": "rhf"
			},
			{
				"type": "unocc",
				"energy": 0.08921,
				"method": "rhf"
			},
			{
				"type": "unocc",
				"energy": 0.101,
				"method": "rhf"
			}
		],
		"cosmo_sigma_profile": { 
			"-0.025": 0.0,
			"-0.024": 0.0,
			"-0.023": 0.0,
			"-0.022": 0.0,
			"-0.021": 0.0,
			"-0.02": 0.0,
			"-0.019": 0.0,
			"-0.018": 0.0,
			"-0.017": 0.0,
			"-0.016": 0.0,
			"-0.015": 0.082072693432,
			"-0.014": 1.44676539432,
			"-0.013": 2.72021425171,
			"-0.012": 2.20234728739,
			"-0.011": 2.92719637725,
			"-0.01": 2.87063663761,
			"-0.009": 1.70646213976,
			"-0.008": 1.99686167312,
			"-0.007": 3.58720235224,
			"-0.006": 13.2812503158,
			"-0.005": 22.3433407413,
			"-0.004": 18.2704104816,
			"-0.003": 13.8731488907,
			"-0.002": 8.06872340827,
			"-0.001": 6.24073619483,
			"0.0": 5.5226636591,
			"0.001": 4.65633798424,
			"0.002": 3.9753471191,
			"0.003": 4.14738946273,
			"0.004": 5.31319956028,
			"0.005": 4.85075839809,
			"0.006": 5.67663249858,
			"0.007": 5.34695531431,
			"0.008": 5.89178781993,
			"0.009": 5.21720137423,
			"0.01": 6.13290705212,
			"0.011": 7.76033517257,
			"0.012": 7.9986883771,
			"0.013": 3.56119849434,
			"0.014": 0.119412747976,
			"0.015": 0.0,
			"0.016": 0.0,
			"0.017": 0.0,
			"0.018": 0.0,
			"0.019": 0.0,
			"0.02": 0.0,
			"0.021": 0.0,
			"0.022": 0.0,
			"0.023": 0.0,
			"0.024": 0.0,
			"0.025": 0.0
		}
	}
}
