{
	 "smiles": "CC(=O)CC(=O)C(O)=O", 
	 "Tm": 372.65, 
	 "num_atms": 15, 
	 "gaussian": { 
		 "optdone": 1, 
		 "sigma_profile": "yes", 
		 "theory": "DFT", 
		 "functional": "B3LYP", 
		 "basiset": "6-31G**", 
		 "properties": { 
			 "R2extent": 2129.7404, 
			 "electric_dipole_moment_norm": 3.06176123824, 
			 "electric_quadrupole_moment_norm": 11.1998806895, 
			 "total_energy": -495.03635347, 
			 "HOMO_LUMO_gap": 0.16084, 
			 "cosmo_polarized_energy": -14.11, 
			 "cosmo_cavitation_energy": 20.28, 
			 "cosmo_dispersion_energy": -14.3, 
			 "cosmo_repulsion_energy": 1.21, 
			 "cosmo_total_nonelectrostatic_energy": 7.19, 
			 "SMD_solvation_energy": 6.3 
		},
		"coords": [
			{
				"x": 0.3639756673,
				"y": 0.8262255493,
				"z": 0.369214266,
				"element": "C" 
			},
			{
				"x": -0.0202265317,
				"y": 0.992242098,
				"z": -1.084220157,
				"element": "C" 
			},
			{
				"x": -0.5439794019,
				"y": 1.9918145745,
				"z": -1.5183853923,
				"element": "O" 
			},
			{
				"x": 0.2206455282,
				"y": -0.2106176867,
				"z": -2.0375023053,
				"element": "C" 
			},
			{
				"x": 1.3512997084,
				"y": -1.1317010436,
				"z": -1.6797492127,
				"element": "C" 
			},
			{
				"x": 1.2238901411,
				"y": -2.2911183074,
				"z": -1.3205513322,
				"element": "O" 
			},
			{
				"x": 2.7852062878,
				"y": -0.5606699105,
				"z": -1.7689549473,
				"element": "C" 
			},
			{
				"x": 3.71945289,
				"y": -1.4816012966,
				"z": -1.5214921321,
				"element": "O" 
			},
			{
				"x": 3.0098756449,
				"y": 0.6004138471,
				"z": -2.0152167321,
				"element": "O" 
			},
			{
				"x": 0.0302136158,
				"y": -0.1410707053,
				"z": 0.7603675195,
				"element": "H" 
			},
			{
				"x": -0.0623232356,
				"y": 1.6401960074,
				"z": 0.9564298803,
				"element": "H" 
			},
			{
				"x": 1.4566385424,
				"y": 0.8613836758,
				"z": 0.4565234079,
				"element": "H" 
			},
			{
				"x": -0.7002343877,
				"y": -0.8035551376,
				"z": -2.0564009722,
				"element": "H" 
			},
			{
				"x": 0.3910778447,
				"y": 0.2190452639,
				"z": -3.0283732284,
				"element": "H" 
			},
			{
				"x": 3.2403876863,
				"y": -2.3120869285,
				"z": -1.3234886621,
				"element": "H" 
			}
		],
		 "valence_orbital": [ 
			{
				"type": "occ",
				"energy": -0.36687,
				"method": "rhf"
			},
			{
				"type": "occ",
				"energy": -0.35062,
				"method": "rhf"
			},
			{
				"type": "occ",
				"energy": -0.34178,
				"method": "rhf"
			},
			{
				"type": "occ",
				"energy": -0.28471,
				"method": "rhf"
			},
			{
				"type": "occ",
				"energy": -0.26456,
				"method": "rhf"
			},
			{
				"type": "unocc",
				"energy": -0.10372,
				"method": "rhf"
			},
			{
				"type": "unocc",
				"energy": -0.03153,
				"method": "rhf"
			},
			{
				"type": "unocc",
				"energy": 0.03537,
				"method": "rhf"
			},
			{
				"type": "unocc",
				"energy": 0.07536,
				"method": "rhf"
			},
			{
				"type": "unocc",
				"energy": 0.09998,
				"method": "rhf"
			}
		],
		"cosmo_sigma_profile": { 
			"-0.025": 0.0,
			"-0.024": 0.0,
			"-0.023": 0.0,
			"-0.022": 0.0,
			"-0.021": 0.0,
			"-0.02": 0.0,
			"-0.019": 0.0,
			"-0.018": 0.0,
			"-0.017": 0.0,
			"-0.016": 0.392280353467,
			"-0.015": 0.669688813385,
			"-0.014": 0.553121068247,
			"-0.013": 0.700603108654,
			"-0.012": 0.954977320641,
			"-0.011": 1.33033822136,
			"-0.01": 2.77238001241,
			"-0.009": 6.61846036753,
			"-0.008": 8.29622533318,
			"-0.007": 9.0868084856,
			"-0.006": 9.00554653772,
			"-0.005": 11.4458722724,
			"-0.004": 9.1447992743,
			"-0.003": 9.40398533268,
			"-0.002": 9.79843588845,
			"-0.001": 6.115809828,
			"0.0": 4.30550507546,
			"0.001": 4.68368471649,
			"0.002": 4.52444370726,
			"0.003": 5.29152311018,
			"0.004": 4.62793156806,
			"0.005": 4.95029403727,
			"0.006": 6.24775364584,
			"0.007": 7.13730776513,
			"0.008": 8.44879658644,
			"0.009": 7.70128082843,
			"0.01": 8.06039154324,
			"0.011": 6.78318180952,
			"0.012": 1.83856140388,
			"0.013": 0.0113975767569,
			"0.014": 0.0,
			"0.015": 0.0,
			"0.016": 0.0,
			"0.017": 0.0,
			"0.018": 0.0,
			"0.019": 0.0,
			"0.02": 0.0,
			"0.021": 0.0,
			"0.022": 0.0,
			"0.023": 0.0,
			"0.024": 0.0,
			"0.025": 0.0
		}
	}
}
