{
	 "smiles": "BrC1=CC2C(C3C=CC2(Br)C32OCCO2)C1=O", 
	 "Tm": 445.15, 
	 "num_atms": 27, 
	 "gaussian": { 
		 "optdone": 1, 
		 "sigma_profile": "yes", 
		 "theory": "DFT", 
		 "functional": "B3LYP", 
		 "basiset": "6-31G**", 
		 "properties": { 
			 "R2extent": 7691.1416, 
			 "electric_dipole_moment_norm": 2.82487520609, 
			 "electric_quadrupole_moment_norm": 19.4359743134, 
			 "total_energy": -5831.69913673, 
			 "HOMO_LUMO_gap": 0.1875, 
			 "cosmo_polarized_energy": -13.66, 
			 "cosmo_cavitation_energy": 33.21, 
			 "cosmo_dispersion_energy": -24.07, 
			 "cosmo_repulsion_energy": 1.87, 
			 "cosmo_total_nonelectrostatic_energy": 11.01, 
			 "SMD_solvation_energy": 3.71 
		},
		"coords": [
			{
				"x": 5.0816068986,
				"y": 2.0017755949,
				"z": 0.0718179573,
				"element": "Br" 
			},
			{
				"x": 3.5215037716,
				"y": 0.986430784,
				"z": 0.3703879028,
				"element": "C" 
			},
			{
				"x": 3.1175497734,
				"y": -0.0886164316,
				"z": -0.3207686207,
				"element": "C" 
			},
			{
				"x": 1.8253199823,
				"y": -0.6540207956,
				"z": 0.2136003198,
				"element": "C" 
			},
			{
				"x": 1.4444728802,
				"y": 0.2902748826,
				"z": 1.3987511464,
				"element": "C" 
			},
			{
				"x": -0.0108626601,
				"y": 0.7494684916,
				"z": 1.067631322,
				"element": "C" 
			},
			{
				"x": -0.8764771659,
				"y": -0.4980159032,
				"z": 1.1400576208,
				"element": "C" 
			},
			{
				"x": -0.5546762348,
				"y": -1.2879703968,
				"z": 0.1061454837,
				"element": "C" 
			},
			{
				"x": 0.5353130237,
				"y": -0.5813961519,
				"z": -0.674881774,
				"element": "C" 
			},
			{
				"x": 0.7693127338,
				"y": -1.187644556,
				"z": -2.5185197139,
				"element": "Br" 
			},
			{
				"x": 0.0678236527,
				"y": 0.9063831235,
				"z": -0.4864138888,
				"element": "C" 
			},
			{
				"x": -1.1762344573,
				"y": 1.2206615713,
				"z": -1.0599301681,
				"element": "O" 
			},
			{
				"x": -0.9556029589,
				"y": 2.1671167025,
				"z": -2.1094518547,
				"element": "C" 
			},
			{
				"x": 0.2950538604,
				"y": 2.891265578,
				"z": -1.6282959135,
				"element": "C" 
			},
			{
				"x": 1.0006935439,
				"y": 1.843540282,
				"z": -0.9553889494,
				"element": "O" 
			},
			{
				"x": 2.5228392325,
				"y": 1.3857785245,
				"z": 1.4013726824,
				"element": "C" 
			},
			{
				"x": 2.5494729269,
				"y": 2.359079082,
				"z": 2.1221919924,
				"element": "O" 
			},
			{
				"x": 3.6429558074,
				"y": -0.5331095045,
				"z": -1.1576404565,
				"element": "H" 
			},
			{
				"x": 1.9742628599,
				"y": -1.6954703979,
				"z": 0.5181094358,
				"element": "H" 
			},
			{
				"x": 1.4755669939,
				"y": -0.2106985353,
				"z": 2.3708244734,
				"element": "H" 
			},
			{
				"x": -0.3436183449,
				"y": 1.6300445767,
				"z": 1.6178796143,
				"element": "H" 
			},
			{
				"x": -1.5928868416,
				"y": -0.7091676529,
				"z": 1.9255727654,
				"element": "H" 
			},
			{
				"x": -0.9361112227,
				"y": -2.2701249205,
				"z": -0.1418519286,
				"element": "H" 
			},
			{
				"x": -1.8398632956,
				"y": 2.804290655,
				"z": -2.184305113,
				"element": "H" 
			},
			{
				"x": -0.7857133254,
				"y": 1.6530017653,
				"z": -3.0631076974,
				"element": "H" 
			},
			{
				"x": 0.0576012006,
				"y": 3.7028923765,
				"z": -0.9285444769,
				"element": "H" 
			},
			{
				"x": 0.9330973653,
				"y": 3.2728312558,
				"z": -2.428242161,
				"element": "H" 
			}
		],
		 "valence_orbital": [ 
			{
				"type": "occ",
				"energy": -0.28194,
				"method": "rhf"
			},
			{
				"type": "occ",
				"energy": -0.2697,
				"method": "rhf"
			},
			{
				"type": "occ",
				"energy": -0.25867,
				"method": "rhf"
			},
			{
				"type": "occ",
				"energy": -0.25238,
				"method": "rhf"
			},
			{
				"type": "occ",
				"energy": -0.24471,
				"method": "rhf"
			},
			{
				"type": "unocc",
				"energy": -0.05721,
				"method": "rhf"
			},
			{
				"type": "unocc",
				"energy": -0.00932,
				"method": "rhf"
			},
			{
				"type": "unocc",
				"energy": 0.00597,
				"method": "rhf"
			},
			{
				"type": "unocc",
				"energy": 0.01826,
				"method": "rhf"
			},
			{
				"type": "unocc",
				"energy": 0.03894,
				"method": "rhf"
			}
		],
		"cosmo_sigma_profile": { 
			"-0.025": 0.0,
			"-0.024": 0.0,
			"-0.023": 0.0,
			"-0.022": 0.0,
			"-0.021": 0.0,
			"-0.02": 0.0,
			"-0.019": 0.0,
			"-0.018": 0.0,
			"-0.017": 0.0,
			"-0.016": 0.0,
			"-0.015": 0.0,
			"-0.014": 0.0,
			"-0.013": 0.0,
			"-0.012": 0.0,
			"-0.011": 0.0,
			"-0.01": 0.0,
			"-0.009": 0.427720740722,
			"-0.008": 2.13537685061,
			"-0.007": 12.4009517783,
			"-0.006": 22.6745733077,
			"-0.005": 25.4544167327,
			"-0.004": 23.5388993122,
			"-0.003": 19.7377737925,
			"-0.002": 15.2802540631,
			"-0.001": 14.8312391134,
			"0.0": 14.2298710165,
			"0.001": 13.6831348018,
			"0.002": 15.2220634405,
			"0.003": 18.0486136395,
			"0.004": 22.9729215517,
			"0.005": 14.1937710887,
			"0.006": 6.92940607209,
			"0.007": 5.80284035895,
			"0.008": 3.7370235179,
			"0.009": 3.30754433352,
			"0.01": 4.33733288554,
			"0.011": 6.38208393175,
			"0.012": 4.17718028154,
			"0.013": 0.485906341788,
			"0.014": 0.0,
			"0.015": 0.0,
			"0.016": 0.0,
			"0.017": 0.0,
			"0.018": 0.0,
			"0.019": 0.0,
			"0.02": 0.0,
			"0.021": 0.0,
			"0.022": 0.0,
			"0.023": 0.0,
			"0.024": 0.0,
			"0.025": 0.0
		}
	}
}
