{
	 "smiles": "CCOC(=O)CC(C(C)=O)C(=O)OCC", 
	 "Tm": 265.15, 
	 "num_atms": 31, 
	 "gaussian": { 
		 "optdone": 1, 
		 "sigma_profile": "yes", 
		 "theory": "DFT", 
		 "functional": "B3LYP", 
		 "basiset": "6-31G**", 
		 "properties": { 
			 "R2extent": 4146.0996, 
			 "electric_dipole_moment_norm": 2.10467938413, 
			 "electric_quadrupole_moment_norm": 12.5696646483, 
			 "total_energy": -766.859877572, 
			 "HOMO_LUMO_gap": 0.22282, 
			 "cosmo_polarized_energy": -13.35, 
			 "cosmo_cavitation_energy": 35.21, 
			 "cosmo_dispersion_energy": -23.25, 
			 "cosmo_repulsion_energy": 1.89, 
			 "cosmo_total_nonelectrostatic_energy": 13.85, 
			 "SMD_solvation_energy": 8.79 
		},
		"coords": [
			{
				"x": -1.0956095444,
				"y": 3.1752394614,
				"z": 0.1206677753,
				"element": "C" 
			},
			{
				"x": -1.9218963941,
				"y": 2.3557694938,
				"z": -0.8590226821,
				"element": "C" 
			},
			{
				"x": -1.8784773265,
				"y": 0.9451138547,
				"z": -0.5321887697,
				"element": "O" 
			},
			{
				"x": -0.8393547745,
				"y": 0.2410925573,
				"z": -1.0261574297,
				"element": "C" 
			},
			{
				"x": 0.0396139094,
				"y": 0.7164722993,
				"z": -1.7167642045,
				"element": "O" 
			},
			{
				"x": -0.9386802004,
				"y": -1.2154446083,
				"z": -0.622576128,
				"element": "C" 
			},
			{
				"x": 0.2850285641,
				"y": -2.0185067718,
				"z": -1.0576453138,
				"element": "C" 
			},
			{
				"x": 0.0939225306,
				"y": -3.5295131508,
				"z": -0.7777508885,
				"element": "C" 
			},
			{
				"x": 1.0147874115,
				"y": -4.4755330735,
				"z": -1.5148404959,
				"element": "C" 
			},
			{
				"x": -0.774721584,
				"y": -3.9118671228,
				"z": -0.0194767794,
				"element": "O" 
			},
			{
				"x": 1.6007892479,
				"y": -1.5677805809,
				"z": -0.4143889831,
				"element": "C" 
			},
			{
				"x": 2.6967914447,
				"y": -1.8508603502,
				"z": -0.8507112425,
				"element": "O" 
			},
			{
				"x": 1.4014158374,
				"y": -0.8656054056,
				"z": 0.7140059017,
				"element": "O" 
			},
			{
				"x": 2.5960693921,
				"y": -0.3947771158,
				"z": 1.386471063,
				"element": "C" 
			},
			{
				"x": 2.1519327266,
				"y": 0.3806588696,
				"z": 2.6113298607,
				"element": "C" 
			},
			{
				"x": -1.206860798,
				"y": 4.24214972,
				"z": -0.0998660491,
				"element": "H" 
			},
			{
				"x": -1.4252952473,
				"y": 3.0008072789,
				"z": 1.1491412647,
				"element": "H" 
			},
			{
				"x": -0.0368794987,
				"y": 2.9172774338,
				"z": 0.0375348847,
				"element": "H" 
			},
			{
				"x": -1.5676711239,
				"y": 2.4918979237,
				"z": -1.8835790714,
				"element": "H" 
			},
			{
				"x": -2.9819486729,
				"y": 2.614375753,
				"z": -0.8031268373,
				"element": "H" 
			},
			{
				"x": -1.8420624136,
				"y": -1.6381345948,
				"z": -1.0760942713,
				"element": "H" 
			},
			{
				"x": -1.0913910539,
				"y": -1.2831475333,
				"z": 0.4560555291,
				"element": "H" 
			},
			{
				"x": 0.4592308695,
				"y": -1.8963245796,
				"z": -2.132008095,
				"element": "H" 
			},
			{
				"x": 0.9341426487,
				"y": -5.477078931,
				"z": -1.0900490265,
				"element": "H" 
			},
			{
				"x": 0.7155658527,
				"y": -4.5101863131,
				"z": -2.5701713325,
				"element": "H" 
			},
			{
				"x": 2.0463687928,
				"y": -4.1143362744,
				"z": -1.4888908365,
				"element": "H" 
			},
			{
				"x": 3.1659648959,
				"y": 0.224223207,
				"z": 0.6873298163,
				"element": "H" 
			},
			{
				"x": 3.2144707056,
				"y": -1.2596915909,
				"z": 1.6450159407,
				"element": "H" 
			},
			{
				"x": 3.0284296731,
				"y": 0.7551744053,
				"z": 3.1491109,
				"element": "H" 
			},
			{
				"x": 1.5306764388,
				"y": 1.2354129879,
				"z": 2.3288958875,
				"element": "H" 
			},
			{
				"x": 1.5770476908,
				"y": -0.254977249,
				"z": 3.2908496128,
				"element": "H" 
			}
		],
		 "valence_orbital": [ 
			{
				"type": "occ",
				"energy": -0.3063,
				"method": "rhf"
			},
			{
				"type": "occ",
				"energy": -0.30034,
				"method": "rhf"
			},
			{
				"type": "occ",
				"energy": -0.27782,
				"method": "rhf"
			},
			{
				"type": "occ",
				"energy": -0.27452,
				"method": "rhf"
			},
			{
				"type": "occ",
				"energy": -0.25325,
				"method": "rhf"
			},
			{
				"type": "unocc",
				"energy": -0.03043,
				"method": "rhf"
			},
			{
				"type": "unocc",
				"energy": 0.01098,
				"method": "rhf"
			},
			{
				"type": "unocc",
				"energy": 0.02121,
				"method": "rhf"
			},
			{
				"type": "unocc",
				"energy": 0.08335,
				"method": "rhf"
			},
			{
				"type": "unocc",
				"energy": 0.09593,
				"method": "rhf"
			}
		],
		"cosmo_sigma_profile": { 
			"-0.025": 0.0,
			"-0.024": 0.0,
			"-0.023": 0.0,
			"-0.022": 0.0,
			"-0.021": 0.0,
			"-0.02": 0.0,
			"-0.019": 0.0,
			"-0.018": 0.0,
			"-0.017": 0.0,
			"-0.016": 0.0,
			"-0.015": 0.0,
			"-0.014": 0.0,
			"-0.013": 0.0,
			"-0.012": 0.0,
			"-0.011": 0.0,
			"-0.01": 0.0,
			"-0.009": 0.333653667538,
			"-0.008": 3.03546204977,
			"-0.007": 7.71585260317,
			"-0.006": 10.4202273833,
			"-0.005": 18.3552828013,
			"-0.004": 28.7243144145,
			"-0.003": 33.2910034615,
			"-0.002": 30.7966348194,
			"-0.001": 28.3989503697,
			"0.0": 23.3148232563,
			"0.001": 12.6125758405,
			"0.002": 9.5965621739,
			"0.003": 8.73008341448,
			"0.004": 8.64883604623,
			"0.005": 6.78394510088,
			"0.006": 5.15250605334,
			"0.007": 5.34959798365,
			"0.008": 6.48524217653,
			"0.009": 5.22336424243,
			"0.01": 6.50890310786,
			"0.011": 10.4092021298,
			"0.012": 5.5716410532,
			"0.013": 0.112049417893,
			"0.014": 0.0,
			"0.015": 0.0,
			"0.016": 0.0,
			"0.017": 0.0,
			"0.018": 0.0,
			"0.019": 0.0,
			"0.02": 0.0,
			"0.021": 0.0,
			"0.022": 0.0,
			"0.023": 0.0,
			"0.024": 0.0,
			"0.025": 0.0
		}
	}
}
