{
	 "smiles": "CC(SC1=CC=C(Br)C=C1)C(O)=O", 
	 "Tm": 387.15, 
	 "num_atms": 22, 
	 "gaussian": { 
		 "optdone": 1, 
		 "sigma_profile": "yes", 
		 "theory": "DFT", 
		 "functional": "B3LYP", 
		 "basiset": "6-31G**", 
		 "properties": { 
			 "R2extent": 5486.8957, 
			 "electric_dipole_moment_norm": 2.65684537375, 
			 "electric_quadrupole_moment_norm": 8.66081444496, 
			 "total_energy": -3468.43355701, 
			 "HOMO_LUMO_gap": 0.20478, 
			 "cosmo_polarized_energy": -11.14, 
			 "cosmo_cavitation_energy": 30.37, 
			 "cosmo_dispersion_energy": -22.29, 
			 "cosmo_repulsion_energy": 1.76, 
			 "cosmo_total_nonelectrostatic_energy": 9.84, 
			 "SMD_solvation_energy": 4.72 
		},
		"coords": [
			{
				"x": 1.6690128846,
				"y": -4.1398754262,
				"z": -1.5983088593,
				"element": "C" 
			},
			{
				"x": 1.3225251238,
				"y": -2.6486837041,
				"z": -1.4320121383,
				"element": "C" 
			},
			{
				"x": -0.3970438056,
				"y": -2.5275392246,
				"z": -0.785901405,
				"element": "S" 
			},
			{
				"x": -0.5412027469,
				"y": -0.7707412999,
				"z": -0.4430638802,
				"element": "C" 
			},
			{
				"x": -0.2800523913,
				"y": -0.2846529191,
				"z": 0.8450111848,
				"element": "C" 
			},
			{
				"x": -0.4363644452,
				"y": 1.070528517,
				"z": 1.1374034059,
				"element": "C" 
			},
			{
				"x": -0.8593828224,
				"y": 1.9361520349,
				"z": 0.1298591496,
				"element": "C" 
			},
			{
				"x": -1.0760932121,
				"y": 3.7938782123,
				"z": 0.5220766461,
				"element": "Br" 
			},
			{
				"x": -1.130518172,
				"y": 1.4723262324,
				"z": -1.1568070414,
				"element": "C" 
			},
			{
				"x": -0.9743525692,
				"y": 0.1151472364,
				"z": -1.4396125458,
				"element": "C" 
			},
			{
				"x": 1.5243005757,
				"y": -1.9262240203,
				"z": -2.7613637197,
				"element": "C" 
			},
			{
				"x": 2.8409457133,
				"y": -1.6549995163,
				"z": -2.9421694377,
				"element": "O" 
			},
			{
				"x": 0.6828830047,
				"y": -1.6443236703,
				"z": -3.582687114,
				"element": "O" 
			},
			{
				"x": 2.6952504616,
				"y": -4.245221733,
				"z": -1.9604456105,
				"element": "H" 
			},
			{
				"x": 0.9951906483,
				"y": -4.6177061434,
				"z": -2.3153798576,
				"element": "H" 
			},
			{
				"x": 1.58130647,
				"y": -4.6572046073,
				"z": -0.6398091737,
				"element": "H" 
			},
			{
				"x": 2.0032526971,
				"y": -2.1993914065,
				"z": -0.703581319,
				"element": "H" 
			},
			{
				"x": 0.0410443805,
				"y": -0.9701845859,
				"z": 1.6228809783,
				"element": "H" 
			},
			{
				"x": -0.2351570715,
				"y": 1.4475885749,
				"z": 2.13364513,
				"element": "H" 
			},
			{
				"x": -1.4628306996,
				"y": 2.1599672602,
				"z": -1.9262130938,
				"element": "H" 
			},
			{
				"x": -1.1742847398,
				"y": -0.2611746108,
				"z": -2.4364273642,
				"element": "H" 
			},
			{
				"x": 2.9144707163,
				"y": -1.2327652004,
				"z": -3.8148939344,
				"element": "H" 
			}
		],
		 "valence_orbital": [ 
			{
				"type": "occ",
				"energy": -0.29033,
				"method": "rhf"
			},
			{
				"type": "occ",
				"energy": -0.28434,
				"method": "rhf"
			},
			{
				"type": "occ",
				"energy": -0.26823,
				"method": "rhf"
			},
			{
				"type": "occ",
				"energy": -0.24668,
				"method": "rhf"
			},
			{
				"type": "occ",
				"energy": -0.23683,
				"method": "rhf"
			},
			{
				"type": "unocc",
				"energy": -0.03205,
				"method": "rhf"
			},
			{
				"type": "unocc",
				"energy": -0.01915,
				"method": "rhf"
			},
			{
				"type": "unocc",
				"energy": -0.00626,
				"method": "rhf"
			},
			{
				"type": "unocc",
				"energy": 0.00388,
				"method": "rhf"
			},
			{
				"type": "unocc",
				"energy": 0.03932,
				"method": "rhf"
			}
		],
		"cosmo_sigma_profile": { 
			"-0.025": 0.0,
			"-0.024": 0.0,
			"-0.023": 0.0,
			"-0.022": 0.0,
			"-0.021": 0.0,
			"-0.02": 0.0,
			"-0.019": 0.14598394703,
			"-0.018": 0.890545478618,
			"-0.017": 1.16721512442,
			"-0.016": 0.643013866637,
			"-0.015": 0.961791821436,
			"-0.014": 0.427867114529,
			"-0.013": 0.355815590335,
			"-0.012": 0.64387280866,
			"-0.011": 1.03280477963,
			"-0.01": 0.755959380103,
			"-0.009": 0.551557856743,
			"-0.008": 1.55230705332,
			"-0.007": 7.29239712072,
			"-0.006": 8.64525759837,
			"-0.005": 14.4541173662,
			"-0.004": 16.4796661487,
			"-0.003": 19.2791285796,
			"-0.002": 18.9902862645,
			"-0.001": 18.9957783761,
			"0.0": 17.1441813181,
			"0.001": 19.6635756686,
			"0.002": 23.6379080356,
			"0.003": 20.964999636,
			"0.004": 16.4464169545,
			"0.005": 8.94462248776,
			"0.006": 5.61932585374,
			"0.007": 3.75472689347,
			"0.008": 3.943959175,
			"0.009": 4.14361567612,
			"0.01": 2.75170547738,
			"0.011": 3.88984121776,
			"0.012": 2.11668937327,
			"0.013": 0.417133342061,
			"0.014": 0.0,
			"0.015": 0.0,
			"0.016": 0.0,
			"0.017": 0.0,
			"0.018": 0.0,
			"0.019": 0.0,
			"0.02": 0.0,
			"0.021": 0.0,
			"0.022": 0.0,
			"0.023": 0.0,
			"0.024": 0.0,
			"0.025": 0.0
		}
	}
}
