{
	 "smiles": "NC1=C(O)C=CC(=C1)N1CCCS1(=O)=O", 
	 "Tm": 408.15, 
	 "num_atms": 27, 
	 "gaussian": { 
		 "optdone": 1, 
		 "sigma_profile": "yes", 
		 "theory": "DFT", 
		 "functional": "B3LYP", 
		 "basiset": "6-31G**", 
		 "properties": { 
			 "R2extent": 4154.7366, 
			 "electric_dipole_moment_norm": 4.06875610722, 
			 "electric_quadrupole_moment_norm": 28.019478707, 
			 "total_energy": -1083.47737611, 
			 "HOMO_LUMO_gap": 0.19431, 
			 "cosmo_polarized_energy": -23.35, 
			 "cosmo_cavitation_energy": 30.88, 
			 "cosmo_dispersion_energy": -23.32, 
			 "cosmo_repulsion_energy": 1.78, 
			 "cosmo_total_nonelectrostatic_energy": 9.35, 
			 "SMD_solvation_energy": 3.68 
		},
		"coords": [
			{
				"x": -2.6904549173,
				"y": -1.4157834881,
				"z": 0.1755876649,
				"element": "N" 
			},
			{
				"x": -1.6253155501,
				"y": -0.5644071795,
				"z": 0.4510368083,
				"element": "C" 
			},
			{
				"x": -1.8175817728,
				"y": 0.5119618439,
				"z": 1.3467138786,
				"element": "C" 
			},
			{
				"x": -3.0955881548,
				"y": 0.6636855477,
				"z": 1.8345761477,
				"element": "O" 
			},
			{
				"x": -0.757458011,
				"y": 1.340525483,
				"z": 1.684708061,
				"element": "C" 
			},
			{
				"x": 0.5141372654,
				"y": 1.1426144161,
				"z": 1.1340390206,
				"element": "C" 
			},
			{
				"x": 0.7166196927,
				"y": 0.0782676391,
				"z": 0.2529569384,
				"element": "C" 
			},
			{
				"x": -0.3482217256,
				"y": -0.7761186433,
				"z": -0.0719362266,
				"element": "C" 
			},
			{
				"x": 2.0007929942,
				"y": -0.1957710926,
				"z": -0.3120362907,
				"element": "N" 
			},
			{
				"x": 3.2072051397,
				"y": 0.4320428741,
				"z": 0.2298848374,
				"element": "C" 
			},
			{
				"x": 4.3634094805,
				"y": -0.2001139346,
				"z": -0.5579351168,
				"element": "C" 
			},
			{
				"x": 3.944103056,
				"y": -0.1741767589,
				"z": -2.0321715315,
				"element": "C" 
			},
			{
				"x": 2.1134324785,
				"y": -0.2471884597,
				"z": -2.034905994,
				"element": "S" 
			},
			{
				"x": 1.6235791816,
				"y": -1.5481348027,
				"z": -2.5041031357,
				"element": "O" 
			},
			{
				"x": 1.5808511853,
				"y": 0.9780651677,
				"z": -2.6463430496,
				"element": "O" 
			},
			{
				"x": -3.5996516799,
				"y": -1.0142501799,
				"z": 0.3581978769,
				"element": "H" 
			},
			{
				"x": -2.6377355959,
				"y": -1.895516294,
				"z": -0.7118378305,
				"element": "H" 
			},
			{
				"x": -3.1302329507,
				"y": 1.4508085604,
				"z": 2.3919536442,
				"element": "H" 
			},
			{
				"x": -0.9220410888,
				"y": 2.1657037886,
				"z": 2.3747923463,
				"element": "H" 
			},
			{
				"x": 1.3181612973,
				"y": 1.8208186949,
				"z": 1.3928779766,
				"element": "H" 
			},
			{
				"x": -0.1735196642,
				"y": -1.6144927383,
				"z": -0.7375823662,
				"element": "H" 
			},
			{
				"x": 3.2677158434,
				"y": 0.2034179427,
				"z": 1.2971120752,
				"element": "H" 
			},
			{
				"x": 3.2067038657,
				"y": 1.5276622943,
				"z": 0.1119817567,
				"element": "H" 
			},
			{
				"x": 5.2990569228,
				"y": 0.3445364824,
				"z": -0.404745145,
				"element": "H" 
			},
			{
				"x": 4.5042189232,
				"y": -1.2316861003,
				"z": -0.2250513273,
				"element": "H" 
			},
			{
				"x": 4.1933519544,
				"y": 0.7660366252,
				"z": -2.5281425125,
				"element": "H" 
			},
			{
				"x": 4.3062618303,
				"y": -1.0161076884,
				"z": -2.6234285063,
				"element": "H" 
			}
		],
		 "valence_orbital": [ 
			{
				"type": "occ",
				"energy": -0.29851,
				"method": "rhf"
			},
			{
				"type": "occ",
				"energy": -0.29177,
				"method": "rhf"
			},
			{
				"type": "occ",
				"energy": -0.26375,
				"method": "rhf"
			},
			{
				"type": "occ",
				"energy": -0.21548,
				"method": "rhf"
			},
			{
				"type": "occ",
				"energy": -0.18806,
				"method": "rhf"
			},
			{
				"type": "unocc",
				"energy": 0.00625,
				"method": "rhf"
			},
			{
				"type": "unocc",
				"energy": 0.01716,
				"method": "rhf"
			},
			{
				"type": "unocc",
				"energy": 0.05673,
				"method": "rhf"
			},
			{
				"type": "unocc",
				"energy": 0.06364,
				"method": "rhf"
			},
			{
				"type": "unocc",
				"energy": 0.06908,
				"method": "rhf"
			}
		],
		"cosmo_sigma_profile": { 
			"-0.025": 0.0,
			"-0.024": 0.0,
			"-0.023": 0.0,
			"-0.022": 0.0,
			"-0.021": 0.0,
			"-0.02": 0.0,
			"-0.019": 0.0,
			"-0.018": 0.358545520506,
			"-0.017": 1.22396011893,
			"-0.016": 0.740748312688,
			"-0.015": 1.32880486807,
			"-0.014": 0.588876229727,
			"-0.013": 1.37641571103,
			"-0.012": 2.41579455987,
			"-0.011": 2.89056182328,
			"-0.01": 2.70745868817,
			"-0.009": 4.46687181764,
			"-0.008": 7.98385231511,
			"-0.007": 10.3687067659,
			"-0.006": 20.0288798947,
			"-0.005": 23.0623346835,
			"-0.004": 18.1933441775,
			"-0.003": 12.2604982214,
			"-0.002": 9.54991522782,
			"-0.001": 7.41226029393,
			"0.0": 6.88786309598,
			"0.001": 6.47855100047,
			"0.002": 6.47304576523,
			"0.003": 9.51688149519,
			"0.004": 11.5187825939,
			"0.005": 13.5058233079,
			"0.006": 13.5626244606,
			"0.007": 7.48512068811,
			"0.008": 7.05062358929,
			"0.009": 6.39153850246,
			"0.01": 8.659470082,
			"0.011": 12.0592781445,
			"0.012": 5.68108401178,
			"0.013": 0.908520722394,
			"0.014": 0.552632782307,
			"0.015": 0.0943711212056,
			"0.016": 0.0,
			"0.017": 0.0,
			"0.018": 0.0,
			"0.019": 0.0,
			"0.02": 0.0,
			"0.021": 0.0,
			"0.022": 0.0,
			"0.023": 0.0,
			"0.024": 0.0,
			"0.025": 0.0
		}
	}
}
