{
	 "smiles": "C1CCCSCC1", 
	 "Tm": 273.65, 
	 "num_atms": 19, 
	 "gaussian": { 
		 "optdone": 1, 
		 "sigma_profile": "yes", 
		 "theory": "DFT", 
		 "functional": "B3LYP", 
		 "basiset": "6-31G**", 
		 "properties": { 
			 "R2extent": 1005.6683, 
			 "electric_dipole_moment_norm": 2.02994463225, 
			 "electric_quadrupole_moment_norm": 5.86255969351, 
			 "total_energy": -634.063542544, 
			 "HOMO_LUMO_gap": 0.26049, 
			 "cosmo_polarized_energy": -4.16, 
			 "cosmo_cavitation_energy": 20.31, 
			 "cosmo_dispersion_energy": -16.38, 
			 "cosmo_repulsion_energy": 1.32, 
			 "cosmo_total_nonelectrostatic_energy": 5.25, 
			 "SMD_solvation_energy": 2.24 
		},
		"coords": [
			{
				"x": 1.3808401917,
				"y": -0.866661867,
				"z": 0.1993413103,
				"element": "C" 
			},
			{
				"x": 1.5871274781,
				"y": 0.5382181165,
				"z": -0.3930396841,
				"element": "C" 
			},
			{
				"x": 0.3099706169,
				"y": 1.298700874,
				"z": -0.8283235993,
				"element": "C" 
			},
			{
				"x": -0.9337758248,
				"y": 1.0341501087,
				"z": 0.0273407171,
				"element": "C" 
			},
			{
				"x": -1.7765053745,
				"y": -0.602643373,
				"z": -0.2554640867,
				"element": "S" 
			},
			{
				"x": -0.6028148211,
				"y": -1.4945498439,
				"z": -1.3521318368,
				"element": "C" 
			},
			{
				"x": 0.7307379771,
				"y": -1.9166611311,
				"z": -0.7129412572,
				"element": "C" 
			},
			{
				"x": 0.7748353433,
				"y": -0.7824604502,
				"z": 1.1090643128,
				"element": "H" 
			},
			{
				"x": 2.3562159819,
				"y": -1.2487660527,
				"z": 0.5257424816,
				"element": "H" 
			},
			{
				"x": 2.102567345,
				"y": 1.1362957645,
				"z": 0.3692751266,
				"element": "H" 
			},
			{
				"x": 2.2745881605,
				"y": 0.4869949123,
				"z": -1.2474501807,
				"element": "H" 
			},
			{
				"x": 0.0750289124,
				"y": 1.0967231106,
				"z": -1.878178806,
				"element": "H" 
			},
			{
				"x": 0.5168022961,
				"y": 2.37561955,
				"z": -0.782359443,
				"element": "H" 
			},
			{
				"x": -1.6931897802,
				"y": 1.7926102503,
				"z": -0.1809143193,
				"element": "H" 
			},
			{
				"x": -0.6852862263,
				"y": 1.0987985646,
				"z": 1.0914264043,
				"element": "H" 
			},
			{
				"x": -0.4377979525,
				"y": -0.8953564296,
				"z": -2.2507610783,
				"element": "H" 
			},
			{
				"x": -1.16914885,
				"y": -2.3751610347,
				"z": -1.6712545883,
				"element": "H" 
			},
			{
				"x": 0.5732463568,
				"y": -2.8266199676,
				"z": -0.1220718721,
				"element": "H" 
			},
			{
				"x": 1.4193581696,
				"y": -2.1878311018,
				"z": -1.525799601,
				"element": "H" 
			}
		],
		 "valence_orbital": [ 
			{
				"type": "occ",
				"energy": -0.32388,
				"method": "rhf"
			},
			{
				"type": "occ",
				"energy": -0.31833,
				"method": "rhf"
			},
			{
				"type": "occ",
				"energy": -0.31517,
				"method": "rhf"
			},
			{
				"type": "occ",
				"energy": -0.28752,
				"method": "rhf"
			},
			{
				"type": "occ",
				"energy": -0.21055,
				"method": "rhf"
			},
			{
				"type": "unocc",
				"energy": 0.04994,
				"method": "rhf"
			},
			{
				"type": "unocc",
				"energy": 0.07019,
				"method": "rhf"
			},
			{
				"type": "unocc",
				"energy": 0.0807,
				"method": "rhf"
			},
			{
				"type": "unocc",
				"energy": 0.10281,
				"method": "rhf"
			},
			{
				"type": "unocc",
				"energy": 0.12463,
				"method": "rhf"
			}
		],
		"cosmo_sigma_profile": { 
			"-0.025": 0.0,
			"-0.024": 0.0,
			"-0.023": 0.0,
			"-0.022": 0.0,
			"-0.021": 0.0,
			"-0.02": 0.0,
			"-0.019": 0.0,
			"-0.018": 0.0,
			"-0.017": 0.0,
			"-0.016": 0.0,
			"-0.015": 0.0,
			"-0.014": 0.0,
			"-0.013": 0.0,
			"-0.012": 0.0,
			"-0.011": 0.0,
			"-0.01": 0.0,
			"-0.009": 0.0,
			"-0.008": 0.0,
			"-0.007": 0.0,
			"-0.006": 0.178132808942,
			"-0.005": 4.39102707589,
			"-0.004": 8.47971786404,
			"-0.003": 18.1047577425,
			"-0.002": 30.8237743433,
			"-0.001": 32.420712276,
			"0.0": 22.8111065497,
			"0.001": 12.1437684529,
			"0.002": 3.45694136588,
			"0.003": 2.74065184776,
			"0.004": 2.41309153427,
			"0.005": 2.71651905944,
			"0.006": 2.93972486452,
			"0.007": 3.93912164258,
			"0.008": 2.61612604051,
			"0.009": 2.53738259644,
			"0.01": 2.36766262209,
			"0.011": 1.88124784797,
			"0.012": 1.56886774166,
			"0.013": 0.111411507482,
			"0.014": 0.0,
			"0.015": 0.0,
			"0.016": 0.0,
			"0.017": 0.0,
			"0.018": 0.0,
			"0.019": 0.0,
			"0.02": 0.0,
			"0.021": 0.0,
			"0.022": 0.0,
			"0.023": 0.0,
			"0.024": 0.0,
			"0.025": 0.0
		}
	}
}
