{
	 "smiles": "OC(=O)C1=CSC(=N1)C(=O)NCC=C", 
	 "Tm": 421.15, 
	 "num_atms": 22, 
	 "gaussian": { 
		 "optdone": 1, 
		 "sigma_profile": "yes", 
		 "theory": "DFT", 
		 "functional": "B3LYP", 
		 "basiset": "6-31G**", 
		 "properties": { 
			 "R2extent": 3407.7947, 
			 "electric_dipole_moment_norm": 3.81837729278, 
			 "electric_quadrupole_moment_norm": 26.04532275, 
			 "total_energy": -1043.02260964, 
			 "HOMO_LUMO_gap": 0.18903, 
			 "cosmo_polarized_energy": -17.47, 
			 "cosmo_cavitation_energy": 29.44, 
			 "cosmo_dispersion_energy": -20.81, 
			 "cosmo_repulsion_energy": 1.61, 
			 "cosmo_total_nonelectrostatic_energy": 10.24, 
			 "SMD_solvation_energy": 7.13 
		},
		"coords": [
			{
				"x": -2.820555343,
				"y": 1.0724167712,
				"z": -0.6621669952,
				"element": "O" 
			},
			{
				"x": -2.8055011019,
				"y": 0.1455749305,
				"z": 0.3176899922,
				"element": "C" 
			},
			{
				"x": -3.8128565352,
				"y": -0.3624041189,
				"z": 0.7513724266,
				"element": "O" 
			},
			{
				"x": -1.4388262239,
				"y": -0.1862714113,
				"z": 0.8168683639,
				"element": "C" 
			},
			{
				"x": -1.1628511141,
				"y": -1.0186980916,
				"z": 1.8727962948,
				"element": "C" 
			},
			{
				"x": 0.5306310951,
				"y": -1.089576786,
				"z": 2.1493794444,
				"element": "S" 
			},
			{
				"x": 0.7643220459,
				"y": 0.001439033,
				"z": 0.7937133446,
				"element": "C" 
			},
			{
				"x": -0.3424218132,
				"y": 0.3817878757,
				"z": 0.2152260586,
				"element": "N" 
			},
			{
				"x": 2.1743482466,
				"y": 0.4112464426,
				"z": 0.5055946172,
				"element": "C" 
			},
			{
				"x": 3.0414862241,
				"y": 0.1236087786,
				"z": 1.3283785791,
				"element": "O" 
			},
			{
				"x": 2.4605967731,
				"y": 1.0910004616,
				"z": -0.6400580955,
				"element": "N" 
			},
			{
				"x": 1.6373718016,
				"y": 1.3878477199,
				"z": -1.8063686655,
				"element": "C" 
			},
			{
				"x": 1.0450557663,
				"y": 2.7769560994,
				"z": -1.8448286816,
				"element": "C" 
			},
			{
				"x": 1.119657415,
				"y": 3.6877437041,
				"z": -0.8766643846,
				"element": "C" 
			},
			{
				"x": -1.9021098088,
				"y": 1.3538153914,
				"z": -0.8270658074,
				"element": "H" 
			},
			{
				"x": -1.8798568011,
				"y": -1.5582989197,
				"z": 2.4748390523,
				"element": "H" 
			},
			{
				"x": 3.4382004906,
				"y": 1.3503450941,
				"z": -0.6829786643,
				"element": "H" 
			},
			{
				"x": 0.836213345,
				"y": 0.6476916533,
				"z": -1.8730522695,
				"element": "H" 
			},
			{
				"x": 2.2654966802,
				"y": 1.2402514804,
				"z": -2.6948376468,
				"element": "H" 
			},
			{
				"x": 0.5189207327,
				"y": 3.0094732661,
				"z": -2.7708868697,
				"element": "H" 
			},
			{
				"x": 0.6630476836,
				"y": 4.6660029672,
				"z": -0.9867093557,
				"element": "H" 
			},
			{
				"x": 1.6397304413,
				"y": 3.4873476583,
				"z": 0.0554592621,
				"element": "H" 
			}
		],
		 "valence_orbital": [ 
			{
				"type": "occ",
				"energy": -0.28552,
				"method": "rhf"
			},
			{
				"type": "occ",
				"energy": -0.27979,
				"method": "rhf"
			},
			{
				"type": "occ",
				"energy": -0.27548,
				"method": "rhf"
			},
			{
				"type": "occ",
				"energy": -0.273,
				"method": "rhf"
			},
			{
				"type": "occ",
				"energy": -0.27133,
				"method": "rhf"
			},
			{
				"type": "unocc",
				"energy": -0.0823,
				"method": "rhf"
			},
			{
				"type": "unocc",
				"energy": -0.04429,
				"method": "rhf"
			},
			{
				"type": "unocc",
				"energy": 0.00135,
				"method": "rhf"
			},
			{
				"type": "unocc",
				"energy": 0.00447,
				"method": "rhf"
			},
			{
				"type": "unocc",
				"energy": 0.055,
				"method": "rhf"
			}
		],
		"cosmo_sigma_profile": { 
			"-0.025": 0.0,
			"-0.024": 0.0,
			"-0.023": 0.0,
			"-0.022": 0.0,
			"-0.021": 0.0,
			"-0.02": 0.0,
			"-0.019": 0.0,
			"-0.018": 0.0,
			"-0.017": 0.0,
			"-0.016": 0.0,
			"-0.015": 0.352026025984,
			"-0.014": 1.42735815745,
			"-0.013": 0.692397354636,
			"-0.012": 0.950962078638,
			"-0.011": 2.38551004724,
			"-0.01": 3.4646548692,
			"-0.009": 3.73622518775,
			"-0.008": 3.90682310317,
			"-0.007": 5.67268552525,
			"-0.006": 8.94393717595,
			"-0.005": 17.7011620933,
			"-0.004": 19.408785183,
			"-0.003": 22.4951525299,
			"-0.002": 20.5806009704,
			"-0.001": 20.7612031043,
			"0.0": 19.0076940454,
			"0.001": 11.9133232436,
			"0.002": 7.27447827427,
			"0.003": 8.31867404706,
			"0.004": 6.86583431645,
			"0.005": 6.29420940214,
			"0.006": 5.02405046125,
			"0.007": 4.83190901776,
			"0.008": 3.96212312007,
			"0.009": 5.36167260819,
			"0.01": 6.61277323599,
			"0.011": 7.24853525013,
			"0.012": 7.62691652362,
			"0.013": 4.6789176956,
			"0.014": 0.361655326236,
			"0.015": 0.0,
			"0.016": 0.0,
			"0.017": 0.0,
			"0.018": 0.0,
			"0.019": 0.0,
			"0.02": 0.0,
			"0.021": 0.0,
			"0.022": 0.0,
			"0.023": 0.0,
			"0.024": 0.0,
			"0.025": 0.0
		}
	}
}
