{
	 "smiles": "COC(=O)C1=C(N)C=C(OC)C=C1", 
	 "Tm": 350.15, 
	 "num_atms": 24, 
	 "gaussian": { 
		 "optdone": 1, 
		 "sigma_profile": "yes", 
		 "theory": "DFT", 
		 "functional": "B3LYP", 
		 "basiset": "6-31G**", 
		 "properties": { 
			 "R2extent": 3348.176, 
			 "electric_dipole_moment_norm": 1.90168200812, 
			 "electric_quadrupole_moment_norm": 12.3097429173, 
			 "total_energy": -630.022087621, 
			 "HOMO_LUMO_gap": 0.17344, 
			 "cosmo_polarized_energy": -10.91, 
			 "cosmo_cavitation_energy": 27.67, 
			 "cosmo_dispersion_energy": -20.8, 
			 "cosmo_repulsion_energy": 1.65, 
			 "cosmo_total_nonelectrostatic_energy": 8.52, 
			 "SMD_solvation_energy": 6.9 
		},
		"coords": [
			{
				"x": 3.6379870442,
				"y": 3.3823454864,
				"z": 1.5690954989,
				"element": "C" 
			},
			{
				"x": 2.3975506711,
				"y": 2.6777351172,
				"z": 1.4372414658,
				"element": "O" 
			},
			{
				"x": 2.2851678091,
				"y": 1.8990013737,
				"z": 0.331813577,
				"element": "C" 
			},
			{
				"x": 3.2016533124,
				"y": 1.8237477315,
				"z": -0.4852545146,
				"element": "O" 
			},
			{
				"x": 1.0022180765,
				"y": 1.1941930372,
				"z": 0.2501452431,
				"element": "C" 
			},
			{
				"x": 0.714653423,
				"y": 0.3446042978,
				"z": -0.8590298818,
				"element": "C" 
			},
			{
				"x": 1.585626805,
				"y": 0.2083503745,
				"z": -1.9004094807,
				"element": "N" 
			},
			{
				"x": -0.5184495278,
				"y": -0.3474864221,
				"z": -0.8873824676,
				"element": "C" 
			},
			{
				"x": -1.4410493902,
				"y": -0.1973547731,
				"z": 0.1416424316,
				"element": "C" 
			},
			{
				"x": -2.6463178063,
				"y": -0.8265548819,
				"z": 0.1847428047,
				"element": "O" 
			},
			{
				"x": -3.0005253372,
				"y": -1.6934096331,
				"z": -0.8819115771,
				"element": "C" 
			},
			{
				"x": -1.1655497271,
				"y": 0.6488963164,
				"z": 1.2367176604,
				"element": "C" 
			},
			{
				"x": 0.0365652811,
				"y": 1.3216416396,
				"z": 1.2724787991,
				"element": "C" 
			},
			{
				"x": 3.7965456301,
				"y": 4.0537342365,
				"z": 0.7210959813,
				"element": "H" 
			},
			{
				"x": 3.5542929622,
				"y": 3.9514888687,
				"z": 2.4953961508,
				"element": "H" 
			},
			{
				"x": 4.4782748971,
				"y": 2.6851480706,
				"z": 1.6239456061,
				"element": "H" 
			},
			{
				"x": 1.4435542195,
				"y": -0.5340685709,
				"z": -2.5645945335,
				"element": "H" 
			},
			{
				"x": 2.5045256504,
				"y": 0.6203238507,
				"z": -1.7890918756,
				"element": "H" 
			},
			{
				"x": -0.727043634,
				"y": -0.9880936148,
				"z": -1.7365851849,
				"element": "H" 
			},
			{
				"x": -2.2979290273,
				"y": -2.5316595545,
				"z": -0.9710705352,
				"element": "H" 
			},
			{
				"x": -3.0449741789,
				"y": -1.1583744489,
				"z": -1.8389414848,
				"element": "H" 
			},
			{
				"x": -3.9916846564,
				"y": -2.079545124,
				"z": -0.6394888525,
				"element": "H" 
			},
			{
				"x": -1.9043293898,
				"y": 0.7470640331,
				"z": 2.0235329142,
				"element": "H" 
			},
			{
				"x": 0.2643368932,
				"y": 1.9704725893,
				"z": 2.109912255,
				"element": "H" 
			}
		],
		 "valence_orbital": [ 
			{
				"type": "occ",
				"energy": -0.29492,
				"method": "rhf"
			},
			{
				"type": "occ",
				"energy": -0.2872,
				"method": "rhf"
			},
			{
				"type": "occ",
				"energy": -0.26617,
				"method": "rhf"
			},
			{
				"type": "occ",
				"energy": -0.22872,
				"method": "rhf"
			},
			{
				"type": "occ",
				"energy": -0.19744,
				"method": "rhf"
			},
			{
				"type": "unocc",
				"energy": -0.024,
				"method": "rhf"
			},
			{
				"type": "unocc",
				"energy": 0.01778,
				"method": "rhf"
			},
			{
				"type": "unocc",
				"energy": 0.07428,
				"method": "rhf"
			},
			{
				"type": "unocc",
				"energy": 0.08852,
				"method": "rhf"
			},
			{
				"type": "unocc",
				"energy": 0.10345,
				"method": "rhf"
			}
		],
		"cosmo_sigma_profile": { 
			"-0.025": 0.0,
			"-0.024": 0.0,
			"-0.023": 0.0,
			"-0.022": 0.0,
			"-0.021": 0.0,
			"-0.02": 0.0,
			"-0.019": 0.0,
			"-0.018": 0.0,
			"-0.017": 0.0,
			"-0.016": 0.0,
			"-0.015": 0.0,
			"-0.014": 0.0165350967519,
			"-0.013": 1.20739718126,
			"-0.012": 1.31068182984,
			"-0.011": 1.6793239262,
			"-0.01": 1.59663514839,
			"-0.009": 1.2860272824,
			"-0.008": 2.67704778767,
			"-0.007": 2.60442546003,
			"-0.006": 11.0425858778,
			"-0.005": 20.0694146073,
			"-0.004": 19.1424995002,
			"-0.003": 21.550265199,
			"-0.002": 13.1060581228,
			"-0.001": 10.2646732541,
			"0.0": 10.3200323978,
			"0.001": 11.9696084207,
			"0.002": 12.9185273441,
			"0.003": 15.0275370067,
			"0.004": 18.9902714266,
			"0.005": 16.6537845178,
			"0.006": 6.98501463098,
			"0.007": 3.98417684264,
			"0.008": 3.45954591363,
			"0.009": 4.03627879774,
			"0.01": 3.26628384477,
			"0.011": 1.82573791935,
			"0.012": 2.15244579428,
			"0.013": 0.451810980174,
			"0.014": 0.0,
			"0.015": 0.0,
			"0.016": 0.0,
			"0.017": 0.0,
			"0.018": 0.0,
			"0.019": 0.0,
			"0.02": 0.0,
			"0.021": 0.0,
			"0.022": 0.0,
			"0.023": 0.0,
			"0.024": 0.0,
			"0.025": 0.0
		}
	}
}
