{
	 "smiles": "CC(C)(C)C1=CN2N=C(Br)SC2=N1", 
	 "Tm": 379.15, 
	 "num_atms": 23, 
	 "gaussian": { 
		 "optdone": 1, 
		 "sigma_profile": "yes", 
		 "theory": "DFT", 
		 "functional": "B3LYP", 
		 "basiset": "6-31G**", 
		 "properties": { 
			 "R2extent": 6621.2561, 
			 "electric_dipole_moment_norm": 0.877333260512, 
			 "electric_quadrupole_moment_norm": 7.60557971623, 
			 "total_energy": -3444.6822268, 
			 "HOMO_LUMO_gap": 0.1844, 
			 "cosmo_polarized_energy": -5.97, 
			 "cosmo_cavitation_energy": 30.22, 
			 "cosmo_dispersion_energy": -22.79, 
			 "cosmo_repulsion_energy": 1.75, 
			 "cosmo_total_nonelectrostatic_energy": 9.18, 
			 "SMD_solvation_energy": 1.78 
		},
		"coords": [
			{
				"x": 0.458032102,
				"y": 1.7389275486,
				"z": -2.7509148418,
				"element": "C" 
			},
			{
				"x": 0.9290707094,
				"y": 1.5034139454,
				"z": -1.3049354044,
				"element": "C" 
			},
			{
				"x": 2.4736528218,
				"y": 1.4817355306,
				"z": -1.2588735531,
				"element": "C" 
			},
			{
				"x": 0.4072950165,
				"y": 2.6398886952,
				"z": -0.3969830774,
				"element": "C" 
			},
			{
				"x": 0.4034652069,
				"y": 0.1798831661,
				"z": -0.7866192486,
				"element": "C" 
			},
			{
				"x": -0.386242124,
				"y": -0.7499163614,
				"z": -1.4326266434,
				"element": "C" 
			},
			{
				"x": -0.5656038785,
				"y": -1.7605250997,
				"z": -0.5036865235,
				"element": "N" 
			},
			{
				"x": -1.2329372986,
				"y": -2.9471854552,
				"z": -0.5106682167,
				"element": "N" 
			},
			{
				"x": -1.0663829754,
				"y": -3.5065256658,
				"z": 0.6410977942,
				"element": "C" 
			},
			{
				"x": -1.8235698463,
				"y": -5.1705571567,
				"z": 1.061186152,
				"element": "Br" 
			},
			{
				"x": -0.0839873798,
				"y": -2.6454649303,
				"z": 1.8422777077,
				"element": "S" 
			},
			{
				"x": 0.1171952882,
				"y": -1.3861096766,
				"z": 0.6320991086,
				"element": "C" 
			},
			{
				"x": 0.7128612903,
				"y": -0.2320746721,
				"z": 0.5101909012,
				"element": "N" 
			},
			{
				"x": 0.820698511,
				"y": 0.954217843,
				"z": -3.4238841715,
				"element": "H" 
			},
			{
				"x": 0.8402412977,
				"y": 2.6958761197,
				"z": -3.1203836853,
				"element": "H" 
			},
			{
				"x": -0.6350789242,
				"y": 1.7700941868,
				"z": -2.8168322067,
				"element": "H" 
			},
			{
				"x": 2.8258418774,
				"y": 1.2841358389,
				"z": -0.2431008331,
				"element": "H" 
			},
			{
				"x": 2.8788322765,
				"y": 2.4456114797,
				"z": -1.5867954895,
				"element": "H" 
			},
			{
				"x": 2.8754469706,
				"y": 0.7021954423,
				"z": -1.9149790169,
				"element": "H" 
			},
			{
				"x": -0.6859214863,
				"y": 2.6982851345,
				"z": -0.4295228929,
				"element": "H" 
			},
			{
				"x": 0.8102111619,
				"y": 3.6050814775,
				"z": -0.7238297341,
				"element": "H" 
			},
			{
				"x": 0.7067185107,
				"y": 2.4718027881,
				"z": 0.6407976327,
				"element": "H" 
			},
			{
				"x": -0.8230391277,
				"y": -0.7970901786,
				"z": -2.4154137575,
				"element": "H" 
			}
		],
		 "valence_orbital": [ 
			{
				"type": "occ",
				"energy": -0.32179,
				"method": "rhf"
			},
			{
				"type": "occ",
				"energy": -0.31394,
				"method": "rhf"
			},
			{
				"type": "occ",
				"energy": -0.28158,
				"method": "rhf"
			},
			{
				"type": "occ",
				"energy": -0.25323,
				"method": "rhf"
			},
			{
				"type": "occ",
				"energy": -0.22911,
				"method": "rhf"
			},
			{
				"type": "unocc",
				"energy": -0.04471,
				"method": "rhf"
			},
			{
				"type": "unocc",
				"energy": -0.03553,
				"method": "rhf"
			},
			{
				"type": "unocc",
				"energy": -0.00557,
				"method": "rhf"
			},
			{
				"type": "unocc",
				"energy": 0.02849,
				"method": "rhf"
			},
			{
				"type": "unocc",
				"energy": 0.05272,
				"method": "rhf"
			}
		],
		"cosmo_sigma_profile": { 
			"-0.025": 0.0,
			"-0.024": 0.0,
			"-0.023": 0.0,
			"-0.022": 0.0,
			"-0.021": 0.0,
			"-0.02": 0.0,
			"-0.019": 0.0,
			"-0.018": 0.0,
			"-0.017": 0.0,
			"-0.016": 0.0,
			"-0.015": 0.0,
			"-0.014": 0.0,
			"-0.013": 0.0,
			"-0.012": 0.0,
			"-0.011": 0.0,
			"-0.01": 0.0115672247748,
			"-0.009": 0.834210807326,
			"-0.008": 2.23049926262,
			"-0.007": 2.32524356467,
			"-0.006": 3.30431483757,
			"-0.005": 6.33847227993,
			"-0.004": 10.8912464545,
			"-0.003": 25.7879679323,
			"-0.002": 30.0950392114,
			"-0.001": 32.780934924,
			"0.0": 32.6927247501,
			"0.001": 37.6072903485,
			"0.002": 25.3306420991,
			"0.003": 9.00136298348,
			"0.004": 5.17240036382,
			"0.005": 4.07102497336,
			"0.006": 3.77608894469,
			"0.007": 2.779376349,
			"0.008": 2.52979930122,
			"0.009": 2.03954012583,
			"0.01": 2.03465343696,
			"0.011": 0.987988206307,
			"0.012": 1.07375423617,
			"0.013": 0.468713609123,
			"0.014": 0.739547700014,
			"0.015": 0.450265239816,
			"0.016": 0.0489288365512,
			"0.017": 0.0,
			"0.018": 0.0,
			"0.019": 0.0,
			"0.02": 0.0,
			"0.021": 0.0,
			"0.022": 0.0,
			"0.023": 0.0,
			"0.024": 0.0,
			"0.025": 0.0
		}
	}
}
