{
	 "smiles": "ClC1=C(CC#N)C=CC=N1", 
	 "Tm": 354.15, 
	 "num_atms": 15, 
	 "gaussian": { 
		 "optdone": 1, 
		 "sigma_profile": "yes", 
		 "theory": "DFT", 
		 "functional": "B3LYP", 
		 "basiset": "6-31G**", 
		 "properties": { 
			 "R2extent": 2746.3977, 
			 "electric_dipole_moment_norm": 1.56237985778, 
			 "electric_quadrupole_moment_norm": 23.9174356702, 
			 "total_energy": -839.430861509, 
			 "HOMO_LUMO_gap": 0.22424, 
			 "cosmo_polarized_energy": -10.96, 
			 "cosmo_cavitation_energy": 22.08, 
			 "cosmo_dispersion_energy": -15.98, 
			 "cosmo_repulsion_energy": 1.29, 
			 "cosmo_total_nonelectrostatic_energy": 7.39, 
			 "SMD_solvation_energy": 3.54 
		},
		"coords": [
			{
				"x": -1.4123356662,
				"y": 2.568220473,
				"z": 0.1674061806,
				"element": "Cl" 
			},
			{
				"x": -1.1194493049,
				"y": 1.7854731545,
				"z": -1.3912178417,
				"element": "C" 
			},
			{
				"x": -1.0411329391,
				"y": 0.3823967588,
				"z": -1.4414194632,
				"element": "C" 
			},
			{
				"x": -1.2042088573,
				"y": -0.4537344056,
				"z": -0.1830556324,
				"element": "C" 
			},
			{
				"x": -1.094540753,
				"y": -1.8955030201,
				"z": -0.4126106171,
				"element": "C" 
			},
			{
				"x": -1.0061675503,
				"y": -3.0364774064,
				"z": -0.6040480166,
				"element": "N" 
			},
			{
				"x": -0.808244938,
				"y": -0.1700809104,
				"z": -2.70225796,
				"element": "C" 
			},
			{
				"x": -0.6691808929,
				"y": 0.6630617062,
				"z": -3.8125553551,
				"element": "C" 
			},
			{
				"x": -0.7685574225,
				"y": 2.0379810727,
				"z": -3.6245131147,
				"element": "C" 
			},
			{
				"x": -0.9916176418,
				"y": 2.591644859,
				"z": -2.4242149597,
				"element": "N" 
			},
			{
				"x": -2.1767951148,
				"y": -0.248727153,
				"z": 0.2809949375,
				"element": "H" 
			},
			{
				"x": -0.4534357482,
				"y": -0.1623332114,
				"z": 0.5617350328,
				"element": "H" 
			},
			{
				"x": -0.737090733,
				"y": -1.2484450228,
				"z": -2.8080084654,
				"element": "H" 
			},
			{
				"x": -0.4879113105,
				"y": 0.2514385048,
				"z": -4.7995696937,
				"element": "H" 
			},
			{
				"x": -0.6676311276,
				"y": 2.7298846007,
				"z": -4.4570650313,
				"element": "H" 
			}
		],
		 "valence_orbital": [ 
			{
				"type": "occ",
				"energy": -0.3406,
				"method": "rhf"
			},
			{
				"type": "occ",
				"energy": -0.32852,
				"method": "rhf"
			},
			{
				"type": "occ",
				"energy": -0.30735,
				"method": "rhf"
			},
			{
				"type": "occ",
				"energy": -0.28723,
				"method": "rhf"
			},
			{
				"type": "occ",
				"energy": -0.27242,
				"method": "rhf"
			},
			{
				"type": "unocc",
				"energy": -0.04818,
				"method": "rhf"
			},
			{
				"type": "unocc",
				"energy": -0.03938,
				"method": "rhf"
			},
			{
				"type": "unocc",
				"energy": 0.01353,
				"method": "rhf"
			},
			{
				"type": "unocc",
				"energy": 0.02682,
				"method": "rhf"
			},
			{
				"type": "unocc",
				"energy": 0.02757,
				"method": "rhf"
			}
		],
		"cosmo_sigma_profile": { 
			"-0.025": 0.0,
			"-0.024": 0.0,
			"-0.023": 0.0,
			"-0.022": 0.0,
			"-0.021": 0.0,
			"-0.02": 0.0,
			"-0.019": 0.0,
			"-0.018": 0.0,
			"-0.017": 0.0,
			"-0.016": 0.0,
			"-0.015": 0.0,
			"-0.014": 0.0,
			"-0.013": 0.0,
			"-0.012": 0.0,
			"-0.011": 0.0,
			"-0.01": 1.6169437253,
			"-0.009": 4.9304013424,
			"-0.008": 6.52510147332,
			"-0.007": 11.9700187922,
			"-0.006": 10.6641493074,
			"-0.005": 10.0755581951,
			"-0.004": 9.46289266481,
			"-0.003": 9.8108435023,
			"-0.002": 8.58405131557,
			"-0.001": 15.0146698967,
			"0.0": 13.0985380168,
			"0.001": 16.3195825028,
			"0.002": 8.7276091724,
			"0.003": 8.03970592083,
			"0.004": 8.78433240041,
			"0.005": 6.42652821992,
			"0.006": 4.8005772668,
			"0.007": 4.19294787783,
			"0.008": 4.39303510654,
			"0.009": 4.07041461003,
			"0.01": 3.9783672356,
			"0.011": 3.70666380817,
			"0.012": 3.23822466081,
			"0.013": 1.83749080347,
			"0.014": 0.637970307695,
			"0.015": 0.0378773979566,
			"0.016": 0.0,
			"0.017": 0.0,
			"0.018": 0.0,
			"0.019": 0.0,
			"0.02": 0.0,
			"0.021": 0.0,
			"0.022": 0.0,
			"0.023": 0.0,
			"0.024": 0.0,
			"0.025": 0.0
		}
	}
}
