{
	 "smiles": "COC1=CC(N)=C(O)C=C1", 
	 "Tm": 411.15, 
	 "num_atms": 19, 
	 "gaussian": { 
		 "optdone": 1, 
		 "sigma_profile": "yes", 
		 "theory": "DFT", 
		 "functional": "B3LYP", 
		 "basiset": "6-31G**", 
		 "properties": { 
			 "R2extent": 2478.4222, 
			 "electric_dipole_moment_norm": 1.48242654455, 
			 "electric_quadrupole_moment_norm": 11.4207095393, 
			 "total_energy": -477.350125876, 
			 "HOMO_LUMO_gap": 0.19346, 
			 "cosmo_polarized_energy": -12.87, 
			 "cosmo_cavitation_energy": 22.51, 
			 "cosmo_dispersion_energy": -17.08, 
			 "cosmo_repulsion_energy": 1.39, 
			 "cosmo_total_nonelectrostatic_energy": 6.82, 
			 "SMD_solvation_energy": 4.82 
		},
		"coords": [
			{
				"x": 1.1548553912,
				"y": -1.0952571399,
				"z": -1.0348268214,
				"element": "C" 
			},
			{
				"x": 0.1227181547,
				"y": -0.5009001769,
				"z": -1.7986391025,
				"element": "O" 
			},
			{
				"x": -0.947645815,
				"y": 0.0397868074,
				"z": -1.1330684901,
				"element": "C" 
			},
			{
				"x": -1.0791768012,
				"y": 0.0533359907,
				"z": 0.2602587898,
				"element": "C" 
			},
			{
				"x": -2.2073148157,
				"y": 0.6275567522,
				"z": 0.8653016792,
				"element": "C" 
			},
			{
				"x": -2.3911156459,
				"y": 0.6072595077,
				"z": 2.2489144154,
				"element": "N" 
			},
			{
				"x": -3.2034178082,
				"y": 1.1924078391,
				"z": 0.0476324516,
				"element": "C" 
			},
			{
				"x": -4.2808329882,
				"y": 1.7537411844,
				"z": 0.7053559757,
				"element": "O" 
			},
			{
				"x": -3.0650525937,
				"y": 1.1732271516,
				"z": -1.3367160725,
				"element": "C" 
			},
			{
				"x": -1.94421803,
				"y": 0.6010293839,
				"z": -1.9375646147,
				"element": "C" 
			},
			{
				"x": 1.8909964063,
				"y": -1.4624343085,
				"z": -1.7524038371,
				"element": "H" 
			},
			{
				"x": 0.7862400667,
				"y": -1.9390766567,
				"z": -0.4358544743,
				"element": "H" 
			},
			{
				"x": 1.6384356969,
				"y": -0.370222202,
				"z": -0.3658039387,
				"element": "H" 
			},
			{
				"x": -0.320650994,
				"y": -0.3860601205,
				"z": 0.8984060775,
				"element": "H" 
			},
			{
				"x": -3.0680795699,
				"y": 1.2836299588,
				"z": 2.5756610068,
				"element": "H" 
			},
			{
				"x": -1.538884326,
				"y": 0.617539842,
				"z": 2.7918283422,
				"element": "H" 
			},
			{
				"x": -4.8789381814,
				"y": 2.1388449936,
				"z": 0.0536823538,
				"element": "H" 
			},
			{
				"x": -3.8416496561,
				"y": 1.6160793947,
				"z": -1.9576831493,
				"element": "H" 
			},
			{
				"x": -1.8279684906,
				"y": 0.5826117984,
				"z": -3.0150805913,
				"element": "H" 
			}
		],
		 "valence_orbital": [ 
			{
				"type": "occ",
				"energy": -0.32356,
				"method": "rhf"
			},
			{
				"type": "occ",
				"energy": -0.31743,
				"method": "rhf"
			},
			{
				"type": "occ",
				"energy": -0.27459,
				"method": "rhf"
			},
			{
				"type": "occ",
				"energy": -0.21594,
				"method": "rhf"
			},
			{
				"type": "occ",
				"energy": -0.17753,
				"method": "rhf"
			},
			{
				"type": "unocc",
				"energy": 0.01593,
				"method": "rhf"
			},
			{
				"type": "unocc",
				"energy": 0.04018,
				"method": "rhf"
			},
			{
				"type": "unocc",
				"energy": 0.0704,
				"method": "rhf"
			},
			{
				"type": "unocc",
				"energy": 0.09845,
				"method": "rhf"
			},
			{
				"type": "unocc",
				"energy": 0.10278,
				"method": "rhf"
			}
		],
		"cosmo_sigma_profile": { 
			"-0.025": 0.0,
			"-0.024": 0.0,
			"-0.023": 0.0,
			"-0.022": 0.0,
			"-0.021": 0.0,
			"-0.02": 0.0,
			"-0.019": 0.0,
			"-0.018": 0.0670040054235,
			"-0.017": 0.833988451378,
			"-0.016": 1.09352883804,
			"-0.015": 1.28675608859,
			"-0.014": 0.692351110547,
			"-0.013": 1.00570587224,
			"-0.012": 2.12202380488,
			"-0.011": 2.47304739273,
			"-0.01": 3.17912622862,
			"-0.009": 3.71918396214,
			"-0.008": 3.55322189492,
			"-0.007": 3.05207707159,
			"-0.006": 6.99503472307,
			"-0.005": 12.8438515023,
			"-0.004": 13.6154119298,
			"-0.003": 13.9429513993,
			"-0.002": 10.4901464768,
			"-0.001": 7.05092025716,
			"0.0": 7.03670058333,
			"0.001": 5.48201859611,
			"0.002": 7.85643716173,
			"0.003": 5.63476228998,
			"0.004": 9.77725854209,
			"0.005": 11.7558551708,
			"0.006": 14.2453800349,
			"0.007": 10.1763039686,
			"0.008": 4.44396071957,
			"0.009": 4.50655519689,
			"0.01": 3.38628557889,
			"0.011": 2.81292401657,
			"0.012": 0.819617171505,
			"0.013": 0.635779802874,
			"0.014": 0.533993271469,
			"0.015": 0.59496444461,
			"0.016": 0.0268896156636,
			"0.017": 0.0,
			"0.018": 0.0,
			"0.019": 0.0,
			"0.02": 0.0,
			"0.021": 0.0,
			"0.022": 0.0,
			"0.023": 0.0,
			"0.024": 0.0,
			"0.025": 0.0
		}
	}
}
