{
	 "smiles": "C1=CC=C(C=C1)P(C1=CC=CC=C1)C1=CC=CC=C1C1=CC=CC=C1P(C1=CC=CC=C1)C1=CC=CC=C1", 
	 "Tm": 486.15, 
	 "num_atms": 66, 
	 "gaussian": { 
		 "optdone": 1, 
		 "sigma_profile": "yes", 
		 "theory": "DFT", 
		 "functional": "B3LYP", 
		 "basiset": "6-31G**", 
		 "properties": { 
			 "R2extent": 20011.5922, 
			 "electric_dipole_moment_norm": 1.17340604225, 
			 "electric_quadrupole_moment_norm": 5.58633399914, 
			 "total_energy": -2071.40610286, 
			 "HOMO_LUMO_gap": 0.17743, 
			 "cosmo_polarized_energy": -14.93, 
			 "cosmo_cavitation_energy": 71.99, 
			 "cosmo_dispersion_energy": -43.45, 
			 "cosmo_repulsion_energy": 3.33, 
			 "cosmo_total_nonelectrostatic_energy": 31.87, 
			 "SMD_solvation_energy": 11.78 
		},
		"coords": [
			{
				"x": -5.5897063837,
				"y": 1.9692888717,
				"z": -2.5791181411,
				"element": "C" 
			},
			{
				"x": -5.7377867136,
				"y": 0.6739341084,
				"z": -2.0826212335,
				"element": "C" 
			},
			{
				"x": -4.6491598217,
				"y": 0.0078179054,
				"z": -1.5133463754,
				"element": "C" 
			},
			{
				"x": -3.3923553709,
				"y": 0.6266988232,
				"z": -1.4386912367,
				"element": "C" 
			},
			{
				"x": -3.2532467626,
				"y": 1.9271975199,
				"z": -1.9561728485,
				"element": "C" 
			},
			{
				"x": -4.342897654,
				"y": 2.5964673726,
				"z": -2.5111889593,
				"element": "C" 
			},
			{
				"x": -1.8563158868,
				"y": -0.1737311512,
				"z": -0.7763655312,
				"element": "P" 
			},
			{
				"x": -2.4108500698,
				"y": -1.9161056028,
				"z": -0.466885973,
				"element": "C" 
			},
			{
				"x": -2.1821002926,
				"y": -2.848608645,
				"z": -1.4925248926,
				"element": "C" 
			},
			{
				"x": -2.5623271301,
				"y": -4.1830344607,
				"z": -1.3459466149,
				"element": "C" 
			},
			{
				"x": -3.163540738,
				"y": -4.6123025711,
				"z": -0.1610296378,
				"element": "C" 
			},
			{
				"x": -3.3861419202,
				"y": -3.6991709638,
				"z": 0.8714900614,
				"element": "C" 
			},
			{
				"x": -3.0157638724,
				"y": -2.3611106187,
				"z": 0.7193962148,
				"element": "C" 
			},
			{
				"x": -1.7685824059,
				"y": 0.5312847887,
				"z": 0.9420113929,
				"element": "C" 
			},
			{
				"x": -2.8577193196,
				"y": 1.1673797275,
				"z": 1.5571342103,
				"element": "C" 
			},
			{
				"x": -2.744679807,
				"y": 1.7293062791,
				"z": 2.8296254662,
				"element": "C" 
			},
			{
				"x": -1.5301214861,
				"y": 1.6656172127,
				"z": 3.510058877,
				"element": "C" 
			},
			{
				"x": -0.4366246238,
				"y": 1.0391787535,
				"z": 2.9120945321,
				"element": "C" 
			},
			{
				"x": -0.5345612872,
				"y": 0.4745473184,
				"z": 1.6325474593,
				"element": "C" 
			},
			{
				"x": 0.6695824447,
				"y": -0.2181058744,
				"z": 1.061838126,
				"element": "C" 
			},
			{
				"x": 0.8430554857,
				"y": -1.5837364592,
				"z": 1.3274615356,
				"element": "C" 
			},
			{
				"x": 1.9584052992,
				"y": -2.2749939698,
				"z": 0.8543036971,
				"element": "C" 
			},
			{
				"x": 2.9223229484,
				"y": -1.5993285368,
				"z": 0.1083255644,
				"element": "C" 
			},
			{
				"x": 2.764777466,
				"y": -0.2387687563,
				"z": -0.1597880355,
				"element": "C" 
			},
			{
				"x": 1.6503064893,
				"y": 0.4724377641,
				"z": 0.3106867848,
				"element": "C" 
			},
			{
				"x": 1.3683059092,
				"y": 2.2692891827,
				"z": -0.07592921,
				"element": "P" 
			},
			{
				"x": 2.2210410258,
				"y": 3.1204327847,
				"z": 1.3339295774,
				"element": "C" 
			},
			{
				"x": 3.1822985743,
				"y": 2.520429931,
				"z": 2.1629074208,
				"element": "C" 
			},
			{
				"x": 3.761255704,
				"y": 3.2344173613,
				"z": 3.2144197086,
				"element": "C" 
			},
			{
				"x": 3.3935896777,
				"y": 4.5605410642,
				"z": 3.4505854083,
				"element": "C" 
			},
			{
				"x": 2.438581286,
				"y": 5.1692194747,
				"z": 2.6337808263,
				"element": "C" 
			},
			{
				"x": 1.8522525673,
				"y": 4.45149361,
				"z": 1.5907540064,
				"element": "C" 
			},
			{
				"x": 2.5434915005,
				"y": 2.5450381352,
				"z": -1.4836135827,
				"element": "C" 
			},
			{
				"x": 3.8056627832,
				"y": 3.1462595415,
				"z": -1.3669468942,
				"element": "C" 
			},
			{
				"x": 4.598191989,
				"y": 3.3625091168,
				"z": -2.4974458916,
				"element": "C" 
			},
			{
				"x": 4.1458508835,
				"y": 2.975801452,
				"z": -3.7592754713,
				"element": "C" 
			},
			{
				"x": 2.8902197634,
				"y": 2.3765739733,
				"z": -3.8888973382,
				"element": "C" 
			},
			{
				"x": 2.0932917323,
				"y": 2.1734357954,
				"z": -2.7633273724,
				"element": "C" 
			},
			{
				"x": -6.4374625424,
				"y": 2.4855555616,
				"z": -3.0207863287,
				"element": "H" 
			},
			{
				"x": -6.7034768002,
				"y": 0.1781271134,
				"z": -2.1344498165,
				"element": "H" 
			},
			{
				"x": -4.7800825624,
				"y": -0.9979687839,
				"z": -1.1273768445,
				"element": "H" 
			},
			{
				"x": -2.282796052,
				"y": 2.4166720149,
				"z": -1.9209084117,
				"element": "H" 
			},
			{
				"x": -4.2169142444,
				"y": 3.6033419679,
				"z": -2.8997326219,
				"element": "H" 
			},
			{
				"x": -1.6954696385,
				"y": -2.5255212235,
				"z": -2.4093596409,
				"element": "H" 
			},
			{
				"x": -2.3796845382,
				"y": -4.8886448871,
				"z": -2.1517216341,
				"element": "H" 
			},
			{
				"x": -3.4521209921,
				"y": -5.652811182,
				"z": -0.0410181803,
				"element": "H" 
			},
			{
				"x": -3.8513866368,
				"y": -4.0272167149,
				"z": 1.7972290413,
				"element": "H" 
			},
			{
				"x": -3.1963203461,
				"y": -1.6593816127,
				"z": 1.5278570916,
				"element": "H" 
			},
			{
				"x": -3.8051269531,
				"y": 1.2279751341,
				"z": 1.0315393072,
				"element": "H" 
			},
			{
				"x": -3.6039302858,
				"y": 2.2150066027,
				"z": 3.2838909476,
				"element": "H" 
			},
			{
				"x": -1.4294782424,
				"y": 2.1027984064,
				"z": 4.4993813498,
				"element": "H" 
			},
			{
				"x": 0.5142315713,
				"y": 0.9927022706,
				"z": 3.4346082905,
				"element": "H" 
			},
			{
				"x": 0.0851477639,
				"y": -2.1064501852,
				"z": 1.9033655199,
				"element": "H" 
			},
			{
				"x": 2.0687292319,
				"y": -3.3347231901,
				"z": 1.0660001333,
				"element": "H" 
			},
			{
				"x": 3.795503843,
				"y": -2.1261468298,
				"z": -0.266629985,
				"element": "H" 
			},
			{
				"x": 3.5167926647,
				"y": 0.2776299442,
				"z": -0.7474208453,
				"element": "H" 
			},
			{
				"x": 3.4778393052,
				"y": 1.4907616748,
				"z": 1.9866223257,
				"element": "H" 
			},
			{
				"x": 4.5022000614,
				"y": 2.7540465913,
				"z": 3.8479049637,
				"element": "H" 
			},
			{
				"x": 3.8448155778,
				"y": 5.114430021,
				"z": 4.2690867072,
				"element": "H" 
			},
			{
				"x": 2.1422968896,
				"y": 6.1987555024,
				"z": 2.814854727,
				"element": "H" 
			},
			{
				"x": 1.0940967396,
				"y": 4.9245010112,
				"z": 0.9717104636,
				"element": "H" 
			},
			{
				"x": 4.1724407676,
				"y": 3.4482607002,
				"z": -0.3912490336,
				"element": "H" 
			},
			{
				"x": 5.5723072523,
				"y": 3.8318921802,
				"z": -2.3886034218,
				"element": "H" 
			},
			{
				"x": 4.7639038302,
				"y": 3.1442329628,
				"z": -4.636732675,
				"element": "H" 
			},
			{
				"x": 2.5274969409,
				"y": 2.0764845424,
				"z": -4.8681873147,
				"element": "H" 
			},
			{
				"x": 1.1111454114,
				"y": 1.7200901484,
				"z": -2.874709744,
				"element": "H" 
			}
		],
		 "valence_orbital": [ 
			{
				"type": "occ",
				"energy": -0.24408,
				"method": "rhf"
			},
			{
				"type": "occ",
				"energy": -0.24349,
				"method": "rhf"
			},
			{
				"type": "occ",
				"energy": -0.23887,
				"method": "rhf"
			},
			{
				"type": "occ",
				"energy": -0.20786,
				"method": "rhf"
			},
			{
				"type": "occ",
				"energy": -0.20412,
				"method": "rhf"
			},
			{
				"type": "unocc",
				"energy": -0.02669,
				"method": "rhf"
			},
			{
				"type": "unocc",
				"energy": -0.0179,
				"method": "rhf"
			},
			{
				"type": "unocc",
				"energy": -0.01412,
				"method": "rhf"
			},
			{
				"type": "unocc",
				"energy": -0.01012,
				"method": "rhf"
			},
			{
				"type": "unocc",
				"energy": -0.00786,
				"method": "rhf"
			}
		],
		"cosmo_sigma_profile": { 
			"-0.025": 0.0,
			"-0.024": 0.0,
			"-0.023": 0.0,
			"-0.022": 0.0,
			"-0.021": 0.0,
			"-0.02": 0.0,
			"-0.019": 0.0,
			"-0.018": 0.0,
			"-0.017": 0.0,
			"-0.016": 0.0,
			"-0.015": 0.0,
			"-0.014": 0.0,
			"-0.013": 0.0,
			"-0.012": 0.0,
			"-0.011": 0.0,
			"-0.01": 0.0,
			"-0.009": 0.0,
			"-0.008": 0.0,
			"-0.007": 0.294348266609,
			"-0.006": 23.1016572629,
			"-0.005": 44.1266740336,
			"-0.004": 59.4537436966,
			"-0.003": 50.723564809,
			"-0.002": 42.7651267469,
			"-0.001": 49.9375905435,
			"0.0": 47.4538623145,
			"0.001": 42.9758588523,
			"0.002": 44.0298661072,
			"0.003": 48.5502924837,
			"0.004": 49.7007276966,
			"0.005": 47.0557768846,
			"0.006": 15.0999453261,
			"0.007": 3.18436966626,
			"0.008": 2.72347399806,
			"0.009": 2.2031787106,
			"0.01": 1.67572786158,
			"0.011": 0.802586903015,
			"0.012": 0.0401413071345,
			"0.013": 0.0,
			"0.014": 0.0,
			"0.015": 0.0,
			"0.016": 0.0,
			"0.017": 0.0,
			"0.018": 0.0,
			"0.019": 0.0,
			"0.02": 0.0,
			"0.021": 0.0,
			"0.022": 0.0,
			"0.023": 0.0,
			"0.024": 0.0,
			"0.025": 0.0
		}
	}
}
