{
	 "smiles": "CC1=CC(Br)=C(N)C(Br)=C1Cl", 
	 "Tm": 350.15, 
	 "num_atms": 17, 
	 "gaussian": { 
		 "optdone": 1, 
		 "sigma_profile": "yes", 
		 "theory": "DFT", 
		 "functional": "B3LYP", 
		 "basiset": "6-31G**", 
		 "properties": { 
			 "R2extent": 5960.3158, 
			 "electric_dipole_moment_norm": 1.3533763815, 
			 "electric_quadrupole_moment_norm": 12.6142570273, 
			 "total_energy": -5928.12148345, 
			 "HOMO_LUMO_gap": 0.18919, 
			 "cosmo_polarized_energy": -5.95, 
			 "cosmo_cavitation_energy": 26.41, 
			 "cosmo_dispersion_energy": -20.75, 
			 "cosmo_repulsion_energy": 1.65, 
			 "cosmo_total_nonelectrostatic_energy": 7.31, 
			 "SMD_solvation_energy": 2.08 
		},
		"coords": [
			{
				"x": -0.003733808,
				"y": 1.7515147121,
				"z": 0.475742887,
				"element": "C" 
			},
			{
				"x": 0.2447190294,
				"y": 0.3940912331,
				"z": -0.1317892098,
				"element": "C" 
			},
			{
				"x": -0.8211868331,
				"y": -0.4527092198,
				"z": -0.4469454297,
				"element": "C" 
			},
			{
				"x": -0.6175384515,
				"y": -1.7041403113,
				"z": -1.0088700119,
				"element": "C" 
			},
			{
				"x": -2.1435025914,
				"y": -2.7957187361,
				"z": -1.3948564954,
				"element": "Br" 
			},
			{
				"x": 0.6687064135,
				"y": -2.197988321,
				"z": -1.3019213709,
				"element": "C" 
			},
			{
				"x": 0.8621198082,
				"y": -3.4158020548,
				"z": -1.9072416925,
				"element": "N" 
			},
			{
				"x": 1.7478938164,
				"y": -1.344083623,
				"z": -0.9731222091,
				"element": "C" 
			},
			{
				"x": 3.5140059659,
				"y": -1.9745158003,
				"z": -1.3272985552,
				"element": "Br" 
			},
			{
				"x": 1.5364767285,
				"y": -0.08281457,
				"z": -0.4066388647,
				"element": "C" 
			},
			{
				"x": 2.9012756089,
				"y": 0.9437863323,
				"z": -0.0184976609,
				"element": "Cl" 
			},
			{
				"x": 0.3936114347,
				"y": 2.5532232953,
				"z": -0.1557826656,
				"element": "H" 
			},
			{
				"x": -1.0756717192,
				"y": 1.919909647,
				"z": 0.6053791698,
				"element": "H" 
			},
			{
				"x": 0.4779059677,
				"y": 1.8485454083,
				"z": 1.4545285221,
				"element": "H" 
			},
			{
				"x": -1.8353234244,
				"y": -0.1260407321,
				"z": -0.2457664934,
				"element": "H" 
			},
			{
				"x": 0.0903775309,
				"y": -4.0647327088,
				"z": -1.8650614293,
				"element": "H" 
			},
			{
				"x": 1.7860645237,
				"y": -3.8152245509,
				"z": -1.8383584906,
				"element": "H" 
			}
		],
		 "valence_orbital": [ 
			{
				"type": "occ",
				"energy": -0.30262,
				"method": "rhf"
			},
			{
				"type": "occ",
				"energy": -0.29885,
				"method": "rhf"
			},
			{
				"type": "occ",
				"energy": -0.29192,
				"method": "rhf"
			},
			{
				"type": "occ",
				"energy": -0.24387,
				"method": "rhf"
			},
			{
				"type": "occ",
				"energy": -0.21553,
				"method": "rhf"
			},
			{
				"type": "unocc",
				"energy": -0.02634,
				"method": "rhf"
			},
			{
				"type": "unocc",
				"energy": -0.02603,
				"method": "rhf"
			},
			{
				"type": "unocc",
				"energy": -0.00563,
				"method": "rhf"
			},
			{
				"type": "unocc",
				"energy": 0.01236,
				"method": "rhf"
			},
			{
				"type": "unocc",
				"energy": 0.05253,
				"method": "rhf"
			}
		],
		"cosmo_sigma_profile": { 
			"-0.025": 0.0,
			"-0.024": 0.0,
			"-0.023": 0.0,
			"-0.022": 0.0,
			"-0.021": 0.0,
			"-0.02": 0.0,
			"-0.019": 0.0,
			"-0.018": 0.0,
			"-0.017": 0.0,
			"-0.016": 0.0,
			"-0.015": 0.0,
			"-0.014": 0.0,
			"-0.013": 0.162949779962,
			"-0.012": 1.19153116783,
			"-0.011": 1.68724814888,
			"-0.01": 2.28162173774,
			"-0.009": 1.89339854792,
			"-0.008": 1.85101754731,
			"-0.007": 4.40640757571,
			"-0.006": 4.38257541306,
			"-0.005": 7.80372064742,
			"-0.004": 11.8213447014,
			"-0.003": 12.5750697195,
			"-0.002": 13.7705857261,
			"-0.001": 20.0743403215,
			"0.0": 22.1367406845,
			"0.001": 25.2371667193,
			"0.002": 31.0364732834,
			"0.003": 23.7841732563,
			"0.004": 21.4688461925,
			"0.005": 7.5261862494,
			"0.006": 1.37665026089,
			"0.007": 0.691421654573,
			"0.008": 0.705989546736,
			"0.009": 0.253095859582,
			"0.01": 0.862398922957,
			"0.011": 0.39090160959,
			"0.012": 0.0,
			"0.013": 0.0,
			"0.014": 0.0,
			"0.015": 0.0,
			"0.016": 0.0,
			"0.017": 0.0,
			"0.018": 0.0,
			"0.019": 0.0,
			"0.02": 0.0,
			"0.021": 0.0,
			"0.022": 0.0,
			"0.023": 0.0,
			"0.024": 0.0,
			"0.025": 0.0
		}
	}
}
