{
	 "smiles": "CC(NS(=O)(=O)CC1=CC=CC=C1)C(O)=O", 
	 "Tm": 393.15, 
	 "num_atms": 29, 
	 "gaussian": { 
		 "optdone": 1, 
		 "sigma_profile": "yes", 
		 "theory": "DFT", 
		 "functional": "B3LYP", 
		 "basiset": "6-31G**", 
		 "properties": { 
			 "R2extent": 4578.8394, 
			 "electric_dipole_moment_norm": 4.08991961901, 
			 "electric_quadrupole_moment_norm": 17.0437630114, 
			 "total_energy": -1142.68574531, 
			 "HOMO_LUMO_gap": 0.2268, 
			 "cosmo_polarized_energy": -21.37, 
			 "cosmo_cavitation_energy": 33.71, 
			 "cosmo_dispersion_energy": -23.32, 
			 "cosmo_repulsion_energy": 1.77, 
			 "cosmo_total_nonelectrostatic_energy": 12.15, 
			 "SMD_solvation_energy": 5.96 
		},
		"coords": [
			{
				"x": 3.1143620064,
				"y": -1.5073525736,
				"z": -2.3099419743,
				"element": "C" 
			},
			{
				"x": 1.7736837302,
				"y": -0.9633394731,
				"z": -1.8195564673,
				"element": "C" 
			},
			{
				"x": 1.5473330631,
				"y": -1.1345772776,
				"z": -0.3648871405,
				"element": "N" 
			},
			{
				"x": 0.9081675853,
				"y": -2.6268147232,
				"z": 0.1833439821,
				"element": "S" 
			},
			{
				"x": 1.8919126695,
				"y": -3.2289891237,
				"z": 1.0890679975,
				"element": "O" 
			},
			{
				"x": 0.3952953222,
				"y": -3.3487841914,
				"z": -0.9857050691,
				"element": "O" 
			},
			{
				"x": -0.5143961327,
				"y": -2.1079558455,
				"z": 1.2122791461,
				"element": "C" 
			},
			{
				"x": -1.5085201372,
				"y": -1.2276301745,
				"z": 0.5086440057,
				"element": "C" 
			},
			{
				"x": -1.6025393416,
				"y": 0.1311075113,
				"z": 0.8442042185,
				"element": "C" 
			},
			{
				"x": -2.5179030526,
				"y": 0.9614704704,
				"z": 0.1947156672,
				"element": "C" 
			},
			{
				"x": -3.3492013927,
				"y": 0.440127209,
				"z": -0.7974486119,
				"element": "C" 
			},
			{
				"x": -3.2642447925,
				"y": -0.9128425904,
				"z": -1.1345546654,
				"element": "C" 
			},
			{
				"x": -2.3512599278,
				"y": -1.7440360129,
				"z": -0.4865417415,
				"element": "C" 
			},
			{
				"x": 1.5865152375,
				"y": 0.5234740402,
				"z": -2.1929235625,
				"element": "C" 
			},
			{
				"x": 0.7541789148,
				"y": 1.2171525801,
				"z": -1.3973412703,
				"element": "O" 
			},
			{
				"x": 2.1155883104,
				"y": 1.01983995,
				"z": -3.1573964181,
				"element": "O" 
			},
			{
				"x": 3.9470141224,
				"y": -1.0428674307,
				"z": -1.7702709044,
				"element": "H" 
			},
			{
				"x": 3.1593356733,
				"y": -2.5895978487,
				"z": -2.1667485607,
				"element": "H" 
			},
			{
				"x": 3.2380399269,
				"y": -1.2775133682,
				"z": -3.3693905015,
				"element": "H" 
			},
			{
				"x": 0.9611243386,
				"y": -1.5048215689,
				"z": -2.3174295583,
				"element": "H" 
			},
			{
				"x": 2.3934154124,
				"y": -0.963178042,
				"z": 0.1772330487,
				"element": "H" 
			},
			{
				"x": -0.9423589043,
				"y": -3.065229183,
				"z": 1.5264886113,
				"element": "H" 
			},
			{
				"x": -0.0738991548,
				"y": -1.6250279547,
				"z": 2.0874514963,
				"element": "H" 
			},
			{
				"x": -0.9659862293,
				"y": 0.5369790337,
				"z": 1.6271461924,
				"element": "H" 
			},
			{
				"x": -2.5798565887,
				"y": 2.0113729242,
				"z": 0.4640910728,
				"element": "H" 
			},
			{
				"x": -4.0605342333,
				"y": 1.0844490293,
				"z": -1.3051300948,
				"element": "H" 
			},
			{
				"x": -3.9104888848,
				"y": -1.3227294479,
				"z": -1.9049918303,
				"element": "H" 
			},
			{
				"x": -2.2778014731,
				"y": -2.7919000871,
				"z": -0.7599246491,
				"element": "H" 
			},
			{
				"x": 0.4634239323,
				"y": 0.6279141689,
				"z": -0.6761824188,
				"element": "H" 
			}
		],
		 "valence_orbital": [ 
			{
				"type": "occ",
				"energy": -0.3135,
				"method": "rhf"
			},
			{
				"type": "occ",
				"energy": -0.31022,
				"method": "rhf"
			},
			{
				"type": "occ",
				"energy": -0.27239,
				"method": "rhf"
			},
			{
				"type": "occ",
				"energy": -0.269,
				"method": "rhf"
			},
			{
				"type": "occ",
				"energy": -0.26256,
				"method": "rhf"
			},
			{
				"type": "unocc",
				"energy": -0.03576,
				"method": "rhf"
			},
			{
				"type": "unocc",
				"energy": -0.02546,
				"method": "rhf"
			},
			{
				"type": "unocc",
				"energy": 0.00507,
				"method": "rhf"
			},
			{
				"type": "unocc",
				"energy": 0.04674,
				"method": "rhf"
			},
			{
				"type": "unocc",
				"energy": 0.05521,
				"method": "rhf"
			}
		],
		"cosmo_sigma_profile": { 
			"-0.025": 0.0,
			"-0.024": 0.0,
			"-0.023": 0.0,
			"-0.022": 0.0,
			"-0.021": 0.0,
			"-0.02": 0.0,
			"-0.019": 0.0,
			"-0.018": 0.0,
			"-0.017": 0.0,
			"-0.016": 0.0,
			"-0.015": 1.18408577579,
			"-0.014": 1.09498247391,
			"-0.013": 1.6638691943,
			"-0.012": 0.914823388115,
			"-0.011": 1.40691959984,
			"-0.01": 2.70769421911,
			"-0.009": 6.12370491048,
			"-0.008": 8.3665034764,
			"-0.007": 11.6772306158,
			"-0.006": 16.8298568323,
			"-0.005": 20.444689503,
			"-0.004": 20.191991424,
			"-0.003": 17.6588743718,
			"-0.002": 14.906616161,
			"-0.001": 15.6811546609,
			"0.0": 14.2584996775,
			"0.001": 10.7900064412,
			"0.002": 10.7980201308,
			"0.003": 12.1018385358,
			"0.004": 14.5029609576,
			"0.005": 8.44876599981,
			"0.006": 4.92381461038,
			"0.007": 4.69420328582,
			"0.008": 6.04245433066,
			"0.009": 8.0067417498,
			"0.01": 11.9935820923,
			"0.011": 13.2168931899,
			"0.012": 5.37282464165,
			"0.013": 1.20285828027,
			"0.014": 0.00754608279268,
			"0.015": 0.0,
			"0.016": 0.0,
			"0.017": 0.0,
			"0.018": 0.0,
			"0.019": 0.0,
			"0.02": 0.0,
			"0.021": 0.0,
			"0.022": 0.0,
			"0.023": 0.0,
			"0.024": 0.0,
			"0.025": 0.0
		}
	}
}
