{
	 "smiles": "NC1=NN=C(SCC=C)S1", 
	 "Tm": 393.15, 
	 "num_atms": 17, 
	 "gaussian": { 
		 "optdone": 1, 
		 "sigma_profile": "yes", 
		 "theory": "DFT", 
		 "functional": "B3LYP", 
		 "basiset": "6-31G**", 
		 "properties": { 
			 "R2extent": 2495.0632, 
			 "electric_dipole_moment_norm": 2.10592716161, 
			 "electric_quadrupole_moment_norm": 15.7657085889, 
			 "total_energy": -1155.32021759, 
			 "HOMO_LUMO_gap": 0.19533, 
			 "cosmo_polarized_energy": -13.39, 
			 "cosmo_cavitation_energy": 25.02, 
			 "cosmo_dispersion_energy": -19.19, 
			 "cosmo_repulsion_energy": 1.48, 
			 "cosmo_total_nonelectrostatic_energy": 7.31, 
			 "SMD_solvation_energy": 2.81 
		},
		"coords": [
			{
				"x": 2.885761506,
				"y": -1.2352676446,
				"z": 1.8010437948,
				"element": "N" 
			},
			{
				"x": 1.8902265384,
				"y": -0.632218786,
				"z": 1.0662216786,
				"element": "C" 
			},
			{
				"x": 2.110811987,
				"y": 0.25784208,
				"z": 0.1421749988,
				"element": "N" 
			},
			{
				"x": 0.9652666743,
				"y": 0.6349665193,
				"z": -0.5195932966,
				"element": "N" 
			},
			{
				"x": -0.1066623834,
				"y": 0.0515105648,
				"z": -0.0797546342,
				"element": "C" 
			},
			{
				"x": -1.7465434397,
				"y": 0.3286133728,
				"z": -0.6612777117,
				"element": "S" 
			},
			{
				"x": -1.4188741469,
				"y": 1.6647128531,
				"z": -1.9101869617,
				"element": "C" 
			},
			{
				"x": -0.8765718275,
				"y": 1.1565723694,
				"z": -3.2097151496,
				"element": "C" 
			},
			{
				"x": -1.5356812683,
				"y": 1.2282381569,
				"z": -4.366669469,
				"element": "C" 
			},
			{
				"x": 0.1932773407,
				"y": -1.1049905892,
				"z": 1.2313889363,
				"element": "S" 
			},
			{
				"x": 2.670660764,
				"y": -1.4411695912,
				"z": 2.7668695969,
				"element": "H" 
			},
			{
				"x": 3.7801222976,
				"y": -0.7757658837,
				"z": 1.6787962916,
				"element": "H" 
			},
			{
				"x": -0.729336798,
				"y": 2.3627600807,
				"z": -1.429232803,
				"element": "H" 
			},
			{
				"x": -2.3915374326,
				"y": 2.1478789508,
				"z": -2.0377908259,
				"element": "H" 
			},
			{
				"x": 0.1206706595,
				"y": 0.7262724737,
				"z": -3.1634047855,
				"element": "H" 
			},
			{
				"x": -1.0996209028,
				"y": 0.8638933313,
				"z": -5.2918339123,
				"element": "H" 
			},
			{
				"x": -2.5331695684,
				"y": 1.6571517419,
				"z": -4.4338357477,
				"element": "H" 
			}
		],
		 "valence_orbital": [ 
			{
				"type": "occ",
				"energy": -0.29843,
				"method": "rhf"
			},
			{
				"type": "occ",
				"energy": -0.27099,
				"method": "rhf"
			},
			{
				"type": "occ",
				"energy": -0.26656,
				"method": "rhf"
			},
			{
				"type": "occ",
				"energy": -0.25638,
				"method": "rhf"
			},
			{
				"type": "occ",
				"energy": -0.2154,
				"method": "rhf"
			},
			{
				"type": "unocc",
				"energy": -0.02007,
				"method": "rhf"
			},
			{
				"type": "unocc",
				"energy": -0.01271,
				"method": "rhf"
			},
			{
				"type": "unocc",
				"energy": -0.00182,
				"method": "rhf"
			},
			{
				"type": "unocc",
				"energy": 0.0409,
				"method": "rhf"
			},
			{
				"type": "unocc",
				"energy": 0.04176,
				"method": "rhf"
			}
		],
		"cosmo_sigma_profile": { 
			"-0.025": 0.0,
			"-0.024": 0.0,
			"-0.023": 0.0,
			"-0.022": 0.0,
			"-0.021": 0.0,
			"-0.02": 0.0,
			"-0.019": 0.0,
			"-0.018": 0.0,
			"-0.017": 0.0,
			"-0.016": 0.0466523423182,
			"-0.015": 1.08440746638,
			"-0.014": 2.75218734702,
			"-0.013": 2.74142740819,
			"-0.012": 2.85113115249,
			"-0.011": 2.85787080174,
			"-0.01": 2.31458333106,
			"-0.009": 1.62275702968,
			"-0.008": 2.41261863254,
			"-0.007": 4.21011468954,
			"-0.006": 6.21562124808,
			"-0.005": 10.4032481972,
			"-0.004": 11.0758779847,
			"-0.003": 12.860301444,
			"-0.002": 11.64539773,
			"-0.001": 16.1077472203,
			"0.0": 18.2320176525,
			"0.001": 16.1061244094,
			"0.002": 15.8460079906,
			"0.003": 12.8332360631,
			"0.004": 9.28932178018,
			"0.005": 8.91290403376,
			"0.006": 8.01561066961,
			"0.007": 5.69751208549,
			"0.008": 2.42958863258,
			"0.009": 2.58401423233,
			"0.01": 2.64056381189,
			"0.011": 3.09924753119,
			"0.012": 2.98096328241,
			"0.013": 1.89966845688,
			"0.014": 1.29458028702,
			"0.015": 0.760108005958,
			"0.016": 0.0298383397876,
			"0.017": 0.0,
			"0.018": 0.0,
			"0.019": 0.0,
			"0.02": 0.0,
			"0.021": 0.0,
			"0.022": 0.0,
			"0.023": 0.0,
			"0.024": 0.0,
			"0.025": 0.0
		}
	}
}
