{
	 "smiles": "OC(=O)CCNC(=O)NC1=CC=CC=C1", 
	 "Tm": 447.15, 
	 "num_atms": 27, 
	 "gaussian": { 
		 "optdone": 1, 
		 "sigma_profile": "yes", 
		 "theory": "DFT", 
		 "functional": "B3LYP", 
		 "basiset": "6-31G**", 
		 "properties": { 
			 "R2extent": 4143.0467, 
			 "electric_dipole_moment_norm": 6.71021065318, 
			 "electric_quadrupole_moment_norm": 24.0092200533, 
			 "total_energy": -723.512219187, 
			 "HOMO_LUMO_gap": 0.21586, 
			 "cosmo_polarized_energy": -19.22, 
			 "cosmo_cavitation_energy": 30.78, 
			 "cosmo_dispersion_energy": -22.32, 
			 "cosmo_repulsion_energy": 1.77, 
			 "cosmo_total_nonelectrostatic_energy": 10.22, 
			 "SMD_solvation_energy": 6.27 
		},
		"coords": [
			{
				"x": -0.9556246044,
				"y": 2.6634791308,
				"z": -1.4170108333,
				"element": "O" 
			},
			{
				"x": 0.1677812743,
				"y": 2.47416418,
				"z": -2.1301551648,
				"element": "C" 
			},
			{
				"x": 1.0325106956,
				"y": 3.3186994284,
				"z": -2.1934079739,
				"element": "O" 
			},
			{
				"x": 0.2778056323,
				"y": 1.1236600979,
				"z": -2.8403018095,
				"element": "C" 
			},
			{
				"x": 0.9785050502,
				"y": 0.0494027594,
				"z": -1.9888035694,
				"element": "C" 
			},
			{
				"x": 0.4509929199,
				"y": -0.1606618459,
				"z": -0.6366877232,
				"element": "N" 
			},
			{
				"x": -0.8651019151,
				"y": -0.2568829371,
				"z": -0.3038027773,
				"element": "C" 
			},
			{
				"x": -1.7939422571,
				"y": 0.0948545993,
				"z": -1.0495495529,
				"element": "O" 
			},
			{
				"x": -1.1619589312,
				"y": -0.734987253,
				"z": 0.9613190399,
				"element": "N" 
			},
			{
				"x": -0.2969148354,
				"y": -1.21367264,
				"z": 1.9755331049,
				"element": "C" 
			},
			{
				"x": -0.4507210961,
				"y": -0.7385343391,
				"z": 3.285762986,
				"element": "C" 
			},
			{
				"x": 0.3599883832,
				"y": -1.2272324965,
				"z": 4.3084792648,
				"element": "C" 
			},
			{
				"x": 1.3466960171,
				"y": -2.1774087702,
				"z": 4.0358949132,
				"element": "C" 
			},
			{
				"x": 1.5005903396,
				"y": -2.6527219781,
				"z": 2.7329419498,
				"element": "C" 
			},
			{
				"x": 0.6753356826,
				"y": -2.1898762597,
				"z": 1.7071680166,
				"element": "C" 
			},
			{
				"x": -1.4707112226,
				"y": 1.8244274986,
				"z": -1.3901078992,
				"element": "H" 
			},
			{
				"x": -0.7055404227,
				"y": 0.7670867858,
				"z": -3.1497942332,
				"element": "H" 
			},
			{
				"x": 0.8937318844,
				"y": 1.2769142053,
				"z": -3.7303776985,
				"element": "H" 
			},
			{
				"x": 0.9664089948,
				"y": -0.8949899354,
				"z": -2.5495120984,
				"element": "H" 
			},
			{
				"x": 2.0245567714,
				"y": 0.3390306407,
				"z": -1.8565022995,
				"element": "H" 
			},
			{
				"x": 1.1273776938,
				"y": -0.38475806,
				"z": 0.0779794452,
				"element": "H" 
			},
			{
				"x": -2.1189055603,
				"y": -0.5329519311,
				"z": 1.2164184229,
				"element": "H" 
			},
			{
				"x": -1.2008141967,
				"y": 0.0194867614,
				"z": 3.493140569,
				"element": "H" 
			},
			{
				"x": 0.2283007538,
				"y": -0.8525529275,
				"z": 5.3192096121,
				"element": "H" 
			},
			{
				"x": 1.9841441761,
				"y": -2.5481298628,
				"z": 4.8324083171,
				"element": "H" 
			},
			{
				"x": 2.2511100031,
				"y": -3.4062663708,
				"z": 2.5128578609,
				"element": "H" 
			},
			{
				"x": 0.7608987693,
				"y": -2.6041784804,
				"z": 0.7077001307,
				"element": "H" 
			}
		],
		 "valence_orbital": [ 
			{
				"type": "occ",
				"energy": -0.2834,
				"method": "rhf"
			},
			{
				"type": "occ",
				"energy": -0.27776,
				"method": "rhf"
			},
			{
				"type": "occ",
				"energy": -0.27277,
				"method": "rhf"
			},
			{
				"type": "occ",
				"energy": -0.24507,
				"method": "rhf"
			},
			{
				"type": "occ",
				"energy": -0.24296,
				"method": "rhf"
			},
			{
				"type": "unocc",
				"energy": -0.0271,
				"method": "rhf"
			},
			{
				"type": "unocc",
				"energy": -0.02659,
				"method": "rhf"
			},
			{
				"type": "unocc",
				"energy": 0.02639,
				"method": "rhf"
			},
			{
				"type": "unocc",
				"energy": 0.03561,
				"method": "rhf"
			},
			{
				"type": "unocc",
				"energy": 0.07346,
				"method": "rhf"
			}
		],
		"cosmo_sigma_profile": { 
			"-0.025": 0.0,
			"-0.024": 0.0,
			"-0.023": 0.0,
			"-0.022": 0.0,
			"-0.021": 0.0,
			"-0.02": 0.0,
			"-0.019": 0.0,
			"-0.018": 0.0,
			"-0.017": 0.0,
			"-0.016": 0.0,
			"-0.015": 0.163682490901,
			"-0.014": 0.864459158941,
			"-0.013": 1.57432864653,
			"-0.012": 2.22736902722,
			"-0.011": 2.67677892514,
			"-0.01": 1.28602652113,
			"-0.009": 2.42506015378,
			"-0.008": 3.65536125311,
			"-0.007": 6.05662804334,
			"-0.006": 16.4332797111,
			"-0.005": 23.5010111145,
			"-0.004": 23.6531750619,
			"-0.003": 19.7067237571,
			"-0.002": 15.6094367544,
			"-0.001": 13.2156875562,
			"0.0": 11.0879086916,
			"0.001": 11.2931731145,
			"0.002": 11.2996194275,
			"0.003": 12.0987559306,
			"0.004": 13.1105769055,
			"0.005": 10.7992045483,
			"0.006": 3.82853615047,
			"0.007": 3.14752335367,
			"0.008": 3.20544162884,
			"0.009": 3.32192487091,
			"0.01": 4.9417025542,
			"0.011": 5.91537276004,
			"0.012": 7.67286559158,
			"0.013": 7.20161598229,
			"0.014": 2.27078235076,
			"0.015": 0.0,
			"0.016": 0.0,
			"0.017": 0.0,
			"0.018": 0.0,
			"0.019": 0.0,
			"0.02": 0.0,
			"0.021": 0.0,
			"0.022": 0.0,
			"0.023": 0.0,
			"0.024": 0.0,
			"0.025": 0.0
		}
	}
}
