{
	 "smiles": "ClC1=C(C=O)N2C=CC=CC2=N1", 
	 "Tm": 398.15, 
	 "num_atms": 17, 
	 "gaussian": { 
		 "optdone": 1, 
		 "sigma_profile": "yes", 
		 "theory": "DFT", 
		 "functional": "B3LYP", 
		 "basiset": "6-31G**", 
		 "properties": { 
			 "R2extent": 2907.0473, 
			 "electric_dipole_moment_norm": 6.50850073827, 
			 "electric_quadrupole_moment_norm": 13.2801401619, 
			 "total_energy": -952.761446579, 
			 "HOMO_LUMO_gap": 0.16843, 
			 "cosmo_polarized_energy": -15.63, 
			 "cosmo_cavitation_energy": 23.79, 
			 "cosmo_dispersion_energy": -17.84, 
			 "cosmo_repulsion_energy": 1.39, 
			 "cosmo_total_nonelectrostatic_energy": 7.34, 
			 "SMD_solvation_energy": 3.34 
		},
		"coords": [
			{
				"x": -0.4809292677,
				"y": -3.7087461263,
				"z": 1.7527166277,
				"element": "Cl" 
			},
			{
				"x": -0.4975013039,
				"y": -2.2397042508,
				"z": 0.8574630247,
				"element": "C" 
			},
			{
				"x": 0.0898297251,
				"y": -2.0491035013,
				"z": -0.4043617371,
				"element": "C" 
			},
			{
				"x": 0.8285241431,
				"y": -2.9330830876,
				"z": -1.2824434982,
				"element": "C" 
			},
			{
				"x": 1.0849200672,
				"y": -4.1016119691,
				"z": -1.0428903674,
				"element": "O" 
			},
			{
				"x": -0.1963649134,
				"y": -0.7086196538,
				"z": -0.6941704205,
				"element": "N" 
			},
			{
				"x": 0.1066885354,
				"y": 0.075750592,
				"z": -1.7781518215,
				"element": "C" 
			},
			{
				"x": -0.3065086099,
				"y": 1.3812356524,
				"z": -1.7993063288,
				"element": "C" 
			},
			{
				"x": -1.0414182431,
				"y": 1.9211895464,
				"z": -0.7121427795,
				"element": "C" 
			},
			{
				"x": -1.3454780549,
				"y": 1.1343276834,
				"z": 0.3754252357,
				"element": "C" 
			},
			{
				"x": -0.9194100789,
				"y": -0.2085416902,
				"z": 0.3952204161,
				"element": "C" 
			},
			{
				"x": -1.0993969991,
				"y": -1.147202012,
				"z": 1.3375174559,
				"element": "N" 
			},
			{
				"x": 1.1676098589,
				"y": -2.4669722835,
				"z": -2.2347756541,
				"element": "H" 
			},
			{
				"x": 0.6686698408,
				"y": -0.3856897161,
				"z": -2.5788751927,
				"element": "H" 
			},
			{
				"x": -0.0616908532,
				"y": 1.9918661792,
				"z": -2.6604249443,
				"element": "H" 
			},
			{
				"x": -1.3620241491,
				"y": 2.9570366702,
				"z": -0.7430390649,
				"element": "H" 
			},
			{
				"x": -1.9037196974,
				"y": 1.5025679671,
				"z": 1.2277390488,
				"element": "H" 
			}
		],
		 "valence_orbital": [ 
			{
				"type": "occ",
				"energy": -0.31864,
				"method": "rhf"
			},
			{
				"type": "occ",
				"energy": -0.30437,
				"method": "rhf"
			},
			{
				"type": "occ",
				"energy": -0.2605,
				"method": "rhf"
			},
			{
				"type": "occ",
				"energy": -0.25508,
				"method": "rhf"
			},
			{
				"type": "occ",
				"energy": -0.23746,
				"method": "rhf"
			},
			{
				"type": "unocc",
				"energy": -0.06903,
				"method": "rhf"
			},
			{
				"type": "unocc",
				"energy": -0.05242,
				"method": "rhf"
			},
			{
				"type": "unocc",
				"energy": -0.00283,
				"method": "rhf"
			},
			{
				"type": "unocc",
				"energy": 0.04299,
				"method": "rhf"
			},
			{
				"type": "unocc",
				"energy": 0.06561,
				"method": "rhf"
			}
		],
		"cosmo_sigma_profile": { 
			"-0.025": 0.0,
			"-0.024": 0.0,
			"-0.023": 0.0,
			"-0.022": 0.0,
			"-0.021": 0.0,
			"-0.02": 0.0,
			"-0.019": 0.0,
			"-0.018": 0.0,
			"-0.017": 0.0,
			"-0.016": 0.0,
			"-0.015": 0.0,
			"-0.014": 0.0,
			"-0.013": 0.0,
			"-0.012": 0.240310214835,
			"-0.011": 3.01855397921,
			"-0.01": 3.02276179268,
			"-0.009": 2.93909542299,
			"-0.008": 8.96903024557,
			"-0.007": 9.91839054734,
			"-0.006": 9.82641879225,
			"-0.005": 7.42932509831,
			"-0.004": 10.0692967743,
			"-0.003": 11.7327718646,
			"-0.002": 13.5477517495,
			"-0.001": 15.296360581,
			"0.0": 15.8253341351,
			"0.001": 15.1300458747,
			"0.002": 13.0618426287,
			"0.003": 10.1666304246,
			"0.004": 7.8851446083,
			"0.005": 4.79903258806,
			"0.006": 3.32964451079,
			"0.007": 3.65903779253,
			"0.008": 3.56020321298,
			"0.009": 3.29305681954,
			"0.01": 3.32565042821,
			"0.011": 4.9853061316,
			"0.012": 5.73670391988,
			"0.013": 2.82618051538,
			"0.014": 0.818129660131,
			"0.015": 0.699044322772,
			"0.016": 0.0525915000669,
			"0.017": 0.0,
			"0.018": 0.0,
			"0.019": 0.0,
			"0.02": 0.0,
			"0.021": 0.0,
			"0.022": 0.0,
			"0.023": 0.0,
			"0.024": 0.0,
			"0.0": 0.0
		}
	}
}
