{
	 "smiles": "CC12CCC3C(CCC4CC(=O)CCC34C)[C@]1(O)CC[C@]2(O)C(=O)CO", 
	 "Tm": 491.15, 
	 "num_atms": 58, 
	 "gaussian": { 
		 "optdone": 1, 
		 "sigma_profile": "yes", 
		 "theory": "DFT", 
		 "functional": "B3LYP", 
		 "basiset": "6-31G**", 
		 "properties": { 
			 "R2extent": 10746.4032, 
			 "electric_dipole_moment_norm": 2.81347138958, 
			 "electric_quadrupole_moment_norm": 35.5847872899, 
			 "total_energy": -1195.62505043, 
			 "HOMO_LUMO_gap": 0.20155, 
			 "cosmo_polarized_energy": -22.05, 
			 "cosmo_cavitation_energy": 49.02, 
			 "cosmo_dispersion_energy": -34.38, 
			 "cosmo_repulsion_energy": 2.49, 
			 "cosmo_total_nonelectrostatic_energy": 17.14, 
			 "SMD_solvation_energy": 7.81 
		},
		"coords": [
			{
				"x": 2.3965352354,
				"y": 2.4991370114,
				"z": -0.2177429223,
				"element": "C" 
			},
			{
				"x": 0.9741651875,
				"y": 2.0167370984,
				"z": 0.1354481122,
				"element": "C" 
			},
			{
				"x": 0.2627710829,
				"y": 1.5662955153,
				"z": -1.1571491586,
				"element": "C" 
			},
			{
				"x": 0.9515373779,
				"y": 0.3665858603,
				"z": -1.8433246541,
				"element": "C" 
			},
			{
				"x": 1.5544088713,
				"y": -0.676172208,
				"z": -0.8562091128,
				"element": "C" 
			},
			{
				"x": 0.823197072,
				"y": -0.613974719,
				"z": 0.505666732,
				"element": "C" 
			},
			{
				"x": -0.5952826333,
				"y": -1.2072293648,
				"z": 0.3910427101,
				"element": "C" 
			},
			{
				"x": -0.5298257735,
				"y": -2.6455569708,
				"z": -0.1414237232,
				"element": "C" 
			},
			{
				"x": 0.2037921927,
				"y": -2.7649635719,
				"z": -1.4924660724,
				"element": "C" 
			},
			{
				"x": 0.2424537703,
				"y": -4.2451049932,
				"z": -1.9455292251,
				"element": "C" 
			},
			{
				"x": 1.2058478505,
				"y": -5.0811370541,
				"z": -1.1152598099,
				"element": "C" 
			},
			{
				"x": 0.8895045502,
				"y": -6.1447696963,
				"z": -0.6157484781,
				"element": "O" 
			},
			{
				"x": 2.6006377603,
				"y": -4.4904298711,
				"z": -0.9675162613,
				"element": "C" 
			},
			{
				"x": 2.5704364223,
				"y": -2.9967001179,
				"z": -0.5776906716,
				"element": "C" 
			},
			{
				"x": 1.6279769566,
				"y": -2.1252679201,
				"z": -1.4554290129,
				"element": "C" 
			},
			{
				"x": 2.2294801797,
				"y": -2.0476809568,
				"z": -2.8774684986,
				"element": "C" 
			},
			{
				"x": 0.9782497797,
				"y": 0.802964658,
				"z": 1.1540039693,
				"element": "C" 
			},
			{
				"x": 2.2644231259,
				"y": 0.8546618468,
				"z": 1.8011094859,
				"element": "O" 
			},
			{
				"x": -0.1098110571,
				"y": 1.1589093406,
				"z": 2.1848442303,
				"element": "C" 
			},
			{
				"x": 0.0423499308,
				"y": 2.6658276448,
				"z": 2.3646220186,
				"element": "C" 
			},
			{
				"x": 0.2041588033,
				"y": 3.2013601842,
				"z": 0.9220199022,
				"element": "C" 
			},
			{
				"x": 0.9361795786,
				"y": 4.4214276983,
				"z": 1.0077096123,
				"element": "O" 
			},
			{
				"x": -1.1898587411,
				"y": 3.5155132857,
				"z": 0.3592314406,
				"element": "C" 
			},
			{
				"x": -2.1101416128,
				"y": 2.7088753215,
				"z": 0.3713043659,
				"element": "O" 
			},
			{
				"x": -1.4687421363,
				"y": 4.9115206493,
				"z": -0.1879205072,
				"element": "C" 
			},
			{
				"x": -2.7790153781,
				"y": 5.0120868695,
				"z": -0.6651736317,
				"element": "O" 
			},
			{
				"x": 2.9180422075,
				"y": 2.9054377417,
				"z": 0.6467388541,
				"element": "H" 
			},
			{
				"x": 2.352303611,
				"y": 3.2666994839,
				"z": -1.0030248623,
				"element": "H" 
			},
			{
				"x": 3.0006922459,
				"y": 1.6832024538,
				"z": -0.6145458706,
				"element": "H" 
			},
			{
				"x": -0.771941279,
				"y": 1.3075368757,
				"z": -0.9302834455,
				"element": "H" 
			},
			{
				"x": 0.2121374108,
				"y": 2.4040544452,
				"z": -1.8658143962,
				"element": "H" 
			},
			{
				"x": 0.2096389169,
				"y": -0.1051790782,
				"z": -2.4962971901,
				"element": "H" 
			},
			{
				"x": 1.744941939,
				"y": 0.7237380329,
				"z": -2.5073717981,
				"element": "H" 
			},
			{
				"x": 2.5933002039,
				"y": -0.3829757901,
				"z": -0.6589577876,
				"element": "H" 
			},
			{
				"x": 1.3571218225,
				"y": -1.2734640912,
				"z": 1.2035675467,
				"element": "H" 
			},
			{
				"x": -1.2302044336,
				"y": -0.604149292,
				"z": -0.2676325839,
				"element": "H" 
			},
			{
				"x": -1.0880620675,
				"y": -1.2138799675,
				"z": 1.368682375,
				"element": "H" 
			},
			{
				"x": -0.0421290078,
				"y": -3.2860929811,
				"z": 0.6064237228,
				"element": "H" 
			},
			{
				"x": -1.5449953565,
				"y": -3.0448499684,
				"z": -0.2548029648,
				"element": "H" 
			},
			{
				"x": -0.3907863939,
				"y": -2.2143255523,
				"z": -2.2345746703,
				"element": "H" 
			},
			{
				"x": 0.5682538224,
				"y": -4.3060534342,
				"z": -2.9925504362,
				"element": "H" 
			},
			{
				"x": -0.7498277916,
				"y": -4.7017763496,
				"z": -1.8864940481,
				"element": "H" 
			},
			{
				"x": 3.1518483017,
				"y": -5.083128879,
				"z": -0.2324556768,
				"element": "H" 
			},
			{
				"x": 3.1114661618,
				"y": -4.6174088304,
				"z": -1.9319715356,
				"element": "H" 
			},
			{
				"x": 2.2737295791,
				"y": -2.9329438908,
				"z": 0.4733393368,
				"element": "H" 
			},
			{
				"x": 3.5870994181,
				"y": -2.5879613968,
				"z": -0.6289983849,
				"element": "H" 
			},
			{
				"x": 2.4398460093,
				"y": -3.0359332406,
				"z": -3.2942776623,
				"element": "H" 
			},
			{
				"x": 1.561305882,
				"y": -1.5408247642,
				"z": -3.5788192612,
				"element": "H" 
			},
			{
				"x": 3.1772239823,
				"y": -1.4970727947,
				"z": -2.8612315434,
				"element": "H" 
			},
			{
				"x": 2.2537480022,
				"y": 0.2035038476,
				"z": 2.5152271807,
				"element": "H" 
			},
			{
				"x": -1.1052567511,
				"y": 0.9410277791,
				"z": 1.7935497819,
				"element": "H" 
			},
			{
				"x": 0.0154936253,
				"y": 0.5963786788,
				"z": 3.1182692692,
				"element": "H" 
			},
			{
				"x": 0.9681126144,
				"y": 2.9049319504,
				"z": 2.8938187342,
				"element": "H" 
			},
			{
				"x": -0.7924293861,
				"y": 3.131174799,
				"z": 2.8959295087,
				"element": "H" 
			},
			{
				"x": 1.3287127154,
				"y": 4.621859088,
				"z": 0.1487151536,
				"element": "H" 
			},
			{
				"x": -0.7385366296,
				"y": 5.1272696099,
				"z": -0.9869890216,
				"element": "H" 
			},
			{
				"x": -1.2623157566,
				"y": 5.6391376082,
				"z": 0.6111544544,
				"element": "H" 
			},
			{
				"x": -3.185762014,
				"y": 4.148052367,
				"z": -0.4718736186,
				"element": "H" 
			}
		],
		 "valence_orbital": [ 
			{
				"type": "occ",
				"energy": -0.28653,
				"method": "rhf"
			},
			{
				"type": "occ",
				"energy": -0.268,
				"method": "rhf"
			},
			{
				"type": "occ",
				"energy": -0.26642,
				"method": "rhf"
			},
			{
				"type": "occ",
				"energy": -0.25406,
				"method": "rhf"
			},
			{
				"type": "occ",
				"energy": -0.23587,
				"method": "rhf"
			},
			{
				"type": "unocc",
				"energy": -0.03432,
				"method": "rhf"
			},
			{
				"type": "unocc",
				"energy": -0.01407,
				"method": "rhf"
			},
			{
				"type": "unocc",
				"energy": 0.04413,
				"method": "rhf"
			},
			{
				"type": "unocc",
				"energy": 0.05935,
				"method": "rhf"
			},
			{
				"type": "unocc",
				"energy": 0.07163,
				"method": "rhf"
			}
		],
		"cosmo_sigma_profile": { 
			"-0.025": 0.0,
			"-0.024": 0.0,
			"-0.023": 0.0,
			"-0.022": 0.0,
			"-0.021": 0.0,
			"-0.02": 0.0,
			"-0.019": 0.0,
			"-0.018": 0.0,
			"-0.017": 0.0,
			"-0.016": 0.0,
			"-0.015": 0.240985730477,
			"-0.014": 2.31480531393,
			"-0.013": 2.5120397996,
			"-0.012": 2.24935844641,
			"-0.011": 3.3276277609,
			"-0.01": 2.18652365781,
			"-0.009": 2.56149899552,
			"-0.008": 3.46898636056,
			"-0.007": 4.9994972317,
			"-0.006": 9.09279125996,
			"-0.005": 14.1361222937,
			"-0.004": 21.7297481841,
			"-0.003": 38.6465710619,
			"-0.002": 56.6149739079,
			"-0.001": 50.4387773521,
			"0.0": 41.2838313957,
			"0.001": 25.8579160292,
			"0.002": 11.5291637766,
			"0.003": 7.37838804335,
			"0.004": 7.58814664647,
			"0.005": 7.97546808272,
			"0.006": 6.83688898931,
			"0.007": 7.66192863106,
			"0.008": 6.28329448732,
			"0.009": 6.85039248864,
			"0.01": 6.47393026348,
			"0.011": 6.42441487653,
			"0.012": 8.13971092699,
			"0.013": 7.12972480483,
			"0.014": 3.78609992056,
			"0.015": 0.370933613647,
			"0.016": 0.0,
			"0.017": 0.0,
			"0.018": 0.0,
			"0.019": 0.0,
			"0.02": 0.0,
			"0.021": 0.0,
			"0.022": 0.0,
			"0.023": 0.0,
			"0.024": 0.0,
			"0.025": 0.0
		}
	}
}
