{
	 "smiles": "CCCC1(CCC)NC(=O)NC1=O", 
	 "Tm": 479.15, 
	 "num_atms": 29, 
	 "gaussian": { 
		 "optdone": 1, 
		 "sigma_profile": "yes", 
		 "theory": "DFT", 
		 "functional": "B3LYP", 
		 "basiset": "6-31G**", 
		 "properties": { 
			 "R2extent": 3346.3492, 
			 "electric_dipole_moment_norm": 2.84010621984, 
			 "electric_quadrupole_moment_norm": 10.5128891823, 
			 "total_energy": -612.606388329, 
			 "HOMO_LUMO_gap": 0.25154, 
			 "cosmo_polarized_energy": -14.88, 
			 "cosmo_cavitation_energy": 30.48, 
			 "cosmo_dispersion_energy": -20.94, 
			 "cosmo_repulsion_energy": 1.69, 
			 "cosmo_total_nonelectrostatic_energy": 11.23, 
			 "SMD_solvation_energy": 6.68 
		},
		"coords": [
			{
				"x": -1.0597930896,
				"y": 0.2730424209,
				"z": -2.6340422521,
				"element": "C" 
			},
			{
				"x": -0.8051922855,
				"y": 1.3577135306,
				"z": -1.5794467002,
				"element": "C" 
			},
			{
				"x": -0.2328267927,
				"y": 0.8479603537,
				"z": -0.2416136172,
				"element": "C" 
			},
			{
				"x": 1.3061501429,
				"y": 0.7021478053,
				"z": -0.156235193,
				"element": "C" 
			},
			{
				"x": 1.7736883147,
				"y": 0.107212548,
				"z": 1.2083376797,
				"element": "C" 
			},
			{
				"x": 1.7876647581,
				"y": -1.4260707139,
				"z": 1.3548168629,
				"element": "C" 
			},
			{
				"x": 0.4376328307,
				"y": -2.1536425898,
				"z": 1.3170581767,
				"element": "C" 
			},
			{
				"x": 1.9257816828,
				"y": 0.0250607174,
				"z": -1.2966466962,
				"element": "N" 
			},
			{
				"x": 2.8871819429,
				"y": 0.7653292629,
				"z": -1.9364340874,
				"element": "C" 
			},
			{
				"x": 3.6202492012,
				"y": 0.4358406918,
				"z": -2.8457501004,
				"element": "O" 
			},
			{
				"x": 2.8514456363,
				"y": 2.0335851946,
				"z": -1.3171015119,
				"element": "N" 
			},
			{
				"x": 1.9410853232,
				"y": 2.1093911212,
				"z": -0.2859902565,
				"element": "C" 
			},
			{
				"x": 1.6912291518,
				"y": 3.0768222771,
				"z": 0.4026773861,
				"element": "O" 
			},
			{
				"x": -0.1347469504,
				"y": -0.2172015716,
				"z": -2.9480069091,
				"element": "H" 
			},
			{
				"x": -1.736804717,
				"y": -0.4977179607,
				"z": -2.2466313157,
				"element": "H" 
			},
			{
				"x": -1.5267944092,
				"y": 0.7010852645,
				"z": -3.5271320383,
				"element": "H" 
			},
			{
				"x": -0.151871827,
				"y": 2.1345287136,
				"z": -1.9962824904,
				"element": "H" 
			},
			{
				"x": -1.755374321,
				"y": 1.8604056719,
				"z": -1.3628431414,
				"element": "H" 
			},
			{
				"x": -0.709374648,
				"y": -0.1013829273,
				"z": 0.0206320648,
				"element": "H" 
			},
			{
				"x": -0.491437426,
				"y": 1.5554816736,
				"z": 0.5538914068,
				"element": "H" 
			},
			{
				"x": 2.798402458,
				"y": 0.4533682603,
				"z": 1.3902075541,
				"element": "H" 
			},
			{
				"x": 1.1578336833,
				"y": 0.5585422879,
				"z": 1.9942650186,
				"element": "H" 
			},
			{
				"x": 2.4589980751,
				"y": -1.8556926901,
				"z": 0.5997628059,
				"element": "H" 
			},
			{
				"x": 2.2676970266,
				"y": -1.6392036831,
				"z": 2.3177898409,
				"element": "H" 
			},
			{
				"x": 0.5661239978,
				"y": -3.2067088557,
				"z": 1.5877442373,
				"element": "H" 
			},
			{
				"x": -0.2737118717,
				"y": -1.7144153354,
				"z": 2.0251357081,
				"element": "H" 
			},
			{
				"x": -0.025376023,
				"y": -2.1317752835,
				"z": 0.3254759908,
				"element": "H" 
			},
			{
				"x": 1.8680281358,
				"y": -0.9655400297,
				"z": -1.4717165619,
				"element": "H" 
			},
			{
				"x": 3.4377119999,
				"y": 2.7979338456,
				"z": -1.6201218608,
				"element": "H" 
			}
		],
		 "valence_orbital": [ 
			{
				"type": "occ",
				"energy": -0.33007,
				"method": "rhf"
			},
			{
				"type": "occ",
				"energy": -0.28759,
				"method": "rhf"
			},
			{
				"type": "occ",
				"energy": -0.28727,
				"method": "rhf"
			},
			{
				"type": "occ",
				"energy": -0.26295,
				"method": "rhf"
			},
			{
				"type": "occ",
				"energy": -0.25863,
				"method": "rhf"
			},
			{
				"type": "unocc",
				"energy": -0.00709,
				"method": "rhf"
			},
			{
				"type": "unocc",
				"energy": 0.05207,
				"method": "rhf"
			},
			{
				"type": "unocc",
				"energy": 0.06486,
				"method": "rhf"
			},
			{
				"type": "unocc",
				"energy": 0.08879,
				"method": "rhf"
			},
			{
				"type": "unocc",
				"energy": 0.09436,
				"method": "rhf"
			}
		],
		"cosmo_sigma_profile": { 
			"-0.025": 0.0,
			"-0.024": 0.0,
			"-0.023": 0.0,
			"-0.022": 0.0,
			"-0.021": 0.0,
			"-0.02": 0.0,
			"-0.019": 0.0,
			"-0.018": 0.0,
			"-0.017": 0.135233625129,
			"-0.016": 1.29388536861,
			"-0.015": 1.36029321726,
			"-0.014": 1.16360322041,
			"-0.013": 1.49382070509,
			"-0.012": 1.78838549681,
			"-0.011": 1.51342940808,
			"-0.01": 2.68984309122,
			"-0.009": 1.98900623232,
			"-0.008": 2.38815431029,
			"-0.007": 3.02865442018,
			"-0.006": 2.98300815348,
			"-0.005": 5.066364984,
			"-0.004": 8.67918613864,
			"-0.003": 26.9306529795,
			"-0.002": 36.2838183105,
			"-0.001": 34.8414242709,
			"0.0": 28.2157912256,
			"0.001": 21.3689833077,
			"0.002": 9.2126385953,
			"0.003": 2.28909029494,
			"0.004": 2.95904278796,
			"0.005": 2.75391403571,
			"0.006": 2.26526422752,
			"0.007": 3.01044929736,
			"0.008": 1.96562906352,
			"0.009": 2.28255627736,
			"0.01": 3.03257909263,
			"0.011": 4.66583626378,
			"0.012": 8.6548085854,
			"0.013": 8.66726077072,
			"0.014": 1.7436820791,
			"0.015": 0.0,
			"0.016": 0.0,
			"0.017": 0.0,
			"0.018": 0.0,
			"0.019": 0.0,
			"0.02": 0.0,
			"0.021": 0.0,
			"0.022": 0.0,
			"0.023": 0.0,
			"0.024": 0.0,
			"0.025": 0.0
		}
	}
}
