{
	 "smiles": "CC1=C(C)C2=C(S1)N=CN=C2SC1=C(C=CC=C1)C(O)=O", 
	 "Tm": 474.15, 
	 "num_atms": 33, 
	 "gaussian": { 
		 "optdone": 1, 
		 "sigma_profile": "yes", 
		 "theory": "DFT", 
		 "functional": "B3LYP", 
		 "basiset": "6-31G**", 
		 "properties": { 
			 "R2extent": 8094.8235, 
			 "electric_dipole_moment_norm": 2.79128592229, 
			 "electric_quadrupole_moment_norm": 21.9342202275, 
			 "total_energy": -1635.16926035, 
			 "HOMO_LUMO_gap": 0.15236, 
			 "cosmo_polarized_energy": -14.83, 
			 "cosmo_cavitation_energy": 39.82, 
			 "cosmo_dispersion_energy": -29.2, 
			 "cosmo_repulsion_energy": 2.14, 
			 "cosmo_total_nonelectrostatic_energy": 12.76, 
			 "SMD_solvation_energy": 4.94 
		},
		"coords": [
			{
				"x": -5.6862418958,
				"y": -2.7187955481,
				"z": 0.5777388202,
				"element": "C" 
			},
			{
				"x": -4.4548491122,
				"y": -2.1721815444,
				"z": -0.0828213992,
				"element": "C" 
			},
			{
				"x": -3.2696950714,
				"y": -1.7751826481,
				"z": 0.4765057605,
				"element": "C" 
			},
			{
				"x": -2.9727920682,
				"y": -1.8158089272,
				"z": 1.9530263476,
				"element": "C" 
			},
			{
				"x": -2.3334271889,
				"y": -1.2979927171,
				"z": -0.5274202378,
				"element": "C" 
			},
			{
				"x": -2.8669215934,
				"y": -1.3498546266,
				"z": -1.8376884754,
				"element": "C" 
			},
			{
				"x": -4.4957857991,
				"y": -1.9838168045,
				"z": -1.8380653835,
				"element": "S" 
			},
			{
				"x": -2.2457481204,
				"y": -0.9696774317,
				"z": -2.955064654,
				"element": "N" 
			},
			{
				"x": -1.014199752,
				"y": -0.5090798402,
				"z": -2.7522644402,
				"element": "C" 
			},
			{
				"x": -0.3716064705,
				"y": -0.40951478,
				"z": -1.580351744,
				"element": "N" 
			},
			{
				"x": -1.0096832987,
				"y": -0.7945094763,
				"z": -0.4788404337,
				"element": "C" 
			},
			{
				"x": -0.1222266533,
				"y": -0.6927456368,
				"z": 1.0701904855,
				"element": "S" 
			},
			{
				"x": 1.3936644216,
				"y": 0.1536613507,
				"z": 0.6211043926,
				"element": "C" 
			},
			{
				"x": 1.4964290202,
				"y": 1.5214796159,
				"z": 0.2715735059,
				"element": "C" 
			},
			{
				"x": 2.7711451392,
				"y": 2.0638863288,
				"z": 0.0430580642,
				"element": "C" 
			},
			{
				"x": 3.9233778758,
				"y": 1.2920203353,
				"z": 0.1689150076,
				"element": "C" 
			},
			{
				"x": 3.8177703595,
				"y": -0.0494808044,
				"z": 0.528126269,
				"element": "C" 
			},
			{
				"x": 2.5593213515,
				"y": -0.6099963956,
				"z": 0.7471712259,
				"element": "C" 
			},
			{
				"x": 0.3076305901,
				"y": 2.4162047056,
				"z": 0.1480156509,
				"element": "C" 
			},
			{
				"x": 0.6576080747,
				"y": 3.7012173528,
				"z": -0.1322590036,
				"element": "O" 
			},
			{
				"x": -0.8565607975,
				"y": 2.1018291562,
				"z": 0.281046592,
				"element": "O" 
			},
			{
				"x": -5.9616006617,
				"y": -3.6938337536,
				"z": 0.1598548341,
				"element": "H" 
			},
			{
				"x": -6.5438373631,
				"y": -2.0504752963,
				"z": 0.4369037257,
				"element": "H" 
			},
			{
				"x": -5.538994364,
				"y": -2.848267327,
				"z": 1.6512477525,
				"element": "H" 
			},
			{
				"x": -2.731842401,
				"y": -0.8192300889,
				"z": 2.3359799114,
				"element": "H" 
			},
			{
				"x": -2.1175181206,
				"y": -2.4637750204,
				"z": 2.1730840742,
				"element": "H" 
			},
			{
				"x": -3.8239755759,
				"y": -2.1924491288,
				"z": 2.5227479427,
				"element": "H" 
			},
			{
				"x": -0.4630275677,
				"y": -0.1807958008,
				"z": -3.6307643783,
				"element": "H" 
			},
			{
				"x": 2.8476353526,
				"y": 3.1080546917,
				"z": -0.2330805432,
				"element": "H" 
			},
			{
				"x": 4.8957172459,
				"y": 1.7393459386,
				"z": -0.013093036,
				"element": "H" 
			},
			{
				"x": 4.7066223374,
				"y": -0.6652513919,
				"z": 0.6292433241,
				"element": "H" 
			},
			{
				"x": 2.4693536257,
				"y": -1.6580378075,
				"z": 1.0117089234,
				"element": "H" 
			},
			{
				"x": -0.1821415187,
				"y": 4.1846533206,
				"z": -0.1943288812,
				"element": "H" 
			}
		],
		 "valence_orbital": [ 
			{
				"type": "occ",
				"energy": -0.26851,
				"method": "rhf"
			},
			{
				"type": "occ",
				"energy": -0.25581,
				"method": "rhf"
			},
			{
				"type": "occ",
				"energy": -0.24839,
				"method": "rhf"
			},
			{
				"type": "occ",
				"energy": -0.24181,
				"method": "rhf"
			},
			{
				"type": "occ",
				"energy": -0.21123,
				"method": "rhf"
			},
			{
				"type": "unocc",
				"energy": -0.05887,
				"method": "rhf"
			},
			{
				"type": "unocc",
				"energy": -0.03574,
				"method": "rhf"
			},
			{
				"type": "unocc",
				"energy": -0.02249,
				"method": "rhf"
			},
			{
				"type": "unocc",
				"energy": -0.01979,
				"method": "rhf"
			},
			{
				"type": "unocc",
				"energy": 0.02067,
				"method": "rhf"
			}
		],
		"cosmo_sigma_profile": { 
			"-0.025": 0.0,
			"-0.024": 0.0,
			"-0.023": 0.0,
			"-0.022": 0.0,
			"-0.021": 0.0,
			"-0.02": 0.0,
			"-0.019": 0.0657308666823,
			"-0.018": 0.7889286259,
			"-0.017": 0.927255374568,
			"-0.016": 0.702657101764,
			"-0.015": 0.851497422365,
			"-0.014": 0.739630807811,
			"-0.013": 0.177442585228,
			"-0.012": 0.5786510587,
			"-0.011": 1.11229185294,
			"-0.01": 0.907382117995,
			"-0.009": 0.218060420695,
			"-0.008": 1.59351776515,
			"-0.007": 9.72557532963,
			"-0.006": 13.2489451586,
			"-0.005": 17.6608647829,
			"-0.004": 20.0579649319,
			"-0.003": 21.3903902051,
			"-0.002": 25.1398366471,
			"-0.001": 32.9913085506,
			"0.0": 32.0336467065,
			"0.001": 29.8061893454,
			"0.002": 31.5400555017,
			"0.003": 23.8846502615,
			"0.004": 12.3320075694,
			"0.005": 9.53025296691,
			"0.006": 7.15972087277,
			"0.007": 5.46332290266,
			"0.008": 4.07629546173,
			"0.009": 3.87879638499,
			"0.01": 4.28176031821,
			"0.011": 5.22703818385,
			"0.012": 3.27138307887,
			"0.013": 0.921221967303,
			"0.014": 0.726147740308,
			"0.015": 0.131988777357,
			"0.016": 0.0,
			"0.017": 0.0,
			"0.018": 0.0,
			"0.019": 0.0,
			"0.02": 0.0,
			"0.021": 0.0,
			"0.022": 0.0,
			"0.023": 0.0,
			"0.024": 0.0,
			"0.025": 0.0
		}
	}
}
