{
	 "smiles": "FC(F)(F)COC(=O)NC1=CN=C(C=C1)N1CCOCC1", 
	 "Tm": 478.15, 
	 "num_atms": 35, 
	 "gaussian": { 
		 "optdone": 1, 
		 "sigma_profile": "yes", 
		 "theory": "DFT", 
		 "functional": "B3LYP", 
		 "basiset": "6-31G**", 
		 "properties": { 
			 "R2extent": 10385.247, 
			 "electric_dipole_moment_norm": 1.61312082932, 
			 "electric_quadrupole_moment_norm": 15.7576738766, 
			 "total_energy": -1155.16837581, 
			 "HOMO_LUMO_gap": 0.17454, 
			 "cosmo_polarized_energy": -15.15, 
			 "cosmo_cavitation_energy": 39.75, 
			 "cosmo_dispersion_energy": -28.42, 
			 "cosmo_repulsion_energy": 2.11, 
			 "cosmo_total_nonelectrostatic_energy": 13.44, 
			 "SMD_solvation_energy": 6.87 
		},
		"coords": [
			{
				"x": 1.9938398999,
				"y": 2.2532327171,
				"z": 5.8186763562,
				"element": "F" 
			},
			{
				"x": 1.9537885469,
				"y": 1.8809608992,
				"z": 4.5238809035,
				"element": "C" 
			},
			{
				"x": 3.1368332355,
				"y": 1.3264261245,
				"z": 4.2038939295,
				"element": "F" 
			},
			{
				"x": 1.0095067129,
				"y": 0.9228772327,
				"z": 4.3954974388,
				"element": "F" 
			},
			{
				"x": 1.6461670146,
				"y": 3.0851741985,
				"z": 3.6505776812,
				"element": "C" 
			},
			{
				"x": 1.5340889537,
				"y": 2.6583735148,
				"z": 2.3002266186,
				"element": "O" 
			},
			{
				"x": 2.6073224199,
				"y": 2.9289245045,
				"z": 1.4932727022,
				"element": "C" 
			},
			{
				"x": 3.5396275407,
				"y": 3.6426021357,
				"z": 1.8063005963,
				"element": "O" 
			},
			{
				"x": 2.4917327871,
				"y": 2.3093968277,
				"z": 0.2816661135,
				"element": "N" 
			},
			{
				"x": 1.4876546688,
				"y": 1.4506949807,
				"z": -0.2331379152,
				"element": "C" 
			},
			{
				"x": 1.2452855094,
				"y": 1.4624064701,
				"z": -1.6086542953,
				"element": "C" 
			},
			{
				"x": 0.3764937983,
				"y": 0.6654455243,
				"z": -2.2261865367,
				"element": "N" 
			},
			{
				"x": -0.3380289344,
				"y": -0.212393053,
				"z": -1.499747127,
				"element": "C" 
			},
			{
				"x": -0.1812222414,
				"y": -0.2789557377,
				"z": -0.0951910825,
				"element": "C" 
			},
			{
				"x": 0.7437287894,
				"y": 0.5411585605,
				"z": 0.5320446086,
				"element": "C" 
			},
			{
				"x": -1.1965591568,
				"y": -1.0485643006,
				"z": -2.2057139384,
				"element": "N" 
			},
			{
				"x": -2.1724056342,
				"y": -1.881386951,
				"z": -1.5102649969,
				"element": "C" 
			},
			{
				"x": -2.6090227435,
				"y": -3.0401325788,
				"z": -2.4103913782,
				"element": "C" 
			},
			{
				"x": -3.0851556495,
				"y": -2.5883955993,
				"z": -3.6657360515,
				"element": "O" 
			},
			{
				"x": -2.065783601,
				"y": -1.8666590528,
				"z": -4.3472796929,
				"element": "C" 
			},
			{
				"x": -1.6208824936,
				"y": -0.6457544442,
				"z": -3.5510822026,
				"element": "C" 
			},
			{
				"x": 2.4409542025,
				"y": 3.8252344927,
				"z": 3.75915499,
				"element": "H" 
			},
			{
				"x": 0.6841482823,
				"y": 3.5039415345,
				"z": 3.9523181114,
				"element": "H" 
			},
			{
				"x": 3.2305103596,
				"y": 2.5805283901,
				"z": -0.3519187454,
				"element": "H" 
			},
			{
				"x": 1.7918394385,
				"y": 2.1586654449,
				"z": -2.2465784048,
				"element": "H" 
			},
			{
				"x": -0.7679301937,
				"y": -0.957460653,
				"z": 0.5101296911,
				"element": "H" 
			},
			{
				"x": 0.8700765487,
				"y": 0.4885955214,
				"z": 1.6057074073,
				"element": "H" 
			},
			{
				"x": -3.0559276311,
				"y": -1.2934177687,
				"z": -1.2082679538,
				"element": "H" 
			},
			{
				"x": -1.7265223454,
				"y": -2.3079353416,
				"z": -0.608827605,
				"element": "H" 
			},
			{
				"x": -3.4282446828,
				"y": -3.5907003888,
				"z": -1.9386538698,
				"element": "H" 
			},
			{
				"x": -1.7584733634,
				"y": -3.7277563827,
				"z": -2.5513047848,
				"element": "H" 
			},
			{
				"x": -1.2012518547,
				"y": -2.5236163125,
				"z": -4.5374400684,
				"element": "H" 
			},
			{
				"x": -2.488601827,
				"y": -1.5580717956,
				"z": -5.3075730526,
				"element": "H" 
			},
			{
				"x": -0.7859374238,
				"y": -0.1462540477,
				"z": -4.0414929788,
				"element": "H" 
			},
			{
				"x": -2.4564489326,
				"y": 0.071215334,
				"z": -3.4887044675,
				"element": "H" 
			}
		],
		 "valence_orbital": [ 
			{
				"type": "occ",
				"energy": -0.28602,
				"method": "rhf"
			},
			{
				"type": "occ",
				"energy": -0.27838,
				"method": "rhf"
			},
			{
				"type": "occ",
				"energy": -0.25852,
				"method": "rhf"
			},
			{
				"type": "occ",
				"energy": -0.2555,
				"method": "rhf"
			},
			{
				"type": "occ",
				"energy": -0.19893,
				"method": "rhf"
			},
			{
				"type": "unocc",
				"energy": -0.02439,
				"method": "rhf"
			},
			{
				"type": "unocc",
				"energy": -0.00576,
				"method": "rhf"
			},
			{
				"type": "unocc",
				"energy": 0.04826,
				"method": "rhf"
			},
			{
				"type": "unocc",
				"energy": 0.07213,
				"method": "rhf"
			},
			{
				"type": "unocc",
				"energy": 0.086,
				"method": "rhf"
			}
		],
		"cosmo_sigma_profile": { 
			"-0.025": 0.0,
			"-0.024": 0.0,
			"-0.023": 0.0,
			"-0.022": 0.0,
			"-0.021": 0.0,
			"-0.02": 0.0,
			"-0.019": 0.0,
			"-0.018": 0.0,
			"-0.017": 0.0,
			"-0.016": 0.106588115364,
			"-0.015": 1.34411047419,
			"-0.014": 0.79299417434,
			"-0.013": 1.39599157133,
			"-0.012": 0.923760044335,
			"-0.011": 1.12152337598,
			"-0.01": 2.18144623268,
			"-0.009": 3.6146345076,
			"-0.008": 6.28878930215,
			"-0.007": 7.09226749341,
			"-0.006": 11.4555751749,
			"-0.005": 15.622849043,
			"-0.004": 25.3466437557,
			"-0.003": 31.1907373169,
			"-0.002": 23.9445352427,
			"-0.001": 19.1122427966,
			"0.0": 18.0905209928,
			"0.001": 18.9631800994,
			"0.002": 37.5710165589,
			"0.003": 31.906825287,
			"0.004": 11.6518391343,
			"0.005": 6.83601247035,
			"0.006": 6.25118786477,
			"0.007": 4.69359559248,
			"0.008": 5.20338029288,
			"0.009": 3.71342220604,
			"0.01": 3.83661394451,
			"0.011": 4.68187354207,
			"0.012": 7.08146158053,
			"0.013": 3.04449835872,
			"0.014": 0.195934795063,
			"0.015": 0.0,
			"0.016": 0.0,
			"0.017": 0.0,
			"0.018": 0.0,
			"0.019": 0.0,
			"0.02": 0.0,
			"0.021": 0.0,
			"0.022": 0.0,
			"0.023": 0.0,
			"0.024": 0.0,
			"0.025": 0.0
		}
	}
}
