{
	 "smiles": "OC(=O)C1=CC=C(C=C1)S(=O)(=O)NC1CCS(=O)(=O)C1", 
	 "Tm": 577.15, 
	 "num_atms": 33, 
	 "gaussian": { 
		 "optdone": 1, 
		 "sigma_profile": "yes", 
		 "theory": "DFT", 
		 "functional": "B3LYP", 
		 "basiset": "6-31G**", 
		 "properties": { 
			 "R2extent": 9533.8883, 
			 "electric_dipole_moment_norm": 6.0403164975, 
			 "electric_quadrupole_moment_norm": 32.4967612606, 
			 "total_energy": -1729.34395566, 
			 "HOMO_LUMO_gap": 0.19825, 
			 "cosmo_polarized_energy": -35.76, 
			 "cosmo_cavitation_energy": 39.92, 
			 "cosmo_dispersion_energy": -28.81, 
			 "cosmo_repulsion_energy": 2.13, 
			 "cosmo_total_nonelectrostatic_energy": 13.24, 
			 "SMD_solvation_energy": 5.41 
		},
		"coords": [
			{
				"x": 3.610083034,
				"y": 2.5426040094,
				"z": 5.3055209259,
				"element": "O" 
			},
			{
				"x": 3.7400699621,
				"y": 1.3555729006,
				"z": 4.6603453577,
				"element": "C" 
			},
			{
				"x": 4.1821106649,
				"y": 0.3921399,
				"z": 5.2375544561,
				"element": "O" 
			},
			{
				"x": 3.3140331234,
				"y": 1.3158922814,
				"z": 3.2180256738,
				"element": "C" 
			},
			{
				"x": 3.0083203398,
				"y": 0.0642513793,
				"z": 2.6704831262,
				"element": "C" 
			},
			{
				"x": 2.611758791,
				"y": -0.0443727313,
				"z": 1.339360372,
				"element": "C" 
			},
			{
				"x": 2.5414931744,
				"y": 1.1101316074,
				"z": 0.5583027201,
				"element": "C" 
			},
			{
				"x": 2.8775832555,
				"y": 2.363719325,
				"z": 1.0739120967,
				"element": "C" 
			},
			{
				"x": 3.2578545871,
				"y": 2.4619285164,
				"z": 2.4092712667,
				"element": "C" 
			},
			{
				"x": 2.0816661325,
				"y": 0.9691745797,
				"z": -1.1729367439,
				"element": "S" 
			},
			{
				"x": 3.0330074264,
				"y": 1.7452658096,
				"z": -1.9719312313,
				"element": "O" 
			},
			{
				"x": 1.8144868915,
				"y": -0.4482863318,
				"z": -1.4387715894,
				"element": "O" 
			},
			{
				"x": 0.6314813348,
				"y": 1.8584192468,
				"z": -1.2618941166,
				"element": "N" 
			},
			{
				"x": -0.6417575569,
				"y": 1.1217972311,
				"z": -1.2150452494,
				"element": "C" 
			},
			{
				"x": -1.7761962179,
				"y": 2.0211092663,
				"z": -1.7548210102,
				"element": "C" 
			},
			{
				"x": -3.0879393385,
				"y": 1.3075206159,
				"z": -1.4321062312,
				"element": "C" 
			},
			{
				"x": -2.861085751,
				"y": 0.7056761432,
				"z": 0.2857902512,
				"element": "S" 
			},
			{
				"x": -3.303763619,
				"y": 1.7591429138,
				"z": 1.2125173115,
				"element": "O" 
			},
			{
				"x": -3.3577240662,
				"y": -0.6710487445,
				"z": 0.4124120372,
				"element": "O" 
			},
			{
				"x": -1.0182645526,
				"y": 0.7264544088,
				"z": 0.2242244988,
				"element": "C" 
			},
			{
				"x": 3.0894977528,
				"y": 3.1639055527,
				"z": 4.7778889751,
				"element": "H" 
			},
			{
				"x": 3.0893459774,
				"y": -0.8126875241,
				"z": 3.3032174263,
				"element": "H" 
			},
			{
				"x": 2.369124737,
				"y": -1.0055275977,
				"z": 0.9001360241,
				"element": "H" 
			},
			{
				"x": 2.8527077906,
				"y": 3.2423220825,
				"z": 0.4389024671,
				"element": "H" 
			},
			{
				"x": 3.5513266896,
				"y": 3.4330934744,
				"z": 2.798913007,
				"element": "H" 
			},
			{
				"x": 0.7202821998,
				"y": 2.4446257067,
				"z": -2.0907142933,
				"element": "H" 
			},
			{
				"x": -0.5883191201,
				"y": 0.2133284669,
				"z": -1.8277125005,
				"element": "H" 
			},
			{
				"x": -1.7418495802,
				"y": 2.9935626167,
				"z": -1.2514399275,
				"element": "H" 
			},
			{
				"x": -1.6675693384,
				"y": 2.1888378255,
				"z": -2.8311896368,
				"element": "H" 
			},
			{
				"x": -3.2559099573,
				"y": 0.4303468675,
				"z": -2.0618370065,
				"element": "H" 
			},
			{
				"x": -3.9679787426,
				"y": 1.9519462716,
				"z": -1.441186461,
				"element": "H" 
			},
			{
				"x": -0.6605697261,
				"y": -0.2602461325,
				"z": 0.5194207858,
				"element": "H" 
			},
			{
				"x": -0.6952062977,
				"y": 1.4843000625,
				"z": 0.9401872183,
				"element": "H" 
			}
		],
		 "valence_orbital": [ 
			{
				"type": "occ",
				"energy": -0.30546,
				"method": "rhf"
			},
			{
				"type": "occ",
				"energy": -0.29984,
				"method": "rhf"
			},
			{
				"type": "occ",
				"energy": -0.29684,
				"method": "rhf"
			},
			{
				"type": "occ",
				"energy": -0.29082,
				"method": "rhf"
			},
			{
				"type": "occ",
				"energy": -0.28455,
				"method": "rhf"
			},
			{
				"type": "unocc",
				"energy": -0.0863,
				"method": "rhf"
			},
			{
				"type": "unocc",
				"energy": -0.05006,
				"method": "rhf"
			},
			{
				"type": "unocc",
				"energy": 0.00899,
				"method": "rhf"
			},
			{
				"type": "unocc",
				"energy": 0.02539,
				"method": "rhf"
			},
			{
				"type": "unocc",
				"energy": 0.03919,
				"method": "rhf"
			}
		],
		"cosmo_sigma_profile": { 
			"-0.025": 0.0,
			"-0.024": 0.0,
			"-0.023": 0.0,
			"-0.022": 0.0,
			"-0.021": 0.0,
			"-0.02": 0.104154180436,
			"-0.019": 0.816254556297,
			"-0.018": 0.789583694238,
			"-0.017": 1.1543432974,
			"-0.016": 0.863722784721,
			"-0.015": 1.33064010254,
			"-0.014": 2.40099064469,
			"-0.013": 2.43935074755,
			"-0.012": 2.82308803133,
			"-0.011": 2.66595606461,
			"-0.01": 3.25012870417,
			"-0.009": 5.10346801047,
			"-0.008": 14.8423822633,
			"-0.007": 20.3316945037,
			"-0.006": 23.3860211641,
			"-0.005": 21.1282636732,
			"-0.004": 20.3770550381,
			"-0.003": 16.2464683211,
			"-0.002": 14.195563509,
			"-0.001": 13.7778009251,
			"0.0": 17.9636241204,
			"0.001": 16.1005848413,
			"0.002": 6.30429451789,
			"0.003": 6.76496226832,
			"0.004": 6.58378334502,
			"0.005": 5.63359388956,
			"0.006": 8.06284617426,
			"0.007": 7.40236890591,
			"0.008": 9.84409331528,
			"0.009": 10.1892353777,
			"0.01": 18.1141137278,
			"0.011": 22.0988148613,
			"0.012": 12.8152712965,
			"0.013": 1.31835296367,
			"0.014": 0.0,
			"0.015": 0.0,
			"0.016": 0.0,
			"0.017": 0.0,
			"0.018": 0.0,
			"0.019": 0.0,
			"0.02": 0.0,
			"0.021": 0.0,
			"0.022": 0.0,
			"0.023": 0.0,
			"0.024": 0.0,
			"0.025": 0.0
		}
	}
}
