{
	 "smiles": "FC1=CC=C(C=C1)C1=CSC(NC(=O)CCl)=N1", 
	 "Tm": 416.15, 
	 "num_atms": 25, 
	 "gaussian": { 
		 "optdone": 1, 
		 "sigma_profile": "yes", 
		 "theory": "DFT", 
		 "functional": "B3LYP", 
		 "basiset": "6-31G**", 
		 "properties": { 
			 "R2extent": 7325.5808, 
			 "electric_dipole_moment_norm": 4.78871555848, 
			 "electric_quadrupole_moment_norm": 15.1253334595, 
			 "total_energy": -1566.93900799, 
			 "HOMO_LUMO_gap": 0.16994, 
			 "cosmo_polarized_energy": -15.36, 
			 "cosmo_cavitation_energy": 34.36, 
			 "cosmo_dispersion_energy": -25.17, 
			 "cosmo_repulsion_energy": 1.87, 
			 "cosmo_total_nonelectrostatic_energy": 11.07, 
			 "SMD_solvation_energy": 6.1 
		},
		"coords": [
			{
				"x": -0.9205766456,
				"y": -4.0435927689,
				"z": -4.3670359127,
				"element": "F" 
			},
			{
				"x": -0.6469095044,
				"y": -3.2009627286,
				"z": -3.351269622,
				"element": "C" 
			},
			{
				"x": 0.6175595582,
				"y": -3.2314888548,
				"z": -2.7710038588,
				"element": "C" 
			},
			{
				"x": 0.8961131375,
				"y": -2.3580435427,
				"z": -1.7244932651,
				"element": "C" 
			},
			{
				"x": -0.0751896608,
				"y": -1.4598703302,
				"z": -1.2487832946,
				"element": "C" 
			},
			{
				"x": -1.3381866805,
				"y": -1.4551830498,
				"z": -1.8641162233,
				"element": "C" 
			},
			{
				"x": -1.6307772884,
				"y": -2.322364432,
				"z": -2.9140776483,
				"element": "C" 
			},
			{
				"x": 0.2053674908,
				"y": -0.5380758609,
				"z": -0.1319671917,
				"element": "C" 
			},
			{
				"x": 1.3106909129,
				"y": -0.5512872187,
				"z": 0.6767786931,
				"element": "C" 
			},
			{
				"x": 1.227528379,
				"y": 0.716923829,
				"z": 1.8643035614,
				"element": "S" 
			},
			{
				"x": -0.3309140373,
				"y": 1.1788992036,
				"z": 1.1730704746,
				"element": "C" 
			},
			{
				"x": -1.0164357324,
				"y": 2.2507718593,
				"z": 1.7175556701,
				"element": "N" 
			},
			{
				"x": -2.2371902274,
				"y": 2.8460908808,
				"z": 1.367130409,
				"element": "C" 
			},
			{
				"x": -2.624604168,
				"y": 3.7982731229,
				"z": 2.0096119586,
				"element": "O" 
			},
			{
				"x": -2.9789082332,
				"y": 2.2256618952,
				"z": 0.1894522512,
				"element": "C" 
			},
			{
				"x": -4.5058886351,
				"y": 3.090097177,
				"z": -0.1642541719,
				"element": "Cl" 
			},
			{
				"x": -0.7205202061,
				"y": 0.4537058211,
				"z": 0.1705351969,
				"element": "N" 
			},
			{
				"x": 1.3625423294,
				"y": -3.9250770158,
				"z": -3.1452401398,
				"element": "H" 
			},
			{
				"x": 1.8883572695,
				"y": -2.3722956704,
				"z": -1.2847804226,
				"element": "H" 
			},
			{
				"x": -2.0926489401,
				"y": -0.7633960145,
				"z": -1.5089502835,
				"element": "H" 
			},
			{
				"x": -2.6041068334,
				"y": -2.3253405465,
				"z": -3.3925490928,
				"element": "H" 
			},
			{
				"x": 2.1536093809,
				"y": -1.2251900961,
				"z": 0.6678688669,
				"element": "H" 
			},
			{
				"x": -0.5940001523,
				"y": 2.7231267922,
				"z": 2.5076458746,
				"element": "H" 
			},
			{
				"x": -3.2107650609,
				"y": 1.181132425,
				"z": 0.4010176256,
				"element": "H" 
			},
			{
				"x": -2.3531464523,
				"y": 2.2401851238,
				"z": -0.7034494549,
				"element": "H" 
			}
		],
		 "valence_orbital": [ 
			{
				"type": "occ",
				"energy": -0.2972,
				"method": "rhf"
			},
			{
				"type": "occ",
				"energy": -0.28595,
				"method": "rhf"
			},
			{
				"type": "occ",
				"energy": -0.27094,
				"method": "rhf"
			},
			{
				"type": "occ",
				"energy": -0.26613,
				"method": "rhf"
			},
			{
				"type": "occ",
				"energy": -0.2229,
				"method": "rhf"
			},
			{
				"type": "unocc",
				"energy": -0.05296,
				"method": "rhf"
			},
			{
				"type": "unocc",
				"energy": -0.029,
				"method": "rhf"
			},
			{
				"type": "unocc",
				"energy": -0.01987,
				"method": "rhf"
			},
			{
				"type": "unocc",
				"energy": -0.01751,
				"method": "rhf"
			},
			{
				"type": "unocc",
				"energy": 0.01998,
				"method": "rhf"
			}
		],
		"cosmo_sigma_profile": { 
			"-0.025": 0.0,
			"-0.024": 0.0,
			"-0.023": 0.0,
			"-0.022": 0.0,
			"-0.021": 0.0,
			"-0.02": 0.0,
			"-0.019": 0.0,
			"-0.018": 0.0,
			"-0.017": 0.733157885214,
			"-0.016": 0.899545000646,
			"-0.015": 1.25562763899,
			"-0.014": 0.839768387765,
			"-0.013": 1.00262774942,
			"-0.012": 1.13844921874,
			"-0.011": 1.43253025348,
			"-0.01": 1.8569967378,
			"-0.009": 5.6397066635,
			"-0.008": 7.70059852855,
			"-0.007": 9.89689219257,
			"-0.006": 11.9213629089,
			"-0.005": 12.345969658,
			"-0.004": 13.7326277862,
			"-0.003": 12.4733743278,
			"-0.002": 14.2628415461,
			"-0.001": 18.291744831,
			"0.0": 20.3985290875,
			"0.001": 23.9234288771,
			"0.002": 26.8648000112,
			"0.003": 29.96494425,
			"0.004": 26.2664688684,
			"0.005": 12.1980171828,
			"0.006": 7.3326850569,
			"0.007": 1.98881194306,
			"0.008": 1.77937318576,
			"0.009": 2.69217632678,
			"0.01": 2.21496864091,
			"0.011": 5.14304030275,
			"0.012": 3.45344105252,
			"0.013": 1.38576790843,
			"0.014": 0.0429917311417,
			"0.015": 0.0,
			"0.016": 0.0,
			"0.017": 0.0,
			"0.018": 0.0,
			"0.019": 0.0,
			"0.02": 0.0,
			"0.021": 0.0,
			"0.022": 0.0,
			"0.023": 0.0,
			"0.024": 0.0,
			"0.025": 0.0
		}
	}
}
