{
	 "smiles": "NC1=C(C#N)C(NC2=NC(=NN12)C(F)(F)F)C1=C(Cl)C=CC=C1Cl", 
	 "Tm": 596.15, 
	 "num_atms": 31, 
	 "gaussian": { 
		 "optdone": 1, 
		 "sigma_profile": "yes", 
		 "theory": "DFT", 
		 "functional": "B3LYP", 
		 "basiset": "6-31G**", 
		 "properties": { 
			 "R2extent": 10638.7646, 
			 "electric_dipole_moment_norm": 3.26491656555, 
			 "electric_quadrupole_moment_norm": 29.0551203217, 
			 "total_energy": -2047.97387523, 
			 "HOMO_LUMO_gap": 0.16415, 
			 "cosmo_polarized_energy": -19.92, 
			 "cosmo_cavitation_energy": 41.71, 
			 "cosmo_dispersion_energy": -28.18, 
			 "cosmo_repulsion_energy": 2.08, 
			 "cosmo_total_nonelectrostatic_energy": 15.6, 
			 "SMD_solvation_energy": 5.61 
		},
		"coords": [
			{
				"x": -3.7112638309,
				"y": -0.8802225727,
				"z": -0.5911028101,
				"element": "N" 
			},
			{
				"x": -2.6887715252,
				"y": -0.0078421738,
				"z": -0.7062265458,
				"element": "C" 
			},
			{
				"x": -2.3009757614,
				"y": 0.9487479368,
				"z": 0.2005105346,
				"element": "C" 
			},
			{
				"x": -3.0289736955,
				"y": 1.0576585113,
				"z": 1.4070715755,
				"element": "C" 
			},
			{
				"x": -3.6540253938,
				"y": 1.1113641883,
				"z": 2.3922203199,
				"element": "N" 
			},
			{
				"x": -1.1404244332,
				"y": 1.9184348032,
				"z": -0.040004342,
				"element": "C" 
			},
			{
				"x": -0.585110174,
				"y": 1.7454408215,
				"z": -1.3919085654,
				"element": "N" 
			},
			{
				"x": -0.9543292583,
				"y": 0.7604821447,
				"z": -2.2338949443,
				"element": "C" 
			},
			{
				"x": -0.4839759331,
				"y": 0.4494239261,
				"z": -3.4300565166,
				"element": "N" 
			},
			{
				"x": -1.2731448813,
				"y": -0.6121219913,
				"z": -3.7755749766,
				"element": "C" 
			},
			{
				"x": -2.1891810015,
				"y": -0.9898209107,
				"z": -2.9058177653,
				"element": "N" 
			},
			{
				"x": -1.9758664124,
				"y": -0.081478978,
				"z": -1.8965528617,
				"element": "N" 
			},
			{
				"x": -1.0986726812,
				"y": -1.3177165064,
				"z": -5.0919034587,
				"element": "C" 
			},
			{
				"x": -1.9787291555,
				"y": -2.3234949306,
				"z": -5.2241923105,
				"element": "F" 
			},
			{
				"x": 0.1428136693,
				"y": -1.8284070726,
				"z": -5.1999114611,
				"element": "F" 
			},
			{
				"x": -1.2771801898,
				"y": -0.4645567916,
				"z": -6.1184761903,
				"element": "F" 
			},
			{
				"x": -0.0489385764,
				"y": 1.8495409964,
				"z": 1.0421516493,
				"element": "C" 
			},
			{
				"x": 0.7376804621,
				"y": 0.7075041699,
				"z": 1.286136627,
				"element": "C" 
			},
			{
				"x": 0.5386749627,
				"y": -0.7531511728,
				"z": 0.327826084,
				"element": "Cl" 
			},
			{
				"x": 1.7126527618,
				"y": 0.6633983529,
				"z": 2.2806271199,
				"element": "C" 
			},
			{
				"x": 1.9323888968,
				"y": 1.7849137739,
				"z": 3.0753308158,
				"element": "C" 
			},
			{
				"x": 1.1861636187,
				"y": 2.9404310327,
				"z": 2.8704612436,
				"element": "C" 
			},
			{
				"x": 0.2181971779,
				"y": 2.9601431198,
				"z": 1.8667596083,
				"element": "C" 
			},
			{
				"x": -0.6671873587,
				"y": 4.4752696123,
				"z": 1.6743581092,
				"element": "Cl" 
			},
			{
				"x": -4.1998493451,
				"y": -0.9595570672,
				"z": 0.2865924795,
				"element": "H" 
			},
			{
				"x": -3.8151488402,
				"y": -1.5913542599,
				"z": -1.2993556231,
				"element": "H" 
			},
			{
				"x": -1.5454577495,
				"y": 2.9315788316,
				"z": 0.0128463293,
				"element": "H" 
			},
			{
				"x": 0.1728626549,
				"y": 2.3418712018,
				"z": -1.6876808573,
				"element": "H" 
			},
			{
				"x": 2.2866032223,
				"y": -0.2448168692,
				"z": 2.4231440839,
				"element": "H" 
			},
			{
				"x": 2.6876216803,
				"y": 1.7579155637,
				"z": 3.8542745276,
				"element": "H" 
			},
			{
				"x": 1.3443470899,
				"y": 3.8241223095,
				"z": 3.4772481213,
				"element": "H" 
			}
		],
		 "valence_orbital": [ 
			{
				"type": "occ",
				"energy": -0.30741,
				"method": "rhf"
			},
			{
				"type": "occ",
				"energy": -0.28323,
				"method": "rhf"
			},
			{
				"type": "occ",
				"energy": -0.26606,
				"method": "rhf"
			},
			{
				"type": "occ",
				"energy": -0.25587,
				"method": "rhf"
			},
			{
				"type": "occ",
				"energy": -0.22244,
				"method": "rhf"
			},
			{
				"type": "unocc",
				"energy": -0.05829,
				"method": "rhf"
			},
			{
				"type": "unocc",
				"energy": -0.04396,
				"method": "rhf"
			},
			{
				"type": "unocc",
				"energy": -0.03575,
				"method": "rhf"
			},
			{
				"type": "unocc",
				"energy": -0.01113,
				"method": "rhf"
			},
			{
				"type": "unocc",
				"energy": 0.01189,
				"method": "rhf"
			}
		],
		"cosmo_sigma_profile": { 
			"-0.025": 0.0,
			"-0.024": 0.0,
			"-0.023": 0.0,
			"-0.022": 0.0,
			"-0.021": 0.0,
			"-0.02": 0.0,
			"-0.019": 0.0,
			"-0.018": 0.0,
			"-0.017": 0.237632690825,
			"-0.016": 1.56753358842,
			"-0.015": 2.51311687709,
			"-0.014": 2.51659473379,
			"-0.013": 3.09994270848,
			"-0.012": 3.35685926126,
			"-0.011": 2.58783074486,
			"-0.01": 2.98463262362,
			"-0.009": 2.71614177146,
			"-0.008": 5.97547336595,
			"-0.007": 9.85751447331,
			"-0.006": 11.2076567217,
			"-0.005": 10.8859687642,
			"-0.004": 13.0509588645,
			"-0.003": 17.1866379348,
			"-0.002": 21.1603083918,
			"-0.001": 23.5473425709,
			"0.0": 30.6998234586,
			"0.001": 36.0041799582,
			"0.002": 49.4460174703,
			"0.003": 31.4504415987,
			"0.004": 17.4261687742,
			"0.005": 5.70023513418,
			"0.006": 4.29700435867,
			"0.007": 5.57179033523,
			"0.008": 4.72676113897,
			"0.009": 3.77797411977,
			"0.01": 4.13536151036,
			"0.011": 4.39916493611,
			"0.012": 3.71631077145,
			"0.013": 3.39265954306,
			"0.014": 1.65890126574,
			"0.015": 0.0547789984789,
			"0.016": 0.0,
			"0.017": 0.0,
			"0.018": 0.0,
			"0.019": 0.0,
			"0.02": 0.0,
			"0.021": 0.0,
			"0.022": 0.0,
			"0.023": 0.0,
			"0.024": 0.0,
			"0.025": 0.0
		}
	}
}
