{
	 "smiles": "OCCNCC1=CC(OCC2=C(Cl)C=CC=C2)=CC=C1", 
	 "Tm": 322.65, 
	 "num_atms": 38, 
	 "gaussian": { 
		 "optdone": 1, 
		 "sigma_profile": "yes", 
		 "theory": "DFT", 
		 "functional": "B3LYP", 
		 "basiset": "6-31G**", 
		 "properties": { 
			 "R2extent": 10231.1224, 
			 "electric_dipole_moment_norm": 4.74231967817, 
			 "electric_quadrupole_moment_norm": 6.99644967251, 
			 "total_energy": -1285.91501472, 
			 "HOMO_LUMO_gap": 0.19195, 
			 "cosmo_polarized_energy": -15.76, 
			 "cosmo_cavitation_energy": 43.7, 
			 "cosmo_dispersion_energy": -30.5, 
			 "cosmo_repulsion_energy": 2.4, 
			 "cosmo_total_nonelectrostatic_energy": 15.6, 
			 "SMD_solvation_energy": 4.62 
		},
		"coords": [
			{
				"x": 1.4609170452,
				"y": -5.5039055299,
				"z": 1.8276265488,
				"element": "O" 
			},
			{
				"x": 0.7859818779,
				"y": -4.4029279317,
				"z": 2.4183413097,
				"element": "C" 
			},
			{
				"x": -0.3303257435,
				"y": -3.8587573817,
				"z": 1.5245789688,
				"element": "C" 
			},
			{
				"x": -1.014669897,
				"y": -2.7505205084,
				"z": 2.182627324,
				"element": "N" 
			},
			{
				"x": -2.1852235901,
				"y": -2.2264583131,
				"z": 1.4663165208,
				"element": "C" 
			},
			{
				"x": -1.9057040968,
				"y": -1.601463486,
				"z": 0.1063092121,
				"element": "C" 
			},
			{
				"x": -1.4222310848,
				"y": -0.2943837393,
				"z": 0.0305892409,
				"element": "C" 
			},
			{
				"x": -1.1086721862,
				"y": 0.2899095835,
				"z": -1.2040674441,
				"element": "C" 
			},
			{
				"x": -0.6533855914,
				"y": 1.5779158733,
				"z": -1.145190321,
				"element": "O" 
			},
			{
				"x": -0.290241333,
				"y": 2.2230512306,
				"z": -2.3671038621,
				"element": "C" 
			},
			{
				"x": 0.2264627129,
				"y": 3.5989576213,
				"z": -2.0363192138,
				"element": "C" 
			},
			{
				"x": 1.5263781001,
				"y": 3.8210825298,
				"z": -1.5576686842,
				"element": "C" 
			},
			{
				"x": 2.6357760749,
				"y": 2.4719132743,
				"z": -1.3369368317,
				"element": "Cl" 
			},
			{
				"x": 1.9848280635,
				"y": 5.1013498247,
				"z": -1.2496695047,
				"element": "C" 
			},
			{
				"x": 1.1336353588,
				"y": 6.1938084778,
				"z": -1.4157228988,
				"element": "C" 
			},
			{
				"x": -0.1650955766,
				"y": 6.002768154,
				"z": -1.88718232,
				"element": "C" 
			},
			{
				"x": -0.6052650813,
				"y": 4.7154248872,
				"z": -2.1904315797,
				"element": "C" 
			},
			{
				"x": -1.2832906329,
				"y": -0.4413124472,
				"z": -2.3857174054,
				"element": "C" 
			},
			{
				"x": -1.7710226931,
				"y": -1.7490974076,
				"z": -2.308835978,
				"element": "C" 
			},
			{
				"x": -2.0809191492,
				"y": -2.329341935,
				"z": -1.0813110074,
				"element": "C" 
			},
			{
				"x": 1.8759713212,
				"y": -5.190657652,
				"z": 1.0134414522,
				"element": "H" 
			},
			{
				"x": 0.3594874937,
				"y": -4.7672894231,
				"z": 3.3568653819,
				"element": "H" 
			},
			{
				"x": 1.4880191644,
				"y": -3.5903055899,
				"z": 2.6746683516,
				"element": "H" 
			},
			{
				"x": 0.0940765239,
				"y": -3.5980674417,
				"z": 0.5356982234,
				"element": "H" 
			},
			{
				"x": -1.0577377769,
				"y": -4.6607924706,
				"z": 1.3484094504,
				"element": "H" 
			},
			{
				"x": -0.3550718982,
				"y": -1.9893566769,
				"z": 2.3331457879,
				"element": "H" 
			},
			{
				"x": -2.6580182997,
				"y": -1.4822542091,
				"z": 2.1178259917,
				"element": "H" 
			},
			{
				"x": -2.8993549335,
				"y": -3.0505854252,
				"z": 1.3521411614,
				"element": "H" 
			},
			{
				"x": -1.2846718928,
				"y": 0.304432627,
				"z": 0.927283491,
				"element": "H" 
			},
			{
				"x": 0.4757442278,
				"y": 1.6351749749,
				"z": -2.8875094794,
				"element": "H" 
			},
			{
				"x": -1.1662844179,
				"y": 2.304831267,
				"z": -3.0240678821,
				"element": "H" 
			},
			{
				"x": 2.9972466659,
				"y": 5.2343618572,
				"z": -0.8849228143,
				"element": "H" 
			},
			{
				"x": 1.4907380052,
				"y": 7.1909469266,
				"z": -1.17628788,
				"element": "H" 
			},
			{
				"x": -0.831566891,
				"y": 6.8496159795,
				"z": -2.0175570399,
				"element": "H" 
			},
			{
				"x": -1.6173184876,
				"y": 4.5614860585,
				"z": -2.5550755542,
				"element": "H" 
			},
			{
				"x": -1.0533459113,
				"y": -0.0110709602,
				"z": -3.3530657158,
				"element": "H" 
			},
			{
				"x": -1.9107984911,
				"y": -2.3147135385,
				"z": -3.2260367702,
				"element": "H" 
			},
			{
				"x": -2.4665469794,
				"y": -3.3443690799,
				"z": -1.0397882298,
				"element": "H" 
			}
		],
		 "valence_orbital": [ 
			{
				"type": "occ",
				"energy": -0.26224,
				"method": "rhf"
			},
			{
				"type": "occ",
				"energy": -0.2526,
				"method": "rhf"
			},
			{
				"type": "occ",
				"energy": -0.24892,
				"method": "rhf"
			},
			{
				"type": "occ",
				"energy": -0.22,
				"method": "rhf"
			},
			{
				"type": "occ",
				"energy": -0.21782,
				"method": "rhf"
			},
			{
				"type": "unocc",
				"energy": -0.02587,
				"method": "rhf"
			},
			{
				"type": "unocc",
				"energy": -0.01915,
				"method": "rhf"
			},
			{
				"type": "unocc",
				"energy": -0.00441,
				"method": "rhf"
			},
			{
				"type": "unocc",
				"energy": 0.01167,
				"method": "rhf"
			},
			{
				"type": "unocc",
				"energy": 0.02614,
				"method": "rhf"
			}
		],
		"cosmo_sigma_profile": { 
			"-0.025": 0.0,
			"-0.024": 0.0,
			"-0.023": 0.0,
			"-0.022": 0.0,
			"-0.021": 0.0,
			"-0.02": 0.0,
			"-0.019": 0.0,
			"-0.018": 0.0,
			"-0.017": 0.0,
			"-0.016": 0.0,
			"-0.015": 0.736039404171,
			"-0.014": 0.929507707808,
			"-0.013": 1.21987065309,
			"-0.012": 0.780664474656,
			"-0.011": 0.816579572552,
			"-0.01": 1.28788601331,
			"-0.009": 2.33134159792,
			"-0.008": 2.63240678099,
			"-0.007": 10.1792273093,
			"-0.006": 20.2304436165,
			"-0.005": 24.5289422691,
			"-0.004": 29.6143919377,
			"-0.003": 26.9600337068,
			"-0.002": 23.2747344894,
			"-0.001": 24.4138256968,
			"0.0": 22.7995662257,
			"0.001": 20.6386071257,
			"0.002": 23.9492735625,
			"0.003": 26.2840846173,
			"0.004": 27.9094180616,
			"0.005": 17.2543338578,
			"0.006": 11.5130285787,
			"0.007": 5.3612580777,
			"0.008": 4.10762515433,
			"0.009": 3.43644831356,
			"0.01": 2.86604845436,
			"0.011": 1.82969678414,
			"0.012": 1.41350446322,
			"0.013": 2.44081669091,
			"0.014": 2.89827255922,
			"0.015": 1.66534969317,
			"0.016": 0.521135785613,
			"0.017": 0.469776322724,
			"0.018": 0.0471165416631,
			"0.019": 0.0,
			"0.02": 0.0,
			"0.021": 0.0,
			"0.022": 0.0,
			"0.023": 0.0,
			"0.024": 0.0,
			"0.025": 0.0
		}
	}
}
