{
	 "smiles": "NC(=O)C1=C(C=CC=C1)N1CCCCC1", 
	 "Tm": 389.15, 
	 "num_atms": 31, 
	 "gaussian": { 
		 "optdone": 1, 
		 "sigma_profile": "yes", 
		 "theory": "DFT", 
		 "functional": "B3LYP", 
		 "basiset": "6-31G**", 
		 "properties": { 
			 "R2extent": 3974.1476, 
			 "electric_dipole_moment_norm": 2.52142166644, 
			 "electric_quadrupole_moment_norm": 17.8187502, 
			 "total_energy": -651.663842928, 
			 "HOMO_LUMO_gap": 0.17192, 
			 "cosmo_polarized_energy": -12.89, 
			 "cosmo_cavitation_energy": 31.86, 
			 "cosmo_dispersion_energy": -23.1, 
			 "cosmo_repulsion_energy": 1.82, 
			 "cosmo_total_nonelectrostatic_energy": 10.58, 
			 "SMD_solvation_energy": 4.77 
		},
		"coords": [
			{
				"x": 3.849211663,
				"y": 0.2819011067,
				"z": 1.5954551458,
				"element": "N" 
			},
			{
				"x": 2.6327324024,
				"y": 0.9113475743,
				"z": 1.7054478125,
				"element": "C" 
			},
			{
				"x": 2.5339738812,
				"y": 2.1312787894,
				"z": 1.630690566,
				"element": "O" 
			},
			{
				"x": 1.4692791443,
				"y": 0.0086391784,
				"z": 2.0040359841,
				"element": "C" 
			},
			{
				"x": 0.1833765849,
				"y": 0.2175455152,
				"z": 1.4424476428,
				"element": "C" 
			},
			{
				"x": -0.8914494702,
				"y": -0.529196108,
				"z": 1.9741841819,
				"element": "C" 
			},
			{
				"x": -0.7111607879,
				"y": -1.451276564,
				"z": 2.9957262798,
				"element": "C" 
			},
			{
				"x": 0.565929587,
				"y": -1.6886318152,
				"z": 3.5140219488,
				"element": "C" 
			},
			{
				"x": 1.6372757559,
				"y": -0.9616326844,
				"z": 3.0100501309,
				"element": "C" 
			},
			{
				"x": -0.0841047777,
				"y": 1.0577820642,
				"z": 0.3518846342,
				"element": "N" 
			},
			{
				"x": 0.9074144857,
				"y": 1.3403701521,
				"z": -0.6829705137,
				"element": "C" 
			},
			{
				"x": 0.2087869054,
				"y": 1.5109778255,
				"z": -2.0398183549,
				"element": "C" 
			},
			{
				"x": -0.8574854876,
				"y": 2.6131902088,
				"z": -1.9715004423,
				"element": "C" 
			},
			{
				"x": -1.8432601514,
				"y": 2.3386655289,
				"z": -0.8267767734,
				"element": "C" 
			},
			{
				"x": -1.0948338606,
				"y": 2.111127858,
				"z": 0.4913758728,
				"element": "C" 
			},
			{
				"x": 3.9122180831,
				"y": -0.7100039152,
				"z": 1.4321944071,
				"element": "H" 
			},
			{
				"x": 4.646462205,
				"y": 0.8603786577,
				"z": 1.3759066763,
				"element": "H" 
			},
			{
				"x": -1.8746650357,
				"y": -0.4029569457,
				"z": 1.5314429212,
				"element": "H" 
			},
			{
				"x": -1.5655847709,
				"y": -2.009394653,
				"z": 3.3689040926,
				"element": "H" 
			},
			{
				"x": 0.7184599249,
				"y": -2.4159002219,
				"z": 4.305260287,
				"element": "H" 
			},
			{
				"x": 2.6253871239,
				"y": -1.0945698412,
				"z": 3.4412937944,
				"element": "H" 
			},
			{
				"x": 1.6114929501,
				"y": 0.5036333846,
				"z": -0.7257901974,
				"element": "H" 
			},
			{
				"x": 1.4889695354,
				"y": 2.2432690285,
				"z": -0.4454319329,
				"element": "H" 
			},
			{
				"x": -0.2587228695,
				"y": 0.5602958307,
				"z": -2.3263722817,
				"element": "H" 
			},
			{
				"x": 0.9598529847,
				"y": 1.7497962124,
				"z": -2.8026990899,
				"element": "H" 
			},
			{
				"x": -0.3642479676,
				"y": 3.5800839944,
				"z": -1.7979365594,
				"element": "H" 
			},
			{
				"x": -1.3890537591,
				"y": 2.6975668315,
				"z": -2.9264247321,
				"element": "H" 
			},
			{
				"x": -2.5427978599,
				"y": 3.1751302368,
				"z": -0.7089425345,
				"element": "H" 
			},
			{
				"x": -2.4373719652,
				"y": 1.4449608458,
				"z": -1.057806925,
				"element": "H" 
			},
			{
				"x": -0.6024925795,
				"y": 3.0492912189,
				"z": 0.8040424499,
				"element": "H" 
			},
			{
				"x": -1.7892918743,
				"y": 1.8364307061,
				"z": 1.2880055091,
				"element": "H" 
			}
		],
		 "valence_orbital": [ 
			{
				"type": "occ",
				"energy": -0.2669,
				"method": "rhf"
			},
			{
				"type": "occ",
				"energy": -0.26326,
				"method": "rhf"
			},
			{
				"type": "occ",
				"energy": -0.2522,
				"method": "rhf"
			},
			{
				"type": "occ",
				"energy": -0.23888,
				"method": "rhf"
			},
			{
				"type": "occ",
				"energy": -0.18962,
				"method": "rhf"
			},
			{
				"type": "unocc",
				"energy": -0.0177,
				"method": "rhf"
			},
			{
				"type": "unocc",
				"energy": 0.00261,
				"method": "rhf"
			},
			{
				"type": "unocc",
				"energy": 0.05196,
				"method": "rhf"
			},
			{
				"type": "unocc",
				"energy": 0.0835,
				"method": "rhf"
			},
			{
				"type": "unocc",
				"energy": 0.09477,
				"method": "rhf"
			}
		],
		"cosmo_sigma_profile": { 
			"-0.025": 0.0,
			"-0.024": 0.0,
			"-0.023": 0.0,
			"-0.022": 0.0,
			"-0.021": 0.0,
			"-0.02": 0.0,
			"-0.019": 0.0,
			"-0.018": 0.0,
			"-0.017": 0.0,
			"-0.016": 0.0,
			"-0.015": 0.0,
			"-0.014": 0.820674014863,
			"-0.013": 2.30915137326,
			"-0.012": 1.65356857185,
			"-0.011": 2.25711014704,
			"-0.01": 3.05777304412,
			"-0.009": 2.49368790899,
			"-0.008": 1.31984449254,
			"-0.007": 1.68727120305,
			"-0.006": 4.76143985822,
			"-0.005": 10.8102577178,
			"-0.004": 13.4734105936,
			"-0.003": 19.279353249,
			"-0.002": 30.6808618731,
			"-0.001": 35.9417128723,
			"0.0": 26.5357226747,
			"0.001": 19.8938356521,
			"0.002": 10.8611927184,
			"0.003": 9.01333087795,
			"0.004": 10.3758539743,
			"0.005": 12.0238127777,
			"0.006": 9.63264389457,
			"0.007": 2.77464341813,
			"0.008": 2.16128706312,
			"0.009": 2.25287674587,
			"0.01": 1.93736246381,
			"0.011": 1.3124496472,
			"0.012": 2.20192465415,
			"0.013": 2.43680519975,
			"0.014": 4.41830770445,
			"0.015": 0.9727805432,
			"0.016": 0.0,
			"0.017": 0.0,
			"0.018": 0.0,
			"0.019": 0.0,
			"0.02": 0.0,
			"0.021": 0.0,
			"0.022": 0.0,
			"0.023": 0.0,
			"0.024": 0.0,
			"0.025": 0.0
		}
	}
}
