{
	 "smiles": "CC1(C)C2CCC1(C)C(=O)C2=C/N(OC(=O)C1=CC=C(C=C1)[N+]([O-])=O)C1=CC=CC=C1", 
	 "Tm": 453.15, 
	 "num_atms": 55, 
	 "gaussian": { 
		 "optdone": 1, 
		 "sigma_profile": "yes", 
		 "theory": "DFT", 
		 "functional": "B3LYP", 
		 "basiset": "6-31G**", 
		 "properties": { 
			 "R2extent": 19443.9266, 
			 "electric_dipole_moment_norm": 3.88020720065, 
			 "electric_quadrupole_moment_norm": 37.1335335545, 
			 "total_energy": -1414.47841177, 
			 "HOMO_LUMO_gap": 0.11237, 
			 "cosmo_polarized_energy": -19.59, 
			 "cosmo_cavitation_energy": 57.82, 
			 "cosmo_dispersion_energy": -38.1, 
			 "cosmo_repulsion_energy": 2.85, 
			 "cosmo_total_nonelectrostatic_energy": 22.56, 
			 "SMD_solvation_energy": 13.28 
		},
		"coords": [
			{
				"x": 2.3324022436,
				"y": 3.1683228438,
				"z": 0.9118596801,
				"element": "C" 
			},
			{
				"x": 1.5432373954,
				"y": 2.7268043843,
				"z": 2.1573210696,
				"element": "C" 
			},
			{
				"x": 2.3925655342,
				"y": 3.0695827877,
				"z": 3.3922430043,
				"element": "C" 
			},
			{
				"x": 1.0732375872,
				"y": 1.2322694877,
				"z": 2.1021227512,
				"element": "C" 
			},
			{
				"x": 0.178267618,
				"y": 1.1112388612,
				"z": 3.3683882864,
				"element": "C" 
			},
			{
				"x": -0.5367527939,
				"y": 2.4959768171,
				"z": 3.4102900659,
				"element": "C" 
			},
			{
				"x": 0.0737719292,
				"y": 3.2826252131,
				"z": 2.2001691036,
				"element": "C" 
			},
			{
				"x": -0.1619387503,
				"y": 4.782121218,
				"z": 2.2239570442,
				"element": "C" 
			},
			{
				"x": -0.5422872089,
				"y": 2.5752025032,
				"z": 0.9738424068,
				"element": "C" 
			},
			{
				"x": -1.4435587583,
				"y": 3.0076898957,
				"z": 0.274315995,
				"element": "O" 
			},
			{
				"x": 0.1314918815,
				"y": 1.2528705638,
				"z": 0.9071840025,
				"element": "C" 
			},
			{
				"x": -0.0770557701,
				"y": 0.2186936123,
				"z": 0.065712966,
				"element": "C" 
			},
			{
				"x": -0.9450860835,
				"y": 0.1623817977,
				"z": -1.0223599857,
				"element": "N" 
			},
			{
				"x": -0.7798977056,
				"y": -1.137007118,
				"z": -1.6532748638,
				"element": "O" 
			},
			{
				"x": -1.9477860437,
				"y": -1.8475264808,
				"z": -1.7525837167,
				"element": "C" 
			},
			{
				"x": -3.0301628527,
				"y": -1.4580880938,
				"z": -1.3886801017,
				"element": "O" 
			},
			{
				"x": -1.696894545,
				"y": -3.1792599299,
				"z": -2.3892766986,
				"element": "C" 
			},
			{
				"x": -0.4334236499,
				"y": -3.5744800866,
				"z": -2.8533500739,
				"element": "C" 
			},
			{
				"x": -0.2662388512,
				"y": -4.8270462016,
				"z": -3.436626555,
				"element": "C" 
			},
			{
				"x": -1.3726265579,
				"y": -5.6669794824,
				"z": -3.5443692243,
				"element": "C" 
			},
			{
				"x": -2.6381190585,
				"y": -5.2973628055,
				"z": -3.0919246895,
				"element": "C" 
			},
			{
				"x": -2.7945393481,
				"y": -4.0431497019,
				"z": -2.5126307562,
				"element": "C" 
			},
			{
				"x": -1.1976026418,
				"y": -6.9964188103,
				"z": -4.1611122881,
				"element": "N" 
			},
			{
				"x": -2.1892891634,
				"y": -7.7181768596,
				"z": -4.2452447987,
				"element": "O" 
			},
			{
				"x": -0.0710470645,
				"y": -7.2978019889,
				"z": -4.5512066963,
				"element": "O" 
			},
			{
				"x": -1.00279482,
				"y": 1.1779194652,
				"z": -2.0409140311,
				"element": "C" 
			},
			{
				"x": 0.1665803224,
				"y": 1.7302019265,
				"z": -2.571936028,
				"element": "C" 
			},
			{
				"x": 0.0753382643,
				"y": 2.6871282276,
				"z": -3.5819228365,
				"element": "C" 
			},
			{
				"x": -1.1760368514,
				"y": 3.0777118969,
				"z": -4.0644730374,
				"element": "C" 
			},
			{
				"x": -2.3386970738,
				"y": 2.5143252166,
				"z": -3.5332845439,
				"element": "C" 
			},
			{
				"x": -2.2566077717,
				"y": 1.5640294175,
				"z": -2.5169541209,
				"element": "C" 
			},
			{
				"x": 3.2860485728,
				"y": 2.6307648223,
				"z": 0.8540568427,
				"element": "H" 
			},
			{
				"x": 2.5640241841,
				"y": 4.2376377351,
				"z": 0.9612183543,
				"element": "H" 
			},
			{
				"x": 1.7935606424,
				"y": 2.9898219364,
				"z": -0.0222283136,
				"element": "H" 
			},
			{
				"x": 3.3439870333,
				"y": 2.5259107876,
				"z": 3.3583054886,
				"element": "H" 
			},
			{
				"x": 2.6301715742,
				"y": 4.1387474002,
				"z": 3.4069155003,
				"element": "H" 
			},
			{
				"x": 1.9097194535,
				"y": 2.8286986638,
				"z": 4.341073335,
				"element": "H" 
			},
			{
				"x": 1.8735805586,
				"y": 0.4887002341,
				"z": 2.0394854376,
				"element": "H" 
			},
			{
				"x": 0.7784760422,
				"y": 0.9376281014,
				"z": 4.2667324688,
				"element": "H" 
			},
			{
				"x": -0.5236415358,
				"y": 0.2779315142,
				"z": 3.2799019255,
				"element": "H" 
			},
			{
				"x": -1.6241757236,
				"y": 2.4158528531,
				"z": 3.3199747938,
				"element": "H" 
			},
			{
				"x": -0.3335687357,
				"y": 3.0318819699,
				"z": 4.34287959,
				"element": "H" 
			},
			{
				"x": 0.3309914886,
				"y": 5.2786564988,
				"z": 1.3820747697,
				"element": "H" 
			},
			{
				"x": 0.207872619,
				"y": 5.2300695858,
				"z": 3.1522285184,
				"element": "H" 
			},
			{
				"x": -1.2318484229,
				"y": 4.9949589393,
				"z": 2.1399374353,
				"element": "H" 
			},
			{
				"x": 0.4283183412,
				"y": -0.7272921251,
				"z": 0.2444859717,
				"element": "H" 
			},
			{
				"x": 0.410761365,
				"y": -2.9022742926,
				"z": -2.761190144,
				"element": "H" 
			},
			{
				"x": 0.694763287,
				"y": -5.16138167,
				"z": -3.8062531245,
				"element": "H" 
			},
			{
				"x": -3.4663833216,
				"y": -5.9860843506,
				"z": -3.1997214083,
				"element": "H" 
			},
			{
				"x": -3.7607967977,
				"y": -3.7125672662,
				"z": -2.1487200815,
				"element": "H" 
			},
			{
				"x": 1.1332621214,
				"y": 1.4130861433,
				"z": -2.1931714565,
				"element": "H" 
			},
			{
				"x": 0.9800457397,
				"y": 3.1226204722,
				"z": -3.9959644262,
				"element": "H" 
			},
			{
				"x": -1.2443429397,
				"y": 3.8226522204,
				"z": -4.8519330654,
				"element": "H" 
			},
			{
				"x": -3.3115761338,
				"y": 2.8238220444,
				"z": -3.9030609782,
				"element": "H" 
			},
			{
				"x": -3.1413988238,
				"y": 1.1209592057,
				"z": -2.075308763,
				"element": "H" 
			}
		],
		 "valence_orbital": [ 
			{
				"type": "occ",
				"energy": -0.28989,
				"method": "rhf"
			},
			{
				"type": "occ",
				"energy": -0.26195,
				"method": "rhf"
			},
			{
				"type": "occ",
				"energy": -0.25722,
				"method": "rhf"
			},
			{
				"type": "occ",
				"energy": -0.22567,
				"method": "rhf"
			},
			{
				"type": "occ",
				"energy": -0.21978,
				"method": "rhf"
			},
			{
				"type": "unocc",
				"energy": -0.10741,
				"method": "rhf"
			},
			{
				"type": "unocc",
				"energy": -0.04596,
				"method": "rhf"
			},
			{
				"type": "unocc",
				"energy": -0.04284,
				"method": "rhf"
			},
			{
				"type": "unocc",
				"energy": -0.03849,
				"method": "rhf"
			},
			{
				"type": "unocc",
				"energy": -0.02452,
				"method": "rhf"
			}
		],
		"cosmo_sigma_profile": { 
			"-0.025": 0.0,
			"-0.024": 0.0,
			"-0.023": 0.0,
			"-0.022": 0.0,
			"-0.021": 0.0,
			"-0.02": 0.0,
			"-0.019": 0.0,
			"-0.018": 0.0,
			"-0.017": 0.0,
			"-0.016": 0.0,
			"-0.015": 0.0,
			"-0.014": 0.0,
			"-0.013": 0.0,
			"-0.012": 0.0,
			"-0.011": 0.0,
			"-0.01": 0.0,
			"-0.009": 0.402657696307,
			"-0.008": 5.7647383488,
			"-0.007": 10.935026052,
			"-0.006": 17.1369530495,
			"-0.005": 22.2430596695,
			"-0.004": 28.5463496153,
			"-0.003": 40.6248439378,
			"-0.002": 57.9906882253,
			"-0.001": 60.4343598289,
			"0.0": 53.3562154697,
			"0.001": 41.2784248831,
			"0.002": 19.2636257196,
			"0.003": 15.5115717037,
			"0.004": 12.8383185492,
			"0.005": 10.0966059649,
			"0.006": 8.55629695084,
			"0.007": 13.9440601855,
			"0.008": 11.9285936033,
			"0.009": 8.08732658447,
			"0.01": 8.06958022018,
			"0.011": 4.96898368428,
			"0.012": 3.26983967174,
			"0.013": 2.1283648512,
			"0.014": 0.622224964834,
			"0.015": 0.0,
			"0.016": 0.0,
			"0.017": 0.0,
			"0.018": 0.0,
			"0.019": 0.0,
			"0.02": 0.0,
			"0.021": 0.0,
			"0.022": 0.0,
			"0.023": 0.0,
			"0.024": 0.0,
			"0.025": 0.0
		}
	}
}
