{
	 "smiles": "BrC1=C(Br)C=C2C=C(C=CC2=C1)C#N", 
	 "Tm": 412.15, 
	 "num_atms": 19, 
	 "gaussian": { 
		 "optdone": 1, 
		 "sigma_profile": "yes", 
		 "theory": "DFT", 
		 "functional": "B3LYP", 
		 "basiset": "6-31G**", 
		 "properties": { 
			 "R2extent": 9492.6855, 
			 "electric_dipole_moment_norm": 2.85908454055, 
			 "electric_quadrupole_moment_norm": 18.5832956125, 
			 "total_energy": -5619.73237496, 
			 "HOMO_LUMO_gap": 0.16196, 
			 "cosmo_polarized_energy": -10.25, 
			 "cosmo_cavitation_energy": 29.44, 
			 "cosmo_dispersion_energy": -21.86, 
			 "cosmo_repulsion_energy": 1.69, 
			 "cosmo_total_nonelectrostatic_energy": 9.26, 
			 "SMD_solvation_energy": 3.96 
		},
		"coords": [
			{
				"x": 1.6689246456,
				"y": -1.4167786924,
				"z": 4.4063378449,
				"element": "Br" 
			},
			{
				"x": 1.2784981092,
				"y": -0.1895616738,
				"z": 3.010793219,
				"element": "C" 
			},
			{
				"x": 1.9178460515,
				"y": 1.0796992259,
				"z": 2.9357341103,
				"element": "C" 
			},
			{
				"x": 3.2005247567,
				"y": 1.6252070246,
				"z": 4.226203604,
				"element": "Br" 
			},
			{
				"x": 1.6100440533,
				"y": 1.9439825352,
				"z": 1.909543327,
				"element": "C" 
			},
			{
				"x": 0.6603204724,
				"y": 1.5933087234,
				"z": 0.9160384698,
				"element": "C" 
			},
			{
				"x": 0.3329740137,
				"y": 2.4717105779,
				"z": -0.1459920861,
				"element": "C" 
			},
			{
				"x": -0.59928465,
				"y": 2.0989095894,
				"z": -1.1005131752,
				"element": "C" 
			},
			{
				"x": -1.2402963216,
				"y": 0.8266234173,
				"z": -1.0251439798,
				"element": "C" 
			},
			{
				"x": -0.9350359452,
				"y": -0.0368769971,
				"z": -0.0028811821,
				"element": "C" 
			},
			{
				"x": 0.0175551388,
				"y": 0.3173650287,
				"z": 0.9916266192,
				"element": "C" 
			},
			{
				"x": 0.3525414434,
				"y": -0.5529581311,
				"z": 2.0577124378,
				"element": "C" 
			},
			{
				"x": -0.9261199093,
				"y": 2.9927138835,
				"z": -2.1730486377,
				"element": "C" 
			},
			{
				"x": -1.1964550744,
				"y": 3.7124122994,
				"z": -3.0461083939,
				"element": "N" 
			},
			{
				"x": 2.1013657526,
				"y": 2.9094519815,
				"z": 1.8590133181,
				"element": "H" 
			},
			{
				"x": 0.8172441412,
				"y": 3.4409570062,
				"z": -0.2086878524,
				"element": "H" 
			},
			{
				"x": -1.966849573,
				"y": 0.5561243538,
				"z": -1.7834323501,
				"element": "H" 
			},
			{
				"x": -1.4217568002,
				"y": -1.0059433253,
				"z": 0.0564871739,
				"element": "H" 
			},
			{
				"x": -0.1286403046,
				"y": -1.5225468272,
				"z": 2.1245175333,
				"element": "H" 
			}
		],
		 "valence_orbital": [ 
			{
				"type": "occ",
				"energy": -0.31035,
				"method": "rhf"
			},
			{
				"type": "occ",
				"energy": -0.30258,
				"method": "rhf"
			},
			{
				"type": "occ",
				"energy": -0.2887,
				"method": "rhf"
			},
			{
				"type": "occ",
				"energy": -0.25942,
				"method": "rhf"
			},
			{
				"type": "occ",
				"energy": -0.2454,
				"method": "rhf"
			},
			{
				"type": "unocc",
				"energy": -0.08344,
				"method": "rhf"
			},
			{
				"type": "unocc",
				"energy": -0.05674,
				"method": "rhf"
			},
			{
				"type": "unocc",
				"energy": -0.03313,
				"method": "rhf"
			},
			{
				"type": "unocc",
				"energy": -0.00835,
				"method": "rhf"
			},
			{
				"type": "unocc",
				"energy": 0.02276,
				"method": "rhf"
			}
		],
		"cosmo_sigma_profile": { 
			"-0.025": 0.0,
			"-0.024": 0.0,
			"-0.023": 0.0,
			"-0.022": 0.0,
			"-0.021": 0.0,
			"-0.02": 0.0,
			"-0.019": 0.0,
			"-0.018": 0.0,
			"-0.017": 0.0,
			"-0.016": 0.0,
			"-0.015": 0.0,
			"-0.014": 0.0,
			"-0.013": 0.0,
			"-0.012": 0.0,
			"-0.011": 0.0,
			"-0.01": 0.443104600476,
			"-0.009": 4.69451935,
			"-0.008": 9.85023292937,
			"-0.007": 9.22113347403,
			"-0.006": 8.89243688793,
			"-0.005": 9.89933864524,
			"-0.004": 10.5318549899,
			"-0.003": 10.3807225762,
			"-0.002": 15.2587821757,
			"-0.001": 20.6561939039,
			"0.0": 35.9753589331,
			"0.001": 30.376734318,
			"0.002": 15.8912578637,
			"0.003": 18.7156634538,
			"0.004": 16.8433664237,
			"0.005": 6.76850160856,
			"0.006": 1.73723632929,
			"0.007": 3.25688107477,
			"0.008": 3.22866925382,
			"0.009": 3.47740403722,
			"0.01": 3.09936950905,
			"0.011": 2.68984644829,
			"0.012": 2.36467349331,
			"0.013": 1.21742112958,
			"0.014": 0.00768180917473,
			"0.015": 0.0,
			"0.016": 0.0,
			"0.017": 0.0,
			"0.018": 0.0,
			"0.019": 0.0,
			"0.02": 0.0,
			"0.021": 0.0,
			"0.022": 0.0,
			"0.023": 0.0,
			"0.024": 0.0,
			"0.025": 0.0
		}
	}
}
