{
	 "smiles": "CC1=CC2=NC=C(C(O)=O)C(=O)N2C=C1", 
	 "Tm": 515.15, 
	 "num_atms": 23, 
	 "gaussian": { 
		 "optdone": 1, 
		 "sigma_profile": "yes", 
		 "theory": "DFT", 
		 "functional": "B3LYP", 
		 "basiset": "6-31G**", 
		 "properties": { 
			 "R2extent": 3675.0248, 
			 "electric_dipole_moment_norm": 6.06444822057, 
			 "electric_quadrupole_moment_norm": 18.9188422436, 
			 "total_energy": -721.086864636, 
			 "HOMO_LUMO_gap": 0.15236, 
			 "cosmo_polarized_energy": -18.25, 
			 "cosmo_cavitation_energy": 28.0, 
			 "cosmo_dispersion_energy": -20.91, 
			 "cosmo_repulsion_energy": 1.6, 
			 "cosmo_total_nonelectrostatic_energy": 8.68, 
			 "SMD_solvation_energy": 5.56 
		},
		"coords": [
			{
				"x": -0.88183929,
				"y": -5.0752104968,
				"z": -0.3288063297,
				"element": "C" 
			},
			{
				"x": -0.6624392006,
				"y": -3.5988855146,
				"z": -0.5191223755,
				"element": "C" 
			},
			{
				"x": 0.1588808482,
				"y": -2.869388151,
				"z": 0.3075235626,
				"element": "C" 
			},
			{
				"x": 0.3667887806,
				"y": -1.4746023727,
				"z": 0.1284734588,
				"element": "C" 
			},
			{
				"x": 1.1746221002,
				"y": -0.8068107628,
				"z": 0.9574083424,
				"element": "N" 
			},
			{
				"x": 1.3245951676,
				"y": 0.5003128062,
				"z": 0.7317609341,
				"element": "C" 
			},
			{
				"x": 0.7215217793,
				"y": 1.2400684911,
				"z": -0.2841909307,
				"element": "C" 
			},
			{
				"x": 1.0422540271,
				"y": 2.6839249277,
				"z": -0.3331096927,
				"element": "C" 
			},
			{
				"x": 0.4372990394,
				"y": 3.3612841952,
				"z": -1.3311061921,
				"element": "O" 
			},
			{
				"x": 1.7913905265,
				"y": 3.2338244288,
				"z": 0.4575331849,
				"element": "O" 
			},
			{
				"x": -0.1598900853,
				"y": 0.5918651482,
				"z": -1.2142098855,
				"element": "C" 
			},
			{
				"x": -0.7844660305,
				"y": 1.0326968412,
				"z": -2.1618706322,
				"element": "O" 
			},
			{
				"x": -0.2951490119,
				"y": -0.8579914602,
				"z": -0.9240406529,
				"element": "N" 
			},
			{
				"x": -1.1191752504,
				"y": -1.5733107513,
				"z": -1.7587773371,
				"element": "C" 
			},
			{
				"x": -1.3157845368,
				"y": -2.9097275862,
				"z": -1.584031568,
				"element": "C" 
			},
			{
				"x": -1.9436998669,
				"y": -5.2913903983,
				"z": -0.1649120137,
				"element": "H" 
			},
			{
				"x": -0.5763180686,
				"y": -5.6309558971,
				"z": -1.2226518511,
				"element": "H" 
			},
			{
				"x": -0.3179315819,
				"y": -5.4597439491,
				"z": 0.5236026689,
				"element": "H" 
			},
			{
				"x": 0.6896619773,
				"y": -3.3207192958,
				"z": 1.1377996352,
				"element": "H" 
			},
			{
				"x": 1.9832509363,
				"y": 1.0372525182,
				"z": 1.4100746838,
				"element": "H" 
			},
			{
				"x": 0.7421772816,
				"y": 4.2789536699,
				"z": -1.2318725166,
				"element": "H" 
			},
			{
				"x": -1.5733061848,
				"y": -0.9742292755,
				"z": -2.5373288158,
				"element": "H" 
			},
			{
				"x": -1.9737433565,
				"y": -3.4406171149,
				"z": -2.2635456773,
				"element": "H" 
			}
		],
		 "valence_orbital": [ 
			{
				"type": "occ",
				"energy": -0.28494,
				"method": "rhf"
			},
			{
				"type": "occ",
				"energy": -0.28487,
				"method": "rhf"
			},
			{
				"type": "occ",
				"energy": -0.27223,
				"method": "rhf"
			},
			{
				"type": "occ",
				"energy": -0.26499,
				"method": "rhf"
			},
			{
				"type": "occ",
				"energy": -0.22768,
				"method": "rhf"
			},
			{
				"type": "unocc",
				"energy": -0.07532,
				"method": "rhf"
			},
			{
				"type": "unocc",
				"energy": -0.05586,
				"method": "rhf"
			},
			{
				"type": "unocc",
				"energy": 0.00381,
				"method": "rhf"
			},
			{
				"type": "unocc",
				"energy": 0.01815,
				"method": "rhf"
			},
			{
				"type": "unocc",
				"energy": 0.08016,
				"method": "rhf"
			}
		],
		"cosmo_sigma_profile": { 
			"-0.025": 0.0,
			"-0.024": 0.0,
			"-0.023": 0.0,
			"-0.022": 0.0,
			"-0.021": 0.0,
			"-0.02": 0.0,
			"-0.019": 0.0,
			"-0.018": 0.508823198897,
			"-0.017": 0.943280943443,
			"-0.016": 1.22654695016,
			"-0.015": 0.153636295216,
			"-0.014": 0.476152002795,
			"-0.013": 0.914408659124,
			"-0.012": 0.683386478864,
			"-0.011": 1.10130306359,
			"-0.01": 0.616806458145,
			"-0.009": 0.828100901383,
			"-0.008": 5.25645441932,
			"-0.007": 7.95322066255,
			"-0.006": 12.3749380634,
			"-0.005": 17.1027643313,
			"-0.004": 16.8402720447,
			"-0.003": 15.889913412,
			"-0.002": 23.3946000025,
			"-0.001": 24.9306978084,
			"0.0": 19.5192092736,
			"0.001": 9.18356509317,
			"0.002": 5.35438545551,
			"0.003": 4.97518024901,
			"0.004": 4.00171353684,
			"0.005": 5.56064129509,
			"0.006": 4.3624059748,
			"0.007": 3.24944470348,
			"0.008": 4.77615469196,
			"0.009": 4.36115722026,
			"0.01": 4.41868815302,
			"0.011": 6.18253862274,
			"0.012": 9.22985730609,
			"0.013": 3.70652237763,
			"0.014": 2.79730275616,
			"0.015": 1.66249198141,
			"0.016": 0.263329533403,
			"0.017": 0.0,
			"0.018": 0.0,
			"0.019": 0.0,
			"0.02": 0.0,
			"0.021": 0.0,
			"0.022": 0.0,
			"0.023": 0.0,
			"0.024": 0.0,
			"0.025": 0.0
		}
	}
}
