{
	 "smiles": "NC(CC1=NC=CC=C1)=NO", 
	 "Tm": 379.15, 
	 "num_atms": 20, 
	 "gaussian": { 
		 "optdone": 1, 
		 "sigma_profile": "yes", 
		 "theory": "DFT", 
		 "functional": "B3LYP", 
		 "basiset": "6-31G**", 
		 "properties": { 
			 "R2extent": 2176.5895, 
			 "electric_dipole_moment_norm": 2.4463711411, 
			 "electric_quadrupole_moment_norm": 6.82717816378, 
			 "total_energy": -511.590966571, 
			 "HOMO_LUMO_gap": 0.16226, 
			 "cosmo_polarized_energy": -12.21, 
			 "cosmo_cavitation_energy": 24.07, 
			 "cosmo_dispersion_energy": -17.91, 
			 "cosmo_repulsion_energy": 1.47, 
			 "cosmo_total_nonelectrostatic_energy": 7.62, 
			 "SMD_solvation_energy": 3.36 
		},
		"coords": [
			{
				"x": -1.3849614573,
				"y": 1.9348785941,
				"z": -0.0571614171,
				"element": "N" 
			},
			{
				"x": -1.7806356988,
				"y": 0.9099163774,
				"z": 0.7823216781,
				"element": "C" 
			},
			{
				"x": -1.4202277418,
				"y": -0.5137978275,
				"z": 0.3878722719,
				"element": "C" 
			},
			{
				"x": -0.3219795073,
				"y": -0.6698210119,
				"z": -0.6394362556,
				"element": "C" 
			},
			{
				"x": -0.5533881191,
				"y": -0.1678292461,
				"z": -1.8672927656,
				"element": "N" 
			},
			{
				"x": 0.3859689836,
				"y": -0.3260242086,
				"z": -2.8068300877,
				"element": "C" 
			},
			{
				"x": 1.592083028,
				"y": -0.9914923946,
				"z": -2.5891338509,
				"element": "C" 
			},
			{
				"x": 1.8343466484,
				"y": -1.5072856499,
				"z": -1.3170819712,
				"element": "C" 
			},
			{
				"x": 0.8661006129,
				"y": -1.3428469083,
				"z": -0.3286462606,
				"element": "C" 
			},
			{
				"x": -2.4150892321,
				"y": 1.2124623083,
				"z": 1.862442938,
				"element": "N" 
			},
			{
				"x": -2.6728859009,
				"y": 0.0457537848,
				"z": 2.6459739299,
				"element": "O" 
			},
			{
				"x": -1.3515307119,
				"y": 1.677110448,
				"z": -1.037548121,
				"element": "H" 
			},
			{
				"x": -1.8364321621,
				"y": 2.8180747686,
				"z": 0.1417263229,
				"element": "H" 
			},
			{
				"x": -1.172216995,
				"y": -1.0555560867,
				"z": 1.3029444589,
				"element": "H" 
			},
			{
				"x": -2.3339893822,
				"y": -0.9820368106,
				"z": -0.0019349816,
				"element": "H" 
			},
			{
				"x": 0.1599224974,
				"y": 0.0986651054,
				"z": -3.7834156339,
				"element": "H" 
			},
			{
				"x": 2.3150408023,
				"y": -1.0963374433,
				"z": -3.39157425,
				"element": "H" 
			},
			{
				"x": 2.7615210314,
				"y": -2.0288397726,
				"z": -1.0969741079,
				"element": "H" 
			},
			{
				"x": 1.0220986611,
				"y": -1.730454379,
				"z": 0.6731250955,
				"element": "H" 
			},
			{
				"x": -3.0759453567,
				"y": 0.4353603525,
				"z": 3.4311230079,
				"element": "H" 
			}
		],
		 "valence_orbital": [ 
			{
				"type": "occ",
				"energy": -0.29204,
				"method": "rhf"
			},
			{
				"type": "occ",
				"energy": -0.26981,
				"method": "rhf"
			},
			{
				"type": "occ",
				"energy": -0.26455,
				"method": "rhf"
			},
			{
				"type": "occ",
				"energy": -0.24787,
				"method": "rhf"
			},
			{
				"type": "occ",
				"energy": -0.19454,
				"method": "rhf"
			},
			{
				"type": "unocc",
				"energy": -0.03228,
				"method": "rhf"
			},
			{
				"type": "unocc",
				"energy": -0.01514,
				"method": "rhf"
			},
			{
				"type": "unocc",
				"energy": 0.04675,
				"method": "rhf"
			},
			{
				"type": "unocc",
				"energy": 0.08494,
				"method": "rhf"
			},
			{
				"type": "unocc",
				"energy": 0.09268,
				"method": "rhf"
			}
		],
		"cosmo_sigma_profile": { 
			"-0.025": 0.0,
			"-0.024": 0.0,
			"-0.023": 0.0,
			"-0.022": 0.0,
			"-0.021": 0.0,
			"-0.02": 0.0,
			"-0.019": 0.0,
			"-0.018": 0.0,
			"-0.017": 0.0553043035161,
			"-0.016": 0.758356925872,
			"-0.015": 1.15152728529,
			"-0.014": 0.574293602491,
			"-0.013": 0.678005088397,
			"-0.012": 1.4877281005,
			"-0.011": 1.81900177057,
			"-0.01": 1.77233928921,
			"-0.009": 1.9112953391,
			"-0.008": 2.55681500323,
			"-0.007": 8.41931565291,
			"-0.006": 13.7078799243,
			"-0.005": 14.4020759023,
			"-0.004": 12.5166953943,
			"-0.003": 10.0621845252,
			"-0.002": 10.1263399345,
			"-0.001": 11.0502861072,
			"0.0": 10.5717521333,
			"0.001": 11.9234019499,
			"0.002": 15.780246845,
			"0.003": 13.6585786922,
			"0.004": 5.91862726739,
			"0.005": 4.48663177505,
			"0.006": 4.0852640259,
			"0.007": 4.70627521857,
			"0.008": 5.48478010222,
			"0.009": 5.62218887693,
			"0.01": 5.29606455926,
			"0.011": 3.99712956165,
			"0.012": 2.5692239547,
			"0.013": 1.72523647839,
			"0.014": 1.36478901904,
			"0.015": 0.673951935531,
			"0.016": 0.0491679850914,
			"0.017": 0.0,
			"0.018": 0.0,
			"0.019": 0.0,
			"0.02": 0.0,
			"0.021": 0.0,
			"0.022": 0.0,
			"0.023": 0.0,
			"0.024": 0.0,
			"0.025": 0.0
		}
	}
}
