{
	 "smiles": "FC(F)(F)C(F)(F)C(Cl)(Cl)Cl", 
	 "Tm": 193.15, 
	 "num_atms": 11, 
	 "gaussian": { 
		 "optdone": 1, 
		 "sigma_profile": "yes", 
		 "theory": "DFT", 
		 "functional": "B3LYP", 
		 "basiset": "6-31G**", 
		 "properties": { 
			 "R2extent": 2707.0562, 
			 "electric_dipole_moment_norm": 0.355082004613, 
			 "electric_quadrupole_moment_norm": 0.42285093118, 
			 "total_energy": -1994.05887894, 
			 "HOMO_LUMO_gap": 0.26663, 
			 "cosmo_polarized_energy": -1.33, 
			 "cosmo_cavitation_energy": 22.27, 
			 "cosmo_dispersion_energy": -16.02, 
			 "cosmo_repulsion_energy": 1.19, 
			 "cosmo_total_nonelectrostatic_energy": 7.44, 
			 "SMD_solvation_energy": 4.76 
		},
		"coords": [
			{
				"x": -1.5990787895,
				"y": 1.3033428493,
				"z": 0.8088378963,
				"element": "F" 
			},
			{
				"x": -1.0741747815,
				"y": 0.5818130579,
				"z": -0.1863564906,
				"element": "C" 
			},
			{
				"x": -1.6745434872,
				"y": -0.6156114444,
				"z": -0.2061456043,
				"element": "F" 
			},
			{
				"x": -1.3166151683,
				"y": 1.1973849417,
				"z": -1.3477587529,
				"element": "F" 
			},
			{
				"x": 0.4503956992,
				"y": 0.3276669698,
				"z": 0.025925873,
				"element": "C" 
			},
			{
				"x": 0.5608065407,
				"y": -0.356861216,
				"z": 1.1854390903,
				"element": "F" 
			},
			{
				"x": 0.8458635227,
				"y": -0.4665741849,
				"z": -0.9929156281,
				"element": "F" 
			},
			{
				"x": 1.4309652522,
				"y": 1.5530536766,
				"z": 0.0924740498,
				"element": "C" 
			},
			{
				"x": 1.008837702,
				"y": 2.6187517295,
				"z": 1.4643028552,
				"element": "Cl" 
			},
			{
				"x": 3.0826534279,
				"y": 0.8908372448,
				"z": 0.3426972436,
				"element": "Cl" 
			},
			{
				"x": 1.3898900817,
				"y": 2.4715963758,
				"z": -1.4406005323,
				"element": "Cl" 
			}
		],
		 "valence_orbital": [ 
			{
				"type": "occ",
				"energy": -0.37064,
				"method": "rhf"
			},
			{
				"type": "occ",
				"energy": -0.34711,
				"method": "rhf"
			},
			{
				"type": "occ",
				"energy": -0.34006,
				"method": "rhf"
			},
			{
				"type": "occ",
				"energy": -0.33797,
				"method": "rhf"
			},
			{
				"type": "occ",
				"energy": -0.32485,
				"method": "rhf"
			},
			{
				"type": "unocc",
				"energy": -0.05822,
				"method": "rhf"
			},
			{
				"type": "unocc",
				"energy": -0.02927,
				"method": "rhf"
			},
			{
				"type": "unocc",
				"energy": -0.02406,
				"method": "rhf"
			},
			{
				"type": "unocc",
				"energy": 0.08071,
				"method": "rhf"
			},
			{
				"type": "unocc",
				"energy": 0.08226,
				"method": "rhf"
			}
		],
		"cosmo_sigma_profile": { 
			"-0.025": 0.0,
			"-0.024": 0.0,
			"-0.023": 0.0,
			"-0.022": 0.0,
			"-0.021": 0.0,
			"-0.02": 0.0,
			"-0.019": 0.0,
			"-0.018": 0.0,
			"-0.017": 0.0,
			"-0.016": 0.0,
			"-0.015": 0.0,
			"-0.014": 0.0,
			"-0.013": 0.0,
			"-0.012": 0.0,
			"-0.011": 0.0,
			"-0.01": 0.0,
			"-0.009": 0.0212818098597,
			"-0.008": 0.165616574507,
			"-0.007": 0.348965241542,
			"-0.006": 1.19145838977,
			"-0.005": 4.53573377469,
			"-0.004": 5.97905134889,
			"-0.003": 8.02639001258,
			"-0.002": 11.6149982094,
			"-0.001": 19.508893321,
			"0.0": 34.3784826937,
			"0.001": 71.6446159789,
			"0.002": 27.8047601996,
			"0.003": 0.0648201945515,
			"0.004": 0.0,
			"0.005": 0.0,
			"0.006": 0.0,
			"0.007": 0.0,
			"0.008": 0.0,
			"0.009": 0.0,
			"0.01": 0.0,
			"0.011": 0.0,
			"0.012": 0.0,
			"0.013": 0.0,
			"0.014": 0.0,
			"0.015": 0.0,
			"0.016": 0.0,
			"0.017": 0.0,
			"0.018": 0.0,
			"0.019": 0.0,
			"0.02": 0.0,
			"0.021": 0.0,
			"0.022": 0.0,
			"0.023": 0.0,
			"0.024": 0.0,
			"0.025": 0.0
		}
	}
}
