{
	 "smiles": "NC1=CC=CC(OC2=NC=CC=C2)=C1", 
	 "Tm": 350.15, 
	 "num_atms": 24, 
	 "gaussian": { 
		 "optdone": 1, 
		 "sigma_profile": "yes", 
		 "theory": "DFT", 
		 "functional": "B3LYP", 
		 "basiset": "6-31G**", 
		 "properties": { 
			 "R2extent": 3274.1737, 
			 "electric_dipole_moment_norm": 1.85013139804, 
			 "electric_quadrupole_moment_norm": 15.5181916914, 
			 "total_energy": -609.917224691, 
			 "HOMO_LUMO_gap": 0.17814, 
			 "cosmo_polarized_energy": -12.81, 
			 "cosmo_cavitation_energy": 28.65, 
			 "cosmo_dispersion_energy": -21.02, 
			 "cosmo_repulsion_energy": 1.67, 
			 "cosmo_total_nonelectrostatic_energy": 9.31, 
			 "SMD_solvation_energy": 4.27 
		},
		"coords": [
			{
				"x": 0.029363366,
				"y": 4.1333438441,
				"z": -0.1609192313,
				"element": "N" 
			},
			{
				"x": -0.727248961,
				"y": 2.9587591096,
				"z": -0.1616638091,
				"element": "C" 
			},
			{
				"x": -2.0636541546,
				"y": 2.9691669105,
				"z": -0.6014503122,
				"element": "C" 
			},
			{
				"x": -2.7937204434,
				"y": 1.7853109874,
				"z": -0.6499860997,
				"element": "C" 
			},
			{
				"x": -2.2216591157,
				"y": 0.5695122585,
				"z": -0.2713089998,
				"element": "C" 
			},
			{
				"x": -0.8976643978,
				"y": 0.5704451623,
				"z": 0.161327139,
				"element": "C" 
			},
			{
				"x": -0.3890197775,
				"y": -0.6357695917,
				"z": 0.6386723852,
				"element": "O" 
			},
			{
				"x": 0.7408191628,
				"y": -1.191390865,
				"z": 0.1120314082,
				"element": "C" 
			},
			{
				"x": 1.2921220902,
				"y": -0.6751139741,
				"z": -0.9764954391,
				"element": "N" 
			},
			{
				"x": 2.3874997444,
				"y": -1.282555038,
				"z": -1.4601145517,
				"element": "C" 
			},
			{
				"x": 2.9628817861,
				"y": -2.4107200275,
				"z": -0.8863286279,
				"element": "C" 
			},
			{
				"x": 2.3617054755,
				"y": -2.9383550926,
				"z": 0.2636976746,
				"element": "C" 
			},
			{
				"x": 1.2310298315,
				"y": -2.3253490251,
				"z": 0.7822972224,
				"element": "C" 
			},
			{
				"x": -0.1487822322,
				"y": 1.7416932123,
				"z": 0.2295849935,
				"element": "C" 
			},
			{
				"x": -0.5066701472,
				"y": 4.9861896441,
				"z": -0.0778066289,
				"element": "H" 
			},
			{
				"x": 0.8267327958,
				"y": 4.1293668661,
				"z": 0.4601522851,
				"element": "H" 
			},
			{
				"x": -2.5195317306,
				"y": 3.9071220436,
				"z": -0.9075859087,
				"element": "H" 
			},
			{
				"x": -3.8258546559,
				"y": 1.8092774278,
				"z": -0.9880434583,
				"element": "H" 
			},
			{
				"x": -2.776550094,
				"y": -0.3611280318,
				"z": -0.2996570599,
				"element": "H" 
			},
			{
				"x": 2.8169537392,
				"y": -0.8358219929,
				"z": -2.3550266579,
				"element": "H" 
			},
			{
				"x": 3.8484489698,
				"y": -2.861522194,
				"z": -1.3210347774,
				"element": "H" 
			},
			{
				"x": 2.7740425392,
				"y": -3.8182693852,
				"z": 0.7493334239,
				"element": "H" 
			},
			{
				"x": 0.7241667983,
				"y": -2.6883765525,
				"z": 1.6690265594,
				"element": "H" 
			},
			{
				"x": 0.8809894111,
				"y": 1.705984304,
				"z": 0.5686984704,
				"element": "H" 
			}
		],
		 "valence_orbital": [ 
			{
				"type": "occ",
				"energy": -0.28383,
				"method": "rhf"
			},
			{
				"type": "occ",
				"energy": -0.26357,
				"method": "rhf"
			},
			{
				"type": "occ",
				"energy": -0.24399,
				"method": "rhf"
			},
			{
				"type": "occ",
				"energy": -0.22141,
				"method": "rhf"
			},
			{
				"type": "occ",
				"energy": -0.19814,
				"method": "rhf"
			},
			{
				"type": "unocc",
				"energy": -0.02,
				"method": "rhf"
			},
			{
				"type": "unocc",
				"energy": -4e-05,
				"method": "rhf"
			},
			{
				"type": "unocc",
				"energy": 0.01291,
				"method": "rhf"
			},
			{
				"type": "unocc",
				"energy": 0.02637,
				"method": "rhf"
			},
			{
				"type": "unocc",
				"energy": 0.08411,
				"method": "rhf"
			}
		],
		"cosmo_sigma_profile": { 
			"-0.025": 0.0,
			"-0.024": 0.0,
			"-0.023": 0.0,
			"-0.022": 0.0,
			"-0.021": 0.0,
			"-0.02": 0.0,
			"-0.019": 0.0,
			"-0.018": 0.0,
			"-0.017": 0.0,
			"-0.016": 0.0,
			"-0.015": 0.0,
			"-0.014": 0.0,
			"-0.013": 0.342887630778,
			"-0.012": 2.61790703961,
			"-0.011": 2.73309552422,
			"-0.01": 2.84382573944,
			"-0.009": 3.64501730195,
			"-0.008": 2.78530973112,
			"-0.007": 8.21127901694,
			"-0.006": 13.3010382224,
			"-0.005": 16.464923554,
			"-0.004": 16.9773634129,
			"-0.003": 11.9919714997,
			"-0.002": 11.0406980701,
			"-0.001": 12.2631379797,
			"0.0": 11.4511291614,
			"0.001": 16.356377655,
			"0.002": 18.7036881428,
			"0.003": 18.2833638774,
			"0.004": 13.5980215016,
			"0.005": 10.6267697319,
			"0.006": 12.2169730238,
			"0.007": 6.8045377811,
			"0.008": 3.75808376636,
			"0.009": 3.20694575726,
			"0.01": 1.99846140922,
			"0.011": 1.52675401265,
			"0.012": 1.57514477795,
			"0.013": 1.67938037616,
			"0.014": 1.61083550822,
			"0.015": 0.659864316425,
			"0.016": 0.0,
			"0.017": 0.0,
			"0.018": 0.0,
			"0.019": 0.0,
			"0.02": 0.0,
			"0.021": 0.0,
			"0.022": 0.0,
			"0.023": 0.0,
			"0.024": 0.0,
			"0.025": 0.0
		}
	}
}
