{
	 "smiles": "CC1=CC=C(C=C1)N1CC(CC1=O)C(O)=O", 
	 "Tm": 458.15, 
	 "num_atms": 29, 
	 "gaussian": { 
		 "optdone": 1, 
		 "sigma_profile": "yes", 
		 "theory": "DFT", 
		 "functional": "B3LYP", 
		 "basiset": "6-31G**", 
		 "properties": { 
			 "R2extent": 5124.2897, 
			 "electric_dipole_moment_norm": 3.15571116707, 
			 "electric_quadrupole_moment_norm": 15.6924696148, 
			 "total_energy": -745.574426892, 
			 "HOMO_LUMO_gap": 0.19677, 
			 "cosmo_polarized_energy": -16.3, 
			 "cosmo_cavitation_energy": 32.29, 
			 "cosmo_dispersion_energy": -23.54, 
			 "cosmo_repulsion_energy": 1.83, 
			 "cosmo_total_nonelectrostatic_energy": 10.58, 
			 "SMD_solvation_energy": 6.77 
		},
		"coords": [
			{
				"x": 2.9181753654,
				"y": 4.9630667738,
				"z": 0.2710106193,
				"element": "C" 
			},
			{
				"x": 2.3427449209,
				"y": 3.5796947803,
				"z": 0.0815137028,
				"element": "C" 
			},
			{
				"x": 3.1757801062,
				"y": 2.4581618393,
				"z": -0.0378303652,
				"element": "C" 
			},
			{
				"x": 2.671224113,
				"y": 1.1764140931,
				"z": -0.2301039865,
				"element": "C" 
			},
			{
				"x": 1.2803137094,
				"y": 0.9742921604,
				"z": -0.3075949339,
				"element": "C" 
			},
			{
				"x": 0.4342831084,
				"y": 2.0873977952,
				"z": -0.1853659734,
				"element": "C" 
			},
			{
				"x": 0.9648168083,
				"y": 3.3635152566,
				"z": 0.0051303106,
				"element": "C" 
			},
			{
				"x": 0.7204687994,
				"y": -0.3131472211,
				"z": -0.5108827536,
				"element": "N" 
			},
			{
				"x": -0.719809609,
				"y": -0.4789337866,
				"z": -0.7351465173,
				"element": "C" 
			},
			{
				"x": -0.8827132437,
				"y": -1.9483876643,
				"z": -1.1606380861,
				"element": "C" 
			},
			{
				"x": 0.3637105957,
				"y": -2.6429247409,
				"z": -0.5821349176,
				"element": "C" 
			},
			{
				"x": 1.3873815659,
				"y": -1.5239327872,
				"z": -0.4048884792,
				"element": "C" 
			},
			{
				"x": 2.5754025129,
				"y": -1.6960168595,
				"z": -0.1879227089,
				"element": "O" 
			},
			{
				"x": -0.9903196589,
				"y": -2.0809264983,
				"z": -2.6760581116,
				"element": "C" 
			},
			{
				"x": -0.9606117045,
				"y": -3.3786525334,
				"z": -3.0576817631,
				"element": "O" 
			},
			{
				"x": -1.1203717213,
				"y": -1.1710498917,
				"z": -3.463984764,
				"element": "O" 
			},
			{
				"x": 3.6578052225,
				"y": 4.9826532957,
				"z": 1.0790975692,
				"element": "H" 
			},
			{
				"x": 3.4255517679,
				"y": 5.3134615166,
				"z": -0.6362909125,
				"element": "H" 
			},
			{
				"x": 2.1380311039,
				"y": 5.6904359287,
				"z": 0.5133372622,
				"element": "H" 
			},
			{
				"x": 4.2542994881,
				"y": 2.5869138459,
				"z": 0.0196169659,
				"element": "H" 
			},
			{
				"x": 3.3361866889,
				"y": 0.3290744262,
				"z": -0.3101306177,
				"element": "H" 
			},
			{
				"x": -0.6423053575,
				"y": 1.9741218982,
				"z": -0.2308158423,
				"element": "H" 
			},
			{
				"x": 0.2832953356,
				"y": 4.2056431039,
				"z": 0.0971238071,
				"element": "H" 
			},
			{
				"x": -1.0659447507,
				"y": 0.1937959459,
				"z": -1.522783792,
				"element": "H" 
			},
			{
				"x": -1.2816136227,
				"y": -0.2677941371,
				"z": 0.1841581592,
				"element": "H" 
			},
			{
				"x": -1.8040566517,
				"y": -2.3790084686,
				"z": -0.7543540194,
				"element": "H" 
			},
			{
				"x": 0.7681508724,
				"y": -3.4362408852,
				"z": -1.2116832902,
				"element": "H" 
			},
			{
				"x": 0.1592593991,
				"y": -3.0783920458,
				"z": 0.4023070716,
				"element": "H" 
			},
			{
				"x": -1.0507351638,
				"y": -3.3819351399,
				"z": -4.0256036334,
				"element": "H" 
			}
		],
		 "valence_orbital": [ 
			{
				"type": "occ",
				"energy": -0.29058,
				"method": "rhf"
			},
			{
				"type": "occ",
				"energy": -0.28594,
				"method": "rhf"
			},
			{
				"type": "occ",
				"energy": -0.25044,
				"method": "rhf"
			},
			{
				"type": "occ",
				"energy": -0.24414,
				"method": "rhf"
			},
			{
				"type": "occ",
				"energy": -0.21024,
				"method": "rhf"
			},
			{
				"type": "unocc",
				"energy": -0.01347,
				"method": "rhf"
			},
			{
				"type": "unocc",
				"energy": -0.00335,
				"method": "rhf"
			},
			{
				"type": "unocc",
				"energy": 0.0041,
				"method": "rhf"
			},
			{
				"type": "unocc",
				"energy": 0.04354,
				"method": "rhf"
			},
			{
				"type": "unocc",
				"energy": 0.06434,
				"method": "rhf"
			}
		],
		"cosmo_sigma_profile": { 
			"-0.025": 0.0,
			"-0.024": 0.0,
			"-0.023": 0.0,
			"-0.022": 0.0,
			"-0.021": 0.0,
			"-0.02": 0.0,
			"-0.019": 0.211221050602,
			"-0.018": 0.956072163132,
			"-0.017": 0.874112051287,
			"-0.016": 0.70060792969,
			"-0.015": 0.623792392453,
			"-0.014": 1.53441264475,
			"-0.013": 0.222647909088,
			"-0.012": 0.362198668556,
			"-0.011": 0.780304192252,
			"-0.01": 0.511048941414,
			"-0.009": 0.574144460437,
			"-0.008": 3.50793631781,
			"-0.007": 9.83917272984,
			"-0.006": 17.1837791466,
			"-0.005": 15.8013706702,
			"-0.004": 20.3093454214,
			"-0.003": 21.4975530195,
			"-0.002": 18.0932919515,
			"-0.001": 16.9118280361,
			"0.0": 18.2604439345,
			"0.001": 13.5882371151,
			"0.002": 12.9281746749,
			"0.003": 11.7449255619,
			"0.004": 12.0351076104,
			"0.005": 13.0012787346,
			"0.006": 12.4654139031,
			"0.007": 4.09232422243,
			"0.008": 3.98346336495,
			"0.009": 3.80050585062,
			"0.01": 4.28818673465,
			"0.011": 6.24429703276,
			"0.012": 4.45354489498,
			"0.013": 3.01630224108,
			"0.014": 1.31425636401,
			"0.015": 0.0363433824188,
			"0.016": 0.0,
			"0.017": 0.0,
			"0.018": 0.0,
			"0.019": 0.0,
			"0.02": 0.0,
			"0.021": 0.0,
			"0.022": 0.0,
			"0.023": 0.0,
			"0.024": 0.0,
			"0.025": 0.0
		}
	}
}
