{
	 "smiles": "O=C(OCC(COC(=O)C1=CN=CC=C1)(COC(=O)C1=CN=CC=C1)COC(=O)C1=CN=CC=C1)C1=CC=CN=C1", 
	 "Tm": 435.15, 
	 "num_atms": 65, 
	 "gaussian": { 
		 "optdone": 1, 
		 "sigma_profile": "yes", 
		 "theory": "DFT", 
		 "functional": "B3LYP", 
		 "basiset": "6-31G**", 
		 "properties": { 
			 "R2extent": 24872.1629, 
			 "electric_dipole_moment_norm": 6.40903624112, 
			 "electric_quadrupole_moment_norm": 40.8311510281, 
			 "total_energy": -1940.36817182, 
			 "HOMO_LUMO_gap": 0.18028, 
			 "cosmo_polarized_energy": -31.21, 
			 "cosmo_cavitation_energy": 72.33, 
			 "cosmo_dispersion_energy": -44.1, 
			 "cosmo_repulsion_energy": 3.2, 
			 "cosmo_total_nonelectrostatic_energy": 31.43, 
			 "SMD_solvation_energy": 9.04 
		},
		"coords": [
			{
				"x": 1.9546383736,
				"y": 2.4478721257,
				"z": 0.2099406141,
				"element": "O" 
			},
			{
				"x": 1.5126196173,
				"y": 1.9379832586,
				"z": -0.7993019389,
				"element": "C" 
			},
			{
				"x": 0.542771652,
				"y": 0.9809345748,
				"z": -0.7956378119,
				"element": "O" 
			},
			{
				"x": 0.0256725191,
				"y": 0.5608290675,
				"z": 0.4783034564,
				"element": "C" 
			},
			{
				"x": 0.0120557982,
				"y": -0.9740783705,
				"z": 0.5446281657,
				"element": "C" 
			},
			{
				"x": -0.7290606456,
				"y": -1.5913686357,
				"z": -0.6660674297,
				"element": "C" 
			},
			{
				"x": -1.948803869,
				"y": -0.8766761675,
				"z": -0.9504000046,
				"element": "O" 
			},
			{
				"x": -2.1255919249,
				"y": -0.4266899345,
				"z": -2.2201731776,
				"element": "C" 
			},
			{
				"x": -1.3260907249,
				"y": -0.5975300618,
				"z": -3.1199732149,
				"element": "O" 
			},
			{
				"x": -3.4150477339,
				"y": 0.2960637529,
				"z": -2.3835162074,
				"element": "C" 
			},
			{
				"x": -3.7297503599,
				"y": 0.8145679563,
				"z": -3.6489486181,
				"element": "C" 
			},
			{
				"x": -4.855868084,
				"y": 1.4793422629,
				"z": -3.9180451438,
				"element": "N" 
			},
			{
				"x": -5.7229046946,
				"y": 1.649026919,
				"z": -2.9099089809,
				"element": "C" 
			},
			{
				"x": -5.5101262493,
				"y": 1.1736160188,
				"z": -1.6140862175,
				"element": "C" 
			},
			{
				"x": -4.3327772799,
				"y": 0.482974014,
				"z": -1.343708332,
				"element": "C" 
			},
			{
				"x": -0.5959730718,
				"y": -1.4165279134,
				"z": 1.8905718628,
				"element": "C" 
			},
			{
				"x": -1.9601071031,
				"y": -0.9784209839,
				"z": 2.0618611267,
				"element": "O" 
			},
			{
				"x": -2.9360655603,
				"y": -1.9070145995,
				"z": 1.8991993635,
				"element": "C" 
			},
			{
				"x": -2.7308219405,
				"y": -3.0571305105,
				"z": 1.5664250569,
				"element": "O" 
			},
			{
				"x": -4.2855463322,
				"y": -1.3502098321,
				"z": 2.1889529103,
				"element": "C" 
			},
			{
				"x": -5.4031940008,
				"y": -2.1768396729,
				"z": 1.9961734379,
				"element": "C" 
			},
			{
				"x": -6.6596712225,
				"y": -1.787958402,
				"z": 2.2267262025,
				"element": "N" 
			},
			{
				"x": -6.8431385139,
				"y": -0.5360054543,
				"z": 2.6690127379,
				"element": "C" 
			},
			{
				"x": -5.8029170468,
				"y": 0.3687332879,
				"z": 2.896195943,
				"element": "C" 
			},
			{
				"x": -4.4963794768,
				"y": -0.0455312506,
				"z": 2.6523453127,
				"element": "C" 
			},
			{
				"x": 1.4501322146,
				"y": -1.5279002458,
				"z": 0.46891413,
				"element": "C" 
			},
			{
				"x": 2.2177085552,
				"y": -1.0860738813,
				"z": 1.6043677745,
				"element": "O" 
			},
			{
				"x": 3.4406053663,
				"y": -0.5346814125,
				"z": 1.3481643663,
				"element": "C" 
			},
			{
				"x": 3.8967817136,
				"y": -0.4046021632,
				"z": 0.2325423478,
				"element": "O" 
			},
			{
				"x": 4.138709524,
				"y": -0.1266078081,
				"z": 2.5947397165,
				"element": "C" 
			},
			{
				"x": 5.3744442825,
				"y": 0.5280040101,
				"z": 2.4772061644,
				"element": "C" 
			},
			{
				"x": 6.0974046879,
				"y": 0.9364801937,
				"z": 3.5226927868,
				"element": "N" 
			},
			{
				"x": 5.5986641439,
				"y": 0.6984508722,
				"z": 4.7435767731,
				"element": "C" 
			},
			{
				"x": 4.3807043059,
				"y": 0.0547648136,
				"z": 4.9739701641,
				"element": "C" 
			},
			{
				"x": 3.634498527,
				"y": -0.3669536292,
				"z": 3.8778209693,
				"element": "C" 
			},
			{
				"x": 1.9472263707,
				"y": 2.2761118778,
				"z": -2.1790420919,
				"element": "C" 
			},
			{
				"x": 1.3967746638,
				"y": 1.6895899247,
				"z": -3.3259263151,
				"element": "C" 
			},
			{
				"x": 1.884988451,
				"y": 2.0905226249,
				"z": -4.5665604486,
				"element": "C" 
			},
			{
				"x": 2.8943967405,
				"y": 3.054227579,
				"z": -4.6113747346,
				"element": "C" 
			},
			{
				"x": 3.431015164,
				"y": 3.6253657529,
				"z": -3.5234308651,
				"element": "N" 
			},
			{
				"x": 2.959007598,
				"y": 3.2352774593,
				"z": -2.3370273385,
				"element": "C" 
			},
			{
				"x": 0.6434522823,
				"y": 0.9787183635,
				"z": 1.2747364389,
				"element": "H" 
			},
			{
				"x": -0.9908737209,
				"y": 0.9490570104,
				"z": 0.5688380155,
				"element": "H" 
			},
			{
				"x": -1.0109707694,
				"y": -2.6256075106,
				"z": -0.4519696833,
				"element": "H" 
			},
			{
				"x": -0.1010742299,
				"y": -1.5594272062,
				"z": -1.557259305,
				"element": "H" 
			},
			{
				"x": -3.0281884171,
				"y": 0.6749382584,
				"z": -4.4672043039,
				"element": "H" 
			},
			{
				"x": -6.6346977796,
				"y": 2.1923780863,
				"z": -3.1517196465,
				"element": "H" 
			},
			{
				"x": -6.2509384659,
				"y": 1.3391993178,
				"z": -0.838638326,
				"element": "H" 
			},
			{
				"x": -4.1253476414,
				"y": 0.0938568164,
				"z": -0.354273169,
				"element": "H" 
			},
			{
				"x": -0.5613148069,
				"y": -2.5046455169,
				"z": 1.9794038579,
				"element": "H" 
			},
			{
				"x": -0.0412483181,
				"y": -0.966194171,
				"z": 2.7158656523,
				"element": "H" 
			},
			{
				"x": -5.2544150852,
				"y": -3.1927673438,
				"z": 1.6396311997,
				"element": "H" 
			},
			{
				"x": -7.8749638588,
				"y": -0.2417924185,
				"z": 2.8530092917,
				"element": "H" 
			},
			{
				"x": -6.0153193027,
				"y": 1.3689213278,
				"z": 3.2598677584,
				"element": "H" 
			},
			{
				"x": -3.6540784692,
				"y": 0.6168175641,
				"z": 2.8176915324,
				"element": "H" 
			},
			{
				"x": 1.9424265082,
				"y": -1.1934120482,
				"z": -0.4449011435,
				"element": "H" 
			},
			{
				"x": 1.4414767596,
				"y": -2.6238769903,
				"z": 0.4872453074,
				"element": "H" 
			},
			{
				"x": 5.7778084634,
				"y": 0.7220710476,
				"z": 1.4869327836,
				"element": "H" 
			},
			{
				"x": 6.204958189,
				"y": 1.0390481832,
				"z": 5.5811567536,
				"element": "H" 
			},
			{
				"x": 4.0312587086,
				"y": -0.1107590317,
				"z": 5.9879776995,
				"element": "H" 
			},
			{
				"x": 2.6856709342,
				"y": -0.8754539739,
				"z": 4.0057465222,
				"element": "H" 
			},
			{
				"x": 0.6111698678,
				"y": 0.9454060715,
				"z": -3.2472263241,
				"element": "H" 
			},
			{
				"x": 1.4913053492,
				"y": 1.6655836984,
				"z": -5.484275273,
				"element": "H" 
			},
			{
				"x": 3.2930934109,
				"y": 3.385792455,
				"z": -5.5687668676,
				"element": "H" 
			},
			{
				"x": 3.3938259578,
				"y": 3.6956105937,
				"z": -1.4535712833,
				"element": "H" 
			}
		],
		 "valence_orbital": [ 
			{
				"type": "occ",
				"energy": -0.27416,
				"method": "rhf"
			},
			{
				"type": "occ",
				"energy": -0.26677,
				"method": "rhf"
			},
			{
				"type": "occ",
				"energy": -0.26662,
				"method": "rhf"
			},
			{
				"type": "occ",
				"energy": -0.26385,
				"method": "rhf"
			},
			{
				"type": "occ",
				"energy": -0.25495,
				"method": "rhf"
			},
			{
				"type": "unocc",
				"energy": -0.07467,
				"method": "rhf"
			},
			{
				"type": "unocc",
				"energy": -0.06704,
				"method": "rhf"
			},
			{
				"type": "unocc",
				"energy": -0.0646,
				"method": "rhf"
			},
			{
				"type": "unocc",
				"energy": -0.05446,
				"method": "rhf"
			},
			{
				"type": "unocc",
				"energy": -0.0446,
				"method": "rhf"
			}
		],
		"cosmo_sigma_profile": { 
			"-0.025": 0.0,
			"-0.024": 0.0,
			"-0.023": 0.0,
			"-0.022": 0.0,
			"-0.021": 0.0,
			"-0.02": 0.0,
			"-0.019": 0.0,
			"-0.018": 0.0,
			"-0.017": 0.0,
			"-0.016": 0.0,
			"-0.015": 0.0,
			"-0.014": 0.0,
			"-0.013": 0.0,
			"-0.012": 0.0,
			"-0.011": 0.0,
			"-0.01": 0.143735565074,
			"-0.009": 1.5446003515,
			"-0.008": 8.50060543881,
			"-0.007": 29.5054353269,
			"-0.006": 36.7384413037,
			"-0.005": 31.9079624609,
			"-0.004": 34.8750505689,
			"-0.003": 44.0496261612,
			"-0.002": 51.9714078922,
			"-0.001": 59.4591220168,
			"0.0": 66.2735434506,
			"0.001": 58.0127484649,
			"0.002": 27.5574036492,
			"0.003": 19.5311192076,
			"0.004": 15.9390801152,
			"0.005": 11.2878226956,
			"0.006": 10.2055837465,
			"0.007": 11.4692036233,
			"0.008": 11.7597236677,
			"0.009": 10.012265315,
			"0.01": 10.5285682105,
			"0.011": 12.9811868988,
			"0.012": 5.01225462865,
			"0.013": 3.54186992476,
			"0.014": 3.78250407452,
			"0.015": 3.14526874066,
			"0.016": 1.99071877756,
			"0.017": 0.0558376067719,
			"0.018": 0.0,
			"0.019": 0.0,
			"0.02": 0.0,
			"0.021": 0.0,
			"0.022": 0.0,
			"0.023": 0.0,
			"0.024": 0.0,
			"0.025": 0.0
		}
	}
}
