{
	 "smiles": "COC1=CC=C(C=C1)N(CC=C)S(=O)(=O)C1=CC(C(O)=O)=C(Cl)C=C1", 
	 "Tm": 383.15, 
	 "num_atms": 41, 
	 "gaussian": { 
		 "optdone": 1, 
		 "sigma_profile": "yes", 
		 "theory": "DFT", 
		 "functional": "B3LYP", 
		 "basiset": "6-31G**", 
		 "properties": { 
			 "R2extent": 12675.3792, 
			 "electric_dipole_moment_norm": 2.97686183925, 
			 "electric_quadrupole_moment_norm": 32.7549169162, 
			 "total_energy": -1946.58774646, 
			 "HOMO_LUMO_gap": 0.15037, 
			 "cosmo_polarized_energy": -23.25, 
			 "cosmo_cavitation_energy": 49.41, 
			 "cosmo_dispersion_energy": -32.81, 
			 "cosmo_repulsion_energy": 2.46, 
			 "cosmo_total_nonelectrostatic_energy": 19.07, 
			 "SMD_solvation_energy": 9.73 
		},
		"coords": [
			{
				"x": -5.306384862,
				"y": 2.5201964723,
				"z": -4.1437178379,
				"element": "C" 
			},
			{
				"x": -3.9586071683,
				"y": 2.952863644,
				"z": -4.0299674833,
				"element": "O" 
			},
			{
				"x": -3.1636602849,
				"y": 2.3561723326,
				"z": -3.0995721072,
				"element": "C" 
			},
			{
				"x": -3.5851884339,
				"y": 1.3528692521,
				"z": -2.2176903727,
				"element": "C" 
			},
			{
				"x": -2.6781792291,
				"y": 0.8134956241,
				"z": -1.30328683,
				"element": "C" 
			},
			{
				"x": -1.361049808,
				"y": 1.2653479801,
				"z": -1.2545385874,
				"element": "C" 
			},
			{
				"x": -0.9430530267,
				"y": 2.2692712725,
				"z": -2.1418582743,
				"element": "C" 
			},
			{
				"x": -1.8350043587,
				"y": 2.8103572845,
				"z": -3.0559578416,
				"element": "C" 
			},
			{
				"x": -0.4634428449,
				"y": 0.6986973903,
				"z": -0.2722579072,
				"element": "N" 
			},
			{
				"x": 0.0151553203,
				"y": 1.624090496,
				"z": 0.7914386659,
				"element": "C" 
			},
			{
				"x": -1.1175092542,
				"y": 2.0699566773,
				"z": 1.6750030847,
				"element": "C" 
			},
			{
				"x": -1.1402433141,
				"y": 1.8981256778,
				"z": 2.9958575137,
				"element": "C" 
			},
			{
				"x": 0.7520573972,
				"y": -0.3072767893,
				"z": -0.9184086714,
				"element": "S" 
			},
			{
				"x": 0.1625049726,
				"y": -1.0065616998,
				"z": -2.0588231588,
				"element": "O" 
			},
			{
				"x": 2.0274625802,
				"y": 0.413585708,
				"z": -1.0570040693,
				"element": "O" 
			},
			{
				"x": 0.9761906519,
				"y": -1.4869047514,
				"z": 0.4262306034,
				"element": "C" 
			},
			{
				"x": -0.1034028297,
				"y": -2.2407055988,
				"z": 0.8694658001,
				"element": "C" 
			},
			{
				"x": 0.0493374112,
				"y": -3.2171213598,
				"z": 1.8659006785,
				"element": "C" 
			},
			{
				"x": -1.2419031155,
				"y": -3.931343747,
				"z": 2.2329641986,
				"element": "C" 
			},
			{
				"x": -1.1929869687,
				"y": -5.0467169698,
				"z": 2.979089578,
				"element": "O" 
			},
			{
				"x": -2.3060016016,
				"y": -3.5127549643,
				"z": 1.8385522511,
				"element": "O" 
			},
			{
				"x": 1.3441635036,
				"y": -3.393305331,
				"z": 2.3910232515,
				"element": "C" 
			},
			{
				"x": 1.7037750397,
				"y": -4.5650971489,
				"z": 3.6671020289,
				"element": "Cl" 
			},
			{
				"x": 2.43051774,
				"y": -2.6378859484,
				"z": 1.94848142,
				"element": "C" 
			},
			{
				"x": 2.2513675068,
				"y": -1.6783671125,
				"z": 0.9559464642,
				"element": "C" 
			},
			{
				"x": -5.86678473,
				"y": 2.6942219446,
				"z": -3.2162558584,
				"element": "H" 
			},
			{
				"x": -5.3681387561,
				"y": 1.4568364676,
				"z": -4.4070935912,
				"element": "H" 
			},
			{
				"x": -5.7461955367,
				"y": 3.1151693502,
				"z": -4.9453162142,
				"element": "H" 
			},
			{
				"x": -4.6034067436,
				"y": 0.9838660654,
				"z": -2.2350671471,
				"element": "H" 
			},
			{
				"x": -2.9936370529,
				"y": 0.034362801,
				"z": -0.6171060456,
				"element": "H" 
			},
			{
				"x": 0.086921876,
				"y": 2.6132708889,
				"z": -2.1222268989,
				"element": "H" 
			},
			{
				"x": -1.5283636986,
				"y": 3.5815952906,
				"z": -3.7545271925,
				"element": "H" 
			},
			{
				"x": 0.7608063293,
				"y": 1.0949919246,
				"z": 1.3912374268,
				"element": "H" 
			},
			{
				"x": 0.5186334037,
				"y": 2.4910553057,
				"z": 0.3401336375,
				"element": "H" 
			},
			{
				"x": -1.9411166172,
				"y": 2.5796248424,
				"z": 1.1791660442,
				"element": "H" 
			},
			{
				"x": -1.9646256726,
				"y": 2.2605337823,
				"z": 3.6025445427,
				"element": "H" 
			},
			{
				"x": -0.3344576222,
				"y": 1.3922241642,
				"z": 3.5227755791,
				"element": "H" 
			},
			{
				"x": -1.0976186074,
				"y": -2.0889758713,
				"z": 0.4666887174,
				"element": "H" 
			},
			{
				"x": -0.2845267416,
				"y": -5.2710414311,
				"z": 3.2378891256,
				"element": "H" 
			},
			{
				"x": 3.4090421952,
				"y": -2.8041746658,
				"z": 2.3842081241,
				"element": "H" 
			},
			{
				"x": 3.0820529514,
				"y": -1.0824492498,
				"z": 0.5942773527,
				"element": "H" 
			}
		],
		 "valence_orbital": [ 
			{
				"type": "occ",
				"energy": -0.28568,
				"method": "rhf"
			},
			{
				"type": "occ",
				"energy": -0.27177,
				"method": "rhf"
			},
			{
				"type": "occ",
				"energy": -0.26035,
				"method": "rhf"
			},
			{
				"type": "occ",
				"energy": -0.25868,
				"method": "rhf"
			},
			{
				"type": "occ",
				"energy": -0.22629,
				"method": "rhf"
			},
			{
				"type": "unocc",
				"energy": -0.07592,
				"method": "rhf"
			},
			{
				"type": "unocc",
				"energy": -0.05738,
				"method": "rhf"
			},
			{
				"type": "unocc",
				"energy": -0.0122,
				"method": "rhf"
			},
			{
				"type": "unocc",
				"energy": -0.01197,
				"method": "rhf"
			},
			{
				"type": "unocc",
				"energy": -0.00642,
				"method": "rhf"
			}
		],
		"cosmo_sigma_profile": { 
			"-0.025": 0.0,
			"-0.024": 0.0,
			"-0.023": 0.0,
			"-0.022": 0.0,
			"-0.021": 0.0,
			"-0.02": 0.0,
			"-0.019": 0.0,
			"-0.018": 0.0,
			"-0.017": 0.0,
			"-0.016": 0.0,
			"-0.015": 0.0,
			"-0.014": 0.087709306428,
			"-0.013": 0.524226563577,
			"-0.012": 1.44332156793,
			"-0.011": 1.18695326834,
			"-0.01": 1.68877092916,
			"-0.009": 3.46276403228,
			"-0.008": 5.12168056605,
			"-0.007": 8.59013833221,
			"-0.006": 24.4668833615,
			"-0.005": 34.3074660523,
			"-0.004": 34.2874633209,
			"-0.003": 33.6828553023,
			"-0.002": 33.5607776655,
			"-0.001": 33.04180862,
			"0.0": 24.9399034433,
			"0.001": 21.3924523408,
			"0.002": 22.2597444659,
			"0.003": 19.6830236913,
			"0.004": 16.4769117419,
			"0.005": 11.3662950259,
			"0.006": 9.47877349234,
			"0.007": 7.21996670608,
			"0.008": 7.9788020932,
			"0.009": 9.87610741582,
			"0.01": 15.7905397402,
			"0.011": 11.9345117417,
			"0.012": 3.13737790759,
			"0.013": 0.401829828528,
			"0.014": 0.0,
			"0.015": 0.0,
			"0.016": 0.0,
			"0.017": 0.0,
			"0.018": 0.0,
			"0.019": 0.0,
			"0.02": 0.0,
			"0.021": 0.0,
			"0.022": 0.0,
			"0.023": 0.0,
			"0.024": 0.0,
			"0.0": 0.0
		}
	}
}
