{
	 "smiles": "CC1=C(Cl)C(Cl)=CC(Cl)=C1Cl", 
	 "Tm": 366.65, 
	 "num_atms": 15, 
	 "gaussian": { 
		 "optdone": 1, 
		 "sigma_profile": "yes", 
		 "theory": "DFT", 
		 "functional": "B3LYP", 
		 "basiset": "6-31G**", 
		 "properties": { 
			 "R2extent": 4148.3971, 
			 "electric_dipole_moment_norm": 0.77574808411, 
			 "electric_quadrupole_moment_norm": 6.42828990479, 
			 "total_energy": -2109.92061528, 
			 "HOMO_LUMO_gap": 0.21219, 
			 "cosmo_polarized_energy": -3.31, 
			 "cosmo_cavitation_energy": 25.67, 
			 "cosmo_dispersion_energy": -19.66, 
			 "cosmo_repulsion_energy": 1.57, 
			 "cosmo_total_nonelectrostatic_energy": 7.58, 
			 "SMD_solvation_energy": 3.46 
		},
		"coords": [
			{
				"x": -2.0834553759,
				"y": -0.174836635,
				"z": -0.9306678712,
				"element": "C" 
			},
			{
				"x": -1.3069788645,
				"y": 0.2254177101,
				"z": 0.2991366212,
				"element": "C" 
			},
			{
				"x": -1.0559819011,
				"y": -0.6957564711,
				"z": 1.33480833,
				"element": "C" 
			},
			{
				"x": -1.631309737,
				"y": -2.3397358683,
				"z": 1.1864757725,
				"element": "Cl" 
			},
			{
				"x": -0.3407956703,
				"y": -0.3198998052,
				"z": 2.4804376041,
				"element": "C" 
			},
			{
				"x": -0.0283426947,
				"y": -1.4426882573,
				"z": 3.7777394156,
				"element": "Cl" 
			},
			{
				"x": 0.1437514914,
				"y": 0.9777034939,
				"z": 2.6078030339,
				"element": "C" 
			},
			{
				"x": -0.07696617,
				"y": 1.9008574009,
				"z": 1.5910171106,
				"element": "C" 
			},
			{
				"x": 0.5601869477,
				"y": 3.5115349974,
				"z": 1.7935422108,
				"element": "Cl" 
			},
			{
				"x": -0.7917354343,
				"y": 1.5283849311,
				"z": 0.4440291462,
				"element": "C" 
			},
			{
				"x": -1.0325782386,
				"y": 2.6989973069,
				"z": -0.8316445331,
				"element": "Cl" 
			},
			{
				"x": -2.6111207119,
				"y": 0.6791631354,
				"z": -1.3548425907,
				"element": "H" 
			},
			{
				"x": -1.4083970126,
				"y": -0.5638738914,
				"z": -1.7024674364,
				"element": "H" 
			},
			{
				"x": -2.8053364407,
				"y": -0.9578615343,
				"z": -0.6995010638,
				"element": "H" 
			},
			{
				"x": 0.6951598126,
				"y": 1.2668934869,
				"z": 3.4934342503,
				"element": "H" 
			}
		],
		 "valence_orbital": [ 
			{
				"type": "occ",
				"energy": -0.32363,
				"method": "rhf"
			},
			{
				"type": "occ",
				"energy": -0.31833,
				"method": "rhf"
			},
			{
				"type": "occ",
				"energy": -0.31459,
				"method": "rhf"
			},
			{
				"type": "occ",
				"energy": -0.26653,
				"method": "rhf"
			},
			{
				"type": "occ",
				"energy": -0.2539,
				"method": "rhf"
			},
			{
				"type": "unocc",
				"energy": -0.04171,
				"method": "rhf"
			},
			{
				"type": "unocc",
				"energy": -0.04133,
				"method": "rhf"
			},
			{
				"type": "unocc",
				"energy": -0.02591,
				"method": "rhf"
			},
			{
				"type": "unocc",
				"energy": 0.01417,
				"method": "rhf"
			},
			{
				"type": "unocc",
				"energy": 0.0349,
				"method": "rhf"
			}
		],
		"cosmo_sigma_profile": { 
			"-0.025": 0.0,
			"-0.024": 0.0,
			"-0.023": 0.0,
			"-0.022": 0.0,
			"-0.021": 0.0,
			"-0.02": 0.0,
			"-0.019": 0.0,
			"-0.018": 0.0,
			"-0.017": 0.0,
			"-0.016": 0.0,
			"-0.015": 0.0,
			"-0.014": 0.0,
			"-0.013": 0.0,
			"-0.012": 0.0,
			"-0.011": 0.0,
			"-0.01": 0.146110767442,
			"-0.009": 1.39379875322,
			"-0.008": 1.14063551906,
			"-0.007": 1.41349904729,
			"-0.006": 2.82193308423,
			"-0.005": 5.44294552938,
			"-0.004": 9.25267793538,
			"-0.003": 15.7992633577,
			"-0.002": 21.1430821743,
			"-0.001": 37.3172397677,
			"0.0": 28.5239743385,
			"0.001": 19.6142609122,
			"0.002": 19.4860660759,
			"0.003": 27.7252892557,
			"0.004": 19.7864844018,
			"0.005": 4.06239286537,
			"0.006": 0.0,
			"0.007": 0.0,
			"0.008": 0.0,
			"0.009": 0.0,
			"0.01": 0.0,
			"0.011": 0.0,
			"0.012": 0.0,
			"0.013": 0.0,
			"0.014": 0.0,
			"0.015": 0.0,
			"0.016": 0.0,
			"0.017": 0.0,
			"0.018": 0.0,
			"0.019": 0.0,
			"0.02": 0.0,
			"0.021": 0.0,
			"0.022": 0.0,
			"0.023": 0.0,
			"0.024": 0.0,
			"0.025": 0.0
		}
	}
}
