{
	 "smiles": "O=C1OC(=O)C2=C1SCCS2", 
	 "Tm": 487.15, 
	 "num_atms": 15, 
	 "gaussian": { 
		 "optdone": 1, 
		 "sigma_profile": "yes", 
		 "theory": "DFT", 
		 "functional": "B3LYP", 
		 "basiset": "6-31G**", 
		 "properties": { 
			 "R2extent": 2527.5398, 
			 "electric_dipole_moment_norm": 6.51806542848, 
			 "electric_quadrupole_moment_norm": 12.287146121, 
			 "total_energy": -1253.09189183, 
			 "HOMO_LUMO_gap": 0.13594, 
			 "cosmo_polarized_energy": -13.71, 
			 "cosmo_cavitation_energy": 22.68, 
			 "cosmo_dispersion_energy": -18.12, 
			 "cosmo_repulsion_energy": 1.35, 
			 "cosmo_total_nonelectrostatic_energy": 5.91, 
			 "SMD_solvation_energy": 4.96 
		},
		"coords": [
			{
				"x": -2.6371006067,
				"y": -0.8539052111,
				"z": -1.7243937448,
				"element": "O" 
			},
			{
				"x": -1.6411639498,
				"y": -1.3815381618,
				"z": -1.3160434274,
				"element": "C" 
			},
			{
				"x": -1.4195158913,
				"y": -2.7537774178,
				"z": -1.417970386,
				"element": "O" 
			},
			{
				"x": -0.1794501977,
				"y": -3.0504072045,
				"z": -0.8551366723,
				"element": "C" 
			},
			{
				"x": 0.2615008069,
				"y": -4.164170547,
				"z": -0.8089708419,
				"element": "O" 
			},
			{
				"x": 0.4162248292,
				"y": -1.7769262212,
				"z": -0.3731842281,
				"element": "C" 
			},
			{
				"x": -0.462185313,
				"y": -0.7806703388,
				"z": -0.6394299845,
				"element": "C" 
			},
			{
				"x": -0.383137228,
				"y": 0.9243080185,
				"z": -0.2947798241,
				"element": "S" 
			},
			{
				"x": 1.0664722988,
				"y": 0.9146376982,
				"z": 0.8399976282,
				"element": "C" 
			},
			{
				"x": 2.2593396078,
				"y": 0.0889993224,
				"z": 0.3484879166,
				"element": "C" 
			},
			{
				"x": 1.9934082611,
				"y": -1.7326040947,
				"z": 0.3633891611,
				"element": "S" 
			},
			{
				"x": 0.7408859588,
				"y": 0.5802387681,
				"z": 1.8271036838,
				"element": "H" 
			},
			{
				"x": 1.3565814783,
				"y": 1.9667708746,
				"z": 0.912495522,
				"element": "H" 
			},
			{
				"x": 3.1091873104,
				"y": 0.2408562252,
				"z": 1.0201295972,
				"element": "H" 
			},
			{
				"x": 2.5578526352,
				"y": 0.39478829,
				"z": -0.6562943998,
				"element": "H" 
			}
		],
		 "valence_orbital": [ 
			{
				"type": "occ",
				"energy": -0.33487,
				"method": "rhf"
			},
			{
				"type": "occ",
				"energy": -0.32036,
				"method": "rhf"
			},
			{
				"type": "occ",
				"energy": -0.29808,
				"method": "rhf"
			},
			{
				"type": "occ",
				"energy": -0.29386,
				"method": "rhf"
			},
			{
				"type": "occ",
				"energy": -0.23929,
				"method": "rhf"
			},
			{
				"type": "unocc",
				"energy": -0.10335,
				"method": "rhf"
			},
			{
				"type": "unocc",
				"energy": -0.00399,
				"method": "rhf"
			},
			{
				"type": "unocc",
				"energy": 0.0011,
				"method": "rhf"
			},
			{
				"type": "unocc",
				"energy": 0.02869,
				"method": "rhf"
			},
			{
				"type": "unocc",
				"energy": 0.03268,
				"method": "rhf"
			}
		],
		"cosmo_sigma_profile": { 
			"-0.025": 0.0,
			"-0.024": 0.0,
			"-0.023": 0.0,
			"-0.022": 0.0,
			"-0.021": 0.0,
			"-0.02": 0.0,
			"-0.019": 0.0,
			"-0.018": 0.0,
			"-0.017": 0.0,
			"-0.016": 0.0,
			"-0.015": 0.0,
			"-0.014": 0.0,
			"-0.013": 0.0,
			"-0.012": 0.0,
			"-0.011": 0.0,
			"-0.01": 0.141094022569,
			"-0.009": 4.85755015174,
			"-0.008": 10.5374985688,
			"-0.007": 13.5961587918,
			"-0.006": 13.0217040963,
			"-0.005": 11.4618494645,
			"-0.004": 10.7666298585,
			"-0.003": 9.24407309358,
			"-0.002": 7.54179288909,
			"-0.001": 6.88658828836,
			"0.0": 7.7218115462,
			"0.001": 9.69096513692,
			"0.002": 13.2264967336,
			"0.003": 11.0642309551,
			"0.004": 10.6439915584,
			"0.005": 9.58570852579,
			"0.006": 8.11743967078,
			"0.007": 6.72783423769,
			"0.008": 5.82772888723,
			"0.009": 10.7067783342,
			"0.01": 4.86858780106,
			"0.011": 0.20553432088,
			"0.012": 0.0,
			"0.013": 0.0,
			"0.014": 0.0,
			"0.015": 0.0,
			"0.016": 0.0,
			"0.017": 0.0,
			"0.018": 0.0,
			"0.019": 0.0,
			"0.02": 0.0,
			"0.021": 0.0,
			"0.022": 0.0,
			"0.023": 0.0,
			"0.024": 0.0,
			"0.025": 0.0
		}
	}
}
