{
	 "smiles": "C[C@H]1[C@@H](O[C@@H]([C@@H](C)C1=O)C1=CC=C(Cl)C=C1)C1=CC=C(Cl)C=C1", 
	 "Tm": 463.5, 
	 "num_atms": 41, 
	 "gaussian": { 
		 "optdone": 1, 
		 "sigma_profile": "yes", 
		 "theory": "DFT", 
		 "functional": "B3LYP", 
		 "basiset": "6-31G**", 
		 "properties": { 
			 "R2extent": 10977.9177, 
			 "electric_dipole_moment_norm": 2.3521087241, 
			 "electric_quadrupole_moment_norm": 8.67850726796, 
			 "total_energy": -1805.69823951, 
			 "HOMO_LUMO_gap": 0.20675, 
			 "cosmo_polarized_energy": -12.52, 
			 "cosmo_cavitation_energy": 46.07, 
			 "cosmo_dispersion_energy": -31.39, 
			 "cosmo_repulsion_energy": 2.39, 
			 "cosmo_total_nonelectrostatic_energy": 17.07, 
			 "SMD_solvation_energy": 7.34 
		},
		"coords": [
			{
				"x": -0.3092367751,
				"y": -1.197310414,
				"z": 4.3740952819,
				"element": "C" 
			},
			{
				"x": -0.5208672078,
				"y": -2.0518958541,
				"z": 3.1053184821,
				"element": "C" 
			},
			{
				"x": -1.4748694584,
				"y": -1.3768508453,
				"z": 2.111634772,
				"element": "C" 
			},
			{
				"x": -0.9045817332,
				"y": -0.1810538903,
				"z": 1.5482100204,
				"element": "O" 
			},
			{
				"x": 0.512197615,
				"y": -0.1250891842,
				"z": 1.3105605697,
				"element": "C" 
			},
			{
				"x": 1.1715306157,
				"y": -1.5238936369,
				"z": 1.2081676872,
				"element": "C" 
			},
			{
				"x": 2.6827899784,
				"y": -1.4697155946,
				"z": 0.9692374576,
				"element": "C" 
			},
			{
				"x": 0.8283809534,
				"y": -2.3508412619,
				"z": 2.4501487747,
				"element": "C" 
			},
			{
				"x": 1.5798402637,
				"y": -3.1902835396,
				"z": 2.9083165158,
				"element": "O" 
			},
			{
				"x": 0.7395912871,
				"y": 0.7281503637,
				"z": 0.0762650326,
				"element": "C" 
			},
			{
				"x": 0.0884629528,
				"y": 0.4370039323,
				"z": -1.1297815918,
				"element": "C" 
			},
			{
				"x": 0.3164124314,
				"y": 1.2031679596,
				"z": -2.2706963375,
				"element": "C" 
			},
			{
				"x": 1.2060719731,
				"y": 2.2766670188,
				"z": -2.2036311399,
				"element": "C" 
			},
			{
				"x": 1.4965476579,
				"y": 3.2493752939,
				"z": -3.6391534527,
				"element": "Cl" 
			},
			{
				"x": 1.8617334302,
				"y": 2.5924734638,
				"z": -1.0161609888,
				"element": "C" 
			},
			{
				"x": 1.618725756,
				"y": 1.8145716751,
				"z": 0.1172660704,
				"element": "C" 
			},
			{
				"x": -2.0294888225,
				"y": -2.2779501872,
				"z": 1.002693357,
				"element": "C" 
			},
			{
				"x": -2.8277560051,
				"y": -1.6787903411,
				"z": 0.0147552881,
				"element": "C" 
			},
			{
				"x": -3.4015628218,
				"y": -2.4271632103,
				"z": -1.0095190888,
				"element": "C" 
			},
			{
				"x": -3.1767570785,
				"y": -3.8044394309,
				"z": -1.0516196074,
				"element": "C" 
			},
			{
				"x": -3.8950802082,
				"y": -4.7602460656,
				"z": -2.3391294724,
				"element": "Cl" 
			},
			{
				"x": -2.3917070307,
				"y": -4.4280959305,
				"z": -0.0867666379,
				"element": "C" 
			},
			{
				"x": -1.8254336095,
				"y": -3.6611093236,
				"z": 0.9357252565,
				"element": "C" 
			},
			{
				"x": -1.2541901244,
				"y": -1.093112024,
				"z": 4.9166713101,
				"element": "H" 
			},
			{
				"x": 0.0480858684,
				"y": -0.1919055584,
				"z": 4.1361761817,
				"element": "H" 
			},
			{
				"x": 0.4164877909,
				"y": -1.6797689976,
				"z": 5.0334497396,
				"element": "H" 
			},
			{
				"x": -0.9394919563,
				"y": -3.0095225572,
				"z": 3.4303943994,
				"element": "H" 
			},
			{
				"x": -2.3390876451,
				"y": -1.0054956378,
				"z": 2.6781328194,
				"element": "H" 
			},
			{
				"x": 0.9836183041,
				"y": 0.3920421567,
				"z": 2.1615284942,
				"element": "H" 
			},
			{
				"x": 0.6949810501,
				"y": -2.04686838,
				"z": 0.3652547553,
				"element": "H" 
			},
			{
				"x": 3.1805803135,
				"y": -0.8707938032,
				"z": 1.7398656832,
				"element": "H" 
			},
			{
				"x": 3.0992365492,
				"y": -2.4772096393,
				"z": 1.0187774301,
				"element": "H" 
			},
			{
				"x": 2.9128958676,
				"y": -1.0335008655,
				"z": -0.0048818018,
				"element": "H" 
			},
			{
				"x": -0.6137174838,
				"y": -0.389302656,
				"z": -1.175613148,
				"element": "H" 
			},
			{
				"x": -0.1899494071,
				"y": 0.9756356378,
				"z": -3.202326096,
				"element": "H" 
			},
			{
				"x": 2.5437298419,
				"y": 3.4345380046,
				"z": -0.9767102591,
				"element": "H" 
			},
			{
				"x": 2.1225579911,
				"y": 2.0644612255,
				"z": 1.0473467949,
				"element": "H" 
			},
			{
				"x": -2.9920916096,
				"y": -0.606243992,
				"z": 0.0494614206,
				"element": "H" 
			},
			{
				"x": -4.0189164841,
				"y": -1.9534728168,
				"z": -1.7649924127,
				"element": "H" 
			},
			{
				"x": -2.2216654011,
				"y": -5.4981543946,
				"z": -0.1307572187,
				"element": "H" 
			},
			{
				"x": -1.2148076294,
				"y": -4.1706066993,
				"z": 1.6736856588,
				"element": "H" 
			}
		],
		 "valence_orbital": [ 
			{
				"type": "occ",
				"energy": -0.2711,
				"method": "rhf"
			},
			{
				"type": "occ",
				"energy": -0.26683,
				"method": "rhf"
			},
			{
				"type": "occ",
				"energy": -0.25321,
				"method": "rhf"
			},
			{
				"type": "occ",
				"energy": -0.24984,
				"method": "rhf"
			},
			{
				"type": "occ",
				"energy": -0.24312,
				"method": "rhf"
			},
			{
				"type": "unocc",
				"energy": -0.03637,
				"method": "rhf"
			},
			{
				"type": "unocc",
				"energy": -0.029,
				"method": "rhf"
			},
			{
				"type": "unocc",
				"energy": -0.02121,
				"method": "rhf"
			},
			{
				"type": "unocc",
				"energy": -0.01748,
				"method": "rhf"
			},
			{
				"type": "unocc",
				"energy": -0.01494,
				"method": "rhf"
			}
		],
		"cosmo_sigma_profile": { 
			"-0.025": 0.0,
			"-0.024": 0.0,
			"-0.023": 0.0,
			"-0.022": 0.0,
			"-0.021": 0.0,
			"-0.02": 0.0,
			"-0.019": 0.0,
			"-0.018": 0.0,
			"-0.017": 0.0,
			"-0.016": 0.0,
			"-0.015": 0.0,
			"-0.014": 0.0,
			"-0.013": 0.0,
			"-0.012": 0.0,
			"-0.011": 0.0,
			"-0.01": 0.0,
			"-0.009": 0.000367724168529,
			"-0.008": 1.10790105887,
			"-0.007": 10.8700407856,
			"-0.006": 21.6787084844,
			"-0.005": 26.0460187847,
			"-0.004": 27.7429196986,
			"-0.003": 26.6661907133,
			"-0.002": 30.3244109657,
			"-0.001": 28.0005252271,
			"0.0": 30.3508020574,
			"0.001": 31.3773256246,
			"0.002": 32.0702617279,
			"0.003": 32.4093354781,
			"0.004": 29.8827321113,
			"0.005": 17.9029528421,
			"0.006": 3.45224255216,
			"0.007": 2.35763412395,
			"0.008": 3.06252346792,
			"0.009": 2.20346740756,
			"0.01": 3.30086991313,
			"0.011": 4.00067066345,
			"0.012": 4.32213654223,
			"0.013": 0.817692007829,
			"0.014": 0.0,
			"0.015": 0.0,
			"0.016": 0.0,
			"0.017": 0.0,
			"0.018": 0.0,
			"0.019": 0.0,
			"0.02": 0.0,
			"0.021": 0.0,
			"0.022": 0.0,
			"0.023": 0.0,
			"0.024": 0.0,
			"0.025": 0.0
		}
	}
}
