{
	 "smiles": "CC1=CC(Br)=NC=C1I", 
	 "Tm": 324.15, 
	 "num_atms": 14, 
	 "gaussian": { 
		 "optdone": 1, 
		 "sigma_profile": "no", 
		 "theory": "DFT", 
		 "functional": "B3LYP", 
		 "basiset": "6-31G**", 
		 "properties": { 
			 "R2extent": 3223.0918, 
			 "electric_dipole_moment_norm": 2.96072725188, 
			 "electric_quadrupole_moment_norm": 5.46490290582, 
			 "total_energy": -2869.19257452, 
			 "HOMO_LUMO_gap": 0.19928, 
			 "cosmo_polarized_energy": -86458.23, 
			 "cosmo_cavitation_energy": 23.54, 
			 "cosmo_dispersion_energy": -19.23, 
			 "cosmo_repulsion_energy": 1.53, 
			 "cosmo_total_nonelectrostatic_energy": 5.85, 
			 "SMD_solvation_energy": 0.69 
		},
		"coords": [
			{
				"x": 1.6711218851,
				"y": 0.3888617498,
				"z": -0.5500988691,
				"element": "C" 
			},
			{
				"x": 0.4732324199,
				"y": -0.3986195163,
				"z": -1.0060744517,
				"element": "C" 
			},
			{
				"x": -0.6203568336,
				"y": -0.5794652119,
				"z": -0.1513770453,
				"element": "C" 
			},
			{
				"x": -1.716867499,
				"y": -1.313912487,
				"z": -0.6013041866,
				"element": "C" 
			},
			{
				"x": -3.2058905724,
				"y": -1.5500434296,
				"z": 0.586490078,
				"element": "Br" 
			},
			{
				"x": -1.8113106098,
				"y": -1.8662141452,
				"z": -1.7951658364,
				"element": "N" 
			},
			{
				"x": -0.7751812998,
				"y": -1.7043340299,
				"z": -2.6272007655,
				"element": "C" 
			},
			{
				"x": 0.3706669167,
				"y": -0.9883309328,
				"z": -2.2789640652,
				"element": "C" 
			},
			{
				"x": 1.9202760702,
				"y": -0.8269764203,
				"z": -3.714189664,
				"element": "I" 
			},
			{
				"x": 1.8461972666,
				"y": 1.249273886,
				"z": -1.2046180779,
				"element": "H" 
			},
			{
				"x": 2.5778429907,
				"y": -0.2245127015,
				"z": -0.5812968412,
				"element": "H" 
			},
			{
				"x": 1.5332545567,
				"y": 0.7521261329,
				"z": 0.4706143009,
				"element": "H" 
			},
			{
				"x": -0.6146953345,
				"y": -0.154648286,
				"z": 0.8456435311,
				"element": "H" 
			},
			{
				"x": -0.8662899569,
				"y": -2.1643046082,
				"z": -3.607058107,
				"element": "H" 
			}
		],
		 "valence_orbital": [ 
			{
				"type": "occ",
				"energy": -0.29241,
				"method": "rhf"
			},
			{
				"type": "occ",
				"energy": -0.28817,
				"method": "rhf"
			},
			{
				"type": "occ",
				"energy": -0.28717,
				"method": "rhf"
			},
			{
				"type": "occ",
				"energy": -0.27516,
				"method": "rhf"
			},
			{
				"type": "occ",
				"energy": -0.24915,
				"method": "rhf"
			},
			{
				"type": "unocc",
				"energy": -0.04987,
				"method": "rhf"
			},
			{
				"type": "unocc",
				"energy": -0.04542,
				"method": "rhf"
			},
			{
				"type": "unocc",
				"energy": -0.03837,
				"method": "rhf"
			},
			{
				"type": "unocc",
				"energy": 0.00402,
				"method": "rhf"
			},
			{
				"type": "unocc",
				"energy": 0.03399,
				"method": "rhf"
			}
		],
		"cosmo_sigma_profile": { 
			"0.0": 0.0,
			"0.0": 0.0,
			"0.0": 0.0,
			"0.0": 0.0,
			"0.0": 0.0,
			"0.0": 0.0,
			"0.0": 0.0,
			"0.0": 0.0,
			"0.0": 0.0,
			"0.0": 0.0,
			"0.0": 0.0,
			"0.0": 0.0,
			"0.0": 0.0,
			"0.0": 0.0,
			"0.0": 0.0,
			"0.0": 0.0,
			"0.0": 0.0,
			"0.0": 0.0,
			"0.0": 0.0,
			"0.0": 0.0,
			"0.0": 0.0,
			"0.0": 0.0,
			"0.0": 0.0,
			"0.0": 0.0,
			"0.0": 0.0,
			"0.0": 0.0,
			"0.0": 0.0,
			"0.0": 0.0,
			"0.0": 0.0,
			"0.0": 0.0,
			"0.0": 0.0,
			"0.0": 0.0,
			"0.0": 0.0,
			"0.0": 0.0,
			"0.0": 0.0,
			"0.0": 0.0,
			"0.0": 0.0,
			"0.0": 0.0,
			"0.0": 0.0,
			"0.0": 0.0,
			"0.0": 0.0,
			"0.0": 0.0,
			"0.0": 0.0,
			"0.0": 0.0,
			"0.0": 0.0,
			"0.0": 0.0,
			"0.0": 0.0,
			"0.0": 0.0,
			"0.0": 0.0,
			"0.0": 0.0,
			"0.0": 0.0
		}
	}
}
