{
	 "smiles": "CN1CCN(CC1)S(=O)(=O)C1=CC(N)=C(Cl)C=C1", 
	 "Tm": 378.15, 
	 "num_atms": 34, 
	 "gaussian": { 
		 "optdone": 1, 
		 "sigma_profile": "yes", 
		 "theory": "DFT", 
		 "functional": "B3LYP", 
		 "basiset": "6-31G**", 
		 "properties": { 
			 "R2extent": 8751.1103, 
			 "electric_dipole_moment_norm": 4.50735471313, 
			 "electric_quadrupole_moment_norm": 21.0109433877, 
			 "total_energy": -1601.81611537, 
			 "HOMO_LUMO_gap": 0.17102, 
			 "cosmo_polarized_energy": -17.48, 
			 "cosmo_cavitation_energy": 38.34, 
			 "cosmo_dispersion_energy": -27.83, 
			 "cosmo_repulsion_energy": 2.11, 
			 "cosmo_total_nonelectrostatic_energy": 12.63, 
			 "SMD_solvation_energy": 1.44 
		},
		"coords": [
			{
				"x": -1.0692229162,
				"y": -0.7389494361,
				"z": 3.1244523948,
				"element": "C" 
			},
			{
				"x": -1.0554054783,
				"y": -1.5188379393,
				"z": 1.8906537081,
				"element": "N" 
			},
			{
				"x": 0.2558798849,
				"y": -2.0619681493,
				"z": 1.5364319484,
				"element": "C" 
			},
			{
				"x": 1.2242369361,
				"y": -1.0278294392,
				"z": 0.9395787534,
				"element": "C" 
			},
			{
				"x": 0.5661677429,
				"y": -0.4080661356,
				"z": -0.2336147164,
				"element": "N" 
			},
			{
				"x": -0.7195115672,
				"y": 0.2322254734,
				"z": 0.1124797041,
				"element": "C" 
			},
			{
				"x": -1.6373448357,
				"y": -0.8326783503,
				"z": 0.7389590119,
				"element": "C" 
			},
			{
				"x": 1.6002039297,
				"y": 0.5634986922,
				"z": -1.1807123899,
				"element": "S" 
			},
			{
				"x": 1.5337889121,
				"y": 1.9710783074,
				"z": -0.7601792016,
				"element": "O" 
			},
			{
				"x": 2.8857095076,
				"y": -0.1419857025,
				"z": -1.2254552321,
				"element": "O" 
			},
			{
				"x": 0.8185886862,
				"y": 0.4469861559,
				"z": -2.7941376725,
				"element": "C" 
			},
			{
				"x": 0.9711837439,
				"y": -0.7292226861,
				"z": -3.5211747505,
				"element": "C" 
			},
			{
				"x": 0.3915873378,
				"y": -0.8581686219,
				"z": -4.7951341064,
				"element": "C" 
			},
			{
				"x": 0.5809599029,
				"y": -1.9961627932,
				"z": -5.5520935753,
				"element": "N" 
			},
			{
				"x": -0.341497512,
				"y": 0.2484129132,
				"z": -5.2801494375,
				"element": "C" 
			},
			{
				"x": -1.1030746432,
				"y": 0.1318582195,
				"z": -6.8627096185,
				"element": "Cl" 
			},
			{
				"x": -0.4786167746,
				"y": 1.4241758783,
				"z": -4.5501208098,
				"element": "C" 
			},
			{
				"x": 0.1070659208,
				"y": 1.5396893392,
				"z": -3.2895435651,
				"element": "C" 
			},
			{
				"x": -0.702013348,
				"y": -1.3628234516,
				"z": 3.9460488182,
				"element": "H" 
			},
			{
				"x": -0.4647295424,
				"y": 0.1843987081,
				"z": 3.1108771387,
				"element": "H" 
			},
			{
				"x": -2.1010895263,
				"y": -0.4556944583,
				"z": 3.3572259228,
				"element": "H" 
			},
			{
				"x": 0.7096417053,
				"y": -2.5132327961,
				"z": 2.4254913056,
				"element": "H" 
			},
			{
				"x": 0.1059407866,
				"y": -2.8591519874,
				"z": 0.796875891,
				"element": "H" 
			},
			{
				"x": 2.1432075788,
				"y": -1.5105972204,
				"z": 0.6037460662,
				"element": "H" 
			},
			{
				"x": 1.4933893067,
				"y": -0.2687851905,
				"z": 1.6900529621,
				"element": "H" 
			},
			{
				"x": -0.5655585353,
				"y": 1.0804751235,
				"z": 0.7944779853,
				"element": "H" 
			},
			{
				"x": -1.1795068791,
				"y": 0.6188468777,
				"z": -0.8019272138,
				"element": "H" 
			},
			{
				"x": -2.5830942046,
				"y": -0.3675204553,
				"z": 1.0373447097,
				"element": "H" 
			},
			{
				"x": -1.8625377225,
				"y": -1.5847215475,
				"z": -0.0282590968,
				"element": "H" 
			},
			{
				"x": 1.5571790475,
				"y": -1.545652103,
				"z": -3.1115362612,
				"element": "H" 
			},
			{
				"x": -0.062690865,
				"y": -2.1496770256,
				"z": -6.3141142662,
				"element": "H" 
			},
			{
				"x": 0.8493205282,
				"y": -2.8309832446,
				"z": -5.0538517051,
				"element": "H" 
			},
			{
				"x": -1.043516088,
				"y": 2.2470106191,
				"z": -4.9741248012,
				"element": "H" 
			},
			{
				"x": 0.0319589806,
				"y": 2.4523524266,
				"z": -2.7111579003,
				"element": "H" 
			}
		],
		 "valence_orbital": [ 
			{
				"type": "occ",
				"energy": -0.29721,
				"method": "rhf"
			},
			{
				"type": "occ",
				"energy": -0.27201,
				"method": "rhf"
			},
			{
				"type": "occ",
				"energy": -0.25223,
				"method": "rhf"
			},
			{
				"type": "occ",
				"energy": -0.22562,
				"method": "rhf"
			},
			{
				"type": "occ",
				"energy": -0.21152,
				"method": "rhf"
			},
			{
				"type": "unocc",
				"energy": -0.0405,
				"method": "rhf"
			},
			{
				"type": "unocc",
				"energy": -0.01137,
				"method": "rhf"
			},
			{
				"type": "unocc",
				"energy": 0.01833,
				"method": "rhf"
			},
			{
				"type": "unocc",
				"energy": 0.05868,
				"method": "rhf"
			},
			{
				"type": "unocc",
				"energy": 0.07224,
				"method": "rhf"
			}
		],
		"cosmo_sigma_profile": { 
			"-0.025": 0.0,
			"-0.024": 0.0,
			"-0.023": 0.0,
			"-0.022": 0.0,
			"-0.021": 0.0,
			"-0.02": 0.0,
			"-0.019": 0.0,
			"-0.018": 0.0,
			"-0.017": 0.0,
			"-0.016": 0.0,
			"-0.015": 0.0,
			"-0.014": 0.817409583442,
			"-0.013": 2.21138905192,
			"-0.012": 2.04888656661,
			"-0.011": 2.6319194867,
			"-0.01": 2.94780244164,
			"-0.009": 2.93549611674,
			"-0.008": 3.37243577072,
			"-0.007": 5.08999534888,
			"-0.006": 5.40958468078,
			"-0.005": 13.9589755694,
			"-0.004": 33.1774234981,
			"-0.003": 34.1389621169,
			"-0.002": 24.9544086503,
			"-0.001": 23.249443592,
			"0.0": 20.4635389663,
			"0.001": 20.7407294996,
			"0.002": 24.4230047619,
			"0.003": 18.3995426657,
			"0.004": 12.5680048061,
			"0.005": 6.76782325151,
			"0.006": 4.86747189714,
			"0.007": 5.10769961228,
			"0.008": 5.04594440477,
			"0.009": 5.54332406067,
			"0.01": 7.30410733588,
			"0.011": 8.75704167681,
			"0.012": 5.54786094427,
			"0.013": 0.259307186364,
			"0.014": 0.585329183478,
			"0.015": 0.270458023164,
			"0.016": 0.407312850296,
			"0.017": 0.0186535605766,
			"0.018": 0.0,
			"0.019": 0.0,
			"0.02": 0.0,
			"0.021": 0.0,
			"0.022": 0.0,
			"0.023": 0.0,
			"0.024": 0.0,
			"0.025": 0.0
		}
	}
}
