{
	 "smiles": "CC(C)(C)OC(=O)N1CCCC(C1)C(C)(C)C(O)=O", 
	 "Tm": 370.15, 
	 "num_atms": 44, 
	 "gaussian": { 
		 "optdone": 1, 
		 "sigma_profile": "yes", 
		 "theory": "DFT", 
		 "functional": "B3LYP", 
		 "basiset": "6-31G**", 
		 "properties": { 
			 "R2extent": 7310.3571, 
			 "electric_dipole_moment_norm": 1.41348174378, 
			 "electric_quadrupole_moment_norm": 11.2974669794, 
			 "total_energy": -904.266843888, 
			 "HOMO_LUMO_gap": 0.2313, 
			 "cosmo_polarized_energy": -13.65, 
			 "cosmo_cavitation_energy": 42.57, 
			 "cosmo_dispersion_energy": -28.98, 
			 "cosmo_repulsion_energy": 2.24, 
			 "cosmo_total_nonelectrostatic_energy": 15.83, 
			 "SMD_solvation_energy": 8.29 
		},
		"coords": [
			{
				"x": -1.9454472641,
				"y": -2.5002044067,
				"z": 3.6204175673,
				"element": "C" 
			},
			{
				"x": -1.05934099,
				"y": -2.8030167785,
				"z": 2.4086157544,
				"element": "C" 
			},
			{
				"x": -1.5342760594,
				"y": -4.0731442981,
				"z": 1.6941450386,
				"element": "C" 
			},
			{
				"x": 0.4140437222,
				"y": -2.8869766977,
				"z": 2.8229360378,
				"element": "C" 
			},
			{
				"x": -1.2772724015,
				"y": -1.6286419346,
				"z": 1.5532388547,
				"element": "O" 
			},
			{
				"x": -0.6604896487,
				"y": -1.5206854559,
				"z": 0.3476500548,
				"element": "C" 
			},
			{
				"x": 0.1235910935,
				"y": -2.3357457982,
				"z": -0.1233140522,
				"element": "O" 
			},
			{
				"x": -1.0419701869,
				"y": -0.3633823837,
				"z": -0.2765621595,
				"element": "N" 
			},
			{
				"x": -1.9465499393,
				"y": 0.607218615,
				"z": 0.3562227021,
				"element": "C" 
			},
			{
				"x": -2.3143512008,
				"y": 1.6937307298,
				"z": -0.6534009852,
				"element": "C" 
			},
			{
				"x": -1.076273378,
				"y": 2.4141639628,
				"z": -1.2215827363,
				"element": "C" 
			},
			{
				"x": 0.1037464905,
				"y": 1.4354956042,
				"z": -1.5032112914,
				"element": "C" 
			},
			{
				"x": -0.4125184108,
				"y": -0.0157326633,
				"z": -1.5535669575,
				"element": "C" 
			},
			{
				"x": 0.9932118739,
				"y": 1.856670653,
				"z": -2.7318189957,
				"element": "C" 
			},
			{
				"x": 2.2101880544,
				"y": 0.9173285407,
				"z": -2.8697336579,
				"element": "C" 
			},
			{
				"x": 1.5003955176,
				"y": 3.297915351,
				"z": -2.5213955561,
				"element": "C" 
			},
			{
				"x": 0.1387790073,
				"y": 1.8349333569,
				"z": -4.0023838155,
				"element": "C" 
			},
			{
				"x": 0.0973342162,
				"y": 0.6179926928,
				"z": -4.601489089,
				"element": "O" 
			},
			{
				"x": -0.4821477048,
				"y": 2.777999735,
				"z": -4.4492439703,
				"element": "O" 
			},
			{
				"x": -1.8724121433,
				"y": -3.3103031041,
				"z": 4.3521923959,
				"element": "H" 
			},
			{
				"x": -1.6349600682,
				"y": -1.5685856406,
				"z": 4.1025917582,
				"element": "H" 
			},
			{
				"x": -2.9921290378,
				"y": -2.3996617873,
				"z": 3.3183757193,
				"element": "H" 
			},
			{
				"x": -2.5770384574,
				"y": -3.9634351397,
				"z": 1.3791658043,
				"element": "H" 
			},
			{
				"x": -0.9196378975,
				"y": -4.279638201,
				"z": 0.8179501704,
				"element": "H" 
			},
			{
				"x": -1.4747957915,
				"y": -4.9249977483,
				"z": 2.379581632,
				"element": "H" 
			},
			{
				"x": 1.0501242991,
				"y": -3.0787633237,
				"z": 1.9588274098,
				"element": "H" 
			},
			{
				"x": 0.54684381,
				"y": -3.6951147312,
				"z": 3.5498032967,
				"element": "H" 
			},
			{
				"x": 0.7285792125,
				"y": -1.9507859498,
				"z": 3.2954698973,
				"element": "H" 
			},
			{
				"x": -1.4669785539,
				"y": 1.0556743309,
				"z": 1.2382921743,
				"element": "H" 
			},
			{
				"x": -2.8421085785,
				"y": 0.0908173876,
				"z": 0.713514912,
				"element": "H" 
			},
			{
				"x": -2.8901103195,
				"y": 1.2391590617,
				"z": -1.4682832748,
				"element": "H" 
			},
			{
				"x": -2.9820982501,
				"y": 2.4159625801,
				"z": -0.1720970869,
				"element": "H" 
			},
			{
				"x": -1.3654298259,
				"y": 2.938309765,
				"z": -2.1374029098,
				"element": "H" 
			},
			{
				"x": -0.745465045,
				"y": 3.1832933706,
				"z": -0.5149496262,
				"element": "H" 
			},
			{
				"x": 0.7903714215,
				"y": 1.4744919513,
				"z": -0.6466825839,
				"element": "H" 
			},
			{
				"x": 0.3937077542,
				"y": -0.7313662447,
				"z": -1.7023323875,
				"element": "H" 
			},
			{
				"x": -1.1210431702,
				"y": -0.1507786358,
				"z": -2.3807979356,
				"element": "H" 
			},
			{
				"x": 2.8709359934,
				"y": 1.2621815175,
				"z": -3.6715175104,
				"element": "H" 
			},
			{
				"x": 2.785386179,
				"y": 0.922141962,
				"z": -1.9380127153,
				"element": "H" 
			},
			{
				"x": 1.9279343589,
				"y": -0.1111343848,
				"z": -3.0952996647,
				"element": "H" 
			},
			{
				"x": 2.069321259,
				"y": 3.3581953629,
				"z": -1.5878687818,
				"element": "H" 
			},
			{
				"x": 0.6829398433,
				"y": 4.0184404983,
				"z": -2.483984386,
				"element": "H" 
			},
			{
				"x": 2.1626308315,
				"y": 3.5946353076,
				"z": -3.3404442905,
				"element": "H" 
			},
			{
				"x": -0.4933206149,
				"y": 0.7204429709,
				"z": -5.3672147598,
				"element": "H" 
			}
		],
		 "valence_orbital": [ 
			{
				"type": "occ",
				"energy": -0.31291,
				"method": "rhf"
			},
			{
				"type": "occ",
				"energy": -0.28086,
				"method": "rhf"
			},
			{
				"type": "occ",
				"energy": -0.27147,
				"method": "rhf"
			},
			{
				"type": "occ",
				"energy": -0.25329,
				"method": "rhf"
			},
			{
				"type": "occ",
				"energy": -0.22764,
				"method": "rhf"
			},
			{
				"type": "unocc",
				"energy": 0.00366,
				"method": "rhf"
			},
			{
				"type": "unocc",
				"energy": 0.06003,
				"method": "rhf"
			},
			{
				"type": "unocc",
				"energy": 0.06798,
				"method": "rhf"
			},
			{
				"type": "unocc",
				"energy": 0.0806,
				"method": "rhf"
			},
			{
				"type": "unocc",
				"energy": 0.08924,
				"method": "rhf"
			}
		],
		"cosmo_sigma_profile": { 
			"-0.025": 0.0,
			"-0.024": 0.0,
			"-0.023": 0.0,
			"-0.022": 0.0,
			"-0.021": 0.0,
			"-0.02": 0.0,
			"-0.019": 0.0,
			"-0.018": 0.490686066139,
			"-0.017": 0.920112737704,
			"-0.016": 1.02975366198,
			"-0.015": 0.788321649258,
			"-0.014": 0.477242754728,
			"-0.013": 0.821364670759,
			"-0.012": 0.288074281068,
			"-0.011": 0.897855456062,
			"-0.01": 0.82982659823,
			"-0.009": 0.616008225333,
			"-0.008": 0.522727405645,
			"-0.007": 0.851197894493,
			"-0.006": 1.24119815766,
			"-0.005": 3.24704119242,
			"-0.004": 27.0254949216,
			"-0.003": 47.1572306619,
			"-0.002": 43.4834194226,
			"-0.001": 42.9685034855,
			"0.0": 44.1578790895,
			"0.001": 35.7520792124,
			"0.002": 13.379048391,
			"0.003": 9.03762530517,
			"0.004": 7.53297790146,
			"0.005": 7.44348187406,
			"0.006": 6.04684878688,
			"0.007": 5.56672659957,
			"0.008": 4.67953362996,
			"0.009": 2.89274563462,
			"0.01": 3.22909144446,
			"0.011": 4.42315508859,
			"0.012": 5.54312965961,
			"0.013": 2.87128106645,
			"0.014": 2.41457804794,
			"0.015": 0.0061343692957,
			"0.016": 0.0,
			"0.017": 0.0,
			"0.018": 0.0,
			"0.019": 0.0,
			"0.02": 0.0,
			"0.021": 0.0,
			"0.022": 0.0,
			"0.023": 0.0,
			"0.024": 0.0,
			"0.025": 0.0
		}
	}
}
