{
	 "smiles": "[O-][N+](=O)C1=CC=CC(NN=C2/C(=O)N(N=C2C(F)(F)F)C2=CC=CC=C2)=C1", 
	 "Tm": 423.15, 
	 "num_atms": 37, 
	 "gaussian": { 
		 "optdone": 1, 
		 "sigma_profile": "yes", 
		 "theory": "DFT", 
		 "functional": "B3LYP", 
		 "basiset": "6-31G**", 
		 "properties": { 
			 "R2extent": 14597.0072, 
			 "electric_dipole_moment_norm": 1.7374250545, 
			 "electric_quadrupole_moment_norm": 29.3350143196, 
			 "total_energy": -1414.53476481, 
			 "HOMO_LUMO_gap": 0.11304, 
			 "cosmo_polarized_energy": -14.16, 
			 "cosmo_cavitation_energy": 45.96, 
			 "cosmo_dispersion_energy": -32.27, 
			 "cosmo_repulsion_energy": 2.33, 
			 "cosmo_total_nonelectrostatic_energy": 16.02, 
			 "SMD_solvation_energy": 10.42 
		},
		"coords": [
			{
				"x": -1.7763542609,
				"y": 6.6346046611,
				"z": -2.8967618507,
				"element": "O" 
			},
			{
				"x": -2.0271389683,
				"y": 5.6223005643,
				"z": -2.2464954713,
				"element": "N" 
			},
			{
				"x": -3.14164184,
				"y": 5.3078083025,
				"z": -1.8322614187,
				"element": "O" 
			},
			{
				"x": -0.9049406027,
				"y": 4.7152540214,
				"z": -1.9395130661,
				"element": "C" 
			},
			{
				"x": 0.3702075062,
				"y": 5.0402025594,
				"z": -2.3934263369,
				"element": "C" 
			},
			{
				"x": 1.4161533451,
				"y": 4.166401016,
				"z": -2.0904409465,
				"element": "C" 
			},
			{
				"x": 1.1914942805,
				"y": 3.0050222977,
				"z": -1.3566110152,
				"element": "C" 
			},
			{
				"x": -0.1070423462,
				"y": 2.7062515731,
				"z": -0.9134533186,
				"element": "C" 
			},
			{
				"x": -0.382496776,
				"y": 1.5490525031,
				"z": -0.1718676341,
				"element": "N" 
			},
			{
				"x": 0.5664161241,
				"y": 0.6988020106,
				"z": 0.136581203,
				"element": "N" 
			},
			{
				"x": 0.2251931834,
				"y": -0.358876575,
				"z": 0.833208964,
				"element": "C" 
			},
			{
				"x": -1.1175660674,
				"y": -0.7126951528,
				"z": 1.3196406584,
				"element": "C" 
			},
			{
				"x": -2.1619925412,
				"y": -0.0671563203,
				"z": 1.1528623823,
				"element": "O" 
			},
			{
				"x": -0.9249383698,
				"y": -1.9131265312,
				"z": 1.991170304,
				"element": "N" 
			},
			{
				"x": 0.4019972577,
				"y": -2.3177487979,
				"z": 1.956967121,
				"element": "N" 
			},
			{
				"x": 1.0748812201,
				"y": -1.4268204594,
				"z": 1.2907880757,
				"element": "C" 
			},
			{
				"x": 2.5519558149,
				"y": -1.5685215067,
				"z": 1.0670775099,
				"element": "C" 
			},
			{
				"x": 2.8283066292,
				"y": -1.6169858381,
				"z": -0.253783774,
				"element": "F" 
			},
			{
				"x": 3.0401373902,
				"y": -2.6761204254,
				"z": 1.6391500553,
				"element": "F" 
			},
			{
				"x": 3.2112781024,
				"y": -0.5042363899,
				"z": 1.5728200642,
				"element": "F" 
			},
			{
				"x": -1.87624267,
				"y": -2.7279559146,
				"z": 2.6705199635,
				"element": "C" 
			},
			{
				"x": -3.2248785131,
				"y": -2.3498903297,
				"z": 2.7262017737,
				"element": "C" 
			},
			{
				"x": -4.1318738182,
				"y": -3.1689224374,
				"z": 3.3987387129,
				"element": "C" 
			},
			{
				"x": -3.7145464424,
				"y": -4.3505437947,
				"z": 4.0114684971,
				"element": "C" 
			},
			{
				"x": -2.3683052516,
				"y": -4.7147999495,
				"z": 3.9481159306,
				"element": "C" 
			},
			{
				"x": -1.4447897164,
				"y": -3.9124328546,
				"z": 3.2820202538,
				"element": "C" 
			},
			{
				"x": -1.1707717125,
				"y": 3.5654216244,
				"z": -1.2041066745,
				"element": "C" 
			},
			{
				"x": 0.5217861791,
				"y": 5.9482561415,
				"z": -2.9621674726,
				"element": "H" 
			},
			{
				"x": 2.4206907818,
				"y": 4.3945033109,
				"z": -2.4314961167,
				"element": "H" 
			},
			{
				"x": 2.0007288821,
				"y": 2.3250363507,
				"z": -1.1197536666,
				"element": "H" 
			},
			{
				"x": -1.3388926355,
				"y": 1.3430791912,
				"z": 0.146910359,
				"element": "H" 
			},
			{
				"x": -3.551181034,
				"y": -1.4345885618,
				"z": 2.2521434327,
				"element": "H" 
			},
			{
				"x": -5.1759993126,
				"y": -2.8729001512,
				"z": 3.439887343,
				"element": "H" 
			},
			{
				"x": -4.4291596914,
				"y": -4.9804796048,
				"z": 4.5322547865,
				"element": "H" 
			},
			{
				"x": -2.0278932012,
				"y": -5.6317442497,
				"z": 4.4201611044,
				"element": "H" 
			},
			{
				"x": -0.4001532988,
				"y": -4.1905536137,
				"z": 3.230171961,
				"element": "H" 
			},
			{
				"x": -2.1833276266,
				"y": 3.3617033307,
				"z": -0.8759216936,
				"element": "H" 
			}
		],
		 "valence_orbital": [ 
			{
				"type": "occ",
				"energy": -0.29851,
				"method": "rhf"
			},
			{
				"type": "occ",
				"energy": -0.27879,
				"method": "rhf"
			},
			{
				"type": "occ",
				"energy": -0.25849,
				"method": "rhf"
			},
			{
				"type": "occ",
				"energy": -0.24921,
				"method": "rhf"
			},
			{
				"type": "occ",
				"energy": -0.23151,
				"method": "rhf"
			},
			{
				"type": "unocc",
				"energy": -0.11847,
				"method": "rhf"
			},
			{
				"type": "unocc",
				"energy": -0.09961,
				"method": "rhf"
			},
			{
				"type": "unocc",
				"energy": -0.03348,
				"method": "rhf"
			},
			{
				"type": "unocc",
				"energy": -0.03247,
				"method": "rhf"
			},
			{
				"type": "unocc",
				"energy": -0.00891,
				"method": "rhf"
			}
		],
		"cosmo_sigma_profile": { 
			"-0.025": 0.0,
			"-0.024": 0.0,
			"-0.023": 0.0,
			"-0.022": 0.0,
			"-0.021": 0.0,
			"-0.02": 0.0,
			"-0.019": 0.0,
			"-0.018": 0.0,
			"-0.017": 0.0,
			"-0.016": 0.0,
			"-0.015": 0.246273692705,
			"-0.014": 0.697033720637,
			"-0.013": 0.651758347775,
			"-0.012": 1.34377968748,
			"-0.011": 1.10288790153,
			"-0.01": 1.62372333558,
			"-0.009": 1.16044520283,
			"-0.008": 4.8424055957,
			"-0.007": 10.1499979732,
			"-0.006": 15.7248985767,
			"-0.005": 22.3724099548,
			"-0.004": 22.1736967055,
			"-0.003": 26.6329611169,
			"-0.002": 29.2404106066,
			"-0.001": 28.2654228846,
			"0.0": 28.4120429114,
			"0.001": 32.1453769935,
			"0.002": 42.7777611048,
			"0.003": 30.6029194006,
			"0.004": 18.7137751378,
			"0.005": 16.002845455,
			"0.006": 7.40388658068,
			"0.007": 12.1450182483,
			"0.008": 8.32745971035,
			"0.009": 5.80939656347,
			"0.01": 3.56508174518,
			"0.011": 0.0142605614565,
			"0.012": 0.0,
			"0.013": 0.0,
			"0.014": 0.0,
			"0.015": 0.0,
			"0.016": 0.0,
			"0.017": 0.0,
			"0.018": 0.0,
			"0.019": 0.0,
			"0.02": 0.0,
			"0.021": 0.0,
			"0.022": 0.0,
			"0.023": 0.0,
			"0.024": 0.0,
			"0.025": 0.0
		}
	}
}
