{
	 "smiles": "CC(CCC1=C(C2=CC=C(C)O2)C2=C(O1)C=CC(Cl)=C2)=NO", 
	 "Tm": 387.15, 
	 "num_atms": 38, 
	 "gaussian": { 
		 "optdone": 1, 
		 "sigma_profile": "yes", 
		 "theory": "DFT", 
		 "functional": "B3LYP", 
		 "basiset": "6-31G**", 
		 "properties": { 
			 "R2extent": 9712.6261, 
			 "electric_dipole_moment_norm": 2.83474418246, 
			 "electric_quadrupole_moment_norm": 13.6417430748, 
			 "total_energy": -1398.0055939, 
			 "HOMO_LUMO_gap": 0.16412, 
			 "cosmo_polarized_energy": -12.16, 
			 "cosmo_cavitation_energy": 44.23, 
			 "cosmo_dispersion_energy": -30.28, 
			 "cosmo_repulsion_energy": 2.35, 
			 "cosmo_total_nonelectrostatic_energy": 16.29, 
			 "SMD_solvation_energy": 7.47 
		},
		"coords": [
			{
				"x": -1.5126804276,
				"y": 3.0950777527,
				"z": -0.8540365161,
				"element": "C" 
			},
			{
				"x": -0.4844757956,
				"y": 2.8996677471,
				"z": -1.9333210633,
				"element": "C" 
			},
			{
				"x": 0.7638327947,
				"y": 2.0961536138,
				"z": -1.6446412682,
				"element": "C" 
			},
			{
				"x": 0.7373172267,
				"y": 0.6644529155,
				"z": -2.2545525774,
				"element": "C" 
			},
			{
				"x": -0.24900075,
				"y": -0.2630200423,
				"z": -1.6359590311,
				"element": "C" 
			},
			{
				"x": -0.1453036523,
				"y": -1.2112178403,
				"z": -0.6471635962,
				"element": "C" 
			},
			{
				"x": 1.0346125833,
				"y": -1.5566518256,
				"z": 0.1187077804,
				"element": "C" 
			},
			{
				"x": 2.2228515984,
				"y": -0.9307581689,
				"z": 0.3970678567,
				"element": "C" 
			},
			{
				"x": 2.9762333302,
				"y": -1.8255620161,
				"z": 1.2207110633,
				"element": "C" 
			},
			{
				"x": 2.2063194559,
				"y": -2.9363328011,
				"z": 1.4062240594,
				"element": "C" 
			},
			{
				"x": 2.3939233372,
				"y": -4.2085977158,
				"z": 2.1541190036,
				"element": "C" 
			},
			{
				"x": 1.0201251249,
				"y": -2.7846176434,
				"z": 0.7389057378,
				"element": "O" 
			},
			{
				"x": -1.4678381695,
				"y": -1.8014679671,
				"z": -0.5218243527,
				"element": "C" 
			},
			{
				"x": -2.2711057667,
				"y": -1.1278546436,
				"z": -1.4564776381,
				"element": "C" 
			},
			{
				"x": -1.5343401345,
				"y": -0.1932281119,
				"z": -2.1301942676,
				"element": "O" 
			},
			{
				"x": -3.6205618086,
				"y": -1.3949783385,
				"z": -1.6463583398,
				"element": "C" 
			},
			{
				"x": -4.1834628797,
				"y": -2.3916068055,
				"z": -0.8513008361,
				"element": "C" 
			},
			{
				"x": -3.3919056153,
				"y": -3.0736115921,
				"z": 0.0888068885,
				"element": "C" 
			},
			{
				"x": -4.1514283053,
				"y": -4.3258494893,
				"z": 1.0707599094,
				"element": "Cl" 
			},
			{
				"x": -2.0406386757,
				"y": -2.8034718578,
				"z": 0.2750612115,
				"element": "C" 
			},
			{
				"x": -0.735454694,
				"y": 3.4490407063,
				"z": -3.065222605,
				"element": "N" 
			},
			{
				"x": 0.2934955829,
				"y": 3.1990406316,
				"z": -4.0042238874,
				"element": "O" 
			},
			{
				"x": -2.3433328683,
				"y": 3.6989889772,
				"z": -1.2240306539,
				"element": "H" 
			},
			{
				"x": -1.9012477506,
				"y": 2.1288966149,
				"z": -0.5126777096,
				"element": "H" 
			},
			{
				"x": -1.0695655638,
				"y": 3.5930034665,
				"z": 0.0170831472,
				"element": "H" 
			},
			{
				"x": 0.9139164711,
				"y": 2.0313101472,
				"z": -0.5621206257,
				"element": "H" 
			},
			{
				"x": 1.6208091977,
				"y": 2.6224064778,
				"z": -2.0771106704,
				"element": "H" 
			},
			{
				"x": 0.5273938154,
				"y": 0.7511199014,
				"z": -3.3244287732,
				"element": "H" 
			},
			{
				"x": 1.7322813745,
				"y": 0.2205817538,
				"z": -2.1462527213,
				"element": "H" 
			},
			{
				"x": 2.5178655184,
				"y": 0.0582606839,
				"z": 0.0798871616,
				"element": "H" 
			},
			{
				"x": 3.9624393591,
				"y": -1.6595080012,
				"z": 1.6303405984,
				"element": "H" 
			},
			{
				"x": 2.3365298523,
				"y": -5.0780255847,
				"z": 1.488966618,
				"element": "H" 
			},
			{
				"x": 1.628047217,
				"y": -4.3367426003,
				"z": 2.9280509812,
				"element": "H" 
			},
			{
				"x": 3.3729238896,
				"y": -4.2124933541,
				"z": 2.6386720399,
				"element": "H" 
			},
			{
				"x": -4.2067504623,
				"y": -0.8525379427,
				"z": -2.3797317004,
				"element": "H" 
			},
			{
				"x": -5.2316698032,
				"y": -2.64757125,
				"z": -0.9530341906,
				"element": "H" 
			},
			{
				"x": -1.4545214537,
				"y": -3.3496476686,
				"z": 1.0022178908,
				"element": "H" 
			},
			{
				"x": -0.0265331526,
				"y": 3.677551871,
				"z": -4.7797189236,
				"element": "H" 
			}
		],
		 "valence_orbital": [ 
			{
				"type": "occ",
				"energy": -0.26903,
				"method": "rhf"
			},
			{
				"type": "occ",
				"energy": -0.24939,
				"method": "rhf"
			},
			{
				"type": "occ",
				"energy": -0.2452,
				"method": "rhf"
			},
			{
				"type": "occ",
				"energy": -0.23103,
				"method": "rhf"
			},
			{
				"type": "occ",
				"energy": -0.19691,
				"method": "rhf"
			},
			{
				"type": "unocc",
				"energy": -0.03279,
				"method": "rhf"
			},
			{
				"type": "unocc",
				"energy": -0.00308,
				"method": "rhf"
			},
			{
				"type": "unocc",
				"energy": 0.00314,
				"method": "rhf"
			},
			{
				"type": "unocc",
				"energy": 0.01009,
				"method": "rhf"
			},
			{
				"type": "unocc",
				"energy": 0.03483,
				"method": "rhf"
			}
		],
		"cosmo_sigma_profile": { 
			"-0.025": 0.0,
			"-0.024": 0.0,
			"-0.023": 0.0,
			"-0.022": 0.0,
			"-0.021": 0.0,
			"-0.02": 0.0,
			"-0.019": 0.0,
			"-0.018": 0.0,
			"-0.017": 0.425985448726,
			"-0.016": 1.13272949411,
			"-0.015": 0.981984366238,
			"-0.014": 0.55051866524,
			"-0.013": 0.603169166534,
			"-0.012": 1.21740815994,
			"-0.011": 0.657089542849,
			"-0.01": 0.373950407577,
			"-0.009": 0.422404785431,
			"-0.008": 1.82102444687,
			"-0.007": 6.28751956908,
			"-0.006": 10.8010030385,
			"-0.005": 20.5502537568,
			"-0.004": 27.3444745581,
			"-0.003": 30.2396864793,
			"-0.002": 28.6225395871,
			"-0.001": 31.6751038452,
			"0.0": 28.1385370265,
			"0.001": 25.7617122593,
			"0.002": 30.9754372663,
			"0.003": 34.4319342043,
			"0.004": 23.9156462524,
			"0.005": 20.2573007782,
			"0.006": 12.0399927108,
			"0.007": 4.51508678045,
			"0.008": 3.16052429216,
			"0.009": 2.5182028642,
			"0.01": 1.76586780321,
			"0.011": 1.06072873267,
			"0.012": 0.526247334535,
			"0.013": 1.06007693213,
			"0.014": 0.562901958513,
			"0.015": 0.0591097567957,
			"0.016": 0.0,
			"0.017": 0.0,
			"0.018": 0.0,
			"0.019": 0.0,
			"0.02": 0.0,
			"0.021": 0.0,
			"0.022": 0.0,
			"0.023": 0.0,
			"0.024": 0.0,
			"0.025": 0.0
		}
	}
}
