{
	 "smiles": "NC1=NN=C(C=C1)C1CC1", 
	 "Tm": 409.15, 
	 "num_atms": 19, 
	 "gaussian": { 
		 "optdone": 1, 
		 "sigma_profile": "yes", 
		 "theory": "DFT", 
		 "functional": "B3LYP", 
		 "basiset": "6-31G**", 
		 "properties": { 
			 "R2extent": 2285.4621, 
			 "electric_dipole_moment_norm": 3.62744654544, 
			 "electric_quadrupole_moment_norm": 14.0492457776, 
			 "total_energy": -436.364705559, 
			 "HOMO_LUMO_gap": 0.17719, 
			 "cosmo_polarized_energy": -13.89, 
			 "cosmo_cavitation_energy": 22.68, 
			 "cosmo_dispersion_energy": -17.02, 
			 "cosmo_repulsion_energy": 1.39, 
			 "cosmo_total_nonelectrostatic_energy": 7.06, 
			 "SMD_solvation_energy": 1.98 
		},
		"coords": [
			{
				"x": 1.1780974313,
				"y": 2.2143714973,
				"z": -1.9973543604,
				"element": "N" 
			},
			{
				"x": 0.852030943,
				"y": 1.6397479596,
				"z": -0.7814743082,
				"element": "C" 
			},
			{
				"x": -0.105692627,
				"y": 2.2625898642,
				"z": -0.0779785711,
				"element": "N" 
			},
			{
				"x": -0.4390498849,
				"y": 1.8201848379,
				"z": 1.1309638789,
				"element": "N" 
			},
			{
				"x": 0.1528038595,
				"y": 0.7448242433,
				"z": 1.6603720768,
				"element": "C" 
			},
			{
				"x": 1.1542412957,
				"y": 0.0457989989,
				"z": 0.9572881526,
				"element": "C" 
			},
			{
				"x": 1.5209575986,
				"y": 0.4996186676,
				"z": -0.2893841334,
				"element": "C" 
			},
			{
				"x": -0.2918361317,
				"y": 0.3185714865,
				"z": 3.015301366,
				"element": "C" 
			},
			{
				"x": -0.697939448,
				"y": 1.3596349514,
				"z": 4.0432464856,
				"element": "C" 
			},
			{
				"x": -1.7445426039,
				"y": 0.4836820555,
				"z": 3.4251695964,
				"element": "C" 
			},
			{
				"x": 1.503244267,
				"y": 1.5912140012,
				"z": -2.7221200004,
				"element": "H" 
			},
			{
				"x": 0.4945955234,
				"y": 2.8919902927,
				"z": -2.3093917111,
				"element": "H" 
			},
			{
				"x": 1.6255491768,
				"y": -0.828595171,
				"z": 1.3970555576,
				"element": "H" 
			},
			{
				"x": 2.2960528826,
				"y": 0.0110712009,
				"z": -0.8730934019,
				"element": "H" 
			},
			{
				"x": 0.221969506,
				"y": -0.561650672,
				"z": 3.3931311772,
				"element": "H" 
			},
			{
				"x": -0.6566843655,
				"y": 2.3926015738,
				"z": 3.713374697,
				"element": "H" 
			},
			{
				"x": -0.4115235317,
				"y": 1.1870153425,
				"z": 5.0764898278,
				"element": "H" 
			},
			{
				"x": -2.1920341243,
				"y": -0.3033251226,
				"z": 4.0250185038,
				"element": "H" 
			},
			{
				"x": -2.3972397669,
				"y": 0.9360539921,
				"z": 2.685685167,
				"element": "H" 
			}
		],
		 "valence_orbital": [ 
			{
				"type": "occ",
				"energy": -0.30185,
				"method": "rhf"
			},
			{
				"type": "occ",
				"energy": -0.29162,
				"method": "rhf"
			},
			{
				"type": "occ",
				"energy": -0.28222,
				"method": "rhf"
			},
			{
				"type": "occ",
				"energy": -0.21994,
				"method": "rhf"
			},
			{
				"type": "occ",
				"energy": -0.21508,
				"method": "rhf"
			},
			{
				"type": "unocc",
				"energy": -0.03789,
				"method": "rhf"
			},
			{
				"type": "unocc",
				"energy": 0.00214,
				"method": "rhf"
			},
			{
				"type": "unocc",
				"energy": 0.08151,
				"method": "rhf"
			},
			{
				"type": "unocc",
				"energy": 0.09005,
				"method": "rhf"
			},
			{
				"type": "unocc",
				"energy": 0.11621,
				"method": "rhf"
			}
		],
		"cosmo_sigma_profile": { 
			"-0.025": 0.0,
			"-0.024": 0.0,
			"-0.023": 0.0,
			"-0.022": 0.0,
			"-0.021": 0.0,
			"-0.02": 0.0,
			"-0.019": 0.0,
			"-0.018": 0.0,
			"-0.017": 0.0,
			"-0.016": 0.0,
			"-0.015": 0.0,
			"-0.014": 0.391090812842,
			"-0.013": 1.79607606633,
			"-0.012": 2.21430804845,
			"-0.011": 2.7318333206,
			"-0.01": 2.44651159379,
			"-0.009": 3.51653705354,
			"-0.008": 4.00045451554,
			"-0.007": 6.91287218044,
			"-0.006": 6.76384100386,
			"-0.005": 9.24794152603,
			"-0.004": 11.4998238002,
			"-0.003": 11.7185954467,
			"-0.002": 9.98749062211,
			"-0.001": 11.4588482771,
			"0.0": 13.327201064,
			"0.001": 15.5852380628,
			"0.002": 14.3039257511,
			"0.003": 11.7295305285,
			"0.004": 8.9618860751,
			"0.005": 4.72772082983,
			"0.006": 3.21973923116,
			"0.007": 2.80056222448,
			"0.008": 2.90743552966,
			"0.009": 2.64430288148,
			"0.01": 2.35836509867,
			"0.011": 2.21609066649,
			"0.012": 1.96527422603,
			"0.013": 2.43723173299,
			"0.014": 1.79016496889,
			"0.015": 2.58844708181,
			"0.016": 1.3637727869,
			"0.017": 0.305251311504,
			"0.018": 0.0,
			"0.019": 0.0,
			"0.02": 0.0,
			"0.021": 0.0,
			"0.022": 0.0,
			"0.023": 0.0,
			"0.024": 0.0,
			"0.025": 0.0
		}
	}
}
