{
	 "smiles": "COC1=C(C=CC=C1)C(CN)NC(=O)OC(C)(C)C", 
	 "Tm": 419.15, 
	 "num_atms": 41, 
	 "gaussian": { 
		 "optdone": 1, 
		 "sigma_profile": "yes", 
		 "theory": "DFT", 
		 "functional": "B3LYP", 
		 "basiset": "6-31G**", 
		 "properties": { 
			 "R2extent": 6308.2061, 
			 "electric_dipole_moment_norm": 2.61214561233, 
			 "electric_quadrupole_moment_norm": 26.0997447886, 
			 "total_energy": -881.950839284, 
			 "HOMO_LUMO_gap": 0.21106, 
			 "cosmo_polarized_energy": -14.54, 
			 "cosmo_cavitation_energy": 42.65, 
			 "cosmo_dispersion_energy": -27.97, 
			 "cosmo_repulsion_energy": 2.2, 
			 "cosmo_total_nonelectrostatic_energy": 16.89, 
			 "SMD_solvation_energy": 7.53 
		},
		"coords": [
			{
				"x": -1.0138640406,
				"y": 1.0448648853,
				"z": 4.3090112654,
				"element": "C" 
			},
			{
				"x": -0.5593752066,
				"y": 0.6596975829,
				"z": 3.0184623234,
				"element": "O" 
			},
			{
				"x": -0.7605642458,
				"y": -0.6369522886,
				"z": 2.6062069703,
				"element": "C" 
			},
			{
				"x": -0.2767750342,
				"y": -0.9570703607,
				"z": 1.3183989435,
				"element": "C" 
			},
			{
				"x": -0.4600291763,
				"y": -2.2630714292,
				"z": 0.8599559906,
				"element": "C" 
			},
			{
				"x": -1.0986162329,
				"y": -3.2366050125,
				"z": 1.6330199818,
				"element": "C" 
			},
			{
				"x": -1.5716029548,
				"y": -2.8979139108,
				"z": 2.8964975132,
				"element": "C" 
			},
			{
				"x": -1.4071482771,
				"y": -1.5990522717,
				"z": 3.3866548822,
				"element": "C" 
			},
			{
				"x": 0.4651276284,
				"y": 0.0549914738,
				"z": 0.4551821269,
				"element": "C" 
			},
			{
				"x": 1.8970178928,
				"y": 0.343333901,
				"z": 0.9900030376,
				"element": "C" 
			},
			{
				"x": 2.697419468,
				"y": 1.2486003483,
				"z": 0.1734663049,
				"element": "N" 
			},
			{
				"x": -0.279408692,
				"y": 1.3044236192,
				"z": 0.28676111,
				"element": "N" 
			},
			{
				"x": -0.8330506578,
				"y": 1.7990195403,
				"z": -0.8614825752,
				"element": "C" 
			},
			{
				"x": -1.5811480419,
				"y": 2.7656025255,
				"z": -0.8734368908,
				"element": "O" 
			},
			{
				"x": -0.4199093765,
				"y": 1.102974494,
				"z": -1.9522885129,
				"element": "O" 
			},
			{
				"x": -0.8930171008,
				"y": 1.4629384083,
				"z": -3.2963564152,
				"element": "C" 
			},
			{
				"x": -0.1987186434,
				"y": 0.4252287841,
				"z": -4.182975707,
				"element": "C" 
			},
			{
				"x": -2.4161306361,
				"y": 1.3125257369,
				"z": -3.3780172677,
				"element": "C" 
			},
			{
				"x": -0.4299151398,
				"y": 2.8792442257,
				"z": -3.6553829552,
				"element": "C" 
			},
			{
				"x": -0.7414795719,
				"y": 2.0950493363,
				"z": 4.4222138534,
				"element": "H" 
			},
			{
				"x": -2.1019804715,
				"y": 0.9411338059,
				"z": 4.4003450426,
				"element": "H" 
			},
			{
				"x": -0.5266171819,
				"y": 0.4575609127,
				"z": 5.0966966857,
				"element": "H" 
			},
			{
				"x": -0.0937036501,
				"y": -2.5207011549,
				"z": -0.130790588,
				"element": "H" 
			},
			{
				"x": -1.2265000426,
				"y": -4.2429481257,
				"z": 1.2467609347,
				"element": "H" 
			},
			{
				"x": -2.0744331463,
				"y": -3.6378644104,
				"z": 3.5123631911,
				"element": "H" 
			},
			{
				"x": -1.7826597411,
				"y": -1.3498421432,
				"z": 4.3717621851,
				"element": "H" 
			},
			{
				"x": 0.566571514,
				"y": -0.3732337596,
				"z": -0.5437467872,
				"element": "H" 
			},
			{
				"x": 1.8192343206,
				"y": 0.7622681457,
				"z": 1.9986264313,
				"element": "H" 
			},
			{
				"x": 2.4257826247,
				"y": -0.6124955972,
				"z": 1.0826246459,
				"element": "H" 
			},
			{
				"x": 2.8002256485,
				"y": 0.8671743458,
				"z": -0.7651359174,
				"element": "H" 
			},
			{
				"x": 2.1901011506,
				"y": 2.1241773048,
				"z": 0.0615116552,
				"element": "H" 
			},
			{
				"x": -0.6312725024,
				"y": 1.7390548205,
				"z": 1.128320673,
				"element": "H" 
			},
			{
				"x": 0.8887569478,
				"y": 0.5025863604,
				"z": -4.0901099763,
				"element": "H" 
			},
			{
				"x": -0.4985168142,
				"y": -0.5881438708,
				"z": -3.899701315,
				"element": "H" 
			},
			{
				"x": -0.4678763779,
				"y": 0.5850829427,
				"z": -5.2312896778,
				"element": "H" 
			},
			{
				"x": -2.7466131754,
				"y": 1.4697701872,
				"z": -4.4100371044,
				"element": "H" 
			},
			{
				"x": -2.9131734128,
				"y": 2.0364218994,
				"z": -2.7323054875,
				"element": "H" 
			},
			{
				"x": -2.7141479703,
				"y": 0.3033605131,
				"z": -3.0759096732,
				"element": "H" 
			},
			{
				"x": 0.6570036514,
				"y": 2.9608760203,
				"z": -3.5517200192,
				"element": "H" 
			},
			{
				"x": -0.9038299164,
				"y": 3.6175357235,
				"z": -3.0086011199,
				"element": "H" 
			},
			{
				"x": -0.6883634154,
				"y": 3.098696492,
				"z": -4.6965577581,
				"element": "H" 
			}
		],
		 "valence_orbital": [ 
			{
				"type": "occ",
				"energy": -0.26185,
				"method": "rhf"
			},
			{
				"type": "occ",
				"energy": -0.25263,
				"method": "rhf"
			},
			{
				"type": "occ",
				"energy": -0.24489,
				"method": "rhf"
			},
			{
				"type": "occ",
				"energy": -0.23055,
				"method": "rhf"
			},
			{
				"type": "occ",
				"energy": -0.21888,
				"method": "rhf"
			},
			{
				"type": "unocc",
				"energy": -0.00782,
				"method": "rhf"
			},
			{
				"type": "unocc",
				"energy": 0.00474,
				"method": "rhf"
			},
			{
				"type": "unocc",
				"energy": 0.06369,
				"method": "rhf"
			},
			{
				"type": "unocc",
				"energy": 0.07825,
				"method": "rhf"
			},
			{
				"type": "unocc",
				"energy": 0.08234,
				"method": "rhf"
			}
		],
		"cosmo_sigma_profile": { 
			"-0.025": 0.0,
			"-0.024": 0.0,
			"-0.023": 0.0,
			"-0.022": 0.0,
			"-0.021": 0.0,
			"-0.02": 0.0,
			"-0.019": 0.0,
			"-0.018": 0.0,
			"-0.017": 0.0,
			"-0.016": 0.0,
			"-0.015": 0.0,
			"-0.014": 0.0,
			"-0.013": 0.0,
			"-0.012": 0.0,
			"-0.011": 0.0,
			"-0.01": 0.110457746002,
			"-0.009": 1.03732443541,
			"-0.008": 2.50328615074,
			"-0.007": 3.32901777942,
			"-0.006": 14.0663498812,
			"-0.005": 22.5839374422,
			"-0.004": 29.8468694841,
			"-0.003": 38.0438503456,
			"-0.002": 30.4370975637,
			"-0.001": 29.9883245385,
			"0.0": 35.6525256129,
			"0.001": 33.6961781033,
			"0.002": 17.4622502261,
			"0.003": 14.8364573089,
			"0.004": 13.4035963636,
			"0.005": 12.894950639,
			"0.006": 9.31357448442,
			"0.007": 2.80743409856,
			"0.008": 2.33928130924,
			"0.009": 1.6692527302,
			"0.01": 1.29491123498,
			"0.011": 2.14701291051,
			"0.012": 3.10440148522,
			"0.013": 2.97492476398,
			"0.014": 3.73260615213,
			"0.015": 1.34355315442,
			"0.016": 0.691570852554,
			"0.017": 0.625366951036,
			"0.018": 0.807371638035,
			"0.019": 0.547551211533,
			"0.02": 0.26986578546,
			"0.021": 0.0,
			"0.022": 0.0,
			"0.023": 0.0,
			"0.024": 0.0,
			"0.025": 0.0
		}
	}
}
