{
	 "smiles": "CC1=C(C)C(=CC(=C1)[N+]([O-])=O)S(Cl)(=O)=O", 
	 "Tm": 340.15, 
	 "num_atms": 23, 
	 "gaussian": { 
		 "optdone": 1, 
		 "sigma_profile": "yes", 
		 "theory": "DFT", 
		 "functional": "B3LYP", 
		 "basiset": "6-31G**", 
		 "properties": { 
			 "R2extent": 5011.3587, 
			 "electric_dipole_moment_norm": 5.92378101638, 
			 "electric_quadrupole_moment_norm": 18.3841186278, 
			 "total_energy": -1523.5367434, 
			 "HOMO_LUMO_gap": 0.18322, 
			 "cosmo_polarized_energy": -12.28, 
			 "cosmo_cavitation_energy": 30.57, 
			 "cosmo_dispersion_energy": -22.6, 
			 "cosmo_repulsion_energy": 1.71, 
			 "cosmo_total_nonelectrostatic_energy": 9.68, 
			 "SMD_solvation_energy": 6.33 
		},
		"coords": [
			{
				"x": -1.2673156731,
				"y": -3.4552010221,
				"z": -0.2013068902,
				"element": "C" 
			},
			{
				"x": -1.2132841746,
				"y": -2.0155372202,
				"z": 0.2577524098,
				"element": "C" 
			},
			{
				"x": -1.3467828343,
				"y": -0.9433114791,
				"z": -0.6590664263,
				"element": "C" 
			},
			{
				"x": -1.5585811754,
				"y": -1.2190784744,
				"z": -2.1276612356,
				"element": "C" 
			},
			{
				"x": -1.2583674968,
				"y": 0.3637173884,
				"z": -0.1348871944,
				"element": "C" 
			},
			{
				"x": -1.0721499911,
				"y": 0.6425346318,
				"z": 1.2171097126,
				"element": "C" 
			},
			{
				"x": -0.9591430677,
				"y": -0.4390505944,
				"z": 2.0765341069,
				"element": "C" 
			},
			{
				"x": -1.0222431974,
				"y": -1.7488801763,
				"z": 1.6159666493,
				"element": "C" 
			},
			{
				"x": -0.7601096697,
				"y": -0.1891421378,
				"z": 3.5149515587,
				"element": "N" 
			},
			{
				"x": -0.7046265758,
				"y": 0.9813900102,
				"z": 3.8833200939,
				"element": "O" 
			},
			{
				"x": -0.6636903722,
				"y": -1.1700073616,
				"z": 4.2501119829,
				"element": "O" 
			},
			{
				"x": -1.3189843911,
				"y": 1.8243637802,
				"z": -1.1906108734,
				"element": "S" 
			},
			{
				"x": -3.3996420409,
				"y": 1.9200472576,
				"z": -1.6664214769,
				"element": "Cl" 
			},
			{
				"x": -0.6197393912,
				"y": 1.569867733,
				"z": -2.4436650631,
				"element": "O" 
			},
			{
				"x": -1.0371962543,
				"y": 3.0025904736,
				"z": -0.3827669071,
				"element": "O" 
			},
			{
				"x": -1.0800129858,
				"y": -4.1309270693,
				"z": 0.6358443625,
				"element": "H" 
			},
			{
				"x": -2.2470982042,
				"y": -3.7104435505,
				"z": -0.6202853018,
				"element": "H" 
			},
			{
				"x": -0.5191876095,
				"y": -3.662594078,
				"z": -0.9731831117,
				"element": "H" 
			},
			{
				"x": -2.2555032335,
				"y": -0.5139632419,
				"z": -2.5820275898,
				"element": "H" 
			},
			{
				"x": -0.6147172854,
				"y": -1.1261257698,
				"z": -2.6755765922,
				"element": "H" 
			},
			{
				"x": -1.9456871576,
				"y": -2.2255168344,
				"z": -2.2840754782,
				"element": "H" 
			},
			{
				"x": -1.0115132682,
				"y": 1.6569636036,
				"z": 1.5885286305,
				"element": "H" 
			},
			{
				"x": -0.9204239502,
				"y": -2.5563958687,
				"z": 2.3310146334,
				"element": "H" 
			}
		],
		 "valence_orbital": [ 
			{
				"type": "occ",
				"energy": -0.32501,
				"method": "rhf"
			},
			{
				"type": "occ",
				"energy": -0.32238,
				"method": "rhf"
			},
			{
				"type": "occ",
				"energy": -0.30779,
				"method": "rhf"
			},
			{
				"type": "occ",
				"energy": -0.30497,
				"method": "rhf"
			},
			{
				"type": "occ",
				"energy": -0.29266,
				"method": "rhf"
			},
			{
				"type": "unocc",
				"energy": -0.10944,
				"method": "rhf"
			},
			{
				"type": "unocc",
				"energy": -0.09875,
				"method": "rhf"
			},
			{
				"type": "unocc",
				"energy": -0.05875,
				"method": "rhf"
			},
			{
				"type": "unocc",
				"energy": -0.0288,
				"method": "rhf"
			},
			{
				"type": "unocc",
				"energy": 0.04208,
				"method": "rhf"
			}
		],
		"cosmo_sigma_profile": { 
			"-0.025": 0.0,
			"-0.024": 0.0,
			"-0.023": 0.0,
			"-0.022": 0.0,
			"-0.021": 0.0,
			"-0.02": 0.0,
			"-0.019": 0.0,
			"-0.018": 0.0,
			"-0.017": 0.0,
			"-0.016": 0.0,
			"-0.015": 0.0,
			"-0.014": 0.0,
			"-0.013": 0.0,
			"-0.012": 0.0,
			"-0.011": 0.0,
			"-0.01": 0.0,
			"-0.009": 0.679180345386,
			"-0.008": 2.30138099082,
			"-0.007": 5.28866214853,
			"-0.006": 12.0627097544,
			"-0.005": 17.8699975483,
			"-0.004": 20.9576966898,
			"-0.003": 25.4063438949,
			"-0.002": 33.4170894369,
			"-0.001": 22.7342407657,
			"0.0": 10.1185946223,
			"0.001": 11.2205209771,
			"0.002": 11.5658891543,
			"0.003": 14.5282757162,
			"0.004": 8.23701038447,
			"0.005": 6.99313375297,
			"0.006": 7.69235844334,
			"0.007": 16.7806551964,
			"0.008": 12.7321273242,
			"0.009": 5.63570400973,
			"0.01": 0.831883137423,
			"0.011": 0.0,
			"0.012": 0.0,
			"0.013": 0.0,
			"0.014": 0.0,
			"0.015": 0.0,
			"0.016": 0.0,
			"0.017": 0.0,
			"0.018": 0.0,
			"0.019": 0.0,
			"0.02": 0.0,
			"0.021": 0.0,
			"0.022": 0.0,
			"0.023": 0.0,
			"0.024": 0.0,
			"0.025": 0.0
		}
	}
}
