{
	 "smiles": "COC1=C(C=C(Cl)C=C1)C1(CN)CCOCC1", 
	 "Tm": 374.15, 
	 "num_atms": 35, 
	 "gaussian": { 
		 "optdone": 1, 
		 "sigma_profile": "yes", 
		 "theory": "DFT", 
		 "functional": "B3LYP", 
		 "basiset": "6-31G**", 
		 "properties": { 
			 "R2extent": 5708.7919, 
			 "electric_dipole_moment_norm": 4.90820056946, 
			 "electric_quadrupole_moment_norm": 13.1622309796, 
			 "total_energy": -1171.59499128, 
			 "HOMO_LUMO_gap": 0.20598, 
			 "cosmo_polarized_energy": -11.34, 
			 "cosmo_cavitation_energy": 36.13, 
			 "cosmo_dispersion_energy": -26.04, 
			 "cosmo_repulsion_energy": 2.04, 
			 "cosmo_total_nonelectrostatic_energy": 12.13, 
			 "SMD_solvation_energy": 5.44 
		},
		"coords": [
			{
				"x": 2.3285244121,
				"y": -2.6540340022,
				"z": -2.3335155923,
				"element": "C" 
			},
			{
				"x": 1.334326631,
				"y": -1.8544087942,
				"z": -1.7122506801,
				"element": "O" 
			},
			{
				"x": 1.1136161249,
				"y": -0.5837054895,
				"z": -2.1767944563,
				"element": "C" 
			},
			{
				"x": 0.0935158478,
				"y": 0.1744102056,
				"z": -1.538289496,
				"element": "C" 
			},
			{
				"x": -0.0899730205,
				"y": 1.4848877338,
				"z": -1.9947539604,
				"element": "C" 
			},
			{
				"x": 0.6660546446,
				"y": 2.0185197057,
				"z": -3.0397095677,
				"element": "C" 
			},
			{
				"x": 0.3701904165,
				"y": 3.6754487625,
				"z": -3.5587662819,
				"element": "Cl" 
			},
			{
				"x": 1.6417654349,
				"y": 1.2625576875,
				"z": -3.6697215453,
				"element": "C" 
			},
			{
				"x": 1.8616632273,
				"y": -0.0425140085,
				"z": -3.2278589445,
				"element": "C" 
			},
			{
				"x": -0.7581206263,
				"y": -0.3865887035,
				"z": -0.3742876609,
				"element": "C" 
			},
			{
				"x": 0.1798529097,
				"y": -0.6210494221,
				"z": 0.8485236534,
				"element": "C" 
			},
			{
				"x": 0.7654197211,
				"y": 0.6385270158,
				"z": 1.3228488484,
				"element": "N" 
			},
			{
				"x": -1.8963587604,
				"y": 0.5935703486,
				"z": 0.0198490061,
				"element": "C" 
			},
			{
				"x": -2.9102472447,
				"y": -0.0271216165,
				"z": 0.9838754045,
				"element": "C" 
			},
			{
				"x": -3.4972738377,
				"y": -1.2087089784,
				"z": 0.4554168621,
				"element": "O" 
			},
			{
				"x": -2.5108957853,
				"y": -2.194482441,
				"z": 0.1948702477,
				"element": "C" 
			},
			{
				"x": -1.450013942,
				"y": -1.7166561768,
				"z": -0.8022872157,
				"element": "C" 
			},
			{
				"x": 2.1075719982,
				"y": -2.8239287629,
				"z": -3.3947354175,
				"element": "H" 
			},
			{
				"x": 2.3144112353,
				"y": -3.6094384556,
				"z": -1.8068785784,
				"element": "H" 
			},
			{
				"x": 3.3262381629,
				"y": -2.2065000992,
				"z": -2.2408945278,
				"element": "H" 
			},
			{
				"x": -0.8361383251,
				"y": 2.1170144247,
				"z": -1.5344683204,
				"element": "H" 
			},
			{
				"x": 2.225539005,
				"y": 1.674861889,
				"z": -4.4849612362,
				"element": "H" 
			},
			{
				"x": 2.6285173526,
				"y": -0.6318334806,
				"z": -3.7146212526,
				"element": "H" 
			},
			{
				"x": 0.9203816258,
				"y": -1.3843650236,
				"z": 0.5732087318,
				"element": "H" 
			},
			{
				"x": -0.4064701403,
				"y": -1.0354473522,
				"z": 1.6744594363,
				"element": "H" 
			},
			{
				"x": 1.4383925701,
				"y": 0.9844641097,
				"z": 0.6431834555,
				"element": "H" 
			},
			{
				"x": 1.2803193266,
				"y": 0.4763757829,
				"z": 2.1839009855,
				"element": "H" 
			},
			{
				"x": -2.446954511,
				"y": 0.8882305469,
				"z": -0.8807387679,
				"element": "H" 
			},
			{
				"x": -1.4737303552,
				"y": 1.4916552081,
				"z": 0.480104076,
				"element": "H" 
			},
			{
				"x": -2.4485190904,
				"y": -0.2383971972,
				"z": 1.9627223712,
				"element": "H" 
			},
			{
				"x": -3.7341891497,
				"y": 0.6718029484,
				"z": 1.1574302223,
				"element": "H" 
			},
			{
				"x": -3.0424619704,
				"y": -3.059723486,
				"z": -0.2142248985,
				"element": "H" 
			},
			{
				"x": -2.0417013332,
				"y": -2.5166630073,
				"z": 1.1406967678,
				"element": "H" 
			},
			{
				"x": -0.7125723142,
				"y": -2.5084730783,
				"z": -0.9482817483,
				"element": "H" 
			},
			{
				"x": -1.94098024,
				"y": -1.5490867935,
				"z": -1.76854992,
				"element": "H" 
			}
		],
		 "valence_orbital": [ 
			{
				"type": "occ",
				"energy": -0.29016,
				"method": "rhf"
			},
			{
				"type": "occ",
				"energy": -0.25794,
				"method": "rhf"
			},
			{
				"type": "occ",
				"energy": -0.2402,
				"method": "rhf"
			},
			{
				"type": "occ",
				"energy": -0.23182,
				"method": "rhf"
			},
			{
				"type": "occ",
				"energy": -0.21927,
				"method": "rhf"
			},
			{
				"type": "unocc",
				"energy": -0.01329,
				"method": "rhf"
			},
			{
				"type": "unocc",
				"energy": -0.00063,
				"method": "rhf"
			},
			{
				"type": "unocc",
				"energy": 0.03487,
				"method": "rhf"
			},
			{
				"type": "unocc",
				"energy": 0.08177,
				"method": "rhf"
			},
			{
				"type": "unocc",
				"energy": 0.09123,
				"method": "rhf"
			}
		],
		"cosmo_sigma_profile": { 
			"-0.025": 0.0,
			"-0.024": 0.0,
			"-0.023": 0.0,
			"-0.022": 0.0,
			"-0.021": 0.0,
			"-0.02": 0.0,
			"-0.019": 0.0,
			"-0.018": 0.0,
			"-0.017": 0.0,
			"-0.016": 0.0,
			"-0.015": 0.0,
			"-0.014": 0.0,
			"-0.013": 0.0,
			"-0.012": 0.0,
			"-0.011": 0.0,
			"-0.01": 0.609253745422,
			"-0.009": 1.58985506176,
			"-0.008": 1.98784935367,
			"-0.007": 5.44460814167,
			"-0.006": 12.004829419,
			"-0.005": 17.6648721706,
			"-0.004": 22.8488773078,
			"-0.003": 28.3741774393,
			"-0.002": 30.232560539,
			"-0.001": 27.6524119909,
			"0.0": 19.6005989254,
			"0.001": 20.3604490226,
			"0.002": 18.3278353449,
			"0.003": 20.9189443171,
			"0.004": 20.6791287251,
			"0.005": 14.244934065,
			"0.006": 4.53285980753,
			"0.007": 1.95919517667,
			"0.008": 1.76956152471,
			"0.009": 2.5651974909,
			"0.01": 1.93803423493,
			"0.011": 1.81306677176,
			"0.012": 1.83835177512,
			"0.013": 2.47990086452,
			"0.014": 2.20524600525,
			"0.015": 0.497656516293,
			"0.016": 0.61687289004,
			"0.017": 0.276910167149,
			"0.018": 0.0062640800111,
			"0.019": 0.0,
			"0.02": 0.0,
			"0.021": 0.0,
			"0.022": 0.0,
			"0.023": 0.0,
			"0.024": 0.0,
			"0.025": 0.0
		}
	}
}
