{
	 "smiles": "CC1=CC2=C(NC=C2C(O)=O)C=C1", 
	 "Tm": 457.15, 
	 "num_atms": 22, 
	 "gaussian": { 
		 "optdone": 1, 
		 "sigma_profile": "yes", 
		 "theory": "DFT", 
		 "functional": "B3LYP", 
		 "basiset": "6-31G**", 
		 "properties": { 
			 "R2extent": 2800.3995, 
			 "electric_dipole_moment_norm": 2.87023387723, 
			 "electric_quadrupole_moment_norm": 17.3570354344, 
			 "total_energy": -591.720452312, 
			 "HOMO_LUMO_gap": 0.18679, 
			 "cosmo_polarized_energy": -14.9, 
			 "cosmo_cavitation_energy": 26.29, 
			 "cosmo_dispersion_energy": -19.53, 
			 "cosmo_repulsion_energy": 1.54, 
			 "cosmo_total_nonelectrostatic_energy": 8.3, 
			 "SMD_solvation_energy": 5.65 
		},
		"coords": [
			{
				"x": 2.1029929905,
				"y": 1.8471780615,
				"z": 2.648824083,
				"element": "C" 
			},
			{
				"x": 1.6405782894,
				"y": 1.7789060165,
				"z": 1.2107300457,
				"element": "C" 
			},
			{
				"x": 0.5797194804,
				"y": 0.9557531583,
				"z": 0.8411909894,
				"element": "C" 
			},
			{
				"x": 0.1668354033,
				"y": 0.9082347426,
				"z": -0.5016411531,
				"element": "C" 
			},
			{
				"x": 0.8470084735,
				"y": 1.7067442832,
				"z": -1.4549759985,
				"element": "C" 
			},
			{
				"x": 0.2525237074,
				"y": 1.4791623195,
				"z": -2.6898797103,
				"element": "N" 
			},
			{
				"x": -0.7639031014,
				"y": 0.5784015946,
				"z": -2.5501788184,
				"element": "C" 
			},
			{
				"x": -0.8617638703,
				"y": 0.1937907693,
				"z": -1.2273125262,
				"element": "C" 
			},
			{
				"x": -1.8632273655,
				"y": -0.7659406776,
				"z": -0.772941336,
				"element": "C" 
			},
			{
				"x": -1.7957158219,
				"y": -1.0127137294,
				"z": 0.5649782546,
				"element": "O" 
			},
			{
				"x": -2.6908437884,
				"y": -1.3121180072,
				"z": -1.482293396,
				"element": "O" 
			},
			{
				"x": 1.9136319751,
				"y": 2.5394559875,
				"z": -1.1058900326,
				"element": "C" 
			},
			{
				"x": 2.2948459846,
				"y": 2.5618606489,
				"z": 0.2287144552,
				"element": "C" 
			},
			{
				"x": 1.5070367192,
				"y": 1.1912461577,
				"z": 3.2890672796,
				"element": "H" 
			},
			{
				"x": 3.1526853984,
				"y": 1.5458921468,
				"z": 2.7475633663,
				"element": "H" 
			},
			{
				"x": 2.0233209253,
				"y": 2.865325797,
				"z": 3.0480875546,
				"element": "H" 
			},
			{
				"x": 0.0679411414,
				"y": 0.3497883952,
				"z": 1.5808559741,
				"element": "H" 
			},
			{
				"x": 0.5272533544,
				"y": 1.9121745551,
				"z": -3.5571512713,
				"element": "H" 
			},
			{
				"x": -1.363939121,
				"y": 0.2558921232,
				"z": -3.3881848949,
				"element": "H" 
			},
			{
				"x": -2.5012322824,
				"y": -1.6562942096,
				"z": 0.7425012217,
				"element": "H" 
			},
			{
				"x": 2.4264538636,
				"y": 3.1465216346,
				"z": -1.8466927582,
				"element": "H" 
			},
			{
				"x": 3.1213976445,
				"y": 3.1999382324,
				"z": 0.5311286715,
				"element": "H" 
			}
		],
		 "valence_orbital": [ 
			{
				"type": "occ",
				"energy": -0.3057,
				"method": "rhf"
			},
			{
				"type": "occ",
				"energy": -0.27936,
				"method": "rhf"
			},
			{
				"type": "occ",
				"energy": -0.26366,
				"method": "rhf"
			},
			{
				"type": "occ",
				"energy": -0.22232,
				"method": "rhf"
			},
			{
				"type": "occ",
				"energy": -0.21268,
				"method": "rhf"
			},
			{
				"type": "unocc",
				"energy": -0.02589,
				"method": "rhf"
			},
			{
				"type": "unocc",
				"energy": 0.00408,
				"method": "rhf"
			},
			{
				"type": "unocc",
				"energy": 0.02452,
				"method": "rhf"
			},
			{
				"type": "unocc",
				"energy": 0.0705,
				"method": "rhf"
			},
			{
				"type": "unocc",
				"energy": 0.09075,
				"method": "rhf"
			}
		],
		"cosmo_sigma_profile": { 
			"-0.025": 0.0,
			"-0.024": 0.0,
			"-0.023": 0.0,
			"-0.022": 0.0,
			"-0.021": 0.0,
			"-0.02": 0.0,
			"-0.019": 0.0,
			"-0.018": 0.18848461927,
			"-0.017": 0.955131786154,
			"-0.016": 3.1803036777,
			"-0.015": 1.91632196728,
			"-0.014": 2.14700174386,
			"-0.013": 1.88365069392,
			"-0.012": 1.82736298973,
			"-0.011": 2.12352545499,
			"-0.01": 2.47734513988,
			"-0.009": 3.60924313474,
			"-0.008": 3.16704770668,
			"-0.007": 3.49363070009,
			"-0.006": 4.66707816301,
			"-0.005": 6.51392895726,
			"-0.004": 10.9893050671,
			"-0.003": 12.7519264823,
			"-0.002": 13.0199824002,
			"-0.001": 14.0782151625,
			"0.0": 16.8500052697,
			"0.001": 14.0975116098,
			"0.002": 13.8600616803,
			"0.003": 15.1081115511,
			"0.004": 16.331546626,
			"0.005": 13.5818534843,
			"0.006": 11.8466682169,
			"0.007": 3.65733354133,
			"0.008": 1.7123759662,
			"0.009": 1.56453887405,
			"0.01": 1.19620051207,
			"0.011": 2.15596624287,
			"0.012": 4.36796742672,
			"0.013": 4.15687683622,
			"0.014": 0.0851175638904,
			"0.015": 0.0,
			"0.016": 0.0,
			"0.017": 0.0,
			"0.018": 0.0,
			"0.019": 0.0,
			"0.02": 0.0,
			"0.021": 0.0,
			"0.022": 0.0,
			"0.023": 0.0,
			"0.024": 0.0,
			"0.025": 0.0
		}
	}
}
