{
	 "smiles": "ClCC(Cl)C=C", 
	 "Tm": 212.15, 
	 "num_atms": 12, 
	 "gaussian": { 
		 "optdone": 1, 
		 "sigma_profile": "yes", 
		 "theory": "DFT", 
		 "functional": "B3LYP", 
		 "basiset": "6-31G**", 
		 "properties": { 
			 "R2extent": 2313.621, 
			 "electric_dipole_moment_norm": 3.21231608968, 
			 "electric_quadrupole_moment_norm": 10.6427941327, 
			 "total_energy": -1076.40491818, 
			 "HOMO_LUMO_gap": 0.25354, 
			 "cosmo_polarized_energy": -7.31, 
			 "cosmo_cavitation_energy": 18.92, 
			 "cosmo_dispersion_energy": -13.95, 
			 "cosmo_repulsion_energy": 1.2, 
			 "cosmo_total_nonelectrostatic_energy": 6.18, 
			 "SMD_solvation_energy": 3.22 
		},
		"coords": [
			{
				"x": 3.7652248252,
				"y": 0.4520438281,
				"z": -1.466051085,
				"element": "Cl" 
			},
			{
				"x": 2.1082843481,
				"y": 0.121638352,
				"z": -0.8294995596,
				"element": "C" 
			},
			{
				"x": 2.0224539083,
				"y": -1.1917621164,
				"z": -0.0666830661,
				"element": "C" 
			},
			{
				"x": 3.0053209247,
				"y": -1.0968157592,
				"z": 1.4854688711,
				"element": "Cl" 
			},
			{
				"x": 0.6246243299,
				"y": -1.6163418576,
				"z": 0.2922692787,
				"element": "C" 
			},
			{
				"x": -0.4967255518,
				"y": -0.9313585662,
				"z": 0.065599106,
				"element": "C" 
			},
			{
				"x": 1.4504840528,
				"y": 0.075115571,
				"z": -1.6991900467,
				"element": "H" 
			},
			{
				"x": 1.8277973212,
				"y": 0.9670261999,
				"z": -0.2011802166,
				"element": "H" 
			},
			{
				"x": 2.5159486153,
				"y": -1.9806410582,
				"z": -0.6399071379,
				"element": "H" 
			},
			{
				"x": 0.5719895146,
				"y": -2.5845012963,
				"z": 0.7853989712,
				"element": "H" 
			},
			{
				"x": -0.5127395344,
				"y": 0.0436114145,
				"z": -0.4117206281,
				"element": "H" 
			},
			{
				"x": -1.4600627537,
				"y": -1.3357147117,
				"z": 0.3593955131,
				"element": "H" 
			}
		],
		 "valence_orbital": [ 
			{
				"type": "occ",
				"energy": -0.31331,
				"method": "rhf"
			},
			{
				"type": "occ",
				"energy": -0.30811,
				"method": "rhf"
			},
			{
				"type": "occ",
				"energy": -0.30119,
				"method": "rhf"
			},
			{
				"type": "occ",
				"energy": -0.29653,
				"method": "rhf"
			},
			{
				"type": "occ",
				"energy": -0.28196,
				"method": "rhf"
			},
			{
				"type": "unocc",
				"energy": -0.02842,
				"method": "rhf"
			},
			{
				"type": "unocc",
				"energy": 0.01103,
				"method": "rhf"
			},
			{
				"type": "unocc",
				"energy": 0.04256,
				"method": "rhf"
			},
			{
				"type": "unocc",
				"energy": 0.09839,
				"method": "rhf"
			},
			{
				"type": "unocc",
				"energy": 0.10556,
				"method": "rhf"
			}
		],
		"cosmo_sigma_profile": { 
			"-0.025": 0.0,
			"-0.024": 0.0,
			"-0.023": 0.0,
			"-0.022": 0.0,
			"-0.021": 0.0,
			"-0.02": 0.0,
			"-0.019": 0.0,
			"-0.018": 0.0,
			"-0.017": 0.0,
			"-0.016": 0.0,
			"-0.015": 0.0,
			"-0.014": 0.0,
			"-0.013": 0.0,
			"-0.012": 0.0,
			"-0.011": 0.0,
			"-0.01": 0.0,
			"-0.009": 0.458783022939,
			"-0.008": 7.36741071907,
			"-0.007": 10.2244627527,
			"-0.006": 11.0881036908,
			"-0.005": 9.14515416129,
			"-0.004": 8.80381937779,
			"-0.003": 7.35608593684,
			"-0.002": 6.20616085203,
			"-0.001": 8.07455712284,
			"0.0": 8.52353570936,
			"0.001": 8.72363325581,
			"0.002": 9.20285323907,
			"0.003": 10.3048064768,
			"0.004": 9.50465087031,
			"0.005": 15.0646213695,
			"0.006": 17.8944841117,
			"0.007": 5.46107580253,
			"0.008": 0.778789650532,
			"0.009": 0.0,
			"0.01": 0.0,
			"0.011": 0.0,
			"0.012": 0.0,
			"0.013": 0.0,
			"0.014": 0.0,
			"0.015": 0.0,
			"0.016": 0.0,
			"0.017": 0.0,
			"0.018": 0.0,
			"0.019": 0.0,
			"0.02": 0.0,
			"0.021": 0.0,
			"0.022": 0.0,
			"0.023": 0.0,
			"0.024": 0.0,
			"0.025": 0.0
		}
	}
}
