{
	 "smiles": "CNC(=O)C1=CC(N)=C(C)C=C1", 
	 "Tm": 441.15, 
	 "num_atms": 24, 
	 "gaussian": { 
		 "optdone": 1, 
		 "sigma_profile": "yes", 
		 "theory": "DFT", 
		 "functional": "B3LYP", 
		 "basiset": "6-31G**", 
		 "properties": { 
			 "R2extent": 2772.6897, 
			 "electric_dipole_moment_norm": 4.2730487348, 
			 "electric_quadrupole_moment_norm": 18.6267004837, 
			 "total_energy": -534.938302045, 
			 "HOMO_LUMO_gap": 0.18486, 
			 "cosmo_polarized_energy": -16.23, 
			 "cosmo_cavitation_energy": 27.16, 
			 "cosmo_dispersion_energy": -19.79, 
			 "cosmo_repulsion_energy": 1.6, 
			 "cosmo_total_nonelectrostatic_energy": 8.97, 
			 "SMD_solvation_energy": 4.89 
		},
		"coords": [
			{
				"x": -1.1086560395,
				"y": -1.4711453215,
				"z": -1.6908550028,
				"element": "C" 
			},
			{
				"x": -2.0998541619,
				"y": -1.4276867563,
				"z": -0.6245431399,
				"element": "N" 
			},
			{
				"x": -2.3772911509,
				"y": -0.3946061617,
				"z": 0.2437396351,
				"element": "C" 
			},
			{
				"x": -3.4809624361,
				"y": -0.309950768,
				"z": 0.7757107151,
				"element": "O" 
			},
			{
				"x": -1.2904833125,
				"y": 0.59488079,
				"z": 0.5541941136,
				"element": "C" 
			},
			{
				"x": 0.0461349376,
				"y": 0.217655242,
				"z": 0.7227634825,
				"element": "C" 
			},
			{
				"x": 1.0230520344,
				"y": 1.1553319882,
				"z": 1.0881700768,
				"element": "C" 
			},
			{
				"x": 2.3629533142,
				"y": 0.7670634426,
				"z": 1.2085732304,
				"element": "N" 
			},
			{
				"x": 0.6552886648,
				"y": 2.5076445684,
				"z": 1.274960934,
				"element": "C" 
			},
			{
				"x": 1.6981134791,
				"y": 3.533576194,
				"z": 1.6402436325,
				"element": "C" 
			},
			{
				"x": -0.6882203527,
				"y": 2.8604241523,
				"z": 1.116356032,
				"element": "C" 
			},
			{
				"x": -1.6620242111,
				"y": 1.9257172395,
				"z": 0.774504307,
				"element": "C" 
			},
			{
				"x": -0.3879256918,
				"y": -2.2863798788,
				"z": -1.5487116489,
				"element": "H" 
			},
			{
				"x": -1.5988868524,
				"y": -1.6160951254,
				"z": -2.660295589,
				"element": "H" 
			},
			{
				"x": -0.5577446676,
				"y": -0.5315725266,
				"z": -1.7287457793,
				"element": "H" 
			},
			{
				"x": -2.9044175613,
				"y": -2.0328296334,
				"z": -0.7308048834,
				"element": "H" 
			},
			{
				"x": 0.3355958355,
				"y": -0.8227648823,
				"z": 0.5989657966,
				"element": "H" 
			},
			{
				"x": 2.9079870757,
				"y": 1.3011297626,
				"z": 1.8716860175,
				"element": "H" 
			},
			{
				"x": 2.4998184369,
				"y": -0.2265551816,
				"z": 1.3374963536,
				"element": "H" 
			},
			{
				"x": 2.5170058388,
				"y": 3.5506051994,
				"z": 0.9103459721,
				"element": "H" 
			},
			{
				"x": 2.1489746564,
				"y": 3.3315849306,
				"z": 2.6228010091,
				"element": "H" 
			},
			{
				"x": 1.2645004175,
				"y": 4.5355135924,
				"z": 1.6858013483,
				"element": "H" 
			},
			{
				"x": -0.9739181985,
				"y": 3.8980531137,
				"z": 1.2715350459,
				"element": "H" 
			},
			{
				"x": -2.7050400546,
				"y": 2.2061060199,
				"z": 0.6816083412,
				"element": "H" 
			}
		],
		 "valence_orbital": [ 
			{
				"type": "occ",
				"energy": -0.30744,
				"method": "rhf"
			},
			{
				"type": "occ",
				"energy": -0.24905,
				"method": "rhf"
			},
			{
				"type": "occ",
				"energy": -0.2435,
				"method": "rhf"
			},
			{
				"type": "occ",
				"energy": -0.23208,
				"method": "rhf"
			},
			{
				"type": "occ",
				"energy": -0.20362,
				"method": "rhf"
			},
			{
				"type": "unocc",
				"energy": -0.01876,
				"method": "rhf"
			},
			{
				"type": "unocc",
				"energy": 0.01269,
				"method": "rhf"
			},
			{
				"type": "unocc",
				"energy": 0.06612,
				"method": "rhf"
			},
			{
				"type": "unocc",
				"energy": 0.07196,
				"method": "rhf"
			},
			{
				"type": "unocc",
				"energy": 0.08888,
				"method": "rhf"
			}
		],
		"cosmo_sigma_profile": { 
			"-0.025": 0.0,
			"-0.024": 0.0,
			"-0.023": 0.0,
			"-0.022": 0.0,
			"-0.021": 0.0,
			"-0.02": 0.0,
			"-0.019": 0.0,
			"-0.018": 0.0,
			"-0.017": 0.0,
			"-0.016": 0.0,
			"-0.015": 0.0,
			"-0.014": 0.0,
			"-0.013": 0.700243722948,
			"-0.012": 3.07196951958,
			"-0.011": 3.66240375051,
			"-0.01": 3.66287202049,
			"-0.009": 4.44769401754,
			"-0.008": 4.45891596083,
			"-0.007": 4.17852914284,
			"-0.006": 4.41220823363,
			"-0.005": 12.2372691892,
			"-0.004": 17.8584668751,
			"-0.003": 19.9353962098,
			"-0.002": 20.5141524954,
			"-0.001": 16.683980005,
			"0.0": 15.5683315004,
			"0.001": 10.4634134881,
			"0.002": 8.28311698087,
			"0.003": 8.74952968611,
			"0.004": 8.96270504895,
			"0.005": 10.8569623656,
			"0.006": 7.82575481085,
			"0.007": 3.72536354932,
			"0.008": 2.34983364,
			"0.009": 2.3852027869,
			"0.01": 1.8960855523,
			"0.011": 2.31822348394,
			"0.012": 2.5300875994,
			"0.013": 3.42308390597,
			"0.014": 6.407414621,
			"0.015": 2.34270141472,
			"0.016": 0.0199233466899,
			"0.017": 0.0,
			"0.018": 0.0,
			"0.019": 0.0,
			"0.02": 0.0,
			"0.021": 0.0,
			"0.022": 0.0,
			"0.023": 0.0,
			"0.024": 0.0,
			"0.025": 0.0
		}
	}
}
