{
	 "smiles": "COC1=CC=C(CCCCO)C=C1", 
	 "Tm": 276.65, 
	 "num_atms": 29, 
	 "gaussian": { 
		 "optdone": 1, 
		 "sigma_profile": "yes", 
		 "theory": "DFT", 
		 "functional": "B3LYP", 
		 "basiset": "6-31G**", 
		 "properties": { 
			 "R2extent": 4608.1659, 
			 "electric_dipole_moment_norm": 2.74540062468, 
			 "electric_quadrupole_moment_norm": 14.7148886442, 
			 "total_energy": -579.249342232, 
			 "HOMO_LUMO_gap": 0.21121, 
			 "cosmo_polarized_energy": -10.13, 
			 "cosmo_cavitation_energy": 31.67, 
			 "cosmo_dispersion_energy": -22.57, 
			 "cosmo_repulsion_energy": 1.83, 
			 "cosmo_total_nonelectrostatic_energy": 10.93, 
			 "SMD_solvation_energy": 5.68 
		},
		"coords": [
			{
				"x": 1.5052198135,
				"y": -1.6607836306,
				"z": 2.9395502602,
				"element": "C" 
			},
			{
				"x": 0.1710463991,
				"y": -1.771269392,
				"z": 2.4736954634,
				"element": "O" 
			},
			{
				"x": -0.1672881946,
				"y": -1.113975747,
				"z": 1.3239245673,
				"element": "C" 
			},
			{
				"x": -1.4962363711,
				"y": -1.2619665633,
				"z": 0.903919227,
				"element": "C" 
			},
			{
				"x": -1.935477076,
				"y": -0.633033935,
				"z": -0.2556865313,
				"element": "C" 
			},
			{
				"x": -1.0758072671,
				"y": 0.1603203691,
				"z": -1.0323744058,
				"element": "C" 
			},
			{
				"x": -1.5578950561,
				"y": 0.8648144819,
				"z": -2.2841634779,
				"element": "C" 
			},
			{
				"x": -1.8397076796,
				"y": 2.3722427709,
				"z": -2.0956845501,
				"element": "C" 
			},
			{
				"x": -3.0046664265,
				"y": 2.6783354121,
				"z": -1.1476813438,
				"element": "C" 
			},
			{
				"x": -3.2397915047,
				"y": 4.1774466656,
				"z": -0.9553378358,
				"element": "C" 
			},
			{
				"x": -4.3548751003,
				"y": 4.4623616011,
				"z": -0.1202001012,
				"element": "O" 
			},
			{
				"x": 0.2472800437,
				"y": 0.2916912789,
				"z": -0.5980228113,
				"element": "C" 
			},
			{
				"x": 0.7100410862,
				"y": -0.3311638349,
				"z": 0.5642385801,
				"element": "C" 
			},
			{
				"x": 1.7715042864,
				"y": -0.6204195555,
				"z": 3.1685177308,
				"element": "H" 
			},
			{
				"x": 1.5560035591,
				"y": -2.2524065974,
				"z": 3.8551166284,
				"element": "H" 
			},
			{
				"x": 2.2244128823,
				"y": -2.0607426883,
				"z": 2.2126645321,
				"element": "H" 
			},
			{
				"x": -2.1627547818,
				"y": -1.8773865529,
				"z": 1.4996335672,
				"element": "H" 
			},
			{
				"x": -2.9682625955,
				"y": -0.7647284111,
				"z": -0.5693086076,
				"element": "H" 
			},
			{
				"x": -2.4683998651,
				"y": 0.3751873875,
				"z": -2.6515357915,
				"element": "H" 
			},
			{
				"x": -0.8066778061,
				"y": 0.7514300522,
				"z": -3.075792489,
				"element": "H" 
			},
			{
				"x": -2.0480802762,
				"y": 2.8134393316,
				"z": -3.0797756,
				"element": "H" 
			},
			{
				"x": -0.9276664229,
				"y": 2.8607842959,
				"z": -1.7262163234,
				"element": "H" 
			},
			{
				"x": -2.8105534411,
				"y": 2.2177982793,
				"z": -0.1689474709,
				"element": "H" 
			},
			{
				"x": -3.9303480127,
				"y": 2.2271352788,
				"z": -1.5279883144,
				"element": "H" 
			},
			{
				"x": -2.3212308424,
				"y": 4.6533743665,
				"z": -0.5718787174,
				"element": "H" 
			},
			{
				"x": -3.4652733042,
				"y": 4.6510923578,
				"z": -1.9175442657,
				"element": "H" 
			},
			{
				"x": -4.1786961745,
				"y": 4.0676898272,
				"z": 0.7437710311,
				"element": "H" 
			},
			{
				"x": 0.9436734423,
				"y": 0.890494298,
				"z": -1.181163965,
				"element": "H" 
			},
			{
				"x": 1.745206686,
				"y": -0.2052611462,
				"z": 0.8593710142,
				"element": "H" 
			}
		],
		 "valence_orbital": [ 
			{
				"type": "occ",
				"energy": -0.31399,
				"method": "rhf"
			},
			{
				"type": "occ",
				"energy": -0.30712,
				"method": "rhf"
			},
			{
				"type": "occ",
				"energy": -0.25836,
				"method": "rhf"
			},
			{
				"type": "occ",
				"energy": -0.24837,
				"method": "rhf"
			},
			{
				"type": "occ",
				"energy": -0.21218,
				"method": "rhf"
			},
			{
				"type": "unocc",
				"energy": -0.00097,
				"method": "rhf"
			},
			{
				"type": "unocc",
				"energy": 0.01412,
				"method": "rhf"
			},
			{
				"type": "unocc",
				"energy": 0.08325,
				"method": "rhf"
			},
			{
				"type": "unocc",
				"energy": 0.08974,
				"method": "rhf"
			},
			{
				"type": "unocc",
				"energy": 0.10052,
				"method": "rhf"
			}
		],
		"cosmo_sigma_profile": { 
			"-0.025": 0.0,
			"-0.024": 0.0,
			"-0.023": 0.0,
			"-0.022": 0.0,
			"-0.021": 0.0,
			"-0.02": 0.0,
			"-0.019": 0.0,
			"-0.018": 0.0,
			"-0.017": 0.0,
			"-0.016": 0.0,
			"-0.015": 0.53773995917,
			"-0.014": 1.06023378732,
			"-0.013": 0.822473458987,
			"-0.012": 0.516548107635,
			"-0.011": 1.7691186919,
			"-0.01": 0.700320521112,
			"-0.009": 0.351606767161,
			"-0.008": 0.668725214533,
			"-0.007": 1.29056752754,
			"-0.006": 5.40588455648,
			"-0.005": 15.8356379673,
			"-0.004": 18.8794083288,
			"-0.003": 30.7075961022,
			"-0.002": 32.4314407342,
			"-0.001": 26.5094124714,
			"0.0": 20.4896431632,
			"0.001": 14.4715902436,
			"0.002": 9.71575523243,
			"0.003": 9.97876559228,
			"0.004": 11.7852065626,
			"0.005": 10.9192021298,
			"0.006": 11.6098007186,
			"0.007": 3.74002632517,
			"0.008": 2.48731646187,
			"0.009": 2.62416650371,
			"0.01": 2.82440253123,
			"0.011": 2.20860026887,
			"0.012": 1.25140062012,
			"0.013": 1.58521454293,
			"0.014": 2.31734837981,
			"0.015": 1.79935595004,
			"0.016": 0.0208429909782,
			"0.017": 0.0,
			"0.018": 0.0,
			"0.019": 0.0,
			"0.02": 0.0,
			"0.021": 0.0,
			"0.022": 0.0,
			"0.023": 0.0,
			"0.024": 0.0,
			"0.025": 0.0
		}
	}
}
