{
	 "smiles": "F[Si](C1=CC=CC=C1)(C1=CC=CC=C1)C1=CC=CC=C1", 
	 "Tm": 530.15, 
	 "num_atms": 35, 
	 "gaussian": { 
		 "optdone": 1, 
		 "sigma_profile": "yes", 
		 "theory": "DFT", 
		 "functional": "B3LYP", 
		 "basiset": "6-31G**", 
		 "properties": { 
			 "R2extent": 6722.599, 
			 "electric_dipole_moment_norm": 1.98574610915, 
			 "electric_quadrupole_moment_norm": 10.9692541351, 
			 "total_energy": -1084.38260505, 
			 "HOMO_LUMO_gap": 0.22037, 
			 "cosmo_polarized_energy": -8.22, 
			 "cosmo_cavitation_energy": 40.74, 
			 "cosmo_dispersion_energy": -26.14, 
			 "cosmo_repulsion_energy": 2.07, 
			 "cosmo_total_nonelectrostatic_energy": 16.67, 
			 "SMD_solvation_energy": 7.36 
		},
		"coords": [
			{
				"x": -0.0847050329,
				"y": 0.7434391595,
				"z": -2.2299719641,
				"element": "F" 
			},
			{
				"x": -0.3073129232,
				"y": -0.3691820888,
				"z": -1.0563507924,
				"element": "Si" 
			},
			{
				"x": -0.7629574684,
				"y": -1.9788071821,
				"z": -1.9028824155,
				"element": "C" 
			},
			{
				"x": -1.8547782547,
				"y": -2.024151638,
				"z": -2.7928627258,
				"element": "C" 
			},
			{
				"x": -2.2153316501,
				"y": -3.2093933171,
				"z": -3.433462604,
				"element": "C" 
			},
			{
				"x": -1.4917156646,
				"y": -4.3801352018,
				"z": -3.1932533225,
				"element": "C" 
			},
			{
				"x": -0.4085800883,
				"y": -4.3589150161,
				"z": -2.3137885501,
				"element": "C" 
			},
			{
				"x": -0.0487338935,
				"y": -3.1691840983,
				"z": -1.6771787645,
				"element": "C" 
			},
			{
				"x": -1.6966636788,
				"y": 0.2615077233,
				"z": 0.0331851277,
				"element": "C" 
			},
			{
				"x": -1.6478275583,
				"y": 1.5688792975,
				"z": 0.556877745,
				"element": "C" 
			},
			{
				"x": -2.664977727,
				"y": 2.0562236396,
				"z": 1.3774220382,
				"element": "C" 
			},
			{
				"x": -3.7546802133,
				"y": 1.2420442801,
				"z": 1.6960278981,
				"element": "C" 
			},
			{
				"x": -3.8229094454,
				"y": -0.0564635823,
				"z": 1.1895963186,
				"element": "C" 
			},
			{
				"x": -2.8040815466,
				"y": -0.5392805945,
				"z": 0.3655692074,
				"element": "C" 
			},
			{
				"x": 1.3108439599,
				"y": -0.5033213693,
				"z": -0.1189263802,
				"element": "C" 
			},
			{
				"x": 1.3775555915,
				"y": -0.3356018351,
				"z": 1.275851761,
				"element": "C" 
			},
			{
				"x": 2.5908007314,
				"y": -0.4434612862,
				"z": 1.9588564594,
				"element": "C" 
			},
			{
				"x": 3.7649261962,
				"y": -0.7191511551,
				"z": 1.2569847222,
				"element": "C" 
			},
			{
				"x": 3.7230049173,
				"y": -0.8876369966,
				"z": -0.1292804463,
				"element": "C" 
			},
			{
				"x": 2.5085978014,
				"y": -0.7822965299,
				"z": -0.8071420253,
				"element": "C" 
			},
			{
				"x": -2.4296494818,
				"y": -1.1223806338,
				"z": -2.9903301555,
				"element": "H" 
			},
			{
				"x": -3.0583607967,
				"y": -3.2211573622,
				"z": -4.118807629,
				"element": "H" 
			},
			{
				"x": -1.771822325,
				"y": -5.3046677252,
				"z": -3.6906835295,
				"element": "H" 
			},
			{
				"x": 0.1573112801,
				"y": -5.267044145,
				"z": -2.1249075916,
				"element": "H" 
			},
			{
				"x": 0.8008413167,
				"y": -3.1667021083,
				"z": -0.9999902951,
				"element": "H" 
			},
			{
				"x": -0.8076484836,
				"y": 2.2165561501,
				"z": 0.3177219358,
				"element": "H" 
			},
			{
				"x": -2.6094024146,
				"y": 3.068872356,
				"z": 1.7672955938,
				"element": "H" 
			},
			{
				"x": -4.5476305103,
				"y": 1.619906736,
				"z": 2.3356425261,
				"element": "H" 
			},
			{
				"x": -4.6697435655,
				"y": -0.6921601231,
				"z": 1.433257519,
				"element": "H" 
			},
			{
				"x": -2.8749324014,
				"y": -1.54951409,
				"z": -0.0280733396,
				"element": "H" 
			},
			{
				"x": 0.4727168115,
				"y": -0.1132979613,
				"z": 1.8346936006,
				"element": "H" 
			},
			{
				"x": 2.6194588782,
				"y": -0.3098901547,
				"z": 3.0367905508,
				"element": "H" 
			},
			{
				"x": 4.71000008,
				"y": -0.8015996369,
				"z": 1.7867871193,
				"element": "H" 
			},
			{
				"x": 4.6352948687,
				"y": -1.0998157329,
				"z": -0.6799636176,
				"element": "H" 
			},
			{
				"x": 2.494092691,
				"y": -0.9160177776,
				"z": -1.8863039744,
				"element": "H" 
			}
		],
		 "valence_orbital": [ 
			{
				"type": "occ",
				"energy": -0.25371,
				"method": "rhf"
			},
			{
				"type": "occ",
				"energy": -0.25327,
				"method": "rhf"
			},
			{
				"type": "occ",
				"energy": -0.25322,
				"method": "rhf"
			},
			{
				"type": "occ",
				"energy": -0.25005,
				"method": "rhf"
			},
			{
				"type": "occ",
				"energy": -0.24983,
				"method": "rhf"
			},
			{
				"type": "unocc",
				"energy": -0.02946,
				"method": "rhf"
			},
			{
				"type": "unocc",
				"energy": -0.01409,
				"method": "rhf"
			},
			{
				"type": "unocc",
				"energy": -0.01345,
				"method": "rhf"
			},
			{
				"type": "unocc",
				"energy": -0.00898,
				"method": "rhf"
			},
			{
				"type": "unocc",
				"energy": 0.00042,
				"method": "rhf"
			}
		],
		"cosmo_sigma_profile": { 
			"-0.025": 0.0,
			"-0.024": 0.0,
			"-0.023": 0.0,
			"-0.022": 0.0,
			"-0.021": 0.0,
			"-0.02": 0.0,
			"-0.019": 0.0,
			"-0.018": 0.0,
			"-0.017": 0.0,
			"-0.016": 0.0,
			"-0.015": 0.0,
			"-0.014": 0.0,
			"-0.013": 0.0,
			"-0.012": 0.0,
			"-0.011": 0.0,
			"-0.01": 0.0,
			"-0.009": 0.0,
			"-0.008": 0.0,
			"-0.007": 0.16537304083,
			"-0.006": 15.9994913705,
			"-0.005": 27.506098426,
			"-0.004": 33.441068965,
			"-0.003": 27.203132196,
			"-0.002": 24.705442113,
			"-0.001": 25.3499186325,
			"0.0": 24.5756732795,
			"0.001": 21.5515971133,
			"0.002": 21.4794028757,
			"0.003": 23.9489276389,
			"0.004": 27.3889766111,
			"0.005": 29.8212315243,
			"0.006": 9.25430990037,
			"0.007": 7.53903314914,
			"0.008": 2.46685554075,
			"0.009": 0.0,
			"0.01": 0.0,
			"0.011": 0.0,
			"0.012": 0.0,
			"0.013": 0.0,
			"0.014": 0.0,
			"0.015": 0.0,
			"0.016": 0.0,
			"0.017": 0.0,
			"0.018": 0.0,
			"0.019": 0.0,
			"0.02": 0.0,
			"0.021": 0.0,
			"0.022": 0.0,
			"0.023": 0.0,
			"0.024": 0.0,
			"0.025": 0.0
		}
	}
}
