{
	 "smiles": "CC(C)(C)OC(=O)NC(C(O)=O)C(C)(C)C", 
	 "Tm": 391.15, 
	 "num_atms": 37, 
	 "gaussian": { 
		 "optdone": 1, 
		 "sigma_profile": "yes", 
		 "theory": "DFT", 
		 "functional": "B3LYP", 
		 "basiset": "6-31G**", 
		 "properties": { 
			 "R2extent": 4612.464, 
			 "electric_dipole_moment_norm": 1.28458480063, 
			 "electric_quadrupole_moment_norm": 15.7132575455, 
			 "total_energy": -787.533583592, 
			 "HOMO_LUMO_gap": 0.24734, 
			 "cosmo_polarized_energy": -14.58, 
			 "cosmo_cavitation_energy": 37.34, 
			 "cosmo_dispersion_energy": -24.24, 
			 "cosmo_repulsion_energy": 1.86, 
			 "cosmo_total_nonelectrostatic_energy": 14.97, 
			 "SMD_solvation_energy": 8.42 
		},
		"coords": [
			{
				"x": 2.8436049144,
				"y": -0.6960034765,
				"z": 1.1871379347,
				"element": "C" 
			},
			{
				"x": 2.7294315464,
				"y": 0.2552258532,
				"z": -0.0081365752,
				"element": "C" 
			},
			{
				"x": 2.4842375353,
				"y": 1.6921861332,
				"z": 0.4586350825,
				"element": "C" 
			},
			{
				"x": 3.9496146042,
				"y": 0.1777088938,
				"z": -0.9314727885,
				"element": "C" 
			},
			{
				"x": 1.5077188414,
				"y": -0.0454527717,
				"z": -0.7768990827,
				"element": "O" 
			},
			{
				"x": 1.3475511485,
				"y": -1.2336946369,
				"z": -1.3989664403,
				"element": "C" 
			},
			{
				"x": 2.0899055432,
				"y": -2.1988317708,
				"z": -1.3250524449,
				"element": "O" 
			},
			{
				"x": 0.1979137386,
				"y": -1.2440272897,
				"z": -2.1501999701,
				"element": "N" 
			},
			{
				"x": -0.7033595396,
				"y": -0.1389076718,
				"z": -2.4755236117,
				"element": "C" 
			},
			{
				"x": 0.0843349906,
				"y": 1.1602957493,
				"z": -2.7130283183,
				"element": "C" 
			},
			{
				"x": 1.07836601,
				"y": 0.9565320837,
				"z": -3.6102204362,
				"element": "O" 
			},
			{
				"x": -0.1515481401,
				"y": 2.2547205538,
				"z": -2.2527634511,
				"element": "O" 
			},
			{
				"x": -1.9536133047,
				"y": -0.0142258782,
				"z": -1.5437293886,
				"element": "C" 
			},
			{
				"x": -1.5852828772,
				"y": 0.4099541307,
				"z": -0.1105844977,
				"element": "C" 
			},
			{
				"x": -2.640110158,
				"y": -1.3956278531,
				"z": -1.5006664874,
				"element": "C" 
			},
			{
				"x": -2.9432111023,
				"y": 0.999794819,
				"z": -2.1563337293,
				"element": "C" 
			},
			{
				"x": 3.6915906926,
				"y": -0.3969189599,
				"z": 1.812027991,
				"element": "H" 
			},
			{
				"x": 1.9378459827,
				"y": -0.6465700238,
				"z": 1.7996552637,
				"element": "H" 
			},
			{
				"x": 2.9919531655,
				"y": -1.7236502188,
				"z": 0.8555041052,
				"element": "H" 
			},
			{
				"x": 1.5983984144,
				"y": 1.7446391736,
				"z": 1.0976806681,
				"element": "H" 
			},
			{
				"x": 2.3263262566,
				"y": 2.3572613441,
				"z": -0.3947648083,
				"element": "H" 
			},
			{
				"x": 3.3457571461,
				"y": 2.0513389968,
				"z": 1.0295012429,
				"element": "H" 
			},
			{
				"x": 4.1130027232,
				"y": -0.8430336227,
				"z": -1.2784741187,
				"element": "H" 
			},
			{
				"x": 3.8084513394,
				"y": 0.8280515674,
				"z": -1.8004976561,
				"element": "H" 
			},
			{
				"x": 4.8405792696,
				"y": 0.5157590533,
				"z": -0.3927479229,
				"element": "H" 
			},
			{
				"x": 0.0902764021,
				"y": -2.1040680832,
				"z": -2.6648629926,
				"element": "H" 
			},
			{
				"x": -1.095448521,
				"y": -0.3824595562,
				"z": -3.4732372717,
				"element": "H" 
			},
			{
				"x": 1.5100728038,
				"y": 1.8192126394,
				"z": -3.727115381,
				"element": "H" 
			},
			{
				"x": -1.1129959104,
				"y": 1.3937641518,
				"z": -0.0990332301,
				"element": "H" 
			},
			{
				"x": -2.4918862076,
				"y": 0.4535411906,
				"z": 0.5032759639,
				"element": "H" 
			},
			{
				"x": -0.9014065738,
				"y": -0.3064629372,
				"z": 0.3521967959,
				"element": "H" 
			},
			{
				"x": -1.9927948824,
				"y": -2.1540144058,
				"z": -1.0514499771,
				"element": "H" 
			},
			{
				"x": -3.5555061961,
				"y": -1.3385719813,
				"z": -0.9030892853,
				"element": "H" 
			},
			{
				"x": -2.9235741332,
				"y": -1.7374609968,
				"z": -2.5043578139,
				"element": "H" 
			},
			{
				"x": -2.5297143197,
				"y": 2.009124324,
				"z": -2.1695095467,
				"element": "H" 
			},
			{
				"x": -3.2141397096,
				"y": 0.7216897912,
				"z": -3.1827987048,
				"element": "H" 
			},
			{
				"x": -3.8674414931,
				"y": 1.0153816853,
				"z": -1.5690991165,
				"element": "H" 
			}
		],
		 "valence_orbital": [ 
			{
				"type": "occ",
				"energy": -0.3215,
				"method": "rhf"
			},
			{
				"type": "occ",
				"energy": -0.28958,
				"method": "rhf"
			},
			{
				"type": "occ",
				"energy": -0.28195,
				"method": "rhf"
			},
			{
				"type": "occ",
				"energy": -0.26386,
				"method": "rhf"
			},
			{
				"type": "occ",
				"energy": -0.25059,
				"method": "rhf"
			},
			{
				"type": "unocc",
				"energy": -0.00325,
				"method": "rhf"
			},
			{
				"type": "unocc",
				"energy": 0.05228,
				"method": "rhf"
			},
			{
				"type": "unocc",
				"energy": 0.06054,
				"method": "rhf"
			},
			{
				"type": "unocc",
				"energy": 0.07202,
				"method": "rhf"
			},
			{
				"type": "unocc",
				"energy": 0.09196,
				"method": "rhf"
			}
		],
		"cosmo_sigma_profile": { 
			"-0.025": 0.0,
			"-0.024": 0.0,
			"-0.023": 0.0,
			"-0.022": 0.0,
			"-0.021": 0.0,
			"-0.02": 0.0,
			"-0.019": 0.0,
			"-0.018": 0.479464404558,
			"-0.017": 1.00639049338,
			"-0.016": 0.973467084715,
			"-0.015": 0.469208528848,
			"-0.014": 1.21358716212,
			"-0.013": 2.33339544164,
			"-0.012": 1.04566917085,
			"-0.011": 1.90088829833,
			"-0.01": 2.18929697951,
			"-0.009": 1.56315413021,
			"-0.008": 2.26989658217,
			"-0.007": 4.71582050231,
			"-0.006": 4.40554977201,
			"-0.005": 5.3536203555,
			"-0.004": 14.6690020891,
			"-0.003": 23.2597152983,
			"-0.002": 32.7059392318,
			"-0.001": 31.0464543511,
			"0.0": 40.1978517147,
			"0.001": 39.8024995872,
			"0.002": 19.8605637977,
			"0.003": 8.15016419596,
			"0.004": 6.52454953444,
			"0.005": 6.68728682108,
			"0.006": 6.94024557643,
			"0.007": 4.80828546756,
			"0.008": 4.09774174174,
			"0.009": 4.220839446,
			"0.01": 2.81923027556,
			"0.011": 4.10401284528,
			"0.012": 3.36754819555,
			"0.013": 3.33218216822,
			"0.014": 1.87604093709,
			"0.015": 0.0,
			"0.016": 0.0,
			"0.017": 0.0,
			"0.018": 0.0,
			"0.019": 0.0,
			"0.02": 0.0,
			"0.021": 0.0,
			"0.022": 0.0,
			"0.023": 0.0,
			"0.024": 0.0,
			"0.025": 0.0
		}
	}
}
