{
	 "smiles": "CC(C)(C)OC(=O)N1CC(CC(O)=O)C1", 
	 "Tm": 383.15, 
	 "num_atms": 32, 
	 "gaussian": { 
		 "optdone": 1, 
		 "sigma_profile": "yes", 
		 "theory": "DFT", 
		 "functional": "B3LYP", 
		 "basiset": "6-31G**", 
		 "properties": { 
			 "R2extent": 5647.8602, 
			 "electric_dipole_moment_norm": 5.39976732925, 
			 "electric_quadrupole_moment_norm": 22.1243241974, 
			 "total_energy": -746.97214525, 
			 "HOMO_LUMO_gap": 0.24108, 
			 "cosmo_polarized_energy": -20.88, 
			 "cosmo_cavitation_energy": 34.76, 
			 "cosmo_dispersion_energy": -24.1, 
			 "cosmo_repulsion_energy": 1.93, 
			 "cosmo_total_nonelectrostatic_energy": 12.59, 
			 "SMD_solvation_energy": 6.65 
		},
		"coords": [
			{
				"x": -1.2353690488,
				"y": -1.7382444874,
				"z": -3.2034586202,
				"element": "C" 
			},
			{
				"x": -1.7290825745,
				"y": -1.571908797,
				"z": -1.7638912023,
				"element": "C" 
			},
			{
				"x": -3.2131926245,
				"y": -1.1897431733,
				"z": -1.7384162906,
				"element": "C" 
			},
			{
				"x": -1.4415936132,
				"y": -2.8323314647,
				"z": -0.940723055,
				"element": "C" 
			},
			{
				"x": -0.912297864,
				"y": -0.4527445151,
				"z": -1.2716619679,
				"element": "O" 
			},
			{
				"x": -1.0500146538,
				"y": -0.0001623385,
				"z": -0.0001287849,
				"element": "C" 
			},
			{
				"x": -1.8293975315,
				"y": -0.4116496847,
				"z": 0.8452844071,
				"element": "O" 
			},
			{
				"x": -0.1540714467,
				"y": 1.004536032,
				"z": 0.229757693,
				"element": "N" 
			},
			{
				"x": -0.23193794,
				"y": 1.9980092911,
				"z": 1.3076591142,
				"element": "C" 
			},
			{
				"x": 0.6293830299,
				"y": 2.9542040453,
				"z": 0.4293955843,
				"element": "C" 
			},
			{
				"x": 2.0395045475,
				"y": 3.2211619234,
				"z": 0.939177032,
				"element": "C" 
			},
			{
				"x": 2.0467529108,
				"y": 4.1127404477,
				"z": 2.1759866442,
				"element": "C" 
			},
			{
				"x": 3.2743351588,
				"y": 4.3972678454,
				"z": 2.6870102971,
				"element": "O" 
			},
			{
				"x": 1.0555806222,
				"y": 4.5583799009,
				"z": 2.6976110053,
				"element": "O" 
			},
			{
				"x": 0.5230276226,
				"y": 1.9011395311,
				"z": -0.7149838379,
				"element": "C" 
			},
			{
				"x": -1.7733511804,
				"y": -2.5549237796,
				"z": -3.6940288898,
				"element": "H" 
			},
			{
				"x": -0.1658971342,
				"y": -1.9677540517,
				"z": -3.2207919766,
				"element": "H" 
			},
			{
				"x": -1.4004090017,
				"y": -0.8212391016,
				"z": -3.7768621068,
				"element": "H" 
			},
			{
				"x": -3.3769158062,
				"y": -0.2655192677,
				"z": -2.302027914,
				"element": "H" 
			},
			{
				"x": -3.5605843856,
				"y": -1.0466184348,
				"z": -0.7150133682,
				"element": "H" 
			},
			{
				"x": -3.805929184,
				"y": -1.982163461,
				"z": -2.2070732935,
				"element": "H" 
			},
			{
				"x": -1.9689767582,
				"y": -3.686292696,
				"z": -1.37834228,
				"element": "H" 
			},
			{
				"x": -0.3697114624,
				"y": -3.0545975532,
				"z": -0.9486925419,
				"element": "H" 
			},
			{
				"x": -1.76925145,
				"y": -2.7058677861,
				"z": 0.0914169474,
				"element": "H" 
			},
			{
				"x": 0.2196075712,
				"y": 1.6751330271,
				"z": 2.251470466,
				"element": "H" 
			},
			{
				"x": -1.2499483288,
				"y": 2.3457723952,
				"z": 1.5096555063,
				"element": "H" 
			},
			{
				"x": 0.1316524055,
				"y": 3.9003850269,
				"z": 0.2110109519,
				"element": "H" 
			},
			{
				"x": 2.543499258,
				"y": 2.275122341,
				"z": 1.1848187241,
				"element": "H" 
			},
			{
				"x": 2.6482301715,
				"y": 3.7006168586,
				"z": 0.1591023341,
				"element": "H" 
			},
			{
				"x": 3.9657242098,
				"y": 3.9672897276,
				"z": 2.1636876039,
				"element": "H" 
			},
			{
				"x": -0.1030540331,
				"y": 2.2029710858,
				"z": -1.5623464315,
				"element": "H" 
			},
			{
				"x": 1.4714885139,
				"y": 1.5106311132,
				"z": -1.1032017498,
				"element": "H" 
			}
		],
		 "valence_orbital": [ 
			{
				"type": "occ",
				"energy": -0.32366,
				"method": "rhf"
			},
			{
				"type": "occ",
				"energy": -0.28407,
				"method": "rhf"
			},
			{
				"type": "occ",
				"energy": -0.2802,
				"method": "rhf"
			},
			{
				"type": "occ",
				"energy": -0.25793,
				"method": "rhf"
			},
			{
				"type": "occ",
				"energy": -0.23939,
				"method": "rhf"
			},
			{
				"type": "unocc",
				"energy": 0.00169,
				"method": "rhf"
			},
			{
				"type": "unocc",
				"energy": 0.04413,
				"method": "rhf"
			},
			{
				"type": "unocc",
				"energy": 0.05062,
				"method": "rhf"
			},
			{
				"type": "unocc",
				"energy": 0.07984,
				"method": "rhf"
			},
			{
				"type": "unocc",
				"energy": 0.08621,
				"method": "rhf"
			}
		],
		"cosmo_sigma_profile": { 
			"-0.025": 0.0,
			"-0.024": 0.0,
			"-0.023": 0.0,
			"-0.022": 0.0,
			"-0.021": 0.0,
			"-0.02": 0.0,
			"-0.019": 1.01178800375,
			"-0.018": 0.94945253252,
			"-0.017": 0.944795071361,
			"-0.016": 1.30126675976,
			"-0.015": 0.82958944237,
			"-0.014": 0.964321264513,
			"-0.013": 1.11977055971,
			"-0.012": 1.40602916056,
			"-0.011": 1.39581507506,
			"-0.01": 1.15616009754,
			"-0.009": 1.49246149168,
			"-0.008": 2.34985055899,
			"-0.007": 5.13139470396,
			"-0.006": 5.7420624881,
			"-0.005": 15.3722285899,
			"-0.004": 29.6175063932,
			"-0.003": 27.9751835981,
			"-0.002": 21.2939279577,
			"-0.001": 21.0846866682,
			"0.0": 27.4365071628,
			"0.001": 21.9553925514,
			"0.002": 8.69046738994,
			"0.003": 7.36637485512,
			"0.004": 7.26061132321,
			"0.005": 7.55775551531,
			"0.006": 6.13279889394,
			"0.007": 6.32006913023,
			"0.008": 5.46816552656,
			"0.009": 5.10957807404,
			"0.01": 5.38121061095,
			"0.011": 7.38573652846,
			"0.012": 6.19787455336,
			"0.013": 4.58902146524,
			"0.014": 2.59976587235,
			"0.015": 0.0187348461264,
			"0.016": 0.0,
			"0.017": 0.0,
			"0.018": 0.0,
			"0.019": 0.0,
			"0.02": 0.0,
			"0.021": 0.0,
			"0.022": 0.0,
			"0.023": 0.0,
			"0.024": 0.0,
			"0.025": 0.0
		}
	}
}
