{
	 "smiles": "OC(=O)CSCC1=C(F)C=C(Br)C=C1", 
	 "Tm": 331.15, 
	 "num_atms": 22, 
	 "gaussian": { 
		 "optdone": 1, 
		 "sigma_profile": "yes", 
		 "theory": "DFT", 
		 "functional": "B3LYP", 
		 "basiset": "6-31G**", 
		 "properties": { 
			 "R2extent": 5889.4911, 
			 "electric_dipole_moment_norm": 3.47500746474, 
			 "electric_quadrupole_moment_norm": 7.69156701719, 
			 "total_energy": -3567.66186599, 
			 "HOMO_LUMO_gap": 0.20748, 
			 "cosmo_polarized_energy": -14.63, 
			 "cosmo_cavitation_energy": 30.76, 
			 "cosmo_dispersion_energy": -21.87, 
			 "cosmo_repulsion_energy": 1.67, 
			 "cosmo_total_nonelectrostatic_energy": 10.56, 
			 "SMD_solvation_energy": 4.99 
		},
		"coords": [
			{
				"x": -1.4553505761,
				"y": 0.5033182398,
				"z": -1.6566352189,
				"element": "O" 
			},
			{
				"x": -0.6730045878,
				"y": 1.4853415759,
				"z": -1.1772121649,
				"element": "C" 
			},
			{
				"x": -1.1131575109,
				"y": 2.3963781639,
				"z": -0.5199224577,
				"element": "O" 
			},
			{
				"x": 0.8105987223,
				"y": 1.4292429472,
				"z": -1.570019554,
				"element": "C" 
			},
			{
				"x": 1.4990757552,
				"y": -0.2149904714,
				"z": -1.9848278718,
				"element": "S" 
			},
			{
				"x": 1.7912884955,
				"y": -0.9249602358,
				"z": -0.2949696963,
				"element": "C" 
			},
			{
				"x": 0.5603582199,
				"y": -1.2874763413,
				"z": 0.4857371667,
				"element": "C" 
			},
			{
				"x": -0.1263037755,
				"y": -2.4750672237,
				"z": 0.213941971,
				"element": "C" 
			},
			{
				"x": 0.3454588981,
				"y": -3.2766368745,
				"z": -0.7653689783,
				"element": "F" 
			},
			{
				"x": -1.2631093171,
				"y": -2.8720556543,
				"z": 0.9028275002,
				"element": "C" 
			},
			{
				"x": -1.7389042448,
				"y": -2.0352298877,
				"z": 1.9118752885,
				"element": "C" 
			},
			{
				"x": -3.2979219,
				"y": -2.5476768383,
				"z": 2.8815695773,
				"element": "Br" 
			},
			{
				"x": -1.0943779579,
				"y": -0.8397621546,
				"z": 2.2237935898,
				"element": "C" 
			},
			{
				"x": 0.0494578971,
				"y": -0.4809676517,
				"z": 1.5100451369,
				"element": "C" 
			},
			{
				"x": -0.8885603195,
				"y": -0.1653127857,
				"z": -2.0868742469,
				"element": "H" 
			},
			{
				"x": 1.3944081275,
				"y": 1.9167020289,
				"z": -0.7865281869,
				"element": "H" 
			},
			{
				"x": 0.9295809188,
				"y": 2.0278261495,
				"z": -2.4801380355,
				"element": "H" 
			},
			{
				"x": 2.3977580844,
				"y": -1.8103927093,
				"z": -0.4994095151,
				"element": "H" 
			},
			{
				"x": 2.4084135996,
				"y": -0.2113175568,
				"z": 0.256831427,
				"element": "H" 
			},
			{
				"x": -1.7513826009,
				"y": -3.8054819685,
				"z": 0.6523625534,
				"element": "H" 
			},
			{
				"x": -1.4784107574,
				"y": -0.198910636,
				"z": 3.0079537956,
				"element": "H" 
			},
			{
				"x": 0.5534848296,
				"y": 0.4497298847,
				"z": 1.75486792,
				"element": "H" 
			}
		],
		 "valence_orbital": [ 
			{
				"type": "occ",
				"energy": -0.29609,
				"method": "rhf"
			},
			{
				"type": "occ",
				"energy": -0.2861,
				"method": "rhf"
			},
			{
				"type": "occ",
				"energy": -0.27124,
				"method": "rhf"
			},
			{
				"type": "occ",
				"energy": -0.25698,
				"method": "rhf"
			},
			{
				"type": "occ",
				"energy": -0.24715,
				"method": "rhf"
			},
			{
				"type": "unocc",
				"energy": -0.03967,
				"method": "rhf"
			},
			{
				"type": "unocc",
				"energy": -0.02527,
				"method": "rhf"
			},
			{
				"type": "unocc",
				"energy": -0.00427,
				"method": "rhf"
			},
			{
				"type": "unocc",
				"energy": 0.00104,
				"method": "rhf"
			},
			{
				"type": "unocc",
				"energy": 0.02312,
				"method": "rhf"
			}
		],
		"cosmo_sigma_profile": { 
			"-0.025": 0.0,
			"-0.024": 0.0,
			"-0.023": 0.0,
			"-0.022": 0.0,
			"-0.021": 0.0,
			"-0.02": 0.0,
			"-0.019": 0.0,
			"-0.018": 0.0,
			"-0.017": 0.0,
			"-0.016": 0.0,
			"-0.015": 0.0,
			"-0.014": 0.027031623317,
			"-0.013": 0.377098729695,
			"-0.012": 0.3525354179,
			"-0.011": 0.971142200813,
			"-0.01": 2.63894729357,
			"-0.009": 7.15292485679,
			"-0.008": 10.5639899539,
			"-0.007": 13.9358081101,
			"-0.006": 11.8914001025,
			"-0.005": 12.9459024086,
			"-0.004": 12.366803814,
			"-0.003": 13.0246954369,
			"-0.002": 10.9329493293,
			"-0.001": 13.3398162661,
			"0.0": 16.0914760722,
			"0.001": 19.5256675584,
			"0.002": 20.6033251874,
			"0.003": 20.7993572903,
			"0.004": 24.924935827,
			"0.005": 7.51565908695,
			"0.006": 3.56538194462,
			"0.007": 3.12002157468,
			"0.008": 3.98935597619,
			"0.009": 4.04406303379,
			"0.01": 4.57925893428,
			"0.011": 4.21928227353,
			"0.012": 5.1543066772,
			"0.013": 1.82456912818,
			"0.014": 0.0129602507528,
			"0.015": 0.0,
			"0.016": 0.0,
			"0.017": 0.0,
			"0.018": 0.0,
			"0.019": 0.0,
			"0.02": 0.0,
			"0.021": 0.0,
			"0.022": 0.0,
			"0.023": 0.0,
			"0.024": 0.0,
			"0.025": 0.0
		}
	}
}
