{
	 "smiles": "NC1=NN(C=C1)C1=C(C#N)C(F)=CC=C1", 
	 "Tm": 408.15, 
	 "num_atms": 22, 
	 "gaussian": { 
		 "optdone": 1, 
		 "sigma_profile": "yes", 
		 "theory": "DFT", 
		 "functional": "B3LYP", 
		 "basiset": "6-31G**", 
		 "properties": { 
			 "R2extent": 3481.5745, 
			 "electric_dipole_moment_norm": 5.37022163975, 
			 "electric_quadrupole_moment_norm": 21.4022277668, 
			 "total_energy": -704.07635505, 
			 "HOMO_LUMO_gap": 0.15317, 
			 "cosmo_polarized_energy": -18.28, 
			 "cosmo_cavitation_energy": 28.48, 
			 "cosmo_dispersion_energy": -20.0, 
			 "cosmo_repulsion_energy": 1.54, 
			 "cosmo_total_nonelectrostatic_energy": 10.01, 
			 "SMD_solvation_energy": 6.23 
		},
		"coords": [
			{
				"x": 1.5697608348,
				"y": 3.0134757231,
				"z": 0.5977987478,
				"element": "N" 
			},
			{
				"x": 1.3669487218,
				"y": 1.6760173794,
				"z": 0.2924853186,
				"element": "C" 
			},
			{
				"x": 0.1486344619,
				"y": 1.1504515636,
				"z": 0.3129139179,
				"element": "N" 
			},
			{
				"x": 0.3173795602,
				"y": -0.1411188713,
				"z": -0.1122798149,
				"element": "N" 
			},
			{
				"x": 1.632060859,
				"y": -0.4160970218,
				"z": -0.3877600216,
				"element": "C" 
			},
			{
				"x": 2.3449764825,
				"y": 0.729771093,
				"z": -0.1414788365,
				"element": "C" 
			},
			{
				"x": -0.7803796067,
				"y": -1.0062140958,
				"z": -0.2197624101,
				"element": "C" 
			},
			{
				"x": -1.8839318793,
				"y": -0.8996758402,
				"z": 0.66286599,
				"element": "C" 
			},
			{
				"x": -1.9629704052,
				"y": 0.009149155,
				"z": 1.7650606694,
				"element": "C" 
			},
			{
				"x": -2.1028781911,
				"y": 0.6770434909,
				"z": 2.7065223388,
				"element": "N" 
			},
			{
				"x": -2.9504294486,
				"y": -1.7974679765,
				"z": 0.4839544302,
				"element": "C" 
			},
			{
				"x": -3.9984037276,
				"y": -1.7008715102,
				"z": 1.3139743198,
				"element": "F" 
			},
			{
				"x": -2.9560783608,
				"y": -2.7825430543,
				"z": -0.4908362301,
				"element": "C" 
			},
			{
				"x": -1.8506262236,
				"y": -2.876183691,
				"z": -1.3362438074,
				"element": "C" 
			},
			{
				"x": -0.7807526561,
				"y": -1.9942720062,
				"z": -1.2132276634,
				"element": "C" 
			},
			{
				"x": 2.4498574992,
				"y": 3.2072380635,
				"z": 1.0560495319,
				"element": "H" 
			},
			{
				"x": 0.7872714492,
				"y": 3.4203056884,
				"z": 1.095598632,
				"element": "H" 
			},
			{
				"x": 1.953290385,
				"y": -1.3986759122,
				"z": -0.6981065432,
				"element": "H" 
			},
			{
				"x": 3.4091627804,
				"y": 0.8757867582,
				"z": -0.2508327913,
				"element": "H" 
			},
			{
				"x": -3.8095868647,
				"y": -3.444836486,
				"z": -0.5741417216,
				"element": "H" 
			},
			{
				"x": -1.8336440024,
				"y": -3.6303699283,
				"z": -2.1165184109,
				"element": "H" 
			},
			{
				"x": 0.0468383321,
				"y": -2.0426125211,
				"z": -1.9111356455,
				"element": "H" 
			}
		],
		 "valence_orbital": [ 
			{
				"type": "occ",
				"energy": -0.28889,
				"method": "rhf"
			},
			{
				"type": "occ",
				"energy": -0.28024,
				"method": "rhf"
			},
			{
				"type": "occ",
				"energy": -0.26398,
				"method": "rhf"
			},
			{
				"type": "occ",
				"energy": -0.25239,
				"method": "rhf"
			},
			{
				"type": "occ",
				"energy": -0.21088,
				"method": "rhf"
			},
			{
				"type": "unocc",
				"energy": -0.05771,
				"method": "rhf"
			},
			{
				"type": "unocc",
				"energy": -0.03031,
				"method": "rhf"
			},
			{
				"type": "unocc",
				"energy": 0.02363,
				"method": "rhf"
			},
			{
				"type": "unocc",
				"energy": 0.04066,
				"method": "rhf"
			},
			{
				"type": "unocc",
				"energy": 0.06883,
				"method": "rhf"
			}
		],
		"cosmo_sigma_profile": { 
			"-0.025": 0.0,
			"-0.024": 0.0,
			"-0.023": 0.0,
			"-0.022": 0.0,
			"-0.021": 0.0,
			"-0.02": 0.0,
			"-0.019": 0.0,
			"-0.018": 0.0,
			"-0.017": 0.0,
			"-0.016": 0.0,
			"-0.015": 0.0,
			"-0.014": 0.0224794215487,
			"-0.013": 1.23845405804,
			"-0.012": 2.69320796331,
			"-0.011": 2.20312295071,
			"-0.01": 4.02950311487,
			"-0.009": 6.06326973521,
			"-0.008": 10.7828349772,
			"-0.007": 12.3195754938,
			"-0.006": 9.88817390318,
			"-0.005": 8.36109699335,
			"-0.004": 8.9422970241,
			"-0.003": 10.5092260858,
			"-0.002": 15.1157474094,
			"-0.001": 18.0172801284,
			"0.0": 15.0559456271,
			"0.001": 16.4204330506,
			"0.002": 13.7821071792,
			"0.003": 16.6263106681,
			"0.004": 10.7099105484,
			"0.005": 6.52005469326,
			"0.006": 4.42534665406,
			"0.007": 5.3759804575,
			"0.008": 4.69141095985,
			"0.009": 5.74193457336,
			"0.01": 7.5487703834,
			"0.011": 5.10956340516,
			"0.012": 4.41914313898,
			"0.013": 2.6427476414,
			"0.014": 0.932316672885,
			"0.015": 0.0507927349214,
			"0.016": 0.0,
			"0.017": 0.0,
			"0.018": 0.0,
			"0.019": 0.0,
			"0.02": 0.0,
			"0.021": 0.0,
			"0.022": 0.0,
			"0.023": 0.0,
			"0.024": 0.0,
			"0.025": 0.0
		}
	}
}
