{
	 "smiles": "CCCN(CCC)S(=O)(=O)C1=CC=C(C=C1)C(Cl)=O", 
	 "Tm": 333.15, 
	 "num_atms": 37, 
	 "gaussian": { 
		 "optdone": 1, 
		 "sigma_profile": "yes", 
		 "theory": "DFT", 
		 "functional": "B3LYP", 
		 "basiset": "6-31G**", 
		 "properties": { 
			 "R2extent": 9319.013, 
			 "electric_dipole_moment_norm": 4.2859298396, 
			 "electric_quadrupole_moment_norm": 16.2803602991, 
			 "total_energy": -1644.97989882, 
			 "HOMO_LUMO_gap": 0.16017, 
			 "cosmo_polarized_energy": -13.41, 
			 "cosmo_cavitation_energy": 42.81, 
			 "cosmo_dispersion_energy": -29.0, 
			 "cosmo_repulsion_energy": 2.23, 
			 "cosmo_total_nonelectrostatic_energy": 16.04, 
			 "SMD_solvation_energy": 6.83 
		},
		"coords": [
			{
				"x": 1.1546484623,
				"y": -3.2706960037,
				"z": -1.2904097956,
				"element": "C" 
			},
			{
				"x": 0.9552630069,
				"y": -1.7644409766,
				"z": -1.0897272398,
				"element": "C" 
			},
			{
				"x": -0.496503239,
				"y": -1.4269527353,
				"z": -0.7400302084,
				"element": "C" 
			},
			{
				"x": -0.7067839123,
				"y": 0.0257389773,
				"z": -0.5397284288,
				"element": "N" 
			},
			{
				"x": -0.7857112805,
				"y": 0.8519690275,
				"z": -1.7791676388,
				"element": "C" 
			},
			{
				"x": 0.057052207,
				"y": 2.1307710639,
				"z": -1.7286245586,
				"element": "C" 
			},
			{
				"x": 1.5618823962,
				"y": 1.8916086353,
				"z": -1.5833676012,
				"element": "C" 
			},
			{
				"x": -1.8886202322,
				"y": 0.3913594869,
				"z": 0.6199715708,
				"element": "S" 
			},
			{
				"x": -2.9926061963,
				"y": -0.5782294565,
				"z": 0.5989850215,
				"element": "O" 
			},
			{
				"x": -2.1636516604,
				"y": 1.8260420798,
				"z": 0.4992298386,
				"element": "O" 
			},
			{
				"x": -0.9828148611,
				"y": 0.1135049226,
				"z": 2.1563175235,
				"element": "C" 
			},
			{
				"x": 0.104641948,
				"y": 0.932702377,
				"z": 2.4689333986,
				"element": "C" 
			},
			{
				"x": 0.7748575574,
				"y": 0.7452517323,
				"z": 3.67329665,
				"element": "C" 
			},
			{
				"x": 0.3524057141,
				"y": -0.256155615,
				"z": 4.5609993237,
				"element": "C" 
			},
			{
				"x": -0.7497601659,
				"y": -1.06411265,
				"z": 4.2372723377,
				"element": "C" 
			},
			{
				"x": -1.4231703827,
				"y": -0.8786929248,
				"z": 3.0330350123,
				"element": "C" 
			},
			{
				"x": 1.006851078,
				"y": -0.5350206306,
				"z": 5.8669604861,
				"element": "C" 
			},
			{
				"x": 2.4367027689,
				"y": 0.525827949,
				"z": 6.2672085696,
				"element": "Cl" 
			},
			{
				"x": 0.6757575387,
				"y": -1.3774505929,
				"z": 6.6454872621,
				"element": "O" 
			},
			{
				"x": 2.1957919195,
				"y": -3.498456627,
				"z": -1.537133997,
				"element": "H" 
			},
			{
				"x": 0.8974095847,
				"y": -3.8319253759,
				"z": -0.3851366009,
				"element": "H" 
			},
			{
				"x": 0.5289760245,
				"y": -3.6516565754,
				"z": -2.1052244279,
				"element": "H" 
			},
			{
				"x": 1.6041810923,
				"y": -1.3982786749,
				"z": -0.285840713,
				"element": "H" 
			},
			{
				"x": 1.2571658649,
				"y": -1.2311272977,
				"z": -1.9986114772,
				"element": "H" 
			},
			{
				"x": -1.181756477,
				"y": -1.8086325807,
				"z": -1.5107037035,
				"element": "H" 
			},
			{
				"x": -0.7634580878,
				"y": -1.9417538538,
				"z": 0.1873032216,
				"element": "H" 
			},
			{
				"x": -0.4307991427,
				"y": 0.2065218347,
				"z": -2.5889760036,
				"element": "H" 
			},
			{
				"x": -1.8267194018,
				"y": 1.1034571369,
				"z": -2.0101335157,
				"element": "H" 
			},
			{
				"x": -0.1404916285,
				"y": 2.6830001544,
				"z": -2.6568891796,
				"element": "H" 
			},
			{
				"x": -0.3125549488,
				"y": 2.7592919874,
				"z": -0.9133258356,
				"element": "H" 
			},
			{
				"x": 1.9622072499,
				"y": 1.3217772582,
				"z": -2.4302303953,
				"element": "H" 
			},
			{
				"x": 1.787945792,
				"y": 1.3318456222,
				"z": -0.6705277339,
				"element": "H" 
			},
			{
				"x": 2.1056147045,
				"y": 2.8406036031,
				"z": -1.5392041401,
				"element": "H" 
			},
			{
				"x": 0.4187468545,
				"y": 1.707774702,
				"z": 1.7790437376,
				"element": "H" 
			},
			{
				"x": 1.6202286346,
				"y": 1.3724589602,
				"z": 3.9275769709,
				"element": "H" 
			},
			{
				"x": -1.0661806204,
				"y": -1.8284493185,
				"z": 4.9380420099,
				"element": "H" 
			},
			{
				"x": -2.2825481614,
				"y": -1.4840756215,
				"z": 2.7674302598,
				"element": "H" 
			}
		],
		 "valence_orbital": [ 
			{
				"type": "occ",
				"energy": -0.30561,
				"method": "rhf"
			},
			{
				"type": "occ",
				"energy": -0.30331,
				"method": "rhf"
			},
			{
				"type": "occ",
				"energy": -0.29691,
				"method": "rhf"
			},
			{
				"type": "occ",
				"energy": -0.29144,
				"method": "rhf"
			},
			{
				"type": "occ",
				"energy": -0.25777,
				"method": "rhf"
			},
			{
				"type": "unocc",
				"energy": -0.0976,
				"method": "rhf"
			},
			{
				"type": "unocc",
				"energy": -0.04075,
				"method": "rhf"
			},
			{
				"type": "unocc",
				"energy": -0.00313,
				"method": "rhf"
			},
			{
				"type": "unocc",
				"energy": 0.00994,
				"method": "rhf"
			},
			{
				"type": "unocc",
				"energy": 0.0479,
				"method": "rhf"
			}
		],
		"cosmo_sigma_profile": { 
			"-0.025": 0.0,
			"-0.024": 0.0,
			"-0.023": 0.0,
			"-0.022": 0.0,
			"-0.021": 0.0,
			"-0.02": 0.0,
			"-0.019": 0.0,
			"-0.018": 0.0,
			"-0.017": 0.0,
			"-0.016": 0.0,
			"-0.015": 0.0,
			"-0.014": 0.0,
			"-0.013": 0.0,
			"-0.012": 0.0,
			"-0.011": 0.0,
			"-0.01": 0.0,
			"-0.009": 0.0898432091456,
			"-0.008": 4.03612629936,
			"-0.007": 6.90962903138,
			"-0.006": 6.62019939127,
			"-0.005": 16.3353227581,
			"-0.004": 23.9335950523,
			"-0.003": 38.2071423289,
			"-0.002": 42.341665893,
			"-0.001": 40.084297075,
			"0.0": 43.1761554998,
			"0.001": 32.9986115903,
			"0.002": 15.3700703951,
			"0.003": 10.5848522897,
			"0.004": 11.950606711,
			"0.005": 7.31324987136,
			"0.006": 5.24537827651,
			"0.007": 5.14723565634,
			"0.008": 7.69200229559,
			"0.009": 6.00811518546,
			"0.01": 5.95404689039,
			"0.011": 7.83918035344,
			"0.012": 2.20012741056,
			"0.013": 0.0,
			"0.014": 0.0,
			"0.015": 0.0,
			"0.016": 0.0,
			"0.017": 0.0,
			"0.018": 0.0,
			"0.019": 0.0,
			"0.02": 0.0,
			"0.021": 0.0,
			"0.022": 0.0,
			"0.023": 0.0,
			"0.024": 0.0,
			"0.025": 0.0
		}
	}
}
