{
	 "smiles": "C1CC(CCN1)C1=CC=CC=C1", 
	 "Tm": 333.65, 
	 "num_atms": 27, 
	 "gaussian": { 
		 "optdone": 1, 
		 "sigma_profile": "yes", 
		 "theory": "DFT", 
		 "functional": "B3LYP", 
		 "basiset": "6-31G**", 
		 "properties": { 
			 "R2extent": 2560.0051, 
			 "electric_dipole_moment_norm": 0.897398400935, 
			 "electric_quadrupole_moment_norm": 7.37452411753, 
			 "total_energy": -482.954843042, 
			 "HOMO_LUMO_gap": 0.20816, 
			 "cosmo_polarized_energy": -6.15, 
			 "cosmo_cavitation_energy": 27.67, 
			 "cosmo_dispersion_energy": -20.52, 
			 "cosmo_repulsion_energy": 1.63, 
			 "cosmo_total_nonelectrostatic_energy": 8.79, 
			 "SMD_solvation_energy": 1.7 
		},
		"coords": [
			{
				"x": -1.6348346882,
				"y": 1.0520281773,
				"z": 2.7000219913,
				"element": "C" 
			},
			{
				"x": -0.8027484091,
				"y": -0.1643168347,
				"z": 2.2858942993,
				"element": "C" 
			},
			{
				"x": 0.2892210731,
				"y": 0.1837566893,
				"z": 1.2197803554,
				"element": "C" 
			},
			{
				"x": 0.4972139229,
				"y": 1.719328804,
				"z": 1.1543514559,
				"element": "C" 
			},
			{
				"x": 0.491120996,
				"y": 2.3206682162,
				"z": 2.5647164955,
				"element": "C" 
			},
			{
				"x": -0.7690972785,
				"y": 2.0753083521,
				"z": 3.296581787,
				"element": "N" 
			},
			{
				"x": 0.0225120766,
				"y": -0.4009730571,
				"z": -0.1577834865,
				"element": "C" 
			},
			{
				"x": -1.1986414767,
				"y": -0.1958059183,
				"z": -0.8197641378,
				"element": "C" 
			},
			{
				"x": -1.4239280114,
				"y": -0.7193913027,
				"z": -2.0927241515,
				"element": "C" 
			},
			{
				"x": -0.4290645459,
				"y": -1.46017402,
				"z": -2.7350251866,
				"element": "C" 
			},
			{
				"x": 0.7901698063,
				"y": -1.6718061351,
				"z": -2.0911924003,
				"element": "C" 
			},
			{
				"x": 1.0095092992,
				"y": -1.1463213845,
				"z": -0.8160478401,
				"element": "C" 
			},
			{
				"x": -2.381450577,
				"y": 0.7524331478,
				"z": 3.4458256748,
				"element": "H" 
			},
			{
				"x": -2.2021805346,
				"y": 1.4165786332,
				"z": 1.8232468424,
				"element": "H" 
			},
			{
				"x": -1.4640918377,
				"y": -0.9516363142,
				"z": 1.9112880862,
				"element": "H" 
			},
			{
				"x": -0.3156962009,
				"y": -0.5592532295,
				"z": 3.1844888418,
				"element": "H" 
			},
			{
				"x": 1.2352653971,
				"y": -0.2467139217,
				"z": 1.5703420885,
				"element": "H" 
			},
			{
				"x": -0.295451465,
				"y": 2.1781127398,
				"z": 0.5506198878,
				"element": "H" 
			},
			{
				"x": 1.4426159704,
				"y": 1.9433367996,
				"z": 0.6472840974,
				"element": "H" 
			},
			{
				"x": 1.3313133243,
				"y": 1.8895743906,
				"z": 3.1312731275,
				"element": "H" 
			},
			{
				"x": 0.6781250624,
				"y": 3.3996068343,
				"z": 2.5183829482,
				"element": "H" 
			},
			{
				"x": -1.2871732349,
				"y": 2.9412452952,
				"z": 3.3946290061,
				"element": "H" 
			},
			{
				"x": -1.984409764,
				"y": 0.3775726882,
				"z": -0.3343867234,
				"element": "H" 
			},
			{
				"x": -2.3781615959,
				"y": -0.5492183526,
				"z": -2.5840652923,
				"element": "H" 
			},
			{
				"x": -0.6043915778,
				"y": -1.8691398277,
				"z": -3.725963925,
				"element": "H" 
			},
			{
				"x": 1.5714199025,
				"y": -2.2488310289,
				"z": -2.5785068324,
				"element": "H" 
			},
			{
				"x": 1.9621343666,
				"y": -1.3196694403,
				"z": -0.3205670092,
				"element": "H" 
			}
		],
		 "valence_orbital": [ 
			{
				"type": "occ",
				"energy": -0.3104,
				"method": "rhf"
			},
			{
				"type": "occ",
				"energy": -0.30293,
				"method": "rhf"
			},
			{
				"type": "occ",
				"energy": -0.24472,
				"method": "rhf"
			},
			{
				"type": "occ",
				"energy": -0.23544,
				"method": "rhf"
			},
			{
				"type": "occ",
				"energy": -0.20617,
				"method": "rhf"
			},
			{
				"type": "unocc",
				"energy": 0.00199,
				"method": "rhf"
			},
			{
				"type": "unocc",
				"energy": 0.00572,
				"method": "rhf"
			},
			{
				"type": "unocc",
				"energy": 0.07682,
				"method": "rhf"
			},
			{
				"type": "unocc",
				"energy": 0.09095,
				"method": "rhf"
			},
			{
				"type": "unocc",
				"energy": 0.10188,
				"method": "rhf"
			}
		],
		"cosmo_sigma_profile": { 
			"-0.025": 0.0,
			"-0.024": 0.0,
			"-0.023": 0.0,
			"-0.022": 0.0,
			"-0.021": 0.0,
			"-0.02": 0.0,
			"-0.019": 0.0,
			"-0.018": 0.0,
			"-0.017": 0.0,
			"-0.016": 0.0,
			"-0.015": 0.0,
			"-0.014": 0.0,
			"-0.013": 0.0,
			"-0.012": 0.0,
			"-0.011": 0.0,
			"-0.01": 0.426964825459,
			"-0.009": 1.2974324331,
			"-0.008": 1.1990806078,
			"-0.007": 1.57071094798,
			"-0.006": 1.83276760842,
			"-0.005": 9.43193506391,
			"-0.004": 15.5823925348,
			"-0.003": 24.593055649,
			"-0.002": 30.9486968873,
			"-0.001": 32.130594335,
			"0.0": 24.3274641393,
			"0.001": 14.4948227539,
			"0.002": 10.4010477728,
			"0.003": 8.71355933588,
			"0.004": 9.43833677141,
			"0.005": 8.26842036936,
			"0.006": 8.70061816125,
			"0.007": 5.55620926347,
			"0.008": 0.804783165779,
			"0.009": 1.04483154411,
			"0.01": 0.65389369745,
			"0.011": 0.679256716045,
			"0.012": 0.773372604798,
			"0.013": 0.488134973659,
			"0.014": 0.0,
			"0.015": 0.502844046516,
			"0.016": 0.973122256194,
			"0.017": 0.594831961731,
			"0.018": 0.332247085998,
			"0.019": 0.34783895029,
			"0.02": 0.048253695271,
			"0.021": 0.0,
			"0.022": 0.0,
			"0.023": 0.0,
			"0.024": 0.0,
			"0.025": 0.0
		}
	}
}
