{
	 "smiles": "C1CCC2=CN=CC=C2C1", 
	 "Tm": 419.15, 
	 "num_atms": 21, 
	 "gaussian": { 
		 "optdone": 1, 
		 "sigma_profile": "yes", 
		 "theory": "DFT", 
		 "functional": "B3LYP", 
		 "basiset": "6-31G**", 
		 "properties": { 
			 "R2extent": 1591.2982, 
			 "electric_dipole_moment_norm": 2.9404226941, 
			 "electric_quadrupole_moment_norm": 7.46765247384, 
			 "total_energy": -404.352026897, 
			 "HOMO_LUMO_gap": 0.22857, 
			 "cosmo_polarized_energy": -6.07, 
			 "cosmo_cavitation_energy": 22.61, 
			 "cosmo_dispersion_energy": -17.27, 
			 "cosmo_repulsion_energy": 1.39, 
			 "cosmo_total_nonelectrostatic_energy": 6.73, 
			 "SMD_solvation_energy": 1.61 
		},
		"coords": [
			{
				"x": 1.891904265,
				"y": -1.3286567161,
				"z": -0.4633834989,
				"element": "C" 
			},
			{
				"x": 2.4936472889,
				"y": -0.1068993346,
				"z": -1.1688407048,
				"element": "C" 
			},
			{
				"x": 1.7933866918,
				"y": 1.177168031,
				"z": -0.7036963467,
				"element": "C" 
			},
			{
				"x": 0.2809919133,
				"y": 1.0599211042,
				"z": -0.7178829234,
				"element": "C" 
			},
			{
				"x": -0.5204158522,
				"y": 2.2100568329,
				"z": -0.6807451501,
				"element": "C" 
			},
			{
				"x": -1.8553377846,
				"y": 2.2151088742,
				"z": -0.661556834,
				"element": "N" 
			},
			{
				"x": -2.4600038688,
				"y": 1.0184211935,
				"z": -0.6807235714,
				"element": "C" 
			},
			{
				"x": -1.7682457,
				"y": -0.1876675153,
				"z": -0.7241192102,
				"element": "C" 
			},
			{
				"x": -0.3678196277,
				"y": -0.1851176538,
				"z": -0.7452031523,
				"element": "C" 
			},
			{
				"x": 0.4091424709,
				"y": -1.4852597489,
				"z": -0.8280153966,
				"element": "C" 
			},
			{
				"x": 1.9946713697,
				"y": -1.2054032174,
				"z": 0.6231771561,
				"element": "H" 
			},
			{
				"x": 2.437242333,
				"y": -2.2408162589,
				"z": -0.7295231599,
				"element": "H" 
			},
			{
				"x": 3.5694259422,
				"y": -0.0364007219,
				"z": -0.9738429938,
				"element": "H" 
			},
			{
				"x": 2.3758085636,
				"y": -0.2206919183,
				"z": -2.2549797806,
				"element": "H" 
			},
			{
				"x": 2.121142178,
				"y": 1.4104457999,
				"z": 0.3200406443,
				"element": "H" 
			},
			{
				"x": 2.1034134034,
				"y": 2.0306420305,
				"z": -1.3184208804,
				"element": "H" 
			},
			{
				"x": -0.0407870908,
				"y": 3.1898415244,
				"z": -0.6681052048,
				"element": "H" 
			},
			{
				"x": -3.5486049264,
				"y": 1.0284605356,
				"z": -0.6606862018,
				"element": "H" 
			},
			{
				"x": -2.3145311599,
				"y": -1.1276080553,
				"z": -0.741171692,
				"element": "H" 
			},
			{
				"x": 0.3299517702,
				"y": -1.8677867132,
				"z": -1.8562088231,
				"element": "H" 
			},
			{
				"x": -0.0693821796,
				"y": -2.2394580726,
				"z": -0.1919122754,
				"element": "H" 
			}
		],
		 "valence_orbital": [ 
			{
				"type": "occ",
				"energy": -0.33091,
				"method": "rhf"
			},
			{
				"type": "occ",
				"energy": -0.32041,
				"method": "rhf"
			},
			{
				"type": "occ",
				"energy": -0.26357,
				"method": "rhf"
			},
			{
				"type": "occ",
				"energy": -0.24505,
				"method": "rhf"
			},
			{
				"type": "occ",
				"energy": -0.24321,
				"method": "rhf"
			},
			{
				"type": "unocc",
				"energy": -0.01464,
				"method": "rhf"
			},
			{
				"type": "unocc",
				"energy": -0.00366,
				"method": "rhf"
			},
			{
				"type": "unocc",
				"energy": 0.08812,
				"method": "rhf"
			},
			{
				"type": "unocc",
				"energy": 0.11557,
				"method": "rhf"
			},
			{
				"type": "unocc",
				"energy": 0.12112,
				"method": "rhf"
			}
		],
		"cosmo_sigma_profile": { 
			"-0.025": 0.0,
			"-0.024": 0.0,
			"-0.023": 0.0,
			"-0.022": 0.0,
			"-0.021": 0.0,
			"-0.02": 0.0,
			"-0.019": 0.0,
			"-0.018": 0.0,
			"-0.017": 0.0,
			"-0.016": 0.0,
			"-0.015": 0.0,
			"-0.014": 0.0,
			"-0.013": 0.0,
			"-0.012": 0.0,
			"-0.011": 0.0,
			"-0.01": 0.0,
			"-0.009": 0.0,
			"-0.008": 0.0,
			"-0.007": 0.00582049893485,
			"-0.006": 2.86411795464,
			"-0.005": 6.26872712551,
			"-0.004": 14.7527964616,
			"-0.003": 22.9774363853,
			"-0.002": 28.3453036176,
			"-0.001": 27.4342169149,
			"0.0": 19.9085800485,
			"0.001": 11.7930840661,
			"0.002": 6.18047340352,
			"0.003": 10.3191108896,
			"0.004": 9.42042446815,
			"0.005": 3.16941070661,
			"0.006": 2.23083457756,
			"0.007": 0.972060233457,
			"0.008": 1.5777986158,
			"0.009": 2.21445021058,
			"0.01": 0.744287932067,
			"0.011": 0.392578013912,
			"0.012": 1.22230915215,
			"0.013": 0.849747431747,
			"0.014": 1.61870790901,
			"0.015": 0.629611015086,
			"0.016": 0.766828905125,
			"0.017": 0.883074862226,
			"0.018": 0.141166465379,
			"0.019": 0.0,
			"0.02": 0.0,
			"0.021": 0.0,
			"0.022": 0.0,
			"0.023": 0.0,
			"0.024": 0.0,
			"0.025": 0.0
		}
	}
}
