{
	 "smiles": "CC1=CC(OCC2=CC=CC=C2)=CC=C1[N+]([O-])=O", 
	 "Tm": 343.15, 
	 "num_atms": 31, 
	 "gaussian": { 
		 "optdone": 1, 
		 "sigma_profile": "yes", 
		 "theory": "DFT", 
		 "functional": "B3LYP", 
		 "basiset": "6-31G**", 
		 "properties": { 
			 "R2extent": 5898.9656, 
			 "electric_dipole_moment_norm": 6.02888642454, 
			 "electric_quadrupole_moment_norm": 27.1558450309, 
			 "total_energy": -821.646000869, 
			 "HOMO_LUMO_gap": 0.1696, 
			 "cosmo_polarized_energy": -11.34, 
			 "cosmo_cavitation_energy": 35.34, 
			 "cosmo_dispersion_energy": -24.94, 
			 "cosmo_repulsion_energy": 1.93, 
			 "cosmo_total_nonelectrostatic_energy": 12.34, 
			 "SMD_solvation_energy": 8.22 
		},
		"coords": [
			{
				"x": 1.7751190677,
				"y": 2.2836545169,
				"z": -0.5267525947,
				"element": "C" 
			},
			{
				"x": 0.2949845659,
				"y": 2.0089548527,
				"z": -0.6420447585,
				"element": "C" 
			},
			{
				"x": -0.1326868769,
				"y": 0.6775323863,
				"z": -0.5380431162,
				"element": "C" 
			},
			{
				"x": -1.4836686568,
				"y": 0.3231739952,
				"z": -0.6279081814,
				"element": "C" 
			},
			{
				"x": -1.9595229532,
				"y": -0.9474514765,
				"z": -0.5529941416,
				"element": "O" 
			},
			{
				"x": -1.0477010996,
				"y": -2.0492986037,
				"z": -0.4828346303,
				"element": "C" 
			},
			{
				"x": -0.4357225914,
				"y": -2.2605959516,
				"z": 0.8875519529,
				"element": "C" 
			},
			{
				"x": -1.1653944924,
				"y": -1.9811859697,
				"z": 2.0491657572,
				"element": "C" 
			},
			{
				"x": -0.6109979532,
				"y": -2.2280788562,
				"z": 3.3050134115,
				"element": "C" 
			},
			{
				"x": 0.673861045,
				"y": -2.765145738,
				"z": 3.4140141241,
				"element": "C" 
			},
			{
				"x": 1.404862886,
				"y": -3.0495447261,
				"z": 2.2597027326,
				"element": "C" 
			},
			{
				"x": 0.8532962413,
				"y": -2.7936118205,
				"z": 1.0030098564,
				"element": "C" 
			},
			{
				"x": -2.4551264985,
				"y": 1.3197326257,
				"z": -0.8154208396,
				"element": "C" 
			},
			{
				"x": -2.0598645742,
				"y": 2.6386189672,
				"z": -0.9177537979,
				"element": "C" 
			},
			{
				"x": -0.7035329158,
				"y": 2.9858260081,
				"z": -0.8374263609,
				"element": "C" 
			},
			{
				"x": -0.3918059174,
				"y": 4.4109118294,
				"z": -0.9645188738,
				"element": "N" 
			},
			{
				"x": -1.3342386135,
				"y": 5.197896484,
				"z": -1.0860228488,
				"element": "O" 
			},
			{
				"x": 0.791042092,
				"y": 4.7627922645,
				"z": -0.947511726,
				"element": "O" 
			},
			{
				"x": 2.1673635707,
				"y": 2.7476115743,
				"z": -1.4349738939,
				"element": "H" 
			},
			{
				"x": 2.3108512398,
				"y": 1.3484833564,
				"z": -0.3441504516,
				"element": "H" 
			},
			{
				"x": 1.9918427394,
				"y": 2.9818465918,
				"z": 0.2850783412,
				"element": "H" 
			},
			{
				"x": 0.6169228888,
				"y": -0.0823127476,
				"z": -0.3575430567,
				"element": "H" 
			},
			{
				"x": -1.6649813996,
				"y": -2.9103883962,
				"z": -0.7593180621,
				"element": "H" 
			},
			{
				"x": -0.2674698303,
				"y": -1.9448797833,
				"z": -1.2472106987,
				"element": "H" 
			},
			{
				"x": -2.1631439296,
				"y": -1.5618716102,
				"z": 1.9634933549,
				"element": "H" 
			},
			{
				"x": -1.1833610309,
				"y": -2.0018884747,
				"z": 4.2000749706,
				"element": "H" 
			},
			{
				"x": 1.1036004766,
				"y": -2.9571826694,
				"z": 4.3927546377,
				"element": "H" 
			},
			{
				"x": 2.4067259677,
				"y": -3.4622109413,
				"z": 2.335748026,
				"element": "H" 
			},
			{
				"x": 1.4300261766,
				"y": -3.010435284,
				"z": 0.1063333897,
				"element": "H" 
			},
			{
				"x": -3.4987554145,
				"y": 1.0336896745,
				"z": -0.8834009655,
				"element": "H" 
			},
			{
				"x": -2.7833242098,
				"y": 3.4296579217,
				"z": -1.0658115563,
				"element": "H" 
			}
		],
		 "valence_orbital": [ 
			{
				"type": "occ",
				"energy": -0.27479,
				"method": "rhf"
			},
			{
				"type": "occ",
				"energy": -0.26695,
				"method": "rhf"
			},
			{
				"type": "occ",
				"energy": -0.26305,
				"method": "rhf"
			},
			{
				"type": "occ",
				"energy": -0.25708,
				"method": "rhf"
			},
			{
				"type": "occ",
				"energy": -0.24356,
				"method": "rhf"
			},
			{
				"type": "unocc",
				"energy": -0.07396,
				"method": "rhf"
			},
			{
				"type": "unocc",
				"energy": -0.02209,
				"method": "rhf"
			},
			{
				"type": "unocc",
				"energy": -0.01653,
				"method": "rhf"
			},
			{
				"type": "unocc",
				"energy": -0.01297,
				"method": "rhf"
			},
			{
				"type": "unocc",
				"energy": 0.01532,
				"method": "rhf"
			}
		],
		"cosmo_sigma_profile": { 
			"-0.025": 0.0,
			"-0.024": 0.0,
			"-0.023": 0.0,
			"-0.022": 0.0,
			"-0.021": 0.0,
			"-0.02": 0.0,
			"-0.019": 0.0,
			"-0.018": 0.0,
			"-0.017": 0.0,
			"-0.016": 0.0,
			"-0.015": 0.0,
			"-0.014": 0.0,
			"-0.013": 0.0,
			"-0.012": 0.0,
			"-0.011": 0.0,
			"-0.01": 0.0,
			"-0.009": 0.0,
			"-0.008": 0.688119249962,
			"-0.007": 8.09345021407,
			"-0.006": 15.7533423596,
			"-0.005": 23.1109671556,
			"-0.004": 22.6151251914,
			"-0.003": 24.5761081139,
			"-0.002": 21.2592082729,
			"-0.001": 23.2250559008,
			"0.0": 23.1916551183,
			"0.001": 22.8838135272,
			"0.002": 22.5964949632,
			"0.003": 15.7985683467,
			"0.004": 11.9803430646,
			"0.005": 11.9638631016,
			"0.006": 7.73465396587,
			"0.007": 5.51216735663,
			"0.008": 7.69413957634,
			"0.009": 6.81924695047,
			"0.01": 4.17646125002,
			"0.011": 2.50881682152,
			"0.012": 0.0510175443516,
			"0.013": 0.0,
			"0.014": 0.0,
			"0.015": 0.0,
			"0.016": 0.0,
			"0.017": 0.0,
			"0.018": 0.0,
			"0.019": 0.0,
			"0.02": 0.0,
			"0.021": 0.0,
			"0.022": 0.0,
			"0.023": 0.0,
			"0.024": 0.0,
			"0.025": 0.0
		}
	}
}
