{
	 "smiles": "CC1=CC=C(C=C1)[Si](C)(C)C1=CC=CC=C1CO", 
	 "Tm": 329.15, 
	 "num_atms": 38, 
	 "gaussian": { 
		 "optdone": 1, 
		 "sigma_profile": "yes", 
		 "theory": "DFT", 
		 "functional": "B3LYP", 
		 "basiset": "6-31G**", 
		 "properties": { 
			 "R2extent": 6036.5698, 
			 "electric_dipole_moment_norm": 1.34360363947, 
			 "electric_quadrupole_moment_norm": 7.32649678291, 
			 "total_energy": -986.514665911, 
			 "HOMO_LUMO_gap": 0.21549, 
			 "cosmo_polarized_energy": -8.76, 
			 "cosmo_cavitation_energy": 40.75, 
			 "cosmo_dispersion_energy": -26.38, 
			 "cosmo_repulsion_energy": 2.12, 
			 "cosmo_total_nonelectrostatic_energy": 16.5, 
			 "SMD_solvation_energy": 7.93 
		},
		"coords": [
			{
				"x": -5.6656031284,
				"y": -1.7427098181,
				"z": -0.6987080649,
				"element": "C" 
			},
			{
				"x": -4.1882706424,
				"y": -1.428776819,
				"z": -0.6761425766,
				"element": "C" 
			},
			{
				"x": -3.5444433429,
				"y": -1.0789503799,
				"z": 0.5196157388,
				"element": "C" 
			},
			{
				"x": -2.1765541089,
				"y": -0.8159461602,
				"z": 0.5473432275,
				"element": "C" 
			},
			{
				"x": -1.3841263386,
				"y": -0.8855680534,
				"z": -0.6153651094,
				"element": "C" 
			},
			{
				"x": -2.041869374,
				"y": -1.2353056828,
				"z": -1.8072162204,
				"element": "C" 
			},
			{
				"x": -3.4131948362,
				"y": -1.4990755246,
				"z": -1.8389129157,
				"element": "C" 
			},
			{
				"x": 0.4809648969,
				"y": -0.5406749139,
				"z": -0.5455318593,
				"element": "Si" 
			},
			{
				"x": 1.1783363019,
				"y": -1.5405799893,
				"z": 0.902482622,
				"element": "C" 
			},
			{
				"x": 1.2627117445,
				"y": -1.1259960947,
				"z": -2.1666731592,
				"element": "C" 
			},
			{
				"x": 0.6894904117,
				"y": 1.3523470077,
				"z": -0.344584183,
				"element": "C" 
			},
			{
				"x": -0.3680668887,
				"y": 2.1590635266,
				"z": -0.8051605937,
				"element": "C" 
			},
			{
				"x": -0.3256794688,
				"y": 3.5543890725,
				"z": -0.7485269912,
				"element": "C" 
			},
			{
				"x": 0.7928420443,
				"y": 4.1881373967,
				"z": -0.2152949394,
				"element": "C" 
			},
			{
				"x": 1.8574661978,
				"y": 3.4145470842,
				"z": 0.2485538992,
				"element": "C" 
			},
			{
				"x": 1.8229370431,
				"y": 2.0158023891,
				"z": 0.1937364172,
				"element": "C" 
			},
			{
				"x": 3.0278733377,
				"y": 1.2598647575,
				"z": 0.718498947,
				"element": "C" 
			},
			{
				"x": 3.5986910274,
				"y": 0.3614501056,
				"z": -0.2348907959,
				"element": "O" 
			},
			{
				"x": -6.2271940596,
				"y": -1.0769924142,
				"z": -0.0352618275,
				"element": "H" 
			},
			{
				"x": -6.0805389341,
				"y": -1.6462269186,
				"z": -1.70630334,
				"element": "H" 
			},
			{
				"x": -5.8580023627,
				"y": -2.7694982811,
				"z": -0.3626251818,
				"element": "H" 
			},
			{
				"x": -4.1237476829,
				"y": -1.0122274346,
				"z": 1.4381876418,
				"element": "H" 
			},
			{
				"x": -1.7202552791,
				"y": -0.5464646688,
				"z": 1.4976913481,
				"element": "H" 
			},
			{
				"x": -1.4798661026,
				"y": -1.304806229,
				"z": -2.7353246377,
				"element": "H" 
			},
			{
				"x": -3.887463338,
				"y": -1.7641945235,
				"z": -2.7814125949,
				"element": "H" 
			},
			{
				"x": 2.2709903211,
				"y": -1.5284458858,
				"z": 0.9032504789,
				"element": "H" 
			},
			{
				"x": 0.8515134222,
				"y": -2.5821627448,
				"z": 0.8083860333,
				"element": "H" 
			},
			{
				"x": 0.8236749458,
				"y": -1.1747400584,
				"z": 1.8720728924,
				"element": "H" 
			},
			{
				"x": 2.3498345741,
				"y": -1.0332307112,
				"z": -2.1019149448,
				"element": "H" 
			},
			{
				"x": 1.0229326434,
				"y": -2.1775782326,
				"z": -2.359534907,
				"element": "H" 
			},
			{
				"x": 0.9204600432,
				"y": -0.5392293225,
				"z": -3.0256945875,
				"element": "H" 
			},
			{
				"x": -1.2573037402,
				"y": 1.685304365,
				"z": -1.2110293699,
				"element": "H" 
			},
			{
				"x": -1.1656645593,
				"y": 4.1375341071,
				"z": -1.1160534064,
				"element": "H" 
			},
			{
				"x": 0.8422299542,
				"y": 5.2721967664,
				"z": -0.1617781439,
				"element": "H" 
			},
			{
				"x": 2.735667047,
				"y": 3.9054649076,
				"z": 0.6625359459,
				"element": "H" 
			},
			{
				"x": 2.7540256763,
				"y": 0.6316321008,
				"z": 1.5712374647,
				"element": "H" 
			},
			{
				"x": 3.7822492168,
				"y": 1.9765547091,
				"z": 1.0749882835,
				"element": "H" 
			},
			{
				"x": 3.7775533378,
				"y": 0.871192565,
				"z": -1.0366405903,
				"element": "H" 
			}
		],
		 "valence_orbital": [ 
			{
				"type": "occ",
				"energy": -0.27603,
				"method": "rhf"
			},
			{
				"type": "occ",
				"energy": -0.24732,
				"method": "rhf"
			},
			{
				"type": "occ",
				"energy": -0.24173,
				"method": "rhf"
			},
			{
				"type": "occ",
				"energy": -0.24067,
				"method": "rhf"
			},
			{
				"type": "occ",
				"energy": -0.23128,
				"method": "rhf"
			},
			{
				"type": "unocc",
				"energy": -0.01579,
				"method": "rhf"
			},
			{
				"type": "unocc",
				"energy": -0.00278,
				"method": "rhf"
			},
			{
				"type": "unocc",
				"energy": -0.00116,
				"method": "rhf"
			},
			{
				"type": "unocc",
				"energy": 0.00727,
				"method": "rhf"
			},
			{
				"type": "unocc",
				"energy": 0.07798,
				"method": "rhf"
			}
		],
		"cosmo_sigma_profile": { 
			"-0.025": 0.0,
			"-0.024": 0.0,
			"-0.023": 0.0,
			"-0.022": 0.0,
			"-0.021": 0.0,
			"-0.02": 0.0,
			"-0.019": 0.0,
			"-0.018": 0.0,
			"-0.017": 0.0,
			"-0.016": 0.0,
			"-0.015": 0.605098610849,
			"-0.014": 0.877436332728,
			"-0.013": 0.894461457009,
			"-0.012": 0.775138678432,
			"-0.011": 0.434289791492,
			"-0.01": 0.769276497977,
			"-0.009": 0.888015105087,
			"-0.008": 0.810181204665,
			"-0.007": 1.34421251274,
			"-0.006": 3.31288468392,
			"-0.005": 13.1557982742,
			"-0.004": 27.9855789113,
			"-0.003": 38.4365099098,
			"-0.002": 32.6368539967,
			"-0.001": 32.3239281154,
			"0.0": 31.0706954691,
			"0.001": 26.9516203713,
			"0.002": 24.1700212257,
			"0.003": 19.4171900485,
			"0.004": 17.3158083112,
			"0.005": 15.8846277824,
			"0.006": 15.3879414025,
			"0.007": 5.52370959262,
			"0.008": 1.12044244407,
			"0.009": 0.729830578631,
			"0.01": 1.20267116612,
			"0.011": 1.16456827576,
			"0.012": 0.847417701555,
			"0.013": 0.851036745944,
			"0.014": 0.790585683444,
			"0.015": 0.0117958758683,
			"0.016": 0.0,
			"0.017": 0.0,
			"0.018": 0.0,
			"0.019": 0.0,
			"0.02": 0.0,
			"0.021": 0.0,
			"0.022": 0.0,
			"0.023": 0.0,
			"0.024": 0.0,
			"0.025": 0.0
		}
	}
}
