{
	 "smiles": "FC(F)(F)C1=NN=C(S1)N1C(=O)CCC1=O", 
	 "Tm": 494.15, 
	 "num_atms": 20, 
	 "gaussian": { 
		 "optdone": 1, 
		 "sigma_profile": "yes", 
		 "theory": "DFT", 
		 "functional": "B3LYP", 
		 "basiset": "6-31G**", 
		 "properties": { 
			 "R2extent": 6382.8194, 
			 "electric_dipole_moment_norm": 6.33440731087, 
			 "electric_quadrupole_moment_norm": 9.40262126856, 
			 "total_energy": -1281.54467646, 
			 "HOMO_LUMO_gap": 0.20321, 
			 "cosmo_polarized_energy": -18.08, 
			 "cosmo_cavitation_energy": 28.6, 
			 "cosmo_dispersion_energy": -21.32, 
			 "cosmo_repulsion_energy": 1.56, 
			 "cosmo_total_nonelectrostatic_energy": 8.83, 
			 "SMD_solvation_energy": 5.62 
		},
		"coords": [
			{
				"x": -1.7932913845,
				"y": 3.9198952045,
				"z": 3.8260023378,
				"element": "F" 
			},
			{
				"x": -1.4524002326,
				"y": 4.1531768919,
				"z": 2.5387005975,
				"element": "C" 
			},
			{
				"x": -0.436864754,
				"y": 5.0215336827,
				"z": 2.5178149404,
				"element": "F" 
			},
			{
				"x": -2.5128943213,
				"y": 4.7321200113,
				"z": 1.9423916754,
				"element": "F" 
			},
			{
				"x": -1.0873164452,
				"y": 2.8595604,
				"z": 1.8572315527,
				"element": "C" 
			},
			{
				"x": -0.2758718966,
				"y": 2.815431852,
				"z": 0.8438969839,
				"element": "N" 
			},
			{
				"x": -0.1302357538,
				"y": 1.5565494409,
				"z": 0.341636577,
				"element": "N" 
			},
			{
				"x": -0.8454477843,
				"y": 0.6788901603,
				"z": 0.992258657,
				"element": "C" 
			},
			{
				"x": -1.7896513371,
				"y": 1.3343520996,
				"z": 2.328532995,
				"element": "S" 
			},
			{
				"x": -0.8620187239,
				"y": -0.6814080253,
				"z": 0.6716892171,
				"element": "N" 
			},
			{
				"x": -1.6649122652,
				"y": -1.6076352818,
				"z": 1.3655634252,
				"element": "C" 
			},
			{
				"x": -2.3923526147,
				"y": -1.3127233283,
				"z": 2.28966621,
				"element": "O" 
			},
			{
				"x": -1.452034251,
				"y": -2.9835341332,
				"z": 0.763971481,
				"element": "C" 
			},
			{
				"x": -0.4344267618,
				"y": -2.7847849501,
				"z": -0.3631522046,
				"element": "C" 
			},
			{
				"x": -0.0858446137,
				"y": -1.3003081236,
				"z": -0.3715180528,
				"element": "C" 
			},
			{
				"x": 0.6847990385,
				"y": -0.7397881212,
				"z": -1.0991202981,
				"element": "O" 
			},
			{
				"x": -1.106415426,
				"y": -3.655935687,
				"z": 1.5543193781,
				"element": "H" 
			},
			{
				"x": -2.4186033079,
				"y": -3.364347643,
				"z": 0.4220265799,
				"element": "H" 
			},
			{
				"x": 0.4902028691,
				"y": -3.3508356983,
				"z": -0.2216340858,
				"element": "H" 
			},
			{
				"x": -0.8220200342,
				"y": -3.0480087514,
				"z": -1.3511779664,
				"element": "H" 
			}
		],
		 "valence_orbital": [ 
			{
				"type": "occ",
				"energy": -0.32159,
				"method": "rhf"
			},
			{
				"type": "occ",
				"energy": -0.31508,
				"method": "rhf"
			},
			{
				"type": "occ",
				"energy": -0.29086,
				"method": "rhf"
			},
			{
				"type": "occ",
				"energy": -0.27899,
				"method": "rhf"
			},
			{
				"type": "occ",
				"energy": -0.27371,
				"method": "rhf"
			},
			{
				"type": "unocc",
				"energy": -0.0705,
				"method": "rhf"
			},
			{
				"type": "unocc",
				"energy": -0.04805,
				"method": "rhf"
			},
			{
				"type": "unocc",
				"energy": -0.01814,
				"method": "rhf"
			},
			{
				"type": "unocc",
				"energy": -0.00315,
				"method": "rhf"
			},
			{
				"type": "unocc",
				"energy": 0.03652,
				"method": "rhf"
			}
		],
		"cosmo_sigma_profile": { 
			"-0.025": 0.0,
			"-0.024": 0.0,
			"-0.023": 0.0,
			"-0.022": 0.0,
			"-0.021": 0.0,
			"-0.02": 0.0,
			"-0.019": 0.0,
			"-0.018": 0.0,
			"-0.017": 0.0,
			"-0.016": 0.0,
			"-0.015": 0.0,
			"-0.014": 0.0,
			"-0.013": 0.0,
			"-0.012": 0.0,
			"-0.011": 0.641583303619,
			"-0.01": 1.66579668841,
			"-0.009": 4.37808252154,
			"-0.008": 17.3042994786,
			"-0.007": 13.8193200622,
			"-0.006": 11.4889422658,
			"-0.005": 13.2954293674,
			"-0.004": 13.5007097377,
			"-0.003": 11.5008485289,
			"-0.002": 10.9171787173,
			"-0.001": 11.1771895681,
			"0.0": 14.2969046447,
			"0.001": 19.910386824,
			"0.002": 28.2120848612,
			"0.003": 7.28386238038,
			"0.004": 5.01165577554,
			"0.005": 3.90481816095,
			"0.006": 4.71238509854,
			"0.007": 5.39957886982,
			"0.008": 5.4887799185,
			"0.009": 7.25406928989,
			"0.01": 9.12908260094,
			"0.011": 5.17610083355,
			"0.012": 2.65244139352,
			"0.013": 1.5637120226,
			"0.014": 1.31044190011,
			"0.015": 0.833320004076,
			"0.016": 0.681142703075,
			"0.017": 0.0,
			"0.018": 0.0,
			"0.019": 0.0,
			"0.02": 0.0,
			"0.021": 0.0,
			"0.022": 0.0,
			"0.023": 0.0,
			"0.024": 0.0,
			"0.025": 0.0
		}
	}
}
