{
	 "smiles": "OC1C(O)C2CCC1C2", 
	 "Tm": 413.15, 
	 "num_atms": 21, 
	 "gaussian": { 
		 "optdone": 1, 
		 "sigma_profile": "yes", 
		 "theory": "DFT", 
		 "functional": "B3LYP", 
		 "basiset": "6-31G**", 
		 "properties": { 
			 "R2extent": 1662.9878, 
			 "electric_dipole_moment_norm": 1.50120171529, 
			 "electric_quadrupole_moment_norm": 14.1116573424, 
			 "total_energy": -424.403102966, 
			 "HOMO_LUMO_gap": 0.31181, 
			 "cosmo_polarized_energy": -10.54, 
			 "cosmo_cavitation_energy": 21.37, 
			 "cosmo_dispersion_energy": -16.47, 
			 "cosmo_repulsion_energy": 1.35, 
			 "cosmo_total_nonelectrostatic_energy": 6.25, 
			 "SMD_solvation_energy": 2.94 
		},
		"coords": [
			{
				"x": 2.0987581962,
				"y": 1.0942327284,
				"z": 2.2399543416,
				"element": "O" 
			},
			{
				"x": 1.028656134,
				"y": 0.160065396,
				"z": 2.209228149,
				"element": "C" 
			},
			{
				"x": 1.4422409733,
				"y": -1.3103074229,
				"z": 1.8365542799,
				"element": "C" 
			},
			{
				"x": 1.0258674363,
				"y": -2.2647629173,
				"z": 2.8092484676,
				"element": "O" 
			},
			{
				"x": 0.6459273596,
				"y": -1.5724908065,
				"z": 0.5474948183,
				"element": "C" 
			},
			{
				"x": 1.2536872406,
				"y": -0.710636987,
				"z": -0.5847761124,
				"element": "C" 
			},
			{
				"x": 0.799530831,
				"y": 0.7392590779,
				"z": -0.221264379,
				"element": "C" 
			},
			{
				"x": 0.0222863227,
				"y": 0.5362310739,
				"z": 1.0992306818,
				"element": "C" 
			},
			{
				"x": -0.6705602151,
				"y": -0.8217893192,
				"z": 0.8554665517,
				"element": "C" 
			},
			{
				"x": 2.7028954542,
				"y": 0.8434903773,
				"z": 2.949824417,
				"element": "H" 
			},
			{
				"x": 0.5100267148,
				"y": 0.128821352,
				"z": 3.181677121,
				"element": "H" 
			},
			{
				"x": 2.5301742928,
				"y": -1.3666746531,
				"z": 1.669765682,
				"element": "H" 
			},
			{
				"x": 1.4394776379,
				"y": -2.0409374946,
				"z": 3.6531593805,
				"element": "H" 
			},
			{
				"x": 0.5660977022,
				"y": -2.637585902,
				"z": 0.3178173613,
				"element": "H" 
			},
			{
				"x": 2.343488371,
				"y": -0.8074957348,
				"z": -0.6352333247,
				"element": "H" 
			},
			{
				"x": 0.8563590736,
				"y": -1.0228419474,
				"z": -1.5557836632,
				"element": "H" 
			},
			{
				"x": 0.1347726819,
				"y": 1.1507471094,
				"z": -0.9877507619,
				"element": "H" 
			},
			{
				"x": 1.6366862611,
				"y": 1.4279072168,
				"z": -0.0968687271,
				"element": "H" 
			},
			{
				"x": -0.6212549501,
				"y": 1.3764575275,
				"z": 1.3721113773,
				"element": "H" 
			},
			{
				"x": -1.3674837909,
				"y": -0.7989489836,
				"z": 0.0112389014,
				"element": "H" 
			},
			{
				"x": -1.185133727,
				"y": -1.2212396908,
				"z": 1.734105438,
				"element": "H" 
			}
		],
		 "valence_orbital": [ 
			{
				"type": "occ",
				"energy": -0.31947,
				"method": "rhf"
			},
			{
				"type": "occ",
				"energy": -0.30529,
				"method": "rhf"
			},
			{
				"type": "occ",
				"energy": -0.30153,
				"method": "rhf"
			},
			{
				"type": "occ",
				"energy": -0.2727,
				"method": "rhf"
			},
			{
				"type": "occ",
				"energy": -0.25086,
				"method": "rhf"
			},
			{
				"type": "unocc",
				"energy": 0.06095,
				"method": "rhf"
			},
			{
				"type": "unocc",
				"energy": 0.08963,
				"method": "rhf"
			},
			{
				"type": "unocc",
				"energy": 0.09725,
				"method": "rhf"
			},
			{
				"type": "unocc",
				"energy": 0.1172,
				"method": "rhf"
			},
			{
				"type": "unocc",
				"energy": 0.13595,
				"method": "rhf"
			}
		],
		"cosmo_sigma_profile": { 
			"-0.025": 0.0,
			"-0.024": 0.0,
			"-0.023": 0.0,
			"-0.022": 0.0,
			"-0.021": 0.0,
			"-0.02": 0.0,
			"-0.019": 0.0,
			"-0.018": 0.0,
			"-0.017": 0.0,
			"-0.016": 0.360884379854,
			"-0.015": 2.31728148678,
			"-0.014": 2.27873003225,
			"-0.013": 2.45368785972,
			"-0.012": 2.16967983546,
			"-0.011": 1.91386320759,
			"-0.01": 1.59384686081,
			"-0.009": 1.67715086614,
			"-0.008": 1.34359852728,
			"-0.007": 1.43913173015,
			"-0.006": 1.89746531104,
			"-0.005": 2.30197244172,
			"-0.004": 2.18169677093,
			"-0.003": 11.3161507168,
			"-0.002": 20.2868183631,
			"-0.001": 21.8472107948,
			"0.0": 20.6974335234,
			"0.001": 19.6541846574,
			"0.002": 11.6173199298,
			"0.003": 4.12267826858,
			"0.004": 2.93116316467,
			"0.005": 1.97747996747,
			"0.006": 2.4715778112,
			"0.007": 3.42391159544,
			"0.008": 2.80241887773,
			"0.009": 3.18687816402,
			"0.01": 2.71502675076,
			"0.011": 2.82254484881,
			"0.012": 2.50947470898,
			"0.013": 2.22312449559,
			"0.014": 2.94047051567,
			"0.015": 0.52318593208,
			"0.016": 0.0,
			"0.017": 0.0,
			"0.018": 0.0,
			"0.019": 0.0,
			"0.02": 0.0,
			"0.021": 0.0,
			"0.022": 0.0,
			"0.023": 0.0,
			"0.024": 0.0,
			"0.025": 0.0
		}
	}
}
