{
	 "smiles": "NC1=C(NC2CC2)N=CN=C1Cl", 
	 "Tm": 413.15, 
	 "num_atms": 21, 
	 "gaussian": { 
		 "optdone": 1, 
		 "sigma_profile": "yes", 
		 "theory": "DFT", 
		 "functional": "B3LYP", 
		 "basiset": "6-31G**", 
		 "properties": { 
			 "R2extent": 4000.7193, 
			 "electric_dipole_moment_norm": 4.42223149665, 
			 "electric_quadrupole_moment_norm": 13.9937532535, 
			 "total_energy": -951.340840157, 
			 "HOMO_LUMO_gap": 0.19534, 
			 "cosmo_polarized_energy": -13.53, 
			 "cosmo_cavitation_energy": 26.6, 
			 "cosmo_dispersion_energy": -19.81, 
			 "cosmo_repulsion_energy": 1.61, 
			 "cosmo_total_nonelectrostatic_energy": 8.4, 
			 "SMD_solvation_energy": 0.8 
		},
		"coords": [
			{
				"x": 3.5283225484,
				"y": 1.8361205238,
				"z": -0.4779797298,
				"element": "N" 
			},
			{
				"x": 2.2723515355,
				"y": 1.3660251771,
				"z": -0.9039234719,
				"element": "C" 
			},
			{
				"x": 1.3331411813,
				"y": 0.911188547,
				"z": 0.0683755365,
				"element": "C" 
			},
			{
				"x": 1.6813695068,
				"y": 0.9672251727,
				"z": 1.3898088673,
				"element": "N" 
			},
			{
				"x": 0.8496265235,
				"y": 0.4291624032,
				"z": 2.4312841985,
				"element": "C" 
			},
			{
				"x": 0.8482711976,
				"y": -1.0482708334,
				"z": 2.7415068287,
				"element": "C" 
			},
			{
				"x": 1.5150058717,
				"y": -0.0693595762,
				"z": 3.6826115523,
				"element": "C" 
			},
			{
				"x": 0.1180123293,
				"y": 0.4631691618,
				"z": -0.2715753188,
				"element": "N" 
			},
			{
				"x": -0.1540735048,
				"y": 0.419349077,
				"z": -1.5781922145,
				"element": "C" 
			},
			{
				"x": 0.6553165296,
				"y": 0.7601879587,
				"z": -2.5801053322,
				"element": "N" 
			},
			{
				"x": 1.8426405306,
				"y": 1.232190505,
				"z": -2.2163469769,
				"element": "C" 
			},
			{
				"x": 2.939607917,
				"y": 1.7100878067,
				"z": -3.5211700494,
				"element": "Cl" 
			},
			{
				"x": 4.1362250129,
				"y": 2.0513594003,
				"z": -1.2608769953,
				"element": "H" 
			},
			{
				"x": 3.4466820849,
				"y": 2.656551655,
				"z": 0.1180758581,
				"element": "H" 
			},
			{
				"x": 2.6729687473,
				"y": 1.0506395814,
				"z": 1.5691559391,
				"element": "H" 
			},
			{
				"x": -0.0972362553,
				"y": 0.9510833957,
				"z": 2.5337446236,
				"element": "H" 
			},
			{
				"x": 1.4901669915,
				"y": -1.6833495656,
				"z": 2.1393866838,
				"element": "H" 
			},
			{
				"x": -0.0909090592,
				"y": -1.5042307959,
				"z": 3.038273536,
				"element": "H" 
			},
			{
				"x": 1.0453290343,
				"y": 0.1531639688,
				"z": 4.6354338991,
				"element": "H" 
			},
			{
				"x": 2.6019461881,
				"y": -0.0669466605,
				"z": 3.7161901732,
				"element": "H" 
			},
			{
				"x": -1.1410649111,
				"y": 0.0565530975,
				"z": -1.8561776074,
				"element": "H" 
			}
		],
		 "valence_orbital": [ 
			{
				"type": "occ",
				"energy": -0.30264,
				"method": "rhf"
			},
			{
				"type": "occ",
				"energy": -0.29707,
				"method": "rhf"
			},
			{
				"type": "occ",
				"energy": -0.26283,
				"method": "rhf"
			},
			{
				"type": "occ",
				"energy": -0.25225,
				"method": "rhf"
			},
			{
				"type": "occ",
				"energy": -0.21442,
				"method": "rhf"
			},
			{
				"type": "unocc",
				"energy": -0.01908,
				"method": "rhf"
			},
			{
				"type": "unocc",
				"energy": -0.00968,
				"method": "rhf"
			},
			{
				"type": "unocc",
				"energy": 0.03276,
				"method": "rhf"
			},
			{
				"type": "unocc",
				"energy": 0.06522,
				"method": "rhf"
			},
			{
				"type": "unocc",
				"energy": 0.09224,
				"method": "rhf"
			}
		],
		"cosmo_sigma_profile": { 
			"-0.025": 0.0,
			"-0.024": 0.0,
			"-0.023": 0.0,
			"-0.022": 0.0,
			"-0.021": 0.0,
			"-0.02": 0.0,
			"-0.019": 0.0,
			"-0.018": 0.0,
			"-0.017": 0.0,
			"-0.016": 0.0,
			"-0.015": 0.0,
			"-0.014": 0.0654201324305,
			"-0.013": 1.08845265047,
			"-0.012": 2.36056351947,
			"-0.011": 3.96195321566,
			"-0.01": 4.30443154335,
			"-0.009": 3.60434330304,
			"-0.008": 2.86681256674,
			"-0.007": 5.33863270098,
			"-0.006": 5.8946320297,
			"-0.005": 12.4811978484,
			"-0.004": 13.355544896,
			"-0.003": 12.2617257874,
			"-0.002": 14.0260982574,
			"-0.001": 18.4254036589,
			"0.0": 18.4079676889,
			"0.001": 16.1078508933,
			"0.002": 14.5409227241,
			"0.003": 13.3342625728,
			"0.004": 12.8440074007,
			"0.005": 9.06297571082,
			"0.006": 5.19239513344,
			"0.007": 5.21202177604,
			"0.008": 2.99752104082,
			"0.009": 3.31407653407,
			"0.01": 2.10767836361,
			"0.011": 3.3404198824,
			"0.012": 2.93509420177,
			"0.013": 1.75903850408,
			"0.014": 1.66547312139,
			"0.015": 0.903836540764,
			"0.016": 0.00495961308701,
			"0.017": 0.0,
			"0.018": 0.0,
			"0.019": 0.0,
			"0.02": 0.0,
			"0.021": 0.0,
			"0.022": 0.0,
			"0.023": 0.0,
			"0.024": 0.0,
			"0.025": 0.0
		}
	}
}
