{
	 "smiles": "CCC(C1=NN=C(N)O1)C1=CC=CC=C1", 
	 "Tm": 471.15, 
	 "num_atms": 28, 
	 "gaussian": { 
		 "optdone": 1, 
		 "sigma_profile": "yes", 
		 "theory": "DFT", 
		 "functional": "B3LYP", 
		 "basiset": "6-31G**", 
		 "properties": { 
			 "R2extent": 3557.7353, 
			 "electric_dipole_moment_norm": 3.98929967538, 
			 "electric_quadrupole_moment_norm": 21.6169591839, 
			 "total_energy": -666.465425184, 
			 "HOMO_LUMO_gap": 0.22169, 
			 "cosmo_polarized_energy": -17.13, 
			 "cosmo_cavitation_energy": 31.96, 
			 "cosmo_dispersion_energy": -22.36, 
			 "cosmo_repulsion_energy": 1.79, 
			 "cosmo_total_nonelectrostatic_energy": 11.4, 
			 "SMD_solvation_energy": 3.58 
		},
		"coords": [
			{
				"x": 1.9086867031,
				"y": 1.1614129758,
				"z": 2.0447286879,
				"element": "C" 
			},
			{
				"x": 1.5857424982,
				"y": 0.8061047048,
				"z": 0.590620863,
				"element": "C" 
			},
			{
				"x": 0.1064325507,
				"y": 1.0595725344,
				"z": 0.1972816881,
				"element": "C" 
			},
			{
				"x": -0.844392043,
				"y": 0.2736541594,
				"z": 1.0461365656,
				"element": "C" 
			},
			{
				"x": -1.8344678031,
				"y": 0.6985488829,
				"z": 1.7545732043,
				"element": "N" 
			},
			{
				"x": -2.4109896353,
				"y": -0.4201600113,
				"z": 2.3812901486,
				"element": "N" 
			},
			{
				"x": -1.7112172115,
				"y": -1.4363742272,
				"z": 1.9791242607,
				"element": "C" 
			},
			{
				"x": -1.9079079682,
				"y": -2.7677634266,
				"z": 2.2365478782,
				"element": "N" 
			},
			{
				"x": -0.6950918463,
				"y": -1.1003009041,
				"z": 1.1398832653,
				"element": "O" 
			},
			{
				"x": -0.1232389912,
				"y": 0.8481498082,
				"z": -1.2992742626,
				"element": "C" 
			},
			{
				"x": -0.3893542184,
				"y": 1.9494571393,
				"z": -2.1220433849,
				"element": "C" 
			},
			{
				"x": -0.5665060453,
				"y": 1.7904960625,
				"z": -3.4975204541,
				"element": "C" 
			},
			{
				"x": -0.4820213077,
				"y": 0.5216394223,
				"z": -4.0713196389,
				"element": "C" 
			},
			{
				"x": -0.2201011123,
				"y": -0.5842616578,
				"z": -3.2600390023,
				"element": "C" 
			},
			{
				"x": -0.0411847503,
				"y": -0.4229339809,
				"z": -1.8858853803,
				"element": "C" 
			},
			{
				"x": 1.686298982,
				"y": 2.2131240073,
				"z": 2.2555434196,
				"element": "H" 
			},
			{
				"x": 1.3285433381,
				"y": 0.5558915669,
				"z": 2.748505051,
				"element": "H" 
			},
			{
				"x": 2.9694066155,
				"y": 0.9947965106,
				"z": 2.2572579583,
				"element": "H" 
			},
			{
				"x": 1.8315660101,
				"y": -0.2442383673,
				"z": 0.3953644314,
				"element": "H" 
			},
			{
				"x": 2.2104151505,
				"y": 1.3986067004,
				"z": -0.0871756287,
				"element": "H" 
			},
			{
				"x": -0.1346585508,
				"y": 2.1028483994,
				"z": 0.4279613765,
				"element": "H" 
			},
			{
				"x": -1.0678479901,
				"y": -3.3282952314,
				"z": 2.2820418163,
				"element": "H" 
			},
			{
				"x": -2.5474220704,
				"y": -2.9266434526,
				"z": 3.0031674867,
				"element": "H" 
			},
			{
				"x": -0.4617889455,
				"y": 2.9406045076,
				"z": -1.6811245787,
				"element": "H" 
			},
			{
				"x": -0.7740953987,
				"y": 2.6578095387,
				"z": -4.1178939852,
				"element": "H" 
			},
			{
				"x": -0.6220534995,
				"y": 0.3942651888,
				"z": -5.140879632,
				"element": "H" 
			},
			{
				"x": -0.1569232282,
				"y": -1.5768784329,
				"z": -3.6972469725,
				"element": "H" 
			},
			{
				"x": 0.1519707681,
				"y": -1.2924324172,
				"z": -1.2651251811,
				"element": "H" 
			}
		],
		 "valence_orbital": [ 
			{
				"type": "occ",
				"energy": -0.30611,
				"method": "rhf"
			},
			{
				"type": "occ",
				"energy": -0.266,
				"method": "rhf"
			},
			{
				"type": "occ",
				"energy": -0.25021,
				"method": "rhf"
			},
			{
				"type": "occ",
				"energy": -0.24572,
				"method": "rhf"
			},
			{
				"type": "occ",
				"energy": -0.22904,
				"method": "rhf"
			},
			{
				"type": "unocc",
				"energy": -0.00735,
				"method": "rhf"
			},
			{
				"type": "unocc",
				"energy": -0.00243,
				"method": "rhf"
			},
			{
				"type": "unocc",
				"energy": 0.01893,
				"method": "rhf"
			},
			{
				"type": "unocc",
				"energy": 0.05378,
				"method": "rhf"
			},
			{
				"type": "unocc",
				"energy": 0.06764,
				"method": "rhf"
			}
		],
		"cosmo_sigma_profile": { 
			"-0.025": 0.0,
			"-0.024": 0.0,
			"-0.023": 0.0,
			"-0.022": 0.0,
			"-0.021": 0.0,
			"-0.02": 0.0,
			"-0.019": 0.0,
			"-0.018": 0.0,
			"-0.017": 0.0,
			"-0.016": 0.0350001541513,
			"-0.015": 1.63598152413,
			"-0.014": 2.95462412491,
			"-0.013": 2.37548694196,
			"-0.012": 2.24602304033,
			"-0.011": 2.79157953773,
			"-0.01": 2.19171376132,
			"-0.009": 1.57107929302,
			"-0.008": 1.76161103851,
			"-0.007": 2.28209466566,
			"-0.006": 7.79355895204,
			"-0.005": 12.81951868,
			"-0.004": 18.3896943604,
			"-0.003": 26.9987129152,
			"-0.002": 20.9828062283,
			"-0.001": 21.5718753174,
			"0.0": 21.4816907506,
			"0.001": 19.6600319764,
			"0.002": 14.0311318339,
			"0.003": 12.2507246395,
			"0.004": 10.5172651452,
			"0.005": 10.3461453492,
			"0.006": 9.54043553683,
			"0.007": 2.06223677398,
			"0.008": 2.30936979675,
			"0.009": 2.81228069836,
			"0.01": 2.54769988899,
			"0.011": 3.04924432531,
			"0.012": 2.88673328288,
			"0.013": 4.07957088241,
			"0.014": 2.50941824581,
			"0.015": 2.83046017205,
			"0.016": 1.51769304519,
			"0.017": 0.287162195524,
			"0.018": 0.0,
			"0.019": 0.0,
			"0.02": 0.0,
			"0.021": 0.0,
			"0.022": 0.0,
			"0.023": 0.0,
			"0.024": 0.0,
			"0.025": 0.0
		}
	}
}
