{
	 "smiles": "O=C1OC(=O)C2C3OC(C=C3)C12", 
	 "Tm": 393.15, 
	 "num_atms": 18, 
	 "gaussian": { 
		 "optdone": 1, 
		 "sigma_profile": "yes", 
		 "theory": "DFT", 
		 "functional": "B3LYP", 
		 "basiset": "6-31G**", 
		 "properties": { 
			 "R2extent": 1947.5974, 
			 "electric_dipole_moment_norm": 3.04661987291, 
			 "electric_quadrupole_moment_norm": 13.9369160997, 
			 "total_energy": -609.313969852, 
			 "HOMO_LUMO_gap": 0.23714, 
			 "cosmo_polarized_energy": -13.43, 
			 "cosmo_cavitation_energy": 21.55, 
			 "cosmo_dispersion_energy": -16.4, 
			 "cosmo_repulsion_energy": 1.31, 
			 "cosmo_total_nonelectrostatic_energy": 6.46, 
			 "SMD_solvation_energy": 5.04 
		},
		"coords": [
			{
				"x": 1.9291487574,
				"y": 1.328126312,
				"z": 3.0322637292,
				"element": "O" 
			},
			{
				"x": 1.5010457129,
				"y": 0.4387191714,
				"z": 2.3539658398,
				"element": "C" 
			},
			{
				"x": 2.2956782936,
				"y": -0.6460122553,
				"z": 1.990604705,
				"element": "O" 
			},
			{
				"x": 1.5933699458,
				"y": -1.5606444255,
				"z": 1.2093717078,
				"element": "C" 
			},
			{
				"x": 2.108667794,
				"y": -2.5633643565,
				"z": 0.805116141,
				"element": "O" 
			},
			{
				"x": 0.1814179259,
				"y": -1.056216528,
				"z": 0.9898371524,
				"element": "C" 
			},
			{
				"x": -0.159570247,
				"y": -0.5774312571,
				"z": -0.4846146343,
				"element": "C" 
			},
			{
				"x": -1.1231171695,
				"y": 0.440472266,
				"z": -0.1826801995,
				"element": "O" 
			},
			{
				"x": -0.2459053415,
				"y": 1.2802434256,
				"z": 0.5795313974,
				"element": "C" 
			},
			{
				"x": 0.9681344535,
				"y": 1.3947223813,
				"z": -0.3326945329,
				"element": "C" 
			},
			{
				"x": 1.0220631095,
				"y": 0.2353582419,
				"z": -0.9966980074,
				"element": "C" 
			},
			{
				"x": 0.1198022473,
				"y": 0.2753537571,
				"z": 1.7524917514,
				"element": "C" 
			},
			{
				"x": -0.5425512043,
				"y": -1.8048854218,
				"z": 1.3164438951,
				"element": "H" 
			},
			{
				"x": -0.5805158331,
				"y": -1.3446575852,
				"z": -1.131605492,
				"element": "H" 
			},
			{
				"x": -0.7450196554,
				"y": 2.1942322865,
				"z": 0.8956575061,
				"element": "H" 
			},
			{
				"x": 1.6740578409,
				"y": 2.2154338526,
				"z": -0.3399958414,
				"element": "H" 
			},
			{
				"x": 1.7827829872,
				"y": -0.1222170975,
				"z": -1.6789005666,
				"element": "H" 
			},
			{
				"x": -0.6406896171,
				"y": 0.3205672325,
				"z": 2.5341054488,
				"element": "H" 
			}
		],
		 "valence_orbital": [ 
			{
				"type": "occ",
				"energy": -0.33488,
				"method": "rhf"
			},
			{
				"type": "occ",
				"energy": -0.31348,
				"method": "rhf"
			},
			{
				"type": "occ",
				"energy": -0.29131,
				"method": "rhf"
			},
			{
				"type": "occ",
				"energy": -0.28582,
				"method": "rhf"
			},
			{
				"type": "occ",
				"energy": -0.27681,
				"method": "rhf"
			},
			{
				"type": "unocc",
				"energy": -0.03967,
				"method": "rhf"
			},
			{
				"type": "unocc",
				"energy": -0.02081,
				"method": "rhf"
			},
			{
				"type": "unocc",
				"energy": -0.01245,
				"method": "rhf"
			},
			{
				"type": "unocc",
				"energy": 0.07138,
				"method": "rhf"
			},
			{
				"type": "unocc",
				"energy": 0.09612,
				"method": "rhf"
			}
		],
		"cosmo_sigma_profile": { 
			"-0.025": 0.0,
			"-0.024": 0.0,
			"-0.023": 0.0,
			"-0.022": 0.0,
			"-0.021": 0.0,
			"-0.02": 0.0,
			"-0.019": 0.0,
			"-0.018": 0.0,
			"-0.017": 0.0,
			"-0.016": 0.0,
			"-0.015": 0.0,
			"-0.014": 0.0,
			"-0.013": 0.0,
			"-0.012": 0.0137051807196,
			"-0.011": 0.517666076452,
			"-0.01": 1.15826032674,
			"-0.009": 5.19255532481,
			"-0.008": 16.4555204478,
			"-0.007": 15.4093247244,
			"-0.006": 11.9343840993,
			"-0.005": 9.5226389511,
			"-0.004": 7.48859333675,
			"-0.003": 8.01958120202,
			"-0.002": 7.73201568775,
			"-0.001": 7.67754513706,
			"0.0": 6.19517227182,
			"0.001": 4.80947769467,
			"0.002": 4.80768640079,
			"0.003": 6.21689557827,
			"0.004": 5.06574215787,
			"0.005": 5.93387355606,
			"0.006": 6.01630738522,
			"0.007": 8.35216793188,
			"0.008": 7.0260812373,
			"0.009": 7.76460617012,
			"0.01": 12.4811388049,
			"0.011": 5.04288053556,
			"0.012": 1.20889133458,
			"0.013": 0.0,
			"0.014": 0.0,
			"0.015": 0.0,
			"0.016": 0.0,
			"0.017": 0.0,
			"0.018": 0.0,
			"0.019": 0.0,
			"0.02": 0.0,
			"0.021": 0.0,
			"0.022": 0.0,
			"0.023": 0.0,
			"0.024": 0.0,
			"0.025": 0.0
		}
	}
}
