{
	 "smiles": "CCOC1=C(CN2CCOCC2)C=C(C=C1)C(C)=O", 
	 "Tm": 308.15, 
	 "num_atms": 40, 
	 "gaussian": { 
		 "optdone": 1, 
		 "sigma_profile": "yes", 
		 "theory": "DFT", 
		 "functional": "B3LYP", 
		 "basiset": "6-31G**", 
		 "properties": { 
			 "R2extent": 6994.5414, 
			 "electric_dipole_moment_norm": 4.09527963148, 
			 "electric_quadrupole_moment_norm": 30.21769557, 
			 "total_energy": -864.64685893, 
			 "HOMO_LUMO_gap": 0.17195, 
			 "cosmo_polarized_energy": -13.55, 
			 "cosmo_cavitation_energy": 41.32, 
			 "cosmo_dispersion_energy": -28.77, 
			 "cosmo_repulsion_energy": 2.27, 
			 "cosmo_total_nonelectrostatic_energy": 14.82, 
			 "SMD_solvation_energy": 6.51 
		},
		"coords": [
			{
				"x": 4.9556380072,
				"y": -0.8443542503,
				"z": 0.9873511777,
				"element": "C" 
			},
			{
				"x": 3.7863196442,
				"y": -1.7791900749,
				"z": 1.2410863451,
				"element": "C" 
			},
			{
				"x": 2.6359873235,
				"y": -1.2097557572,
				"z": 0.610891145,
				"element": "O" 
			},
			{
				"x": 1.4365000276,
				"y": -1.8492892683,
				"z": 0.7066403345,
				"element": "C" 
			},
			{
				"x": 0.3461598586,
				"y": -1.2024989965,
				"z": 0.0841874451,
				"element": "C" 
			},
			{
				"x": 0.5577664939,
				"y": 0.1170581204,
				"z": -0.6434507203,
				"element": "C" 
			},
			{
				"x": -0.6721583292,
				"y": 0.8914382476,
				"z": -0.7853950881,
				"element": "N" 
			},
			{
				"x": -0.6949941732,
				"y": 1.8380242901,
				"z": -1.9169848962,
				"element": "C" 
			},
			{
				"x": -0.5225933912,
				"y": 3.2900341639,
				"z": -1.4720997508,
				"element": "C" 
			},
			{
				"x": -1.5534710376,
				"y": 3.6947449171,
				"z": -0.5728331299,
				"element": "O" 
			},
			{
				"x": -2.0901491515,
				"y": 2.6322573998,
				"z": 0.2145871919,
				"element": "C" 
			},
			{
				"x": -1.073075017,
				"y": 1.5292244288,
				"z": 0.4768292835,
				"element": "C" 
			},
			{
				"x": -0.8996954411,
				"y": -1.8203813523,
				"z": 0.1234000501,
				"element": "C" 
			},
			{
				"x": -1.0993184883,
				"y": -3.0506968645,
				"z": 0.7724017543,
				"element": "C" 
			},
			{
				"x": -0.0037621134,
				"y": -3.6647970333,
				"z": 1.3925802712,
				"element": "C" 
			},
			{
				"x": 1.2550940989,
				"y": -3.0758965129,
				"z": 1.3635138454,
				"element": "C" 
			},
			{
				"x": -2.425042026,
				"y": -3.7339163078,
				"z": 0.8321195015,
				"element": "C" 
			},
			{
				"x": -3.6192137866,
				"y": -3.0768756857,
				"z": 0.1565969331,
				"element": "C" 
			},
			{
				"x": -2.5559266211,
				"y": -4.804242689,
				"z": 1.4114934062,
				"element": "O" 
			},
			{
				"x": 5.1357477246,
				"y": -0.7337038246,
				"z": -0.0855730288,
				"element": "H" 
			},
			{
				"x": 4.7576471479,
				"y": 0.14531866,
				"z": 1.4083132377,
				"element": "H" 
			},
			{
				"x": 5.8622272942,
				"y": -1.2439405244,
				"z": 1.4517824815,
				"element": "H" 
			},
			{
				"x": 3.9827397484,
				"y": -2.7759161763,
				"z": 0.8232540373,
				"element": "H" 
			},
			{
				"x": 3.601013481,
				"y": -1.8945489909,
				"z": 2.3176716451,
				"element": "H" 
			},
			{
				"x": 0.9448639043,
				"y": -0.1006128677,
				"z": -1.6471269883,
				"element": "H" 
			},
			{
				"x": 1.3522307608,
				"y": 0.6828616258,
				"z": -0.1265067705,
				"element": "H" 
			},
			{
				"x": -1.6501942856,
				"y": 1.7489991541,
				"z": -2.4529266003,
				"element": "H" 
			},
			{
				"x": 0.0929921775,
				"y": 1.5767950799,
				"z": -2.6307244936,
				"element": "H" 
			},
			{
				"x": -0.5709134085,
				"y": 3.9644752048,
				"z": -2.3345715479,
				"element": "H" 
			},
			{
				"x": 0.4651876067,
				"y": 3.4231240562,
				"z": -1.0019513052,
				"element": "H" 
			},
			{
				"x": -2.9765790791,
				"y": 2.2026863157,
				"z": -0.2784134942,
				"element": "H" 
			},
			{
				"x": -2.417598165,
				"y": 3.0745835473,
				"z": 1.1610858667,
				"element": "H" 
			},
			{
				"x": -0.2047852857,
				"y": 1.966719441,
				"z": 1.0050091157,
				"element": "H" 
			},
			{
				"x": -1.505000978,
				"y": 0.7795631854,
				"z": 1.1506020601,
				"element": "H" 
			},
			{
				"x": -1.7173612922,
				"y": -1.3050980785,
				"z": -0.3697497097,
				"element": "H" 
			},
			{
				"x": -0.1618100981,
				"y": -4.613288059,
				"z": 1.894974529,
				"element": "H" 
			},
			{
				"x": 2.0883153931,
				"y": -3.572298546,
				"z": 1.8460628541,
				"element": "H" 
			},
			{
				"x": -3.4400875424,
				"y": -2.9419687533,
				"z": -0.9157496872,
				"element": "H" 
			},
			{
				"x": -4.4938573431,
				"y": -3.711740722,
				"z": 0.3011369156,
				"element": "H" 
			},
			{
				"x": -3.8152436387,
				"y": -2.0853965027,
				"z": 0.5793857837,
				"element": "H" 
			}
		],
		 "valence_orbital": [ 
			{
				"type": "occ",
				"energy": -0.25152,
				"method": "rhf"
			},
			{
				"type": "occ",
				"energy": -0.24693,
				"method": "rhf"
			},
			{
				"type": "occ",
				"energy": -0.23695,
				"method": "rhf"
			},
			{
				"type": "occ",
				"energy": -0.22426,
				"method": "rhf"
			},
			{
				"type": "occ",
				"energy": -0.2125,
				"method": "rhf"
			},
			{
				"type": "unocc",
				"energy": -0.04055,
				"method": "rhf"
			},
			{
				"type": "unocc",
				"energy": -0.00528,
				"method": "rhf"
			},
			{
				"type": "unocc",
				"energy": 0.05229,
				"method": "rhf"
			},
			{
				"type": "unocc",
				"energy": 0.07831,
				"method": "rhf"
			},
			{
				"type": "unocc",
				"energy": 0.08964,
				"method": "rhf"
			}
		],
		"cosmo_sigma_profile": { 
			"-0.025": 0.0,
			"-0.024": 0.0,
			"-0.023": 0.0,
			"-0.022": 0.0,
			"-0.021": 0.0,
			"-0.02": 0.0,
			"-0.019": 0.0,
			"-0.018": 0.0,
			"-0.017": 0.0,
			"-0.016": 0.0,
			"-0.015": 0.0,
			"-0.014": 0.0,
			"-0.013": 0.0,
			"-0.012": 0.0,
			"-0.011": 0.0,
			"-0.01": 0.0,
			"-0.009": 0.0,
			"-0.008": 0.0,
			"-0.007": 0.750320416472,
			"-0.006": 7.40936648362,
			"-0.005": 24.3320305724,
			"-0.004": 35.0616574551,
			"-0.003": 48.1668319568,
			"-0.002": 40.3942403529,
			"-0.001": 31.0832044972,
			"0.0": 25.2529163705,
			"0.001": 17.0963359772,
			"0.002": 14.9842858245,
			"0.003": 15.47058101,
			"0.004": 16.5575713839,
			"0.005": 9.210649619,
			"0.006": 6.3450264974,
			"0.007": 5.21694090235,
			"0.008": 3.81464803323,
			"0.009": 3.5246985126,
			"0.01": 2.67021930706,
			"0.011": 3.97839071196,
			"0.012": 5.069800807,
			"0.013": 4.74368727789,
			"0.014": 2.37001513525,
			"0.015": 0.0234348946929,
			"0.016": 0.0,
			"0.017": 0.0,
			"0.018": 0.0,
			"0.019": 0.0,
			"0.02": 0.0,
			"0.021": 0.0,
			"0.022": 0.0,
			"0.023": 0.0,
			"0.024": 0.0,
			"0.025": 0.0
		}
	}
}
