{
	 "smiles": "FC(F)OC1=C(NC(=O)CCl)C=CC=C1", 
	 "Tm": 366.15, 
	 "num_atms": 23, 
	 "gaussian": { 
		 "optdone": 1, 
		 "sigma_profile": "yes", 
		 "theory": "DFT", 
		 "functional": "B3LYP", 
		 "basiset": "6-31G**", 
		 "properties": { 
			 "R2extent": 3847.4886, 
			 "electric_dipole_moment_norm": 7.44329276396, 
			 "electric_quadrupole_moment_norm": 11.183461056, 
			 "total_energy": -1212.84544808, 
			 "HOMO_LUMO_gap": 0.21184, 
			 "cosmo_polarized_energy": -16.75, 
			 "cosmo_cavitation_energy": 30.44, 
			 "cosmo_dispersion_energy": -21.01, 
			 "cosmo_repulsion_energy": 1.65, 
			 "cosmo_total_nonelectrostatic_energy": 11.08, 
			 "SMD_solvation_energy": 7.11 
		},
		"coords": [
			{
				"x": -3.3261740289,
				"y": 1.4376497791,
				"z": -0.9981239985,
				"element": "F" 
			},
			{
				"x": -2.8427505005,
				"y": 0.366317881,
				"z": -0.3511419415,
				"element": "C" 
			},
			{
				"x": -2.9202361281,
				"y": -0.7044275694,
				"z": -1.1830472849,
				"element": "F" 
			},
			{
				"x": -1.5230258144,
				"y": 0.6524783401,
				"z": -0.0504911665,
				"element": "O" 
			},
			{
				"x": -0.8963172643,
				"y": -0.2357340442,
				"z": 0.8207108107,
				"element": "C" 
			},
			{
				"x": -0.0813779214,
				"y": -1.2592578884,
				"z": 0.3062578705,
				"element": "C" 
			},
			{
				"x": 0.0776387859,
				"y": -1.4676175177,
				"z": -1.0866023626,
				"element": "N" 
			},
			{
				"x": 0.582607146,
				"y": -0.6256099328,
				"z": -2.0629525795,
				"element": "C" 
			},
			{
				"x": 0.5888139345,
				"y": -0.9638478181,
				"z": -3.2298035238,
				"element": "O" 
			},
			{
				"x": 1.1272679296,
				"y": 0.7132038744,
				"z": -1.5580045499,
				"element": "C" 
			},
			{
				"x": 2.3044537113,
				"y": 1.4334682964,
				"z": -2.7019749656,
				"element": "Cl" 
			},
			{
				"x": 0.5432252125,
				"y": -2.125912967,
				"z": 1.2141499829,
				"element": "C" 
			},
			{
				"x": 0.3680086342,
				"y": -1.9745174413,
				"z": 2.5885253169,
				"element": "C" 
			},
			{
				"x": -0.4193910213,
				"y": -0.9327098306,
				"z": 3.0824496316,
				"element": "C" 
			},
			{
				"x": -1.0457626762,
				"y": -0.0578837302,
				"z": 2.195306623,
				"element": "C" 
			},
			{
				"x": -3.4431821853,
				"y": 0.1541853011,
				"z": 0.5418253481,
				"element": "H" 
			},
			{
				"x": -0.2413235242,
				"y": -2.3494924253,
				"z": -1.4693418653,
				"element": "H" 
			},
			{
				"x": 1.6256892024,
				"y": 0.6009756424,
				"z": -0.5941414864,
				"element": "H" 
			},
			{
				"x": 0.3006894238,
				"y": 1.4155169322,
				"z": -1.442267418,
				"element": "H" 
			},
			{
				"x": 1.1742539095,
				"y": -2.9170245128,
				"z": 0.8205848345,
				"element": "H" 
			},
			{
				"x": 0.8607971915,
				"y": -2.6585307854,
				"z": 3.2722330358,
				"element": "H" 
			},
			{
				"x": -0.5426301624,
				"y": -0.7965588731,
				"z": 4.1521674501,
				"element": "H" 
			},
			{
				"x": -1.6546738541,
				"y": 0.7665292896,
				"z": 2.5530822387,
				"element": "H" 
			}
		],
		 "valence_orbital": [ 
			{
				"type": "occ",
				"energy": -0.29411,
				"method": "rhf"
			},
			{
				"type": "occ",
				"energy": -0.28937,
				"method": "rhf"
			},
			{
				"type": "occ",
				"energy": -0.27908,
				"method": "rhf"
			},
			{
				"type": "occ",
				"energy": -0.26298,
				"method": "rhf"
			},
			{
				"type": "occ",
				"energy": -0.25299,
				"method": "rhf"
			},
			{
				"type": "unocc",
				"energy": -0.04115,
				"method": "rhf"
			},
			{
				"type": "unocc",
				"energy": -0.03296,
				"method": "rhf"
			},
			{
				"type": "unocc",
				"energy": 0.01155,
				"method": "rhf"
			},
			{
				"type": "unocc",
				"energy": 0.04197,
				"method": "rhf"
			},
			{
				"type": "unocc",
				"energy": 0.06754,
				"method": "rhf"
			}
		],
		"cosmo_sigma_profile": { 
			"-0.025": 0.0,
			"-0.024": 0.0,
			"-0.023": 0.0,
			"-0.022": 0.0,
			"-0.021": 0.0,
			"-0.02": 0.0,
			"-0.019": 0.0,
			"-0.018": 0.0,
			"-0.017": 0.0,
			"-0.016": 0.00142655291184,
			"-0.015": 0.58878453516,
			"-0.014": 1.02474461608,
			"-0.013": 0.829299320445,
			"-0.012": 0.655446274086,
			"-0.011": 1.09946189745,
			"-0.01": 3.02845980913,
			"-0.009": 4.14793827055,
			"-0.008": 6.40353424806,
			"-0.007": 13.3410231495,
			"-0.006": 14.4713103998,
			"-0.005": 15.1209428186,
			"-0.004": 12.6256986048,
			"-0.003": 10.5883629718,
			"-0.002": 11.9074541329,
			"-0.001": 13.6667273664,
			"0.0": 14.8644573924,
			"0.001": 15.3082640494,
			"0.002": 17.2996786009,
			"0.003": 28.9039745261,
			"0.004": 20.8993909211,
			"0.005": 8.22493071798,
			"0.006": 8.81772899844,
			"0.007": 3.17594882818,
			"0.008": 1.88212315811,
			"0.009": 1.61147843248,
			"0.01": 1.39755015666,
			"0.011": 2.8196829493,
			"0.012": 4.66939376689,
			"0.013": 4.58008452451,
			"0.014": 1.42463132632,
			"0.015": 0.0654352496456,
			"0.016": 0.0,
			"0.017": 0.0,
			"0.018": 0.0,
			"0.019": 0.0,
			"0.02": 0.0,
			"0.021": 0.0,
			"0.022": 0.0,
			"0.023": 0.0,
			"0.024": 0.0,
			"0.025": 0.0
		}
	}
}
