{
	 "smiles": "CC(C)OC1=NN=C(S)S1", 
	 "Tm": 379.15, 
	 "num_atms": 18, 
	 "gaussian": { 
		 "optdone": 1, 
		 "sigma_profile": "yes", 
		 "theory": "DFT", 
		 "functional": "B3LYP", 
		 "basiset": "6-31G**", 
		 "properties": { 
			 "R2extent": 2994.9034, 
			 "electric_dipole_moment_norm": 1.8339817829, 
			 "electric_quadrupole_moment_norm": 7.69325716781, 
			 "total_energy": -1176.41686954, 
			 "HOMO_LUMO_gap": 0.2068, 
			 "cosmo_polarized_energy": -8.06, 
			 "cosmo_cavitation_energy": 25.41, 
			 "cosmo_dispersion_energy": -19.7, 
			 "cosmo_repulsion_energy": 1.53, 
			 "cosmo_total_nonelectrostatic_energy": 7.25, 
			 "SMD_solvation_energy": 2.58 
		},
		"coords": [
			{
				"x": 2.5462545206,
				"y": -0.7280119207,
				"z": 2.2612653087,
				"element": "C" 
			},
			{
				"x": 1.2586235595,
				"y": -0.2406415122,
				"z": 1.6160202376,
				"element": "C" 
			},
			{
				"x": 0.5752301575,
				"y": 0.8867665347,
				"z": 2.3793205534,
				"element": "C" 
			},
			{
				"x": 1.6531596193,
				"y": 0.2360350594,
				"z": 0.2817175322,
				"element": "O" 
			},
			{
				"x": 0.7138247875,
				"y": 0.2705297444,
				"z": -0.6541339572,
				"element": "C" 
			},
			{
				"x": -0.5347341218,
				"y": -0.0636303617,
				"z": -0.5266354251,
				"element": "N" 
			},
			{
				"x": -1.2418781013,
				"y": 0.0735072109,
				"z": -1.7007115271,
				"element": "N" 
			},
			{
				"x": -0.5165169728,
				"y": 0.5106855958,
				"z": -2.6834659487,
				"element": "C" 
			},
			{
				"x": -1.1211471865,
				"y": 0.7985784783,
				"z": -4.3199556391,
				"element": "S" 
			},
			{
				"x": 1.1744279444,
				"y": 0.8128218144,
				"z": -2.2750535691,
				"element": "S" 
			},
			{
				"x": 3.2633057412,
				"y": 0.0926106918,
				"z": 2.3625048058,
				"element": "H" 
			},
			{
				"x": 3.0067011319,
				"y": -1.5200779542,
				"z": 1.6648565553,
				"element": "H" 
			},
			{
				"x": 2.33325961,
				"y": -1.124386708,
				"z": 3.2585723367,
				"element": "H" 
			},
			{
				"x": 0.5597034609,
				"y": -1.0686405229,
				"z": 1.4646889033,
				"element": "H" 
			},
			{
				"x": -0.3329811953,
				"y": 1.2073808703,
				"z": 1.8649299743,
				"element": "H" 
			},
			{
				"x": 0.2964379894,
				"y": 0.5386140897,
				"z": 3.3791056909,
				"element": "H" 
			},
			{
				"x": 1.2496217881,
				"y": 1.7420972667,
				"z": 2.4876531233,
				"element": "H" 
			},
			{
				"x": -2.3733927325,
				"y": 0.4114616234,
				"z": -4.003678955,
				"element": "H" 
			}
		],
		 "valence_orbital": [ 
			{
				"type": "occ",
				"energy": -0.30987,
				"method": "rhf"
			},
			{
				"type": "occ",
				"energy": -0.30793,
				"method": "rhf"
			},
			{
				"type": "occ",
				"energy": -0.28413,
				"method": "rhf"
			},
			{
				"type": "occ",
				"energy": -0.26914,
				"method": "rhf"
			},
			{
				"type": "occ",
				"energy": -0.23071,
				"method": "rhf"
			},
			{
				"type": "unocc",
				"energy": -0.02391,
				"method": "rhf"
			},
			{
				"type": "unocc",
				"energy": -0.01552,
				"method": "rhf"
			},
			{
				"type": "unocc",
				"energy": 0.01507,
				"method": "rhf"
			},
			{
				"type": "unocc",
				"energy": 0.03819,
				"method": "rhf"
			},
			{
				"type": "unocc",
				"energy": 0.04181,
				"method": "rhf"
			}
		],
		"cosmo_sigma_profile": { 
			"-0.025": 0.0,
			"-0.024": 0.0,
			"-0.023": 0.0,
			"-0.022": 0.0,
			"-0.021": 0.0,
			"-0.02": 0.0,
			"-0.019": 0.0,
			"-0.018": 0.0,
			"-0.017": 0.0,
			"-0.016": 0.0,
			"-0.015": 0.0,
			"-0.014": 0.0,
			"-0.013": 0.0835457020149,
			"-0.012": 1.32257211019,
			"-0.011": 1.59822172185,
			"-0.01": 1.44124710119,
			"-0.009": 0.808139238325,
			"-0.008": 1.14727530642,
			"-0.007": 2.09330104206,
			"-0.006": 2.66526352882,
			"-0.005": 8.81846442965,
			"-0.004": 16.4866834178,
			"-0.003": 18.9769806333,
			"-0.002": 23.8735672762,
			"-0.001": 27.6272421762,
			"0.0": 27.9637701075,
			"0.001": 16.1080503599,
			"0.002": 11.1048558182,
			"0.003": 7.33505717829,
			"0.004": 7.28252999338,
			"0.005": 5.44553290917,
			"0.006": 6.12887943765,
			"0.007": 3.70895429293,
			"0.008": 2.27659721285,
			"0.009": 1.62026923734,
			"0.01": 2.30889196499,
			"0.011": 3.42726511351,
			"0.012": 2.5955108466,
			"0.013": 1.86069896883,
			"0.014": 0.476644082893,
			"0.015": 0.0,
			"0.016": 0.0,
			"0.017": 0.0,
			"0.018": 0.0,
			"0.019": 0.0,
			"0.02": 0.0,
			"0.021": 0.0,
			"0.022": 0.0,
			"0.023": 0.0,
			"0.024": 0.0,
			"0.025": 0.0
		}
	}
}
