{
	 "smiles": "COC(=O)C(=O)CC(=O)C1=CC=C(F)C=C1", 
	 "Tm": 403.15, 
	 "num_atms": 25, 
	 "gaussian": { 
		 "optdone": 1, 
		 "sigma_profile": "yes", 
		 "theory": "DFT", 
		 "functional": "B3LYP", 
		 "basiset": "6-31G**", 
		 "properties": { 
			 "R2extent": 5447.2632, 
			 "electric_dipole_moment_norm": 1.14224261871, 
			 "electric_quadrupole_moment_norm": 15.7389427345, 
			 "total_energy": -825.310990159, 
			 "HOMO_LUMO_gap": 0.17055, 
			 "cosmo_polarized_energy": -13.05, 
			 "cosmo_cavitation_energy": 31.68, 
			 "cosmo_dispersion_energy": -22.1, 
			 "cosmo_repulsion_energy": 1.71, 
			 "cosmo_total_nonelectrostatic_energy": 11.28, 
			 "SMD_solvation_energy": 8.81 
		},
		"coords": [
			{
				"x": -0.7202221973,
				"y": 2.8591977768,
				"z": 3.0926487891,
				"element": "C" 
			},
			{
				"x": -1.2011682733,
				"y": 2.2092825996,
				"z": 1.9000747998,
				"element": "O" 
			},
			{
				"x": -0.2930158673,
				"y": 2.0456693085,
				"z": 0.9364839955,
				"element": "C" 
			},
			{
				"x": 0.8660955202,
				"y": 2.3961232645,
				"z": 0.9913140988,
				"element": "O" 
			},
			{
				"x": -0.9064927306,
				"y": 1.3662701682,
				"z": -0.3090362709,
				"element": "C" 
			},
			{
				"x": -2.1058377539,
				"y": 1.3540448275,
				"z": -0.4834521352,
				"element": "O" 
			},
			{
				"x": 0.1022122893,
				"y": 0.7555596399,
				"z": -1.266717714,
				"element": "C" 
			},
			{
				"x": 0.3517734406,
				"y": -0.7373956409,
				"z": -0.9478095769,
				"element": "C" 
			},
			{
				"x": 1.3203712114,
				"y": -1.0465660407,
				"z": -0.2749211743,
				"element": "O" 
			},
			{
				"x": -0.5889871185,
				"y": -1.7631280731,
				"z": -1.4824142889,
				"element": "C" 
			},
			{
				"x": -1.802103216,
				"y": -1.4432009364,
				"z": -2.1152680918,
				"element": "C" 
			},
			{
				"x": -2.6399212041,
				"y": -2.4513304956,
				"z": -2.5868621383,
				"element": "C" 
			},
			{
				"x": -2.2472104054,
				"y": -3.7760833966,
				"z": -2.4276413968,
				"element": "C" 
			},
			{
				"x": -3.048774735,
				"y": -4.7517468921,
				"z": -2.8902925595,
				"element": "F" 
			},
			{
				"x": -1.0524972812,
				"y": -4.1284046939,
				"z": -1.8019958994,
				"element": "C" 
			},
			{
				"x": -0.2311509885,
				"y": -3.1150002864,
				"z": -1.3266248625,
				"element": "C" 
			},
			{
				"x": 0.1097910386,
				"y": 2.2950497796,
				"z": 3.5245565952,
				"element": "H" 
			},
			{
				"x": -0.380819584,
				"y": 3.8718245703,
				"z": 2.8617945621,
				"element": "H" 
			},
			{
				"x": -1.569276968,
				"y": 2.8828166054,
				"z": 3.7741878929,
				"element": "H" 
			},
			{
				"x": -0.2785022991,
				"y": 0.8739456965,
				"z": -2.2833355195,
				"element": "H" 
			},
			{
				"x": 1.0620015964,
				"y": 1.2586127717,
				"z": -1.1509055854,
				"element": "H" 
			},
			{
				"x": -2.1192182251,
				"y": -0.4107298043,
				"z": -2.2076224634,
				"element": "H" 
			},
			{
				"x": -3.5851188784,
				"y": -2.2270617215,
				"z": -3.0685830547,
				"element": "H" 
			},
			{
				"x": -0.79059565,
				"y": -5.1757478231,
				"z": -1.6987157849,
				"element": "H" 
			},
			{
				"x": 0.7041682793,
				"y": -3.3446012039,
				"z": -0.827862217,
				"element": "H" 
			}
		],
		 "valence_orbital": [ 
			{
				"type": "occ",
				"energy": -0.32027,
				"method": "rhf"
			},
			{
				"type": "occ",
				"energy": -0.27462,
				"method": "rhf"
			},
			{
				"type": "occ",
				"energy": -0.26803,
				"method": "rhf"
			},
			{
				"type": "occ",
				"energy": -0.26023,
				"method": "rhf"
			},
			{
				"type": "occ",
				"energy": -0.25825,
				"method": "rhf"
			},
			{
				"type": "unocc",
				"energy": -0.0877,
				"method": "rhf"
			},
			{
				"type": "unocc",
				"energy": -0.06126,
				"method": "rhf"
			},
			{
				"type": "unocc",
				"energy": -0.02302,
				"method": "rhf"
			},
			{
				"type": "unocc",
				"energy": 0.02802,
				"method": "rhf"
			},
			{
				"type": "unocc",
				"energy": 0.05126,
				"method": "rhf"
			}
		],
		"cosmo_sigma_profile": { 
			"-0.025": 0.0,
			"-0.024": 0.0,
			"-0.023": 0.0,
			"-0.022": 0.0,
			"-0.021": 0.0,
			"-0.02": 0.0,
			"-0.019": 0.0,
			"-0.018": 0.0,
			"-0.017": 0.0,
			"-0.016": 0.0,
			"-0.015": 0.0,
			"-0.014": 0.0,
			"-0.013": 0.0,
			"-0.012": 0.0,
			"-0.011": 0.0,
			"-0.01": 0.0969769207715,
			"-0.009": 1.11185444541,
			"-0.008": 6.47382290405,
			"-0.007": 12.7142058735,
			"-0.006": 21.3981775556,
			"-0.005": 21.2954135634,
			"-0.004": 21.0950241701,
			"-0.003": 14.2214948282,
			"-0.002": 9.51423418017,
			"-0.001": 16.0420139099,
			"0.0": 16.6537375156,
			"0.001": 19.2812710986,
			"0.002": 20.2357504838,
			"0.003": 14.4013071916,
			"0.004": 12.0987159656,
			"0.005": 4.98519679837,
			"0.006": 6.27553348373,
			"0.007": 5.03492102422,
			"0.008": 6.11501959324,
			"0.009": 8.2974042836,
			"0.01": 8.88504172882,
			"0.011": 6.53709195379,
			"0.012": 1.31247838263,
			"0.013": 0.00849641620847,
			"0.014": 0.0,
			"0.015": 0.0,
			"0.016": 0.0,
			"0.017": 0.0,
			"0.018": 0.0,
			"0.019": 0.0,
			"0.02": 0.0,
			"0.021": 0.0,
			"0.022": 0.0,
			"0.023": 0.0,
			"0.024": 0.0,
			"0.025": 0.0
		}
	}
}
