{
	 "smiles": "CC(=O)NCCC1=CC=C(C=C1)C(O)=O", 
	 "Tm": 449.15, 
	 "num_atms": 28, 
	 "gaussian": { 
		 "optdone": 1, 
		 "sigma_profile": "yes", 
		 "theory": "DFT", 
		 "functional": "B3LYP", 
		 "basiset": "6-31G**", 
		 "properties": { 
			 "R2extent": 4761.1845, 
			 "electric_dipole_moment_norm": 6.02299534534, 
			 "electric_quadrupole_moment_norm": 30.1109584935, 
			 "total_energy": -707.463153574, 
			 "HOMO_LUMO_gap": 0.20183, 
			 "cosmo_polarized_energy": -23.54, 
			 "cosmo_cavitation_energy": 32.52, 
			 "cosmo_dispersion_energy": -22.2, 
			 "cosmo_repulsion_energy": 1.78, 
			 "cosmo_total_nonelectrostatic_energy": 12.1, 
			 "SMD_solvation_energy": 6.94 
		},
		"coords": [
			{
				"x": 0.4895685365,
				"y": 0.075066201,
				"z": -2.6164873418,
				"element": "C" 
			},
			{
				"x": 0.0270436162,
				"y": 0.8809458004,
				"z": -1.4123746362,
				"element": "C" 
			},
			{
				"x": -1.139141076,
				"y": 1.2281725132,
				"z": -1.2741394381,
				"element": "O" 
			},
			{
				"x": 1.0050431142,
				"y": 1.1821347944,
				"z": -0.4984788558,
				"element": "N" 
			},
			{
				"x": 0.7212916174,
				"y": 1.8913487958,
				"z": 0.7366866948,
				"element": "C" 
			},
			{
				"x": 0.8374657622,
				"y": 1.0099017867,
				"z": 1.9989986135,
				"element": "C" 
			},
			{
				"x": -0.0872231288,
				"y": -0.1880732723,
				"z": 1.9975320943,
				"element": "C" 
			},
			{
				"x": -1.4763271728,
				"y": -0.0207549907,
				"z": 2.0870186649,
				"element": "C" 
			},
			{
				"x": -2.3313189923,
				"y": -1.1182463498,
				"z": 2.0583840074,
				"element": "C" 
			},
			{
				"x": -1.8167917054,
				"y": -2.4182086372,
				"z": 1.9424302272,
				"element": "C" 
			},
			{
				"x": -0.4294227358,
				"y": -2.594213193,
				"z": 1.8799830244,
				"element": "C" 
			},
			{
				"x": 0.4192889856,
				"y": -1.4911095815,
				"z": 1.8968802226,
				"element": "C" 
			},
			{
				"x": -2.6794785541,
				"y": -3.6423027012,
				"z": 1.913368824,
				"element": "C" 
			},
			{
				"x": -3.9794953548,
				"y": -3.465105449,
				"z": 1.5518995641,
				"element": "O" 
			},
			{
				"x": -2.275702371,
				"y": -4.7485448846,
				"z": 2.1875134507,
				"element": "O" 
			},
			{
				"x": 1.5761279447,
				"y": -0.0256992366,
				"z": -2.6915168299,
				"element": "H" 
			},
			{
				"x": 0.0470684896,
				"y": -0.9241715546,
				"z": -2.5621144769,
				"element": "H" 
			},
			{
				"x": 0.1095386436,
				"y": 0.5518522292,
				"z": -3.5228489085,
				"element": "H" 
			},
			{
				"x": 1.9420071441,
				"y": 0.8458151717,
				"z": -0.6612409487,
				"element": "H" 
			},
			{
				"x": -0.2947407822,
				"y": 2.2774824124,
				"z": 0.6303890057,
				"element": "H" 
			},
			{
				"x": 1.39871214,
				"y": 2.7487604478,
				"z": 0.8352588589,
				"element": "H" 
			},
			{
				"x": 1.8743825932,
				"y": 0.6708009474,
				"z": 2.1123610056,
				"element": "H" 
			},
			{
				"x": 0.6250449733,
				"y": 1.6473704518,
				"z": 2.8672624937,
				"element": "H" 
			},
			{
				"x": -1.8945134056,
				"y": 0.9775742603,
				"z": 2.1788876892,
				"element": "H" 
			},
			{
				"x": -3.4004420822,
				"y": -0.9499872182,
				"z": 2.1646066905,
				"element": "H" 
			},
			{
				"x": -0.0384648809,
				"y": -3.6040539742,
				"z": 1.815660478,
				"element": "H" 
			},
			{
				"x": 1.4942564707,
				"y": -1.6424452741,
				"z": 1.8386094614,
				"element": "H" 
			},
			{
				"x": -4.1079777894,
				"y": -2.5731094954,
				"z": 1.2003703647,
				"element": "H" 
			}
		],
		 "valence_orbital": [ 
			{
				"type": "occ",
				"energy": -0.27181,
				"method": "rhf"
			},
			{
				"type": "occ",
				"energy": -0.26724,
				"method": "rhf"
			},
			{
				"type": "occ",
				"energy": -0.26168,
				"method": "rhf"
			},
			{
				"type": "occ",
				"energy": -0.25208,
				"method": "rhf"
			},
			{
				"type": "occ",
				"energy": -0.24852,
				"method": "rhf"
			},
			{
				"type": "unocc",
				"energy": -0.04669,
				"method": "rhf"
			},
			{
				"type": "unocc",
				"energy": -0.01843,
				"method": "rhf"
			},
			{
				"type": "unocc",
				"energy": 0.02698,
				"method": "rhf"
			},
			{
				"type": "unocc",
				"energy": 0.04847,
				"method": "rhf"
			},
			{
				"type": "unocc",
				"energy": 0.06503,
				"method": "rhf"
			}
		],
		"cosmo_sigma_profile": { 
			"-0.025": 0.0,
			"-0.024": 0.0,
			"-0.023": 0.0,
			"-0.022": 0.0,
			"-0.021": 0.0,
			"-0.02": 0.0,
			"-0.019": 0.00180998700601,
			"-0.018": 0.886186155128,
			"-0.017": 0.583447085172,
			"-0.016": 1.30747192006,
			"-0.015": 0.864083812836,
			"-0.014": 1.61926186201,
			"-0.013": 2.39422161831,
			"-0.012": 2.78116951057,
			"-0.011": 2.3319863909,
			"-0.01": 2.59617674708,
			"-0.009": 2.33491374101,
			"-0.008": 3.14698255173,
			"-0.007": 4.76340940077,
			"-0.006": 11.9190351632,
			"-0.005": 22.0058483378,
			"-0.004": 22.3464926973,
			"-0.003": 20.5554606791,
			"-0.002": 19.1143885979,
			"-0.001": 20.2033593723,
			"0.0": 12.3929566963,
			"0.001": 10.954427109,
			"0.002": 11.9534177236,
			"0.003": 15.4309756403,
			"0.004": 9.15786390335,
			"0.005": 4.25147532467,
			"0.006": 5.15257169953,
			"0.007": 4.53001810873,
			"0.008": 4.98114598578,
			"0.009": 5.11888610821,
			"0.01": 6.17706279741,
			"0.011": 6.88760135591,
			"0.012": 6.97396740736,
			"0.013": 4.46179802957,
			"0.014": 4.2741348163,
			"0.015": 2.31239249873,
			"0.016": 0.381161469018,
			"0.017": 0.0,
			"0.018": 0.0,
			"0.019": 0.0,
			"0.02": 0.0,
			"0.021": 0.0,
			"0.022": 0.0,
			"0.023": 0.0,
			"0.024": 0.0,
			"0.025": 0.0
		}
	}
}
