{
	 "smiles": "[O-][N+](=O)C1=CC=C(C=CC(=O)C2=CC=CC=C2)C=C1", 
	 "Tm": 437.15, 
	 "num_atms": 30, 
	 "gaussian": { 
		 "optdone": 1, 
		 "sigma_profile": "yes", 
		 "theory": "DFT", 
		 "functional": "B3LYP", 
		 "basiset": "6-31G**", 
		 "properties": { 
			 "R2extent": 9362.0776, 
			 "electric_dipole_moment_norm": 4.64278980894, 
			 "electric_quadrupole_moment_norm": 22.7280857604, 
			 "total_energy": -858.538238984, 
			 "HOMO_LUMO_gap": 0.14629, 
			 "cosmo_polarized_energy": -14.67, 
			 "cosmo_cavitation_energy": 36.41, 
			 "cosmo_dispersion_energy": -26.29, 
			 "cosmo_repulsion_energy": 1.97, 
			 "cosmo_total_nonelectrostatic_energy": 12.09, 
			 "SMD_solvation_energy": 8.94 
		},
		"coords": [
			{
				"x": -2.2133948928,
				"y": 4.4364247829,
				"z": -2.9537828735,
				"element": "O" 
			},
			{
				"x": -1.9450980087,
				"y": 3.2474646798,
				"z": -3.123532253,
				"element": "N" 
			},
			{
				"x": -2.1135174114,
				"y": 2.6322844943,
				"z": -4.1763439956,
				"element": "O" 
			},
			{
				"x": -1.3820679676,
				"y": 2.506768988,
				"z": -1.9850576061,
				"element": "C" 
			},
			{
				"x": -1.1790045466,
				"y": 3.1716733755,
				"z": -0.7782759948,
				"element": "C" 
			},
			{
				"x": -0.6462656496,
				"y": 2.459738737,
				"z": 0.2903375756,
				"element": "C" 
			},
			{
				"x": -0.3149760022,
				"y": 1.0954508002,
				"z": 0.1706241106,
				"element": "C" 
			},
			{
				"x": 0.2412212311,
				"y": 0.4095737267,
				"z": 1.3369531031,
				"element": "C" 
			},
			{
				"x": 0.6041819056,
				"y": -0.8836224418,
				"z": 1.4367280642,
				"element": "C" 
			},
			{
				"x": 1.171306266,
				"y": -1.3966764951,
				"z": 2.7155860019,
				"element": "C" 
			},
			{
				"x": 1.3820829882,
				"y": -0.6324740393,
				"z": 3.6545836706,
				"element": "O" 
			},
			{
				"x": 1.499013762,
				"y": -2.8541369729,
				"z": 2.8406966541,
				"element": "C" 
			},
			{
				"x": 2.2390236904,
				"y": -3.2563602369,
				"z": 3.9656108375,
				"element": "C" 
			},
			{
				"x": 2.5755613087,
				"y": -4.5928984291,
				"z": 4.151544448,
				"element": "C" 
			},
			{
				"x": 2.1680786265,
				"y": -5.5529458644,
				"z": 3.2198140972,
				"element": "C" 
			},
			{
				"x": 1.4225805252,
				"y": -5.1680360353,
				"z": 2.1044784396,
				"element": "C" 
			},
			{
				"x": 1.0922217687,
				"y": -3.8263838991,
				"z": 1.9129396519,
				"element": "C" 
			},
			{
				"x": -0.5355437388,
				"y": 0.4601130415,
				"z": -1.0694967188,
				"element": "C" 
			},
			{
				"x": -1.0662182423,
				"y": 1.1563585565,
				"z": -2.145711502,
				"element": "C" 
			},
			{
				"x": -1.4371355864,
				"y": 4.2199376859,
				"z": -0.6962819978,
				"element": "H" 
			},
			{
				"x": -0.4810992878,
				"y": 2.9626218641,
				"z": 1.2385090357,
				"element": "H" 
			},
			{
				"x": 0.3792654509,
				"y": 1.0149235976,
				"z": 2.2313421688,
				"element": "H" 
			},
			{
				"x": 0.5115849937,
				"y": -1.5605399633,
				"z": 0.5951304962,
				"element": "H" 
			},
			{
				"x": 2.5366741819,
				"y": -2.4950596945,
				"z": 4.6784884496,
				"element": "H" 
			},
			{
				"x": 3.1535944105,
				"y": -4.890327681,
				"z": 5.0215830386,
				"element": "H" 
			},
			{
				"x": 2.4287885944,
				"y": -6.5974799273,
				"z": 3.3645592728,
				"element": "H" 
			},
			{
				"x": 1.0965690114,
				"y": -5.9120243634,
				"z": 1.3836842422,
				"element": "H" 
			},
			{
				"x": 0.4989171442,
				"y": -3.5534625183,
				"z": 1.0469392435,
				"element": "H" 
			},
			{
				"x": -0.288607268,
				"y": -0.5887239393,
				"z": -1.1940112459,
				"element": "H" 
			},
			{
				"x": -1.240337257,
				"y": 0.681318171,
				"z": -3.1029384142,
				"element": "H" 
			}
		],
		 "valence_orbital": [ 
			{
				"type": "occ",
				"energy": -0.28636,
				"method": "rhf"
			},
			{
				"type": "occ",
				"energy": -0.26816,
				"method": "rhf"
			},
			{
				"type": "occ",
				"energy": -0.26474,
				"method": "rhf"
			},
			{
				"type": "occ",
				"energy": -0.25936,
				"method": "rhf"
			},
			{
				"type": "occ",
				"energy": -0.25616,
				"method": "rhf"
			},
			{
				"type": "unocc",
				"energy": -0.10987,
				"method": "rhf"
			},
			{
				"type": "unocc",
				"energy": -0.07158,
				"method": "rhf"
			},
			{
				"type": "unocc",
				"energy": -0.03552,
				"method": "rhf"
			},
			{
				"type": "unocc",
				"energy": -0.02718,
				"method": "rhf"
			},
			{
				"type": "unocc",
				"energy": -0.01462,
				"method": "rhf"
			}
		],
		"cosmo_sigma_profile": { 
			"-0.025": 0.0,
			"-0.024": 0.0,
			"-0.023": 0.0,
			"-0.022": 0.0,
			"-0.021": 0.0,
			"-0.02": 0.0,
			"-0.019": 0.0,
			"-0.018": 0.0,
			"-0.017": 0.0,
			"-0.016": 0.0,
			"-0.015": 0.0,
			"-0.014": 0.0,
			"-0.013": 0.0,
			"-0.012": 0.0,
			"-0.011": 0.0,
			"-0.01": 1.57217420353,
			"-0.009": 3.48644867172,
			"-0.008": 6.92538944499,
			"-0.007": 11.698769461,
			"-0.006": 18.2252972785,
			"-0.005": 17.6415594552,
			"-0.004": 20.4463248567,
			"-0.003": 16.8854189892,
			"-0.002": 19.1978285798,
			"-0.001": 21.2084191736,
			"0.0": 26.5851593465,
			"0.001": 29.82949056,
			"0.002": 18.9963698633,
			"0.003": 15.3552569638,
			"0.004": 17.5439383494,
			"0.005": 5.92000873523,
			"0.006": 6.09910454367,
			"0.007": 8.90156839507,
			"0.008": 9.21857132927,
			"0.009": 6.07270559027,
			"0.01": 4.74368225184,
			"0.011": 2.67057617414,
			"0.012": 3.77697969603,
			"0.013": 0.682375591157,
			"0.014": 0.0,
			"0.015": 0.0,
			"0.016": 0.0,
			"0.017": 0.0,
			"0.018": 0.0,
			"0.019": 0.0,
			"0.02": 0.0,
			"0.021": 0.0,
			"0.022": 0.0,
			"0.023": 0.0,
			"0.024": 0.0,
			"0.025": 0.0
		}
	}
}
