{
	 "smiles": "OC1=C(I)C=C(I)C=C1I", 
	 "Tm": 432.15, 
	 "num_atms": 13, 
	 "gaussian": { 
		 "optdone": 1, 
		 "sigma_profile": "no", 
		 "theory": "DFT", 
		 "functional": "B3LYP", 
		 "basiset": "6-31G**", 
		 "properties": { 
			 "R2extent": 2908.4343, 
			 "electric_dipole_moment_norm": 1.53765690907, 
			 "electric_quadrupole_moment_norm": 9.14037787457, 
			 "total_energy": -339.817264945, 
			 "HOMO_LUMO_gap": 0.15666, 
			 "cosmo_polarized_energy": -258336.92, 
			 "cosmo_cavitation_energy": 26.83, 
			 "cosmo_dispersion_energy": -24.11, 
			 "cosmo_repulsion_energy": 1.85, 
			 "cosmo_total_nonelectrostatic_energy": 4.57, 
			 "SMD_solvation_energy": 2.31 
		},
		"coords": [
			{
				"x": -0.8789151137,
				"y": -1.6321237987,
				"z": 1.923086057,
				"element": "O" 
			},
			{
				"x": -1.5666344235,
				"y": -1.2257032189,
				"z": 0.8387800187,
				"element": "C" 
			},
			{
				"x": -0.8901097126,
				"y": -0.4857112321,
				"z": -0.1493222335,
				"element": "C" 
			},
			{
				"x": 1.158863736,
				"y": -0.0464426103,
				"z": 0.1073240228,
				"element": "I" 
			},
			{
				"x": -1.5428994568,
				"y": -0.0356517851,
				"z": -1.2948508503,
				"element": "C" 
			},
			{
				"x": -2.8978238727,
				"y": -0.3220542469,
				"z": -1.471579951,
				"element": "C" 
			},
			{
				"x": -3.8950390786,
				"y": 0.3590159799,
				"z": -3.2102864225,
				"element": "I" 
			},
			{
				"x": -3.6024794885,
				"y": -1.051871305,
				"z": -0.5158338374,
				"element": "C" 
			},
			{
				"x": -2.931103653,
				"y": -1.493371487,
				"z": 0.6237140769,
				"element": "C" 
			},
			{
				"x": -4.0037547147,
				"y": -2.605621438,
				"z": 2.0813295338,
				"element": "I" 
			},
			{
				"x": -1.4664373232,
				"y": -2.1282342796,
				"z": 2.5163970643,
				"element": "H" 
			},
			{
				"x": -0.9964500454,
				"y": 0.5313392488,
				"z": -2.0377065928,
				"element": "H" 
			},
			{
				"x": -4.6530168532,
				"y": -1.2753698273,
				"z": -0.6500508862,
				"element": "H" 
			}
		],
		 "valence_orbital": [ 
			{
				"type": "occ",
				"energy": -0.27933,
				"method": "rhf"
			},
			{
				"type": "occ",
				"energy": -0.27724,
				"method": "rhf"
			},
			{
				"type": "occ",
				"energy": -0.27191,
				"method": "rhf"
			},
			{
				"type": "occ",
				"energy": -0.2545,
				"method": "rhf"
			},
			{
				"type": "occ",
				"energy": -0.23691,
				"method": "rhf"
			},
			{
				"type": "unocc",
				"energy": -0.08025,
				"method": "rhf"
			},
			{
				"type": "unocc",
				"energy": -0.04328,
				"method": "rhf"
			},
			{
				"type": "unocc",
				"energy": -0.04007,
				"method": "rhf"
			},
			{
				"type": "unocc",
				"energy": -0.03219,
				"method": "rhf"
			},
			{
				"type": "unocc",
				"energy": -0.02693,
				"method": "rhf"
			}
		],
		"cosmo_sigma_profile": { 
			"0.0": 0.0,
			"0.0": 0.0,
			"0.0": 0.0,
			"0.0": 0.0,
			"0.0": 0.0,
			"0.0": 0.0,
			"0.0": 0.0,
			"0.0": 0.0,
			"0.0": 0.0,
			"0.0": 0.0,
			"0.0": 0.0,
			"0.0": 0.0,
			"0.0": 0.0,
			"0.0": 0.0,
			"0.0": 0.0,
			"0.0": 0.0,
			"0.0": 0.0,
			"0.0": 0.0,
			"0.0": 0.0,
			"0.0": 0.0,
			"0.0": 0.0,
			"0.0": 0.0,
			"0.0": 0.0,
			"0.0": 0.0,
			"0.0": 0.0,
			"0.0": 0.0,
			"0.0": 0.0,
			"0.0": 0.0,
			"0.0": 0.0,
			"0.0": 0.0,
			"0.0": 0.0,
			"0.0": 0.0,
			"0.0": 0.0,
			"0.0": 0.0,
			"0.0": 0.0,
			"0.0": 0.0,
			"0.0": 0.0,
			"0.0": 0.0,
			"0.0": 0.0,
			"0.0": 0.0,
			"0.0": 0.0,
			"0.0": 0.0,
			"0.0": 0.0,
			"0.0": 0.0,
			"0.0": 0.0,
			"0.0": 0.0,
			"0.0": 0.0,
			"0.0": 0.0,
			"0.0": 0.0,
			"0.0": 0.0,
			"0.0": 0.0
		}
	}
}
