{
	 "smiles": "CC(C)C1=CC(C(O)=O)=C(N)C=C1", 
	 "Tm": 370.15, 
	 "num_atms": 26, 
	 "gaussian": { 
		 "optdone": 1, 
		 "sigma_profile": "yes", 
		 "theory": "DFT", 
		 "functional": "B3LYP", 
		 "basiset": "6-31G**", 
		 "properties": { 
			 "R2extent": 3767.3165, 
			 "electric_dipole_moment_norm": 6.22029110091, 
			 "electric_quadrupole_moment_norm": 30.1240050671, 
			 "total_energy": -594.130315179, 
			 "HOMO_LUMO_gap": 0.20151, 
			 "cosmo_polarized_energy": -16.57, 
			 "cosmo_cavitation_energy": 28.85, 
			 "cosmo_dispersion_energy": -20.78, 
			 "cosmo_repulsion_energy": 1.67, 
			 "cosmo_total_nonelectrostatic_energy": 9.74, 
			 "SMD_solvation_energy": 6.5 
		},
		"coords": [
			{
				"x": 2.7925202324,
				"y": -1.8482014168,
				"z": 0.1616676874,
				"element": "C" 
			},
			{
				"x": 2.011799252,
				"y": -0.5343581256,
				"z": 0.35491644,
				"element": "C" 
			},
			{
				"x": 2.3457670318,
				"y": 0.1138263503,
				"z": 1.7116869341,
				"element": "C" 
			},
			{
				"x": 0.5127064236,
				"y": -0.7385906254,
				"z": 0.1815639772,
				"element": "C" 
			},
			{
				"x": -0.2139099112,
				"y": -1.5718414579,
				"z": 1.0378512969,
				"element": "C" 
			},
			{
				"x": -1.5888178689,
				"y": -1.7844293258,
				"z": 0.8873386302,
				"element": "C" 
			},
			{
				"x": -2.2198434182,
				"y": -2.7863208358,
				"z": 1.8292146931,
				"element": "C" 
			},
			{
				"x": -3.4523759971,
				"y": -3.2217434234,
				"z": 1.5209578681,
				"element": "O" 
			},
			{
				"x": -1.6310777458,
				"y": -3.2050977259,
				"z": 2.8037509939,
				"element": "O" 
			},
			{
				"x": -2.2767572816,
				"y": -1.1049651042,
				"z": -0.1389109584,
				"element": "C" 
			},
			{
				"x": -3.6956374841,
				"y": -1.2981159688,
				"z": -0.2936179425,
				"element": "N" 
			},
			{
				"x": -1.5623103733,
				"y": -0.2741730292,
				"z": -1.0041049838,
				"element": "C" 
			},
			{
				"x": -0.1869480951,
				"y": -0.1033113503,
				"z": -0.8518483477,
				"element": "C" 
			},
			{
				"x": 3.8707197998,
				"y": -1.6696849226,
				"z": 0.2351355807,
				"element": "H" 
			},
			{
				"x": 2.5243071881,
				"y": -2.5847994418,
				"z": 0.9265755059,
				"element": "H" 
			},
			{
				"x": 2.5863242558,
				"y": -2.2929460988,
				"z": -0.8168842724,
				"element": "H" 
			},
			{
				"x": 2.3339302078,
				"y": 0.160466101,
				"z": -0.4321954085,
				"element": "H" 
			},
			{
				"x": 2.0566915308,
				"y": -0.536958192,
				"z": 2.5438491082,
				"element": "H" 
			},
			{
				"x": 1.8228479438,
				"y": 1.0672054074,
				"z": 1.8364011026,
				"element": "H" 
			},
			{
				"x": 3.4217534207,
				"y": 0.3014340975,
				"z": 1.7941672492,
				"element": "H" 
			},
			{
				"x": 0.2721431756,
				"y": -2.1034932198,
				"z": 1.8495206417,
				"element": "H" 
			},
			{
				"x": -3.758230326,
				"y": -2.767358177,
				"z": 0.6964988292,
				"element": "H" 
			},
			{
				"x": -4.2245918729,
				"y": -0.7190979226,
				"z": 0.3566184618,
				"element": "H" 
			},
			{
				"x": -4.0003507551,
				"y": -1.0645769262,
				"z": -1.2337543483,
				"element": "H" 
			},
			{
				"x": -2.0903231206,
				"y": 0.2506269196,
				"z": -1.7970465377,
				"element": "H" 
			},
			{
				"x": 0.3470637876,
				"y": 0.5457044141,
				"z": -1.541652201,
				"element": "H" 
			}
		],
		 "valence_orbital": [ 
			{
				"type": "occ",
				"energy": -0.30219,
				"method": "rhf"
			},
			{
				"type": "occ",
				"energy": -0.29286,
				"method": "rhf"
			},
			{
				"type": "occ",
				"energy": -0.26248,
				"method": "rhf"
			},
			{
				"type": "occ",
				"energy": -0.2542,
				"method": "rhf"
			},
			{
				"type": "occ",
				"energy": -0.24197,
				"method": "rhf"
			},
			{
				"type": "unocc",
				"energy": -0.04046,
				"method": "rhf"
			},
			{
				"type": "unocc",
				"energy": -0.01284,
				"method": "rhf"
			},
			{
				"type": "unocc",
				"energy": 0.05927,
				"method": "rhf"
			},
			{
				"type": "unocc",
				"energy": 0.06361,
				"method": "rhf"
			},
			{
				"type": "unocc",
				"energy": 0.08342,
				"method": "rhf"
			}
		],
		"cosmo_sigma_profile": { 
			"-0.025": 0.0,
			"-0.024": 0.0,
			"-0.023": 0.0,
			"-0.022": 0.0,
			"-0.021": 0.0,
			"-0.02": 0.0,
			"-0.019": 0.0,
			"-0.018": 0.0,
			"-0.017": 0.0,
			"-0.016": 0.0,
			"-0.015": 0.0,
			"-0.014": 0.149118692773,
			"-0.013": 2.93071734156,
			"-0.012": 3.1082306984,
			"-0.011": 4.40447590729,
			"-0.01": 3.16069140431,
			"-0.009": 2.50584908059,
			"-0.008": 3.3674240254,
			"-0.007": 2.98947642939,
			"-0.006": 4.96160962189,
			"-0.005": 9.36415133724,
			"-0.004": 12.2124389861,
			"-0.003": 18.0523479838,
			"-0.002": 20.3554818927,
			"-0.001": 22.8979030472,
			"0.0": 20.6264320656,
			"0.001": 25.5510337728,
			"0.002": 13.8319761413,
			"0.003": 10.9404735713,
			"0.004": 11.092193726,
			"0.005": 4.58404310088,
			"0.006": 1.88216949418,
			"0.007": 1.57072042543,
			"0.008": 3.41498317726,
			"0.009": 2.61502216342,
			"0.01": 3.07702537248,
			"0.011": 4.02746978849,
			"0.012": 6.86327343949,
			"0.013": 4.46988000397,
			"0.014": 1.77144238971,
			"0.015": 0.103708277066,
			"0.016": 0.0,
			"0.017": 0.0,
			"0.018": 0.0,
			"0.019": 0.0,
			"0.02": 0.0,
			"0.021": 0.0,
			"0.022": 0.0,
			"0.023": 0.0,
			"0.024": 0.0,
			"0.025": 0.0
		}
	}
}
