{
	 "smiles": "CC1=CC(=NN1C1=CC(Cl)=C(Cl)C=C1)C(O)=O", 
	 "Tm": 493.15, 
	 "num_atms": 25, 
	 "gaussian": { 
		 "optdone": 1, 
		 "sigma_profile": "yes", 
		 "theory": "DFT", 
		 "functional": "B3LYP", 
		 "basiset": "6-31G**", 
		 "properties": { 
			 "R2extent": 7453.0609, 
			 "electric_dipole_moment_norm": 4.64850709153, 
			 "electric_quadrupole_moment_norm": 31.3686639143, 
			 "total_energy": -1604.32293111, 
			 "HOMO_LUMO_gap": 0.19413, 
			 "cosmo_polarized_energy": -14.91, 
			 "cosmo_cavitation_energy": 33.97, 
			 "cosmo_dispersion_energy": -24.57, 
			 "cosmo_repulsion_energy": 1.91, 
			 "cosmo_total_nonelectrostatic_energy": 11.31, 
			 "SMD_solvation_energy": 6.02 
		},
		"coords": [
			{
				"x": 0.9476672457,
				"y": 0.1529036214,
				"z": 2.8350089524,
				"element": "C" 
			},
			{
				"x": 0.4847802084,
				"y": -0.6316187079,
				"z": 1.6477373341,
				"element": "C" 
			},
			{
				"x": -0.0611746902,
				"y": -1.8977871031,
				"z": 1.590221994,
				"element": "C" 
			},
			{
				"x": -0.3645185925,
				"y": -2.1114161147,
				"z": 0.2300185232,
				"element": "C" 
			},
			{
				"x": -0.0384086834,
				"y": -1.0585955997,
				"z": -0.5188459839,
				"element": "N" 
			},
			{
				"x": 0.4893176975,
				"y": -0.1609053907,
				"z": 0.3460375712,
				"element": "N" 
			},
			{
				"x": 0.8930563658,
				"y": 1.1083075377,
				"z": -0.152654736,
				"element": "C" 
			},
			{
				"x": 2.0733397859,
				"y": 1.7040750089,
				"z": 0.2931194715,
				"element": "C" 
			},
			{
				"x": 2.4546704299,
				"y": 2.9524655857,
				"z": -0.2026013042,
				"element": "C" 
			},
			{
				"x": 3.9338225094,
				"y": 3.6617200519,
				"z": 0.389418144,
				"element": "Cl" 
			},
			{
				"x": 1.6664063586,
				"y": 3.5964857011,
				"z": -1.1654197778,
				"element": "C" 
			},
			{
				"x": 2.1067106434,
				"y": 5.1527396069,
				"z": -1.8142506777,
				"element": "Cl" 
			},
			{
				"x": 0.4985795346,
				"y": 2.9774139954,
				"z": -1.6214647028,
				"element": "C" 
			},
			{
				"x": 0.1053781099,
				"y": 1.7436151394,
				"z": -1.1185632106,
				"element": "C" 
			},
			{
				"x": -0.9683769146,
				"y": -3.3126917066,
				"z": -0.4035247749,
				"element": "C" 
			},
			{
				"x": -1.1119528755,
				"y": -3.2256248196,
				"z": -1.7444688749,
				"element": "O" 
			},
			{
				"x": -1.3076575534,
				"y": -4.2909764895,
				"z": 0.220208895,
				"element": "O" 
			},
			{
				"x": 0.6559424525,
				"y": 1.2050052453,
				"z": 2.7686907579,
				"element": "H" 
			},
			{
				"x": 0.4992086522,
				"y": -0.2689864916,
				"z": 3.7370015347,
				"element": "H" 
			},
			{
				"x": 2.0354727544,
				"y": 0.1159627978,
				"z": 2.962671092,
				"element": "H" 
			},
			{
				"x": -0.2331309758,
				"y": -2.5775905328,
				"z": 2.4102833302,
				"element": "H" 
			},
			{
				"x": 2.7176423951,
				"y": 1.2016500257,
				"z": 1.0024407416,
				"element": "H" 
			},
			{
				"x": -0.1050958136,
				"y": 3.4807178807,
				"z": -2.3681570591,
				"element": "H" 
			},
			{
				"x": -0.8016854954,
				"y": 1.2655610902,
				"z": -1.4671562824,
				"element": "H" 
			},
			{
				"x": -0.7649935491,
				"y": -2.3623303319,
				"z": -2.0311509573,
				"element": "H" 
			}
		],
		 "valence_orbital": [ 
			{
				"type": "occ",
				"energy": -0.29814,
				"method": "rhf"
			},
			{
				"type": "occ",
				"energy": -0.28042,
				"method": "rhf"
			},
			{
				"type": "occ",
				"energy": -0.27171,
				"method": "rhf"
			},
			{
				"type": "occ",
				"energy": -0.26964,
				"method": "rhf"
			},
			{
				"type": "occ",
				"energy": -0.2549,
				"method": "rhf"
			},
			{
				"type": "unocc",
				"energy": -0.06077,
				"method": "rhf"
			},
			{
				"type": "unocc",
				"energy": -0.04602,
				"method": "rhf"
			},
			{
				"type": "unocc",
				"energy": -0.0262,
				"method": "rhf"
			},
			{
				"type": "unocc",
				"energy": -0.01402,
				"method": "rhf"
			},
			{
				"type": "unocc",
				"energy": 0.01168,
				"method": "rhf"
			}
		],
		"cosmo_sigma_profile": { 
			"-0.025": 0.0,
			"-0.024": 0.0,
			"-0.023": 0.0,
			"-0.022": 0.0,
			"-0.021": 0.0,
			"-0.02": 0.0,
			"-0.019": 0.0,
			"-0.018": 0.0,
			"-0.017": 0.0,
			"-0.016": 0.0,
			"-0.015": 0.399364210784,
			"-0.014": 0.317973447142,
			"-0.013": 0.309931775451,
			"-0.012": 0.931647855937,
			"-0.011": 0.625095563439,
			"-0.01": 1.41965167448,
			"-0.009": 2.79853347374,
			"-0.008": 6.91931880765,
			"-0.007": 8.79446236074,
			"-0.006": 11.9326104978,
			"-0.005": 14.1463844935,
			"-0.004": 15.2112436128,
			"-0.003": 17.6728014326,
			"-0.002": 22.3591410785,
			"-0.001": 23.7260319062,
			"0.0": 29.2969642624,
			"0.001": 26.3182712127,
			"0.002": 21.1782632209,
			"0.003": 20.9291794516,
			"0.004": 16.1393814366,
			"0.005": 6.04809822533,
			"0.006": 3.12007791504,
			"0.007": 3.33735703493,
			"0.008": 3.05334552549,
			"0.009": 3.99230486998,
			"0.01": 4.78354183045,
			"0.011": 5.44210544483,
			"0.012": 4.79058373989,
			"0.013": 1.47363139837,
			"0.014": 0.0269256517479,
			"0.015": 0.0,
			"0.016": 0.0,
			"0.017": 0.0,
			"0.018": 0.0,
			"0.019": 0.0,
			"0.02": 0.0,
			"0.021": 0.0,
			"0.022": 0.0,
			"0.023": 0.0,
			"0.024": 0.0,
			"0.025": 0.0
		}
	}
}
