{
	 "smiles": "OC(=O)C1(CCCC1)C1=CC(=CC=C1)C(F)(F)F", 
	 "Tm": 385.15, 
	 "num_atms": 31, 
	 "gaussian": { 
		 "optdone": 1, 
		 "sigma_profile": "yes", 
		 "theory": "DFT", 
		 "functional": "B3LYP", 
		 "basiset": "6-31G**", 
		 "properties": { 
			 "R2extent": 5435.9127, 
			 "electric_dipole_moment_norm": 1.56021732461, 
			 "electric_quadrupole_moment_norm": 14.6788290238, 
			 "total_energy": -953.216646183, 
			 "HOMO_LUMO_gap": 0.22767, 
			 "cosmo_polarized_energy": -9.34, 
			 "cosmo_cavitation_energy": 34.73, 
			 "cosmo_dispersion_energy": -23.92, 
			 "cosmo_repulsion_energy": 1.8, 
			 "cosmo_total_nonelectrostatic_energy": 12.61, 
			 "SMD_solvation_energy": 7.48 
		},
		"coords": [
			{
				"x": 0.4400291824,
				"y": 2.1298170594,
				"z": -1.1784839341,
				"element": "O" 
			},
			{
				"x": 0.1961546719,
				"y": 2.212961926,
				"z": 0.1501461257,
				"element": "C" 
			},
			{
				"x": 0.4498378545,
				"y": 3.211233287,
				"z": 0.7903208729,
				"element": "O" 
			},
			{
				"x": -0.3755273722,
				"y": 0.9060740715,
				"z": 0.7255623773,
				"element": "C" 
			},
			{
				"x": -1.5163325463,
				"y": 0.3648091691,
				"z": -0.1686772822,
				"element": "C" 
			},
			{
				"x": -2.6995860364,
				"y": 1.3066467473,
				"z": 0.1233563949,
				"element": "C" 
			},
			{
				"x": -2.52430512,
				"y": 1.7430821992,
				"z": 1.607258633,
				"element": "C" 
			},
			{
				"x": -1.1317672285,
				"y": 1.221298171,
				"z": 2.0437630277,
				"element": "C" 
			},
			{
				"x": 0.8179218179,
				"y": -0.0335405944,
				"z": 0.9249844567,
				"element": "C" 
			},
			{
				"x": 0.9668207384,
				"y": -1.2131455788,
				"z": 0.1892857423,
				"element": "C" 
			},
			{
				"x": 2.0602418811,
				"y": -2.055797168,
				"z": 0.4094759534,
				"element": "C" 
			},
			{
				"x": 3.0281716654,
				"y": -1.7303291356,
				"z": 1.360483544,
				"element": "C" 
			},
			{
				"x": 2.8949262824,
				"y": -0.548083975,
				"z": 2.0877140713,
				"element": "C" 
			},
			{
				"x": 1.8050139125,
				"y": 0.2926444394,
				"z": 1.8693809023,
				"element": "C" 
			},
			{
				"x": 2.2238032832,
				"y": -3.2920589272,
				"z": -0.4332782649,
				"element": "C" 
			},
			{
				"x": 2.9173530298,
				"y": -3.0353605613,
				"z": -1.5674424965,
				"element": "F" 
			},
			{
				"x": 2.8945425596,
				"y": -4.2648201988,
				"z": 0.223239226,
				"element": "F" 
			},
			{
				"x": 1.0321350285,
				"y": -3.8062606952,
				"z": -0.8133441173,
				"element": "F" 
			},
			{
				"x": 0.8392360566,
				"y": 2.9789073109,
				"z": -1.4328888569,
				"element": "H" 
			},
			{
				"x": -1.7563442563,
				"y": -0.6520164859,
				"z": 0.1632311543,
				"element": "H" 
			},
			{
				"x": -1.2518796444,
				"y": 0.3201465786,
				"z": -1.2271926098,
				"element": "H" 
			},
			{
				"x": -2.6524006917,
				"y": 2.1787197131,
				"z": -0.5384954917,
				"element": "H" 
			},
			{
				"x": -3.6616168624,
				"y": 0.8218226698,
				"z": -0.0653435261,
				"element": "H" 
			},
			{
				"x": -3.3112716996,
				"y": 1.3326898665,
				"z": 2.2467368454,
				"element": "H" 
			},
			{
				"x": -2.5764567772,
				"y": 2.8315451012,
				"z": 1.6992462066,
				"element": "H" 
			},
			{
				"x": -0.5903666835,
				"y": 1.9394625369,
				"z": 2.6614930583,
				"element": "H" 
			},
			{
				"x": -1.2255638863,
				"y": 0.2890963896,
				"z": 2.6101608123,
				"element": "H" 
			},
			{
				"x": 0.2320723743,
				"y": -1.4931596367,
				"z": -0.5555048826,
				"element": "H" 
			},
			{
				"x": 3.8683236004,
				"y": -2.3948273924,
				"z": 1.5297703365,
				"element": "H" 
			},
			{
				"x": 3.6425041762,
				"y": -0.2813251943,
				"z": 2.8286343422,
				"element": "H" 
			},
			{
				"x": 1.71953069,
				"y": 1.2167683072,
				"z": 2.4327073793,
				"element": "H" 
			}
		],
		 "valence_orbital": [ 
			{
				"type": "occ",
				"energy": -0.32496,
				"method": "rhf"
			},
			{
				"type": "occ",
				"energy": -0.32174,
				"method": "rhf"
			},
			{
				"type": "occ",
				"energy": -0.28218,
				"method": "rhf"
			},
			{
				"type": "occ",
				"energy": -0.26752,
				"method": "rhf"
			},
			{
				"type": "occ",
				"energy": -0.25724,
				"method": "rhf"
			},
			{
				"type": "unocc",
				"energy": -0.02957,
				"method": "rhf"
			},
			{
				"type": "unocc",
				"energy": -0.02424,
				"method": "rhf"
			},
			{
				"type": "unocc",
				"energy": 0.01267,
				"method": "rhf"
			},
			{
				"type": "unocc",
				"energy": 0.06626,
				"method": "rhf"
			},
			{
				"type": "unocc",
				"energy": 0.0903,
				"method": "rhf"
			}
		],
		"cosmo_sigma_profile": { 
			"-0.025": 0.0,
			"-0.024": 0.0,
			"-0.023": 0.0,
			"-0.022": 0.0,
			"-0.021": 0.0,
			"-0.02": 0.0,
			"-0.019": 0.0404842181092,
			"-0.018": 1.06853199142,
			"-0.017": 0.615448061529,
			"-0.016": 1.06844131389,
			"-0.015": 0.73160919306,
			"-0.014": 0.367294628666,
			"-0.013": 0.532435283334,
			"-0.012": 0.860083240162,
			"-0.011": 0.960498157611,
			"-0.01": 0.608194847326,
			"-0.009": 0.339502383227,
			"-0.008": 0.656354585729,
			"-0.007": 3.34205667442,
			"-0.006": 7.11697457224,
			"-0.005": 10.1704415562,
			"-0.004": 14.7083393935,
			"-0.003": 23.101726677,
			"-0.002": 25.542325633,
			"-0.001": 26.8994285057,
			"0.0": 28.1841528677,
			"0.001": 26.004062268,
			"0.002": 26.658523136,
			"0.003": 42.7181683282,
			"0.004": 10.5586933776,
			"0.005": 3.05357427963,
			"0.006": 3.4403074039,
			"0.007": 2.54471588332,
			"0.008": 1.98240850764,
			"0.009": 1.74567101545,
			"0.01": 1.89453428513,
			"0.011": 3.64055570932,
			"0.012": 2.89516552709,
			"0.013": 0.0,
			"0.014": 0.0,
			"0.015": 0.0,
			"0.016": 0.0,
			"0.017": 0.0,
			"0.018": 0.0,
			"0.019": 0.0,
			"0.02": 0.0,
			"0.021": 0.0,
			"0.022": 0.0,
			"0.023": 0.0,
			"0.024": 0.0,
			"0.025": 0.0
		}
	}
}
