{
	 "smiles": "BrC1=CC=C(CN2CCNCC2)S1", 
	 "Tm": 324.15, 
	 "num_atms": 26, 
	 "gaussian": { 
		 "optdone": 1, 
		 "sigma_profile": "yes", 
		 "theory": "DFT", 
		 "functional": "B3LYP", 
		 "basiset": "6-31G**", 
		 "properties": { 
			 "R2extent": 5019.3156, 
			 "electric_dipole_moment_norm": 2.16895115205, 
			 "electric_quadrupole_moment_norm": 7.14573952436, 
			 "total_energy": -3429.84120137, 
			 "HOMO_LUMO_gap": 0.16218, 
			 "cosmo_polarized_energy": -8.02, 
			 "cosmo_cavitation_energy": 30.89, 
			 "cosmo_dispersion_energy": -23.1, 
			 "cosmo_repulsion_energy": 1.79, 
			 "cosmo_total_nonelectrostatic_energy": 9.57, 
			 "SMD_solvation_energy": -1.36 
		},
		"coords": [
			{
				"x": 2.1530813401,
				"y": -3.1514061537,
				"z": -2.5016470115,
				"element": "Br" 
			},
			{
				"x": 1.904433507,
				"y": -1.4637792314,
				"z": -1.69543565,
				"element": "C" 
			},
			{
				"x": 1.8792973245,
				"y": -0.2502733426,
				"z": -2.3218524213,
				"element": "C" 
			},
			{
				"x": 1.6750976259,
				"y": 0.8201322083,
				"z": -1.3977520381,
				"element": "C" 
			},
			{
				"x": 1.5367038933,
				"y": 0.4209090397,
				"z": -0.0931101088,
				"element": "C" 
			},
			{
				"x": 1.3050825416,
				"y": 1.2907875518,
				"z": 1.1328953992,
				"element": "C" 
			},
			{
				"x": -0.0520214699,
				"y": 1.5680515763,
				"z": 1.5793139382,
				"element": "N" 
			},
			{
				"x": -0.7955936577,
				"y": 0.5207474948,
				"z": 2.2781904774,
				"element": "C" 
			},
			{
				"x": -1.7666518644,
				"y": -0.26539781,
				"z": 1.3745341191,
				"element": "C" 
			},
			{
				"x": -2.6406073041,
				"y": 0.6058133174,
				"z": 0.579170474,
				"element": "N" 
			},
			{
				"x": -1.8558080948,
				"y": 1.5943478099,
				"z": -0.1706975454,
				"element": "C" 
			},
			{
				"x": -0.9001023571,
				"y": 2.4011964452,
				"z": 0.7287522652,
				"element": "C" 
			},
			{
				"x": 1.6828079811,
				"y": -1.3213050883,
				"z": 0.0247296062,
				"element": "S" 
			},
			{
				"x": 2.0075063685,
				"y": -0.1277889153,
				"z": -3.3901032853,
				"element": "H" 
			},
			{
				"x": 1.6404114898,
				"y": 1.8629742459,
				"z": -1.69643645,
				"element": "H" 
			},
			{
				"x": 1.8477678238,
				"y": 0.860777544,
				"z": 1.9836160053,
				"element": "H" 
			},
			{
				"x": 1.7825266177,
				"y": 2.2560829433,
				"z": 0.9202157957,
				"element": "H" 
			},
			{
				"x": -0.0847971528,
				"y": -0.1535607511,
				"z": 2.7708700502,
				"element": "H" 
			},
			{
				"x": -1.3864122339,
				"y": 0.9994793241,
				"z": 3.077741163,
				"element": "H" 
			},
			{
				"x": -1.2032738851,
				"y": -0.8973013572,
				"z": 0.6782040289,
				"element": "H" 
			},
			{
				"x": -2.3910218571,
				"y": -0.9298119874,
				"z": 1.9840925548,
				"element": "H" 
			},
			{
				"x": -3.2747847753,
				"y": 1.0987020506,
				"z": 1.2079753217,
				"element": "H" 
			},
			{
				"x": -1.2819494871,
				"y": 1.0564317292,
				"z": -0.9345772927,
				"element": "H" 
			},
			{
				"x": -2.5448864945,
				"y": 2.270099666,
				"z": -0.6919700041,
				"element": "H" 
			},
			{
				"x": -1.5098020095,
				"y": 3.04742215,
				"z": 1.3831102439,
				"element": "H" 
			},
			{
				"x": -0.2634038699,
				"y": 3.0649695405,
				"z": 0.1318703646,
				"element": "H" 
			}
		],
		 "valence_orbital": [ 
			{
				"type": "occ",
				"energy": -0.29485,
				"method": "rhf"
			},
			{
				"type": "occ",
				"energy": -0.26047,
				"method": "rhf"
			},
			{
				"type": "occ",
				"energy": -0.24233,
				"method": "rhf"
			},
			{
				"type": "occ",
				"energy": -0.22668,
				"method": "rhf"
			},
			{
				"type": "occ",
				"energy": -0.1866,
				"method": "rhf"
			},
			{
				"type": "unocc",
				"energy": -0.02442,
				"method": "rhf"
			},
			{
				"type": "unocc",
				"energy": -0.00224,
				"method": "rhf"
			},
			{
				"type": "unocc",
				"energy": 0.01847,
				"method": "rhf"
			},
			{
				"type": "unocc",
				"energy": 0.05177,
				"method": "rhf"
			},
			{
				"type": "unocc",
				"energy": 0.07672,
				"method": "rhf"
			}
		],
		"cosmo_sigma_profile": { 
			"-0.025": 0.0,
			"-0.024": 0.0,
			"-0.023": 0.0,
			"-0.022": 0.0,
			"-0.021": 0.0,
			"-0.02": 0.0,
			"-0.019": 0.0,
			"-0.018": 0.0,
			"-0.017": 0.0,
			"-0.016": 0.0,
			"-0.015": 0.0,
			"-0.014": 0.0,
			"-0.013": 0.0,
			"-0.012": 0.0,
			"-0.011": 0.0,
			"-0.01": 0.0183206118049,
			"-0.009": 1.02198862873,
			"-0.008": 2.11337468508,
			"-0.007": 4.23312614479,
			"-0.006": 7.46750758133,
			"-0.005": 15.7547321092,
			"-0.004": 17.8009448095,
			"-0.003": 22.5649066561,
			"-0.002": 23.9676968351,
			"-0.001": 23.3863075491,
			"0.0": 27.531183015,
			"0.001": 20.3116457309,
			"0.002": 21.8939483425,
			"0.003": 22.2274633988,
			"0.004": 19.3035729821,
			"0.005": 3.29750153904,
			"0.006": 1.72552938913,
			"0.007": 2.1154046609,
			"0.008": 1.31539453283,
			"0.009": 1.76010750267,
			"0.01": 1.39705232006,
			"0.011": 1.06211050686,
			"0.012": 0.861029914022,
			"0.013": 1.05155818451,
			"0.014": 0.875161535769,
			"0.015": 0.585949501782,
			"0.016": 0.771854503368,
			"0.017": 0.691085428222,
			"0.018": 0.40305546083,
			"0.019": 0.40991406506,
			"0.02": 0.0295511879708,
			"0.021": 0.0,
			"0.022": 0.0,
			"0.023": 0.0,
			"0.024": 0.0,
			"0.025": 0.0
		}
	}
}
