{
	 "smiles": "COC1=CC=CC(CC(C)=O)=C1", 
	 "Tm": 532.15, 
	 "num_atms": 24, 
	 "gaussian": { 
		 "optdone": 1, 
		 "sigma_profile": "yes", 
		 "theory": "DFT", 
		 "functional": "B3LYP", 
		 "basiset": "6-31G**", 
		 "properties": { 
			 "R2extent": 2590.1113, 
			 "electric_dipole_moment_norm": 1.3662538161, 
			 "electric_quadrupole_moment_norm": 12.4579973619, 
			 "total_energy": -538.735823336, 
			 "HOMO_LUMO_gap": 0.19709, 
			 "cosmo_polarized_energy": -9.48, 
			 "cosmo_cavitation_energy": 27.82, 
			 "cosmo_dispersion_energy": -19.48, 
			 "cosmo_repulsion_energy": 1.57, 
			 "cosmo_total_nonelectrostatic_energy": 9.91, 
			 "SMD_solvation_energy": 6.21 
		},
		"coords": [
			{
				"x": 1.8197820753,
				"y": 1.4488667993,
				"z": 2.141900646,
				"element": "C" 
			},
			{
				"x": 2.5755453067,
				"y": 0.8750003013,
				"z": 1.08571442,
				"element": "O" 
			},
			{
				"x": 1.9023924829,
				"y": 0.2875753995,
				"z": 0.0550830327,
				"element": "C" 
			},
			{
				"x": 2.7040825474,
				"y": -0.254590635,
				"z": -0.962965835,
				"element": "C" 
			},
			{
				"x": 2.1057196924,
				"y": -0.8698909617,
				"z": -2.0540958284,
				"element": "C" 
			},
			{
				"x": 0.7116364894,
				"y": -0.9560249709,
				"z": -2.1505772735,
				"element": "C" 
			},
			{
				"x": -0.0887422051,
				"y": -0.4241738393,
				"z": -1.1379472227,
				"element": "C" 
			},
			{
				"x": -1.6066380697,
				"y": -0.4957026508,
				"z": -1.2134775861,
				"element": "C" 
			},
			{
				"x": -2.2094879941,
				"y": 0.9120727012,
				"z": -1.2681974045,
				"element": "C" 
			},
			{
				"x": -2.2819636086,
				"y": 1.5702065095,
				"z": -2.6318837126,
				"element": "C" 
			},
			{
				"x": -2.5786252146,
				"y": 1.4741289878,
				"z": -0.2541649554,
				"element": "O" 
			},
			{
				"x": 0.5100529892,
				"y": 0.2037209817,
				"z": -0.0332620942,
				"element": "C" 
			},
			{
				"x": 2.5475097419,
				"y": 1.8586824758,
				"z": 2.8439761738,
				"element": "H" 
			},
			{
				"x": 1.2060413934,
				"y": 0.6977423884,
				"z": 2.65531275,
				"element": "H" 
			},
			{
				"x": 1.1690809069,
				"y": 2.2560159689,
				"z": 1.7825687235,
				"element": "H" 
			},
			{
				"x": 3.7824660489,
				"y": -0.1792549304,
				"z": -0.8707036961,
				"element": "H" 
			},
			{
				"x": 2.7280231299,
				"y": -1.2892619549,
				"z": -2.8396443867,
				"element": "H" 
			},
			{
				"x": 0.2530346964,
				"y": -1.4448470066,
				"z": -3.0055331791,
				"element": "H" 
			},
			{
				"x": -1.9046584719,
				"y": -1.0722043141,
				"z": -2.0954059292,
				"element": "H" 
			},
			{
				"x": -2.0106903062,
				"y": -0.9861067262,
				"z": -0.3224085485,
				"element": "H" 
			},
			{
				"x": -3.0101205054,
				"y": 1.0426158794,
				"z": -3.2601955501,
				"element": "H" 
			},
			{
				"x": -1.3133230597,
				"y": 1.5036107233,
				"z": -3.1391120158,
				"element": "H" 
			},
			{
				"x": -2.582358887,
				"y": 2.6137323749,
				"z": -2.529061702,
				"element": "H" 
			},
			{
				"x": -0.1278591783,
				"y": 0.6255864988,
				"z": 0.734681174,
				"element": "H" 
			}
		],
		 "valence_orbital": [ 
			{
				"type": "occ",
				"energy": -0.32464,
				"method": "rhf"
			},
			{
				"type": "occ",
				"energy": -0.31638,
				"method": "rhf"
			},
			{
				"type": "occ",
				"energy": -0.25642,
				"method": "rhf"
			},
			{
				"type": "occ",
				"energy": -0.23791,
				"method": "rhf"
			},
			{
				"type": "occ",
				"energy": -0.21824,
				"method": "rhf"
			},
			{
				"type": "unocc",
				"energy": -0.02115,
				"method": "rhf"
			},
			{
				"type": "unocc",
				"energy": -0.00069,
				"method": "rhf"
			},
			{
				"type": "unocc",
				"energy": 0.01777,
				"method": "rhf"
			},
			{
				"type": "unocc",
				"energy": 0.0925,
				"method": "rhf"
			},
			{
				"type": "unocc",
				"energy": 0.10523,
				"method": "rhf"
			}
		],
		"cosmo_sigma_profile": { 
			"-0.025": 0.0,
			"-0.024": 0.0,
			"-0.023": 0.0,
			"-0.022": 0.0,
			"-0.021": 0.0,
			"-0.02": 0.0,
			"-0.019": 0.0,
			"-0.018": 0.0,
			"-0.017": 0.0,
			"-0.016": 0.0,
			"-0.015": 0.0,
			"-0.014": 0.0,
			"-0.013": 0.0,
			"-0.012": 0.0,
			"-0.011": 0.0,
			"-0.01": 0.0,
			"-0.009": 0.0,
			"-0.008": 0.0,
			"-0.007": 0.937889543655,
			"-0.006": 11.8285493496,
			"-0.005": 24.9604077552,
			"-0.004": 23.0463312614,
			"-0.003": 26.4029752777,
			"-0.002": 20.9863480534,
			"-0.001": 17.5525155875,
			"0.0": 11.2940783026,
			"0.001": 9.83982591716,
			"0.002": 9.20194120525,
			"0.003": 10.8375229919,
			"0.004": 12.4458524898,
			"0.005": 10.8869972711,
			"0.006": 8.38223759458,
			"0.007": 2.15204783703,
			"0.008": 3.03832816281,
			"0.009": 3.20721011398,
			"0.01": 3.34426457169,
			"0.011": 3.26423606668,
			"0.012": 4.12177094944,
			"0.013": 2.11324605399,
			"0.014": 0.09586243246,
			"0.015": 0.0,
			"0.016": 0.0,
			"0.017": 0.0,
			"0.018": 0.0,
			"0.019": 0.0,
			"0.02": 0.0,
			"0.021": 0.0,
			"0.022": 0.0,
			"0.023": 0.0,
			"0.024": 0.0,
			"0.025": 0.0
		}
	}
}
