{
	 "smiles": "CC1=C(N=NN1C1CCN(CC1)C(=O)OC(C)(C)C)C(O)=O", 
	 "Tm": 453.15, 
	 "num_atms": 44, 
	 "gaussian": { 
		 "optdone": 1, 
		 "sigma_profile": "yes", 
		 "theory": "DFT", 
		 "functional": "B3LYP", 
		 "basiset": "6-31G**", 
		 "properties": { 
			 "R2extent": 12027.9081, 
			 "electric_dipole_moment_norm": 5.43036431006, 
			 "electric_quadrupole_moment_norm": 46.0046115681, 
			 "total_energy": -1066.67289501, 
			 "HOMO_LUMO_gap": 0.20596, 
			 "cosmo_polarized_energy": -25.34, 
			 "cosmo_cavitation_energy": 45.52, 
			 "cosmo_dispersion_energy": -31.58, 
			 "cosmo_repulsion_energy": 2.43, 
			 "cosmo_total_nonelectrostatic_energy": 16.37, 
			 "SMD_solvation_energy": 7.61 
		},
		"coords": [
			{
				"x": -5.0659541857,
				"y": 0.8231120944,
				"z": -1.5719650282,
				"element": "C" 
			},
			{
				"x": -3.7275402621,
				"y": 1.3505039531,
				"z": -1.9768288801,
				"element": "C" 
			},
			{
				"x": -3.3261342535,
				"y": 2.4471754815,
				"z": -2.7388149094,
				"element": "C" 
			},
			{
				"x": -1.9587786261,
				"y": 2.4694582698,
				"z": -2.7980696926,
				"element": "N" 
			},
			{
				"x": -1.4920211605,
				"y": 1.4657928518,
				"z": -2.129630807,
				"element": "N" 
			},
			{
				"x": -2.5516479639,
				"y": 0.773410586,
				"z": -1.620619113,
				"element": "N" 
			},
			{
				"x": -2.30110272,
				"y": -0.4278627473,
				"z": -0.8114385381,
				"element": "C" 
			},
			{
				"x": -1.3964420714,
				"y": -0.1171893885,
				"z": 0.409963308,
				"element": "C" 
			},
			{
				"x": 0.0672235551,
				"y": -0.5010723494,
				"z": 0.1771067417,
				"element": "C" 
			},
			{
				"x": 0.1599865839,
				"y": -1.9361776443,
				"z": -0.1222050627,
				"element": "N" 
			},
			{
				"x": -0.9482836874,
				"y": -2.5754792876,
				"z": -0.8373503486,
				"element": "C" 
			},
			{
				"x": -1.6894214009,
				"y": -1.5436140238,
				"z": -1.6884015174,
				"element": "C" 
			},
			{
				"x": 1.2675907824,
				"y": -2.6975842067,
				"z": 0.1421185136,
				"element": "C" 
			},
			{
				"x": 1.3424696623,
				"y": -3.8904379007,
				"z": -0.124407675,
				"element": "O" 
			},
			{
				"x": 2.2391482952,
				"y": -1.9537497485,
				"z": 0.7261821194,
				"element": "O" 
			},
			{
				"x": 3.5176262455,
				"y": -2.5623623313,
				"z": 1.125764037,
				"element": "C" 
			},
			{
				"x": 3.27802767,
				"y": -3.6525872226,
				"z": 2.1758512624,
				"element": "C" 
			},
			{
				"x": 4.2525727994,
				"y": -3.0958346655,
				"z": -0.1086796043,
				"element": "C" 
			},
			{
				"x": 4.2720479611,
				"y": -1.3777709239,
				"z": 1.7356574504,
				"element": "C" 
			},
			{
				"x": -4.1066484607,
				"y": 3.4906288443,
				"z": -3.4251772908,
				"element": "C" 
			},
			{
				"x": -5.4523929802,
				"y": 3.3214438478,
				"z": -3.2690226459,
				"element": "O" 
			},
			{
				"x": -3.6455035571,
				"y": 4.4090274636,
				"z": -4.063973987,
				"element": "O" 
			},
			{
				"x": -5.2196979355,
				"y": -0.1977215659,
				"z": -1.9392824216,
				"element": "H" 
			},
			{
				"x": -5.8481365827,
				"y": 1.4580727408,
				"z": -1.9834540081,
				"element": "H" 
			},
			{
				"x": -5.173297204,
				"y": 0.8048291767,
				"z": -0.4814901866,
				"element": "H" 
			},
			{
				"x": -3.2823110413,
				"y": -0.7434191817,
				"z": -0.4488186492,
				"element": "H" 
			},
			{
				"x": -1.4615843159,
				"y": 0.9450327137,
				"z": 0.6599152421,
				"element": "H" 
			},
			{
				"x": -1.7741721591,
				"y": -0.6782087236,
				"z": 1.2719975042,
				"element": "H" 
			},
			{
				"x": 0.6535534217,
				"y": -0.2948264497,
				"z": 1.0726350993,
				"element": "H" 
			},
			{
				"x": 0.4845421895,
				"y": 0.1031725614,
				"z": -0.6382421409,
				"element": "H" 
			},
			{
				"x": -0.5354638166,
				"y": -3.369781412,
				"z": -1.4615412061,
				"element": "H" 
			},
			{
				"x": -1.6406875494,
				"y": -3.0589327031,
				"z": -0.1308013355,
				"element": "H" 
			},
			{
				"x": -2.4711754532,
				"y": -2.0353709314,
				"z": -2.2763047939,
				"element": "H" 
			},
			{
				"x": -0.9892559446,
				"y": -1.086472129,
				"z": -2.3940486661,
				"element": "H" 
			},
			{
				"x": 2.7230347008,
				"y": -4.4887561794,
				"z": 1.7503594984,
				"element": "H" 
			},
			{
				"x": 2.7162093385,
				"y": -3.2466088875,
				"z": 3.0233504013,
				"element": "H" 
			},
			{
				"x": 4.2393877037,
				"y": -4.0185002553,
				"z": 2.5509910294,
				"element": "H" 
			},
			{
				"x": 5.2501042498,
				"y": -3.4434662054,
				"z": 0.1793771432,
				"element": "H" 
			},
			{
				"x": 3.7055428489,
				"y": -3.9237773678,
				"z": -0.5596996754,
				"element": "H" 
			},
			{
				"x": 4.3716879843,
				"y": -2.3009940992,
				"z": -0.8518521267,
				"element": "H" 
			},
			{
				"x": 3.7275320561,
				"y": -0.9721891086,
				"z": 2.5935992443,
				"element": "H" 
			},
			{
				"x": 4.3985402052,
				"y": -0.5796709148,
				"z": 0.9984339655,
				"element": "H" 
			},
			{
				"x": 5.262160323,
				"y": -1.6970635688,
				"z": 2.0742830507,
				"element": "H" 
			},
			{
				"x": -5.8606352446,
				"y": 4.0559215382,
				"z": -3.756765301,
				"element": "H" 
			}
		],
		 "valence_orbital": [ 
			{
				"type": "occ",
				"energy": -0.27833,
				"method": "rhf"
			},
			{
				"type": "occ",
				"energy": -0.27029,
				"method": "rhf"
			},
			{
				"type": "occ",
				"energy": -0.26518,
				"method": "rhf"
			},
			{
				"type": "occ",
				"energy": -0.25874,
				"method": "rhf"
			},
			{
				"type": "occ",
				"energy": -0.23613,
				"method": "rhf"
			},
			{
				"type": "unocc",
				"energy": -0.03017,
				"method": "rhf"
			},
			{
				"type": "unocc",
				"energy": -0.01274,
				"method": "rhf"
			},
			{
				"type": "unocc",
				"energy": 0.05162,
				"method": "rhf"
			},
			{
				"type": "unocc",
				"energy": 0.06023,
				"method": "rhf"
			},
			{
				"type": "unocc",
				"energy": 0.07645,
				"method": "rhf"
			}
		],
		"cosmo_sigma_profile": { 
			"-0.025": 0.0,
			"-0.024": 0.0,
			"-0.023": 0.0,
			"-0.022": 0.0,
			"-0.021": 0.0,
			"-0.02": 0.0,
			"-0.019": 0.0245579954401,
			"-0.018": 0.759760691654,
			"-0.017": 0.769297081076,
			"-0.016": 1.10376788912,
			"-0.015": 0.70204258147,
			"-0.014": 0.93263726947,
			"-0.013": 0.365729259938,
			"-0.012": 0.50803088817,
			"-0.011": 0.887717584455,
			"-0.01": 1.00861010121,
			"-0.009": 0.258103927306,
			"-0.008": 2.83144363468,
			"-0.007": 11.2600310466,
			"-0.006": 11.3448899972,
			"-0.005": 17.6706074702,
			"-0.004": 31.1681498739,
			"-0.003": 40.9137074855,
			"-0.002": 42.5687682631,
			"-0.001": 32.1747403933,
			"0.0": 33.5682438864,
			"0.001": 28.4122696544,
			"0.002": 14.5340491159,
			"0.003": 9.52084936608,
			"0.004": 8.42183089805,
			"0.005": 8.85418768918,
			"0.006": 6.723600019,
			"0.007": 4.90574471216,
			"0.008": 4.85901922061,
			"0.009": 5.84916346537,
			"0.01": 7.58395669751,
			"0.011": 7.31375192712,
			"0.012": 6.96409304973,
			"0.013": 5.03554654218,
			"0.014": 4.34322146322,
			"0.015": 1.78804701573,
			"0.016": 0.362144507461,
			"0.017": 0.0,
			"0.018": 0.0,
			"0.019": 0.0,
			"0.02": 0.0,
			"0.021": 0.0,
			"0.022": 0.0,
			"0.023": 0.0,
			"0.024": 0.0,
			"0.025": 0.0
		}
	}
}
