{
	 "smiles": "COC1=C(C=CC(F)=C1)C(O)=O", 
	 "Tm": 408.15, 
	 "num_atms": 19, 
	 "gaussian": { 
		 "optdone": 1, 
		 "sigma_profile": "yes", 
		 "theory": "DFT", 
		 "functional": "B3LYP", 
		 "basiset": "6-31G**", 
		 "properties": { 
			 "R2extent": 3009.5969, 
			 "electric_dipole_moment_norm": 5.81450948404, 
			 "electric_quadrupole_moment_norm": 19.9745549134, 
			 "total_energy": -634.577758474, 
			 "HOMO_LUMO_gap": 0.20522, 
			 "cosmo_polarized_energy": -13.64, 
			 "cosmo_cavitation_energy": 23.79, 
			 "cosmo_dispersion_energy": -17.62, 
			 "cosmo_repulsion_energy": 1.37, 
			 "cosmo_total_nonelectrostatic_energy": 7.53, 
			 "SMD_solvation_energy": 6.61 
		},
		"coords": [
			{
				"x": -1.1672539319,
				"y": 1.3676082834,
				"z": 0.2683360555,
				"element": "C" 
			},
			{
				"x": -0.0260625243,
				"y": 0.8354116847,
				"z": 0.9392768049,
				"element": "O" 
			},
			{
				"x": 0.168618083,
				"y": -0.5216478731,
				"z": 0.9798595801,
				"element": "C" 
			},
			{
				"x": 1.3174739816,
				"y": -0.9914544123,
				"z": 1.6587797176,
				"element": "C" 
			},
			{
				"x": 1.5311714922,
				"y": -2.3751181665,
				"z": 1.7092538977,
				"element": "C" 
			},
			{
				"x": 0.66020304,
				"y": -3.2852446901,
				"z": 1.1205920338,
				"element": "C" 
			},
			{
				"x": -0.4541575637,
				"y": -2.7788068176,
				"z": 0.465154855,
				"element": "C" 
			},
			{
				"x": -1.3203734363,
				"y": -3.6275526011,
				"z": -0.1169232656,
				"element": "F" 
			},
			{
				"x": -0.7213872557,
				"y": -1.4162762264,
				"z": 0.3804495334,
				"element": "C" 
			},
			{
				"x": 2.3526680726,
				"y": -0.1361968302,
				"z": 2.3453035147,
				"element": "C" 
			},
			{
				"x": 2.1866833687,
				"y": 1.1997721295,
				"z": 2.3214775163,
				"element": "O" 
			},
			{
				"x": 3.3097666584,
				"y": -0.6261569802,
				"z": 2.9051334088,
				"element": "O" 
			},
			{
				"x": -1.0962044301,
				"y": 2.4500111752,
				"z": 0.3749918174,
				"element": "H" 
			},
			{
				"x": -1.1570948547,
				"y": 1.1024923646,
				"z": -0.7943643198,
				"element": "H" 
			},
			{
				"x": -2.0950851225,
				"y": 1.0138186084,
				"z": 0.7306020112,
				"element": "H" 
			},
			{
				"x": 2.4179252895,
				"y": -2.7119066107,
				"z": 2.2347327626,
				"element": "H" 
			},
			{
				"x": 0.8288910487,
				"y": -4.3548329198,
				"z": 1.1617315162,
				"element": "H" 
			},
			{
				"x": -1.6085523218,
				"y": -1.0913269534,
				"z": -0.1460479784,
				"element": "H" 
			},
			{
				"x": 1.372470406,
				"y": 1.4214068355,
				"z": 1.8337605388,
				"element": "H" 
			}
		],
		 "valence_orbital": [ 
			{
				"type": "occ",
				"energy": -0.34545,
				"method": "rhf"
			},
			{
				"type": "occ",
				"energy": -0.3009,
				"method": "rhf"
			},
			{
				"type": "occ",
				"energy": -0.2688,
				"method": "rhf"
			},
			{
				"type": "occ",
				"energy": -0.26449,
				"method": "rhf"
			},
			{
				"type": "occ",
				"energy": -0.25016,
				"method": "rhf"
			},
			{
				"type": "unocc",
				"energy": -0.04494,
				"method": "rhf"
			},
			{
				"type": "unocc",
				"energy": -0.0176,
				"method": "rhf"
			},
			{
				"type": "unocc",
				"energy": 0.05955,
				"method": "rhf"
			},
			{
				"type": "unocc",
				"energy": 0.06631,
				"method": "rhf"
			},
			{
				"type": "unocc",
				"energy": 0.07313,
				"method": "rhf"
			}
		],
		"cosmo_sigma_profile": { 
			"-0.025": 0.0,
			"-0.024": 0.0,
			"-0.023": 0.0,
			"-0.022": 0.0,
			"-0.021": 0.0,
			"-0.02": 0.0,
			"-0.019": 0.0,
			"-0.018": 0.0,
			"-0.017": 0.0,
			"-0.016": 0.0,
			"-0.015": 0.0,
			"-0.014": 0.0,
			"-0.013": 0.0,
			"-0.012": 0.0,
			"-0.011": 0.01562263213,
			"-0.01": 0.715862944914,
			"-0.009": 1.2250764962,
			"-0.008": 4.84563704091,
			"-0.007": 11.0164948877,
			"-0.006": 14.0102854384,
			"-0.005": 15.4336430465,
			"-0.004": 13.2480540167,
			"-0.003": 10.8359506328,
			"-0.002": 8.92932293795,
			"-0.001": 12.8438673053,
			"0.0": 17.1696172295,
			"0.001": 17.8074704515,
			"0.002": 11.6643571824,
			"0.003": 11.7899596277,
			"0.004": 9.39284195003,
			"0.005": 2.12185532081,
			"0.006": 2.07566292435,
			"0.007": 1.81062687059,
			"0.008": 2.76724225341,
			"0.009": 3.2224224034,
			"0.01": 3.07996094037,
			"0.011": 5.1717925073,
			"0.012": 6.06190627391,
			"0.013": 2.73258675507,
			"0.014": 0.901475485147,
			"0.015": 0.0,
			"0.016": 0.0,
			"0.017": 0.0,
			"0.018": 0.0,
			"0.019": 0.0,
			"0.02": 0.0,
			"0.021": 0.0,
			"0.022": 0.0,
			"0.023": 0.0,
			"0.024": 0.0,
			"0.025": 0.0
		}
	}
}
