{
	 "smiles": "NNC(=O)C1=C(Cl)C=C(F)C=C1", 
	 "Tm": 435.15, 
	 "num_atms": 18, 
	 "gaussian": { 
		 "optdone": 1, 
		 "sigma_profile": "yes", 
		 "theory": "DFT", 
		 "functional": "B3LYP", 
		 "basiset": "6-31G**", 
		 "properties": { 
			 "R2extent": 2703.8551, 
			 "electric_dipole_moment_norm": 2.88892949724, 
			 "electric_quadrupole_moment_norm": 9.03930466961, 
			 "total_energy": -1015.08437877, 
			 "HOMO_LUMO_gap": 0.20934, 
			 "cosmo_polarized_energy": -12.77, 
			 "cosmo_cavitation_energy": 24.8, 
			 "cosmo_dispersion_energy": -17.96, 
			 "cosmo_repulsion_energy": 1.43, 
			 "cosmo_total_nonelectrostatic_energy": 8.26, 
			 "SMD_solvation_energy": 5.66 
		},
		"coords": [
			{
				"x": -0.9626810726,
				"y": 3.3582091098,
				"z": -1.0963128302,
				"element": "N" 
			},
			{
				"x": 0.2472300266,
				"y": 3.4311662091,
				"z": -0.3878202075,
				"element": "N" 
			},
			{
				"x": 0.9215021203,
				"y": 2.4099045714,
				"z": 0.2266098104,
				"element": "C" 
			},
			{
				"x": 1.8106379093,
				"y": 2.6288594734,
				"z": 1.039295499,
				"element": "O" 
			},
			{
				"x": 0.4893052019,
				"y": 0.9924255513,
				"z": -0.0767506594,
				"element": "C" 
			},
			{
				"x": 0.5089723348,
				"y": 0.3774778753,
				"z": -1.3367512097,
				"element": "C" 
			},
			{
				"x": 1.0169349434,
				"y": 1.2601082174,
				"z": -2.7732417751,
				"element": "Cl" 
			},
			{
				"x": 0.1728679486,
				"y": -0.9659085401,
				"z": -1.5036767923,
				"element": "C" 
			},
			{
				"x": -0.1867283516,
				"y": -1.6997895413,
				"z": -0.3802727104,
				"element": "C" 
			},
			{
				"x": -0.5200615234,
				"y": -2.9927632135,
				"z": -0.5374851313,
				"element": "F" 
			},
			{
				"x": -0.199258196,
				"y": -1.1429739222,
				"z": 0.8939730789,
				"element": "C" 
			},
			{
				"x": 0.1559488801,
				"y": 0.1945779699,
				"z": 1.0300538671,
				"element": "C" 
			},
			{
				"x": -1.6240653927,
				"y": 2.7636908538,
				"z": -0.6036992588,
				"element": "H" 
			},
			{
				"x": -0.7941005016,
				"y": 2.9673873554,
				"z": -2.0196830634,
				"element": "H" 
			},
			{
				"x": 0.5170733014,
				"y": 4.3592344912,
				"z": -0.087025437,
				"element": "H" 
			},
			{
				"x": 0.2005772688,
				"y": -1.4376256897,
				"z": -2.4781893518,
				"element": "H" 
			},
			{
				"x": -0.4679444538,
				"y": -1.7534481478,
				"z": 1.7484508478,
				"element": "H" 
			},
			{
				"x": 0.1892895566,
				"y": 0.6495673768,
				"z": 2.0144253235,
				"element": "H" 
			}
		],
		 "valence_orbital": [ 
			{
				"type": "occ",
				"energy": -0.2945,
				"method": "rhf"
			},
			{
				"type": "occ",
				"energy": -0.2798,
				"method": "rhf"
			},
			{
				"type": "occ",
				"energy": -0.27026,
				"method": "rhf"
			},
			{
				"type": "occ",
				"energy": -0.26051,
				"method": "rhf"
			},
			{
				"type": "occ",
				"energy": -0.24857,
				"method": "rhf"
			},
			{
				"type": "unocc",
				"energy": -0.03923,
				"method": "rhf"
			},
			{
				"type": "unocc",
				"energy": -0.03472,
				"method": "rhf"
			},
			{
				"type": "unocc",
				"energy": 0.00703,
				"method": "rhf"
			},
			{
				"type": "unocc",
				"energy": 0.02744,
				"method": "rhf"
			},
			{
				"type": "unocc",
				"energy": 0.08223,
				"method": "rhf"
			}
		],
		"cosmo_sigma_profile": { 
			"-0.025": 0.0,
			"-0.024": 0.0,
			"-0.023": 0.0,
			"-0.022": 0.0,
			"-0.021": 0.0,
			"-0.02": 0.0,
			"-0.019": 0.0,
			"-0.018": 0.0,
			"-0.017": 0.0,
			"-0.016": 0.0,
			"-0.015": 0.00415299901142,
			"-0.014": 0.621809572159,
			"-0.013": 0.683487224197,
			"-0.012": 1.90905822438,
			"-0.011": 2.36340742763,
			"-0.01": 2.68487171711,
			"-0.009": 4.86409862769,
			"-0.008": 6.81682607209,
			"-0.007": 8.2732233142,
			"-0.006": 8.48437714137,
			"-0.005": 8.5809365718,
			"-0.004": 8.27341912477,
			"-0.003": 9.11858068443,
			"-0.002": 10.4977925818,
			"-0.001": 17.0056946775,
			"0.0": 19.7482892983,
			"0.001": 18.7879334719,
			"0.002": 14.3498184841,
			"0.003": 17.0430004981,
			"0.004": 12.0862799136,
			"0.005": 2.26107300436,
			"0.006": 1.90198843931,
			"0.007": 2.34636472665,
			"0.008": 2.32668484297,
			"0.009": 2.05755429211,
			"0.01": 1.76068445883,
			"0.011": 2.25572544351,
			"0.012": 3.64026948407,
			"0.013": 6.30302630303,
			"0.014": 2.4748913799,
			"0.015": 0.567424933521,
			"0.016": 0.266699509483,
			"0.017": 0.0,
			"0.018": 0.0,
			"0.019": 0.0,
			"0.02": 0.0,
			"0.021": 0.0,
			"0.022": 0.0,
			"0.023": 0.0,
			"0.024": 0.0,
			"0.025": 0.0
		}
	}
}
