{
	 "smiles": "OC(=O)CCl", 
	 "Tm": 335.35, 
	 "num_atms": 8, 
	 "gaussian": { 
		 "optdone": 1, 
		 "sigma_profile": "yes", 
		 "theory": "DFT", 
		 "functional": "B3LYP", 
		 "basiset": "6-31G**", 
		 "properties": { 
			 "R2extent": 840.0127, 
			 "electric_dipole_moment_norm": 2.50876131388, 
			 "electric_quadrupole_moment_norm": 7.00115743431, 
			 "total_energy": -688.665145911, 
			 "HOMO_LUMO_gap": 0.27975, 
			 "cosmo_polarized_energy": -10.28, 
			 "cosmo_cavitation_energy": 13.87, 
			 "cosmo_dispersion_energy": -10.76, 
			 "cosmo_repulsion_energy": 0.98, 
			 "cosmo_total_nonelectrostatic_energy": 4.09, 
			 "SMD_solvation_energy": 3.76 
		},
		"coords": [
			{
				"x": 2.4974409951,
				"y": -0.1938971928,
				"z": 0.8161885911,
				"element": "O" 
			},
			{
				"x": 1.4244990833,
				"y": -0.4384830854,
				"z": 0.0526310132,
				"element": "C" 
			},
			{
				"x": 1.5073235711,
				"y": -0.8496823016,
				"z": -1.0769164986,
				"element": "O" 
			},
			{
				"x": 0.0318431011,
				"y": -0.1848618438,
				"z": 0.6409814311,
				"element": "C" 
			},
			{
				"x": 0.0091594852,
				"y": 0.4328977202,
				"z": 2.3471008975,
				"element": "Cl" 
			},
			{
				"x": 2.2179133001,
				"y": 0.130303535,
				"z": 1.6896800589,
				"element": "H" 
			},
			{
				"x": -0.5288138992,
				"y": -1.119484472,
				"z": 0.6226641972,
				"element": "H" 
			},
			{
				"x": -0.4798656368,
				"y": 0.5496076404,
				"z": 0.0189703095,
				"element": "H" 
			}
		],
		 "valence_orbital": [ 
			{
				"type": "occ",
				"energy": -0.39826,
				"method": "rhf"
			},
			{
				"type": "occ",
				"energy": -0.35104,
				"method": "rhf"
			},
			{
				"type": "occ",
				"energy": -0.3403,
				"method": "rhf"
			},
			{
				"type": "occ",
				"energy": -0.3227,
				"method": "rhf"
			},
			{
				"type": "occ",
				"energy": -0.28756,
				"method": "rhf"
			},
			{
				"type": "unocc",
				"energy": -0.00781,
				"method": "rhf"
			},
			{
				"type": "unocc",
				"energy": -0.00648,
				"method": "rhf"
			},
			{
				"type": "unocc",
				"energy": 0.07199,
				"method": "rhf"
			},
			{
				"type": "unocc",
				"energy": 0.10038,
				"method": "rhf"
			},
			{
				"type": "unocc",
				"energy": 0.1381,
				"method": "rhf"
			}
		],
		"cosmo_sigma_profile": { 
			"-0.025": 0.0,
			"-0.024": 0.0,
			"-0.023": 0.0,
			"-0.022": 0.0,
			"-0.021": 0.0,
			"-0.02": 0.0,
			"-0.019": 0.0,
			"-0.018": 0.0,
			"-0.017": 0.0,
			"-0.016": 0.213502203294,
			"-0.015": 0.902115161584,
			"-0.014": 0.396705069264,
			"-0.013": 0.609260948963,
			"-0.012": 0.776719780976,
			"-0.011": 1.3516324246,
			"-0.01": 5.46984133098,
			"-0.009": 6.58132691098,
			"-0.008": 6.46479481273,
			"-0.007": 5.02069634584,
			"-0.006": 4.59081282145,
			"-0.005": 3.30123790133,
			"-0.004": 3.12489647194,
			"-0.003": 4.2170683622,
			"-0.002": 4.13162013304,
			"-0.001": 4.00821302206,
			"0.0": 5.85363626515,
			"0.001": 5.24147143545,
			"0.002": 4.84793066309,
			"0.003": 6.03079543839,
			"0.004": 7.98998584626,
			"0.005": 6.02628332883,
			"0.006": 2.18693800316,
			"0.007": 2.63503366789,
			"0.008": 3.45202424356,
			"0.009": 4.56767822485,
			"0.01": 4.05033688796,
			"0.011": 5.74770462687,
			"0.012": 2.74562284979,
			"0.013": 0.142840842524,
			"0.014": 0.0,
			"0.015": 0.0,
			"0.016": 0.0,
			"0.017": 0.0,
			"0.018": 0.0,
			"0.019": 0.0,
			"0.02": 0.0,
			"0.021": 0.0,
			"0.022": 0.0,
			"0.023": 0.0,
			"0.024": 0.0,
			"0.025": 0.0
		}
	}
}
