{
	 "smiles": "[O-][N+](=O)C1=CC=CC=C1SSC1=CC=CC=C1[N+]([O-])=O", 
	 "Tm": 468.15, 
	 "num_atms": 28, 
	 "gaussian": { 
		 "optdone": 1, 
		 "sigma_profile": "yes", 
		 "theory": "DFT", 
		 "functional": "B3LYP", 
		 "basiset": "6-31G**", 
		 "properties": { 
			 "R2extent": 8249.1878, 
			 "electric_dipole_moment_norm": 5.97767627176, 
			 "electric_quadrupole_moment_norm": 26.327335098, 
			 "total_energy": -1668.66068229, 
			 "HOMO_LUMO_gap": 0.14961, 
			 "cosmo_polarized_energy": -14.59, 
			 "cosmo_cavitation_energy": 36.6, 
			 "cosmo_dispersion_energy": -27.31, 
			 "cosmo_repulsion_energy": 2.0, 
			 "cosmo_total_nonelectrostatic_energy": 11.29, 
			 "SMD_solvation_energy": 9.61 
		},
		"coords": [
			{
				"x": -0.3823722572,
				"y": -4.5743778714,
				"z": 0.0930451714,
				"element": "O" 
			},
			{
				"x": -0.2222089465,
				"y": -4.3844203705,
				"z": -1.1190275059,
				"element": "N" 
			},
			{
				"x": -0.55083231,
				"y": -5.1877802774,
				"z": -1.9891522754,
				"element": "O" 
			},
			{
				"x": 0.3913038172,
				"y": -3.1221061391,
				"z": -1.523244328,
				"element": "C" 
			},
			{
				"x": 0.5314187045,
				"y": -2.9062510466,
				"z": -2.8978880822,
				"element": "C" 
			},
			{
				"x": 1.0965646524,
				"y": -1.7276739627,
				"z": -3.3598406735,
				"element": "C" 
			},
			{
				"x": 1.5192729171,
				"y": -0.7707447515,
				"z": -2.4329355272,
				"element": "C" 
			},
			{
				"x": 1.3795439274,
				"y": -0.9896975194,
				"z": -1.0659474045,
				"element": "C" 
			},
			{
				"x": 0.8133794412,
				"y": -2.1729314395,
				"z": -0.5664681082,
				"element": "C" 
			},
			{
				"x": 0.6331946852,
				"y": -2.4793110352,
				"z": 1.2016230296,
				"element": "S" 
			},
			{
				"x": 1.6098403123,
				"y": -0.8425684188,
				"z": 2.1167707286,
				"element": "S" 
			},
			{
				"x": 0.3307152184,
				"y": 0.4220081695,
				"z": 2.247634938,
				"element": "C" 
			},
			{
				"x": -0.9454133055,
				"y": 0.2547836076,
				"z": 1.6876480331,
				"element": "C" 
			},
			{
				"x": -1.9249231212,
				"y": 1.2362360909,
				"z": 1.8035427496,
				"element": "C" 
			},
			{
				"x": -1.6682282147,
				"y": 2.4292977551,
				"z": 2.4849109809,
				"element": "C" 
			},
			{
				"x": -0.4165101938,
				"y": 2.6252820619,
				"z": 3.0476121339,
				"element": "C" 
			},
			{
				"x": 0.565894066,
				"y": 1.6371593971,
				"z": 2.9277707386,
				"element": "C" 
			},
			{
				"x": 1.8603883632,
				"y": 1.9248185823,
				"z": 3.53994779,
				"element": "N" 
			},
			{
				"x": 2.7494822212,
				"y": 1.0738892073,
				"z": 3.412303544,
				"element": "O" 
			},
			{
				"x": 2.0071860783,
				"y": 2.9860918437,
				"z": 4.1421483463,
				"element": "O" 
			},
			{
				"x": 0.1870387998,
				"y": -3.6814510458,
				"z": -3.5706361994,
				"element": "H" 
			},
			{
				"x": 1.2066291391,
				"y": -1.5561609207,
				"z": -4.4252227889,
				"element": "H" 
			},
			{
				"x": 1.9651624349,
				"y": 0.1589431998,
				"z": -2.7737378706,
				"element": "H" 
			},
			{
				"x": 1.7274293851,
				"y": -0.238054181,
				"z": -0.3681031955,
				"element": "H" 
			},
			{
				"x": -1.1739366398,
				"y": -0.6665015938,
				"z": 1.1661331295,
				"element": "H" 
			},
			{
				"x": -2.8989919401,
				"y": 1.0625195986,
				"z": 1.3560001055,
				"element": "H" 
			},
			{
				"x": -2.4328018408,
				"y": 3.1933987902,
				"z": 2.5751667501,
				"element": "H" 
			},
			{
				"x": -0.1631253939,
				"y": 3.5296022695,
				"z": 3.5862457901,
				"element": "H" 
			}
		],
		 "valence_orbital": [ 
			{
				"type": "occ",
				"energy": -0.293,
				"method": "rhf"
			},
			{
				"type": "occ",
				"energy": -0.29112,
				"method": "rhf"
			},
			{
				"type": "occ",
				"energy": -0.28559,
				"method": "rhf"
			},
			{
				"type": "occ",
				"energy": -0.25276,
				"method": "rhf"
			},
			{
				"type": "occ",
				"energy": -0.25071,
				"method": "rhf"
			},
			{
				"type": "unocc",
				"energy": -0.1011,
				"method": "rhf"
			},
			{
				"type": "unocc",
				"energy": -0.09881,
				"method": "rhf"
			},
			{
				"type": "unocc",
				"energy": -0.03931,
				"method": "rhf"
			},
			{
				"type": "unocc",
				"energy": -0.0375,
				"method": "rhf"
			},
			{
				"type": "unocc",
				"energy": -0.03516,
				"method": "rhf"
			}
		],
		"cosmo_sigma_profile": { 
			"-0.025": 0.0,
			"-0.024": 0.0,
			"-0.023": 0.0,
			"-0.022": 0.0,
			"-0.021": 0.0,
			"-0.02": 0.0,
			"-0.019": 0.0,
			"-0.018": 0.0,
			"-0.017": 0.0,
			"-0.016": 0.0,
			"-0.015": 0.0,
			"-0.014": 0.0,
			"-0.013": 0.0,
			"-0.012": 0.0,
			"-0.011": 0.0,
			"-0.01": 0.0,
			"-0.009": 0.0,
			"-0.008": 5.92583685551,
			"-0.007": 17.7214268471,
			"-0.006": 20.587849616,
			"-0.005": 17.2671356849,
			"-0.004": 17.416231376,
			"-0.003": 14.964757111,
			"-0.002": 20.2483390323,
			"-0.001": 27.324142187,
			"0.0": 29.7154405222,
			"0.001": 27.6018461895,
			"0.002": 21.1599101366,
			"0.003": 9.33786931254,
			"0.004": 7.96436269646,
			"0.005": 10.9880944222,
			"0.006": 12.2200601627,
			"0.007": 16.13616081,
			"0.008": 11.8062776756,
			"0.009": 8.05259159055,
			"0.01": 2.65562237068,
			"0.011": 0.0,
			"0.012": 0.0,
			"0.013": 0.0,
			"0.014": 0.0,
			"0.015": 0.0,
			"0.016": 0.0,
			"0.017": 0.0,
			"0.018": 0.0,
			"0.019": 0.0,
			"0.02": 0.0,
			"0.021": 0.0,
			"0.022": 0.0,
			"0.023": 0.0,
			"0.024": 0.0,
			"0.025": 0.0
		}
	}
}
