{
	 "smiles": "OC(=O)CN1N=NC(=N1)C1=CC=CS1", 
	 "Tm": 494.15, 
	 "num_atms": 20, 
	 "gaussian": { 
		 "optdone": 1, 
		 "sigma_profile": "yes", 
		 "theory": "DFT", 
		 "functional": "B3LYP", 
		 "basiset": "6-31G**", 
		 "properties": { 
			 "R2extent": 4211.986, 
			 "electric_dipole_moment_norm": 4.79867917765, 
			 "electric_quadrupole_moment_norm": 12.3217085938, 
			 "total_energy": -1037.9448258, 
			 "HOMO_LUMO_gap": 0.17885, 
			 "cosmo_polarized_energy": -14.64, 
			 "cosmo_cavitation_energy": 27.48, 
			 "cosmo_dispersion_energy": -21.14, 
			 "cosmo_repulsion_energy": 1.62, 
			 "cosmo_total_nonelectrostatic_energy": 7.95, 
			 "SMD_solvation_energy": 3.4 
		},
		"coords": [
			{
				"x": 0.0423041367,
				"y": 4.3671278472,
				"z": -0.7131778295,
				"element": "O" 
			},
			{
				"x": 1.2304758922,
				"y": 3.9074158741,
				"z": -1.1091843199,
				"element": "C" 
			},
			{
				"x": 1.9643515961,
				"y": 4.5236778962,
				"z": -1.8408121898,
				"element": "O" 
			},
			{
				"x": 1.7261842164,
				"y": 2.5588029561,
				"z": -0.5429594504,
				"element": "C" 
			},
			{
				"x": 0.6982567482,
				"y": 1.6291511797,
				"z": -0.0791768684,
				"element": "N" 
			},
			{
				"x": -0.401819698,
				"y": 2.0209961149,
				"z": 0.5580222353,
				"element": "N" 
			},
			{
				"x": -1.0680953599,
				"y": 0.9415421271,
				"z": 0.8702607756,
				"element": "N" 
			},
			{
				"x": -0.320869842,
				"y": -0.1038207942,
				"z": 0.4131274299,
				"element": "C" 
			},
			{
				"x": 0.8009520581,
				"y": 0.3106639665,
				"z": -0.1907227461,
				"element": "N" 
			},
			{
				"x": -0.7095118228,
				"y": -1.4902747552,
				"z": 0.5645710531,
				"element": "C" 
			},
			{
				"x": -1.8492025744,
				"y": -1.9685706998,
				"z": 1.1697177098,
				"element": "C" 
			},
			{
				"x": -1.9284668745,
				"y": -3.3886408937,
				"z": 1.1498676068,
				"element": "C" 
			},
			{
				"x": -0.8518868968,
				"y": -3.9684209031,
				"z": 0.5319489902,
				"element": "C" 
			},
			{
				"x": 0.2829585531,
				"y": -2.7924523039,
				"z": -0.0395166375,
				"element": "S" 
			},
			{
				"x": -0.4045596505,
				"y": 3.7301038608,
				"z": -0.1119214219,
				"element": "H" 
			},
			{
				"x": 2.2891188033,
				"y": 2.0503863906,
				"z": -1.3236103832,
				"element": "H" 
			},
			{
				"x": 2.409187188,
				"y": 2.777856308,
				"z": 0.2856314172,
				"element": "H" 
			},
			{
				"x": -2.5931217386,
				"y": -1.3140800001,
				"z": 1.6075609101,
				"element": "H" 
			},
			{
				"x": -2.7492107235,
				"y": -3.9537804978,
				"z": 1.5755405022,
				"element": "H" 
			},
			{
				"x": -0.6560440108,
				"y": -5.0204836736,
				"z": 0.3768332164,
				"element": "H" 
			}
		],
		 "valence_orbital": [ 
			{
				"type": "occ",
				"energy": -0.32191,
				"method": "rhf"
			},
			{
				"type": "occ",
				"energy": -0.31808,
				"method": "rhf"
			},
			{
				"type": "occ",
				"energy": -0.28579,
				"method": "rhf"
			},
			{
				"type": "occ",
				"energy": -0.26912,
				"method": "rhf"
			},
			{
				"type": "occ",
				"energy": -0.24186,
				"method": "rhf"
			},
			{
				"type": "unocc",
				"energy": -0.06301,
				"method": "rhf"
			},
			{
				"type": "unocc",
				"energy": -0.05001,
				"method": "rhf"
			},
			{
				"type": "unocc",
				"energy": -0.00464,
				"method": "rhf"
			},
			{
				"type": "unocc",
				"energy": 0.01587,
				"method": "rhf"
			},
			{
				"type": "unocc",
				"energy": 0.02613,
				"method": "rhf"
			}
		],
		"cosmo_sigma_profile": { 
			"-0.025": 0.0,
			"-0.024": 0.0,
			"-0.023": 0.0,
			"-0.022": 0.0,
			"-0.021": 0.0,
			"-0.02": 0.0,
			"-0.019": 0.0,
			"-0.018": 0.0,
			"-0.017": 0.0,
			"-0.016": 0.0,
			"-0.015": 0.0,
			"-0.014": 0.0,
			"-0.013": 0.0,
			"-0.012": 0.261598251474,
			"-0.011": 4.20205119338,
			"-0.01": 6.24255984244,
			"-0.009": 8.51390698823,
			"-0.008": 9.07444214011,
			"-0.007": 10.5047055054,
			"-0.006": 11.0883684602,
			"-0.005": 10.3578693963,
			"-0.004": 9.71396281966,
			"-0.003": 9.9054764021,
			"-0.002": 8.3695060317,
			"-0.001": 10.3410165284,
			"0.0": 12.6052419801,
			"0.001": 16.0253758163,
			"0.002": 20.4059964805,
			"0.003": 20.0441172148,
			"0.004": 11.4083283922,
			"0.005": 5.91105725933,
			"0.006": 5.17075571895,
			"0.007": 6.33298201876,
			"0.008": 4.23352669881,
			"0.009": 6.27936996058,
			"0.01": 6.27363649834,
			"0.011": 6.61153533087,
			"0.012": 3.64696874224,
			"0.013": 0.541317104746,
			"0.014": 0.0,
			"0.015": 0.0,
			"0.016": 0.0,
			"0.017": 0.0,
			"0.018": 0.0,
			"0.019": 0.0,
			"0.02": 0.0,
			"0.021": 0.0,
			"0.022": 0.0,
			"0.023": 0.0,
			"0.024": 0.0,
			"0.025": 0.0
		}
	}
}
