{
	 "smiles": "CC1CC1C1=NOC(N)=C1", 
	 "Tm": 329.15, 
	 "num_atms": 20, 
	 "gaussian": { 
		 "optdone": 1, 
		 "sigma_profile": "yes", 
		 "theory": "DFT", 
		 "functional": "B3LYP", 
		 "basiset": "6-31G**", 
		 "properties": { 
			 "R2extent": 2289.2435, 
			 "electric_dipole_moment_norm": 3.53214528722, 
			 "electric_quadrupole_moment_norm": 16.6609575082, 
			 "total_energy": -457.424239472, 
			 "HOMO_LUMO_gap": 0.22716, 
			 "cosmo_polarized_energy": -12.49, 
			 "cosmo_cavitation_energy": 23.33, 
			 "cosmo_dispersion_energy": -17.32, 
			 "cosmo_repulsion_energy": 1.44, 
			 "cosmo_total_nonelectrostatic_energy": 7.45, 
			 "SMD_solvation_energy": 4.07 
		},
		"coords": [
			{
				"x": -1.7925948485,
				"y": -0.3322685917,
				"z": -0.237656794,
				"element": "C" 
			},
			{
				"x": -1.9285716464,
				"y": 0.0441165646,
				"z": 1.2213099251,
				"element": "C" 
			},
			{
				"x": -1.8783552178,
				"y": -0.9963035032,
				"z": 2.3036783261,
				"element": "C" 
			},
			{
				"x": -0.7414724918,
				"y": -0.0025570798,
				"z": 2.1893488613,
				"element": "C" 
			},
			{
				"x": 0.6103306907,
				"y": -0.4301743181,
				"z": 1.7609516849,
				"element": "C" 
			},
			{
				"x": 0.8290742505,
				"y": -1.6356329711,
				"z": 1.2719973936,
				"element": "N" 
			},
			{
				"x": 2.2151684085,
				"y": -1.6584201466,
				"z": 0.9580094702,
				"element": "O" 
			},
			{
				"x": 2.7544892933,
				"y": -0.4736657352,
				"z": 1.2875857194,
				"element": "C" 
			},
			{
				"x": 4.1130286059,
				"y": -0.3578334251,
				"z": 1.1060880091,
				"element": "N" 
			},
			{
				"x": 1.7964457359,
				"y": 0.360007438,
				"z": 1.8005578363,
				"element": "C" 
			},
			{
				"x": -1.4568619816,
				"y": 0.5215048034,
				"z": -0.8375565667,
				"element": "H" 
			},
			{
				"x": -2.7573161834,
				"y": -0.6638602816,
				"z": -0.6381629225,
				"element": "H" 
			},
			{
				"x": -1.0716828441,
				"y": -1.1431184043,
				"z": -0.369584968,
				"element": "H" 
			},
			{
				"x": -2.6007340883,
				"y": 0.8806393778,
				"z": 1.4069882728,
				"element": "H" 
			},
			{
				"x": -2.5431281306,
				"y": -0.9078214495,
				"z": 3.1578583161,
				"element": "H" 
			},
			{
				"x": -1.6509290372,
				"y": -2.0157692091,
				"z": 2.0073388553,
				"element": "H" 
			},
			{
				"x": -0.7169138585,
				"y": 0.7967502869,
				"z": 2.9253590386,
				"element": "H" 
			},
			{
				"x": 4.4999515901,
				"y": -1.010482178,
				"z": 0.4372761079,
				"element": "H" 
			},
			{
				"x": 4.448684979,
				"y": 0.5864540521,
				"z": 0.9827366989,
				"element": "H" 
			},
			{
				"x": 1.911086774,
				"y": 1.3715347703,
				"z": 2.1573767356,
				"element": "H" 
			}
		],
		 "valence_orbital": [ 
			{
				"type": "occ",
				"energy": -0.31163,
				"method": "rhf"
			},
			{
				"type": "occ",
				"energy": -0.29041,
				"method": "rhf"
			},
			{
				"type": "occ",
				"energy": -0.2801,
				"method": "rhf"
			},
			{
				"type": "occ",
				"energy": -0.24966,
				"method": "rhf"
			},
			{
				"type": "occ",
				"energy": -0.21299,
				"method": "rhf"
			},
			{
				"type": "unocc",
				"energy": 0.01417,
				"method": "rhf"
			},
			{
				"type": "unocc",
				"energy": 0.05853,
				"method": "rhf"
			},
			{
				"type": "unocc",
				"energy": 0.08239,
				"method": "rhf"
			},
			{
				"type": "unocc",
				"energy": 0.09593,
				"method": "rhf"
			},
			{
				"type": "unocc",
				"energy": 0.11089,
				"method": "rhf"
			}
		],
		"cosmo_sigma_profile": { 
			"-0.025": 0.0,
			"-0.024": 0.0,
			"-0.023": 0.0,
			"-0.022": 0.0,
			"-0.021": 0.0,
			"-0.02": 0.0,
			"-0.019": 0.0,
			"-0.018": 0.0,
			"-0.017": 0.0,
			"-0.016": 0.0,
			"-0.015": 0.297549505249,
			"-0.014": 2.40925810637,
			"-0.013": 3.02017741285,
			"-0.012": 2.34936216895,
			"-0.011": 2.86531170714,
			"-0.01": 2.20779125508,
			"-0.009": 2.09971447021,
			"-0.008": 1.74949516901,
			"-0.007": 3.8772992055,
			"-0.006": 4.06253070519,
			"-0.005": 7.80373655866,
			"-0.004": 11.3265547362,
			"-0.003": 12.8455161217,
			"-0.002": 11.3232505458,
			"-0.001": 14.5534236047,
			"0.0": 16.1409936066,
			"0.001": 15.4081829255,
			"0.002": 11.2732224167,
			"0.003": 13.2516792726,
			"0.004": 12.1602185946,
			"0.005": 6.3119139297,
			"0.006": 3.57905423795,
			"0.007": 3.47228901464,
			"0.008": 4.05032166547,
			"0.009": 5.47323615167,
			"0.01": 3.02840487509,
			"0.011": 2.52028191655,
			"0.012": 1.66722309432,
			"0.013": 0.866596651629,
			"0.014": 1.55966439649,
			"0.015": 0.364389803783,
			"0.016": 0.0,
			"0.017": 0.0,
			"0.018": 0.0,
			"0.019": 0.0,
			"0.02": 0.0,
			"0.021": 0.0,
			"0.022": 0.0,
			"0.023": 0.0,
			"0.024": 0.0,
			"0.025": 0.0
		}
	}
}
