{
	 "smiles": "SC1=NN=C(Cl)C=C1", 
	 "Tm": 422.15, 
	 "num_atms": 11, 
	 "gaussian": { 
		 "optdone": 1, 
		 "sigma_profile": "yes", 
		 "theory": "DFT", 
		 "functional": "B3LYP", 
		 "basiset": "6-31G**", 
		 "properties": { 
			 "R2extent": 2211.7646, 
			 "electric_dipole_moment_norm": 3.37472100921, 
			 "electric_quadrupole_moment_norm": 10.6691282245, 
			 "total_energy": -1122.06563033, 
			 "HOMO_LUMO_gap": 0.18036, 
			 "cosmo_polarized_energy": -10.15, 
			 "cosmo_cavitation_energy": 19.37, 
			 "cosmo_dispersion_energy": -15.33, 
			 "cosmo_repulsion_energy": 1.23, 
			 "cosmo_total_nonelectrostatic_energy": 5.28, 
			 "SMD_solvation_energy": 0.98 
		},
		"coords": [
			{
				"x": 0.715129279,
				"y": 0.4816614197,
				"z": -1.7071422392,
				"element": "S" 
			},
			{
				"x": 0.5992840712,
				"y": -0.33273653,
				"z": -0.1338316017,
				"element": "C" 
			},
			{
				"x": 1.2864503872,
				"y": -1.4684064804,
				"z": 0.0182356123,
				"element": "N" 
			},
			{
				"x": 1.2356618036,
				"y": -2.1236671967,
				"z": 1.1819896672,
				"element": "N" 
			},
			{
				"x": 0.5042842573,
				"y": -1.636994624,
				"z": 2.1678720925,
				"element": "C" 
			},
			{
				"x": 0.4933080059,
				"y": -2.5571159583,
				"z": 3.6567883457,
				"element": "Cl" 
			},
			{
				"x": -0.2447007449,
				"y": -0.4522578184,
				"z": 2.0864300505,
				"element": "C" 
			},
			{
				"x": -0.1943923623,
				"y": 0.2253693812,
				"z": 0.888226552,
				"element": "C" 
			},
			{
				"x": 1.5433028878,
				"y": -0.4432066861,
				"z": -2.2311656203,
				"element": "H" 
			},
			{
				"x": -0.8278573094,
				"y": -0.1000225153,
				"z": 2.929317585,
				"element": "H" 
			},
			{
				"x": -0.7415702757,
				"y": 1.1497770084,
				"z": 0.7348795562,
				"element": "H" 
			}
		],
		 "valence_orbital": [ 
			{
				"type": "occ",
				"energy": -0.33286,
				"method": "rhf"
			},
			{
				"type": "occ",
				"energy": -0.32374,
				"method": "rhf"
			},
			{
				"type": "occ",
				"energy": -0.31044,
				"method": "rhf"
			},
			{
				"type": "occ",
				"energy": -0.25824,
				"method": "rhf"
			},
			{
				"type": "occ",
				"energy": -0.2514,
				"method": "rhf"
			},
			{
				"type": "unocc",
				"energy": -0.07104,
				"method": "rhf"
			},
			{
				"type": "unocc",
				"energy": -0.04402,
				"method": "rhf"
			},
			{
				"type": "unocc",
				"energy": -0.00069,
				"method": "rhf"
			},
			{
				"type": "unocc",
				"energy": 0.02028,
				"method": "rhf"
			},
			{
				"type": "unocc",
				"energy": 0.0604,
				"method": "rhf"
			}
		],
		"cosmo_sigma_profile": { 
			"-0.025": 0.0,
			"-0.024": 0.0,
			"-0.023": 0.0,
			"-0.022": 0.0,
			"-0.021": 0.0,
			"-0.02": 0.0,
			"-0.019": 0.0,
			"-0.018": 0.0,
			"-0.017": 0.0,
			"-0.016": 0.0,
			"-0.015": 0.0,
			"-0.014": 0.0,
			"-0.013": 0.0,
			"-0.012": 0.261510950299,
			"-0.011": 1.67810012984,
			"-0.01": 4.70391502637,
			"-0.009": 6.84909130891,
			"-0.008": 5.40441542917,
			"-0.007": 3.99909312871,
			"-0.006": 5.26132645832,
			"-0.005": 3.98782816935,
			"-0.004": 5.81400023421,
			"-0.003": 12.9875285984,
			"-0.002": 15.0393067404,
			"-0.001": 12.0347091041,
			"0.0": 9.07017594743,
			"0.001": 10.4701054004,
			"0.002": 11.6943441305,
			"0.003": 13.1650605755,
			"0.004": 9.8410900482,
			"0.005": 6.69457686744,
			"0.006": 4.19133880306,
			"0.007": 3.85108217295,
			"0.008": 2.40591575165,
			"0.009": 1.9385193632,
			"0.01": 1.90590816438,
			"0.011": 2.25804055162,
			"0.012": 3.19771710476,
			"0.013": 1.59268111125,
			"0.014": 1.12961830666,
			"0.015": 0.0,
			"0.016": 0.0,
			"0.017": 0.0,
			"0.018": 0.0,
			"0.019": 0.0,
			"0.02": 0.0,
			"0.021": 0.0,
			"0.022": 0.0,
			"0.023": 0.0,
			"0.024": 0.0,
			"0.025": 0.0
		}
	}
}
