{
	 "smiles": "COC1=C(C=CC(O)=O)C=C(Cl)C=C1", 
	 "Tm": 473.15, 
	 "num_atms": 23, 
	 "gaussian": { 
		 "optdone": 1, 
		 "sigma_profile": "yes", 
		 "theory": "DFT", 
		 "functional": "B3LYP", 
		 "basiset": "6-31G**", 
		 "properties": { 
			 "R2extent": 4864.4641, 
			 "electric_dipole_moment_norm": 7.28276710118, 
			 "electric_quadrupole_moment_norm": 21.205798159, 
			 "total_energy": -1072.33404224, 
			 "HOMO_LUMO_gap": 0.15964, 
			 "cosmo_polarized_energy": -17.76, 
			 "cosmo_cavitation_energy": 29.94, 
			 "cosmo_dispersion_energy": -21.76, 
			 "cosmo_repulsion_energy": 1.72, 
			 "cosmo_total_nonelectrostatic_energy": 9.89, 
			 "SMD_solvation_energy": 6.96 
		},
		"coords": [
			{
				"x": 1.3566753213,
				"y": 0.8171333114,
				"z": 2.0229422995,
				"element": "C" 
			},
			{
				"x": 0.3030572038,
				"y": 0.7627098557,
				"z": 1.0685473381,
				"element": "O" 
			},
			{
				"x": 0.6076484693,
				"y": 0.5201491024,
				"z": -0.2355550546,
				"element": "C" 
			},
			{
				"x": -0.4788651195,
				"y": 0.475692575,
				"z": -1.1517148389,
				"element": "C" 
			},
			{
				"x": -1.8846360581,
				"y": 0.6677302153,
				"z": -0.810014997,
				"element": "C" 
			},
			{
				"x": -2.4746011472,
				"y": 0.9192602023,
				"z": 0.3750023318,
				"element": "C" 
			},
			{
				"x": -3.9523313227,
				"y": 1.0695509163,
				"z": 0.4195105799,
				"element": "C" 
			},
			{
				"x": -4.4769815632,
				"y": 1.3225030782,
				"z": 1.6529345132,
				"element": "O" 
			},
			{
				"x": -4.689344793,
				"y": 0.9840340763,
				"z": -0.5375601255,
				"element": "O" 
			},
			{
				"x": -0.1850945923,
				"y": 0.2260412286,
				"z": -2.5047015664,
				"element": "C" 
			},
			{
				"x": 1.1197431825,
				"y": 0.0285136866,
				"z": -2.9399955403,
				"element": "C" 
			},
			{
				"x": 1.4348880255,
				"y": -0.2799551179,
				"z": -4.640344592,
				"element": "Cl" 
			},
			{
				"x": 2.1769762195,
				"y": 0.0737972716,
				"z": -2.0362913669,
				"element": "C" 
			},
			{
				"x": 1.9158301511,
				"y": 0.3194541381,
				"z": -0.6879195336,
				"element": "C" 
			},
			{
				"x": 2.0647979323,
				"y": 1.6222532302,
				"z": 1.7934352343,
				"element": "H" 
			},
			{
				"x": 1.8947415641,
				"y": -0.1364798851,
				"z": 2.0814692021,
				"element": "H" 
			},
			{
				"x": 0.87984386,
				"y": 1.0204221792,
				"z": 2.9825268019,
				"element": "H" 
			},
			{
				"x": -2.569574516,
				"y": 0.5956092727,
				"z": -1.654151211,
				"element": "H" 
			},
			{
				"x": -1.8997494113,
				"y": 1.0135482858,
				"z": 1.2879700801,
				"element": "H" 
			},
			{
				"x": -3.769792674,
				"y": 1.3616707629,
				"z": 2.3114179941,
				"element": "H" 
			},
			{
				"x": -1.000368716,
				"y": 0.1882174714,
				"z": -3.2192168168,
				"element": "H" 
			},
			{
				"x": 3.1950991079,
				"y": -0.0803443994,
				"z": -2.3758534935,
				"element": "H" 
			},
			{
				"x": 2.7477388762,
				"y": 0.3518885424,
				"z": 0.0041627616,
				"element": "H" 
			}
		],
		 "valence_orbital": [ 
			{
				"type": "occ",
				"energy": -0.31366,
				"method": "rhf"
			},
			{
				"type": "occ",
				"energy": -0.30199,
				"method": "rhf"
			},
			{
				"type": "occ",
				"energy": -0.26508,
				"method": "rhf"
			},
			{
				"type": "occ",
				"energy": -0.25633,
				"method": "rhf"
			},
			{
				"type": "occ",
				"energy": -0.23143,
				"method": "rhf"
			},
			{
				"type": "unocc",
				"energy": -0.07179,
				"method": "rhf"
			},
			{
				"type": "unocc",
				"energy": -0.01588,
				"method": "rhf"
			},
			{
				"type": "unocc",
				"energy": 0.01154,
				"method": "rhf"
			},
			{
				"type": "unocc",
				"energy": 0.02307,
				"method": "rhf"
			},
			{
				"type": "unocc",
				"energy": 0.06157,
				"method": "rhf"
			}
		],
		"cosmo_sigma_profile": { 
			"-0.025": 0.0,
			"-0.024": 0.0,
			"-0.023": 0.0,
			"-0.022": 0.0,
			"-0.021": 0.0,
			"-0.02": 0.0,
			"-0.019": 0.42480092845,
			"-0.018": 1.25689519883,
			"-0.017": 1.04728966469,
			"-0.016": 1.40981538722,
			"-0.015": 0.86161132633,
			"-0.014": 0.505257179366,
			"-0.013": 0.825739455785,
			"-0.012": 1.17154136475,
			"-0.011": 1.24911740935,
			"-0.01": 0.870230606374,
			"-0.009": 1.45866265467,
			"-0.008": 4.88385131134,
			"-0.007": 10.0080663492,
			"-0.006": 14.6481834788,
			"-0.005": 13.9037489164,
			"-0.004": 14.1918911699,
			"-0.003": 12.238496221,
			"-0.002": 10.9754488057,
			"-0.001": 13.0166337127,
			"0.0": 13.9189383113,
			"0.001": 21.5659306157,
			"0.002": 27.998473241,
			"0.003": 19.5684230976,
			"0.004": 14.2606577006,
			"0.005": 10.2915935884,
			"0.006": 2.73367445941,
			"0.007": 1.72131661088,
			"0.008": 3.03533637244,
			"0.009": 2.86428746967,
			"0.01": 3.75294081382,
			"0.011": 5.1474199055,
			"0.012": 5.8492175136,
			"0.013": 3.36685254918,
			"0.014": 0.773927715977,
			"0.015": 0.0,
			"0.016": 0.0,
			"0.017": 0.0,
			"0.018": 0.0,
			"0.019": 0.0,
			"0.02": 0.0,
			"0.021": 0.0,
			"0.022": 0.0,
			"0.023": 0.0,
			"0.024": 0.0,
			"0.025": 0.0
		}
	}
}
