{
	 "smiles": "CCCN", 
	 "Tm": 190.15, 
	 "num_atms": 13, 
	 "gaussian": { 
		 "optdone": 1, 
		 "sigma_profile": "yes", 
		 "theory": "DFT", 
		 "functional": "B3LYP", 
		 "basiset": "6-31G**", 
		 "properties": { 
			 "R2extent": 448.6986, 
			 "electric_dipole_moment_norm": 1.26411630398, 
			 "electric_quadrupole_moment_norm": 5.68282464801, 
			 "total_energy": -174.495762393, 
			 "HOMO_LUMO_gap": 0.30817, 
			 "cosmo_polarized_energy": -4.64, 
			 "cosmo_cavitation_energy": 14.91, 
			 "cosmo_dispersion_energy": -11.34, 
			 "cosmo_repulsion_energy": 1.05, 
			 "cosmo_total_nonelectrostatic_energy": 4.63, 
			 "SMD_solvation_energy": 1.51 
		},
		"coords": [
			{
				"x": -0.2987259243,
				"y": -0.9618379649,
				"z": 0.5463002353,
				"element": "C" 
			},
			{
				"x": 0.5374001234,
				"y": 0.3116270631,
				"z": 0.3773785646,
				"element": "C" 
			},
			{
				"x": 0.8948477807,
				"y": 0.6291598682,
				"z": -1.078993048,
				"element": "C" 
			},
			{
				"x": 1.7583090319,
				"y": -0.4072782466,
				"z": -1.6581150749,
				"element": "N" 
			},
			{
				"x": -0.5712859073,
				"y": -1.1200827336,
				"z": 1.5947328585,
				"element": "H" 
			},
			{
				"x": 0.2532567335,
				"y": -1.8496657086,
				"z": 0.2192388635,
				"element": "H" 
			},
			{
				"x": -1.2287744401,
				"y": -0.9083832327,
				"z": -0.0329412609,
				"element": "H" 
			},
			{
				"x": 1.4679310244,
				"y": 0.2195770086,
				"z": 0.9498712284,
				"element": "H" 
			},
			{
				"x": -0.0132911545,
				"y": 1.165984542,
				"z": 0.7918909534,
				"element": "H" 
			},
			{
				"x": 1.4508239449,
				"y": 1.5739432951,
				"z": -1.1072852246,
				"element": "H" 
			},
			{
				"x": -0.0398127568,
				"y": 0.7996703304,
				"z": -1.6463619062,
				"element": "H" 
			},
			{
				"x": 2.0861102084,
				"y": -0.110971578,
				"z": -2.5739726186,
				"element": "H" 
			},
			{
				"x": 1.2219113359,
				"y": -1.256642643,
				"z": -1.8167435705,
				"element": "H" 
			}
		],
		 "valence_orbital": [ 
			{
				"type": "occ",
				"energy": -0.39651,
				"method": "rhf"
			},
			{
				"type": "occ",
				"energy": -0.33432,
				"method": "rhf"
			},
			{
				"type": "occ",
				"energy": -0.33139,
				"method": "rhf"
			},
			{
				"type": "occ",
				"energy": -0.32726,
				"method": "rhf"
			},
			{
				"type": "occ",
				"energy": -0.22855,
				"method": "rhf"
			},
			{
				"type": "unocc",
				"energy": 0.07962,
				"method": "rhf"
			},
			{
				"type": "unocc",
				"energy": 0.12442,
				"method": "rhf"
			},
			{
				"type": "unocc",
				"energy": 0.13327,
				"method": "rhf"
			},
			{
				"type": "unocc",
				"energy": 0.14798,
				"method": "rhf"
			},
			{
				"type": "unocc",
				"energy": 0.16552,
				"method": "rhf"
			}
		],
		"cosmo_sigma_profile": { 
			"-0.025": 0.0,
			"-0.024": 0.0,
			"-0.023": 0.0,
			"-0.022": 0.0,
			"-0.021": 0.0,
			"-0.02": 0.0,
			"-0.019": 0.0,
			"-0.018": 0.0,
			"-0.017": 0.0,
			"-0.016": 0.0,
			"-0.015": 0.0,
			"-0.014": 0.0,
			"-0.013": 0.0,
			"-0.012": 0.0,
			"-0.011": 0.0,
			"-0.01": 0.228528381369,
			"-0.009": 1.98588524767,
			"-0.008": 2.16723963485,
			"-0.007": 2.93568301924,
			"-0.006": 2.74064455936,
			"-0.005": 3.2919368104,
			"-0.004": 2.7015042385,
			"-0.003": 7.20627311705,
			"-0.002": 14.0903423644,
			"-0.001": 19.53113432,
			"0.0": 19.8237175511,
			"0.001": 16.8807299433,
			"0.002": 7.20875401593,
			"0.003": 1.30224658832,
			"0.004": 1.28843534643,
			"0.005": 0.929970868762,
			"0.006": 0.739183727841,
			"0.007": 0.899844035783,
			"0.008": 0.477679536317,
			"0.009": 0.94137377843,
			"0.01": 0.849867169516,
			"0.011": 0.607630533629,
			"0.012": 0.952416449278,
			"0.013": 0.811387556638,
			"0.014": 0.378948554785,
			"0.015": 0.261515761073,
			"0.016": 0.492395567302,
			"0.017": 1.14388414698,
			"0.018": 0.515440352972,
			"0.019": 0.431495299891,
			"0.02": 0.427592489562,
			"0.021": 0.131479037297,
			"0.022": 0.0,
			"0.023": 0.0,
			"0.024": 0.0,
			"0.025": 0.0
		}
	}
}
