{
	 "smiles": "O=C(CC1=CC=CC=C1)SSC(=O)CC1=CC=CC=C1", 
	 "Tm": 332.15, 
	 "num_atms": 34, 
	 "gaussian": { 
		 "optdone": 1, 
		 "sigma_profile": "yes", 
		 "theory": "DFT", 
		 "functional": "B3LYP", 
		 "basiset": "6-31G**", 
		 "properties": { 
			 "R2extent": 9923.3665, 
			 "electric_dipole_moment_norm": 0.355969338567, 
			 "electric_quadrupole_moment_norm": 8.93019752917, 
			 "total_energy": -1564.97378834, 
			 "HOMO_LUMO_gap": 0.19922, 
			 "cosmo_polarized_energy": -13.97, 
			 "cosmo_cavitation_energy": 43.07, 
			 "cosmo_dispersion_energy": -29.52, 
			 "cosmo_repulsion_energy": 2.24, 
			 "cosmo_total_nonelectrostatic_energy": 15.79, 
			 "SMD_solvation_energy": 7.12 
		},
		"coords": [
			{
				"x": 0.5235975797,
				"y": 1.7954172898,
				"z": 1.2087017239,
				"element": "O" 
			},
			{
				"x": 0.4770301478,
				"y": 2.8693337678,
				"z": 0.6729858124,
				"element": "C" 
			},
			{
				"x": -0.8027703571,
				"y": 3.6669833998,
				"z": 0.424646029,
				"element": "C" 
			},
			{
				"x": -1.738201999,
				"y": 2.9664496985,
				"z": -0.5456510902,
				"element": "C" 
			},
			{
				"x": -2.317110236,
				"y": 1.733560947,
				"z": -0.2149096749,
				"element": "C" 
			},
			{
				"x": -3.1807459782,
				"y": 1.0996803255,
				"z": -1.1071004059,
				"element": "C" 
			},
			{
				"x": -3.4771730934,
				"y": 1.687979706,
				"z": -2.3390918835,
				"element": "C" 
			},
			{
				"x": -2.9010321041,
				"y": 2.9128716825,
				"z": -2.6759770506,
				"element": "C" 
			},
			{
				"x": -2.0338553198,
				"y": 3.5467233709,
				"z": -1.7840097294,
				"element": "C" 
			},
			{
				"x": 1.9591526669,
				"y": 3.7539140486,
				"z": 0.0407860927,
				"element": "S" 
			},
			{
				"x": 3.4996474732,
				"y": 2.4771620069,
				"z": 0.5648079004,
				"element": "S" 
			},
			{
				"x": 3.4356863907,
				"y": 1.2095625001,
				"z": -0.7647430541,
				"element": "C" 
			},
			{
				"x": 2.6220072088,
				"y": 1.2148289672,
				"z": -1.6481482736,
				"element": "O" 
			},
			{
				"x": 4.5340442729,
				"y": 0.1604841369,
				"z": -0.595206235,
				"element": "C" 
			},
			{
				"x": 3.9709429574,
				"y": -1.2171101218,
				"z": -0.2907844237,
				"element": "C" 
			},
			{
				"x": 4.2381449883,
				"y": -1.8330670258,
				"z": 0.9367479583,
				"element": "C" 
			},
			{
				"x": 3.7321754207,
				"y": -3.1035219552,
				"z": 1.218371273,
				"element": "C" 
			},
			{
				"x": 2.9483682931,
				"y": -3.7683008371,
				"z": 0.2752331544,
				"element": "C" 
			},
			{
				"x": 2.6718620418,
				"y": -3.1559762707,
				"z": -0.9496687082,
				"element": "C" 
			},
			{
				"x": 3.1792003685,
				"y": -1.8885802344,
				"z": -1.2324840223,
				"element": "C" 
			},
			{
				"x": -0.5622991419,
				"y": 4.6716656285,
				"z": 0.0647117054,
				"element": "H" 
			},
			{
				"x": -1.2780966897,
				"y": 3.7725821423,
				"z": 1.4076975185,
				"element": "H" 
			},
			{
				"x": -2.0761434877,
				"y": 1.2684494095,
				"z": 0.7357970092,
				"element": "H" 
			},
			{
				"x": -3.6230565594,
				"y": 0.1442996951,
				"z": -0.8395731278,
				"element": "H" 
			},
			{
				"x": -4.1520945116,
				"y": 1.193398821,
				"z": -3.0316555012,
				"element": "H" 
			},
			{
				"x": -3.1228424726,
				"y": 3.376531459,
				"z": -3.6328913101,
				"element": "H" 
			},
			{
				"x": -1.5854119958,
				"y": 4.4999491721,
				"z": -2.0523278975,
				"element": "H" 
			},
			{
				"x": 5.2366254829,
				"y": 0.4663190764,
				"z": 0.1855730654,
				"element": "H" 
			},
			{
				"x": 5.079986949,
				"y": 0.1504588272,
				"z": -1.5466439429,
				"element": "H" 
			},
			{
				"x": 4.8462652793,
				"y": -1.3180094496,
				"z": 1.6760987487,
				"element": "H" 
			},
			{
				"x": 3.9497963122,
				"y": -3.5700803943,
				"z": 2.1748387247,
				"element": "H" 
			},
			{
				"x": 2.5539409647,
				"y": -4.7567287101,
				"z": 0.492516919,
				"element": "H" 
			},
			{
				"x": 2.0592825879,
				"y": -3.6663203163,
				"z": -1.6874040445,
				"element": "H" 
			},
			{
				"x": 2.9515765604,
				"y": -1.4077107635,
				"z": -2.1786432592,
				"element": "H" 
			}
		],
		 "valence_orbital": [ 
			{
				"type": "occ",
				"energy": -0.26223,
				"method": "rhf"
			},
			{
				"type": "occ",
				"energy": -0.25077,
				"method": "rhf"
			},
			{
				"type": "occ",
				"energy": -0.25047,
				"method": "rhf"
			},
			{
				"type": "occ",
				"energy": -0.24282,
				"method": "rhf"
			},
			{
				"type": "occ",
				"energy": -0.24095,
				"method": "rhf"
			},
			{
				"type": "unocc",
				"energy": -0.04173,
				"method": "rhf"
			},
			{
				"type": "unocc",
				"energy": -0.03391,
				"method": "rhf"
			},
			{
				"type": "unocc",
				"energy": -0.02809,
				"method": "rhf"
			},
			{
				"type": "unocc",
				"energy": -0.00496,
				"method": "rhf"
			},
			{
				"type": "unocc",
				"energy": -0.0021,
				"method": "rhf"
			}
		],
		"cosmo_sigma_profile": { 
			"-0.025": 0.0,
			"-0.024": 0.0,
			"-0.023": 0.0,
			"-0.022": 0.0,
			"-0.021": 0.0,
			"-0.02": 0.0,
			"-0.019": 0.0,
			"-0.018": 0.0,
			"-0.017": 0.0,
			"-0.016": 0.0,
			"-0.015": 0.0,
			"-0.014": 0.0,
			"-0.013": 0.0,
			"-0.012": 0.0,
			"-0.011": 0.0,
			"-0.01": 0.0,
			"-0.009": 0.0,
			"-0.008": 4.08690145915,
			"-0.007": 12.9167152566,
			"-0.006": 21.4731038898,
			"-0.005": 27.5560736653,
			"-0.004": 32.4084525018,
			"-0.003": 25.4212995631,
			"-0.002": 20.9457229226,
			"-0.001": 23.9528368836,
			"0.0": 18.5580943047,
			"0.001": 22.4131861475,
			"0.002": 24.2861414809,
			"0.003": 26.328511542,
			"0.004": 27.8140334757,
			"0.005": 25.5521420957,
			"0.006": 11.9799842241,
			"0.007": 5.10989970211,
			"0.008": 4.70017166732,
			"0.009": 6.25154045019,
			"0.01": 6.05174849482,
			"0.011": 0.695882615188,
			"0.012": 0.0,
			"0.013": 0.0,
			"0.014": 0.0,
			"0.015": 0.0,
			"0.016": 0.0,
			"0.017": 0.0,
			"0.018": 0.0,
			"0.019": 0.0,
			"0.02": 0.0,
			"0.021": 0.0,
			"0.022": 0.0,
			"0.023": 0.0,
			"0.024": 0.0,
			"0.025": 0.0
		}
	}
}
