{
	 "smiles": "ClC(=O)C1=CC=C(OC2CCOCC2)C=C1", 
	 "Tm": 311.35, 
	 "num_atms": 29, 
	 "gaussian": { 
		 "optdone": 1, 
		 "sigma_profile": "yes", 
		 "theory": "DFT", 
		 "functional": "B3LYP", 
		 "basiset": "6-31G**", 
		 "properties": { 
			 "R2extent": 6504.4764, 
			 "electric_dipole_moment_norm": 4.64951297234, 
			 "electric_quadrupole_moment_norm": 22.0228511692, 
			 "total_energy": -1150.95932001, 
			 "HOMO_LUMO_gap": 0.18085, 
			 "cosmo_polarized_energy": -10.49, 
			 "cosmo_cavitation_energy": 32.82, 
			 "cosmo_dispersion_energy": -23.95, 
			 "cosmo_repulsion_energy": 1.86, 
			 "cosmo_total_nonelectrostatic_energy": 10.74, 
			 "SMD_solvation_energy": 5.73 
		},
		"coords": [
			{
				"x": -0.2475249907,
				"y": -6.1028117733,
				"z": 1.2962200875,
				"element": "Cl" 
			},
			{
				"x": -1.2921370243,
				"y": -4.7005677859,
				"z": 1.8577960333,
				"element": "C" 
			},
			{
				"x": -1.8683939436,
				"y": -4.8012792617,
				"z": 2.8995435273,
				"element": "O" 
			},
			{
				"x": -1.3261684384,
				"y": -3.5376138448,
				"z": 0.9472051408,
				"element": "C" 
			},
			{
				"x": -0.638809197,
				"y": -3.4686833512,
				"z": -0.2739265108,
				"element": "C" 
			},
			{
				"x": -0.731195983,
				"y": -2.3293469987,
				"z": -1.0654802045,
				"element": "C" 
			},
			{
				"x": -1.5013489765,
				"y": -1.2346454229,
				"z": -0.6452626947,
				"element": "C" 
			},
			{
				"x": -1.6657509789,
				"y": -0.1571685848,
				"z": -1.4691730472,
				"element": "O" 
			},
			{
				"x": -0.8255054687,
				"y": 1.0308309266,
				"z": -1.4402576267,
				"element": "C" 
			},
			{
				"x": 0.6405105671,
				"y": 0.7756093213,
				"z": -1.8365120511,
				"element": "C" 
			},
			{
				"x": 1.5451130699,
				"y": 0.4065321335,
				"z": -0.6537513379,
				"element": "C" 
			},
			{
				"x": 1.4321131552,
				"y": 1.3591578713,
				"z": 0.3958185284,
				"element": "O" 
			},
			{
				"x": 0.114856543,
				"y": 1.3832344837,
				"z": 0.9306420405,
				"element": "C" 
			},
			{
				"x": -0.9040018877,
				"y": 1.8295118652,
				"z": -0.1259640844,
				"element": "C" 
			},
			{
				"x": -2.2130611412,
				"y": -1.3115806917,
				"z": 0.5629635683,
				"element": "C" 
			},
			{
				"x": -2.1207775742,
				"y": -2.4486707209,
				"z": 1.3530142479,
				"element": "C" 
			},
			{
				"x": -0.0401777088,
				"y": -4.3093321125,
				"z": -0.6029384377,
				"element": "H" 
			},
			{
				"x": -0.222542362,
				"y": -2.2793574684,
				"z": -2.0219598942,
				"element": "H" 
			},
			{
				"x": -1.2964107343,
				"y": 1.6222895976,
				"z": -2.2299296996,
				"element": "H" 
			},
			{
				"x": 1.0209049432,
				"y": 1.7087330218,
				"z": -2.2700116483,
				"element": "H" 
			},
			{
				"x": 0.6874617309,
				"y": 0.0150871448,
				"z": -2.6233972615,
				"element": "H" 
			},
			{
				"x": 1.3128906338,
				"y": -0.6005299885,
				"z": -0.2757878727,
				"element": "H" 
			},
			{
				"x": 2.594614233,
				"y": 0.4126463119,
				"z": -0.9627964002,
				"element": "H" 
			},
			{
				"x": 0.1337541065,
				"y": 2.0934891436,
				"z": 1.7626186711,
				"element": "H" 
			},
			{
				"x": -0.144345995,
				"y": 0.3950714207,
				"z": 1.3396466712,
				"element": "H" 
			},
			{
				"x": -1.9247605158,
				"y": 1.7982971537,
				"z": 0.2700499817,
				"element": "H" 
			},
			{
				"x": -0.68977731,
				"y": 2.8759413585,
				"z": -0.37578844,
				"element": "H" 
			},
			{
				"x": -2.8435146876,
				"y": -0.480048091,
				"z": 0.8585322554,
				"element": "H" 
			},
			{
				"x": -2.6636140648,
				"y": -2.5180956579,
				"z": 2.2892864581,
				"element": "H" 
			}
		],
		 "valence_orbital": [ 
			{
				"type": "occ",
				"energy": -0.29231,
				"method": "rhf"
			},
			{
				"type": "occ",
				"energy": -0.28317,
				"method": "rhf"
			},
			{
				"type": "occ",
				"energy": -0.27863,
				"method": "rhf"
			},
			{
				"type": "occ",
				"energy": -0.26258,
				"method": "rhf"
			},
			{
				"type": "occ",
				"energy": -0.25597,
				"method": "rhf"
			},
			{
				"type": "unocc",
				"energy": -0.07512,
				"method": "rhf"
			},
			{
				"type": "unocc",
				"energy": -0.02784,
				"method": "rhf"
			},
			{
				"type": "unocc",
				"energy": 0.01998,
				"method": "rhf"
			},
			{
				"type": "unocc",
				"energy": 0.02637,
				"method": "rhf"
			},
			{
				"type": "unocc",
				"energy": 0.06556,
				"method": "rhf"
			}
		],
		"cosmo_sigma_profile": { 
			"-0.025": 0.0,
			"-0.024": 0.0,
			"-0.023": 0.0,
			"-0.022": 0.0,
			"-0.021": 0.0,
			"-0.02": 0.0,
			"-0.019": 0.0,
			"-0.018": 0.0,
			"-0.017": 0.0,
			"-0.016": 0.0,
			"-0.015": 0.0,
			"-0.014": 0.0,
			"-0.013": 0.0,
			"-0.012": 0.0,
			"-0.011": 0.0,
			"-0.01": 0.0,
			"-0.009": 0.0,
			"-0.008": 0.187090234967,
			"-0.007": 5.27561585778,
			"-0.006": 10.2991305163,
			"-0.005": 18.6964965774,
			"-0.004": 25.1814321253,
			"-0.003": 27.3604645147,
			"-0.002": 30.1640572602,
			"-0.001": 26.4884608219,
			"0.0": 16.9587942729,
			"0.001": 19.2046843008,
			"0.002": 18.7420307511,
			"0.003": 10.1666068101,
			"0.004": 11.027117181,
			"0.005": 9.45671408165,
			"0.006": 6.26273631059,
			"0.007": 5.54068126805,
			"0.008": 5.63094711299,
			"0.009": 6.02176923675,
			"0.01": 2.87468399431,
			"0.011": 2.101561479,
			"0.012": 1.74158824233,
			"0.013": 1.58029531942,
			"0.014": 0.956870353515,
			"0.015": 0.0,
			"0.016": 0.0,
			"0.017": 0.0,
			"0.018": 0.0,
			"0.019": 0.0,
			"0.02": 0.0,
			"0.021": 0.0,
			"0.022": 0.0,
			"0.023": 0.0,
			"0.024": 0.0,
			"0.025": 0.0
		}
	}
}
