{
	 "smiles": "[O-][N+](=O)C1=CC(=C(C=C1)C(Cl)C(Cl)C1=CC(=CC=C1)C(Cl)C(Cl)C1=CC=C(C=C1[N+]([O-])=O)[N+]([O-])=O)[N+]([O-])=O", 
	 "Tm": 372.15, 
	 "num_atms": 52, 
	 "gaussian": { 
		 "optdone": 1, 
		 "sigma_profile": "yes", 
		 "theory": "DFT", 
		 "functional": "B3LYP", 
		 "basiset": "6-31G**", 
		 "properties": { 
			 "R2extent": 20688.5599, 
			 "electric_dipole_moment_norm": 2.55143030083, 
			 "electric_quadrupole_moment_norm": 19.1759892613, 
			 "total_energy": -3507.92427138, 
			 "HOMO_LUMO_gap": 0.14858, 
			 "cosmo_polarized_energy": -28.03, 
			 "cosmo_cavitation_energy": 64.23, 
			 "cosmo_dispersion_energy": -39.1, 
			 "cosmo_repulsion_energy": 2.85, 
			 "cosmo_total_nonelectrostatic_energy": 27.98, 
			 "SMD_solvation_energy": 17.4 
		},
		"coords": [
			{
				"x": 3.7168764036,
				"y": 0.6039221489,
				"z": -2.5463889722,
				"element": "O" 
			},
			{
				"x": 3.1490136473,
				"y": 1.6757798288,
				"z": -2.7537469198,
				"element": "N" 
			},
			{
				"x": 3.7047750017,
				"y": 2.7584582118,
				"z": -2.9097915441,
				"element": "O" 
			},
			{
				"x": 1.6765802052,
				"y": 1.6516149162,
				"z": -2.7978430453,
				"element": "C" 
			},
			{
				"x": 0.9897992743,
				"y": 2.8507110964,
				"z": -2.7095073075,
				"element": "C" 
			},
			{
				"x": -0.4040674136,
				"y": 2.8212985469,
				"z": -2.7030466836,
				"element": "C" 
			},
			{
				"x": -1.1273470439,
				"y": 1.6137903826,
				"z": -2.7795743682,
				"element": "C" 
			},
			{
				"x": -0.3747503639,
				"y": 0.4317372299,
				"z": -2.8852726205,
				"element": "C" 
			},
			{
				"x": 1.0141770655,
				"y": 0.4296873208,
				"z": -2.8971617706,
				"element": "C" 
			},
			{
				"x": -2.6426709354,
				"y": 1.4977002415,
				"z": -2.7021219833,
				"element": "C" 
			},
			{
				"x": -3.2262678146,
				"y": 0.611492445,
				"z": -4.1860525436,
				"element": "Cl" 
			},
			{
				"x": -3.1014523129,
				"y": 0.7669932085,
				"z": -1.4202469462,
				"element": "C" 
			},
			{
				"x": -4.933762795,
				"y": 0.7275123717,
				"z": -1.3800464498,
				"element": "Cl" 
			},
			{
				"x": -2.5985040959,
				"y": 1.3797639497,
				"z": -0.129546735,
				"element": "C" 
			},
			{
				"x": -2.1709085507,
				"y": 0.5324125113,
				"z": 0.8997719658,
				"element": "C" 
			},
			{
				"x": -1.805770263,
				"y": 1.0420824754,
				"z": 2.1525694559,
				"element": "C" 
			},
			{
				"x": -1.8368939441,
				"y": 2.4288420936,
				"z": 2.3517227243,
				"element": "C" 
			},
			{
				"x": -2.2371974265,
				"y": 3.2824157172,
				"z": 1.3236336785,
				"element": "C" 
			},
			{
				"x": -2.6372748475,
				"y": 2.7633949309,
				"z": 0.0950547564,
				"element": "C" 
			},
			{
				"x": -1.4543811845,
				"y": 0.1589345219,
				"z": 3.3352839697,
				"element": "C" 
			},
			{
				"x": -2.4752089321,
				"y": -1.3604248026,
				"z": 3.3613042268,
				"element": "Cl" 
			},
			{
				"x": 0.0207203695,
				"y": -0.2902738254,
				"z": 3.5429430043,
				"element": "C" 
			},
			{
				"x": 1.0156775958,
				"y": 1.197212149,
				"z": 3.9154498586,
				"element": "Cl" 
			},
			{
				"x": 0.6439824835,
				"y": -1.0915031321,
				"z": 2.4142922783,
				"element": "C" 
			},
			{
				"x": 1.1768378188,
				"y": -0.4361677947,
				"z": 1.2935958014,
				"element": "C" 
			},
			{
				"x": 1.7169348415,
				"y": -1.1309307365,
				"z": 0.2165605263,
				"element": "C" 
			},
			{
				"x": 1.6868459775,
				"y": -2.521611668,
				"z": 0.238960765,
				"element": "C" 
			},
			{
				"x": 1.1758756687,
				"y": -3.2230714869,
				"z": 1.3204056762,
				"element": "C" 
			},
			{
				"x": 0.6813536897,
				"y": -2.5013691631,
				"z": 2.4033334925,
				"element": "C" 
			},
			{
				"x": 0.2317939121,
				"y": -3.3378026115,
				"z": 3.5430079396,
				"element": "N" 
			},
			{
				"x": 0.4323218494,
				"y": -2.9197748937,
				"z": 4.6821557469,
				"element": "O" 
			},
			{
				"x": -0.2687730322,
				"y": -4.4217117172,
				"z": 3.2685255385,
				"element": "O" 
			},
			{
				"x": 2.1982005187,
				"y": -3.2777418986,
				"z": -0.9181888445,
				"element": "N" 
			},
			{
				"x": 2.4555140888,
				"y": -2.6392886686,
				"z": -1.9389093736,
				"element": "O" 
			},
			{
				"x": 2.3207556359,
				"y": -4.4917909293,
				"z": -0.7932188954,
				"element": "O" 
			},
			{
				"x": -1.0461265686,
				"y": 4.1525207603,
				"z": -2.5979969085,
				"element": "N" 
			},
			{
				"x": -2.1720216458,
				"y": 4.3042183698,
				"z": -3.0731026084,
				"element": "O" 
			},
			{
				"x": -0.3972780082,
				"y": 5.0386521131,
				"z": -2.0518186378,
				"element": "O" 
			},
			{
				"x": 1.5212443771,
				"y": 3.7895716308,
				"z": -2.6350216485,
				"element": "H" 
			},
			{
				"x": -0.9014313447,
				"y": -0.5112150448,
				"z": -2.9811283448,
				"element": "H" 
			},
			{
				"x": 1.577727859,
				"y": -0.4933773444,
				"z": -2.9715529841,
				"element": "H" 
			},
			{
				"x": -3.109322084,
				"y": 2.4725778632,
				"z": -2.7664446402,
				"element": "H" 
			},
			{
				"x": -2.8058636682,
				"y": -0.2819386974,
				"z": -1.4728231234,
				"element": "H" 
			},
			{
				"x": -2.186082599,
				"y": -0.5416270505,
				"z": 0.7442394254,
				"element": "H" 
			},
			{
				"x": -1.5658608379,
				"y": 2.8411096158,
				"z": 3.318546234,
				"element": "H" 
			},
			{
				"x": -2.2688011327,
				"y": 4.3539711801,
				"z": 1.4931517275,
				"element": "H" 
			},
			{
				"x": -3.0095524531,
				"y": 3.4365578802,
				"z": -0.6707273411,
				"element": "H" 
			},
			{
				"x": -1.7320222438,
				"y": 0.6827028309,
				"z": 4.2505394671,
				"element": "H" 
			},
			{
				"x": 0.0558631695,
				"y": -0.8697615888,
				"z": 4.4589428419,
				"element": "H" 
			},
			{
				"x": 1.1883270719,
				"y": 0.6467673415,
				"z": 1.2845766622,
				"element": "H" 
			},
			{
				"x": 2.1708379419,
				"y": -0.61441668,
				"z": -0.6193232381,
				"element": "H" 
			},
			{
				"x": 1.1668570747,
				"y": -4.3046061496,
				"z": 1.3272367146,
				"element": "H" 
			}
		],
		 "valence_orbital": [ 
			{
				"type": "occ",
				"energy": -0.3132,
				"method": "rhf"
			},
			{
				"type": "occ",
				"energy": -0.30872,
				"method": "rhf"
			},
			{
				"type": "occ",
				"energy": -0.30567,
				"method": "rhf"
			},
			{
				"type": "occ",
				"energy": -0.28638,
				"method": "rhf"
			},
			{
				"type": "occ",
				"energy": -0.281,
				"method": "rhf"
			},
			{
				"type": "unocc",
				"energy": -0.13242,
				"method": "rhf"
			},
			{
				"type": "unocc",
				"energy": -0.12756,
				"method": "rhf"
			},
			{
				"type": "unocc",
				"energy": -0.11803,
				"method": "rhf"
			},
			{
				"type": "unocc",
				"energy": -0.11192,
				"method": "rhf"
			},
			{
				"type": "unocc",
				"energy": -0.06555,
				"method": "rhf"
			}
		],
		"cosmo_sigma_profile": { 
			"-0.025": 0.0,
			"-0.024": 0.0,
			"-0.023": 0.0,
			"-0.022": 0.0,
			"-0.021": 0.0,
			"-0.02": 0.0,
			"-0.019": 0.0,
			"-0.018": 0.0,
			"-0.017": 0.0,
			"-0.016": 0.0,
			"-0.015": 0.0,
			"-0.014": 0.0,
			"-0.013": 0.0,
			"-0.012": 0.0441924933896,
			"-0.011": 0.840933328552,
			"-0.01": 4.06607177455,
			"-0.009": 11.9420821565,
			"-0.008": 16.5660416971,
			"-0.007": 20.6594776019,
			"-0.006": 26.4908039283,
			"-0.005": 27.4281738017,
			"-0.004": 33.7316273192,
			"-0.003": 37.144010174,
			"-0.002": 33.3364921672,
			"-0.001": 31.8987495494,
			"0.0": 29.9312099109,
			"0.001": 32.1716720696,
			"0.002": 32.4818185475,
			"0.003": 35.52968233,
			"0.004": 32.7239297365,
			"0.005": 35.5779617386,
			"0.006": 32.4566795225,
			"0.007": 25.8193110904,
			"0.008": 15.6098771738,
			"0.009": 7.72810623174,
			"0.01": 0.149156726491,
			"0.011": 0.0,
			"0.012": 0.0,
			"0.013": 0.0,
			"0.014": 0.0,
			"0.015": 0.0,
			"0.016": 0.0,
			"0.017": 0.0,
			"0.018": 0.0,
			"0.019": 0.0,
			"0.02": 0.0,
			"0.021": 0.0,
			"0.022": 0.0,
			"0.023": 0.0,
			"0.024": 0.0,
			"0.025": 0.0
		}
	}
}
