{
	 "smiles": "N(C1=CC=CC=C1)C1=NC=CC=N1", 
	 "Tm": 381.15, 
	 "num_atms": 22, 
	 "gaussian": { 
		 "optdone": 1, 
		 "sigma_profile": "yes", 
		 "theory": "DFT", 
		 "functional": "B3LYP", 
		 "basiset": "6-31G**", 
		 "properties": { 
			 "R2extent": 2962.9004, 
			 "electric_dipole_moment_norm": 1.33698056082, 
			 "electric_quadrupole_moment_norm": 14.0327428107, 
			 "total_energy": -550.750589519, 
			 "HOMO_LUMO_gap": 0.16558, 
			 "cosmo_polarized_energy": -8.6, 
			 "cosmo_cavitation_energy": 26.2, 
			 "cosmo_dispersion_energy": -19.84, 
			 "cosmo_repulsion_energy": 1.55, 
			 "cosmo_total_nonelectrostatic_energy": 7.91, 
			 "SMD_solvation_energy": 2.44 
		},
		"coords": [
			{
				"x": 0.0491224142,
				"y": 0.5852625418,
				"z": -0.4763410356,
				"element": "N" 
			},
			{
				"x": -0.8304316289,
				"y": -0.4517093161,
				"z": -0.1266690117,
				"element": "C" 
			},
			{
				"x": -0.4258808522,
				"y": -1.7394979333,
				"z": 0.2620459067,
				"element": "C" 
			},
			{
				"x": -1.3910424955,
				"y": -2.6929474838,
				"z": 0.5883063723,
				"element": "C" 
			},
			{
				"x": -2.7533864274,
				"y": -2.3973960435,
				"z": 0.5377097145,
				"element": "C" 
			},
			{
				"x": -3.1529658343,
				"y": -1.1161640347,
				"z": 0.1509102395,
				"element": "C" 
			},
			{
				"x": -2.204775561,
				"y": -0.1532256623,
				"z": -0.1777867808,
				"element": "C" 
			},
			{
				"x": 1.4173849353,
				"y": 0.6620729271,
				"z": -0.5420121921,
				"element": "C" 
			},
			{
				"x": 1.8696401932,
				"y": 1.8771032277,
				"z": -0.9338156263,
				"element": "N" 
			},
			{
				"x": 3.1896063626,
				"y": 2.0106479996,
				"z": -1.015505182,
				"element": "C" 
			},
			{
				"x": 4.0792389455,
				"y": 0.9739969969,
				"z": -0.7200063858,
				"element": "C" 
			},
			{
				"x": 3.4968349386,
				"y": -0.2271570315,
				"z": -0.3285319464,
				"element": "C" 
			},
			{
				"x": 2.1755289114,
				"y": -0.404054119,
				"z": -0.2332716732,
				"element": "N" 
			},
			{
				"x": -0.3823454625,
				"y": 1.4617641415,
				"z": -0.7359838331,
				"element": "H" 
			},
			{
				"x": 0.6277989971,
				"y": -1.974156993,
				"z": 0.3030949123,
				"element": "H" 
			},
			{
				"x": -1.0632856837,
				"y": -3.684977595,
				"z": 0.8872298478,
				"element": "H" 
			},
			{
				"x": -3.4919045319,
				"y": -3.1504347133,
				"z": 0.7946509512,
				"element": "H" 
			},
			{
				"x": -4.2080123297,
				"y": -0.8614858303,
				"z": 0.1037370499,
				"element": "H" 
			},
			{
				"x": -2.5250910854,
				"y": 0.8421665732,
				"z": -0.47794007,
				"element": "H" 
			},
			{
				"x": 3.552802516,
				"y": 2.9880166805,
				"z": -1.3306423176,
				"element": "H" 
			},
			{
				"x": 5.1530621758,
				"y": 1.0977628291,
				"z": -0.7911880956,
				"element": "H" 
			},
			{
				"x": 4.1104015027,
				"y": -1.0913871617,
				"z": -0.0782908439,
				"element": "H" 
			}
		],
		 "valence_orbital": [ 
			{
				"type": "occ",
				"energy": -0.30958,
				"method": "rhf"
			},
			{
				"type": "occ",
				"energy": -0.26854,
				"method": "rhf"
			},
			{
				"type": "occ",
				"energy": -0.25013,
				"method": "rhf"
			},
			{
				"type": "occ",
				"energy": -0.2449,
				"method": "rhf"
			},
			{
				"type": "occ",
				"energy": -0.20236,
				"method": "rhf"
			},
			{
				"type": "unocc",
				"energy": -0.03678,
				"method": "rhf"
			},
			{
				"type": "unocc",
				"energy": -0.0186,
				"method": "rhf"
			},
			{
				"type": "unocc",
				"energy": 0.00523,
				"method": "rhf"
			},
			{
				"type": "unocc",
				"energy": 0.03298,
				"method": "rhf"
			},
			{
				"type": "unocc",
				"energy": 0.08797,
				"method": "rhf"
			}
		],
		"cosmo_sigma_profile": { 
			"-0.025": 0.0,
			"-0.024": 0.0,
			"-0.023": 0.0,
			"-0.022": 0.0,
			"-0.021": 0.0,
			"-0.02": 0.0,
			"-0.019": 0.0,
			"-0.018": 0.0,
			"-0.017": 0.0,
			"-0.016": 0.0,
			"-0.015": 0.0,
			"-0.014": 0.424914078702,
			"-0.013": 1.11387396199,
			"-0.012": 0.982369832207,
			"-0.011": 1.0409834193,
			"-0.01": 1.06907124511,
			"-0.009": 1.35831509772,
			"-0.008": 1.9337578075,
			"-0.007": 7.74931385219,
			"-0.006": 10.4021795533,
			"-0.005": 15.3226611615,
			"-0.004": 12.8358750617,
			"-0.003": 13.1991014619,
			"-0.002": 11.7926505097,
			"-0.001": 14.1596103714,
			"0.0": 15.0499036511,
			"0.001": 18.6187896399,
			"0.002": 18.874050236,
			"0.003": 13.1211335532,
			"0.004": 13.8434689652,
			"0.005": 11.9765827552,
			"0.006": 13.5415977199,
			"0.007": 5.38763662105,
			"0.008": 1.92493627716,
			"0.009": 1.3058295491,
			"0.01": 1.15481108969,
			"0.011": 0.858785330599,
			"0.012": 1.04217433241,
			"0.013": 0.364696893167,
			"0.014": 0.589911125025,
			"0.015": 0.0,
			"0.016": 0.0,
			"0.017": 0.0,
			"0.018": 0.0,
			"0.019": 0.0,
			"0.02": 0.0,
			"0.021": 0.0,
			"0.022": 0.0,
			"0.023": 0.0,
			"0.024": 0.0,
			"0.025": 0.0
		}
	}
}
