{
	 "smiles": "OC1=CC=C(Cl)C2=CC=CC=C12", 
	 "Tm": 391.15, 
	 "num_atms": 19, 
	 "gaussian": { 
		 "optdone": 1, 
		 "sigma_profile": "yes", 
		 "theory": "DFT", 
		 "functional": "B3LYP", 
		 "basiset": "6-31G**", 
		 "properties": { 
			 "R2extent": 2710.5402, 
			 "electric_dipole_moment_norm": 2.52980969245, 
			 "electric_quadrupole_moment_norm": 5.81027934096, 
			 "total_energy": -920.703141285, 
			 "HOMO_LUMO_gap": 0.16109, 
			 "cosmo_polarized_energy": -8.61, 
			 "cosmo_cavitation_energy": 24.22, 
			 "cosmo_dispersion_energy": -18.61, 
			 "cosmo_repulsion_energy": 1.45, 
			 "cosmo_total_nonelectrostatic_energy": 7.05, 
			 "SMD_solvation_energy": 3.88 
		},
		"coords": [
			{
				"x": 1.9333038974,
				"y": 3.0148083562,
				"z": -0.3365037083,
				"element": "O" 
			},
			{
				"x": 1.5139572459,
				"y": 1.8368790561,
				"z": -0.8840858627,
				"element": "C" 
			},
			{
				"x": 2.3243070108,
				"y": 1.2600494302,
				"z": -1.8394255573,
				"element": "C" 
			},
			{
				"x": 1.9582996134,
				"y": 0.0427373281,
				"z": -2.4464069335,
				"element": "C" 
			},
			{
				"x": 0.792798525,
				"y": -0.5926574147,
				"z": -2.0854113239,
				"element": "C" 
			},
			{
				"x": 0.3942376749,
				"y": -2.1244350359,
				"z": -2.8622037834,
				"element": "Cl" 
			},
			{
				"x": -0.0845751653,
				"y": -0.0375778252,
				"z": -1.1103225656,
				"element": "C" 
			},
			{
				"x": -1.3005328512,
				"y": -0.6535429464,
				"z": -0.7095034964,
				"element": "C" 
			},
			{
				"x": -2.1234007903,
				"y": -0.0666451143,
				"z": 0.2246558982,
				"element": "C" 
			},
			{
				"x": -1.7773579605,
				"y": 1.1759238034,
				"z": 0.8020038236,
				"element": "C" 
			},
			{
				"x": -0.604516781,
				"y": 1.7983136232,
				"z": 0.4396055708,
				"element": "C" 
			},
			{
				"x": 0.2810482487,
				"y": 1.2164816925,
				"z": -0.5068722813,
				"element": "C" 
			},
			{
				"x": 1.4124134633,
				"y": 3.2175784307,
				"z": 0.4496608158,
				"element": "H" 
			},
			{
				"x": 3.2516553906,
				"y": 1.7535205827,
				"z": -2.1083937348,
				"element": "H" 
			},
			{
				"x": 2.6054470846,
				"y": -0.4019396796,
				"z": -3.1941341747,
				"element": "H" 
			},
			{
				"x": -1.573692443,
				"y": -1.6013183217,
				"z": -1.158330805,
				"element": "H" 
			},
			{
				"x": -3.0479978804,
				"y": -0.5568665772,
				"z": 0.5142782631,
				"element": "H" 
			},
			{
				"x": -2.4397135262,
				"y": 1.6422991712,
				"z": 1.524877748,
				"element": "H" 
			},
			{
				"x": -0.3779807568,
				"y": 2.7678914407,
				"z": 0.8774121074,
				"element": "H" 
			}
		],
		 "valence_orbital": [ 
			{
				"type": "occ",
				"energy": -0.30952,
				"method": "rhf"
			},
			{
				"type": "occ",
				"energy": -0.30477,
				"method": "rhf"
			},
			{
				"type": "occ",
				"energy": -0.27353,
				"method": "rhf"
			},
			{
				"type": "occ",
				"energy": -0.25581,
				"method": "rhf"
			},
			{
				"type": "occ",
				"energy": -0.20736,
				"method": "rhf"
			},
			{
				"type": "unocc",
				"energy": -0.04627,
				"method": "rhf"
			},
			{
				"type": "unocc",
				"energy": -0.02102,
				"method": "rhf"
			},
			{
				"type": "unocc",
				"energy": 0.03153,
				"method": "rhf"
			},
			{
				"type": "unocc",
				"energy": 0.03458,
				"method": "rhf"
			},
			{
				"type": "unocc",
				"energy": 0.05504,
				"method": "rhf"
			}
		],
		"cosmo_sigma_profile": { 
			"-0.025": 0.0,
			"-0.024": 0.0,
			"-0.023": 0.0,
			"-0.022": 0.0,
			"-0.021": 0.0,
			"-0.02": 0.0,
			"-0.019": 0.0,
			"-0.018": 0.404677059428,
			"-0.017": 1.02506274994,
			"-0.016": 0.832169673717,
			"-0.015": 1.23407228212,
			"-0.014": 1.06530584109,
			"-0.013": 0.613849768383,
			"-0.012": 0.62323608797,
			"-0.011": 1.63203079082,
			"-0.01": 0.922672617411,
			"-0.009": 1.09438169732,
			"-0.008": 1.2298647528,
			"-0.007": 4.21493044687,
			"-0.006": 10.2888851809,
			"-0.005": 11.1425560129,
			"-0.004": 11.1274640506,
			"-0.003": 8.02479728113,
			"-0.002": 9.69819097407,
			"-0.001": 9.42179883507,
			"0.0": 11.6954487268,
			"0.001": 14.5045882079,
			"0.002": 23.8771684115,
			"0.003": 29.2016450333,
			"0.004": 23.4715575358,
			"0.005": 9.9951728196,
			"0.006": 2.00537328257,
			"0.007": 1.93719766904,
			"0.008": 1.3304996721,
			"0.009": 1.24920370926,
			"0.01": 1.72118490258,
			"0.011": 1.51997203092,
			"0.012": 0.0,
			"0.013": 0.0,
			"0.014": 0.0,
			"0.015": 0.0,
			"0.016": 0.0,
			"0.017": 0.0,
			"0.018": 0.0,
			"0.019": 0.0,
			"0.02": 0.0,
			"0.021": 0.0,
			"0.022": 0.0,
			"0.023": 0.0,
			"0.024": 0.0,
			"0.025": 0.0
		}
	}
}
