{
	 "smiles": "N#CC=CC1=CC=CC=C1", 
	 "Tm": 293.65, 
	 "num_atms": 17, 
	 "gaussian": { 
		 "optdone": 1, 
		 "sigma_profile": "yes", 
		 "theory": "DFT", 
		 "functional": "B3LYP", 
		 "basiset": "6-31G**", 
		 "properties": { 
			 "R2extent": 2035.5941, 
			 "electric_dipole_moment_norm": 5.32564051641, 
			 "electric_quadrupole_moment_norm": 16.7393162426, 
			 "total_energy": -401.896446357, 
			 "HOMO_LUMO_gap": 0.16796, 
			 "cosmo_polarized_energy": -10.3, 
			 "cosmo_cavitation_energy": 22.63, 
			 "cosmo_dispersion_energy": -16.01, 
			 "cosmo_repulsion_energy": 1.29, 
			 "cosmo_total_nonelectrostatic_energy": 7.91, 
			 "SMD_solvation_energy": 5.52 
		},
		"coords": [
			{
				"x": 3.8983496375,
				"y": -1.6280475564,
				"z": -1.9230779634,
				"element": "N" 
			},
			{
				"x": 2.8454381813,
				"y": -1.2725373541,
				"z": -1.5736356186,
				"element": "C" 
			},
			{
				"x": 1.5487134088,
				"y": -0.8593025735,
				"z": -1.1537870248,
				"element": "C" 
			},
			{
				"x": 1.3255462531,
				"y": 0.3490054523,
				"z": -0.5932517787,
				"element": "C" 
			},
			{
				"x": 0.0460226693,
				"y": 0.8818202903,
				"z": -0.1255688292,
				"element": "C" 
			},
			{
				"x": -1.1655022358,
				"y": 0.1674290803,
				"z": -0.2054447326,
				"element": "C" 
			},
			{
				"x": -2.3509872416,
				"y": 0.7282668794,
				"z": 0.2566998232,
				"element": "C" 
			},
			{
				"x": -2.3565911091,
				"y": 2.0137662188,
				"z": 0.8089682683,
				"element": "C" 
			},
			{
				"x": -1.1651465034,
				"y": 2.7347940493,
				"z": 0.8953880942,
				"element": "C" 
			},
			{
				"x": 0.023059301,
				"y": 2.1732620045,
				"z": 0.4325157227,
				"element": "C" 
			},
			{
				"x": 0.7498618001,
				"y": -1.577896868,
				"z": -1.3133270692,
				"element": "H" 
			},
			{
				"x": 2.1800873548,
				"y": 1.011083739,
				"z": -0.4686976951,
				"element": "H" 
			},
			{
				"x": -1.1824517956,
				"y": -0.8312664714,
				"z": -0.6306189398,
				"element": "H" 
			},
			{
				"x": -3.2758178096,
				"y": 0.1632454066,
				"z": 0.1873377529,
				"element": "H" 
			},
			{
				"x": -3.2849267529,
				"y": 2.4474893305,
				"z": 1.1685743668,
				"element": "H" 
			},
			{
				"x": -1.1602661725,
				"y": 3.7331307878,
				"z": 1.3225155915,
				"element": "H" 
			},
			{
				"x": 0.9498110145,
				"y": 2.7369575845,
				"z": 0.5010100316,
				"element": "H" 
			}
		],
		 "valence_orbital": [ 
			{
				"type": "occ",
				"energy": -0.35345,
				"method": "rhf"
			},
			{
				"type": "occ",
				"energy": -0.32507,
				"method": "rhf"
			},
			{
				"type": "occ",
				"energy": -0.30881,
				"method": "rhf"
			},
			{
				"type": "occ",
				"energy": -0.27034,
				"method": "rhf"
			},
			{
				"type": "occ",
				"energy": -0.24278,
				"method": "rhf"
			},
			{
				"type": "unocc",
				"energy": -0.07482,
				"method": "rhf"
			},
			{
				"type": "unocc",
				"energy": -0.01916,
				"method": "rhf"
			},
			{
				"type": "unocc",
				"energy": 0.01919,
				"method": "rhf"
			},
			{
				"type": "unocc",
				"energy": 0.0352,
				"method": "rhf"
			},
			{
				"type": "unocc",
				"energy": 0.07845,
				"method": "rhf"
			}
		],
		"cosmo_sigma_profile": { 
			"-0.025": 0.0,
			"-0.024": 0.0,
			"-0.023": 0.0,
			"-0.022": 0.0,
			"-0.021": 0.0,
			"-0.02": 0.0,
			"-0.019": 0.0,
			"-0.018": 0.0,
			"-0.017": 0.0,
			"-0.016": 0.0,
			"-0.015": 0.0,
			"-0.014": 0.0,
			"-0.013": 0.0,
			"-0.012": 0.0,
			"-0.011": 0.0619571687516,
			"-0.01": 1.36428162139,
			"-0.009": 3.0499643563,
			"-0.008": 5.28317583743,
			"-0.007": 6.7617290155,
			"-0.006": 12.742431229,
			"-0.005": 13.2010199851,
			"-0.004": 13.2916916297,
			"-0.003": 10.7997871108,
			"-0.002": 9.15613593273,
			"-0.001": 10.9334867473,
			"0.0": 13.9128290597,
			"0.001": 13.8307805564,
			"0.002": 14.4339695472,
			"0.003": 11.2681957163,
			"0.004": 14.5043487036,
			"0.005": 4.72229118494,
			"0.006": 2.85298774798,
			"0.007": 2.22819344146,
			"0.008": 3.56885881284,
			"0.009": 3.40275478316,
			"0.01": 3.36860398402,
			"0.011": 3.06345768939,
			"0.012": 2.72621258928,
			"0.013": 2.09081572239,
			"0.014": 0.596594785379,
			"0.015": 0.0,
			"0.016": 0.0,
			"0.017": 0.0,
			"0.018": 0.0,
			"0.019": 0.0,
			"0.02": 0.0,
			"0.021": 0.0,
			"0.022": 0.0,
			"0.023": 0.0,
			"0.024": 0.0,
			"0.025": 0.0
		}
	}
}
