{
	 "smiles": "ClS(=O)(=O)C1=CC2=C(NC(=O)NC2=O)C=C1", 
	 "Tm": 546.15, 
	 "num_atms": 21, 
	 "gaussian": { 
		 "optdone": 1, 
		 "sigma_profile": "yes", 
		 "theory": "DFT", 
		 "functional": "B3LYP", 
		 "basiset": "6-31G**", 
		 "properties": { 
			 "R2extent": 5596.499, 
			 "electric_dipole_moment_norm": 5.21012181144, 
			 "electric_quadrupole_moment_norm": 19.5999971355, 
			 "total_energy": -1576.62763154, 
			 "HOMO_LUMO_gap": 0.17524, 
			 "cosmo_polarized_energy": -22.26, 
			 "cosmo_cavitation_energy": 30.18, 
			 "cosmo_dispersion_energy": -22.76, 
			 "cosmo_repulsion_energy": 1.71, 
			 "cosmo_total_nonelectrostatic_energy": 9.14, 
			 "SMD_solvation_energy": 5.25 
		},
		"coords": [
			{
				"x": -3.0718973609,
				"y": 3.1640080459,
				"z": -1.8093771848,
				"element": "Cl" 
			},
			{
				"x": -2.1712665613,
				"y": 2.9529534475,
				"z": 0.1130389152,
				"element": "S" 
			},
			{
				"x": -1.3456219712,
				"y": 4.1392461374,
				"z": 0.3028751964,
				"element": "O" 
			},
			{
				"x": -3.2437396034,
				"y": 2.5873752887,
				"z": 1.0277720044,
				"element": "O" 
			},
			{
				"x": -1.1097524619,
				"y": 1.5456131958,
				"z": -0.1467479377,
				"element": "C" 
			},
			{
				"x": -1.5918066381,
				"y": 0.2712062067,
				"z": 0.1217146977,
				"element": "C" 
			},
			{
				"x": -0.7474675788,
				"y": -0.8227350325,
				"z": -0.0718388467,
				"element": "C" 
			},
			{
				"x": 0.5703171293,
				"y": -0.6270931917,
				"z": -0.5341265081,
				"element": "C" 
			},
			{
				"x": 1.3838366117,
				"y": -1.7277298355,
				"z": -0.7167474969,
				"element": "N" 
			},
			{
				"x": 1.0145880589,
				"y": -3.0480448254,
				"z": -0.4794378172,
				"element": "C" 
			},
			{
				"x": 1.7699293598,
				"y": -3.9822332129,
				"z": -0.6568340696,
				"element": "O" 
			},
			{
				"x": -0.2914590029,
				"y": -3.1903966593,
				"z": -0.0235003652,
				"element": "N" 
			},
			{
				"x": -1.2378716366,
				"y": -2.1898516771,
				"z": 0.2135916046,
				"element": "C" 
			},
			{
				"x": -2.3551274312,
				"y": -2.4560901797,
				"z": 0.6172574435,
				"element": "O" 
			},
			{
				"x": 1.0378875795,
				"y": 0.6735669607,
				"z": -0.7981386283,
				"element": "C" 
			},
			{
				"x": 0.1988178829,
				"y": 1.75860194,
				"z": -0.6056988094,
				"element": "C" 
			},
			{
				"x": -2.5997887534,
				"y": 0.1013019217,
				"z": 0.4842363202,
				"element": "H" 
			},
			{
				"x": 2.3325165375,
				"y": -1.6150473531,
				"z": -1.0476061542,
				"element": "H" 
			},
			{
				"x": -0.5859245333,
				"y": -4.1429290273,
				"z": 0.1580921778,
				"element": "H" 
			},
			{
				"x": 2.0550030817,
				"y": 0.8238878176,
				"z": -1.1468301598,
				"element": "H" 
			},
			{
				"x": 0.5476272916,
				"y": 2.7675900327,
				"z": -0.7953943818,
				"element": "H" 
			}
		],
		 "valence_orbital": [ 
			{
				"type": "occ",
				"energy": -0.3188,
				"method": "rhf"
			},
			{
				"type": "occ",
				"energy": -0.31193,
				"method": "rhf"
			},
			{
				"type": "occ",
				"energy": -0.3075,
				"method": "rhf"
			},
			{
				"type": "occ",
				"energy": -0.29184,
				"method": "rhf"
			},
			{
				"type": "occ",
				"energy": -0.27275,
				"method": "rhf"
			},
			{
				"type": "unocc",
				"energy": -0.09751,
				"method": "rhf"
			},
			{
				"type": "unocc",
				"energy": -0.08444,
				"method": "rhf"
			},
			{
				"type": "unocc",
				"energy": -0.05646,
				"method": "rhf"
			},
			{
				"type": "unocc",
				"energy": -0.00758,
				"method": "rhf"
			},
			{
				"type": "unocc",
				"energy": 0.02495,
				"method": "rhf"
			}
		],
		"cosmo_sigma_profile": { 
			"-0.025": 0.0,
			"-0.024": 0.0,
			"-0.023": 0.0,
			"-0.022": 0.0,
			"-0.021": 0.0,
			"-0.02": 0.0,
			"-0.019": 0.0,
			"-0.018": 0.0869832251378,
			"-0.017": 1.77246636115,
			"-0.016": 2.10434331887,
			"-0.015": 2.37239064527,
			"-0.014": 2.29874110136,
			"-0.013": 2.0908636686,
			"-0.012": 1.92854481414,
			"-0.011": 1.92121618227,
			"-0.01": 2.46957740713,
			"-0.009": 5.29709636526,
			"-0.008": 6.35238955084,
			"-0.007": 7.17967217773,
			"-0.006": 9.24950001211,
			"-0.005": 9.88270130854,
			"-0.004": 10.9082800561,
			"-0.003": 18.2704233936,
			"-0.002": 21.2353239286,
			"-0.001": 19.2106163553,
			"0.0": 13.6417955702,
			"0.001": 9.91159453559,
			"0.002": 11.9636986009,
			"0.003": 15.9544289585,
			"0.004": 9.71662349993,
			"0.005": 6.03469690403,
			"0.006": 5.76697177664,
			"0.007": 8.11335150752,
			"0.008": 12.25336655,
			"0.009": 6.69472895561,
			"0.01": 3.40018917005,
			"0.011": 8.51533279462,
			"0.012": 8.53475368866,
			"0.013": 0.660074142766,
			"0.014": 0.0,
			"0.015": 0.0,
			"0.016": 0.0,
			"0.017": 0.0,
			"0.018": 0.0,
			"0.019": 0.0,
			"0.02": 0.0,
			"0.021": 0.0,
			"0.022": 0.0,
			"0.023": 0.0,
			"0.024": 0.0,
			"0.025": 0.0
		}
	}
}
