{
	 "smiles": "FC(F)(F)C1=C(C=NN1C1=CC=C(Cl)C=C1)C(Cl)=O", 
	 "Tm": 325.15, 
	 "num_atms": 24, 
	 "gaussian": { 
		 "optdone": 1, 
		 "sigma_profile": "yes", 
		 "theory": "DFT", 
		 "functional": "B3LYP", 
		 "basiset": "6-31G**", 
		 "properties": { 
			 "R2extent": 8243.3491, 
			 "electric_dipole_moment_norm": 3.16838812963, 
			 "electric_quadrupole_moment_norm": 15.5201226519, 
			 "total_energy": -1826.79452209, 
			 "HOMO_LUMO_gap": 0.17568, 
			 "cosmo_polarized_energy": -8.82, 
			 "cosmo_cavitation_energy": 34.45, 
			 "cosmo_dispersion_energy": -24.51, 
			 "cosmo_repulsion_energy": 1.83, 
			 "cosmo_total_nonelectrostatic_energy": 11.77, 
			 "SMD_solvation_energy": 6.41 
		},
		"coords": [
			{
				"x": -0.4582585831,
				"y": 1.9666208612,
				"z": -2.3026604282,
				"element": "F" 
			},
			{
				"x": -0.6531143353,
				"y": 0.6357568049,
				"z": -2.1914387097,
				"element": "C" 
			},
			{
				"x": -0.7053216859,
				"y": 0.1356630056,
				"z": -3.4287411838,
				"element": "F" 
			},
			{
				"x": -1.8607996453,
				"y": 0.4508598243,
				"z": -1.6113812045,
				"element": "F" 
			},
			{
				"x": 0.4470088619,
				"y": -0.0071490162,
				"z": -1.3848496152,
				"element": "C" 
			},
			{
				"x": 1.0387004378,
				"y": -1.2703225479,
				"z": -1.515876652,
				"element": "C" 
			},
			{
				"x": 2.0902631034,
				"y": -1.264503203,
				"z": -0.5666797492,
				"element": "C" 
			},
			{
				"x": 2.1369094096,
				"y": -0.1298200255,
				"z": 0.1082029167,
				"element": "N" 
			},
			{
				"x": 1.1265345433,
				"y": 0.6340437749,
				"z": -0.3927312626,
				"element": "N" 
			},
			{
				"x": 0.9146245596,
				"y": 1.9186658779,
				"z": 0.20575211,
				"element": "C" 
			},
			{
				"x": 2.0271004311,
				"y": 2.7232834687,
				"z": 0.4592398843,
				"element": "C" 
			},
			{
				"x": 1.8577267702,
				"y": 3.9560463345,
				"z": 1.0834590406,
				"element": "C" 
			},
			{
				"x": 0.5747894436,
				"y": 4.3689706553,
				"z": 1.4462840527,
				"element": "C" 
			},
			{
				"x": 0.3582457606,
				"y": 5.9223124667,
				"z": 2.2275481826,
				"element": "Cl" 
			},
			{
				"x": -0.5375732745,
				"y": 3.5628281552,
				"z": 1.2029297788,
				"element": "C" 
			},
			{
				"x": -0.3651776312,
				"y": 2.3253355647,
				"z": 0.5874680106,
				"element": "C" 
			},
			{
				"x": 0.605637138,
				"y": -2.3766460348,
				"z": -2.3698652951,
				"element": "C" 
			},
			{
				"x": 1.8505291883,
				"y": -3.7181462813,
				"z": -2.46100153,
				"element": "Cl" 
			},
			{
				"x": -0.4253044891,
				"y": -2.4919277015,
				"z": -2.9580079256,
				"element": "O" 
			},
			{
				"x": 2.7912613088,
				"y": -2.057891969,
				"z": -0.3535925524,
				"element": "H" 
			},
			{
				"x": 3.0137143478,
				"y": 2.3774139022,
				"z": 0.1746946669,
				"element": "H" 
			},
			{
				"x": 2.7118462431,
				"y": 4.5925670136,
				"z": 1.2838477285,
				"element": "H" 
			},
			{
				"x": -1.5255932242,
				"y": 3.8925445574,
				"z": 1.5025970934,
				"element": "H" 
			},
			{
				"x": -1.2211486785,
				"y": 1.6852945121,
				"z": 0.4095026434,
				"element": "H" 
			}
		],
		 "valence_orbital": [ 
			{
				"type": "occ",
				"energy": -0.31053,
				"method": "rhf"
			},
			{
				"type": "occ",
				"energy": -0.30233,
				"method": "rhf"
			},
			{
				"type": "occ",
				"energy": -0.2975,
				"method": "rhf"
			},
			{
				"type": "occ",
				"energy": -0.28896,
				"method": "rhf"
			},
			{
				"type": "occ",
				"energy": -0.26192,
				"method": "rhf"
			},
			{
				"type": "unocc",
				"energy": -0.08624,
				"method": "rhf"
			},
			{
				"type": "unocc",
				"energy": -0.04446,
				"method": "rhf"
			},
			{
				"type": "unocc",
				"energy": -0.03882,
				"method": "rhf"
			},
			{
				"type": "unocc",
				"energy": -0.0153,
				"method": "rhf"
			},
			{
				"type": "unocc",
				"energy": 0.00926,
				"method": "rhf"
			}
		],
		"cosmo_sigma_profile": { 
			"-0.025": 0.0,
			"-0.024": 0.0,
			"-0.023": 0.0,
			"-0.022": 0.0,
			"-0.021": 0.0,
			"-0.02": 0.0,
			"-0.019": 0.0,
			"-0.018": 0.0,
			"-0.017": 0.0,
			"-0.016": 0.0,
			"-0.015": 0.0,
			"-0.014": 0.0,
			"-0.013": 0.0,
			"-0.012": 0.0,
			"-0.011": 0.0,
			"-0.01": 0.433675789828,
			"-0.009": 1.70307528584,
			"-0.008": 6.96499618247,
			"-0.007": 10.6331681093,
			"-0.006": 9.74701607478,
			"-0.005": 13.8252833511,
			"-0.004": 14.8452759281,
			"-0.003": 16.3694795163,
			"-0.002": 18.0261696568,
			"-0.001": 20.7984484896,
			"0.0": 24.0837026913,
			"0.001": 41.6021729496,
			"0.002": 39.1428632031,
			"0.003": 17.517146238,
			"0.004": 21.2181802098,
			"0.005": 7.96686316416,
			"0.006": 4.4920420518,
			"0.007": 4.15869860863,
			"0.008": 5.05013976535,
			"0.009": 2.52087650064,
			"0.01": 1.08264241035,
			"0.011": 0.704155492368,
			"0.012": 0.618814972817,
			"0.013": 0.0,
			"0.014": 0.0,
			"0.015": 0.0,
			"0.016": 0.0,
			"0.017": 0.0,
			"0.018": 0.0,
			"0.019": 0.0,
			"0.02": 0.0,
			"0.021": 0.0,
			"0.022": 0.0,
			"0.023": 0.0,
			"0.024": 0.0,
			"0.025": 0.0
		}
	}
}
