{
	 "smiles": "ClC(Cl)(Cl)SN1C(=O)C2=CC=CC=C2C1=O", 
	 "Tm": 451.15, 
	 "num_atms": 20, 
	 "gaussian": { 
		 "optdone": 1, 
		 "sigma_profile": "yes", 
		 "theory": "DFT", 
		 "functional": "B3LYP", 
		 "basiset": "6-31G**", 
		 "properties": { 
			 "R2extent": 7798.1179, 
			 "electric_dipole_moment_norm": 5.02975183682, 
			 "electric_quadrupole_moment_norm": 8.68015844959, 
			 "total_energy": -2329.30986774, 
			 "HOMO_LUMO_gap": 0.1746, 
			 "cosmo_polarized_energy": -11.38, 
			 "cosmo_cavitation_energy": 32.49, 
			 "cosmo_dispersion_energy": -23.48, 
			 "cosmo_repulsion_energy": 1.77, 
			 "cosmo_total_nonelectrostatic_energy": 10.78, 
			 "SMD_solvation_energy": 5.34 
		},
		"coords": [
			{
				"x": -1.005098436,
				"y": 1.2072753747,
				"z": -5.9032689196,
				"element": "Cl" 
			},
			{
				"x": -0.915092681,
				"y": 0.2621846559,
				"z": -4.3704889435,
				"element": "C" 
			},
			{
				"x": -2.4051603607,
				"y": -0.7183606351,
				"z": -4.1681091077,
				"element": "Cl" 
			},
			{
				"x": 0.4947544702,
				"y": -0.8480520106,
				"z": -4.4180408826,
				"element": "Cl" 
			},
			{
				"x": -0.7454551163,
				"y": 1.5936160184,
				"z": -3.0950182926,
				"element": "S" 
			},
			{
				"x": -0.6579109764,
				"y": 0.7185027274,
				"z": -1.6430653593,
				"element": "N" 
			},
			{
				"x": -1.7909948443,
				"y": 0.4445184837,
				"z": -0.8009751804,
				"element": "C" 
			},
			{
				"x": -2.9381524507,
				"y": 0.7163291257,
				"z": -1.0550360274,
				"element": "O" 
			},
			{
				"x": -1.2220147413,
				"y": -0.2081130586,
				"z": 0.4079916391,
				"element": "C" 
			},
			{
				"x": -1.8760743432,
				"y": -0.7012217468,
				"z": 1.5300550229,
				"element": "C" 
			},
			{
				"x": -1.0866889496,
				"y": -1.2667576426,
				"z": 2.5378668567,
				"element": "C" 
			},
			{
				"x": 0.3091189012,
				"y": -1.3281199626,
				"z": 2.4166778382,
				"element": "C" 
			},
			{
				"x": 0.959576281,
				"y": -0.825892575,
				"z": 1.2838426856,
				"element": "C" 
			},
			{
				"x": 0.1677144651,
				"y": -0.2692253938,
				"z": 0.2873247068,
				"element": "C" 
			},
			{
				"x": 0.5749085678,
				"y": 0.340411659,
				"z": -1.0064197508,
				"element": "C" 
			},
			{
				"x": 1.6805176538,
				"y": 0.5130366758,
				"z": -1.4561137372,
				"element": "O" 
			},
			{
				"x": -2.9564493904,
				"y": -0.6457761588,
				"z": 1.6128691642,
				"element": "H" 
			},
			{
				"x": -1.5606418372,
				"y": -1.6646287537,
				"z": 3.4300182741,
				"element": "H" 
			},
			{
				"x": 0.8929961909,
				"y": -1.772504052,
				"z": 3.2169761407,
				"element": "H" 
			},
			{
				"x": 2.0387475969,
				"y": -0.8654227309,
				"z": 1.1791138726,
				"element": "H" 
			}
		],
		 "valence_orbital": [ 
			{
				"type": "occ",
				"energy": -0.30043,
				"method": "rhf"
			},
			{
				"type": "occ",
				"energy": -0.29093,
				"method": "rhf"
			},
			{
				"type": "occ",
				"energy": -0.28831,
				"method": "rhf"
			},
			{
				"type": "occ",
				"energy": -0.28749,
				"method": "rhf"
			},
			{
				"type": "occ",
				"energy": -0.27055,
				"method": "rhf"
			},
			{
				"type": "unocc",
				"energy": -0.09595,
				"method": "rhf"
			},
			{
				"type": "unocc",
				"energy": -0.06676,
				"method": "rhf"
			},
			{
				"type": "unocc",
				"energy": -0.04996,
				"method": "rhf"
			},
			{
				"type": "unocc",
				"energy": -0.02789,
				"method": "rhf"
			},
			{
				"type": "unocc",
				"energy": -0.00197,
				"method": "rhf"
			}
		],
		"cosmo_sigma_profile": { 
			"-0.025": 0.0,
			"-0.024": 0.0,
			"-0.023": 0.0,
			"-0.022": 0.0,
			"-0.021": 0.0,
			"-0.02": 0.0,
			"-0.019": 0.0,
			"-0.018": 0.0,
			"-0.017": 0.0,
			"-0.016": 0.0,
			"-0.015": 0.0,
			"-0.014": 0.0,
			"-0.013": 0.0,
			"-0.012": 0.0,
			"-0.011": 0.0,
			"-0.01": 0.0,
			"-0.009": 0.45134109717,
			"-0.008": 6.46276512532,
			"-0.007": 12.8123935015,
			"-0.006": 12.6419983632,
			"-0.005": 11.9592461843,
			"-0.004": 15.1363902682,
			"-0.003": 17.2262485761,
			"-0.002": 20.2050233575,
			"-0.001": 26.1130332576,
			"0.0": 27.8687311107,
			"0.001": 33.5296903627,
			"0.002": 31.4762371579,
			"0.003": 12.6045311242,
			"0.004": 5.26553599204,
			"0.005": 3.66169100786,
			"0.006": 3.96368039077,
			"0.007": 5.03472832116,
			"0.008": 5.29301116285,
			"0.009": 6.24991499038,
			"0.01": 9.41746936173,
			"0.011": 3.34766595032,
			"0.012": 0.00404604740192,
			"0.013": 0.0,
			"0.014": 0.0,
			"0.015": 0.0,
			"0.016": 0.0,
			"0.017": 0.0,
			"0.018": 0.0,
			"0.019": 0.0,
			"0.02": 0.0,
			"0.021": 0.0,
			"0.022": 0.0,
			"0.023": 0.0,
			"0.024": 0.0,
			"0.025": 0.0
		}
	}
}
