{
	 "smiles": "CSCC[C@H](NC(C)=O)C(O)=O", 
	 "Tm": 388.15, 
	 "num_atms": 25, 
	 "gaussian": { 
		 "optdone": 1, 
		 "sigma_profile": "yes", 
		 "theory": "DFT", 
		 "functional": "B3LYP", 
		 "basiset": "6-31G**", 
		 "properties": { 
			 "R2extent": 3120.6393, 
			 "electric_dipole_moment_norm": 5.51346127401, 
			 "electric_quadrupole_moment_norm": 15.39265565, 
			 "total_energy": -953.20749338, 
			 "HOMO_LUMO_gap": 0.22499, 
			 "cosmo_polarized_energy": -25.0, 
			 "cosmo_cavitation_energy": 29.76, 
			 "cosmo_dispersion_energy": -20.39, 
			 "cosmo_repulsion_energy": 1.61, 
			 "cosmo_total_nonelectrostatic_energy": 10.98, 
			 "SMD_solvation_energy": 7.44 
		},
		"coords": [
			{
				"x": -2.9888139613,
				"y": -1.8928629496,
				"z": -1.8276925377,
				"element": "C" 
			},
			{
				"x": -3.4405194845,
				"y": -0.6814833127,
				"z": -0.5389145394,
				"element": "S" 
			},
			{
				"x": -2.8759429495,
				"y": -1.5367374547,
				"z": 0.980511837,
				"element": "C" 
			},
			{
				"x": -1.3839733626,
				"y": -1.8813547422,
				"z": 1.10884842,
				"element": "C" 
			},
			{
				"x": -0.3866215659,
				"y": -0.7027403323,
				"z": 0.9018722388,
				"element": "C" 
			},
			{
				"x": 0.0986903258,
				"y": -0.6365405012,
				"z": -0.4618128823,
				"element": "N" 
			},
			{
				"x": 0.3075773824,
				"y": 0.5027656757,
				"z": -1.2268829472,
				"element": "C" 
			},
			{
				"x": -0.3780991972,
				"y": 1.7845683158,
				"z": -0.7872453905,
				"element": "C" 
			},
			{
				"x": 0.9924664297,
				"y": 0.4406286741,
				"z": -2.2354302095,
				"element": "O" 
			},
			{
				"x": 0.7993400986,
				"y": -0.892638232,
				"z": 1.8702672637,
				"element": "C" 
			},
			{
				"x": 0.5553845823,
				"y": -0.5913995823,
				"z": 3.1728647604,
				"element": "O" 
			},
			{
				"x": 1.8674291246,
				"y": -1.3339395328,
				"z": 1.5335103091,
				"element": "O" 
			},
			{
				"x": -3.39453259,
				"y": -1.509570489,
				"z": -2.7663186941,
				"element": "H" 
			},
			{
				"x": -3.4385213554,
				"y": -2.8685313151,
				"z": -1.6240480832,
				"element": "H" 
			},
			{
				"x": -1.9047355195,
				"y": -1.9810295694,
				"z": -1.9218018734,
				"element": "H" 
			},
			{
				"x": -3.1748767121,
				"y": -0.8556355579,
				"z": 1.7858424508,
				"element": "H" 
			},
			{
				"x": -3.4637749305,
				"y": -2.4521268706,
				"z": 1.1099139443,
				"element": "H" 
			},
			{
				"x": -1.111759237,
				"y": -2.6736624508,
				"z": 0.4044184347,
				"element": "H" 
			},
			{
				"x": -1.2467015485,
				"y": -2.3098839192,
				"z": 2.1104469834,
				"element": "H" 
			},
			{
				"x": -0.8929556386,
				"y": 0.2390302894,
				"z": 1.135924837,
				"element": "H" 
			},
			{
				"x": 0.7623166065,
				"y": -1.367391532,
				"z": -0.6992627051,
				"element": "H" 
			},
			{
				"x": 0.043377027,
				"y": 2.1579465071,
				"z": 0.153366099,
				"element": "H" 
			},
			{
				"x": -0.2078800602,
				"y": 2.5309648131,
				"z": -1.562608055,
				"element": "H" 
			},
			{
				"x": -1.4531633746,
				"y": 1.6335103204,
				"z": -0.6504688666,
				"element": "H" 
			},
			{
				"x": -0.3267100897,
				"y": -0.2067862519,
				"z": 3.276799206,
				"element": "H" 
			}
		],
		 "valence_orbital": [ 
			{
				"type": "occ",
				"energy": -0.32119,
				"method": "rhf"
			},
			{
				"type": "occ",
				"energy": -0.29162,
				"method": "rhf"
			},
			{
				"type": "occ",
				"energy": -0.26063,
				"method": "rhf"
			},
			{
				"type": "occ",
				"energy": -0.24635,
				"method": "rhf"
			},
			{
				"type": "occ",
				"energy": -0.23378,
				"method": "rhf"
			},
			{
				"type": "unocc",
				"energy": -0.00879,
				"method": "rhf"
			},
			{
				"type": "unocc",
				"energy": 0.02103,
				"method": "rhf"
			},
			{
				"type": "unocc",
				"energy": 0.02721,
				"method": "rhf"
			},
			{
				"type": "unocc",
				"energy": 0.02921,
				"method": "rhf"
			},
			{
				"type": "unocc",
				"energy": 0.0677,
				"method": "rhf"
			}
		],
		"cosmo_sigma_profile": { 
			"-0.025": 0.0,
			"-0.024": 0.0,
			"-0.023": 0.0,
			"-0.022": 0.0,
			"-0.021": 0.0,
			"-0.02": 0.0599658184367,
			"-0.019": 0.987190010722,
			"-0.018": 1.53742270241,
			"-0.017": 0.813982201344,
			"-0.016": 1.80022251783,
			"-0.015": 1.27426588864,
			"-0.014": 0.80321939889,
			"-0.013": 0.455964525812,
			"-0.012": 2.03512954143,
			"-0.011": 2.38605687658,
			"-0.01": 2.50897502587,
			"-0.009": 4.15528264331,
			"-0.008": 3.545023572,
			"-0.007": 4.91418688417,
			"-0.006": 10.4965788464,
			"-0.005": 17.9823417232,
			"-0.004": 20.3373671242,
			"-0.003": 19.9915183174,
			"-0.002": 18.3692082608,
			"-0.001": 16.9011390647,
			"0.0": 12.3338752127,
			"0.001": 7.72835238253,
			"0.002": 7.90531754428,
			"0.003": 8.21681716619,
			"0.004": 6.39703154697,
			"0.005": 7.14376969204,
			"0.006": 5.5289190375,
			"0.007": 4.95199981097,
			"0.008": 5.55308947382,
			"0.009": 6.61856437541,
			"0.01": 7.81579257664,
			"0.011": 7.58479723339,
			"0.012": 4.73157845164,
			"0.013": 4.89580649166,
			"0.014": 4.90055984964,
			"0.015": 0.924678553501,
			"0.016": 0.0,
			"0.017": 0.0,
			"0.018": 0.0,
			"0.019": 0.0,
			"0.02": 0.0,
			"0.021": 0.0,
			"0.022": 0.0,
			"0.023": 0.0,
			"0.024": 0.0,
			"0.025": 0.0
		}
	}
}
