{
	 "smiles": "O=C(SSC(=O)C1=CC=CC=C1)C1=CC=CC=C1", 
	 "Tm": 407.15, 
	 "num_atms": 28, 
	 "gaussian": { 
		 "optdone": 1, 
		 "sigma_profile": "yes", 
		 "theory": "DFT", 
		 "functional": "B3LYP", 
		 "basiset": "6-31G**", 
		 "properties": { 
			 "R2extent": 6127.1226, 
			 "electric_dipole_moment_norm": 2.28431964926, 
			 "electric_quadrupole_moment_norm": 22.545534154, 
			 "total_energy": -1486.33389787, 
			 "HOMO_LUMO_gap": 0.18026, 
			 "cosmo_polarized_energy": -11.09, 
			 "cosmo_cavitation_energy": 36.88, 
			 "cosmo_dispersion_energy": -25.74, 
			 "cosmo_repulsion_energy": 1.95, 
			 "cosmo_total_nonelectrostatic_energy": 13.09, 
			 "SMD_solvation_energy": 6.86 
		},
		"coords": [
			{
				"x": 1.9517677769,
				"y": -1.7815949735,
				"z": -1.9579986228,
				"element": "O" 
			},
			{
				"x": 1.2383993413,
				"y": -0.8184528737,
				"z": -1.7960051527,
				"element": "C" 
			},
			{
				"x": -0.4476175332,
				"y": -1.0324288013,
				"z": -2.5313112262,
				"element": "S" 
			},
			{
				"x": -1.80900386,
				"y": 0.3166919233,
				"z": -1.6839232504,
				"element": "S" 
			},
			{
				"x": -2.4709402949,
				"y": -0.3322513185,
				"z": -0.0807893308,
				"element": "C" 
			},
			{
				"x": -2.9492710154,
				"y": 0.5309562457,
				"z": 0.6183777569,
				"element": "O" 
			},
			{
				"x": -2.4355022231,
				"y": -1.7713575013,
				"z": 0.2858053162,
				"element": "C" 
			},
			{
				"x": -2.5826266708,
				"y": -2.8068072872,
				"z": -0.6474649659,
				"element": "C" 
			},
			{
				"x": -2.6114193366,
				"y": -4.1316522876,
				"z": -0.2147237312,
				"element": "C" 
			},
			{
				"x": -2.4788393467,
				"y": -4.4296695871,
				"z": 1.142862504,
				"element": "C" 
			},
			{
				"x": -2.3386291571,
				"y": -3.3994573449,
				"z": 2.0774339855,
				"element": "C" 
			},
			{
				"x": -2.3306120248,
				"y": -2.0740113004,
				"z": 1.6540698322,
				"element": "C" 
			},
			{
				"x": 1.6671987436,
				"y": 0.4238444091,
				"z": -1.1035606056,
				"element": "C" 
			},
			{
				"x": 2.6123670599,
				"y": 0.2807926983,
				"z": -0.0735483268,
				"element": "C" 
			},
			{
				"x": 3.09664189,
				"y": 1.4043487924,
				"z": 0.5891774714,
				"element": "C" 
			},
			{
				"x": 2.6628344884,
				"y": 2.6784508558,
				"z": 0.2111738092,
				"element": "C" 
			},
			{
				"x": 1.7449405246,
				"y": 2.8263067006,
				"z": -0.8304806365,
				"element": "C" 
			},
			{
				"x": 1.2397966416,
				"y": 1.7034119061,
				"z": -1.4841334073,
				"element": "C" 
			},
			{
				"x": -2.6989087528,
				"y": -2.57965082,
				"z": -1.700287846,
				"element": "H" 
			},
			{
				"x": -2.7360453125,
				"y": -4.9307166746,
				"z": -0.9388678241,
				"element": "H" 
			},
			{
				"x": -2.4905373223,
				"y": -5.4641012966,
				"z": 1.4738711015,
				"element": "H" 
			},
			{
				"x": -2.2441888569,
				"y": -3.6305610538,
				"z": 3.1341727907,
				"element": "H" 
			},
			{
				"x": -2.2427329787,
				"y": -1.2605636853,
				"z": 2.3665884677,
				"element": "H" 
			},
			{
				"x": 2.9524396942,
				"y": -0.7145081512,
				"z": 0.192581729,
				"element": "H" 
			},
			{
				"x": 3.8170452393,
				"y": 1.2895784661,
				"z": 1.3934609073,
				"element": "H" 
			},
			{
				"x": 3.0449258918,
				"y": 3.5558644895,
				"z": 0.7248888951,
				"element": "H" 
			},
			{
				"x": 1.4199115249,
				"y": 3.8164188467,
				"z": -1.1345457572,
				"element": "H" 
			},
			{
				"x": 0.5378058692,
				"y": 1.8236196236,
				"z": -2.3004238833,
				"element": "H" 
			}
		],
		 "valence_orbital": [ 
			{
				"type": "occ",
				"energy": -0.27073,
				"method": "rhf"
			},
			{
				"type": "occ",
				"energy": -0.26718,
				"method": "rhf"
			},
			{
				"type": "occ",
				"energy": -0.26682,
				"method": "rhf"
			},
			{
				"type": "occ",
				"energy": -0.25253,
				"method": "rhf"
			},
			{
				"type": "occ",
				"energy": -0.24838,
				"method": "rhf"
			},
			{
				"type": "unocc",
				"energy": -0.06812,
				"method": "rhf"
			},
			{
				"type": "unocc",
				"energy": -0.0673,
				"method": "rhf"
			},
			{
				"type": "unocc",
				"energy": -0.03694,
				"method": "rhf"
			},
			{
				"type": "unocc",
				"energy": -0.01729,
				"method": "rhf"
			},
			{
				"type": "unocc",
				"energy": -0.01709,
				"method": "rhf"
			}
		],
		"cosmo_sigma_profile": { 
			"-0.025": 0.0,
			"-0.024": 0.0,
			"-0.023": 0.0,
			"-0.022": 0.0,
			"-0.021": 0.0,
			"-0.02": 0.0,
			"-0.019": 0.0,
			"-0.018": 0.0,
			"-0.017": 0.0,
			"-0.016": 0.0,
			"-0.015": 0.0,
			"-0.014": 0.0,
			"-0.013": 0.0,
			"-0.012": 0.0,
			"-0.011": 0.0,
			"-0.01": 0.0,
			"-0.009": 0.0,
			"-0.008": 0.0,
			"-0.007": 10.9267270021,
			"-0.006": 22.8272051082,
			"-0.005": 26.7634800823,
			"-0.004": 23.278032586,
			"-0.003": 17.8906534603,
			"-0.002": 17.9539067615,
			"-0.001": 17.7951445285,
			"0.0": 20.3033199066,
			"0.001": 22.3441737679,
			"0.002": 27.8012600149,
			"0.003": 37.2296393067,
			"0.004": 20.3140261362,
			"0.005": 7.0436088331,
			"0.006": 4.05153311597,
			"0.007": 3.94955090997,
			"0.008": 4.90290346821,
			"0.009": 7.63362786989,
			"0.01": 7.3810593928,
			"0.011": 0.548406611725,
			"0.012": 0.0,
			"0.013": 0.0,
			"0.014": 0.0,
			"0.015": 0.0,
			"0.016": 0.0,
			"0.017": 0.0,
			"0.018": 0.0,
			"0.019": 0.0,
			"0.02": 0.0,
			"0.021": 0.0,
			"0.022": 0.0,
			"0.023": 0.0,
			"0.024": 0.0,
			"0.025": 0.0
		}
	}
}
