{
	 "smiles": "COC1=C(CSCC(O)=O)C=C(C=C1)C(C)=O", 
	 "Tm": 380.15, 
	 "num_atms": 31, 
	 "gaussian": { 
		 "optdone": 1, 
		 "sigma_profile": "yes", 
		 "theory": "DFT", 
		 "functional": "B3LYP", 
		 "basiset": "6-31G**", 
		 "properties": { 
			 "R2extent": 6144.541, 
			 "electric_dipole_moment_norm": 3.71135470415, 
			 "electric_quadrupole_moment_norm": 23.0140430331, 
			 "total_energy": -1164.80654652, 
			 "HOMO_LUMO_gap": 0.18269, 
			 "cosmo_polarized_energy": -18.32, 
			 "cosmo_cavitation_energy": 37.4, 
			 "cosmo_dispersion_energy": -26.19, 
			 "cosmo_repulsion_energy": 2.04, 
			 "cosmo_total_nonelectrostatic_energy": 13.24, 
			 "SMD_solvation_energy": 8.49 
		},
		"coords": [
			{
				"x": -2.1025475734,
				"y": 1.0164231078,
				"z": 2.9179612602,
				"element": "C" 
			},
			{
				"x": -1.5350606205,
				"y": 0.8287048211,
				"z": 1.628128386,
				"element": "O" 
			},
			{
				"x": -0.8206571052,
				"y": -0.3007933681,
				"z": 1.3823668021,
				"element": "C" 
			},
			{
				"x": -0.2747708424,
				"y": -0.4124621007,
				"z": 0.0829708371,
				"element": "C" 
			},
			{
				"x": -0.4799597768,
				"y": 0.6788153469,
				"z": -0.9316135716,
				"element": "C" 
			},
			{
				"x": 0.8787335005,
				"y": 1.9335616019,
				"z": -0.7788514898,
				"element": "S" 
			},
			{
				"x": 0.3794689952,
				"y": 3.1045592015,
				"z": -2.1075111921,
				"element": "C" 
			},
			{
				"x": 0.6314974001,
				"y": 2.5095906847,
				"z": -3.4735182948,
				"element": "C" 
			},
			{
				"x": 1.7756095323,
				"y": 2.9699741571,
				"z": -4.0261597344,
				"element": "O" 
			},
			{
				"x": -0.0808429911,
				"y": 1.6914461219,
				"z": -4.0181227685,
				"element": "O" 
			},
			{
				"x": 0.4664554005,
				"y": -1.550428904,
				"z": -0.2299015153,
				"element": "C" 
			},
			{
				"x": 0.6780477605,
				"y": -2.5797673749,
				"z": 0.7004733475,
				"element": "C" 
			},
			{
				"x": 0.1214239954,
				"y": -2.4446308299,
				"z": 1.9794884606,
				"element": "C" 
			},
			{
				"x": -0.6221541731,
				"y": -1.3223184893,
				"z": 2.3234361927,
				"element": "C" 
			},
			{
				"x": 1.4656611453,
				"y": -3.8113282553,
				"z": 0.3938017186,
				"element": "C" 
			},
			{
				"x": 2.0775562,
				"y": -3.9655042759,
				"z": -0.9896155657,
				"element": "C" 
			},
			{
				"x": 1.6186804785,
				"y": -4.6825932282,
				"z": 1.2390358257,
				"element": "O" 
			},
			{
				"x": -1.3301180057,
				"y": 1.0418607475,
				"z": 3.6958147028,
				"element": "H" 
			},
			{
				"x": -2.8311955656,
				"y": 0.231730887,
				"z": 3.1555061318,
				"element": "H" 
			},
			{
				"x": -2.6100223591,
				"y": 1.9811462906,
				"z": 2.8825935782,
				"element": "H" 
			},
			{
				"x": -0.4593118273,
				"y": 0.2815138865,
				"z": -1.9478902634,
				"element": "H" 
			},
			{
				"x": -1.4292203871,
				"y": 1.1924303686,
				"z": -0.7662150605,
				"element": "H" 
			},
			{
				"x": -0.6829995921,
				"y": 3.3395460964,
				"z": -2.0077508745,
				"element": "H" 
			},
			{
				"x": 0.9726657909,
				"y": 4.0080238851,
				"z": -1.95853943,
				"element": "H" 
			},
			{
				"x": 1.8775150135,
				"y": 2.5019494722,
				"z": -4.872343081,
				"element": "H" 
			},
			{
				"x": 0.8845776174,
				"y": -1.6238693116,
				"z": -1.2293652557,
				"element": "H" 
			},
			{
				"x": 0.2853294338,
				"y": -3.2426546462,
				"z": 2.6959796549,
				"element": "H" 
			},
			{
				"x": -1.0422764913,
				"y": -1.2441536819,
				"z": 3.318885055,
				"element": "H" 
			},
			{
				"x": 2.6121946125,
				"y": -4.9148979349,
				"z": -1.0295570467,
				"element": "H" 
			},
			{
				"x": 1.3050583065,
				"y": -3.9511066758,
				"z": -1.7665111938,
				"element": "H" 
			},
			{
				"x": 2.773162128,
				"y": -3.1471676001,
				"z": -1.2061756154,
				"element": "H" 
			}
		],
		 "valence_orbital": [ 
			{
				"type": "occ",
				"energy": -0.28629,
				"method": "rhf"
			},
			{
				"type": "occ",
				"energy": -0.2585,
				"method": "rhf"
			},
			{
				"type": "occ",
				"energy": -0.24138,
				"method": "rhf"
			},
			{
				"type": "occ",
				"energy": -0.23025,
				"method": "rhf"
			},
			{
				"type": "occ",
				"energy": -0.22818,
				"method": "rhf"
			},
			{
				"type": "unocc",
				"energy": -0.04549,
				"method": "rhf"
			},
			{
				"type": "unocc",
				"energy": -0.02127,
				"method": "rhf"
			},
			{
				"type": "unocc",
				"energy": -0.00996,
				"method": "rhf"
			},
			{
				"type": "unocc",
				"energy": 0.03723,
				"method": "rhf"
			},
			{
				"type": "unocc",
				"energy": 0.0489,
				"method": "rhf"
			}
		],
		"cosmo_sigma_profile": { 
			"-0.025": 0.0,
			"-0.024": 0.0,
			"-0.023": 0.0,
			"-0.022": 0.0,
			"-0.021": 0.0,
			"-0.02": 0.0,
			"-0.019": 0.0735464205578,
			"-0.018": 1.09678082147,
			"-0.017": 0.812236372449,
			"-0.016": 0.354669895211,
			"-0.015": 1.51300354687,
			"-0.014": 0.486898442162,
			"-0.013": 0.606923641911,
			"-0.012": 0.444902683772,
			"-0.011": 1.1563221941,
			"-0.01": 0.643289010892,
			"-0.009": 0.416373216595,
			"-0.008": 3.29459975888,
			"-0.007": 9.53696674344,
			"-0.006": 24.6130570726,
			"-0.005": 25.2121578174,
			"-0.004": 25.2633652677,
			"-0.003": 21.0112588142,
			"-0.002": 18.1671645882,
			"-0.001": 18.3351803532,
			"0.0": 14.9897783742,
			"0.001": 16.312081564,
			"0.002": 17.594911217,
			"0.003": 18.5315579303,
			"0.004": 16.0976483359,
			"0.005": 10.5551587839,
			"0.006": 7.56666754525,
			"0.007": 7.45512247862,
			"0.008": 5.85087654789,
			"0.009": 8.77111487932,
			"0.01": 5.20982350888,
			"0.011": 6.25346719081,
			"0.012": 6.76451288081,
			"0.013": 2.57728649599,
			"0.014": 0.474662226506,
			"0.015": 0.0,
			"0.016": 0.0,
			"0.017": 0.0,
			"0.018": 0.0,
			"0.019": 0.0,
			"0.02": 0.0,
			"0.021": 0.0,
			"0.022": 0.0,
			"0.023": 0.0,
			"0.024": 0.0,
			"0.025": 0.0
		}
	}
}
