{
	 "smiles": "CC(O)(C(O)=O)C(F)(F)F", 
	 "Tm": 383.15, 
	 "num_atms": 15, 
	 "gaussian": { 
		 "optdone": 1, 
		 "sigma_profile": "yes", 
		 "theory": "DFT", 
		 "functional": "B3LYP", 
		 "basiset": "6-31G**", 
		 "properties": { 
			 "R2extent": 1810.9233, 
			 "electric_dipole_moment_norm": 2.69621880603, 
			 "electric_quadrupole_moment_norm": 6.26235358152, 
			 "total_energy": -680.646327559, 
			 "HOMO_LUMO_gap": 0.27014, 
			 "cosmo_polarized_energy": -9.79, 
			 "cosmo_cavitation_energy": 20.31, 
			 "cosmo_dispersion_energy": -14.39, 
			 "cosmo_repulsion_energy": 1.13, 
			 "cosmo_total_nonelectrostatic_energy": 7.05, 
			 "SMD_solvation_energy": 6.04 
		},
		"coords": [
			{
				"x": 0.7475192413,
				"y": -1.4597777814,
				"z": -0.5613511503,
				"element": "C" 
			},
			{
				"x": 1.6003313728,
				"y": -0.4116366682,
				"z": 0.1600358818,
				"element": "C" 
			},
			{
				"x": 2.9333666192,
				"y": -0.8469940674,
				"z": 0.2123041203,
				"element": "O" 
			},
			{
				"x": 1.5679815201,
				"y": 0.9516864693,
				"z": -0.5550581284,
				"element": "C" 
			},
			{
				"x": 0.3342407729,
				"y": 1.4088928315,
				"z": -0.8030273524,
				"element": "O" 
			},
			{
				"x": 2.584317971,
				"y": 1.5375693741,
				"z": -0.8630805141,
				"element": "O" 
			},
			{
				"x": 1.1025344789,
				"y": -0.2220129407,
				"z": 1.6139548154,
				"element": "C" 
			},
			{
				"x": -0.2017324233,
				"y": 0.1206294648,
				"z": 1.6604041573,
				"element": "F" 
			},
			{
				"x": 1.2530271601,
				"y": -1.3554218912,
				"z": 2.3167988244,
				"element": "F" 
			},
			{
				"x": 1.8049112144,
				"y": 0.7509641586,
				"z": 2.2319045487,
				"element": "F" 
			},
			{
				"x": 1.1140553428,
				"y": -1.5823968045,
				"z": -1.5828655297,
				"element": "H" 
			},
			{
				"x": -0.3039195445,
				"y": -1.1702098312,
				"z": -0.583358318,
				"element": "H" 
			},
			{
				"x": 0.8516599306,
				"y": -2.413596624,
				"z": -0.0399230281,
				"element": "H" 
			},
			{
				"x": 3.4849344088,
				"y": -0.068743129,
				"z": 0.0235142315,
				"element": "H" 
			},
			{
				"x": 0.4326719349,
				"y": 2.2727474393,
				"z": -1.2395525584,
				"element": "H" 
			}
		],
		 "valence_orbital": [ 
			{
				"type": "occ",
				"energy": -0.38221,
				"method": "rhf"
			},
			{
				"type": "occ",
				"energy": -0.36256,
				"method": "rhf"
			},
			{
				"type": "occ",
				"energy": -0.34956,
				"method": "rhf"
			},
			{
				"type": "occ",
				"energy": -0.31206,
				"method": "rhf"
			},
			{
				"type": "occ",
				"energy": -0.29401,
				"method": "rhf"
			},
			{
				"type": "unocc",
				"energy": -0.02387,
				"method": "rhf"
			},
			{
				"type": "unocc",
				"energy": 0.05184,
				"method": "rhf"
			},
			{
				"type": "unocc",
				"energy": 0.09142,
				"method": "rhf"
			},
			{
				"type": "unocc",
				"energy": 0.11684,
				"method": "rhf"
			},
			{
				"type": "unocc",
				"energy": 0.1371,
				"method": "rhf"
			}
		],
		"cosmo_sigma_profile": { 
			"-0.025": 0.0,
			"-0.024": 0.0,
			"-0.023": 0.0,
			"-0.022": 0.0,
			"-0.021": 0.0,
			"-0.02": 0.552094132323,
			"-0.019": 1.00239152016,
			"-0.018": 1.1708401929,
			"-0.017": 0.908491424938,
			"-0.016": 0.451095990916,
			"-0.015": 0.50070205992,
			"-0.014": 0.64940312789,
			"-0.013": 1.53808213922,
			"-0.012": 1.35919798596,
			"-0.011": 1.63548227901,
			"-0.01": 1.16348893309,
			"-0.009": 0.899618014228,
			"-0.008": 1.50643500221,
			"-0.007": 2.22706584308,
			"-0.006": 5.39320844626,
			"-0.005": 7.4146877915,
			"-0.004": 6.32553759989,
			"-0.003": 8.7589720272,
			"-0.002": 11.5592883958,
			"-0.001": 10.768988436,
			"0.0": 8.40965421752,
			"0.001": 10.4117147476,
			"0.002": 27.8845930662,
			"0.003": 15.2020032167,
			"0.004": 5.96171981749,
			"0.005": 4.07411499714,
			"0.006": 4.42138593246,
			"0.007": 3.77977537713,
			"0.008": 3.37664214289,
			"0.009": 3.82645076052,
			"0.01": 4.10256225976,
			"0.011": 1.9888202729,
			"0.012": 1.07640956482,
			"0.013": 0.0174748773249,
			"0.014": 0.0,
			"0.015": 0.0,
			"0.016": 0.0,
			"0.017": 0.0,
			"0.018": 0.0,
			"0.019": 0.0,
			"0.02": 0.0,
			"0.021": 0.0,
			"0.022": 0.0,
			"0.023": 0.0,
			"0.024": 0.0,
			"0.025": 0.0
		}
	}
}
