{
	 "smiles": "CC(C)(NO)C(=NO)C1=CC=CC=C1", 
	 "Tm": 427.15, 
	 "num_atms": 28, 
	 "gaussian": { 
		 "optdone": 1, 
		 "sigma_profile": "yes", 
		 "theory": "DFT", 
		 "functional": "B3LYP", 
		 "basiset": "6-31G**", 
		 "properties": { 
			 "R2extent": 3478.7701, 
			 "electric_dipole_moment_norm": 3.25311760777, 
			 "electric_quadrupole_moment_norm": 14.8712613688, 
			 "total_energy": -649.333062375, 
			 "HOMO_LUMO_gap": 0.2162, 
			 "cosmo_polarized_energy": -14.38, 
			 "cosmo_cavitation_energy": 30.49, 
			 "cosmo_dispersion_energy": -21.22, 
			 "cosmo_repulsion_energy": 1.69, 
			 "cosmo_total_nonelectrostatic_energy": 10.97, 
			 "SMD_solvation_energy": 5.79 
		},
		"coords": [
			{
				"x": 1.634012782,
				"y": 0.7265823793,
				"z": -1.313534777,
				"element": "C" 
			},
			{
				"x": 1.6632586965,
				"y": -0.3929408171,
				"z": -0.259203382,
				"element": "C" 
			},
			{
				"x": 1.3448974684,
				"y": 0.1760904497,
				"z": 1.1371507318,
				"element": "C" 
			},
			{
				"x": 3.0448557772,
				"y": -0.8995541138,
				"z": -0.1716938175,
				"element": "N" 
			},
			{
				"x": 3.4935497507,
				"y": -1.4661455669,
				"z": -1.4026460319,
				"element": "O" 
			},
			{
				"x": 0.6291544105,
				"y": -1.4918860301,
				"z": -0.6025556483,
				"element": "C" 
			},
			{
				"x": 1.095412113,
				"y": -2.6839234797,
				"z": -0.703309739,
				"element": "N" 
			},
			{
				"x": 0.1116211929,
				"y": -3.6419853764,
				"z": -0.9896743891,
				"element": "O" 
			},
			{
				"x": -0.8179183594,
				"y": -1.1619023762,
				"z": -0.7897361103,
				"element": "C" 
			},
			{
				"x": -1.3089545103,
				"y": -0.8144250715,
				"z": -2.0562592571,
				"element": "C" 
			},
			{
				"x": -2.6594027297,
				"y": -0.5114323965,
				"z": -2.2309486926,
				"element": "C" 
			},
			{
				"x": -3.5355653704,
				"y": -0.5571955274,
				"z": -1.1450842125,
				"element": "C" 
			},
			{
				"x": -3.0559860086,
				"y": -0.9127416989,
				"z": 0.1165408526,
				"element": "C" 
			},
			{
				"x": -1.7055909771,
				"y": -1.2156127596,
				"z": 0.2939588202,
				"element": "C" 
			},
			{
				"x": 1.9433193547,
				"y": 0.3392718117,
				"z": -2.2866131474,
				"element": "H" 
			},
			{
				"x": 2.3435556384,
				"y": 1.504657548,
				"z": -1.0199415577,
				"element": "H" 
			},
			{
				"x": 0.6382602988,
				"y": 1.1674822466,
				"z": -1.3988411293,
				"element": "H" 
			},
			{
				"x": 2.0855550205,
				"y": 0.939430796,
				"z": 1.3896875532,
				"element": "H" 
			},
			{
				"x": 1.3830057727,
				"y": -0.6075702866,
				"z": 1.9026041686,
				"element": "H" 
			},
			{
				"x": 0.3496418177,
				"y": 0.6261886303,
				"z": 1.1607068783,
				"element": "H" 
			},
			{
				"x": 3.0648125564,
				"y": -1.658215498,
				"z": 0.51274596,
				"element": "H" 
			},
			{
				"x": 2.9046140025,
				"y": -2.2311002798,
				"z": -1.5488905097,
				"element": "H" 
			},
			{
				"x": 0.625942684,
				"y": -4.4600748237,
				"z": -1.0230896614,
				"element": "H" 
			},
			{
				"x": -0.6322707416,
				"y": -0.7854378042,
				"z": -2.9048457574,
				"element": "H" 
			},
			{
				"x": -3.0267127008,
				"y": -0.2424748778,
				"z": -3.2171409441,
				"element": "H" 
			},
			{
				"x": -4.5866626556,
				"y": -0.3204368817,
				"z": -1.2821612871,
				"element": "H" 
			},
			{
				"x": -3.7331138552,
				"y": -0.9579597162,
				"z": 0.9646681163,
				"element": "H" 
			},
			{
				"x": -1.3387914283,
				"y": -1.5022884797,
				"z": 1.2749069704,
				"element": "H" 
			}
		],
		 "valence_orbital": [ 
			{
				"type": "occ",
				"energy": -0.26861,
				"method": "rhf"
			},
			{
				"type": "occ",
				"energy": -0.26268,
				"method": "rhf"
			},
			{
				"type": "occ",
				"energy": -0.25786,
				"method": "rhf"
			},
			{
				"type": "occ",
				"energy": -0.25718,
				"method": "rhf"
			},
			{
				"type": "occ",
				"energy": -0.22869,
				"method": "rhf"
			},
			{
				"type": "unocc",
				"energy": -0.01249,
				"method": "rhf"
			},
			{
				"type": "unocc",
				"energy": -0.01068,
				"method": "rhf"
			},
			{
				"type": "unocc",
				"energy": -0.00822,
				"method": "rhf"
			},
			{
				"type": "unocc",
				"energy": 0.06735,
				"method": "rhf"
			},
			{
				"type": "unocc",
				"energy": 0.08295,
				"method": "rhf"
			}
		],
		"cosmo_sigma_profile": { 
			"-0.025": 0.0,
			"-0.024": 0.0,
			"-0.023": 0.0,
			"-0.022": 0.0,
			"-0.021": 0.0,
			"-0.02": 0.0,
			"-0.019": 0.0,
			"-0.018": 0.232353000706,
			"-0.017": 0.863481266638,
			"-0.016": 1.11057962959,
			"-0.015": 1.19048017222,
			"-0.014": 0.690010259315,
			"-0.013": 0.425865129291,
			"-0.012": 0.253762135386,
			"-0.011": 1.13105581051,
			"-0.01": 1.76214871257,
			"-0.009": 2.35583562225,
			"-0.008": 2.70167107961,
			"-0.007": 2.30026238723,
			"-0.006": 10.1879881919,
			"-0.005": 15.5412705351,
			"-0.004": 20.7191233718,
			"-0.003": 22.453405328,
			"-0.002": 20.6480452999,
			"-0.001": 21.5914689165,
			"0.0": 20.7875995429,
			"0.001": 15.3154987286,
			"0.002": 9.66523898779,
			"0.003": 9.64951983888,
			"0.004": 10.7209249154,
			"0.005": 11.1898939933,
			"0.006": 6.06346148642,
			"0.007": 3.9030818303,
			"0.008": 4.23552546464,
			"0.009": 3.73286040121,
			"0.01": 4.17178054293,
			"0.011": 2.74076516054,
			"0.012": 1.86630967344,
			"0.013": 2.83517266798,
			"0.014": 3.92996143571,
			"0.015": 1.53207891269,
			"0.016": 0.484330429034,
			"0.017": 0.261978720669,
			"0.018": 0.0,
			"0.019": 0.0,
			"0.02": 0.0,
			"0.021": 0.0,
			"0.022": 0.0,
			"0.023": 0.0,
			"0.024": 0.0,
			"0.025": 0.0
		}
	}
}
