{
	 "smiles": "BrC1=CC=C(C=C1)N1CCCS1(=O)=O", 
	 "Tm": 382.15, 
	 "num_atms": 24, 
	 "gaussian": { 
		 "optdone": 1, 
		 "sigma_profile": "yes", 
		 "theory": "DFT", 
		 "functional": "B3LYP", 
		 "basiset": "6-31G**", 
		 "properties": { 
			 "R2extent": 9164.1411, 
			 "electric_dipole_moment_norm": 6.01718183953, 
			 "electric_quadrupole_moment_norm": 20.5064273529, 
			 "total_energy": -3523.70258081, 
			 "HOMO_LUMO_gap": 0.20321, 
			 "cosmo_polarized_energy": -16.74, 
			 "cosmo_cavitation_energy": 30.44, 
			 "cosmo_dispersion_energy": -23.32, 
			 "cosmo_repulsion_energy": 1.77, 
			 "cosmo_total_nonelectrostatic_energy": 8.89, 
			 "SMD_solvation_energy": 2.31 
		},
		"coords": [
			{
				"x": 5.1524736008,
				"y": -0.0685352298,
				"z": -2.8513190847,
				"element": "Br" 
			},
			{
				"x": 3.2657010017,
				"y": -0.0568513674,
				"z": -2.5474655856,
				"element": "C" 
			},
			{
				"x": 2.7510715482,
				"y": 0.6003994312,
				"z": -1.434752771,
				"element": "C" 
			},
			{
				"x": 1.3727430455,
				"y": 0.6133338018,
				"z": -1.2172725508,
				"element": "C" 
			},
			{
				"x": 0.5074153427,
				"y": -0.0476939005,
				"z": -2.1001546503,
				"element": "C" 
			},
			{
				"x": 1.0461301181,
				"y": -0.7215491458,
				"z": -3.2098534769,
				"element": "C" 
			},
			{
				"x": 2.4177122668,
				"y": -0.7137851669,
				"z": -3.4393456575,
				"element": "C" 
			},
			{
				"x": -0.8910667496,
				"y": -0.0858833153,
				"z": -1.8696107326,
				"element": "N" 
			},
			{
				"x": -1.4763961771,
				"y": 0.4098501706,
				"z": -0.6231650913,
				"element": "C" 
			},
			{
				"x": -2.972184923,
				"y": 0.0818596113,
				"z": -0.7263858755,
				"element": "C" 
			},
			{
				"x": -3.4035654755,
				"y": 0.5104305143,
				"z": -2.1302293224,
				"element": "C" 
			},
			{
				"x": -1.9564110361,
				"y": 0.2061439988,
				"z": -3.2047426354,
				"element": "S" 
			},
			{
				"x": -1.5870776847,
				"y": 1.4372036276,
				"z": -3.9118406985,
				"element": "O" 
			},
			{
				"x": -2.108297803,
				"y": -1.0383033892,
				"z": -3.9647959039,
				"element": "O" 
			},
			{
				"x": 3.4145997601,
				"y": 1.108967949,
				"z": -0.7446678255,
				"element": "H" 
			},
			{
				"x": 0.9852431546,
				"y": 1.1456277068,
				"z": -0.3561486522,
				"element": "H" 
			},
			{
				"x": 0.3892368866,
				"y": -1.2581091981,
				"z": -3.8852613961,
				"element": "H" 
			},
			{
				"x": 2.8261703112,
				"y": -1.2308574142,
				"z": -4.3000155895,
				"element": "H" 
			},
			{
				"x": -1.3220310964,
				"y": 1.492265692,
				"z": -0.4874356921,
				"element": "H" 
			},
			{
				"x": -1.0071111214,
				"y": -0.1105402748,
				"z": 0.2163903645,
				"element": "H" 
			},
			{
				"x": -3.119450195,
				"y": -0.9936979801,
				"z": -0.5973145667,
				"element": "H" 
			},
			{
				"x": -3.5496496613,
				"y": 0.6053409283,
				"z": 0.040044143,
				"element": "H" 
			},
			{
				"x": -3.6005170053,
				"y": 1.5823386979,
				"z": -2.2026159477,
				"element": "H" 
			},
			{
				"x": -4.2389381078,
				"y": -0.0539557474,
				"z": -2.5466408012,
				"element": "H" 
			}
		],
		 "valence_orbital": [ 
			{
				"type": "occ",
				"energy": -0.30507,
				"method": "rhf"
			},
			{
				"type": "occ",
				"energy": -0.28489,
				"method": "rhf"
			},
			{
				"type": "occ",
				"energy": -0.27649,
				"method": "rhf"
			},
			{
				"type": "occ",
				"energy": -0.26546,
				"method": "rhf"
			},
			{
				"type": "occ",
				"energy": -0.2215,
				"method": "rhf"
			},
			{
				"type": "unocc",
				"energy": -0.01829,
				"method": "rhf"
			},
			{
				"type": "unocc",
				"energy": -0.01526,
				"method": "rhf"
			},
			{
				"type": "unocc",
				"energy": 0.00929,
				"method": "rhf"
			},
			{
				"type": "unocc",
				"energy": 0.04465,
				"method": "rhf"
			},
			{
				"type": "unocc",
				"energy": 0.04943,
				"method": "rhf"
			}
		],
		"cosmo_sigma_profile": { 
			"-0.025": 0.0,
			"-0.024": 0.0,
			"-0.023": 0.0,
			"-0.022": 0.0,
			"-0.021": 0.0,
			"-0.02": 0.0,
			"-0.019": 0.0,
			"-0.018": 0.0,
			"-0.017": 0.0,
			"-0.016": 0.0,
			"-0.015": 0.0,
			"-0.014": 0.0,
			"-0.013": 0.0,
			"-0.012": 0.0,
			"-0.011": 0.0,
			"-0.01": 0.0,
			"-0.009": 2.02860775001,
			"-0.008": 6.6237806449,
			"-0.007": 16.0198765583,
			"-0.006": 25.7011592566,
			"-0.005": 21.5722471389,
			"-0.004": 16.2560515103,
			"-0.003": 12.3439567879,
			"-0.002": 10.1222758315,
			"-0.001": 8.82330009546,
			"0.0": 10.1001870472,
			"0.001": 11.2296241672,
			"0.002": 17.2708785525,
			"0.003": 23.524170234,
			"0.004": 17.6945280066,
			"0.005": 11.6194615987,
			"0.006": 2.6393919359,
			"0.007": 3.31360603288,
			"0.008": 3.67237562212,
			"0.009": 4.78901492073,
			"0.01": 8.47199810491,
			"0.011": 10.3803548667,
			"0.012": 1.5138430086,
			"0.013": 0.0,
			"0.014": 0.0,
			"0.015": 0.0,
			"0.016": 0.0,
			"0.017": 0.0,
			"0.018": 0.0,
			"0.019": 0.0,
			"0.02": 0.0,
			"0.021": 0.0,
			"0.022": 0.0,
			"0.023": 0.0,
			"0.024": 0.0,
			"0.025": 0.0
		}
	}
}
