{
	 "smiles": "CCCOC1=C(OCCC)C=C(CC(O)=O)C=C1", 
	 "Tm": 333.15, 
	 "num_atms": 38, 
	 "gaussian": { 
		 "optdone": 1, 
		 "sigma_profile": "yes", 
		 "theory": "DFT", 
		 "functional": "B3LYP", 
		 "basiset": "6-31G**", 
		 "properties": { 
			 "R2extent": 6922.6585, 
			 "electric_dipole_moment_norm": 1.12537101438, 
			 "electric_quadrupole_moment_norm": 12.3669901803, 
			 "total_energy": -846.446403782, 
			 "HOMO_LUMO_gap": 0.21445, 
			 "cosmo_polarized_energy": -13.27, 
			 "cosmo_cavitation_energy": 41.14, 
			 "cosmo_dispersion_energy": -28.09, 
			 "cosmo_repulsion_energy": 2.25, 
			 "cosmo_total_nonelectrostatic_energy": 15.3, 
			 "SMD_solvation_energy": 8.22 
		},
		"coords": [
			{
				"x": 0.0221232035,
				"y": 2.4323078944,
				"z": -3.9370920104,
				"element": "C" 
			},
			{
				"x": -0.0074764193,
				"y": 0.9013840831,
				"z": -3.9106457908,
				"element": "C" 
			},
			{
				"x": 0.5469329908,
				"y": 0.2936272725,
				"z": -2.6283587761,
				"element": "C" 
			},
			{
				"x": -0.2442346169,
				"y": 0.7491489844,
				"z": -1.5205456655,
				"element": "O" 
			},
			{
				"x": -0.1665087641,
				"y": 0.0269236482,
				"z": -0.3488436398,
				"element": "C" 
			},
			{
				"x": 0.1822458727,
				"y": 0.6776670347,
				"z": 0.8503605801,
				"element": "C" 
			},
			{
				"x": 0.4979444186,
				"y": 2.003573156,
				"z": 0.9582922711,
				"element": "O" 
			},
			{
				"x": 1.3633877813,
				"y": 2.613841919,
				"z": -0.0120011703,
				"element": "C" 
			},
			{
				"x": 1.9736357848,
				"y": 3.856550863,
				"z": 0.6256973378,
				"element": "C" 
			},
			{
				"x": 2.8808819279,
				"y": 3.5562777016,
				"z": 1.8217551366,
				"element": "C" 
			},
			{
				"x": 0.1479134003,
				"y": -0.0461238253,
				"z": 2.0496455733,
				"element": "C" 
			},
			{
				"x": -0.2072411954,
				"y": -1.3942049027,
				"z": 2.0894405387,
				"element": "C" 
			},
			{
				"x": -0.2426640556,
				"y": -2.1266257991,
				"z": 3.4137987907,
				"element": "C" 
			},
			{
				"x": 0.7251530365,
				"y": -3.2960874487,
				"z": 3.5101786656,
				"element": "C" 
			},
			{
				"x": 1.2146102548,
				"y": -3.4256313827,
				"z": 4.7679073164,
				"element": "O" 
			},
			{
				"x": 1.0166012362,
				"y": -4.0611482611,
				"z": 2.618619667,
				"element": "O" 
			},
			{
				"x": -0.5373895255,
				"y": -2.0368533271,
				"z": 0.8887277624,
				"element": "C" 
			},
			{
				"x": -0.5180454831,
				"y": -1.3280519755,
				"z": -0.3075706447,
				"element": "C" 
			},
			{
				"x": -0.5894734505,
				"y": 2.8471649307,
				"z": -3.1312866547,
				"element": "H" 
			},
			{
				"x": -0.3647783333,
				"y": 2.8154916685,
				"z": -4.8865394392,
				"element": "H" 
			},
			{
				"x": 1.0438918091,
				"y": 2.811110796,
				"z": -3.8169230921,
				"element": "H" 
			},
			{
				"x": -1.035682767,
				"y": 0.5453271428,
				"z": -4.0471762172,
				"element": "H" 
			},
			{
				"x": 0.5800651402,
				"y": 0.4991721063,
				"z": -4.7460851142,
				"element": "H" 
			},
			{
				"x": 1.5936231879,
				"y": 0.5983033111,
				"z": -2.4711972529,
				"element": "H" 
			},
			{
				"x": 0.5261855891,
				"y": -0.8007922126,
				"z": -2.6871937951,
				"element": "H" 
			},
			{
				"x": 0.7931724254,
				"y": 2.8747608746,
				"z": -0.9075582315,
				"element": "H" 
			},
			{
				"x": 2.1501545381,
				"y": 1.9018673733,
				"z": -0.3012807505,
				"element": "H" 
			},
			{
				"x": 2.535986428,
				"y": 4.3863971302,
				"z": -0.1542262378,
				"element": "H" 
			},
			{
				"x": 1.157990981,
				"y": 4.5238770031,
				"z": 0.9299480805,
				"element": "H" 
			},
			{
				"x": 2.3269339121,
				"y": 3.0292944551,
				"z": 2.6032233477,
				"element": "H" 
			},
			{
				"x": 3.7279227055,
				"y": 2.9256757535,
				"z": 1.5271682627,
				"element": "H" 
			},
			{
				"x": 3.285038856,
				"y": 4.477443018,
				"z": 2.2532301634,
				"element": "H" 
			},
			{
				"x": 0.415290158,
				"y": 0.4869248433,
				"z": 2.9574143589,
				"element": "H" 
			},
			{
				"x": -1.2404864739,
				"y": -2.5555771798,
				"z": 3.5850127692,
				"element": "H" 
			},
			{
				"x": -0.0537118614,
				"y": -1.4447262478,
				"z": 4.2457152365,
				"element": "H" 
			},
			{
				"x": 1.7837823119,
				"y": -4.2140451954,
				"z": 4.7541068647,
				"element": "H" 
			},
			{
				"x": -0.805668061,
				"y": -3.0873302124,
				"z": 0.8911501241,
				"element": "H" 
			},
			{
				"x": -0.8133069427,
				"y": -1.8181149933,
				"z": -1.2303683645,
				"element": "H" 
			}
		],
		 "valence_orbital": [ 
			{
				"type": "occ",
				"energy": -0.29368,
				"method": "rhf"
			},
			{
				"type": "occ",
				"energy": -0.27838,
				"method": "rhf"
			},
			{
				"type": "occ",
				"energy": -0.27257,
				"method": "rhf"
			},
			{
				"type": "occ",
				"energy": -0.23124,
				"method": "rhf"
			},
			{
				"type": "occ",
				"energy": -0.2112,
				"method": "rhf"
			},
			{
				"type": "unocc",
				"energy": 0.00325,
				"method": "rhf"
			},
			{
				"type": "unocc",
				"energy": 0.00474,
				"method": "rhf"
			},
			{
				"type": "unocc",
				"energy": 0.01799,
				"method": "rhf"
			},
			{
				"type": "unocc",
				"energy": 0.07974,
				"method": "rhf"
			},
			{
				"type": "unocc",
				"energy": 0.08034,
				"method": "rhf"
			}
		],
		"cosmo_sigma_profile": { 
			"-0.025": 0.0,
			"-0.024": 0.0,
			"-0.023": 0.0,
			"-0.022": 0.0,
			"-0.021": 0.0,
			"-0.02": 0.0,
			"-0.019": 0.0,
			"-0.018": 0.428832982488,
			"-0.017": 1.10402790342,
			"-0.016": 1.26215794301,
			"-0.015": 0.497575276084,
			"-0.014": 0.27356399448,
			"-0.013": 0.973074330577,
			"-0.012": 0.340605696845,
			"-0.011": 1.24302046836,
			"-0.01": 1.08959826587,
			"-0.009": 0.407551458907,
			"-0.008": 1.03212834161,
			"-0.007": 4.92294911685,
			"-0.006": 8.7673005904,
			"-0.005": 10.5296204464,
			"-0.004": 17.555284331,
			"-0.003": 38.8673600541,
			"-0.002": 42.1873351267,
			"-0.001": 36.5525612154,
			"0.0": 32.2077945135,
			"0.001": 27.6376070482,
			"0.002": 14.615053802,
			"0.003": 12.4636614486,
			"0.004": 14.047199045,
			"0.005": 13.366419215,
			"0.006": 7.73794206209,
			"0.007": 7.47970877332,
			"0.008": 5.60956960821,
			"0.009": 4.59529020336,
			"0.01": 5.07643033385,
			"0.011": 4.98359016716,
			"0.012": 3.93510293694,
			"0.013": 0.0544657482138,
			"0.014": 0.0,
			"0.015": 0.0,
			"0.016": 0.0,
			"0.017": 0.0,
			"0.018": 0.0,
			"0.019": 0.0,
			"0.02": 0.0,
			"0.021": 0.0,
			"0.022": 0.0,
			"0.023": 0.0,
			"0.024": 0.0,
			"0.025": 0.0
		}
	}
}
