{
	 "smiles": "O=C1COC2=C1C=CC(OCC1=CC=CC=C1)=C2", 
	 "Tm": 373.15, 
	 "num_atms": 30, 
	 "gaussian": { 
		 "optdone": 1, 
		 "sigma_profile": "yes", 
		 "theory": "DFT", 
		 "functional": "B3LYP", 
		 "basiset": "6-31G**", 
		 "properties": { 
			 "R2extent": 6043.0331, 
			 "electric_dipole_moment_norm": 3.61037195452, 
			 "electric_quadrupole_moment_norm": 14.2590153482, 
			 "total_energy": -804.482493337, 
			 "HOMO_LUMO_gap": 0.17676, 
			 "cosmo_polarized_energy": -12.18, 
			 "cosmo_cavitation_energy": 34.52, 
			 "cosmo_dispersion_energy": -24.93, 
			 "cosmo_repulsion_energy": 1.93, 
			 "cosmo_total_nonelectrostatic_energy": 11.52, 
			 "SMD_solvation_energy": 6.81 
		},
		"coords": [
			{
				"x": 2.0975828646,
				"y": 4.7142668209,
				"z": -0.6764352646,
				"element": "O" 
			},
			{
				"x": 1.2362145669,
				"y": 4.2614129966,
				"z": 0.0567657571,
				"element": "C" 
			},
			{
				"x": 0.7492459743,
				"y": 4.912346512,
				"z": 1.3681743448,
				"element": "C" 
			},
			{
				"x": -0.2706297292,
				"y": 4.0474846683,
				"z": 1.909560809,
				"element": "O" 
			},
			{
				"x": -0.4123903326,
				"y": 2.9920438602,
				"z": 1.0614341856,
				"element": "C" 
			},
			{
				"x": 0.4374576872,
				"y": 3.0437509255,
				"z": -0.0537480407,
				"element": "C" 
			},
			{
				"x": 0.400040748,
				"y": 2.0227046185,
				"z": -1.0062619569,
				"element": "C" 
			},
			{
				"x": -0.4861233146,
				"y": 0.9656338616,
				"z": -0.8383133988,
				"element": "C" 
			},
			{
				"x": -1.339450072,
				"y": 0.9390166846,
				"z": 0.2901018608,
				"element": "C" 
			},
			{
				"x": -2.2481128331,
				"y": -0.0456997473,
				"z": 0.5311466335,
				"element": "O" 
			},
			{
				"x": -2.4713927714,
				"y": -1.0691866316,
				"z": -0.4429000894,
				"element": "C" 
			},
			{
				"x": -1.4150891824,
				"y": -2.1563909993,
				"z": -0.4538501552,
				"element": "C" 
			},
			{
				"x": -0.7581020876,
				"y": -2.5302886083,
				"z": 0.7242551196,
				"element": "C" 
			},
			{
				"x": 0.1735942639,
				"y": -3.5683344016,
				"z": 0.7116212411,
				"element": "C" 
			},
			{
				"x": 0.452454387,
				"y": -4.2496565568,
				"z": -0.4753598364,
				"element": "C" 
			},
			{
				"x": -0.2018213792,
				"y": -3.8838187328,
				"z": -1.6526448374,
				"element": "C" 
			},
			{
				"x": -1.127609718,
				"y": -2.8390594732,
				"z": -1.6414702081,
				"element": "C" 
			},
			{
				"x": -1.310422688,
				"y": 1.9538541736,
				"z": 1.258955759,
				"element": "C" 
			},
			{
				"x": 0.3202602618,
				"y": 5.9028747605,
				"z": 1.1860011803,
				"element": "H" 
			},
			{
				"x": 1.5639298824,
				"y": 5.0041438586,
				"z": 2.0935940773,
				"element": "H" 
			},
			{
				"x": 1.0657282847,
				"y": 2.0594024483,
				"z": -1.863253124,
				"element": "H" 
			},
			{
				"x": -0.4995896224,
				"y": 0.1551598727,
				"z": -1.5548286523,
				"element": "H" 
			},
			{
				"x": -3.4414434461,
				"y": -1.4890828056,
				"z": -0.1562216912,
				"element": "H" 
			},
			{
				"x": -2.5874011246,
				"y": -0.6274472898,
				"z": -1.4404462477,
				"element": "H" 
			},
			{
				"x": -0.9738024372,
				"y": -1.998035489,
				"z": 1.6454840732,
				"element": "H" 
			},
			{
				"x": 0.6823284451,
				"y": -3.8462191737,
				"z": 1.6303027789,
				"element": "H" 
			},
			{
				"x": 1.1780856842,
				"y": -5.0577242357,
				"z": -0.4832050053,
				"element": "H" 
			},
			{
				"x": 0.0136533463,
				"y": -4.4043770909,
				"z": -2.581347242,
				"element": "H" 
			},
			{
				"x": -1.6291478093,
				"y": -2.5526883225,
				"z": -2.5634912302,
				"element": "H" 
			},
			{
				"x": -1.9746478486,
				"y": 1.9142134961,
				"z": 2.1136791598,
				"element": "H" 
			}
		],
		 "valence_orbital": [ 
			{
				"type": "occ",
				"energy": -0.25918,
				"method": "rhf"
			},
			{
				"type": "occ",
				"energy": -0.25479,
				"method": "rhf"
			},
			{
				"type": "occ",
				"energy": -0.24263,
				"method": "rhf"
			},
			{
				"type": "occ",
				"energy": -0.24229,
				"method": "rhf"
			},
			{
				"type": "occ",
				"energy": -0.2282,
				"method": "rhf"
			},
			{
				"type": "unocc",
				"energy": -0.05144,
				"method": "rhf"
			},
			{
				"type": "unocc",
				"energy": -0.0142,
				"method": "rhf"
			},
			{
				"type": "unocc",
				"energy": -0.01163,
				"method": "rhf"
			},
			{
				"type": "unocc",
				"energy": 0.00305,
				"method": "rhf"
			},
			{
				"type": "unocc",
				"energy": 0.05123,
				"method": "rhf"
			}
		],
		"cosmo_sigma_profile": { 
			"-0.025": 0.0,
			"-0.024": 0.0,
			"-0.023": 0.0,
			"-0.022": 0.0,
			"-0.021": 0.0,
			"-0.02": 0.0,
			"-0.019": 0.0,
			"-0.018": 0.0,
			"-0.017": 0.0,
			"-0.016": 0.0,
			"-0.015": 0.0,
			"-0.014": 0.0,
			"-0.013": 0.0,
			"-0.012": 0.0,
			"-0.011": 0.0,
			"-0.01": 0.0,
			"-0.009": 0.311251069863,
			"-0.008": 4.69210783086,
			"-0.007": 12.6775414871,
			"-0.006": 19.1196644235,
			"-0.005": 24.6067841109,
			"-0.004": 21.8712925532,
			"-0.003": 19.513397853,
			"-0.002": 15.3961505326,
			"-0.001": 16.0943115958,
			"0.0": 15.1691042416,
			"0.001": 19.7483521129,
			"0.002": 26.0144838498,
			"0.003": 21.2414990409,
			"0.004": 14.6966602168,
			"0.005": 11.9805746829,
			"0.006": 8.22810080831,
			"0.007": 3.51163865596,
			"0.008": 3.55734022178,
			"0.009": 3.84478874152,
			"0.01": 3.30350255807,
			"0.011": 2.52757563554,
			"0.012": 5.19759276266,
			"0.013": 3.15046622122,
			"0.014": 0.214694878256,
			"0.015": 0.0,
			"0.016": 0.0,
			"0.017": 0.0,
			"0.018": 0.0,
			"0.019": 0.0,
			"0.02": 0.0,
			"0.021": 0.0,
			"0.022": 0.0,
			"0.023": 0.0,
			"0.024": 0.0,
			"0.025": 0.0
		}
	}
}
