{
	 "smiles": "OC(=O)C1CN(C(=O)C1)C1=CC=C(Cl)C=C1", 
	 "Tm": 423.15, 
	 "num_atms": 26, 
	 "gaussian": { 
		 "optdone": 1, 
		 "sigma_profile": "yes", 
		 "theory": "DFT", 
		 "functional": "B3LYP", 
		 "basiset": "6-31G**", 
		 "properties": { 
			 "R2extent": 5648.5656, 
			 "electric_dipole_moment_norm": 3.33635143682, 
			 "electric_quadrupole_moment_norm": 18.9751180992, 
			 "total_energy": -1165.83483685, 
			 "HOMO_LUMO_gap": 0.2, 
			 "cosmo_polarized_energy": -19.61, 
			 "cosmo_cavitation_energy": 31.52, 
			 "cosmo_dispersion_energy": -23.05, 
			 "cosmo_repulsion_energy": 1.79, 
			 "cosmo_total_nonelectrostatic_energy": 10.26, 
			 "SMD_solvation_energy": 6.61 
		},
		"coords": [
			{
				"x": 2.0355883189,
				"y": 1.5475055677,
				"z": -2.7407743963,
				"element": "O" 
			},
			{
				"x": 2.2312365855,
				"y": 2.5172888727,
				"z": -1.8111790647,
				"element": "C" 
			},
			{
				"x": 2.9749781092,
				"y": 3.4385606921,
				"z": -2.033973366,
				"element": "O" 
			},
			{
				"x": 1.4464828122,
				"y": 2.3777412994,
				"z": -0.5031776192,
				"element": "C" 
			},
			{
				"x": 1.4798175265,
				"y": 0.9445005345,
				"z": 0.072008926,
				"element": "C" 
			},
			{
				"x": 0.3040904415,
				"y": 0.2928013597,
				"z": -0.5262573411,
				"element": "N" 
			},
			{
				"x": -0.6684309956,
				"y": 1.2320019746,
				"z": -0.8990867331,
				"element": "C" 
			},
			{
				"x": -1.7877547902,
				"y": 0.9886208563,
				"z": -1.3042648878,
				"element": "O" 
			},
			{
				"x": -0.0637694581,
				"y": 2.6198399547,
				"z": -0.7104632654,
				"element": "C" 
			},
			{
				"x": 0.0808121503,
				"y": -1.1042182208,
				"z": -0.379711448,
				"element": "C" 
			},
			{
				"x": 0.9208483759,
				"y": -1.8594342659,
				"z": 0.4534378428,
				"element": "C" 
			},
			{
				"x": 0.7384951287,
				"y": -3.2347828353,
				"z": 0.5906401963,
				"element": "C" 
			},
			{
				"x": -0.2903620247,
				"y": -3.8636593563,
				"z": -0.1044871004,
				"element": "C" 
			},
			{
				"x": -0.5244035181,
				"y": -5.5955457838,
				"z": 0.0649137886,
				"element": "Cl" 
			},
			{
				"x": -1.1354920082,
				"y": -3.1276588233,
				"z": -0.9342912194,
				"element": "C" 
			},
			{
				"x": -0.9523948607,
				"y": -1.7551548328,
				"z": -1.0766709487,
				"element": "C" 
			},
			{
				"x": 1.4149237471,
				"y": 0.8742526818,
				"z": -2.4171402927,
				"element": "H" 
			},
			{
				"x": 1.8902204585,
				"y": 3.0943640945,
				"z": 0.1878682595,
				"element": "H" 
			},
			{
				"x": 1.4028583087,
				"y": 0.9634054216,
				"z": 1.1671269696,
				"element": "H" 
			},
			{
				"x": 2.3932600989,
				"y": 0.4043696473,
				"z": -0.1926245037,
				"element": "H" 
			},
			{
				"x": -0.3126687912,
				"y": 3.2629419331,
				"z": -1.5574139909,
				"element": "H" 
			},
			{
				"x": -0.516012212,
				"y": 3.0678651311,
				"z": 0.1819580214,
				"element": "H" 
			},
			{
				"x": 1.7213021498,
				"y": -1.3886175031,
				"z": 1.011488951,
				"element": "H" 
			},
			{
				"x": 1.3924529567,
				"y": -3.8092253742,
				"z": 1.2370320502,
				"element": "H" 
			},
			{
				"x": -1.9347489549,
				"y": -3.6244893175,
				"z": -1.472947802,
				"element": "H" 
			},
			{
				"x": -1.6155295547,
				"y": -1.1842737081,
				"z": -1.7103110258,
				"element": "H" 
			}
		],
		 "valence_orbital": [ 
			{
				"type": "occ",
				"energy": -0.30646,
				"method": "rhf"
			},
			{
				"type": "occ",
				"energy": -0.28354,
				"method": "rhf"
			},
			{
				"type": "occ",
				"energy": -0.27756,
				"method": "rhf"
			},
			{
				"type": "occ",
				"energy": -0.27413,
				"method": "rhf"
			},
			{
				"type": "occ",
				"energy": -0.23881,
				"method": "rhf"
			},
			{
				"type": "unocc",
				"energy": -0.03881,
				"method": "rhf"
			},
			{
				"type": "unocc",
				"energy": -0.0269,
				"method": "rhf"
			},
			{
				"type": "unocc",
				"energy": -0.00611,
				"method": "rhf"
			},
			{
				"type": "unocc",
				"energy": 0.01191,
				"method": "rhf"
			},
			{
				"type": "unocc",
				"energy": 0.02308,
				"method": "rhf"
			}
		],
		"cosmo_sigma_profile": { 
			"-0.025": 0.0,
			"-0.024": 0.0,
			"-0.023": 0.0,
			"-0.022": 0.0,
			"-0.021": 0.0,
			"-0.02": 0.0,
			"-0.019": 0.0,
			"-0.018": 0.0,
			"-0.017": 0.0,
			"-0.016": 0.0,
			"-0.015": 0.0,
			"-0.014": 0.456571480693,
			"-0.013": 1.23602036279,
			"-0.012": 1.31962473976,
			"-0.011": 1.7024282402,
			"-0.01": 1.39041670683,
			"-0.009": 1.96037890901,
			"-0.008": 13.896677184,
			"-0.007": 25.7612613297,
			"-0.006": 16.7263422003,
			"-0.005": 14.2795152119,
			"-0.004": 11.6298829119,
			"-0.003": 9.86826114452,
			"-0.002": 9.75009219726,
			"-0.001": 11.7149829027,
			"0.0": 8.92172227467,
			"0.001": 13.5639790371,
			"0.002": 18.0136865678,
			"0.003": 21.9471183834,
			"0.004": 15.9678302085,
			"0.005": 10.6269232842,
			"0.006": 4.0992145025,
			"0.007": 3.8984793042,
			"0.008": 4.25141653411,
			"0.009": 5.08500009612,
			"0.01": 7.12162469816,
			"0.011": 8.12963921449,
			"0.012": 7.91681396629,
			"0.013": 2.49639111958,
			"0.014": 0.0399382762895,
			"0.015": 0.0,
			"0.016": 0.0,
			"0.017": 0.0,
			"0.018": 0.0,
			"0.019": 0.0,
			"0.02": 0.0,
			"0.021": 0.0,
			"0.022": 0.0,
			"0.023": 0.0,
			"0.024": 0.0,
			"0.025": 0.0
		}
	}
}
