{
	 "smiles": "CC(=O)C[N+](C)(C)CC1=C(C)C=CC=C1", 
	 "Tm": 396.15, 
	 "num_atms": 35, 
	 "gaussian": { 
		 "optdone": 1, 
		 "sigma_profile": "yes", 
		 "theory": "DFT", 
		 "functional": "B3LYP", 
		 "basiset": "6-31G**", 
		 "properties": { 
			 "R2extent": 4074.6777, 
			 "electric_dipole_moment_norm": 3.56878205975, 
			 "electric_quadrupole_moment_norm": 26.559634964, 
			 "total_energy": -637.188516806, 
			 "HOMO_LUMO_gap": 0.18701, 
			 "cosmo_polarized_energy": -56.85, 
			 "cosmo_cavitation_energy": 34.39, 
			 "cosmo_dispersion_energy": -24.1, 
			 "cosmo_repulsion_energy": 1.84, 
			 "cosmo_total_nonelectrostatic_energy": 12.13, 
			 "SMD_solvation_energy": 7.18 
		},
		"coords": [
			{
				"x": -1.5419933122,
				"y": 3.7375426666,
				"z": 1.5198474042,
				"element": "C" 
			},
			{
				"x": -1.46859389,
				"y": 2.278394093,
				"z": 1.1462052354,
				"element": "C" 
			},
			{
				"x": -2.1275078561,
				"y": 1.4154476165,
				"z": 1.6896058503,
				"element": "O" 
			},
			{
				"x": -0.487693655,
				"y": 1.9648656944,
				"z": -0.0005033349,
				"element": "C" 
			},
			{
				"x": -0.4449303479,
				"y": 0.537455555,
				"z": -0.5021252773,
				"element": "N" 
			},
			{
				"x": 0.5100703451,
				"y": 0.4971665135,
				"z": -1.6675276091,
				"element": "C" 
			},
			{
				"x": -1.8039997439,
				"y": 0.1026583153,
				"z": -0.9958520571,
				"element": "C" 
			},
			{
				"x": 0.0774333106,
				"y": -0.398170106,
				"z": 0.6461506498,
				"element": "C" 
			},
			{
				"x": 0.1679974443,
				"y": -1.859240289,
				"z": 0.3007636133,
				"element": "C" 
			},
			{
				"x": -0.869266811,
				"y": -2.7753220294,
				"z": 0.5995046648,
				"element": "C" 
			},
			{
				"x": -2.1804716654,
				"y": -2.3998988591,
				"z": 1.2582395903,
				"element": "C" 
			},
			{
				"x": -0.6652221602,
				"y": -4.1260759035,
				"z": 0.2751430795,
				"element": "C" 
			},
			{
				"x": 0.5144115158,
				"y": -4.5753462028,
				"z": -0.3114260781,
				"element": "C" 
			},
			{
				"x": 1.5486961512,
				"y": -3.6746021543,
				"z": -0.5740616655,
				"element": "C" 
			},
			{
				"x": 1.371252766,
				"y": -2.3326571964,
				"z": -0.2594811445,
				"element": "C" 
			},
			{
				"x": -2.0839477891,
				"y": 3.8395132324,
				"z": 2.4604136478,
				"element": "H" 
			},
			{
				"x": -0.547294567,
				"y": 4.186947601,
				"z": 1.608472297,
				"element": "H" 
			},
			{
				"x": -2.0796436001,
				"y": 4.2912052838,
				"z": 0.7398519631,
				"element": "H" 
			},
			{
				"x": 0.5247303182,
				"y": 2.227272763,
				"z": 0.3238210598,
				"element": "H" 
			},
			{
				"x": -0.7265319133,
				"y": 2.6067221327,
				"z": -0.85485686,
				"element": "H" 
			},
			{
				"x": 1.4923810923,
				"y": 0.8393335106,
				"z": -1.3393840492,
				"element": "H" 
			},
			{
				"x": 0.5760617721,
				"y": -0.5273437729,
				"z": -2.0289102177,
				"element": "H" 
			},
			{
				"x": 0.1327223857,
				"y": 1.1504364945,
				"z": -2.4552445922,
				"element": "H" 
			},
			{
				"x": -2.5050197635,
				"y": 0.1266183821,
				"z": -0.1671784848,
				"element": "H" 
			},
			{
				"x": -1.7112706192,
				"y": -0.9065715391,
				"z": -1.3934623234,
				"element": "H" 
			},
			{
				"x": -2.1168227235,
				"y": 0.7875767556,
				"z": -1.7856878074,
				"element": "H" 
			},
			{
				"x": 1.0648306376,
				"y": 0.0076083689,
				"z": 0.879844938,
				"element": "H" 
			},
			{
				"x": -0.5935525791,
				"y": -0.2029911347,
				"z": 1.4771526736,
				"element": "H" 
			},
			{
				"x": -2.4803950275,
				"y": -3.179592622,
				"z": 1.9632342445,
				"element": "H" 
			},
			{
				"x": -2.147660132,
				"y": -1.4588319643,
				"z": 1.8107071254,
				"element": "H" 
			},
			{
				"x": -2.9887288232,
				"y": -2.3190025033,
				"z": 0.5210339262,
				"element": "H" 
			},
			{
				"x": -1.4511148052,
				"y": -4.8401669861,
				"z": 0.5048125502,
				"element": "H" 
			},
			{
				"x": 0.6355657297,
				"y": -5.6291452576,
				"z": -0.5421930092,
				"element": "H" 
			},
			{
				"x": 2.4858478475,
				"y": -4.0169834485,
				"z": -1.000440913,
				"element": "H" 
			},
			{
				"x": 2.1905604684,
				"y": -1.63752301,
				"z": -0.4264690897,
				"element": "H" 
			}
		],
		 "valence_orbital": [ 
			{
				"type": "occ",
				"energy": -0.45788,
				"method": "rhf"
			},
			{
				"type": "occ",
				"energy": -0.45683,
				"method": "rhf"
			},
			{
				"type": "occ",
				"energy": -0.40767,
				"method": "rhf"
			},
			{
				"type": "occ",
				"energy": -0.3723,
				"method": "rhf"
			},
			{
				"type": "occ",
				"energy": -0.36121,
				"method": "rhf"
			},
			{
				"type": "unocc",
				"energy": -0.1742,
				"method": "rhf"
			},
			{
				"type": "unocc",
				"energy": -0.14406,
				"method": "rhf"
			},
			{
				"type": "unocc",
				"energy": -0.12232,
				"method": "rhf"
			},
			{
				"type": "unocc",
				"energy": -0.09402,
				"method": "rhf"
			},
			{
				"type": "unocc",
				"energy": -0.0543,
				"method": "rhf"
			}
		],
		"cosmo_sigma_profile": { 
			"-0.025": 0.0,
			"-0.024": 0.0,
			"-0.023": 0.0,
			"-0.022": 0.0,
			"-0.021": 0.0,
			"-0.02": 0.0,
			"-0.019": 0.0,
			"-0.018": 0.0,
			"-0.017": 0.0,
			"-0.016": 0.0,
			"-0.015": 0.0840353700506,
			"-0.014": 0.903875479205,
			"-0.013": 2.17405860438,
			"-0.012": 4.58722725788,
			"-0.011": 9.73844665257,
			"-0.01": 9.25761871981,
			"-0.009": 12.0291977836,
			"-0.008": 14.5818144809,
			"-0.007": 17.082866662,
			"-0.006": 27.144259339,
			"-0.005": 32.8070088409,
			"-0.004": 26.17549421,
			"-0.003": 19.2261879751,
			"-0.002": 18.8013284758,
			"-0.001": 15.0201453291,
			"0.0": 11.5216453658,
			"0.001": 8.75426902334,
			"0.002": 7.53454750273,
			"0.003": 7.73116530203,
			"0.004": 9.46593185829,
			"0.005": 6.4564051101,
			"0.006": 0.978016909006,
			"0.007": 0.473578584138,
			"0.008": 1.73161868334,
			"0.009": 1.47008055919,
			"0.01": 1.29840163734,
			"0.011": 1.21376790082,
			"0.012": 0.286751362573,
			"0.013": 0.0,
			"0.014": 0.0,
			"0.015": 0.0,
			"0.016": 0.0,
			"0.017": 0.0,
			"0.018": 0.0,
			"0.019": 0.0,
			"0.02": 0.0,
			"0.021": 0.0,
			"0.022": 0.0,
			"0.023": 0.0,
			"0.024": 0.0,
			"0.025": 0.0
		}
	}
}
