{
	 "smiles": "FC1=CC(Br)=CC(F)=C1C=O", 
	 "Tm": 350.65, 
	 "num_atms": 14, 
	 "gaussian": { 
		 "optdone": 1, 
		 "sigma_profile": "yes", 
		 "theory": "DFT", 
		 "functional": "B3LYP", 
		 "basiset": "6-31G**", 
		 "properties": { 
			 "R2extent": 3059.1947, 
			 "electric_dipole_moment_norm": 2.99545706863, 
			 "electric_quadrupole_moment_norm": 8.47706002161, 
			 "total_energy": -3114.82866564, 
			 "HOMO_LUMO_gap": 0.18073, 
			 "cosmo_polarized_energy": -7.44, 
			 "cosmo_cavitation_energy": 22.56, 
			 "cosmo_dispersion_energy": -16.73, 
			 "cosmo_repulsion_energy": 1.29, 
			 "cosmo_total_nonelectrostatic_energy": 7.12, 
			 "SMD_solvation_energy": 4.76 
		},
		"coords": [
			{
				"x": -0.16368684,
				"y": -1.6759086006,
				"z": -2.3181533775,
				"element": "F" 
			},
			{
				"x": 0.0532659768,
				"y": -1.0610751781,
				"z": -1.1551201423,
				"element": "C" 
			},
			{
				"x": 1.3126515759,
				"y": -0.5140687319,
				"z": -0.9402112009,
				"element": "C" 
			},
			{
				"x": 1.5551315839,
				"y": 0.1321828304,
				"z": 0.2710479481,
				"element": "C" 
			},
			{
				"x": 3.2691104674,
				"y": 0.8886146303,
				"z": 0.588477727,
				"element": "Br" 
			},
			{
				"x": 0.5742338971,
				"y": 0.2389443276,
				"z": 1.256209916,
				"element": "C" 
			},
			{
				"x": -0.6652668217,
				"y": -0.3243993292,
				"z": 0.9907714828,
				"element": "C" 
			},
			{
				"x": -1.615493458,
				"y": -0.2244136332,
				"z": 1.9376114676,
				"element": "F" 
			},
			{
				"x": -0.9817206614,
				"y": -0.9895675185,
				"z": -0.2047804234,
				"element": "C" 
			},
			{
				"x": -2.3338850326,
				"y": -1.5649582395,
				"z": -0.4102054773,
				"element": "C" 
			},
			{
				"x": -2.6949387242,
				"y": -2.1546366777,
				"z": -1.4090246749,
				"element": "O" 
			},
			{
				"x": 2.0721692568,
				"y": -0.5984220752,
				"z": -1.7066582973,
				"element": "H" 
			},
			{
				"x": 0.7551995066,
				"y": 0.7390736344,
				"z": 2.1986436601,
				"element": "H" 
			},
			{
				"x": -3.0187707266,
				"y": -1.4130654387,
				"z": 0.445591392,
				"element": "H" 
			}
		],
		 "valence_orbital": [ 
			{
				"type": "occ",
				"energy": -0.32745,
				"method": "rhf"
			},
			{
				"type": "occ",
				"energy": -0.31132,
				"method": "rhf"
			},
			{
				"type": "occ",
				"energy": -0.2771,
				"method": "rhf"
			},
			{
				"type": "occ",
				"energy": -0.27117,
				"method": "rhf"
			},
			{
				"type": "occ",
				"energy": -0.26246,
				"method": "rhf"
			},
			{
				"type": "unocc",
				"energy": -0.08173,
				"method": "rhf"
			},
			{
				"type": "unocc",
				"energy": -0.03037,
				"method": "rhf"
			},
			{
				"type": "unocc",
				"energy": -0.0207,
				"method": "rhf"
			},
			{
				"type": "unocc",
				"energy": 0.0132,
				"method": "rhf"
			},
			{
				"type": "unocc",
				"energy": 0.09043,
				"method": "rhf"
			}
		],
		"cosmo_sigma_profile": { 
			"-0.025": 0.0,
			"-0.024": 0.0,
			"-0.023": 0.0,
			"-0.022": 0.0,
			"-0.021": 0.0,
			"-0.02": 0.0,
			"-0.019": 0.0,
			"-0.018": 0.0,
			"-0.017": 0.0,
			"-0.016": 0.0,
			"-0.015": 0.0,
			"-0.014": 0.0,
			"-0.013": 0.0,
			"-0.012": 0.0,
			"-0.011": 0.0,
			"-0.01": 0.369523731662,
			"-0.009": 2.60433334925,
			"-0.008": 3.27576341295,
			"-0.007": 4.15014210484,
			"-0.006": 7.23433088248,
			"-0.005": 10.1560214941,
			"-0.004": 9.19695137971,
			"-0.003": 14.5488570434,
			"-0.002": 22.9495870982,
			"-0.001": 18.4226132244,
			"0.0": 17.5919226383,
			"0.001": 10.5381239094,
			"0.002": 15.4587942024,
			"0.003": 23.2687124078,
			"0.004": 5.70642297153,
			"0.005": 1.48267684145,
			"0.006": 2.35766950716,
			"0.007": 1.95719305723,
			"0.008": 2.21898802329,
			"0.009": 2.57453229632,
			"0.01": 3.56738883625,
			"0.011": 4.6345028793,
			"0.012": 1.72209716227,
			"0.013": 0.171716484368,
			"0.014": 0.0,
			"0.015": 0.0,
			"0.016": 0.0,
			"0.017": 0.0,
			"0.018": 0.0,
			"0.019": 0.0,
			"0.02": 0.0,
			"0.021": 0.0,
			"0.022": 0.0,
			"0.023": 0.0,
			"0.024": 0.0,
			"0.025": 0.0
		}
	}
}
