{
	 "smiles": "CC1=CC1", 
	 "Tm": 173.15, 
	 "num_atms": 10, 
	 "gaussian": { 
		 "optdone": 1, 
		 "sigma_profile": "yes", 
		 "theory": "DFT", 
		 "functional": "B3LYP", 
		 "basiset": "6-31G**", 
		 "properties": { 
			 "R2extent": 330.5307, 
			 "electric_dipole_moment_norm": 0.920768624574, 
			 "electric_quadrupole_moment_norm": 1.24065841794, 
			 "total_energy": -155.950416616, 
			 "HOMO_LUMO_gap": 0.26207, 
			 "cosmo_polarized_energy": -1.71, 
			 "cosmo_cavitation_energy": 13.44, 
			 "cosmo_dispersion_energy": -9.82, 
			 "cosmo_repulsion_energy": 0.91, 
			 "cosmo_total_nonelectrostatic_energy": 4.53, 
			 "SMD_solvation_energy": 2.5 
		},
		"coords": [
			{
				"x": -0.2675135235,
				"y": -1.7586750106,
				"z": -0.2810338578,
				"element": "C" 
			},
			{
				"x": 0.5244903331,
				"y": -0.5190486318,
				"z": -0.1295056434,
				"element": "C" 
			},
			{
				"x": 1.6172445959,
				"y": 0.1123640805,
				"z": 0.1694525532,
				"element": "C" 
			},
			{
				"x": 0.4693029418,
				"y": 0.9847978226,
				"z": -0.2725800795,
				"element": "C" 
			},
			{
				"x": 0.3167108344,
				"y": -2.6459772187,
				"z": -0.0191337964,
				"element": "H" 
			},
			{
				"x": -0.6213592479,
				"y": -1.8658120976,
				"z": -1.3135329524,
				"element": "H" 
			},
			{
				"x": -1.1588647255,
				"y": -1.7266068675,
				"z": 0.3570917575,
				"element": "H" 
			},
			{
				"x": 2.6440363214,
				"y": 0.0989161696,
				"z": 0.5009203134,
				"element": "H" 
			},
			{
				"x": -0.0796452768,
				"y": 1.5829900782,
				"z": 0.4626183524,
				"element": "H" 
			},
			{
				"x": 0.4775977473,
				"y": 1.4386516753,
				"z": -1.2693966471,
				"element": "H" 
			}
		],
		 "valence_orbital": [ 
			{
				"type": "occ",
				"energy": -0.42422,
				"method": "rhf"
			},
			{
				"type": "occ",
				"energy": -0.40013,
				"method": "rhf"
			},
			{
				"type": "occ",
				"energy": -0.32392,
				"method": "rhf"
			},
			{
				"type": "occ",
				"energy": -0.27758,
				"method": "rhf"
			},
			{
				"type": "occ",
				"energy": -0.23361,
				"method": "rhf"
			},
			{
				"type": "unocc",
				"energy": 0.02846,
				"method": "rhf"
			},
			{
				"type": "unocc",
				"energy": 0.11529,
				"method": "rhf"
			},
			{
				"type": "unocc",
				"energy": 0.13274,
				"method": "rhf"
			},
			{
				"type": "unocc",
				"energy": 0.1417,
				"method": "rhf"
			},
			{
				"type": "unocc",
				"energy": 0.14895,
				"method": "rhf"
			}
		],
		"cosmo_sigma_profile": { 
			"-0.025": 0.0,
			"-0.024": 0.0,
			"-0.023": 0.0,
			"-0.022": 0.0,
			"-0.021": 0.0,
			"-0.02": 0.0,
			"-0.019": 0.0,
			"-0.018": 0.0,
			"-0.017": 0.0,
			"-0.016": 0.0,
			"-0.015": 0.0,
			"-0.014": 0.0,
			"-0.013": 0.0,
			"-0.012": 0.0,
			"-0.011": 0.0,
			"-0.01": 0.0,
			"-0.009": 0.0,
			"-0.008": 0.537200752997,
			"-0.007": 1.41736798628,
			"-0.006": 1.9010870916,
			"-0.005": 4.30825078165,
			"-0.004": 7.81822749961,
			"-0.003": 6.15997176615,
			"-0.002": 11.7939115884,
			"-0.001": 13.3781357197,
			"0.0": 12.0687399487,
			"0.001": 10.5705125057,
			"0.002": 11.0274706134,
			"0.003": 9.69784567191,
			"0.004": 8.56317387617,
			"0.005": 5.8491566497,
			"0.006": 1.49765653398,
			"0.007": 0.0,
			"0.008": 0.0,
			"0.009": 0.0,
			"0.01": 0.0,
			"0.011": 0.0,
			"0.012": 0.0,
			"0.013": 0.0,
			"0.014": 0.0,
			"0.015": 0.0,
			"0.016": 0.0,
			"0.017": 0.0,
			"0.018": 0.0,
			"0.019": 0.0,
			"0.02": 0.0,
			"0.021": 0.0,
			"0.022": 0.0,
			"0.023": 0.0,
			"0.024": 0.0,
			"0.025": 0.0
		}
	}
}
