{
	 "smiles": "N#CC1=CC=CC(=C1)C1=CC=CS1", 
	 "Tm": 332.15, 
	 "num_atms": 20, 
	 "gaussian": { 
		 "optdone": 1, 
		 "sigma_profile": "yes", 
		 "theory": "DFT", 
		 "functional": "B3LYP", 
		 "basiset": "6-31G**", 
		 "properties": { 
			 "R2extent": 3770.3444, 
			 "electric_dipole_moment_norm": 5.24135756269, 
			 "electric_quadrupole_moment_norm": 15.6649823447, 
			 "total_energy": -876.301815112, 
			 "HOMO_LUMO_gap": 0.16947, 
			 "cosmo_polarized_energy": -10.01, 
			 "cosmo_cavitation_energy": 27.21, 
			 "cosmo_dispersion_energy": -19.92, 
			 "cosmo_repulsion_energy": 1.51, 
			 "cosmo_total_nonelectrostatic_energy": 8.8, 
			 "SMD_solvation_energy": 5.94 
		},
		"coords": [
			{
				"x": -3.3337998329,
				"y": 0.8871063647,
				"z": 1.0928198768,
				"element": "N" 
			},
			{
				"x": -2.1774063765,
				"y": 0.8158834623,
				"z": 0.9897557361,
				"element": "C" 
			},
			{
				"x": -0.7501569247,
				"y": 0.7273894997,
				"z": 0.8668676683,
				"element": "C" 
			},
			{
				"x": 0.0481610974,
				"y": 0.6493676487,
				"z": 2.0196028781,
				"element": "C" 
			},
			{
				"x": 1.4315269867,
				"y": 0.5665674753,
				"z": 1.8795612043,
				"element": "C" 
			},
			{
				"x": 2.016418433,
				"y": 0.5555231294,
				"z": 0.6153271663,
				"element": "C" 
			},
			{
				"x": 1.2309984629,
				"y": 0.6446986623,
				"z": -0.5503178223,
				"element": "C" 
			},
			{
				"x": -0.1619956006,
				"y": 0.7309026664,
				"z": -0.406034685,
				"element": "C" 
			},
			{
				"x": 1.8668682302,
				"y": 0.6515590081,
				"z": -1.8738787055,
				"element": "C" 
			},
			{
				"x": 3.1294534284,
				"y": 1.0862015585,
				"z": -2.2108446975,
				"element": "C" 
			},
			{
				"x": 3.4287457463,
				"y": 0.9504869843,
				"z": -3.5966087783,
				"element": "C" 
			},
			{
				"x": 2.3936041318,
				"y": 0.4116754636,
				"z": -4.3109488554,
				"element": "C" 
			},
			{
				"x": 1.0354117741,
				"y": 0.0560761308,
				"z": -3.2972283067,
				"element": "S" 
			},
			{
				"x": -0.4161950308,
				"y": 0.6508897087,
				"z": 2.9995566352,
				"element": "H" 
			},
			{
				"x": 2.0589775898,
				"y": 0.4962464031,
				"z": 2.7627156321,
				"element": "H" 
			},
			{
				"x": 3.0931530819,
				"y": 0.4566274842,
				"z": 0.5234731438,
				"element": "H" 
			},
			{
				"x": -0.7978249296,
				"y": 0.8192061168,
				"z": -1.2806456779,
				"element": "H" 
			},
			{
				"x": 3.8138821303,
				"y": 1.5203660098,
				"z": -1.4909292327,
				"element": "H" 
			},
			{
				"x": 4.3706116281,
				"y": 1.2487112702,
				"z": -4.0425428692,
				"element": "H" 
			},
			{
				"x": 2.3460659744,
				"y": 0.1980149531,
				"z": -5.3697003106,
				"element": "H" 
			}
		],
		 "valence_orbital": [ 
			{
				"type": "occ",
				"energy": -0.33037,
				"method": "rhf"
			},
			{
				"type": "occ",
				"energy": -0.29281,
				"method": "rhf"
			},
			{
				"type": "occ",
				"energy": -0.27023,
				"method": "rhf"
			},
			{
				"type": "occ",
				"energy": -0.26249,
				"method": "rhf"
			},
			{
				"type": "occ",
				"energy": -0.22896,
				"method": "rhf"
			},
			{
				"type": "unocc",
				"energy": -0.05949,
				"method": "rhf"
			},
			{
				"type": "unocc",
				"energy": -0.04707,
				"method": "rhf"
			},
			{
				"type": "unocc",
				"energy": 0.0017,
				"method": "rhf"
			},
			{
				"type": "unocc",
				"energy": 0.02298,
				"method": "rhf"
			},
			{
				"type": "unocc",
				"energy": 0.03698,
				"method": "rhf"
			}
		],
		"cosmo_sigma_profile": { 
			"-0.025": 0.0,
			"-0.024": 0.0,
			"-0.023": 0.0,
			"-0.022": 0.0,
			"-0.021": 0.0,
			"-0.02": 0.0,
			"-0.019": 0.0,
			"-0.018": 0.0,
			"-0.017": 0.0,
			"-0.016": 0.0,
			"-0.015": 0.0,
			"-0.014": 0.0,
			"-0.013": 0.0,
			"-0.012": 0.0,
			"-0.011": 0.0,
			"-0.01": 0.0,
			"-0.009": 0.801965951308,
			"-0.008": 5.02356739113,
			"-0.007": 13.7252202904,
			"-0.006": 14.8237337131,
			"-0.005": 13.1544274046,
			"-0.004": 13.3054584951,
			"-0.003": 11.1872914017,
			"-0.002": 14.3628315747,
			"-0.001": 15.8202283512,
			"0.0": 14.4090325112,
			"0.001": 19.7581947268,
			"0.002": 23.9348892731,
			"0.003": 17.291700435,
			"0.004": 14.6132484668,
			"0.005": 8.16172341422,
			"0.006": 2.82194081728,
			"0.007": 3.28163067046,
			"0.008": 3.27517145857,
			"0.009": 3.41312096863,
			"0.01": 3.02442574132,
			"0.011": 2.87733261827,
			"0.012": 2.40585074513,
			"0.013": 1.46093805093,
			"0.014": 0.0147629370182,
			"0.015": 0.0,
			"0.016": 0.0,
			"0.017": 0.0,
			"0.018": 0.0,
			"0.019": 0.0,
			"0.02": 0.0,
			"0.021": 0.0,
			"0.022": 0.0,
			"0.023": 0.0,
			"0.024": 0.0,
			"0.025": 0.0
		}
	}
}
