{
	 "smiles": "COC1=CC(=CC=C1)C1CC(=O)CC(=O)C1", 
	 "Tm": 405.15, 
	 "num_atms": 30, 
	 "gaussian": { 
		 "optdone": 1, 
		 "sigma_profile": "yes", 
		 "theory": "DFT", 
		 "functional": "B3LYP", 
		 "basiset": "6-31G**", 
		 "properties": { 
			 "R2extent": 4013.4288, 
			 "electric_dipole_moment_norm": 3.30094563118, 
			 "electric_quadrupole_moment_norm": 16.3206653097, 
			 "total_energy": -729.477293316, 
			 "HOMO_LUMO_gap": 0.17682, 
			 "cosmo_polarized_energy": -15.9, 
			 "cosmo_cavitation_energy": 32.64, 
			 "cosmo_dispersion_energy": -22.58, 
			 "cosmo_repulsion_energy": 1.75, 
			 "cosmo_total_nonelectrostatic_energy": 11.82, 
			 "SMD_solvation_energy": 7.03 
		},
		"coords": [
			{
				"x": -0.306925178,
				"y": -3.8395742832,
				"z": 0.720872453,
				"element": "C" 
			},
			{
				"x": 1.0792644687,
				"y": -3.6344384118,
				"z": 0.4844598776,
				"element": "O" 
			},
			{
				"x": 1.526258237,
				"y": -2.3594104504,
				"z": 0.3041068052,
				"element": "C" 
			},
			{
				"x": 0.6972749321,
				"y": -1.2284850368,
				"z": 0.3154799527,
				"element": "C" 
			},
			{
				"x": 1.2415591943,
				"y": 0.0501595603,
				"z": 0.1248193489,
				"element": "C" 
			},
			{
				"x": 2.6188633857,
				"y": 0.1775414654,
				"z": -0.092718789,
				"element": "C" 
			},
			{
				"x": 3.4389129744,
				"y": -0.9523059729,
				"z": -0.1059367449,
				"element": "C" 
			},
			{
				"x": 2.9039057677,
				"y": -2.2199115014,
				"z": 0.0930995255,
				"element": "C" 
			},
			{
				"x": 0.3906637457,
				"y": 1.3199577222,
				"z": 0.1503560519,
				"element": "C" 
			},
			{
				"x": 0.6559267748,
				"y": 2.1626699248,
				"z": 1.4315178337,
				"element": "C" 
			},
			{
				"x": 0.0058416493,
				"y": 1.5663501776,
				"z": 2.6702889365,
				"element": "C" 
			},
			{
				"x": 0.6001326269,
				"y": 1.3760173978,
				"z": 3.7098716184,
				"element": "O" 
			},
			{
				"x": -1.4818454899,
				"y": 1.2382932106,
				"z": 2.5247081674,
				"element": "C" 
			},
			{
				"x": -1.8197117009,
				"y": 0.5364090056,
				"z": 1.2124375584,
				"element": "C" 
			},
			{
				"x": -2.5953809995,
				"y": -0.3988926164,
				"z": 1.1726786696,
				"element": "O" 
			},
			{
				"x": -1.1295449687,
				"y": 1.0915595276,
				"z": -0.0269481727,
				"element": "C" 
			},
			{
				"x": -0.9170206943,
				"y": -3.509522983,
				"z": -0.1293573801,
				"element": "H" 
			},
			{
				"x": -0.4314499088,
				"y": -4.91497186,
				"z": 0.855950882,
				"element": "H" 
			},
			{
				"x": -0.646484901,
				"y": -3.3189176344,
				"z": 1.6246969401,
				"element": "H" 
			},
			{
				"x": -0.3665640927,
				"y": -1.3533032093,
				"z": 0.4614800639,
				"element": "H" 
			},
			{
				"x": 3.0523474679,
				"y": 1.1608605243,
				"z": -0.2561636728,
				"element": "H" 
			},
			{
				"x": 4.5060119286,
				"y": -0.8428710864,
				"z": -0.2774417964,
				"element": "H" 
			},
			{
				"x": 3.5241701898,
				"y": -3.1098601682,
				"z": 0.0859683293,
				"element": "H" 
			},
			{
				"x": 0.7182810496,
				"y": 1.935137128,
				"z": -0.6957747759,
				"element": "H" 
			},
			{
				"x": 1.7248360016,
				"y": 2.2738568424,
				"z": 1.621410082,
				"element": "H" 
			},
			{
				"x": 0.229237078,
				"y": 3.1662461026,
				"z": 1.2851628765,
				"element": "H" 
			},
			{
				"x": -2.0186464014,
				"y": 2.1999887051,
				"z": 2.5204994678,
				"element": "H" 
			},
			{
				"x": -1.8328894065,
				"y": 0.6506820456,
				"z": 3.37414255,
				"element": "H" 
			},
			{
				"x": -1.3473875871,
				"y": 0.434151185,
				"z": -0.8715455466,
				"element": "H" 
			},
			{
				"x": -1.5941361433,
				"y": 2.0657846893,
				"z": -0.2382211121,
				"element": "H" 
			}
		],
		 "valence_orbital": [ 
			{
				"type": "occ",
				"energy": -0.31453,
				"method": "rhf"
			},
			{
				"type": "occ",
				"energy": -0.26443,
				"method": "rhf"
			},
			{
				"type": "occ",
				"energy": -0.2514,
				"method": "rhf"
			},
			{
				"type": "occ",
				"energy": -0.24692,
				"method": "rhf"
			},
			{
				"type": "occ",
				"energy": -0.21768,
				"method": "rhf"
			},
			{
				"type": "unocc",
				"energy": -0.04086,
				"method": "rhf"
			},
			{
				"type": "unocc",
				"energy": -0.01665,
				"method": "rhf"
			},
			{
				"type": "unocc",
				"energy": -0.00327,
				"method": "rhf"
			},
			{
				"type": "unocc",
				"energy": 0.00965,
				"method": "rhf"
			},
			{
				"type": "unocc",
				"energy": 0.07688,
				"method": "rhf"
			}
		],
		"cosmo_sigma_profile": { 
			"-0.025": 0.0,
			"-0.024": 0.0,
			"-0.023": 0.0,
			"-0.022": 0.0,
			"-0.021": 0.0,
			"-0.02": 0.0,
			"-0.019": 0.0,
			"-0.018": 0.0,
			"-0.017": 0.0,
			"-0.016": 0.0,
			"-0.015": 0.0,
			"-0.014": 0.0,
			"-0.013": 0.0,
			"-0.012": 0.0,
			"-0.011": 0.16682893663,
			"-0.01": 2.5586976991,
			"-0.009": 4.44903113626,
			"-0.008": 4.50904604203,
			"-0.007": 6.02792423986,
			"-0.006": 13.0544984573,
			"-0.005": 25.1046845613,
			"-0.004": 27.614438403,
			"-0.003": 28.3255035904,
			"-0.002": 19.0568426851,
			"-0.001": 13.6322163168,
			"0.0": 9.97268884314,
			"0.001": 10.3763525915,
			"0.002": 10.7957717461,
			"0.003": 10.8943962284,
			"0.004": 12.7949188507,
			"0.005": 12.8856152054,
			"0.006": 9.69778874969,
			"0.007": 4.00345251406,
			"0.008": 4.67425770505,
			"0.009": 4.93210678666,
			"0.01": 5.96325408468,
			"0.011": 8.47949424267,
			"0.012": 6.55310115804,
			"0.013": 1.26014541806,
			"0.014": 0.0,
			"0.015": 0.0,
			"0.016": 0.0,
			"0.017": 0.0,
			"0.018": 0.0,
			"0.019": 0.0,
			"0.02": 0.0,
			"0.021": 0.0,
			"0.022": 0.0,
			"0.023": 0.0,
			"0.024": 0.0,
			"0.025": 0.0
		}
	}
}
