{
	 "smiles": "OC(=O)CC1=CC2=C(OCCO2)C(Cl)=C1", 
	 "Tm": 450.15, 
	 "num_atms": 24, 
	 "gaussian": { 
		 "optdone": 1, 
		 "sigma_profile": "yes", 
		 "theory": "DFT", 
		 "functional": "B3LYP", 
		 "basiset": "6-31G**", 
		 "properties": { 
			 "R2extent": 4198.814, 
			 "electric_dipole_moment_norm": 1.48552779173, 
			 "electric_quadrupole_moment_norm": 19.7913197231, 
			 "total_energy": -1147.5707893, 
			 "HOMO_LUMO_gap": 0.20679, 
			 "cosmo_polarized_energy": -14.05, 
			 "cosmo_cavitation_energy": 30.12, 
			 "cosmo_dispersion_energy": -22.3, 
			 "cosmo_repulsion_energy": 1.77, 
			 "cosmo_total_nonelectrostatic_energy": 9.6, 
			 "SMD_solvation_energy": 6.26 
		},
		"coords": [
			{
				"x": -2.885753098,
				"y": -1.3986446077,
				"z": -3.4869948531,
				"element": "O" 
			},
			{
				"x": -3.2551029339,
				"y": -1.2490275884,
				"z": -2.1942404939,
				"element": "C" 
			},
			{
				"x": -3.8408485207,
				"y": -2.1102140103,
				"z": -1.5749433271,
				"element": "O" 
			},
			{
				"x": -2.8209462839,
				"y": 0.0907700393,
				"z": -1.6272885765,
				"element": "C" 
			},
			{
				"x": -1.52596118,
				"y": -0.0370492688,
				"z": -0.8387338644,
				"element": "C" 
			},
			{
				"x": -1.4619475221,
				"y": -0.8725014283,
				"z": 0.2803892002,
				"element": "C" 
			},
			{
				"x": -0.2819883516,
				"y": -0.9804602837,
				"z": 1.0120136123,
				"element": "C" 
			},
			{
				"x": 0.8696421877,
				"y": -0.2651762284,
				"z": 0.6295559181,
				"element": "C" 
			},
			{
				"x": 2.0481750401,
				"y": -0.362778286,
				"z": 1.314084178,
				"element": "O" 
			},
			{
				"x": 2.1173587555,
				"y": -1.4888568546,
				"z": 2.1912891042,
				"element": "C" 
			},
			{
				"x": 0.829985327,
				"y": -1.605596083,
				"z": 2.988785536,
				"element": "C" 
			},
			{
				"x": -0.274753765,
				"y": -1.8070237667,
				"z": 2.1067235714,
				"element": "O" 
			},
			{
				"x": 0.7869402377,
				"y": 0.5740071982,
				"z": -0.4866862786,
				"element": "C" 
			},
			{
				"x": 2.2031992203,
				"y": 1.4825135634,
				"z": -0.9725032639,
				"element": "Cl" 
			},
			{
				"x": -0.3946396017,
				"y": 0.6921710994,
				"z": -1.2165226599,
				"element": "C" 
			},
			{
				"x": -3.1700860686,
				"y": -2.2911234158,
				"z": -3.7486079571,
				"element": "H" 
			},
			{
				"x": -2.6986199062,
				"y": 0.811203026,
				"z": -2.4384318463,
				"element": "H" 
			},
			{
				"x": -3.6286817378,
				"y": 0.4339246056,
				"z": -0.9730514325,
				"element": "H" 
			},
			{
				"x": -2.323150353,
				"y": -1.4526640665,
				"z": 0.594358913,
				"element": "H" 
			},
			{
				"x": 2.9779682164,
				"y": -1.3174245497,
				"z": 2.8420329032,
				"element": "H" 
			},
			{
				"x": 2.2834319418,
				"y": -2.4043487944,
				"z": 1.6081192664,
				"element": "H" 
			},
			{
				"x": 0.6729379175,
				"y": -0.6951085929,
				"z": 3.5828008887,
				"element": "H" 
			},
			{
				"x": 0.852383136,
				"y": -2.4689909578,
				"z": 3.6581796727,
				"element": "H" 
			},
			{
				"x": -0.4192426576,
				"y": 1.3500992513,
				"z": -2.0780282112,
				"element": "H" 
			}
		],
		 "valence_orbital": [ 
			{
				"type": "occ",
				"energy": -0.30809,
				"method": "rhf"
			},
			{
				"type": "occ",
				"energy": -0.30438,
				"method": "rhf"
			},
			{
				"type": "occ",
				"energy": -0.27721,
				"method": "rhf"
			},
			{
				"type": "occ",
				"energy": -0.23336,
				"method": "rhf"
			},
			{
				"type": "occ",
				"energy": -0.21998,
				"method": "rhf"
			},
			{
				"type": "unocc",
				"energy": -0.01319,
				"method": "rhf"
			},
			{
				"type": "unocc",
				"energy": -0.00635,
				"method": "rhf"
			},
			{
				"type": "unocc",
				"energy": 0.0163,
				"method": "rhf"
			},
			{
				"type": "unocc",
				"energy": 0.03306,
				"method": "rhf"
			},
			{
				"type": "unocc",
				"energy": 0.07663,
				"method": "rhf"
			}
		],
		"cosmo_sigma_profile": { 
			"-0.025": 0.0,
			"-0.024": 0.0,
			"-0.023": 0.0,
			"-0.022": 0.0,
			"-0.021": 0.0,
			"-0.02": 0.0,
			"-0.019": 0.0328359668774,
			"-0.018": 0.760426756705,
			"-0.017": 0.959798684359,
			"-0.016": 0.864513992828,
			"-0.015": 0.944166922568,
			"-0.014": 0.912047928391,
			"-0.013": 0.0213900632713,
			"-0.012": 0.529684613186,
			"-0.011": 1.34748767601,
			"-0.01": 0.961227533527,
			"-0.009": 0.404760091361,
			"-0.008": 2.36360282463,
			"-0.007": 13.599496331,
			"-0.006": 19.6353453075,
			"-0.005": 16.2728079803,
			"-0.004": 15.2105993853,
			"-0.003": 12.782138209,
			"-0.002": 12.0429297603,
			"-0.001": 11.6988848528,
			"0.0": 10.4064407288,
			"0.001": 15.3840229783,
			"0.002": 21.5311982643,
			"0.003": 20.5714380002,
			"0.004": 14.8549173564,
			"0.005": 11.3983875906,
			"0.006": 5.99795238205,
			"0.007": 5.11445426991,
			"0.008": 6.16995679929,
			"0.009": 6.29747609829,
			"0.01": 5.00748140638,
			"0.011": 3.83149706346,
			"0.012": 3.60676877309,
			"0.013": 0.136228528175,
			"0.014": 0.0,
			"0.015": 0.0,
			"0.016": 0.0,
			"0.017": 0.0,
			"0.018": 0.0,
			"0.019": 0.0,
			"0.02": 0.0,
			"0.021": 0.0,
			"0.022": 0.0,
			"0.023": 0.0,
			"0.024": 0.0,
			"0.025": 0.0
		}
	}
}
