{
	 "smiles": "CC1=CC(C=CC2=NC3=C(C=C(Br)C=C3)C(=C2)C(O)=O)=CC=C1", 
	 "Tm": 560.15, 
	 "num_atms": 37, 
	 "gaussian": { 
		 "optdone": 1, 
		 "sigma_profile": "yes", 
		 "theory": "DFT", 
		 "functional": "B3LYP", 
		 "basiset": "6-31G**", 
		 "properties": { 
			 "R2extent": 13510.531, 
			 "electric_dipole_moment_norm": 2.56230767278, 
			 "electric_quadrupole_moment_norm": 19.149060337, 
			 "total_energy": -3509.06951782, 
			 "HOMO_LUMO_gap": 0.13608, 
			 "cosmo_polarized_energy": -15.59, 
			 "cosmo_cavitation_energy": 44.26, 
			 "cosmo_dispersion_energy": -31.23, 
			 "cosmo_repulsion_energy": 2.37, 
			 "cosmo_total_nonelectrostatic_energy": 15.4, 
			 "SMD_solvation_energy": 5.62 
		},
		"coords": [
			{
				"x": -5.8507417655,
				"y": -0.8719335783,
				"z": 3.5585481546,
				"element": "C" 
			},
			{
				"x": -4.3942765965,
				"y": -0.6480958569,
				"z": 3.2249043786,
				"element": "C" 
			},
			{
				"x": -3.9990951971,
				"y": 0.4039073235,
				"z": 2.395031398,
				"element": "C" 
			},
			{
				"x": -2.6532318027,
				"y": 0.6068909308,
				"z": 2.0369364616,
				"element": "C" 
			},
			{
				"x": -2.316510241,
				"y": 1.7565923144,
				"z": 1.1799977521,
				"element": "C" 
			},
			{
				"x": -1.3654501296,
				"y": 1.9149264328,
				"z": 0.2339619607,
				"element": "C" 
			},
			{
				"x": -0.4285282877,
				"y": 0.9564423716,
				"z": -0.3739336704,
				"element": "C" 
			},
			{
				"x": 0.6382915208,
				"y": 1.5009947036,
				"z": -0.9512196151,
				"element": "N" 
			},
			{
				"x": 1.5479367374,
				"y": 0.6940064539,
				"z": -1.556866728,
				"element": "C" 
			},
			{
				"x": 1.3987124071,
				"y": -0.72890737,
				"z": -1.6577474326,
				"element": "C" 
			},
			{
				"x": 2.4395655033,
				"y": -1.4878677069,
				"z": -2.2578311265,
				"element": "C" 
			},
			{
				"x": 3.549629639,
				"y": -0.8474078524,
				"z": -2.7647367016,
				"element": "C" 
			},
			{
				"x": 4.9457516245,
				"y": -1.8756496507,
				"z": -3.5612535745,
				"element": "Br" 
			},
			{
				"x": 3.6920514777,
				"y": 0.5566238993,
				"z": -2.7057938012,
				"element": "C" 
			},
			{
				"x": 2.7061684254,
				"y": 1.306019822,
				"z": -2.1074898148,
				"element": "C" 
			},
			{
				"x": 0.1944145187,
				"y": -1.2786845874,
				"z": -1.1059886138,
				"element": "C" 
			},
			{
				"x": -0.6813108461,
				"y": -0.4463184201,
				"z": -0.4490476327,
				"element": "C" 
			},
			{
				"x": -0.1974639944,
				"y": -2.7307942064,
				"z": -1.1997539392,
				"element": "C" 
			},
			{
				"x": 0.0776794602,
				"y": -3.361305558,
				"z": -2.3725490221,
				"element": "O" 
			},
			{
				"x": -0.7586636026,
				"y": -3.3211338183,
				"z": -0.3102750537,
				"element": "O" 
			},
			{
				"x": -1.6817532749,
				"y": -0.2534785932,
				"z": 2.5762526596,
				"element": "C" 
			},
			{
				"x": -2.0601895045,
				"y": -1.3004046793,
				"z": 3.4141256261,
				"element": "C" 
			},
			{
				"x": -3.4031292769,
				"y": -1.5013935371,
				"z": 3.7317576918,
				"element": "C" 
			},
			{
				"x": -6.4529233149,
				"y": 0.0143865404,
				"z": 3.3397490011,
				"element": "H" 
			},
			{
				"x": -6.2659420912,
				"y": -1.7041219829,
				"z": 2.9769629187,
				"element": "H" 
			},
			{
				"x": -5.9848127815,
				"y": -1.119942097,
				"z": 4.616478748,
				"element": "H" 
			},
			{
				"x": -4.7539476343,
				"y": 1.0827307542,
				"z": 2.0036378838,
				"element": "H" 
			},
			{
				"x": -2.9384150173,
				"y": 2.6335130659,
				"z": 1.3597329063,
				"element": "H" 
			},
			{
				"x": -1.2462216877,
				"y": 2.9121626233,
				"z": -0.1827179016,
				"element": "H" 
			},
			{
				"x": 2.3870229112,
				"y": -2.5695700276,
				"z": -2.2900833092,
				"element": "H" 
			},
			{
				"x": 4.5774370297,
				"y": 1.0255384531,
				"z": -3.119149505,
				"element": "H" 
			},
			{
				"x": 2.7874919732,
				"y": 2.3846573812,
				"z": -2.0256645281,
				"element": "H" 
			},
			{
				"x": -1.5810204643,
				"y": -0.8651970937,
				"z": -0.0169839092,
				"element": "H" 
			},
			{
				"x": 0.4163972385,
				"y": -2.728408179,
				"z": -3.0229374244,
				"element": "H" 
			},
			{
				"x": -0.6322939819,
				"y": -0.08639265,
				"z": 2.3581551475,
				"element": "H" 
			},
			{
				"x": -1.3020169646,
				"y": -1.9584922629,
				"z": 3.8281527493,
				"element": "H" 
			},
			{
				"x": -3.6857120097,
				"y": -2.3205933619,
				"z": 4.3882378659,
				"element": "H" 
			}
		],
		 "valence_orbital": [ 
			{
				"type": "occ",
				"energy": -0.27054,
				"method": "rhf"
			},
			{
				"type": "occ",
				"energy": -0.26483,
				"method": "rhf"
			},
			{
				"type": "occ",
				"energy": -0.2521,
				"method": "rhf"
			},
			{
				"type": "occ",
				"energy": -0.24663,
				"method": "rhf"
			},
			{
				"type": "occ",
				"energy": -0.2225,
				"method": "rhf"
			},
			{
				"type": "unocc",
				"energy": -0.08642,
				"method": "rhf"
			},
			{
				"type": "unocc",
				"energy": -0.05768,
				"method": "rhf"
			},
			{
				"type": "unocc",
				"energy": -0.02418,
				"method": "rhf"
			},
			{
				"type": "unocc",
				"energy": -0.01806,
				"method": "rhf"
			},
			{
				"type": "unocc",
				"energy": -0.00434,
				"method": "rhf"
			}
		],
		"cosmo_sigma_profile": { 
			"-0.025": 0.0,
			"-0.024": 0.0,
			"-0.023": 0.0,
			"-0.022": 0.0,
			"-0.021": 0.0,
			"-0.02": 0.0,
			"-0.019": 0.0726158745996,
			"-0.018": 0.542840765181,
			"-0.017": 0.835867572987,
			"-0.016": 0.453932802568,
			"-0.015": 1.14048432401,
			"-0.014": 1.20471132017,
			"-0.013": 0.885313170935,
			"-0.012": 1.22442461682,
			"-0.011": 1.05161475254,
			"-0.01": 0.581961013316,
			"-0.009": 1.14909927195,
			"-0.008": 2.19389347983,
			"-0.007": 6.74464932297,
			"-0.006": 13.7790508148,
			"-0.005": 22.8638269054,
			"-0.004": 27.4618796262,
			"-0.003": 26.6762481338,
			"-0.002": 25.456522339,
			"-0.001": 30.2874248717,
			"0.0": 34.5700205689,
			"0.001": 33.8017446533,
			"0.002": 27.7072763399,
			"0.003": 22.9270731027,
			"0.004": 25.5835248159,
			"0.005": 14.2717980143,
			"0.006": 5.85541706801,
			"0.007": 4.03259195236,
			"0.008": 4.01258226109,
			"0.009": 5.37144837343,
			"0.01": 5.93538476575,
			"0.011": 5.80336291513,
			"0.012": 3.2635984871,
			"0.013": 0.369971369145,
			"0.014": 0.43866885521,
			"0.015": 0.0,
			"0.016": 0.0,
			"0.017": 0.0,
			"0.018": 0.0,
			"0.019": 0.0,
			"0.02": 0.0,
			"0.021": 0.0,
			"0.022": 0.0,
			"0.023": 0.0,
			"0.024": 0.0,
			"0.025": 0.0
		}
	}
}
