{
	 "smiles": "CC(C)CC(=O)N1CC2=C(CC1C(O)=O)C=CC=C2", 
	 "Tm": 443.15, 
	 "num_atms": 38, 
	 "gaussian": { 
		 "optdone": 1, 
		 "sigma_profile": "yes", 
		 "theory": "DFT", 
		 "functional": "B3LYP", 
		 "basiset": "6-31G**", 
		 "properties": { 
			 "R2extent": 6677.8389, 
			 "electric_dipole_moment_norm": 3.40551817056, 
			 "electric_quadrupole_moment_norm": 12.1148280607, 
			 "total_energy": -863.515410896, 
			 "HOMO_LUMO_gap": 0.22854, 
			 "cosmo_polarized_energy": -17.27, 
			 "cosmo_cavitation_energy": 39.85, 
			 "cosmo_dispersion_energy": -27.38, 
			 "cosmo_repulsion_energy": 2.12, 
			 "cosmo_total_nonelectrostatic_energy": 14.6, 
			 "SMD_solvation_energy": 7.34 
		},
		"coords": [
			{
				"x": -1.1249377566,
				"y": 2.826827444,
				"z": 2.8461129761,
				"element": "C" 
			},
			{
				"x": -1.6183756707,
				"y": 1.4216638433,
				"z": 2.4734639087,
				"element": "C" 
			},
			{
				"x": -1.7406384466,
				"y": 0.529655685,
				"z": 3.7173068174,
				"element": "C" 
			},
			{
				"x": -0.6902404847,
				"y": 0.7927459283,
				"z": 1.419205871,
				"element": "C" 
			},
			{
				"x": -1.2911626046,
				"y": -0.4421378122,
				"z": 0.7484274943,
				"element": "C" 
			},
			{
				"x": -2.4663732244,
				"y": -0.76700596,
				"z": 0.9155759905,
				"element": "O" 
			},
			{
				"x": -0.4898945753,
				"y": -1.1966960963,
				"z": -0.0748336141,
				"element": "N" 
			},
			{
				"x": 0.9120965923,
				"y": -0.9056373622,
				"z": -0.4010391059,
				"element": "C" 
			},
			{
				"x": 1.1448601087,
				"y": -1.0246706205,
				"z": -1.8907217255,
				"element": "C" 
			},
			{
				"x": 0.5755741348,
				"y": -2.1377912415,
				"z": -2.5273693076,
				"element": "C" 
			},
			{
				"x": -0.174892736,
				"y": -3.1024858023,
				"z": -1.6450984899,
				"element": "C" 
			},
			{
				"x": -1.1334837979,
				"y": -2.3646011954,
				"z": -0.6780315769,
				"element": "C" 
			},
			{
				"x": -1.5827794998,
				"y": -3.3442354688,
				"z": 0.4082789714,
				"element": "C" 
			},
			{
				"x": -2.6773446788,
				"y": -4.0322857313,
				"z": 0.0161932278,
				"element": "O" 
			},
			{
				"x": -0.9972339643,
				"y": -3.5564584658,
				"z": 1.4450186762,
				"element": "O" 
			},
			{
				"x": 0.737379668,
				"y": -2.3049837809,
				"z": -3.9036094296,
				"element": "C" 
			},
			{
				"x": 1.4761531206,
				"y": -1.3765979471,
				"z": -4.6413925768,
				"element": "C" 
			},
			{
				"x": 2.0475149894,
				"y": -0.2734605837,
				"z": -4.005378249,
				"element": "C" 
			},
			{
				"x": 1.8761214746,
				"y": -0.0949128545,
				"z": -2.6302494599,
				"element": "C" 
			},
			{
				"x": -1.0834862711,
				"y": 3.4869997267,
				"z": 1.9720724863,
				"element": "H" 
			},
			{
				"x": -0.1201008176,
				"y": 2.7922047855,
				"z": 3.2857422633,
				"element": "H" 
			},
			{
				"x": -1.7891778848,
				"y": 3.2905408252,
				"z": 3.5830183063,
				"element": "H" 
			},
			{
				"x": -2.6126652257,
				"y": 1.5051699073,
				"z": 2.0199484327,
				"element": "H" 
			},
			{
				"x": -2.4311675126,
				"y": 0.9703335554,
				"z": 4.4445394718,
				"element": "H" 
			},
			{
				"x": -2.1143896665,
				"y": -0.4616420572,
				"z": 3.4517275107,
				"element": "H" 
			},
			{
				"x": -0.7681726836,
				"y": 0.4131765596,
				"z": 4.2130215602,
				"element": "H" 
			},
			{
				"x": -0.4655266195,
				"y": 1.5304435252,
				"z": 0.6353740377,
				"element": "H" 
			},
			{
				"x": 0.2715083149,
				"y": 0.5365979099,
				"z": 1.8826469001,
				"element": "H" 
			},
			{
				"x": 1.1583166629,
				"y": 0.0989245956,
				"z": -0.0608957803,
				"element": "H" 
			},
			{
				"x": 1.5690358234,
				"y": -1.6001307546,
				"z": 0.1455031832,
				"element": "H" 
			},
			{
				"x": -0.7549530604,
				"y": -3.8200926993,
				"z": -2.2312187683,
				"element": "H" 
			},
			{
				"x": 0.5417967417,
				"y": -3.6826982454,
				"z": -1.0467169412,
				"element": "H" 
			},
			{
				"x": -2.0252774855,
				"y": -2.0400818177,
				"z": -1.2216779128,
				"element": "H" 
			},
			{
				"x": -2.8776231513,
				"y": -4.6559496319,
				"z": 0.7342570779,
				"element": "H" 
			},
			{
				"x": 0.2887391764,
				"y": -3.1624475687,
				"z": -4.3989392282,
				"element": "H" 
			},
			{
				"x": 1.6006380504,
				"y": -1.5125652147,
				"z": -5.711755908,
				"element": "H" 
			},
			{
				"x": 2.6169430935,
				"y": 0.4520189662,
				"z": -4.5789187268,
				"element": "H" 
			},
			{
				"x": 2.3104198666,
				"y": 0.7703656547,
				"z": -2.1350883629,
				"element": "H" 
			}
		],
		 "valence_orbital": [ 
			{
				"type": "occ",
				"energy": -0.27471,
				"method": "rhf"
			},
			{
				"type": "occ",
				"energy": -0.25781,
				"method": "rhf"
			},
			{
				"type": "occ",
				"energy": -0.25347,
				"method": "rhf"
			},
			{
				"type": "occ",
				"energy": -0.24322,
				"method": "rhf"
			},
			{
				"type": "occ",
				"energy": -0.24063,
				"method": "rhf"
			},
			{
				"type": "unocc",
				"energy": -0.01209,
				"method": "rhf"
			},
			{
				"type": "unocc",
				"energy": -0.01083,
				"method": "rhf"
			},
			{
				"type": "unocc",
				"energy": 0.01402,
				"method": "rhf"
			},
			{
				"type": "unocc",
				"energy": 0.03083,
				"method": "rhf"
			},
			{
				"type": "unocc",
				"energy": 0.07609,
				"method": "rhf"
			}
		],
		"cosmo_sigma_profile": { 
			"-0.025": 0.0,
			"-0.024": 0.0,
			"-0.023": 0.0,
			"-0.022": 0.0,
			"-0.021": 0.0,
			"-0.02": 0.0,
			"-0.019": 0.0859495298727,
			"-0.018": 0.838745258464,
			"-0.017": 1.15470088499,
			"-0.016": 0.482618021675,
			"-0.015": 0.91644164793,
			"-0.014": 0.888679608003,
			"-0.013": 0.867718093166,
			"-0.012": 0.546992655889,
			"-0.011": 0.352530967142,
			"-0.01": 0.651123427155,
			"-0.009": 0.569909711701,
			"-0.008": 0.751817139547,
			"-0.007": 4.17516901723,
			"-0.006": 16.0577708986,
			"-0.005": 25.673506215,
			"-0.004": 24.4163060417,
			"-0.003": 26.9725050437,
			"-0.002": 28.5363424114,
			"-0.001": 27.138097296,
			"0.0": 25.2364908708,
			"0.001": 26.2842106716,
			"0.002": 18.2588474334,
			"0.003": 12.3756956546,
			"0.004": 11.4231133796,
			"0.005": 12.2645203503,
			"0.006": 8.89547321698,
			"0.007": 4.55701123336,
			"0.008": 6.4753219798,
			"0.009": 5.00488543745,
			"0.01": 4.10275381586,
			"0.011": 4.33771211798,
			"0.012": 6.59065365428,
			"0.013": 3.1975672128,
			"0.014": 1.8945816135,
			"0.015": 0.074329627583,
			"0.016": 0.0,
			"0.017": 0.0,
			"0.018": 0.0,
			"0.019": 0.0,
			"0.02": 0.0,
			"0.021": 0.0,
			"0.022": 0.0,
			"0.023": 0.0,
			"0.024": 0.0,
			"0.025": 0.0
		}
	}
}
