{
	 "smiles": "O=C1NC(=O)C(CC2=CC(CC3C(=O)NC(=O)NC3=O)=CC=C2)C(=O)N1", 
	 "Tm": 545.15, 
	 "num_atms": 40, 
	 "gaussian": { 
		 "optdone": 1, 
		 "sigma_profile": "yes", 
		 "theory": "DFT", 
		 "functional": "B3LYP", 
		 "basiset": "6-31G**", 
		 "properties": { 
			 "R2extent": 11441.6221, 
			 "electric_dipole_moment_norm": 0.230541319507, 
			 "electric_quadrupole_moment_norm": 11.9569790089, 
			 "total_energy": -1288.60696362, 
			 "HOMO_LUMO_gap": 0.19769, 
			 "cosmo_polarized_energy": -31.24, 
			 "cosmo_cavitation_energy": 45.39, 
			 "cosmo_dispersion_energy": -30.3, 
			 "cosmo_repulsion_energy": 2.32, 
			 "cosmo_total_nonelectrostatic_energy": 17.41, 
			 "SMD_solvation_energy": 11.01 
		},
		"coords": [
			{
				"x": 0.9442349861,
				"y": 4.773373682,
				"z": 2.6855523088,
				"element": "O" 
			},
			{
				"x": 0.4468382562,
				"y": 4.4107786621,
				"z": 1.6402455494,
				"element": "C" 
			},
			{
				"x": -0.9044869707,
				"y": 4.1013673469,
				"z": 1.5169429461,
				"element": "N" 
			},
			{
				"x": -1.5793310943,
				"y": 3.6584796282,
				"z": 0.3887900911,
				"element": "C" 
			},
			{
				"x": -2.7625828257,
				"y": 3.381387748,
				"z": 0.4384418828,
				"element": "O" 
			},
			{
				"x": -0.769597193,
				"y": 3.5784895402,
				"z": -0.9011760528,
				"element": "C" 
			},
			{
				"x": -1.0475565243,
				"y": 2.2540916002,
				"z": -1.6674183685,
				"element": "C" 
			},
			{
				"x": -0.5702802117,
				"y": 1.0065888452,
				"z": -0.9497665843,
				"element": "C" 
			},
			{
				"x": 0.7083064612,
				"y": 0.4884027746,
				"z": -1.1998539106,
				"element": "C" 
			},
			{
				"x": 1.1759119111,
				"y": -0.654856471,
				"z": -0.5364171623,
				"element": "C" 
			},
			{
				"x": 2.5556684079,
				"y": -1.2071565355,
				"z": -0.8368508466,
				"element": "C" 
			},
			{
				"x": 2.5799549203,
				"y": -2.2978066889,
				"z": -1.9452193851,
				"element": "C" 
			},
			{
				"x": 1.8515645919,
				"y": -3.5620238044,
				"z": -1.5011607846,
				"element": "C" 
			},
			{
				"x": 2.0226348595,
				"y": -4.0676089881,
				"z": -0.4082477269,
				"element": "O" 
			},
			{
				"x": 0.9948723946,
				"y": -4.1403397783,
				"z": -2.4263054168,
				"element": "N" 
			},
			{
				"x": 0.6537776115,
				"y": -3.6676481794,
				"z": -3.6901378954,
				"element": "C" 
			},
			{
				"x": -0.1272758622,
				"y": -4.2441888333,
				"z": -4.4175337647,
				"element": "O" 
			},
			{
				"x": 1.2839077702,
				"y": -2.4809101514,
				"z": -4.0496444482,
				"element": "N" 
			},
			{
				"x": 2.1731288741,
				"y": -1.7242953948,
				"z": -3.2986500422,
				"element": "C" 
			},
			{
				"x": 2.6165798081,
				"y": -0.6766415908,
				"z": -3.7266811942,
				"element": "O" 
			},
			{
				"x": 0.3411867048,
				"y": -1.281198909,
				"z": 0.400557529,
				"element": "C" 
			},
			{
				"x": -0.9355022782,
				"y": -0.7784769253,
				"z": 0.6522439984,
				"element": "C" 
			},
			{
				"x": -1.3930769758,
				"y": 0.3554810726,
				"z": -0.0191545753,
				"element": "C" 
			},
			{
				"x": 0.7267838195,
				"y": 3.8459373645,
				"z": -0.7765700407,
				"element": "C" 
			},
			{
				"x": 1.4939237869,
				"y": 3.7282338028,
				"z": -1.7120246327,
				"element": "O" 
			},
			{
				"x": 1.178315183,
				"y": 4.2708947922,
				"z": 0.4654990719,
				"element": "N" 
			},
			{
				"x": -1.4448488214,
				"y": 4.1772843982,
				"z": 2.3709788637,
				"element": "H" 
			},
			{
				"x": -1.1543650461,
				"y": 4.3947584072,
				"z": -1.5300193526,
				"element": "H" 
			},
			{
				"x": -0.5559540231,
				"y": 2.3424208956,
				"z": -2.6389070172,
				"element": "H" 
			},
			{
				"x": -2.1266158785,
				"y": 2.206791478,
				"z": -1.8328688058,
				"element": "H" 
			},
			{
				"x": 1.3502649462,
				"y": 0.9832395147,
				"z": -1.9231907323,
				"element": "H" 
			},
			{
				"x": 3.2196072701,
				"y": -0.4055316125,
				"z": -1.1682834011,
				"element": "H" 
			},
			{
				"x": 2.9863742242,
				"y": -1.6597496715,
				"z": 0.0596128373,
				"element": "H" 
			},
			{
				"x": 3.6298759183,
				"y": -2.6018529961,
				"z": -2.0674001152,
				"element": "H" 
			},
			{
				"x": 0.5257113262,
				"y": -4.9927214888,
				"z": -2.1426375172,
				"element": "H" 
			},
			{
				"x": 1.0282637767,
				"y": -2.1134206149,
				"z": -4.9588848987,
				"element": "H" 
			},
			{
				"x": 0.6931809544,
				"y": -2.164301852,
				"z": 0.9255081722,
				"element": "H" 
			},
			{
				"x": -1.5774921785,
				"y": -1.2732425547,
				"z": 1.3756169357,
				"element": "H" 
			},
			{
				"x": -2.3877533676,
				"y": 0.7432263854,
				"z": 0.1798382907,
				"element": "H" 
			},
			{
				"x": 2.168550488,
				"y": 4.4711451022,
				"z": 0.5458761951,
				"element": "H" 
			}
		],
		 "valence_orbital": [ 
			{
				"type": "occ",
				"energy": -0.3036,
				"method": "rhf"
			},
			{
				"type": "occ",
				"energy": -0.27195,
				"method": "rhf"
			},
			{
				"type": "occ",
				"energy": -0.2718,
				"method": "rhf"
			},
			{
				"type": "occ",
				"energy": -0.25459,
				"method": "rhf"
			},
			{
				"type": "occ",
				"energy": -0.25076,
				"method": "rhf"
			},
			{
				"type": "unocc",
				"energy": -0.05307,
				"method": "rhf"
			},
			{
				"type": "unocc",
				"energy": -0.05222,
				"method": "rhf"
			},
			{
				"type": "unocc",
				"energy": -0.0197,
				"method": "rhf"
			},
			{
				"type": "unocc",
				"energy": -0.0195,
				"method": "rhf"
			},
			{
				"type": "unocc",
				"energy": -0.00752,
				"method": "rhf"
			}
		],
		"cosmo_sigma_profile": { 
			"-0.025": 0.0,
			"-0.024": 0.0,
			"-0.023": 0.0,
			"-0.022": 0.0,
			"-0.021": 0.0,
			"-0.02": 0.0,
			"-0.019": 0.0,
			"-0.018": 0.0,
			"-0.017": 1.14943646999,
			"-0.016": 3.80348883336,
			"-0.015": 3.7704469064,
			"-0.014": 3.03551700101,
			"-0.013": 3.43436626962,
			"-0.012": 2.98426135585,
			"-0.011": 5.15640361312,
			"-0.01": 9.69726022938,
			"-0.009": 8.61267279789,
			"-0.008": 8.42275079716,
			"-0.007": 9.00719084144,
			"-0.006": 11.0120453634,
			"-0.005": 19.3189384227,
			"-0.004": 24.1841730524,
			"-0.003": 31.2674749807,
			"-0.002": 22.3134525113,
			"-0.001": 17.6763161866,
			"0.0": 15.1870561913,
			"0.001": 17.2409487607,
			"0.002": 16.7410127024,
			"0.003": 13.5764604781,
			"0.004": 16.5257982725,
			"0.005": 13.1229768195,
			"0.006": 6.96777585121,
			"0.007": 6.65816507355,
			"0.008": 7.70933481172,
			"0.009": 9.18639094613,
			"0.01": 13.4422050855,
			"0.011": 26.6389748952,
			"0.012": 12.5561918097,
			"0.013": 0.0142467881031,
			"0.014": 0.0,
			"0.015": 0.0,
			"0.016": 0.0,
			"0.017": 0.0,
			"0.018": 0.0,
			"0.019": 0.0,
			"0.02": 0.0,
			"0.021": 0.0,
			"0.022": 0.0,
			"0.023": 0.0,
			"0.024": 0.0,
			"0.025": 0.0
		}
	}
}
