{
	 "smiles": "OC(=O)C1CCCN(C1)C(=O)C1=CC=C(Cl)C=C1", 
	 "Tm": 421.15, 
	 "num_atms": 32, 
	 "gaussian": { 
		 "optdone": 1, 
		 "sigma_profile": "yes", 
		 "theory": "DFT", 
		 "functional": "B3LYP", 
		 "basiset": "6-31G**", 
		 "properties": { 
			 "R2extent": 6106.782, 
			 "electric_dipole_moment_norm": 4.85580904279, 
			 "electric_quadrupole_moment_norm": 10.3788488885, 
			 "total_energy": -1244.47238604, 
			 "HOMO_LUMO_gap": 0.20383, 
			 "cosmo_polarized_energy": -17.06, 
			 "cosmo_cavitation_energy": 36.01, 
			 "cosmo_dispersion_energy": -25.63, 
			 "cosmo_repulsion_energy": 1.99, 
			 "cosmo_total_nonelectrostatic_energy": 12.37, 
			 "SMD_solvation_energy": 6.24 
		},
		"coords": [
			{
				"x": 1.9112891967,
				"y": -2.650738934,
				"z": -1.9948919028,
				"element": "O" 
			},
			{
				"x": 1.3749602127,
				"y": -1.8538387751,
				"z": -1.0399135635,
				"element": "C" 
			},
			{
				"x": 1.8972187297,
				"y": -0.81398133,
				"z": -0.7005591668,
				"element": "O" 
			},
			{
				"x": 0.1039896149,
				"y": -2.4477701093,
				"z": -0.4439320938,
				"element": "C" 
			},
			{
				"x": -0.8699346588,
				"y": -2.9836182507,
				"z": -1.5164259202,
				"element": "C" 
			},
			{
				"x": -1.5401035352,
				"y": -1.8299027712,
				"z": -2.2740517844,
				"element": "C" 
			},
			{
				"x": -2.2044339973,
				"y": -0.854679462,
				"z": -1.2951838197,
				"element": "C" 
			},
			{
				"x": -1.2615846678,
				"y": -0.3741733874,
				"z": -0.2797407468,
				"element": "N" 
			},
			{
				"x": -0.5901567869,
				"y": -1.4266696267,
				"z": 0.4814532435,
				"element": "C" 
			},
			{
				"x": -0.817878524,
				"y": 0.9325546035,
				"z": -0.3691521398,
				"element": "C" 
			},
			{
				"x": -1.106094026,
				"y": 1.6533175449,
				"z": -1.3213200214,
				"element": "O" 
			},
			{
				"x": -0.0342509164,
				"y": 1.5013630655,
				"z": 0.7823210634,
				"element": "C" 
			},
			{
				"x": -0.4166782907,
				"y": 1.3168121381,
				"z": 2.1167900639,
				"element": "C" 
			},
			{
				"x": 0.2676707173,
				"y": 1.9559998032,
				"z": 3.151131307,
				"element": "C" 
			},
			{
				"x": 1.3479136552,
				"y": 2.779130865,
				"z": 2.8383665276,
				"element": "C" 
			},
			{
				"x": 2.2259550166,
				"y": 3.5786442822,
				"z": 4.134941506,
				"element": "Cl" 
			},
			{
				"x": 1.7404742591,
				"y": 2.9871062558,
				"z": 1.5149507263,
				"element": "C" 
			},
			{
				"x": 1.0363786575,
				"y": 2.3565874491,
				"z": 0.4934547136,
				"element": "C" 
			},
			{
				"x": 2.7233146342,
				"y": -2.206079135,
				"z": -2.2918965855,
				"element": "H" 
			},
			{
				"x": 0.4409175543,
				"y": -3.2932239292,
				"z": 0.1732085097,
				"element": "H" 
			},
			{
				"x": -1.6391326124,
				"y": -3.5795917654,
				"z": -1.0075008334,
				"element": "H" 
			},
			{
				"x": -0.3435612186,
				"y": -3.6543136004,
				"z": -2.1998640582,
				"element": "H" 
			},
			{
				"x": -2.2912500679,
				"y": -2.219373936,
				"z": -2.9707366996,
				"element": "H" 
			},
			{
				"x": -0.7986864341,
				"y": -1.2861355404,
				"z": -2.8724096712,
				"element": "H" 
			},
			{
				"x": -2.5993109521,
				"y": 0.018871494,
				"z": -1.8125986934,
				"element": "H" 
			},
			{
				"x": -3.030982048,
				"y": -1.3617032112,
				"z": -0.7754352735,
				"element": "H" 
			},
			{
				"x": 0.143181583,
				"y": -0.9798831846,
				"z": 1.1492053573,
				"element": "H" 
			},
			{
				"x": -1.3318391449,
				"y": -1.9619430411,
				"z": 1.0908082138,
				"element": "H" 
			},
			{
				"x": -1.2693031918,
				"y": 0.6875168519,
				"z": 2.3540320319,
				"element": "H" 
			},
			{
				"x": -0.0352619069,
				"y": 1.8232022223,
				"z": 4.1837883536,
				"element": "H" 
			},
			{
				"x": 2.5793611742,
				"y": 3.6372613919,
				"z": 1.2930465879,
				"element": "H" 
			},
			{
				"x": 1.3103179744,
				"y": 2.5211520222,
				"z": -0.5426852317,
				"element": "H" 
			}
		],
		 "valence_orbital": [ 
			{
				"type": "occ",
				"energy": -0.28428,
				"method": "rhf"
			},
			{
				"type": "occ",
				"energy": -0.2629,
				"method": "rhf"
			},
			{
				"type": "occ",
				"energy": -0.25689,
				"method": "rhf"
			},
			{
				"type": "occ",
				"energy": -0.24037,
				"method": "rhf"
			},
			{
				"type": "occ",
				"energy": -0.23408,
				"method": "rhf"
			},
			{
				"type": "unocc",
				"energy": -0.03025,
				"method": "rhf"
			},
			{
				"type": "unocc",
				"energy": -0.01228,
				"method": "rhf"
			},
			{
				"type": "unocc",
				"energy": -0.00366,
				"method": "rhf"
			},
			{
				"type": "unocc",
				"energy": 0.03173,
				"method": "rhf"
			},
			{
				"type": "unocc",
				"energy": 0.04567,
				"method": "rhf"
			}
		],
		"cosmo_sigma_profile": { 
			"-0.025": 0.0,
			"-0.024": 0.0,
			"-0.023": 0.0,
			"-0.022": 0.0,
			"-0.021": 0.0,
			"-0.02": 0.0,
			"-0.019": 0.0334897981565,
			"-0.018": 0.709104904574,
			"-0.017": 0.8636105725,
			"-0.016": 1.17599618215,
			"-0.015": 0.680748766777,
			"-0.014": 0.485751313509,
			"-0.013": 0.27209069041,
			"-0.012": 0.679722061103,
			"-0.011": 1.132692854,
			"-0.01": 0.963160444426,
			"-0.009": 0.460681922857,
			"-0.008": 1.54344318212,
			"-0.007": 9.20048701317,
			"-0.006": 11.5456783604,
			"-0.005": 19.9680731434,
			"-0.004": 23.3884415854,
			"-0.003": 25.7214876109,
			"-0.002": 24.4212964938,
			"-0.001": 22.1886371879,
			"0.0": 20.3007191107,
			"0.001": 18.6853567595,
			"0.002": 19.3552610468,
			"0.003": 19.0007276326,
			"0.004": 15.5811925761,
			"0.005": 10.7073867522,
			"0.006": 6.07975338939,
			"0.007": 4.87052827359,
			"0.008": 4.56991928121,
			"0.009": 4.5606227176,
			"0.01": 3.72198439259,
			"0.011": 3.60637537835,
			"0.012": 2.65188375988,
			"0.013": 3.90367278868,
			"0.014": 3.21575582813,
			"0.015": 0.347577971206,
			"0.016": 0.0,
			"0.017": 0.0,
			"0.018": 0.0,
			"0.019": 0.0,
			"0.02": 0.0,
			"0.021": 0.0,
			"0.022": 0.0,
			"0.023": 0.0,
			"0.024": 0.0,
			"0.0": 0.0
		}
	}
}
