{
	 "smiles": "FC1=C(F)C(F)=C(OC(=O)C2=CN=C(C=C2)C2=CC=CC=C2)C(F)=C1F", 
	 "Tm": 387.15, 
	 "num_atms": 34, 
	 "gaussian": { 
		 "optdone": 1, 
		 "sigma_profile": "yes", 
		 "theory": "DFT", 
		 "functional": "B3LYP", 
		 "basiset": "6-31G**", 
		 "properties": { 
			 "R2extent": 15719.3866, 
			 "electric_dipole_moment_norm": 3.41943077573, 
			 "electric_quadrupole_moment_norm": 15.1154310564, 
			 "total_energy": -1395.07406035, 
			 "HOMO_LUMO_gap": 0.16249, 
			 "cosmo_polarized_energy": -9.52, 
			 "cosmo_cavitation_energy": 43.83, 
			 "cosmo_dispersion_energy": -30.4, 
			 "cosmo_repulsion_energy": 2.15, 
			 "cosmo_total_nonelectrostatic_energy": 15.58, 
			 "SMD_solvation_energy": 9.63 
		},
		"coords": [
			{
				"x": 2.0177702108,
				"y": -4.4299312151,
				"z": 5.3341987459,
				"element": "F" 
			},
			{
				"x": 1.6912286549,
				"y": -3.5362036913,
				"z": 4.3973658955,
				"element": "C" 
			},
			{
				"x": 1.9311029407,
				"y": -3.8166049008,
				"z": 3.0538266898,
				"element": "C" 
			},
			{
				"x": 2.4913729423,
				"y": -4.9785187738,
				"z": 2.7036283594,
				"element": "F" 
			},
			{
				"x": 1.5913250977,
				"y": -2.88051271,
				"z": 2.0790302139,
				"element": "C" 
			},
			{
				"x": 1.8348227445,
				"y": -3.1501855031,
				"z": 0.7935433502,
				"element": "F" 
			},
			{
				"x": 0.998643552,
				"y": -1.670387891,
				"z": 2.4375083036,
				"element": "C" 
			},
			{
				"x": 0.6040900199,
				"y": -0.7909925025,
				"z": 1.4532142598,
				"element": "O" 
			},
			{
				"x": 1.3319524375,
				"y": 0.3845226607,
				"z": 1.334275511,
				"element": "C" 
			},
			{
				"x": 2.2876983152,
				"y": 0.6307984129,
				"z": 2.0288789856,
				"element": "O" 
			},
			{
				"x": 0.787476705,
				"y": 1.2502687352,
				"z": 0.2694835367,
				"element": "C" 
			},
			{
				"x": -0.334248485,
				"y": 0.9185813539,
				"z": -0.5048011622,
				"element": "C" 
			},
			{
				"x": -0.8174299755,
				"y": 1.698388397,
				"z": -1.468122949,
				"element": "N" 
			},
			{
				"x": -0.2094282642,
				"y": 2.8759312064,
				"z": -1.725240662,
				"element": "C" 
			},
			{
				"x": 0.9095276426,
				"y": 3.2986418129,
				"z": -0.979955594,
				"element": "C" 
			},
			{
				"x": 1.4120122546,
				"y": 2.4788864356,
				"z": 0.0172392248,
				"element": "C" 
			},
			{
				"x": -0.7921169622,
				"y": 3.6974756787,
				"z": -2.8155189212,
				"element": "C" 
			},
			{
				"x": -2.0885853074,
				"y": 3.4134364514,
				"z": -3.2794507619,
				"element": "C" 
			},
			{
				"x": -2.662599545,
				"y": 4.1754629443,
				"z": -4.2933294366,
				"element": "C" 
			},
			{
				"x": -1.9512485107,
				"y": 5.230180833,
				"z": -4.8705595384,
				"element": "C" 
			},
			{
				"x": -0.6580137025,
				"y": 5.5144093126,
				"z": -4.4276060976,
				"element": "C" 
			},
			{
				"x": -0.0833934613,
				"y": 4.7560393587,
				"z": -3.4095916549,
				"element": "C" 
			},
			{
				"x": 0.762319434,
				"y": -1.3979271673,
				"z": 3.7852226937,
				"element": "C" 
			},
			{
				"x": 0.1976046418,
				"y": -0.2402941462,
				"z": 4.1386890269,
				"element": "F" 
			},
			{
				"x": 1.1080642508,
				"y": -2.3243675806,
				"z": 4.7650617311,
				"element": "C" 
			},
			{
				"x": 0.8782138752,
				"y": -2.0587916035,
				"z": 6.0544903969,
				"element": "F" 
			},
			{
				"x": -0.8562319156,
				"y": -0.0190570343,
				"z": -0.3343169801,
				"element": "H" 
			},
			{
				"x": 1.3662013422,
				"y": 4.2633680292,
				"z": -1.1658863892,
				"element": "H" 
			},
			{
				"x": 2.2714494404,
				"y": 2.7690324455,
				"z": 0.6127114659,
				"element": "H" 
			},
			{
				"x": -2.6287330504,
				"y": 2.5890059693,
				"z": -2.8288035053,
				"element": "H" 
			},
			{
				"x": -3.6680188623,
				"y": 3.9462896941,
				"z": -4.6345281024,
				"element": "H" 
			},
			{
				"x": -2.3989245638,
				"y": 5.8230712299,
				"z": -5.6629070608,
				"element": "H" 
			},
			{
				"x": -0.0922315255,
				"y": 6.3238454848,
				"z": -4.8795464671,
				"element": "H" 
			},
			{
				"x": 0.9320276292,
				"y": 4.9793382736,
				"z": -3.0986031081,
				"element": "H" 
			}
		],
		 "valence_orbital": [ 
			{
				"type": "occ",
				"energy": -0.26911,
				"method": "rhf"
			},
			{
				"type": "occ",
				"energy": -0.26545,
				"method": "rhf"
			},
			{
				"type": "occ",
				"energy": -0.26166,
				"method": "rhf"
			},
			{
				"type": "occ",
				"energy": -0.25957,
				"method": "rhf"
			},
			{
				"type": "occ",
				"energy": -0.24285,
				"method": "rhf"
			},
			{
				"type": "unocc",
				"energy": -0.08036,
				"method": "rhf"
			},
			{
				"type": "unocc",
				"energy": -0.03808,
				"method": "rhf"
			},
			{
				"type": "unocc",
				"energy": -0.029,
				"method": "rhf"
			},
			{
				"type": "unocc",
				"energy": -0.02142,
				"method": "rhf"
			},
			{
				"type": "unocc",
				"energy": -0.01108,
				"method": "rhf"
			}
		],
		"cosmo_sigma_profile": { 
			"-0.025": 0.0,
			"-0.024": 0.0,
			"-0.023": 0.0,
			"-0.022": 0.0,
			"-0.021": 0.0,
			"-0.02": 0.0,
			"-0.019": 0.0,
			"-0.018": 0.0,
			"-0.017": 0.0,
			"-0.016": 0.0,
			"-0.015": 0.0,
			"-0.014": 0.0,
			"-0.013": 0.0,
			"-0.012": 0.0,
			"-0.011": 0.0,
			"-0.01": 0.0,
			"-0.009": 1.08625504751,
			"-0.008": 3.30343300336,
			"-0.007": 5.59130084629,
			"-0.006": 12.3853090365,
			"-0.005": 16.7129618772,
			"-0.004": 33.4585012269,
			"-0.003": 28.2579797868,
			"-0.002": 25.5332288998,
			"-0.001": 27.9422252865,
			"0.0": 31.9860470663,
			"0.001": 31.5955836735,
			"0.002": 59.9805919791,
			"0.003": 31.6003017278,
			"0.004": 15.7545794405,
			"0.005": 11.2354998729,
			"0.006": 3.53895684538,
			"0.007": 3.04424157647,
			"0.008": 3.18671224464,
			"0.009": 3.68352710117,
			"0.01": 4.39602812863,
			"0.011": 1.29683169761,
			"0.012": 0.517620098267,
			"0.013": 0.0794244810057,
			"0.014": 0.0,
			"0.015": 0.0,
			"0.016": 0.0,
			"0.017": 0.0,
			"0.018": 0.0,
			"0.019": 0.0,
			"0.02": 0.0,
			"0.021": 0.0,
			"0.022": 0.0,
			"0.023": 0.0,
			"0.024": 0.0,
			"0.025": 0.0
		}
	}
}
