{
	 "smiles": "OC(=O)CCC1=NC=C(O1)C1=CC=CC=C1", 
	 "Tm": 422.15, 
	 "num_atms": 27, 
	 "gaussian": { 
		 "optdone": 1, 
		 "sigma_profile": "yes", 
		 "theory": "DFT", 
		 "functional": "B3LYP", 
		 "basiset": "6-31G**", 
		 "properties": { 
			 "R2extent": 4828.6876, 
			 "electric_dipole_moment_norm": 1.47253212529, 
			 "electric_quadrupole_moment_norm": 16.9174163388, 
			 "total_energy": -744.342003522, 
			 "HOMO_LUMO_gap": 0.17643, 
			 "cosmo_polarized_energy": -14.59, 
			 "cosmo_cavitation_energy": 32.58, 
			 "cosmo_dispersion_energy": -22.88, 
			 "cosmo_repulsion_energy": 1.8, 
			 "cosmo_total_nonelectrostatic_energy": 11.5, 
			 "SMD_solvation_energy": 5.03 
		},
		"coords": [
			{
				"x": -1.2781574323,
				"y": -4.7608051542,
				"z": -0.5031562766,
				"element": "O" 
			},
			{
				"x": -1.4861777619,
				"y": -3.6562341932,
				"z": -1.2609431353,
				"element": "C" 
			},
			{
				"x": -2.5720808101,
				"y": -3.134803243,
				"z": -1.3747185258,
				"element": "O" 
			},
			{
				"x": -0.2074944524,
				"y": -3.1910485437,
				"z": -1.927857425,
				"element": "C" 
			},
			{
				"x": 0.9123146538,
				"y": -2.844791316,
				"z": -0.9178759324,
				"element": "C" 
			},
			{
				"x": 0.5842654409,
				"y": -1.6822435907,
				"z": -0.042511594,
				"element": "C" 
			},
			{
				"x": 0.3522334997,
				"y": -1.6691045978,
				"z": 1.2360378359,
				"element": "N" 
			},
			{
				"x": 0.0885085639,
				"y": -0.3411785061,
				"z": 1.5303835463,
				"element": "C" 
			},
			{
				"x": 0.1708390544,
				"y": 0.4143517323,
				"z": 0.3946402272,
				"element": "C" 
			},
			{
				"x": 0.4930170655,
				"y": -0.4538632773,
				"z": -0.6276357426,
				"element": "O" 
			},
			{
				"x": 0.0055765266,
				"y": 1.8257489886,
				"z": 0.0774101297,
				"element": "C" 
			},
			{
				"x": 0.1507803614,
				"y": 2.293260406,
				"z": -1.2402026405,
				"element": "C" 
			},
			{
				"x": -0.0103380086,
				"y": 3.6466111625,
				"z": -1.5300849894,
				"element": "C" 
			},
			{
				"x": -0.3182129673,
				"y": 4.5550710141,
				"z": -0.5158603936,
				"element": "C" 
			},
			{
				"x": -0.4645742748,
				"y": 4.0982799169,
				"z": 0.7968967115,
				"element": "C" 
			},
			{
				"x": -0.3046666953,
				"y": 2.7481629268,
				"z": 1.0934735286,
				"element": "C" 
			},
			{
				"x": -2.1323702199,
				"y": -4.9728207326,
				"z": -0.0910257976,
				"element": "H" 
			},
			{
				"x": 0.1486986067,
				"y": -3.9956812118,
				"z": -2.5811453977,
				"element": "H" 
			},
			{
				"x": -0.4552199411,
				"y": -2.3271449987,
				"z": -2.5469227841,
				"element": "H" 
			},
			{
				"x": 1.1064863856,
				"y": -3.6990667287,
				"z": -0.266942274,
				"element": "H" 
			},
			{
				"x": 1.8291482496,
				"y": -2.6292876739,
				"z": -1.478504011,
				"element": "H" 
			},
			{
				"x": -0.1423732458,
				"y": -0.0237297926,
				"z": 2.5364836525,
				"element": "H" 
			},
			{
				"x": 0.3883213375,
				"y": 1.5900751308,
				"z": -2.0308911144,
				"element": "H" 
			},
			{
				"x": 0.1044411621,
				"y": 3.9918929803,
				"z": -2.5535547575,
				"element": "H" 
			},
			{
				"x": -0.4436568403,
				"y": 5.6091749663,
				"z": -0.7446478524,
				"element": "H" 
			},
			{
				"x": -0.7043156195,
				"y": 4.7970600121,
				"z": 1.5931236537,
				"element": "H" 
			},
			{
				"x": -0.4203926383,
				"y": 2.4055143235,
				"z": 2.1173313584,
				"element": "H" 
			}
		],
		 "valence_orbital": [ 
			{
				"type": "occ",
				"energy": -0.28727,
				"method": "rhf"
			},
			{
				"type": "occ",
				"energy": -0.28571,
				"method": "rhf"
			},
			{
				"type": "occ",
				"energy": -0.27379,
				"method": "rhf"
			},
			{
				"type": "occ",
				"energy": -0.25595,
				"method": "rhf"
			},
			{
				"type": "occ",
				"energy": -0.21459,
				"method": "rhf"
			},
			{
				"type": "unocc",
				"energy": -0.03816,
				"method": "rhf"
			},
			{
				"type": "unocc",
				"energy": -0.00565,
				"method": "rhf"
			},
			{
				"type": "unocc",
				"energy": 0.00489,
				"method": "rhf"
			},
			{
				"type": "unocc",
				"energy": 0.02372,
				"method": "rhf"
			},
			{
				"type": "unocc",
				"energy": 0.07415,
				"method": "rhf"
			}
		],
		"cosmo_sigma_profile": { 
			"-0.025": 0.0,
			"-0.024": 0.0,
			"-0.023": 0.0,
			"-0.022": 0.0,
			"-0.021": 0.0,
			"-0.02": 0.0,
			"-0.019": 0.0355025172304,
			"-0.018": 0.915437279858,
			"-0.017": 0.749031123561,
			"-0.016": 1.07421120568,
			"-0.015": 0.888319292389,
			"-0.014": 0.579231978096,
			"-0.013": 0.502034233673,
			"-0.012": 0.304175896236,
			"-0.011": 0.909163933359,
			"-0.01": 0.911137895657,
			"-0.009": 0.455243203669,
			"-0.008": 3.73973309248,
			"-0.007": 7.97628028038,
			"-0.006": 16.1153387341,
			"-0.005": 20.0194101741,
			"-0.004": 22.1150638538,
			"-0.003": 18.7958923437,
			"-0.002": 14.234086523,
			"-0.001": 14.4830251221,
			"0.0": 14.9600895975,
			"0.001": 18.5765929301,
			"0.002": 20.9926770084,
			"0.003": 17.2909693568,
			"0.004": 16.0553943378,
			"0.005": 14.7733577495,
			"0.006": 3.98949452144,
			"0.007": 3.93993290797,
			"0.008": 3.46758501326,
			"0.009": 4.13130882989,
			"0.01": 3.13940162887,
			"0.011": 5.03376655463,
			"0.012": 4.83336631548,
			"0.013": 1.2975809969,
			"0.014": 1.25864416239,
			"0.015": 0.848932169085,
			"0.016": 0.628178688208,
			"0.017": 0.0625524248453,
			"0.018": 0.0,
			"0.019": 0.0,
			"0.02": 0.0,
			"0.021": 0.0,
			"0.022": 0.0,
			"0.023": 0.0,
			"0.024": 0.0,
			"0.025": 0.0
		}
	}
}
