{
	 "smiles": "FC(F)OC1=CC=C(C=C1)C(=O)C1=CC=CC=C1", 
	 "Tm": 430.15, 
	 "num_atms": 28, 
	 "gaussian": { 
		 "optdone": 1, 
		 "sigma_profile": "yes", 
		 "theory": "DFT", 
		 "functional": "B3LYP", 
		 "basiset": "6-31G**", 
		 "properties": { 
			 "R2extent": 6920.4248, 
			 "electric_dipole_moment_norm": 2.70799248337, 
			 "electric_quadrupole_moment_norm": 14.1610781253, 
			 "total_energy": -889.639179939, 
			 "HOMO_LUMO_gap": 0.17935, 
			 "cosmo_polarized_energy": -10.94, 
			 "cosmo_cavitation_energy": 33.86, 
			 "cosmo_dispersion_energy": -24.33, 
			 "cosmo_repulsion_energy": 1.82, 
			 "cosmo_total_nonelectrostatic_energy": 11.35, 
			 "SMD_solvation_energy": 7.42 
		},
		"coords": [
			{
				"x": -1.4176435038,
				"y": 4.5659709555,
				"z": -3.8749578526,
				"element": "F" 
			},
			{
				"x": -1.0140303075,
				"y": 4.0237685148,
				"z": -2.7148207105,
				"element": "C" 
			},
			{
				"x": 0.025889591,
				"y": 4.7738384962,
				"z": -2.2482204058,
				"element": "F" 
			},
			{
				"x": -0.6028148861,
				"y": 2.7430771636,
				"z": -3.0005748342,
				"element": "O" 
			},
			{
				"x": -0.4492224283,
				"y": 1.8505300481,
				"z": -1.956283221,
				"element": "C" 
			},
			{
				"x": -0.1590494714,
				"y": 2.237953745,
				"z": -0.6458206502,
				"element": "C" 
			},
			{
				"x": -0.0093599578,
				"y": 1.2546149126,
				"z": 0.3335980016,
				"element": "C" 
			},
			{
				"x": -0.1391072923,
				"y": -0.1051139357,
				"z": 0.0209678075,
				"element": "C" 
			},
			{
				"x": -0.4411669359,
				"y": -0.4658850205,
				"z": -1.3045300475,
				"element": "C" 
			},
			{
				"x": -0.585714517,
				"y": 0.4981751558,
				"z": -2.2903340049,
				"element": "C" 
			},
			{
				"x": -0.0620215294,
				"y": -1.1998161879,
				"z": 1.0421941981,
				"element": "C" 
			},
			{
				"x": -0.6664892411,
				"y": -2.2500574107,
				"z": 0.8505848535,
				"element": "O" 
			},
			{
				"x": 0.7428704862,
				"y": -1.022643453,
				"z": 2.2960891217,
				"element": "C" 
			},
			{
				"x": 1.9052544753,
				"y": -0.2379369666,
				"z": 2.3563671173,
				"element": "C" 
			},
			{
				"x": 2.6486889471,
				"y": -0.1703568995,
				"z": 3.5355204023,
				"element": "C" 
			},
			{
				"x": 2.2327441574,
				"y": -0.8743974033,
				"z": 4.666586528,
				"element": "C" 
			},
			{
				"x": 1.080594041,
				"y": -1.665167,
				"z": 4.6122721092,
				"element": "C" 
			},
			{
				"x": 0.349035428,
				"y": -1.7492537429,
				"z": 3.4315329622,
				"element": "C" 
			},
			{
				"x": -1.8225082056,
				"y": 4.0552331242,
				"z": -1.9746022483,
				"element": "H" 
			},
			{
				"x": -0.0233906551,
				"y": 3.2827023218,
				"z": -0.3945239666,
				"element": "H" 
			},
			{
				"x": 0.1970943672,
				"y": 1.5598606813,
				"z": 1.3535494782,
				"element": "H" 
			},
			{
				"x": -0.568505768,
				"y": -1.5178258011,
				"z": -1.5362327363,
				"element": "H" 
			},
			{
				"x": -0.8138804537,
				"y": 0.2326147572,
				"z": -3.3170091952,
				"element": "H" 
			},
			{
				"x": 2.2454085437,
				"y": 0.2962070281,
				"z": 1.4753993729,
				"element": "H" 
			},
			{
				"x": 3.5541272148,
				"y": 0.428542203,
				"z": 3.5686650621,
				"element": "H" 
			},
			{
				"x": 2.8079399209,
				"y": -0.8138845137,
				"z": 5.5861283329,
				"element": "H" 
			},
			{
				"x": 0.759683208,
				"y": -2.2197165171,
				"z": 5.4892955742,
				"element": "H" 
			},
			{
				"x": -0.5340252275,
				"y": -2.3757342549,
				"z": 3.3621589512,
				"element": "H" 
			}
		],
		 "valence_orbital": [ 
			{
				"type": "occ",
				"energy": -0.27246,
				"method": "rhf"
			},
			{
				"type": "occ",
				"energy": -0.26462,
				"method": "rhf"
			},
			{
				"type": "occ",
				"energy": -0.26249,
				"method": "rhf"
			},
			{
				"type": "occ",
				"energy": -0.25489,
				"method": "rhf"
			},
			{
				"type": "occ",
				"energy": -0.2462,
				"method": "rhf"
			},
			{
				"type": "unocc",
				"energy": -0.06685,
				"method": "rhf"
			},
			{
				"type": "unocc",
				"energy": -0.0242,
				"method": "rhf"
			},
			{
				"type": "unocc",
				"energy": -0.01568,
				"method": "rhf"
			},
			{
				"type": "unocc",
				"energy": -0.01057,
				"method": "rhf"
			},
			{
				"type": "unocc",
				"energy": 0.05137,
				"method": "rhf"
			}
		],
		"cosmo_sigma_profile": { 
			"-0.025": 0.0,
			"-0.024": 0.0,
			"-0.023": 0.0,
			"-0.022": 0.0,
			"-0.021": 0.0,
			"-0.02": 0.0,
			"-0.019": 0.0,
			"-0.018": 0.0,
			"-0.017": 0.0,
			"-0.016": 0.0,
			"-0.015": 0.0,
			"-0.014": 0.0,
			"-0.013": 0.0,
			"-0.012": 0.0,
			"-0.011": 0.740346210214,
			"-0.01": 3.29376842235,
			"-0.009": 2.34086432119,
			"-0.008": 2.5373941915,
			"-0.007": 7.24641736375,
			"-0.006": 15.9174977079,
			"-0.005": 18.3867159027,
			"-0.004": 19.3153718664,
			"-0.003": 18.0064024577,
			"-0.002": 14.8061132581,
			"-0.001": 17.8252087833,
			"0.0": 16.8225661488,
			"0.001": 21.1176477054,
			"0.002": 27.0214980505,
			"0.003": 36.7309693634,
			"0.004": 24.1983543167,
			"0.005": 6.28655666882,
			"0.006": 3.12094328242,
			"0.007": 3.07947989183,
			"0.008": 2.19127178633,
			"0.009": 2.06689763949,
			"0.01": 1.80378640629,
			"0.011": 2.68506555224,
			"0.012": 4.20444099531,
			"0.013": 0.784550440311,
			"0.014": 0.0,
			"0.015": 0.0,
			"0.016": 0.0,
			"0.017": 0.0,
			"0.018": 0.0,
			"0.019": 0.0,
			"0.02": 0.0,
			"0.021": 0.0,
			"0.022": 0.0,
			"0.023": 0.0,
			"0.024": 0.0,
			"0.025": 0.0
		}
	}
}
