{
	 "smiles": "ClC1=C(C=CC(Br)=C1)C#N", 
	 "Tm": 343.15, 
	 "num_atms": 13, 
	 "gaussian": { 
		 "optdone": 1, 
		 "sigma_profile": "yes", 
		 "theory": "DFT", 
		 "functional": "B3LYP", 
		 "basiset": "6-31G**", 
		 "properties": { 
			 "R2extent": 3448.3429, 
			 "electric_dipole_moment_norm": 3.74988868901, 
			 "electric_quadrupole_moment_norm": 11.7354799676, 
			 "total_energy": -3354.87783161, 
			 "HOMO_LUMO_gap": 0.19428, 
			 "cosmo_polarized_energy": -8.35, 
			 "cosmo_cavitation_energy": 23.03, 
			 "cosmo_dispersion_energy": -16.95, 
			 "cosmo_repulsion_energy": 1.38, 
			 "cosmo_total_nonelectrostatic_energy": 7.46, 
			 "SMD_solvation_energy": 3.89 
		},
		"coords": [
			{
				"x": 1.1503073762,
				"y": 2.2766152779,
				"z": 0.4682257124,
				"element": "Cl" 
			},
			{
				"x": 0.0863330143,
				"y": 0.9801945545,
				"z": -0.0051346095,
				"element": "C" 
			},
			{
				"x": 0.055088369,
				"y": -0.219930304,
				"z": 0.7312356127,
				"element": "C" 
			},
			{
				"x": -0.8168498356,
				"y": -1.242986472,
				"z": 0.317814763,
				"element": "C" 
			},
			{
				"x": -1.6348470175,
				"y": -1.081694001,
				"z": -0.7938321595,
				"element": "C" 
			},
			{
				"x": -1.5818553957,
				"y": 0.1188609611,
				"z": -1.503674741,
				"element": "C" 
			},
			{
				"x": -2.6948762451,
				"y": 0.3563172455,
				"z": -3.0280882688,
				"element": "Br" 
			},
			{
				"x": -0.7292656189,
				"y": 1.1532771679,
				"z": -1.1214100759,
				"element": "C" 
			},
			{
				"x": 0.8826624812,
				"y": -0.4221722869,
				"z": 1.8811265656,
				"element": "C" 
			},
			{
				"x": 1.5388420222,
				"y": -0.6240619711,
				"z": 2.8196830686,
				"element": "N" 
			},
			{
				"x": -0.8426614615,
				"y": -2.1681467916,
				"z": 0.8833172969,
				"element": "H" 
			},
			{
				"x": -2.3038961645,
				"y": -1.8742128349,
				"z": -1.1062750018,
				"element": "H" 
			},
			{
				"x": -0.6959815241,
				"y": 2.0805394546,
				"z": -1.6790881627,
				"element": "H" 
			}
		],
		 "valence_orbital": [ 
			{
				"type": "occ",
				"energy": -0.33441,
				"method": "rhf"
			},
			{
				"type": "occ",
				"energy": -0.32409,
				"method": "rhf"
			},
			{
				"type": "occ",
				"energy": -0.31196,
				"method": "rhf"
			},
			{
				"type": "occ",
				"energy": -0.28523,
				"method": "rhf"
			},
			{
				"type": "occ",
				"energy": -0.26787,
				"method": "rhf"
			},
			{
				"type": "unocc",
				"energy": -0.07359,
				"method": "rhf"
			},
			{
				"type": "unocc",
				"energy": -0.04867,
				"method": "rhf"
			},
			{
				"type": "unocc",
				"energy": -0.02658,
				"method": "rhf"
			},
			{
				"type": "unocc",
				"energy": 0.01749,
				"method": "rhf"
			},
			{
				"type": "unocc",
				"energy": 0.02752,
				"method": "rhf"
			}
		],
		"cosmo_sigma_profile": { 
			"-0.025": 0.0,
			"-0.024": 0.0,
			"-0.023": 0.0,
			"-0.022": 0.0,
			"-0.021": 0.0,
			"-0.02": 0.0,
			"-0.019": 0.0,
			"-0.018": 0.0,
			"-0.017": 0.0,
			"-0.016": 0.0,
			"-0.015": 0.0,
			"-0.014": 0.0,
			"-0.013": 0.0,
			"-0.012": 0.0,
			"-0.011": 0.0,
			"-0.01": 0.513297938816,
			"-0.009": 4.75670131822,
			"-0.008": 6.49476396867,
			"-0.007": 5.5147499751,
			"-0.006": 4.93471314368,
			"-0.005": 6.38762313598,
			"-0.004": 8.82450169467,
			"-0.003": 12.5037348836,
			"-0.002": 17.3893420344,
			"-0.001": 25.5949310165,
			"0.0": 20.3064471825,
			"0.001": 13.6531277616,
			"0.002": 13.9634188805,
			"0.003": 21.9689882835,
			"0.004": 6.6638246201,
			"0.005": 3.29405905765,
			"0.006": 2.31720642245,
			"0.007": 3.10340461777,
			"0.008": 3.64678796269,
			"0.009": 2.92671078967,
			"0.01": 3.25764984738,
			"0.011": 2.24685365721,
			"0.012": 2.18856329886,
			"0.013": 0.372874519485,
			"0.014": 0.0,
			"0.015": 0.0,
			"0.016": 0.0,
			"0.017": 0.0,
			"0.018": 0.0,
			"0.019": 0.0,
			"0.02": 0.0,
			"0.021": 0.0,
			"0.022": 0.0,
			"0.023": 0.0,
			"0.024": 0.0,
			"0.025": 0.0
		}
	}
}
