{
	 "smiles": "CC1=C(OC2=C1C=C(Br)C=C2Cl)C(O)=O", 
	 "Tm": 546.15, 
	 "num_atms": 21, 
	 "gaussian": { 
		 "optdone": 1, 
		 "sigma_profile": "yes", 
		 "theory": "DFT", 
		 "functional": "B3LYP", 
		 "basiset": "6-31G**", 
		 "properties": { 
			 "R2extent": 6468.5012, 
			 "electric_dipole_moment_norm": 2.68886875842, 
			 "electric_quadrupole_moment_norm": 14.0825966817, 
			 "total_energy": -3641.95292473, 
			 "HOMO_LUMO_gap": 0.17291, 
			 "cosmo_polarized_energy": -11.51, 
			 "cosmo_cavitation_energy": 30.56, 
			 "cosmo_dispersion_energy": -22.7, 
			 "cosmo_repulsion_energy": 1.78, 
			 "cosmo_total_nonelectrostatic_energy": 9.63, 
			 "SMD_solvation_energy": 5.21 
		},
		"coords": [
			{
				"x": 0.1135186833,
				"y": 0.0293812552,
				"z": -2.2160986916,
				"element": "C" 
			},
			{
				"x": -0.4083315919,
				"y": -0.4995331832,
				"z": -0.9158725226,
				"element": "C" 
			},
			{
				"x": -1.3616704863,
				"y": -1.4618240449,
				"z": -0.7327457569,
				"element": "C" 
			},
			{
				"x": -1.6069916629,
				"y": -1.7117277113,
				"z": 0.6119035914,
				"element": "O" 
			},
			{
				"x": -0.7823279972,
				"y": -0.880993148,
				"z": 1.3005765818,
				"element": "C" 
			},
			{
				"x": -0.0120415463,
				"y": -0.1021956797,
				"z": 0.4172964815,
				"element": "C" 
			},
			{
				"x": 0.9086659195,
				"y": 0.8258035124,
				"z": 0.9288858396,
				"element": "C" 
			},
			{
				"x": 1.0127965398,
				"y": 0.9283344125,
				"z": 2.3089709694,
				"element": "C" 
			},
			{
				"x": 2.2491398784,
				"y": 2.1744070875,
				"z": 3.061947445,
				"element": "Br" 
			},
			{
				"x": 0.2412291571,
				"y": 0.1482288772,
				"z": 3.1902742696,
				"element": "C" 
			},
			{
				"x": -0.6715763506,
				"y": -0.7718225147,
				"z": 2.6844649991,
				"element": "C" 
			},
			{
				"x": -1.6471139919,
				"y": -1.7580327621,
				"z": 3.739343648,
				"element": "Cl" 
			},
			{
				"x": -2.1384563385,
				"y": -2.2438614455,
				"z": -1.7088612186,
				"element": "C" 
			},
			{
				"x": -3.0171038395,
				"y": -3.1292427103,
				"z": -1.1885849091,
				"element": "O" 
			},
			{
				"x": -2.0023592574,
				"y": -2.1024510005,
				"z": -2.9040917131,
				"element": "O" 
			},
			{
				"x": -0.6941130235,
				"y": 0.4601929288,
				"z": -2.8144982076,
				"element": "H" 
			},
			{
				"x": 0.8737765168,
				"y": 0.7960775912,
				"z": -2.0500206581,
				"element": "H" 
			},
			{
				"x": 0.55032994,
				"y": -0.7733184303,
				"z": -2.8167790237,
				"element": "H" 
			},
			{
				"x": 1.5177836912,
				"y": 1.4415847474,
				"z": 0.2783012422,
				"element": "H" 
			},
			{
				"x": 0.3546938177,
				"y": 0.2607481827,
				"z": 4.2610144947,
				"element": "H" 
			},
			{
				"x": -2.9851480578,
				"y": -3.0989559644,
				"z": -0.2189268611,
				"element": "H" 
			}
		],
		 "valence_orbital": [ 
			{
				"type": "occ",
				"energy": -0.30299,
				"method": "rhf"
			},
			{
				"type": "occ",
				"energy": -0.29997,
				"method": "rhf"
			},
			{
				"type": "occ",
				"energy": -0.28739,
				"method": "rhf"
			},
			{
				"type": "occ",
				"energy": -0.25744,
				"method": "rhf"
			},
			{
				"type": "occ",
				"energy": -0.25106,
				"method": "rhf"
			},
			{
				"type": "unocc",
				"energy": -0.07815,
				"method": "rhf"
			},
			{
				"type": "unocc",
				"energy": -0.02888,
				"method": "rhf"
			},
			{
				"type": "unocc",
				"energy": -0.01983,
				"method": "rhf"
			},
			{
				"type": "unocc",
				"energy": -0.00643,
				"method": "rhf"
			},
			{
				"type": "unocc",
				"energy": 0.02245,
				"method": "rhf"
			}
		],
		"cosmo_sigma_profile": { 
			"-0.025": 0.0,
			"-0.024": 0.0,
			"-0.023": 0.0,
			"-0.022": 0.0,
			"-0.021": 0.0,
			"-0.02": 0.0,
			"-0.019": 0.0,
			"-0.018": 0.0,
			"-0.017": 0.201289426974,
			"-0.016": 1.02267071415,
			"-0.015": 0.445872895112,
			"-0.014": 0.667630237905,
			"-0.013": 0.627591967844,
			"-0.012": 0.923596459293,
			"-0.011": 0.898809709483,
			"-0.01": 0.936375272739,
			"-0.009": 2.02408470086,
			"-0.008": 5.34865167178,
			"-0.007": 5.96592862243,
			"-0.006": 6.4256059643,
			"-0.005": 10.9616151483,
			"-0.004": 12.1994018013,
			"-0.003": 15.3470709194,
			"-0.002": 26.0044251212,
			"-0.001": 29.4172045625,
			"0.0": 24.4013022174,
			"0.001": 26.0158514825,
			"0.002": 14.2402677962,
			"0.003": 20.787678523,
			"0.004": 16.9170427539,
			"0.005": 4.17741208619,
			"0.006": 2.72000012158,
			"0.007": 2.70984656135,
			"0.008": 2.39830201405,
			"0.009": 4.6252145203,
			"0.01": 4.66698690718,
			"0.011": 4.42676887065,
			"0.012": 3.23117530799,
			"0.013": 0.697239016163,
			"0.014": 0.0,
			"0.015": 0.0,
			"0.016": 0.0,
			"0.017": 0.0,
			"0.018": 0.0,
			"0.019": 0.0,
			"0.02": 0.0,
			"0.021": 0.0,
			"0.022": 0.0,
			"0.023": 0.0,
			"0.024": 0.0,
			"0.025": 0.0
		}
	}
}
