{
	 "smiles": "NC(=O)C1CC(O)CN1", 
	 "Tm": 391.15, 
	 "num_atms": 19, 
	 "gaussian": { 
		 "optdone": 1, 
		 "sigma_profile": "yes", 
		 "theory": "DFT", 
		 "functional": "B3LYP", 
		 "basiset": "6-31G**", 
		 "properties": { 
			 "R2extent": 1397.6567, 
			 "electric_dipole_moment_norm": 2.29271697774, 
			 "electric_quadrupole_moment_norm": 14.714305635, 
			 "total_energy": -456.513438023, 
			 "HOMO_LUMO_gap": 0.2613, 
			 "cosmo_polarized_energy": -14.95, 
			 "cosmo_cavitation_energy": 21.26, 
			 "cosmo_dispersion_energy": -16.12, 
			 "cosmo_repulsion_energy": 1.35, 
			 "cosmo_total_nonelectrostatic_energy": 6.5, 
			 "SMD_solvation_energy": 2.67 
		},
		"coords": [
			{
				"x": -0.4087775792,
				"y": -0.9751930597,
				"z": 1.7493538334,
				"element": "N" 
			},
			{
				"x": 0.3742434531,
				"y": -1.3965634704,
				"z": 0.7239375225,
				"element": "C" 
			},
			{
				"x": 1.3945694669,
				"y": -2.0609804793,
				"z": 0.8576835305,
				"element": "O" 
			},
			{
				"x": -0.1654378335,
				"y": -1.0102676999,
				"z": -0.6686830696,
				"element": "C" 
			},
			{
				"x": 0.9951221476,
				"y": -0.6338852046,
				"z": -1.6399773789,
				"element": "C" 
			},
			{
				"x": 0.6447107073,
				"y": 0.7892800725,
				"z": -2.1172702637,
				"element": "C" 
			},
			{
				"x": -0.1775287468,
				"y": 0.7787136713,
				"z": -3.2873836866,
				"element": "O" 
			},
			{
				"x": -0.2505718587,
				"y": 1.3055761361,
				"z": -0.9853701311,
				"element": "C" 
			},
			{
				"x": -1.0839447912,
				"y": 0.1516921078,
				"z": -0.5978705208,
				"element": "N" 
			},
			{
				"x": -1.1649665476,
				"y": -0.338567635,
				"z": 1.536500939,
				"element": "H" 
			},
			{
				"x": -0.1161638008,
				"y": -1.1599974266,
				"z": 2.6957941101,
				"element": "H" 
			},
			{
				"x": -0.7189080704,
				"y": -1.8864898009,
				"z": -1.0228421061,
				"element": "H" 
			},
			{
				"x": 1.951658735,
				"y": -0.6660666287,
				"z": -1.111817975,
				"element": "H" 
			},
			{
				"x": 1.0707165058,
				"y": -1.326561824,
				"z": -2.4838762752,
				"element": "H" 
			},
			{
				"x": 1.5364814477,
				"y": 1.4133495539,
				"z": -2.2730841099,
				"element": "H" 
			},
			{
				"x": 0.3043465394,
				"y": 0.3186833182,
				"z": -3.9862645809,
				"element": "H" 
			},
			{
				"x": -0.868353003,
				"y": 2.1520870216,
				"z": -1.2937990821,
				"element": "H" 
			},
			{
				"x": 0.3642559239,
				"y": 1.6119191476,
				"z": -0.1301088094,
				"element": "H" 
			},
			{
				"x": -1.7878526956,
				"y": 0.0407722,
				"z": -1.3239219459,
				"element": "H" 
			}
		],
		 "valence_orbital": [ 
			{
				"type": "occ",
				"energy": -0.32949,
				"method": "rhf"
			},
			{
				"type": "occ",
				"energy": -0.27403,
				"method": "rhf"
			},
			{
				"type": "occ",
				"energy": -0.26112,
				"method": "rhf"
			},
			{
				"type": "occ",
				"energy": -0.25476,
				"method": "rhf"
			},
			{
				"type": "occ",
				"energy": -0.22927,
				"method": "rhf"
			},
			{
				"type": "unocc",
				"energy": 0.03203,
				"method": "rhf"
			},
			{
				"type": "unocc",
				"energy": 0.0709,
				"method": "rhf"
			},
			{
				"type": "unocc",
				"energy": 0.09578,
				"method": "rhf"
			},
			{
				"type": "unocc",
				"energy": 0.10054,
				"method": "rhf"
			},
			{
				"type": "unocc",
				"energy": 0.12516,
				"method": "rhf"
			}
		],
		"cosmo_sigma_profile": { 
			"-0.025": 0.0,
			"-0.024": 0.0,
			"-0.023": 0.0,
			"-0.022": 0.0,
			"-0.021": 0.0,
			"-0.02": 0.0,
			"-0.019": 0.0,
			"-0.018": 0.0,
			"-0.017": 0.0,
			"-0.016": 0.0281784829056,
			"-0.015": 1.01955179071,
			"-0.014": 1.2118618359,
			"-0.013": 2.04973953998,
			"-0.012": 2.21622518398,
			"-0.011": 1.54712455108,
			"-0.01": 3.34182576967,
			"-0.009": 4.0251156055,
			"-0.008": 4.2021204888,
			"-0.007": 4.76903805179,
			"-0.006": 6.52812744383,
			"-0.005": 7.37288780535,
			"-0.004": 15.019357376,
			"-0.003": 15.9811375107,
			"-0.002": 11.9104587621,
			"-0.001": 11.43039153,
			"0.0": 9.07634409123,
			"0.001": 7.06224455787,
			"0.002": 4.86848591405,
			"0.003": 6.29903652831,
			"0.004": 5.25125693668,
			"0.005": 4.46273177265,
			"0.006": 3.63803040168,
			"0.007": 3.78893214325,
			"0.008": 2.91923057093,
			"0.009": 2.59690397975,
			"0.01": 2.91674895261,
			"0.011": 3.0439556158,
			"0.012": 3.01540749481,
			"0.013": 3.18753767542,
			"0.014": 6.3874740079,
			"0.015": 3.56449010588,
			"0.016": 0.0985950639264,
			"0.017": 0.0,
			"0.018": 0.0,
			"0.019": 0.0,
			"0.02": 0.0,
			"0.021": 0.0,
			"0.022": 0.0,
			"0.023": 0.0,
			"0.024": 0.0,
			"0.025": 0.0
		}
	}
}
