{
	 "smiles": "CN(C)CC(O)CN1C=C(N)C=N1", 
	 "Tm": 342.15, 
	 "num_atms": 29, 
	 "gaussian": { 
		 "optdone": 1, 
		 "sigma_profile": "yes", 
		 "theory": "DFT", 
		 "functional": "B3LYP", 
		 "basiset": "6-31G**", 
		 "properties": { 
			 "R2extent": 3465.1848, 
			 "electric_dipole_moment_norm": 3.42139497135, 
			 "electric_quadrupole_moment_norm": 13.7989578795, 
			 "total_energy": -608.675561564, 
			 "HOMO_LUMO_gap": 0.21859, 
			 "cosmo_polarized_energy": -15.07, 
			 "cosmo_cavitation_energy": 31.08, 
			 "cosmo_dispersion_energy": -21.74, 
			 "cosmo_repulsion_energy": 1.74, 
			 "cosmo_total_nonelectrostatic_energy": 11.09, 
			 "SMD_solvation_energy": 4.53 
		},
		"coords": [
			{
				"x": -3.0756976838,
				"y": 1.541533577,
				"z": -0.7379008953,
				"element": "C" 
			},
			{
				"x": -1.8276871784,
				"y": 1.7913636404,
				"z": -1.4538239362,
				"element": "N" 
			},
			{
				"x": -2.0822039353,
				"y": 2.2266716835,
				"z": -2.826227192,
				"element": "C" 
			},
			{
				"x": -0.8680039059,
				"y": 0.6709053107,
				"z": -1.3743299931,
				"element": "C" 
			},
			{
				"x": 0.4056786892,
				"y": 1.114327138,
				"z": -0.6294480675,
				"element": "C" 
			},
			{
				"x": 0.8331392006,
				"y": 2.374431889,
				"z": -1.121179409,
				"element": "O" 
			},
			{
				"x": 0.2271556605,
				"y": 1.2285755151,
				"z": 0.8974568749,
				"element": "C" 
			},
			{
				"x": -0.1494630898,
				"y": -0.025822137,
				"z": 1.5311045913,
				"element": "N" 
			},
			{
				"x": -1.1579384808,
				"y": -0.2348518443,
				"z": 2.4346609113,
				"element": "C" 
			},
			{
				"x": -1.109432393,
				"y": -1.5762889468,
				"z": 2.7847176725,
				"element": "C" 
			},
			{
				"x": -1.9823495577,
				"y": -2.2904843208,
				"z": 3.6254471111,
				"element": "N" 
			},
			{
				"x": -0.0266831927,
				"y": -2.0889219617,
				"z": 2.0314275253,
				"element": "C" 
			},
			{
				"x": 0.5496303177,
				"y": -1.1443825048,
				"z": 1.2811398031,
				"element": "N" 
			},
			{
				"x": -2.8662696524,
				"y": 1.2272798178,
				"z": 0.2878677488,
				"element": "H" 
			},
			{
				"x": -3.6705954842,
				"y": 2.4604500316,
				"z": -0.6981131441,
				"element": "H" 
			},
			{
				"x": -3.6939561494,
				"y": 0.7564985504,
				"z": -1.2103912676,
				"element": "H" 
			},
			{
				"x": -1.1352148028,
				"y": 2.466183732,
				"z": -3.3171101982,
				"element": "H" 
			},
			{
				"x": -2.6047720636,
				"y": 1.4643476305,
				"z": -3.4327967303,
				"element": "H" 
			},
			{
				"x": -2.6997311607,
				"y": 3.1312704166,
				"z": -2.8175071881,
				"element": "H" 
			},
			{
				"x": -0.5802550344,
				"y": 0.3568388137,
				"z": -2.3839836039,
				"element": "H" 
			},
			{
				"x": -1.3127126215,
				"y": -0.2030023741,
				"z": -0.884883491,
				"element": "H" 
			},
			{
				"x": 1.2048707763,
				"y": 0.3943242652,
				"z": -0.8258017727,
				"element": "H" 
			},
			{
				"x": 0.0108080133,
				"y": 2.89545958,
				"z": -1.1542175435,
				"element": "H" 
			},
			{
				"x": 1.1652809343,
				"y": 1.5999791509,
				"z": 1.3231386807,
				"element": "H" 
			},
			{
				"x": -0.5564710953,
				"y": 1.9591120961,
				"z": 1.1204328781,
				"element": "H" 
			},
			{
				"x": -1.806165778,
				"y": 0.5661895077,
				"z": 2.7585475792,
				"element": "H" 
			},
			{
				"x": -2.3745992197,
				"y": -1.7183604609,
				"z": 4.3636941718,
				"element": "H" 
			},
			{
				"x": -1.5379639864,
				"y": -3.1018394877,
				"z": 4.0383372613,
				"element": "H" 
			},
			{
				"x": 0.3476028741,
				"y": -3.1042883081,
				"z": 2.0049416229,
				"element": "H" 
			}
		],
		 "valence_orbital": [ 
			{
				"type": "occ",
				"energy": -0.27873,
				"method": "rhf"
			},
			{
				"type": "occ",
				"energy": -0.26497,
				"method": "rhf"
			},
			{
				"type": "occ",
				"energy": -0.23754,
				"method": "rhf"
			},
			{
				"type": "occ",
				"energy": -0.2221,
				"method": "rhf"
			},
			{
				"type": "occ",
				"energy": -0.19279,
				"method": "rhf"
			},
			{
				"type": "unocc",
				"energy": 0.0258,
				"method": "rhf"
			},
			{
				"type": "unocc",
				"energy": 0.06803,
				"method": "rhf"
			},
			{
				"type": "unocc",
				"energy": 0.07925,
				"method": "rhf"
			},
			{
				"type": "unocc",
				"energy": 0.09758,
				"method": "rhf"
			},
			{
				"type": "unocc",
				"energy": 0.10183,
				"method": "rhf"
			}
		],
		"cosmo_sigma_profile": { 
			"-0.025": 0.0,
			"-0.024": 0.0,
			"-0.023": 0.0,
			"-0.022": 0.0,
			"-0.021": 0.0,
			"-0.02": 0.0,
			"-0.019": 0.0,
			"-0.018": 0.0,
			"-0.017": 0.0,
			"-0.016": 0.0,
			"-0.015": 0.0,
			"-0.014": 0.0,
			"-0.013": 0.0,
			"-0.012": 1.32079059835,
			"-0.011": 3.11805201587,
			"-0.01": 2.74413570695,
			"-0.009": 2.69071577838,
			"-0.008": 5.15169827948,
			"-0.007": 8.38217649219,
			"-0.006": 8.27573683643,
			"-0.005": 9.64396298374,
			"-0.004": 16.1385675894,
			"-0.003": 22.9715338343,
			"-0.002": 28.8743386635,
			"-0.001": 30.9172224569,
			"0.0": 23.5035367828,
			"0.001": 7.92138044735,
			"0.002": 7.20684777875,
			"0.003": 6.73425206076,
			"0.004": 7.75257571596,
			"0.005": 7.14463416143,
			"0.006": 7.96860554366,
			"0.007": 6.15300111626,
			"0.008": 3.89340663337,
			"0.009": 3.25471187635,
			"0.01": 3.04195921705,
			"0.011": 3.41971930021,
			"0.012": 3.32849074204,
			"0.013": 3.22952716174,
			"0.014": 3.96490198555,
			"0.015": 2.35818479593,
			"0.016": 0.788319159847,
			"0.017": 0.349112726523,
			"0.018": 0.0,
			"0.019": 0.0,
			"0.02": 0.0,
			"0.021": 0.0,
			"0.022": 0.0,
			"0.023": 0.0,
			"0.024": 0.0,
			"0.025": 0.0
		}
	}
}
