{
	 "smiles": "FC(F)(F)C1=CC2=C(SC(Cl)=N2)C=C1", 
	 "Tm": 331.15, 
	 "num_atms": 17, 
	 "gaussian": { 
		 "optdone": 1, 
		 "sigma_profile": "yes", 
		 "theory": "DFT", 
		 "functional": "B3LYP", 
		 "basiset": "6-31G**", 
		 "properties": { 
			 "R2extent": 5506.9219, 
			 "electric_dipole_moment_norm": 2.62879705949, 
			 "electric_quadrupole_moment_norm": 6.28714818101, 
			 "total_energy": -1519.31669104, 
			 "HOMO_LUMO_gap": 0.20118, 
			 "cosmo_polarized_energy": -5.44, 
			 "cosmo_cavitation_energy": 26.93, 
			 "cosmo_dispersion_energy": -20.23, 
			 "cosmo_repulsion_energy": 1.47, 
			 "cosmo_total_nonelectrostatic_energy": 8.17, 
			 "SMD_solvation_energy": 3.23 
		},
		"coords": [
			{
				"x": -1.1747490017,
				"y": 2.0575447496,
				"z": 1.1968599876,
				"element": "F" 
			},
			{
				"x": -1.4103946788,
				"y": 0.8544581162,
				"z": 0.6254676011,
				"element": "C" 
			},
			{
				"x": -2.0548217346,
				"y": 1.098650798,
				"z": -0.5389504811,
				"element": "F" 
			},
			{
				"x": -2.2665748652,
				"y": 0.1842692806,
				"z": 1.4236215638,
				"element": "F" 
			},
			{
				"x": -0.130735398,
				"y": 0.0941477448,
				"z": 0.3970059016,
				"element": "C" 
			},
			{
				"x": -0.0542830417,
				"y": -1.2588845669,
				"z": 0.7043761993,
				"element": "C" 
			},
			{
				"x": 1.1406225046,
				"y": -1.9398044157,
				"z": 0.4409523012,
				"element": "C" 
			},
			{
				"x": 2.2359417746,
				"y": -1.2458198047,
				"z": -0.1284439786,
				"element": "C" 
			},
			{
				"x": 3.5780176593,
				"y": -2.3555806291,
				"z": -0.3363755501,
				"element": "S" 
			},
			{
				"x": 2.5431282603,
				"y": -3.618986472,
				"z": 0.3536325831,
				"element": "C" 
			},
			{
				"x": 3.1791073665,
				"y": -5.216729385,
				"z": 0.5221965842,
				"element": "Cl" 
			},
			{
				"x": 1.3536853156,
				"y": -3.287213161,
				"z": 0.701226609,
				"element": "N" 
			},
			{
				"x": 2.1555380766,
				"y": 0.1150594921,
				"z": -0.4355834025,
				"element": "C" 
			},
			{
				"x": 0.9635771472,
				"y": 0.7767981316,
				"z": -0.1677192373,
				"element": "C" 
			},
			{
				"x": -0.8909296998,
				"y": -1.7887368095,
				"z": 1.143111192,
				"element": "H" 
			},
			{
				"x": 2.9964275021,
				"y": 0.6466366846,
				"z": -0.867926202,
				"element": "H" 
			},
			{
				"x": 0.8743428131,
				"y": 1.8350902464,
				"z": -0.3883516712,
				"element": "H" 
			}
		],
		 "valence_orbital": [ 
			{
				"type": "occ",
				"energy": -0.34071,
				"method": "rhf"
			},
			{
				"type": "occ",
				"energy": -0.32941,
				"method": "rhf"
			},
			{
				"type": "occ",
				"energy": -0.30874,
				"method": "rhf"
			},
			{
				"type": "occ",
				"energy": -0.26369,
				"method": "rhf"
			},
			{
				"type": "occ",
				"energy": -0.26042,
				"method": "rhf"
			},
			{
				"type": "unocc",
				"energy": -0.05924,
				"method": "rhf"
			},
			{
				"type": "unocc",
				"energy": -0.03966,
				"method": "rhf"
			},
			{
				"type": "unocc",
				"energy": -0.02356,
				"method": "rhf"
			},
			{
				"type": "unocc",
				"energy": 0.00424,
				"method": "rhf"
			},
			{
				"type": "unocc",
				"energy": 0.01325,
				"method": "rhf"
			}
		],
		"cosmo_sigma_profile": { 
			"-0.025": 0.0,
			"-0.024": 0.0,
			"-0.023": 0.0,
			"-0.022": 0.0,
			"-0.021": 0.0,
			"-0.02": 0.0,
			"-0.019": 0.0,
			"-0.018": 0.0,
			"-0.017": 0.0,
			"-0.016": 0.0,
			"-0.015": 0.0,
			"-0.014": 0.0,
			"-0.013": 0.0,
			"-0.012": 0.0,
			"-0.011": 0.0,
			"-0.01": 0.02262761534,
			"-0.009": 1.51165697522,
			"-0.008": 4.86109231456,
			"-0.007": 6.04286036571,
			"-0.006": 5.40888177059,
			"-0.005": 6.31404710465,
			"-0.004": 8.468409814,
			"-0.003": 16.1172631265,
			"-0.002": 16.3144820112,
			"-0.001": 19.6690936147,
			"0.0": 25.380223097,
			"0.001": 31.712988561,
			"0.002": 37.2094483835,
			"0.003": 30.8081365523,
			"0.004": 3.78779763009,
			"0.005": 1.85135356342,
			"0.006": 1.05554564366,
			"0.007": 1.19966872531,
			"0.008": 0.966406530195,
			"0.009": 1.2881794856,
			"0.01": 1.03516344985,
			"0.011": 0.400005138593,
			"0.012": 1.16601087435,
			"0.013": 0.242623053566,
			"0.014": 0.0,
			"0.015": 0.0,
			"0.016": 0.0,
			"0.017": 0.0,
			"0.018": 0.0,
			"0.019": 0.0,
			"0.02": 0.0,
			"0.021": 0.0,
			"0.022": 0.0,
			"0.023": 0.0,
			"0.024": 0.0,
			"0.025": 0.0
		}
	}
}
