{
	 "smiles": "CC(C)(C)OC(=O)C(C#N)C1=C(Cl)N=CC=N1", 
	 "Tm": 336.15, 
	 "num_atms": 29, 
	 "gaussian": { 
		 "optdone": 1, 
		 "sigma_profile": "yes", 
		 "theory": "DFT", 
		 "functional": "B3LYP", 
		 "basiset": "6-31G**", 
		 "properties": { 
			 "R2extent": 6213.5018, 
			 "electric_dipole_moment_norm": 2.19105539181, 
			 "electric_quadrupole_moment_norm": 27.3408000344, 
			 "total_energy": -1201.28013414, 
			 "HOMO_LUMO_gap": 0.2051, 
			 "cosmo_polarized_energy": -14.7, 
			 "cosmo_cavitation_energy": 36.0, 
			 "cosmo_dispersion_energy": -23.8, 
			 "cosmo_repulsion_energy": 1.88, 
			 "cosmo_total_nonelectrostatic_energy": 14.07, 
			 "SMD_solvation_energy": 5.79 
		},
		"coords": [
			{
				"x": -1.247337095,
				"y": 1.4224115054,
				"z": -2.9701512959,
				"element": "C" 
			},
			{
				"x": -1.0974981406,
				"y": 0.6479498811,
				"z": -1.6606030548,
				"element": "C" 
			},
			{
				"x": -1.5894054491,
				"y": -0.7938617278,
				"z": -1.8064761633,
				"element": "C" 
			},
			{
				"x": -1.7682095163,
				"y": 1.3861912027,
				"z": -0.5000316649,
				"element": "C" 
			},
			{
				"x": 0.3781404213,
				"y": 0.6488462123,
				"z": -1.4592077164,
				"element": "O" 
			},
			{
				"x": 0.9420799621,
				"y": 0.0858808536,
				"z": -0.3947835204,
				"element": "C" 
			},
			{
				"x": 0.402716755,
				"y": -0.5225383146,
				"z": 0.4998745771,
				"element": "O" 
			},
			{
				"x": 2.4866892611,
				"y": 0.2893266037,
				"z": -0.463848236,
				"element": "C" 
			},
			{
				"x": 2.8189243093,
				"y": 1.7104493748,
				"z": -0.6140669528,
				"element": "C" 
			},
			{
				"x": 3.0758414177,
				"y": 2.8306185369,
				"z": -0.7689439299,
				"element": "N" 
			},
			{
				"x": 3.1605103201,
				"y": -0.3400546578,
				"z": 0.7424868663,
				"element": "C" 
			},
			{
				"x": 3.4668180197,
				"y": -1.7136831337,
				"z": 0.8097678709,
				"element": "C" 
			},
			{
				"x": 3.1031887541,
				"y": -2.7764863419,
				"z": -0.5442431005,
				"element": "Cl" 
			},
			{
				"x": 4.0332483903,
				"y": -2.2708362747,
				"z": 1.8605312439,
				"element": "N" 
			},
			{
				"x": 4.3091677792,
				"y": -1.4676093918,
				"z": 2.895475057,
				"element": "C" 
			},
			{
				"x": 4.0123881648,
				"y": -0.1075903831,
				"z": 2.8530634232,
				"element": "C" 
			},
			{
				"x": 3.4428828148,
				"y": 0.446701495,
				"z": 1.77842327,
				"element": "N" 
			},
			{
				"x": -0.8381711202,
				"y": 2.4314910011,
				"z": -2.8714614432,
				"element": "H" 
			},
			{
				"x": -2.3055069348,
				"y": 1.4996909223,
				"z": -3.2364379893,
				"element": "H" 
			},
			{
				"x": -0.7217676466,
				"y": 0.914165919,
				"z": -3.7834860324,
				"element": "H" 
			},
			{
				"x": -2.652062786,
				"y": -0.7876098064,
				"z": -2.06886874,
				"element": "H" 
			},
			{
				"x": -1.4629781298,
				"y": -1.3526638837,
				"z": -0.8785572341,
				"element": "H" 
			},
			{
				"x": -1.0463270417,
				"y": -1.3049076254,
				"z": -2.6073346099,
				"element": "H" 
			},
			{
				"x": -1.6523248824,
				"y": 0.8424598926,
				"z": 0.438291626,
				"element": "H" 
			},
			{
				"x": -1.3422117588,
				"y": 2.3875844247,
				"z": -0.387410321,
				"element": "H" 
			},
			{
				"x": -2.8369299434,
				"y": 1.4930400045,
				"z": -0.7108503636,
				"element": "H" 
			},
			{
				"x": 2.8134706081,
				"y": -0.2212610217,
				"z": -1.3776340316,
				"element": "H" 
			},
			{
				"x": 4.7760886146,
				"y": -1.9247480079,
				"z": 3.7640221674,
				"element": "H" 
			},
			{
				"x": 4.2360748526,
				"y": 0.5489427409,
				"z": 3.6896602983,
				"element": "H" 
			}
		],
		 "valence_orbital": [ 
			{
				"type": "occ",
				"energy": -0.32141,
				"method": "rhf"
			},
			{
				"type": "occ",
				"energy": -0.31492,
				"method": "rhf"
			},
			{
				"type": "occ",
				"energy": -0.28725,
				"method": "rhf"
			},
			{
				"type": "occ",
				"energy": -0.28092,
				"method": "rhf"
			},
			{
				"type": "occ",
				"energy": -0.27718,
				"method": "rhf"
			},
			{
				"type": "unocc",
				"energy": -0.07208,
				"method": "rhf"
			},
			{
				"type": "unocc",
				"energy": -0.04992,
				"method": "rhf"
			},
			{
				"type": "unocc",
				"energy": -0.01344,
				"method": "rhf"
			},
			{
				"type": "unocc",
				"energy": 0.01433,
				"method": "rhf"
			},
			{
				"type": "unocc",
				"energy": 0.03425,
				"method": "rhf"
			}
		],
		"cosmo_sigma_profile": { 
			"-0.025": 0.0,
			"-0.024": 0.0,
			"-0.023": 0.0,
			"-0.022": 0.0,
			"-0.021": 0.0,
			"-0.02": 0.0,
			"-0.019": 0.0,
			"-0.018": 0.0,
			"-0.017": 0.0,
			"-0.016": 0.0,
			"-0.015": 0.0,
			"-0.014": 0.0,
			"-0.013": 0.0,
			"-0.012": 0.323287806919,
			"-0.011": 1.52489110997,
			"-0.01": 1.78808100472,
			"-0.009": 5.82984212767,
			"-0.008": 7.75078889589,
			"-0.007": 5.56658541119,
			"-0.006": 6.72956093025,
			"-0.005": 12.735349679,
			"-0.004": 24.4559786577,
			"-0.003": 26.6517822539,
			"-0.002": 28.5802864552,
			"-0.001": 30.2644086318,
			"0.0": 30.2749826021,
			"0.001": 15.5269328687,
			"0.002": 10.8412217006,
			"0.003": 14.9953215789,
			"0.004": 11.0322165599,
			"0.005": 9.38882437544,
			"0.006": 6.75497797861,
			"0.007": 7.4285553989,
			"0.008": 7.97184768095,
			"0.009": 7.33900281599,
			"0.01": 7.0438720764,
			"0.011": 4.58552444661,
			"0.012": 3.27081586011,
			"0.013": 0.431433094683,
			"0.014": 0.0,
			"0.015": 0.0,
			"0.016": 0.0,
			"0.017": 0.0,
			"0.018": 0.0,
			"0.019": 0.0,
			"0.02": 0.0,
			"0.021": 0.0,
			"0.022": 0.0,
			"0.023": 0.0,
			"0.024": 0.0,
			"0.025": 0.0
		}
	}
}
