{
	 "smiles": "CC1=C(C#N)C2=CC=CC=C2N1", 
	 "Tm": 485.15, 
	 "num_atms": 20, 
	 "gaussian": { 
		 "optdone": 1, 
		 "sigma_profile": "yes", 
		 "theory": "DFT", 
		 "functional": "B3LYP", 
		 "basiset": "6-31G**", 
		 "properties": { 
			 "R2extent": 2105.5985, 
			 "electric_dipole_moment_norm": 6.03334914455, 
			 "electric_quadrupole_moment_norm": 19.5083867808, 
			 "total_energy": -495.390451765, 
			 "HOMO_LUMO_gap": 0.18657, 
			 "cosmo_polarized_energy": -15.62, 
			 "cosmo_cavitation_energy": 25.09, 
			 "cosmo_dispersion_energy": -17.89, 
			 "cosmo_repulsion_energy": 1.42, 
			 "cosmo_total_nonelectrostatic_energy": 8.62, 
			 "SMD_solvation_energy": 5.3 
		},
		"coords": [
			{
				"x": -1.0612567822,
				"y": -0.2580692748,
				"z": -3.6325367328,
				"element": "C" 
			},
			{
				"x": -0.5773166917,
				"y": -0.2779734548,
				"z": -2.21853737,
				"element": "C" 
			},
			{
				"x": -0.648389459,
				"y": 0.7066194543,
				"z": -1.2426559333,
				"element": "C" 
			},
			{
				"x": -1.2269435898,
				"y": 1.9872709558,
				"z": -1.4178794338,
				"element": "C" 
			},
			{
				"x": -1.7022419123,
				"y": 3.042360774,
				"z": -1.5581333028,
				"element": "N" 
			},
			{
				"x": -0.0323770344,
				"y": 0.1827297613,
				"z": -0.0433189727,
				"element": "C" 
			},
			{
				"x": 0.1938477108,
				"y": 0.6920466055,
				"z": 1.2437280734,
				"element": "C" 
			},
			{
				"x": 0.8349663646,
				"y": -0.1162690925,
				"z": 2.1750260607,
				"element": "C" 
			},
			{
				"x": 1.2538255055,
				"y": -1.4212590019,
				"z": 1.8461824735,
				"element": "C" 
			},
			{
				"x": 1.0406938765,
				"y": -1.9483293029,
				"z": 0.5766416333,
				"element": "C" 
			},
			{
				"x": 0.3957744075,
				"y": -1.1313491622,
				"z": -0.3553617952,
				"element": "C" 
			},
			{
				"x": 0.0491184747,
				"y": -1.3726586365,
				"z": -1.676640174,
				"element": "N" 
			},
			{
				"x": -2.1414252347,
				"y": -0.0851452976,
				"z": -3.6751043306,
				"element": "H" 
			},
			{
				"x": -0.582455057,
				"y": 0.5465308383,
				"z": -4.1998576031,
				"element": "H" 
			},
			{
				"x": -0.848741559,
				"y": -1.2035799626,
				"z": -4.1393625066,
				"element": "H" 
			},
			{
				"x": -0.1272579385,
				"y": 1.6967969335,
				"z": 1.5010336894,
				"element": "H" 
			},
			{
				"x": 1.0180495895,
				"y": 0.2623112795,
				"z": 3.1761154007,
				"element": "H" 
			},
			{
				"x": 1.7520550732,
				"y": -2.0268191197,
				"z": 2.5971205981,
				"element": "H" 
			},
			{
				"x": 1.3629928686,
				"y": -2.953874973,
				"z": 0.3219838811,
				"element": "H" 
			},
			{
				"x": 0.2277813874,
				"y": -2.2288393234,
				"z": -2.1778436554,
				"element": "H" 
			}
		],
		 "valence_orbital": [ 
			{
				"type": "occ",
				"energy": -0.3424,
				"method": "rhf"
			},
			{
				"type": "occ",
				"energy": -0.31435,
				"method": "rhf"
			},
			{
				"type": "occ",
				"energy": -0.27842,
				"method": "rhf"
			},
			{
				"type": "occ",
				"energy": -0.23527,
				"method": "rhf"
			},
			{
				"type": "occ",
				"energy": -0.2153,
				"method": "rhf"
			},
			{
				"type": "unocc",
				"energy": -0.02873,
				"method": "rhf"
			},
			{
				"type": "unocc",
				"energy": 0.00848,
				"method": "rhf"
			},
			{
				"type": "unocc",
				"energy": 0.01683,
				"method": "rhf"
			},
			{
				"type": "unocc",
				"energy": 0.03978,
				"method": "rhf"
			},
			{
				"type": "unocc",
				"energy": 0.05958,
				"method": "rhf"
			}
		],
		"cosmo_sigma_profile": { 
			"-0.025": 0.0,
			"-0.024": 0.0,
			"-0.023": 0.0,
			"-0.022": 0.0,
			"-0.021": 0.0,
			"-0.02": 0.0,
			"-0.019": 0.0,
			"-0.018": 0.0,
			"-0.017": 0.285724613528,
			"-0.016": 1.47912203062,
			"-0.015": 1.24904853644,
			"-0.014": 1.76572311746,
			"-0.013": 1.48298804329,
			"-0.012": 1.17817476377,
			"-0.011": 1.96292159305,
			"-0.01": 1.10153173072,
			"-0.009": 1.64469730873,
			"-0.008": 1.68866074176,
			"-0.007": 3.73243349439,
			"-0.006": 9.04753159179,
			"-0.005": 13.2123935994,
			"-0.004": 15.6901408431,
			"-0.003": 16.8690371726,
			"-0.002": 17.1929836123,
			"-0.001": 10.1811344766,
			"0.0": 9.87630873842,
			"0.001": 12.7157215182,
			"0.002": 13.3067963502,
			"0.003": 12.7004645666,
			"0.004": 10.7597754366,
			"0.005": 10.4817438674,
			"0.006": 9.10594401667,
			"0.007": 2.61103316406,
			"0.008": 2.83694972933,
			"0.009": 3.26534512296,
			"0.01": 3.6856692265,
			"0.011": 3.37594519122,
			"0.012": 3.11393187721,
			"0.013": 2.55801049128,
			"0.014": 1.68223629862,
			"0.015": 0.046868638139,
			"0.016": 0.0,
			"0.017": 0.0,
			"0.018": 0.0,
			"0.019": 0.0,
			"0.02": 0.0,
			"0.021": 0.0,
			"0.022": 0.0,
			"0.023": 0.0,
			"0.024": 0.0,
			"0.025": 0.0
		}
	}
}
