{
	 "smiles": "OC(=O)COC1=C(F)C(F)=C(F)C(F)=C1F", 
	 "Tm": 382.15, 
	 "num_atms": 19, 
	 "gaussian": { 
		 "optdone": 1, 
		 "sigma_profile": "yes", 
		 "theory": "DFT", 
		 "functional": "B3LYP", 
		 "basiset": "6-31G**", 
		 "properties": { 
			 "R2extent": 5817.8161, 
			 "electric_dipole_moment_norm": 5.06408247761, 
			 "electric_quadrupole_moment_norm": 10.8830375443, 
			 "total_energy": -1031.43866807, 
			 "HOMO_LUMO_gap": 0.22581, 
			 "cosmo_polarized_energy": -16.55, 
			 "cosmo_cavitation_energy": 27.34, 
			 "cosmo_dispersion_energy": -18.99, 
			 "cosmo_repulsion_energy": 1.39, 
			 "cosmo_total_nonelectrostatic_energy": 9.74, 
			 "SMD_solvation_energy": 8.49 
		},
		"coords": [
			{
				"x": 1.8720174021,
				"y": 2.4339851348,
				"z": -0.0681245804,
				"element": "O" 
			},
			{
				"x": 0.6346526607,
				"y": 2.3412874423,
				"z": 0.4776631125,
				"element": "C" 
			},
			{
				"x": -0.3188966072,
				"y": 2.8522974373,
				"z": -0.0437722403,
				"element": "O" 
			},
			{
				"x": 0.5796404075,
				"y": 1.5568219143,
				"z": 1.7920609631,
				"element": "C" 
			},
			{
				"x": -0.7227115545,
				"y": 1.4762751287,
				"z": 2.3361979769,
				"element": "O" 
			},
			{
				"x": -1.7391399131,
				"y": 0.875653806,
				"z": 1.6564143144,
				"element": "C" 
			},
			{
				"x": -1.6261857974,
				"y": -0.0406723911,
				"z": 0.6062446912,
				"element": "C" 
			},
			{
				"x": -0.4164535201,
				"y": -0.386627485,
				"z": 0.1140000453,
				"element": "F" 
			},
			{
				"x": -2.7526776634,
				"y": -0.6133926783,
				"z": 0.017956901,
				"element": "C" 
			},
			{
				"x": -2.6014532277,
				"y": -1.4780541509,
				"z": -0.9910338662,
				"element": "F" 
			},
			{
				"x": -4.0238475195,
				"y": -0.3011487234,
				"z": 0.4860124402,
				"element": "C" 
			},
			{
				"x": -5.1054222035,
				"y": -0.8596587572,
				"z": -0.0675066254,
				"element": "F" 
			},
			{
				"x": -4.1579333235,
				"y": 0.6000796719,
				"z": 1.5406659849,
				"element": "C" 
			},
			{
				"x": -5.3738746723,
				"y": 0.9106595069,
				"z": 2.0011733284,
				"element": "F" 
			},
			{
				"x": -3.0308138747,
				"y": 1.179005174,
				"z": 2.1128241275,
				"element": "C" 
			},
			{
				"x": -3.1824367816,
				"y": 2.045359278,
				"z": 3.1200944555,
				"element": "F" 
			},
			{
				"x": 2.5263257827,
				"y": 1.9460886835,
				"z": 0.4536664928,
				"element": "H" 
			},
			{
				"x": 1.0264189336,
				"y": 0.5661101847,
				"z": 1.6503498394,
				"element": "H" 
			},
			{
				"x": 1.1635914718,
				"y": 2.0925308236,
				"z": 2.5481126393,
				"element": "H" 
			}
		],
		 "valence_orbital": [ 
			{
				"type": "occ",
				"energy": -0.33902,
				"method": "rhf"
			},
			{
				"type": "occ",
				"energy": -0.33296,
				"method": "rhf"
			},
			{
				"type": "occ",
				"energy": -0.29807,
				"method": "rhf"
			},
			{
				"type": "occ",
				"energy": -0.25734,
				"method": "rhf"
			},
			{
				"type": "occ",
				"energy": -0.24341,
				"method": "rhf"
			},
			{
				"type": "unocc",
				"energy": -0.0176,
				"method": "rhf"
			},
			{
				"type": "unocc",
				"energy": -0.0168,
				"method": "rhf"
			},
			{
				"type": "unocc",
				"energy": -0.0099,
				"method": "rhf"
			},
			{
				"type": "unocc",
				"energy": -0.00089,
				"method": "rhf"
			},
			{
				"type": "unocc",
				"energy": 0.02975,
				"method": "rhf"
			}
		],
		"cosmo_sigma_profile": { 
			"-0.025": 0.0,
			"-0.024": 0.0,
			"-0.023": 0.0,
			"-0.022": 0.0,
			"-0.021": 0.209861007525,
			"-0.02": 1.35024347898,
			"-0.019": 1.59894162317,
			"-0.018": 1.44803564465,
			"-0.017": 0.77081598398,
			"-0.016": 0.781592338535,
			"-0.015": 0.711814513978,
			"-0.014": 1.7257548198,
			"-0.013": 1.44773771232,
			"-0.012": 1.79837817877,
			"-0.011": 1.48009845353,
			"-0.01": 2.93314493684,
			"-0.009": 3.37837735356,
			"-0.008": 3.52843967074,
			"-0.007": 3.50622906942,
			"-0.006": 3.66966186544,
			"-0.005": 2.86620632389,
			"-0.004": 7.23921257306,
			"-0.003": 22.1131221312,
			"-0.002": 12.5380090663,
			"-0.001": 10.8004677848,
			"0.0": 11.6413205262,
			"0.001": 13.8738921131,
			"0.002": 35.9850678079,
			"0.003": 34.4060411409,
			"0.004": 5.11278512316,
			"0.005": 4.6483414465,
			"0.006": 4.80734429936,
			"0.007": 5.12352758182,
			"0.008": 4.00495451794,
			"0.009": 4.76715644082,
			"0.01": 5.18794015039,
			"0.011": 3.91342522906,
			"0.012": 1.34867627715,
			"0.013": 0.010383478215,
			"0.014": 0.0,
			"0.015": 0.0,
			"0.016": 0.0,
			"0.017": 0.0,
			"0.018": 0.0,
			"0.019": 0.0,
			"0.02": 0.0,
			"0.021": 0.0,
			"0.022": 0.0,
			"0.023": 0.0,
			"0.024": 0.0,
			"0.025": 0.0
		}
	}
}
