{
	 "smiles": "OC(=O)C1=CC(F)=C(C=C1)C(F)(F)F", 
	 "Tm": 448.15, 
	 "num_atms": 18, 
	 "gaussian": { 
		 "optdone": 1, 
		 "sigma_profile": "yes", 
		 "theory": "DFT", 
		 "functional": "B3LYP", 
		 "basiset": "6-31G**", 
		 "properties": { 
			 "R2extent": 3432.7647, 
			 "electric_dipole_moment_norm": 3.51067906394, 
			 "electric_quadrupole_moment_norm": 16.8778092145, 
			 "total_energy": -857.073720792, 
			 "HOMO_LUMO_gap": 0.2048, 
			 "cosmo_polarized_energy": -13.83, 
			 "cosmo_cavitation_energy": 25.15, 
			 "cosmo_dispersion_energy": -17.92, 
			 "cosmo_repulsion_energy": 1.32, 
			 "cosmo_total_nonelectrostatic_energy": 8.55, 
			 "SMD_solvation_energy": 7.13 
		},
		"coords": [
			{
				"x": -3.5484218667,
				"y": 0.735254382,
				"z": -1.6586069929,
				"element": "O" 
			},
			{
				"x": -2.2112363563,
				"y": 0.939111333,
				"z": -1.7699275996,
				"element": "C" 
			},
			{
				"x": -1.7817107863,
				"y": 1.7855201255,
				"z": -2.5154309139,
				"element": "O" 
			},
			{
				"x": -1.322158622,
				"y": 0.0671279405,
				"z": -0.9260709937,
				"element": "C" 
			},
			{
				"x": 0.0131248956,
				"y": -0.0570764412,
				"z": -1.3272628692,
				"element": "C" 
			},
			{
				"x": 0.8709325411,
				"y": -0.844709486,
				"z": -0.5779966339,
				"element": "C" 
			},
			{
				"x": 2.1471222411,
				"y": -0.9764002575,
				"z": -0.9709175104,
				"element": "F" 
			},
			{
				"x": 0.4468329782,
				"y": -1.506260042,
				"z": 0.5792732578,
				"element": "C" 
			},
			{
				"x": -0.8800847243,
				"y": -1.3573140487,
				"z": 0.9833725741,
				"element": "C" 
			},
			{
				"x": -1.7626220433,
				"y": -0.5774520608,
				"z": 0.2371954306,
				"element": "C" 
			},
			{
				"x": 1.419544932,
				"y": -2.3511632797,
				"z": 1.363124367,
				"element": "C" 
			},
			{
				"x": 0.8272873225,
				"y": -2.9032041796,
				"z": 2.4442420338,
				"element": "F" 
			},
			{
				"x": 1.9128225343,
				"y": -3.3571366984,
				"z": 0.6138878124,
				"element": "F" 
			},
			{
				"x": 2.4651100197,
				"y": -1.623039834,
				"z": 1.8012588136,
				"element": "F" 
			},
			{
				"x": -3.7292477398,
				"y": -0.0745606204,
				"z": -1.1614742272,
				"element": "H" 
			},
			{
				"x": 0.3675896123,
				"y": 0.4582971186,
				"z": -2.2120696676,
				"element": "H" 
			},
			{
				"x": -1.213657213,
				"y": -1.8508941035,
				"z": 1.8884895371,
				"element": "H" 
			},
			{
				"x": -2.778827725,
				"y": -0.4473998477,
				"z": 0.5981135821,
				"element": "H" 
			}
		],
		 "valence_orbital": [ 
			{
				"type": "occ",
				"energy": -0.37678,
				"method": "rhf"
			},
			{
				"type": "occ",
				"energy": -0.33354,
				"method": "rhf"
			},
			{
				"type": "occ",
				"energy": -0.30104,
				"method": "rhf"
			},
			{
				"type": "occ",
				"energy": -0.28735,
				"method": "rhf"
			},
			{
				"type": "occ",
				"energy": -0.28359,
				"method": "rhf"
			},
			{
				"type": "unocc",
				"energy": -0.07879,
				"method": "rhf"
			},
			{
				"type": "unocc",
				"energy": -0.04041,
				"method": "rhf"
			},
			{
				"type": "unocc",
				"energy": 0.02286,
				"method": "rhf"
			},
			{
				"type": "unocc",
				"energy": 0.0457,
				"method": "rhf"
			},
			{
				"type": "unocc",
				"energy": 0.08091,
				"method": "rhf"
			}
		],
		"cosmo_sigma_profile": { 
			"-0.025": 0.0,
			"-0.024": 0.0,
			"-0.023": 0.0,
			"-0.022": 0.0,
			"-0.021": 0.0,
			"-0.02": 0.0,
			"-0.019": 0.843758416121,
			"-0.018": 0.968127306348,
			"-0.017": 1.02194165471,
			"-0.016": 1.20012739111,
			"-0.015": 0.914491819843,
			"-0.014": 1.22859045713,
			"-0.013": 0.733979932729,
			"-0.012": 1.58800150513,
			"-0.011": 1.11980331981,
			"-0.01": 1.42697380039,
			"-0.009": 1.98541367423,
			"-0.008": 5.28424894783,
			"-0.007": 4.82087293686,
			"-0.006": 5.60605948256,
			"-0.005": 5.97470230105,
			"-0.004": 7.72810229643,
			"-0.003": 9.44553438024,
			"-0.002": 14.3447034128,
			"-0.001": 17.5276726996,
			"0.0": 16.7289506259,
			"0.001": 14.8362994915,
			"0.002": 30.6193226559,
			"0.003": 26.3796420729,
			"0.004": 2.74367646776,
			"0.005": 2.31841750194,
			"0.006": 2.754590638,
			"0.007": 2.42268325985,
			"0.008": 2.96501958854,
			"0.009": 3.95424826584,
			"0.01": 5.26730897271,
			"0.011": 5.43294513333,
			"0.012": 2.39867532834,
			"0.013": 0.286354725545,
			"0.014": 0.0,
			"0.015": 0.0,
			"0.016": 0.0,
			"0.017": 0.0,
			"0.018": 0.0,
			"0.019": 0.0,
			"0.02": 0.0,
			"0.021": 0.0,
			"0.022": 0.0,
			"0.023": 0.0,
			"0.024": 0.0,
			"0.025": 0.0
		}
	}
}
