{
	 "smiles": "OC(=O)C1=C(Br)C=C(Br)C=C1", 
	 "Tm": 447.15, 
	 "num_atms": 15, 
	 "gaussian": { 
		 "optdone": 1, 
		 "sigma_profile": "yes", 
		 "theory": "DFT", 
		 "functional": "B3LYP", 
		 "basiset": "6-31G**", 
		 "properties": { 
			 "R2extent": 6089.9955, 
			 "electric_dipole_moment_norm": 2.36919144224, 
			 "electric_quadrupole_moment_norm": 6.68546308718, 
			 "total_energy": -5562.4188237, 
			 "HOMO_LUMO_gap": 0.18996, 
			 "cosmo_polarized_energy": -9.35, 
			 "cosmo_cavitation_energy": 24.55, 
			 "cosmo_dispersion_energy": -19.12, 
			 "cosmo_repulsion_energy": 1.53, 
			 "cosmo_total_nonelectrostatic_energy": 6.96, 
			 "SMD_solvation_energy": 3.24 
		},
		"coords": [
			{
				"x": 2.3599231189,
				"y": -0.0062302569,
				"z": -0.3233218394,
				"element": "O" 
			},
			{
				"x": 1.9053691419,
				"y": -0.2511385519,
				"z": 0.9355771059,
				"element": "C" 
			},
			{
				"x": 2.6232040274,
				"y": -0.1194263576,
				"z": 1.902688473,
				"element": "O" 
			},
			{
				"x": 0.47562162,
				"y": -0.6801739077,
				"z": 0.9362627727,
				"element": "C" 
			},
			{
				"x": -0.2438478034,
				"y": -0.9914641191,
				"z": 2.1073753085,
				"element": "C" 
			},
			{
				"x": 0.4892925794,
				"y": -0.9122307499,
				"z": 3.8621529519,
				"element": "Br" 
			},
			{
				"x": -1.5814060668,
				"y": -1.38791778,
				"z": 2.0378798277,
				"element": "C" 
			},
			{
				"x": -2.2113901206,
				"y": -1.4769457589,
				"z": 0.8005977493,
				"element": "C" 
			},
			{
				"x": -4.0351718233,
				"y": -2.0191595142,
				"z": 0.7246337142,
				"element": "Br" 
			},
			{
				"x": -1.5299505908,
				"y": -1.1763153652,
				"z": -0.3775492122,
				"element": "C" 
			},
			{
				"x": -0.2007979585,
				"y": -0.7834609411,
				"z": -0.293966802,
				"element": "C" 
			},
			{
				"x": 3.2867247965,
				"y": 0.2616178786,
				"z": -0.2129215406,
				"element": "H" 
			},
			{
				"x": -2.1191206757,
				"y": -1.6231824597,
				"z": 2.9468947901,
				"element": "H" 
			},
			{
				"x": -2.028192571,
				"y": -1.2481491782,
				"z": -1.3368419211,
				"element": "H" 
			},
			{
				"x": 0.3416423262,
				"y": -0.5467229382,
				"z": -1.2005613781,
				"element": "H" 
			}
		],
		 "valence_orbital": [ 
			{
				"type": "occ",
				"energy": -0.30959,
				"method": "rhf"
			},
			{
				"type": "occ",
				"energy": -0.30138,
				"method": "rhf"
			},
			{
				"type": "occ",
				"energy": -0.26727,
				"method": "rhf"
			},
			{
				"type": "occ",
				"energy": -0.26636,
				"method": "rhf"
			},
			{
				"type": "occ",
				"energy": -0.25795,
				"method": "rhf"
			},
			{
				"type": "unocc",
				"energy": -0.06799,
				"method": "rhf"
			},
			{
				"type": "unocc",
				"energy": -0.03459,
				"method": "rhf"
			},
			{
				"type": "unocc",
				"energy": -0.02054,
				"method": "rhf"
			},
			{
				"type": "unocc",
				"energy": 0.01775,
				"method": "rhf"
			},
			{
				"type": "unocc",
				"energy": 0.03746,
				"method": "rhf"
			}
		],
		"cosmo_sigma_profile": { 
			"-0.025": 0.0,
			"-0.024": 0.0,
			"-0.023": 0.0,
			"-0.022": 0.0,
			"-0.021": 0.0,
			"-0.02": 0.0,
			"-0.019": 0.142451878966,
			"-0.018": 1.06209624589,
			"-0.017": 0.697941078422,
			"-0.016": 0.943967731008,
			"-0.015": 0.62502275436,
			"-0.014": 0.361580435116,
			"-0.013": 0.551846113857,
			"-0.012": 1.12521143588,
			"-0.011": 0.645510800657,
			"-0.01": 0.967347112365,
			"-0.009": 0.533849974932,
			"-0.008": 4.26408445538,
			"-0.007": 6.04356597822,
			"-0.006": 5.00706371482,
			"-0.005": 6.73368396909,
			"-0.004": 9.82565623569,
			"-0.003": 11.5891858888,
			"-0.002": 13.2313374798,
			"-0.001": 17.4795182782,
			"0.0": 30.5056682056,
			"0.001": 20.1606922483,
			"0.002": 13.7082137795,
			"0.003": 18.3570158539,
			"0.004": 15.9130992103,
			"0.005": 4.88828693719,
			"0.006": 3.3635171027,
			"0.007": 1.96454532412,
			"0.008": 1.8862974952,
			"0.009": 1.64802395813,
			"0.01": 2.97077349606,
			"0.011": 4.84385466368,
			"0.012": 2.07735581392,
			"0.013": 0.0,
			"0.014": 0.0,
			"0.015": 0.0,
			"0.016": 0.0,
			"0.017": 0.0,
			"0.018": 0.0,
			"0.019": 0.0,
			"0.02": 0.0,
			"0.021": 0.0,
			"0.022": 0.0,
			"0.023": 0.0,
			"0.024": 0.0,
			"0.025": 0.0
		}
	}
}
