{
	 "smiles": "CC1=C(N)C(O)=NC(O)=N1", 
	 "Tm": 533.15, 
	 "num_atms": 17, 
	 "gaussian": { 
		 "optdone": 1, 
		 "sigma_profile": "yes", 
		 "theory": "DFT", 
		 "functional": "B3LYP", 
		 "basiset": "6-31G**", 
		 "properties": { 
			 "R2extent": 2055.4455, 
			 "electric_dipole_moment_norm": 2.56815713304, 
			 "electric_quadrupole_moment_norm": 7.34370465977, 
			 "total_energy": -509.474625903, 
			 "HOMO_LUMO_gap": 0.18438, 
			 "cosmo_polarized_energy": -14.29, 
			 "cosmo_cavitation_energy": 21.17, 
			 "cosmo_dispersion_energy": -16.27, 
			 "cosmo_repulsion_energy": 1.34, 
			 "cosmo_total_nonelectrostatic_energy": 6.24, 
			 "SMD_solvation_energy": 1.76 
		},
		"coords": [
			{
				"x": 0.5237081024,
				"y": -1.4207529995,
				"z": -2.168851123,
				"element": "C" 
			},
			{
				"x": 1.0324801195,
				"y": -0.9864426957,
				"z": -0.8222919482,
				"element": "C" 
			},
			{
				"x": 0.628226467,
				"y": -1.6488186431,
				"z": 0.3409588532,
				"element": "C" 
			},
			{
				"x": -0.2120037089,
				"y": -2.7730164901,
				"z": 0.3436888971,
				"element": "N" 
			},
			{
				"x": 1.1874318791,
				"y": -1.1507002378,
				"z": 1.5327644249,
				"element": "C" 
			},
			{
				"x": 0.835907441,
				"y": -1.7531658527,
				"z": 2.6924947875,
				"element": "O" 
			},
			{
				"x": 2.0321669287,
				"y": -0.1326712773,
				"z": 1.5887884775,
				"element": "N" 
			},
			{
				"x": 2.336392298,
				"y": 0.4226848241,
				"z": 0.4130389518,
				"element": "C" 
			},
			{
				"x": 3.1939047653,
				"y": 1.4637607569,
				"z": 0.4673193438,
				"element": "O" 
			},
			{
				"x": 1.8860867433,
				"y": 0.0582021236,
				"z": -0.7826000274,
				"element": "N" 
			},
			{
				"x": 1.0512743484,
				"y": -0.8793816638,
				"z": -2.9549172541,
				"element": "H" 
			},
			{
				"x": -0.5507940829,
				"y": -1.2184362115,
				"z": -2.2768484531,
				"element": "H" 
			},
			{
				"x": 0.6652974138,
				"y": -2.4985460937,
				"z": -2.3097316385,
				"element": "H" 
			},
			{
				"x": -0.5583140273,
				"y": -2.9946015956,
				"z": 1.2687030987,
				"element": "H" 
			},
			{
				"x": -0.9712063838,
				"y": -2.722269376,
				"z": -0.3240044121,
				"element": "H" 
			},
			{
				"x": 1.3079249743,
				"y": -1.2819020819,
				"z": 3.397433292,
				"element": "H" 
			},
			{
				"x": 3.3145167223,
				"y": 1.749057514,
				"z": -0.4510452701,
				"element": "H" 
			}
		],
		 "valence_orbital": [ 
			{
				"type": "occ",
				"energy": -0.32154,
				"method": "rhf"
			},
			{
				"type": "occ",
				"energy": -0.30483,
				"method": "rhf"
			},
			{
				"type": "occ",
				"energy": -0.28213,
				"method": "rhf"
			},
			{
				"type": "occ",
				"energy": -0.25604,
				"method": "rhf"
			},
			{
				"type": "occ",
				"energy": -0.20105,
				"method": "rhf"
			},
			{
				"type": "unocc",
				"energy": -0.01667,
				"method": "rhf"
			},
			{
				"type": "unocc",
				"energy": 0.01761,
				"method": "rhf"
			},
			{
				"type": "unocc",
				"energy": 0.06616,
				"method": "rhf"
			},
			{
				"type": "unocc",
				"energy": 0.09077,
				"method": "rhf"
			},
			{
				"type": "unocc",
				"energy": 0.09767,
				"method": "rhf"
			}
		],
		"cosmo_sigma_profile": { 
			"-0.025": 0.0,
			"-0.024": 0.0,
			"-0.023": 0.0,
			"-0.022": 0.0,
			"-0.021": 0.0,
			"-0.02": 0.0,
			"-0.019": 0.0,
			"-0.018": 0.437071733043,
			"-0.017": 1.1926440272,
			"-0.016": 1.50920168692,
			"-0.015": 1.61797117401,
			"-0.014": 1.62278308551,
			"-0.013": 1.35518076109,
			"-0.012": 1.94879028851,
			"-0.011": 3.564226299,
			"-0.01": 3.85470390942,
			"-0.009": 3.85609537595,
			"-0.008": 3.0495058464,
			"-0.007": 3.51274278726,
			"-0.006": 4.95358730387,
			"-0.005": 6.34841628491,
			"-0.004": 7.96984924377,
			"-0.003": 7.61918709761,
			"-0.002": 7.38424844791,
			"-0.001": 14.6422062738,
			"0.0": 16.841935978,
			"0.001": 10.388191728,
			"0.002": 8.70716304901,
			"0.003": 6.50181340564,
			"0.004": 6.14901520095,
			"0.005": 5.33195258081,
			"0.006": 5.47093373072,
			"0.007": 5.89244910251,
			"0.008": 4.80169660575,
			"0.009": 3.36161987242,
			"0.01": 4.15229589074,
			"0.011": 5.45359614004,
			"0.012": 4.34044088906,
			"0.013": 2.26335461363,
			"0.014": 0.947276871011,
			"0.015": 0.345080064256,
			"0.016": 0.0247359462429,
			"0.017": 0.0,
			"0.018": 0.0,
			"0.019": 0.0,
			"0.02": 0.0,
			"0.021": 0.0,
			"0.022": 0.0,
			"0.023": 0.0,
			"0.024": 0.0,
			"0.025": 0.0
		}
	}
}
