{
	 "smiles": "NCCSC1=CC(=NC2=CC=CC=C12)C(F)(F)F", 
	 "Tm": 371.15, 
	 "num_atms": 29, 
	 "gaussian": { 
		 "optdone": 1, 
		 "sigma_profile": "yes", 
		 "theory": "DFT", 
		 "functional": "B3LYP", 
		 "basiset": "6-31G**", 
		 "properties": { 
			 "R2extent": 5999.6666, 
			 "electric_dipole_moment_norm": 3.60816398325, 
			 "electric_quadrupole_moment_norm": 17.7164430211, 
			 "total_energy": -1271.12183397, 
			 "HOMO_LUMO_gap": 0.159, 
			 "cosmo_polarized_energy": -11.05, 
			 "cosmo_cavitation_energy": 35.88, 
			 "cosmo_dispersion_energy": -25.25, 
			 "cosmo_repulsion_energy": 1.9, 
			 "cosmo_total_nonelectrostatic_energy": 12.53, 
			 "SMD_solvation_energy": 4.05 
		},
		"coords": [
			{
				"x": 4.1267571513,
				"y": -1.9757452511,
				"z": -0.4383683673,
				"element": "N" 
			},
			{
				"x": 3.2791496814,
				"y": -1.4091567206,
				"z": 0.6147542929,
				"element": "C" 
			},
			{
				"x": 1.9881990585,
				"y": -2.2244204257,
				"z": 0.7113473521,
				"element": "C" 
			},
			{
				"x": 0.8538892067,
				"y": -1.6685696629,
				"z": 2.0570508643,
				"element": "S" 
			},
			{
				"x": 0.177697963,
				"y": -0.1551850934,
				"z": 1.3672292235,
				"element": "C" 
			},
			{
				"x": 0.537641135,
				"y": 1.0537180495,
				"z": 1.9308243529,
				"element": "C" 
			},
			{
				"x": -0.01213686,
				"y": 2.2452580985,
				"z": 1.4041249711,
				"element": "C" 
			},
			{
				"x": -0.8471828372,
				"y": 2.2970484813,
				"z": 0.3901259834,
				"element": "N" 
			},
			{
				"x": -1.2338678676,
				"y": 1.1196337651,
				"z": -0.1723336882,
				"element": "C" 
			},
			{
				"x": -2.1518386965,
				"y": 1.1744230806,
				"z": -1.2558165131,
				"element": "C" 
			},
			{
				"x": -2.6031987815,
				"y": 0.017825723,
				"z": -1.8468932621,
				"element": "C" 
			},
			{
				"x": -2.1646196267,
				"y": -1.2431820075,
				"z": -1.3725696403,
				"element": "C" 
			},
			{
				"x": -1.2694931905,
				"y": -1.3304155576,
				"z": -0.3295768512,
				"element": "C" 
			},
			{
				"x": -0.7656271276,
				"y": -0.1567256372,
				"z": 0.2915991984,
				"element": "C" 
			},
			{
				"x": 0.3730957764,
				"y": 3.593634918,
				"z": 1.9887405946,
				"element": "C" 
			},
			{
				"x": 1.0010544151,
				"y": 4.3604296172,
				"z": 1.0766256733,
				"element": "F" 
			},
			{
				"x": -0.7080234595,
				"y": 4.2712836134,
				"z": 2.4142939971,
				"element": "F" 
			},
			{
				"x": 1.2083044843,
				"y": 3.4529072801,
				"z": 3.0443931258,
				"element": "F" 
			},
			{
				"x": 3.7627931104,
				"y": -1.7248975248,
				"z": -1.3547491173,
				"element": "H" 
			},
			{
				"x": 5.0615844091,
				"y": -1.5805508705,
				"z": -0.3841643251,
				"element": "H" 
			},
			{
				"x": 3.0274538858,
				"y": -0.3447527088,
				"z": 0.4757431611,
				"element": "H" 
			},
			{
				"x": 3.8156210345,
				"y": -1.4852342695,
				"z": 1.5663323134,
				"element": "H" 
			},
			{
				"x": 1.4436883928,
				"y": -2.2154951854,
				"z": -0.2377267698,
				"element": "H" 
			},
			{
				"x": 2.221514083,
				"y": -3.266062391,
				"z": 0.9484606929,
				"element": "H" 
			},
			{
				"x": 1.2407676772,
				"y": 1.0933724661,
				"z": 2.7525758006,
				"element": "H" 
			},
			{
				"x": -2.4798156778,
				"y": 2.1555331714,
				"z": -1.582438096,
				"element": "H" 
			},
			{
				"x": -3.3075191616,
				"y": 0.0658985703,
				"z": -2.6720131559,
				"element": "H" 
			},
			{
				"x": -2.546351301,
				"y": -2.1501900275,
				"z": -1.8319729184,
				"element": "H" 
			},
			{
				"x": -0.9558368768,
				"y": -2.297183501,
				"z": 0.0486011075,
				"element": "H" 
			}
		],
		 "valence_orbital": [ 
			{
				"type": "occ",
				"energy": -0.27569,
				"method": "rhf"
			},
			{
				"type": "occ",
				"energy": -0.26873,
				"method": "rhf"
			},
			{
				"type": "occ",
				"energy": -0.25053,
				"method": "rhf"
			},
			{
				"type": "occ",
				"energy": -0.2495,
				"method": "rhf"
			},
			{
				"type": "occ",
				"energy": -0.23625,
				"method": "rhf"
			},
			{
				"type": "unocc",
				"energy": -0.07725,
				"method": "rhf"
			},
			{
				"type": "unocc",
				"energy": -0.03605,
				"method": "rhf"
			},
			{
				"type": "unocc",
				"energy": -0.00309,
				"method": "rhf"
			},
			{
				"type": "unocc",
				"energy": 0.0347,
				"method": "rhf"
			},
			{
				"type": "unocc",
				"energy": 0.05646,
				"method": "rhf"
			}
		],
		"cosmo_sigma_profile": { 
			"-0.025": 0.0,
			"-0.024": 0.0,
			"-0.023": 0.0,
			"-0.022": 0.0,
			"-0.021": 0.0,
			"-0.02": 0.0,
			"-0.019": 0.0,
			"-0.018": 0.0,
			"-0.017": 0.0,
			"-0.016": 0.0,
			"-0.015": 0.0,
			"-0.014": 0.0,
			"-0.013": 0.0,
			"-0.012": 0.0,
			"-0.011": 0.0941576770188,
			"-0.01": 1.83122941612,
			"-0.009": 3.22867208951,
			"-0.008": 2.72678182997,
			"-0.007": 7.12454282541,
			"-0.006": 14.0530963563,
			"-0.005": 16.7658383376,
			"-0.004": 18.7338267656,
			"-0.003": 19.6691326451,
			"-0.002": 23.0897027914,
			"-0.001": 25.5727062218,
			"0.0": 22.1226654982,
			"0.001": 20.839198389,
			"0.002": 35.1124172461,
			"0.003": 37.1192894027,
			"0.004": 8.93504395587,
			"0.005": 7.01802138446,
			"0.006": 5.98891819021,
			"0.007": 4.47084111441,
			"0.008": 2.96381833579,
			"0.009": 2.32229635716,
			"0.01": 1.2470705307,
			"0.011": 1.2217980139,
			"0.012": 1.58512336152,
			"0.013": 0.715639761115,
			"0.014": 0.689360798614,
			"0.015": 0.492422741167,
			"0.016": 0.694737428523,
			"0.017": 0.418920845535,
			"0.018": 0.60833876193,
			"0.019": 0.448592254158,
			"0.02": 0.0,
			"0.021": 0.0,
			"0.022": 0.0,
			"0.023": 0.0,
			"0.024": 0.0,
			"0.025": 0.0
		}
	}
}
