{
	 "smiles": "CC(=O)N1CCCC2=C1C=CC(=C2)S(Cl)(=O)=O", 
	 "Tm": 401.15, 
	 "num_atms": 29, 
	 "gaussian": { 
		 "optdone": 1, 
		 "sigma_profile": "yes", 
		 "theory": "DFT", 
		 "functional": "B3LYP", 
		 "basiset": "6-31G**", 
		 "properties": { 
			 "R2extent": 6237.2295, 
			 "electric_dipole_moment_norm": 4.00982982432, 
			 "electric_quadrupole_moment_norm": 30.9360810076, 
			 "total_energy": -1565.16145336, 
			 "HOMO_LUMO_gap": 0.15748, 
			 "cosmo_polarized_energy": -15.19, 
			 "cosmo_cavitation_energy": 34.99, 
			 "cosmo_dispersion_energy": -25.72, 
			 "cosmo_repulsion_energy": 1.96, 
			 "cosmo_total_nonelectrostatic_energy": 11.24, 
			 "SMD_solvation_energy": 4.52 
		},
		"coords": [
			{
				"x": 2.650636516,
				"y": 2.4725542208,
				"z": -0.5193786773,
				"element": "C" 
			},
			{
				"x": 2.521105169,
				"y": 2.0073616146,
				"z": 0.9213513742,
				"element": "C" 
			},
			{
				"x": 3.3753607557,
				"y": 2.2953667495,
				"z": 1.7469211766,
				"element": "O" 
			},
			{
				"x": 1.4629287531,
				"y": 1.1718210686,
				"z": 1.297360572,
				"element": "N" 
			},
			{
				"x": 1.6371248207,
				"y": 0.5457202638,
				"z": 2.6364745409,
				"element": "C" 
			},
			{
				"x": 0.6337111654,
				"y": -0.577866856,
				"z": 2.8969865332,
				"element": "C" 
			},
			{
				"x": 0.3867742496,
				"y": -1.3780121537,
				"z": 1.6083985886,
				"element": "C" 
			},
			{
				"x": -0.2178873416,
				"y": -0.4322170848,
				"z": 0.6044467067,
				"element": "C" 
			},
			{
				"x": 0.3284787824,
				"y": 0.8718427626,
				"z": 0.5188254782,
				"element": "C" 
			},
			{
				"x": -0.293523992,
				"y": 1.8340375211,
				"z": -0.2967761595,
				"element": "C" 
			},
			{
				"x": -1.3878405088,
				"y": 1.4973360978,
				"z": -1.0850272848,
				"element": "C" 
			},
			{
				"x": -1.8869167012,
				"y": 0.1969684299,
				"z": -1.0163230916,
				"element": "C" 
			},
			{
				"x": -1.3272482139,
				"y": -0.7602245198,
				"z": -0.1674278552,
				"element": "C" 
			},
			{
				"x": -3.2996025503,
				"y": -0.242661321,
				"z": -2.00136851,
				"element": "S" 
			},
			{
				"x": -2.3692387562,
				"y": -0.965984349,
				"z": -3.7894536919,
				"element": "Cl" 
			},
			{
				"x": -3.9689731852,
				"y": -1.3944477366,
				"z": -1.4085350854,
				"element": "O" 
			},
			{
				"x": -4.0199636904,
				"y": 0.9646497676,
				"z": -2.3876068359,
				"element": "O" 
			},
			{
				"x": 2.2459468096,
				"y": 3.4830585634,
				"z": -0.6350122137,
				"element": "H" 
			},
			{
				"x": 3.7206059234,
				"y": 2.5283270003,
				"z": -0.7266482912,
				"element": "H" 
			},
			{
				"x": 2.1641723352,
				"y": 1.8191839606,
				"z": -1.2447810084,
				"element": "H" 
			},
			{
				"x": 1.5675356381,
				"y": 1.3274152912,
				"z": 3.3992091452,
				"element": "H" 
			},
			{
				"x": 2.6609580488,
				"y": 0.1647651865,
				"z": 2.6764169093,
				"element": "H" 
			},
			{
				"x": 1.0283416462,
				"y": -1.215538331,
				"z": 3.6942402016,
				"element": "H" 
			},
			{
				"x": -0.3209640022,
				"y": -0.1730890789,
				"z": 3.2512222229,
				"element": "H" 
			},
			{
				"x": 1.3401987336,
				"y": -1.7795201419,
				"z": 1.2372049655,
				"element": "H" 
			},
			{
				"x": -0.2772043967,
				"y": -2.2293682539,
				"z": 1.7827749223,
				"element": "H" 
			},
			{
				"x": 0.063559389,
				"y": 2.8559484949,
				"z": -0.2964918931,
				"element": "H" 
			},
			{
				"x": -1.8685682393,
				"y": 2.2365890781,
				"z": -1.7153994746,
				"element": "H" 
			},
			{
				"x": -1.7616071579,
				"y": -1.7526162446,
				"z": -0.1072032647,
				"element": "H" 
			}
		],
		 "valence_orbital": [ 
			{
				"type": "occ",
				"energy": -0.31456,
				"method": "rhf"
			},
			{
				"type": "occ",
				"energy": -0.31091,
				"method": "rhf"
			},
			{
				"type": "occ",
				"energy": -0.2848,
				"method": "rhf"
			},
			{
				"type": "occ",
				"energy": -0.26911,
				"method": "rhf"
			},
			{
				"type": "occ",
				"energy": -0.24743,
				"method": "rhf"
			},
			{
				"type": "unocc",
				"energy": -0.08995,
				"method": "rhf"
			},
			{
				"type": "unocc",
				"energy": -0.04633,
				"method": "rhf"
			},
			{
				"type": "unocc",
				"energy": -0.03859,
				"method": "rhf"
			},
			{
				"type": "unocc",
				"energy": 0.00715,
				"method": "rhf"
			},
			{
				"type": "unocc",
				"energy": 0.05182,
				"method": "rhf"
			}
		],
		"cosmo_sigma_profile": { 
			"-0.025": 0.0,
			"-0.024": 0.0,
			"-0.023": 0.0,
			"-0.022": 0.0,
			"-0.021": 0.0,
			"-0.02": 0.0,
			"-0.019": 0.0,
			"-0.018": 0.0,
			"-0.017": 0.0,
			"-0.016": 0.0,
			"-0.015": 0.0,
			"-0.014": 0.0,
			"-0.013": 0.0,
			"-0.012": 0.0,
			"-0.011": 0.0,
			"-0.01": 0.0505776035584,
			"-0.009": 1.88312713713,
			"-0.008": 5.31616288241,
			"-0.007": 7.64649854899,
			"-0.006": 8.06239659948,
			"-0.005": 19.7560607547,
			"-0.004": 29.4238264584,
			"-0.003": 30.0165454389,
			"-0.002": 30.460045956,
			"-0.001": 23.3290632285,
			"0.0": 17.5539486858,
			"0.001": 18.6277108486,
			"0.002": 12.4579804491,
			"0.003": 12.8002672331,
			"0.004": 16.1142658223,
			"0.005": 4.96937978022,
			"0.006": 3.75046041011,
			"0.007": 7.17200784879,
			"0.008": 11.5953572756,
			"0.009": 7.14563043041,
			"0.01": 1.55277230639,
			"0.011": 1.78713245575,
			"0.012": 2.79288428847,
			"0.013": 4.79756069856,
			"0.014": 1.29786400774,
			"0.015": 0.0426228451416,
			"0.016": 0.0,
			"0.017": 0.0,
			"0.018": 0.0,
			"0.019": 0.0,
			"0.02": 0.0,
			"0.021": 0.0,
			"0.022": 0.0,
			"0.023": 0.0,
			"0.024": 0.0,
			"0.025": 0.0
		}
	}
}
