{
	 "smiles": "COC1=CC=C2N=CC=C([C@@H](O)[C@@H]3C[C@@H]4CC[N@]3C[C@@H]4C=C)C2=C1", 
	 "Tm": 449.15, 
	 "num_atms": 48, 
	 "gaussian": { 
		 "optdone": 1, 
		 "sigma_profile": "yes", 
		 "theory": "DFT", 
		 "functional": "B3LYP", 
		 "basiset": "6-31G**", 
		 "properties": { 
			 "R2extent": 8823.0826, 
			 "electric_dipole_moment_norm": 1.78392453876, 
			 "electric_quadrupole_moment_norm": 17.5409296293, 
			 "total_energy": -1036.4886662, 
			 "HOMO_LUMO_gap": 0.15369, 
			 "cosmo_polarized_energy": -14.28, 
			 "cosmo_cavitation_energy": 46.41, 
			 "cosmo_dispersion_energy": -32.47, 
			 "cosmo_repulsion_energy": 2.44, 
			 "cosmo_total_nonelectrostatic_energy": 16.38, 
			 "SMD_solvation_energy": 4.06 
		},
		"coords": [
			{
				"x": 1.8144380585,
				"y": 3.9025325761,
				"z": -3.4256563295,
				"element": "C" 
			},
			{
				"x": 1.6646659407,
				"y": 2.6244893066,
				"z": -2.8288378636,
				"element": "O" 
			},
			{
				"x": 0.4779663139,
				"y": 1.9637896645,
				"z": -2.9787290993,
				"element": "C" 
			},
			{
				"x": -0.6216003094,
				"y": 2.4817617395,
				"z": -3.709444761,
				"element": "C" 
			},
			{
				"x": -1.7744526025,
				"y": 1.7378221906,
				"z": -3.8153370552,
				"element": "C" 
			},
			{
				"x": -1.8952526517,
				"y": 0.4631082984,
				"z": -3.2077970662,
				"element": "C" 
			},
			{
				"x": -3.07763479,
				"y": -0.1975321904,
				"z": -3.375163086,
				"element": "N" 
			},
			{
				"x": -3.1891448342,
				"y": -1.3830458703,
				"z": -2.8158840321,
				"element": "C" 
			},
			{
				"x": -2.1625538861,
				"y": -1.9925809378,
				"z": -2.0587730512,
				"element": "C" 
			},
			{
				"x": -0.9572715597,
				"y": -1.3513076654,
				"z": -1.8499209756,
				"element": "C" 
			},
			{
				"x": 0.0613055242,
				"y": -2.0689122409,
				"z": -0.9608784217,
				"element": "C" 
			},
			{
				"x": 1.4218564622,
				"y": -1.8358798521,
				"z": -1.3265170998,
				"element": "O" 
			},
			{
				"x": -0.1336904369,
				"y": -1.7451053059,
				"z": 0.5423513282,
				"element": "C" 
			},
			{
				"x": 0.4369450436,
				"y": -0.3818585715,
				"z": 1.0262851128,
				"element": "C" 
			},
			{
				"x": 1.0495725019,
				"y": -0.5893044568,
				"z": 2.4305864089,
				"element": "C" 
			},
			{
				"x": 2.2843517004,
				"y": -1.4993009142,
				"z": 2.2679060149,
				"element": "C" 
			},
			{
				"x": 1.8221890359,
				"y": -2.8136258478,
				"z": 1.5644874619,
				"element": "C" 
			},
			{
				"x": 0.353132307,
				"y": -2.8528493879,
				"z": 1.400665358,
				"element": "N" 
			},
			{
				"x": -0.270043224,
				"y": -2.702107294,
				"z": 2.7234629681,
				"element": "C" 
			},
			{
				"x": 0.0609180815,
				"y": -1.3076388097,
				"z": 3.3813601456,
				"element": "C" 
			},
			{
				"x": -1.1846185924,
				"y": -0.5413365079,
				"z": 3.7583190124,
				"element": "C" 
			},
			{
				"x": -1.4211331795,
				"y": 0.7633953099,
				"z": 3.607684121,
				"element": "C" 
			},
			{
				"x": -0.7833622599,
				"y": -0.0590231676,
				"z": -2.4552889587,
				"element": "C" 
			},
			{
				"x": 0.3962468099,
				"y": 0.7225214057,
				"z": -2.3706738945,
				"element": "C" 
			},
			{
				"x": 2.8239047094,
				"y": 4.2330593069,
				"z": -3.1757389796,
				"element": "H" 
			},
			{
				"x": 1.0922254844,
				"y": 4.6269365919,
				"z": -3.0274047898,
				"element": "H" 
			},
			{
				"x": 1.712752998,
				"y": 3.8585239476,
				"z": -4.5178240251,
				"element": "H" 
			},
			{
				"x": -0.5627990912,
				"y": 3.4524213965,
				"z": -4.187492115,
				"element": "H" 
			},
			{
				"x": -2.6310189606,
				"y": 2.1044225465,
				"z": -4.3713372734,
				"element": "H" 
			},
			{
				"x": -4.1334996987,
				"y": -1.9068219841,
				"z": -2.9613190097,
				"element": "H" 
			},
			{
				"x": -2.3340850193,
				"y": -2.9788154484,
				"z": -1.6345460524,
				"element": "H" 
			},
			{
				"x": -0.1539924357,
				"y": -3.1442936139,
				"z": -1.0388919747,
				"element": "H" 
			},
			{
				"x": 1.5270137563,
				"y": -2.084431455,
				"z": -2.2541836795,
				"element": "H" 
			},
			{
				"x": -1.2200653576,
				"y": -1.7389860187,
				"z": 0.6838781569,
				"element": "H" 
			},
			{
				"x": 1.2253464602,
				"y": -0.0279024879,
				"z": 0.3569370287,
				"element": "H" 
			},
			{
				"x": -0.3493967274,
				"y": 0.3769410782,
				"z": 1.0346437586,
				"element": "H" 
			},
			{
				"x": 1.3499756724,
				"y": 0.3742891249,
				"z": 2.8561030304,
				"element": "H" 
			},
			{
				"x": 3.0472043676,
				"y": -0.9885163695,
				"z": 1.6697832283,
				"element": "H" 
			},
			{
				"x": 2.7303592568,
				"y": -1.7078462372,
				"z": 3.2481224698,
				"element": "H" 
			},
			{
				"x": 2.2746756646,
				"y": -2.9072791004,
				"z": 0.5772194535,
				"element": "H" 
			},
			{
				"x": 2.109607935,
				"y": -3.6959379057,
				"z": 2.1470402523,
				"element": "H" 
			},
			{
				"x": -1.3534464778,
				"y": -2.8257652996,
				"z": 2.6108699884,
				"element": "H" 
			},
			{
				"x": 0.0845232559,
				"y": -3.5228371401,
				"z": 3.3564990654,
				"element": "H" 
			},
			{
				"x": 0.5982445502,
				"y": -1.5037474484,
				"z": 4.3220515048,
				"element": "H" 
			},
			{
				"x": -1.9579300619,
				"y": -1.1490041835,
				"z": 4.2336456857,
				"element": "H" 
			},
			{
				"x": -2.3544286716,
				"y": 1.206523016,
				"z": 3.9428076594,
				"element": "H" 
			},
			{
				"x": -0.7018659242,
				"y": 1.4404692342,
				"z": 3.1566392529,
				"element": "H" 
			},
			{
				"x": 1.2597648618,
				"y": 0.3510869788,
				"z": -1.8378088734,
				"element": "H" 
			}
		],
		 "valence_orbital": [ 
			{
				"type": "occ",
				"energy": -0.25115,
				"method": "rhf"
			},
			{
				"type": "occ",
				"energy": -0.24694,
				"method": "rhf"
			},
			{
				"type": "occ",
				"energy": -0.24032,
				"method": "rhf"
			},
			{
				"type": "occ",
				"energy": -0.20914,
				"method": "rhf"
			},
			{
				"type": "occ",
				"energy": -0.20268,
				"method": "rhf"
			},
			{
				"type": "unocc",
				"energy": -0.04899,
				"method": "rhf"
			},
			{
				"type": "unocc",
				"energy": -0.00594,
				"method": "rhf"
			},
			{
				"type": "unocc",
				"energy": 0.02063,
				"method": "rhf"
			},
			{
				"type": "unocc",
				"energy": 0.0221,
				"method": "rhf"
			},
			{
				"type": "unocc",
				"energy": 0.07058,
				"method": "rhf"
			}
		],
		"cosmo_sigma_profile": { 
			"-0.025": 0.0,
			"-0.024": 0.0,
			"-0.023": 0.0,
			"-0.022": 0.0,
			"-0.021": 0.0,
			"-0.02": 0.0,
			"-0.019": 0.0,
			"-0.018": 0.0,
			"-0.017": 0.00436044426544,
			"-0.016": 0.610359958633,
			"-0.015": 0.682000618743,
			"-0.014": 1.09272674068,
			"-0.013": 0.731501412374,
			"-0.012": 0.961158289205,
			"-0.011": 0.813374872987,
			"-0.01": 0.943084070157,
			"-0.009": 0.617659842291,
			"-0.008": 1.22339469439,
			"-0.007": 3.54613302868,
			"-0.006": 13.6078090179,
			"-0.005": 19.0981411778,
			"-0.004": 27.0208995938,
			"-0.003": 39.4274619146,
			"-0.002": 39.4584795859,
			"-0.001": 33.7144271372,
			"0.0": 33.216341721,
			"0.001": 26.899237249,
			"0.002": 26.0121014081,
			"0.003": 26.3757335704,
			"0.004": 19.3614872647,
			"0.005": 11.0717102671,
			"0.006": 8.57613084648,
			"0.007": 6.81157966572,
			"0.008": 5.37302324035,
			"0.009": 4.80233594773,
			"0.01": 3.37444877038,
			"0.011": 2.31598004008,
			"0.012": 1.17241998505,
			"0.013": 1.81970628741,
			"0.014": 0.836838472212,
			"0.015": 1.19247058386,
			"0.016": 1.22271080206,
			"0.017": 0.381916790786,
			"0.018": 0.0,
			"0.019": 0.0,
			"0.02": 0.0,
			"0.021": 0.0,
			"0.022": 0.0,
			"0.023": 0.0,
			"0.024": 0.0,
			"0.025": 0.0
		}
	}
}
