{
	 "smiles": "NC1=C(CN2CCC3=C2C=CC=C3)C=CC=C1", 
	 "Tm": 349.15, 
	 "num_atms": 33, 
	 "gaussian": { 
		 "optdone": 1, 
		 "sigma_profile": "yes", 
		 "theory": "DFT", 
		 "functional": "B3LYP", 
		 "basiset": "6-31G**", 
		 "properties": { 
			 "R2extent": 5260.3706, 
			 "electric_dipole_moment_norm": 1.50440802311, 
			 "electric_quadrupole_moment_norm": 6.03116539402, 
			 "total_energy": -690.750619841, 
			 "HOMO_LUMO_gap": 0.19549, 
			 "cosmo_polarized_energy": -9.09, 
			 "cosmo_cavitation_energy": 34.44, 
			 "cosmo_dispersion_energy": -24.63, 
			 "cosmo_repulsion_energy": 1.9, 
			 "cosmo_total_nonelectrostatic_energy": 11.72, 
			 "SMD_solvation_energy": 5.11 
		},
		"coords": [
			{
				"x": -2.8451447083,
				"y": -1.8764828299,
				"z": 0.6195851079,
				"element": "N" 
			},
			{
				"x": -3.2064928389,
				"y": -1.3677094183,
				"z": -0.627524694,
				"element": "C" 
			},
			{
				"x": -2.5389053834,
				"y": -0.2316908109,
				"z": -1.1470493661,
				"element": "C" 
			},
			{
				"x": -1.4564066823,
				"y": 0.4639720144,
				"z": -0.3468470135,
				"element": "C" 
			},
			{
				"x": -0.3581079054,
				"y": -0.397295594,
				"z": 0.1148774134,
				"element": "N" 
			},
			{
				"x": 0.3852306312,
				"y": 0.1143117829,
				"z": 1.2885133894,
				"element": "C" 
			},
			{
				"x": 1.6656004018,
				"y": -0.7420759687,
				"z": 1.3270459311,
				"element": "C" 
			},
			{
				"x": 1.8383023493,
				"y": -1.0937947335,
				"z": -0.1345833972,
				"element": "C" 
			},
			{
				"x": 0.6159764557,
				"y": -0.8716167103,
				"z": -0.7952176292,
				"element": "C" 
			},
			{
				"x": 0.4855754677,
				"y": -1.1355569609,
				"z": -2.1601691939,
				"element": "C" 
			},
			{
				"x": 1.6022109447,
				"y": -1.6290567753,
				"z": -2.8471191045,
				"element": "C" 
			},
			{
				"x": 2.8159784472,
				"y": -1.8559840193,
				"z": -2.1969679232,
				"element": "C" 
			},
			{
				"x": 2.9343724759,
				"y": -1.5885974464,
				"z": -0.825533618,
				"element": "C" 
			},
			{
				"x": -2.9553404187,
				"y": 0.2967300352,
				"z": -2.3721225277,
				"element": "C" 
			},
			{
				"x": -4.0103369978,
				"y": -0.2614370856,
				"z": -3.0956041765,
				"element": "C" 
			},
			{
				"x": -4.6649524234,
				"y": -1.3797739247,
				"z": -2.577216494,
				"element": "C" 
			},
			{
				"x": -4.2653504913,
				"y": -1.9288746714,
				"z": -1.3617391213,
				"element": "C" 
			},
			{
				"x": -3.1828611951,
				"y": -2.8122739329,
				"z": 0.8014166297,
				"element": "H" 
			},
			{
				"x": -1.8529063268,
				"y": -1.7708160872,
				"z": 0.8131214739,
				"element": "H" 
			},
			{
				"x": -1.0648003457,
				"y": 1.3170007469,
				"z": -0.9250832145,
				"element": "H" 
			},
			{
				"x": -1.9094756359,
				"y": 0.8761139615,
				"z": 0.564591804,
				"element": "H" 
			},
			{
				"x": -0.2259215888,
				"y": 0.0366046512,
				"z": 2.1926680395,
				"element": "H" 
			},
			{
				"x": 0.6449654956,
				"y": 1.1764097331,
				"z": 1.1402391536,
				"element": "H" 
			},
			{
				"x": 1.5082759354,
				"y": -1.6479360672,
				"z": 1.9290765367,
				"element": "H" 
			},
			{
				"x": 2.5141996488,
				"y": -0.2040762413,
				"z": 1.7591724302,
				"element": "H" 
			},
			{
				"x": -0.4511862652,
				"y": -0.9690896352,
				"z": -2.6778956315,
				"element": "H" 
			},
			{
				"x": 1.5158330121,
				"y": -1.8340287334,
				"z": -3.910719047,
				"element": "H" 
			},
			{
				"x": 3.668619302,
				"y": -2.2353504234,
				"z": -2.7519739313,
				"element": "H" 
			},
			{
				"x": 3.8778981215,
				"y": -1.7572818832,
				"z": -0.3122396224,
				"element": "H" 
			},
			{
				"x": -2.4373416989,
				"y": 1.1699202174,
				"z": -2.7632375679,
				"element": "H" 
			},
			{
				"x": -4.3144180486,
				"y": 0.1695532762,
				"z": -4.0441982551,
				"element": "H" 
			},
			{
				"x": -5.4871367221,
				"y": -1.8343139155,
				"z": -3.1232702926,
				"element": "H" 
			},
			{
				"x": -4.7766530125,
				"y": -2.8029025505,
				"z": -0.9642960881,
				"element": "H" 
			}
		],
		 "valence_orbital": [ 
			{
				"type": "occ",
				"energy": -0.28198,
				"method": "rhf"
			},
			{
				"type": "occ",
				"energy": -0.23831,
				"method": "rhf"
			},
			{
				"type": "occ",
				"energy": -0.23769,
				"method": "rhf"
			},
			{
				"type": "occ",
				"energy": -0.19706,
				"method": "rhf"
			},
			{
				"type": "occ",
				"energy": -0.19273,
				"method": "rhf"
			},
			{
				"type": "unocc",
				"energy": 0.00276,
				"method": "rhf"
			},
			{
				"type": "unocc",
				"energy": 0.00733,
				"method": "rhf"
			},
			{
				"type": "unocc",
				"energy": 0.01833,
				"method": "rhf"
			},
			{
				"type": "unocc",
				"energy": 0.02136,
				"method": "rhf"
			},
			{
				"type": "unocc",
				"energy": 0.08684,
				"method": "rhf"
			}
		],
		"cosmo_sigma_profile": { 
			"-0.025": 0.0,
			"-0.024": 0.0,
			"-0.023": 0.0,
			"-0.022": 0.0,
			"-0.021": 0.0,
			"-0.02": 0.0,
			"-0.019": 0.0,
			"-0.018": 0.0,
			"-0.017": 0.0,
			"-0.016": 0.0,
			"-0.015": 0.0,
			"-0.014": 0.0,
			"-0.013": 0.0,
			"-0.012": 0.547589877915,
			"-0.011": 1.24981889099,
			"-0.01": 1.70047431582,
			"-0.009": 1.34304990054,
			"-0.008": 1.49429453609,
			"-0.007": 2.32697722838,
			"-0.006": 3.12815677987,
			"-0.005": 16.1922391902,
			"-0.004": 27.4260284188,
			"-0.003": 35.4572752098,
			"-0.002": 33.2826276271,
			"-0.001": 24.4600241749,
			"0.0": 17.0783899903,
			"0.001": 12.9798857418,
			"0.002": 12.4200998196,
			"0.003": 15.9561091966,
			"0.004": 14.6622773611,
			"0.005": 13.8125066186,
			"0.006": 16.0673262845,
			"0.007": 14.2010920062,
			"0.008": 2.96564490554,
			"0.009": 0.555858673499,
			"0.01": 0.253295372891,
			"0.011": 0.65903389815,
			"0.012": 0.968169319815,
			"0.013": 0.684160264554,
			"0.014": 0.412816149392,
			"0.015": 0.48517785481,
			"0.016": 0.0490925302788,
			"0.017": 0.0,
			"0.018": 0.0,
			"0.019": 0.0,
			"0.02": 0.0,
			"0.021": 0.0,
			"0.022": 0.0,
			"0.023": 0.0,
			"0.024": 0.0,
			"0.025": 0.0
		}
	}
}
