{
	 "smiles": "O=CC1=NC(=CC=C1)N1CCCC1", 
	 "Tm": 337.15, 
	 "num_atms": 25, 
	 "gaussian": { 
		 "optdone": 1, 
		 "sigma_profile": "yes", 
		 "theory": "DFT", 
		 "functional": "B3LYP", 
		 "basiset": "6-31G**", 
		 "properties": { 
			 "R2extent": 3636.8718, 
			 "electric_dipole_moment_norm": 4.84411760902, 
			 "electric_quadrupole_moment_norm": 17.5441855, 
			 "total_energy": -573.014663768, 
			 "HOMO_LUMO_gap": 0.14468, 
			 "cosmo_polarized_energy": -13.08, 
			 "cosmo_cavitation_energy": 27.98, 
			 "cosmo_dispersion_energy": -20.56, 
			 "cosmo_repulsion_energy": 1.63, 
			 "cosmo_total_nonelectrostatic_energy": 9.06, 
			 "SMD_solvation_energy": 3.77 
		},
		"coords": [
			{
				"x": 0.3700976014,
				"y": 2.4274991304,
				"z": -3.8269060527,
				"element": "O" 
			},
			{
				"x": -0.6926682534,
				"y": 2.7475410091,
				"z": -3.3407598705,
				"element": "C" 
			},
			{
				"x": -1.4215424808,
				"y": 1.9916069773,
				"z": -2.2769034352,
				"element": "C" 
			},
			{
				"x": -0.8613089069,
				"y": 0.8594096302,
				"z": -1.827218065,
				"element": "N" 
			},
			{
				"x": -1.5024609437,
				"y": 0.1718831636,
				"z": -0.8670947803,
				"element": "C" 
			},
			{
				"x": -2.7427657449,
				"y": 0.616934047,
				"z": -0.3235064284,
				"element": "C" 
			},
			{
				"x": -3.2994922256,
				"y": 1.7849939399,
				"z": -0.8110561217,
				"element": "C" 
			},
			{
				"x": -2.6351450879,
				"y": 2.5017781824,
				"z": -1.8148310038,
				"element": "C" 
			},
			{
				"x": -0.903091072,
				"y": -0.9746289822,
				"z": -0.4337895187,
				"element": "N" 
			},
			{
				"x": 0.4047177485,
				"y": -1.4151853993,
				"z": -0.9353715025,
				"element": "C" 
			},
			{
				"x": 0.807646426,
				"y": -2.5105393964,
				"z": 0.061595956,
				"element": "C" 
			},
			{
				"x": -0.5406461563,
				"y": -3.1062988117,
				"z": 0.5004498732,
				"element": "C" 
			},
			{
				"x": -1.4676766728,
				"y": -1.8807700235,
				"z": 0.5639468265,
				"element": "C" 
			},
			{
				"x": -1.2212208523,
				"y": 3.6719302725,
				"z": -3.6700945,
				"element": "H" 
			},
			{
				"x": -3.2371428222,
				"y": 0.0567800926,
				"z": 0.4614329813,
				"element": "H" 
			},
			{
				"x": -4.2443877301,
				"y": 2.1417025735,
				"z": -0.4106727104,
				"element": "H" 
			},
			{
				"x": -3.041284529,
				"y": 3.4224029026,
				"z": -2.2212301488,
				"element": "H" 
			},
			{
				"x": 0.3158150463,
				"y": -1.8043351955,
				"z": -1.9590716625,
				"element": "H" 
			},
			{
				"x": 1.1023976914,
				"y": -0.5752109814,
				"z": -0.9738164721,
				"element": "H" 
			},
			{
				"x": 1.3200522422,
				"y": -2.0643689872,
				"z": 0.921706022,
				"element": "H" 
			},
			{
				"x": 1.4800285863,
				"y": -3.2504162357,
				"z": -0.380530141,
				"element": "H" 
			},
			{
				"x": -0.9063105323,
				"y": -3.8073804819,
				"z": -0.2581265918,
				"element": "H" 
			},
			{
				"x": -0.4927578526,
				"y": -3.6401756124,
				"z": 1.4532584566,
				"element": "H" 
			},
			{
				"x": -1.4604310796,
				"y": -1.4237656323,
				"z": 1.5661238799,
				"element": "H" 
			},
			{
				"x": -2.5079223997,
				"y": -2.1380861816,
				"z": 0.32806501,
				"element": "H" 
			}
		],
		 "valence_orbital": [ 
			{
				"type": "occ",
				"energy": -0.29739,
				"method": "rhf"
			},
			{
				"type": "occ",
				"energy": -0.27781,
				"method": "rhf"
			},
			{
				"type": "occ",
				"energy": -0.25922,
				"method": "rhf"
			},
			{
				"type": "occ",
				"energy": -0.24019,
				"method": "rhf"
			},
			{
				"type": "occ",
				"energy": -0.20309,
				"method": "rhf"
			},
			{
				"type": "unocc",
				"energy": -0.05841,
				"method": "rhf"
			},
			{
				"type": "unocc",
				"energy": -0.00192,
				"method": "rhf"
			},
			{
				"type": "unocc",
				"energy": 0.04995,
				"method": "rhf"
			},
			{
				"type": "unocc",
				"energy": 0.07852,
				"method": "rhf"
			},
			{
				"type": "unocc",
				"energy": 0.09609,
				"method": "rhf"
			}
		],
		"cosmo_sigma_profile": { 
			"-0.025": 0.0,
			"-0.024": 0.0,
			"-0.023": 0.0,
			"-0.022": 0.0,
			"-0.021": 0.0,
			"-0.02": 0.0,
			"-0.019": 0.0,
			"-0.018": 0.0,
			"-0.017": 0.0,
			"-0.016": 0.0,
			"-0.015": 0.0,
			"-0.014": 0.0,
			"-0.013": 0.0,
			"-0.012": 0.0,
			"-0.011": 0.0,
			"-0.01": 0.0,
			"-0.009": 0.0,
			"-0.008": 0.4507473782,
			"-0.007": 6.46674045527,
			"-0.006": 10.3721099524,
			"-0.005": 11.8978333497,
			"-0.004": 18.9357423241,
			"-0.003": 30.043133429,
			"-0.002": 31.1107975531,
			"-0.001": 19.3833206851,
			"0.0": 17.7758605855,
			"0.001": 10.7092411155,
			"0.002": 13.9260603458,
			"0.003": 13.6146958457,
			"0.004": 4.49808946561,
			"0.005": 3.52536031874,
			"0.006": 2.24661269573,
			"0.007": 2.05570420854,
			"0.008": 3.12665460756,
			"0.009": 2.44508117484,
			"0.01": 3.05643371676,
			"0.011": 4.80014784538,
			"0.012": 4.68441705485,
			"0.013": 2.2969924006,
			"0.014": 1.23850523805,
			"0.015": 0.845959608625,
			"0.016": 0.762742055027,
			"0.017": 0.988339570192,
			"0.018": 0.100854107016,
			"0.019": 0.0,
			"0.02": 0.0,
			"0.021": 0.0,
			"0.022": 0.0,
			"0.023": 0.0,
			"0.024": 0.0,
			"0.025": 0.0
		}
	}
}
