{
	 "smiles": "CC1=CC(=C(C#N)C(=S)N1)C(F)(F)F", 
	 "Tm": 473.15, 
	 "num_atms": 19, 
	 "gaussian": { 
		 "optdone": 1, 
		 "sigma_profile": "yes", 
		 "theory": "DFT", 
		 "functional": "B3LYP", 
		 "basiset": "6-31G**", 
		 "properties": { 
			 "R2extent": 4410.1869, 
			 "electric_dipole_moment_norm": 9.05647908903, 
			 "electric_quadrupole_moment_norm": 22.4974520264, 
			 "total_energy": -1115.06034091, 
			 "HOMO_LUMO_gap": 0.12501, 
			 "cosmo_polarized_energy": -23.88, 
			 "cosmo_cavitation_energy": 27.69, 
			 "cosmo_dispersion_energy": -19.52, 
			 "cosmo_repulsion_energy": 1.44, 
			 "cosmo_total_nonelectrostatic_energy": 9.62, 
			 "SMD_solvation_energy": 6.04 
		},
		"coords": [
			{
				"x": 1.298772102,
				"y": 1.2682421574,
				"z": 0.4590439508,
				"element": "C" 
			},
			{
				"x": 0.2879442816,
				"y": 0.2270487604,
				"z": 0.0813093895,
				"element": "C" 
			},
			{
				"x": -1.0471087933,
				"y": 0.4701350005,
				"z": -0.1106940492,
				"element": "C" 
			},
			{
				"x": -1.9102338802,
				"y": -0.5970978348,
				"z": -0.4668821643,
				"element": "C" 
			},
			{
				"x": -1.426393622,
				"y": -1.8862914954,
				"z": -0.624995427,
				"element": "C" 
			},
			{
				"x": -2.2518596775,
				"y": -2.9998166324,
				"z": -0.9833351456,
				"element": "C" 
			},
			{
				"x": -2.9067771064,
				"y": -3.9150520951,
				"z": -1.2737175255,
				"element": "N" 
			},
			{
				"x": -0.0087989666,
				"y": -2.1660982524,
				"z": -0.4251883365,
				"element": "C" 
			},
			{
				"x": 0.7369721341,
				"y": -3.6472042457,
				"z": -0.5727935653,
				"element": "S" 
			},
			{
				"x": 0.740376764,
				"y": -1.0477843265,
				"z": -0.079676693,
				"element": "N" 
			},
			{
				"x": -3.3637959573,
				"y": -0.1920521962,
				"z": -0.6492110007,
				"element": "C" 
			},
			{
				"x": -4.1811977298,
				"y": -1.1916442494,
				"z": -0.9840596473,
				"element": "F" 
			},
			{
				"x": -3.4499193889,
				"y": 0.7565519035,
				"z": -1.608194142,
				"element": "F" 
			},
			{
				"x": -3.8248021685,
				"y": 0.3582054543,
				"z": 0.496049406,
				"element": "F" 
			},
			{
				"x": 1.7787762303,
				"y": 1.0189822983,
				"z": 1.4121639109,
				"element": "H" 
			},
			{
				"x": 0.8245116263,
				"y": 2.245305055,
				"z": 0.5592814549,
				"element": "H" 
			},
			{
				"x": 2.0848994486,
				"y": 1.3432996515,
				"z": -0.3007847853,
				"element": "H" 
			},
			{
				"x": -1.4387517979,
				"y": 1.4712387557,
				"z": 0.0092384327,
				"element": "H" 
			},
			{
				"x": 1.7258865014,
				"y": -1.2490677086,
				"z": 0.0579459369,
				"element": "H" 
			}
		],
		 "valence_orbital": [ 
			{
				"type": "occ",
				"energy": -0.34115,
				"method": "rhf"
			},
			{
				"type": "occ",
				"energy": -0.33133,
				"method": "rhf"
			},
			{
				"type": "occ",
				"energy": -0.30812,
				"method": "rhf"
			},
			{
				"type": "occ",
				"energy": -0.22872,
				"method": "rhf"
			},
			{
				"type": "occ",
				"energy": -0.22634,
				"method": "rhf"
			},
			{
				"type": "unocc",
				"energy": -0.10133,
				"method": "rhf"
			},
			{
				"type": "unocc",
				"energy": -0.05944,
				"method": "rhf"
			},
			{
				"type": "unocc",
				"energy": 0.02803,
				"method": "rhf"
			},
			{
				"type": "unocc",
				"energy": 0.03106,
				"method": "rhf"
			},
			{
				"type": "unocc",
				"energy": 0.03919,
				"method": "rhf"
			}
		],
		"cosmo_sigma_profile": { 
			"-0.025": 0.0,
			"-0.024": 0.0,
			"-0.023": 0.0,
			"-0.022": 0.0,
			"-0.021": 0.0,
			"-0.02": 0.0,
			"-0.019": 0.0,
			"-0.018": 0.0436523950158,
			"-0.017": 0.651388244101,
			"-0.016": 1.16123191155,
			"-0.015": 1.1468275145,
			"-0.014": 1.29663075474,
			"-0.013": 1.13772185196,
			"-0.012": 1.26191660564,
			"-0.011": 1.09862325462,
			"-0.01": 2.64353105606,
			"-0.009": 4.8048871784,
			"-0.008": 6.75027384443,
			"-0.007": 9.74560662928,
			"-0.006": 10.9515901064,
			"-0.005": 13.6068574459,
			"-0.004": 16.2765020368,
			"-0.003": 15.6215540834,
			"-0.002": 10.1213168465,
			"-0.001": 9.15189490629,
			"0.0": 8.75679920204,
			"0.001": 15.7550423219,
			"0.002": 25.7296112338,
			"0.003": 7.4694829312,
			"0.004": 4.90749445611,
			"0.005": 5.53991350771,
			"0.006": 6.31427113089,
			"0.007": 7.25015504064,
			"0.008": 10.5569301378,
			"0.009": 10.8123793815,
			"0.01": 8.59710129432,
			"0.011": 4.22351337128,
			"0.012": 2.20784264482,
			"0.013": 0.424274989377,
			"0.014": 0.0,
			"0.015": 0.0,
			"0.016": 0.0,
			"0.017": 0.0,
			"0.018": 0.0,
			"0.019": 0.0,
			"0.02": 0.0,
			"0.021": 0.0,
			"0.022": 0.0,
			"0.023": 0.0,
			"0.024": 0.0,
			"0.025": 0.0
		}
	}
}
