{
	 "smiles": "OC(=O)CNC(=O)NC1=CC=CC=C1", 
	 "Tm": 470.15, 
	 "num_atms": 24, 
	 "gaussian": { 
		 "optdone": 1, 
		 "sigma_profile": "yes", 
		 "theory": "DFT", 
		 "functional": "B3LYP", 
		 "basiset": "6-31G**", 
		 "properties": { 
			 "R2extent": 4105.7493, 
			 "electric_dipole_moment_norm": 6.29412763534, 
			 "electric_quadrupole_moment_norm": 19.844510228, 
			 "total_energy": -684.198044104, 
			 "HOMO_LUMO_gap": 0.21193, 
			 "cosmo_polarized_energy": -21.91, 
			 "cosmo_cavitation_energy": 28.5, 
			 "cosmo_dispersion_energy": -21.28, 
			 "cosmo_repulsion_energy": 1.67, 
			 "cosmo_total_nonelectrostatic_energy": 8.89, 
			 "SMD_solvation_energy": 5.88 
		},
		"coords": [
			{
				"x": 0.239364065,
				"y": 2.1662636723,
				"z": 2.5769055758,
				"element": "O" 
			},
			{
				"x": 1.1771160916,
				"y": 3.0087749269,
				"z": 2.1251821705,
				"element": "C" 
			},
			{
				"x": 2.0106367886,
				"y": 3.5047404084,
				"z": 2.8470268657,
				"element": "O" 
			},
			{
				"x": 1.1103066659,
				"y": 3.3250953035,
				"z": 0.6172915328,
				"element": "C" 
			},
			{
				"x": 1.223241697,
				"y": 2.1658470913,
				"z": -0.2643554803,
				"element": "N" 
			},
			{
				"x": 0.1694834798,
				"y": 1.2945823444,
				"z": -0.4189812274,
				"element": "C" 
			},
			{
				"x": -0.8771826478,
				"y": 1.4238249522,
				"z": 0.2330650913,
				"element": "O" 
			},
			{
				"x": 0.3774392085,
				"y": 0.3169732288,
				"z": -1.3599938726,
				"element": "N" 
			},
			{
				"x": -0.4404808183,
				"y": -0.7921138308,
				"z": -1.6831543435,
				"element": "C" 
			},
			{
				"x": -1.6657670015,
				"y": -1.0629268396,
				"z": -1.057368901,
				"element": "C" 
			},
			{
				"x": -2.3918456418,
				"y": -2.1907217973,
				"z": -1.441852773,
				"element": "C" 
			},
			{
				"x": -1.9262890886,
				"y": -3.0494900135,
				"z": -2.4380030089,
				"element": "C" 
			},
			{
				"x": -0.7078726403,
				"y": -2.7718650803,
				"z": -3.0597821216,
				"element": "C" 
			},
			{
				"x": 0.0316511669,
				"y": -1.6533273913,
				"z": -2.6855749045,
				"element": "C" 
			},
			{
				"x": -0.3486243228,
				"y": 1.8877080637,
				"z": 1.8327496337,
				"element": "H" 
			},
			{
				"x": 0.1597154593,
				"y": 3.8242146576,
				"z": 0.4014570113,
				"element": "H" 
			},
			{
				"x": 1.9249258583,
				"y": 4.0127046146,
				"z": 0.3903656736,
				"element": "H" 
			},
			{
				"x": 2.1553362313,
				"y": 1.8548838922,
				"z": -0.4965331198,
				"element": "H" 
			},
			{
				"x": 1.1959719898,
				"y": 0.4218770601,
				"z": -1.9422015084,
				"element": "H" 
			},
			{
				"x": -2.0367663739,
				"y": -0.3949773463,
				"z": -0.2935924647,
				"element": "H" 
			},
			{
				"x": -3.3397224872,
				"y": -2.3930515034,
				"z": -0.951469274,
				"element": "H" 
			},
			{
				"x": -2.5043568131,
				"y": -3.9214694859,
				"z": -2.7273822863,
				"element": "H" 
			},
			{
				"x": -0.3266965075,
				"y": -3.4265321539,
				"z": -3.837975366,
				"element": "H" 
			},
			{
				"x": 0.9832156406,
				"y": -1.4467147738,
				"z": -3.1713229028,
				"element": "H" 
			}
		],
		 "valence_orbital": [ 
			{
				"type": "occ",
				"energy": -0.29924,
				"method": "rhf"
			},
			{
				"type": "occ",
				"energy": -0.28803,
				"method": "rhf"
			},
			{
				"type": "occ",
				"energy": -0.26016,
				"method": "rhf"
			},
			{
				"type": "occ",
				"energy": -0.25505,
				"method": "rhf"
			},
			{
				"type": "occ",
				"energy": -0.22991,
				"method": "rhf"
			},
			{
				"type": "unocc",
				"energy": -0.01798,
				"method": "rhf"
			},
			{
				"type": "unocc",
				"energy": -0.01066,
				"method": "rhf"
			},
			{
				"type": "unocc",
				"energy": 0.0103,
				"method": "rhf"
			},
			{
				"type": "unocc",
				"energy": 0.03737,
				"method": "rhf"
			},
			{
				"type": "unocc",
				"energy": 0.04051,
				"method": "rhf"
			}
		],
		"cosmo_sigma_profile": { 
			"-0.025": 0.0,
			"-0.024": 0.0,
			"-0.023": 0.0,
			"-0.022": 0.0,
			"-0.021": 0.0,
			"-0.02": 0.0,
			"-0.019": 0.00796414286149,
			"-0.018": 0.724234056985,
			"-0.017": 1.5892087659,
			"-0.016": 2.32880673574,
			"-0.015": 2.62160608498,
			"-0.014": 1.97059418145,
			"-0.013": 2.56888159277,
			"-0.012": 1.76044507208,
			"-0.011": 1.9389289849,
			"-0.01": 2.01202961901,
			"-0.009": 2.47251679693,
			"-0.008": 4.49737870772,
			"-0.007": 6.67152109707,
			"-0.006": 9.5889889684,
			"-0.005": 12.9562760726,
			"-0.004": 15.1359017048,
			"-0.003": 15.7092853599,
			"-0.002": 11.812300178,
			"-0.001": 12.2411143283,
			"0.0": 10.5325629318,
			"0.001": 11.3037811053,
			"0.002": 13.2390409791,
			"0.003": 12.4173228609,
			"0.004": 13.4100828338,
			"0.005": 12.9241769438,
			"0.006": 11.387359661,
			"0.007": 3.49534374838,
			"0.008": 3.72351295167,
			"0.009": 3.6371713921,
			"0.01": 5.06847972973,
			"0.011": 7.02960260726,
			"0.012": 7.02681405927,
			"0.013": 3.14442025183,
			"0.014": 0.366000669663,
			"0.015": 0.0,
			"0.016": 0.0,
			"0.017": 0.0,
			"0.018": 0.0,
			"0.019": 0.0,
			"0.02": 0.0,
			"0.021": 0.0,
			"0.022": 0.0,
			"0.023": 0.0,
			"0.024": 0.0,
			"0.025": 0.0
		}
	}
}
