{
	 "smiles": "COC(=O)C1=C(N)C=CS1", 
	 "Tm": 339.65, 
	 "num_atms": 17, 
	 "gaussian": { 
		 "optdone": 1, 
		 "sigma_profile": "yes", 
		 "theory": "DFT", 
		 "functional": "B3LYP", 
		 "basiset": "6-31G**", 
		 "properties": { 
			 "R2extent": 1821.9469, 
			 "electric_dipole_moment_norm": 1.64787053193, 
			 "electric_quadrupole_moment_norm": 10.2761111944, 
			 "total_energy": -836.247585836, 
			 "HOMO_LUMO_gap": 0.16699, 
			 "cosmo_polarized_energy": -10.17, 
			 "cosmo_cavitation_energy": 22.67, 
			 "cosmo_dispersion_energy": -17.67, 
			 "cosmo_repulsion_energy": 1.39, 
			 "cosmo_total_nonelectrostatic_energy": 6.4, 
			 "SMD_solvation_energy": 5.35 
		},
		"coords": [
			{
				"x": 0.47880018,
				"y": -2.907897121,
				"z": -2.2739019561,
				"element": "C" 
			},
			{
				"x": 0.678353696,
				"y": -1.568699796,
				"z": -1.8024531402,
				"element": "O" 
			},
			{
				"x": -0.2524347218,
				"y": -1.1136584666,
				"z": -0.9277036765,
				"element": "C" 
			},
			{
				"x": -1.2054085537,
				"y": -1.797627967,
				"z": -0.5587932538,
				"element": "O" 
			},
			{
				"x": -0.0052828311,
				"y": 0.2421611305,
				"z": -0.495049605,
				"element": "C" 
			},
			{
				"x": -0.8228497076,
				"y": 0.9498782258,
				"z": 0.3891797687,
				"element": "C" 
			},
			{
				"x": -1.9069617944,
				"y": 0.4125184282,
				"z": 1.0273300053,
				"element": "N" 
			},
			{
				"x": -0.357981145,
				"y": 2.2932699964,
				"z": 0.5843655401,
				"element": "C" 
			},
			{
				"x": 0.7735719766,
				"y": 2.5681044943,
				"z": -0.1295451522,
				"element": "C" 
			},
			{
				"x": 1.3324657331,
				"y": 1.2267693722,
				"z": -1.0643037224,
				"element": "S" 
			},
			{
				"x": 0.4845325399,
				"y": -3.6167939564,
				"z": -1.4418479426,
				"element": "H" 
			},
			{
				"x": -0.4739438897,
				"y": -2.9952088348,
				"z": -2.8028108402,
				"element": "H" 
			},
			{
				"x": 1.3098394705,
				"y": -3.107197602,
				"z": -2.95066756,
				"element": "H" 
			},
			{
				"x": -2.6174289446,
				"y": 1.0410789965,
				"z": 1.3672424702,
				"element": "H" 
			},
			{
				"x": -2.2038580143,
				"y": -0.4927325782,
				"z": 0.680076296,
				"element": "H" 
			},
			{
				"x": -0.8485634929,
				"y": 3.0057914992,
				"z": 1.2382029232,
				"element": "H" 
			},
			{
				"x": 1.321049499,
				"y": 3.5010441789,
				"z": -0.1481201545,
				"element": "H" 
			}
		],
		 "valence_orbital": [ 
			{
				"type": "occ",
				"energy": -0.31829,
				"method": "rhf"
			},
			{
				"type": "occ",
				"energy": -0.29317,
				"method": "rhf"
			},
			{
				"type": "occ",
				"energy": -0.27027,
				"method": "rhf"
			},
			{
				"type": "occ",
				"energy": -0.24431,
				"method": "rhf"
			},
			{
				"type": "occ",
				"energy": -0.20376,
				"method": "rhf"
			},
			{
				"type": "unocc",
				"energy": -0.03677,
				"method": "rhf"
			},
			{
				"type": "unocc",
				"energy": 0.03086,
				"method": "rhf"
			},
			{
				"type": "unocc",
				"energy": 0.04186,
				"method": "rhf"
			},
			{
				"type": "unocc",
				"energy": 0.09647,
				"method": "rhf"
			},
			{
				"type": "unocc",
				"energy": 0.10015,
				"method": "rhf"
			}
		],
		"cosmo_sigma_profile": { 
			"-0.025": 0.0,
			"-0.024": 0.0,
			"-0.023": 0.0,
			"-0.022": 0.0,
			"-0.021": 0.0,
			"-0.02": 0.0,
			"-0.019": 0.0,
			"-0.018": 0.0,
			"-0.017": 0.0,
			"-0.016": 0.0,
			"-0.015": 0.0,
			"-0.014": 0.497469306857,
			"-0.013": 1.73782877517,
			"-0.012": 1.37393669643,
			"-0.011": 0.867550745322,
			"-0.01": 1.39542611848,
			"-0.009": 5.20928040999,
			"-0.008": 5.11176248884,
			"-0.007": 5.11282507425,
			"-0.006": 8.21869565522,
			"-0.005": 10.3717777237,
			"-0.004": 11.5176419435,
			"-0.003": 13.6097679831,
			"-0.002": 8.03330656119,
			"-0.001": 8.56128305013,
			"0.0": 9.87382792363,
			"0.001": 9.09204471606,
			"0.002": 13.2953467798,
			"0.003": 19.212813471,
			"0.004": 18.3268436181,
			"0.005": 9.32881824316,
			"0.006": 4.92103333448,
			"0.007": 4.63504531598,
			"0.008": 2.52885079973,
			"0.009": 1.92278393324,
			"0.01": 2.44159065582,
			"0.011": 2.26340085132,
			"0.012": 2.4797688726,
			"0.013": 1.00027520101,
			"0.014": 0.0,
			"0.015": 0.0,
			"0.016": 0.0,
			"0.017": 0.0,
			"0.018": 0.0,
			"0.019": 0.0,
			"0.02": 0.0,
			"0.021": 0.0,
			"0.022": 0.0,
			"0.023": 0.0,
			"0.024": 0.0,
			"0.025": 0.0
		}
	}
}
