{
	 "smiles": "OC(CCC1C(N(C1=O)C1=CC=C(F)C=C1)C1=CC=C(O)C=C1)C1=CC=C(F)C=C1", 
	 "Tm": 438.15, 
	 "num_atms": 51, 
	 "gaussian": { 
		 "optdone": 1, 
		 "sigma_profile": "yes", 
		 "theory": "DFT", 
		 "functional": "B3LYP", 
		 "basiset": "6-31G**", 
		 "properties": { 
			 "R2extent": 16487.1212, 
			 "electric_dipole_moment_norm": 4.28167166186, 
			 "electric_quadrupole_moment_norm": 16.0515428713, 
			 "total_energy": -1407.29406035, 
			 "HOMO_LUMO_gap": 0.196, 
			 "cosmo_polarized_energy": -21.81, 
			 "cosmo_cavitation_energy": 55.59, 
			 "cosmo_dispersion_energy": -36.31, 
			 "cosmo_repulsion_energy": 2.72, 
			 "cosmo_total_nonelectrostatic_energy": 22.0, 
			 "SMD_solvation_energy": 10.57 
		},
		"coords": [
			{
				"x": -1.1845904192,
				"y": -1.4690789244,
				"z": -2.7493689566,
				"element": "O" 
			},
			{
				"x": -0.2936999275,
				"y": -0.3529215916,
				"z": -2.6921173942,
				"element": "C" 
			},
			{
				"x": -0.2975972773,
				"y": 0.0935361184,
				"z": -1.2221616444,
				"element": "C" 
			},
			{
				"x": 0.7426850065,
				"y": 1.1761973572,
				"z": -0.9087594927,
				"element": "C" 
			},
			{
				"x": 0.7743646149,
				"y": 1.6640303823,
				"z": 0.5464800069,
				"element": "C" 
			},
			{
				"x": 1.4185771891,
				"y": 0.8034800504,
				"z": 1.7102048507,
				"element": "C" 
			},
			{
				"x": 0.1051208842,
				"y": 0.8596633527,
				"z": 2.381778247,
				"element": "N" 
			},
			{
				"x": -0.5091870599,
				"y": 1.6161778622,
				"z": 1.3923650212,
				"element": "C" 
			},
			{
				"x": -1.6324592954,
				"y": 2.0638289018,
				"z": 1.3003561757,
				"element": "O" 
			},
			{
				"x": -0.273519301,
				"y": 0.5394787694,
				"z": 3.6969295258,
				"element": "C" 
			},
			{
				"x": -1.5832574706,
				"y": 0.8036149019,
				"z": 4.1357796484,
				"element": "C" 
			},
			{
				"x": -1.9508315966,
				"y": 0.4957726168,
				"z": 5.4429180285,
				"element": "C" 
			},
			{
				"x": -1.0151819016,
				"y": -0.0744969336,
				"z": 6.2997650932,
				"element": "C" 
			},
			{
				"x": -1.3776454522,
				"y": -0.3737988852,
				"z": 7.5667126879,
				"element": "F" 
			},
			{
				"x": 0.2821934555,
				"y": -0.3457725545,
				"z": 5.8847712413,
				"element": "C" 
			},
			{
				"x": 0.6543241908,
				"y": -0.037650368,
				"z": 4.5765875677,
				"element": "C" 
			},
			{
				"x": 1.9848412279,
				"y": -0.5643307168,
				"z": 1.4102125753,
				"element": "C" 
			},
			{
				"x": 1.2183729337,
				"y": -1.7334120661,
				"z": 1.474590802,
				"element": "C" 
			},
			{
				"x": 1.7759835122,
				"y": -2.975709976,
				"z": 1.1730219601,
				"element": "C" 
			},
			{
				"x": 3.1194021428,
				"y": -3.0680390461,
				"z": 0.7953812532,
				"element": "C" 
			},
			{
				"x": 3.7227735303,
				"y": -4.2523169551,
				"z": 0.4862481015,
				"element": "O" 
			},
			{
				"x": 3.9024512811,
				"y": -1.9091241914,
				"z": 0.733199425,
				"element": "C" 
			},
			{
				"x": 3.335425673,
				"y": -0.6779160509,
				"z": 1.0448549601,
				"element": "C" 
			},
			{
				"x": -0.7108975193,
				"y": 0.7410353867,
				"z": -3.6626859875,
				"element": "C" 
			},
			{
				"x": -2.0627460443,
				"y": 1.0980760501,
				"z": -3.7814639655,
				"element": "C" 
			},
			{
				"x": -2.4650065482,
				"y": 2.1057057409,
				"z": -4.6555545275,
				"element": "C" 
			},
			{
				"x": -1.4977342323,
				"y": 2.7575467025,
				"z": -5.4145747414,
				"element": "C" 
			},
			{
				"x": -1.8807406852,
				"y": 3.7330928246,
				"z": -6.265356262,
				"element": "F" 
			},
			{
				"x": -0.1508700966,
				"y": 2.4279670056,
				"z": -5.3284255162,
				"element": "C" 
			},
			{
				"x": 0.2322307585,
				"y": 1.4126957661,
				"z": -4.449703318,
				"element": "C" 
			},
			{
				"x": -1.2745967823,
				"y": -1.7228824842,
				"z": -3.6776329511,
				"element": "H" 
			},
			{
				"x": 0.7299300284,
				"y": -0.6722459245,
				"z": -2.9532949711,
				"element": "H" 
			},
			{
				"x": -1.2996222108,
				"y": 0.4581517652,
				"z": -0.9706709742,
				"element": "H" 
			},
			{
				"x": -0.1176766477,
				"y": -0.8018000578,
				"z": -0.6204433677,
				"element": "H" 
			},
			{
				"x": 0.549026151,
				"y": 2.0463832984,
				"z": -1.5455341567,
				"element": "H" 
			},
			{
				"x": 1.7477303028,
				"y": 0.8206126537,
				"z": -1.1736034294,
				"element": "H" 
			},
			{
				"x": 1.1899376587,
				"y": 2.6779190505,
				"z": 0.5750614159,
				"element": "H" 
			},
			{
				"x": 2.1704443474,
				"y": 1.3896178113,
				"z": 2.2557672752,
				"element": "H" 
			},
			{
				"x": -2.2907924815,
				"y": 1.2533356915,
				"z": 3.4500185091,
				"element": "H" 
			},
			{
				"x": -2.9547079917,
				"y": 0.694076894,
				"z": 5.8027509722,
				"element": "H" 
			},
			{
				"x": 0.9859450811,
				"y": -0.7926027356,
				"z": 6.5785554307,
				"element": "H" 
			},
			{
				"x": 1.6620419344,
				"y": -0.2543530395,
				"z": 4.2398156615,
				"element": "H" 
			},
			{
				"x": 0.1764387642,
				"y": -1.6774379088,
				"z": 1.7727874476,
				"element": "H" 
			},
			{
				"x": 1.1641351573,
				"y": -3.8732287227,
				"z": 1.2339102694,
				"element": "H" 
			},
			{
				"x": 3.0788286874,
				"y": -4.9680350932,
				"z": 0.5664967832,
				"element": "H" 
			},
			{
				"x": 4.9461018341,
				"y": -1.9948358004,
				"z": 0.4494843763,
				"element": "H" 
			},
			{
				"x": 3.9568125479,
				"y": 0.214098386,
				"z": 1.0062352297,
				"element": "H" 
			},
			{
				"x": -2.8019350424,
				"y": 0.5687367064,
				"z": -3.1881457349,
				"element": "H" 
			},
			{
				"x": -3.5066571851,
				"y": 2.3910698412,
				"z": -4.7570270022,
				"element": "H" 
			},
			{
				"x": 0.5708447262,
				"y": 2.9533482622,
				"z": -5.9446013099,
				"element": "H" 
			},
			{
				"x": 1.2818895471,
				"y": 1.1374398766,
				"z": -4.3813148393,
				"element": "H" 
			}
		],
		 "valence_orbital": [ 
			{
				"type": "occ",
				"energy": -0.26047,
				"method": "rhf"
			},
			{
				"type": "occ",
				"energy": -0.25801,
				"method": "rhf"
			},
			{
				"type": "occ",
				"energy": -0.23923,
				"method": "rhf"
			},
			{
				"type": "occ",
				"energy": -0.2271,
				"method": "rhf"
			},
			{
				"type": "occ",
				"energy": -0.21513,
				"method": "rhf"
			},
			{
				"type": "unocc",
				"energy": -0.01913,
				"method": "rhf"
			},
			{
				"type": "unocc",
				"energy": -0.01464,
				"method": "rhf"
			},
			{
				"type": "unocc",
				"energy": -0.01143,
				"method": "rhf"
			},
			{
				"type": "unocc",
				"energy": -0.0089,
				"method": "rhf"
			},
			{
				"type": "unocc",
				"energy": -0.00485,
				"method": "rhf"
			}
		],
		"cosmo_sigma_profile": { 
			"-0.025": 0.0,
			"-0.024": 0.0,
			"-0.023": 0.0,
			"-0.022": 0.0,
			"-0.021": 0.0,
			"-0.02": 0.0,
			"-0.019": 0.0,
			"-0.018": 0.535422195426,
			"-0.017": 1.13291961951,
			"-0.016": 1.13098501708,
			"-0.015": 1.80229262702,
			"-0.014": 1.93725086937,
			"-0.013": 1.40773821029,
			"-0.012": 1.60701062464,
			"-0.011": 1.69037104678,
			"-0.01": 1.99343930642,
			"-0.009": 2.26320923542,
			"-0.008": 2.00494729525,
			"-0.007": 9.66146290961,
			"-0.006": 27.4386672948,
			"-0.005": 31.8288530674,
			"-0.004": 31.1699565711,
			"-0.003": 28.5923724839,
			"-0.002": 25.5852617433,
			"-0.001": 26.2185054709,
			"0.0": 29.1151157476,
			"0.001": 35.8196488409,
			"0.002": 35.3333643343,
			"0.003": 36.9796506384,
			"0.004": 46.9502722333,
			"0.005": 22.2004697514,
			"0.006": 3.77433201379,
			"0.007": 4.19962576715,
			"0.008": 4.91472359768,
			"0.009": 3.50032444073,
			"0.01": 4.66220053037,
			"0.011": 5.14215895881,
			"0.012": 5.74358602907,
			"0.013": 3.93712902106,
			"0.014": 1.79514964254,
			"0.015": 0.0596207596479,
			"0.016": 0.0,
			"0.017": 0.0,
			"0.018": 0.0,
			"0.019": 0.0,
			"0.02": 0.0,
			"0.021": 0.0,
			"0.022": 0.0,
			"0.023": 0.0,
			"0.024": 0.0,
			"0.025": 0.0
		}
	}
}
