{
	 "smiles": "CC1CCC2=C(C1)SC1=C2C(=O)NC(CCl)=N1", 
	 "Tm": 454.15, 
	 "num_atms": 30, 
	 "gaussian": { 
		 "optdone": 1, 
		 "sigma_profile": "yes", 
		 "theory": "DFT", 
		 "functional": "B3LYP", 
		 "basiset": "6-31G**", 
		 "properties": { 
			 "R2extent": 7618.5057, 
			 "electric_dipole_moment_norm": 1.9943303262, 
			 "electric_quadrupole_moment_norm": 16.2244114926, 
			 "total_energy": -1508.26291737, 
			 "HOMO_LUMO_gap": 0.15952, 
			 "cosmo_polarized_energy": -12.13, 
			 "cosmo_cavitation_energy": 35.18, 
			 "cosmo_dispersion_energy": -26.47, 
			 "cosmo_repulsion_energy": 2.01, 
			 "cosmo_total_nonelectrostatic_energy": 10.73, 
			 "SMD_solvation_energy": 3.29 
		},
		"coords": [
			{
				"x": -1.0144850777,
				"y": -2.2034243168,
				"z": 1.9787480227,
				"element": "C" 
			},
			{
				"x": -0.4306886035,
				"y": -2.4710143695,
				"z": 0.5829249103,
				"element": "C" 
			},
			{
				"x": -1.3583613547,
				"y": -1.9820102846,
				"z": -0.5492679991,
				"element": "C" 
			},
			{
				"x": -1.5662927029,
				"y": -0.4574736324,
				"z": -0.5387435604,
				"element": "C" 
			},
			{
				"x": -0.2626861102,
				"y": 0.2723632617,
				"z": -0.3282052566,
				"element": "C" 
			},
			{
				"x": 0.8650575005,
				"y": -0.3662355161,
				"z": 0.1176712357,
				"element": "C" 
			},
			{
				"x": 0.9717301742,
				"y": -1.8370818787,
				"z": 0.4160257636,
				"element": "C" 
			},
			{
				"x": 2.2354596218,
				"y": 0.7214518979,
				"z": 0.2858255095,
				"element": "S" 
			},
			{
				"x": 1.2698425042,
				"y": 2.0714832378,
				"z": -0.2533464885,
				"element": "C" 
			},
			{
				"x": -0.0351041144,
				"y": 1.6742286782,
				"z": -0.5385272114,
				"element": "C" 
			},
			{
				"x": -0.9698024546,
				"y": 2.6769585775,
				"z": -1.0153563427,
				"element": "C" 
			},
			{
				"x": -2.1420262264,
				"y": 2.5324460349,
				"z": -1.3361967484,
				"element": "O" 
			},
			{
				"x": -0.3638430189,
				"y": 3.9568083653,
				"z": -1.0888330279,
				"element": "N" 
			},
			{
				"x": 0.9391651787,
				"y": 4.2314818347,
				"z": -0.7800550303,
				"element": "C" 
			},
			{
				"x": 1.4051114188,
				"y": 5.6600895711,
				"z": -0.8424161303,
				"element": "C" 
			},
			{
				"x": 0.9132927042,
				"y": 6.5008938339,
				"z": -2.3778183073,
				"element": "Cl" 
			},
			{
				"x": 1.7846073231,
				"y": 3.3295308188,
				"z": -0.3687192185,
				"element": "N" 
			},
			{
				"x": -1.0894255402,
				"y": -1.1318715757,
				"z": 2.1898021332,
				"element": "H" 
			},
			{
				"x": -0.3853448219,
				"y": -2.6487163625,
				"z": 2.7569977447,
				"element": "H" 
			},
			{
				"x": -2.0170247255,
				"y": -2.6346790481,
				"z": 2.0730885859,
				"element": "H" 
			},
			{
				"x": -0.311258499,
				"y": -3.5566706224,
				"z": 0.4737769415,
				"element": "H" 
			},
			{
				"x": -2.3292693947,
				"y": -2.4856666661,
				"z": -0.4790921464,
				"element": "H" 
			},
			{
				"x": -0.9210004919,
				"y": -2.2767407225,
				"z": -1.5120785424,
				"element": "H" 
			},
			{
				"x": -2.0332893637,
				"y": -0.1212151309,
				"z": -1.4689527327,
				"element": "H" 
			},
			{
				"x": -2.2704521203,
				"y": -0.1696779927,
				"z": 0.2532406975,
				"element": "H" 
			},
			{
				"x": 1.5069883772,
				"y": -2.3378575078,
				"z": -0.4032069616,
				"element": "H" 
			},
			{
				"x": 1.5716373414,
				"y": -2.0062642326,
				"z": 1.319048327,
				"element": "H" 
			},
			{
				"x": -0.956248597,
				"y": 4.6895957302,
				"z": -1.4644346383,
				"element": "H" 
			},
			{
				"x": 0.9779829778,
				"y": 6.2514234908,
				"z": -0.0289724923,
				"element": "H" 
			},
			{
				"x": 2.4909280957,
				"y": 5.6734445265,
				"z": -0.7798270365,
				"element": "H" 
			}
		],
		 "valence_orbital": [ 
			{
				"type": "occ",
				"energy": -0.29229,
				"method": "rhf"
			},
			{
				"type": "occ",
				"energy": -0.29103,
				"method": "rhf"
			},
			{
				"type": "occ",
				"energy": -0.26428,
				"method": "rhf"
			},
			{
				"type": "occ",
				"energy": -0.2557,
				"method": "rhf"
			},
			{
				"type": "occ",
				"energy": -0.21681,
				"method": "rhf"
			},
			{
				"type": "unocc",
				"energy": -0.05729,
				"method": "rhf"
			},
			{
				"type": "unocc",
				"energy": -0.01177,
				"method": "rhf"
			},
			{
				"type": "unocc",
				"energy": 0.00786,
				"method": "rhf"
			},
			{
				"type": "unocc",
				"energy": 0.01727,
				"method": "rhf"
			},
			{
				"type": "unocc",
				"energy": 0.03165,
				"method": "rhf"
			}
		],
		"cosmo_sigma_profile": { 
			"-0.025": 0.0,
			"-0.024": 0.0,
			"-0.023": 0.0,
			"-0.022": 0.0,
			"-0.021": 0.0,
			"-0.02": 0.0,
			"-0.019": 0.0,
			"-0.018": 0.0,
			"-0.017": 0.0,
			"-0.016": 0.0,
			"-0.015": 0.196500793985,
			"-0.014": 0.778627921482,
			"-0.013": 1.15858643278,
			"-0.012": 0.990700487849,
			"-0.011": 0.770164346763,
			"-0.01": 2.87296907895,
			"-0.009": 5.3742572395,
			"-0.008": 3.81869608602,
			"-0.007": 4.53766707543,
			"-0.006": 5.00576245223,
			"-0.005": 5.71639130718,
			"-0.004": 11.3436161512,
			"-0.003": 26.3280464126,
			"-0.002": 36.3471621655,
			"-0.001": 32.4767738862,
			"0.0": 29.9688041678,
			"0.001": 27.3243180116,
			"0.002": 23.385372475,
			"0.003": 16.8815036584,
			"0.004": 10.3207799909,
			"0.005": 11.2299235174,
			"0.006": 3.68690296071,
			"0.007": 2.36992749636,
			"0.008": 2.73382387354,
			"0.009": 2.43461484268,
			"0.01": 2.85916089472,
			"0.011": 2.11388083414,
			"0.012": 3.4677443431,
			"0.013": 5.11426737206,
			"0.014": 0.677499104018,
			"0.015": 0.0,
			"0.016": 0.0,
			"0.017": 0.0,
			"0.018": 0.0,
			"0.019": 0.0,
			"0.02": 0.0,
			"0.021": 0.0,
			"0.022": 0.0,
			"0.023": 0.0,
			"0.024": 0.0,
			"0.025": 0.0
		}
	}
}
