{
	 "smiles": "COC1=CC=C(C=C1O)C1=CC(=O)C2=C(O1)C=C(OC)C(OC)=C2O", 
	 "Tm": 464.15, 
	 "num_atms": 41, 
	 "gaussian": { 
		 "optdone": 1, 
		 "sigma_profile": "yes", 
		 "theory": "DFT", 
		 "functional": "B3LYP", 
		 "basiset": "6-31G**", 
		 "properties": { 
			 "R2extent": 13520.9469, 
			 "electric_dipole_moment_norm": 3.43472214597, 
			 "electric_quadrupole_moment_norm": 29.4154923139, 
			 "total_energy": -1222.07707718, 
			 "HOMO_LUMO_gap": 0.14622, 
			 "cosmo_polarized_energy": -17.3, 
			 "cosmo_cavitation_energy": 45.06, 
			 "cosmo_dispersion_energy": -33.03, 
			 "cosmo_repulsion_energy": 2.45, 
			 "cosmo_total_nonelectrostatic_energy": 14.48, 
			 "SMD_solvation_energy": 11.08 
		},
		"coords": [
			{
				"x": 3.8114542065,
				"y": 5.450254591,
				"z": -4.7120168664,
				"element": "C" 
			},
			{
				"x": 2.5278550139,
				"y": 5.2378598987,
				"z": -4.1190448838,
				"element": "O" 
			},
			{
				"x": 2.1930201742,
				"y": 4.0990572775,
				"z": -3.4610590066,
				"element": "C" 
			},
			{
				"x": 0.9057508744,
				"y": 4.1029973511,
				"z": -2.9059987796,
				"element": "C" 
			},
			{
				"x": 0.4011863341,
				"y": 3.0187837615,
				"z": -2.2028245437,
				"element": "C" 
			},
			{
				"x": 1.1823180765,
				"y": 1.865342908,
				"z": -2.0311422949,
				"element": "C" 
			},
			{
				"x": 2.4763636706,
				"y": 1.8581822169,
				"z": -2.5763568538,
				"element": "C" 
			},
			{
				"x": 2.9890098578,
				"y": 2.9417745704,
				"z": -3.2838985187,
				"element": "C" 
			},
			{
				"x": 4.2590604847,
				"y": 2.9126918034,
				"z": -3.8043483866,
				"element": "O" 
			},
			{
				"x": 0.6615507904,
				"y": 0.6984566673,
				"z": -1.3068152719,
				"element": "C" 
			},
			{
				"x": 1.168251016,
				"y": -0.5666899375,
				"z": -1.3468684224,
				"element": "C" 
			},
			{
				"x": 0.5824874379,
				"y": -1.6444132542,
				"z": -0.5816932088,
				"element": "C" 
			},
			{
				"x": 1.0373119259,
				"y": -2.8138930421,
				"z": -0.59338796,
				"element": "O" 
			},
			{
				"x": -0.5877495053,
				"y": -1.2801586149,
				"z": 0.2004447678,
				"element": "C" 
			},
			{
				"x": -1.0714676156,
				"y": 0.0377333135,
				"z": 0.1794308257,
				"element": "C" 
			},
			{
				"x": -0.4370258011,
				"y": 1.0038311608,
				"z": -0.5635499179,
				"element": "O" 
			},
			{
				"x": -2.1775548945,
				"y": 0.4259944095,
				"z": 0.9163239178,
				"element": "C" 
			},
			{
				"x": -2.8515385556,
				"y": -0.5340950172,
				"z": 1.6880729917,
				"element": "C" 
			},
			{
				"x": -3.9433498846,
				"y": -0.0668236297,
				"z": 2.3465264559,
				"element": "O" 
			},
			{
				"x": -4.3279284488,
				"y": -0.6066626957,
				"z": 3.6165536888,
				"element": "C" 
			},
			{
				"x": -2.4156660844,
				"y": -1.8778999283,
				"z": 1.7166901993,
				"element": "C" 
			},
			{
				"x": -3.0884285705,
				"y": -2.8107029348,
				"z": 2.4712566943,
				"element": "O" 
			},
			{
				"x": -3.7539257285,
				"y": -3.8346105154,
				"z": 1.7202074354,
				"element": "C" 
			},
			{
				"x": -1.2686354056,
				"y": -2.241333861,
				"z": 0.9900875107,
				"element": "C" 
			},
			{
				"x": -0.8371401924,
				"y": -3.5099060919,
				"z": 1.0289318076,
				"element": "O" 
			},
			{
				"x": 4.6118205099,
				"y": 5.4049171821,
				"z": -3.9693700332,
				"element": "H" 
			},
			{
				"x": 3.759139423,
				"y": 6.4551276589,
				"z": -5.1350615178,
				"element": "H" 
			},
			{
				"x": 4.0157009099,
				"y": 4.7267823895,
				"z": -5.5047658567,
				"element": "H" 
			},
			{
				"x": 0.3099332365,
				"y": 4.9978907201,
				"z": -3.0512855415,
				"element": "H" 
			},
			{
				"x": -0.5999441452,
				"y": 3.0592247022,
				"z": -1.7922652842,
				"element": "H" 
			},
			{
				"x": 3.1207788392,
				"y": 0.9947068746,
				"z": -2.4316233053,
				"element": "H" 
			},
			{
				"x": 4.6593308094,
				"y": 2.0587591663,
				"z": -3.5965966901,
				"element": "H" 
			},
			{
				"x": 2.0180866755,
				"y": -0.802043059,
				"z": -1.9736478251,
				"element": "H" 
			},
			{
				"x": -2.5279232375,
				"y": 1.4502548503,
				"z": 0.9120111828,
				"element": "H" 
			},
			{
				"x": -4.9257920452,
				"y": 0.1756113045,
				"z": 4.0902814507,
				"element": "H" 
			},
			{
				"x": -4.9227936201,
				"y": -1.5152191716,
				"z": 3.5082093464,
				"element": "H" 
			},
			{
				"x": -3.4539160314,
				"y": -0.8272261542,
				"z": 4.2357363713,
				"element": "H" 
			},
			{
				"x": -4.4835764444,
				"y": -3.3994488856,
				"z": 1.0254618455,
				"element": "H" 
			},
			{
				"x": -4.2762265641,
				"y": -4.4544282676,
				"z": 2.4522317038,
				"element": "H" 
			},
			{
				"x": -3.0362984049,
				"y": -4.4461703634,
				"z": 1.167289511,
				"element": "H" 
			},
			{
				"x": -0.0333290865,
				"y": -3.5386093538,
				"z": 0.4294732625,
				"element": "H" 
			}
		],
		 "valence_orbital": [ 
			{
				"type": "occ",
				"energy": -0.25011,
				"method": "rhf"
			},
			{
				"type": "occ",
				"energy": -0.24793,
				"method": "rhf"
			},
			{
				"type": "occ",
				"energy": -0.22685,
				"method": "rhf"
			},
			{
				"type": "occ",
				"energy": -0.21359,
				"method": "rhf"
			},
			{
				"type": "occ",
				"energy": -0.20988,
				"method": "rhf"
			},
			{
				"type": "unocc",
				"energy": -0.06366,
				"method": "rhf"
			},
			{
				"type": "unocc",
				"energy": -0.02236,
				"method": "rhf"
			},
			{
				"type": "unocc",
				"energy": -0.00415,
				"method": "rhf"
			},
			{
				"type": "unocc",
				"energy": 0.01198,
				"method": "rhf"
			},
			{
				"type": "unocc",
				"energy": 0.03475,
				"method": "rhf"
			}
		],
		"cosmo_sigma_profile": { 
			"-0.025": 0.0,
			"-0.024": 0.0,
			"-0.023": 0.0,
			"-0.022": 0.0,
			"-0.021": 0.0,
			"-0.02": 0.0,
			"-0.019": 0.0836557443893,
			"-0.018": 0.928090837221,
			"-0.017": 1.25905169077,
			"-0.016": 1.07616141967,
			"-0.015": 1.19761149007,
			"-0.014": 1.13965454185,
			"-0.013": 0.45353339478,
			"-0.012": 0.454478079873,
			"-0.011": 1.42245905581,
			"-0.01": 2.04860115238,
			"-0.009": 2.79031420619,
			"-0.008": 2.27875958603,
			"-0.007": 3.44132648325,
			"-0.006": 9.75964055573,
			"-0.005": 20.559394989,
			"-0.004": 26.5024060987,
			"-0.003": 33.7866939557,
			"-0.002": 31.7636179093,
			"-0.001": 29.8540058033,
			"0.0": 30.1659363875,
			"0.001": 31.8861122624,
			"0.002": 31.3946803082,
			"0.003": 25.2961629958,
			"0.004": 16.056464241,
			"0.005": 9.94310262326,
			"0.006": 10.2833345626,
			"0.007": 7.5116592426,
			"0.008": 5.53828286586,
			"0.009": 6.13892107092,
			"0.01": 5.58108012979,
			"0.011": 4.08498457704,
			"0.012": 1.96410952995,
			"0.013": 2.05871259461,
			"0.014": 1.1399647922,
			"0.015": 0.13246920133,
			"0.016": 0.0,
			"0.017": 0.0,
			"0.018": 0.0,
			"0.019": 0.0,
			"0.02": 0.0,
			"0.021": 0.0,
			"0.022": 0.0,
			"0.023": 0.0,
			"0.024": 0.0,
			"0.025": 0.0
		}
	}
}
