{
	 "smiles": "C[Si]1(C)O[Si](C)(C)O[Si](C)(C)O[Si](C)(C)O1", 
	 "Tm": 290.95, 
	 "num_atms": 40, 
	 "gaussian": { 
		 "optdone": 1, 
		 "sigma_profile": "yes", 
		 "theory": "DFT", 
		 "functional": "B3LYP", 
		 "basiset": "6-31G**", 
		 "properties": { 
			 "R2extent": 5312.46, 
			 "electric_dipole_moment_norm": 0.0145622800413, 
			 "electric_quadrupole_moment_norm": 1.42314776815, 
			 "total_energy": -1778.71192528, 
			 "HOMO_LUMO_gap": 0.3147, 
			 "cosmo_polarized_energy": -5.65, 
			 "cosmo_cavitation_energy": 47.61, 
			 "cosmo_dispersion_energy": -23.21, 
			 "cosmo_repulsion_energy": 2.21, 
			 "cosmo_total_nonelectrostatic_energy": 26.62, 
			 "SMD_solvation_energy": 11.4 
		},
		"coords": [
			{
				"x": -1.2633272332,
				"y": -3.0433963293,
				"z": 1.7274788861,
				"element": "C" 
			},
			{
				"x": -0.2509296947,
				"y": -1.4943188717,
				"z": 1.4389291397,
				"element": "Si" 
			},
			{
				"x": 0.7744861499,
				"y": -1.0192852727,
				"z": 2.9350916966,
				"element": "C" 
			},
			{
				"x": 0.7351207448,
				"y": -1.7818243922,
				"z": 0.1378481347,
				"element": "O" 
			},
			{
				"x": 1.8274142747,
				"y": -1.1801473249,
				"z": -0.9555928715,
				"element": "Si" 
			},
			{
				"x": 3.5604430549,
				"y": -1.6581331421,
				"z": -0.4305746118,
				"element": "C" 
			},
			{
				"x": 1.3737467164,
				"y": -1.8675854448,
				"z": -2.6401709815,
				"element": "C" 
			},
			{
				"x": 1.754058471,
				"y": 0.4760680721,
				"z": -0.974540522,
				"element": "O" 
			},
			{
				"x": 0.8165654861,
				"y": 1.8308688825,
				"z": -1.1675580412,
				"element": "Si" 
			},
			{
				"x": 1.3418216395,
				"y": 3.0683722577,
				"z": 0.1394863438,
				"element": "C" 
			},
			{
				"x": 1.0296476228,
				"y": 2.4937655512,
				"z": -2.9063242482,
				"element": "C" 
			},
			{
				"x": -0.7836475966,
				"y": 1.4417706289,
				"z": -0.9782894197,
				"element": "O" 
			},
			{
				"x": -1.9604298923,
				"y": 0.7589166268,
				"z": -0.0297747454,
				"element": "Si" 
			},
			{
				"x": -3.0795036975,
				"y": -0.2403219956,
				"z": -1.1544563492,
				"element": "C" 
			},
			{
				"x": -2.8847531524,
				"y": 2.1079707795,
				"z": 0.8832850258,
				"element": "C" 
			},
			{
				"x": -1.2672267326,
				"y": -0.2257958968,
				"z": 1.1091503819,
				"element": "O" 
			},
			{
				"x": -1.8444682785,
				"y": -3.2993956969,
				"z": 0.835617691,
				"element": "H" 
			},
			{
				"x": -1.9635336053,
				"y": -2.9095971641,
				"z": 2.5588635784,
				"element": "H" 
			},
			{
				"x": -0.6187559508,
				"y": -3.897210177,
				"z": 1.9621217368,
				"element": "H" 
			},
			{
				"x": 1.4733378695,
				"y": -1.8166962901,
				"z": 3.2097356319,
				"element": "H" 
			},
			{
				"x": 0.1364290784,
				"y": -0.8165317503,
				"z": 3.8019130347,
				"element": "H" 
			},
			{
				"x": 1.3588382808,
				"y": -0.1150137542,
				"z": 2.7339933245,
				"element": "H" 
			},
			{
				"x": 3.6684741639,
				"y": -2.7460758552,
				"z": -0.3665592852,
				"element": "H" 
			},
			{
				"x": 3.7988444602,
				"y": -1.237633139,
				"z": 0.5517675036,
				"element": "H" 
			},
			{
				"x": 4.3046055316,
				"y": -1.2855629121,
				"z": -1.1425659011,
				"element": "H" 
			},
			{
				"x": 1.4064491599,
				"y": -2.9623610365,
				"z": -2.6408373422,
				"element": "H" 
			},
			{
				"x": 0.3594921831,
				"y": -1.5655630297,
				"z": -2.922506577,
				"element": "H" 
			},
			{
				"x": 2.0591391561,
				"y": -1.5091612206,
				"z": -3.4157203863,
				"element": "H" 
			},
			{
				"x": 1.2010026959,
				"y": 2.6561538487,
				"z": 1.1443933616,
				"element": "H" 
			},
			{
				"x": 0.75888063,
				"y": 3.9931252129,
				"z": 0.0709059765,
				"element": "H" 
			},
			{
				"x": 2.4004233773,
				"y": 3.3283217792,
				"z": 0.0326594403,
				"element": "H" 
			},
			{
				"x": 2.0767257313,
				"y": 2.7420728215,
				"z": -3.1097313547,
				"element": "H" 
			},
			{
				"x": 0.4316548624,
				"y": 3.3985622028,
				"z": -3.0589118106,
				"element": "H" 
			},
			{
				"x": 0.7091631254,
				"y": 1.7534919285,
				"z": -3.6465680159,
				"element": "H" 
			},
			{
				"x": -3.8840934226,
				"y": -0.7235705763,
				"z": -0.5898310367,
				"element": "H" 
			},
			{
				"x": -2.5135321657,
				"y": -1.0236468428,
				"z": -1.669897509,
				"element": "H" 
			},
			{
				"x": -3.5387031672,
				"y": 0.3953482475,
				"z": -1.9190995618,
				"element": "H" 
			},
			{
				"x": -2.2079717509,
				"y": 2.6706497465,
				"z": 1.5344677337,
				"element": "H" 
			},
			{
				"x": -3.6778994826,
				"y": 1.6870535768,
				"z": 1.5103971182,
				"element": "H" 
			},
			{
				"x": -3.3450886433,
				"y": 2.8147159514,
				"z": 0.1847048312,
				"element": "H" 
			}
		],
		 "valence_orbital": [ 
			{
				"type": "occ",
				"energy": -0.30047,
				"method": "rhf"
			},
			{
				"type": "occ",
				"energy": -0.29861,
				"method": "rhf"
			},
			{
				"type": "occ",
				"energy": -0.27133,
				"method": "rhf"
			},
			{
				"type": "occ",
				"energy": -0.27128,
				"method": "rhf"
			},
			{
				"type": "occ",
				"energy": -0.2649,
				"method": "rhf"
			},
			{
				"type": "unocc",
				"energy": 0.0498,
				"method": "rhf"
			},
			{
				"type": "unocc",
				"energy": 0.07442,
				"method": "rhf"
			},
			{
				"type": "unocc",
				"energy": 0.07443,
				"method": "rhf"
			},
			{
				"type": "unocc",
				"energy": 0.07912,
				"method": "rhf"
			},
			{
				"type": "unocc",
				"energy": 0.09685,
				"method": "rhf"
			}
		],
		"cosmo_sigma_profile": { 
			"-0.025": 0.0,
			"-0.024": 0.0,
			"-0.023": 0.0,
			"-0.022": 0.0,
			"-0.021": 0.0,
			"-0.02": 0.0,
			"-0.019": 0.0,
			"-0.018": 0.0,
			"-0.017": 0.0,
			"-0.016": 0.0,
			"-0.015": 0.0,
			"-0.014": 0.0,
			"-0.013": 0.0,
			"-0.012": 0.0,
			"-0.011": 0.0,
			"-0.01": 0.0,
			"-0.009": 0.0,
			"-0.008": 0.0,
			"-0.007": 0.0,
			"-0.006": 0.0,
			"-0.005": 0.939280720551,
			"-0.004": 26.6137325881,
			"-0.003": 44.6332367597,
			"-0.002": 43.2704024231,
			"-0.001": 54.6650871956,
			"0.0": 49.2176593217,
			"0.001": 52.2325405243,
			"0.002": 30.3070722879,
			"0.003": 15.1301263558,
			"0.004": 6.15788421492,
			"0.005": 7.35596599189,
			"0.006": 4.9206540301,
			"0.007": 4.86091675564,
			"0.008": 4.25725579371,
			"0.009": 3.8086673202,
			"0.01": 3.07783920077,
			"0.011": 0.0902639460233,
			"0.012": 0.0,
			"0.013": 0.0,
			"0.014": 0.0,
			"0.015": 0.0,
			"0.016": 0.0,
			"0.017": 0.0,
			"0.018": 0.0,
			"0.019": 0.0,
			"0.02": 0.0,
			"0.021": 0.0,
			"0.022": 0.0,
			"0.023": 0.0,
			"0.024": 0.0,
			"0.025": 0.0
		}
	}
}
