{
	 "smiles": "OC(=O)C1=C(Cl)C=CC=C1Cl", 
	 "Tm": 417.15, 
	 "num_atms": 15, 
	 "gaussian": { 
		 "optdone": 1, 
		 "sigma_profile": "yes", 
		 "theory": "DFT", 
		 "functional": "B3LYP", 
		 "basiset": "6-31G**", 
		 "properties": { 
			 "R2extent": 2631.3166, 
			 "electric_dipole_moment_norm": 2.52659082758, 
			 "electric_quadrupole_moment_norm": 11.5918757076, 
			 "total_energy": -1339.9898946, 
			 "HOMO_LUMO_gap": 0.22341, 
			 "cosmo_polarized_energy": -10.27, 
			 "cosmo_cavitation_energy": 23.85, 
			 "cosmo_dispersion_energy": -17.35, 
			 "cosmo_repulsion_energy": 1.41, 
			 "cosmo_total_nonelectrostatic_energy": 7.91, 
			 "SMD_solvation_energy": 4.68 
		},
		"coords": [
			{
				"x": 2.4801380608,
				"y": 1.2056781702,
				"z": -1.5450374054,
				"element": "O" 
			},
			{
				"x": 2.4405507612,
				"y": -0.0817141156,
				"z": -1.1509201915,
				"element": "C" 
			},
			{
				"x": 3.366515888,
				"y": -0.8497302148,
				"z": -1.2494788365,
				"element": "O" 
			},
			{
				"x": 1.0959655431,
				"y": -0.4410305124,
				"z": -0.5715180619,
				"element": "C" 
			},
			{
				"x": 0.0746758204,
				"y": -0.958270628,
				"z": -1.3781504553,
				"element": "C" 
			},
			{
				"x": 0.3386780166,
				"y": -1.129778322,
				"z": -3.1036674626,
				"element": "Cl" 
			},
			{
				"x": -1.1551507052,
				"y": -1.3410552782,
				"z": -0.8459766873,
				"element": "C" 
			},
			{
				"x": -1.3744153913,
				"y": -1.2046870414,
				"z": 0.5236437479,
				"element": "C" 
			},
			{
				"x": -0.3808073313,
				"y": -0.6901366637,
				"z": 1.3546152822,
				"element": "C" 
			},
			{
				"x": 0.84099918,
				"y": -0.3140946665,
				"z": 0.7996531676,
				"element": "C" 
			},
			{
				"x": 2.0830426144,
				"y": 0.3364398721,
				"z": 1.8535285738,
				"element": "Cl" 
			},
			{
				"x": 3.372113552,
				"y": 1.3577260791,
				"z": -1.9036559834,
				"element": "H" 
			},
			{
				"x": -1.9229863962,
				"y": -1.7380660676,
				"z": -1.4996855435,
				"element": "H" 
			},
			{
				"x": -2.3287875159,
				"y": -1.5012786977,
				"z": 0.9472020779,
				"element": "H" 
			},
			{
				"x": -0.5436320966,
				"y": -0.5786019137,
				"z": 2.420247778,
				"element": "H" 
			}
		],
		 "valence_orbital": [ 
			{
				"type": "occ",
				"energy": -0.32931,
				"method": "rhf"
			},
			{
				"type": "occ",
				"energy": -0.32345,
				"method": "rhf"
			},
			{
				"type": "occ",
				"energy": -0.2974,
				"method": "rhf"
			},
			{
				"type": "occ",
				"energy": -0.26832,
				"method": "rhf"
			},
			{
				"type": "occ",
				"energy": -0.26052,
				"method": "rhf"
			},
			{
				"type": "unocc",
				"energy": -0.03711,
				"method": "rhf"
			},
			{
				"type": "unocc",
				"energy": -0.03339,
				"method": "rhf"
			},
			{
				"type": "unocc",
				"energy": -0.00698,
				"method": "rhf"
			},
			{
				"type": "unocc",
				"energy": -0.00198,
				"method": "rhf"
			},
			{
				"type": "unocc",
				"energy": 0.04272,
				"method": "rhf"
			}
		],
		"cosmo_sigma_profile": { 
			"-0.025": 0.0,
			"-0.024": 0.0,
			"-0.023": 0.0,
			"-0.022": 0.0,
			"-0.021": 0.0,
			"-0.02": 0.0833268238776,
			"-0.019": 0.85607349393,
			"-0.018": 1.02866774154,
			"-0.017": 0.920317484578,
			"-0.016": 0.967481513966,
			"-0.015": 0.486402859937,
			"-0.014": 0.0819747721678,
			"-0.013": 0.760262895455,
			"-0.012": 0.831498481974,
			"-0.011": 0.79680291868,
			"-0.01": 1.00591861897,
			"-0.009": 1.16501380336,
			"-0.008": 6.15392405687,
			"-0.007": 7.96064267673,
			"-0.006": 6.78111294378,
			"-0.005": 5.04903253191,
			"-0.004": 6.2701566212,
			"-0.003": 6.70138913885,
			"-0.002": 9.73812501107,
			"-0.001": 11.4482075642,
			"0.0": 25.0395864936,
			"0.001": 23.7712518793,
			"0.002": 20.9870838343,
			"0.003": 21.443204382,
			"0.004": 12.538168355,
			"0.005": 3.76123551358,
			"0.006": 1.99180340693,
			"0.007": 3.04109908424,
			"0.008": 3.09453044378,
			"0.009": 2.76406387488,
			"0.01": 4.27405263686,
			"0.011": 3.80800987689,
			"0.012": 0.420367281597,
			"0.013": 0.0,
			"0.014": 0.0,
			"0.015": 0.0,
			"0.016": 0.0,
			"0.017": 0.0,
			"0.018": 0.0,
			"0.019": 0.0,
			"0.02": 0.0,
			"0.021": 0.0,
			"0.022": 0.0,
			"0.023": 0.0,
			"0.024": 0.0,
			"0.025": 0.0
		}
	}
}
