{
	 "smiles": "C=C1CC(C1)C#N", 
	 "Tm": 423.15, 
	 "num_atms": 14, 
	 "gaussian": { 
		 "optdone": 1, 
		 "sigma_profile": "yes", 
		 "theory": "DFT", 
		 "functional": "B3LYP", 
		 "basiset": "6-31G**", 
		 "properties": { 
			 "R2extent": 1107.3407, 
			 "electric_dipole_moment_norm": 3.80954500958, 
			 "electric_quadrupole_moment_norm": 12.7485036761, 
			 "total_energy": -287.539915023, 
			 "HOMO_LUMO_gap": 0.26021, 
			 "cosmo_polarized_energy": -8.42, 
			 "cosmo_cavitation_energy": 18.54, 
			 "cosmo_dispersion_energy": -12.93, 
			 "cosmo_repulsion_energy": 1.12, 
			 "cosmo_total_nonelectrostatic_energy": 6.74, 
			 "SMD_solvation_energy": 5.06 
		},
		"coords": [
			{
				"x": -1.1468195678,
				"y": 2.4040197818,
				"z": -0.8198328447,
				"element": "C" 
			},
			{
				"x": -0.2414073725,
				"y": 1.4334436394,
				"z": -0.8533460312,
				"element": "C" 
			},
			{
				"x": -0.2924223943,
				"y": -0.0399226778,
				"z": -1.2303186362,
				"element": "C" 
			},
			{
				"x": 1.027575503,
				"y": -0.2349714616,
				"z": -0.4041709074,
				"element": "C" 
			},
			{
				"x": 1.2016415152,
				"y": 1.3245813651,
				"z": -0.3829430413,
				"element": "C" 
			},
			{
				"x": 2.0924185485,
				"y": -1.031463896,
				"z": -0.9991749553,
				"element": "C" 
			},
			{
				"x": 2.9403396312,
				"y": -1.6532302419,
				"z": -1.4931908778,
				"element": "N" 
			},
			{
				"x": -2.1647210899,
				"y": 2.2429348026,
				"z": -1.1639335999,
				"element": "H" 
			},
			{
				"x": -0.9028181645,
				"y": 3.3954021584,
				"z": -0.4482125881,
				"element": "H" 
			},
			{
				"x": -0.1287602735,
				"y": -0.2125890293,
				"z": -2.2996054966,
				"element": "H" 
			},
			{
				"x": -1.1590869261,
				"y": -0.623165498,
				"z": -0.9076906813,
				"element": "H" 
			},
			{
				"x": 0.809702006,
				"y": -0.6181011538,
				"z": 0.596928209,
				"element": "H" 
			},
			{
				"x": 1.9224255004,
				"y": 1.6607414013,
				"z": -1.1362301393,
				"element": "H" 
			},
			{
				"x": 1.4634330844,
				"y": 1.7719208098,
				"z": 0.5797215902,
				"element": "H" 
			}
		],
		 "valence_orbital": [ 
			{
				"type": "occ",
				"energy": -0.35132,
				"method": "rhf"
			},
			{
				"type": "occ",
				"energy": -0.33463,
				"method": "rhf"
			},
			{
				"type": "occ",
				"energy": -0.31778,
				"method": "rhf"
			},
			{
				"type": "occ",
				"energy": -0.31333,
				"method": "rhf"
			},
			{
				"type": "occ",
				"energy": -0.26231,
				"method": "rhf"
			},
			{
				"type": "unocc",
				"energy": -0.0021,
				"method": "rhf"
			},
			{
				"type": "unocc",
				"energy": 0.02608,
				"method": "rhf"
			},
			{
				"type": "unocc",
				"energy": 0.03258,
				"method": "rhf"
			},
			{
				"type": "unocc",
				"energy": 0.08683,
				"method": "rhf"
			},
			{
				"type": "unocc",
				"energy": 0.11697,
				"method": "rhf"
			}
		],
		"cosmo_sigma_profile": { 
			"-0.025": 0.0,
			"-0.024": 0.0,
			"-0.023": 0.0,
			"-0.022": 0.0,
			"-0.021": 0.0,
			"-0.02": 0.0,
			"-0.019": 0.0,
			"-0.018": 0.0,
			"-0.017": 0.0,
			"-0.016": 0.0,
			"-0.015": 0.0,
			"-0.014": 0.0,
			"-0.013": 0.0,
			"-0.012": 0.0,
			"-0.011": 0.0,
			"-0.01": 0.0,
			"-0.009": 0.155968379827,
			"-0.008": 2.58744886027,
			"-0.007": 3.07769700862,
			"-0.006": 8.49039050403,
			"-0.005": 16.3206653753,
			"-0.004": 14.4553903833,
			"-0.003": 16.2959712002,
			"-0.002": 15.7362334836,
			"-0.001": 9.91634344008,
			"0.0": 8.18177076645,
			"0.001": 5.48807153236,
			"0.002": 5.25942007361,
			"0.003": 4.63170567023,
			"0.004": 5.92130760814,
			"0.005": 4.26932772933,
			"0.006": 5.30703366342,
			"0.007": 3.05220493775,
			"0.008": 3.61226259598,
			"0.009": 3.3196515659,
			"0.01": 3.66212606903,
			"0.011": 2.90859461351,
			"0.012": 2.56131326114,
			"0.013": 2.1991625868,
			"0.014": 0.595374332082,
			"0.015": 0.0,
			"0.016": 0.0,
			"0.017": 0.0,
			"0.018": 0.0,
			"0.019": 0.0,
			"0.02": 0.0,
			"0.021": 0.0,
			"0.022": 0.0,
			"0.023": 0.0,
			"0.024": 0.0,
			"0.025": 0.0
		}
	}
}
