{
	 "smiles": "CC1=CN(C2CC(F)C(CO)O2)C(=O)NC1=O", 
	 "Tm": 450.15, 
	 "num_atms": 30, 
	 "gaussian": { 
		 "optdone": 1, 
		 "sigma_profile": "yes", 
		 "theory": "DFT", 
		 "functional": "B3LYP", 
		 "basiset": "6-31G**", 
		 "properties": { 
			 "R2extent": 4953.6394, 
			 "electric_dipole_moment_norm": 4.09237562792, 
			 "electric_quadrupole_moment_norm": 21.405181981, 
			 "total_energy": -899.152259799, 
			 "HOMO_LUMO_gap": 0.19942, 
			 "cosmo_polarized_energy": -21.89, 
			 "cosmo_cavitation_energy": 33.49, 
			 "cosmo_dispersion_energy": -23.88, 
			 "cosmo_repulsion_energy": 1.85, 
			 "cosmo_total_nonelectrostatic_energy": 11.46, 
			 "SMD_solvation_energy": 7.26 
		},
		"coords": [
			{
				"x": 3.526366201,
				"y": 2.4421500092,
				"z": 0.9009628268,
				"element": "C" 
			},
			{
				"x": 2.122235829,
				"y": 2.4527629476,
				"z": 0.3694604959,
				"element": "C" 
			},
			{
				"x": 1.30023873,
				"y": 1.3769613598,
				"z": 0.4001554065,
				"element": "C" 
			},
			{
				"x": 0.0054898026,
				"y": 1.3923772942,
				"z": -0.0835448598,
				"element": "N" 
			},
			{
				"x": -0.8704283955,
				"y": 0.2003975819,
				"z": -0.0541007492,
				"element": "C" 
			},
			{
				"x": -0.9780442774,
				"y": -0.519021254,
				"z": -1.4103482725,
				"element": "C" 
			},
			{
				"x": -1.1257051195,
				"y": -1.97826003,
				"z": -0.9995892088,
				"element": "C" 
			},
			{
				"x": -2.4539824036,
				"y": -2.2336424018,
				"z": -0.6812197988,
				"element": "F" 
			},
			{
				"x": -0.2397033701,
				"y": -2.0554096816,
				"z": 0.2457173511,
				"element": "C" 
			},
			{
				"x": -0.5866185966,
				"y": -3.0941068209,
				"z": 1.3172359787,
				"element": "C" 
			},
			{
				"x": -1.7819865825,
				"y": -2.8082530695,
				"z": 2.0002126679,
				"element": "O" 
			},
			{
				"x": -0.3428043363,
				"y": -0.7479417992,
				"z": 0.8613149192,
				"element": "O" 
			},
			{
				"x": -0.5583028969,
				"y": 2.5358297145,
				"z": -0.6464869739,
				"element": "C" 
			},
			{
				"x": -1.6959320445,
				"y": 2.5564999582,
				"z": -1.0957835273,
				"element": "O" 
			},
			{
				"x": 0.2880119491,
				"y": 3.6280708861,
				"z": -0.6544814519,
				"element": "N" 
			},
			{
				"x": 1.6178376575,
				"y": 3.70368074,
				"z": -0.1979739627,
				"element": "C" 
			},
			{
				"x": 2.2455074405,
				"y": 4.7484779292,
				"z": -0.2904350615,
				"element": "O" 
			},
			{
				"x": 3.6490325346,
				"y": 3.1894175867,
				"z": 1.692001112,
				"element": "H" 
			},
			{
				"x": 3.7906336332,
				"y": 1.4608850751,
				"z": 1.3042321826,
				"element": "H" 
			},
			{
				"x": 4.2427824822,
				"y": 2.7020391326,
				"z": 0.1144791742,
				"element": "H" 
			},
			{
				"x": 1.5995689478,
				"y": 0.4305030339,
				"z": 0.83193955,
				"element": "H" 
			},
			{
				"x": -1.8490387301,
				"y": 0.5454325914,
				"z": 0.288438819,
				"element": "H" 
			},
			{
				"x": -0.0536161174,
				"y": -0.3775945755,
				"z": -1.9800183868,
				"element": "H" 
			},
			{
				"x": -1.8167899621,
				"y": -0.1589358518,
				"z": -2.006158466,
				"element": "H" 
			},
			{
				"x": -0.8180392802,
				"y": -2.6918377972,
				"z": -1.7718737414,
				"element": "H" 
			},
			{
				"x": 0.7976975111,
				"y": -2.2199739045,
				"z": -0.0853872597,
				"element": "H" 
			},
			{
				"x": 0.2689374699,
				"y": -3.1622854595,
				"z": 2.0094951838,
				"element": "H" 
			},
			{
				"x": -0.7010869898,
				"y": -4.0747436268,
				"z": 0.8425268851,
				"element": "H" 
			},
			{
				"x": -1.7381763873,
				"y": -1.8715541894,
				"z": 2.2389059666,
				"element": "H" 
			},
			{
				"x": -0.0969846988,
				"y": 4.4732746213,
				"z": -1.0590767992,
				"element": "H" 
			}
		],
		 "valence_orbital": [ 
			{
				"type": "occ",
				"energy": -0.29213,
				"method": "rhf"
			},
			{
				"type": "occ",
				"energy": -0.2849,
				"method": "rhf"
			},
			{
				"type": "occ",
				"energy": -0.27214,
				"method": "rhf"
			},
			{
				"type": "occ",
				"energy": -0.26239,
				"method": "rhf"
			},
			{
				"type": "occ",
				"energy": -0.23638,
				"method": "rhf"
			},
			{
				"type": "unocc",
				"energy": -0.03696,
				"method": "rhf"
			},
			{
				"type": "unocc",
				"energy": 0.0086,
				"method": "rhf"
			},
			{
				"type": "unocc",
				"energy": 0.05184,
				"method": "rhf"
			},
			{
				"type": "unocc",
				"energy": 0.06959,
				"method": "rhf"
			},
			{
				"type": "unocc",
				"energy": 0.08997,
				"method": "rhf"
			}
		],
		"cosmo_sigma_profile": { 
			"-0.025": 0.0,
			"-0.024": 0.0,
			"-0.023": 0.0,
			"-0.022": 0.0,
			"-0.021": 0.0,
			"-0.02": 0.0,
			"-0.019": 0.0,
			"-0.018": 0.0,
			"-0.017": 0.0,
			"-0.016": 0.217745534923,
			"-0.015": 1.34524566067,
			"-0.014": 0.59161143343,
			"-0.013": 0.687787668016,
			"-0.012": 1.56202075573,
			"-0.011": 1.65394580164,
			"-0.01": 1.29894504796,
			"-0.009": 0.855673906879,
			"-0.008": 5.53458271189,
			"-0.007": 16.5304754759,
			"-0.006": 18.7565261944,
			"-0.005": 17.9852829172,
			"-0.004": 22.1637134223,
			"-0.003": 22.0755653628,
			"-0.002": 19.834669017,
			"-0.001": 19.7059553314,
			"0.0": 17.5091164292,
			"0.001": 11.7741498457,
			"0.002": 8.12526739105,
			"0.003": 4.97546396806,
			"0.004": 6.73242802744,
			"0.005": 6.32827402904,
			"0.006": 9.50209350134,
			"0.007": 6.62005178959,
			"0.008": 3.89043789964,
			"0.009": 3.65781317395,
			"0.01": 4.08933987811,
			"0.011": 6.6004972792,
			"0.012": 7.64685804282,
			"0.013": 10.6831972636,
			"0.014": 4.21570426742,
			"0.015": 0.277985820704,
			"0.016": 0.0,
			"0.017": 0.0,
			"0.018": 0.0,
			"0.019": 0.0,
			"0.02": 0.0,
			"0.021": 0.0,
			"0.022": 0.0,
			"0.023": 0.0,
			"0.024": 0.0,
			"0.025": 0.0
		}
	}
}
