{
	 "smiles": "ClC1=CC=CC=C1C1=NN=NN1", 
	 "Tm": 452.65, 
	 "num_atms": 17, 
	 "gaussian": { 
		 "optdone": 1, 
		 "sigma_profile": "yes", 
		 "theory": "DFT", 
		 "functional": "B3LYP", 
		 "basiset": "6-31G**", 
		 "properties": { 
			 "R2extent": 2521.7475, 
			 "electric_dipole_moment_norm": 5.68636309956, 
			 "electric_quadrupole_moment_norm": 16.9497816588, 
			 "total_energy": -948.903712392, 
			 "HOMO_LUMO_gap": 0.19644, 
			 "cosmo_polarized_energy": -13.39, 
			 "cosmo_cavitation_energy": 23.42, 
			 "cosmo_dispersion_energy": -17.94, 
			 "cosmo_repulsion_energy": 1.4, 
			 "cosmo_total_nonelectrostatic_energy": 6.88, 
			 "SMD_solvation_energy": 1.97 
		},
		"coords": [
			{
				"x": -1.5106935343,
				"y": 0.7197956304,
				"z": -0.0533984732,
				"element": "Cl" 
			},
			{
				"x": -0.1941197173,
				"y": -0.2831295283,
				"z": -0.6746383263,
				"element": "C" 
			},
			{
				"x": -0.1112654408,
				"y": -0.401000698,
				"z": -2.0619177159,
				"element": "C" 
			},
			{
				"x": 0.8971387008,
				"y": -1.1730258169,
				"z": -2.632569697,
				"element": "C" 
			},
			{
				"x": 1.8204028784,
				"y": -1.825336565,
				"z": -1.8128821475,
				"element": "C" 
			},
			{
				"x": 1.7305944126,
				"y": -1.702564456,
				"z": -0.4328482033,
				"element": "C" 
			},
			{
				"x": 0.7211958753,
				"y": -0.9282782764,
				"z": 0.1758877663,
				"element": "C" 
			},
			{
				"x": 0.7331500403,
				"y": -0.8776045685,
				"z": 1.6428300438,
				"element": "C" 
			},
			{
				"x": 1.6267957127,
				"y": -1.5096481522,
				"z": 2.3983271988,
				"element": "N" 
			},
			{
				"x": 1.3182572014,
				"y": -1.2292075541,
				"z": 3.6842688672,
				"element": "N" 
			},
			{
				"x": 0.2810544478,
				"y": -0.4561526989,
				"z": 3.7582785999,
				"element": "N" 
			},
			{
				"x": -0.100682069,
				"y": -0.2249044738,
				"z": 2.4858601253,
				"element": "N" 
			},
			{
				"x": -0.8375116799,
				"y": 0.1131272699,
				"z": -2.6814614215,
				"element": "H" 
			},
			{
				"x": 0.9569296727,
				"y": -1.2613118109,
				"z": -3.7128757272,
				"element": "H" 
			},
			{
				"x": 2.6098624901,
				"y": -2.4292671796,
				"z": -2.2485906651,
				"element": "H" 
			},
			{
				"x": 2.4380231307,
				"y": -2.2013499461,
				"z": 0.220358263,
				"element": "H" 
			},
			{
				"x": -0.8984321215,
				"y": 0.3584588243,
				"z": 2.2792715128,
				"element": "H" 
			}
		],
		 "valence_orbital": [ 
			{
				"type": "occ",
				"energy": -0.32715,
				"method": "rhf"
			},
			{
				"type": "occ",
				"energy": -0.29997,
				"method": "rhf"
			},
			{
				"type": "occ",
				"energy": -0.28566,
				"method": "rhf"
			},
			{
				"type": "occ",
				"energy": -0.27443,
				"method": "rhf"
			},
			{
				"type": "occ",
				"energy": -0.26199,
				"method": "rhf"
			},
			{
				"type": "unocc",
				"energy": -0.06555,
				"method": "rhf"
			},
			{
				"type": "unocc",
				"energy": -0.03448,
				"method": "rhf"
			},
			{
				"type": "unocc",
				"energy": -0.00209,
				"method": "rhf"
			},
			{
				"type": "unocc",
				"energy": -0.00119,
				"method": "rhf"
			},
			{
				"type": "unocc",
				"energy": 0.04423,
				"method": "rhf"
			}
		],
		"cosmo_sigma_profile": { 
			"-0.025": 0.0,
			"-0.024": 0.0,
			"-0.023": 0.0,
			"-0.022": 0.0,
			"-0.021": 0.0,
			"-0.02": 0.0,
			"-0.019": 0.0,
			"-0.018": 0.0315968570499,
			"-0.017": 0.629234969498,
			"-0.016": 1.03219187978,
			"-0.015": 0.332024072516,
			"-0.014": 0.651893925533,
			"-0.013": 1.10347699706,
			"-0.012": 0.593088523492,
			"-0.011": 0.944814118791,
			"-0.01": 1.45020201608,
			"-0.009": 0.788039035827,
			"-0.008": 3.45551938148,
			"-0.007": 8.85696475431,
			"-0.006": 12.2778330911,
			"-0.005": 9.4310434023,
			"-0.004": 11.8864254907,
			"-0.003": 11.3005479605,
			"-0.002": 11.4244538067,
			"-0.001": 12.5028028209,
			"0.0": 16.885452071,
			"0.001": 16.9645643946,
			"0.002": 17.7303066383,
			"0.003": 12.9135298825,
			"0.004": 4.40532174354,
			"0.005": 2.16981133686,
			"0.006": 3.13860284848,
			"0.007": 4.27829958795,
			"0.008": 4.91018741956,
			"0.009": 4.7212201175,
			"0.01": 5.45043713953,
			"0.011": 3.76173635541,
			"0.012": 3.45469307396,
			"0.013": 1.95568842345,
			"0.014": 0.5102169377,
			"0.015": 0.0,
			"0.016": 0.0,
			"0.017": 0.0,
			"0.018": 0.0,
			"0.019": 0.0,
			"0.02": 0.0,
			"0.021": 0.0,
			"0.022": 0.0,
			"0.023": 0.0,
			"0.024": 0.0,
			"0.025": 0.0
		}
	}
}
