{
	 "smiles": "NC1=NCC2N1C1=CC=CC=C1CC1=CC=CC=C21", 
	 "Tm": 479.65, 
	 "num_atms": 34, 
	 "gaussian": { 
		 "optdone": 1, 
		 "sigma_profile": "yes", 
		 "theory": "DFT", 
		 "functional": "B3LYP", 
		 "basiset": "6-31G**", 
		 "properties": { 
			 "R2extent": 5134.8463, 
			 "electric_dipole_moment_norm": 2.19178919151, 
			 "electric_quadrupole_moment_norm": 9.68530049818, 
			 "total_energy": -782.997470663, 
			 "HOMO_LUMO_gap": 0.18061, 
			 "cosmo_polarized_energy": -13.06, 
			 "cosmo_cavitation_energy": 34.85, 
			 "cosmo_dispersion_energy": -25.63, 
			 "cosmo_repulsion_energy": 1.93, 
			 "cosmo_total_nonelectrostatic_energy": 11.15, 
			 "SMD_solvation_energy": 1.27 
		},
		"coords": [
			{
				"x": -2.5570269624,
				"y": -0.1758884141,
				"z": -0.3515734942,
				"element": "N" 
			},
			{
				"x": -1.3656163544,
				"y": -0.6384181595,
				"z": 0.1704714493,
				"element": "C" 
			},
			{
				"x": -1.2086017271,
				"y": -1.8448194979,
				"z": 0.593348429,
				"element": "N" 
			},
			{
				"x": 0.2181606995,
				"y": -1.9769180904,
				"z": 0.9041755507,
				"element": "C" 
			},
			{
				"x": 0.7029949905,
				"y": -0.5349568236,
				"z": 1.1469860273,
				"element": "C" 
			},
			{
				"x": -0.2455918111,
				"y": 0.2035896987,
				"z": 0.2552484959,
				"element": "N" 
			},
			{
				"x": -0.0758259245,
				"y": 1.474768548,
				"z": -0.3295171939,
				"element": "C" 
			},
			{
				"x": -0.705651162,
				"y": 1.7727977521,
				"z": -1.5540007067,
				"element": "C" 
			},
			{
				"x": -0.589460517,
				"y": 3.0340105903,
				"z": -2.1337081079,
				"element": "C" 
			},
			{
				"x": 0.1890796499,
				"y": 4.0184141185,
				"z": -1.5285869184,
				"element": "C" 
			},
			{
				"x": 0.856305691,
				"y": 3.7117378077,
				"z": -0.3431349887,
				"element": "C" 
			},
			{
				"x": 0.7381535646,
				"y": 2.4641218257,
				"z": 0.2752809616,
				"element": "C" 
			},
			{
				"x": 1.5469130446,
				"y": 2.1684472664,
				"z": 1.5266072379,
				"element": "C" 
			},
			{
				"x": 2.5910829666,
				"y": 1.1074916362,
				"z": 1.237162718,
				"element": "C" 
			},
			{
				"x": 3.9489407929,
				"y": 1.4243408956,
				"z": 1.1619898135,
				"element": "C" 
			},
			{
				"x": 4.8931574554,
				"y": 0.4496589426,
				"z": 0.8333211613,
				"element": "C" 
			},
			{
				"x": 4.4773597652,
				"y": -0.8538016557,
				"z": 0.5696870442,
				"element": "C" 
			},
			{
				"x": 3.1204273533,
				"y": -1.1788533994,
				"z": 0.637480574,
				"element": "C" 
			},
			{
				"x": 2.1682168527,
				"y": -0.2101611195,
				"z": 0.9672021828,
				"element": "C" 
			},
			{
				"x": -2.7811855639,
				"y": 0.7908098914,
				"z": -0.1555266171,
				"element": "H" 
			},
			{
				"x": -3.3129838239,
				"y": -0.8211704771,
				"z": -0.1642886188,
				"element": "H" 
			},
			{
				"x": 0.3782280503,
				"y": -2.6090934258,
				"z": 1.7822094559,
				"element": "H" 
			},
			{
				"x": 0.740924852,
				"y": -2.4418602319,
				"z": 0.0542637373,
				"element": "H" 
			},
			{
				"x": 0.4339650637,
				"y": -0.2793819561,
				"z": 2.1858345217,
				"element": "H" 
			},
			{
				"x": -1.2864556899,
				"y": 1.0043853962,
				"z": -2.0489103456,
				"element": "H" 
			},
			{
				"x": -1.0967874475,
				"y": 3.2339943571,
				"z": -3.0733271174,
				"element": "H" 
			},
			{
				"x": 0.2900502072,
				"y": 5.002187042,
				"z": -1.9763591294,
				"element": "H" 
			},
			{
				"x": 1.4874596196,
				"y": 4.4618369831,
				"z": 0.127281468,
				"element": "H" 
			},
			{
				"x": 2.033669578,
				"y": 3.0869206067,
				"z": 1.8660300894,
				"element": "H" 
			},
			{
				"x": 0.8867298133,
				"y": 1.8456179167,
				"z": 2.342239985,
				"element": "H" 
			},
			{
				"x": 4.2696016976,
				"y": 2.4435918719,
				"z": 1.3627312812,
				"element": "H" 
			},
			{
				"x": 5.9467473811,
				"y": 0.7095416659,
				"z": 0.7840706266,
				"element": "H" 
			},
			{
				"x": 5.2037252519,
				"y": -1.6200745089,
				"z": 0.3151671879,
				"element": "H" 
			},
			{
				"x": 2.810792643,
				"y": -2.1997670526,
				"z": 0.4406432394,
				"element": "H" 
			}
		],
		 "valence_orbital": [ 
			{
				"type": "occ",
				"energy": -0.25054,
				"method": "rhf"
			},
			{
				"type": "occ",
				"energy": -0.24798,
				"method": "rhf"
			},
			{
				"type": "occ",
				"energy": -0.23917,
				"method": "rhf"
			},
			{
				"type": "occ",
				"energy": -0.23319,
				"method": "rhf"
			},
			{
				"type": "occ",
				"energy": -0.19047,
				"method": "rhf"
			},
			{
				"type": "unocc",
				"energy": -0.00986,
				"method": "rhf"
			},
			{
				"type": "unocc",
				"energy": -0.0066,
				"method": "rhf"
			},
			{
				"type": "unocc",
				"energy": -0.00132,
				"method": "rhf"
			},
			{
				"type": "unocc",
				"energy": 0.00966,
				"method": "rhf"
			},
			{
				"type": "unocc",
				"energy": 0.05938,
				"method": "rhf"
			}
		],
		"cosmo_sigma_profile": { 
			"-0.025": 0.0,
			"-0.024": 0.0,
			"-0.023": 0.0,
			"-0.022": 0.0,
			"-0.021": 0.0,
			"-0.02": 0.0,
			"-0.019": 0.0,
			"-0.018": 0.0,
			"-0.017": 0.0,
			"-0.016": 0.0,
			"-0.015": 0.0,
			"-0.014": 0.0333077327407,
			"-0.013": 0.986689753854,
			"-0.012": 2.24394261427,
			"-0.011": 2.23107772547,
			"-0.01": 2.45909960921,
			"-0.009": 2.00464220141,
			"-0.008": 1.65247780635,
			"-0.007": 2.15083329209,
			"-0.006": 9.33893919912,
			"-0.005": 24.7471161911,
			"-0.004": 26.2664292769,
			"-0.003": 28.1599578323,
			"-0.002": 19.4282573253,
			"-0.001": 21.0120562251,
			"0.0": 16.5768101137,
			"0.001": 15.1459396026,
			"0.002": 15.7044820788,
			"0.003": 17.123908076,
			"0.004": 18.4724295997,
			"0.005": 18.4658029829,
			"0.006": 14.9244711119,
			"0.007": 3.50245030657,
			"0.008": 2.00461482754,
			"0.009": 1.67154821075,
			"0.01": 1.52044428254,
			"0.011": 1.36283305146,
			"0.012": 1.19973701019,
			"0.013": 0.648529550738,
			"0.014": 1.19992708286,
			"0.015": 1.45769580596,
			"0.016": 0.890689320207,
			"0.017": 0.637785088225,
			"0.018": 1.27368614045,
			"0.019": 0.639231745761,
			"0.02": 0.0,
			"0.021": 0.0,
			"0.022": 0.0,
			"0.023": 0.0,
			"0.024": 0.0,
			"0.025": 0.0
		}
	}
}
