{
	 "smiles": "O=C1OC2(CCC22OC(=O)C=C2)C=C1", 
	 "Tm": 431.15, 
	 "num_atms": 22, 
	 "gaussian": { 
		 "optdone": 1, 
		 "sigma_profile": "yes", 
		 "theory": "DFT", 
		 "functional": "B3LYP", 
		 "basiset": "6-31G**", 
		 "properties": { 
			 "R2extent": 2867.573, 
			 "electric_dipole_moment_norm": 7.93578111215, 
			 "electric_quadrupole_moment_norm": 15.0768927246, 
			 "total_energy": -686.727111924, 
			 "HOMO_LUMO_gap": 0.2103, 
			 "cosmo_polarized_energy": -21.9, 
			 "cosmo_cavitation_energy": 26.8, 
			 "cosmo_dispersion_energy": -18.89, 
			 "cosmo_repulsion_energy": 1.5, 
			 "cosmo_total_nonelectrostatic_energy": 9.41, 
			 "SMD_solvation_energy": 6.7 
		},
		"coords": [
			{
				"x": -3.4990655053,
				"y": -2.7616078107,
				"z": -0.4761196732,
				"element": "O" 
			},
			{
				"x": -2.6982229284,
				"y": -1.8738886943,
				"z": -0.6033729379,
				"element": "C" 
			},
			{
				"x": -1.3688944459,
				"y": -2.1064652799,
				"z": -0.9061875089,
				"element": "O" 
			},
			{
				"x": -0.6617934304,
				"y": -0.8697208856,
				"z": -0.9884520005,
				"element": "C" 
			},
			{
				"x": 0.2770545351,
				"y": -0.882075037,
				"z": -2.2254415102,
				"element": "C" 
			},
			{
				"x": 1.3963970469,
				"y": -1.4890846429,
				"z": -1.3389231746,
				"element": "C" 
			},
			{
				"x": 0.64914648,
				"y": -0.9419852703,
				"z": -0.0930853403,
				"element": "C" 
			},
			{
				"x": 0.5725483069,
				"y": -1.7731106929,
				"z": 1.0475469622,
				"element": "O" 
			},
			{
				"x": 0.9499092236,
				"y": -1.0707952358,
				"z": 2.1813347956,
				"element": "C" 
			},
			{
				"x": 0.9613499671,
				"y": -1.5648317039,
				"z": 3.2771517197,
				"element": "O" 
			},
			{
				"x": 1.3088362951,
				"y": 0.3017292766,
				"z": 1.7445359798,
				"element": "C" 
			},
			{
				"x": 1.1355262639,
				"y": 0.3826843235,
				"z": 0.4236212018,
				"element": "C" 
			},
			{
				"x": -1.6987009612,
				"y": 0.1819996211,
				"z": -0.7508654206,
				"element": "C" 
			},
			{
				"x": -2.875472288,
				"y": -0.4026592376,
				"z": -0.5139380849,
				"element": "C" 
			},
			{
				"x": -0.0866756499,
				"y": -1.4780531917,
				"z": -3.0635399495,
				"element": "H" 
			},
			{
				"x": 0.5074021969,
				"y": 0.1299820107,
				"z": -2.5709661864,
				"element": "H" 
			},
			{
				"x": 1.3565310309,
				"y": -2.5798358818,
				"z": -1.3362768362,
				"element": "H" 
			},
			{
				"x": 2.4249748705,
				"y": -1.1547229629,
				"z": -1.4900257205,
				"element": "H" 
			},
			{
				"x": 1.6548020012,
				"y": 1.0585731785,
				"z": 2.4349412959,
				"element": "H" 
			},
			{
				"x": 1.3204782719,
				"y": 1.2380494264,
				"z": -0.2162973069,
				"element": "H" 
			},
			{
				"x": -1.4793085802,
				"y": 1.2430723733,
				"z": -0.765808368,
				"element": "H" 
			},
			{
				"x": -3.8317227006,
				"y": 0.0521463172,
				"z": -0.2946319364,
				"element": "H" 
			}
		],
		 "valence_orbital": [ 
			{
				"type": "occ",
				"energy": -0.31149,
				"method": "rhf"
			},
			{
				"type": "occ",
				"energy": -0.3029,
				"method": "rhf"
			},
			{
				"type": "occ",
				"energy": -0.28116,
				"method": "rhf"
			},
			{
				"type": "occ",
				"energy": -0.27697,
				"method": "rhf"
			},
			{
				"type": "occ",
				"energy": -0.27484,
				"method": "rhf"
			},
			{
				"type": "unocc",
				"energy": -0.06454,
				"method": "rhf"
			},
			{
				"type": "unocc",
				"energy": -0.0576,
				"method": "rhf"
			},
			{
				"type": "unocc",
				"energy": 0.05305,
				"method": "rhf"
			},
			{
				"type": "unocc",
				"energy": 0.0644,
				"method": "rhf"
			},
			{
				"type": "unocc",
				"energy": 0.0705,
				"method": "rhf"
			}
		],
		"cosmo_sigma_profile": { 
			"-0.025": 0.0,
			"-0.024": 0.0,
			"-0.023": 0.0,
			"-0.022": 0.0,
			"-0.021": 0.0,
			"-0.02": 0.0,
			"-0.019": 0.0,
			"-0.018": 0.0,
			"-0.017": 0.0,
			"-0.016": 0.0,
			"-0.015": 0.0,
			"-0.014": 0.0,
			"-0.013": 0.0,
			"-0.012": 0.000107672443659,
			"-0.011": 0.660423450051,
			"-0.01": 4.19278530116,
			"-0.009": 8.45027939372,
			"-0.008": 7.13152530809,
			"-0.007": 7.53442880747,
			"-0.006": 11.7717734374,
			"-0.005": 15.6399846362,
			"-0.004": 17.6441090614,
			"-0.003": 17.8553863202,
			"-0.002": 20.7015464586,
			"-0.001": 16.6265673147,
			"0.0": 10.4890254828,
			"0.001": 7.86316889536,
			"0.002": 4.35333387508,
			"0.003": 4.34959272558,
			"0.004": 2.22285994657,
			"0.005": 4.82236876742,
			"0.006": 4.74753830116,
			"0.007": 3.64741610818,
			"0.008": 5.90140315357,
			"0.009": 8.72831515093,
			"0.01": 7.62800431455,
			"0.011": 10.8496466194,
			"0.012": 9.29898599819,
			"0.013": 1.27408177787,
			"0.014": 0.0,
			"0.015": 0.0,
			"0.016": 0.0,
			"0.017": 0.0,
			"0.018": 0.0,
			"0.019": 0.0,
			"0.02": 0.0,
			"0.021": 0.0,
			"0.022": 0.0,
			"0.023": 0.0,
			"0.024": 0.0,
			"0.025": 0.0
		}
	}
}
