{
	 "smiles": "NC1=C(F)C=C(Br)C=N1", 
	 "Tm": 361.15, 
	 "num_atms": 13, 
	 "gaussian": { 
		 "optdone": 1, 
		 "sigma_profile": "yes", 
		 "theory": "DFT", 
		 "functional": "B3LYP", 
		 "basiset": "6-31G**", 
		 "properties": { 
			 "R2extent": 3506.8661, 
			 "electric_dipole_moment_norm": 2.20474050627, 
			 "electric_quadrupole_moment_norm": 7.10446159184, 
			 "total_energy": -2973.68359907, 
			 "HOMO_LUMO_gap": 0.18816, 
			 "cosmo_polarized_energy": -7.56, 
			 "cosmo_cavitation_energy": 20.3, 
			 "cosmo_dispersion_energy": -15.66, 
			 "cosmo_repulsion_energy": 1.27, 
			 "cosmo_total_nonelectrostatic_energy": 5.9, 
			 "SMD_solvation_energy": 1.45 
		},
		"coords": [
			{
				"x": 1.8678214836,
				"y": 2.3480356416,
				"z": 0.8014544041,
				"element": "N" 
			},
			{
				"x": 0.5497239215,
				"y": 1.9626404272,
				"z": 0.8430346151,
				"element": "C" 
			},
			{
				"x": 0.1794158814,
				"y": 0.7427964064,
				"z": 1.4461608457,
				"element": "C" 
			},
			{
				"x": 1.1484133331,
				"y": 0.0030661346,
				"z": 2.0360118648,
				"element": "F" 
			},
			{
				"x": -1.1306933077,
				"y": 0.3207644094,
				"z": 1.4482624142,
				"element": "C" 
			},
			{
				"x": -2.0717425917,
				"y": 1.1507095893,
				"z": 0.8260689181,
				"element": "C" 
			},
			{
				"x": -3.9111986559,
				"y": 0.6514532317,
				"z": 0.7751189151,
				"element": "Br" 
			},
			{
				"x": -1.6487779392,
				"y": 2.3450941831,
				"z": 0.2544500437,
				"element": "C" 
			},
			{
				"x": -0.3695708584,
				"y": 2.7425289305,
				"z": 0.2665359611,
				"element": "N" 
			},
			{
				"x": 2.0233911028,
				"y": 3.3202467343,
				"z": 0.5794275053,
				"element": "H" 
			},
			{
				"x": 2.4904287331,
				"y": 1.9349721189,
				"z": 1.4784888194,
				"element": "H" 
			},
			{
				"x": -1.4053945907,
				"y": -0.6167127374,
				"z": 1.9167553963,
				"element": "H" 
			},
			{
				"x": -2.3613165118,
				"y": 3.0091049305,
				"z": -0.2266697029,
				"element": "H" 
			}
		],
		 "valence_orbital": [ 
			{
				"type": "occ",
				"energy": -0.29902,
				"method": "rhf"
			},
			{
				"type": "occ",
				"energy": -0.29455,
				"method": "rhf"
			},
			{
				"type": "occ",
				"energy": -0.28259,
				"method": "rhf"
			},
			{
				"type": "occ",
				"energy": -0.27303,
				"method": "rhf"
			},
			{
				"type": "occ",
				"energy": -0.21866,
				"method": "rhf"
			},
			{
				"type": "unocc",
				"energy": -0.0305,
				"method": "rhf"
			},
			{
				"type": "unocc",
				"energy": -0.00607,
				"method": "rhf"
			},
			{
				"type": "unocc",
				"energy": 0.0032,
				"method": "rhf"
			},
			{
				"type": "unocc",
				"energy": 0.07786,
				"method": "rhf"
			},
			{
				"type": "unocc",
				"energy": 0.12218,
				"method": "rhf"
			}
		],
		"cosmo_sigma_profile": { 
			"-0.025": 0.0,
			"-0.024": 0.0,
			"-0.023": 0.0,
			"-0.022": 0.0,
			"-0.021": 0.0,
			"-0.02": 0.0,
			"-0.019": 0.0,
			"-0.018": 0.0,
			"-0.017": 0.0,
			"-0.016": 0.0,
			"-0.015": 0.0,
			"-0.014": 0.636616734876,
			"-0.013": 1.91296043575,
			"-0.012": 1.91400967227,
			"-0.011": 2.07739837014,
			"-0.01": 1.89104199142,
			"-0.009": 3.56863327789,
			"-0.008": 4.09262471735,
			"-0.007": 4.39771984252,
			"-0.006": 4.72386368717,
			"-0.005": 4.63573932574,
			"-0.004": 6.53066939126,
			"-0.003": 7.00848851388,
			"-0.002": 8.23519689273,
			"-0.001": 13.6919517368,
			"0.0": 15.9963895557,
			"0.001": 17.6754199497,
			"0.002": 13.8375180888,
			"0.003": 16.0926735095,
			"0.004": 17.3157983517,
			"0.005": 6.31930145811,
			"0.006": 2.26998266676,
			"0.007": 2.82371263808,
			"0.008": 1.66880781361,
			"0.009": 1.21801386905,
			"0.01": 2.05743801538,
			"0.011": 1.39243998662,
			"0.012": 0.772008525629,
			"0.013": 0.609694073784,
			"0.014": 0.750492035121,
			"0.015": 0.243587306523,
			"0.016": 0.0,
			"0.017": 0.0,
			"0.018": 0.0,
			"0.019": 0.0,
			"0.02": 0.0,
			"0.021": 0.0,
			"0.022": 0.0,
			"0.023": 0.0,
			"0.024": 0.0,
			"0.025": 0.0
		}
	}
}
