{
	 "smiles": "COC1=C(OC)C=C(C(C=O)=C1)C1=CC=CC=C1", 
	 "Tm": 407.15, 
	 "num_atms": 32, 
	 "gaussian": { 
		 "optdone": 1, 
		 "sigma_profile": "yes", 
		 "theory": "DFT", 
		 "functional": "B3LYP", 
		 "basiset": "6-31G**", 
		 "properties": { 
			 "R2extent": 6532.0105, 
			 "electric_dipole_moment_norm": 3.6682522555, 
			 "electric_quadrupole_moment_norm": 21.7927062718, 
			 "total_energy": -805.667795938, 
			 "HOMO_LUMO_gap": 0.17075, 
			 "cosmo_polarized_energy": -10.6, 
			 "cosmo_cavitation_energy": 36.0, 
			 "cosmo_dispersion_energy": -25.27, 
			 "cosmo_repulsion_energy": 1.96, 
			 "cosmo_total_nonelectrostatic_energy": 12.69, 
			 "SMD_solvation_energy": 8.4 
		},
		"coords": [
			{
				"x": 0.5304138146,
				"y": 4.3262974359,
				"z": 1.5698019285,
				"element": "C" 
			},
			{
				"x": -0.3681620392,
				"y": 3.7978873983,
				"z": 0.5854307981,
				"element": "O" 
			},
			{
				"x": 0.0949739049,
				"y": 2.6811840518,
				"z": -0.0722379112,
				"element": "C" 
			},
			{
				"x": 0.1813610711,
				"y": 1.4279749279,
				"z": 0.5745400539,
				"element": "C" 
			},
			{
				"x": -0.1482725245,
				"y": 1.2674483472,
				"z": 1.8951869323,
				"element": "O" 
			},
			{
				"x": -1.5269839352,
				"y": 1.495658912,
				"z": 2.2257219182,
				"element": "C" 
			},
			{
				"x": 0.6504402654,
				"y": 0.3193068483,
				"z": -0.1289947058,
				"element": "C" 
			},
			{
				"x": 1.0270300611,
				"y": 0.4022389854,
				"z": -1.4775474124,
				"element": "C" 
			},
			{
				"x": 0.9315042985,
				"y": 1.6599860692,
				"z": -2.1197969199,
				"element": "C" 
			},
			{
				"x": 1.4090881951,
				"y": 1.8953486761,
				"z": -3.5046260301,
				"element": "C" 
			},
			{
				"x": 1.2658010217,
				"y": 2.9500793575,
				"z": -4.1000643297,
				"element": "O" 
			},
			{
				"x": 0.4631717263,
				"y": 2.7751238914,
				"z": -1.4055990837,
				"element": "C" 
			},
			{
				"x": 1.4647777753,
				"y": -0.8415963281,
				"z": -2.1707065503,
				"element": "C" 
			},
			{
				"x": 2.4681553849,
				"y": -1.6481716746,
				"z": -1.608156361,
				"element": "C" 
			},
			{
				"x": 2.8618229776,
				"y": -2.833948579,
				"z": -2.2273420217,
				"element": "C" 
			},
			{
				"x": 2.2556157045,
				"y": -3.2394714105,
				"z": -3.417994137,
				"element": "C" 
			},
			{
				"x": 1.2509889364,
				"y": -2.4522085092,
				"z": -3.9834365263,
				"element": "C" 
			},
			{
				"x": 0.8576136227,
				"y": -1.2653872958,
				"z": -3.3651861748,
				"element": "C" 
			},
			{
				"x": 1.4710152982,
				"y": 4.643985069,
				"z": 1.1035473155,
				"element": "H" 
			},
			{
				"x": 0.7418151907,
				"y": 3.5912407594,
				"z": 2.3532624435,
				"element": "H" 
			},
			{
				"x": 0.0314556858,
				"y": 5.1948084641,
				"z": 2.0038896255,
				"element": "H" 
			},
			{
				"x": -1.8391419164,
				"y": 2.5097771384,
				"z": 1.963051116,
				"element": "H" 
			},
			{
				"x": -2.1678671751,
				"y": 0.7690816666,
				"z": 1.7118261913,
				"element": "H" 
			},
			{
				"x": -1.6062344733,
				"y": 1.3473365063,
				"z": 3.3040732551,
				"element": "H" 
			},
			{
				"x": 0.6831006885,
				"y": -0.632417971,
				"z": 0.3912522914,
				"element": "H" 
			},
			{
				"x": 1.9428958699,
				"y": 1.0502575774,
				"z": -3.9787076822,
				"element": "H" 
			},
			{
				"x": 0.4148123038,
				"y": 3.734446204,
				"z": -1.9102654803,
				"element": "H" 
			},
			{
				"x": 2.9513297801,
				"y": -1.3300729226,
				"z": -0.688774294,
				"element": "H" 
			},
			{
				"x": 3.6460227683,
				"y": -3.439115363,
				"z": -1.7814697628,
				"element": "H" 
			},
			{
				"x": 2.5618317099,
				"y": -4.1633031526,
				"z": -3.8999820537,
				"element": "H" 
			},
			{
				"x": 0.7661264526,
				"y": -2.7647849592,
				"z": -4.9037714576,
				"element": "H" 
			},
			{
				"x": 0.0566975556,
				"y": -0.6717901206,
				"z": -3.7964249749,
				"element": "H" 
			}
		],
		 "valence_orbital": [ 
			{
				"type": "occ",
				"energy": -0.26679,
				"method": "rhf"
			},
			{
				"type": "occ",
				"energy": -0.25911,
				"method": "rhf"
			},
			{
				"type": "occ",
				"energy": -0.25019,
				"method": "rhf"
			},
			{
				"type": "occ",
				"energy": -0.24398,
				"method": "rhf"
			},
			{
				"type": "occ",
				"energy": -0.22982,
				"method": "rhf"
			},
			{
				"type": "unocc",
				"energy": -0.05907,
				"method": "rhf"
			},
			{
				"type": "unocc",
				"energy": -0.02625,
				"method": "rhf"
			},
			{
				"type": "unocc",
				"energy": -0.00838,
				"method": "rhf"
			},
			{
				"type": "unocc",
				"energy": 0.00977,
				"method": "rhf"
			},
			{
				"type": "unocc",
				"energy": 0.0426,
				"method": "rhf"
			}
		],
		"cosmo_sigma_profile": { 
			"-0.025": 0.0,
			"-0.024": 0.0,
			"-0.023": 0.0,
			"-0.022": 0.0,
			"-0.021": 0.0,
			"-0.02": 0.0,
			"-0.019": 0.0,
			"-0.018": 0.0,
			"-0.017": 0.0,
			"-0.016": 0.0,
			"-0.015": 0.0,
			"-0.014": 0.0,
			"-0.013": 0.0,
			"-0.012": 0.0,
			"-0.011": 0.0,
			"-0.01": 0.0,
			"-0.009": 0.0,
			"-0.008": 0.0,
			"-0.007": 0.668695230144,
			"-0.006": 13.0824752082,
			"-0.005": 24.0428734902,
			"-0.004": 31.3766061006,
			"-0.003": 33.837291814,
			"-0.002": 28.1395777308,
			"-0.001": 21.5913057758,
			"0.0": 18.8240880884,
			"0.001": 21.5960543796,
			"0.002": 23.9415945286,
			"0.003": 14.2609665212,
			"0.004": 13.1498166806,
			"0.005": 12.9203286084,
			"0.006": 4.6351377711,
			"0.007": 2.70758638457,
			"0.008": 4.00445826534,
			"0.009": 3.99729877842,
			"0.01": 4.07630030449,
			"0.011": 5.43695630547,
			"0.012": 3.8998615038,
			"0.013": 1.19174242185,
			"0.014": 0.0704263585955,
			"0.015": 0.0,
			"0.016": 0.0,
			"0.017": 0.0,
			"0.018": 0.0,
			"0.019": 0.0,
			"0.02": 0.0,
			"0.021": 0.0,
			"0.022": 0.0,
			"0.023": 0.0,
			"0.024": 0.0,
			"0.025": 0.0
		}
	}
}
