{
	 "smiles": "NCCC(=O)N1CCN(CC1)C1=NC=CC=N1", 
	 "Tm": 361.15, 
	 "num_atms": 34, 
	 "gaussian": { 
		 "optdone": 1, 
		 "sigma_profile": "yes", 
		 "theory": "DFT", 
		 "functional": "B3LYP", 
		 "basiset": "6-31G**", 
		 "properties": { 
			 "R2extent": 6662.8748, 
			 "electric_dipole_moment_norm": 2.56725495423, 
			 "electric_quadrupole_moment_norm": 17.443343488, 
			 "total_energy": -778.405780794, 
			 "HOMO_LUMO_gap": 0.18168, 
			 "cosmo_polarized_energy": -15.51, 
			 "cosmo_cavitation_energy": 35.47, 
			 "cosmo_dispersion_energy": -25.88, 
			 "cosmo_repulsion_energy": 2.02, 
			 "cosmo_total_nonelectrostatic_energy": 11.62, 
			 "SMD_solvation_energy": 2.38 
		},
		"coords": [
			{
				"x": -0.1005675376,
				"y": 0.4909193796,
				"z": -4.187456531,
				"element": "N" 
			},
			{
				"x": 0.3938170416,
				"y": -0.8912596965,
				"z": -4.0953074202,
				"element": "C" 
			},
			{
				"x": 0.531468829,
				"y": -1.3260255504,
				"z": -2.6271183176,
				"element": "C" 
			},
			{
				"x": -0.8275814298,
				"y": -1.3548065182,
				"z": -1.9307073275,
				"element": "C" 
			},
			{
				"x": -1.6291978425,
				"y": -2.252830162,
				"z": -2.1875666386,
				"element": "O" 
			},
			{
				"x": -1.1253529392,
				"y": -0.3520105321,
				"z": -1.0421367872,
				"element": "N" 
			},
			{
				"x": -0.2571396179,
				"y": 0.8049778058,
				"z": -0.7648388864,
				"element": "C" 
			},
			{
				"x": -1.0500771912,
				"y": 1.9044902721,
				"z": -0.05850009,
				"element": "C" 
			},
			{
				"x": -1.6709459017,
				"y": 1.396969915,
				"z": 1.1610151717,
				"element": "N" 
			},
			{
				"x": -2.2408485178,
				"y": 0.0463499066,
				"z": 1.1233188877,
				"element": "C" 
			},
			{
				"x": -2.3992211458,
				"y": -0.4190814427,
				"z": -0.3210567649,
				"element": "C" 
			},
			{
				"x": -1.6805272639,
				"y": 2.1170262031,
				"z": 2.3215304247,
				"element": "C" 
			},
			{
				"x": -1.1489862901,
				"y": 3.3617047323,
				"z": 2.2950715205,
				"element": "N" 
			},
			{
				"x": -1.1744140682,
				"y": 4.0334081273,
				"z": 3.4443071406,
				"element": "C" 
			},
			{
				"x": -1.718101222,
				"y": 3.5174418035,
				"z": 4.6208640814,
				"element": "C" 
			},
			{
				"x": -2.2391948406,
				"y": 2.2275671797,
				"z": 4.5274853449,
				"element": "C" 
			},
			{
				"x": -2.2280411415,
				"y": 1.5138375335,
				"z": 3.4025599222,
				"element": "N" 
			},
			{
				"x": -1.1011057928,
				"y": 0.5055564003,
				"z": -4.0001259234,
				"element": "H" 
			},
			{
				"x": 0.0092413254,
				"y": 0.8345052143,
				"z": -5.1381275095,
				"element": "H" 
			},
			{
				"x": -0.2407402184,
				"y": -1.625731109,
				"z": -4.6146591641,
				"element": "H" 
			},
			{
				"x": 1.3839401567,
				"y": -0.9269909421,
				"z": -4.5624480169,
				"element": "H" 
			},
			{
				"x": 1.2600788564,
				"y": -0.6875583672,
				"z": -2.1232396783,
				"element": "H" 
			},
			{
				"x": 0.9002808045,
				"y": -2.3559713781,
				"z": -2.5991467222,
				"element": "H" 
			},
			{
				"x": 0.5895537281,
				"y": 0.5109412326,
				"z": -0.1285010115,
				"element": "H" 
			},
			{
				"x": 0.1357979607,
				"y": 1.2030126936,
				"z": -1.7045501392,
				"element": "H" 
			},
			{
				"x": -1.8086718474,
				"y": 2.3139982018,
				"z": -0.7413528433,
				"element": "H" 
			},
			{
				"x": -0.3860484733,
				"y": 2.7249252722,
				"z": 0.2120406753,
				"element": "H" 
			},
			{
				"x": -3.2139837969,
				"y": 0.0456285552,
				"z": 1.6222534287,
				"element": "H" 
			},
			{
				"x": -1.6013062166,
				"y": -0.653662375,
				"z": 1.6780029407,
				"element": "H" 
			},
			{
				"x": -3.1638849589,
				"y": 0.1846630275,
				"z": -0.8298196468,
				"element": "H" 
			},
			{
				"x": -2.7381208771,
				"y": -1.4551801168,
				"z": -0.351410002,
				"element": "H" 
			},
			{
				"x": -0.7417178546,
				"y": 5.0333303983,
				"z": 3.4209260221,
				"element": "H" 
			},
			{
				"x": -1.7339676493,
				"y": 4.0816122989,
				"z": 5.5455010347,
				"element": "H" 
			},
			{
				"x": -2.6837340669,
				"y": 1.7408420367,
				"z": 5.3952928253,
				"element": "H" 
			}
		],
		 "valence_orbital": [ 
			{
				"type": "occ",
				"energy": -0.24652,
				"method": "rhf"
			},
			{
				"type": "occ",
				"energy": -0.24211,
				"method": "rhf"
			},
			{
				"type": "occ",
				"energy": -0.23858,
				"method": "rhf"
			},
			{
				"type": "occ",
				"energy": -0.23079,
				"method": "rhf"
			},
			{
				"type": "occ",
				"energy": -0.21104,
				"method": "rhf"
			},
			{
				"type": "unocc",
				"energy": -0.02936,
				"method": "rhf"
			},
			{
				"type": "unocc",
				"energy": 0.00362,
				"method": "rhf"
			},
			{
				"type": "unocc",
				"energy": 0.02488,
				"method": "rhf"
			},
			{
				"type": "unocc",
				"energy": 0.0761,
				"method": "rhf"
			},
			{
				"type": "unocc",
				"energy": 0.09611,
				"method": "rhf"
			}
		],
		"cosmo_sigma_profile": { 
			"-0.025": 0.0,
			"-0.024": 0.0,
			"-0.023": 0.0,
			"-0.022": 0.0,
			"-0.021": 0.0,
			"-0.02": 0.0,
			"-0.019": 0.0,
			"-0.018": 0.0,
			"-0.017": 0.0,
			"-0.016": 0.0,
			"-0.015": 0.0,
			"-0.014": 0.0,
			"-0.013": 0.0,
			"-0.012": 0.0,
			"-0.011": 0.0514740063773,
			"-0.01": 1.40095211928,
			"-0.009": 2.5380760564,
			"-0.008": 2.6262171929,
			"-0.007": 6.51997618236,
			"-0.006": 9.76722371278,
			"-0.005": 22.4730834052,
			"-0.004": 36.6069365702,
			"-0.003": 29.4972012625,
			"-0.002": 28.3080598913,
			"-0.001": 21.4031909401,
			"0.0": 15.4703845531,
			"0.001": 18.4450622236,
			"0.002": 15.206141308,
			"0.003": 11.1078354708,
			"0.004": 7.73765703908,
			"0.005": 5.7842968784,
			"0.006": 4.43279717558,
			"0.007": 5.71995346641,
			"0.008": 4.36752064212,
			"0.009": 5.02791726112,
			"0.01": 4.19415224249,
			"0.011": 3.88348104267,
			"0.012": 2.71520826679,
			"0.013": 3.56988072738,
			"0.014": 5.64020098765,
			"0.015": 3.26443630622,
			"0.016": 0.67300844321,
			"0.017": 0.0,
			"0.018": 0.0,
			"0.019": 0.0,
			"0.02": 0.0,
			"0.021": 0.0,
			"0.022": 0.0,
			"0.023": 0.0,
			"0.024": 0.0,
			"0.025": 0.0
		}
	}
}
