{
	 "smiles": "CN(C)S(=O)(=O)C1=CC(N)=C(O)C=C1", 
	 "Tm": 428.15, 
	 "num_atms": 26, 
	 "gaussian": { 
		 "optdone": 1, 
		 "sigma_profile": "yes", 
		 "theory": "DFT", 
		 "functional": "B3LYP", 
		 "basiset": "6-31G**", 
		 "properties": { 
			 "R2extent": 3945.6848, 
			 "electric_dipole_moment_norm": 7.20112145988, 
			 "electric_quadrupole_moment_norm": 22.4769664101, 
			 "total_energy": -1045.37077037, 
			 "HOMO_LUMO_gap": 0.18929, 
			 "cosmo_polarized_energy": -21.81, 
			 "cosmo_cavitation_energy": 30.22, 
			 "cosmo_dispersion_energy": -22.26, 
			 "cosmo_repulsion_energy": 1.71, 
			 "cosmo_total_nonelectrostatic_energy": 9.67, 
			 "SMD_solvation_energy": 3.87 
		},
		"coords": [
			{
				"x": -0.5278158815,
				"y": -2.2428041957,
				"z": -1.4964214858,
				"element": "C" 
			},
			{
				"x": 0.4631189055,
				"y": -2.5491409118,
				"z": -0.4636921409,
				"element": "N" 
			},
			{
				"x": 1.803569315,
				"y": -2.0222090069,
				"z": -0.7228033235,
				"element": "C" 
			},
			{
				"x": -0.079284115,
				"y": -2.4417047821,
				"z": 1.1401100124,
				"element": "S" 
			},
			{
				"x": -1.3811748983,
				"y": -3.1123146483,
				"z": 1.1680811157,
				"element": "O" 
			},
			{
				"x": 1.0426307651,
				"y": -2.884263882,
				"z": 1.9721763634,
				"element": "O" 
			},
			{
				"x": -0.3569807027,
				"y": -0.703504629,
				"z": 1.4817665985,
				"element": "C" 
			},
			{
				"x": 0.6950919934,
				"y": 0.0636923878,
				"z": 1.9947031194,
				"element": "C" 
			},
			{
				"x": 0.5214869582,
				"y": 1.4306147528,
				"z": 2.2306905514,
				"element": "C" 
			},
			{
				"x": 1.5044441224,
				"y": 2.2241334452,
				"z": 2.804226687,
				"element": "N" 
			},
			{
				"x": -0.7355093548,
				"y": 2.0047097491,
				"z": 1.92353417,
				"element": "C" 
			},
			{
				"x": -0.8399666967,
				"y": 3.3503017793,
				"z": 2.1599372458,
				"element": "O" 
			},
			{
				"x": -1.7752835307,
				"y": 1.2294635448,
				"z": 1.4205290183,
				"element": "C" 
			},
			{
				"x": -1.5981571813,
				"y": -0.1376648956,
				"z": 1.1933975545,
				"element": "C" 
			},
			{
				"x": -0.7004445449,
				"y": -1.1615947832,
				"z": -1.6160642862,
				"element": "H" 
			},
			{
				"x": -0.1613807101,
				"y": -2.642982846,
				"z": -2.4464922487,
				"element": "H" 
			},
			{
				"x": -1.4676052597,
				"y": -2.7371333026,
				"z": -1.2517923967,
				"element": "H" 
			},
			{
				"x": 2.48188336,
				"y": -2.3626690287,
				"z": 0.0591637208,
				"element": "H" 
			},
			{
				"x": 2.1468069254,
				"y": -2.4252184216,
				"z": -1.6803343409,
				"element": "H" 
			},
			{
				"x": 1.8273897267,
				"y": -0.922349895,
				"z": -0.7790147148,
				"element": "H" 
			},
			{
				"x": 1.6343010999,
				"y": -0.4165289117,
				"z": 2.2489642704,
				"element": "H" 
			},
			{
				"x": 1.3876245347,
				"y": 3.2177248125,
				"z": 2.667665222,
				"element": "H" 
			},
			{
				"x": 2.4549533073,
				"y": 1.9030025733,
				"z": 2.6957604302,
				"element": "H" 
			},
			{
				"x": -1.7303220102,
				"y": 3.6495579926,
				"z": 1.9364008247,
				"element": "H" 
			},
			{
				"x": -2.7351226959,
				"y": 1.6960340506,
				"z": 1.2088691694,
				"element": "H" 
			},
			{
				"x": -2.4122534316,
				"y": -0.7540509477,
				"z": 0.8321388637,
				"element": "H" 
			}
		],
		 "valence_orbital": [ 
			{
				"type": "occ",
				"energy": -0.29233,
				"method": "rhf"
			},
			{
				"type": "occ",
				"energy": -0.29042,
				"method": "rhf"
			},
			{
				"type": "occ",
				"energy": -0.26011,
				"method": "rhf"
			},
			{
				"type": "occ",
				"energy": -0.24374,
				"method": "rhf"
			},
			{
				"type": "occ",
				"energy": -0.20908,
				"method": "rhf"
			},
			{
				"type": "unocc",
				"energy": -0.01979,
				"method": "rhf"
			},
			{
				"type": "unocc",
				"energy": -0.00448,
				"method": "rhf"
			},
			{
				"type": "unocc",
				"energy": 0.05036,
				"method": "rhf"
			},
			{
				"type": "unocc",
				"energy": 0.06896,
				"method": "rhf"
			},
			{
				"type": "unocc",
				"energy": 0.08457,
				"method": "rhf"
			}
		],
		"cosmo_sigma_profile": { 
			"-0.025": 0.0,
			"-0.024": 0.0,
			"-0.023": 0.0,
			"-0.022": 0.0,
			"-0.021": 0.0,
			"-0.02": 0.0,
			"-0.019": 0.130196580181,
			"-0.018": 0.921798325682,
			"-0.017": 1.3058356365,
			"-0.016": 1.02860713749,
			"-0.015": 1.16688459817,
			"-0.014": 0.967665543648,
			"-0.013": 1.7257095608,
			"-0.012": 3.30714522914,
			"-0.011": 2.46465887849,
			"-0.01": 3.52965096658,
			"-0.009": 3.78717656017,
			"-0.008": 4.31673890061,
			"-0.007": 5.04892578074,
			"-0.006": 9.03225922854,
			"-0.005": 11.5947609272,
			"-0.004": 16.9809602203,
			"-0.003": 20.9704696328,
			"-0.002": 23.9010661424,
			"-0.001": 12.0706264862,
			"0.0": 8.4089654886,
			"0.001": 9.93093833669,
			"0.002": 11.5451389646,
			"0.003": 13.4979308003,
			"0.004": 13.3776155737,
			"0.005": 8.27506336974,
			"0.006": 6.51390163918,
			"0.007": 7.69972071014,
			"0.008": 6.3217575986,
			"0.009": 5.73328893579,
			"0.01": 6.37459362595,
			"0.011": 8.1908834851,
			"0.012": 7.45852589441,
			"0.013": 0.841107993476,
			"0.014": 0.0989195420605,
			"0.015": 0.0,
			"0.016": 0.0,
			"0.017": 0.0,
			"0.018": 0.0,
			"0.019": 0.0,
			"0.02": 0.0,
			"0.021": 0.0,
			"0.022": 0.0,
			"0.023": 0.0,
			"0.024": 0.0,
			"0.025": 0.0
		}
	}
}
