{
	 "smiles": "COC1=C(OC(C)=O)C2=C(C=CC=C2)C(OC(C)=O)=C1OC", 
	 "Tm": 411.15, 
	 "num_atms": 38, 
	 "gaussian": { 
		 "optdone": 1, 
		 "sigma_profile": "yes", 
		 "theory": "DFT", 
		 "functional": "B3LYP", 
		 "basiset": "6-31G**", 
		 "properties": { 
			 "R2extent": 6701.6456, 
			 "electric_dipole_moment_norm": 2.35198506373, 
			 "electric_quadrupole_moment_norm": 29.1894112678, 
			 "total_energy": -1070.67575356, 
			 "HOMO_LUMO_gap": 0.16597, 
			 "cosmo_polarized_energy": -16.83, 
			 "cosmo_cavitation_energy": 42.15, 
			 "cosmo_dispersion_energy": -28.22, 
			 "cosmo_repulsion_energy": 2.16, 
			 "cosmo_total_nonelectrostatic_energy": 16.09, 
			 "SMD_solvation_energy": 10.49 
		},
		"coords": [
			{
				"x": -1.4663988625,
				"y": 3.1066314266,
				"z": 1.1200379152,
				"element": "C" 
			},
			{
				"x": -0.4318074419,
				"y": 2.8062995804,
				"z": 0.1737694515,
				"element": "O" 
			},
			{
				"x": -0.1273483498,
				"y": 1.497850564,
				"z": -0.051909177,
				"element": "C" 
			},
			{
				"x": 1.1874039425,
				"y": 1.0974096222,
				"z": 0.1106939837,
				"element": "C" 
			},
			{
				"x": 2.1455534253,
				"y": 2.0186824305,
				"z": 0.5228060358,
				"element": "O" 
			},
			{
				"x": 2.0412834964,
				"y": 2.5674108592,
				"z": 1.7769223366,
				"element": "C" 
			},
			{
				"x": 3.0905028435,
				"y": 3.6356071805,
				"z": 1.9511212633,
				"element": "C" 
			},
			{
				"x": 1.226460783,
				"y": 2.229332483,
				"z": 2.5989146669,
				"element": "O" 
			},
			{
				"x": 1.6263541291,
				"y": -0.2142753465,
				"z": -0.2017858358,
				"element": "C" 
			},
			{
				"x": 0.6709389206,
				"y": -1.1520265805,
				"z": -0.7089195137,
				"element": "C" 
			},
			{
				"x": 1.0976625271,
				"y": -2.4691760123,
				"z": -1.0236833447,
				"element": "C" 
			},
			{
				"x": 2.4114274584,
				"y": -2.8403875595,
				"z": -0.8486792166,
				"element": "C" 
			},
			{
				"x": 3.3576890361,
				"y": -1.911656149,
				"z": -0.3523438216,
				"element": "C" 
			},
			{
				"x": 2.9752530044,
				"y": -0.6277390934,
				"z": -0.0367075579,
				"element": "C" 
			},
			{
				"x": -0.6703213249,
				"y": -0.722935046,
				"z": -0.8730671765,
				"element": "C" 
			},
			{
				"x": -1.6112223523,
				"y": -1.6297730275,
				"z": -1.3659900464,
				"element": "O" 
			},
			{
				"x": -1.9000472338,
				"y": -1.5685340713,
				"z": -2.7178064159,
				"element": "C" 
			},
			{
				"x": -2.988985621,
				"y": -2.5578470209,
				"z": -3.0487148893,
				"element": "C" 
			},
			{
				"x": -1.3476396603,
				"y": -0.8267564225,
				"z": -3.4848439256,
				"element": "O" 
			},
			{
				"x": -1.0825505834,
				"y": 0.5538166037,
				"z": -0.5412430741,
				"element": "C" 
			},
			{
				"x": -2.3743278817,
				"y": 0.9703196256,
				"z": -0.7418376331,
				"element": "O" 
			},
			{
				"x": -3.3656870671,
				"y": 0.3514731167,
				"z": 0.0899123021,
				"element": "C" 
			},
			{
				"x": -1.331003823,
				"y": 2.5230645284,
				"z": 2.0356760576,
				"element": "H" 
			},
			{
				"x": -1.3531216309,
				"y": 4.167007117,
				"z": 1.3546981429,
				"element": "H" 
			},
			{
				"x": -2.4549427796,
				"y": 2.9332998643,
				"z": 0.6897240012,
				"element": "H" 
			},
			{
				"x": 4.0760256791,
				"y": 3.2575644286,
				"z": 1.6667479016,
				"element": "H" 
			},
			{
				"x": 3.0974812657,
				"y": 3.9718764752,
				"z": 2.9873414164,
				"element": "H" 
			},
			{
				"x": 2.860402667,
				"y": 4.4776386389,
				"z": 1.2907814015,
				"element": "H" 
			},
			{
				"x": 0.367923056,
				"y": -3.1795982894,
				"z": -1.3956477316,
				"element": "H" 
			},
			{
				"x": 2.7254320899,
				"y": -3.8512295658,
				"z": -1.0915762709,
				"element": "H" 
			},
			{
				"x": 4.391959469,
				"y": -2.2157909979,
				"z": -0.2209566241,
				"element": "H" 
			},
			{
				"x": 3.6965539751,
				"y": 0.0893427558,
				"z": 0.3381172066,
				"element": "H" 
			},
			{
				"x": -3.9301524865,
				"y": -2.2345835974,
				"z": -2.5924775006,
				"element": "H" 
			},
			{
				"x": -3.1099416212,
				"y": -2.6113779253,
				"z": -4.130074786,
				"element": "H" 
			},
			{
				"x": -2.7498554275,
				"y": -3.5442715786,
				"z": -2.6427984517,
				"element": "H" 
			},
			{
				"x": -3.3894830197,
				"y": -0.7323446532,
				"z": -0.0511775325,
				"element": "H" 
			},
			{
				"x": -4.3220938677,
				"y": 0.7832377969,
				"z": -0.21170411,
				"element": "H" 
			},
			{
				"x": -3.184676733,
				"y": 0.5750378396,
				"z": 1.1482805528,
				"element": "H" 
			}
		],
		 "valence_orbital": [ 
			{
				"type": "occ",
				"energy": -0.27771,
				"method": "rhf"
			},
			{
				"type": "occ",
				"energy": -0.27677,
				"method": "rhf"
			},
			{
				"type": "occ",
				"energy": -0.26857,
				"method": "rhf"
			},
			{
				"type": "occ",
				"energy": -0.23049,
				"method": "rhf"
			},
			{
				"type": "occ",
				"energy": -0.20698,
				"method": "rhf"
			},
			{
				"type": "unocc",
				"energy": -0.04101,
				"method": "rhf"
			},
			{
				"type": "unocc",
				"energy": -0.00927,
				"method": "rhf"
			},
			{
				"type": "unocc",
				"energy": 0.00465,
				"method": "rhf"
			},
			{
				"type": "unocc",
				"energy": 0.0067,
				"method": "rhf"
			},
			{
				"type": "unocc",
				"energy": 0.03532,
				"method": "rhf"
			}
		],
		"cosmo_sigma_profile": { 
			"-0.025": 0.0,
			"-0.024": 0.0,
			"-0.023": 0.0,
			"-0.022": 0.0,
			"-0.021": 0.0,
			"-0.02": 0.0,
			"-0.019": 0.0,
			"-0.018": 0.0,
			"-0.017": 0.0,
			"-0.016": 0.0,
			"-0.015": 0.0,
			"-0.014": 0.0,
			"-0.013": 0.0,
			"-0.012": 0.0,
			"-0.011": 0.0,
			"-0.01": 0.0,
			"-0.009": 0.0,
			"-0.008": 0.0512168002046,
			"-0.007": 5.23958373819,
			"-0.006": 21.0775774709,
			"-0.005": 30.8785652928,
			"-0.004": 39.9796188567,
			"-0.003": 40.8355755578,
			"-0.002": 30.4094791645,
			"-0.001": 16.3976025279,
			"0.0": 13.1302453945,
			"0.001": 20.4503391323,
			"0.002": 19.569737923,
			"0.003": 18.1021989978,
			"0.004": 18.5136090014,
			"0.005": 11.3788555345,
			"0.006": 7.58050537802,
			"0.007": 8.85886703248,
			"0.008": 7.27972794024,
			"0.009": 5.98917572215,
			"0.01": 7.85210892799,
			"0.011": 8.97888940654,
			"0.012": 2.85406976876,
			"0.013": 0.150838053375,
			"0.014": 0.0,
			"0.015": 0.0,
			"0.016": 0.0,
			"0.017": 0.0,
			"0.018": 0.0,
			"0.019": 0.0,
			"0.02": 0.0,
			"0.021": 0.0,
			"0.022": 0.0,
			"0.023": 0.0,
			"0.024": 0.0,
			"0.025": 0.0
		}
	}
}
