{
	 "smiles": "CC(Cl)C1=NC2=C(C(=CS2)C2=CC=CC=C2)C(=O)N1", 
	 "Tm": 439.15, 
	 "num_atms": 30, 
	 "gaussian": { 
		 "optdone": 1, 
		 "sigma_profile": "yes", 
		 "theory": "DFT", 
		 "functional": "B3LYP", 
		 "basiset": "6-31G**", 
		 "properties": { 
			 "R2extent": 8378.894, 
			 "electric_dipole_moment_norm": 2.16683356306, 
			 "electric_quadrupole_moment_norm": 12.7205676457, 
			 "total_energy": -1583.25632765, 
			 "HOMO_LUMO_gap": 0.16008, 
			 "cosmo_polarized_energy": -13.73, 
			 "cosmo_cavitation_energy": 37.46, 
			 "cosmo_dispersion_energy": -27.57, 
			 "cosmo_repulsion_energy": 2.08, 
			 "cosmo_total_nonelectrostatic_energy": 11.97, 
			 "SMD_solvation_energy": 4.39 
		},
		"coords": [
			{
				"x": -4.5893144263,
				"y": -1.8026519242,
				"z": 3.5240228122,
				"element": "C" 
			},
			{
				"x": -4.607600955,
				"y": -1.5868015619,
				"z": 2.0113880991,
				"element": "C" 
			},
			{
				"x": -4.7401853945,
				"y": -3.2037666988,
				"z": 1.1584722909,
				"element": "Cl" 
			},
			{
				"x": -3.4009298799,
				"y": -0.8183569983,
				"z": 1.5194999443,
				"element": "C" 
			},
			{
				"x": -3.5326208328,
				"y": 0.4655962681,
				"z": 1.3459681224,
				"element": "N" 
			},
			{
				"x": -2.386223866,
				"y": 1.119265662,
				"z": 1.0009974769,
				"element": "C" 
			},
			{
				"x": -1.1189799299,
				"y": 0.5648180263,
				"z": 0.8016629061,
				"element": "C" 
			},
			{
				"x": -0.1183532318,
				"y": 1.5542766013,
				"z": 0.4655476838,
				"element": "C" 
			},
			{
				"x": -0.6766275605,
				"y": 2.8081269757,
				"z": 0.4222686372,
				"element": "C" 
			},
			{
				"x": -2.377951263,
				"y": 2.8462496786,
				"z": 0.7749386078,
				"element": "S" 
			},
			{
				"x": 1.324509096,
				"y": 1.3411944242,
				"z": 0.1922815523,
				"element": "C" 
			},
			{
				"x": 1.7800852973,
				"y": 0.3035816661,
				"z": -0.6368536714,
				"element": "C" 
			},
			{
				"x": 3.1368149873,
				"y": 0.1756430782,
				"z": -0.9279782533,
				"element": "C" 
			},
			{
				"x": 4.0635732985,
				"y": 1.0758452789,
				"z": -0.397926039,
				"element": "C" 
			},
			{
				"x": 3.6236461742,
				"y": 2.1074194756,
				"z": 0.4324755641,
				"element": "C" 
			},
			{
				"x": 2.2666608204,
				"y": 2.2375896463,
				"z": 0.7252295598,
				"element": "C" 
			},
			{
				"x": -0.981037614,
				"y": -0.8730035534,
				"z": 0.9969614516,
				"element": "C" 
			},
			{
				"x": 0.0108999227,
				"y": -1.5773217247,
				"z": 0.8834165683,
				"element": "O" 
			},
			{
				"x": -2.2146392107,
				"y": -1.4709306274,
				"z": 1.3656995898,
				"element": "N" 
			},
			{
				"x": -5.4919659569,
				"y": -2.3280262711,
				"z": 3.8433962184,
				"element": "H" 
			},
			{
				"x": -4.5538509322,
				"y": -0.8277280658,
				"z": 4.0205508306,
				"element": "H" 
			},
			{
				"x": -3.7171122857,
				"y": -2.385057455,
				"z": 3.832458608,
				"element": "H" 
			},
			{
				"x": -5.4872768079,
				"y": -1.0198281323,
				"z": 1.709589447,
				"element": "H" 
			},
			{
				"x": -0.1682328604,
				"y": 3.7268378688,
				"z": 0.1650828195,
				"element": "H" 
			},
			{
				"x": 1.0724647367,
				"y": -0.4072359306,
				"z": -1.0448116663,
				"element": "H" 
			},
			{
				"x": 3.4706743671,
				"y": -0.6325065293,
				"z": -1.5724038534,
				"element": "H" 
			},
			{
				"x": 5.1205123432,
				"y": 0.9695481877,
				"z": -0.6249566781,
				"element": "H" 
			},
			{
				"x": 4.3363041244,
				"y": 2.8066912543,
				"z": 0.860640318,
				"element": "H" 
			},
			{
				"x": 1.9313201813,
				"y": 3.0277096934,
				"z": 1.3908979838,
				"element": "H" 
			},
			{
				"x": -2.1821623414,
				"y": -2.4808783128,
				"z": 1.4573830697,
				"element": "H" 
			}
		],
		 "valence_orbital": [ 
			{
				"type": "occ",
				"energy": -0.27631,
				"method": "rhf"
			},
			{
				"type": "occ",
				"energy": -0.26898,
				"method": "rhf"
			},
			{
				"type": "occ",
				"energy": -0.24606,
				"method": "rhf"
			},
			{
				"type": "occ",
				"energy": -0.24257,
				"method": "rhf"
			},
			{
				"type": "occ",
				"energy": -0.21854,
				"method": "rhf"
			},
			{
				"type": "unocc",
				"energy": -0.05846,
				"method": "rhf"
			},
			{
				"type": "unocc",
				"energy": -0.02495,
				"method": "rhf"
			},
			{
				"type": "unocc",
				"energy": -0.01157,
				"method": "rhf"
			},
			{
				"type": "unocc",
				"energy": 0.00358,
				"method": "rhf"
			},
			{
				"type": "unocc",
				"energy": 0.00929,
				"method": "rhf"
			}
		],
		"cosmo_sigma_profile": { 
			"-0.025": 0.0,
			"-0.024": 0.0,
			"-0.023": 0.0,
			"-0.022": 0.0,
			"-0.021": 0.0,
			"-0.02": 0.0,
			"-0.019": 0.0,
			"-0.018": 0.0,
			"-0.017": 0.0,
			"-0.016": 0.0,
			"-0.015": 0.0100401369243,
			"-0.014": 0.471081128735,
			"-0.013": 0.681808554156,
			"-0.012": 0.910001074055,
			"-0.011": 1.54879031835,
			"-0.01": 0.946348267532,
			"-0.009": 2.91767947461,
			"-0.008": 5.60776918406,
			"-0.007": 4.50906833886,
			"-0.006": 11.2315220892,
			"-0.005": 21.8254315382,
			"-0.004": 24.0761148114,
			"-0.003": 26.0783319386,
			"-0.002": 23.0187216058,
			"-0.001": 21.6393296959,
			"0.0": 22.3886712557,
			"0.001": 26.5699428569,
			"0.002": 24.9311714303,
			"0.003": 20.1945231504,
			"0.004": 15.3914911233,
			"0.005": 18.116617045,
			"0.006": 9.89372325651,
			"0.007": 2.94891187734,
			"0.008": 2.71124315729,
			"0.009": 2.49309356202,
			"0.01": 2.53648878019,
			"0.011": 2.70176515558,
			"0.012": 4.30352592719,
			"0.013": 3.87647802769,
			"0.014": 0.124171676318,
			"0.015": 0.0,
			"0.016": 0.0,
			"0.017": 0.0,
			"0.018": 0.0,
			"0.019": 0.0,
			"0.02": 0.0,
			"0.021": 0.0,
			"0.022": 0.0,
			"0.023": 0.0,
			"0.024": 0.0,
			"0.025": 0.0
		}
	}
}
