{
	 "smiles": "FC(F)(F)C1=CC=CC(NN=C(C#N)C(=O)C2=CC=CS2)=C1", 
	 "Tm": 446.15, 
	 "num_atms": 30, 
	 "gaussian": { 
		 "optdone": 1, 
		 "sigma_profile": "yes", 
		 "theory": "DFT", 
		 "functional": "B3LYP", 
		 "basiset": "6-31G**", 
		 "properties": { 
			 "R2extent": 6896.1015, 
			 "electric_dipole_moment_norm": 5.44046051176, 
			 "electric_quadrupole_moment_norm": 45.5702908128, 
			 "total_energy": -1475.40678382, 
			 "HOMO_LUMO_gap": 0.14922, 
			 "cosmo_polarized_energy": -19.18, 
			 "cosmo_cavitation_energy": 40.24, 
			 "cosmo_dispersion_energy": -25.57, 
			 "cosmo_repulsion_energy": 1.88, 
			 "cosmo_total_nonelectrostatic_energy": 16.54, 
			 "SMD_solvation_energy": 9.22 
		},
		"coords": [
			{
				"x": -0.0058861024,
				"y": 0.4801212258,
				"z": -3.6354669784,
				"element": "F" 
			},
			{
				"x": -1.2276182337,
				"y": 0.7742713852,
				"z": -3.1352121081,
				"element": "C" 
			},
			{
				"x": -1.3495592394,
				"y": 2.1201287385,
				"z": -3.1599848635,
				"element": "F" 
			},
			{
				"x": -2.1373405161,
				"y": 0.2653053564,
				"z": -3.9931036194,
				"element": "F" 
			},
			{
				"x": -1.4027093766,
				"y": 0.2219791303,
				"z": -1.7447082438,
				"element": "C" 
			},
			{
				"x": -1.8444402322,
				"y": -1.0917150123,
				"z": -1.5679726459,
				"element": "C" 
			},
			{
				"x": -1.9512888992,
				"y": -1.6109828499,
				"z": -0.2783310118,
				"element": "C" 
			},
			{
				"x": -1.6294949671,
				"y": -0.8316110969,
				"z": 0.8318751567,
				"element": "C" 
			},
			{
				"x": -1.1685943627,
				"y": 0.4777889179,
				"z": 0.6452458651,
				"element": "C" 
			},
			{
				"x": -0.8996257904,
				"y": 1.3529992732,
				"z": 1.7448895262,
				"element": "N" 
			},
			{
				"x": -0.3961468145,
				"y": 1.0695996475,
				"z": 2.9530600057,
				"element": "N" 
			},
			{
				"x": 0.4286392228,
				"y": 0.0958704295,
				"z": 3.1908719568,
				"element": "C" 
			},
			{
				"x": 0.841843285,
				"y": -0.0380103177,
				"z": 4.5596100265,
				"element": "C" 
			},
			{
				"x": 1.2136095628,
				"y": -0.1801128786,
				"z": 5.653184807,
				"element": "N" 
			},
			{
				"x": 1.0518438498,
				"y": -0.9370607306,
				"z": 2.2465535526,
				"element": "C" 
			},
			{
				"x": 0.7914439995,
				"y": -2.1245399138,
				"z": 2.3829023129,
				"element": "O" 
			},
			{
				"x": 1.9962119361,
				"y": -0.4314029748,
				"z": 1.256197124,
				"element": "C" 
			},
			{
				"x": 2.4752176927,
				"y": 0.8536220108,
				"z": 1.0788690032,
				"element": "C" 
			},
			{
				"x": 3.4095534907,
				"y": 0.9517623398,
				"z": 0.0181542276,
				"element": "C" 
			},
			{
				"x": 3.6289209576,
				"y": -0.2592641525,
				"z": -0.5955972069,
				"element": "C" 
			},
			{
				"x": 2.7113883979,
				"y": -1.5373181485,
				"z": 0.107874447,
				"element": "S" 
			},
			{
				"x": -1.0564225102,
				"y": 1.0054205857,
				"z": -0.644008524,
				"element": "C" 
			},
			{
				"x": -2.1096144773,
				"y": -1.6941811006,
				"z": -2.4295419976,
				"element": "H" 
			},
			{
				"x": -2.3037629625,
				"y": -2.6266996666,
				"z": -0.1311673415,
				"element": "H" 
			},
			{
				"x": -1.7310667879,
				"y": -1.2398884065,
				"z": 1.8306619154,
				"element": "H" 
			},
			{
				"x": -1.5050226668,
				"y": 2.161074349,
				"z": 1.8019317883,
				"element": "H" 
			},
			{
				"x": 2.1627440358,
				"y": 1.6881079753,
				"z": 1.6958821425,
				"element": "H" 
			},
			{
				"x": 3.9001245643,
				"y": 1.871344085,
				"z": -0.2780207611,
				"element": "H" 
			},
			{
				"x": 4.2880887603,
				"y": -0.4655781297,
				"z": -1.4284436476,
				"element": "H" 
			},
			{
				"x": -0.7025358162,
				"y": 2.020969929,
				"z": -0.7834049077,
				"element": "H" 
			}
		],
		 "valence_orbital": [ 
			{
				"type": "occ",
				"energy": -0.28656,
				"method": "rhf"
			},
			{
				"type": "occ",
				"energy": -0.27692,
				"method": "rhf"
			},
			{
				"type": "occ",
				"energy": -0.27118,
				"method": "rhf"
			},
			{
				"type": "occ",
				"energy": -0.26249,
				"method": "rhf"
			},
			{
				"type": "occ",
				"energy": -0.24142,
				"method": "rhf"
			},
			{
				"type": "unocc",
				"energy": -0.0922,
				"method": "rhf"
			},
			{
				"type": "unocc",
				"energy": -0.06571,
				"method": "rhf"
			},
			{
				"type": "unocc",
				"energy": -0.04375,
				"method": "rhf"
			},
			{
				"type": "unocc",
				"energy": -0.02688,
				"method": "rhf"
			},
			{
				"type": "unocc",
				"energy": 0.00337,
				"method": "rhf"
			}
		],
		"cosmo_sigma_profile": { 
			"-0.025": 0.0,
			"-0.024": 0.0,
			"-0.023": 0.0,
			"-0.022": 0.0,
			"-0.021": 0.0,
			"-0.02": 0.0,
			"-0.019": 0.0,
			"-0.018": 0.0,
			"-0.017": 0.234858099365,
			"-0.016": 1.36740702645,
			"-0.015": 1.16160199547,
			"-0.014": 1.58857197981,
			"-0.013": 0.677828493877,
			"-0.012": 0.970469025182,
			"-0.011": 1.13887455592,
			"-0.01": 2.4308527244,
			"-0.009": 4.22078057346,
			"-0.008": 7.95854383094,
			"-0.007": 13.9533902113,
			"-0.006": 16.075830381,
			"-0.005": 15.2815669941,
			"-0.004": 14.1421823992,
			"-0.003": 14.5080340008,
			"-0.002": 15.8632712736,
			"-0.001": 18.2916482495,
			"0.0": 24.5316541052,
			"0.001": 35.0858779904,
			"0.002": 46.3608625933,
			"0.003": 39.7221154641,
			"0.004": 8.11951616031,
			"0.005": 5.67903299186,
			"0.006": 5.23131459517,
			"0.007": 5.9011892991,
			"0.008": 5.72632096636,
			"0.009": 6.00448750616,
			"0.01": 6.24560884062,
			"0.011": 5.5877460014,
			"0.012": 2.56198054449,
			"0.013": 0.752847736069,
			"0.014": 0.0,
			"0.015": 0.0,
			"0.016": 0.0,
			"0.017": 0.0,
			"0.018": 0.0,
			"0.019": 0.0,
			"0.02": 0.0,
			"0.021": 0.0,
			"0.022": 0.0,
			"0.023": 0.0,
			"0.024": 0.0,
			"0.025": 0.0
		}
	}
}
