{
	 "smiles": "CN1N=C(C(C(O)=O)=C1Cl)C(F)(F)F", 
	 "Tm": 475.15, 
	 "num_atms": 18, 
	 "gaussian": { 
		 "optdone": 1, 
		 "sigma_profile": "yes", 
		 "theory": "DFT", 
		 "functional": "B3LYP", 
		 "basiset": "6-31G**", 
		 "properties": { 
			 "R2extent": 3197.0733, 
			 "electric_dipole_moment_norm": 5.27916335227, 
			 "electric_quadrupole_moment_norm": 6.2643106173, 
			 "total_energy": -1250.70038307, 
			 "HOMO_LUMO_gap": 0.22916, 
			 "cosmo_polarized_energy": -13.12, 
			 "cosmo_cavitation_energy": 26.44, 
			 "cosmo_dispersion_energy": -18.99, 
			 "cosmo_repulsion_energy": 1.45, 
			 "cosmo_total_nonelectrostatic_energy": 8.9, 
			 "SMD_solvation_energy": 5.96 
		},
		"coords": [
			{
				"x": -2.3332656081,
				"y": 0.954379461,
				"z": -1.1533375029,
				"element": "C" 
			},
			{
				"x": -1.0424295272,
				"y": 0.4353320712,
				"z": -0.7240885983,
				"element": "N" 
			},
			{
				"x": -0.3356481823,
				"y": 1.0906770403,
				"z": 0.223897699,
				"element": "N" 
			},
			{
				"x": 0.7708070338,
				"y": 0.3803701372,
				"z": 0.390792956,
				"element": "C" 
			},
			{
				"x": 0.8070303208,
				"y": -0.7638490336,
				"z": -0.4543879608,
				"element": "C" 
			},
			{
				"x": 1.8795115634,
				"y": -1.7670437533,
				"z": -0.5313986788,
				"element": "C" 
			},
			{
				"x": 1.6230193821,
				"y": -2.7436831563,
				"z": -1.4342042983,
				"element": "O" 
			},
			{
				"x": 2.891936248,
				"y": -1.7403701695,
				"z": 0.135906409,
				"element": "O" 
			},
			{
				"x": -0.395841686,
				"y": -0.6751059267,
				"z": -1.1541110255,
				"element": "C" 
			},
			{
				"x": -1.0931258318,
				"y": -1.6788094446,
				"z": -2.3602919805,
				"element": "Cl" 
			},
			{
				"x": 1.7916415188,
				"y": 0.8478665941,
				"z": 1.3968088433,
				"element": "C" 
			},
			{
				"x": 1.9899599754,
				"y": -0.0735002069,
				"z": 2.357360345,
				"element": "F" 
			},
			{
				"x": 2.9762580025,
				"y": 1.1010897572,
				"z": 0.810752144,
				"element": "F" 
			},
			{
				"x": 1.3807815297,
				"y": 1.9808309149,
				"z": 1.9952243456,
				"element": "F" 
			},
			{
				"x": -3.1237118453,
				"y": 0.2265316713,
				"z": -0.9545674417,
				"element": "H" 
			},
			{
				"x": -2.509681332,
				"y": 1.8613317685,
				"z": -0.5779121773,
				"element": "H" 
			},
			{
				"x": -2.3164207795,
				"y": 1.1869713833,
				"z": -2.2208994181,
				"element": "H" 
			},
			{
				"x": 2.3886792178,
				"y": -3.3411191081,
				"z": -1.3980436596,
				"element": "H" 
			}
		],
		 "valence_orbital": [ 
			{
				"type": "occ",
				"energy": -0.32681,
				"method": "rhf"
			},
			{
				"type": "occ",
				"energy": -0.3215,
				"method": "rhf"
			},
			{
				"type": "occ",
				"energy": -0.28671,
				"method": "rhf"
			},
			{
				"type": "occ",
				"energy": -0.28605,
				"method": "rhf"
			},
			{
				"type": "occ",
				"energy": -0.27383,
				"method": "rhf"
			},
			{
				"type": "unocc",
				"energy": -0.04467,
				"method": "rhf"
			},
			{
				"type": "unocc",
				"energy": -0.01576,
				"method": "rhf"
			},
			{
				"type": "unocc",
				"energy": 0.00838,
				"method": "rhf"
			},
			{
				"type": "unocc",
				"energy": 0.07433,
				"method": "rhf"
			},
			{
				"type": "unocc",
				"energy": 0.0903,
				"method": "rhf"
			}
		],
		"cosmo_sigma_profile": { 
			"-0.025": 0.0,
			"-0.024": 0.0,
			"-0.023": 0.0,
			"-0.022": 0.0,
			"-0.021": 0.0,
			"-0.02": 0.0,
			"-0.019": 0.217820998521,
			"-0.018": 0.962699435619,
			"-0.017": 0.837456094384,
			"-0.016": 1.3011347477,
			"-0.015": 0.523767170771,
			"-0.014": 0.564898409363,
			"-0.013": 0.253771774566,
			"-0.012": 0.622784065792,
			"-0.011": 1.14211726894,
			"-0.01": 0.746629270001,
			"-0.009": 0.519389256582,
			"-0.008": 3.62935614472,
			"-0.007": 9.48878039355,
			"-0.006": 7.51995770792,
			"-0.005": 11.4020605256,
			"-0.004": 12.1840976163,
			"-0.003": 12.3659607689,
			"-0.002": 17.2001850235,
			"-0.001": 15.8347078802,
			"0.0": 12.7378285968,
			"0.001": 13.5572549739,
			"0.002": 26.0777653535,
			"0.003": 22.1931391255,
			"0.004": 6.3670821474,
			"0.005": 6.00602861545,
			"0.006": 5.19172162551,
			"0.007": 6.38019523514,
			"0.008": 4.50753913025,
			"0.009": 3.19165467873,
			"0.01": 4.33443934876,
			"0.011": 4.9351750369,
			"0.012": 1.50743913322,
			"0.013": 0.0,
			"0.014": 0.0,
			"0.015": 0.0,
			"0.016": 0.0,
			"0.017": 0.0,
			"0.018": 0.0,
			"0.019": 0.0,
			"0.02": 0.0,
			"0.021": 0.0,
			"0.022": 0.0,
			"0.023": 0.0,
			"0.024": 0.0,
			"0.025": 0.0
		}
	}
}
