{
	 "smiles": "CC1=CC=C(O)C2=CC=CC=C12", 
	 "Tm": 358.95, 
	 "num_atms": 22, 
	 "gaussian": { 
		 "optdone": 1, 
		 "sigma_profile": "yes", 
		 "theory": "DFT", 
		 "functional": "B3LYP", 
		 "basiset": "6-31G**", 
		 "properties": { 
			 "R2extent": 2086.6653, 
			 "electric_dipole_moment_norm": 1.41093598366, 
			 "electric_quadrupole_moment_norm": 9.2702498386, 
			 "total_energy": -500.432174048, 
			 "HOMO_LUMO_gap": 0.16247, 
			 "cosmo_polarized_energy": -8.32, 
			 "cosmo_cavitation_energy": 24.74, 
			 "cosmo_dispersion_energy": -18.73, 
			 "cosmo_repulsion_energy": 1.45, 
			 "cosmo_total_nonelectrostatic_energy": 7.47, 
			 "SMD_solvation_energy": 4.21 
		},
		"coords": [
			{
				"x": 1.3475618898,
				"y": -1.512452398,
				"z": 1.3786352299,
				"element": "C" 
			},
			{
				"x": 1.0239661491,
				"y": -0.5393302044,
				"z": 0.2703445035,
				"element": "C" 
			},
			{
				"x": 2.0313579441,
				"y": 0.1429252181,
				"z": -0.3824474302,
				"element": "C" 
			},
			{
				"x": 1.7711630378,
				"y": 1.0730653217,
				"z": -1.4106129671,
				"element": "C" 
			},
			{
				"x": 0.4770135007,
				"y": 1.3216390489,
				"z": -1.8101148317,
				"element": "C" 
			},
			{
				"x": 0.286342814,
				"y": 2.2351302766,
				"z": -2.8107971079,
				"element": "O" 
			},
			{
				"x": -0.612303651,
				"y": 0.6256117421,
				"z": -1.1966436785,
				"element": "C" 
			},
			{
				"x": -1.9593512739,
				"y": 0.812200048,
				"z": -1.6062056119,
				"element": "C" 
			},
			{
				"x": -2.9958780518,
				"y": 0.1474475289,
				"z": -0.9892891044,
				"element": "C" 
			},
			{
				"x": -2.7254450437,
				"y": -0.7458147192,
				"z": 0.0708595201,
				"element": "C" 
			},
			{
				"x": -1.4279224362,
				"y": -0.9642065723,
				"z": 0.4790670472,
				"element": "C" 
			},
			{
				"x": -0.3290754369,
				"y": -0.3013396116,
				"z": -0.1346484783,
				"element": "C" 
			},
			{
				"x": 2.4272947886,
				"y": -1.5628549304,
				"z": 1.5419255939,
				"element": "H" 
			},
			{
				"x": 1.0006120135,
				"y": -2.5274132376,
				"z": 1.149362846,
				"element": "H" 
			},
			{
				"x": 0.883328001,
				"y": -1.2222767126,
				"z": 2.3291898531,
				"element": "H" 
			},
			{
				"x": 3.0639883338,
				"y": -0.0291289624,
				"z": -0.0895039759,
				"element": "H" 
			},
			{
				"x": 2.580209197,
				"y": 1.6114987837,
				"z": -1.8926636566,
				"element": "H" 
			},
			{
				"x": -0.6418181019,
				"y": 2.4960355675,
				"z": -2.8405806507,
				"element": "H" 
			},
			{
				"x": -2.1923357576,
				"y": 1.4697453653,
				"z": -2.4410957723,
				"element": "H" 
			},
			{
				"x": -4.0177153713,
				"y": 0.3031542926,
				"z": -1.322153819,
				"element": "H" 
			},
			{
				"x": -3.5435614808,
				"y": -1.2676781123,
				"z": 0.5588182512,
				"element": "H" 
			},
			{
				"x": -1.2350310645,
				"y": -1.6616577326,
				"z": 1.2871542396,
				"element": "H" 
			}
		],
		 "valence_orbital": [ 
			{
				"type": "occ",
				"energy": -0.32867,
				"method": "rhf"
			},
			{
				"type": "occ",
				"energy": -0.30796,
				"method": "rhf"
			},
			{
				"type": "occ",
				"energy": -0.26503,
				"method": "rhf"
			},
			{
				"type": "occ",
				"energy": -0.24243,
				"method": "rhf"
			},
			{
				"type": "occ",
				"energy": -0.19685,
				"method": "rhf"
			},
			{
				"type": "unocc",
				"energy": -0.03438,
				"method": "rhf"
			},
			{
				"type": "unocc",
				"energy": -0.00857,
				"method": "rhf"
			},
			{
				"type": "unocc",
				"energy": 0.04469,
				"method": "rhf"
			},
			{
				"type": "unocc",
				"energy": 0.06382,
				"method": "rhf"
			},
			{
				"type": "unocc",
				"energy": 0.09771,
				"method": "rhf"
			}
		],
		"cosmo_sigma_profile": { 
			"-0.025": 0.0,
			"-0.024": 0.0,
			"-0.023": 0.0,
			"-0.022": 0.0,
			"-0.021": 0.0,
			"-0.02": 0.0,
			"-0.019": 0.0,
			"-0.018": 0.0241572326635,
			"-0.017": 0.807006953726,
			"-0.016": 1.19125412957,
			"-0.015": 0.710997844049,
			"-0.014": 0.69967445417,
			"-0.013": 0.786595083159,
			"-0.012": 1.27098168576,
			"-0.011": 1.07373520295,
			"-0.01": 0.854986366825,
			"-0.009": 1.05319051722,
			"-0.008": 1.16913101981,
			"-0.007": 1.36328841155,
			"-0.006": 4.68483476416,
			"-0.005": 12.3381205835,
			"-0.004": 18.9060844387,
			"-0.003": 16.3625380008,
			"-0.002": 13.3505458863,
			"-0.001": 13.3235426904,
			"0.0": 14.3997301694,
			"0.001": 13.3245673236,
			"0.002": 10.4148310185,
			"0.003": 13.280906702,
			"0.004": 20.0768008475,
			"0.005": 20.129120581,
			"0.006": 7.38261119146,
			"0.007": 0.971790052908,
			"0.008": 1.69707458224,
			"0.009": 1.18401049615,
			"0.01": 1.9246327198,
			"0.011": 1.79347520863,
			"0.012": 0.812130859419,
			"0.013": 0.0,
			"0.014": 0.0,
			"0.015": 0.0,
			"0.016": 0.0,
			"0.017": 0.0,
			"0.018": 0.0,
			"0.019": 0.0,
			"0.02": 0.0,
			"0.021": 0.0,
			"0.022": 0.0,
			"0.023": 0.0,
			"0.024": 0.0,
			"0.025": 0.0
		}
	}
}
