{
	 "smiles": "CC(=O)N1C(=O)C(=C(C#CC2=CC=CC=C2)C(=O)C2=CC=CC=C2)C2=CC=CC=C12", 
	 "Tm": 462.0, 
	 "num_atms": 47, 
	 "gaussian": { 
		 "optdone": 1, 
		 "sigma_profile": "yes", 
		 "theory": "DFT", 
		 "functional": "B3LYP", 
		 "basiset": "6-31G**", 
		 "properties": { 
			 "R2extent": 14049.6284, 
			 "electric_dipole_moment_norm": 5.51782067215, 
			 "electric_quadrupole_moment_norm": 22.8925524036, 
			 "total_energy": -1281.39988622, 
			 "HOMO_LUMO_gap": 0.11885, 
			 "cosmo_polarized_energy": -17.1, 
			 "cosmo_cavitation_energy": 53.93, 
			 "cosmo_dispersion_energy": -35.99, 
			 "cosmo_repulsion_energy": 2.7, 
			 "cosmo_total_nonelectrostatic_energy": 20.64, 
			 "SMD_solvation_energy": 10.63 
		},
		"coords": [
			{
				"x": -4.5994635476,
				"y": -1.9227478195,
				"z": 2.3795224341,
				"element": "C" 
			},
			{
				"x": -4.2353513091,
				"y": -0.4707526653,
				"z": 2.5808946857,
				"element": "C" 
			},
			{
				"x": -4.8026007521,
				"y": 0.2302387907,
				"z": 3.3996086576,
				"element": "O" 
			},
			{
				"x": -3.2017685661,
				"y": 0.0715674054,
				"z": 1.781274344,
				"element": "N" 
			},
			{
				"x": -2.4427041734,
				"y": -0.6258724158,
				"z": 0.8004013505,
				"element": "C" 
			},
			{
				"x": -2.5597611419,
				"y": -1.8031537243,
				"z": 0.5108397087,
				"element": "O" 
			},
			{
				"x": -1.483871359,
				"y": 0.3561663568,
				"z": 0.2221043169,
				"element": "C" 
			},
			{
				"x": -0.6004552996,
				"y": -0.0057350892,
				"z": -0.7545155605,
				"element": "C" 
			},
			{
				"x": 0.3587332747,
				"y": 0.8524720675,
				"z": -1.3209008839,
				"element": "C" 
			},
			{
				"x": 1.2382986049,
				"y": 1.5043400842,
				"z": -1.8616707918,
				"element": "C" 
			},
			{
				"x": 2.2582513779,
				"y": 2.2613875559,
				"z": -2.4985504237,
				"element": "C" 
			},
			{
				"x": 2.5785571753,
				"y": 3.5615786979,
				"z": -2.0546310575,
				"element": "C" 
			},
			{
				"x": 3.5798823869,
				"y": 4.2910629722,
				"z": -2.6878025937,
				"element": "C" 
			},
			{
				"x": 4.2747843746,
				"y": 3.7412845289,
				"z": -3.7687767452,
				"element": "C" 
			},
			{
				"x": 3.9652159275,
				"y": 2.4538739187,
				"z": -4.2165188973,
				"element": "C" 
			},
			{
				"x": 2.9668103848,
				"y": 1.7149563774,
				"z": -3.5898291222,
				"element": "C" 
			},
			{
				"x": -0.6336050564,
				"y": -1.3962500072,
				"z": -1.4162000654,
				"element": "C" 
			},
			{
				"x": -1.2871411536,
				"y": -1.5262875118,
				"z": -2.4346232117,
				"element": "O" 
			},
			{
				"x": 0.2234316007,
				"y": -2.4773460051,
				"z": -0.85713065,
				"element": "C" 
			},
			{
				"x": 1.0299008188,
				"y": -2.2846141225,
				"z": 0.2729992244,
				"element": "C" 
			},
			{
				"x": 1.825560005,
				"y": -3.3253770832,
				"z": 0.7506316514,
				"element": "C" 
			},
			{
				"x": 1.8184855515,
				"y": -4.5626613688,
				"z": 0.1035266566,
				"element": "C" 
			},
			{
				"x": 1.01525429,
				"y": -4.7603403643,
				"z": -1.0247738725,
				"element": "C" 
			},
			{
				"x": 0.2225100435,
				"y": -3.7229637892,
				"z": -1.504223877,
				"element": "C" 
			},
			{
				"x": -1.7175405966,
				"y": 1.619861546,
				"z": 0.9015140378,
				"element": "C" 
			},
			{
				"x": -1.125051066,
				"y": 2.8777994704,
				"z": 0.7663066564,
				"element": "C" 
			},
			{
				"x": -1.5725177711,
				"y": 3.927156497,
				"z": 1.5697506004,
				"element": "C" 
			},
			{
				"x": -2.5995803215,
				"y": 3.7192688316,
				"z": 2.4942713466,
				"element": "C" 
			},
			{
				"x": -3.2103376049,
				"y": 2.4679976174,
				"z": 2.6442683582,
				"element": "C" 
			},
			{
				"x": -2.7582263248,
				"y": 1.4274083189,
				"z": 1.8390538083,
				"element": "C" 
			},
			{
				"x": -5.4136309767,
				"y": -2.141831561,
				"z": 3.0705748042,
				"element": "H" 
			},
			{
				"x": -4.9070643781,
				"y": -2.1180593813,
				"z": 1.3496498256,
				"element": "H" 
			},
			{
				"x": -3.7467365138,
				"y": -2.5778824644,
				"z": 2.5717086534,
				"element": "H" 
			},
			{
				"x": 2.0379777643,
				"y": 3.9842888052,
				"z": -1.2139661074,
				"element": "H" 
			},
			{
				"x": 3.8195911003,
				"y": 5.2909923816,
				"z": -2.3387413695,
				"element": "H" 
			},
			{
				"x": 5.0550832483,
				"y": 4.3144536523,
				"z": -4.2606232639,
				"element": "H" 
			},
			{
				"x": 4.5037591069,
				"y": 2.0256656692,
				"z": -5.0565743279,
				"element": "H" 
			},
			{
				"x": 2.7199838911,
				"y": 0.7155865986,
				"z": -3.9326731397,
				"element": "H" 
			},
			{
				"x": 1.0356259602,
				"y": -1.3235081645,
				"z": 0.777261509,
				"element": "H" 
			},
			{
				"x": 2.4494020941,
				"y": -3.1718876595,
				"z": 1.6261760044,
				"element": "H" 
			},
			{
				"x": 2.4378080075,
				"y": -5.3732338475,
				"z": 0.4772485035,
				"element": "H" 
			},
			{
				"x": 1.0099705762,
				"y": -5.723846254,
				"z": -1.526015278,
				"element": "H" 
			},
			{
				"x": -0.4097577295,
				"y": -3.8498609685,
				"z": -2.3765900656,
				"element": "H" 
			},
			{
				"x": -0.3332402706,
				"y": 3.0284860682,
				"z": 0.0425556421,
				"element": "H" 
			},
			{
				"x": -1.1209784294,
				"y": 4.9098892088,
				"z": 1.474039013,
				"element": "H" 
			},
			{
				"x": -2.939584897,
				"y": 4.5436051358,
				"z": 3.1142706076,
				"element": "H" 
			},
			{
				"x": -4.0053083263,
				"y": 2.3069237101,
				"z": 3.356278904,
				"element": "H" 
			}
		],
		 "valence_orbital": [ 
			{
				"type": "occ",
				"energy": -0.2601,
				"method": "rhf"
			},
			{
				"type": "occ",
				"energy": -0.25719,
				"method": "rhf"
			},
			{
				"type": "occ",
				"energy": -0.24892,
				"method": "rhf"
			},
			{
				"type": "occ",
				"energy": -0.24043,
				"method": "rhf"
			},
			{
				"type": "occ",
				"energy": -0.21725,
				"method": "rhf"
			},
			{
				"type": "unocc",
				"energy": -0.0984,
				"method": "rhf"
			},
			{
				"type": "unocc",
				"energy": -0.05875,
				"method": "rhf"
			},
			{
				"type": "unocc",
				"energy": -0.02646,
				"method": "rhf"
			},
			{
				"type": "unocc",
				"energy": -0.02131,
				"method": "rhf"
			},
			{
				"type": "unocc",
				"energy": -0.01848,
				"method": "rhf"
			}
		],
		"cosmo_sigma_profile": { 
			"-0.025": 0.0,
			"-0.024": 0.0,
			"-0.023": 0.0,
			"-0.022": 0.0,
			"-0.021": 0.0,
			"-0.02": 0.0,
			"-0.019": 0.0,
			"-0.018": 0.0,
			"-0.017": 0.0,
			"-0.016": 0.0,
			"-0.015": 0.0,
			"-0.014": 0.0,
			"-0.013": 0.0,
			"-0.012": 0.0,
			"-0.011": 0.0,
			"-0.01": 0.0,
			"-0.009": 0.0,
			"-0.008": 0.0107271329283,
			"-0.007": 8.07858310181,
			"-0.006": 32.3268666578,
			"-0.005": 40.798623651,
			"-0.004": 36.3764433579,
			"-0.003": 30.4444587363,
			"-0.002": 28.1296829953,
			"-0.001": 30.34425476,
			"0.0": 30.8073073331,
			"0.001": 35.9706322069,
			"0.002": 37.9508388431,
			"0.003": 43.1751770298,
			"0.004": 32.0054190969,
			"0.005": 7.853960077,
			"0.006": 5.32774135948,
			"0.007": 4.86528338075,
			"0.008": 7.12937390749,
			"0.009": 6.57584151482,
			"0.01": 7.76208356776,
			"0.011": 6.28219079564,
			"0.012": 3.12347266872,
			"0.013": 0.320209569518,
			"0.014": 0.0,
			"0.015": 0.0,
			"0.016": 0.0,
			"0.017": 0.0,
			"0.018": 0.0,
			"0.019": 0.0,
			"0.02": 0.0,
			"0.021": 0.0,
			"0.022": 0.0,
			"0.023": 0.0,
			"0.024": 0.0,
			"0.025": 0.0
		}
	}
}
