{
	 "smiles": "CC1=CC(CO)=C(O1)C1=CC=CC=C1", 
	 "Tm": 330.65, 
	 "num_atms": 26, 
	 "gaussian": { 
		 "optdone": 1, 
		 "sigma_profile": "yes", 
		 "theory": "DFT", 
		 "functional": "B3LYP", 
		 "basiset": "6-31G**", 
		 "properties": { 
			 "R2extent": 3259.8961, 
			 "electric_dipole_moment_norm": 2.16088435137, 
			 "electric_quadrupole_moment_norm": 8.3503299348, 
			 "total_energy": -614.940934904, 
			 "HOMO_LUMO_gap": 0.17105, 
			 "cosmo_polarized_energy": -8.58, 
			 "cosmo_cavitation_energy": 29.51, 
			 "cosmo_dispersion_energy": -21.51, 
			 "cosmo_repulsion_energy": 1.71, 
			 "cosmo_total_nonelectrostatic_energy": 9.71, 
			 "SMD_solvation_energy": 5.55 
		},
		"coords": [
			{
				"x": 0.2852962137,
				"y": -4.0188830541,
				"z": 0.8716704397,
				"element": "C" 
			},
			{
				"x": -0.271300502,
				"y": -2.6581473961,
				"z": 0.6432034348,
				"element": "C" 
			},
			{
				"x": -1.2752866198,
				"y": -1.9371112397,
				"z": 1.2171794868,
				"element": "C" 
			},
			{
				"x": -1.3285180529,
				"y": -0.66771723,
				"z": 0.5477837933,
				"element": "C" 
			},
			{
				"x": -2.3125987546,
				"y": 0.4291599329,
				"z": 0.8334054353,
				"element": "C" 
			},
			{
				"x": -1.7473726494,
				"y": 1.570665537,
				"z": 1.4903487186,
				"element": "O" 
			},
			{
				"x": -0.3276958721,
				"y": -0.6970550463,
				"z": -0.4015122193,
				"element": "C" 
			},
			{
				"x": 0.311149254,
				"y": -1.9117149638,
				"z": -0.3432125948,
				"element": "O" 
			},
			{
				"x": 0.1343896674,
				"y": 0.2327914193,
				"z": -1.428007718,
				"element": "C" 
			},
			{
				"x": 0.8415818134,
				"y": -0.2446380359,
				"z": -2.5484006973,
				"element": "C" 
			},
			{
				"x": 1.2704897283,
				"y": 0.6325414942,
				"z": -3.540476142,
				"element": "C" 
			},
			{
				"x": 1.0008568571,
				"y": 1.9998718321,
				"z": -3.4385745179,
				"element": "C" 
			},
			{
				"x": 0.3086410249,
				"y": 2.4828698596,
				"z": -2.3264568255,
				"element": "C" 
			},
			{
				"x": -0.1167367484,
				"y": 1.6144230543,
				"z": -1.3222899122,
				"element": "C" 
			},
			{
				"x": 1.3453051717,
				"y": -3.9782510597,
				"z": 1.1483788456,
				"element": "H" 
			},
			{
				"x": 0.2053648789,
				"y": -4.6414334753,
				"z": -0.0271354136,
				"element": "H" 
			},
			{
				"x": -0.2603679571,
				"y": -4.5125343209,
				"z": 1.6790829616,
				"element": "H" 
			},
			{
				"x": -1.9222014163,
				"y": -2.2681723848,
				"z": 2.0186062957,
				"element": "H" 
			},
			{
				"x": -2.7397268698,
				"y": 0.818533781,
				"z": -0.0965071324,
				"element": "H" 
			},
			{
				"x": -3.1411434254,
				"y": 0.0178925257,
				"z": 1.428422665,
				"element": "H" 
			},
			{
				"x": -1.1600458454,
				"y": 1.240524602,
				"z": 2.1831876516,
				"element": "H" 
			},
			{
				"x": 1.0440717292,
				"y": -1.3068187144,
				"z": -2.6341828808,
				"element": "H" 
			},
			{
				"x": 1.8127992829,
				"y": 0.2469702663,
				"z": -4.3993592128,
				"element": "H" 
			},
			{
				"x": 1.3339420072,
				"y": 2.6822679133,
				"z": -4.2152949114,
				"element": "H" 
			},
			{
				"x": 0.1094566368,
				"y": 3.5465866264,
				"z": -2.230177298,
				"element": "H" 
			},
			{
				"x": -0.6109495526,
				"y": 2.0032780768,
				"z": -0.4375822519,
				"element": "H" 
			}
		],
		 "valence_orbital": [ 
			{
				"type": "occ",
				"energy": -0.28064,
				"method": "rhf"
			},
			{
				"type": "occ",
				"energy": -0.26806,
				"method": "rhf"
			},
			{
				"type": "occ",
				"energy": -0.26637,
				"method": "rhf"
			},
			{
				"type": "occ",
				"energy": -0.24478,
				"method": "rhf"
			},
			{
				"type": "occ",
				"energy": -0.19851,
				"method": "rhf"
			},
			{
				"type": "unocc",
				"energy": -0.02746,
				"method": "rhf"
			},
			{
				"type": "unocc",
				"energy": 0.00477,
				"method": "rhf"
			},
			{
				"type": "unocc",
				"energy": 0.04111,
				"method": "rhf"
			},
			{
				"type": "unocc",
				"energy": 0.0641,
				"method": "rhf"
			},
			{
				"type": "unocc",
				"energy": 0.1027,
				"method": "rhf"
			}
		],
		"cosmo_sigma_profile": { 
			"-0.025": 0.0,
			"-0.024": 0.0,
			"-0.023": 0.0,
			"-0.022": 0.0,
			"-0.021": 0.0,
			"-0.02": 0.0,
			"-0.019": 0.0,
			"-0.018": 0.0,
			"-0.017": 0.0,
			"-0.016": 0.0223464327252,
			"-0.015": 0.598882572448,
			"-0.014": 0.964161524491,
			"-0.013": 0.927643304634,
			"-0.012": 0.308486777028,
			"-0.011": 0.978633777623,
			"-0.01": 0.452294427051,
			"-0.009": 1.03805316092,
			"-0.008": 1.42673199917,
			"-0.007": 1.07282573728,
			"-0.006": 6.02066543727,
			"-0.005": 18.2856731492,
			"-0.004": 22.8388939176,
			"-0.003": 21.3291536354,
			"-0.002": 19.1180796779,
			"-0.001": 20.1390342478,
			"0.0": 14.4118014515,
			"0.001": 14.1015445982,
			"0.002": 16.2568232927,
			"0.003": 21.6850938207,
			"0.004": 16.9197922553,
			"0.005": 16.3176970625,
			"0.006": 8.98907532055,
			"0.007": 2.19481970342,
			"0.008": 1.46731420963,
			"0.009": 1.3396458203,
			"0.01": 1.3920652691,
			"0.011": 0.296722147806,
			"0.012": 1.33891214257,
			"0.013": 1.15838671214,
			"0.014": 1.36343875505,
			"0.015": 0.0985676960215,
			"0.016": 0.0,
			"0.017": 0.0,
			"0.018": 0.0,
			"0.019": 0.0,
			"0.02": 0.0,
			"0.021": 0.0,
			"0.022": 0.0,
			"0.023": 0.0,
			"0.024": 0.0,
			"0.025": 0.0
		}
	}
}
