{
	 "smiles": "NC1=NN=C(O1)C1=C(F)C=C(F)C=C1", 
	 "Tm": 506.15, 
	 "num_atms": 19, 
	 "gaussian": { 
		 "optdone": 1, 
		 "sigma_profile": "yes", 
		 "theory": "DFT", 
		 "functional": "B3LYP", 
		 "basiset": "6-31G**", 
		 "properties": { 
			 "R2extent": 3828.3109, 
			 "electric_dipole_moment_norm": 2.90857415412, 
			 "electric_quadrupole_moment_norm": 15.7221728848, 
			 "total_energy": -746.983085622, 
			 "HOMO_LUMO_gap": 0.17401, 
			 "cosmo_polarized_energy": -14.8, 
			 "cosmo_cavitation_energy": 25.66, 
			 "cosmo_dispersion_energy": -18.93, 
			 "cosmo_repulsion_energy": 1.44, 
			 "cosmo_total_nonelectrostatic_energy": 8.17, 
			 "SMD_solvation_energy": 3.95 
		},
		"coords": [
			{
				"x": 2.9203859474,
				"y": -0.3559376565,
				"z": 1.3140423884,
				"element": "N" 
			},
			{
				"x": 1.5622429762,
				"y": -0.3639357152,
				"z": 1.1693891089,
				"element": "C" 
			},
			{
				"x": 0.6460708279,
				"y": -0.3008496876,
				"z": 2.0923171258,
				"element": "N" 
			},
			{
				"x": -0.5671668328,
				"y": -0.4348139328,
				"z": 1.4165755162,
				"element": "N" 
			},
			{
				"x": -0.2959353235,
				"y": -0.554715536,
				"z": 0.153691179,
				"element": "C" 
			},
			{
				"x": 1.0632361781,
				"y": -0.5202965458,
				"z": -0.0824648903,
				"element": "O" 
			},
			{
				"x": -1.2430734786,
				"y": -0.7082085622,
				"z": -0.9419234347,
				"element": "C" 
			},
			{
				"x": -0.8731805678,
				"y": -0.8099333012,
				"z": -2.2906528253,
				"element": "C" 
			},
			{
				"x": 0.4259728367,
				"y": -0.7659514512,
				"z": -2.6368005052,
				"element": "F" 
			},
			{
				"x": -1.8064434533,
				"y": -0.9559346671,
				"z": -3.3100023419,
				"element": "C" 
			},
			{
				"x": -3.1500281968,
				"y": -1.0001570624,
				"z": -2.9626433214,
				"element": "C" 
			},
			{
				"x": -4.0647783677,
				"y": -1.1411022235,
				"z": -3.9381635288,
				"element": "F" 
			},
			{
				"x": -3.5752965125,
				"y": -0.9029721709,
				"z": -1.6393778359,
				"element": "C" 
			},
			{
				"x": -2.619072316,
				"y": -0.758067331,
				"z": -0.6432771211,
				"element": "C" 
			},
			{
				"x": 3.4432203417,
				"y": 0.0172257382,
				"z": 0.534187362,
				"element": "H" 
			},
			{
				"x": 3.2267136932,
				"y": -0.0319680207,
				"z": 2.2206228803,
				"element": "H" 
			},
			{
				"x": -1.4867548668,
				"y": -1.0319923203,
				"z": -4.341897646,
				"element": "H" 
			},
			{
				"x": -4.6336963722,
				"y": -0.9419707756,
				"z": -1.4095225476,
				"element": "H" 
			},
			{
				"x": -2.9148165133,
				"y": -0.6801187781,
				"z": 0.3969004375,
				"element": "H" 
			}
		],
		 "valence_orbital": [ 
			{
				"type": "occ",
				"energy": -0.31839,
				"method": "rhf"
			},
			{
				"type": "occ",
				"energy": -0.28119,
				"method": "rhf"
			},
			{
				"type": "occ",
				"energy": -0.27286,
				"method": "rhf"
			},
			{
				"type": "occ",
				"energy": -0.26738,
				"method": "rhf"
			},
			{
				"type": "occ",
				"energy": -0.22064,
				"method": "rhf"
			},
			{
				"type": "unocc",
				"energy": -0.04663,
				"method": "rhf"
			},
			{
				"type": "unocc",
				"energy": -0.01898,
				"method": "rhf"
			},
			{
				"type": "unocc",
				"energy": 0.03505,
				"method": "rhf"
			},
			{
				"type": "unocc",
				"energy": 0.0593,
				"method": "rhf"
			},
			{
				"type": "unocc",
				"energy": 0.06755,
				"method": "rhf"
			}
		],
		"cosmo_sigma_profile": { 
			"-0.025": 0.0,
			"-0.024": 0.0,
			"-0.023": 0.0,
			"-0.022": 0.0,
			"-0.021": 0.0,
			"-0.02": 0.0,
			"-0.019": 0.0,
			"-0.018": 0.0,
			"-0.017": 0.0,
			"-0.016": 0.271888230337,
			"-0.015": 2.7907673201,
			"-0.014": 2.20234048746,
			"-0.013": 2.65291519705,
			"-0.012": 2.56816210323,
			"-0.011": 1.80363907291,
			"-0.01": 1.97269788406,
			"-0.009": 3.47502021402,
			"-0.008": 5.05194789284,
			"-0.007": 6.16990196795,
			"-0.006": 6.25200578381,
			"-0.005": 6.6217280459,
			"-0.004": 7.99848036571,
			"-0.003": 11.37848764,
			"-0.002": 9.84276417017,
			"-0.001": 17.9348963391,
			"0.0": 22.5555070853,
			"0.001": 18.1630245818,
			"0.002": 13.3901124026,
			"0.003": 16.5904944105,
			"0.004": 14.2037174292,
			"0.005": 4.87099673343,
			"0.006": 4.34887129051,
			"0.007": 2.76859981477,
			"0.008": 2.38411342153,
			"0.009": 2.52810211132,
			"0.01": 2.75167610568,
			"0.011": 2.56172809633,
			"0.012": 3.3586342594,
			"0.013": 3.36276055949,
			"0.014": 2.15864442826,
			"0.015": 1.60396003602,
			"0.016": 0.688385475164,
			"0.017": 0.0,
			"0.018": 0.0,
			"0.019": 0.0,
			"0.02": 0.0,
			"0.021": 0.0,
			"0.022": 0.0,
			"0.023": 0.0,
			"0.024": 0.0,
			"0.025": 0.0
		}
	}
}
