{
	 "smiles": "C[C@H]1CC11[C@@H](O)C(=O)C2=C([C@H](OC(C)=O)[C@@H](O)[C@H]3C(C)=C(C)CC[C@]23C)C1=O", 
	 "Tm": 451.15, 
	 "num_atms": 56, 
	 "gaussian": { 
		 "optdone": 1, 
		 "sigma_profile": "yes", 
		 "theory": "DFT", 
		 "functional": "B3LYP", 
		 "basiset": "6-31G**", 
		 "properties": { 
			 "R2extent": 11209.5213, 
			 "electric_dipole_moment_norm": 3.31965154497, 
			 "electric_quadrupole_moment_norm": 36.7833662129, 
			 "total_energy": -1306.5135829, 
			 "HOMO_LUMO_gap": 0.1431, 
			 "cosmo_polarized_energy": -21.71, 
			 "cosmo_cavitation_energy": 53.08, 
			 "cosmo_dispersion_energy": -34.91, 
			 "cosmo_repulsion_energy": 2.63, 
			 "cosmo_total_nonelectrostatic_energy": 20.79, 
			 "SMD_solvation_energy": 10.21 
		},
		"coords": [
			{
				"x": -6.5939072507,
				"y": 1.0022297442,
				"z": -0.5669468341,
				"element": "C" 
			},
			{
				"x": -5.5673468488,
				"y": 0.034657829,
				"z": -1.1221099594,
				"element": "C" 
			},
			{
				"x": -4.9528479003,
				"y": 0.2369565201,
				"z": -2.4681660882,
				"element": "C" 
			},
			{
				"x": -4.0810001793,
				"y": 0.3800598847,
				"z": -1.21735269,
				"element": "C" 
			},
			{
				"x": -3.5676338344,
				"y": 1.746114435,
				"z": -0.8116741334,
				"element": "C" 
			},
			{
				"x": -3.4914099532,
				"y": 1.889826079,
				"z": 0.6057986237,
				"element": "O" 
			},
			{
				"x": -2.1347129179,
				"y": 1.9154771012,
				"z": -1.3207616093,
				"element": "C" 
			},
			{
				"x": -1.8153517027,
				"y": 2.8833409719,
				"z": -1.9897615373,
				"element": "O" 
			},
			{
				"x": -1.1755148445,
				"y": 0.8284751491,
				"z": -0.9328900489,
				"element": "C" 
			},
			{
				"x": -1.669379973,
				"y": -0.4273188512,
				"z": -0.7892705468,
				"element": "C" 
			},
			{
				"x": -0.8107200166,
				"y": -1.6245539619,
				"z": -0.4614545129,
				"element": "C" 
			},
			{
				"x": -1.1773287573,
				"y": -1.9856812349,
				"z": 0.8992279959,
				"element": "O" 
			},
			{
				"x": -1.1781106739,
				"y": -3.3135339862,
				"z": 1.1964462516,
				"element": "C" 
			},
			{
				"x": -1.7264965429,
				"y": -3.5417093472,
				"z": 2.5845906676,
				"element": "C" 
			},
			{
				"x": -0.7983071989,
				"y": -4.1762247498,
				"z": 0.4391876236,
				"element": "O" 
			},
			{
				"x": 0.6990927057,
				"y": -1.37349269,
				"z": -0.5295512227,
				"element": "C" 
			},
			{
				"x": 1.0863958743,
				"y": -1.6174447369,
				"z": -1.8794174022,
				"element": "O" 
			},
			{
				"x": 1.0194360349,
				"y": 0.0362916941,
				"z": -0.0057082567,
				"element": "C" 
			},
			{
				"x": 2.5062271602,
				"y": 0.3244642591,
				"z": 0.2466732079,
				"element": "C" 
			},
			{
				"x": 3.3638896595,
				"y": -0.8786975209,
				"z": 0.5758631542,
				"element": "C" 
			},
			{
				"x": 2.9617031588,
				"y": 1.5937840138,
				"z": 0.2821428142,
				"element": "C" 
			},
			{
				"x": 4.3905666005,
				"y": 2.0020729031,
				"z": 0.5563275043,
				"element": "C" 
			},
			{
				"x": 2.0523192325,
				"y": 2.7836456792,
				"z": 0.0446300584,
				"element": "C" 
			},
			{
				"x": 0.554277376,
				"y": 2.4630616464,
				"z": -0.0347958387,
				"element": "C" 
			},
			{
				"x": 0.311986941,
				"y": 1.1547372651,
				"z": -0.8279622622,
				"element": "C" 
			},
			{
				"x": 0.8577854382,
				"y": 1.3168776141,
				"z": -2.2774098436,
				"element": "C" 
			},
			{
				"x": -3.1181728755,
				"y": -0.7495491612,
				"z": -0.9864380856,
				"element": "C" 
			},
			{
				"x": -3.4918767917,
				"y": -1.9165198476,
				"z": -1.0088476392,
				"element": "O" 
			},
			{
				"x": -6.3826200507,
				"y": 2.0400435085,
				"z": -0.841708248,
				"element": "H" 
			},
			{
				"x": -7.5866682277,
				"y": 0.7588608306,
				"z": -0.9602064672,
				"element": "H" 
			},
			{
				"x": -6.658807732,
				"y": 0.9448276172,
				"z": 0.5262996916,
				"element": "H" 
			},
			{
				"x": -5.7211488608,
				"y": -1.0074310714,
				"z": -0.8519010511,
				"element": "H" 
			},
			{
				"x": -5.1757762706,
				"y": 1.1541014189,
				"z": -3.0076731484,
				"element": "H" 
			},
			{
				"x": -4.7690285265,
				"y": -0.6330440068,
				"z": -3.0901742419,
				"element": "H" 
			},
			{
				"x": -4.164227036,
				"y": 2.5491657258,
				"z": -1.2626912217,
				"element": "H" 
			},
			{
				"x": -4.3057490549,
				"y": 1.5285750346,
				"z": 0.9794327466,
				"element": "H" 
			},
			{
				"x": -1.0554885295,
				"y": -2.4634565021,
				"z": -1.1151435662,
				"element": "H" 
			},
			{
				"x": -1.517737012,
				"y": -4.565512344,
				"z": 2.8939494559,
				"element": "H" 
			},
			{
				"x": -1.2962370532,
				"y": -2.8307618576,
				"z": 3.2942394414,
				"element": "H" 
			},
			{
				"x": -2.8094673358,
				"y": -3.3812089649,
				"z": 2.5712705432,
				"element": "H" 
			},
			{
				"x": 1.1603230381,
				"y": -2.1223019991,
				"z": 0.1258544188,
				"element": "H" 
			},
			{
				"x": 1.9689610418,
				"y": -1.2487687707,
				"z": -2.010858307,
				"element": "H" 
			},
			{
				"x": 0.5349064874,
				"y": 0.0409842978,
				"z": 0.9851350001,
				"element": "H" 
			},
			{
				"x": 2.9605981851,
				"y": -1.4156017732,
				"z": 1.4446331422,
				"element": "H" 
			},
			{
				"x": 3.3985004205,
				"y": -1.6093224088,
				"z": -0.242366589,
				"element": "H" 
			},
			{
				"x": 4.3922011157,
				"y": -0.609837471,
				"z": 0.8147091622,
				"element": "H" 
			},
			{
				"x": 4.4711049268,
				"y": 2.5040224006,
				"z": 1.5299837866,
				"element": "H" 
			},
			{
				"x": 4.723953509,
				"y": 2.7314533658,
				"z": -0.1930173098,
				"element": "H" 
			},
			{
				"x": 5.102410279,
				"y": 1.1761638487,
				"z": 0.5484037319,
				"element": "H" 
			},
			{
				"x": 2.2214900858,
				"y": 3.520323284,
				"z": 0.8425504298,
				"element": "H" 
			},
			{
				"x": 2.3771047921,
				"y": 3.2901004972,
				"z": -0.8765948783,
				"element": "H" 
			},
			{
				"x": 0.143670267,
				"y": 2.3438356922,
				"z": 0.9754942415,
				"element": "H" 
			},
			{
				"x": 0.0274565656,
				"y": 3.2984253781,
				"z": -0.5002221986,
				"element": "H" 
			},
			{
				"x": 1.9493852825,
				"y": 1.3825583791,
				"z": -2.2708201589,
				"element": "H" 
			},
			{
				"x": 0.4537827721,
				"y": 2.2297499583,
				"z": -2.7187308658,
				"element": "H" 
			},
			{
				"x": 0.5719450012,
				"y": 0.4691092312,
				"z": -2.8998169303,
				"element": "H" 
			}
		],
		 "valence_orbital": [ 
			{
				"type": "occ",
				"energy": -0.26895,
				"method": "rhf"
			},
			{
				"type": "occ",
				"energy": -0.26184,
				"method": "rhf"
			},
			{
				"type": "occ",
				"energy": -0.26038,
				"method": "rhf"
			},
			{
				"type": "occ",
				"energy": -0.24478,
				"method": "rhf"
			},
			{
				"type": "occ",
				"energy": -0.22859,
				"method": "rhf"
			},
			{
				"type": "unocc",
				"energy": -0.08549,
				"method": "rhf"
			},
			{
				"type": "unocc",
				"energy": -0.02226,
				"method": "rhf"
			},
			{
				"type": "unocc",
				"energy": 0.01491,
				"method": "rhf"
			},
			{
				"type": "unocc",
				"energy": 0.01903,
				"method": "rhf"
			},
			{
				"type": "unocc",
				"energy": 0.05197,
				"method": "rhf"
			}
		],
		"cosmo_sigma_profile": { 
			"-0.025": 0.0,
			"-0.024": 0.0,
			"-0.023": 0.0,
			"-0.022": 0.0,
			"-0.021": 0.0,
			"-0.02": 0.0,
			"-0.019": 0.0,
			"-0.018": 0.0,
			"-0.017": 0.0,
			"-0.016": 0.0,
			"-0.015": 0.0600995022122,
			"-0.014": 1.09337480827,
			"-0.013": 1.35756692493,
			"-0.012": 2.26884600506,
			"-0.011": 2.19865405671,
			"-0.01": 1.40619195304,
			"-0.009": 2.06967331601,
			"-0.008": 3.7741145578,
			"-0.007": 6.63337061021,
			"-0.006": 13.260389275,
			"-0.005": 19.10607819,
			"-0.004": 29.9562642121,
			"-0.003": 45.6210659594,
			"-0.002": 47.8442051923,
			"-0.001": 48.9243809785,
			"0.0": 44.4919031895,
			"0.001": 27.9711240699,
			"0.002": 17.4050407207,
			"0.003": 14.1886737266,
			"0.004": 11.4369284733,
			"0.005": 11.5875960598,
			"0.006": 10.3905727378,
			"0.007": 7.85709647454,
			"0.008": 5.84469173937,
			"0.009": 8.16359687806,
			"0.01": 8.95703637045,
			"0.011": 10.4095694336,
			"0.012": 7.44482433941,
			"0.013": 2.03181117698,
			"0.014": 0.0469533084951,
			"0.015": 0.0,
			"0.016": 0.0,
			"0.017": 0.0,
			"0.018": 0.0,
			"0.019": 0.0,
			"0.02": 0.0,
			"0.021": 0.0,
			"0.022": 0.0,
			"0.023": 0.0,
			"0.024": 0.0,
			"0.025": 0.0
		}
	}
}
