{
	 "smiles": "OC(=O)C1=CN=C(COC2=CC=CC=C2)S1", 
	 "Tm": 448.15, 
	 "num_atms": 25, 
	 "gaussian": { 
		 "optdone": 1, 
		 "sigma_profile": "yes", 
		 "theory": "DFT", 
		 "functional": "B3LYP", 
		 "basiset": "6-31G**", 
		 "properties": { 
			 "R2extent": 6921.7279, 
			 "electric_dipole_moment_norm": 1.70926654738, 
			 "electric_quadrupole_moment_norm": 14.2750155818, 
			 "total_energy": -1103.19783861, 
			 "HOMO_LUMO_gap": 0.16497, 
			 "cosmo_polarized_energy": -13.04, 
			 "cosmo_cavitation_energy": 32.37, 
			 "cosmo_dispersion_energy": -24.12, 
			 "cosmo_repulsion_energy": 1.83, 
			 "cosmo_total_nonelectrostatic_energy": 10.08, 
			 "SMD_solvation_energy": 5.05 
		},
		"coords": [
			{
				"x": -5.9473792799,
				"y": 2.0154839823,
				"z": 0.4028191891,
				"element": "O" 
			},
			{
				"x": -5.321958613,
				"y": 0.8121838611,
				"z": 0.3672671846,
				"element": "C" 
			},
			{
				"x": -5.9200793917,
				"y": -0.2453247638,
				"z": 0.3989903628,
				"element": "O" 
			},
			{
				"x": -3.8648727675,
				"y": 0.9521304991,
				"z": 0.2874654009,
				"element": "C" 
			},
			{
				"x": -3.0992069455,
				"y": 2.0928793609,
				"z": 0.2468609395,
				"element": "C" 
			},
			{
				"x": -1.7477161061,
				"y": 1.9029013464,
				"z": 0.1726407537,
				"element": "N" 
			},
			{
				"x": -1.4680788605,
				"y": 0.6244814112,
				"z": 0.1558185651,
				"element": "C" 
			},
			{
				"x": -0.0592806527,
				"y": 0.1099662553,
				"z": 0.0777464082,
				"element": "C" 
			},
			{
				"x": -0.1090703337,
				"y": -1.3029411815,
				"z": 0.0814824175,
				"element": "O" 
			},
			{
				"x": 1.0694394911,
				"y": -2.0039677047,
				"z": 0.0150812554,
				"element": "C" 
			},
			{
				"x": 0.9419839736,
				"y": -3.3991614259,
				"z": 0.0224395829,
				"element": "C" 
			},
			{
				"x": 2.0796553168,
				"y": -4.196180266,
				"z": -0.0414844488,
				"element": "C" 
			},
			{
				"x": 3.351138811,
				"y": -3.6162694116,
				"z": -0.1131233043,
				"element": "C" 
			},
			{
				"x": 3.4680264072,
				"y": -2.2285644621,
				"z": -0.1198982938,
				"element": "C" 
			},
			{
				"x": 2.3339443524,
				"y": -1.4115393474,
				"z": -0.0561572609,
				"element": "C" 
			},
			{
				"x": -2.8376904534,
				"y": -0.4524563876,
				"z": 0.2295320926,
				"element": "S" 
			},
			{
				"x": -6.8971702383,
				"y": 1.8183225275,
				"z": 0.4547890064,
				"element": "H" 
			},
			{
				"x": -3.5025644023,
				"y": 3.097964796,
				"z": 0.2701635562,
				"element": "H" 
			},
			{
				"x": 0.4144289382,
				"y": 0.4918195417,
				"z": -0.8382318814,
				"element": "H" 
			},
			{
				"x": 0.5131000199,
				"y": 0.4931476469,
				"z": 0.9349275158,
				"element": "H" 
			},
			{
				"x": -0.0519311282,
				"y": -3.8308033283,
				"z": 0.0784804267,
				"element": "H" 
			},
			{
				"x": 1.973134299,
				"y": -5.2771087485,
				"z": -0.0353231761,
				"element": "H" 
			},
			{
				"x": 4.2370473104,
				"y": -4.2414346002,
				"z": -0.1628984667,
				"element": "H" 
			},
			{
				"x": 4.4485613587,
				"y": -1.7643782168,
				"z": -0.1751527365,
				"element": "H" 
			},
			{
				"x": 2.4507388945,
				"y": -0.3341513841,
				"z": -0.0628350889,
				"element": "H" 
			}
		],
		 "valence_orbital": [ 
			{
				"type": "occ",
				"energy": -0.29286,
				"method": "rhf"
			},
			{
				"type": "occ",
				"energy": -0.27606,
				"method": "rhf"
			},
			{
				"type": "occ",
				"energy": -0.26016,
				"method": "rhf"
			},
			{
				"type": "occ",
				"energy": -0.25629,
				"method": "rhf"
			},
			{
				"type": "occ",
				"energy": -0.2298,
				"method": "rhf"
			},
			{
				"type": "unocc",
				"energy": -0.06483,
				"method": "rhf"
			},
			{
				"type": "unocc",
				"energy": -0.00827,
				"method": "rhf"
			},
			{
				"type": "unocc",
				"energy": 0.00291,
				"method": "rhf"
			},
			{
				"type": "unocc",
				"energy": 0.00972,
				"method": "rhf"
			},
			{
				"type": "unocc",
				"energy": 0.01921,
				"method": "rhf"
			}
		],
		"cosmo_sigma_profile": { 
			"-0.025": 0.0,
			"-0.024": 0.0,
			"-0.023": 0.0,
			"-0.022": 0.0,
			"-0.021": 0.0,
			"-0.02": 0.0,
			"-0.019": 0.297319889186,
			"-0.018": 1.18782517046,
			"-0.017": 0.457259431758,
			"-0.016": 0.88178116748,
			"-0.015": 0.920036485925,
			"-0.014": 0.294706101217,
			"-0.013": 0.784564127966,
			"-0.012": 1.30749560207,
			"-0.011": 0.446059843961,
			"-0.01": 0.438541939735,
			"-0.009": 1.34301175036,
			"-0.008": 7.53275609967,
			"-0.007": 8.53680249674,
			"-0.006": 12.5326700678,
			"-0.005": 14.3722700903,
			"-0.004": 15.0229564951,
			"-0.003": 16.3874295622,
			"-0.002": 16.2068536663,
			"-0.001": 18.5024605533,
			"0.0": 22.6465018111,
			"0.001": 21.0963366018,
			"0.002": 19.5463775784,
			"0.003": 15.4664641404,
			"0.004": 15.9810235401,
			"0.005": 16.0177653949,
			"0.006": 10.1431755147,
			"0.007": 4.59973584154,
			"0.008": 2.36723983757,
			"0.009": 2.82908896112,
			"0.01": 3.48659724969,
			"0.011": 5.66416074565,
			"0.012": 3.11873615449,
			"0.013": 0.68426594561,
			"0.014": 0.646834108937,
			"0.015": 0.00385102662708,
			"0.016": 0.0,
			"0.017": 0.0,
			"0.018": 0.0,
			"0.019": 0.0,
			"0.02": 0.0,
			"0.021": 0.0,
			"0.022": 0.0,
			"0.023": 0.0,
			"0.024": 0.0,
			"0.025": 0.0
		}
	}
}
