{
	 "smiles": "ClC1=CC=C(C=C1)C1=NC=C(C=O)C=N1", 
	 "Tm": 457.15, 
	 "num_atms": 22, 
	 "gaussian": { 
		 "optdone": 1, 
		 "sigma_profile": "yes", 
		 "theory": "DFT", 
		 "functional": "B3LYP", 
		 "basiset": "6-31G**", 
		 "properties": { 
			 "R2extent": 5736.8892, 
			 "electric_dipole_moment_norm": 1.63627325346, 
			 "electric_quadrupole_moment_norm": 20.1006394401, 
			 "total_energy": -1068.30089631, 
			 "HOMO_LUMO_gap": 0.15183, 
			 "cosmo_polarized_energy": -9.85, 
			 "cosmo_cavitation_energy": 29.63, 
			 "cosmo_dispersion_energy": -21.9, 
			 "cosmo_repulsion_energy": 1.68, 
			 "cosmo_total_nonelectrostatic_energy": 9.41, 
			 "SMD_solvation_energy": 3.77 
		},
		"coords": [
			{
				"x": -4.5249566671,
				"y": -0.7894306706,
				"z": 2.388541198,
				"element": "Cl" 
			},
			{
				"x": -3.1779318936,
				"y": -0.5983800874,
				"z": 1.2813650785,
				"element": "C" 
			},
			{
				"x": -3.383271992,
				"y": -0.7893844811,
				"z": -0.0865214208,
				"element": "C" 
			},
			{
				"x": -2.3117728613,
				"y": -0.6367414791,
				"z": -0.9601641309,
				"element": "C" 
			},
			{
				"x": -1.0370010108,
				"y": -0.2949144245,
				"z": -0.4788155154,
				"element": "C" 
			},
			{
				"x": -0.8558935988,
				"y": -0.1080957113,
				"z": 0.9016921036,
				"element": "C" 
			},
			{
				"x": -1.9206555466,
				"y": -0.2582661116,
				"z": 1.784214563,
				"element": "C" 
			},
			{
				"x": 0.0978678898,
				"y": -0.1340331025,
				"z": -1.4112138957,
				"element": "C" 
			},
			{
				"x": 1.2968922669,
				"y": 0.1959123161,
				"z": -0.880525409,
				"element": "N" 
			},
			{
				"x": 2.3117060059,
				"y": 0.3387284895,
				"z": -1.7241040752,
				"element": "C" 
			},
			{
				"x": 2.172089445,
				"y": 0.1606415223,
				"z": -3.1091271185,
				"element": "C" 
			},
			{
				"x": 3.3071556505,
				"y": 0.3219930667,
				"z": -4.0376602634,
				"element": "C" 
			},
			{
				"x": 4.4351162302,
				"y": 0.6163195145,
				"z": -3.6903070446,
				"element": "O" 
			},
			{
				"x": 0.8896895663,
				"y": -0.1789272179,
				"z": -3.5507200532,
				"element": "C" 
			},
			{
				"x": -0.1421315726,
				"y": -0.3274069143,
				"z": -2.7242330209,
				"element": "N" 
			},
			{
				"x": -4.3678220325,
				"y": -1.0531719962,
				"z": -0.4561605704,
				"element": "H" 
			},
			{
				"x": -2.4487432252,
				"y": -0.7802774675,
				"z": -2.0256418624,
				"element": "H" 
			},
			{
				"x": 0.1286263077,
				"y": 0.155534538,
				"z": 1.2701501946,
				"element": "H" 
			},
			{
				"x": -1.7827020008,
				"y": -0.114484579,
				"z": 2.8499666284,
				"element": "H" 
			},
			{
				"x": 3.2821112101,
				"y": 0.6042535518,
				"z": -1.3092253561,
				"element": "H" 
			},
			{
				"x": 3.0608930555,
				"y": 0.1526605084,
				"z": -5.109009368,
				"element": "H" 
			},
			{
				"x": 0.6922347735,
				"y": -0.3360292644,
				"z": -4.6120006617,
				"element": "H" 
			}
		],
		 "valence_orbital": [ 
			{
				"type": "occ",
				"energy": -0.30463,
				"method": "rhf"
			},
			{
				"type": "occ",
				"energy": -0.27209,
				"method": "rhf"
			},
			{
				"type": "occ",
				"energy": -0.27019,
				"method": "rhf"
			},
			{
				"type": "occ",
				"energy": -0.26691,
				"method": "rhf"
			},
			{
				"type": "occ",
				"energy": -0.24759,
				"method": "rhf"
			},
			{
				"type": "unocc",
				"energy": -0.09576,
				"method": "rhf"
			},
			{
				"type": "unocc",
				"energy": -0.05895,
				"method": "rhf"
			},
			{
				"type": "unocc",
				"energy": -0.02948,
				"method": "rhf"
			},
			{
				"type": "unocc",
				"energy": -0.0183,
				"method": "rhf"
			},
			{
				"type": "unocc",
				"energy": 0.0248,
				"method": "rhf"
			}
		],
		"cosmo_sigma_profile": { 
			"-0.025": 0.0,
			"-0.024": 0.0,
			"-0.023": 0.0,
			"-0.022": 0.0,
			"-0.021": 0.0,
			"-0.02": 0.0,
			"-0.019": 0.0,
			"-0.018": 0.0,
			"-0.017": 0.0,
			"-0.016": 0.0,
			"-0.015": 0.0,
			"-0.014": 0.0,
			"-0.013": 0.0,
			"-0.012": 0.0,
			"-0.011": 0.00388806289522,
			"-0.01": 1.21926407245,
			"-0.009": 3.45523583823,
			"-0.008": 6.33099671752,
			"-0.007": 9.99038284271,
			"-0.006": 11.4662826546,
			"-0.005": 12.0796725057,
			"-0.004": 13.5215471371,
			"-0.003": 17.4215845471,
			"-0.002": 18.544056851,
			"-0.001": 15.7252530049,
			"0.0": 18.3396334468,
			"0.001": 22.6536584884,
			"0.002": 24.5372957809,
			"0.003": 19.2052462398,
			"0.004": 14.177089193,
			"0.005": 6.70431140021,
			"0.006": 4.60877500255,
			"0.007": 3.7103132185,
			"0.008": 3.56678757803,
			"0.009": 4.95286736314,
			"0.01": 4.4292481534,
			"0.011": 3.98310310549,
			"0.012": 1.40024283982,
			"0.013": 0.0853944806258,
			"0.014": 0.0,
			"0.015": 0.0,
			"0.016": 0.0,
			"0.017": 0.0,
			"0.018": 0.0,
			"0.019": 0.0,
			"0.02": 0.0,
			"0.021": 0.0,
			"0.022": 0.0,
			"0.023": 0.0,
			"0.024": 0.0,
			"0.025": 0.0
		}
	}
}
