{
	 "smiles": "CNS(=O)(=O)CC1=NOC(C)=C1", 
	 "Tm": 343.15, 
	 "num_atms": 22, 
	 "gaussian": { 
		 "optdone": 1, 
		 "sigma_profile": "yes", 
		 "theory": "DFT", 
		 "functional": "B3LYP", 
		 "basiset": "6-31G**", 
		 "properties": { 
			 "R2extent": 4265.8869, 
			 "electric_dipole_moment_norm": 6.24858128378, 
			 "electric_quadrupole_moment_norm": 13.9038212658, 
			 "total_energy": -967.910595236, 
			 "HOMO_LUMO_gap": 0.24069, 
			 "cosmo_polarized_energy": -19.02, 
			 "cosmo_cavitation_energy": 27.71, 
			 "cosmo_dispersion_energy": -20.23, 
			 "cosmo_repulsion_energy": 1.59, 
			 "cosmo_total_nonelectrostatic_energy": 9.07, 
			 "SMD_solvation_energy": 4.22 
		},
		"coords": [
			{
				"x": -0.3901894025,
				"y": 2.6850553126,
				"z": -3.7580662938,
				"element": "C" 
			},
			{
				"x": -0.6335034093,
				"y": 1.5665392489,
				"z": -2.8343759932,
				"element": "N" 
			},
			{
				"x": -0.6712110778,
				"y": 0.0031619725,
				"z": -3.5020867362,
				"element": "S" 
			},
			{
				"x": -0.7590979534,
				"y": 0.0871578562,
				"z": -4.9637477446,
				"element": "O" 
			},
			{
				"x": -1.6510367675,
				"y": -0.7412836395,
				"z": -2.7091420245,
				"element": "O" 
			},
			{
				"x": 1.0072816136,
				"y": -0.6148663813,
				"z": -3.1392531296,
				"element": "C" 
			},
			{
				"x": 1.2813514747,
				"y": -0.8690819468,
				"z": -1.6946043641,
				"element": "C" 
			},
			{
				"x": 1.5174425688,
				"y": -2.106107431,
				"z": -1.3118597575,
				"element": "N" 
			},
			{
				"x": 1.7588187306,
				"y": -2.0288277452,
				"z": 0.0577655262,
				"element": "O" 
			},
			{
				"x": 1.6585257615,
				"y": -0.7425056556,
				"z": 0.4643489911,
				"element": "C" 
			},
			{
				"x": 1.8796443439,
				"y": -0.4770289117,
				"z": 1.9128658191,
				"element": "C" 
			},
			{
				"x": 1.3608712354,
				"y": 0.0471206864,
				"z": -0.6058327879,
				"element": "C" 
			},
			{
				"x": -0.4311753519,
				"y": 3.6086024371,
				"z": -3.1753256472,
				"element": "H" 
			},
			{
				"x": 0.6131779158,
				"y": 2.599036292,
				"z": -4.1818044569,
				"element": "H" 
			},
			{
				"x": -1.1094983321,
				"y": 2.7369488919,
				"z": -4.5815927878,
				"element": "H" 
			},
			{
				"x": -1.4908787912,
				"y": 1.6634252921,
				"z": -2.2953386126,
				"element": "H" 
			},
			{
				"x": 1.086348245,
				"y": -1.545246422,
				"z": -3.7066384907,
				"element": "H" 
			},
			{
				"x": 1.6900359854,
				"y": 0.1210579794,
				"z": -3.5735681803,
				"element": "H" 
			},
			{
				"x": 2.8742804691,
				"y": -0.8123957435,
				"z": 2.2245295982,
				"element": "H" 
			},
			{
				"x": 1.1441166973,
				"y": -1.0109922236,
				"z": 2.5235621314,
				"element": "H" 
			},
			{
				"x": 1.7916877979,
				"y": 0.5916965996,
				"z": 2.1173595705,
				"element": "H" 
			},
			{
				"x": 1.2007082467,
				"y": 1.1129335315,
				"z": -0.6281946297,
				"element": "H" 
			}
		],
		 "valence_orbital": [ 
			{
				"type": "occ",
				"energy": -0.30887,
				"method": "rhf"
			},
			{
				"type": "occ",
				"energy": -0.30719,
				"method": "rhf"
			},
			{
				"type": "occ",
				"energy": -0.28823,
				"method": "rhf"
			},
			{
				"type": "occ",
				"energy": -0.2803,
				"method": "rhf"
			},
			{
				"type": "occ",
				"energy": -0.2604,
				"method": "rhf"
			},
			{
				"type": "unocc",
				"energy": -0.01971,
				"method": "rhf"
			},
			{
				"type": "unocc",
				"energy": 0.03173,
				"method": "rhf"
			},
			{
				"type": "unocc",
				"energy": 0.05535,
				"method": "rhf"
			},
			{
				"type": "unocc",
				"energy": 0.07296,
				"method": "rhf"
			},
			{
				"type": "unocc",
				"energy": 0.07896,
				"method": "rhf"
			}
		],
		"cosmo_sigma_profile": { 
			"-0.025": 0.0,
			"-0.024": 0.0,
			"-0.023": 0.0,
			"-0.022": 0.0,
			"-0.021": 0.0,
			"-0.02": 0.0,
			"-0.019": 0.0,
			"-0.018": 0.0,
			"-0.017": 0.0,
			"-0.016": 0.0,
			"-0.015": 0.330906389426,
			"-0.014": 1.108603159,
			"-0.013": 0.882167585976,
			"-0.012": 1.19056061059,
			"-0.011": 1.03243945323,
			"-0.01": 2.29299008489,
			"-0.009": 5.37382317762,
			"-0.008": 4.86597460264,
			"-0.007": 9.06905610351,
			"-0.006": 16.6000437401,
			"-0.005": 16.0338537085,
			"-0.004": 15.5769095787,
			"-0.003": 18.0070189258,
			"-0.002": 19.9346331901,
			"-0.001": 10.3076255185,
			"0.0": 9.28571280027,
			"0.001": 9.8718552082,
			"0.002": 8.37719159905,
			"0.003": 6.92291711001,
			"0.004": 5.27463390245,
			"0.005": 5.08735078793,
			"0.006": 4.91708833031,
			"0.007": 7.03914477425,
			"0.008": 8.18718225729,
			"0.009": 4.92102053891,
			"0.01": 8.95411423476,
			"0.011": 12.4642532307,
			"0.012": 3.59657224567,
			"0.013": 1.33403659956,
			"0.014": 0.569339439178,
			"0.015": 0.0,
			"0.016": 0.0,
			"0.017": 0.0,
			"0.018": 0.0,
			"0.019": 0.0,
			"0.02": 0.0,
			"0.021": 0.0,
			"0.022": 0.0,
			"0.023": 0.0,
			"0.024": 0.0,
			"0.025": 0.0
		}
	}
}
