{
	 "smiles": "CC1=C(C(=O)NC2=CC=CC=C2)C2(CCCCC2)C(C#N)=C(S)N1", 
	 "Tm": 512.15, 
	 "num_atms": 45, 
	 "gaussian": { 
		 "optdone": 1, 
		 "sigma_profile": "yes", 
		 "theory": "DFT", 
		 "functional": "B3LYP", 
		 "basiset": "6-31G**", 
		 "properties": { 
			 "R2extent": 8471.3285, 
			 "electric_dipole_moment_norm": 6.02775390423, 
			 "electric_quadrupole_moment_norm": 16.4533752075, 
			 "total_energy": -1374.32266941, 
			 "HOMO_LUMO_gap": 0.16617, 
			 "cosmo_polarized_energy": -20.6, 
			 "cosmo_cavitation_energy": 46.59, 
			 "cosmo_dispersion_energy": -31.0, 
			 "cosmo_repulsion_energy": 2.31, 
			 "cosmo_total_nonelectrostatic_energy": 17.91, 
			 "SMD_solvation_energy": 7.87 
		},
		"coords": [
			{
				"x": 2.4496004886,
				"y": 1.3443294021,
				"z": -0.0043784239,
				"element": "C" 
			},
			{
				"x": 1.4080784771,
				"y": 0.617939967,
				"z": -0.8117243527,
				"element": "C" 
			},
			{
				"x": 0.3693825824,
				"y": -0.1185585328,
				"z": -0.3503052016,
				"element": "C" 
			},
			{
				"x": 0.1413856826,
				"y": -0.22804188,
				"z": 1.1262450035,
				"element": "C" 
			},
			{
				"x": 0.1726533044,
				"y": -1.3031551332,
				"z": 1.7213702149,
				"element": "O" 
			},
			{
				"x": -0.0866739729,
				"y": 0.9235137038,
				"z": 1.8601422046,
				"element": "N" 
			},
			{
				"x": -0.3696013964,
				"y": 2.2624771859,
				"z": 1.4939389388,
				"element": "C" 
			},
			{
				"x": -1.1093495627,
				"y": 2.6016958684,
				"z": 0.351784936,
				"element": "C" 
			},
			{
				"x": -1.3737601809,
				"y": 3.9413685298,
				"z": 0.0686714754,
				"element": "C" 
			},
			{
				"x": -0.9359918499,
				"y": 4.95421221,
				"z": 0.9243769097,
				"element": "C" 
			},
			{
				"x": -0.2215127776,
				"y": 4.6154167542,
				"z": 2.0745576493,
				"element": "C" 
			},
			{
				"x": 0.0679909824,
				"y": 3.2810203669,
				"z": 2.3544928161,
				"element": "C" 
			},
			{
				"x": -0.4623244497,
				"y": -0.9794837472,
				"z": -1.3302686605,
				"element": "C" 
			},
			{
				"x": -1.8828515156,
				"y": -1.3038999542,
				"z": -0.766641528,
				"element": "C" 
			},
			{
				"x": -2.439927257,
				"y": -2.6325879213,
				"z": -1.3007024055,
				"element": "C" 
			},
			{
				"x": -1.5862289423,
				"y": -3.8317530219,
				"z": -0.8302009625,
				"element": "C" 
			},
			{
				"x": -0.0845123952,
				"y": -3.4687205147,
				"z": -0.7222930746,
				"element": "C" 
			},
			{
				"x": 0.2774413074,
				"y": -2.3233283521,
				"z": -1.6749932421,
				"element": "C" 
			},
			{
				"x": -0.5683980336,
				"y": -0.1449660476,
				"z": -2.6279800314,
				"element": "C" 
			},
			{
				"x": -1.7129528687,
				"y": -0.2229029679,
				"z": -3.4613324899,
				"element": "C" 
			},
			{
				"x": -2.6386111467,
				"y": -0.2800999631,
				"z": -4.1713713457,
				"element": "N" 
			},
			{
				"x": 0.5054075672,
				"y": 0.5845900479,
				"z": -3.0482980519,
				"element": "C" 
			},
			{
				"x": 0.6782305022,
				"y": 1.4485785386,
				"z": -4.5916812444,
				"element": "S" 
			},
			{
				"x": 1.5705225729,
				"y": 0.7669449797,
				"z": -2.1937221516,
				"element": "N" 
			},
			{
				"x": 2.2917390785,
				"y": 2.4286956576,
				"z": -0.0381598715,
				"element": "H" 
			},
			{
				"x": 2.4449428521,
				"y": 1.0301622075,
				"z": 1.0381262559,
				"element": "H" 
			},
			{
				"x": 3.4473847236,
				"y": 1.1370188048,
				"z": -0.4104341827,
				"element": "H" 
			},
			{
				"x": -0.1000162695,
				"y": 0.7226672742,
				"z": 2.8537790895,
				"element": "H" 
			},
			{
				"x": -1.4801020422,
				"y": 1.8258678971,
				"z": -0.3060529398,
				"element": "H" 
			},
			{
				"x": -1.9456534427,
				"y": 4.1893757901,
				"z": -0.8207310747,
				"element": "H" 
			},
			{
				"x": -1.1565044852,
				"y": 5.9935491794,
				"z": 0.7015185648,
				"element": "H" 
			},
			{
				"x": 0.1207239999,
				"y": 5.3901405562,
				"z": 2.7545543243,
				"element": "H" 
			},
			{
				"x": 0.6382619614,
				"y": 3.01970314,
				"z": 3.2422395666,
				"element": "H" 
			},
			{
				"x": -1.8273803142,
				"y": -1.380050532,
				"z": 0.322084012,
				"element": "H" 
			},
			{
				"x": -2.5692490788,
				"y": -0.4803913025,
				"z": -0.9931719285,
				"element": "H" 
			},
			{
				"x": -2.4812605589,
				"y": -2.6019338483,
				"z": -2.394646096,
				"element": "H" 
			},
			{
				"x": -3.4767592754,
				"y": -2.7508495327,
				"z": -0.9670462502,
				"element": "H" 
			},
			{
				"x": -1.7282052994,
				"y": -4.6661931502,
				"z": -1.527405017,
				"element": "H" 
			},
			{
				"x": -1.9438475392,
				"y": -4.1814419181,
				"z": 0.145403176,
				"element": "H" 
			},
			{
				"x": 0.1573305868,
				"y": -3.1612714464,
				"z": 0.2984926138,
				"element": "H" 
			},
			{
				"x": 0.5352409769,
				"y": -4.3441345548,
				"z": -0.9480473635,
				"element": "H" 
			},
			{
				"x": 0.002558605,
				"y": -2.6044540886,
				"z": -2.7002812182,
				"element": "H" 
			},
			{
				"x": 1.3575187909,
				"y": -2.1446482512,
				"z": -1.6832567447,
				"element": "H" 
			},
			{
				"x": -0.2540331059,
				"y": 0.7414440228,
				"z": -5.2583806165,
				"element": "H" 
			},
			{
				"x": 2.3834127182,
				"y": 1.2605545769,
				"z": -2.5308712817,
				"element": "H" 
			}
		],
		 "valence_orbital": [ 
			{
				"type": "occ",
				"energy": -0.2679,
				"method": "rhf"
			},
			{
				"type": "occ",
				"energy": -0.26237,
				"method": "rhf"
			},
			{
				"type": "occ",
				"energy": -0.24146,
				"method": "rhf"
			},
			{
				"type": "occ",
				"energy": -0.2316,
				"method": "rhf"
			},
			{
				"type": "occ",
				"energy": -0.21176,
				"method": "rhf"
			},
			{
				"type": "unocc",
				"energy": -0.04559,
				"method": "rhf"
			},
			{
				"type": "unocc",
				"energy": -0.02,
				"method": "rhf"
			},
			{
				"type": "unocc",
				"energy": -0.0136,
				"method": "rhf"
			},
			{
				"type": "unocc",
				"energy": -0.00753,
				"method": "rhf"
			},
			{
				"type": "unocc",
				"energy": 0.00564,
				"method": "rhf"
			}
		],
		"cosmo_sigma_profile": { 
			"-0.025": 0.0,
			"-0.024": 0.0,
			"-0.023": 0.0,
			"-0.022": 0.0,
			"-0.021": 0.0,
			"-0.02": 0.0,
			"-0.019": 0.0,
			"-0.018": 0.0,
			"-0.017": 0.068841712005,
			"-0.016": 0.794805525182,
			"-0.015": 1.34997304653,
			"-0.014": 1.48754230469,
			"-0.013": 2.1125873247,
			"-0.012": 2.25571356282,
			"-0.011": 3.59089614675,
			"-0.01": 3.87953898504,
			"-0.009": 4.02159717199,
			"-0.008": 3.52363261317,
			"-0.007": 4.99043457425,
			"-0.006": 10.5830584188,
			"-0.005": 16.5107183561,
			"-0.004": 21.2931162646,
			"-0.003": 24.394244043,
			"-0.002": 34.0960165656,
			"-0.001": 41.1520658065,
			"0.0": 39.7217250657,
			"0.001": 38.5009989564,
			"0.002": 25.4344270964,
			"0.003": 16.9200586803,
			"0.004": 16.0383337136,
			"0.005": 14.5305364232,
			"0.006": 8.67496365297,
			"0.007": 4.05704616565,
			"0.008": 3.61279839111,
			"0.009": 4.12759592425,
			"0.01": 3.99454970594,
			"0.011": 4.87722717406,
			"0.012": 5.34529673288,
			"0.013": 5.72956021011,
			"0.014": 2.87151366311,
			"0.015": 0.0566188056591,
			"0.016": 0.0,
			"0.017": 0.0,
			"0.018": 0.0,
			"0.019": 0.0,
			"0.02": 0.0,
			"0.021": 0.0,
			"0.022": 0.0,
			"0.023": 0.0,
			"0.024": 0.0,
			"0.025": 0.0
		}
	}
}
