{
	 "smiles": "CN1C(=O)NC(=O)C2=C1N=CC(=C2)S(Cl)(=O)=O", 
	 "Tm": 488.15, 
	 "num_atms": 23, 
	 "gaussian": { 
		 "optdone": 1, 
		 "sigma_profile": "yes", 
		 "theory": "DFT", 
		 "functional": "B3LYP", 
		 "basiset": "6-31G**", 
		 "properties": { 
			 "R2extent": 6713.4527, 
			 "electric_dipole_moment_norm": 4.0282722413, 
			 "electric_quadrupole_moment_norm": 14.2340326032, 
			 "total_energy": -1631.97575141, 
			 "HOMO_LUMO_gap": 0.17304, 
			 "cosmo_polarized_energy": -17.15, 
			 "cosmo_cavitation_energy": 31.87, 
			 "cosmo_dispersion_energy": -23.92, 
			 "cosmo_repulsion_energy": 1.79, 
			 "cosmo_total_nonelectrostatic_energy": 9.74, 
			 "SMD_solvation_energy": 4.73 
		},
		"coords": [
			{
				"x": -1.099569932,
				"y": 1.813101562,
				"z": -2.2269443662,
				"element": "C" 
			},
			{
				"x": -1.5379735485,
				"y": 1.7633109517,
				"z": -0.8244385611,
				"element": "N" 
			},
			{
				"x": -2.7219470498,
				"y": 2.4334093576,
				"z": -0.4820386474,
				"element": "C" 
			},
			{
				"x": -3.3953902027,
				"y": 3.0497263176,
				"z": -1.2846594709,
				"element": "O" 
			},
			{
				"x": -3.0856878694,
				"y": 2.3468874297,
				"z": 0.8596574062,
				"element": "N" 
			},
			{
				"x": -2.4331159201,
				"y": 1.6886953142,
				"z": 1.897188246,
				"element": "C" 
			},
			{
				"x": -2.8616488726,
				"y": 1.6900027531,
				"z": 3.0371656231,
				"element": "O" 
			},
			{
				"x": -1.1974113965,
				"y": 1.0134779366,
				"z": 1.4581828087,
				"element": "C" 
			},
			{
				"x": -0.7886034743,
				"y": 1.0691670603,
				"z": 0.1042354284,
				"element": "C" 
			},
			{
				"x": 0.322539468,
				"y": 0.4636340114,
				"z": -0.3487645725,
				"element": "N" 
			},
			{
				"x": 1.067434825,
				"y": -0.2080955588,
				"z": 0.5239658955,
				"element": "C" 
			},
			{
				"x": 0.7374690122,
				"y": -0.3073826423,
				"z": 1.8822502396,
				"element": "C" 
			},
			{
				"x": -0.4139856604,
				"y": 0.3090859694,
				"z": 2.3630789847,
				"element": "C" 
			},
			{
				"x": 1.7781069113,
				"y": -1.244937056,
				"z": 2.9781911692,
				"element": "S" 
			},
			{
				"x": 3.0945261449,
				"y": 0.2641391882,
				"z": 3.7014071092,
				"element": "Cl" 
			},
			{
				"x": 0.9908995748,
				"y": -1.6840251026,
				"z": 4.1217574085,
				"element": "O" 
			},
			{
				"x": 2.5947974121,
				"y": -2.1542257463,
				"z": 2.1851668094,
				"element": "O" 
			},
			{
				"x": -0.1118747023,
				"y": 2.2725853274,
				"z": -2.2920875719,
				"element": "H" 
			},
			{
				"x": -1.8323370083,
				"y": 2.4038399852,
				"z": -2.7707628078,
				"element": "H" 
			},
			{
				"x": -1.0419836085,
				"y": 0.8025088555,
				"z": -2.6346653658,
				"element": "H" 
			},
			{
				"x": -3.942999195,
				"y": 2.8334181566,
				"z": 1.0954630053,
				"element": "H" 
			},
			{
				"x": 1.9570536644,
				"y": -0.6991646504,
				"z": 0.1388210325,
				"element": "H" 
			},
			{
				"x": -0.7172985723,
				"y": 0.2508405795,
				"z": 3.4033301975,
				"element": "H" 
			}
		],
		 "valence_orbital": [ 
			{
				"type": "occ",
				"energy": -0.32325,
				"method": "rhf"
			},
			{
				"type": "occ",
				"energy": -0.31811,
				"method": "rhf"
			},
			{
				"type": "occ",
				"energy": -0.31291,
				"method": "rhf"
			},
			{
				"type": "occ",
				"energy": -0.29053,
				"method": "rhf"
			},
			{
				"type": "occ",
				"energy": -0.27598,
				"method": "rhf"
			},
			{
				"type": "unocc",
				"energy": -0.10294,
				"method": "rhf"
			},
			{
				"type": "unocc",
				"energy": -0.09595,
				"method": "rhf"
			},
			{
				"type": "unocc",
				"energy": -0.06494,
				"method": "rhf"
			},
			{
				"type": "unocc",
				"energy": -0.01334,
				"method": "rhf"
			},
			{
				"type": "unocc",
				"energy": 0.01714,
				"method": "rhf"
			}
		],
		"cosmo_sigma_profile": { 
			"-0.025": 0.0,
			"-0.024": 0.0,
			"-0.023": 0.0,
			"-0.022": 0.0,
			"-0.021": 0.0,
			"-0.02": 0.0,
			"-0.019": 0.0,
			"-0.018": 0.0,
			"-0.017": 0.425917244038,
			"-0.016": 1.04834113941,
			"-0.015": 0.94240765012,
			"-0.014": 0.84211589184,
			"-0.013": 0.580269608443,
			"-0.012": 0.722226428408,
			"-0.011": 0.769544045772,
			"-0.01": 1.37468432022,
			"-0.009": 3.61852580344,
			"-0.008": 6.10696472688,
			"-0.007": 8.6069200418,
			"-0.006": 12.9462200401,
			"-0.005": 20.2042316225,
			"-0.004": 26.0258383222,
			"-0.003": 25.9641489502,
			"-0.002": 13.0576732794,
			"-0.001": 10.8984966,
			"0.0": 12.6680198059,
			"0.001": 11.3271593411,
			"0.002": 14.0450638266,
			"0.003": 18.0309171481,
			"0.004": 8.92570750011,
			"0.005": 5.63282831752,
			"0.006": 6.76959225869,
			"0.007": 11.6590795462,
			"0.008": 11.9492881375,
			"0.009": 5.71489538101,
			"0.01": 5.28533980974,
			"0.011": 9.24109057232,
			"0.012": 3.87126752431,
			"0.013": 0.0178493651,
			"0.014": 0.0,
			"0.015": 0.0,
			"0.016": 0.0,
			"0.017": 0.0,
			"0.018": 0.0,
			"0.019": 0.0,
			"0.02": 0.0,
			"0.021": 0.0,
			"0.022": 0.0,
			"0.023": 0.0,
			"0.024": 0.0,
			"0.025": 0.0
		}
	}
}
