{
	 "smiles": "FC1=C(Cl)C=C(C=C1)C#N", 
	 "Tm": 343.15, 
	 "num_atms": 13, 
	 "gaussian": { 
		 "optdone": 1, 
		 "sigma_profile": "yes", 
		 "theory": "DFT", 
		 "functional": "B3LYP", 
		 "basiset": "6-31G**", 
		 "properties": { 
			 "R2extent": 2427.4807, 
			 "electric_dipole_moment_norm": 2.80151069425, 
			 "electric_quadrupole_moment_norm": 19.4984984468, 
			 "total_energy": -883.307853897, 
			 "HOMO_LUMO_gap": 0.20605, 
			 "cosmo_polarized_energy": -8.34, 
			 "cosmo_cavitation_energy": 21.26, 
			 "cosmo_dispersion_energy": -15.15, 
			 "cosmo_repulsion_energy": 1.21, 
			 "cosmo_total_nonelectrostatic_energy": 7.32, 
			 "SMD_solvation_energy": 5.37 
		},
		"coords": [
			{
				"x": -1.3193297248,
				"y": 2.8622571255,
				"z": 0.5666443764,
				"element": "F" 
			},
			{
				"x": -0.2443178358,
				"y": 2.0731529655,
				"z": 0.6563273264,
				"element": "C" 
			},
			{
				"x": 0.355251453,
				"y": 1.5875789534,
				"z": -0.510482566,
				"element": "C" 
			},
			{
				"x": -0.3045493475,
				"y": 2.015942618,
				"z": -2.0633380641,
				"element": "Cl" 
			},
			{
				"x": 1.4741912945,
				"y": 0.7663376965,
				"z": -0.4145348925,
				"element": "C" 
			},
			{
				"x": 1.9884615363,
				"y": 0.434486243,
				"z": 0.8496769159,
				"element": "C" 
			},
			{
				"x": 1.3764189357,
				"y": 0.9291571716,
				"z": 2.0139446055,
				"element": "C" 
			},
			{
				"x": 0.2584942357,
				"y": 1.7494430963,
				"z": 1.9125651058,
				"element": "C" 
			},
			{
				"x": 3.1414988446,
				"y": -0.4118435661,
				"z": 0.9467624527,
				"element": "C" 
			},
			{
				"x": 4.0767847279,
				"y": -1.098179435,
				"z": 1.0297528484,
				"element": "N" 
			},
			{
				"x": 1.9426297903,
				"y": 0.3873825037,
				"z": -1.3151500683,
				"element": "H" 
			},
			{
				"x": 1.7787033518,
				"y": 0.6689383773,
				"z": 2.9863674026,
				"element": "H" 
			},
			{
				"x": -0.2369372616,
				"y": 2.1474462502,
				"z": 2.7910645573,
				"element": "H" 
			}
		],
		 "valence_orbital": [ 
			{
				"type": "occ",
				"energy": -0.34438,
				"method": "rhf"
			},
			{
				"type": "occ",
				"energy": -0.34416,
				"method": "rhf"
			},
			{
				"type": "occ",
				"energy": -0.33583,
				"method": "rhf"
			},
			{
				"type": "occ",
				"energy": -0.28761,
				"method": "rhf"
			},
			{
				"type": "occ",
				"energy": -0.26982,
				"method": "rhf"
			},
			{
				"type": "unocc",
				"energy": -0.06377,
				"method": "rhf"
			},
			{
				"type": "unocc",
				"energy": -0.04806,
				"method": "rhf"
			},
			{
				"type": "unocc",
				"energy": 0.00019,
				"method": "rhf"
			},
			{
				"type": "unocc",
				"energy": 0.02688,
				"method": "rhf"
			},
			{
				"type": "unocc",
				"energy": 0.0647,
				"method": "rhf"
			}
		],
		"cosmo_sigma_profile": { 
			"-0.025": 0.0,
			"-0.024": 0.0,
			"-0.023": 0.0,
			"-0.022": 0.0,
			"-0.021": 0.0,
			"-0.02": 0.0,
			"-0.019": 0.0,
			"-0.018": 0.0,
			"-0.017": 0.0,
			"-0.016": 0.0,
			"-0.015": 0.0,
			"-0.014": 0.0,
			"-0.013": 0.0,
			"-0.012": 0.0,
			"-0.011": 0.0,
			"-0.01": 1.09478700231,
			"-0.009": 5.47995323436,
			"-0.008": 6.56938561102,
			"-0.007": 6.1853387604,
			"-0.006": 5.21021645126,
			"-0.005": 5.10139297053,
			"-0.004": 6.30427696863,
			"-0.003": 11.3114864107,
			"-0.002": 19.3353024491,
			"-0.001": 20.6263364734,
			"0.0": 15.1251315863,
			"0.001": 10.4904185414,
			"0.002": 11.3483786024,
			"0.003": 19.0658861476,
			"0.004": 8.28547656347,
			"0.005": 3.23777676862,
			"0.006": 2.21366041019,
			"0.007": 2.97043061906,
			"0.008": 3.37502117062,
			"0.009": 3.26992240249,
			"0.01": 3.14247861823,
			"0.011": 2.52532342027,
			"0.012": 2.36148244963,
			"0.013": 0.878989989017,
			"0.014": 0.0,
			"0.015": 0.0,
			"0.016": 0.0,
			"0.017": 0.0,
			"0.018": 0.0,
			"0.019": 0.0,
			"0.02": 0.0,
			"0.021": 0.0,
			"0.022": 0.0,
			"0.023": 0.0,
			"0.024": 0.0,
			"0.025": 0.0
		}
	}
}
