{
	 "smiles": "[O-][N+](=O)C(Cl)(Cl)Cl", 
	 "Tm": 209.15, 
	 "num_atms": 7, 
	 "gaussian": { 
		 "optdone": 1, 
		 "sigma_profile": "yes", 
		 "theory": "DFT", 
		 "functional": "B3LYP", 
		 "basiset": "6-31G**", 
		 "properties": { 
			 "R2extent": 1359.3756, 
			 "electric_dipole_moment_norm": 1.69001503544, 
			 "electric_quadrupole_moment_norm": 4.18573424742, 
			 "total_energy": -1623.73561474, 
			 "HOMO_LUMO_gap": 0.21638, 
			 "cosmo_polarized_energy": -3.67, 
			 "cosmo_cavitation_energy": 17.6, 
			 "cosmo_dispersion_energy": -13.24, 
			 "cosmo_repulsion_energy": 1.13, 
			 "cosmo_total_nonelectrostatic_energy": 5.49, 
			 "SMD_solvation_energy": 4.29 
		},
		"coords": [
			{
				"x": -1.023279163,
				"y": 1.0902595538,
				"z": -2.2303708706,
				"element": "O" 
			},
			{
				"x": -0.8463408476,
				"y": 0.9108004508,
				"z": -1.0449288591,
				"element": "N" 
			},
			{
				"x": -0.7957972235,
				"y": 1.7328239715,
				"z": -0.1530206528,
				"element": "O" 
			},
			{
				"x": -0.647474778,
				"y": -0.6135798238,
				"z": -0.5537917559,
				"element": "C" 
			},
			{
				"x": -0.7401406028,
				"y": -1.6906219234,
				"z": -1.9416538993,
				"element": "Cl" 
			},
			{
				"x": -1.9503787044,
				"y": -0.9309272625,
				"z": 0.6090578358,
				"element": "Cl" 
			},
			{
				"x": 0.9488113193,
				"y": -0.6786549663,
				"z": 0.2195082019,
				"element": "Cl" 
			}
		],
		 "valence_orbital": [ 
			{
				"type": "occ",
				"energy": -0.35553,
				"method": "rhf"
			},
			{
				"type": "occ",
				"energy": -0.34592,
				"method": "rhf"
			},
			{
				"type": "occ",
				"energy": -0.33546,
				"method": "rhf"
			},
			{
				"type": "occ",
				"energy": -0.33062,
				"method": "rhf"
			},
			{
				"type": "occ",
				"energy": -0.3221,
				"method": "rhf"
			},
			{
				"type": "unocc",
				"energy": -0.10572,
				"method": "rhf"
			},
			{
				"type": "unocc",
				"energy": -0.06604,
				"method": "rhf"
			},
			{
				"type": "unocc",
				"energy": -0.01566,
				"method": "rhf"
			},
			{
				"type": "unocc",
				"energy": -0.00363,
				"method": "rhf"
			},
			{
				"type": "unocc",
				"energy": 0.01543,
				"method": "rhf"
			}
		],
		"cosmo_sigma_profile": { 
			"-0.025": 0.0,
			"-0.024": 0.0,
			"-0.023": 0.0,
			"-0.022": 0.0,
			"-0.021": 0.0,
			"-0.02": 0.0,
			"-0.019": 0.0,
			"-0.018": 0.0,
			"-0.017": 0.0,
			"-0.016": 0.0,
			"-0.015": 0.0,
			"-0.014": 0.0,
			"-0.013": 0.0,
			"-0.012": 0.0,
			"-0.011": 0.00933464971578,
			"-0.01": 0.710611321275,
			"-0.009": 1.65834888288,
			"-0.008": 1.42478199211,
			"-0.007": 1.64507432339,
			"-0.006": 5.39699645245,
			"-0.005": 6.65823691003,
			"-0.004": 8.71306698172,
			"-0.003": 7.88125441655,
			"-0.002": 9.45550110208,
			"-0.001": 13.6241668158,
			"0.0": 22.5827966239,
			"0.001": 27.7939926469,
			"0.002": 7.21596554433,
			"0.003": 6.6081490175,
			"0.004": 5.86945566686,
			"0.005": 12.5827463417,
			"0.006": 6.79431645242,
			"0.007": 1.54385390281,
			"0.008": 0.00414838962024,
			"0.009": 0.0,
			"0.01": 0.0,
			"0.011": 0.0,
			"0.012": 0.0,
			"0.013": 0.0,
			"0.014": 0.0,
			"0.015": 0.0,
			"0.016": 0.0,
			"0.017": 0.0,
			"0.018": 0.0,
			"0.019": 0.0,
			"0.02": 0.0,
			"0.021": 0.0,
			"0.022": 0.0,
			"0.023": 0.0,
			"0.024": 0.0,
			"0.025": 0.0
		}
	}
}
