{
	 "smiles": "NC(=O)C1=CNN=N1", 
	 "Tm": 530.15, 
	 "num_atms": 12, 
	 "gaussian": { 
		 "optdone": 1, 
		 "sigma_profile": "yes", 
		 "theory": "DFT", 
		 "functional": "B3LYP", 
		 "basiset": "6-31G**", 
		 "properties": { 
			 "R2extent": 1960.6464, 
			 "electric_dipole_moment_norm": 2.12126720146, 
			 "electric_quadrupole_moment_norm": 21.9922232746, 
			 "total_energy": -410.934872089, 
			 "HOMO_LUMO_gap": 0.2327, 
			 "cosmo_polarized_energy": -18.49, 
			 "cosmo_cavitation_energy": 17.11, 
			 "cosmo_dispersion_energy": -13.06, 
			 "cosmo_repulsion_energy": 1.11, 
			 "cosmo_total_nonelectrostatic_energy": 5.16, 
			 "SMD_solvation_energy": 3.1 
		},
		"coords": [
			{
				"x": -0.5175065905,
				"y": -0.0635353834,
				"z": -0.9608679182,
				"element": "N" 
			},
			{
				"x": -0.8387740541,
				"y": -0.6757610949,
				"z": 0.2098145723,
				"element": "C" 
			},
			{
				"x": -0.099304696,
				"y": -1.4380819826,
				"z": 0.8223664292,
				"element": "O" 
			},
			{
				"x": -2.1982818839,
				"y": -0.3418214055,
				"z": 0.7092612683,
				"element": "C" 
			},
			{
				"x": -2.8049525229,
				"y": -0.8011902149,
				"z": 1.8586633091,
				"element": "C" 
			},
			{
				"x": -4.0148001785,
				"y": -0.1985260371,
				"z": 1.8379829962,
				"element": "N" 
			},
			{
				"x": -4.1675443103,
				"y": 0.5918960822,
				"z": 0.7474636272,
				"element": "N" 
			},
			{
				"x": -3.0631635909,
				"y": 0.5009453188,
				"z": 0.0671493958,
				"element": "N" 
			},
			{
				"x": -1.1752150353,
				"y": 0.5537090103,
				"z": -1.4130942772,
				"element": "H" 
			},
			{
				"x": 0.388192739,
				"y": -0.2385794646,
				"z": -1.3658273518,
				"element": "H" 
			},
			{
				"x": -2.47129136,
				"y": -1.4722701513,
				"z": 2.6332560746,
				"element": "H" 
			},
			{
				"x": -4.7705585167,
				"y": -0.268284677,
				"z": 2.5046318746,
				"element": "H" 
			}
		],
		 "valence_orbital": [ 
			{
				"type": "occ",
				"energy": -0.31889,
				"method": "rhf"
			},
			{
				"type": "occ",
				"energy": -0.28765,
				"method": "rhf"
			},
			{
				"type": "occ",
				"energy": -0.27346,
				"method": "rhf"
			},
			{
				"type": "occ",
				"energy": -0.26493,
				"method": "rhf"
			},
			{
				"type": "occ",
				"energy": -0.25338,
				"method": "rhf"
			},
			{
				"type": "unocc",
				"energy": -0.02068,
				"method": "rhf"
			},
			{
				"type": "unocc",
				"energy": -0.01416,
				"method": "rhf"
			},
			{
				"type": "unocc",
				"energy": 0.05983,
				"method": "rhf"
			},
			{
				"type": "unocc",
				"energy": 0.09649,
				"method": "rhf"
			},
			{
				"type": "unocc",
				"energy": 0.11962,
				"method": "rhf"
			}
		],
		"cosmo_sigma_profile": { 
			"-0.025": 0.0,
			"-0.024": 0.0,
			"-0.023": 0.0,
			"-0.022": 0.0,
			"-0.021": 0.0,
			"-0.02": 0.0,
			"-0.019": 0.312093036895,
			"-0.018": 2.19411776847,
			"-0.017": 1.54320062644,
			"-0.016": 1.44597410383,
			"-0.015": 1.18631565142,
			"-0.014": 1.70155354885,
			"-0.013": 3.66481315807,
			"-0.012": 2.81089663398,
			"-0.011": 4.64811486293,
			"-0.01": 5.20656456428,
			"-0.009": 3.28278677752,
			"-0.008": 2.39941511139,
			"-0.007": 3.88475273489,
			"-0.006": 3.48714976063,
			"-0.005": 2.50150971932,
			"-0.004": 3.21732155057,
			"-0.003": 3.58877132061,
			"-0.002": 4.94289973928,
			"-0.001": 9.6904071066,
			"0.0": 10.8158716369,
			"0.001": 6.51826946614,
			"0.002": 4.8506769586,
			"0.003": 6.86009618768,
			"0.004": 4.25929893922,
			"0.005": 3.19888378785,
			"0.006": 3.98681573106,
			"0.007": 3.23576382063,
			"0.008": 2.91625790262,
			"0.009": 4.26860856554,
			"0.01": 5.47439278026,
			"0.011": 3.78949851416,
			"0.012": 4.61619204288,
			"0.013": 5.67819495804,
			"0.014": 4.24061422909,
			"0.015": 0.52775291233,
			"0.016": 0.0,
			"0.017": 0.0,
			"0.018": 0.0,
			"0.019": 0.0,
			"0.02": 0.0,
			"0.021": 0.0,
			"0.022": 0.0,
			"0.023": 0.0,
			"0.024": 0.0,
			"0.025": 0.0
		}
	}
}
