{
	 "smiles": "CC(C)CCC[C@@H](C)[C@H]1CC[C@H]2[C@@H]3CC=C4C[C@@H](O)CC[C@]4(C)[C@H]3CC[C@]12C", 
	 "Tm": 421.15, 
	 "num_atms": 74, 
	 "gaussian": { 
		 "optdone": 1, 
		 "sigma_profile": "yes", 
		 "theory": "DFT", 
		 "functional": "B3LYP", 
		 "basiset": "6-31G**", 
		 "properties": { 
			 "R2extent": 21685.3814, 
			 "electric_dipole_moment_norm": 1.49011189177, 
			 "electric_quadrupole_moment_norm": 15.7239794416, 
			 "total_energy": -1131.85769804, 
			 "HOMO_LUMO_gap": 0.25491, 
			 "cosmo_polarized_energy": -7.2, 
			 "cosmo_cavitation_energy": 62.55, 
			 "cosmo_dispersion_energy": -42.92, 
			 "cosmo_repulsion_energy": 3.18, 
			 "cosmo_total_nonelectrostatic_energy": 22.81, 
			 "SMD_solvation_energy": 8.42 
		},
		"coords": [
			{
				"x": -4.5938649053,
				"y": -5.3554708603,
				"z": -3.5521634538,
				"element": "C" 
			},
			{
				"x": -3.293232968,
				"y": -5.2725815404,
				"z": -4.3667106925,
				"element": "C" 
			},
			{
				"x": -2.4222152692,
				"y": -6.5193350224,
				"z": -4.1450783053,
				"element": "C" 
			},
			{
				"x": -2.5216276506,
				"y": -3.955595004,
				"z": -4.1216653562,
				"element": "C" 
			},
			{
				"x": -2.0110971761,
				"y": -3.7155976039,
				"z": -2.6918037086,
				"element": "C" 
			},
			{
				"x": -1.2556059952,
				"y": -2.3829875986,
				"z": -2.563621479,
				"element": "C" 
			},
			{
				"x": -0.8052758473,
				"y": -2.0074257552,
				"z": -1.1301577778,
				"element": "C" 
			},
			{
				"x": 0.2285490273,
				"y": -3.0203150284,
				"z": -0.6100099673,
				"element": "C" 
			},
			{
				"x": -0.296477342,
				"y": -0.543013008,
				"z": -1.0959612306,
				"element": "C" 
			},
			{
				"x": -1.3823539248,
				"y": 0.4804284619,
				"z": -1.574749439,
				"element": "C" 
			},
			{
				"x": -1.1301267041,
				"y": 1.809321498,
				"z": -0.8119478647,
				"element": "C" 
			},
			{
				"x": 0.2219133937,
				"y": 1.5799908571,
				"z": -0.1220830748,
				"element": "C" 
			},
			{
				"x": 0.6536836793,
				"y": 2.535654214,
				"z": 0.9974217415,
				"element": "C" 
			},
			{
				"x": 0.6731658148,
				"y": 3.9904466306,
				"z": 0.5014630104,
				"element": "C" 
			},
			{
				"x": 1.4409951877,
				"y": 4.9111368825,
				"z": 1.4058681843,
				"element": "C" 
			},
			{
				"x": 2.2568293602,
				"y": 4.5193882151,
				"z": 2.3926947768,
				"element": "C" 
			},
			{
				"x": 2.9540477814,
				"y": 5.5431783013,
				"z": 3.2667834877,
				"element": "C" 
			},
			{
				"x": 4.4716215434,
				"y": 5.315420879,
				"z": 3.3466033143,
				"element": "C" 
			},
			{
				"x": 5.0915735927,
				"y": 6.1920025373,
				"z": 4.2836425343,
				"element": "O" 
			},
			{
				"x": 4.7585290671,
				"y": 3.8870809138,
				"z": 3.7935555012,
				"element": "C" 
			},
			{
				"x": 4.0877433858,
				"y": 2.8716129559,
				"z": 2.8585978508,
				"element": "C" 
			},
			{
				"x": 2.5448889275,
				"y": 3.0436311824,
				"z": 2.7019426451,
				"element": "C" 
			},
			{
				"x": 1.8438082235,
				"y": 2.6679163942,
				"z": 4.0333134658,
				"element": "C" 
			},
			{
				"x": 2.0597860129,
				"y": 2.1379855545,
				"z": 1.516718907,
				"element": "C" 
			},
			{
				"x": 2.1580421997,
				"y": 0.6246254637,
				"z": 1.816113219,
				"element": "C" 
			},
			{
				"x": 1.6540137469,
				"y": -0.2800364651,
				"z": 0.67300569,
				"element": "C" 
			},
			{
				"x": 0.2114020584,
				"y": 0.0718038609,
				"z": 0.2550838103,
				"element": "C" 
			},
			{
				"x": -0.7830048369,
				"y": -0.2450256031,
				"z": 1.3943569575,
				"element": "C" 
			},
			{
				"x": -5.2249148897,
				"y": -4.474663383,
				"z": -3.7164660657,
				"element": "H" 
			},
			{
				"x": -5.1757723804,
				"y": -6.2398607438,
				"z": -3.8341078183,
				"element": "H" 
			},
			{
				"x": -4.3940303548,
				"y": -5.4264053614,
				"z": -2.4771590676,
				"element": "H" 
			},
			{
				"x": -3.577594608,
				"y": -5.2625528361,
				"z": -5.4291701436,
				"element": "H" 
			},
			{
				"x": -1.4980690465,
				"y": -6.470666554,
				"z": -4.7321054555,
				"element": "H" 
			},
			{
				"x": -2.1425878425,
				"y": -6.6359495138,
				"z": -3.0920826462,
				"element": "H" 
			},
			{
				"x": -2.9580401729,
				"y": -7.4277728273,
				"z": -4.4415709629,
				"element": "H" 
			},
			{
				"x": -1.6651066827,
				"y": -3.9231401219,
				"z": -4.8100846856,
				"element": "H" 
			},
			{
				"x": -3.1702629491,
				"y": -3.1159150092,
				"z": -4.4092919455,
				"element": "H" 
			},
			{
				"x": -1.3639931309,
				"y": -4.5474567779,
				"z": -2.3920175983,
				"element": "H" 
			},
			{
				"x": -2.8554634064,
				"y": -3.7134736178,
				"z": -1.9894127451,
				"element": "H" 
			},
			{
				"x": -1.9047098214,
				"y": -1.5926766447,
				"z": -2.9573788533,
				"element": "H" 
			},
			{
				"x": -0.3716807746,
				"y": -2.4012652835,
				"z": -3.2191231933,
				"element": "H" 
			},
			{
				"x": -1.6946694168,
				"y": -2.0684462021,
				"z": -0.484734886,
				"element": "H" 
			},
			{
				"x": -0.134504676,
				"y": -4.0469058093,
				"z": -0.7132210413,
				"element": "H" 
			},
			{
				"x": 0.4576914895,
				"y": -2.8696867513,
				"z": 0.4469953615,
				"element": "H" 
			},
			{
				"x": 1.1687575823,
				"y": -2.9443364709,
				"z": -1.1698074637,
				"element": "H" 
			},
			{
				"x": 0.552931566,
				"y": -0.4856413659,
				"z": -1.7945760303,
				"element": "H" 
			},
			{
				"x": -2.387854149,
				"y": 0.096438466,
				"z": -1.3671970196,
				"element": "H" 
			},
			{
				"x": -1.3284289045,
				"y": 0.6293287869,
				"z": -2.657018817,
				"element": "H" 
			},
			{
				"x": -1.9168245508,
				"y": 1.9943476655,
				"z": -0.0706537567,
				"element": "H" 
			},
			{
				"x": -1.1185688109,
				"y": 2.6759651302,
				"z": -1.4799152952,
				"element": "H" 
			},
			{
				"x": 0.9909707562,
				"y": 1.6738166485,
				"z": -0.9078289498,
				"element": "H" 
			},
			{
				"x": -0.0664749185,
				"y": 2.4726544849,
				"z": 1.8252038258,
				"element": "H" 
			},
			{
				"x": 1.1103806702,
				"y": 4.0280025881,
				"z": -0.5102225194,
				"element": "H" 
			},
			{
				"x": -0.3532484624,
				"y": 4.3629830666,
				"z": 0.3845433011,
				"element": "H" 
			},
			{
				"x": 1.3086146567,
				"y": 5.9796083652,
				"z": 1.2326993344,
				"element": "H" 
			},
			{
				"x": 2.7415584428,
				"y": 6.5531038957,
				"z": 2.8928436668,
				"element": "H" 
			},
			{
				"x": 2.5733751867,
				"y": 5.5035337916,
				"z": 4.2973099846,
				"element": "H" 
			},
			{
				"x": 4.9026896791,
				"y": 5.4639832013,
				"z": 2.3409093187,
				"element": "H" 
			},
			{
				"x": 4.9132865371,
				"y": 7.0991413385,
				"z": 4.003174104,
				"element": "H" 
			},
			{
				"x": 4.4045554012,
				"y": 3.771490045,
				"z": 4.8254107019,
				"element": "H" 
			},
			{
				"x": 5.8416012914,
				"y": 3.7222556873,
				"z": 3.8151654887,
				"element": "H" 
			},
			{
				"x": 4.5449204166,
				"y": 2.9602394206,
				"z": 1.8635078726,
				"element": "H" 
			},
			{
				"x": 4.3081512926,
				"y": 1.8582485401,
				"z": 3.2111807873,
				"element": "H" 
			},
			{
				"x": 0.7553818974,
				"y": 2.6640405051,
				"z": 3.9207310436,
				"element": "H" 
			},
			{
				"x": 2.0816582005,
				"y": 3.3806630288,
				"z": 4.826734898,
				"element": "H" 
			},
			{
				"x": 2.1548414351,
				"y": 1.6799320258,
				"z": 4.3862355219,
				"element": "H" 
			},
			{
				"x": 2.7498397145,
				"y": 2.3424609908,
				"z": 0.6818440915,
				"element": "H" 
			},
			{
				"x": 1.5912432817,
				"y": 0.3882678462,
				"z": 2.722719478,
				"element": "H" 
			},
			{
				"x": 3.1980136305,
				"y": 0.35891787,
				"z": 2.0364613525,
				"element": "H" 
			},
			{
				"x": 1.7436395084,
				"y": -1.3231968791,
				"z": 0.9916652138,
				"element": "H" 
			},
			{
				"x": 2.3105375298,
				"y": -0.1652939535,
				"z": -0.2012584765,
				"element": "H" 
			},
			{
				"x": -1.8174310956,
				"y": -0.036243997,
				"z": 1.1055857843,
				"element": "H" 
			},
			{
				"x": -0.7311522692,
				"y": -1.3030007825,
				"z": 1.6708141137,
				"element": "H" 
			},
			{
				"x": -0.5789672353,
				"y": 0.3335861841,
				"z": 2.2985574455,
				"element": "H" 
			}
		],
		 "valence_orbital": [ 
			{
				"type": "occ",
				"energy": -0.28683,
				"method": "rhf"
			},
			{
				"type": "occ",
				"energy": -0.27382,
				"method": "rhf"
			},
			{
				"type": "occ",
				"energy": -0.26461,
				"method": "rhf"
			},
			{
				"type": "occ",
				"energy": -0.25954,
				"method": "rhf"
			},
			{
				"type": "occ",
				"energy": -0.22637,
				"method": "rhf"
			},
			{
				"type": "unocc",
				"energy": 0.02854,
				"method": "rhf"
			},
			{
				"type": "unocc",
				"energy": 0.07336,
				"method": "rhf"
			},
			{
				"type": "unocc",
				"energy": 0.08143,
				"method": "rhf"
			},
			{
				"type": "unocc",
				"energy": 0.08278,
				"method": "rhf"
			},
			{
				"type": "unocc",
				"energy": 0.08349,
				"method": "rhf"
			}
		],
		"cosmo_sigma_profile": { 
			"-0.025": 0.0,
			"-0.024": 0.0,
			"-0.023": 0.0,
			"-0.022": 0.0,
			"-0.021": 0.0,
			"-0.02": 0.0,
			"-0.019": 0.0,
			"-0.018": 0.0,
			"-0.017": 0.0,
			"-0.016": 0.0029788581822,
			"-0.015": 0.622918157595,
			"-0.014": 0.861435645129,
			"-0.013": 1.22569550248,
			"-0.012": 0.965282730139,
			"-0.011": 0.604456394123,
			"-0.01": 0.749034802182,
			"-0.009": 0.904455803004,
			"-0.008": 1.06626963313,
			"-0.007": 1.01384889886,
			"-0.006": 1.2109651334,
			"-0.005": 1.14277308548,
			"-0.004": 3.41367778681,
			"-0.003": 19.8028828822,
			"-0.002": 65.827786267,
			"-0.001": 104.575205679,
			"0.0": 110.578661828,
			"0.001": 80.0243524024,
			"0.002": 45.9265082892,
			"0.003": 9.84689953669,
			"0.004": 5.20237052478,
			"0.005": 3.42461276254,
			"0.006": 3.07379682838,
			"0.007": 3.01260349413,
			"0.008": 1.28263637968,
			"0.009": 1.15387156338,
			"0.01": 0.72741489706,
			"0.011": 1.57630139394,
			"0.012": 1.63750108104,
			"0.013": 1.51409347452,
			"0.014": 2.01617636588,
			"0.015": 1.09121823559,
			"0.016": 0.0,
			"0.017": 0.0,
			"0.018": 0.0,
			"0.019": 0.0,
			"0.02": 0.0,
			"0.021": 0.0,
			"0.022": 0.0,
			"0.023": 0.0,
			"0.024": 0.0,
			"0.025": 0.0
		}
	}
}
