{
	 "smiles": "CC(=O)NCC1=CC(=CC=C1)C(O)=O", 
	 "Tm": 440.15, 
	 "num_atms": 25, 
	 "gaussian": { 
		 "optdone": 1, 
		 "sigma_profile": "yes", 
		 "theory": "DFT", 
		 "functional": "B3LYP", 
		 "basiset": "6-31G**", 
		 "properties": { 
			 "R2extent": 3876.0477, 
			 "electric_dipole_moment_norm": 6.93650977582, 
			 "electric_quadrupole_moment_norm": 17.2549915593, 
			 "total_energy": -668.140720294, 
			 "HOMO_LUMO_gap": 0.18851, 
			 "cosmo_polarized_energy": -23.45, 
			 "cosmo_cavitation_energy": 29.98, 
			 "cosmo_dispersion_energy": -21.22, 
			 "cosmo_repulsion_energy": 1.7, 
			 "cosmo_total_nonelectrostatic_energy": 10.46, 
			 "SMD_solvation_energy": 7.02 
		},
		"coords": [
			{
				"x": -0.6423587279,
				"y": 3.2801183828,
				"z": 0.1115099973,
				"element": "C" 
			},
			{
				"x": 0.4344921594,
				"y": 2.7712360004,
				"z": -0.8351642582,
				"element": "C" 
			},
			{
				"x": 1.4350512303,
				"y": 3.424725198,
				"z": -1.0934677903,
				"element": "O" 
			},
			{
				"x": 0.2548852709,
				"y": 1.5227076431,
				"z": -1.3901461311,
				"element": "N" 
			},
			{
				"x": -0.9194448391,
				"y": 0.6702421568,
				"z": -1.3503952169,
				"element": "C" 
			},
			{
				"x": -0.5893752018,
				"y": -0.7860759917,
				"z": -1.0611225042,
				"element": "C" 
			},
			{
				"x": 0.3294289663,
				"y": -1.1286928515,
				"z": -0.0664000105,
				"element": "C" 
			},
			{
				"x": 0.6145757709,
				"y": -2.4694133813,
				"z": 0.2159451719,
				"element": "C" 
			},
			{
				"x": -0.0495496651,
				"y": -3.4830589606,
				"z": -0.4904785855,
				"element": "C" 
			},
			{
				"x": -0.9721374605,
				"y": -3.1496364537,
				"z": -1.480242681,
				"element": "C" 
			},
			{
				"x": -1.2318966013,
				"y": -1.8093121392,
				"z": -1.7692309013,
				"element": "C" 
			},
			{
				"x": 1.6039696291,
				"y": -2.7519381185,
				"z": 1.3091421383,
				"element": "C" 
			},
			{
				"x": 2.2024786829,
				"y": -3.9733141312,
				"z": 1.2903468973,
				"element": "O" 
			},
			{
				"x": 1.875944484,
				"y": -1.9583111664,
				"z": 2.178202329,
				"element": "O" 
			},
			{
				"x": -0.3038301607,
				"y": 4.2371692984,
				"z": 0.5068794633,
				"element": "H" 
			},
			{
				"x": -1.596538184,
				"y": 3.4276510727,
				"z": -0.4058484905,
				"element": "H" 
			},
			{
				"x": -0.8139704775,
				"y": 2.5893575708,
				"z": 0.9437107768,
				"element": "H" 
			},
			{
				"x": 0.9914365966,
				"y": 1.2727607144,
				"z": -2.0386574568,
				"element": "H" 
			},
			{
				"x": -1.5872215019,
				"y": 1.0482728096,
				"z": -0.5709425958,
				"element": "H" 
			},
			{
				"x": -1.4833319944,
				"y": 0.7279468174,
				"z": -2.2930757339,
				"element": "H" 
			},
			{
				"x": 0.8457112449,
				"y": -0.3596468963,
				"z": 0.4984715871,
				"element": "H" 
			},
			{
				"x": 0.1164325862,
				"y": -4.5307138781,
				"z": -0.2517620308,
				"element": "H" 
			},
			{
				"x": -1.4895445243,
				"y": -3.9328176324,
				"z": -2.0258830936,
				"element": "H" 
			},
			{
				"x": -1.9447083233,
				"y": -1.5555685627,
				"z": -2.5500583188,
				"element": "H" 
			},
			{
				"x": 2.0149010403,
				"y": -4.4243875008,
				"z": 0.4556674382,
				"element": "H" 
			}
		],
		 "valence_orbital": [ 
			{
				"type": "occ",
				"energy": -0.28316,
				"method": "rhf"
			},
			{
				"type": "occ",
				"energy": -0.27813,
				"method": "rhf"
			},
			{
				"type": "occ",
				"energy": -0.27071,
				"method": "rhf"
			},
			{
				"type": "occ",
				"energy": -0.25323,
				"method": "rhf"
			},
			{
				"type": "occ",
				"energy": -0.24553,
				"method": "rhf"
			},
			{
				"type": "unocc",
				"energy": -0.05702,
				"method": "rhf"
			},
			{
				"type": "unocc",
				"energy": -0.03255,
				"method": "rhf"
			},
			{
				"type": "unocc",
				"energy": 0.02577,
				"method": "rhf"
			},
			{
				"type": "unocc",
				"energy": 0.03899,
				"method": "rhf"
			},
			{
				"type": "unocc",
				"energy": 0.05758,
				"method": "rhf"
			}
		],
		"cosmo_sigma_profile": { 
			"-0.025": 0.0,
			"-0.024": 0.0,
			"-0.023": 0.0,
			"-0.022": 0.0,
			"-0.021": 0.0,
			"-0.02": 0.0,
			"-0.019": 0.0177357737952,
			"-0.018": 0.82073240365,
			"-0.017": 1.04854610444,
			"-0.016": 1.17164381002,
			"-0.015": 0.701023354645,
			"-0.014": 0.924795123682,
			"-0.013": 2.12518404141,
			"-0.012": 2.1111634313,
			"-0.011": 2.08201873232,
			"-0.01": 1.64903931048,
			"-0.009": 2.46146006253,
			"-0.008": 2.64313368453,
			"-0.007": 8.47091060582,
			"-0.006": 17.6021070281,
			"-0.005": 19.3619342605,
			"-0.004": 18.2696167725,
			"-0.003": 17.3184209627,
			"-0.002": 14.2306005483,
			"-0.001": 17.036229307,
			"0.0": 11.887818461,
			"0.001": 10.3042933593,
			"0.002": 12.1524036807,
			"0.003": 14.6458016305,
			"0.004": 7.12083967803,
			"0.005": 3.48970306388,
			"0.006": 3.69814828627,
			"0.007": 3.27181907773,
			"0.008": 4.30297691172,
			"0.009": 4.98791363535,
			"0.01": 5.65974520656,
			"0.011": 6.69015058484,
			"0.012": 6.54312116256,
			"0.013": 4.75720514138,
			"0.014": 6.17103966625,
			"0.015": 2.17267535957,
			"0.016": 0.0549518425591,
			"0.017": 0.0,
			"0.018": 0.0,
			"0.019": 0.0,
			"0.02": 0.0,
			"0.021": 0.0,
			"0.022": 0.0,
			"0.023": 0.0,
			"0.024": 0.0,
			"0.025": 0.0
		}
	}
}
