{
	 "smiles": "COC1=C(C=CC(OCC(O)=O)=C1)[N+]([O-])=O", 
	 "Tm": 469.15, 
	 "num_atms": 25, 
	 "gaussian": { 
		 "optdone": 1, 
		 "sigma_profile": "yes", 
		 "theory": "DFT", 
		 "functional": "B3LYP", 
		 "basiset": "6-31G**", 
		 "properties": { 
			 "R2extent": 5022.456, 
			 "electric_dipole_moment_norm": 6.18306821085, 
			 "electric_quadrupole_moment_norm": 25.6367378461, 
			 "total_energy": -854.351502677, 
			 "HOMO_LUMO_gap": 0.1688, 
			 "cosmo_polarized_energy": -20.12, 
			 "cosmo_cavitation_energy": 30.82, 
			 "cosmo_dispersion_energy": -21.69, 
			 "cosmo_repulsion_energy": 1.71, 
			 "cosmo_total_nonelectrostatic_energy": 10.84, 
			 "SMD_solvation_energy": 9.91 
		},
		"coords": [
			{
				"x": 1.9459660493,
				"y": -0.8328213663,
				"z": 1.9419027363,
				"element": "C" 
			},
			{
				"x": 0.8131411138,
				"y": -1.6200461759,
				"z": 2.2955496493,
				"element": "O" 
			},
			{
				"x": -0.1555027615,
				"y": -1.8291313495,
				"z": 1.3856149578,
				"element": "C" 
			},
			{
				"x": -1.2614107404,
				"y": -2.6467898417,
				"z": 1.7241673814,
				"element": "C" 
			},
			{
				"x": -2.2619844839,
				"y": -2.8987423421,
				"z": 0.7784640187,
				"element": "C" 
			},
			{
				"x": -2.2107102438,
				"y": -2.3518301738,
				"z": -0.4893407656,
				"element": "C" 
			},
			{
				"x": -1.1222462544,
				"y": -1.5369762026,
				"z": -0.8314142138,
				"element": "C" 
			},
			{
				"x": -1.1403839989,
				"y": -1.0388427399,
				"z": -2.1009137108,
				"element": "O" 
			},
			{
				"x": -0.0654515931,
				"y": -0.227308418,
				"z": -2.5333136559,
				"element": "C" 
			},
			{
				"x": -0.0081497637,
				"y": 1.157872845,
				"z": -1.891758047,
				"element": "C" 
			},
			{
				"x": -1.2294969261,
				"y": 1.6533077264,
				"z": -1.6305687217,
				"element": "O" 
			},
			{
				"x": 1.0268747449,
				"y": 1.7505143335,
				"z": -1.6829409847,
				"element": "O" 
			},
			{
				"x": -0.1025372681,
				"y": -1.2835607783,
				"z": 0.0905673919,
				"element": "C" 
			},
			{
				"x": -1.4277018151,
				"y": -3.2567485175,
				"z": 3.04232998,
				"element": "N" 
			},
			{
				"x": -2.2728046015,
				"y": -4.153812067,
				"z": 3.1424049444,
				"element": "O" 
			},
			{
				"x": -0.7438650986,
				"y": -2.8474719115,
				"z": 3.9781057168,
				"element": "O" 
			},
			{
				"x": 2.5042430463,
				"y": -1.2810028059,
				"z": 1.1112267438,
				"element": "H" 
			},
			{
				"x": 2.5738977186,
				"y": -0.8152994487,
				"z": 2.8326325977,
				"element": "H" 
			},
			{
				"x": 1.6592328922,
				"y": 0.1921052893,
				"z": 1.6788478638,
				"element": "H" 
			},
			{
				"x": -3.0815237614,
				"y": -3.5391464601,
				"z": 1.0784960389,
				"element": "H" 
			},
			{
				"x": -2.9881811902,
				"y": -2.5345836811,
				"z": -1.2214025536,
				"element": "H" 
			},
			{
				"x": 0.9065937098,
				"y": -0.7079061057,
				"z": -2.383475091,
				"element": "H" 
			},
			{
				"x": -0.2184223524,
				"y": -0.0913745446,
				"z": -3.6084795949,
				"element": "H" 
			},
			{
				"x": -1.0957487252,
				"y": 2.5339132497,
				"z": -1.2398612134,
				"element": "H" 
			},
			{
				"x": 0.7369723035,
				"y": -0.6593185139,
				"z": -0.1773414684,
				"element": "H" 
			}
		],
		 "valence_orbital": [ 
			{
				"type": "occ",
				"energy": -0.29013,
				"method": "rhf"
			},
			{
				"type": "occ",
				"energy": -0.28875,
				"method": "rhf"
			},
			{
				"type": "occ",
				"energy": -0.27128,
				"method": "rhf"
			},
			{
				"type": "occ",
				"energy": -0.26215,
				"method": "rhf"
			},
			{
				"type": "occ",
				"energy": -0.23936,
				"method": "rhf"
			},
			{
				"type": "unocc",
				"energy": -0.07056,
				"method": "rhf"
			},
			{
				"type": "unocc",
				"energy": -0.02765,
				"method": "rhf"
			},
			{
				"type": "unocc",
				"energy": -0.01104,
				"method": "rhf"
			},
			{
				"type": "unocc",
				"energy": 0.01237,
				"method": "rhf"
			},
			{
				"type": "unocc",
				"energy": 0.05253,
				"method": "rhf"
			}
		],
		"cosmo_sigma_profile": { 
			"-0.025": 0.0,
			"-0.024": 0.0,
			"-0.023": 0.0,
			"-0.022": 0.0,
			"-0.021": 0.0,
			"-0.02": 0.0,
			"-0.019": 0.659885742934,
			"-0.018": 1.0099002372,
			"-0.017": 0.968129126187,
			"-0.016": 0.805201887221,
			"-0.015": 0.458780278237,
			"-0.014": 0.721239304582,
			"-0.013": 0.609583910346,
			"-0.012": 1.24758999135,
			"-0.011": 1.05238491336,
			"-0.01": 2.22913419007,
			"-0.009": 4.35132409025,
			"-0.008": 5.99854458035,
			"-0.007": 12.7755666731,
			"-0.006": 17.3428701554,
			"-0.005": 16.7908519473,
			"-0.004": 17.9283203503,
			"-0.003": 12.0858566494,
			"-0.002": 10.7816740675,
			"-0.001": 13.6736631699,
			"0.0": 15.2694590568,
			"0.001": 15.7619326151,
			"0.002": 13.4976615299,
			"0.003": 9.02116459885,
			"0.004": 5.80041320661,
			"0.005": 5.69129269148,
			"0.006": 7.18494840461,
			"0.007": 8.24479435094,
			"0.008": 11.4097739345,
			"0.009": 11.5489846502,
			"0.01": 8.879091509,
			"0.011": 8.87530002271,
			"0.012": 2.93135195192,
			"0.013": 0.182171244525,
			"0.014": 0.0,
			"0.015": 0.0,
			"0.016": 0.0,
			"0.017": 0.0,
			"0.018": 0.0,
			"0.019": 0.0,
			"0.02": 0.0,
			"0.021": 0.0,
			"0.022": 0.0,
			"0.023": 0.0,
			"0.024": 0.0,
			"0.025": 0.0
		}
	}
}
