{
	 "smiles": "CC1=CC(=O)NC2=C(N=NC3=CC=C(O)C=C3)C(N)=NN12", 
	 "Tm": 558.15, 
	 "num_atms": 33, 
	 "gaussian": { 
		 "optdone": 1, 
		 "sigma_profile": "yes", 
		 "theory": "DFT", 
		 "functional": "B3LYP", 
		 "basiset": "6-31G**", 
		 "properties": { 
			 "R2extent": 8402.6039, 
			 "electric_dipole_moment_norm": 5.19074999398, 
			 "electric_quadrupole_moment_norm": 20.5196668206, 
			 "total_energy": -981.538801418, 
			 "HOMO_LUMO_gap": 0.12895, 
			 "cosmo_polarized_energy": -21.62, 
			 "cosmo_cavitation_energy": 38.94, 
			 "cosmo_dispersion_energy": -28.29, 
			 "cosmo_repulsion_energy": 2.16, 
			 "cosmo_total_nonelectrostatic_energy": 12.8, 
			 "SMD_solvation_energy": 5.79 
		},
		"coords": [
			{
				"x": 2.2986513237,
				"y": -2.847706258,
				"z": 4.3871110266,
				"element": "C" 
			},
			{
				"x": 1.2773952661,
				"y": -2.6561715386,
				"z": 3.3110694207,
				"element": "C" 
			},
			{
				"x": 0.2257613931,
				"y": -3.4874603845,
				"z": 3.0624070247,
				"element": "C" 
			},
			{
				"x": -0.7461384931,
				"y": -3.2559621432,
				"z": 1.9968357356,
				"element": "C" 
			},
			{
				"x": -1.7059199044,
				"y": -3.964363188,
				"z": 1.7302752764,
				"element": "O" 
			},
			{
				"x": -0.4877932764,
				"y": -2.0863463433,
				"z": 1.246860054,
				"element": "N" 
			},
			{
				"x": 0.5562979387,
				"y": -1.2595233691,
				"z": 1.4930721569,
				"element": "C" 
			},
			{
				"x": 0.9949196828,
				"y": -0.0704425722,
				"z": 0.9006080961,
				"element": "C" 
			},
			{
				"x": 0.4761843719,
				"y": 0.6583678056,
				"z": -0.1359882503,
				"element": "N" 
			},
			{
				"x": -0.5740926131,
				"y": 0.1574754301,
				"z": -0.6621550291,
				"element": "N" 
			},
			{
				"x": -1.123302589,
				"y": 0.8943631543,
				"z": -1.7304291633,
				"element": "C" 
			},
			{
				"x": -0.5825051506,
				"y": 2.0836329297,
				"z": -2.2504085819,
				"element": "C" 
			},
			{
				"x": -1.2029618153,
				"y": 2.7312545886,
				"z": -3.3096642007,
				"element": "C" 
			},
			{
				"x": -2.3768213652,
				"y": 2.2041369645,
				"z": -3.8714660692,
				"element": "C" 
			},
			{
				"x": -3.0242415119,
				"y": 2.8011611561,
				"z": -4.9119910758,
				"element": "O" 
			},
			{
				"x": -2.9232238931,
				"y": 1.0200514128,
				"z": -3.3624731214,
				"element": "C" 
			},
			{
				"x": -2.2968073374,
				"y": 0.3764354916,
				"z": -2.3033464451,
				"element": "C" 
			},
			{
				"x": 2.165918227,
				"y": 0.2757717983,
				"z": 1.6628448713,
				"element": "C" 
			},
			{
				"x": 2.9695501879,
				"y": 1.3538335052,
				"z": 1.4061533207,
				"element": "N" 
			},
			{
				"x": 2.4298932987,
				"y": -0.5922722176,
				"z": 2.6322937358,
				"element": "N" 
			},
			{
				"x": 1.4211807616,
				"y": -1.5426156306,
				"z": 2.5088274831,
				"element": "N" 
			},
			{
				"x": 3.3016519305,
				"y": -2.9138450391,
				"z": 3.9544687374,
				"element": "H" 
			},
			{
				"x": 2.0849486905,
				"y": -3.7558958022,
				"z": 4.9522074175,
				"element": "H" 
			},
			{
				"x": 2.305491395,
				"y": -1.9888254792,
				"z": 5.0652623033,
				"element": "H" 
			},
			{
				"x": 0.0761384719,
				"y": -4.3721324506,
				"z": 3.666958205,
				"element": "H" 
			},
			{
				"x": -1.0991944473,
				"y": -1.8247256512,
				"z": 0.4788548785,
				"element": "H" 
			},
			{
				"x": 0.3251167459,
				"y": 2.4824815636,
				"z": -1.8126029544,
				"element": "H" 
			},
			{
				"x": -0.7789050879,
				"y": 3.6506434046,
				"z": -3.7093891483,
				"element": "H" 
			},
			{
				"x": -2.5475975479,
				"y": 3.6017356888,
				"z": -5.1675014589,
				"element": "H" 
			},
			{
				"x": -3.8298669107,
				"y": 0.6252786247,
				"z": -3.8081725784,
				"element": "H" 
			},
			{
				"x": -2.7071070743,
				"y": -0.5431890012,
				"z": -1.8976777564,
				"element": "H" 
			},
			{
				"x": 3.5668325603,
				"y": 1.6514084837,
				"z": 2.1635226032,
				"element": "H" 
			},
			{
				"x": 2.5366467719,
				"y": 2.0929450665,
				"z": 0.8723334865,
				"element": "H" 
			}
		],
		 "valence_orbital": [ 
			{
				"type": "occ",
				"energy": -0.25839,
				"method": "rhf"
			},
			{
				"type": "occ",
				"energy": -0.2529,
				"method": "rhf"
			},
			{
				"type": "occ",
				"energy": -0.23309,
				"method": "rhf"
			},
			{
				"type": "occ",
				"energy": -0.21326,
				"method": "rhf"
			},
			{
				"type": "occ",
				"energy": -0.1999,
				"method": "rhf"
			},
			{
				"type": "unocc",
				"energy": -0.07095,
				"method": "rhf"
			},
			{
				"type": "unocc",
				"energy": -0.03543,
				"method": "rhf"
			},
			{
				"type": "unocc",
				"energy": -0.00704,
				"method": "rhf"
			},
			{
				"type": "unocc",
				"energy": 0.01545,
				"method": "rhf"
			},
			{
				"type": "unocc",
				"energy": 0.03962,
				"method": "rhf"
			}
		],
		"cosmo_sigma_profile": { 
			"-0.025": 0.0,
			"-0.024": 0.0,
			"-0.023": 0.0,
			"-0.022": 0.0,
			"-0.021": 0.0,
			"-0.02": 0.0,
			"-0.019": 0.00699155815567,
			"-0.018": 0.826286876411,
			"-0.017": 1.2142345949,
			"-0.016": 0.877031685886,
			"-0.015": 1.16784512477,
			"-0.014": 1.82070270641,
			"-0.013": 2.66767826717,
			"-0.012": 2.63865540349,
			"-0.011": 3.24141669302,
			"-0.01": 4.46196558206,
			"-0.009": 3.62394872714,
			"-0.008": 4.518598424,
			"-0.007": 7.1885903185,
			"-0.006": 13.8755541136,
			"-0.005": 17.3892145244,
			"-0.004": 18.2809406689,
			"-0.003": 20.718171929,
			"-0.002": 23.2724274615,
			"-0.001": 22.205446184,
			"0.0": 17.4640166115,
			"0.001": 18.3799552278,
			"0.002": 19.6266759435,
			"0.003": 25.7476680187,
			"0.004": 24.6792001161,
			"0.005": 10.7246401542,
			"0.006": 6.12779152657,
			"0.007": 5.38495215314,
			"0.008": 4.81191927751,
			"0.009": 4.37593188501,
			"0.01": 4.31190948752,
			"0.011": 5.39501775835,
			"0.012": 4.05063292386,
			"0.013": 6.35905875937,
			"0.014": 3.76885512089,
			"0.015": 0.312257305584,
			"0.016": 0.0,
			"0.017": 0.0,
			"0.018": 0.0,
			"0.019": 0.0,
			"0.02": 0.0,
			"0.021": 0.0,
			"0.022": 0.0,
			"0.023": 0.0,
			"0.024": 0.0,
			"0.025": 0.0
		}
	}
}
