{
	 "smiles": "OCC1CC2=CC=CC=C2N1C(=O)OCC1=CC=CC=C1", 
	 "Tm": 342.15, 
	 "num_atms": 38, 
	 "gaussian": { 
		 "optdone": 1, 
		 "sigma_profile": "yes", 
		 "theory": "DFT", 
		 "functional": "B3LYP", 
		 "basiset": "6-31G**", 
		 "properties": { 
			 "R2extent": 7447.8737, 
			 "electric_dipole_moment_norm": 2.30766243849, 
			 "electric_quadrupole_moment_norm": 10.4494408013, 
			 "total_energy": -938.495797189, 
			 "HOMO_LUMO_gap": 0.19739, 
			 "cosmo_polarized_energy": -13.26, 
			 "cosmo_cavitation_energy": 41.03, 
			 "cosmo_dispersion_energy": -29.01, 
			 "cosmo_repulsion_energy": 2.24, 
			 "cosmo_total_nonelectrostatic_energy": 14.27, 
			 "SMD_solvation_energy": 7.26 
		},
		"coords": [
			{
				"x": 2.0439668825,
				"y": -1.88603913,
				"z": -3.4204567502,
				"element": "O" 
			},
			{
				"x": 1.1621888618,
				"y": -2.1080449204,
				"z": -2.327464644,
				"element": "C" 
			},
			{
				"x": 1.5502664993,
				"y": -1.109995786,
				"z": -1.2309191119,
				"element": "C" 
			},
			{
				"x": 2.9706726413,
				"y": -1.3790772264,
				"z": -0.6759267759,
				"element": "C" 
			},
			{
				"x": 2.7103908705,
				"y": -2.1090383708,
				"z": 0.6220699188,
				"element": "C" 
			},
			{
				"x": 3.5869826284,
				"y": -2.7861242488,
				"z": 1.4600857565,
				"element": "C" 
			},
			{
				"x": 3.103388094,
				"y": -3.34174002,
				"z": 2.6513248753,
				"element": "C" 
			},
			{
				"x": 1.7551331859,
				"y": -3.2077942314,
				"z": 2.9892384054,
				"element": "C" 
			},
			{
				"x": 0.8571600967,
				"y": -2.5313760136,
				"z": 2.1556639138,
				"element": "C" 
			},
			{
				"x": 1.3569707114,
				"y": -1.9917877594,
				"z": 0.9705507508,
				"element": "C" 
			},
			{
				"x": 0.6700207589,
				"y": -1.2842247225,
				"z": -0.0476677859,
				"element": "N" 
			},
			{
				"x": -0.605882671,
				"y": -0.7996682804,
				"z": 0.0576219738,
				"element": "C" 
			},
			{
				"x": -1.336770644,
				"y": -0.94302386,
				"z": 1.02587245,
				"element": "O" 
			},
			{
				"x": -0.9575423497,
				"y": -0.1357562776,
				"z": -1.0779265294,
				"element": "O" 
			},
			{
				"x": -2.2733832892,
				"y": 0.4799159187,
				"z": -1.0735957183,
				"element": "C" 
			},
			{
				"x": -2.2221128963,
				"y": 1.9153384828,
				"z": -0.6108734929,
				"element": "C" 
			},
			{
				"x": -2.2468956975,
				"y": 2.2247300501,
				"z": 0.7568978065,
				"element": "C" 
			},
			{
				"x": -2.1889702406,
				"y": 3.5527458011,
				"z": 1.1792372882,
				"element": "C" 
			},
			{
				"x": -2.1084695148,
				"y": 4.5857635152,
				"z": 0.2420582367,
				"element": "C" 
			},
			{
				"x": -2.0844382326,
				"y": 4.286267336,
				"z": -1.1210955609,
				"element": "C" 
			},
			{
				"x": -2.1400414864,
				"y": 2.9570137741,
				"z": -1.5427985501,
				"element": "C" 
			},
			{
				"x": 1.8410136147,
				"y": -2.5309477323,
				"z": -4.1083009077,
				"element": "H" 
			},
			{
				"x": 1.2548104262,
				"y": -3.1309167452,
				"z": -1.9288017746,
				"element": "H" 
			},
			{
				"x": 0.1141877039,
				"y": -1.9417248742,
				"z": -2.6098978855,
				"element": "H" 
			},
			{
				"x": 1.4416566209,
				"y": -0.0990513779,
				"z": -1.625814665,
				"element": "H" 
			},
			{
				"x": 3.5040741084,
				"y": -0.4381262306,
				"z": -0.4920596194,
				"element": "H" 
			},
			{
				"x": 3.56205435,
				"y": -1.9479418732,
				"z": -1.3983487621,
				"element": "H" 
			},
			{
				"x": 4.6369709602,
				"y": -2.8797467894,
				"z": 1.1952761571,
				"element": "H" 
			},
			{
				"x": 3.7789130864,
				"y": -3.8751968507,
				"z": 3.3133547631,
				"element": "H" 
			},
			{
				"x": 1.3878142516,
				"y": -3.6385682657,
				"z": 3.9164303005,
				"element": "H" 
			},
			{
				"x": -0.1871430046,
				"y": -2.4198232154,
				"z": 2.4123180897,
				"element": "H" 
			},
			{
				"x": -2.9307201675,
				"y": -0.1194855253,
				"z": -0.441374846,
				"element": "H" 
			},
			{
				"x": -2.6033225009,
				"y": 0.4173665239,
				"z": -2.112877007,
				"element": "H" 
			},
			{
				"x": -2.3014104266,
				"y": 1.416645907,
				"z": 1.4798599732,
				"element": "H" 
			},
			{
				"x": -2.2101068335,
				"y": 3.7823171512,
				"z": 2.2408562604,
				"element": "H" 
			},
			{
				"x": -2.0671201062,
				"y": 5.6196829021,
				"z": 0.5730446765,
				"element": "H" 
			},
			{
				"x": -2.0242373142,
				"y": 5.0853962994,
				"z": -1.8545079161,
				"element": "H" 
			},
			{
				"x": -2.1223689773,
				"y": 2.7251366658,
				"z": -2.6051532933,
				"element": "H" 
			}
		],
		 "valence_orbital": [ 
			{
				"type": "occ",
				"energy": -0.27274,
				"method": "rhf"
			},
			{
				"type": "occ",
				"energy": -0.24987,
				"method": "rhf"
			},
			{
				"type": "occ",
				"energy": -0.24765,
				"method": "rhf"
			},
			{
				"type": "occ",
				"energy": -0.24103,
				"method": "rhf"
			},
			{
				"type": "occ",
				"energy": -0.2072,
				"method": "rhf"
			},
			{
				"type": "unocc",
				"energy": -0.00981,
				"method": "rhf"
			},
			{
				"type": "unocc",
				"energy": -0.00092,
				"method": "rhf"
			},
			{
				"type": "unocc",
				"energy": 0.00028,
				"method": "rhf"
			},
			{
				"type": "unocc",
				"energy": 0.005,
				"method": "rhf"
			},
			{
				"type": "unocc",
				"energy": 0.0621,
				"method": "rhf"
			}
		],
		"cosmo_sigma_profile": { 
			"-0.025": 0.0,
			"-0.024": 0.0,
			"-0.023": 0.0,
			"-0.022": 0.0,
			"-0.021": 0.0,
			"-0.02": 0.0,
			"-0.019": 0.0,
			"-0.018": 0.0,
			"-0.017": 0.00225045283804,
			"-0.016": 0.674268048819,
			"-0.015": 1.40109299709,
			"-0.014": 0.641411587755,
			"-0.013": 1.01062942542,
			"-0.012": 1.03903744204,
			"-0.011": 0.737261915296,
			"-0.01": 1.10360916394,
			"-0.009": 0.593032492407,
			"-0.008": 0.81399192451,
			"-0.007": 1.59440403428,
			"-0.006": 12.2418975762,
			"-0.005": 22.6605772913,
			"-0.004": 31.8000729932,
			"-0.003": 35.3897355308,
			"-0.002": 30.5294039207,
			"-0.001": 25.2821021262,
			"0.0": 18.4352374397,
			"0.001": 18.3736511059,
			"0.002": 19.9575524948,
			"0.003": 20.5887044951,
			"0.004": 21.9428082812,
			"0.005": 23.8508879611,
			"0.006": 15.2167420911,
			"0.007": 3.50041625991,
			"0.008": 3.3147569538,
			"0.009": 2.59004765517,
			"0.01": 1.78389716757,
			"0.011": 3.71027102983,
			"0.012": 3.20906448993,
			"0.013": 1.47460979299,
			"0.014": 0.535258250931,
			"0.015": 0.0,
			"0.016": 0.0,
			"0.017": 0.0,
			"0.018": 0.0,
			"0.019": 0.0,
			"0.02": 0.0,
			"0.021": 0.0,
			"0.022": 0.0,
			"0.023": 0.0,
			"0.024": 0.0,
			"0.025": 0.0
		}
	}
}
