{
	 "smiles": "CN1C=CC2=C1C=CC(=C2)C(O)=O", 
	 "Tm": 495.15, 
	 "num_atms": 22, 
	 "gaussian": { 
		 "optdone": 1, 
		 "sigma_profile": "yes", 
		 "theory": "DFT", 
		 "functional": "B3LYP", 
		 "basiset": "6-31G**", 
		 "properties": { 
			 "R2extent": 4360.5675, 
			 "electric_dipole_moment_norm": 7.26074159986, 
			 "electric_quadrupole_moment_norm": 33.7924287795, 
			 "total_energy": -591.700121866, 
			 "HOMO_LUMO_gap": 0.18137, 
			 "cosmo_polarized_energy": -16.85, 
			 "cosmo_cavitation_energy": 26.17, 
			 "cosmo_dispersion_energy": -19.35, 
			 "cosmo_repulsion_energy": 1.5, 
			 "cosmo_total_nonelectrostatic_energy": 8.32, 
			 "SMD_solvation_energy": 5.75 
		},
		"coords": [
			{
				"x": -2.0763348187,
				"y": 0.3194065174,
				"z": 3.6237127269,
				"element": "C" 
			},
			{
				"x": -1.7542262188,
				"y": 0.2978117039,
				"z": 2.209914255,
				"element": "N" 
			},
			{
				"x": -1.8518057844,
				"y": -0.7985190489,
				"z": 1.3667991267,
				"element": "C" 
			},
			{
				"x": -1.4537302338,
				"y": -0.4615428662,
				"z": 0.1008129774,
				"element": "C" 
			},
			{
				"x": -1.0852224797,
				"y": 0.9250900972,
				"z": 0.139249987,
				"element": "C" 
			},
			{
				"x": -1.2836921202,
				"y": 1.3670044853,
				"z": 1.4800769193,
				"element": "C" 
			},
			{
				"x": -1.0015440525,
				"y": 2.679997401,
				"z": 1.8821314259,
				"element": "C" 
			},
			{
				"x": -0.5216007916,
				"y": 3.5574248667,
				"z": 0.9237979736,
				"element": "C" 
			},
			{
				"x": -0.336013193,
				"y": 3.1541595447,
				"z": -0.4209527868,
				"element": "C" 
			},
			{
				"x": -0.6062888284,
				"y": 1.8393195429,
				"z": -0.8090467874,
				"element": "C" 
			},
			{
				"x": 0.1925605408,
				"y": 4.1812766491,
				"z": -1.3700973966,
				"element": "C" 
			},
			{
				"x": -0.0004715279,
				"y": 3.9445756608,
				"z": -2.6993319998,
				"element": "O" 
			},
			{
				"x": 0.7665668114,
				"y": 5.1874476431,
				"z": -1.0205538615,
				"element": "O" 
			},
			{
				"x": -2.430395295,
				"y": -0.6683962607,
				"z": 3.9229015179,
				"element": "H" 
			},
			{
				"x": -2.8645061804,
				"y": 1.0500239432,
				"z": 3.835346104,
				"element": "H" 
			},
			{
				"x": -1.1950385674,
				"y": 0.5697585355,
				"z": 4.2242975262,
				"element": "H" 
			},
			{
				"x": -2.2058891274,
				"y": -1.7437507968,
				"z": 1.7543062412,
				"element": "H" 
			},
			{
				"x": -1.4292991679,
				"y": -1.1206024697,
				"z": -0.7549920127,
				"element": "H" 
			},
			{
				"x": -1.1469890807,
				"y": 3.0035098035,
				"z": 2.908165592,
				"element": "H" 
			},
			{
				"x": -0.2748928613,
				"y": 4.5811407917,
				"z": 1.1815289864,
				"element": "H" 
			},
			{
				"x": -0.4107950806,
				"y": 1.498167675,
				"z": -1.8233195983,
				"element": "H" 
			},
			{
				"x": -0.6195919425,
				"y": 3.2104965814,
				"z": -2.8126469164,
				"element": "H" 
			}
		],
		 "valence_orbital": [ 
			{
				"type": "occ",
				"energy": -0.30178,
				"method": "rhf"
			},
			{
				"type": "occ",
				"energy": -0.28807,
				"method": "rhf"
			},
			{
				"type": "occ",
				"energy": -0.26099,
				"method": "rhf"
			},
			{
				"type": "occ",
				"energy": -0.23345,
				"method": "rhf"
			},
			{
				"type": "occ",
				"energy": -0.21646,
				"method": "rhf"
			},
			{
				"type": "unocc",
				"energy": -0.03509,
				"method": "rhf"
			},
			{
				"type": "unocc",
				"energy": -0.01493,
				"method": "rhf"
			},
			{
				"type": "unocc",
				"energy": 0.05416,
				"method": "rhf"
			},
			{
				"type": "unocc",
				"energy": 0.06784,
				"method": "rhf"
			},
			{
				"type": "unocc",
				"energy": 0.07824,
				"method": "rhf"
			}
		],
		"cosmo_sigma_profile": { 
			"-0.025": 0.0,
			"-0.024": 0.0,
			"-0.023": 0.0,
			"-0.022": 0.0,
			"-0.021": 0.0,
			"-0.02": 0.0,
			"-0.019": 0.0,
			"-0.018": 0.137305626864,
			"-0.017": 1.14934682126,
			"-0.016": 0.652123324238,
			"-0.015": 1.42208633222,
			"-0.014": 0.818096838222,
			"-0.013": 0.651876793343,
			"-0.012": 0.932361405169,
			"-0.011": 1.56335591502,
			"-0.01": 0.893285955046,
			"-0.009": 2.06997505545,
			"-0.008": 4.95240301112,
			"-0.007": 5.89925813795,
			"-0.006": 12.5742713822,
			"-0.005": 16.842434214,
			"-0.004": 16.5750909643,
			"-0.003": 16.9045484061,
			"-0.002": 11.855949497,
			"-0.001": 9.54063505376,
			"0.0": 9.35067721364,
			"0.001": 8.81025935062,
			"0.002": 10.61709238,
			"0.003": 12.8125990645,
			"0.004": 17.6075855286,
			"0.005": 11.7701913929,
			"0.006": 5.72365903969,
			"0.007": 3.17249792061,
			"0.008": 2.16144875112,
			"0.009": 3.37473261497,
			"0.01": 4.00302399904,
			"0.011": 4.88663589637,
			"0.012": 5.90068990015,
			"0.013": 3.173207608,
			"0.014": 0.681919585547,
			"0.015": 0.0,
			"0.016": 0.0,
			"0.017": 0.0,
			"0.018": 0.0,
			"0.019": 0.0,
			"0.02": 0.0,
			"0.021": 0.0,
			"0.022": 0.0,
			"0.023": 0.0,
			"0.024": 0.0,
			"0.025": 0.0
		}
	}
}
