{
	 "smiles": "CC1=CC(C)=C(C)C=C1C1=CSC(N)=N1", 
	 "Tm": 526.15, 
	 "num_atms": 29, 
	 "gaussian": { 
		 "optdone": 1, 
		 "sigma_profile": "yes", 
		 "theory": "DFT", 
		 "functional": "B3LYP", 
		 "basiset": "6-31G**", 
		 "properties": { 
			 "R2extent": 5014.5124, 
			 "electric_dipole_moment_norm": 1.3797735865, 
			 "electric_quadrupole_moment_norm": 18.6479512414, 
			 "total_energy": -973.425089909, 
			 "HOMO_LUMO_gap": 0.17621, 
			 "cosmo_polarized_energy": -11.48, 
			 "cosmo_cavitation_energy": 33.18, 
			 "cosmo_dispersion_energy": -24.78, 
			 "cosmo_repulsion_energy": 1.89, 
			 "cosmo_total_nonelectrostatic_energy": 10.29, 
			 "SMD_solvation_energy": 4.19 
		},
		"coords": [
			{
				"x": 1.2094257873,
				"y": -1.799465421,
				"z": 0.4244967777,
				"element": "C" 
			},
			{
				"x": 0.0696065147,
				"y": -0.8118902834,
				"z": 0.3314470903,
				"element": "C" 
			},
			{
				"x": -0.9052932815,
				"y": -0.8329603857,
				"z": 1.3371366667,
				"element": "C" 
			},
			{
				"x": -2.0148493438,
				"y": 0.0137850908,
				"z": 1.3550938139,
				"element": "C" 
			},
			{
				"x": -3.0202808716,
				"y": -0.0670436975,
				"z": 2.4779215755,
				"element": "C" 
			},
			{
				"x": -2.1728583104,
				"y": 0.9322356335,
				"z": 0.2972785333,
				"element": "C" 
			},
			{
				"x": -3.3556141003,
				"y": 1.8703024971,
				"z": 0.2480705036,
				"element": "C" 
			},
			{
				"x": -1.2136647106,
				"y": 0.957888971,
				"z": -0.712357541,
				"element": "C" 
			},
			{
				"x": -0.0842206497,
				"y": 0.118167084,
				"z": -0.7220242594,
				"element": "C" 
			},
			{
				"x": 0.855302284,
				"y": 0.2702665312,
				"z": -1.8566337608,
				"element": "C" 
			},
			{
				"x": 2.1877865507,
				"y": -0.0491254875,
				"z": -1.8983524246,
				"element": "C" 
			},
			{
				"x": 2.884721438,
				"y": 0.3796525636,
				"z": -3.441581164,
				"element": "S" 
			},
			{
				"x": 1.2871584831,
				"y": 0.9555952995,
				"z": -3.9337358673,
				"element": "C" 
			},
			{
				"x": 1.0899557451,
				"y": 1.5370812424,
				"z": -5.1680136067,
				"element": "N" 
			},
			{
				"x": 0.3639061874,
				"y": 0.8390365783,
				"z": -3.0304042916,
				"element": "N" 
			},
			{
				"x": 1.4355142414,
				"y": -2.2549259826,
				"z": -0.5445729952,
				"element": "H" 
			},
			{
				"x": 2.1336019963,
				"y": -1.3297887255,
				"z": 0.7860565606,
				"element": "H" 
			},
			{
				"x": 0.9633619091,
				"y": -2.5995699587,
				"z": 1.1281836344,
				"element": "H" 
			},
			{
				"x": -0.7928229964,
				"y": -1.5547902447,
				"z": 2.1437816164,
				"element": "H" 
			},
			{
				"x": -4.0247829088,
				"y": -0.3057400528,
				"z": 2.1068519323,
				"element": "H" 
			},
			{
				"x": -3.1042394052,
				"y": 0.8854922106,
				"z": 3.0158474528,
				"element": "H" 
			},
			{
				"x": -2.7420027872,
				"y": -0.835724565,
				"z": 3.2039196368,
				"element": "H" 
			},
			{
				"x": -4.3069670144,
				"y": 1.3241959193,
				"z": 0.2261519982,
				"element": "H" 
			},
			{
				"x": -3.3160191748,
				"y": 2.5058609018,
				"z": -0.6403289865,
				"element": "H" 
			},
			{
				"x": -3.3909914374,
				"y": 2.5263326293,
				"z": 1.1268029382,
				"element": "H" 
			},
			{
				"x": -1.330759778,
				"y": 1.6507014123,
				"z": -1.5386941541,
				"element": "H" 
			},
			{
				"x": 2.8190061437,
				"y": -0.4608211096,
				"z": -1.1292551566,
				"element": "H" 
			},
			{
				"x": 0.109715262,
				"y": 1.6272909277,
				"z": -5.4026448173,
				"element": "H" 
			},
			{
				"x": 1.6582042273,
				"y": 1.1902604216,
				"z": -5.9277417058,
				"element": "H" 
			}
		],
		 "valence_orbital": [ 
			{
				"type": "occ",
				"energy": -0.27534,
				"method": "rhf"
			},
			{
				"type": "occ",
				"energy": -0.26765,
				"method": "rhf"
			},
			{
				"type": "occ",
				"energy": -0.23565,
				"method": "rhf"
			},
			{
				"type": "occ",
				"energy": -0.22443,
				"method": "rhf"
			},
			{
				"type": "occ",
				"energy": -0.19495,
				"method": "rhf"
			},
			{
				"type": "unocc",
				"energy": -0.01874,
				"method": "rhf"
			},
			{
				"type": "unocc",
				"energy": 0.01204,
				"method": "rhf"
			},
			{
				"type": "unocc",
				"energy": 0.01655,
				"method": "rhf"
			},
			{
				"type": "unocc",
				"energy": 0.01966,
				"method": "rhf"
			},
			{
				"type": "unocc",
				"energy": 0.07278,
				"method": "rhf"
			}
		],
		"cosmo_sigma_profile": { 
			"-0.025": 0.0,
			"-0.024": 0.0,
			"-0.023": 0.0,
			"-0.022": 0.0,
			"-0.021": 0.0,
			"-0.02": 0.0,
			"-0.019": 0.0,
			"-0.018": 0.0,
			"-0.017": 0.0,
			"-0.016": 0.0,
			"-0.015": 0.21577944954,
			"-0.014": 1.80315636951,
			"-0.013": 2.33997275711,
			"-0.012": 2.81984233618,
			"-0.011": 2.79923337285,
			"-0.01": 2.29988067566,
			"-0.009": 2.06888847155,
			"-0.008": 2.26580551695,
			"-0.007": 4.64347617972,
			"-0.006": 2.98591844732,
			"-0.005": 5.94923571819,
			"-0.004": 19.0185343608,
			"-0.003": 23.8583933707,
			"-0.002": 22.7770697068,
			"-0.001": 21.5274941228,
			"0.0": 28.6242000371,
			"0.001": 21.8223831331,
			"0.002": 18.0349547663,
			"0.003": 17.0703348311,
			"0.004": 19.4660206702,
			"0.005": 14.1324621869,
			"0.006": 12.3146748268,
			"0.007": 5.33531061933,
			"0.008": 2.6513477293,
			"0.009": 2.40499816586,
			"0.01": 1.59166124073,
			"0.011": 1.62386274504,
			"0.012": 1.28147506859,
			"0.013": 0.756277346612,
			"0.014": 0.155012023377,
			"0.015": 0.0,
			"0.016": 0.0,
			"0.017": 0.0,
			"0.018": 0.0,
			"0.019": 0.0,
			"0.02": 0.0,
			"0.021": 0.0,
			"0.022": 0.0,
			"0.023": 0.0,
			"0.024": 0.0,
			"0.025": 0.0
		}
	}
}
