{
	 "smiles": "O=C1NN=C(O1)C1=CC=CS1", 
	 "Tm": 390.15, 
	 "num_atms": 15, 
	 "gaussian": { 
		 "optdone": 1, 
		 "sigma_profile": "yes", 
		 "theory": "DFT", 
		 "functional": "B3LYP", 
		 "basiset": "6-31G**", 
		 "properties": { 
			 "R2extent": 2707.1248, 
			 "electric_dipole_moment_norm": 3.8287386722, 
			 "electric_quadrupole_moment_norm": 17.7072035983, 
			 "total_energy": -889.159145093, 
			 "HOMO_LUMO_gap": 0.16613, 
			 "cosmo_polarized_energy": -12.05, 
			 "cosmo_cavitation_energy": 22.18, 
			 "cosmo_dispersion_energy": -17.37, 
			 "cosmo_repulsion_energy": 1.35, 
			 "cosmo_total_nonelectrostatic_energy": 6.17, 
			 "SMD_solvation_energy": 4.51 
		},
		"coords": [
			{
				"x": -4.4856626727,
				"y": 2.3812214326,
				"z": 0.4524247701,
				"element": "O" 
			},
			{
				"x": -3.4175745584,
				"y": 1.9980753738,
				"z": 0.0546578886,
				"element": "C" 
			},
			{
				"x": -2.7620492299,
				"y": 2.1835942964,
				"z": -1.1330963055,
				"element": "N" 
			},
			{
				"x": -1.5320592649,
				"y": 1.5634966928,
				"z": -1.1881690299,
				"element": "N" 
			},
			{
				"x": -1.4353692237,
				"y": 0.9958855171,
				"z": -0.0263400332,
				"element": "C" 
			},
			{
				"x": -2.518829496,
				"y": 1.2030962841,
				"z": 0.7840588141,
				"element": "O" 
			},
			{
				"x": -0.336828879,
				"y": 0.2012546838,
				"z": 0.4660377912,
				"element": "C" 
			},
			{
				"x": 0.8289434993,
				"y": -0.1145401479,
				"z": -0.1974378622,
				"element": "C" 
			},
			{
				"x": 1.7015943954,
				"y": -0.918981938,
				"z": 0.5828536163,
				"element": "C" 
			},
			{
				"x": 1.1917030552,
				"y": -1.2036362425,
				"z": 1.8234220241,
				"element": "C" 
			},
			{
				"x": -0.3675002772,
				"y": -0.4947423758,
				"z": 2.0668952458,
				"element": "S" 
			},
			{
				"x": -3.1062201003,
				"y": 2.713184473,
				"z": -1.9171023677,
				"element": "H" 
			},
			{
				"x": 1.0361337678,
				"y": 0.2250889592,
				"z": -1.2050454088,
				"element": "H" 
			},
			{
				"x": 2.6666931829,
				"y": -1.2716404325,
				"z": 0.2386031336,
				"element": "H" 
			},
			{
				"x": 1.6405258016,
				"y": -1.7901565761,
				"z": 2.6131377235,
				"element": "H" 
			}
		],
		 "valence_orbital": [ 
			{
				"type": "occ",
				"energy": -0.34473,
				"method": "rhf"
			},
			{
				"type": "occ",
				"energy": -0.29111,
				"method": "rhf"
			},
			{
				"type": "occ",
				"energy": -0.28253,
				"method": "rhf"
			},
			{
				"type": "occ",
				"energy": -0.26923,
				"method": "rhf"
			},
			{
				"type": "occ",
				"energy": -0.22677,
				"method": "rhf"
			},
			{
				"type": "unocc",
				"energy": -0.06064,
				"method": "rhf"
			},
			{
				"type": "unocc",
				"energy": 0.01538,
				"method": "rhf"
			},
			{
				"type": "unocc",
				"energy": 0.02262,
				"method": "rhf"
			},
			{
				"type": "unocc",
				"energy": 0.03942,
				"method": "rhf"
			},
			{
				"type": "unocc",
				"energy": 0.06251,
				"method": "rhf"
			}
		],
		"cosmo_sigma_profile": { 
			"-0.025": 0.0,
			"-0.024": 0.0,
			"-0.023": 0.0,
			"-0.022": 0.0,
			"-0.021": 0.0,
			"-0.02": 0.0,
			"-0.019": 0.0,
			"-0.018": 1.21753671692,
			"-0.017": 1.27148217664,
			"-0.016": 1.39416336833,
			"-0.015": 0.841823461736,
			"-0.014": 0.666396897796,
			"-0.013": 1.01558937747,
			"-0.012": 1.2868281636,
			"-0.011": 0.43853874718,
			"-0.01": 0.634023570967,
			"-0.009": 3.3844203129,
			"-0.008": 4.59954120581,
			"-0.007": 5.86904162742,
			"-0.006": 7.49229132563,
			"-0.005": 8.93626452231,
			"-0.004": 8.61840582511,
			"-0.003": 10.4924094705,
			"-0.002": 10.336903687,
			"-0.001": 9.14919670381,
			"0.0": 10.8794449185,
			"0.001": 18.527888744,
			"0.002": 18.7913417069,
			"0.003": 15.5273276322,
			"0.004": 8.01065173986,
			"0.005": 4.98700989293,
			"0.006": 4.54583862333,
			"0.007": 1.9770983403,
			"0.008": 1.89572620541,
			"0.009": 2.64465392618,
			"0.01": 3.9922031518,
			"0.011": 6.96637135273,
			"0.012": 5.11130104049,
			"0.013": 0.107082329166,
			"0.014": 0.0,
			"0.015": 0.0,
			"0.016": 0.0,
			"0.017": 0.0,
			"0.018": 0.0,
			"0.019": 0.0,
			"0.02": 0.0,
			"0.021": 0.0,
			"0.022": 0.0,
			"0.023": 0.0,
			"0.024": 0.0,
			"0.025": 0.0
		}
	}
}
