{
	 "smiles": "CC(=O)C1=C(N)C=C(S1)C1=CC=C(Cl)C=C1", 
	 "Tm": 412.15, 
	 "num_atms": 26, 
	 "gaussian": { 
		 "optdone": 1, 
		 "sigma_profile": "yes", 
		 "theory": "DFT", 
		 "functional": "B3LYP", 
		 "basiset": "6-31G**", 
		 "properties": { 
			 "R2extent": 6856.2512, 
			 "electric_dipole_moment_norm": 1.66377144464, 
			 "electric_quadrupole_moment_norm": 23.9783990262, 
			 "total_energy": -1451.6711568, 
			 "HOMO_LUMO_gap": 0.13801, 
			 "cosmo_polarized_energy": -11.89, 
			 "cosmo_cavitation_energy": 33.56, 
			 "cosmo_dispersion_energy": -25.28, 
			 "cosmo_repulsion_energy": 1.91, 
			 "cosmo_total_nonelectrostatic_energy": 10.2, 
			 "SMD_solvation_energy": 5.47 
		},
		"coords": [
			{
				"x": -3.5449036892,
				"y": 0.8475997483,
				"z": 2.903413791,
				"element": "C" 
			},
			{
				"x": -3.4686227004,
				"y": 1.3034662947,
				"z": 1.4564203944,
				"element": "C" 
			},
			{
				"x": -4.4798253518,
				"y": 1.742109226,
				"z": 0.8862293712,
				"element": "O" 
			},
			{
				"x": -2.205814086,
				"y": 1.2109591112,
				"z": 0.7561615432,
				"element": "C" 
			},
			{
				"x": -2.0048421494,
				"y": 1.5672954286,
				"z": -0.5862651239,
				"element": "C" 
			},
			{
				"x": -2.9733339336,
				"y": 2.1195646134,
				"z": -1.3658349216,
				"element": "N" 
			},
			{
				"x": -0.6695737487,
				"y": 1.3051989361,
				"z": -1.0241559496,
				"element": "C" 
			},
			{
				"x": 0.1397319802,
				"y": 0.7711033444,
				"z": -0.0495048952,
				"element": "C" 
			},
			{
				"x": -0.7186671109,
				"y": 0.581476834,
				"z": 1.4598526975,
				"element": "S" 
			},
			{
				"x": 1.555133528,
				"y": 0.3996156035,
				"z": -0.1690402063,
				"element": "C" 
			},
			{
				"x": 2.3848463339,
				"y": 1.0485490929,
				"z": -1.1017198841,
				"element": "C" 
			},
			{
				"x": 3.7247884996,
				"y": 0.6992694077,
				"z": -1.2405504666,
				"element": "C" 
			},
			{
				"x": 4.2556486804,
				"y": -0.306101297,
				"z": -0.4318118649,
				"element": "C" 
			},
			{
				"x": 5.9462917304,
				"y": -0.7482068297,
				"z": -0.597522741,
				"element": "Cl" 
			},
			{
				"x": 3.4612073977,
				"y": -0.9616862732,
				"z": 0.5085120925,
				"element": "C" 
			},
			{
				"x": 2.1203157167,
				"y": -0.6085968918,
				"z": 0.6318032053,
				"element": "C" 
			},
			{
				"x": -3.2729683911,
				"y": -0.2100976891,
				"z": 2.9958506641,
				"element": "H" 
			},
			{
				"x": -4.5633468026,
				"y": 0.9918503143,
				"z": 3.265847397,
				"element": "H" 
			},
			{
				"x": -2.8518665587,
				"y": 1.4192951708,
				"z": 3.5312073752,
				"element": "H" 
			},
			{
				"x": -3.9026339973,
				"y": 2.1301166389,
				"z": -0.9562814507,
				"element": "H" 
			},
			{
				"x": -2.8646836027,
				"y": 2.1173031793,
				"z": -2.3668117878,
				"element": "H" 
			},
			{
				"x": -0.3357287951,
				"y": 1.484342657,
				"z": -2.0402397228,
				"element": "H" 
			},
			{
				"x": 1.9829966529,
				"y": 1.8529299037,
				"z": -1.7092095485,
				"element": "H" 
			},
			{
				"x": 4.3565811018,
				"y": 1.2090797846,
				"z": -1.9593787322,
				"element": "H" 
			},
			{
				"x": 3.885059806,
				"y": -1.7439698226,
				"z": 1.1281922117,
				"element": "H" 
			},
			{
				"x": 1.4988094896,
				"y": -1.1387664859,
				"z": 1.3470365523,
				"element": "H" 
			}
		],
		 "valence_orbital": [ 
			{
				"type": "occ",
				"energy": -0.27452,
				"method": "rhf"
			},
			{
				"type": "occ",
				"energy": -0.27156,
				"method": "rhf"
			},
			{
				"type": "occ",
				"energy": -0.24536,
				"method": "rhf"
			},
			{
				"type": "occ",
				"energy": -0.23512,
				"method": "rhf"
			},
			{
				"type": "occ",
				"energy": -0.20435,
				"method": "rhf"
			},
			{
				"type": "unocc",
				"energy": -0.06634,
				"method": "rhf"
			},
			{
				"type": "unocc",
				"energy": -0.02525,
				"method": "rhf"
			},
			{
				"type": "unocc",
				"energy": -0.01194,
				"method": "rhf"
			},
			{
				"type": "unocc",
				"energy": 0.01744,
				"method": "rhf"
			},
			{
				"type": "unocc",
				"energy": 0.02617,
				"method": "rhf"
			}
		],
		"cosmo_sigma_profile": { 
			"-0.025": 0.0,
			"-0.024": 0.0,
			"-0.023": 0.0,
			"-0.022": 0.0,
			"-0.021": 0.0,
			"-0.02": 0.0,
			"-0.019": 0.0,
			"-0.018": 0.0,
			"-0.017": 0.0,
			"-0.016": 0.0,
			"-0.015": 0.00688244719011,
			"-0.014": 0.805077849158,
			"-0.013": 1.45423673996,
			"-0.012": 1.04590383038,
			"-0.011": 1.94496157552,
			"-0.01": 1.44088516743,
			"-0.009": 1.8399323655,
			"-0.008": 5.39900302956,
			"-0.007": 10.6683864803,
			"-0.006": 11.5548363341,
			"-0.005": 14.2145432764,
			"-0.004": 14.2803038161,
			"-0.003": 15.6237557683,
			"-0.002": 16.3986049943,
			"-0.001": 19.1959564046,
			"0.0": 19.9044197908,
			"0.001": 22.6819005428,
			"0.002": 32.0283962865,
			"0.003": 33.865515631,
			"0.004": 19.2737624031,
			"0.005": 10.2242603411,
			"0.006": 2.28617004702,
			"0.007": 2.53348073101,
			"0.008": 2.31256852419,
			"0.009": 2.38487302108,
			"0.01": 2.05019388914,
			"0.011": 1.52935770915,
			"0.012": 2.10284800766,
			"0.013": 2.10420101247,
			"0.014": 1.43117948489,
			"0.015": 0.31306941833,
			"0.016": 0.0,
			"0.017": 0.0,
			"0.018": 0.0,
			"0.019": 0.0,
			"0.02": 0.0,
			"0.021": 0.0,
			"0.022": 0.0,
			"0.023": 0.0,
			"0.024": 0.0,
			"0.025": 0.0
		}
	}
}
