{
	 "smiles": "OC(=O)C1=C2C=C(F)C=CC2=NC(=C1)C1CC1", 
	 "Tm": 470.15, 
	 "num_atms": 27, 
	 "gaussian": { 
		 "optdone": 1, 
		 "sigma_profile": "yes", 
		 "theory": "DFT", 
		 "functional": "B3LYP", 
		 "basiset": "6-31G**", 
		 "properties": { 
			 "R2extent": 4551.9501, 
			 "electric_dipole_moment_norm": 3.61550687594, 
			 "electric_quadrupole_moment_norm": 14.8731658036, 
			 "total_energy": -806.432355342, 
			 "HOMO_LUMO_gap": 0.15824, 
			 "cosmo_polarized_energy": -13.2, 
			 "cosmo_cavitation_energy": 31.87, 
			 "cosmo_dispersion_energy": -22.98, 
			 "cosmo_repulsion_energy": 1.74, 
			 "cosmo_total_nonelectrostatic_energy": 10.63, 
			 "SMD_solvation_energy": 5.49 
		},
		"coords": [
			{
				"x": 0.1280071251,
				"y": 4.0661462532,
				"z": 0.0390068887,
				"element": "O" 
			},
			{
				"x": 0.0376043715,
				"y": 3.1302890399,
				"z": 1.0207857649,
				"element": "C" 
			},
			{
				"x": -0.1400372168,
				"y": 3.4666803267,
				"z": 2.1655972937,
				"element": "O" 
			},
			{
				"x": 0.218703291,
				"y": 1.6940421354,
				"z": 0.6032446398,
				"element": "C" 
			},
			{
				"x": -0.2691638287,
				"y": 1.1364695178,
				"z": -0.6220735249,
				"element": "C" 
			},
			{
				"x": -1.0805054425,
				"y": 1.825438297,
				"z": -1.5660256472,
				"element": "C" 
			},
			{
				"x": -1.4854733819,
				"y": 1.1739402066,
				"z": -2.7052537426,
				"element": "C" 
			},
			{
				"x": -2.2597143992,
				"y": 1.8250788838,
				"z": -3.5943721758,
				"element": "F" 
			},
			{
				"x": -1.1347883772,
				"y": -0.1610425964,
				"z": -2.9880660325,
				"element": "C" 
			},
			{
				"x": -0.3717218434,
				"y": -0.8509719416,
				"z": -2.0764412276,
				"element": "C" 
			},
			{
				"x": 0.070527502,
				"y": -0.2366240331,
				"z": -0.872197225,
				"element": "C" 
			},
			{
				"x": 0.7919224564,
				"y": -0.9970373301,
				"z": -0.0068004244,
				"element": "N" 
			},
			{
				"x": 1.1875166224,
				"y": -0.4694194989,
				"z": 1.1405903093,
				"element": "C" 
			},
			{
				"x": 0.9081464926,
				"y": 0.8830094765,
				"z": 1.4775260692,
				"element": "C" 
			},
			{
				"x": 1.954275646,
				"y": -1.3248149168,
				"z": 2.082543191,
				"element": "C" 
			},
			{
				"x": 1.6350081648,
				"y": -2.8087172147,
				"z": 2.1759682887,
				"element": "C" 
			},
			{
				"x": 2.9128966745,
				"y": -2.3714479045,
				"z": 1.5359138376,
				"element": "C" 
			},
			{
				"x": 0.3923209399,
				"y": 3.6514244609,
				"z": -0.795547062,
				"element": "H" 
			},
			{
				"x": -1.4289819799,
				"y": 2.8369225333,
				"z": -1.3919929214,
				"element": "H" 
			},
			{
				"x": -1.485457069,
				"y": -0.6159765931,
				"z": -3.908005925,
				"element": "H" 
			},
			{
				"x": -0.0915931044,
				"y": -1.8859990666,
				"z": -2.2395286716,
				"element": "H" 
			},
			{
				"x": 1.2514718269,
				"y": 1.2959083482,
				"z": 2.4200042897,
				"element": "H" 
			},
			{
				"x": 2.2457562346,
				"y": -0.8301967532,
				"z": 3.004347818,
				"element": "H" 
			},
			{
				"x": 1.6681326313,
				"y": -3.2638481744,
				"z": 3.1610043295,
				"element": "H" 
			},
			{
				"x": 0.8447068124,
				"y": -3.1641744702,
				"z": 1.5228759401,
				"element": "H" 
			},
			{
				"x": 3.8468620621,
				"y": -2.519179422,
				"z": 2.0693106984,
				"element": "H" 
			},
			{
				"x": 2.9768777895,
				"y": -2.4345995636,
				"z": 0.4544852212,
				"element": "H" 
			}
		],
		 "valence_orbital": [ 
			{
				"type": "occ",
				"energy": -0.30495,
				"method": "rhf"
			},
			{
				"type": "occ",
				"energy": -0.286,
				"method": "rhf"
			},
			{
				"type": "occ",
				"energy": -0.27137,
				"method": "rhf"
			},
			{
				"type": "occ",
				"energy": -0.26068,
				"method": "rhf"
			},
			{
				"type": "occ",
				"energy": -0.2403,
				"method": "rhf"
			},
			{
				"type": "unocc",
				"energy": -0.08206,
				"method": "rhf"
			},
			{
				"type": "unocc",
				"energy": -0.03258,
				"method": "rhf"
			},
			{
				"type": "unocc",
				"energy": -0.021,
				"method": "rhf"
			},
			{
				"type": "unocc",
				"energy": 0.02849,
				"method": "rhf"
			},
			{
				"type": "unocc",
				"energy": 0.07598,
				"method": "rhf"
			}
		],
		"cosmo_sigma_profile": { 
			"-0.025": 0.0,
			"-0.024": 0.0,
			"-0.023": 0.0,
			"-0.022": 0.0,
			"-0.021": 0.0,
			"-0.02": 0.0,
			"-0.019": 0.0,
			"-0.018": 0.386273467723,
			"-0.017": 0.866511526248,
			"-0.016": 0.752783088966,
			"-0.015": 0.920708946835,
			"-0.014": 0.751625282492,
			"-0.013": 1.10274276772,
			"-0.012": 1.26928710735,
			"-0.011": 0.968953454738,
			"-0.01": 0.62787566125,
			"-0.009": 1.19788331592,
			"-0.008": 4.61327362443,
			"-0.007": 7.44886961966,
			"-0.006": 10.3000612232,
			"-0.005": 13.3659853011,
			"-0.004": 16.8624412733,
			"-0.003": 14.356363606,
			"-0.002": 14.6734895353,
			"-0.001": 20.9214665221,
			"0.0": 30.2319296086,
			"0.001": 22.8043563945,
			"0.002": 20.6413422332,
			"0.003": 17.1646194597,
			"0.004": 16.5222367049,
			"0.005": 4.97912097303,
			"0.006": 4.89010203701,
			"0.007": 3.74158168438,
			"0.008": 3.89499683498,
			"0.009": 5.28552971594,
			"0.01": 5.57960975672,
			"0.011": 5.81759598536,
			"0.012": 2.55717998227,
			"0.013": 0.145188586121,
			"0.014": 0.0,
			"0.015": 0.0,
			"0.016": 0.0,
			"0.017": 0.0,
			"0.018": 0.0,
			"0.019": 0.0,
			"0.02": 0.0,
			"0.021": 0.0,
			"0.022": 0.0,
			"0.023": 0.0,
			"0.024": 0.0,
			"0.025": 0.0
		}
	}
}
