{
	 "smiles": "ClC1=NC(=CN=C1)N1CCCC1", 
	 "Tm": 327.15, 
	 "num_atms": 22, 
	 "gaussian": { 
		 "optdone": 1, 
		 "sigma_profile": "yes", 
		 "theory": "DFT", 
		 "functional": "B3LYP", 
		 "basiset": "6-31G**", 
		 "properties": { 
			 "R2extent": 3362.4801, 
			 "electric_dipole_moment_norm": 4.56915998735, 
			 "electric_quadrupole_moment_norm": 5.70705323613, 
			 "total_energy": -935.32265798, 
			 "HOMO_LUMO_gap": 0.17132, 
			 "cosmo_polarized_energy": -8.04, 
			 "cosmo_cavitation_energy": 26.53, 
			 "cosmo_dispersion_energy": -20.12, 
			 "cosmo_repulsion_energy": 1.62, 
			 "cosmo_total_nonelectrostatic_energy": 8.03, 
			 "SMD_solvation_energy": 0.67 
		},
		"coords": [
			{
				"x": -0.1211356719,
				"y": 3.107742533,
				"z": -3.3932630398,
				"element": "Cl" 
			},
			{
				"x": -0.378749768,
				"y": 1.5453203358,
				"z": -2.6146770621,
				"element": "C" 
			},
			{
				"x": -0.4594399372,
				"y": 1.5405303521,
				"z": -1.2996008739,
				"element": "N" 
			},
			{
				"x": -0.6533832247,
				"y": 0.3421985001,
				"z": -0.7071312015,
				"element": "C" 
			},
			{
				"x": -0.7542438571,
				"y": -0.8332989712,
				"z": -1.5026751924,
				"element": "C" 
			},
			{
				"x": -0.6726143212,
				"y": -0.7864987855,
				"z": -2.8251111192,
				"element": "N" 
			},
			{
				"x": -0.4851402834,
				"y": 0.4048297764,
				"z": -3.4100968728,
				"element": "C" 
			},
			{
				"x": -0.7393764624,
				"y": 0.3242538965,
				"z": 0.6486992181,
				"element": "N" 
			},
			{
				"x": -0.9977586939,
				"y": -0.8793230639,
				"z": 1.4408753969,
				"element": "C" 
			},
			{
				"x": -1.253686311,
				"y": -0.3275123856,
				"z": 2.8529836336,
				"element": "C" 
			},
			{
				"x": -0.4166796538,
				"y": 0.9624446457,
				"z": 2.8895842644,
				"element": "C" 
			},
			{
				"x": -0.5717687408,
				"y": 1.5293041093,
				"z": 1.4715143643,
				"element": "C" 
			},
			{
				"x": -0.8955388054,
				"y": -1.810000947,
				"z": -1.0493821078,
				"element": "H" 
			},
			{
				"x": -0.4180730596,
				"y": 0.4486611432,
				"z": -4.4916116482,
				"element": "H" 
			},
			{
				"x": -0.1301515607,
				"y": -1.5562104676,
				"z": 1.4234183936,
				"element": "H" 
			},
			{
				"x": -1.8583071988,
				"y": -1.4348853965,
				"z": 1.0495229967,
				"element": "H" 
			},
			{
				"x": -2.3167930958,
				"y": -0.0900673731,
				"z": 2.9705059375,
				"element": "H" 
			},
			{
				"x": -0.9829417568,
				"y": -1.0439274029,
				"z": 3.6327533367,
				"element": "H" 
			},
			{
				"x": 0.6351073574,
				"y": 0.724139512,
				"z": 3.0842486602,
				"element": "H" 
			},
			{
				"x": -0.7474195429,
				"y": 1.6666028217,
				"z": 3.6573028974,
				"element": "H" 
			},
			{
				"x": 0.2924599568,
				"y": 2.1068424486,
				"z": 1.1334192344,
				"element": "H" 
			},
			{
				"x": -1.4516653688,
				"y": 2.1814547187,
				"z": 1.3839207841,
				"element": "H" 
			}
		],
		 "valence_orbital": [ 
			{
				"type": "occ",
				"energy": -0.31857,
				"method": "rhf"
			},
			{
				"type": "occ",
				"energy": -0.29896,
				"method": "rhf"
			},
			{
				"type": "occ",
				"energy": -0.27731,
				"method": "rhf"
			},
			{
				"type": "occ",
				"energy": -0.25308,
				"method": "rhf"
			},
			{
				"type": "occ",
				"energy": -0.21137,
				"method": "rhf"
			},
			{
				"type": "unocc",
				"energy": -0.04005,
				"method": "rhf"
			},
			{
				"type": "unocc",
				"energy": -0.00568,
				"method": "rhf"
			},
			{
				"type": "unocc",
				"energy": 0.04065,
				"method": "rhf"
			},
			{
				"type": "unocc",
				"energy": 0.07183,
				"method": "rhf"
			},
			{
				"type": "unocc",
				"energy": 0.1022,
				"method": "rhf"
			}
		],
		"cosmo_sigma_profile": { 
			"-0.025": 0.0,
			"-0.024": 0.0,
			"-0.023": 0.0,
			"-0.022": 0.0,
			"-0.021": 0.0,
			"-0.02": 0.0,
			"-0.019": 0.0,
			"-0.018": 0.0,
			"-0.017": 0.0,
			"-0.016": 0.0,
			"-0.015": 0.0,
			"-0.014": 0.0,
			"-0.013": 0.0,
			"-0.012": 0.0,
			"-0.011": 0.0,
			"-0.01": 0.0,
			"-0.009": 0.0,
			"-0.008": 0.376768663301,
			"-0.007": 3.79908963746,
			"-0.006": 3.64466469261,
			"-0.005": 8.61340692581,
			"-0.004": 21.0471715735,
			"-0.003": 28.7201128423,
			"-0.002": 25.1579481682,
			"-0.001": 22.7795934415,
			"0.0": 23.1610844948,
			"0.001": 14.4344765946,
			"0.002": 10.2742934319,
			"0.003": 8.68287335233,
			"0.004": 13.8189237169,
			"0.005": 7.78161794892,
			"0.006": 4.27936435089,
			"0.007": 3.74673215527,
			"0.008": 2.05244206877,
			"0.009": 1.98755036121,
			"0.01": 2.49587408186,
			"0.011": 2.12618386415,
			"0.012": 1.33733948929,
			"0.013": 0.855765495314,
			"0.014": 0.670452802694,
			"0.015": 0.768236655354,
			"0.016": 0.00989398503182,
			"0.017": 0.0,
			"0.018": 0.0,
			"0.019": 0.0,
			"0.02": 0.0,
			"0.021": 0.0,
			"0.022": 0.0,
			"0.023": 0.0,
			"0.024": 0.0,
			"0.025": 0.0
		}
	}
}
