{
	 "smiles": "CC(=O)C1=CC=C(OCC(O)=O)C=C1", 
	 "Tm": 447.15, 
	 "num_atms": 24, 
	 "gaussian": { 
		 "optdone": 1, 
		 "sigma_profile": "yes", 
		 "theory": "DFT", 
		 "functional": "B3LYP", 
		 "basiset": "6-31G**", 
		 "properties": { 
			 "R2extent": 3973.6519, 
			 "electric_dipole_moment_norm": 5.14774428075, 
			 "electric_quadrupole_moment_norm": 12.3106316905, 
			 "total_energy": -687.985547672, 
			 "HOMO_LUMO_gap": 0.19026, 
			 "cosmo_polarized_energy": -17.75, 
			 "cosmo_cavitation_energy": 28.88, 
			 "cosmo_dispersion_energy": -20.82, 
			 "cosmo_repulsion_energy": 1.64, 
			 "cosmo_total_nonelectrostatic_energy": 9.7, 
			 "SMD_solvation_energy": 7.11 
		},
		"coords": [
			{
				"x": 3.8859979715,
				"y": -1.861023451,
				"z": -1.8216729818,
				"element": "C" 
			},
			{
				"x": 2.8127419763,
				"y": -2.2940516622,
				"z": -0.8366572988,
				"element": "C" 
			},
			{
				"x": 2.8488982275,
				"y": -3.4037441007,
				"z": -0.325800917,
				"element": "O" 
			},
			{
				"x": 1.7104854166,
				"y": -1.3374162153,
				"z": -0.5031477742,
				"element": "C" 
			},
			{
				"x": 1.6111055803,
				"y": -0.052186954,
				"z": -1.0621915465,
				"element": "C" 
			},
			{
				"x": 0.5638970253,
				"y": 0.7935776441,
				"z": -0.7193425335,
				"element": "C" 
			},
			{
				"x": -0.4041256329,
				"y": 0.3646370917,
				"z": 0.1967072434,
				"element": "C" 
			},
			{
				"x": -1.3929158229,
				"y": 1.2827302995,
				"z": 0.4807050041,
				"element": "O" 
			},
			{
				"x": -2.5478420349,
				"y": 0.8459658728,
				"z": 1.1944652507,
				"element": "C" 
			},
			{
				"x": -2.3548493423,
				"y": 0.8725725405,
				"z": 2.7154182609,
				"element": "C" 
			},
			{
				"x": -1.3386296544,
				"y": 1.6459634595,
				"z": 3.1405386117,
				"element": "O" 
			},
			{
				"x": -3.0879308145,
				"y": 0.2817160831,
				"z": 3.4669686713,
				"element": "O" 
			},
			{
				"x": -0.3213147159,
				"y": -0.9097088226,
				"z": 0.7722833844,
				"element": "C" 
			},
			{
				"x": 0.7325826747,
				"y": -1.745456456,
				"z": 0.4143071076,
				"element": "C" 
			},
			{
				"x": 3.4503216953,
				"y": -1.6161148303,
				"z": -2.7967875338,
				"element": "H" 
			},
			{
				"x": 4.411619055,
				"y": -0.9683267627,
				"z": -1.4647945281,
				"element": "H" 
			},
			{
				"x": 4.5993353422,
				"y": -2.6769335143,
				"z": -1.9399343932,
				"element": "H" 
			},
			{
				"x": 2.3507034048,
				"y": 0.2951404821,
				"z": -1.7761320658,
				"element": "H" 
			},
			{
				"x": 0.4716519995,
				"y": 1.7844065553,
				"z": -1.1515094713,
				"element": "H" 
			},
			{
				"x": -2.8739808719,
				"y": -0.1508451505,
				"z": 0.8880825208,
				"element": "H" 
			},
			{
				"x": -3.3395700622,
				"y": 1.5583332088,
				"z": 0.9423819984,
				"element": "H" 
			},
			{
				"x": -0.885572844,
				"y": 2.0096401657,
				"z": 2.3600591693,
				"element": "H" 
			},
			{
				"x": -1.0498394179,
				"y": -1.2516341523,
				"z": 1.4986663882,
				"element": "H" 
			},
			{
				"x": 0.8210308446,
				"y": -2.7362413312,
				"z": 0.8471874333,
				"element": "H" 
			}
		],
		 "valence_orbital": [ 
			{
				"type": "occ",
				"energy": -0.32574,
				"method": "rhf"
			},
			{
				"type": "occ",
				"energy": -0.28357,
				"method": "rhf"
			},
			{
				"type": "occ",
				"energy": -0.27626,
				"method": "rhf"
			},
			{
				"type": "occ",
				"energy": -0.25255,
				"method": "rhf"
			},
			{
				"type": "occ",
				"energy": -0.24906,
				"method": "rhf"
			},
			{
				"type": "unocc",
				"energy": -0.0588,
				"method": "rhf"
			},
			{
				"type": "unocc",
				"energy": -0.02668,
				"method": "rhf"
			},
			{
				"type": "unocc",
				"energy": -0.0034,
				"method": "rhf"
			},
			{
				"type": "unocc",
				"energy": 0.03502,
				"method": "rhf"
			},
			{
				"type": "unocc",
				"energy": 0.06835,
				"method": "rhf"
			}
		],
		"cosmo_sigma_profile": { 
			"-0.025": 0.0,
			"-0.024": 0.0,
			"-0.023": 0.0,
			"-0.022": 0.0,
			"-0.021": 0.0,
			"-0.02": 0.0,
			"-0.019": 0.0,
			"-0.018": 0.0,
			"-0.017": 0.0,
			"-0.016": 0.383399841526,
			"-0.015": 0.596106204368,
			"-0.014": 0.685912790395,
			"-0.013": 1.07915414568,
			"-0.012": 0.898985610538,
			"-0.011": 0.958103518609,
			"-0.01": 3.09113538265,
			"-0.009": 5.90096829918,
			"-0.008": 6.11550007574,
			"-0.007": 9.06184346541,
			"-0.006": 18.1483302583,
			"-0.005": 17.1232290968,
			"-0.004": 14.6529058869,
			"-0.003": 11.9157581394,
			"-0.002": 12.043649717,
			"-0.001": 15.634797177,
			"0.0": 12.0809550499,
			"0.001": 11.9860239031,
			"0.002": 15.0115001983,
			"0.003": 15.7058509827,
			"0.004": 7.13819978091,
			"0.005": 3.79276492158,
			"0.006": 4.75165132918,
			"0.007": 5.0294013237,
			"0.008": 4.92560187104,
			"0.009": 6.27944748232,
			"0.01": 6.34597818796,
			"0.011": 8.17362704393,
			"0.012": 7.9276075809,
			"0.013": 2.45890534587,
			"0.014": 0.278166665167,
			"0.015": 0.0,
			"0.016": 0.0,
			"0.017": 0.0,
			"0.018": 0.0,
			"0.019": 0.0,
			"0.02": 0.0,
			"0.021": 0.0,
			"0.022": 0.0,
			"0.023": 0.0,
			"0.024": 0.0,
			"0.025": 0.0
		}
	}
}
