{
	 "smiles": "CNCC(=O)NC1=NC=C(C)C=C1", 
	 "Tm": 353.15, 
	 "num_atms": 26, 
	 "gaussian": { 
		 "optdone": 1, 
		 "sigma_profile": "yes", 
		 "theory": "DFT", 
		 "functional": "B3LYP", 
		 "basiset": "6-31G**", 
		 "properties": { 
			 "R2extent": 4189.4653, 
			 "electric_dipole_moment_norm": 4.04073715428, 
			 "electric_quadrupole_moment_norm": 15.8884086082, 
			 "total_energy": -590.281521065, 
			 "HOMO_LUMO_gap": 0.19717, 
			 "cosmo_polarized_energy": -11.73, 
			 "cosmo_cavitation_energy": 29.49, 
			 "cosmo_dispersion_energy": -21.26, 
			 "cosmo_repulsion_energy": 1.71, 
			 "cosmo_total_nonelectrostatic_energy": 9.93, 
			 "SMD_solvation_energy": 3.58 
		},
		"coords": [
			{
				"x": 0.5302818318,
				"y": -3.2280305706,
				"z": -4.1744864166,
				"element": "C" 
			},
			{
				"x": 1.1940304814,
				"y": -2.8766318561,
				"z": -2.9215928051,
				"element": "N" 
			},
			{
				"x": 2.0948539191,
				"y": -1.7319545822,
				"z": -3.0625687061,
				"element": "C" 
			},
			{
				"x": 2.9117919965,
				"y": -1.5548006663,
				"z": -1.7844486843,
				"element": "C" 
			},
			{
				"x": 3.9491023888,
				"y": -2.1851834176,
				"z": -1.6248857247,
				"element": "O" 
			},
			{
				"x": 2.4911454869,
				"y": -0.6590450679,
				"z": -0.8240694499,
				"element": "N" 
			},
			{
				"x": 1.3096619487,
				"y": 0.0879979508,
				"z": -0.6707482387,
				"element": "C" 
			},
			{
				"x": 1.4649902594,
				"y": 1.2049080132,
				"z": 0.0486866928,
				"element": "N" 
			},
			{
				"x": 0.3863626671,
				"y": 1.9649194067,
				"z": 0.2634314476,
				"element": "C" 
			},
			{
				"x": -0.8941809871,
				"y": 1.6840427361,
				"z": -0.2223691815,
				"element": "C" 
			},
			{
				"x": -2.0591963303,
				"y": 2.6055685039,
				"z": 0.0361329136,
				"element": "C" 
			},
			{
				"x": -1.0313077854,
				"y": 0.4903965624,
				"z": -0.9444719818,
				"element": "C" 
			},
			{
				"x": 0.0649521874,
				"y": -0.3347105085,
				"z": -1.1653285995,
				"element": "C" 
			},
			{
				"x": -0.1443712909,
				"y": -2.4168237875,
				"z": -4.4706856804,
				"element": "H" 
			},
			{
				"x": 1.2233520408,
				"y": -3.4090990886,
				"z": -5.0145201797,
				"element": "H" 
			},
			{
				"x": -0.0748976169,
				"y": -4.1268931548,
				"z": -4.0258309595,
				"element": "H" 
			},
			{
				"x": 1.7420812004,
				"y": -3.6690326418,
				"z": -2.5935302668,
				"element": "H" 
			},
			{
				"x": 2.8363922645,
				"y": -1.8616114108,
				"z": -3.8678747566,
				"element": "H" 
			},
			{
				"x": 1.5005748759,
				"y": -0.8407014629,
				"z": -3.2915712787,
				"element": "H" 
			},
			{
				"x": 3.1927144173,
				"y": -0.4691399081,
				"z": -0.1170082039,
				"element": "H" 
			},
			{
				"x": 0.5531727281,
				"y": 2.8597423159,
				"z": 0.8626157196,
				"element": "H" 
			},
			{
				"x": -1.7779552384,
				"y": 3.4191415399,
				"z": 0.7108050123,
				"element": "H" 
			},
			{
				"x": -2.9013323099,
				"y": 2.0710118244,
				"z": 0.4896948634,
				"element": "H" 
			},
			{
				"x": -2.4267285467,
				"y": 3.0581212522,
				"z": -0.8925393601,
				"element": "H" 
			},
			{
				"x": -2.0087651312,
				"y": 0.1903284167,
				"z": -1.3154079899,
				"element": "H" 
			},
			{
				"x": -0.0321254573,
				"y": -1.2966203984,
				"z": -1.6594281853,
				"element": "H" 
			}
		],
		 "valence_orbital": [ 
			{
				"type": "occ",
				"energy": -0.28377,
				"method": "rhf"
			},
			{
				"type": "occ",
				"energy": -0.26712,
				"method": "rhf"
			},
			{
				"type": "occ",
				"energy": -0.25339,
				"method": "rhf"
			},
			{
				"type": "occ",
				"energy": -0.23747,
				"method": "rhf"
			},
			{
				"type": "occ",
				"energy": -0.22592,
				"method": "rhf"
			},
			{
				"type": "unocc",
				"energy": -0.02875,
				"method": "rhf"
			},
			{
				"type": "unocc",
				"energy": -0.01598,
				"method": "rhf"
			},
			{
				"type": "unocc",
				"energy": 0.02818,
				"method": "rhf"
			},
			{
				"type": "unocc",
				"energy": 0.08828,
				"method": "rhf"
			},
			{
				"type": "unocc",
				"energy": 0.10083,
				"method": "rhf"
			}
		],
		"cosmo_sigma_profile": { 
			"-0.025": 0.0,
			"-0.024": 0.0,
			"-0.023": 0.0,
			"-0.022": 0.0,
			"-0.021": 0.0,
			"-0.02": 0.0,
			"-0.019": 0.0,
			"-0.018": 0.0,
			"-0.017": 0.0,
			"-0.016": 0.0,
			"-0.015": 0.0,
			"-0.014": 0.15611393698,
			"-0.013": 0.796369351519,
			"-0.012": 0.524468226702,
			"-0.011": 1.47205340493,
			"-0.01": 1.49466503481,
			"-0.009": 1.42464918948,
			"-0.008": 0.981270785481,
			"-0.007": 3.04610592146,
			"-0.006": 6.11311094982,
			"-0.005": 12.231611105,
			"-0.004": 25.6731435989,
			"-0.003": 25.3570946398,
			"-0.002": 25.9603759499,
			"-0.001": 24.1183667612,
			"0.0": 21.9176903224,
			"0.001": 13.9751950028,
			"0.002": 14.9972775664,
			"0.003": 12.4649031526,
			"0.004": 4.36336898147,
			"0.005": 4.64049617871,
			"0.006": 3.12551821421,
			"0.007": 2.84031143262,
			"0.008": 3.0869139742,
			"0.009": 3.02530451409,
			"0.01": 3.13887411166,
			"0.011": 2.42833436322,
			"0.012": 4.18989785217,
			"0.013": 6.23585766968,
			"0.014": 2.39264405786,
			"0.015": 0.479826435069,
			"0.016": 0.0,
			"0.017": 0.0,
			"0.018": 0.0,
			"0.019": 0.0,
			"0.02": 0.0,
			"0.021": 0.0,
			"0.022": 0.0,
			"0.023": 0.0,
			"0.024": 0.0,
			"0.025": 0.0
		}
	}
}
