{
	 "smiles": "CC1=CC=C(C=C1)S(=O)(=O)NC(C(N)C1=CC=CC=C1)C1=CC=CC=C1", 
	 "Tm": 401.15, 
	 "num_atms": 48, 
	 "gaussian": { 
		 "optdone": 1, 
		 "sigma_profile": "yes", 
		 "theory": "DFT", 
		 "functional": "B3LYP", 
		 "basiset": "6-31G**", 
		 "properties": { 
			 "R2extent": 10359.5006, 
			 "electric_dipole_moment_norm": 5.21102280363, 
			 "electric_quadrupole_moment_norm": 18.6423777869, 
			 "total_energy": -1471.57093228, 
			 "HOMO_LUMO_gap": 0.18987, 
			 "cosmo_polarized_energy": -19.07, 
			 "cosmo_cavitation_energy": 51.79, 
			 "cosmo_dispersion_energy": -33.76, 
			 "cosmo_repulsion_energy": 2.58, 
			 "cosmo_total_nonelectrostatic_energy": 20.61, 
			 "SMD_solvation_energy": 7.32 
		},
		"coords": [
			{
				"x": -4.5093095388,
				"y": -2.0546084801,
				"z": -2.3818866512,
				"element": "C" 
			},
			{
				"x": -3.6521520785,
				"y": -1.4892692101,
				"z": -1.2752554774,
				"element": "C" 
			},
			{
				"x": -3.3483918547,
				"y": -0.1229196919,
				"z": -1.2236871692,
				"element": "C" 
			},
			{
				"x": -2.579018872,
				"y": 0.4076103794,
				"z": -0.1875121761,
				"element": "C" 
			},
			{
				"x": -2.1002584192,
				"y": -0.4432221371,
				"z": 0.8098587445,
				"element": "C" 
			},
			{
				"x": -2.3954835488,
				"y": -1.8097933103,
				"z": 0.786493358,
				"element": "C" 
			},
			{
				"x": -3.1654591448,
				"y": -2.3210062054,
				"z": -0.2537227495,
				"element": "C" 
			},
			{
				"x": -1.0789505751,
				"y": 0.2155946046,
				"z": 2.1320672903,
				"element": "S" 
			},
			{
				"x": -1.2728584074,
				"y": 1.6682635312,
				"z": 2.1432990716,
				"element": "O" 
			},
			{
				"x": -1.2932132421,
				"y": -0.6160669354,
				"z": 3.317765378,
				"element": "O" 
			},
			{
				"x": 0.5247693179,
				"y": -0.0523472626,
				"z": 1.6997093078,
				"element": "N" 
			},
			{
				"x": 1.1049759932,
				"y": 0.581829277,
				"z": 0.4826778122,
				"element": "C" 
			},
			{
				"x": 1.7004745855,
				"y": 1.9748940214,
				"z": 0.8713276259,
				"element": "C" 
			},
			{
				"x": 2.6828112586,
				"y": 1.8068242457,
				"z": 1.9450412795,
				"element": "N" 
			},
			{
				"x": 2.3020715309,
				"y": 2.6759499193,
				"z": -0.3354978998,
				"element": "C" 
			},
			{
				"x": 3.6596565569,
				"y": 2.5528634864,
				"z": -0.659614881,
				"element": "C" 
			},
			{
				"x": 4.1809975784,
				"y": 3.1962243983,
				"z": -1.7830544197,
				"element": "C" 
			},
			{
				"x": 3.3540713402,
				"y": 3.9676484991,
				"z": -2.6020050165,
				"element": "C" 
			},
			{
				"x": 2.0002543975,
				"y": 4.0978630563,
				"z": -2.286597978,
				"element": "C" 
			},
			{
				"x": 1.4825511187,
				"y": 3.460329879,
				"z": -1.1584273232,
				"element": "C" 
			},
			{
				"x": 2.0680253499,
				"y": -0.3978233651,
				"z": -0.1665611834,
				"element": "C" 
			},
			{
				"x": 3.1494399856,
				"y": -0.95124057,
				"z": 0.5382939713,
				"element": "C" 
			},
			{
				"x": 3.9956249878,
				"y": -1.8746145846,
				"z": -0.0775032262,
				"element": "C" 
			},
			{
				"x": 3.7792188173,
				"y": -2.2578593991,
				"z": -1.4025280431,
				"element": "C" 
			},
			{
				"x": 2.7093654899,
				"y": -1.7107028983,
				"z": -2.111725808,
				"element": "C" 
			},
			{
				"x": 1.8599835079,
				"y": -0.7912414639,
				"z": -1.4949948084,
				"element": "C" 
			},
			{
				"x": -5.5385723436,
				"y": -2.2133141971,
				"z": -2.0375342395,
				"element": "H" 
			},
			{
				"x": -4.5505470563,
				"y": -1.3804548354,
				"z": -3.2415948184,
				"element": "H" 
			},
			{
				"x": -4.1311668497,
				"y": -3.0227052494,
				"z": -2.7250548903,
				"element": "H" 
			},
			{
				"x": -3.724159633,
				"y": 0.5381537717,
				"z": -2.000098048,
				"element": "H" 
			},
			{
				"x": -2.3687542501,
				"y": 1.4700503816,
				"z": -0.1335943726,
				"element": "H" 
			},
			{
				"x": -2.042798981,
				"y": -2.4539966699,
				"z": 1.5851962067,
				"element": "H" 
			},
			{
				"x": -3.3994071792,
				"y": -3.3823173333,
				"z": -0.2717447713,
				"element": "H" 
			},
			{
				"x": 0.7512105486,
				"y": -1.0376516585,
				"z": 1.798526717,
				"element": "H" 
			},
			{
				"x": 0.3055738312,
				"y": 0.7813474933,
				"z": -0.2417727337,
				"element": "H" 
			},
			{
				"x": 0.8285467386,
				"y": 2.5634489109,
				"z": 1.1937465281,
				"element": "H" 
			},
			{
				"x": 3.0417427431,
				"y": 2.7187025254,
				"z": 2.2167103289,
				"element": "H" 
			},
			{
				"x": 2.2009705606,
				"y": 1.421427187,
				"z": 2.7542191899,
				"element": "H" 
			},
			{
				"x": 4.2987749893,
				"y": 1.9518469037,
				"z": -0.0218950639,
				"element": "H" 
			},
			{
				"x": 5.2366308823,
				"y": 3.0937749432,
				"z": -2.0196725585,
				"element": "H" 
			},
			{
				"x": 3.7623718316,
				"y": 4.4688908707,
				"z": -3.475158924,
				"element": "H" 
			},
			{
				"x": 1.3502053648,
				"y": 4.7049102119,
				"z": -2.9107945194,
				"element": "H" 
			},
			{
				"x": 0.4314822528,
				"y": 3.5814154558,
				"z": -0.9046993738,
				"element": "H" 
			},
			{
				"x": 3.3431859223,
				"y": -0.6279197466,
				"z": 1.5544934143,
				"element": "H" 
			},
			{
				"x": 4.830195303,
				"y": -2.2911164144,
				"z": 0.4796266204,
				"element": "H" 
			},
			{
				"x": 4.440233493,
				"y": -2.9764954328,
				"z": -1.8786841364,
				"element": "H" 
			},
			{
				"x": 2.5320627112,
				"y": -2.0007361196,
				"z": -3.14348437,
				"element": "H" 
			},
			{
				"x": 1.0264229858,
				"y": -0.3717407821,
				"z": -2.0520952138,
				"element": "H" 
			}
		],
		 "valence_orbital": [ 
			{
				"type": "occ",
				"energy": -0.25329,
				"method": "rhf"
			},
			{
				"type": "occ",
				"energy": -0.25001,
				"method": "rhf"
			},
			{
				"type": "occ",
				"energy": -0.24388,
				"method": "rhf"
			},
			{
				"type": "occ",
				"energy": -0.2416,
				"method": "rhf"
			},
			{
				"type": "occ",
				"energy": -0.22709,
				"method": "rhf"
			},
			{
				"type": "unocc",
				"energy": -0.03722,
				"method": "rhf"
			},
			{
				"type": "unocc",
				"energy": -0.02293,
				"method": "rhf"
			},
			{
				"type": "unocc",
				"energy": -0.00907,
				"method": "rhf"
			},
			{
				"type": "unocc",
				"energy": -0.00448,
				"method": "rhf"
			},
			{
				"type": "unocc",
				"energy": 0.00184,
				"method": "rhf"
			}
		],
		"cosmo_sigma_profile": { 
			"-0.025": 0.0,
			"-0.024": 0.0,
			"-0.023": 0.0,
			"-0.022": 0.0,
			"-0.021": 0.0,
			"-0.02": 0.0,
			"-0.019": 0.0,
			"-0.018": 0.0,
			"-0.017": 0.0,
			"-0.016": 0.0,
			"-0.015": 0.0,
			"-0.014": 0.157782026485,
			"-0.013": 0.767490570369,
			"-0.012": 0.64340287048,
			"-0.011": 1.2624214168,
			"-0.01": 1.70653698104,
			"-0.009": 2.17624851315,
			"-0.008": 3.3944804599,
			"-0.007": 6.17756453313,
			"-0.006": 18.8120662122,
			"-0.005": 35.742655652,
			"-0.004": 40.0594835915,
			"-0.003": 36.4088122928,
			"-0.002": 32.2800960314,
			"-0.001": 32.2869665867,
			"0.0": 25.8904682303,
			"0.001": 24.1180172143,
			"0.002": 24.8776786485,
			"0.003": 30.5290051145,
			"0.004": 20.2470561884,
			"0.005": 20.6717138455,
			"0.006": 18.2895491862,
			"0.007": 5.47366163299,
			"0.008": 4.60956178709,
			"0.009": 3.93515822502,
			"0.01": 6.9284342554,
			"0.011": 8.89143701842,
			"0.012": 4.63117695699,
			"0.013": 0.381852417587,
			"0.014": 0.0744240226974,
			"0.015": 0.0,
			"0.016": 0.0,
			"0.017": 0.0,
			"0.018": 0.0,
			"0.019": 0.0,
			"0.02": 0.0,
			"0.021": 0.0,
			"0.022": 0.0,
			"0.023": 0.0,
			"0.024": 0.0,
			"0.025": 0.0
		}
	}
}
