{
	 "smiles": "[O-][N+](=O)C1=CC=C2C3=C(C=CC=C3)C3=C2C1=CC=C3", 
	 "Tm": 428.15, 
	 "num_atms": 28, 
	 "gaussian": { 
		 "optdone": 1, 
		 "sigma_profile": "yes", 
		 "theory": "DFT", 
		 "functional": "B3LYP", 
		 "basiset": "6-31G**", 
		 "properties": { 
			 "R2extent": 5141.4941, 
			 "electric_dipole_moment_norm": 5.29111803403, 
			 "electric_quadrupole_moment_norm": 16.6611482798, 
			 "total_energy": -820.245645004, 
			 "HOMO_LUMO_gap": 0.12674, 
			 "cosmo_polarized_energy": -9.7, 
			 "cosmo_cavitation_energy": 32.41, 
			 "cosmo_dispersion_energy": -24.07, 
			 "cosmo_repulsion_energy": 1.76, 
			 "cosmo_total_nonelectrostatic_energy": 10.09, 
			 "SMD_solvation_energy": 6.65 
		},
		"coords": [
			{
				"x": 1.4091434959,
				"y": 3.9835291371,
				"z": 2.9951306238,
				"element": "O" 
			},
			{
				"x": 1.3061432361,
				"y": 2.756146115,
				"z": 2.9565573461,
				"element": "N" 
			},
			{
				"x": 1.6023222126,
				"y": 2.0174780968,
				"z": 3.8984598813,
				"element": "O" 
			},
			{
				"x": 0.8025068827,
				"y": 2.1418511913,
				"z": 1.7190421373,
				"element": "C" 
			},
			{
				"x": 0.4843252909,
				"y": 3.0181336712,
				"z": 0.6902866414,
				"element": "C" 
			},
			{
				"x": -0.0100013131,
				"y": 2.5748915875,
				"z": -0.5556085844,
				"element": "C" 
			},
			{
				"x": -0.1796586263,
				"y": 1.2183537103,
				"z": -0.7479656537,
				"element": "C" 
			},
			{
				"x": -0.6548452605,
				"y": 0.3870903616,
				"z": -1.8666836135,
				"element": "C" 
			},
			{
				"x": -0.600514828,
				"y": -0.9753927778,
				"z": -1.4543514135,
				"element": "C" 
			},
			{
				"x": -0.9961651345,
				"y": -1.985737238,
				"z": -2.3236127701,
				"element": "C" 
			},
			{
				"x": -1.4462153739,
				"y": -1.6378241021,
				"z": -3.6044844347,
				"element": "C" 
			},
			{
				"x": -1.4993232498,
				"y": -0.3007651633,
				"z": -4.0085154784,
				"element": "C" 
			},
			{
				"x": -1.1028857917,
				"y": 0.7239246855,
				"z": -3.1399725766,
				"element": "C" 
			},
			{
				"x": -0.0897015463,
				"y": -1.0142865919,
				"z": -0.069639469,
				"element": "C" 
			},
			{
				"x": 0.1499343157,
				"y": 0.3318931245,
				"z": 0.3136247061,
				"element": "C" 
			},
			{
				"x": 0.6458278984,
				"y": 0.7217089416,
				"z": 1.5742162816,
				"element": "C" 
			},
			{
				"x": 0.9085730263,
				"y": -0.342437648,
				"z": 2.4905404453,
				"element": "C" 
			},
			{
				"x": 0.674366483,
				"y": -1.6541319231,
				"z": 2.1151301177,
				"element": "C" 
			},
			{
				"x": 0.1738640105,
				"y": -2.0178028807,
				"z": 0.8366336254,
				"element": "C" 
			},
			{
				"x": 0.6286723975,
				"y": 4.0753575539,
				"z": 0.8730012048,
				"element": "H" 
			},
			{
				"x": -0.2430598872,
				"y": 3.3032291529,
				"z": -1.3260959606,
				"element": "H" 
			},
			{
				"x": -0.9596625963,
				"y": -3.0286751752,
				"z": -2.0217005857,
				"element": "H" 
			},
			{
				"x": -1.7579174668,
				"y": -2.4183916682,
				"z": -4.2922672895,
				"element": "H" 
			},
			{
				"x": -1.8513844336,
				"y": -0.0538379215,
				"z": -5.0055609931,
				"element": "H" 
			},
			{
				"x": -1.1467712072,
				"y": 1.7610967705,
				"z": -3.4605629851,
				"element": "H" 
			},
			{
				"x": 1.2899064434,
				"y": -0.1195245552,
				"z": 3.4753545241,
				"element": "H" 
			},
			{
				"x": 0.8837381861,
				"y": -2.4415926937,
				"z": 2.8334047389,
				"element": "H" 
			},
			{
				"x": 0.0098828362,
				"y": -3.064983761,
				"z": 0.598739534,
				"element": "H" 
			}
		],
		 "valence_orbital": [ 
			{
				"type": "occ",
				"energy": -0.2836,
				"method": "rhf"
			},
			{
				"type": "occ",
				"energy": -0.28083,
				"method": "rhf"
			},
			{
				"type": "occ",
				"energy": -0.26658,
				"method": "rhf"
			},
			{
				"type": "occ",
				"energy": -0.23851,
				"method": "rhf"
			},
			{
				"type": "occ",
				"energy": -0.2311,
				"method": "rhf"
			},
			{
				"type": "unocc",
				"energy": -0.10436,
				"method": "rhf"
			},
			{
				"type": "unocc",
				"energy": -0.05291,
				"method": "rhf"
			},
			{
				"type": "unocc",
				"energy": -0.03467,
				"method": "rhf"
			},
			{
				"type": "unocc",
				"energy": -0.01622,
				"method": "rhf"
			},
			{
				"type": "unocc",
				"energy": 0.01433,
				"method": "rhf"
			}
		],
		"cosmo_sigma_profile": { 
			"-0.025": 0.0,
			"-0.024": 0.0,
			"-0.023": 0.0,
			"-0.022": 0.0,
			"-0.021": 0.0,
			"-0.02": 0.0,
			"-0.019": 0.0,
			"-0.018": 0.0,
			"-0.017": 0.0,
			"-0.016": 0.0,
			"-0.015": 0.0,
			"-0.014": 0.0,
			"-0.013": 0.0,
			"-0.012": 0.0,
			"-0.011": 0.0,
			"-0.01": 0.0,
			"-0.009": 0.0,
			"-0.008": 1.51103349748,
			"-0.007": 10.0976582477,
			"-0.006": 18.5505652758,
			"-0.005": 18.9551733563,
			"-0.004": 17.9920759846,
			"-0.003": 14.6302026924,
			"-0.002": 15.3100336509,
			"-0.001": 16.0845109329,
			"0.0": 21.426320182,
			"0.001": 31.2474386947,
			"0.002": 26.7855182199,
			"0.003": 21.6837863872,
			"0.004": 16.076602979,
			"0.005": 8.40926843707,
			"0.006": 2.62864428433,
			"0.007": 5.1149006798,
			"0.008": 6.97069062756,
			"0.009": 4.68337050946,
			"0.01": 3.5302385218,
			"0.011": 0.846090320325,
			"0.012": 0.0,
			"0.013": 0.0,
			"0.014": 0.0,
			"0.015": 0.0,
			"0.016": 0.0,
			"0.017": 0.0,
			"0.018": 0.0,
			"0.019": 0.0,
			"0.02": 0.0,
			"0.021": 0.0,
			"0.022": 0.0,
			"0.023": 0.0,
			"0.024": 0.0,
			"0.025": 0.0
		}
	}
}
