{
	 "smiles": "NC1=NC=NC2=C1N=CN2C1CC(O)C(CO)O1", 
	 "Tm": 459.15, 
	 "num_atms": 31, 
	 "gaussian": { 
		 "optdone": 1, 
		 "sigma_profile": "yes", 
		 "theory": "DFT", 
		 "functional": "B3LYP", 
		 "basiset": "6-31G**", 
		 "properties": { 
			 "R2extent": 5585.5884, 
			 "electric_dipole_moment_norm": 1.55234923261, 
			 "electric_quadrupole_moment_norm": 17.2502460797, 
			 "total_energy": -888.320231789, 
			 "HOMO_LUMO_gap": 0.19925, 
			 "cosmo_polarized_energy": -21.04, 
			 "cosmo_cavitation_energy": 34.11, 
			 "cosmo_dispersion_energy": -24.94, 
			 "cosmo_repulsion_energy": 1.93, 
			 "cosmo_total_nonelectrostatic_energy": 11.1, 
			 "SMD_solvation_energy": 1.38 
		},
		"coords": [
			{
				"x": -1.5625672625,
				"y": -4.282291573,
				"z": -1.5623490825,
				"element": "N" 
			},
			{
				"x": -0.8600287185,
				"y": -3.5090312573,
				"z": -0.698284834,
				"element": "C" 
			},
			{
				"x": 0.3460329294,
				"y": -3.9339518056,
				"z": -0.2788452166,
				"element": "N" 
			},
			{
				"x": 1.0449414969,
				"y": -3.1453517542,
				"z": 0.5528589711,
				"element": "C" 
			},
			{
				"x": 0.711560729,
				"y": -1.9510864324,
				"z": 1.0542854879,
				"element": "N" 
			},
			{
				"x": -0.49819715,
				"y": -1.5601212164,
				"z": 0.6238486056,
				"element": "C" 
			},
			{
				"x": -1.3433463312,
				"y": -2.2651124926,
				"z": -0.2400705812,
				"element": "C" 
			},
			{
				"x": -2.5213220772,
				"y": -1.5775418746,
				"z": -0.4645891484,
				"element": "N" 
			},
			{
				"x": -2.389147084,
				"y": -0.4829337802,
				"z": 0.2477530955,
				"element": "C" 
			},
			{
				"x": -1.1807814895,
				"y": -0.3948056865,
				"z": 0.9204970331,
				"element": "N" 
			},
			{
				"x": -0.772933735,
				"y": 0.641822121,
				"z": 1.8889422756,
				"element": "C" 
			},
			{
				"x": 0.5968377689,
				"y": 1.2466506532,
				"z": 1.5511053866,
				"element": "C" 
			},
			{
				"x": 0.1928720244,
				"y": 2.4070384799,
				"z": 0.6356807375,
				"element": "C" 
			},
			{
				"x": 1.1031285771,
				"y": 3.4962800114,
				"z": 0.5510099471,
				"element": "O" 
			},
			{
				"x": -1.0930774676,
				"y": 2.8945841013,
				"z": 1.3114908483,
				"element": "C" 
			},
			{
				"x": -2.0399498397,
				"y": 3.6515840188,
				"z": 0.3860481179,
				"element": "C" 
			},
			{
				"x": -1.4830444356,
				"y": 4.9029800649,
				"z": 0.0271959643,
				"element": "O" 
			},
			{
				"x": -1.7128474101,
				"y": 1.7017698283,
				"z": 1.8262154548,
				"element": "O" 
			},
			{
				"x": -1.2311562216,
				"y": -5.2173175316,
				"z": -1.7385147715,
				"element": "H" 
			},
			{
				"x": -2.5213969493,
				"y": -4.0473914783,
				"z": -1.7622908056,
				"element": "H" 
			},
			{
				"x": 2.0134359721,
				"y": -3.5356444695,
				"z": 0.859728727,
				"element": "H" 
			},
			{
				"x": -3.1222322286,
				"y": 0.3044799116,
				"z": 0.3341303234,
				"element": "H" 
			},
			{
				"x": -0.8033441441,
				"y": 0.1939609487,
				"z": 2.8876270857,
				"element": "H" 
			},
			{
				"x": 1.0491108426,
				"y": 1.6543826641,
				"z": 2.4612414041,
				"element": "H" 
			},
			{
				"x": 1.2762398429,
				"y": 0.5116568559,
				"z": 1.1175244404,
				"element": "H" 
			},
			{
				"x": -0.0460288906,
				"y": 2.0264096264,
				"z": -0.369313568,
				"element": "H" 
			},
			{
				"x": 1.8705642753,
				"y": 3.218137618,
				"z": 0.0346052866,
				"element": "H" 
			},
			{
				"x": -0.8164791734,
				"y": 3.5558627354,
				"z": 2.1452969669,
				"element": "H" 
			},
			{
				"x": -2.9868489148,
				"y": 3.8492642534,
				"z": 0.8988387831,
				"element": "H" 
			},
			{
				"x": -2.2633189696,
				"y": 3.0262256459,
				"z": -0.4953289571,
				"element": "H" 
			},
			{
				"x": -0.5347759657,
				"y": 4.7731918139,
				"z": -0.1277379777,
				"element": "H" 
			}
		],
		 "valence_orbital": [ 
			{
				"type": "occ",
				"energy": -0.28033,
				"method": "rhf"
			},
			{
				"type": "occ",
				"energy": -0.26798,
				"method": "rhf"
			},
			{
				"type": "occ",
				"energy": -0.26166,
				"method": "rhf"
			},
			{
				"type": "occ",
				"energy": -0.24917,
				"method": "rhf"
			},
			{
				"type": "occ",
				"energy": -0.21891,
				"method": "rhf"
			},
			{
				"type": "unocc",
				"energy": -0.01966,
				"method": "rhf"
			},
			{
				"type": "unocc",
				"energy": 0.00506,
				"method": "rhf"
			},
			{
				"type": "unocc",
				"energy": 0.03819,
				"method": "rhf"
			},
			{
				"type": "unocc",
				"energy": 0.03988,
				"method": "rhf"
			},
			{
				"type": "unocc",
				"energy": 0.0793,
				"method": "rhf"
			}
		],
		"cosmo_sigma_profile": { 
			"-0.025": 0.0,
			"-0.024": 0.0,
			"-0.023": 0.0,
			"-0.022": 0.0,
			"-0.021": 0.0,
			"-0.02": 0.0,
			"-0.019": 0.0,
			"-0.018": 0.0,
			"-0.017": 0.783032914328,
			"-0.016": 1.38374296313,
			"-0.015": 0.726101199845,
			"-0.014": 2.26140167296,
			"-0.013": 3.03922274054,
			"-0.012": 3.17980728196,
			"-0.011": 2.41381925541,
			"-0.01": 2.70686121223,
			"-0.009": 3.02712349038,
			"-0.008": 5.38114085457,
			"-0.007": 8.31528137892,
			"-0.006": 12.7372802207,
			"-0.005": 21.1816645163,
			"-0.004": 20.5070607411,
			"-0.003": 17.4485652957,
			"-0.002": 16.3227758014,
			"-0.001": 15.6469559606,
			"0.0": 16.4167567865,
			"0.001": 17.6303555989,
			"0.002": 14.201928206,
			"0.003": 10.8917743416,
			"0.004": 9.43060310665,
			"0.005": 8.57159075507,
			"0.006": 7.31215811209,
			"0.007": 7.62973976288,
			"0.008": 6.94131856664,
			"0.009": 6.13231056175,
			"0.01": 4.62960736057,
			"0.011": 5.6609098796,
			"0.012": 5.67746452374,
			"0.013": 3.79814435063,
			"0.014": 4.76665346941,
			"0.015": 1.88774465179,
			"0.016": 0.702983385026,
			"0.017": 0.0,
			"0.018": 0.0,
			"0.019": 0.0,
			"0.02": 0.0,
			"0.021": 0.0,
			"0.022": 0.0,
			"0.023": 0.0,
			"0.024": 0.0,
			"0.025": 0.0
		}
	}
}
