{
	 "smiles": "CS(=O)(=O)C1=CC(C(O)=O)=C(Br)C=C1", 
	 "Tm": 477.15, 
	 "num_atms": 21, 
	 "gaussian": { 
		 "optdone": 1, 
		 "sigma_profile": "yes", 
		 "theory": "DFT", 
		 "functional": "B3LYP", 
		 "basiset": "6-31G**", 
		 "properties": { 
			 "R2extent": 5678.6225, 
			 "electric_dipole_moment_norm": 3.81659815674, 
			 "electric_quadrupole_moment_norm": 15.8479650113, 
			 "total_energy": -3579.49906455, 
			 "HOMO_LUMO_gap": 0.19189, 
			 "cosmo_polarized_energy": -19.61, 
			 "cosmo_cavitation_energy": 29.66, 
			 "cosmo_dispersion_energy": -22.31, 
			 "cosmo_repulsion_energy": 1.71, 
			 "cosmo_total_nonelectrostatic_energy": 9.06, 
			 "SMD_solvation_energy": 5.03 
		},
		"coords": [
			{
				"x": 1.3932657647,
				"y": 0.185369119,
				"z": 2.4224013167,
				"element": "C" 
			},
			{
				"x": 0.9972408452,
				"y": -1.2721050363,
				"z": 1.4275130581,
				"element": "S" 
			},
			{
				"x": 2.1746048291,
				"y": -1.5800180308,
				"z": 0.6031529792,
				"element": "O" 
			},
			{
				"x": 0.4022149846,
				"y": -2.2746014201,
				"z": 2.3238177711,
				"element": "O" 
			},
			{
				"x": -0.3079718499,
				"y": -0.691858981,
				"z": 0.3271726613,
				"element": "C" 
			},
			{
				"x": 0.0312567195,
				"y": -0.1165163412,
				"z": -0.8908594627,
				"element": "C" 
			},
			{
				"x": -0.9643361271,
				"y": 0.3387837026,
				"z": -1.7723637407,
				"element": "C" 
			},
			{
				"x": -0.5403584617,
				"y": 0.9258255781,
				"z": -3.0819409372,
				"element": "C" 
			},
			{
				"x": 0.7963420739,
				"y": 1.1613934208,
				"z": -3.114690544,
				"element": "O" 
			},
			{
				"x": -1.2571621778,
				"y": 1.1707303948,
				"z": -4.0262539344,
				"element": "O" 
			},
			{
				"x": -2.3118441419,
				"y": 0.1931526119,
				"z": -1.3833937458,
				"element": "C" 
			},
			{
				"x": -3.7822583921,
				"y": 0.7805474612,
				"z": -2.4339271784,
				"element": "Br" 
			},
			{
				"x": -2.6397290625,
				"y": -0.3985420458,
				"z": -0.158641924,
				"element": "C" 
			},
			{
				"x": -1.6433049901,
				"y": -0.8485568011,
				"z": 0.7005193932,
				"element": "C" 
			},
			{
				"x": 2.1825636558,
				"y": -0.1234058636,
				"z": 3.1110475426,
				"element": "H" 
			},
			{
				"x": 0.5062361304,
				"y": 0.4953424789,
				"z": 2.9765364827,
				"element": "H" 
			},
			{
				"x": 1.750566113,
				"y": 0.9816447605,
				"z": 1.768060333,
				"element": "H" 
			},
			{
				"x": 1.0723839814,
				"y": -0.037246397,
				"z": -1.1782054793,
				"element": "H" 
			},
			{
				"x": 0.980317602,
				"y": 1.5059412164,
				"z": -4.0039403669,
				"element": "H" 
			},
			{
				"x": -3.6837358671,
				"y": -0.5068345574,
				"z": 0.1103217078,
				"element": "H" 
			},
			{
				"x": -1.8929916294,
				"y": -1.3315452698,
				"z": 1.6393740675,
				"element": "H" 
			}
		],
		 "valence_orbital": [ 
			{
				"type": "occ",
				"energy": -0.30516,
				"method": "rhf"
			},
			{
				"type": "occ",
				"energy": -0.29835,
				"method": "rhf"
			},
			{
				"type": "occ",
				"energy": -0.29459,
				"method": "rhf"
			},
			{
				"type": "occ",
				"energy": -0.27438,
				"method": "rhf"
			},
			{
				"type": "occ",
				"energy": -0.26981,
				"method": "rhf"
			},
			{
				"type": "unocc",
				"energy": -0.07792,
				"method": "rhf"
			},
			{
				"type": "unocc",
				"energy": -0.0549,
				"method": "rhf"
			},
			{
				"type": "unocc",
				"energy": -0.00815,
				"method": "rhf"
			},
			{
				"type": "unocc",
				"energy": 0.02057,
				"method": "rhf"
			},
			{
				"type": "unocc",
				"energy": 0.05953,
				"method": "rhf"
			}
		],
		"cosmo_sigma_profile": { 
			"-0.025": 0.0,
			"-0.024": 0.0,
			"-0.023": 0.0,
			"-0.022": 0.0,
			"-0.021": 0.0,
			"-0.02": 0.0,
			"-0.019": 0.411094656007,
			"-0.018": 0.960565005281,
			"-0.017": 0.679626035814,
			"-0.016": 1.07644141512,
			"-0.015": 0.873002913507,
			"-0.014": 0.31865970467,
			"-0.013": 0.354122340231,
			"-0.012": 0.993563607792,
			"-0.011": 0.633169564891,
			"-0.01": 0.665913517399,
			"-0.009": 6.4985698638,
			"-0.008": 12.1793367054,
			"-0.007": 10.3863765563,
			"-0.006": 11.2146614243,
			"-0.005": 11.2219940453,
			"-0.004": 14.3908659485,
			"-0.003": 16.0923865542,
			"-0.002": 13.9576102124,
			"-0.001": 23.2791508141,
			"0.0": 18.3626900728,
			"0.001": 9.89055906589,
			"0.002": 9.94148476361,
			"0.003": 11.7415210749,
			"0.004": 8.49036049603,
			"0.005": 5.55334875802,
			"0.006": 5.07066131817,
			"0.007": 5.43171892264,
			"0.008": 4.89451168995,
			"0.009": 5.14044986278,
			"0.01": 8.87026511494,
			"0.011": 14.42696216,
			"0.012": 6.80118636499,
			"0.013": 0.0104640852892,
			"0.014": 0.0,
			"0.015": 0.0,
			"0.016": 0.0,
			"0.017": 0.0,
			"0.018": 0.0,
			"0.019": 0.0,
			"0.02": 0.0,
			"0.021": 0.0,
			"0.022": 0.0,
			"0.023": 0.0,
			"0.024": 0.0,
			"0.025": 0.0
		}
	}
}
