{
	 "smiles": "CC1=CC(C(=O)N2CCSCC2)=C(O)C=C1", 
	 "Tm": 429.15, 
	 "num_atms": 31, 
	 "gaussian": { 
		 "optdone": 1, 
		 "sigma_profile": "yes", 
		 "theory": "DFT", 
		 "functional": "B3LYP", 
		 "basiset": "6-31G**", 
		 "properties": { 
			 "R2extent": 4973.941, 
			 "electric_dipole_moment_norm": 4.32361874591, 
			 "electric_quadrupole_moment_norm": 11.7220722643, 
			 "total_energy": -1069.712702, 
			 "HOMO_LUMO_gap": 0.19629, 
			 "cosmo_polarized_energy": -17.7, 
			 "cosmo_cavitation_energy": 34.29, 
			 "cosmo_dispersion_energy": -25.03, 
			 "cosmo_repulsion_energy": 1.92, 
			 "cosmo_total_nonelectrostatic_energy": 11.18, 
			 "SMD_solvation_energy": 5.43 
		},
		"coords": [
			{
				"x": -2.0644234055,
				"y": 2.5237012845,
				"z": -2.9356324822,
				"element": "C" 
			},
			{
				"x": -1.3897200037,
				"y": 2.0085937988,
				"z": -1.6854507998,
				"element": "C" 
			},
			{
				"x": -1.0035784624,
				"y": 0.6704201558,
				"z": -1.5717514688,
				"element": "C" 
			},
			{
				"x": -0.3834522574,
				"y": 0.1587574091,
				"z": -0.4247990006,
				"element": "C" 
			},
			{
				"x": -0.0895188282,
				"y": -1.3196728226,
				"z": -0.4064081441,
				"element": "C" 
			},
			{
				"x": -0.9680752848,
				"y": -2.1174796163,
				"z": -0.7346449125,
				"element": "O" 
			},
			{
				"x": 1.1665349618,
				"y": -1.7391330094,
				"z": -0.0397325935,
				"element": "N" 
			},
			{
				"x": 2.3419017518,
				"y": -0.86391154,
				"z": 0.034847748,
				"element": "C" 
			},
			{
				"x": 3.6110083033,
				"y": -1.5678363756,
				"z": -0.4748678445,
				"element": "C" 
			},
			{
				"x": 3.3288167825,
				"y": -2.5233587913,
				"z": -2.0120262076,
				"element": "S" 
			},
			{
				"x": 2.001345371,
				"y": -3.6561423965,
				"z": -1.383564717,
				"element": "C" 
			},
			{
				"x": 1.4203540787,
				"y": -3.1768269062,
				"z": -0.0456362085,
				"element": "C" 
			},
			{
				"x": -0.1909041173,
				"y": 1.0158905735,
				"z": 0.6723322242,
				"element": "C" 
			},
			{
				"x": 0.3615501223,
				"y": 0.5018312323,
				"z": 1.8158473723,
				"element": "O" 
			},
			{
				"x": -0.5778843901,
				"y": 2.356433284,
				"z": 0.5816764115,
				"element": "C" 
			},
			{
				"x": -1.1613003312,
				"y": 2.8443905775,
				"z": -0.5851212572,
				"element": "C" 
			},
			{
				"x": -1.8746826546,
				"y": 3.591601561,
				"z": -3.0814776225,
				"element": "H" 
			},
			{
				"x": -1.7130622821,
				"y": 1.9946310761,
				"z": -3.8264490757,
				"element": "H" 
			},
			{
				"x": -3.1523426089,
				"y": 2.3895745838,
				"z": -2.8867083358,
				"element": "H" 
			},
			{
				"x": -1.1849865592,
				"y": -0.0173320513,
				"z": -2.3925050455,
				"element": "H" 
			},
			{
				"x": 2.1500830833,
				"y": 0.0217308568,
				"z": -0.5749129112,
				"element": "H" 
			},
			{
				"x": 2.5068117583,
				"y": -0.5293472803,
				"z": 1.0673057854,
				"element": "H" 
			},
			{
				"x": 4.3695194761,
				"y": -0.8192315614,
				"z": -0.7182381227,
				"element": "H" 
			},
			{
				"x": 4.0410923477,
				"y": -2.2204923253,
				"z": 0.2902149904,
				"element": "H" 
			},
			{
				"x": 1.2151691455,
				"y": -3.6649482189,
				"z": -2.1414568689,
				"element": "H" 
			},
			{
				"x": 2.4025354679,
				"y": -4.6687952768,
				"z": -1.2805322693,
				"element": "H" 
			},
			{
				"x": 2.0988988956,
				"y": -3.4170444509,
				"z": 0.7795814767,
				"element": "H" 
			},
			{
				"x": 0.4706998453,
				"y": -3.6825167865,
				"z": 0.1332328745,
				"element": "H" 
			},
			{
				"x": 0.3780603767,
				"y": 1.192508203,
				"z": 2.4909332779,
				"element": "H" 
			},
			{
				"x": -0.4236798457,
				"y": 3.0182963076,
				"z": 1.4319918299,
				"element": "H" 
			},
			{
				"x": -1.4486707365,
				"y": 3.8917085055,
				"z": -0.6348481029,
				"element": "H" 
			}
		],
		 "valence_orbital": [ 
			{
				"type": "occ",
				"energy": -0.26272,
				"method": "rhf"
			},
			{
				"type": "occ",
				"energy": -0.23884,
				"method": "rhf"
			},
			{
				"type": "occ",
				"energy": -0.23055,
				"method": "rhf"
			},
			{
				"type": "occ",
				"energy": -0.22065,
				"method": "rhf"
			},
			{
				"type": "occ",
				"energy": -0.21772,
				"method": "rhf"
			},
			{
				"type": "unocc",
				"energy": -0.02143,
				"method": "rhf"
			},
			{
				"type": "unocc",
				"energy": 0.00615,
				"method": "rhf"
			},
			{
				"type": "unocc",
				"energy": 0.03617,
				"method": "rhf"
			},
			{
				"type": "unocc",
				"energy": 0.04848,
				"method": "rhf"
			},
			{
				"type": "unocc",
				"energy": 0.0625,
				"method": "rhf"
			}
		],
		"cosmo_sigma_profile": { 
			"-0.025": 0.0,
			"-0.024": 0.0,
			"-0.023": 0.0,
			"-0.022": 0.0,
			"-0.021": 0.0,
			"-0.02": 0.0,
			"-0.019": 0.0,
			"-0.018": 0.605625361076,
			"-0.017": 1.09910699497,
			"-0.016": 0.990505461734,
			"-0.015": 1.53617929854,
			"-0.014": 0.959091204328,
			"-0.013": 0.559411063111,
			"-0.012": 0.517309751622,
			"-0.011": 0.749185888651,
			"-0.01": 1.9613452801,
			"-0.009": 1.11186544782,
			"-0.008": 0.747433898212,
			"-0.007": 4.70438101749,
			"-0.006": 10.4496989297,
			"-0.005": 20.6069944005,
			"-0.004": 28.6580170909,
			"-0.003": 24.3740432878,
			"-0.002": 24.4087744006,
			"-0.001": 18.2637400883,
			"0.0": 19.407354469,
			"0.001": 14.9093561297,
			"0.002": 14.3627073218,
			"0.003": 12.5093397521,
			"0.004": 14.1192924199,
			"0.005": 13.5536329604,
			"0.006": 6.96474537146,
			"0.007": 6.27182789556,
			"0.008": 4.15351227725,
			"0.009": 4.86927000141,
			"0.01": 5.48307201291,
			"0.011": 2.9663383425,
			"0.012": 1.74453856273,
			"0.013": 3.02789496542,
			"0.014": 4.0536422359,
			"0.015": 1.19473528049,
			"0.016": 0.0311247128003,
			"0.017": 0.0,
			"0.018": 0.0,
			"0.019": 0.0,
			"0.02": 0.0,
			"0.021": 0.0,
			"0.022": 0.0,
			"0.023": 0.0,
			"0.024": 0.0,
			"0.025": 0.0
		}
	}
}
