{
	 "smiles": "O=C1N2C(CC3=CC=CC=C13)C=CC1=CC=CC=C21", 
	 "Tm": 364.15, 
	 "num_atms": 32, 
	 "gaussian": { 
		 "optdone": 1, 
		 "sigma_profile": "yes", 
		 "theory": "DFT", 
		 "functional": "B3LYP", 
		 "basiset": "6-31G**", 
		 "properties": { 
			 "R2extent": 5442.5181, 
			 "electric_dipole_moment_norm": 3.52726631402, 
			 "electric_quadrupole_moment_norm": 10.1194452205, 
			 "total_energy": -785.631128883, 
			 "HOMO_LUMO_gap": 0.1577, 
			 "cosmo_polarized_energy": -11.16, 
			 "cosmo_cavitation_energy": 34.08, 
			 "cosmo_dispersion_energy": -25.47, 
			 "cosmo_repulsion_energy": 1.88, 
			 "cosmo_total_nonelectrostatic_energy": 10.5, 
			 "SMD_solvation_energy": 5.12 
		},
		"coords": [
			{
				"x": 0.7764341679,
				"y": -0.97872131,
				"z": -0.7483485047,
				"element": "O" 
			},
			{
				"x": 0.2133955168,
				"y": -0.0465754475,
				"z": -0.1811750618,
				"element": "C" 
			},
			{
				"x": -0.3896809082,
				"y": -0.1697617734,
				"z": 1.0736441785,
				"element": "N" 
			},
			{
				"x": -1.0256249985,
				"y": 1.0255000192,
				"z": 1.7056645507,
				"element": "C" 
			},
			{
				"x": -1.6785240878,
				"y": 1.9340015262,
				"z": 0.6544160345,
				"element": "C" 
			},
			{
				"x": -0.7208898874,
				"y": 2.2928919488,
				"z": -0.4417808284,
				"element": "C" 
			},
			{
				"x": -0.7222616978,
				"y": 3.5259151349,
				"z": -1.0986058432,
				"element": "C" 
			},
			{
				"x": 0.1746530459,
				"y": 3.7667869388,
				"z": -2.1397168879,
				"element": "C" 
			},
			{
				"x": 1.0722920797,
				"y": 2.7709918718,
				"z": -2.5382760655,
				"element": "C" 
			},
			{
				"x": 1.0722451322,
				"y": 1.5379237357,
				"z": -1.8926415757,
				"element": "C" 
			},
			{
				"x": 0.1830077407,
				"y": 1.300240684,
				"z": -0.8361927014,
				"element": "C" 
			},
			{
				"x": -2.0776170799,
				"y": 0.632929085,
				"z": 2.7112543926,
				"element": "C" 
			},
			{
				"x": -2.1131779208,
				"y": -0.5778903678,
				"z": 3.2700052764,
				"element": "C" 
			},
			{
				"x": -1.0957747764,
				"y": -1.5708049085,
				"z": 2.9562576534,
				"element": "C" 
			},
			{
				"x": -0.9682566512,
				"y": -2.7245757065,
				"z": 3.739599819,
				"element": "C" 
			},
			{
				"x": 0.0348365217,
				"y": -3.6567528261,
				"z": 3.4946958841,
				"element": "C" 
			},
			{
				"x": 0.9256706378,
				"y": -3.4205444594,
				"z": 2.4496090186,
				"element": "C" 
			},
			{
				"x": 0.8114036301,
				"y": -2.2855924962,
				"z": 1.6445176257,
				"element": "C" 
			},
			{
				"x": -0.2077087266,
				"y": -1.3480988298,
				"z": 1.8739743875,
				"element": "C" 
			},
			{
				"x": -0.2340100795,
				"y": 1.6088308792,
				"z": 2.2105141846,
				"element": "H" 
			},
			{
				"x": -2.0531530468,
				"y": 2.8295640379,
				"z": 1.1612938672,
				"element": "H" 
			},
			{
				"x": -2.5533749509,
				"y": 1.4140546559,
				"z": 0.2385863582,
				"element": "H" 
			},
			{
				"x": -1.4258312371,
				"y": 4.296621044,
				"z": -0.7939231723,
				"element": "H" 
			},
			{
				"x": 0.1737857497,
				"y": 4.7306534291,
				"z": -2.6408555421,
				"element": "H" 
			},
			{
				"x": 1.7675877234,
				"y": 2.958432001,
				"z": -3.3510796775,
				"element": "H" 
			},
			{
				"x": 1.7470087711,
				"y": 0.7418824164,
				"z": -2.1871567537,
				"element": "H" 
			},
			{
				"x": -2.8063982082,
				"y": 1.3976720567,
				"z": 2.9656897578,
				"element": "H" 
			},
			{
				"x": -2.8773478256,
				"y": -0.8367719181,
				"z": 3.9983868889,
				"element": "H" 
			},
			{
				"x": -1.6681412693,
				"y": -2.8728495051,
				"z": 4.558101062,
				"element": "H" 
			},
			{
				"x": 0.1220059663,
				"y": -4.5471704349,
				"z": 4.1097106399,
				"element": "H" 
			},
			{
				"x": 1.7255340964,
				"y": -4.1260487088,
				"z": 2.2438838111,
				"element": "H" 
			},
			{
				"x": 1.4972125723,
				"y": -2.1427327725,
				"z": 0.8259472234,
				"element": "H" 
			}
		],
		 "valence_orbital": [ 
			{
				"type": "occ",
				"energy": -0.26061,
				"method": "rhf"
			},
			{
				"type": "occ",
				"energy": -0.25269,
				"method": "rhf"
			},
			{
				"type": "occ",
				"energy": -0.24741,
				"method": "rhf"
			},
			{
				"type": "occ",
				"energy": -0.23006,
				"method": "rhf"
			},
			{
				"type": "occ",
				"energy": -0.20519,
				"method": "rhf"
			},
			{
				"type": "unocc",
				"energy": -0.04749,
				"method": "rhf"
			},
			{
				"type": "unocc",
				"energy": -0.02754,
				"method": "rhf"
			},
			{
				"type": "unocc",
				"energy": -0.00769,
				"method": "rhf"
			},
			{
				"type": "unocc",
				"energy": 0.00782,
				"method": "rhf"
			},
			{
				"type": "unocc",
				"energy": 0.05565,
				"method": "rhf"
			}
		],
		"cosmo_sigma_profile": { 
			"-0.025": 0.0,
			"-0.024": 0.0,
			"-0.023": 0.0,
			"-0.022": 0.0,
			"-0.021": 0.0,
			"-0.02": 0.0,
			"-0.019": 0.0,
			"-0.018": 0.0,
			"-0.017": 0.0,
			"-0.016": 0.0,
			"-0.015": 0.0,
			"-0.014": 0.0,
			"-0.013": 0.0,
			"-0.012": 0.0,
			"-0.011": 0.0,
			"-0.01": 0.0,
			"-0.009": 0.0,
			"-0.008": 0.0,
			"-0.007": 2.20408668872,
			"-0.006": 19.1512587981,
			"-0.005": 27.140981901,
			"-0.004": 26.9061269897,
			"-0.003": 23.0598528541,
			"-0.002": 20.3520528424,
			"-0.001": 16.6615619723,
			"0.0": 15.5013106684,
			"0.001": 18.3100843351,
			"0.002": 17.1419279854,
			"0.003": 22.9833405324,
			"0.004": 25.4296213406,
			"0.005": 17.1159081045,
			"0.006": 6.08411063314,
			"0.007": 2.01912773893,
			"0.008": 1.72378957945,
			"0.009": 1.69545353699,
			"0.01": 2.27362087779,
			"0.011": 1.73142072683,
			"0.012": 2.63199191893,
			"0.013": 2.82148256491,
			"0.014": 0.0908094233442,
			"0.015": 0.0,
			"0.016": 0.0,
			"0.017": 0.0,
			"0.018": 0.0,
			"0.019": 0.0,
			"0.02": 0.0,
			"0.021": 0.0,
			"0.022": 0.0,
			"0.023": 0.0,
			"0.024": 0.0,
			"0.025": 0.0
		}
	}
}
