{
	 "smiles": "COC(=O)C1=CC(=CC=C1SCCCO)S(N)(=O)=O", 
	 "Tm": 397.15, 
	 "num_atms": 34, 
	 "gaussian": { 
		 "optdone": 1, 
		 "sigma_profile": "yes", 
		 "theory": "DFT", 
		 "functional": "B3LYP", 
		 "basiset": "6-31G**", 
		 "properties": { 
			 "R2extent": 8441.8319, 
			 "electric_dipole_moment_norm": 6.40731189658, 
			 "electric_quadrupole_moment_norm": 33.5552324346, 
			 "total_energy": -1655.37588529, 
			 "HOMO_LUMO_gap": 0.17608, 
			 "cosmo_polarized_energy": -27.65, 
			 "cosmo_cavitation_energy": 39.84, 
			 "cosmo_dispersion_energy": -28.28, 
			 "cosmo_repulsion_energy": 2.11, 
			 "cosmo_total_nonelectrostatic_energy": 13.66, 
			 "SMD_solvation_energy": 7.02 
		},
		"coords": [
			{
				"x": -2.9413303463,
				"y": 0.9498615335,
				"z": 2.7392001615,
				"element": "C" 
			},
			{
				"x": -1.7755296733,
				"y": 0.9325575627,
				"z": 1.8827969051,
				"element": "O" 
			},
			{
				"x": -0.9361738373,
				"y": 1.981106419,
				"z": 2.0353778134,
				"element": "C" 
			},
			{
				"x": -1.0730159981,
				"y": 2.8289685219,
				"z": 2.8880235064,
				"element": "O" 
			},
			{
				"x": 0.2393203212,
				"y": 1.9286517267,
				"z": 1.0971349174,
				"element": "C" 
			},
			{
				"x": 1.5018800036,
				"y": 1.9178679442,
				"z": 1.706592062,
				"element": "C" 
			},
			{
				"x": 2.6503962991,
				"y": 1.8406982657,
				"z": 0.9250993224,
				"element": "C" 
			},
			{
				"x": 2.5694338746,
				"y": 1.8383747904,
				"z": -0.4699939395,
				"element": "C" 
			},
			{
				"x": 1.3187455995,
				"y": 1.9120565754,
				"z": -1.073510712,
				"element": "C" 
			},
			{
				"x": 0.1405764474,
				"y": 1.9441113293,
				"z": -0.3091565802,
				"element": "C" 
			},
			{
				"x": -1.4365155792,
				"y": 2.1714262668,
				"z": -1.1351158958,
				"element": "S" 
			},
			{
				"x": -1.5427441409,
				"y": 0.6250035066,
				"z": -2.1472388933,
				"element": "C" 
			},
			{
				"x": -1.6281036379,
				"y": -0.6590795838,
				"z": -1.3191610675,
				"element": "C" 
			},
			{
				"x": -2.9353377961,
				"y": -0.8021938902,
				"z": -0.5246521181,
				"element": "C" 
			},
			{
				"x": -2.7880095467,
				"y": -1.6514414364,
				"z": 0.6066198153,
				"element": "O" 
			},
			{
				"x": 4.26466677,
				"y": 1.7567413228,
				"z": 1.7219963323,
				"element": "S" 
			},
			{
				"x": 4.6037670694,
				"y": 0.1300660201,
				"z": 1.9555692098,
				"element": "N" 
			},
			{
				"x": 4.1184989545,
				"y": 2.3254539719,
				"z": 3.0589802483,
				"element": "O" 
			},
			{
				"x": 5.2458520336,
				"y": 2.2285532666,
				"z": 0.7477135348,
				"element": "O" 
			},
			{
				"x": -3.5054424929,
				"y": 0.0594151798,
				"z": 2.4643155495,
				"element": "H" 
			},
			{
				"x": -3.5253199802,
				"y": 1.8548111181,
				"z": 2.5603254193,
				"element": "H" 
			},
			{
				"x": -2.6406809266,
				"y": 0.9190469678,
				"z": 3.7886153833,
				"element": "H" 
			},
			{
				"x": 1.5803062152,
				"y": 1.9779752719,
				"z": 2.786968924,
				"element": "H" 
			},
			{
				"x": 3.4768530849,
				"y": 1.8328022853,
				"z": -1.0645488923,
				"element": "H" 
			},
			{
				"x": 1.249323073,
				"y": 1.9773881905,
				"z": -2.154579745,
				"element": "H" 
			},
			{
				"x": -0.6917160077,
				"y": 0.5989811383,
				"z": -2.8329806354,
				"element": "H" 
			},
			{
				"x": -2.4411799725,
				"y": 0.7766891402,
				"z": -2.7556419171,
				"element": "H" 
			},
			{
				"x": -0.785772943,
				"y": -0.6788940822,
				"z": -0.6171284433,
				"element": "H" 
			},
			{
				"x": -1.4920439402,
				"y": -1.5221413134,
				"z": -1.9828107777,
				"element": "H" 
			},
			{
				"x": -3.2898962384,
				"y": 0.1928676178,
				"z": -0.2239357146,
				"element": "H" 
			},
			{
				"x": -3.7139624276,
				"y": -1.2564752685,
				"z": -1.1464955662,
				"element": "H" 
			},
			{
				"x": -2.1271095322,
				"y": -1.2259135609,
				"z": 1.1709890805,
				"element": "H" 
			},
			{
				"x": 4.725762706,
				"y": -0.3879343476,
				"z": 1.0918565417,
				"element": "H" 
			},
			{
				"x": 3.9854025651,
				"y": -0.3213024505,
				"z": 2.6212761714,
				"element": "H" 
			}
		],
		 "valence_orbital": [ 
			{
				"type": "occ",
				"energy": -0.30363,
				"method": "rhf"
			},
			{
				"type": "occ",
				"energy": -0.28776,
				"method": "rhf"
			},
			{
				"type": "occ",
				"energy": -0.28008,
				"method": "rhf"
			},
			{
				"type": "occ",
				"energy": -0.27287,
				"method": "rhf"
			},
			{
				"type": "occ",
				"energy": -0.24268,
				"method": "rhf"
			},
			{
				"type": "unocc",
				"energy": -0.0666,
				"method": "rhf"
			},
			{
				"type": "unocc",
				"energy": -0.05155,
				"method": "rhf"
			},
			{
				"type": "unocc",
				"energy": -0.00192,
				"method": "rhf"
			},
			{
				"type": "unocc",
				"energy": 0.02592,
				"method": "rhf"
			},
			{
				"type": "unocc",
				"energy": 0.0411,
				"method": "rhf"
			}
		],
		"cosmo_sigma_profile": { 
			"-0.025": 0.0,
			"-0.024": 0.0,
			"-0.023": 0.0,
			"-0.022": 0.0,
			"-0.021": 0.0,
			"-0.02": 0.0,
			"-0.019": 0.0,
			"-0.018": 0.0,
			"-0.017": 0.0,
			"-0.016": 0.521070071924,
			"-0.015": 2.35338874708,
			"-0.014": 3.11905690356,
			"-0.013": 2.86121311977,
			"-0.012": 3.21306331559,
			"-0.011": 2.60306122496,
			"-0.01": 2.28481072619,
			"-0.009": 1.83593346319,
			"-0.008": 6.42189097652,
			"-0.007": 11.5594595973,
			"-0.006": 17.9583911914,
			"-0.005": 18.1115262138,
			"-0.004": 25.6484427072,
			"-0.003": 28.4781407277,
			"-0.002": 24.4288573992,
			"-0.001": 19.4696452507,
			"0.0": 20.157194138,
			"0.001": 18.0545293675,
			"0.002": 10.2624038082,
			"0.003": 8.16087358159,
			"0.004": 8.79765053235,
			"0.005": 10.1742240893,
			"0.006": 8.53956381649,
			"0.007": 8.52020696186,
			"0.008": 7.18707250706,
			"0.009": 7.33800764896,
			"0.01": 13.3952994948,
			"0.011": 15.7820121449,
			"0.012": 4.52787076003,
			"0.013": 1.83926912033,
			"0.014": 2.2466533626,
			"0.015": 0.800449922057,
			"0.016": 0.0,
			"0.017": 0.0,
			"0.018": 0.0,
			"0.019": 0.0,
			"0.02": 0.0,
			"0.021": 0.0,
			"0.022": 0.0,
			"0.023": 0.0,
			"0.024": 0.0,
			"0.025": 0.0
		}
	}
}
