{
	 "smiles": "NC1=C2N=NNC2=NC=N1", 
	 "Tm": 573.15, 
	 "num_atms": 14, 
	 "gaussian": { 
		 "optdone": 1, 
		 "sigma_profile": "yes", 
		 "theory": "DFT", 
		 "functional": "B3LYP", 
		 "basiset": "6-31G**", 
		 "properties": { 
			 "R2extent": 1210.3843, 
			 "electric_dipole_moment_norm": 1.16750737899, 
			 "electric_quadrupole_moment_norm": 13.1232815462, 
			 "total_energy": -483.317799157, 
			 "HOMO_LUMO_gap": 0.19332, 
			 "cosmo_polarized_energy": -15.58, 
			 "cosmo_cavitation_energy": 18.99, 
			 "cosmo_dispersion_energy": -14.84, 
			 "cosmo_repulsion_energy": 1.2, 
			 "cosmo_total_nonelectrostatic_energy": 5.35, 
			 "SMD_solvation_energy": -1.28 
		},
		"coords": [
			{
				"x": -1.2518349049,
				"y": -1.6328203927,
				"z": -1.2145204088,
				"element": "N" 
			},
			{
				"x": -0.3187518024,
				"y": -0.6678603482,
				"z": -1.0866994176,
				"element": "C" 
			},
			{
				"x": 0.2029987871,
				"y": -0.273702107,
				"z": 0.1700807555,
				"element": "C" 
			},
			{
				"x": -0.0256595056,
				"y": -0.673268926,
				"z": 1.4633984855,
				"element": "N" 
			},
			{
				"x": 0.73442645,
				"y": 0.0300906603,
				"z": 2.2417711916,
				"element": "N" 
			},
			{
				"x": 1.4654426048,
				"y": 0.8936593083,
				"z": 1.469892273,
				"element": "N" 
			},
			{
				"x": 1.1649079401,
				"y": 0.7397847929,
				"z": 0.1526480888,
				"element": "C" 
			},
			{
				"x": 1.6425307811,
				"y": 1.3748808881,
				"z": -0.9289051356,
				"element": "N" 
			},
			{
				"x": 1.0711419422,
				"y": 0.9110626403,
				"z": -2.0431280491,
				"element": "C" 
			},
			{
				"x": 0.1395892177,
				"y": -0.0507582659,
				"z": -2.1873447813,
				"element": "N" 
			},
			{
				"x": -1.609952577,
				"y": -2.110385931,
				"z": -0.4039431475,
				"element": "H" 
			},
			{
				"x": -1.5832787228,
				"y": -1.8693377508,
				"z": -2.1359717653,
				"element": "H" 
			},
			{
				"x": 2.1191170599,
				"y": 1.5271330559,
				"z": 1.9062325089,
				"element": "H" 
			},
			{
				"x": 1.4017227298,
				"y": 1.3726223758,
				"z": -2.9714105979,
				"element": "H" 
			}
		],
		 "valence_orbital": [ 
			{
				"type": "occ",
				"energy": -0.31142,
				"method": "rhf"
			},
			{
				"type": "occ",
				"energy": -0.28442,
				"method": "rhf"
			},
			{
				"type": "occ",
				"energy": -0.28001,
				"method": "rhf"
			},
			{
				"type": "occ",
				"energy": -0.26172,
				"method": "rhf"
			},
			{
				"type": "occ",
				"energy": -0.24131,
				"method": "rhf"
			},
			{
				"type": "unocc",
				"energy": -0.04799,
				"method": "rhf"
			},
			{
				"type": "unocc",
				"energy": -0.00465,
				"method": "rhf"
			},
			{
				"type": "unocc",
				"energy": 0.02262,
				"method": "rhf"
			},
			{
				"type": "unocc",
				"energy": 0.06937,
				"method": "rhf"
			},
			{
				"type": "unocc",
				"energy": 0.08177,
				"method": "rhf"
			}
		],
		"cosmo_sigma_profile": { 
			"-0.025": 0.0,
			"-0.024": 0.0,
			"-0.023": 0.0,
			"-0.022": 0.0,
			"-0.021": 0.0,
			"-0.02": 0.0,
			"-0.019": 0.0499289889286,
			"-0.018": 1.23824957477,
			"-0.017": 1.95294842273,
			"-0.016": 0.716718940003,
			"-0.015": 2.43447415858,
			"-0.014": 3.08187346623,
			"-0.013": 3.25716818945,
			"-0.012": 3.23650317777,
			"-0.011": 1.99912744383,
			"-0.01": 2.25702150284,
			"-0.009": 3.4331746548,
			"-0.008": 2.82948212325,
			"-0.007": 4.23253980525,
			"-0.006": 3.05415645269,
			"-0.005": 4.00413403941,
			"-0.004": 3.92629838433,
			"-0.003": 7.2091458205,
			"-0.002": 12.5394566716,
			"-0.001": 11.5488544781,
			"0.0": 10.0712657261,
			"0.001": 7.77228967499,
			"0.002": 8.0735353202,
			"0.003": 6.23186631377,
			"0.004": 4.92990092408,
			"0.005": 4.36629350963,
			"0.006": 3.93686373918,
			"0.007": 3.69808748828,
			"0.008": 4.29043711108,
			"0.009": 6.06973513521,
			"0.01": 5.51671208323,
			"0.011": 4.16808937963,
			"0.012": 4.45411039466,
			"0.013": 2.58916116737,
			"0.014": 2.60079000364,
			"0.015": 1.11009795224,
			"0.016": 0.0318537045971,
			"0.017": 0.0,
			"0.018": 0.0,
			"0.019": 0.0,
			"0.02": 0.0,
			"0.021": 0.0,
			"0.022": 0.0,
			"0.023": 0.0,
			"0.024": 0.0,
			"0.025": 0.0
		}
	}
}
