{
	 "smiles": "CC1=CC=C(Cl)C=C1Cl", 
	 "Tm": 259.95, 
	 "num_atms": 15, 
	 "gaussian": { 
		 "optdone": 1, 
		 "sigma_profile": "yes", 
		 "theory": "DFT", 
		 "functional": "B3LYP", 
		 "basiset": "6-31G**", 
		 "properties": { 
			 "R2extent": 3242.9408, 
			 "electric_dipole_moment_norm": 2.10598259015, 
			 "electric_quadrupole_moment_norm": 2.59007187931, 
			 "total_energy": -1190.75459392, 
			 "HOMO_LUMO_gap": 0.22228, 
			 "cosmo_polarized_energy": -3.7, 
			 "cosmo_cavitation_energy": 22.29, 
			 "cosmo_dispersion_energy": -16.8, 
			 "cosmo_repulsion_energy": 1.37, 
			 "cosmo_total_nonelectrostatic_energy": 6.86, 
			 "SMD_solvation_energy": 3.34 
		},
		"coords": [
			{
				"x": 3.3768656103,
				"y": 1.2229475549,
				"z": -0.9381089903,
				"element": "C" 
			},
			{
				"x": 2.4029551707,
				"y": 0.3092744191,
				"z": -0.2410099368,
				"element": "C" 
			},
			{
				"x": 1.0215524526,
				"y": 0.4306918405,
				"z": -0.4430088761,
				"element": "C" 
			},
			{
				"x": 0.0969372579,
				"y": -0.399904412,
				"z": 0.1877994779,
				"element": "C" 
			},
			{
				"x": 0.5627624512,
				"y": -1.3881751194,
				"z": 1.0516958741,
				"element": "C" 
			},
			{
				"x": -0.5781122302,
				"y": -2.4501469544,
				"z": 1.8610502152,
				"element": "Cl" 
			},
			{
				"x": 1.9261838784,
				"y": -1.5510676218,
				"z": 1.2872596934,
				"element": "C" 
			},
			{
				"x": 2.8211721347,
				"y": -0.7016600488,
				"z": 0.6385344658,
				"element": "C" 
			},
			{
				"x": 4.5379557096,
				"y": -0.9284501663,
				"z": 0.9533893659,
				"element": "Cl" 
			},
			{
				"x": 4.0774939913,
				"y": 0.6573961636,
				"z": -1.5616725632,
				"element": "H" 
			},
			{
				"x": 2.8486296689,
				"y": 1.9358607722,
				"z": -1.575576413,
				"element": "H" 
			},
			{
				"x": 3.9799821796,
				"y": 1.7864422362,
				"z": -0.2181808566,
				"element": "H" 
			},
			{
				"x": 0.6614717943,
				"y": 1.2026310808,
				"z": -1.1175530239,
				"element": "H" 
			},
			{
				"x": -0.9664100295,
				"y": -0.2832020403,
				"z": 0.0127821966,
				"element": "H" 
			},
			{
				"x": 2.2865599601,
				"y": -2.3200377043,
				"z": 1.9592993709,
				"element": "H" 
			}
		],
		 "valence_orbital": [ 
			{
				"type": "occ",
				"energy": -0.32216,
				"method": "rhf"
			},
			{
				"type": "occ",
				"energy": -0.32165,
				"method": "rhf"
			},
			{
				"type": "occ",
				"energy": -0.31551,
				"method": "rhf"
			},
			{
				"type": "occ",
				"energy": -0.26202,
				"method": "rhf"
			},
			{
				"type": "occ",
				"energy": -0.24608,
				"method": "rhf"
			},
			{
				"type": "unocc",
				"energy": -0.0238,
				"method": "rhf"
			},
			{
				"type": "unocc",
				"energy": -0.02032,
				"method": "rhf"
			},
			{
				"type": "unocc",
				"energy": 0.0073,
				"method": "rhf"
			},
			{
				"type": "unocc",
				"energy": 0.05104,
				"method": "rhf"
			},
			{
				"type": "unocc",
				"energy": 0.10459,
				"method": "rhf"
			}
		],
		"cosmo_sigma_profile": { 
			"-0.025": 0.0,
			"-0.024": 0.0,
			"-0.023": 0.0,
			"-0.022": 0.0,
			"-0.021": 0.0,
			"-0.02": 0.0,
			"-0.019": 0.0,
			"-0.018": 0.0,
			"-0.017": 0.0,
			"-0.016": 0.0,
			"-0.015": 0.0,
			"-0.014": 0.0,
			"-0.013": 0.0,
			"-0.012": 0.0,
			"-0.011": 0.0,
			"-0.01": 0.0,
			"-0.009": 0.0332862080773,
			"-0.008": 1.39979082953,
			"-0.007": 5.23368862636,
			"-0.006": 6.64633573874,
			"-0.005": 8.09385631908,
			"-0.004": 10.4857669768,
			"-0.003": 11.1828709442,
			"-0.002": 11.8902807224,
			"-0.001": 18.4841509457,
			"0.0": 18.3645673504,
			"0.001": 19.8641760352,
			"0.002": 23.4022630473,
			"0.003": 21.2728500451,
			"0.004": 18.5438104887,
			"0.005": 7.78654717632,
			"0.006": 0.0,
			"0.007": 0.0,
			"0.008": 0.0,
			"0.009": 0.0,
			"0.01": 0.0,
			"0.011": 0.0,
			"0.012": 0.0,
			"0.013": 0.0,
			"0.014": 0.0,
			"0.015": 0.0,
			"0.016": 0.0,
			"0.017": 0.0,
			"0.018": 0.0,
			"0.019": 0.0,
			"0.02": 0.0,
			"0.021": 0.0,
			"0.022": 0.0,
			"0.023": 0.0,
			"0.024": 0.0,
			"0.025": 0.0
		}
	}
}
