{
	 "smiles": "COC1=CC=C(NS(=O)(=O)C2=CC(N)=C(C)C=C2)C=C1", 
	 "Tm": 401.15, 
	 "num_atms": 36, 
	 "gaussian": { 
		 "optdone": 1, 
		 "sigma_profile": "yes", 
		 "theory": "DFT", 
		 "functional": "B3LYP", 
		 "basiset": "6-31G**", 
		 "properties": { 
			 "R2extent": 7692.7699, 
			 "electric_dipole_moment_norm": 6.37884965256, 
			 "electric_quadrupole_moment_norm": 33.2591280768, 
			 "total_energy": -1276.42440298, 
			 "HOMO_LUMO_gap": 0.1816, 
			 "cosmo_polarized_energy": -22.66, 
			 "cosmo_cavitation_energy": 41.09, 
			 "cosmo_dispersion_energy": -29.02, 
			 "cosmo_repulsion_energy": 2.21, 
			 "cosmo_total_nonelectrostatic_energy": 14.27, 
			 "SMD_solvation_energy": 6.73 
		},
		"coords": [
			{
				"x": 2.2411070986,
				"y": -3.6574640681,
				"z": 3.3330342232,
				"element": "C" 
			},
			{
				"x": 1.5058537994,
				"y": -2.4556133203,
				"z": 3.4988655019,
				"element": "O" 
			},
			{
				"x": 1.7309295719,
				"y": -1.435497651,
				"z": 2.619762486,
				"element": "C" 
			},
			{
				"x": 0.9838970792,
				"y": -0.268514788,
				"z": 2.836542973,
				"element": "C" 
			},
			{
				"x": 1.1291192113,
				"y": 0.8210631889,
				"z": 1.9882620106,
				"element": "C" 
			},
			{
				"x": 2.0454832518,
				"y": 0.7825729472,
				"z": 0.9262045429,
				"element": "C" 
			},
			{
				"x": 2.2399191832,
				"y": 1.9254950722,
				"z": 0.0959637513,
				"element": "N" 
			},
			{
				"x": 1.8915908895,
				"y": 1.9069946314,
				"z": -1.5712573231,
				"element": "S" 
			},
			{
				"x": 2.6122989241,
				"y": 0.7669834029,
				"z": -2.1372429262,
				"element": "O" 
			},
			{
				"x": 2.1414334636,
				"y": 3.2862025935,
				"z": -1.9965688831,
				"element": "O" 
			},
			{
				"x": 0.1350357662,
				"y": 1.5818910432,
				"z": -1.7347828017,
				"element": "C" 
			},
			{
				"x": -0.7315441006,
				"y": 2.6647088259,
				"z": -1.8728208679,
				"element": "C" 
			},
			{
				"x": -2.1131561177,
				"y": 2.4444233698,
				"z": -1.9704684354,
				"element": "C" 
			},
			{
				"x": -2.9802414882,
				"y": 3.5140792302,
				"z": -2.1870760107,
				"element": "N" 
			},
			{
				"x": -2.6132837113,
				"y": 1.1200204296,
				"z": -1.9140765583,
				"element": "C" 
			},
			{
				"x": -4.0948726895,
				"y": 0.8691431667,
				"z": -2.0328135374,
				"element": "C" 
			},
			{
				"x": -1.7100211797,
				"y": 0.0642940153,
				"z": -1.7706218221,
				"element": "C" 
			},
			{
				"x": -0.3329769429,
				"y": 0.2690345343,
				"z": -1.6817418109,
				"element": "C" 
			},
			{
				"x": 2.8029650866,
				"y": -0.3745955943,
				"z": 0.7233428534,
				"element": "C" 
			},
			{
				"x": 2.6364092731,
				"y": -1.4852735896,
				"z": 1.5526295905,
				"element": "C" 
			},
			{
				"x": 2.0388895281,
				"y": -4.1262578517,
				"z": 2.3611911058,
				"element": "H" 
			},
			{
				"x": 3.3213811478,
				"y": -3.4889100686,
				"z": 3.430528577,
				"element": "H" 
			},
			{
				"x": 1.9097096153,
				"y": -4.3261084257,
				"z": 4.1290231447,
				"element": "H" 
			},
			{
				"x": 0.2866999418,
				"y": -0.2442472926,
				"z": 3.6674411029,
				"element": "H" 
			},
			{
				"x": 0.5300368737,
				"y": 1.7133695622,
				"z": 2.1517197283,
				"element": "H" 
			},
			{
				"x": 1.9154466386,
				"y": 2.8022532438,
				"z": 0.4919318243,
				"element": "H" 
			},
			{
				"x": -0.3265760385,
				"y": 3.6700087377,
				"z": -1.9358249722,
				"element": "H" 
			},
			{
				"x": -3.9226538173,
				"y": 3.4020903903,
				"z": -1.8422660595,
				"element": "H" 
			},
			{
				"x": -2.6012527379,
				"y": 4.4275990293,
				"z": -1.9810577574,
				"element": "H" 
			},
			{
				"x": -4.497890665,
				"y": 1.2953134046,
				"z": -2.9599045355,
				"element": "H" 
			},
			{
				"x": -4.3150896022,
				"y": -0.200839938,
				"z": -2.0289281604,
				"element": "H" 
			},
			{
				"x": -4.6558427193,
				"y": 1.3192186981,
				"z": -1.2012211712,
				"element": "H" 
			},
			{
				"x": -2.0981188605,
				"y": -0.9504286261,
				"z": -1.7371214816,
				"element": "H" 
			},
			{
				"x": 0.3568098382,
				"y": -0.5611910109,
				"z": -1.5948808826,
				"element": "H" 
			},
			{
				"x": 3.5174677945,
				"y": -0.4017237891,
				"z": -0.0906165057,
				"element": "H" 
			},
			{
				"x": 3.2323366941,
				"y": -2.370993503,
				"z": 1.367749087,
				"element": "H" 
			}
		],
		 "valence_orbital": [ 
			{
				"type": "occ",
				"energy": -0.2878,
				"method": "rhf"
			},
			{
				"type": "occ",
				"energy": -0.25619,
				"method": "rhf"
			},
			{
				"type": "occ",
				"energy": -0.25568,
				"method": "rhf"
			},
			{
				"type": "occ",
				"energy": -0.21528,
				"method": "rhf"
			},
			{
				"type": "occ",
				"energy": -0.20984,
				"method": "rhf"
			},
			{
				"type": "unocc",
				"energy": -0.02824,
				"method": "rhf"
			},
			{
				"type": "unocc",
				"energy": -0.00722,
				"method": "rhf"
			},
			{
				"type": "unocc",
				"energy": -0.00172,
				"method": "rhf"
			},
			{
				"type": "unocc",
				"energy": 0.00875,
				"method": "rhf"
			},
			{
				"type": "unocc",
				"energy": 0.06502,
				"method": "rhf"
			}
		],
		"cosmo_sigma_profile": { 
			"-0.025": 0.0,
			"-0.024": 0.0,
			"-0.023": 0.0,
			"-0.022": 0.0,
			"-0.021": 0.0,
			"-0.02": 0.0,
			"-0.019": 0.0,
			"-0.018": 0.0,
			"-0.017": 0.0,
			"-0.016": 0.0390629590841,
			"-0.015": 0.901164508835,
			"-0.014": 0.979888630309,
			"-0.013": 2.10278801209,
			"-0.012": 3.81738283139,
			"-0.011": 3.93954238357,
			"-0.01": 5.00346822675,
			"-0.009": 4.22325260365,
			"-0.008": 4.25295319463,
			"-0.007": 5.86122954405,
			"-0.006": 16.8156827122,
			"-0.005": 24.260643415,
			"-0.004": 25.4119594708,
			"-0.003": 23.6710867938,
			"-0.002": 17.9379062522,
			"-0.001": 19.0094793387,
			"0.0": 17.4567474995,
			"0.001": 16.6412905248,
			"0.002": 17.4579514986,
			"0.003": 22.1561827478,
			"0.004": 31.5830831233,
			"0.005": 14.5673101523,
			"0.006": 7.42977878393,
			"0.007": 5.62569463942,
			"0.008": 6.17718914181,
			"0.009": 6.7589108844,
			"0.01": 7.96099596202,
			"0.011": 9.61184237497,
			"0.012": 3.94189013502,
			"0.013": 0.544140934907,
			"0.014": 0.108426865214,
			"0.015": 0.0,
			"0.016": 0.0,
			"0.017": 0.0,
			"0.018": 0.0,
			"0.019": 0.0,
			"0.02": 0.0,
			"0.021": 0.0,
			"0.022": 0.0,
			"0.023": 0.0,
			"0.024": 0.0,
			"0.025": 0.0
		}
	}
}
