{
	 "smiles": "ClC1=CC2=C(C=C1)C1=C(O2)C(Cl)=C(Cl)C=C1Cl", 
	 "Tm": 463.15, 
	 "num_atms": 21, 
	 "gaussian": { 
		 "optdone": 1, 
		 "sigma_profile": "yes", 
		 "theory": "DFT", 
		 "functional": "B3LYP", 
		 "basiset": "6-31G**", 
		 "properties": { 
			 "R2extent": 8179.1059, 
			 "electric_dipole_moment_norm": 1.41298715139, 
			 "electric_quadrupole_moment_norm": 6.28714399628, 
			 "total_energy": -2375.68133314, 
			 "HOMO_LUMO_gap": 0.17346, 
			 "cosmo_polarized_energy": -4.82, 
			 "cosmo_cavitation_energy": 33.12, 
			 "cosmo_dispersion_energy": -25.05, 
			 "cosmo_repulsion_energy": 1.91, 
			 "cosmo_total_nonelectrostatic_energy": 9.98, 
			 "SMD_solvation_energy": 4.49 
		},
		"coords": [
			{
				"x": 2.8570835832,
				"y": -1.1773786703,
				"z": -3.267346768,
				"element": "Cl" 
			},
			{
				"x": 1.895595655,
				"y": -1.2752489075,
				"z": -1.8039610075,
				"element": "C" 
			},
			{
				"x": 0.7520553587,
				"y": -0.4840365167,
				"z": -1.6990822079,
				"element": "C" 
			},
			{
				"x": 0.0398998,
				"y": -0.611285524,
				"z": -0.5164834982,
				"element": "C" 
			},
			{
				"x": 0.4098991665,
				"y": -1.4700000194,
				"z": 0.5357186004,
				"element": "C" 
			},
			{
				"x": 1.5650536861,
				"y": -2.2494085555,
				"z": 0.3939301835,
				"element": "C" 
			},
			{
				"x": 2.304473994,
				"y": -2.146597634,
				"z": -0.7811000855,
				"element": "C" 
			},
			{
				"x": -0.6060759673,
				"y": -1.27997835,
				"z": 1.5533055403,
				"element": "C" 
			},
			{
				"x": -1.4947545461,
				"y": -0.3245421499,
				"z": 1.0210622874,
				"element": "C" 
			},
			{
				"x": -1.1122832878,
				"y": 0.0832734976,
				"z": -0.2258336847,
				"element": "O" 
			},
			{
				"x": -2.6232436299,
				"y": 0.1426174547,
				"z": 1.6896356349,
				"element": "C" 
			},
			{
				"x": -3.6519628646,
				"y": 1.3208772942,
				"z": 0.9431691717,
				"element": "Cl" 
			},
			{
				"x": -2.8580383943,
				"y": -0.3907153966,
				"z": 2.964992758,
				"element": "C" 
			},
			{
				"x": -4.2401136596,
				"y": 0.1186340181,
				"z": 3.8968617612,
				"element": "Cl" 
			},
			{
				"x": -1.9955580744,
				"y": -1.3437641073,
				"z": 3.5281378357,
				"element": "C" 
			},
			{
				"x": -0.8782250586,
				"y": -1.7853599364,
				"z": 2.8283931789,
				"element": "C" 
			},
			{
				"x": 0.1761062724,
				"y": -2.9742472523,
				"z": 3.559809694,
				"element": "Cl" 
			},
			{
				"x": 0.4385482854,
				"y": 0.1870644445,
				"z": -2.4888636905,
				"element": "H" 
			},
			{
				"x": 1.882240617,
				"y": -2.9222261821,
				"z": 1.1817047173,
				"element": "H" 
			},
			{
				"x": 3.2023907184,
				"y": -2.7381115392,
				"z": -0.9171540613,
				"element": "H" 
			},
			{
				"x": -2.2095916543,
				"y": -1.7327659678,
				"z": 4.5157036402,
				"element": "H" 
			}
		],
		 "valence_orbital": [ 
			{
				"type": "occ",
				"energy": -0.32233,
				"method": "rhf"
			},
			{
				"type": "occ",
				"energy": -0.29118,
				"method": "rhf"
			},
			{
				"type": "occ",
				"energy": -0.27733,
				"method": "rhf"
			},
			{
				"type": "occ",
				"energy": -0.25177,
				"method": "rhf"
			},
			{
				"type": "occ",
				"energy": -0.23913,
				"method": "rhf"
			},
			{
				"type": "unocc",
				"energy": -0.06567,
				"method": "rhf"
			},
			{
				"type": "unocc",
				"energy": -0.03389,
				"method": "rhf"
			},
			{
				"type": "unocc",
				"energy": -0.01788,
				"method": "rhf"
			},
			{
				"type": "unocc",
				"energy": -0.01649,
				"method": "rhf"
			},
			{
				"type": "unocc",
				"energy": 0.00248,
				"method": "rhf"
			}
		],
		"cosmo_sigma_profile": { 
			"-0.025": 0.0,
			"-0.024": 0.0,
			"-0.023": 0.0,
			"-0.022": 0.0,
			"-0.021": 0.0,
			"-0.02": 0.0,
			"-0.019": 0.0,
			"-0.018": 0.0,
			"-0.017": 0.0,
			"-0.016": 0.0,
			"-0.015": 0.0,
			"-0.014": 0.0,
			"-0.013": 0.0,
			"-0.012": 0.0,
			"-0.011": 0.0,
			"-0.01": 0.0649297225731,
			"-0.009": 2.17018534069,
			"-0.008": 3.69350848432,
			"-0.007": 5.31563488835,
			"-0.006": 6.86950030903,
			"-0.005": 6.69029493493,
			"-0.004": 8.65081968259,
			"-0.003": 15.7131809809,
			"-0.002": 24.6261365989,
			"-0.001": 37.8073207006,
			"0.0": 38.8927941534,
			"0.001": 32.2245510824,
			"0.002": 30.4734827935,
			"0.003": 33.2387132638,
			"0.004": 23.8227159312,
			"0.005": 4.9843390808,
			"0.006": 1.56551777268,
			"0.007": 0.911044751342,
			"0.008": 0.0,
			"0.009": 0.0,
			"0.01": 0.0,
			"0.011": 0.0,
			"0.012": 0.0,
			"0.013": 0.0,
			"0.014": 0.0,
			"0.015": 0.0,
			"0.016": 0.0,
			"0.017": 0.0,
			"0.018": 0.0,
			"0.019": 0.0,
			"0.02": 0.0,
			"0.021": 0.0,
			"0.022": 0.0,
			"0.023": 0.0,
			"0.024": 0.0,
			"0.025": 0.0
		}
	}
}
