{
	 "smiles": "NC1=CC=C(OC2=CC=CC=C2)C=C1", 
	 "Tm": 356.65, 
	 "num_atms": 25, 
	 "gaussian": { 
		 "optdone": 1, 
		 "sigma_profile": "yes", 
		 "theory": "DFT", 
		 "functional": "B3LYP", 
		 "basiset": "6-31G**", 
		 "properties": { 
			 "R2extent": 3876.3007, 
			 "electric_dipole_moment_norm": 3.02447413776, 
			 "electric_quadrupole_moment_norm": 13.5078200799, 
			 "total_energy": -593.87359089, 
			 "HOMO_LUMO_gap": 0.19535, 
			 "cosmo_polarized_energy": -10.61, 
			 "cosmo_cavitation_energy": 29.27, 
			 "cosmo_dispersion_energy": -21.3, 
			 "cosmo_repulsion_energy": 1.69, 
			 "cosmo_total_nonelectrostatic_energy": 9.66, 
			 "SMD_solvation_energy": 5.11 
		},
		"coords": [
			{
				"x": -4.2614469562,
				"y": -0.9919021411,
				"z": -0.5415413866,
				"element": "N" 
			},
			{
				"x": -2.8668255502,
				"y": -0.9627976993,
				"z": -0.4502681476,
				"element": "C" 
			},
			{
				"x": -2.1338341573,
				"y": -2.1480444985,
				"z": -0.2638253347,
				"element": "C" 
			},
			{
				"x": -0.7416238837,
				"y": -2.1276520621,
				"z": -0.2337429298,
				"element": "C" 
			},
			{
				"x": -0.0579908081,
				"y": -0.921849937,
				"z": -0.388379624,
				"element": "C" 
			},
			{
				"x": 1.3315727315,
				"y": -0.9116612474,
				"z": -0.4388744799,
				"element": "O" 
			},
			{
				"x": 2.055291253,
				"y": -0.7646123695,
				"z": 0.7243168473,
				"element": "C" 
			},
			{
				"x": 3.4475912515,
				"y": -0.7841915434,
				"z": 0.5771844569,
				"element": "C" 
			},
			{
				"x": 4.261914528,
				"y": -0.6408404108,
				"z": 1.6970443915,
				"element": "C" 
			},
			{
				"x": 3.7009769056,
				"y": -0.4776408914,
				"z": 2.9675956793,
				"element": "C" 
			},
			{
				"x": 2.3131021489,
				"y": -0.4595328257,
				"z": 3.1020487067,
				"element": "C" 
			},
			{
				"x": 1.4810300452,
				"y": -0.6018666686,
				"z": 1.9883778746,
				"element": "C" 
			},
			{
				"x": -0.7688761059,
				"y": 0.2630841781,
				"z": -0.5761823897,
				"element": "C" 
			},
			{
				"x": -2.1611830841,
				"y": 0.2430559198,
				"z": -0.606919038,
				"element": "C" 
			},
			{
				"x": -4.7224415628,
				"y": -0.1204725099,
				"z": -0.3183854789,
				"element": "H" 
			},
			{
				"x": -4.7034397313,
				"y": -1.77565925,
				"z": -0.0810314704,
				"element": "H" 
			},
			{
				"x": -2.6610772025,
				"y": -3.0921152347,
				"z": -0.1513284578,
				"element": "H" 
			},
			{
				"x": -0.1777590505,
				"y": -3.0448561558,
				"z": -0.0963936674,
				"element": "H" 
			},
			{
				"x": 3.864274143,
				"y": -0.9119614847,
				"z": -0.4166282853,
				"element": "H" 
			},
			{
				"x": 5.3415070427,
				"y": -0.6570015649,
				"z": 1.5759039143,
				"element": "H" 
			},
			{
				"x": 4.3387196721,
				"y": -0.3663134776,
				"z": 3.8390911704,
				"element": "H" 
			},
			{
				"x": 1.8636049502,
				"y": -0.3331697654,
				"z": 4.083279237,
				"element": "H" 
			},
			{
				"x": 0.4031104695,
				"y": -0.5866084975,
				"z": 2.0992784202,
				"element": "H" 
			},
			{
				"x": -0.225757953,
				"y": 1.1941309274,
				"z": -0.703512052,
				"element": "H" 
			},
			{
				"x": -2.7097390955,
				"y": 1.1686792099,
				"z": -0.7625079562,
				"element": "H" 
			}
		],
		 "valence_orbital": [ 
			{
				"type": "occ",
				"energy": -0.29915,
				"method": "rhf"
			},
			{
				"type": "occ",
				"energy": -0.2533,
				"method": "rhf"
			},
			{
				"type": "occ",
				"energy": -0.24364,
				"method": "rhf"
			},
			{
				"type": "occ",
				"energy": -0.21458,
				"method": "rhf"
			},
			{
				"type": "occ",
				"energy": -0.2018,
				"method": "rhf"
			},
			{
				"type": "unocc",
				"energy": -0.00645,
				"method": "rhf"
			},
			{
				"type": "unocc",
				"energy": 0.00853,
				"method": "rhf"
			},
			{
				"type": "unocc",
				"energy": 0.01618,
				"method": "rhf"
			},
			{
				"type": "unocc",
				"energy": 0.01953,
				"method": "rhf"
			},
			{
				"type": "unocc",
				"energy": 0.07678,
				"method": "rhf"
			}
		],
		"cosmo_sigma_profile": { 
			"-0.025": 0.0,
			"-0.024": 0.0,
			"-0.023": 0.0,
			"-0.022": 0.0,
			"-0.021": 0.0,
			"-0.02": 0.0,
			"-0.019": 0.0,
			"-0.018": 0.0,
			"-0.017": 0.0,
			"-0.016": 0.0,
			"-0.015": 0.0,
			"-0.014": 0.0,
			"-0.013": 0.174493020591,
			"-0.012": 2.60207804466,
			"-0.011": 2.8985329814,
			"-0.01": 2.88297203273,
			"-0.009": 3.51216027389,
			"-0.008": 2.85133769315,
			"-0.007": 3.10111088455,
			"-0.006": 11.8929412306,
			"-0.005": 16.5464856967,
			"-0.004": 17.7285947537,
			"-0.003": 16.2707584804,
			"-0.002": 13.7436677971,
			"-0.001": 13.8831903406,
			"0.0": 12.8228424226,
			"0.001": 13.1689447467,
			"0.002": 16.0797086338,
			"0.003": 14.8388546263,
			"0.004": 20.0473590011,
			"0.005": 21.0349155843,
			"0.006": 15.1500629751,
			"0.007": 3.48325996578,
			"0.008": 2.04810210612,
			"0.009": 2.28807510634,
			"0.01": 1.77978971071,
			"0.011": 0.687099351315,
			"0.012": 0.658042027468,
			"0.013": 0.830966162344,
			"0.014": 0.493019412474,
			"0.015": 0.269915865441,
			"0.016": 0.0,
			"0.017": 0.0,
			"0.018": 0.0,
			"0.019": 0.0,
			"0.02": 0.0,
			"0.021": 0.0,
			"0.022": 0.0,
			"0.023": 0.0,
			"0.024": 0.0,
			"0.025": 0.0
		}
	}
}
