{
	 "smiles": "OC1=C(Br)C=C(Br)C2=C1N=CC=C2", 
	 "Tm": 471.15, 
	 "num_atms": 18, 
	 "gaussian": { 
		 "optdone": 1, 
		 "sigma_profile": "yes", 
		 "theory": "DFT", 
		 "functional": "B3LYP", 
		 "basiset": "6-31G**", 
		 "properties": { 
			 "R2extent": 6953.0881, 
			 "electric_dipole_moment_norm": 3.43228415782, 
			 "electric_quadrupole_moment_norm": 7.25100075369, 
			 "total_energy": -5618.76062657, 
			 "HOMO_LUMO_gap": 0.14874, 
			 "cosmo_polarized_energy": -7.05, 
			 "cosmo_cavitation_energy": 26.79, 
			 "cosmo_dispersion_energy": -21.09, 
			 "cosmo_repulsion_energy": 1.65, 
			 "cosmo_total_nonelectrostatic_energy": 7.34, 
			 "SMD_solvation_energy": 1.74 
		},
		"coords": [
			{
				"x": -0.4169610437,
				"y": 1.0186111974,
				"z": 1.4803529978,
				"element": "O" 
			},
			{
				"x": 0.6097009178,
				"y": 0.2347670649,
				"z": 1.1192831723,
				"element": "C" 
			},
			{
				"x": 1.9286004624,
				"y": 0.5578679797,
				"z": 1.3762667193,
				"element": "C" 
			},
			{
				"x": 2.3556490289,
				"y": 2.1732394148,
				"z": 2.2783151901,
				"element": "Br" 
			},
			{
				"x": 2.9755631799,
				"y": -0.3024992748,
				"z": 0.9749547991,
				"element": "C" 
			},
			{
				"x": 2.7090720303,
				"y": -1.4822172989,
				"z": 0.3190036284,
				"element": "C" 
			},
			{
				"x": 4.1732577481,
				"y": -2.5995235394,
				"z": -0.1957118526,
				"element": "Br" 
			},
			{
				"x": 1.3735561147,
				"y": -1.8708233669,
				"z": 0.0254707134,
				"element": "C" 
			},
			{
				"x": 0.3271124855,
				"y": -0.9922849137,
				"z": 0.4366984673,
				"element": "C" 
			},
			{
				"x": -0.9904994626,
				"y": -1.2428745639,
				"z": 0.2190898718,
				"element": "N" 
			},
			{
				"x": -1.3191148043,
				"y": -2.3575544113,
				"z": -0.4055220811,
				"element": "C" 
			},
			{
				"x": -0.3641340784,
				"y": -3.2986541242,
				"z": -0.856355615,
				"element": "C" 
			},
			{
				"x": 0.9743083467,
				"y": -3.0555784007,
				"z": -0.6414946629,
				"element": "C" 
			},
			{
				"x": -1.2171695392,
				"y": 0.5439328452,
				"z": 1.1733824126,
				"element": "H" 
			},
			{
				"x": 3.9971626048,
				"y": -0.0175613766,
				"z": 1.1928129059,
				"element": "H" 
			},
			{
				"x": -2.3808020201,
				"y": -2.5334012953,
				"z": -0.5667412951,
				"element": "H" 
			},
			{
				"x": -0.6935628173,
				"y": -4.1986952312,
				"z": -1.3646658568,
				"element": "H" 
			},
			{
				"x": 1.7321608464,
				"y": -3.756450705,
				"z": -0.9743395145,
				"element": "H" 
			}
		],
		 "valence_orbital": [ 
			{
				"type": "occ",
				"energy": -0.29522,
				"method": "rhf"
			},
			{
				"type": "occ",
				"energy": -0.29234,
				"method": "rhf"
			},
			{
				"type": "occ",
				"energy": -0.28709,
				"method": "rhf"
			},
			{
				"type": "occ",
				"energy": -0.26083,
				"method": "rhf"
			},
			{
				"type": "occ",
				"energy": -0.22028,
				"method": "rhf"
			},
			{
				"type": "unocc",
				"energy": -0.07154,
				"method": "rhf"
			},
			{
				"type": "unocc",
				"energy": -0.03925,
				"method": "rhf"
			},
			{
				"type": "unocc",
				"energy": -0.01553,
				"method": "rhf"
			},
			{
				"type": "unocc",
				"energy": 0.00837,
				"method": "rhf"
			},
			{
				"type": "unocc",
				"energy": 0.02491,
				"method": "rhf"
			}
		],
		"cosmo_sigma_profile": { 
			"-0.025": 0.0,
			"-0.024": 0.0,
			"-0.023": 0.0,
			"-0.022": 0.0,
			"-0.021": 0.0,
			"-0.02": 0.0,
			"-0.019": 0.0,
			"-0.018": 0.0,
			"-0.017": 0.0,
			"-0.016": 0.0,
			"-0.015": 0.0,
			"-0.014": 0.0,
			"-0.013": 0.286435860345,
			"-0.012": 0.739893012734,
			"-0.011": 0.173629516227,
			"-0.01": 0.67742065812,
			"-0.009": 1.11946577489,
			"-0.008": 3.4279248142,
			"-0.007": 8.28215927028,
			"-0.006": 8.69786208214,
			"-0.005": 9.70796472026,
			"-0.004": 9.56477063943,
			"-0.003": 10.6191568063,
			"-0.002": 12.7610073405,
			"-0.001": 23.1071175569,
			"0.0": 28.4816388323,
			"0.001": 30.2844591087,
			"0.002": 18.1379562602,
			"0.003": 17.4903324087,
			"0.004": 18.4624041025,
			"0.005": 8.05136209994,
			"0.006": 3.49235566794,
			"0.007": 2.79217755666,
			"0.008": 1.86883894894,
			"0.009": 2.0471368727,
			"0.01": 2.27429475775,
			"0.011": 0.453267393358,
			"0.012": 0.0,
			"0.013": 0.0,
			"0.014": 0.0,
			"0.015": 0.0,
			"0.016": 0.0,
			"0.017": 0.0,
			"0.018": 0.0,
			"0.019": 0.0,
			"0.02": 0.0,
			"0.021": 0.0,
			"0.022": 0.0,
			"0.023": 0.0,
			"0.024": 0.0,
			"0.025": 0.0
		}
	}
}
