{
	 "smiles": "COC(=O)C1=CC(O)=C(O)C(O)=C1", 
	 "Tm": 535.15, 
	 "num_atms": 21, 
	 "gaussian": { 
		 "optdone": 1, 
		 "sigma_profile": "yes", 
		 "theory": "DFT", 
		 "functional": "B3LYP", 
		 "basiset": "6-31G**", 
		 "properties": { 
			 "R2extent": 3143.0173, 
			 "electric_dipole_moment_norm": 3.18307893713, 
			 "electric_quadrupole_moment_norm": 9.77940141266, 
			 "total_energy": -685.786826998, 
			 "HOMO_LUMO_gap": 0.17711, 
			 "cosmo_polarized_energy": -18.7, 
			 "cosmo_cavitation_energy": 26.1, 
			 "cosmo_dispersion_energy": -19.54, 
			 "cosmo_repulsion_energy": 1.56, 
			 "cosmo_total_nonelectrostatic_energy": 8.11, 
			 "SMD_solvation_energy": 7.11 
		},
		"coords": [
			{
				"x": -2.7877801273,
				"y": 2.1000814125,
				"z": -0.168261936,
				"element": "C" 
			},
			{
				"x": -1.4499045153,
				"y": 1.595245709,
				"z": -0.0544650047,
				"element": "O" 
			},
			{
				"x": -1.2247321611,
				"y": 0.4169552753,
				"z": -0.6882995167,
				"element": "C" 
			},
			{
				"x": -2.0906053302,
				"y": -0.1721805532,
				"z": -1.3088549244,
				"element": "O" 
			},
			{
				"x": 0.1735815268,
				"y": -0.0533071343,
				"z": -0.5351459733,
				"element": "C" 
			},
			{
				"x": 0.5217183918,
				"y": -1.2628034117,
				"z": -1.1495145347,
				"element": "C" 
			},
			{
				"x": 1.8170481274,
				"y": -1.7645327778,
				"z": -1.0471638146,
				"element": "C" 
			},
			{
				"x": 2.2211874189,
				"y": -2.9336081261,
				"z": -1.6200246765,
				"element": "O" 
			},
			{
				"x": 2.7834661009,
				"y": -1.0490328611,
				"z": -0.3198389295,
				"element": "C" 
			},
			{
				"x": 4.045529782,
				"y": -1.5341375741,
				"z": -0.2179223704,
				"element": "O" 
			},
			{
				"x": 2.4207880178,
				"y": 0.1617423864,
				"z": 0.2908447922,
				"element": "C" 
			},
			{
				"x": 3.4460498646,
				"y": 0.7744304237,
				"z": 0.9750690725,
				"element": "O" 
			},
			{
				"x": 1.1305880205,
				"y": 0.667569059,
				"z": 0.1924968961,
				"element": "C" 
			},
			{
				"x": -3.0479272559,
				"y": 2.2733318757,
				"z": -1.2157285968,
				"element": "H" 
			},
			{
				"x": -3.5052053254,
				"y": 1.3935966232,
				"z": 0.2572533759,
				"element": "H" 
			},
			{
				"x": -2.7980391282,
				"y": 3.0373868525,
				"z": 0.3883580457,
				"element": "H" 
			},
			{
				"x": -0.2403002956,
				"y": -1.7998334488,
				"z": -1.7067489158,
				"element": "H" 
			},
			{
				"x": 1.4703787879,
				"y": -3.3237168647,
				"z": -2.0860520851,
				"element": "H" 
			},
			{
				"x": 4.5524710862,
				"y": -0.9033586842,
				"z": 0.3160474345,
				"element": "H" 
			},
			{
				"x": 3.1303242092,
				"y": 1.5969225912,
				"z": 1.3683392714,
				"element": "H" 
			},
			{
				"x": 0.862562805,
				"y": 1.6044492276,
				"z": 0.66891239,
				"element": "H" 
			}
		],
		 "valence_orbital": [ 
			{
				"type": "occ",
				"energy": -0.31614,
				"method": "rhf"
			},
			{
				"type": "occ",
				"energy": -0.29842,
				"method": "rhf"
			},
			{
				"type": "occ",
				"energy": -0.27042,
				"method": "rhf"
			},
			{
				"type": "occ",
				"energy": -0.22757,
				"method": "rhf"
			},
			{
				"type": "occ",
				"energy": -0.21242,
				"method": "rhf"
			},
			{
				"type": "unocc",
				"energy": -0.03531,
				"method": "rhf"
			},
			{
				"type": "unocc",
				"energy": 0.01274,
				"method": "rhf"
			},
			{
				"type": "unocc",
				"energy": 0.04563,
				"method": "rhf"
			},
			{
				"type": "unocc",
				"energy": 0.07482,
				"method": "rhf"
			},
			{
				"type": "unocc",
				"energy": 0.07656,
				"method": "rhf"
			}
		],
		"cosmo_sigma_profile": { 
			"-0.025": 0.0,
			"-0.024": 0.0,
			"-0.023": 0.0,
			"-0.022": 0.0,
			"-0.021": 0.0,
			"-0.02": 0.0,
			"-0.019": 0.227805023883,
			"-0.018": 2.01686991421,
			"-0.017": 2.17058840774,
			"-0.016": 2.59219948247,
			"-0.015": 2.07623139019,
			"-0.014": 2.19840006639,
			"-0.013": 2.8602789726,
			"-0.012": 2.17784579525,
			"-0.011": 2.31717098489,
			"-0.01": 2.93108582722,
			"-0.009": 2.63660593509,
			"-0.008": 2.78477661567,
			"-0.007": 3.12409722857,
			"-0.006": 7.96235826501,
			"-0.005": 8.6160212354,
			"-0.004": 10.846716881,
			"-0.003": 12.5531984963,
			"-0.002": 10.1809234886,
			"-0.001": 8.66122935188,
			"0.0": 9.40404655558,
			"0.001": 12.5352377936,
			"0.002": 19.4634611951,
			"0.003": 16.7679493546,
			"0.004": 12.6375352658,
			"0.005": 7.98749515112,
			"0.006": 6.69307034177,
			"0.007": 4.88643001771,
			"0.008": 3.85089099224,
			"0.009": 3.86320077353,
			"0.01": 4.30887447862,
			"0.011": 5.13760731333,
			"0.012": 7.92047221398,
			"0.013": 2.88844241165,
			"0.014": 0.0534505979945,
			"0.015": 0.0,
			"0.016": 0.0,
			"0.017": 0.0,
			"0.018": 0.0,
			"0.019": 0.0,
			"0.02": 0.0,
			"0.021": 0.0,
			"0.022": 0.0,
			"0.023": 0.0,
			"0.024": 0.0,
			"0.025": 0.0
		}
	}
}
