{
	 "smiles": "CN1N=C(C=C1C1=CC=CS1)C(Cl)=O", 
	 "Tm": 321.65, 
	 "num_atms": 21, 
	 "gaussian": { 
		 "optdone": 1, 
		 "sigma_profile": "yes", 
		 "theory": "DFT", 
		 "functional": "B3LYP", 
		 "basiset": "6-31G**", 
		 "properties": { 
			 "R2extent": 5360.4293, 
			 "electric_dipole_moment_norm": 6.96238602348, 
			 "electric_quadrupole_moment_norm": 20.6174874054, 
			 "total_energy": -1390.25430679, 
			 "HOMO_LUMO_gap": 0.1768, 
			 "cosmo_polarized_energy": -11.51, 
			 "cosmo_cavitation_energy": 29.7, 
			 "cosmo_dispersion_energy": -21.99, 
			 "cosmo_repulsion_energy": 1.69, 
			 "cosmo_total_nonelectrostatic_energy": 9.4, 
			 "SMD_solvation_energy": 4.79 
		},
		"coords": [
			{
				"x": -1.0999844151,
				"y": 0.4592125768,
				"z": -1.0624043105,
				"element": "C" 
			},
			{
				"x": -1.0005794395,
				"y": -0.6549817061,
				"z": -0.1281936691,
				"element": "N" 
			},
			{
				"x": -2.0222418518,
				"y": -1.5078207283,
				"z": -0.0447371399,
				"element": "N" 
			},
			{
				"x": -1.6574854264,
				"y": -2.3951192835,
				"z": 0.897195803,
				"element": "C" 
			},
			{
				"x": -0.3782272759,
				"y": -2.1025606067,
				"z": 1.4149820987,
				"element": "C" 
			},
			{
				"x": 0.0318057802,
				"y": -0.9665050759,
				"z": 0.734113508,
				"element": "C" 
			},
			{
				"x": 1.2648669948,
				"y": -0.2058912498,
				"z": 0.8904896287,
				"element": "C" 
			},
			{
				"x": 1.9188583313,
				"y": 0.0397920096,
				"z": 2.077118856,
				"element": "C" 
			},
			{
				"x": 3.150599886,
				"y": 0.7350287996,
				"z": 1.9139442974,
				"element": "C" 
			},
			{
				"x": 3.4317834872,
				"y": 1.0144828261,
				"z": 0.60469251,
				"element": "C" 
			},
			{
				"x": 2.1986857897,
				"y": 0.4206236007,
				"z": -0.4564473826,
				"element": "S" 
			},
			{
				"x": -2.5911449527,
				"y": -3.4782487874,
				"z": 1.2239306271,
				"element": "C" 
			},
			{
				"x": -1.9412665076,
				"y": -4.586339271,
				"z": 2.542865124,
				"element": "Cl" 
			},
			{
				"x": -3.660491506,
				"y": -3.6913618761,
				"z": 0.7465055239,
				"element": "O" 
			},
			{
				"x": -2.1526781765,
				"y": 0.5650897549,
				"z": -1.3201484623,
				"element": "H" 
			},
			{
				"x": -0.5219539888,
				"y": 0.2642030436,
				"z": -1.9702575461,
				"element": "H" 
			},
			{
				"x": -0.7342690408,
				"y": 1.373334823,
				"z": -0.5914738949,
				"element": "H" 
			},
			{
				"x": 0.1785125872,
				"y": -2.6494869545,
				"z": 2.158232342,
				"element": "H" 
			},
			{
				"x": 1.5130523429,
				"y": -0.2595592439,
				"z": 3.0365662684,
				"element": "H" 
			},
			{
				"x": 3.793401117,
				"y": 1.02456514,
				"z": 2.7370387689,
				"element": "H" 
			},
			{
				"x": 4.2826562649,
				"y": 1.5417422091,
				"z": 0.1960870494,
				"element": "H" 
			}
		],
		 "valence_orbital": [ 
			{
				"type": "occ",
				"energy": -0.29295,
				"method": "rhf"
			},
			{
				"type": "occ",
				"energy": -0.28623,
				"method": "rhf"
			},
			{
				"type": "occ",
				"energy": -0.27685,
				"method": "rhf"
			},
			{
				"type": "occ",
				"energy": -0.27228,
				"method": "rhf"
			},
			{
				"type": "occ",
				"energy": -0.23658,
				"method": "rhf"
			},
			{
				"type": "unocc",
				"energy": -0.05978,
				"method": "rhf"
			},
			{
				"type": "unocc",
				"energy": -0.04965,
				"method": "rhf"
			},
			{
				"type": "unocc",
				"energy": 0.00497,
				"method": "rhf"
			},
			{
				"type": "unocc",
				"energy": 0.0152,
				"method": "rhf"
			},
			{
				"type": "unocc",
				"energy": 0.02553,
				"method": "rhf"
			}
		],
		"cosmo_sigma_profile": { 
			"-0.025": 0.0,
			"-0.024": 0.0,
			"-0.023": 0.0,
			"-0.022": 0.0,
			"-0.021": 0.0,
			"-0.02": 0.0,
			"-0.019": 0.0,
			"-0.018": 0.0,
			"-0.017": 0.0,
			"-0.016": 0.0,
			"-0.015": 0.0,
			"-0.014": 0.0,
			"-0.013": 0.0,
			"-0.012": 0.0,
			"-0.011": 0.0,
			"-0.01": 0.0,
			"-0.009": 1.28051308752,
			"-0.008": 4.63893706757,
			"-0.007": 12.4477146965,
			"-0.006": 13.7764597545,
			"-0.005": 14.6611474793,
			"-0.004": 19.5436544363,
			"-0.003": 15.5507678622,
			"-0.002": 12.706921832,
			"-0.001": 15.2185624408,
			"0.0": 19.9510683162,
			"0.001": 20.4964299526,
			"0.002": 19.7857775629,
			"0.003": 18.9422425194,
			"0.004": 19.0112843003,
			"0.005": 10.8570028074,
			"0.006": 4.09475644909,
			"0.007": 3.59963403502,
			"0.008": 5.72752419411,
			"0.009": 5.49288634193,
			"0.01": 2.22162167676,
			"0.011": 1.36485944177,
			"0.012": 1.12470356633,
			"0.013": 0.834766220815,
			"0.014": 0.0975335016706,
			"0.015": 0.0,
			"0.016": 0.0,
			"0.017": 0.0,
			"0.018": 0.0,
			"0.019": 0.0,
			"0.02": 0.0,
			"0.021": 0.0,
			"0.022": 0.0,
			"0.023": 0.0,
			"0.024": 0.0,
			"0.025": 0.0
		}
	}
}
