{
	 "smiles": "NC1=NC2=C(S1)C=CC(Cl)=C2Cl", 
	 "Tm": 403.15, 
	 "num_atms": 16, 
	 "gaussian": { 
		 "optdone": 1, 
		 "sigma_profile": "yes", 
		 "theory": "DFT", 
		 "functional": "B3LYP", 
		 "basiset": "6-31G**", 
		 "properties": { 
			 "R2extent": 4311.3436, 
			 "electric_dipole_moment_norm": 4.7889707318, 
			 "electric_quadrupole_moment_norm": 13.1485435155, 
			 "total_energy": -1697.23771135, 
			 "HOMO_LUMO_gap": 0.1935, 
			 "cosmo_polarized_energy": -12.82, 
			 "cosmo_cavitation_energy": 25.69, 
			 "cosmo_dispersion_energy": -20.17, 
			 "cosmo_repulsion_energy": 1.56, 
			 "cosmo_total_nonelectrostatic_energy": 7.09, 
			 "SMD_solvation_energy": 1.91 
		},
		"coords": [
			{
				"x": 1.2640040955,
				"y": -1.1199020327,
				"z": -2.5345320458,
				"element": "N" 
			},
			{
				"x": 1.0966229428,
				"y": -0.7578223294,
				"z": -1.2292233518,
				"element": "C" 
			},
			{
				"x": 0.6533238338,
				"y": -1.5564351003,
				"z": -0.3084018263,
				"element": "N" 
			},
			{
				"x": 0.6559896497,
				"y": -0.9314897255,
				"z": 0.921829152,
				"element": "C" 
			},
			{
				"x": 1.1131163973,
				"y": 0.4089540415,
				"z": 0.9389399679,
				"element": "C" 
			},
			{
				"x": 1.577888475,
				"y": 0.8789347373,
				"z": -0.6936538851,
				"element": "S" 
			},
			{
				"x": 1.1568258811,
				"y": 1.1629429154,
				"z": 2.1073210001,
				"element": "C" 
			},
			{
				"x": 0.7369106017,
				"y": 0.5662560053,
				"z": 3.2927058919,
				"element": "C" 
			},
			{
				"x": 0.2811755334,
				"y": -0.7594411555,
				"z": 3.3038944759,
				"element": "C" 
			},
			{
				"x": -0.2300829576,
				"y": -1.4397744994,
				"z": 4.8321819428,
				"element": "Cl" 
			},
			{
				"x": 0.2346080732,
				"y": -1.5195082468,
				"z": 2.1296922417,
				"element": "C" 
			},
			{
				"x": -0.3277440143,
				"y": -3.1646324778,
				"z": 2.1171796519,
				"element": "Cl" 
			},
			{
				"x": 0.816760439,
				"y": -1.990525296,
				"z": -2.787590976,
				"element": "H" 
			},
			{
				"x": 1.2524298826,
				"y": -0.4002283111,
				"z": -3.2410300039,
				"element": "H" 
			},
			{
				"x": 1.5084760625,
				"y": 2.1889749829,
				"z": 2.1069852084,
				"element": "H" 
			},
			{
				"x": 0.7575951044,
				"y": 1.120596492,
				"z": 4.2236025565,
				"element": "H" 
			}
		],
		 "valence_orbital": [ 
			{
				"type": "occ",
				"energy": -0.30189,
				"method": "rhf"
			},
			{
				"type": "occ",
				"energy": -0.29336,
				"method": "rhf"
			},
			{
				"type": "occ",
				"energy": -0.28518,
				"method": "rhf"
			},
			{
				"type": "occ",
				"energy": -0.23481,
				"method": "rhf"
			},
			{
				"type": "occ",
				"energy": -0.2247,
				"method": "rhf"
			},
			{
				"type": "unocc",
				"energy": -0.0312,
				"method": "rhf"
			},
			{
				"type": "unocc",
				"energy": -0.01947,
				"method": "rhf"
			},
			{
				"type": "unocc",
				"energy": -0.01729,
				"method": "rhf"
			},
			{
				"type": "unocc",
				"energy": 0.01872,
				"method": "rhf"
			},
			{
				"type": "unocc",
				"energy": 0.03211,
				"method": "rhf"
			}
		],
		"cosmo_sigma_profile": { 
			"-0.025": 0.0,
			"-0.024": 0.0,
			"-0.023": 0.0,
			"-0.022": 0.0,
			"-0.021": 0.0,
			"-0.02": 0.0,
			"-0.019": 0.0,
			"-0.018": 0.0,
			"-0.017": 0.0,
			"-0.016": 0.346606683528,
			"-0.015": 1.84155628422,
			"-0.014": 2.82692746633,
			"-0.013": 3.19945622607,
			"-0.012": 2.42112765734,
			"-0.011": 2.41829453463,
			"-0.01": 1.64420462223,
			"-0.009": 2.5367914571,
			"-0.008": 4.80078335167,
			"-0.007": 6.30452085087,
			"-0.006": 5.44836720586,
			"-0.005": 6.21092156628,
			"-0.004": 4.74948954955,
			"-0.003": 6.19480330939,
			"-0.002": 9.14782884078,
			"-0.001": 13.2417359697,
			"0.0": 16.3980586642,
			"0.001": 30.422589014,
			"0.002": 24.9960081935,
			"0.003": 20.0065490418,
			"0.004": 21.4022138118,
			"0.005": 10.498102688,
			"0.006": 4.54567444448,
			"0.007": 2.67669300056,
			"0.008": 1.44686227908,
			"0.009": 2.34902079071,
			"0.01": 1.57779125638,
			"0.011": 1.02496226304,
			"0.012": 1.03360319228,
			"0.013": 1.04100867004,
			"0.014": 0.789237794775,
			"0.015": 0.0231610748123,
			"0.016": 0.0,
			"0.017": 0.0,
			"0.018": 0.0,
			"0.019": 0.0,
			"0.02": 0.0,
			"0.021": 0.0,
			"0.022": 0.0,
			"0.023": 0.0,
			"0.024": 0.0,
			"0.025": 0.0
		}
	}
}
