{
	 "smiles": "ClC1=CC=C(NC(=O)NCC#C)C=C1", 
	 "Tm": 485.15, 
	 "num_atms": 23, 
	 "gaussian": { 
		 "optdone": 1, 
		 "sigma_profile": "yes", 
		 "theory": "DFT", 
		 "functional": "B3LYP", 
		 "basiset": "6-31G**", 
		 "properties": { 
			 "R2extent": 5423.3097, 
			 "electric_dipole_moment_norm": 5.54751727352, 
			 "electric_quadrupole_moment_norm": 9.30799874141, 
			 "total_energy": -1031.35343804, 
			 "HOMO_LUMO_gap": 0.20689, 
			 "cosmo_polarized_energy": -14.97, 
			 "cosmo_cavitation_energy": 30.37, 
			 "cosmo_dispersion_energy": -21.51, 
			 "cosmo_repulsion_energy": 1.68, 
			 "cosmo_total_nonelectrostatic_energy": 10.55, 
			 "SMD_solvation_energy": 5.94 
		},
		"coords": [
			{
				"x": -3.0377460095,
				"y": -4.9507576321,
				"z": -2.3839744163,
				"element": "Cl" 
			},
			{
				"x": -2.1026225776,
				"y": -3.6124091439,
				"z": -1.7257689926,
				"element": "C" 
			},
			{
				"x": -2.7569021179,
				"y": -2.4923605813,
				"z": -1.2178830222,
				"element": "C" 
			},
			{
				"x": -2.0252960969,
				"y": -1.4277672598,
				"z": -0.6930692782,
				"element": "C" 
			},
			{
				"x": -0.6226103228,
				"y": -1.4839474029,
				"z": -0.6780782584,
				"element": "C" 
			},
			{
				"x": 0.1974436169,
				"y": -0.4496539203,
				"z": -0.186227882,
				"element": "N" 
			},
			{
				"x": -0.2048553836,
				"y": 0.7160180312,
				"z": 0.4401121425,
				"element": "C" 
			},
			{
				"x": -1.3640721995,
				"y": 1.0139616105,
				"z": 0.6985568241,
				"element": "O" 
			},
			{
				"x": 0.8442520014,
				"y": 1.559160827,
				"z": 0.7985853998,
				"element": "N" 
			},
			{
				"x": 2.1307859757,
				"y": 1.640164059,
				"z": 0.1080853573,
				"element": "C" 
			},
			{
				"x": 3.0541168492,
				"y": 0.5474664502,
				"z": 0.4480424918,
				"element": "C" 
			},
			{
				"x": 3.7945656365,
				"y": -0.3758639253,
				"z": 0.689820998,
				"element": "C" 
			},
			{
				"x": 0.0207720949,
				"y": -2.6205603425,
				"z": -1.1946826332,
				"element": "C" 
			},
			{
				"x": -0.7107543314,
				"y": -3.68317298,
				"z": -1.7158515373,
				"element": "C" 
			},
			{
				"x": -3.840523766,
				"y": -2.4479524276,
				"z": -1.2272236853,
				"element": "H" 
			},
			{
				"x": -2.5266719886,
				"y": -0.5611278981,
				"z": -0.2867222448,
				"element": "H" 
			},
			{
				"x": 1.1851692425,
				"y": -0.6684381952,
				"z": -0.1480964248,
				"element": "H" 
			},
			{
				"x": 0.486472482,
				"y": 2.4260910123,
				"z": 1.1736663601,
				"element": "H" 
			},
			{
				"x": 2.002139256,
				"y": 1.6667182352,
				"z": -0.9846756304,
				"element": "H" 
			},
			{
				"x": 2.5907704956,
				"y": 2.5924915102,
				"z": 0.3911456797,
				"element": "H" 
			},
			{
				"x": 4.4597387088,
				"y": -1.1736363111,
				"z": 0.9300129271,
				"element": "H" 
			},
			{
				"x": 1.1068414736,
				"y": -2.6741982761,
				"z": -1.1912430524,
				"element": "H" 
			},
			{
				"x": -0.2041130393,
				"y": -4.5565254394,
				"z": -2.1112311223,
				"element": "H" 
			}
		],
		 "valence_orbital": [ 
			{
				"type": "occ",
				"energy": -0.29384,
				"method": "rhf"
			},
			{
				"type": "occ",
				"energy": -0.27569,
				"method": "rhf"
			},
			{
				"type": "occ",
				"energy": -0.26117,
				"method": "rhf"
			},
			{
				"type": "occ",
				"energy": -0.25738,
				"method": "rhf"
			},
			{
				"type": "occ",
				"energy": -0.21548,
				"method": "rhf"
			},
			{
				"type": "unocc",
				"energy": -0.00859,
				"method": "rhf"
			},
			{
				"type": "unocc",
				"energy": -0.00789,
				"method": "rhf"
			},
			{
				"type": "unocc",
				"energy": 0.01126,
				"method": "rhf"
			},
			{
				"type": "unocc",
				"energy": 0.02578,
				"method": "rhf"
			},
			{
				"type": "unocc",
				"energy": 0.03662,
				"method": "rhf"
			}
		],
		"cosmo_sigma_profile": { 
			"-0.025": 0.0,
			"-0.024": 0.0,
			"-0.023": 0.0,
			"-0.022": 0.0,
			"-0.021": 0.0,
			"-0.02": 0.0,
			"-0.019": 0.0,
			"-0.018": 0.0,
			"-0.017": 0.0,
			"-0.016": 0.0,
			"-0.015": 0.0704614430845,
			"-0.014": 0.969533116695,
			"-0.013": 1.38013540171,
			"-0.012": 2.49571092246,
			"-0.011": 2.70254572665,
			"-0.01": 2.59220614509,
			"-0.009": 5.55864033806,
			"-0.008": 6.50778886684,
			"-0.007": 11.3034769184,
			"-0.006": 13.1955119812,
			"-0.005": 12.5869063279,
			"-0.004": 11.9457765661,
			"-0.003": 9.01456983698,
			"-0.002": 11.153676457,
			"-0.001": 12.4547079019,
			"0.0": 13.1904225774,
			"0.001": 16.7596084885,
			"0.002": 20.3507963585,
			"0.003": 24.8596168971,
			"0.004": 25.3550981269,
			"0.005": 17.8110700615,
			"0.006": 7.95842414371,
			"0.007": 2.80416629522,
			"0.008": 1.57686808388,
			"0.009": 1.31030186719,
			"0.01": 1.63185478275,
			"0.011": 1.46145110758,
			"0.012": 2.43288533591,
			"0.013": 3.52983187333,
			"0.014": 1.77362424779,
			"0.015": 0.00961790566345,
			"0.016": 0.0,
			"0.017": 0.0,
			"0.018": 0.0,
			"0.019": 0.0,
			"0.02": 0.0,
			"0.021": 0.0,
			"0.022": 0.0,
			"0.023": 0.0,
			"0.024": 0.0,
			"0.025": 0.0
		}
	}
}
