{
	 "smiles": "O=C(NCCC1=CC=CS1)C1CC2=C(CN1)C=CC=C2", 
	 "Tm": 360.15, 
	 "num_atms": 38, 
	 "gaussian": { 
		 "optdone": 1, 
		 "sigma_profile": "yes", 
		 "theory": "DFT", 
		 "functional": "B3LYP", 
		 "basiset": "6-31G**", 
		 "properties": { 
			 "R2extent": 9272.9215, 
			 "electric_dipole_moment_norm": 3.2582580039, 
			 "electric_quadrupole_moment_norm": 12.1553030415, 
			 "total_energy": -1203.46787144, 
			 "HOMO_LUMO_gap": 0.21375, 
			 "cosmo_polarized_energy": -15.14, 
			 "cosmo_cavitation_energy": 41.87, 
			 "cosmo_dispersion_energy": -29.86, 
			 "cosmo_repulsion_energy": 2.24, 
			 "cosmo_total_nonelectrostatic_energy": 14.26, 
			 "SMD_solvation_energy": 5.38 
		},
		"coords": [
			{
				"x": -1.1398955967,
				"y": 2.2638815452,
				"z": 1.1131339015,
				"element": "O" 
			},
			{
				"x": -0.2593874743,
				"y": 1.4921521555,
				"z": 0.7465445614,
				"element": "C" 
			},
			{
				"x": 0.9251389511,
				"y": 1.9591957485,
				"z": 0.2475600258,
				"element": "N" 
			},
			{
				"x": 2.0997519358,
				"y": 1.2037986716,
				"z": -0.1632522032,
				"element": "C" 
			},
			{
				"x": 2.2104099941,
				"y": 0.9768956997,
				"z": -1.689702921,
				"element": "C" 
			},
			{
				"x": 2.4501382368,
				"y": 2.2218660071,
				"z": -2.4971581033,
				"element": "C" 
			},
			{
				"x": 3.623615675,
				"y": 2.6374527663,
				"z": -3.0727571516,
				"element": "C" 
			},
			{
				"x": 3.5192735355,
				"y": 3.8876444926,
				"z": -3.7568148777,
				"element": "C" 
			},
			{
				"x": 2.2609600597,
				"y": 4.416439818,
				"z": -3.6989795183,
				"element": "C" 
			},
			{
				"x": 1.1832357148,
				"y": 3.3922558048,
				"z": -2.8022676544,
				"element": "S" 
			},
			{
				"x": -0.4403286466,
				"y": -0.0365337716,
				"z": 0.8412421938,
				"element": "C" 
			},
			{
				"x": -1.9183459739,
				"y": -0.3963743439,
				"z": 1.0385229237,
				"element": "C" 
			},
			{
				"x": -2.1137930958,
				"y": -1.8440312584,
				"z": 1.4475059915,
				"element": "C" 
			},
			{
				"x": -1.0416727045,
				"y": -2.6132613189,
				"z": 1.9284183422,
				"element": "C" 
			},
			{
				"x": 0.3575487143,
				"y": -2.019696854,
				"z": 1.993852948,
				"element": "C" 
			},
			{
				"x": 0.4211132787,
				"y": -0.5577762945,
				"z": 1.9168796504,
				"element": "N" 
			},
			{
				"x": -1.2608396998,
				"y": -3.9413774303,
				"z": 2.3160340985,
				"element": "C" 
			},
			{
				"x": -2.5284551609,
				"y": -4.5126152978,
				"z": 2.2354848712,
				"element": "C" 
			},
			{
				"x": -3.5979063484,
				"y": -3.7500330785,
				"z": 1.7582993704,
				"element": "C" 
			},
			{
				"x": -3.3856514898,
				"y": -2.4296569266,
				"z": 1.3694743861,
				"element": "C" 
			},
			{
				"x": 0.9664575232,
				"y": 2.969649374,
				"z": 0.2065728323,
				"element": "H" 
			},
			{
				"x": 2.9882252347,
				"y": 1.7453551078,
				"z": 0.1801743166,
				"element": "H" 
			},
			{
				"x": 2.0881283579,
				"y": 0.2476929169,
				"z": 0.3637902253,
				"element": "H" 
			},
			{
				"x": 3.0516361105,
				"y": 0.2961773796,
				"z": -1.8677932875,
				"element": "H" 
			},
			{
				"x": 1.3078799904,
				"y": 0.4587130122,
				"z": -2.0365218348,
				"element": "H" 
			},
			{
				"x": 4.5391828384,
				"y": 2.0577267085,
				"z": -3.0144775947,
				"element": "H" 
			},
			{
				"x": 4.3452324952,
				"y": 4.3656381579,
				"z": -4.2714238701,
				"element": "H" 
			},
			{
				"x": 1.8983093623,
				"y": 5.3413448509,
				"z": -4.1255128929,
				"element": "H" 
			},
			{
				"x": -0.0792707326,
				"y": -0.4933570422,
				"z": -0.0908234752,
				"element": "H" 
			},
			{
				"x": -2.4820852119,
				"y": -0.1844956953,
				"z": 0.1221339834,
				"element": "H" 
			},
			{
				"x": -2.3318469793,
				"y": 0.2792914724,
				"z": 1.7969446438,
				"element": "H" 
			},
			{
				"x": 0.9604412271,
				"y": -2.4251859677,
				"z": 1.1670514422,
				"element": "H" 
			},
			{
				"x": 0.8604427376,
				"y": -2.3344506774,
				"z": 2.9152605229,
				"element": "H" 
			},
			{
				"x": 0.1019742853,
				"y": -0.1602889586,
				"z": 2.7992743856,
				"element": "H" 
			},
			{
				"x": -0.425150684,
				"y": -4.531377492,
				"z": 2.6877143914,
				"element": "H" 
			},
			{
				"x": -2.6835084406,
				"y": -5.5423793052,
				"z": 2.544807448,
				"element": "H" 
			},
			{
				"x": -4.591637384,
				"y": -4.1834958226,
				"z": 1.689388286,
				"element": "H" 
			},
			{
				"x": -4.2172206354,
				"y": -1.835584154,
				"z": 0.9969196426,
				"element": "H" 
			}
		],
		 "valence_orbital": [ 
			{
				"type": "occ",
				"energy": -0.246,
				"method": "rhf"
			},
			{
				"type": "occ",
				"energy": -0.24142,
				"method": "rhf"
			},
			{
				"type": "occ",
				"energy": -0.23775,
				"method": "rhf"
			},
			{
				"type": "occ",
				"energy": -0.22794,
				"method": "rhf"
			},
			{
				"type": "occ",
				"energy": -0.22668,
				"method": "rhf"
			},
			{
				"type": "unocc",
				"energy": -0.01293,
				"method": "rhf"
			},
			{
				"type": "unocc",
				"energy": -0.00136,
				"method": "rhf"
			},
			{
				"type": "unocc",
				"energy": 0.00279,
				"method": "rhf"
			},
			{
				"type": "unocc",
				"energy": 0.02099,
				"method": "rhf"
			},
			{
				"type": "unocc",
				"energy": 0.03512,
				"method": "rhf"
			}
		],
		"cosmo_sigma_profile": { 
			"-0.025": 0.0,
			"-0.024": 0.0,
			"-0.023": 0.0,
			"-0.022": 0.0,
			"-0.021": 0.0,
			"-0.02": 0.0,
			"-0.019": 0.0,
			"-0.018": 0.0,
			"-0.017": 0.0,
			"-0.016": 0.0,
			"-0.015": 0.0,
			"-0.014": 0.0,
			"-0.013": 0.0,
			"-0.012": 0.459759731437,
			"-0.011": 0.85516434175,
			"-0.01": 2.54321847716,
			"-0.009": 1.56180958018,
			"-0.008": 4.02233355321,
			"-0.007": 3.96375393763,
			"-0.006": 10.6983928764,
			"-0.005": 31.3005420857,
			"-0.004": 36.0069863659,
			"-0.003": 36.6243528397,
			"-0.002": 27.0704326858,
			"-0.001": 22.6623092661,
			"0.0": 19.3369103702,
			"0.001": 16.5769734005,
			"0.002": 19.0243740745,
			"0.003": 19.3311158977,
			"0.004": 17.807986888,
			"0.005": 18.7544344177,
			"0.006": 17.0775692561,
			"0.007": 7.50520688738,
			"0.008": 1.59896065834,
			"0.009": 2.4549153454,
			"0.01": 1.84543517976,
			"0.011": 2.39534987565,
			"0.012": 2.19988999783,
			"0.013": 3.16786832067,
			"0.014": 5.23893086684,
			"0.015": 0.738794393366,
			"0.016": 0.0,
			"0.017": 0.0,
			"0.018": 0.0,
			"0.019": 0.0,
			"0.02": 0.0,
			"0.021": 0.0,
			"0.022": 0.0,
			"0.023": 0.0,
			"0.024": 0.0,
			"0.025": 0.0
		}
	}
}
