{
	 "smiles": "CCOC1=CC=C(C=C1)C1=NN=C2SC(NN12)C1=CC=C(O)C(OC)=C1", 
	 "Tm": 406.15, 
	 "num_atms": 44, 
	 "gaussian": { 
		 "optdone": 1, 
		 "sigma_profile": "yes", 
		 "theory": "DFT", 
		 "functional": "B3LYP", 
		 "basiset": "6-31G**", 
		 "properties": { 
			 "R2extent": 12850.0015, 
			 "electric_dipole_moment_norm": 4.19433650176, 
			 "electric_quadrupole_moment_norm": 49.7789470715, 
			 "total_energy": -1539.53249838, 
			 "HOMO_LUMO_gap": 0.17107, 
			 "cosmo_polarized_energy": -28.94, 
			 "cosmo_cavitation_energy": 49.75, 
			 "cosmo_dispersion_energy": -34.82, 
			 "cosmo_repulsion_energy": 2.62, 
			 "cosmo_total_nonelectrostatic_energy": 17.55, 
			 "SMD_solvation_energy": 7.18 
		},
		"coords": [
			{
				"x": -2.399400969,
				"y": -6.4241182489,
				"z": -3.9528285976,
				"element": "C" 
			},
			{
				"x": -2.160581487,
				"y": -5.8184629154,
				"z": -2.5809008974,
				"element": "C" 
			},
			{
				"x": -2.0859740826,
				"y": -4.4012413326,
				"z": -2.7439635841,
				"element": "O" 
			},
			{
				"x": -1.8732888316,
				"y": -3.6227759092,
				"z": -1.6477114981,
				"element": "C" 
			},
			{
				"x": -1.8095718391,
				"y": -2.240995433,
				"z": -1.8815792844,
				"element": "C" 
			},
			{
				"x": -1.5987519811,
				"y": -1.3583402356,
				"z": -0.8313725195,
				"element": "C" 
			},
			{
				"x": -1.442610444,
				"y": -1.8323113472,
				"z": 0.4845899,
				"element": "C" 
			},
			{
				"x": -1.5073073674,
				"y": -3.2162491421,
				"z": 0.7078391599,
				"element": "C" 
			},
			{
				"x": -1.7197987503,
				"y": -4.1072561779,
				"z": -0.3400128507,
				"element": "C" 
			},
			{
				"x": -1.2133558183,
				"y": -0.9526593744,
				"z": 1.6304424359,
				"element": "C" 
			},
			{
				"x": -1.0340893869,
				"y": -1.3560916441,
				"z": 2.878577631,
				"element": "N" 
			},
			{
				"x": -0.8255639147,
				"y": -0.2547648436,
				"z": 3.6992302681,
				"element": "N" 
			},
			{
				"x": -0.9092250691,
				"y": 0.7927831241,
				"z": 2.9247017475,
				"element": "C" 
			},
			{
				"x": -0.767596213,
				"y": 2.538810324,
				"z": 3.094954889,
				"element": "S" 
			},
			{
				"x": -0.5141633062,
				"y": 2.5797962328,
				"z": 1.1902209185,
				"element": "C" 
			},
			{
				"x": -1.2817516498,
				"y": 1.4477794091,
				"z": 0.6648372846,
				"element": "N" 
			},
			{
				"x": -1.1475649347,
				"y": 0.4254420861,
				"z": 1.6247629501,
				"element": "N" 
			},
			{
				"x": 0.9509607863,
				"y": 2.5409807075,
				"z": 0.8044950147,
				"element": "C" 
			},
			{
				"x": 1.8561983091,
				"y": 3.436587136,
				"z": 1.3829139142,
				"element": "C" 
			},
			{
				"x": 3.1901622692,
				"y": 3.449077541,
				"z": 0.9839905049,
				"element": "C" 
			},
			{
				"x": 3.651426655,
				"y": 2.5665670538,
				"z": 0.0035548915,
				"element": "C" 
			},
			{
				"x": 4.9458761184,
				"y": 2.5538148698,
				"z": -0.4321664123,
				"element": "O" 
			},
			{
				"x": 2.7511686154,
				"y": 1.6520120677,
				"z": -0.5760929352,
				"element": "C" 
			},
			{
				"x": 3.1301567743,
				"y": 0.7996729252,
				"z": -1.5806694358,
				"element": "O" 
			},
			{
				"x": 4.0748021537,
				"y": -0.2152019351,
				"z": -1.2228849032,
				"element": "C" 
			},
			{
				"x": 1.4159792663,
				"y": 1.6551681328,
				"z": -0.1743544347,
				"element": "C" 
			},
			{
				"x": -3.3331817008,
				"y": -6.0503898079,
				"z": -4.382013697,
				"element": "H" 
			},
			{
				"x": -1.5817552259,
				"y": -6.1711792689,
				"z": -4.6334728128,
				"element": "H" 
			},
			{
				"x": -2.4636250239,
				"y": -7.5138188894,
				"z": -3.8763185016,
				"element": "H" 
			},
			{
				"x": -2.9785782913,
				"y": -6.0724119066,
				"z": -1.8922570634,
				"element": "H" 
			},
			{
				"x": -1.2245109802,
				"y": -6.1936669872,
				"z": -2.1441015896,
				"element": "H" 
			},
			{
				"x": -1.9277065934,
				"y": -1.8826347741,
				"z": -2.8988304226,
				"element": "H" 
			},
			{
				"x": -1.5491888258,
				"y": -0.2943948029,
				"z": -1.0351830823,
				"element": "H" 
			},
			{
				"x": -1.3863467786,
				"y": -3.5841460124,
				"z": 1.7209092173,
				"element": "H" 
			},
			{
				"x": -1.7641671935,
				"y": -5.1689693442,
				"z": -0.129458206,
				"element": "H" 
			},
			{
				"x": -0.9927598659,
				"y": 3.499635679,
				"z": 0.8450198766,
				"element": "H" 
			},
			{
				"x": -2.270641233,
				"y": 1.7039955527,
				"z": 0.6379809048,
				"element": "H" 
			},
			{
				"x": 1.5292003307,
				"y": 4.1227709745,
				"z": 2.1580716481,
				"element": "H" 
			},
			{
				"x": 3.8847164805,
				"y": 4.15350762,
				"z": 1.4372927723,
				"element": "H" 
			},
			{
				"x": 5.4465257368,
				"y": 3.2243728121,
				"z": 0.0504914046,
				"element": "H" 
			},
			{
				"x": 3.6815880305,
				"y": -0.846029329,
				"z": -0.4157783912,
				"element": "H" 
			},
			{
				"x": 4.215584429,
				"y": -0.8236386022,
				"z": -2.1183225889,
				"element": "H" 
			},
			{
				"x": 5.0329196833,
				"y": 0.2157981044,
				"z": -0.9187828892,
				"element": "H" 
			},
			{
				"x": 0.7453921186,
				"y": 0.9514759115,
				"z": -0.6521207361,
				"element": "H" 
			}
		],
		 "valence_orbital": [ 
			{
				"type": "occ",
				"energy": -0.24951,
				"method": "rhf"
			},
			{
				"type": "occ",
				"energy": -0.24701,
				"method": "rhf"
			},
			{
				"type": "occ",
				"energy": -0.24252,
				"method": "rhf"
			},
			{
				"type": "occ",
				"energy": -0.22225,
				"method": "rhf"
			},
			{
				"type": "occ",
				"energy": -0.20113,
				"method": "rhf"
			},
			{
				"type": "unocc",
				"energy": -0.03006,
				"method": "rhf"
			},
			{
				"type": "unocc",
				"energy": -0.01888,
				"method": "rhf"
			},
			{
				"type": "unocc",
				"energy": -0.00722,
				"method": "rhf"
			},
			{
				"type": "unocc",
				"energy": -0.00487,
				"method": "rhf"
			},
			{
				"type": "unocc",
				"energy": 0.00894,
				"method": "rhf"
			}
		],
		"cosmo_sigma_profile": { 
			"-0.025": 0.0,
			"-0.024": 0.0,
			"-0.023": 0.0,
			"-0.022": 0.0,
			"-0.021": 0.0,
			"-0.02": 0.0,
			"-0.019": 0.0102697555783,
			"-0.018": 0.84365319053,
			"-0.017": 1.12297687009,
			"-0.016": 1.78070977299,
			"-0.015": 3.02504134038,
			"-0.014": 2.53737393063,
			"-0.013": 2.47215631784,
			"-0.012": 2.44963314898,
			"-0.011": 2.72181057435,
			"-0.01": 5.37378290056,
			"-0.009": 4.37951468218,
			"-0.008": 4.48496928894,
			"-0.007": 6.39504857303,
			"-0.006": 12.1630520265,
			"-0.005": 21.9522202615,
			"-0.004": 28.9616786805,
			"-0.003": 32.4826108392,
			"-0.002": 30.9566989211,
			"-0.001": 26.1609426041,
			"0.0": 27.8575488059,
			"0.001": 25.5768926016,
			"0.002": 23.9219270426,
			"0.003": 29.4049631541,
			"0.004": 33.2267951484,
			"0.005": 16.82162329,
			"0.006": 8.49064818649,
			"0.007": 5.71109325664,
			"0.008": 6.21060511369,
			"0.009": 5.69854189717,
			"0.01": 5.44360881554,
			"0.011": 5.52936762127,
			"0.012": 3.12410993276,
			"0.013": 2.96201304294,
			"0.014": 4.02588747313,
			"0.015": 2.65296447234,
			"0.016": 1.55212080094,
			"0.017": 0.225067105611,
			"0.018": 0.0,
			"0.019": 0.0,
			"0.02": 0.0,
			"0.021": 0.0,
			"0.022": 0.0,
			"0.023": 0.0,
			"0.024": 0.0,
			"0.025": 0.0
		}
	}
}
