{
	 "smiles": "OCC1=CC(O)=C2C(=O)C3=C(O)C=CC=C3C(=O)C2=C1", 
	 "Tm": 497.15, 
	 "num_atms": 30, 
	 "gaussian": { 
		 "optdone": 1, 
		 "sigma_profile": "yes", 
		 "theory": "DFT", 
		 "functional": "B3LYP", 
		 "basiset": "6-31G**", 
		 "properties": { 
			 "R2extent": 6049.6654, 
			 "electric_dipole_moment_norm": 1.42526772924, 
			 "electric_quadrupole_moment_norm": 36.1751882899, 
			 "total_energy": -953.747076115, 
			 "HOMO_LUMO_gap": 0.12552, 
			 "cosmo_polarized_energy": -21.84, 
			 "cosmo_cavitation_energy": 34.19, 
			 "cosmo_dispersion_energy": -25.86, 
			 "cosmo_repulsion_energy": 1.92, 
			 "cosmo_total_nonelectrostatic_energy": 10.25, 
			 "SMD_solvation_energy": 6.96 
		},
		"coords": [
			{
				"x": 3.5767426813,
				"y": -2.7010567307,
				"z": 0.2324676393,
				"element": "O" 
			},
			{
				"x": 2.6418669797,
				"y": -2.7555342259,
				"z": 1.2952412333,
				"element": "C" 
			},
			{
				"x": 1.4374156898,
				"y": -1.9025525417,
				"z": 0.9617615839,
				"element": "C" 
			},
			{
				"x": 0.2590384985,
				"y": -2.0736598293,
				"z": 1.6811037293,
				"element": "C" 
			},
			{
				"x": -0.8683265963,
				"y": -1.273817385,
				"z": 1.4296957135,
				"element": "C" 
			},
			{
				"x": -1.9683702735,
				"y": -1.4884352136,
				"z": 2.1588854256,
				"element": "O" 
			},
			{
				"x": -0.8082683983,
				"y": -0.2783284945,
				"z": 0.4177500703,
				"element": "C" 
			},
			{
				"x": -1.992489901,
				"y": 0.5511678482,
				"z": 0.1509937099,
				"element": "C" 
			},
			{
				"x": -3.0348945158,
				"y": 0.3808408785,
				"z": 0.8122255345,
				"element": "O" 
			},
			{
				"x": -1.9126659976,
				"y": 1.5819579244,
				"z": -0.913247558,
				"element": "C" 
			},
			{
				"x": -3.0101885518,
				"y": 2.4203548154,
				"z": -1.2336283836,
				"element": "C" 
			},
			{
				"x": -4.1769574132,
				"y": 2.2938942502,
				"z": -0.5601865801,
				"element": "O" 
			},
			{
				"x": -2.8808471926,
				"y": 3.3798205998,
				"z": -2.2504011191,
				"element": "C" 
			},
			{
				"x": -1.6901411512,
				"y": 3.5237169281,
				"z": -2.9520188702,
				"element": "C" 
			},
			{
				"x": -0.6006188344,
				"y": 2.7093330673,
				"z": -2.6512150606,
				"element": "C" 
			},
			{
				"x": -0.7111802466,
				"y": 1.7506633688,
				"z": -1.6447905018,
				"element": "C" 
			},
			{
				"x": 0.4967354147,
				"y": 0.9067207062,
				"z": -1.3705450344,
				"element": "C" 
			},
			{
				"x": 1.529497823,
				"y": 1.0719682544,
				"z": -2.0111614487,
				"element": "O" 
			},
			{
				"x": 0.397118202,
				"y": -0.1240385182,
				"z": -0.3048608184,
				"element": "C" 
			},
			{
				"x": 1.5055441537,
				"y": -0.9211808027,
				"z": -0.0386115794,
				"element": "C" 
			},
			{
				"x": 4.3917815623,
				"y": -3.1247450086,
				"z": 0.5258776398,
				"element": "H" 
			},
			{
				"x": 3.0835880011,
				"y": -2.3820853445,
				"z": 2.2347194952,
				"element": "H" 
			},
			{
				"x": 2.3079948593,
				"y": -3.7875137262,
				"z": 1.4899249547,
				"element": "H" 
			},
			{
				"x": 0.1736496698,
				"y": -2.8318104732,
				"z": 2.4545929572,
				"element": "H" 
			},
			{
				"x": -2.6428739697,
				"y": -0.8330192028,
				"z": 1.8278509077,
				"element": "H" 
			},
			{
				"x": -4.8069346982,
				"y": 2.9395210248,
				"z": -0.9092785075,
				"element": "H" 
			},
			{
				"x": -3.7330856105,
				"y": 4.0151008688,
				"z": -2.4838939666,
				"element": "H" 
			},
			{
				"x": -1.6152366284,
				"y": 4.2732222046,
				"z": -3.7342377567,
				"element": "H" 
			},
			{
				"x": 0.3423889202,
				"y": 2.7944341064,
				"z": -3.178068948,
				"element": "H" 
			},
			{
				"x": 2.4117175239,
				"y": -0.7822393488,
				"z": -0.6134444612,
				"element": "H" 
			}
		],
		 "valence_orbital": [ 
			{
				"type": "occ",
				"energy": -0.26522,
				"method": "rhf"
			},
			{
				"type": "occ",
				"energy": -0.25511,
				"method": "rhf"
			},
			{
				"type": "occ",
				"energy": -0.25125,
				"method": "rhf"
			},
			{
				"type": "occ",
				"energy": -0.24195,
				"method": "rhf"
			},
			{
				"type": "occ",
				"energy": -0.2258,
				"method": "rhf"
			},
			{
				"type": "unocc",
				"energy": -0.10028,
				"method": "rhf"
			},
			{
				"type": "unocc",
				"energy": -0.04394,
				"method": "rhf"
			},
			{
				"type": "unocc",
				"energy": -0.02247,
				"method": "rhf"
			},
			{
				"type": "unocc",
				"energy": 0.0065,
				"method": "rhf"
			},
			{
				"type": "unocc",
				"energy": 0.05094,
				"method": "rhf"
			}
		],
		"cosmo_sigma_profile": { 
			"-0.025": 0.0,
			"-0.024": 0.0,
			"-0.023": 0.0,
			"-0.022": 0.0,
			"-0.021": 0.0,
			"-0.02": 0.0,
			"-0.019": 0.486378133285,
			"-0.018": 1.29514730989,
			"-0.017": 1.476434013,
			"-0.016": 2.01667075058,
			"-0.015": 2.28550654389,
			"-0.014": 2.44348859205,
			"-0.013": 1.51647307344,
			"-0.012": 1.69954087685,
			"-0.011": 2.12231288427,
			"-0.01": 1.80357992362,
			"-0.009": 2.18147148076,
			"-0.008": 3.38300096638,
			"-0.007": 8.67523538306,
			"-0.006": 11.6308537617,
			"-0.005": 16.4827278308,
			"-0.004": 14.6608538655,
			"-0.003": 16.0633450094,
			"-0.002": 15.621148778,
			"-0.001": 14.6763737525,
			"0.0": 22.3591060532,
			"0.001": 28.2391119842,
			"0.002": 27.7116996625,
			"0.003": 11.3446996164,
			"0.004": 7.25431157656,
			"0.005": 6.91162931731,
			"0.006": 6.29978108139,
			"0.007": 6.88660207585,
			"0.008": 6.78267197319,
			"0.009": 5.05861304149,
			"0.01": 7.42939277728,
			"0.011": 8.12573912799,
			"0.012": 4.3094356258,
			"0.013": 1.9607456271,
			"0.014": 1.23853529564,
			"0.015": 1.49299513113,
			"0.016": 0.202565883103,
			"0.017": 0.0,
			"0.018": 0.0,
			"0.019": 0.0,
			"0.02": 0.0,
			"0.021": 0.0,
			"0.022": 0.0,
			"0.023": 0.0,
			"0.024": 0.0,
			"0.025": 0.0
		}
	}
}
