{
	 "smiles": "CC1=CC(C(O)=O)=C(S1)C(O)=O", 
	 "Tm": 484.15, 
	 "num_atms": 18, 
	 "gaussian": { 
		 "optdone": 1, 
		 "sigma_profile": "yes", 
		 "theory": "DFT", 
		 "functional": "B3LYP", 
		 "basiset": "6-31G**", 
		 "properties": { 
			 "R2extent": 2692.2926, 
			 "electric_dipole_moment_norm": 7.41684105937, 
			 "electric_quadrupole_moment_norm": 11.5153713579, 
			 "total_energy": -969.458912914, 
			 "HOMO_LUMO_gap": 0.17176, 
			 "cosmo_polarized_energy": -18.08, 
			 "cosmo_cavitation_energy": 24.17, 
			 "cosmo_dispersion_energy": -18.77, 
			 "cosmo_repulsion_energy": 1.43, 
			 "cosmo_total_nonelectrostatic_energy": 6.83, 
			 "SMD_solvation_energy": 6.37 
		},
		"coords": [
			{
				"x": -2.1875343613,
				"y": 3.8244863883,
				"z": -0.2591093759,
				"element": "C" 
			},
			{
				"x": -1.2863002276,
				"y": 2.6297988166,
				"z": -0.3252415735,
				"element": "C" 
			},
			{
				"x": -1.0199278099,
				"y": 1.7067746068,
				"z": 0.6497837003,
				"element": "C" 
			},
			{
				"x": -0.1092997923,
				"y": 0.676887457,
				"z": 0.2740096516,
				"element": "C" 
			},
			{
				"x": 0.2053513738,
				"y": -0.3635782177,
				"z": 1.3386493568,
				"element": "C" 
			},
			{
				"x": 1.0441387103,
				"y": -1.3496181301,
				"z": 1.0597197061,
				"element": "O" 
			},
			{
				"x": -0.3270170818,
				"y": -0.2584803434,
				"z": 2.4261300954,
				"element": "O" 
			},
			{
				"x": 0.3312701413,
				"y": 0.8268643016,
				"z": -1.0389202394,
				"element": "C" 
			},
			{
				"x": -0.3992055894,
				"y": 2.2446521272,
				"z": -1.77017838,
				"element": "S" 
			},
			{
				"x": 1.265102039,
				"y": -0.002206266,
				"z": -1.8199771746,
				"element": "C" 
			},
			{
				"x": 1.5390961622,
				"y": 0.3512694995,
				"z": -3.0898460059,
				"element": "O" 
			},
			{
				"x": 1.8141895502,
				"y": -1.0040078664,
				"z": -1.3810993596,
				"element": "O" 
			},
			{
				"x": -1.6388501026,
				"y": 4.7560179445,
				"z": -0.4347685799,
				"element": "H" 
			},
			{
				"x": -2.9912678388,
				"y": 3.7671752846,
				"z": -1.0009932729,
				"element": "H" 
			},
			{
				"x": -2.6439145753,
				"y": 3.8812329567,
				"z": 0.7318761667,
				"element": "H" 
			},
			{
				"x": -1.4540105388,
				"y": 1.7322195811,
				"z": 1.6411623284,
				"element": "H" 
			},
			{
				"x": 1.394069611,
				"y": -1.2952530637,
				"z": 0.1295520891,
				"element": "H" 
			},
			{
				"x": 1.0708103301,
				"y": 1.1514649233,
				"z": -3.3685491326,
				"element": "H" 
			}
		],
		 "valence_orbital": [ 
			{
				"type": "occ",
				"energy": -0.31089,
				"method": "rhf"
			},
			{
				"type": "occ",
				"energy": -0.30516,
				"method": "rhf"
			},
			{
				"type": "occ",
				"energy": -0.28466,
				"method": "rhf"
			},
			{
				"type": "occ",
				"energy": -0.27169,
				"method": "rhf"
			},
			{
				"type": "occ",
				"energy": -0.26879,
				"method": "rhf"
			},
			{
				"type": "unocc",
				"energy": -0.09703,
				"method": "rhf"
			},
			{
				"type": "unocc",
				"energy": -0.03064,
				"method": "rhf"
			},
			{
				"type": "unocc",
				"energy": -0.00639,
				"method": "rhf"
			},
			{
				"type": "unocc",
				"energy": 0.02032,
				"method": "rhf"
			},
			{
				"type": "unocc",
				"energy": 0.03699,
				"method": "rhf"
			}
		],
		"cosmo_sigma_profile": { 
			"-0.025": 0.0,
			"-0.024": 0.0,
			"-0.023": 0.0,
			"-0.022": 0.0,
			"-0.021": 0.0,
			"-0.02": 0.0,
			"-0.019": 0.270745505884,
			"-0.018": 0.964539629161,
			"-0.017": 1.02858857066,
			"-0.016": 0.714144613161,
			"-0.015": 0.664022390776,
			"-0.014": 0.777564607171,
			"-0.013": 1.646101769,
			"-0.012": 0.971207849592,
			"-0.011": 0.868350693555,
			"-0.01": 0.53523633383,
			"-0.009": 1.94543724205,
			"-0.008": 1.94755794252,
			"-0.007": 4.33347144398,
			"-0.006": 14.0975672986,
			"-0.005": 13.1142518888,
			"-0.004": 14.833085156,
			"-0.003": 14.4662570752,
			"-0.002": 16.6454966919,
			"-0.001": 16.1595101143,
			"0.0": 15.2798829216,
			"0.001": 12.5401367104,
			"0.002": 6.6651520858,
			"0.003": 4.17296551778,
			"0.004": 3.96438160513,
			"0.005": 4.27766732765,
			"0.006": 4.64855638957,
			"0.007": 5.30785832333,
			"0.008": 5.69716985286,
			"0.009": 6.97992509598,
			"0.01": 5.59385541929,
			"0.011": 6.90955535196,
			"0.012": 5.26651248222,
			"0.013": 2.21937133482,
			"0.014": 0.539087936487,
			"0.015": 0.0,
			"0.016": 0.0,
			"0.017": 0.0,
			"0.018": 0.0,
			"0.019": 0.0,
			"0.02": 0.0,
			"0.021": 0.0,
			"0.022": 0.0,
			"0.023": 0.0,
			"0.024": 0.0,
			"0.025": 0.0
		}
	}
}
