{
	 "smiles": "ClC(Cl)C(=O)OC(=O)C(Cl)Cl", 
	 "Tm": 302.15, 
	 "num_atms": 13, 
	 "gaussian": { 
		 "optdone": 1, 
		 "sigma_profile": "yes", 
		 "theory": "DFT", 
		 "functional": "B3LYP", 
		 "basiset": "6-31G**", 
		 "properties": { 
			 "R2extent": 4776.6798, 
			 "electric_dipole_moment_norm": 3.56707345172, 
			 "electric_quadrupole_moment_norm": 8.98577661585, 
			 "total_energy": -2220.0434137, 
			 "HOMO_LUMO_gap": 0.22097, 
			 "cosmo_polarized_energy": -12.31, 
			 "cosmo_cavitation_energy": 26.75, 
			 "cosmo_dispersion_energy": -19.03, 
			 "cosmo_repulsion_energy": 1.59, 
			 "cosmo_total_nonelectrostatic_energy": 9.32, 
			 "SMD_solvation_energy": 5.14 
		},
		"coords": [
			{
				"x": 1.5927337061,
				"y": 2.0774890257,
				"z": -2.655734203,
				"element": "Cl" 
			},
			{
				"x": -0.0235853508,
				"y": 1.9668834278,
				"z": -1.9315590395,
				"element": "C" 
			},
			{
				"x": -0.5325061529,
				"y": 3.513222365,
				"z": -1.1551956942,
				"element": "Cl" 
			},
			{
				"x": -0.0803848499,
				"y": 0.8533692848,
				"z": -0.874655484,
				"element": "C" 
			},
			{
				"x": 0.8390339667,
				"y": 0.3634935371,
				"z": -0.2989627144,
				"element": "O" 
			},
			{
				"x": -1.4198792031,
				"y": 0.5455047862,
				"z": -0.6743004423,
				"element": "O" 
			},
			{
				"x": -1.7958554382,
				"y": -0.6165096835,
				"z": -0.0073818254,
				"element": "C" 
			},
			{
				"x": -1.1624048187,
				"y": -1.6229470232,
				"z": 0.0378826541,
				"element": "O" 
			},
			{
				"x": -3.1820307664,
				"y": -0.3634689307,
				"z": 0.59909073,
				"element": "C" 
			},
			{
				"x": -2.9510755225,
				"y": 0.5900339659,
				"z": 2.1116987453,
				"element": "Cl" 
			},
			{
				"x": -4.0483449723,
				"y": -1.8862833556,
				"z": 0.8825424265,
				"element": "Cl" 
			},
			{
				"x": -0.7415093714,
				"y": 1.7674539201,
				"z": -2.7251760449,
				"element": "H" 
			},
			{
				"x": -3.7801912267,
				"y": 0.2536586807,
				"z": -0.0687491082,
				"element": "H" 
			}
		],
		 "valence_orbital": [ 
			{
				"type": "occ",
				"energy": -0.33689,
				"method": "rhf"
			},
			{
				"type": "occ",
				"energy": -0.33171,
				"method": "rhf"
			},
			{
				"type": "occ",
				"energy": -0.32993,
				"method": "rhf"
			},
			{
				"type": "occ",
				"energy": -0.32686,
				"method": "rhf"
			},
			{
				"type": "occ",
				"energy": -0.31026,
				"method": "rhf"
			},
			{
				"type": "unocc",
				"energy": -0.08929,
				"method": "rhf"
			},
			{
				"type": "unocc",
				"energy": -0.05969,
				"method": "rhf"
			},
			{
				"type": "unocc",
				"energy": -0.02628,
				"method": "rhf"
			},
			{
				"type": "unocc",
				"energy": -0.02332,
				"method": "rhf"
			},
			{
				"type": "unocc",
				"energy": 0.02368,
				"method": "rhf"
			}
		],
		"cosmo_sigma_profile": { 
			"-0.025": 0.0,
			"-0.024": 0.0,
			"-0.023": 0.0,
			"-0.022": 0.0,
			"-0.021": 0.0,
			"-0.02": 0.0,
			"-0.019": 0.0,
			"-0.018": 0.0,
			"-0.017": 0.0,
			"-0.016": 0.0,
			"-0.015": 0.0,
			"-0.014": 0.0788065005344,
			"-0.013": 3.83174204439,
			"-0.012": 5.1833764783,
			"-0.011": 3.95375283561,
			"-0.01": 3.23756472763,
			"-0.009": 3.49401993641,
			"-0.008": 3.17619992419,
			"-0.007": 3.21136181696,
			"-0.006": 4.59549204509,
			"-0.005": 5.13859458172,
			"-0.004": 9.53191503214,
			"-0.003": 13.2325155045,
			"-0.002": 11.8560687758,
			"-0.001": 14.6716206322,
			"0.0": 16.3433723151,
			"0.001": 18.5921766927,
			"0.002": 27.1423613752,
			"0.003": 37.0523085269,
			"0.004": 9.86264368133,
			"0.005": 3.83220399754,
			"0.006": 5.20976959776,
			"0.007": 6.77150454517,
			"0.008": 9.7309158927,
			"0.009": 3.97138482583,
			"0.01": 0.200529531413,
			"0.011": 0.0,
			"0.012": 0.0,
			"0.013": 0.0,
			"0.014": 0.0,
			"0.015": 0.0,
			"0.016": 0.0,
			"0.017": 0.0,
			"0.018": 0.0,
			"0.019": 0.0,
			"0.02": 0.0,
			"0.021": 0.0,
			"0.022": 0.0,
			"0.023": 0.0,
			"0.024": 0.0,
			"0.025": 0.0
		}
	}
}
