{
	 "smiles": "NC1=C(C=CN=C1)C(O)=O", 
	 "Tm": 562.15, 
	 "num_atms": 16, 
	 "gaussian": { 
		 "optdone": 1, 
		 "sigma_profile": "yes", 
		 "theory": "DFT", 
		 "functional": "B3LYP", 
		 "basiset": "6-31G**", 
		 "properties": { 
			 "R2extent": 1384.5309, 
			 "electric_dipole_moment_norm": 1.11057252352, 
			 "electric_quadrupole_moment_norm": 18.1621315365, 
			 "total_energy": -492.212835503, 
			 "HOMO_LUMO_gap": 0.15877, 
			 "cosmo_polarized_energy": -15.64, 
			 "cosmo_cavitation_energy": 20.16, 
			 "cosmo_dispersion_energy": -15.56, 
			 "cosmo_repulsion_energy": 1.25, 
			 "cosmo_total_nonelectrostatic_energy": 5.85, 
			 "SMD_solvation_energy": 3.18 
		},
		"coords": [
			{
				"x": -1.4296004669,
				"y": -1.9356387004,
				"z": -0.0561204956,
				"element": "N" 
			},
			{
				"x": -0.9207281902,
				"y": -0.6969052838,
				"z": 0.1825297685,
				"element": "C" 
			},
			{
				"x": 0.30704889,
				"y": -0.2426558087,
				"z": -0.3704909944,
				"element": "C" 
			},
			{
				"x": 0.7185519442,
				"y": 1.0641993326,
				"z": -0.0531458614,
				"element": "C" 
			},
			{
				"x": -0.0389639993,
				"y": 1.8556908714,
				"z": 0.7950013443,
				"element": "C" 
			},
			{
				"x": -1.1860517945,
				"y": 1.4200155127,
				"z": 1.3497209219,
				"element": "N" 
			},
			{
				"x": -1.5998140841,
				"y": 0.2010318592,
				"z": 1.0506660001,
				"element": "C" 
			},
			{
				"x": 1.0859885084,
				"y": -1.1280102447,
				"z": -1.2758518045,
				"element": "C" 
			},
			{
				"x": 2.3681102494,
				"y": -0.7800570973,
				"z": -1.5443519567,
				"element": "O" 
			},
			{
				"x": 0.6382406078,
				"y": -2.1408639264,
				"z": -1.7845879913,
				"element": "O" 
			},
			{
				"x": -2.3675510523,
				"y": -2.1427860582,
				"z": 0.2464893453,
				"element": "H" 
			},
			{
				"x": -1.0195349486,
				"y": -2.4666064136,
				"z": -0.8143012248,
				"element": "H" 
			},
			{
				"x": 1.6152319143,
				"y": 1.4900762378,
				"z": -0.497203334,
				"element": "H" 
			},
			{
				"x": 0.2683597347,
				"y": 2.868576799,
				"z": 1.039994877,
				"element": "H" 
			},
			{
				"x": -2.5350867649,
				"y": -0.1262910153,
				"z": 1.5067582632,
				"element": "H" 
			},
			{
				"x": 2.6519994519,
				"y": -0.0598760643,
				"z": -0.9651068577,
				"element": "H" 
			}
		],
		 "valence_orbital": [ 
			{
				"type": "occ",
				"energy": -0.32426,
				"method": "rhf"
			},
			{
				"type": "occ",
				"energy": -0.29545,
				"method": "rhf"
			},
			{
				"type": "occ",
				"energy": -0.2889,
				"method": "rhf"
			},
			{
				"type": "occ",
				"energy": -0.2623,
				"method": "rhf"
			},
			{
				"type": "occ",
				"energy": -0.22276,
				"method": "rhf"
			},
			{
				"type": "unocc",
				"energy": -0.06399,
				"method": "rhf"
			},
			{
				"type": "unocc",
				"energy": -0.00871,
				"method": "rhf"
			},
			{
				"type": "unocc",
				"energy": 0.0389,
				"method": "rhf"
			},
			{
				"type": "unocc",
				"energy": 0.05613,
				"method": "rhf"
			},
			{
				"type": "unocc",
				"energy": 0.08378,
				"method": "rhf"
			}
		],
		"cosmo_sigma_profile": { 
			"-0.025": 0.0,
			"-0.024": 0.0,
			"-0.023": 0.0,
			"-0.022": 0.0,
			"-0.021": 0.0,
			"-0.02": 0.0654039494652,
			"-0.019": 0.769140150147,
			"-0.018": 0.605808168839,
			"-0.017": 1.11220441245,
			"-0.016": 0.80310864183,
			"-0.015": 0.888886591085,
			"-0.014": 2.1734974695,
			"-0.013": 2.38404698949,
			"-0.012": 2.93288641424,
			"-0.011": 2.55988837444,
			"-0.01": 2.6424099046,
			"-0.009": 3.2554204853,
			"-0.008": 4.84727306357,
			"-0.007": 5.40308506181,
			"-0.006": 6.36821948736,
			"-0.005": 6.49505728827,
			"-0.004": 5.6701577817,
			"-0.003": 6.70468779198,
			"-0.002": 6.5718494211,
			"-0.001": 6.88817021899,
			"0.0": 10.317081835,
			"0.001": 15.182176866,
			"0.002": 12.0582538606,
			"0.003": 8.66430742796,
			"0.004": 5.00532055848,
			"0.005": 4.63019690994,
			"0.006": 4.42148371059,
			"0.007": 4.65315124604,
			"0.008": 5.37997903373,
			"0.009": 4.10485380918,
			"0.01": 6.03305413017,
			"0.011": 4.21590948113,
			"0.012": 3.09202859235,
			"0.013": 1.86958400555,
			"0.014": 1.26088651189,
			"0.015": 0.783504102237,
			"0.016": 0.628379600313,
			"0.017": 0.132000642688,
			"0.018": 0.0,
			"0.019": 0.0,
			"0.02": 0.0,
			"0.021": 0.0,
			"0.022": 0.0,
			"0.023": 0.0,
			"0.024": 0.0,
			"0.025": 0.0
		}
	}
}
