{
	 "smiles": "CCN(CC)S(=O)(=O)C1=CN(CC(O)=O)C(=O)C=C1", 
	 "Tm": 459.15, 
	 "num_atms": 35, 
	 "gaussian": { 
		 "optdone": 1, 
		 "sigma_profile": "yes", 
		 "theory": "DFT", 
		 "functional": "B3LYP", 
		 "basiset": "6-31G**", 
		 "properties": { 
			 "R2extent": 8066.3779, 
			 "electric_dipole_moment_norm": 4.22775646768, 
			 "electric_quadrupole_moment_norm": 27.1007036494, 
			 "total_energy": -1312.56926541, 
			 "HOMO_LUMO_gap": 0.17755, 
			 "cosmo_polarized_energy": -24.47, 
			 "cosmo_cavitation_energy": 39.85, 
			 "cosmo_dispersion_energy": -27.5, 
			 "cosmo_repulsion_energy": 2.11, 
			 "cosmo_total_nonelectrostatic_energy": 14.46, 
			 "SMD_solvation_energy": 7.99 
		},
		"coords": [
			{
				"x": -1.4113353373,
				"y": -2.7784140636,
				"z": -2.0609414624,
				"element": "C" 
			},
			{
				"x": -0.5172281353,
				"y": -1.7001274057,
				"z": -2.6739099529,
				"element": "C" 
			},
			{
				"x": 0.1521913716,
				"y": -0.8893127049,
				"z": -1.6349518215,
				"element": "N" 
			},
			{
				"x": 1.17049349,
				"y": -1.5518085247,
				"z": -0.795094827,
				"element": "C" 
			},
			{
				"x": 2.384940859,
				"y": -2.11845957,
				"z": -1.5375092158,
				"element": "C" 
			},
			{
				"x": 0.4433045839,
				"y": 0.7374170258,
				"z": -1.98651776,
				"element": "S" 
			},
			{
				"x": 1.873875986,
				"y": 0.9970495764,
				"z": -2.2176976207,
				"element": "O" 
			},
			{
				"x": -0.5518394968,
				"y": 1.1323845122,
				"z": -2.9879539482,
				"element": "O" 
			},
			{
				"x": 0.038571912,
				"y": 1.517635585,
				"z": -0.4388478768,
				"element": "C" 
			},
			{
				"x": 0.9919395497,
				"y": 2.2623385911,
				"z": 0.1969540583,
				"element": "C" 
			},
			{
				"x": 0.7158320513,
				"y": 2.9038724058,
				"z": 1.3623755367,
				"element": "N" 
			},
			{
				"x": 1.7192984977,
				"y": 3.7302577559,
				"z": 2.0138399936,
				"element": "C" 
			},
			{
				"x": 1.5955391321,
				"y": 5.1926195335,
				"z": 1.5962160299,
				"element": "C" 
			},
			{
				"x": 2.3863648881,
				"y": 5.9627354221,
				"z": 2.3713728433,
				"element": "O" 
			},
			{
				"x": 0.9171946129,
				"y": 5.6079840042,
				"z": 0.6896935226,
				"element": "O" 
			},
			{
				"x": -0.5804061465,
				"y": 2.9043356619,
				"z": 1.967379578,
				"element": "C" 
			},
			{
				"x": -0.7630686325,
				"y": 3.5413337113,
				"z": 2.9985934159,
				"element": "O" 
			},
			{
				"x": -1.5676548638,
				"y": 2.1070845124,
				"z": 1.2632013873,
				"element": "C" 
			},
			{
				"x": -1.2784376556,
				"y": 1.449605876,
				"z": 0.1071435251,
				"element": "C" 
			},
			{
				"x": -1.9405834796,
				"y": -3.3086556178,
				"z": -2.8590745424,
				"element": "H" 
			},
			{
				"x": -0.8423881554,
				"y": -3.5231979222,
				"z": -1.4958804831,
				"element": "H" 
			},
			{
				"x": -2.1538401264,
				"y": -2.3340797526,
				"z": -1.391459625,
				"element": "H" 
			},
			{
				"x": -1.1186128661,
				"y": -1.0158195743,
				"z": -3.2725052696,
				"element": "H" 
			},
			{
				"x": 0.2204118022,
				"y": -2.1564766669,
				"z": -3.3477297491,
				"element": "H" 
			},
			{
				"x": 1.4961514548,
				"y": -0.8262620205,
				"z": -0.0435425013,
				"element": "H" 
			},
			{
				"x": 0.6559082232,
				"y": -2.3456067024,
				"z": -0.2432694771,
				"element": "H" 
			},
			{
				"x": 2.9067475735,
				"y": -1.3292077261,
				"z": -2.0826035571,
				"element": "H" 
			},
			{
				"x": 3.078894585,
				"y": -2.5639375823,
				"z": -0.8167823655,
				"element": "H" 
			},
			{
				"x": 2.099731688,
				"y": -2.9035920772,
				"z": -2.24437066,
				"element": "H" 
			},
			{
				"x": 1.9943647351,
				"y": 2.3568424941,
				"z": -0.2046040706,
				"element": "H" 
			},
			{
				"x": 2.7195117354,
				"y": 3.3709039757,
				"z": 1.7564869863,
				"element": "H" 
			},
			{
				"x": 1.5853321968,
				"y": 3.6617594602,
				"z": 3.0943578941,
				"element": "H" 
			},
			{
				"x": 2.2816860973,
				"y": 6.876455175,
				"z": 2.0563253273,
				"element": "H" 
			},
			{
				"x": -2.5559382643,
				"y": 2.0839386735,
				"z": 1.7067813503,
				"element": "H" 
			},
			{
				"x": -2.0374538659,
				"y": 0.8705039591,
				"z": -0.4089746628,
				"element": "H" 
			}
		],
		 "valence_orbital": [ 
			{
				"type": "occ",
				"energy": -0.30341,
				"method": "rhf"
			},
			{
				"type": "occ",
				"energy": -0.29397,
				"method": "rhf"
			},
			{
				"type": "occ",
				"energy": -0.26884,
				"method": "rhf"
			},
			{
				"type": "occ",
				"energy": -0.25571,
				"method": "rhf"
			},
			{
				"type": "occ",
				"energy": -0.23485,
				"method": "rhf"
			},
			{
				"type": "unocc",
				"energy": -0.0573,
				"method": "rhf"
			},
			{
				"type": "unocc",
				"energy": -0.02173,
				"method": "rhf"
			},
			{
				"type": "unocc",
				"energy": -0.00472,
				"method": "rhf"
			},
			{
				"type": "unocc",
				"energy": 0.05034,
				"method": "rhf"
			},
			{
				"type": "unocc",
				"energy": 0.06496,
				"method": "rhf"
			}
		],
		"cosmo_sigma_profile": { 
			"-0.025": 0.0,
			"-0.024": 0.0,
			"-0.023": 0.0,
			"-0.022": 0.0,
			"-0.021": 0.0,
			"-0.02": 0.00614369881686,
			"-0.019": 0.616088217736,
			"-0.018": 1.12431749449,
			"-0.017": 0.875111133168,
			"-0.016": 0.3748620868,
			"-0.015": 0.830067280732,
			"-0.014": 0.828721690861,
			"-0.013": 1.76149609488,
			"-0.012": 3.18005848856,
			"-0.011": 3.05927020913,
			"-0.01": 2.84286918589,
			"-0.009": 3.11547865569,
			"-0.008": 6.37741502283,
			"-0.007": 7.77894734831,
			"-0.006": 8.64808074247,
			"-0.005": 15.1277485425,
			"-0.004": 25.0904379416,
			"-0.003": 33.296648853,
			"-0.002": 27.6603215261,
			"-0.001": 24.8151576204,
			"0.0": 27.6970064715,
			"0.001": 21.0361743838,
			"0.002": 11.9212856846,
			"0.003": 7.53864599555,
			"0.004": 8.653245793,
			"0.005": 7.43343117238,
			"0.006": 6.30454909156,
			"0.007": 7.20763895997,
			"0.008": 7.59213797465,
			"0.009": 7.9551215294,
			"0.01": 10.965196994,
			"0.011": 12.1696739808,
			"0.012": 6.26889541969,
			"0.013": 3.3751402497,
			"0.014": 1.26814275515,
			"0.015": 0.0219506464245,
			"0.016": 0.0,
			"0.017": 0.0,
			"0.018": 0.0,
			"0.019": 0.0,
			"0.02": 0.0,
			"0.021": 0.0,
			"0.022": 0.0,
			"0.023": 0.0,
			"0.024": 0.0,
			"0.025": 0.0
		}
	}
}
