{
	 "smiles": "OC1=CC(CCl)=NC2=C(C=NN12)C#N", 
	 "Tm": 643.15, 
	 "num_atms": 19, 
	 "gaussian": { 
		 "optdone": 1, 
		 "sigma_profile": "yes", 
		 "theory": "DFT", 
		 "functional": "B3LYP", 
		 "basiset": "6-31G**", 
		 "properties": { 
			 "R2extent": 3523.4331, 
			 "electric_dipole_moment_norm": 5.04362587927, 
			 "electric_quadrupole_moment_norm": 18.4818852929, 
			 "total_energy": -1062.24842686, 
			 "HOMO_LUMO_gap": 0.17351, 
			 "cosmo_polarized_energy": -15.77, 
			 "cosmo_cavitation_energy": 27.22, 
			 "cosmo_dispersion_energy": -19.85, 
			 "cosmo_repulsion_energy": 1.57, 
			 "cosmo_total_nonelectrostatic_energy": 8.94, 
			 "SMD_solvation_energy": 4.39 
		},
		"coords": [
			{
				"x": -2.3099620024,
				"y": -1.8270758166,
				"z": -0.1694541354,
				"element": "O" 
			},
			{
				"x": -1.0897046927,
				"y": -1.332231867,
				"z": -0.0060245984,
				"element": "C" 
			},
			{
				"x": 0.0472498117,
				"y": -2.0572057247,
				"z": 0.2699715897,
				"element": "C" 
			},
			{
				"x": 1.2718527632,
				"y": -1.3530420348,
				"z": 0.4112803133,
				"element": "C" 
			},
			{
				"x": 2.5418474891,
				"y": -2.0877466084,
				"z": 0.764836362,
				"element": "C" 
			},
			{
				"x": 2.8606574731,
				"y": -3.5034911013,
				"z": -0.3254300674,
				"element": "Cl" 
			},
			{
				"x": 1.3986990285,
				"y": -0.0359481952,
				"z": 0.2946116196,
				"element": "N" 
			},
			{
				"x": 0.2791437778,
				"y": 0.6543467586,
				"z": 0.0315938353,
				"element": "C" 
			},
			{
				"x": -0.0146522144,
				"y": 2.0201939557,
				"z": -0.1607503062,
				"element": "C" 
			},
			{
				"x": -1.4066297832,
				"y": 2.0634046441,
				"z": -0.4104831855,
				"element": "C" 
			},
			{
				"x": -1.9818019029,
				"y": 0.8597085884,
				"z": -0.3875278746,
				"element": "N" 
			},
			{
				"x": -0.9486741406,
				"y": 0.0198274862,
				"z": -0.1183708707,
				"element": "N" 
			},
			{
				"x": 0.8896196734,
				"y": 3.1079852433,
				"z": -0.1112140094,
				"element": "C" 
			},
			{
				"x": 1.6178210933,
				"y": 4.0152427829,
				"z": -0.0729876154,
				"element": "N" 
			},
			{
				"x": -2.9095655188,
				"y": -1.0766117005,
				"z": -0.3539459441,
				"element": "H" 
			},
			{
				"x": -0.0058174393,
				"y": -3.1340593924,
				"z": 0.354498963,
				"element": "H" 
			},
			{
				"x": 2.492130893,
				"y": -2.4925198974,
				"z": 1.7782597959,
				"element": "H" 
			},
			{
				"x": 3.3854084296,
				"y": -1.4053617085,
				"z": 0.6809211827,
				"element": "H" 
			},
			{
				"x": -2.0062227385,
				"y": 2.9416845876,
				"z": -0.6062850546,
				"element": "H" 
			}
		],
		 "valence_orbital": [ 
			{
				"type": "occ",
				"energy": -0.31465,
				"method": "rhf"
			},
			{
				"type": "occ",
				"energy": -0.31415,
				"method": "rhf"
			},
			{
				"type": "occ",
				"energy": -0.29952,
				"method": "rhf"
			},
			{
				"type": "occ",
				"energy": -0.29315,
				"method": "rhf"
			},
			{
				"type": "occ",
				"energy": -0.24675,
				"method": "rhf"
			},
			{
				"type": "unocc",
				"energy": -0.07324,
				"method": "rhf"
			},
			{
				"type": "unocc",
				"energy": -0.04688,
				"method": "rhf"
			},
			{
				"type": "unocc",
				"energy": -0.00995,
				"method": "rhf"
			},
			{
				"type": "unocc",
				"energy": 0.0151,
				"method": "rhf"
			},
			{
				"type": "unocc",
				"energy": 0.02624,
				"method": "rhf"
			}
		],
		"cosmo_sigma_profile": { 
			"-0.025": 0.0,
			"-0.024": 0.0,
			"-0.023": 0.0,
			"-0.022": 0.0,
			"-0.021": 0.0,
			"-0.02": 0.0,
			"-0.019": 0.0,
			"-0.018": 0.075118592898,
			"-0.017": 0.388270589009,
			"-0.016": 0.425076203184,
			"-0.015": 0.725788318577,
			"-0.014": 0.73965737699,
			"-0.013": 0.648314136874,
			"-0.012": 0.551006683079,
			"-0.011": 0.666069659354,
			"-0.01": 2.54475888029,
			"-0.009": 6.76872696768,
			"-0.008": 8.87850352747,
			"-0.007": 11.0459781726,
			"-0.006": 10.6649995257,
			"-0.005": 11.8453243686,
			"-0.004": 10.1839593451,
			"-0.003": 9.80565293987,
			"-0.002": 13.1499110737,
			"-0.001": 19.1843599832,
			"0.0": 15.2956027497,
			"0.001": 9.6528562369,
			"0.002": 11.8532065287,
			"0.003": 11.126166415,
			"0.004": 11.7222195556,
			"0.005": 14.0441836933,
			"0.006": 11.442700257,
			"0.007": 6.84343571483,
			"0.008": 6.14710812591,
			"0.009": 4.47998039848,
			"0.01": 3.95488391425,
			"0.011": 3.50307080529,
			"0.012": 2.95503026269,
			"0.013": 1.71140340514,
			"0.014": 0.121245933919,
			"0.015": 0.0,
			"0.016": 0.0,
			"0.017": 0.0,
			"0.018": 0.0,
			"0.019": 0.0,
			"0.02": 0.0,
			"0.021": 0.0,
			"0.022": 0.0,
			"0.023": 0.0,
			"0.024": 0.0,
			"0.025": 0.0
		}
	}
}
