{
	 "smiles": "ON=C(/CC1=CC=CC=C1)C1=CC2=CC=CC=C2C=C1", 
	 "Tm": 402.15, 
	 "num_atms": 35, 
	 "gaussian": { 
		 "optdone": 1, 
		 "sigma_profile": "yes", 
		 "theory": "DFT", 
		 "functional": "B3LYP", 
		 "basiset": "6-31G**", 
		 "properties": { 
			 "R2extent": 7291.528, 
			 "electric_dipole_moment_norm": 0.10802397882, 
			 "electric_quadrupole_moment_norm": 9.97649749511, 
			 "total_energy": -824.893055004, 
			 "HOMO_LUMO_gap": 0.16473, 
			 "cosmo_polarized_energy": -10.81, 
			 "cosmo_cavitation_energy": 38.49, 
			 "cosmo_dispersion_energy": -27.3, 
			 "cosmo_repulsion_energy": 2.07, 
			 "cosmo_total_nonelectrostatic_energy": 13.26, 
			 "SMD_solvation_energy": 6.05 
		},
		"coords": [
			{
				"x": -4.046215711,
				"y": -2.788752145,
				"z": 0.6756126683,
				"element": "O" 
			},
			{
				"x": -3.1766860662,
				"y": -2.4114370512,
				"z": -0.3617773673,
				"element": "N" 
			},
			{
				"x": -2.8058304279,
				"y": -1.1794674001,
				"z": -0.2782684497,
				"element": "C" 
			},
			{
				"x": -3.284782673,
				"y": -0.2343969169,
				"z": 0.8096536343,
				"element": "C" 
			},
			{
				"x": -2.3369596384,
				"y": -0.0978736477,
				"z": 1.9939596126,
				"element": "C" 
			},
			{
				"x": -1.8234142232,
				"y": -1.2306910957,
				"z": 2.6415258242,
				"element": "C" 
			},
			{
				"x": -0.9776411086,
				"y": -1.0960063161,
				"z": 3.7422224483,
				"element": "C" 
			},
			{
				"x": -0.6312908544,
				"y": 0.1715803674,
				"z": 4.2163667046,
				"element": "C" 
			},
			{
				"x": -1.1406649966,
				"y": 1.3046944137,
				"z": 3.5821720922,
				"element": "C" 
			},
			{
				"x": -1.9861665218,
				"y": 1.1682648541,
				"z": 2.4789643819,
				"element": "C" 
			},
			{
				"x": -1.8799148724,
				"y": -0.7102136404,
				"z": -1.3390111982,
				"element": "C" 
			},
			{
				"x": -1.2121210904,
				"y": 0.4970414775,
				"z": -1.2253976629,
				"element": "C" 
			},
			{
				"x": -0.3214691937,
				"y": 0.9537673645,
				"z": -2.2330382288,
				"element": "C" 
			},
			{
				"x": 0.3707078485,
				"y": 2.1898288799,
				"z": -2.1215883269,
				"element": "C" 
			},
			{
				"x": 1.22646287,
				"y": 2.6108899339,
				"z": -3.1154708205,
				"element": "C" 
			},
			{
				"x": 1.4294928118,
				"y": 1.8136707002,
				"z": -4.2679995045,
				"element": "C" 
			},
			{
				"x": 0.773986727,
				"y": 0.6089291965,
				"z": -4.4040330001,
				"element": "C" 
			},
			{
				"x": -0.112140886,
				"y": 0.1472990182,
				"z": -3.3968248384,
				"element": "C" 
			},
			{
				"x": -0.8064978896,
				"y": -1.0914151642,
				"z": -3.4930868817,
				"element": "C" 
			},
			{
				"x": -1.6576243965,
				"y": -1.5092110342,
				"z": -2.5028866655,
				"element": "C" 
			},
			{
				"x": -4.2398809076,
				"y": -3.707871907,
				"z": 0.448841785,
				"element": "H" 
			},
			{
				"x": -3.457202254,
				"y": 0.7509833679,
				"z": 0.3672602584,
				"element": "H" 
			},
			{
				"x": -4.2519370902,
				"y": -0.6041758846,
				"z": 1.1622837262,
				"element": "H" 
			},
			{
				"x": -2.1003201853,
				"y": -2.2175758485,
				"z": 2.2839573718,
				"element": "H" 
			},
			{
				"x": -0.5881558714,
				"y": -1.9842732562,
				"z": 4.2320375263,
				"element": "H" 
			},
			{
				"x": 0.028886791,
				"y": 0.2740211388,
				"z": 5.0728318409,
				"element": "H" 
			},
			{
				"x": -0.8803776914,
				"y": 2.2960716354,
				"z": 3.9426646261,
				"element": "H" 
			},
			{
				"x": -2.3828049608,
				"y": 2.0567035077,
				"z": 1.9924029529,
				"element": "H" 
			},
			{
				"x": -1.337503854,
				"y": 1.1148731927,
				"z": -0.3424946523,
				"element": "H" 
			},
			{
				"x": 0.2136949582,
				"y": 2.7994441533,
				"z": -1.2353244736,
				"element": "H" 
			},
			{
				"x": 1.7498066565,
				"y": 3.5577152536,
				"z": -3.0183453286,
				"element": "H" 
			},
			{
				"x": 2.1065227218,
				"y": 2.1560707442,
				"z": -5.0453451185,
				"element": "H" 
			},
			{
				"x": 0.9289556127,
				"y": -0.0058948238,
				"z": -5.2870914718,
				"element": "H" 
			},
			{
				"x": -0.6541372006,
				"y": -1.7082944077,
				"z": -4.375295055,
				"element": "H" 
			},
			{
				"x": -2.1821764325,
				"y": -2.4534986601,
				"z": -2.5873784095,
				"element": "H" 
			}
		],
		 "valence_orbital": [ 
			{
				"type": "occ",
				"energy": -0.26992,
				"method": "rhf"
			},
			{
				"type": "occ",
				"energy": -0.24628,
				"method": "rhf"
			},
			{
				"type": "occ",
				"energy": -0.23773,
				"method": "rhf"
			},
			{
				"type": "occ",
				"energy": -0.22815,
				"method": "rhf"
			},
			{
				"type": "occ",
				"energy": -0.21121,
				"method": "rhf"
			},
			{
				"type": "unocc",
				"energy": -0.04648,
				"method": "rhf"
			},
			{
				"type": "unocc",
				"energy": -0.02448,
				"method": "rhf"
			},
			{
				"type": "unocc",
				"energy": 0.00051,
				"method": "rhf"
			},
			{
				"type": "unocc",
				"energy": 0.00334,
				"method": "rhf"
			},
			{
				"type": "unocc",
				"energy": 0.02365,
				"method": "rhf"
			}
		],
		"cosmo_sigma_profile": { 
			"-0.025": 0.0,
			"-0.024": 0.0,
			"-0.023": 0.0,
			"-0.022": 0.0,
			"-0.021": 0.0,
			"-0.02": 0.0,
			"-0.019": 0.0,
			"-0.018": 0.26556247694,
			"-0.017": 0.919353885759,
			"-0.016": 1.04181603261,
			"-0.015": 0.81484697283,
			"-0.014": 0.888295203061,
			"-0.013": 0.520614082187,
			"-0.012": 0.467916148918,
			"-0.011": 0.193500500869,
			"-0.01": 1.0063790587,
			"-0.009": 1.0083701584,
			"-0.008": 0.565118832356,
			"-0.007": 1.5430778175,
			"-0.006": 15.4632612244,
			"-0.005": 24.0101301188,
			"-0.004": 26.6938349643,
			"-0.003": 25.1898623727,
			"-0.002": 20.2777689602,
			"-0.001": 17.6296097688,
			"0.0": 16.5120588595,
			"0.001": 17.7830120386,
			"0.002": 24.1333665853,
			"0.003": 29.2287057421,
			"0.004": 37.4134533905,
			"0.005": 23.3324970186,
			"0.006": 12.1004496302,
			"0.007": 4.1995163414,
			"0.008": 2.93506903926,
			"0.009": 1.09453743319,
			"0.01": 0.70828222898,
			"0.011": 0.188730762994,
			"0.012": 0.0,
			"0.013": 0.0,
			"0.014": 0.0,
			"0.015": 0.0,
			"0.016": 0.0,
			"0.017": 0.0,
			"0.018": 0.0,
			"0.019": 0.0,
			"0.02": 0.0,
			"0.021": 0.0,
			"0.022": 0.0,
			"0.023": 0.0,
			"0.024": 0.0,
			"0.025": 0.0
		}
	}
}
