{
	 "smiles": "CC1=C(CCNC(=O)CCl)C=CC=C1", 
	 "Tm": 342.15, 
	 "num_atms": 28, 
	 "gaussian": { 
		 "optdone": 1, 
		 "sigma_profile": "yes", 
		 "theory": "DFT", 
		 "functional": "B3LYP", 
		 "basiset": "6-31G**", 
		 "properties": { 
			 "R2extent": 3718.2572, 
			 "electric_dipole_moment_norm": 3.64385581081, 
			 "electric_quadrupole_moment_norm": 18.6488060599, 
			 "total_energy": -1017.79873846, 
			 "HOMO_LUMO_gap": 0.22481, 
			 "cosmo_polarized_energy": -12.37, 
			 "cosmo_cavitation_energy": 31.67, 
			 "cosmo_dispersion_energy": -21.85, 
			 "cosmo_repulsion_energy": 1.73, 
			 "cosmo_total_nonelectrostatic_energy": 11.55, 
			 "SMD_solvation_energy": 5.16 
		},
		"coords": [
			{
				"x": -2.9731522234,
				"y": -0.9643899254,
				"z": 0.7478235369,
				"element": "C" 
			},
			{
				"x": -1.595913197,
				"y": -0.903938242,
				"z": 1.3739035777,
				"element": "C" 
			},
			{
				"x": -0.405122167,
				"y": -0.8904237891,
				"z": 0.6134244816,
				"element": "C" 
			},
			{
				"x": -0.387841747,
				"y": -0.9090460287,
				"z": -0.9030343572,
				"element": "C" 
			},
			{
				"x": -0.2576249217,
				"y": 0.4924887621,
				"z": -1.5467433197,
				"element": "C" 
			},
			{
				"x": -1.4171658725,
				"y": 1.3467016472,
				"z": -1.3337705547,
				"element": "N" 
			},
			{
				"x": -1.6384799135,
				"y": 2.2784197983,
				"z": -0.3597724196,
				"element": "C" 
			},
			{
				"x": -2.7602455716,
				"y": 2.7163150381,
				"z": -0.1320523283,
				"element": "O" 
			},
			{
				"x": -0.4476075683,
				"y": 2.7775226914,
				"z": 0.4596663682,
				"element": "C" 
			},
			{
				"x": 0.7744431906,
				"y": 3.6785672724,
				"z": -0.5426432245,
				"element": "Cl" 
			},
			{
				"x": 0.8284475475,
				"y": -0.8295797811,
				"z": 1.2823019427,
				"element": "C" 
			},
			{
				"x": 0.9089457853,
				"y": -0.7662326856,
				"z": 2.6718458896,
				"element": "C" 
			},
			{
				"x": -0.2664370452,
				"y": -0.7739672172,
				"z": 3.4232989557,
				"element": "C" 
			},
			{
				"x": -1.4962664286,
				"y": -0.8481766213,
				"z": 2.7731585821,
				"element": "C" 
			},
			{
				"x": -3.2883247198,
				"y": 0.0153903695,
				"z": 0.3704698234,
				"element": "H" 
			},
			{
				"x": -3.0228709838,
				"y": -1.6731129742,
				"z": -0.0849071109,
				"element": "H" 
			},
			{
				"x": -3.7139737247,
				"y": -1.2779732859,
				"z": 1.4883076689,
				"element": "H" 
			},
			{
				"x": -1.2809344325,
				"y": -1.3985823561,
				"z": -1.3049575059,
				"element": "H" 
			},
			{
				"x": 0.4691427697,
				"y": -1.5015442723,
				"z": -1.2465588692,
				"element": "H" 
			},
			{
				"x": 0.6302091624,
				"y": 1.0022312102,
				"z": -1.168433831,
				"element": "H" 
			},
			{
				"x": -0.1133028392,
				"y": 0.3789354467,
				"z": -2.6275413979,
				"element": "H" 
			},
			{
				"x": -2.2728906591,
				"y": 1.0862388059,
				"z": -1.8087060793,
				"element": "H" 
			},
			{
				"x": 0.0843297843,
				"y": 1.9658988975,
				"z": 0.957635311,
				"element": "H" 
			},
			{
				"x": -0.8383873675,
				"y": 3.4799073676,
				"z": 1.1917154021,
				"element": "H" 
			},
			{
				"x": 1.7441511774,
				"y": -0.8377896429,
				"z": 0.6944867874,
				"element": "H" 
			},
			{
				"x": 1.8777469951,
				"y": -0.7216595299,
				"z": 3.1607929403,
				"element": "H" 
			},
			{
				"x": -0.2268651873,
				"y": -0.7318091565,
				"z": 4.5079470068,
				"element": "H" 
			},
			{
				"x": -2.4105098429,
				"y": -0.8633917985,
				"z": 3.3611427238,
				"element": "H" 
			}
		],
		 "valence_orbital": [ 
			{
				"type": "occ",
				"energy": -0.30081,
				"method": "rhf"
			},
			{
				"type": "occ",
				"energy": -0.26482,
				"method": "rhf"
			},
			{
				"type": "occ",
				"energy": -0.25258,
				"method": "rhf"
			},
			{
				"type": "occ",
				"energy": -0.24943,
				"method": "rhf"
			},
			{
				"type": "occ",
				"energy": -0.24274,
				"method": "rhf"
			},
			{
				"type": "unocc",
				"energy": -0.01793,
				"method": "rhf"
			},
			{
				"type": "unocc",
				"energy": -0.00894,
				"method": "rhf"
			},
			{
				"type": "unocc",
				"energy": -0.0051,
				"method": "rhf"
			},
			{
				"type": "unocc",
				"energy": 0.05474,
				"method": "rhf"
			},
			{
				"type": "unocc",
				"energy": 0.07668,
				"method": "rhf"
			}
		],
		"cosmo_sigma_profile": { 
			"-0.025": 0.0,
			"-0.024": 0.0,
			"-0.023": 0.0,
			"-0.022": 0.0,
			"-0.021": 0.0,
			"-0.02": 0.0,
			"-0.019": 0.0,
			"-0.018": 0.0,
			"-0.017": 0.0,
			"-0.016": 0.0,
			"-0.015": 0.0,
			"-0.014": 0.207855112671,
			"-0.013": 1.04152263021,
			"-0.012": 1.25235694769,
			"-0.011": 0.776086130288,
			"-0.01": 0.871417572056,
			"-0.009": 1.32180448531,
			"-0.008": 2.5483999911,
			"-0.007": 2.68956198285,
			"-0.006": 7.0218967074,
			"-0.005": 22.5176435975,
			"-0.004": 27.3777792727,
			"-0.003": 22.0217706645,
			"-0.002": 17.953547647,
			"-0.001": 19.2510390949,
			"0.0": 20.1686587522,
			"0.001": 17.6731065492,
			"0.002": 15.0569885564,
			"0.003": 14.1566226444,
			"0.004": 15.5276312381,
			"0.005": 15.0958544979,
			"0.006": 10.4109899595,
			"0.007": 2.13513637192,
			"0.008": 1.21684508804,
			"0.009": 1.12325670182,
			"0.01": 1.22998966532,
			"0.011": 1.4840224613,
			"0.012": 2.27004356912,
			"0.013": 5.12986801976,
			"0.014": 2.35102424975,
			"0.015": 0.0385358529193,
			"0.016": 0.0,
			"0.017": 0.0,
			"0.018": 0.0,
			"0.019": 0.0,
			"0.02": 0.0,
			"0.021": 0.0,
			"0.022": 0.0,
			"0.023": 0.0,
			"0.024": 0.0,
			"0.025": 0.0
		}
	}
}
