{
	 "smiles": "NC1=C2C=CC=CC2=NC=C1C#N", 
	 "Tm": 548.15, 
	 "num_atms": 20, 
	 "gaussian": { 
		 "optdone": 1, 
		 "sigma_profile": "yes", 
		 "theory": "DFT", 
		 "functional": "B3LYP", 
		 "basiset": "6-31G**", 
		 "properties": { 
			 "R2extent": 3285.5954, 
			 "electric_dipole_moment_norm": 5.13786792843, 
			 "electric_quadrupole_moment_norm": 20.5732440067, 
			 "total_energy": -549.536813778, 
			 "HOMO_LUMO_gap": 0.16523, 
			 "cosmo_polarized_energy": -15.45, 
			 "cosmo_cavitation_energy": 24.99, 
			 "cosmo_dispersion_energy": -18.37, 
			 "cosmo_repulsion_energy": 1.42, 
			 "cosmo_total_nonelectrostatic_energy": 8.04, 
			 "SMD_solvation_energy": 3.77 
		},
		"coords": [
			{
				"x": -0.6599393842,
				"y": 1.5218492938,
				"z": -3.4761850577,
				"element": "N" 
			},
			{
				"x": -0.8404868739,
				"y": 1.5196046719,
				"z": -2.1268213038,
				"element": "C" 
			},
			{
				"x": 0.1008705811,
				"y": 0.8951118022,
				"z": -1.2372488887,
				"element": "C" 
			},
			{
				"x": 1.2766598432,
				"y": 0.2416434996,
				"z": -1.6854566062,
				"element": "C" 
			},
			{
				"x": 2.139075415,
				"y": -0.3547056732,
				"z": -0.7896437245,
				"element": "C" 
			},
			{
				"x": 1.8607200112,
				"y": -0.3183440786,
				"z": 0.5949952932,
				"element": "C" 
			},
			{
				"x": 0.7322261806,
				"y": 0.3213651551,
				"z": 1.0600783795,
				"element": "C" 
			},
			{
				"x": -0.1722679621,
				"y": 0.9471506581,
				"z": 0.1655880133,
				"element": "C" 
			},
			{
				"x": -1.2644319119,
				"y": 1.5761666656,
				"z": 0.7056335583,
				"element": "N" 
			},
			{
				"x": -2.0938302904,
				"y": 2.1544179438,
				"z": -0.1279440617,
				"element": "C" 
			},
			{
				"x": -1.9463482177,
				"y": 2.1607323029,
				"z": -1.5423528871,
				"element": "C" 
			},
			{
				"x": -2.9141112778,
				"y": 2.7894026574,
				"z": -2.3772114691,
				"element": "C" 
			},
			{
				"x": -3.6769094693,
				"y": 3.2822087024,
				"z": -3.1082314667,
				"element": "N" 
			},
			{
				"x": -1.40723005,
				"y": 1.8700393007,
				"z": -4.0595794749,
				"element": "H" 
			},
			{
				"x": -0.0341857574,
				"y": 0.8583321929,
				"z": -3.9004604445,
				"element": "H" 
			},
			{
				"x": 1.5251335788,
				"y": 0.2212039092,
				"z": -2.7426512947,
				"element": "H" 
			},
			{
				"x": 3.0369771386,
				"y": -0.8479974025,
				"z": -1.1488776517,
				"element": "H" 
			},
			{
				"x": 2.5445537426,
				"y": -0.7917486403,
				"z": 1.2933388848,
				"element": "H" 
			},
			{
				"x": 0.4975378404,
				"y": 0.3733090785,
				"z": 2.1179307724,
				"element": "H" 
			},
			{
				"x": -2.959913137,
				"y": 2.6567579604,
				"z": 0.3001994297,
				"element": "H" 
			}
		],
		 "valence_orbital": [ 
			{
				"type": "occ",
				"energy": -0.33943,
				"method": "rhf"
			},
			{
				"type": "occ",
				"energy": -0.27566,
				"method": "rhf"
			},
			{
				"type": "occ",
				"energy": -0.26376,
				"method": "rhf"
			},
			{
				"type": "occ",
				"energy": -0.26198,
				"method": "rhf"
			},
			{
				"type": "occ",
				"energy": -0.22758,
				"method": "rhf"
			},
			{
				"type": "unocc",
				"energy": -0.06235,
				"method": "rhf"
			},
			{
				"type": "unocc",
				"energy": -0.03967,
				"method": "rhf"
			},
			{
				"type": "unocc",
				"energy": 0.01542,
				"method": "rhf"
			},
			{
				"type": "unocc",
				"energy": 0.02611,
				"method": "rhf"
			},
			{
				"type": "unocc",
				"energy": 0.04152,
				"method": "rhf"
			}
		],
		"cosmo_sigma_profile": { 
			"-0.025": 0.0,
			"-0.024": 0.0,
			"-0.023": 0.0,
			"-0.022": 0.0,
			"-0.021": 0.0,
			"-0.02": 0.0,
			"-0.019": 0.0,
			"-0.018": 0.0,
			"-0.017": 0.0,
			"-0.016": 0.471901028636,
			"-0.015": 1.23633147368,
			"-0.014": 2.39853926591,
			"-0.013": 1.90348365426,
			"-0.012": 2.32133715606,
			"-0.011": 2.37850912181,
			"-0.01": 2.3252678005,
			"-0.009": 2.47343735542,
			"-0.008": 2.47569351415,
			"-0.007": 7.52985414194,
			"-0.006": 10.6091922584,
			"-0.005": 10.9696546991,
			"-0.004": 11.7494731791,
			"-0.003": 9.173201512,
			"-0.002": 10.1734006548,
			"-0.001": 14.5212582486,
			"0.0": 16.2893917462,
			"0.001": 13.9294221726,
			"0.002": 14.8659111046,
			"0.003": 16.4212494044,
			"0.004": 10.4895687126,
			"0.005": 4.76584599212,
			"0.006": 3.62300386156,
			"0.007": 3.90413036106,
			"0.008": 4.79794257945,
			"0.009": 3.74758519901,
			"0.01": 4.86591699441,
			"0.011": 2.93182362955,
			"0.012": 3.99716479686,
			"0.013": 2.63513402213,
			"0.014": 0.803887307333,
			"0.015": 0.990868724717,
			"0.016": 0.588688265819,
			"0.017": 0.0115529581965,
			"0.018": 0.0,
			"0.019": 0.0,
			"0.02": 0.0,
			"0.021": 0.0,
			"0.022": 0.0,
			"0.023": 0.0,
			"0.024": 0.0,
			"0.025": 0.0
		}
	}
}
