{
	 "smiles": "CS(=O)(=O)NC1=CC=CC=C1", 
	 "Tm": 368.15, 
	 "num_atms": 20, 
	 "gaussian": { 
		 "optdone": 1, 
		 "sigma_profile": "yes", 
		 "theory": "DFT", 
		 "functional": "B3LYP", 
		 "basiset": "6-31G**", 
		 "properties": { 
			 "R2extent": 2615.6711, 
			 "electric_dipole_moment_norm": 4.8301293844, 
			 "electric_quadrupole_moment_norm": 18.0775045454, 
			 "total_energy": -875.48977037, 
			 "HOMO_LUMO_gap": 0.22081, 
			 "cosmo_polarized_energy": -15.56, 
			 "cosmo_cavitation_energy": 24.95, 
			 "cosmo_dispersion_energy": -18.8, 
			 "cosmo_repulsion_energy": 1.46, 
			 "cosmo_total_nonelectrostatic_energy": 7.61, 
			 "SMD_solvation_energy": 3.95 
		},
		"coords": [
			{
				"x": -2.0962240109,
				"y": 0.9082532365,
				"z": -2.1892812595,
				"element": "C" 
			},
			{
				"x": -0.4859671616,
				"y": 0.6353266099,
				"z": -2.9601315781,
				"element": "S" 
			},
			{
				"x": 0.2030491467,
				"y": 1.9240940678,
				"z": -2.9841814856,
				"element": "O" 
			},
			{
				"x": -0.6741868434,
				"y": -0.163775043,
				"z": -4.1702601972,
				"element": "O" 
			},
			{
				"x": 0.3417520439,
				"y": -0.3967441164,
				"z": -1.9056064195,
				"element": "N" 
			},
			{
				"x": 0.5580117812,
				"y": -0.1353453503,
				"z": -0.5260971417,
				"element": "C" 
			},
			{
				"x": 0.3612916304,
				"y": -1.1710676957,
				"z": 0.3988162705,
				"element": "C" 
			},
			{
				"x": 0.6131144581,
				"y": -0.9577493665,
				"z": 1.752951814,
				"element": "C" 
			},
			{
				"x": 1.0362941196,
				"y": 0.2940812455,
				"z": 2.2027318406,
				"element": "C" 
			},
			{
				"x": 1.2225044777,
				"y": 1.3251931372,
				"z": 1.2800373753,
				"element": "C" 
			},
			{
				"x": 1.0014548579,
				"y": 1.1190254175,
				"z": -0.0816181342,
				"element": "C" 
			},
			{
				"x": -2.6377686119,
				"y": -0.0377309918,
				"z": -2.1532748428,
				"element": "H" 
			},
			{
				"x": -2.6269092673,
				"y": 1.62929644,
				"z": -2.8131895892,
				"element": "H" 
			},
			{
				"x": -1.9436748999,
				"y": 1.314198212,
				"z": -1.188256733,
				"element": "H" 
			},
			{
				"x": 0.1556775791,
				"y": -1.3630014377,
				"z": -2.1512265784,
				"element": "H" 
			},
			{
				"x": 0.0165448113,
				"y": -2.1431973367,
				"z": 0.0543151538,
				"element": "H" 
			},
			{
				"x": 0.4662969914,
				"y": -1.7715904336,
				"z": 2.4570710567,
				"element": "H" 
			},
			{
				"x": 1.2238103577,
				"y": 0.4620549093,
				"z": 3.2586757539,
				"element": "H" 
			},
			{
				"x": 1.5622934177,
				"y": 2.3003100602,
				"z": 1.6169437338,
				"element": "H" 
			},
			{
				"x": 1.1777351223,
				"y": 1.9101684359,
				"z": -0.8005190393,
				"element": "H" 
			}
		],
		 "valence_orbital": [ 
			{
				"type": "occ",
				"energy": -0.31924,
				"method": "rhf"
			},
			{
				"type": "occ",
				"energy": -0.30935,
				"method": "rhf"
			},
			{
				"type": "occ",
				"energy": -0.30421,
				"method": "rhf"
			},
			{
				"type": "occ",
				"energy": -0.26247,
				"method": "rhf"
			},
			{
				"type": "occ",
				"energy": -0.23478,
				"method": "rhf"
			},
			{
				"type": "unocc",
				"energy": -0.01397,
				"method": "rhf"
			},
			{
				"type": "unocc",
				"energy": -0.01221,
				"method": "rhf"
			},
			{
				"type": "unocc",
				"energy": 0.05808,
				"method": "rhf"
			},
			{
				"type": "unocc",
				"energy": 0.06969,
				"method": "rhf"
			},
			{
				"type": "unocc",
				"energy": 0.0765,
				"method": "rhf"
			}
		],
		"cosmo_sigma_profile": { 
			"-0.025": 0.0,
			"-0.024": 0.0,
			"-0.023": 0.0,
			"-0.022": 0.0,
			"-0.021": 0.0,
			"-0.02": 0.0,
			"-0.019": 0.0,
			"-0.018": 0.0,
			"-0.017": 0.0,
			"-0.016": 0.216193144305,
			"-0.015": 1.04919957914,
			"-0.014": 1.06373768822,
			"-0.013": 1.09056668689,
			"-0.012": 1.23603452247,
			"-0.011": 2.10590160386,
			"-0.01": 1.752754581,
			"-0.009": 3.83303197756,
			"-0.008": 6.05438272628,
			"-0.007": 6.81966947269,
			"-0.006": 11.4472209012,
			"-0.005": 15.0070381124,
			"-0.004": 17.9910011647,
			"-0.003": 12.6935533925,
			"-0.002": 9.80760037888,
			"-0.001": 8.51189196794,
			"0.0": 8.02893170898,
			"0.001": 7.56820648444,
			"0.002": 9.69914341209,
			"0.003": 11.432939177,
			"0.004": 11.9928498905,
			"0.005": 12.1761829658,
			"0.006": 5.83021989617,
			"0.007": 3.93385671799,
			"0.008": 4.32539679403,
			"0.009": 2.78803768235,
			"0.01": 6.79612863746,
			"0.011": 10.6943630458,
			"0.012": 2.99491816231,
			"0.013": 0.0,
			"0.014": 0.0,
			"0.015": 0.0,
			"0.016": 0.0,
			"0.017": 0.0,
			"0.018": 0.0,
			"0.019": 0.0,
			"0.02": 0.0,
			"0.021": 0.0,
			"0.022": 0.0,
			"0.023": 0.0,
			"0.024": 0.0,
			"0.025": 0.0
		}
	}
}
