{
	 "smiles": "COC1=C(N)C=C(C=C1)S(=O)(=O)N1CCCCC1", 
	 "Tm": 411.15, 
	 "num_atms": 36, 
	 "gaussian": { 
		 "optdone": 1, 
		 "sigma_profile": "yes", 
		 "theory": "DFT", 
		 "functional": "B3LYP", 
		 "basiset": "6-31G**", 
		 "properties": { 
			 "R2extent": 6626.8997, 
			 "electric_dipole_moment_norm": 6.34987531216, 
			 "electric_quadrupole_moment_norm": 29.1024858337, 
			 "total_energy": -1201.41013954, 
			 "HOMO_LUMO_gap": 0.18856, 
			 "cosmo_polarized_energy": -17.99, 
			 "cosmo_cavitation_energy": 38.33, 
			 "cosmo_dispersion_energy": -28.0, 
			 "cosmo_repulsion_energy": 2.14, 
			 "cosmo_total_nonelectrostatic_energy": 12.47, 
			 "SMD_solvation_energy": 4.93 
		},
		"coords": [
			{
				"x": -1.8258494978,
				"y": -0.8361494541,
				"z": -5.7039272044,
				"element": "C" 
			},
			{
				"x": -2.4591701201,
				"y": -0.1275868593,
				"z": -4.6490774845,
				"element": "O" 
			},
			{
				"x": -1.6977381386,
				"y": 0.2694167938,
				"z": -3.5840801928,
				"element": "C" 
			},
			{
				"x": -2.421300917,
				"y": 0.9819468765,
				"z": -2.5893233591,
				"element": "C" 
			},
			{
				"x": -3.7620288897,
				"y": 1.270124499,
				"z": -2.8089552858,
				"element": "N" 
			},
			{
				"x": -1.7361890842,
				"y": 1.4131639598,
				"z": -1.4543418838,
				"element": "C" 
			},
			{
				"x": -0.3688706712,
				"y": 1.1477093294,
				"z": -1.3172757046,
				"element": "C" 
			},
			{
				"x": 0.3434642412,
				"y": 0.4639061586,
				"z": -2.2949104023,
				"element": "C" 
			},
			{
				"x": -0.3364285201,
				"y": 0.0203140096,
				"z": -3.4362785885,
				"element": "C" 
			},
			{
				"x": 0.478776171,
				"y": 1.7315192041,
				"z": 0.1466749367,
				"element": "S" 
			},
			{
				"x": -0.0560014433,
				"y": 3.0507969354,
				"z": 0.5088400692,
				"element": "O" 
			},
			{
				"x": 1.9217116164,
				"y": 1.5546512281,
				"z": -0.0838859182,
				"element": "O" 
			},
			{
				"x": -0.0739884722,
				"y": 0.6493375278,
				"z": 1.3315579853,
				"element": "N" 
			},
			{
				"x": 0.5698932041,
				"y": -0.6841047531,
				"z": 1.2821151709,
				"element": "C" 
			},
			{
				"x": 0.1342807004,
				"y": -1.5013933519,
				"z": 2.499828101,
				"element": "C" 
			},
			{
				"x": 0.6289542884,
				"y": -0.860626809,
				"z": 3.8166679608,
				"element": "C" 
			},
			{
				"x": 0.6912564887,
				"y": 0.6819167795,
				"z": 3.7050249822,
				"element": "C" 
			},
			{
				"x": -0.3258019237,
				"y": 1.2031382055,
				"z": 2.6858631538,
				"element": "C" 
			},
			{
				"x": -1.3955832084,
				"y": -1.7821041025,
				"z": -5.3515219754,
				"element": "H" 
			},
			{
				"x": -2.6048173329,
				"y": -1.0455038778,
				"z": -6.4383995609,
				"element": "H" 
			},
			{
				"x": -1.0378632188,
				"y": -0.2343396729,
				"z": -6.1730234563,
				"element": "H" 
			},
			{
				"x": -4.21453354,
				"y": 0.6760998303,
				"z": -3.4887521838,
				"element": "H" 
			},
			{
				"x": -4.315288655,
				"y": 1.4401792192,
				"z": -1.9819480504,
				"element": "H" 
			},
			{
				"x": -2.2586537558,
				"y": 1.9738254894,
				"z": -0.6858587576,
				"element": "H" 
			},
			{
				"x": 1.4064782641,
				"y": 0.294092668,
				"z": -2.1744575615,
				"element": "H" 
			},
			{
				"x": 0.2089243982,
				"y": -0.5162749854,
				"z": -4.2034877077,
				"element": "H" 
			},
			{
				"x": 1.6644305971,
				"y": -0.592351549,
				"z": 1.2624530507,
				"element": "H" 
			},
			{
				"x": 0.2655871542,
				"y": -1.1787818594,
				"z": 0.3532573851,
				"element": "H" 
			},
			{
				"x": -0.9594905624,
				"y": -1.5763140711,
				"z": 2.4984678197,
				"element": "H" 
			},
			{
				"x": 0.5167973282,
				"y": -2.5224984205,
				"z": 2.3986098268,
				"element": "H" 
			},
			{
				"x": 1.6214005404,
				"y": -1.2485846522,
				"z": 4.0720806796,
				"element": "H" 
			},
			{
				"x": -0.0384123657,
				"y": -1.1560266202,
				"z": 4.6341994873,
				"element": "H" 
			},
			{
				"x": 0.505460769,
				"y": 1.1494130094,
				"z": 4.678391751,
				"element": "H" 
			},
			{
				"x": 1.6914830535,
				"y": 1.0008031434,
				"z": 3.3903072422,
				"element": "H" 
			},
			{
				"x": -1.3424974888,
				"y": 0.9172665274,
				"z": 2.9870497191,
				"element": "H" 
			},
			{
				"x": -0.3063910093,
				"y": 2.2911196443,
				"z": 2.6174159563,
				"element": "H" 
			}
		],
		 "valence_orbital": [ 
			{
				"type": "occ",
				"energy": -0.28966,
				"method": "rhf"
			},
			{
				"type": "occ",
				"energy": -0.28299,
				"method": "rhf"
			},
			{
				"type": "occ",
				"energy": -0.24884,
				"method": "rhf"
			},
			{
				"type": "occ",
				"energy": -0.22799,
				"method": "rhf"
			},
			{
				"type": "occ",
				"energy": -0.20341,
				"method": "rhf"
			},
			{
				"type": "unocc",
				"energy": -0.01485,
				"method": "rhf"
			},
			{
				"type": "unocc",
				"energy": 0.00401,
				"method": "rhf"
			},
			{
				"type": "unocc",
				"energy": 0.07097,
				"method": "rhf"
			},
			{
				"type": "unocc",
				"energy": 0.07682,
				"method": "rhf"
			},
			{
				"type": "unocc",
				"energy": 0.08175,
				"method": "rhf"
			}
		],
		"cosmo_sigma_profile": { 
			"-0.025": 0.0,
			"-0.024": 0.0,
			"-0.023": 0.0,
			"-0.022": 0.0,
			"-0.021": 0.0,
			"-0.02": 0.0,
			"-0.019": 0.0,
			"-0.018": 0.0,
			"-0.017": 0.0,
			"-0.016": 0.0,
			"-0.015": 0.0,
			"-0.014": 0.0,
			"-0.013": 0.827447015709,
			"-0.012": 1.67802154962,
			"-0.011": 1.91682851706,
			"-0.01": 2.88263563022,
			"-0.009": 2.7872571089,
			"-0.008": 2.89104621304,
			"-0.007": 4.70985883143,
			"-0.006": 11.1292175269,
			"-0.005": 13.6153738589,
			"-0.004": 22.3228220131,
			"-0.003": 36.9056448397,
			"-0.002": 39.7487387301,
			"-0.001": 26.2471627645,
			"0.0": 21.7058745373,
			"0.001": 15.0979057127,
			"0.002": 13.4093228255,
			"0.003": 14.6971524092,
			"0.004": 16.3890155411,
			"0.005": 8.38879098062,
			"0.006": 6.09139427522,
			"0.007": 5.09098783075,
			"0.008": 4.10172154364,
			"0.009": 5.22592509122,
			"0.01": 5.50578098635,
			"0.011": 8.06226753069,
			"0.012": 7.78470967648,
			"0.013": 1.39952121981,
			"0.014": 0.181093018253,
			"0.015": 0.0,
			"0.016": 0.0,
			"0.017": 0.0,
			"0.018": 0.0,
			"0.019": 0.0,
			"0.02": 0.0,
			"0.021": 0.0,
			"0.022": 0.0,
			"0.023": 0.0,
			"0.024": 0.0,
			"0.025": 0.0
		}
	}
}
