{
	 "smiles": "[O-][P+](C1C=C(OC2=C1CCCC2)C1=CC=CC=C1)(C1=CC=CC=C1)C1=CC=CC=C1", 
	 "Tm": 450.15, 
	 "num_atms": 55, 
	 "gaussian": { 
		 "optdone": 1, 
		 "sigma_profile": "yes", 
		 "theory": "DFT", 
		 "functional": "B3LYP", 
		 "basiset": "6-31G**", 
		 "properties": { 
			 "R2extent": 13690.8923, 
			 "electric_dipole_moment_norm": 3.6171024163, 
			 "electric_quadrupole_moment_norm": 18.2274958626, 
			 "total_energy": -1535.75121139, 
			 "HOMO_LUMO_gap": 0.1615, 
			 "cosmo_polarized_energy": -19.66, 
			 "cosmo_cavitation_energy": 57.48, 
			 "cosmo_dispersion_energy": -37.44, 
			 "cosmo_repulsion_energy": 2.8, 
			 "cosmo_total_nonelectrostatic_energy": 22.84, 
			 "SMD_solvation_energy": 9.55 
		},
		"coords": [
			{
				"x": -2.4475811908,
				"y": -0.2873974606,
				"z": -1.3969701398,
				"element": "O" 
			},
			{
				"x": -1.9382721558,
				"y": 0.994268219,
				"z": -0.7966652964,
				"element": "P" 
			},
			{
				"x": -0.0547319192,
				"y": 1.2119040749,
				"z": -0.9445230589,
				"element": "C" 
			},
			{
				"x": 0.633840682,
				"y": 0.4734862622,
				"z": 0.1669729976,
				"element": "C" 
			},
			{
				"x": 1.2689979506,
				"y": -0.6942744648,
				"z": -0.0289253641,
				"element": "C" 
			},
			{
				"x": 1.4415019198,
				"y": -1.2244939277,
				"z": -1.2860963876,
				"element": "O" 
			},
			{
				"x": 1.1165930528,
				"y": -0.438056069,
				"z": -2.3761557127,
				"element": "C" 
			},
			{
				"x": 0.4320661287,
				"y": 0.7123398147,
				"z": -2.2870837878,
				"element": "C" 
			},
			{
				"x": 0.1412906708,
				"y": 1.5387364875,
				"z": -3.5218876256,
				"element": "C" 
			},
			{
				"x": 0.3486439165,
				"y": 0.7629614124,
				"z": -4.8302747315,
				"element": "C" 
			},
			{
				"x": 1.656167385,
				"y": -0.0347744011,
				"z": -4.7982687431,
				"element": "C" 
			},
			{
				"x": 1.6383246736,
				"y": -1.0486068526,
				"z": -3.6467824854,
				"element": "C" 
			},
			{
				"x": 1.9011665424,
				"y": -1.5182003361,
				"z": 1.0208814902,
				"element": "C" 
			},
			{
				"x": 2.9665202453,
				"y": -2.3777995745,
				"z": 0.7060715145,
				"element": "C" 
			},
			{
				"x": 3.5807147735,
				"y": -3.1382399182,
				"z": 1.6998378443,
				"element": "C" 
			},
			{
				"x": 3.1407176696,
				"y": -3.057942902,
				"z": 3.0221706985,
				"element": "C" 
			},
			{
				"x": 2.07134298,
				"y": -2.2178205765,
				"z": 3.3421851269,
				"element": "C" 
			},
			{
				"x": 1.4508761576,
				"y": -1.4609884804,
				"z": 2.3510486369,
				"element": "C" 
			},
			{
				"x": -2.2990810445,
				"y": 1.0898185646,
				"z": 0.9994031831,
				"element": "C" 
			},
			{
				"x": -2.2222046463,
				"y": 2.264781419,
				"z": 1.7613393258,
				"element": "C" 
			},
			{
				"x": -2.4777882256,
				"y": 2.2323819722,
				"z": 3.1328095505,
				"element": "C" 
			},
			{
				"x": -2.8146523807,
				"y": 1.0274962188,
				"z": 3.7543559183,
				"element": "C" 
			},
			{
				"x": -2.9013454467,
				"y": -0.1446707023,
				"z": 3.0005358179,
				"element": "C" 
			},
			{
				"x": -2.6448859135,
				"y": -0.1152701139,
				"z": 1.6285931936,
				"element": "C" 
			},
			{
				"x": -2.7213344781,
				"y": 2.4706948336,
				"z": -1.5554719519,
				"element": "C" 
			},
			{
				"x": -3.8650782506,
				"y": 2.2369969046,
				"z": -2.3342076159,
				"element": "C" 
			},
			{
				"x": -4.5338815914,
				"y": 3.2999568726,
				"z": -2.9419837398,
				"element": "C" 
			},
			{
				"x": -4.0655753721,
				"y": 4.6057366695,
				"z": -2.7827659994,
				"element": "C" 
			},
			{
				"x": -2.9223843504,
				"y": 4.8472578212,
				"z": -2.0178481584,
				"element": "C" 
			},
			{
				"x": -2.2515058572,
				"y": 3.7857904362,
				"z": -1.4087475071,
				"element": "C" 
			},
			{
				"x": 0.1303503792,
				"y": 2.294182753,
				"z": -0.8550166595,
				"element": "H" 
			},
			{
				"x": 0.5936945975,
				"y": 0.8831624318,
				"z": 1.1681872734,
				"element": "H" 
			},
			{
				"x": 0.7803789583,
				"y": 2.4368989066,
				"z": -3.509308588,
				"element": "H" 
			},
			{
				"x": -0.887533947,
				"y": 1.9130360938,
				"z": -3.4823197276,
				"element": "H" 
			},
			{
				"x": 0.3383577196,
				"y": 1.4559755828,
				"z": -5.6791640055,
				"element": "H" 
			},
			{
				"x": -0.4919963927,
				"y": 0.0719396453,
				"z": -4.9722970802,
				"element": "H" 
			},
			{
				"x": 1.8209424568,
				"y": -0.5533478212,
				"z": -5.7491766523,
				"element": "H" 
			},
			{
				"x": 2.4999648915,
				"y": 0.6547081742,
				"z": -4.6627143305,
				"element": "H" 
			},
			{
				"x": 2.6425305535,
				"y": -1.4464762886,
				"z": -3.4576615563,
				"element": "H" 
			},
			{
				"x": 1.0118664751,
				"y": -1.91400141,
				"z": -3.9059668111,
				"element": "H" 
			},
			{
				"x": 3.3084230591,
				"y": -2.4405774685,
				"z": -0.3206295236,
				"element": "H" 
			},
			{
				"x": 4.4064708553,
				"y": -3.7946315985,
				"z": 1.4399045464,
				"element": "H" 
			},
			{
				"x": 3.6189487609,
				"y": -3.65261875,
				"z": 3.7951894702,
				"element": "H" 
			},
			{
				"x": 1.7083582053,
				"y": -2.1638780091,
				"z": 4.3646990368,
				"element": "H" 
			},
			{
				"x": 0.5932360201,
				"y": -0.8447875376,
				"z": 2.6018382987,
				"element": "H" 
			},
			{
				"x": -1.9812649199,
				"y": 3.2128686998,
				"z": 1.2903603583,
				"element": "H" 
			},
			{
				"x": -2.4203973706,
				"y": 3.1480574378,
				"z": 3.7145494335,
				"element": "H" 
			},
			{
				"x": -3.0158245357,
				"y": 1.0050768067,
				"z": 4.8217336162,
				"element": "H" 
			},
			{
				"x": -3.1730961604,
				"y": -1.0814143106,
				"z": 3.4788617364,
				"element": "H" 
			},
			{
				"x": -2.719820564,
				"y": -1.015464018,
				"z": 1.0266100981,
				"element": "H" 
			},
			{
				"x": -4.2087463287,
				"y": 1.2148865815,
				"z": -2.4604075467,
				"element": "H" 
			},
			{
				"x": -5.4189450824,
				"y": 3.1085207689,
				"z": -3.5420465505,
				"element": "H" 
			},
			{
				"x": -4.5856957531,
				"y": 5.4329653824,
				"z": -3.2573501071,
				"element": "H" 
			},
			{
				"x": -2.5497691611,
				"y": 5.8607600392,
				"z": -1.8993888764,
				"element": "H" 
			},
			{
				"x": -1.3555946415,
				"y": 3.9936857048,
				"z": -0.8303328457,
				"element": "H" 
			}
		],
		 "valence_orbital": [ 
			{
				"type": "occ",
				"energy": -0.25442,
				"method": "rhf"
			},
			{
				"type": "occ",
				"energy": -0.25177,
				"method": "rhf"
			},
			{
				"type": "occ",
				"energy": -0.24736,
				"method": "rhf"
			},
			{
				"type": "occ",
				"energy": -0.22504,
				"method": "rhf"
			},
			{
				"type": "occ",
				"energy": -0.19294,
				"method": "rhf"
			},
			{
				"type": "unocc",
				"energy": -0.03144,
				"method": "rhf"
			},
			{
				"type": "unocc",
				"energy": -0.02796,
				"method": "rhf"
			},
			{
				"type": "unocc",
				"energy": -0.01414,
				"method": "rhf"
			},
			{
				"type": "unocc",
				"energy": -0.0105,
				"method": "rhf"
			},
			{
				"type": "unocc",
				"energy": -0.00657,
				"method": "rhf"
			}
		],
		"cosmo_sigma_profile": { 
			"-0.025": 0.0,
			"-0.024": 0.0,
			"-0.023": 0.0,
			"-0.022": 0.0,
			"-0.021": 0.0,
			"-0.02": 0.0,
			"-0.019": 0.0,
			"-0.018": 0.0,
			"-0.017": 0.0,
			"-0.016": 0.0,
			"-0.015": 0.0,
			"-0.014": 0.00846914852031,
			"-0.013": 0.181924289316,
			"-0.012": 0.270908807841,
			"-0.011": 0.49360790787,
			"-0.01": 0.412783761343,
			"-0.009": 1.28802417553,
			"-0.008": 2.05475942754,
			"-0.007": 4.76554293136,
			"-0.006": 20.4666552073,
			"-0.005": 31.010719076,
			"-0.004": 37.8529734625,
			"-0.003": 39.2276527772,
			"-0.002": 42.2942994709,
			"-0.001": 45.3153434604,
			"0.0": 39.6153816172,
			"0.001": 36.1240712524,
			"0.002": 35.0163190918,
			"0.003": 34.3289175766,
			"0.004": 34.9697632971,
			"0.005": 21.2814921219,
			"0.006": 6.04628239349,
			"0.007": 3.17621068806,
			"0.008": 2.90863877465,
			"0.009": 1.86942487876,
			"0.01": 1.35107304246,
			"0.011": 1.31686594062,
			"0.012": 1.22507388268,
			"0.013": 1.95107479466,
			"0.014": 1.6581249842,
			"0.015": 2.97449319308,
			"0.016": 3.99500324692,
			"0.017": 0.271542820781,
			"0.018": 0.0,
			"0.019": 0.0,
			"0.02": 0.0,
			"0.021": 0.0,
			"0.022": 0.0,
			"0.023": 0.0,
			"0.024": 0.0,
			"0.025": 0.0
		}
	}
}
