{
	 "smiles": "CC(C)(C)OC(=O)N1CCN(CC1)C(N)=O", 
	 "Tm": 449.15, 
	 "num_atms": 35, 
	 "gaussian": { 
		 "optdone": 1, 
		 "sigma_profile": "yes", 
		 "theory": "DFT", 
		 "functional": "B3LYP", 
		 "basiset": "6-31G**", 
		 "properties": { 
			 "R2extent": 5245.0357, 
			 "electric_dipole_moment_norm": 4.76929426331, 
			 "electric_quadrupole_moment_norm": 13.4715401618, 
			 "total_energy": -782.501322438, 
			 "HOMO_LUMO_gap": 0.27207, 
			 "cosmo_polarized_energy": -17.33, 
			 "cosmo_cavitation_energy": 35.85, 
			 "cosmo_dispersion_energy": -25.35, 
			 "cosmo_repulsion_energy": 2.0, 
			 "cosmo_total_nonelectrostatic_energy": 12.5, 
			 "SMD_solvation_energy": 6.91 
		},
		"coords": [
			{
				"x": -3.2203947494,
				"y": 0.0209268709,
				"z": -2.3500230073,
				"element": "C" 
			},
			{
				"x": -2.8232935773,
				"y": -1.2071304387,
				"z": -1.5238353985,
				"element": "C" 
			},
			{
				"x": -2.4288604462,
				"y": -2.370508419,
				"z": -2.4380151594,
				"element": "C" 
			},
			{
				"x": -3.9258081639,
				"y": -1.6337912736,
				"z": -0.5487776996,
				"element": "C" 
			},
			{
				"x": -1.5750930942,
				"y": -0.9422061327,
				"z": -0.7904341079,
				"element": "O" 
			},
			{
				"x": -1.5110312195,
				"y": 0.0448770258,
				"z": 0.1375057373,
				"element": "C" 
			},
			{
				"x": -2.4355285248,
				"y": 0.7802455316,
				"z": 0.4543489282,
				"element": "O" 
			},
			{
				"x": -0.2530335139,
				"y": 0.1309002103,
				"z": 0.6817096918,
				"element": "N" 
			},
			{
				"x": 0.8473054614,
				"y": -0.7823721073,
				"z": 0.3984990535,
				"element": "C" 
			},
			{
				"x": 2.1396073668,
				"y": 0.007562254,
				"z": 0.1287164879,
				"element": "C" 
			},
			{
				"x": 2.3969627629,
				"y": 0.9686859572,
				"z": 1.1963508613,
				"element": "N" 
			},
			{
				"x": 1.2793182875,
				"y": 1.865167441,
				"z": 1.4894257771,
				"element": "C" 
			},
			{
				"x": -0.0031835553,
				"y": 1.077355106,
				"z": 1.7675548135,
				"element": "C" 
			},
			{
				"x": 3.4630249206,
				"y": 0.9245526731,
				"z": 2.0753421787,
				"element": "C" 
			},
			{
				"x": 4.5178317381,
				"y": 0.0840380199,
				"z": 1.7066529952,
				"element": "N" 
			},
			{
				"x": 3.4886009819,
				"y": 1.5571193771,
				"z": 3.1256934093,
				"element": "O" 
			},
			{
				"x": -4.0813406057,
				"y": -0.2238605655,
				"z": -2.980655959,
				"element": "H" 
			},
			{
				"x": -3.4823901869,
				"y": 0.8580047337,
				"z": -1.7029887918,
				"element": "H" 
			},
			{
				"x": -2.3956527324,
				"y": 0.3212682236,
				"z": -3.0044094866,
				"element": "H" 
			},
			{
				"x": -1.6131305887,
				"y": -2.0785282282,
				"z": -3.1061756131,
				"element": "H" 
			},
			{
				"x": -2.1017170483,
				"y": -3.2320276069,
				"z": -1.8484140327,
				"element": "H" 
			},
			{
				"x": -3.2837793147,
				"y": -2.6744373036,
				"z": -3.0492178765,
				"element": "H" 
			},
			{
				"x": -4.8142389614,
				"y": -1.9400889404,
				"z": -1.1106562467,
				"element": "H" 
			},
			{
				"x": -3.5927999131,
				"y": -2.4870974649,
				"z": 0.0507191305,
				"element": "H" 
			},
			{
				"x": -4.1941302402,
				"y": -0.8150305728,
				"z": 0.1187496811,
				"element": "H" 
			},
			{
				"x": 0.5935426768,
				"y": -1.3963178008,
				"z": -0.4637642092,
				"element": "H" 
			},
			{
				"x": 1.0111849304,
				"y": -1.4444403066,
				"z": 1.262431019,
				"element": "H" 
			},
			{
				"x": 2.0432863578,
				"y": 0.5386737749,
				"z": -0.8293015292,
				"element": "H" 
			},
			{
				"x": 2.967287,
				"y": -0.6979407257,
				"z": 0.0515305311,
				"element": "H" 
			},
			{
				"x": 1.1182928019,
				"y": 2.525458648,
				"z": 0.6258123027,
				"element": "H" 
			},
			{
				"x": 1.5578148951,
				"y": 2.4672366549,
				"z": 2.3541204826,
				"element": "H" 
			},
			{
				"x": 0.10344555,
				"y": 0.5313971676,
				"z": 2.7164428196,
				"element": "H" 
			},
			{
				"x": -0.8652875212,
				"y": 1.74011068,
				"z": 1.8417131167,
				"element": "H" 
			},
			{
				"x": 4.7799431033,
				"y": 0.0741496462,
				"z": 0.7299491076,
				"element": "H" 
			},
			{
				"x": 5.3066451225,
				"y": 0.2285478911,
				"z": 2.3227009928,
				"element": "H" 
			}
		],
		 "valence_orbital": [ 
			{
				"type": "occ",
				"energy": -0.27749,
				"method": "rhf"
			},
			{
				"type": "occ",
				"energy": -0.26102,
				"method": "rhf"
			},
			{
				"type": "occ",
				"energy": -0.25584,
				"method": "rhf"
			},
			{
				"type": "occ",
				"energy": -0.2495,
				"method": "rhf"
			},
			{
				"type": "occ",
				"energy": -0.22505,
				"method": "rhf"
			},
			{
				"type": "unocc",
				"energy": 0.04702,
				"method": "rhf"
			},
			{
				"type": "unocc",
				"energy": 0.05492,
				"method": "rhf"
			},
			{
				"type": "unocc",
				"energy": 0.07465,
				"method": "rhf"
			},
			{
				"type": "unocc",
				"energy": 0.08549,
				"method": "rhf"
			},
			{
				"type": "unocc",
				"energy": 0.10082,
				"method": "rhf"
			}
		],
		"cosmo_sigma_profile": { 
			"-0.025": 0.0,
			"-0.024": 0.0,
			"-0.023": 0.0,
			"-0.022": 0.0,
			"-0.021": 0.0,
			"-0.02": 0.0,
			"-0.019": 0.0,
			"-0.018": 0.0,
			"-0.017": 0.0,
			"-0.016": 0.0,
			"-0.015": 0.0,
			"-0.014": 0.312935647101,
			"-0.013": 1.53860349847,
			"-0.012": 2.6944182869,
			"-0.011": 2.3802857644,
			"-0.01": 2.9943296645,
			"-0.009": 2.52197778041,
			"-0.008": 2.07287534192,
			"-0.007": 2.33399201522,
			"-0.006": 3.09618320609,
			"-0.005": 9.89791068673,
			"-0.004": 34.8413609065,
			"-0.003": 33.8001012352,
			"-0.002": 25.4067886764,
			"-0.001": 25.9412184289,
			"0.0": 30.5734246861,
			"0.001": 25.8917500984,
			"0.002": 11.7446219684,
			"0.003": 8.83510597377,
			"0.004": 6.57299890347,
			"0.005": 5.6196985585,
			"0.006": 4.42528870456,
			"0.007": 4.31054619406,
			"0.008": 3.52497550191,
			"0.009": 2.79711040123,
			"0.01": 2.96502560521,
			"0.011": 3.43073926873,
			"0.012": 4.18539689111,
			"0.013": 4.73022272269,
			"0.014": 6.39309235208,
			"0.015": 2.97869349211,
			"0.016": 0.0328022329856,
			"0.017": 0.0,
			"0.018": 0.0,
			"0.019": 0.0,
			"0.02": 0.0,
			"0.021": 0.0,
			"0.022": 0.0,
			"0.023": 0.0,
			"0.024": 0.0,
			"0.025": 0.0
		}
	}
}
