{
	 "smiles": "FC(F)(F)C1=CC=C(C=C1)P(C1=CC=C(C=C1)C(F)(F)F)C1=CC=C(C=C1)C(F)(F)F", 
	 "Tm": 346.65, 
	 "num_atms": 43, 
	 "gaussian": { 
		 "optdone": 1, 
		 "sigma_profile": "yes", 
		 "theory": "DFT", 
		 "functional": "B3LYP", 
		 "basiset": "6-31G**", 
		 "properties": { 
			 "R2extent": 19545.6747, 
			 "electric_dipole_moment_norm": 1.46591117398, 
			 "electric_quadrupole_moment_norm": 14.1640090532, 
			 "total_energy": -2047.4026243, 
			 "HOMO_LUMO_gap": 0.18497, 
			 "cosmo_polarized_energy": -8.95, 
			 "cosmo_cavitation_energy": 54.3, 
			 "cosmo_dispersion_energy": -35.79, 
			 "cosmo_repulsion_energy": 2.59, 
			 "cosmo_total_nonelectrostatic_energy": 21.1, 
			 "SMD_solvation_energy": 12.59 
		},
		"coords": [
			{
				"x": -1.2312804975,
				"y": 0.473685857,
				"z": -5.4663849372,
				"element": "F" 
			},
			{
				"x": 0.0436046772,
				"y": 0.6685391015,
				"z": -5.0649123545,
				"element": "C" 
			},
			{
				"x": 0.8486377223,
				"y": 0.004197243,
				"z": -5.9225463063,
				"element": "F" 
			},
			{
				"x": 0.3078272299,
				"y": 1.9870277504,
				"z": -5.2191268562,
				"element": "F" 
			},
			{
				"x": 0.2571387988,
				"y": 0.2275206483,
				"z": -3.6412915161,
				"element": "C" 
			},
			{
				"x": 1.5220310401,
				"y": -0.1970170294,
				"z": -3.2253023071,
				"element": "C" 
			},
			{
				"x": 1.7264038732,
				"y": -0.5629803887,
				"z": -1.8974402145,
				"element": "C" 
			},
			{
				"x": 0.6819894883,
				"y": -0.4933637203,
				"z": -0.9594953874,
				"element": "C" 
			},
			{
				"x": -0.5829223862,
				"y": -0.0694510138,
				"z": -1.3941880172,
				"element": "C" 
			},
			{
				"x": -0.7955451522,
				"y": 0.2870561894,
				"z": -2.7256326781,
				"element": "C" 
			},
			{
				"x": 1.0768852611,
				"y": -1.0269397901,
				"z": 0.7710586164,
				"element": "P" 
			},
			{
				"x": -0.6060666444,
				"y": -1.2398005627,
				"z": 1.5177514392,
				"element": "C" 
			},
			{
				"x": -1.2982514036,
				"y": -0.2422120949,
				"z": 2.2209690721,
				"element": "C" 
			},
			{
				"x": -2.5520831271,
				"y": -0.5009342545,
				"z": 2.7740664456,
				"element": "C" 
			},
			{
				"x": -3.134044022,
				"y": -1.7617529978,
				"z": 2.6261538395,
				"element": "C" 
			},
			{
				"x": -2.4570927147,
				"y": -2.7665781951,
				"z": 1.9295310905,
				"element": "C" 
			},
			{
				"x": -1.2002681908,
				"y": -2.5069380811,
				"z": 1.3892621046,
				"element": "C" 
			},
			{
				"x": -4.4623098036,
				"y": -2.0586828217,
				"z": 3.2698350347,
				"element": "C" 
			},
			{
				"x": -5.1595085514,
				"y": -2.9850252648,
				"z": 2.5759668469,
				"element": "F" 
			},
			{
				"x": -5.2332002425,
				"y": -0.953163418,
				"z": 3.3638162522,
				"element": "F" 
			},
			{
				"x": -4.3093613259,
				"y": -2.5402627996,
				"z": 4.5248790113,
				"element": "F" 
			},
			{
				"x": 1.6617670851,
				"y": 0.5493715307,
				"z": 1.5511136711,
				"element": "C" 
			},
			{
				"x": 2.3444692251,
				"y": 0.4351134823,
				"z": 2.7743599,
				"element": "C" 
			},
			{
				"x": 2.8346580593,
				"y": 1.5621398249,
				"z": 3.4288341162,
				"element": "C" 
			},
			{
				"x": 2.6658682819,
				"y": 2.8256786671,
				"z": 2.8558758798,
				"element": "C" 
			},
			{
				"x": 2.0042759394,
				"y": 2.9550626676,
				"z": 1.6329264247,
				"element": "C" 
			},
			{
				"x": 1.5046625404,
				"y": 1.8244221731,
				"z": 0.9870329531,
				"element": "C" 
			},
			{
				"x": 3.1528513181,
				"y": 4.0510251648,
				"z": 3.5825897913,
				"element": "C" 
			},
			{
				"x": 3.4721941809,
				"y": 5.0484730464,
				"z": 2.7295963352,
				"element": "F" 
			},
			{
				"x": 2.2077717617,
				"y": 4.5372261316,
				"z": 4.4207264064,
				"element": "F" 
			},
			{
				"x": 4.2452688656,
				"y": 3.7889527584,
				"z": 4.3328679779,
				"element": "F" 
			},
			{
				"x": 2.3343974461,
				"y": -0.2584222624,
				"z": -3.9415109759,
				"element": "H" 
			},
			{
				"x": 2.7065415054,
				"y": -0.9149127658,
				"z": -1.5869142169,
				"element": "H" 
			},
			{
				"x": -1.4099459499,
				"y": -0.020959541,
				"z": -0.6936591681,
				"element": "H" 
			},
			{
				"x": -1.7791831446,
				"y": 0.6050916998,
				"z": -3.0545807066,
				"element": "H" 
			},
			{
				"x": -0.8593734825,
				"y": 0.7429075419,
				"z": 2.3394124379,
				"element": "H" 
			},
			{
				"x": -3.0826208317,
				"y": 0.2783731139,
				"z": 3.3108426676,
				"element": "H" 
			},
			{
				"x": -2.9114009839,
				"y": -3.7448216122,
				"z": 1.8140542968,
				"element": "H" 
			},
			{
				"x": -0.6727135269,
				"y": -3.2984635096,
				"z": 0.8637125217,
				"element": "H" 
			},
			{
				"x": 2.5008568878,
				"y": -0.5461653225,
				"z": 3.2143591457,
				"element": "H" 
			},
			{
				"x": 3.3632617177,
				"y": 1.4618032293,
				"z": 4.3707243014,
				"element": "H" 
			},
			{
				"x": 1.8859710227,
				"y": 3.9358772312,
				"z": 1.1846927237,
				"element": "H" 
			},
			{
				"x": 0.9947380535,
				"y": 1.9388023935,
				"z": 0.0362743386,
				"element": "H" 
			}
		],
		 "valence_orbital": [ 
			{
				"type": "occ",
				"energy": -0.28406,
				"method": "rhf"
			},
			{
				"type": "occ",
				"energy": -0.28093,
				"method": "rhf"
			},
			{
				"type": "occ",
				"energy": -0.27562,
				"method": "rhf"
			},
			{
				"type": "occ",
				"energy": -0.27554,
				"method": "rhf"
			},
			{
				"type": "occ",
				"energy": -0.23962,
				"method": "rhf"
			},
			{
				"type": "unocc",
				"energy": -0.05465,
				"method": "rhf"
			},
			{
				"type": "unocc",
				"energy": -0.05456,
				"method": "rhf"
			},
			{
				"type": "unocc",
				"energy": -0.03848,
				"method": "rhf"
			},
			{
				"type": "unocc",
				"energy": -0.0347,
				"method": "rhf"
			},
			{
				"type": "unocc",
				"energy": -0.02395,
				"method": "rhf"
			}
		],
		"cosmo_sigma_profile": { 
			"-0.025": 0.0,
			"-0.024": 0.0,
			"-0.023": 0.0,
			"-0.022": 0.0,
			"-0.021": 0.0,
			"-0.02": 0.0,
			"-0.019": 0.0,
			"-0.018": 0.0,
			"-0.017": 0.0,
			"-0.016": 0.0,
			"-0.015": 0.0,
			"-0.014": 0.0,
			"-0.013": 0.0,
			"-0.012": 0.0,
			"-0.011": 0.0,
			"-0.01": 0.0,
			"-0.009": 0.0,
			"-0.008": 0.984389592189,
			"-0.007": 11.5561943441,
			"-0.006": 21.4391593335,
			"-0.005": 24.5383745711,
			"-0.004": 20.6860277007,
			"-0.003": 24.7569924758,
			"-0.002": 26.9875441214,
			"-0.001": 28.7059389151,
			"0.0": 37.663323681,
			"0.001": 48.9605903645,
			"0.002": 81.5989580613,
			"0.003": 98.2348318624,
			"0.004": 6.59870977826,
			"0.005": 0.739057477157,
			"0.006": 1.19391324085,
			"0.007": 0.606307645564,
			"0.008": 0.323461540091,
			"0.009": 0.746859191108,
			"0.01": 0.773812814376,
			"0.011": 0.585346117831,
			"0.012": 0.325001572252,
			"0.013": 0.0087607723429,
			"0.014": 0.0,
			"0.015": 0.0,
			"0.016": 0.0,
			"0.017": 0.0,
			"0.018": 0.0,
			"0.019": 0.0,
			"0.02": 0.0,
			"0.021": 0.0,
			"0.022": 0.0,
			"0.023": 0.0,
			"0.024": 0.0,
			"0.025": 0.0
		}
	}
}
