{
	 "smiles": "COC1=C(NC(=O)C2=C(O)C=C3C=CC=CC3=C2)C=C(C)C=C1", 
	 "Tm": 452.15, 
	 "num_atms": 40, 
	 "gaussian": { 
		 "optdone": 1, 
		 "sigma_profile": "yes", 
		 "theory": "DFT", 
		 "functional": "B3LYP", 
		 "basiset": "6-31G**", 
		 "properties": { 
			 "R2extent": 10757.2383, 
			 "electric_dipole_moment_norm": 3.24626204272, 
			 "electric_quadrupole_moment_norm": 17.3071655972, 
			 "total_energy": -1014.71658558, 
			 "HOMO_LUMO_gap": 0.15593, 
			 "cosmo_polarized_energy": -14.08, 
			 "cosmo_cavitation_energy": 43.66, 
			 "cosmo_dispersion_energy": -31.38, 
			 "cosmo_repulsion_energy": 2.34, 
			 "cosmo_total_nonelectrostatic_energy": 14.61, 
			 "SMD_solvation_energy": 8.58 
		},
		"coords": [
			{
				"x": 2.9829648069,
				"y": 3.7190750983,
				"z": 1.675994705,
				"element": "C" 
			},
			{
				"x": 2.0511585643,
				"y": 2.7481883751,
				"z": 1.2238661504,
				"element": "O" 
			},
			{
				"x": 1.4111725444,
				"y": 2.9640774998,
				"z": 0.027763509,
				"element": "C" 
			},
			{
				"x": 0.5266804192,
				"y": 1.9303579573,
				"z": -0.3661378678,
				"element": "C" 
			},
			{
				"x": 0.4235545281,
				"y": 0.8425213116,
				"z": 0.5296256669,
				"element": "N" 
			},
			{
				"x": -0.2502077963,
				"y": -0.3534234378,
				"z": 0.3416914675,
				"element": "C" 
			},
			{
				"x": -0.9054201618,
				"y": -0.607989917,
				"z": -0.6621018393,
				"element": "O" 
			},
			{
				"x": -0.110879252,
				"y": -1.3456913742,
				"z": 1.4633168886,
				"element": "C" 
			},
			{
				"x": 0.0660371621,
				"y": -1.0057517945,
				"z": 2.8436373838,
				"element": "C" 
			},
			{
				"x": 0.1015617484,
				"y": 0.2894007576,
				"z": 3.2917352254,
				"element": "O" 
			},
			{
				"x": 0.209889636,
				"y": -1.9976735825,
				"z": 3.7911051056,
				"element": "C" 
			},
			{
				"x": 0.1781316802,
				"y": -3.3666777381,
				"z": 3.4330599084,
				"element": "C" 
			},
			{
				"x": 0.331898033,
				"y": -4.4086459132,
				"z": 4.3887578636,
				"element": "C" 
			},
			{
				"x": 0.2764431159,
				"y": -5.7288533068,
				"z": 4.0032390436,
				"element": "C" 
			},
			{
				"x": 0.0638797978,
				"y": -6.0783851276,
				"z": 2.6450266356,
				"element": "C" 
			},
			{
				"x": -0.0891578311,
				"y": -5.0943121283,
				"z": 1.6961039441,
				"element": "C" 
			},
			{
				"x": -0.0365603625,
				"y": -3.7205387193,
				"z": 2.06007191,
				"element": "C" 
			},
			{
				"x": -0.186460984,
				"y": -2.6827717942,
				"z": 1.1128359654,
				"element": "C" 
			},
			{
				"x": -0.1809344156,
				"y": 2.0523136355,
				"z": -1.5616949076,
				"element": "C" 
			},
			{
				"x": -0.024197104,
				"y": 3.1842600288,
				"z": -2.3790272414,
				"element": "C" 
			},
			{
				"x": -0.8016226952,
				"y": 3.2902464875,
				"z": -3.6706688815,
				"element": "C" 
			},
			{
				"x": 0.85464082,
				"y": 4.1882435779,
				"z": -1.9760138353,
				"element": "C" 
			},
			{
				"x": 1.5735124109,
				"y": 4.0839358844,
				"z": -0.778578017,
				"element": "C" 
			},
			{
				"x": 3.8089863589,
				"y": 3.8421753876,
				"z": 0.9646112519,
				"element": "H" 
			},
			{
				"x": 2.5002004031,
				"y": 4.6904862495,
				"z": 1.8396557626,
				"element": "H" 
			},
			{
				"x": 3.3729679659,
				"y": 3.3456166524,
				"z": 2.6237516199,
				"element": "H" 
			},
			{
				"x": 1.1186594883,
				"y": 0.8714064642,
				"z": 1.2668320648,
				"element": "H" 
			},
			{
				"x": -0.2788320172,
				"y": 0.8778838482,
				"z": 2.6233513942,
				"element": "H" 
			},
			{
				"x": 0.3310321428,
				"y": -1.706369104,
				"z": 4.8298254765,
				"element": "H" 
			},
			{
				"x": 0.4932895025,
				"y": -4.1449580697,
				"z": 5.4306136484,
				"element": "H" 
			},
			{
				"x": 0.3959487959,
				"y": -6.5141398868,
				"z": 4.7443885539,
				"element": "H" 
			},
			{
				"x": 0.0224921436,
				"y": -7.1252261603,
				"z": 2.3594479255,
				"element": "H" 
			},
			{
				"x": -0.2528500619,
				"y": -5.3516212884,
				"z": 0.6528680603,
				"element": "H" 
			},
			{
				"x": -0.3587154892,
				"y": -2.9235421956,
				"z": 0.0682465071,
				"element": "H" 
			},
			{
				"x": -0.8468132468,
				"y": 1.2506109703,
				"z": -1.8501890229,
				"element": "H" 
			},
			{
				"x": -0.5751676776,
				"y": 4.2222397314,
				"z": -4.1961766832,
				"element": "H" 
			},
			{
				"x": -1.8824383376,
				"y": 3.2617665293,
				"z": -3.4905753318,
				"element": "H" 
			},
			{
				"x": -0.5684602175,
				"y": 2.4596105987,
				"z": -4.3466971752,
				"element": "H" 
			},
			{
				"x": 0.9899472083,
				"y": 5.0696057135,
				"z": -2.5968618272,
				"element": "H" 
			},
			{
				"x": 2.2496683737,
				"y": 4.8790487793,
				"z": -0.4872010079,
				"element": "H" 
			}
		],
		 "valence_orbital": [ 
			{
				"type": "occ",
				"energy": -0.25892,
				"method": "rhf"
			},
			{
				"type": "occ",
				"energy": -0.23935,
				"method": "rhf"
			},
			{
				"type": "occ",
				"energy": -0.23263,
				"method": "rhf"
			},
			{
				"type": "occ",
				"energy": -0.20906,
				"method": "rhf"
			},
			{
				"type": "occ",
				"energy": -0.20813,
				"method": "rhf"
			},
			{
				"type": "unocc",
				"energy": -0.0522,
				"method": "rhf"
			},
			{
				"type": "unocc",
				"energy": -0.01969,
				"method": "rhf"
			},
			{
				"type": "unocc",
				"energy": 0.00224,
				"method": "rhf"
			},
			{
				"type": "unocc",
				"energy": 0.01131,
				"method": "rhf"
			},
			{
				"type": "unocc",
				"energy": 0.03062,
				"method": "rhf"
			}
		],
		"cosmo_sigma_profile": { 
			"-0.025": 0.0,
			"-0.024": 0.0,
			"-0.023": 0.0,
			"-0.022": 0.0,
			"-0.021": 0.0,
			"-0.02": 0.0,
			"-0.019": 0.0,
			"-0.018": 0.0,
			"-0.017": 0.0,
			"-0.016": 0.0,
			"-0.015": 0.304588824448,
			"-0.014": 0.921071671712,
			"-0.013": 0.734543553053,
			"-0.012": 0.693523962321,
			"-0.011": 1.19871581699,
			"-0.01": 1.44295046811,
			"-0.009": 1.73039898545,
			"-0.008": 1.52099404526,
			"-0.007": 4.21848252619,
			"-0.006": 19.4433330235,
			"-0.005": 25.8629412152,
			"-0.004": 29.8174143706,
			"-0.003": 28.400398039,
			"-0.002": 25.3462615041,
			"-0.001": 24.411082094,
			"0.0": 23.9075185672,
			"0.001": 21.7851882396,
			"0.002": 25.9968777671,
			"0.003": 33.9450414453,
			"0.004": 28.306453252,
			"0.005": 19.6019782605,
			"0.006": 8.90821416076,
			"0.007": 3.05388651858,
			"0.008": 2.42754307766,
			"0.009": 3.07104465528,
			"0.01": 4.03894299665,
			"0.011": 3.26866150677,
			"0.012": 2.5418688018,
			"0.013": 1.95981871112,
			"0.014": 0.06473204397,
			"0.015": 0.0,
			"0.016": 0.0,
			"0.017": 0.0,
			"0.018": 0.0,
			"0.019": 0.0,
			"0.02": 0.0,
			"0.021": 0.0,
			"0.022": 0.0,
			"0.023": 0.0,
			"0.024": 0.0,
			"0.025": 0.0
		}
	}
}
