{
	 "smiles": "CC(OC1=CC=C(OC(F)(F)F)C=C1)C(O)=O", 
	 "Tm": 350.15, 
	 "num_atms": 26, 
	 "gaussian": { 
		 "optdone": 1, 
		 "sigma_profile": "yes", 
		 "theory": "DFT", 
		 "functional": "B3LYP", 
		 "basiset": "6-31G**", 
		 "properties": { 
			 "R2extent": 7111.362, 
			 "electric_dipole_moment_norm": 1.98863542159, 
			 "electric_quadrupole_moment_norm": 17.6677143341, 
			 "total_energy": -986.908051423, 
			 "HOMO_LUMO_gap": 0.21206, 
			 "cosmo_polarized_energy": -12.4, 
			 "cosmo_cavitation_energy": 32.82, 
			 "cosmo_dispersion_energy": -22.92, 
			 "cosmo_repulsion_energy": 1.74, 
			 "cosmo_total_nonelectrostatic_energy": 11.64, 
			 "SMD_solvation_energy": 8.72 
		},
		"coords": [
			{
				"x": 2.7305245142,
				"y": 0.621391621,
				"z": 0.6037089338,
				"element": "C" 
			},
			{
				"x": 1.8643651242,
				"y": -0.5855915807,
				"z": 0.2534372243,
				"element": "C" 
			},
			{
				"x": 0.9898028912,
				"y": -0.317654809,
				"z": -0.8379021036,
				"element": "O" 
			},
			{
				"x": -0.2328575889,
				"y": 0.2521177958,
				"z": -0.6180024341,
				"element": "C" 
			},
			{
				"x": -1.0412041944,
				"y": 0.3783665078,
				"z": -1.7585968504,
				"element": "C" 
			},
			{
				"x": -2.3089055304,
				"y": 0.9376226358,
				"z": -1.6626858156,
				"element": "C" 
			},
			{
				"x": -2.7715920458,
				"y": 1.3713821514,
				"z": -0.4207982718,
				"element": "C" 
			},
			{
				"x": -4.0820459922,
				"y": 1.8702815904,
				"z": -0.3074311598,
				"element": "O" 
			},
			{
				"x": -4.243755252,
				"y": 3.2065526877,
				"z": -0.4674247105,
				"element": "C" 
			},
			{
				"x": -3.5566048311,
				"y": 3.9208554626,
				"z": 0.4469124117,
				"element": "F" 
			},
			{
				"x": -5.5415991365,
				"y": 3.4781391386,
				"z": -0.3295920086,
				"element": "F" 
			},
			{
				"x": -3.8426444101,
				"y": 3.6319594061,
				"z": -1.6822532241,
				"element": "F" 
			},
			{
				"x": -1.9846872712,
				"y": 1.2552752344,
				"z": 0.7166362944,
				"element": "C" 
			},
			{
				"x": -0.7071695693,
				"y": 0.6966302972,
				"z": 0.6225440778,
				"element": "C" 
			},
			{
				"x": 2.7270251261,
				"y": -1.7959447697,
				"z": -0.1154201667,
				"element": "C" 
			},
			{
				"x": 2.0838306138,
				"y": -2.6797265612,
				"z": -0.8995592784,
				"element": "O" 
			},
			{
				"x": 3.8498636494,
				"y": -1.9682330368,
				"z": 0.3042139572,
				"element": "O" 
			},
			{
				"x": 3.4288993915,
				"y": 0.3623076103,
				"z": 1.4015161356,
				"element": "H" 
			},
			{
				"x": 3.3062973767,
				"y": 0.9334129494,
				"z": -0.2713748779,
				"element": "H" 
			},
			{
				"x": 2.1078161415,
				"y": 1.4588069174,
				"z": 0.9264894379,
				"element": "H" 
			},
			{
				"x": 1.2795461443,
				"y": -0.9076573512,
				"z": 1.1281403022,
				"element": "H" 
			},
			{
				"x": -0.6545174715,
				"y": 0.0236274987,
				"z": -2.7076684427,
				"element": "H" 
			},
			{
				"x": -2.9441114697,
				"y": 1.034548747,
				"z": -2.5360200998,
				"element": "H" 
			},
			{
				"x": -2.3670046173,
				"y": 1.6012816987,
				"z": 1.6704435856,
				"element": "H" 
			},
			{
				"x": -0.1014371139,
				"y": 0.6257787562,
				"z": 1.5177501684,
				"element": "H" 
			},
			{
				"x": 2.7040655214,
				"y": -3.416430598,
				"z": -1.035063085,
				"element": "H" 
			}
		],
		 "valence_orbital": [ 
			{
				"type": "occ",
				"energy": -0.33082,
				"method": "rhf"
			},
			{
				"type": "occ",
				"energy": -0.32804,
				"method": "rhf"
			},
			{
				"type": "occ",
				"energy": -0.2883,
				"method": "rhf"
			},
			{
				"type": "occ",
				"energy": -0.26941,
				"method": "rhf"
			},
			{
				"type": "occ",
				"energy": -0.23315,
				"method": "rhf"
			},
			{
				"type": "unocc",
				"energy": -0.02109,
				"method": "rhf"
			},
			{
				"type": "unocc",
				"energy": -0.008,
				"method": "rhf"
			},
			{
				"type": "unocc",
				"energy": -0.00369,
				"method": "rhf"
			},
			{
				"type": "unocc",
				"energy": 0.0673,
				"method": "rhf"
			},
			{
				"type": "unocc",
				"energy": 0.07324,
				"method": "rhf"
			}
		],
		"cosmo_sigma_profile": { 
			"-0.025": 0.0,
			"-0.024": 0.0,
			"-0.023": 0.0,
			"-0.022": 0.0,
			"-0.021": 0.0,
			"-0.02": 0.0,
			"-0.019": 0.298210033379,
			"-0.018": 1.24278468556,
			"-0.017": 0.476195652137,
			"-0.016": 0.778890686038,
			"-0.015": 0.654568288873,
			"-0.014": 0.885898928239,
			"-0.013": 0.664097959271,
			"-0.012": 0.962269858362,
			"-0.011": 1.06495687816,
			"-0.01": 0.804390015324,
			"-0.009": 3.47231436821,
			"-0.008": 5.25221538979,
			"-0.007": 8.69599479521,
			"-0.006": 9.90236249123,
			"-0.005": 12.6416014824,
			"-0.004": 13.9419334514,
			"-0.003": 12.850209679,
			"-0.002": 14.3474648518,
			"-0.001": 17.812071309,
			"0.0": 18.469192034,
			"0.001": 22.8420658074,
			"0.002": 45.8720785498,
			"0.003": 24.879544549,
			"0.004": 8.52749924281,
			"0.005": 5.15847540894,
			"0.006": 4.25100863103,
			"0.007": 5.25004270056,
			"0.008": 3.77000661479,
			"0.009": 4.08213191714,
			"0.01": 3.50927787446,
			"0.011": 6.19426039887,
			"0.012": 2.08322429276,
			"0.013": 0.0,
			"0.014": 0.0,
			"0.015": 0.0,
			"0.016": 0.0,
			"0.017": 0.0,
			"0.018": 0.0,
			"0.019": 0.0,
			"0.02": 0.0,
			"0.021": 0.0,
			"0.022": 0.0,
			"0.023": 0.0,
			"0.024": 0.0,
			"0.025": 0.0
		}
	}
}
