{
	 "smiles": "CC1=NC(C)=C(S1)C1=CSC(N)=N1", 
	 "Tm": 399.15, 
	 "num_atms": 22, 
	 "gaussian": { 
		 "optdone": 1, 
		 "sigma_profile": "yes", 
		 "theory": "DFT", 
		 "functional": "B3LYP", 
		 "basiset": "6-31G**", 
		 "properties": { 
			 "R2extent": 3811.1912, 
			 "electric_dipole_moment_norm": 2.34567315285, 
			 "electric_quadrupole_moment_norm": 19.5405400539, 
			 "total_energy": -1270.90817724, 
			 "HOMO_LUMO_gap": 0.16164, 
			 "cosmo_polarized_energy": -12.27, 
			 "cosmo_cavitation_energy": 29.17, 
			 "cosmo_dispersion_energy": -22.63, 
			 "cosmo_repulsion_energy": 1.72, 
			 "cosmo_total_nonelectrostatic_energy": 8.26, 
			 "SMD_solvation_energy": 2.35 
		},
		"coords": [
			{
				"x": -2.8342253875,
				"y": -2.9032249304,
				"z": -0.0182395221,
				"element": "C" 
			},
			{
				"x": -1.793776029,
				"y": -1.9011639477,
				"z": 0.3785158532,
				"element": "C" 
			},
			{
				"x": -1.1961694361,
				"y": -1.8820456366,
				"z": 1.5315995029,
				"element": "N" 
			},
			{
				"x": -0.2811559074,
				"y": -0.8497817255,
				"z": 1.6420104734,
				"element": "C" 
			},
			{
				"x": 0.4528835395,
				"y": -0.7256194751,
				"z": 2.9453609672,
				"element": "C" 
			},
			{
				"x": -0.1724860056,
				"y": -0.041929085,
				"z": 0.527499586,
				"element": "C" 
			},
			{
				"x": -1.2708041546,
				"y": -0.6262939502,
				"z": -0.7137159133,
				"element": "S" 
			},
			{
				"x": 0.6554662949,
				"y": 1.1362176282,
				"z": 0.2708794673,
				"element": "C" 
			},
			{
				"x": 0.4639057528,
				"y": 2.0217782646,
				"z": -0.7583486192,
				"element": "C" 
			},
			{
				"x": 1.6713979986,
				"y": 3.2796329776,
				"z": -0.7185887442,
				"element": "S" 
			},
			{
				"x": 2.3603877914,
				"y": 2.4918183411,
				"z": 0.7075062039,
				"element": "C" 
			},
			{
				"x": 3.4300288509,
				"y": 3.0430088695,
				"z": 1.3750157942,
				"element": "N" 
			},
			{
				"x": 1.7417300278,
				"y": 1.4160248039,
				"z": 1.0918649568,
				"element": "N" 
			},
			{
				"x": -2.975843381,
				"y": -3.5989940543,
				"z": 0.8108060514,
				"element": "H" 
			},
			{
				"x": -2.532064542,
				"y": -3.4684814648,
				"z": -0.9065301857,
				"element": "H" 
			},
			{
				"x": -3.7923370742,
				"y": -2.4216608387,
				"z": -0.2421931591,
				"element": "H" 
			},
			{
				"x": -0.2619917883,
				"y": -0.5695048671,
				"z": 3.7614155354,
				"element": "H" 
			},
			{
				"x": 1.1677656935,
				"y": 0.0941821268,
				"z": 2.923385455,
				"element": "H" 
			},
			{
				"x": 0.9834451291,
				"y": -1.6596710937,
				"z": 3.1620595496,
				"element": "H" 
			},
			{
				"x": -0.3028876879,
				"y": 2.0224379374,
				"z": -1.5184764324,
				"element": "H" 
			},
			{
				"x": 3.8513453798,
				"y": 2.4070008603,
				"z": 2.0395489387,
				"element": "H" 
			},
			{
				"x": 4.0985849356,
				"y": 3.5583692597,
				"z": 0.8206242409,
				"element": "H" 
			}
		],
		 "valence_orbital": [ 
			{
				"type": "occ",
				"energy": -0.27563,
				"method": "rhf"
			},
			{
				"type": "occ",
				"energy": -0.2679,
				"method": "rhf"
			},
			{
				"type": "occ",
				"energy": -0.26083,
				"method": "rhf"
			},
			{
				"type": "occ",
				"energy": -0.23699,
				"method": "rhf"
			},
			{
				"type": "occ",
				"energy": -0.19746,
				"method": "rhf"
			},
			{
				"type": "unocc",
				"energy": -0.03582,
				"method": "rhf"
			},
			{
				"type": "unocc",
				"energy": 0.00468,
				"method": "rhf"
			},
			{
				"type": "unocc",
				"energy": 0.00931,
				"method": "rhf"
			},
			{
				"type": "unocc",
				"energy": 0.02227,
				"method": "rhf"
			},
			{
				"type": "unocc",
				"energy": 0.04238,
				"method": "rhf"
			}
		],
		"cosmo_sigma_profile": { 
			"-0.025": 0.0,
			"-0.024": 0.0,
			"-0.023": 0.0,
			"-0.022": 0.0,
			"-0.021": 0.0,
			"-0.02": 0.0,
			"-0.019": 0.0,
			"-0.018": 0.0,
			"-0.017": 0.0,
			"-0.016": 0.0,
			"-0.015": 0.492246367494,
			"-0.014": 1.98353665227,
			"-0.013": 2.72359882377,
			"-0.012": 2.89093460023,
			"-0.011": 2.57463267091,
			"-0.01": 2.46896508054,
			"-0.009": 2.39008349388,
			"-0.008": 3.12210501859,
			"-0.007": 3.83394492545,
			"-0.006": 6.26314404074,
			"-0.005": 10.1397752623,
			"-0.004": 15.4921239065,
			"-0.003": 13.6993215604,
			"-0.002": 15.4857256244,
			"-0.001": 14.9346701061,
			"0.0": 19.1032535825,
			"0.001": 21.9546915221,
			"0.002": 22.5112415322,
			"0.003": 25.258392353,
			"0.004": 17.3550257583,
			"0.005": 8.4674539986,
			"0.006": 5.48055958086,
			"0.007": 4.13822107621,
			"0.008": 3.46247353968,
			"0.009": 2.45265029495,
			"0.01": 2.13012910458,
			"0.011": 2.28301478939,
			"0.012": 1.43011212,
			"0.013": 0.575825355629,
			"0.014": 1.13159961548,
			"0.015": 0.50274607229,
			"0.016": 0.27110660266,
			"0.017": 0.0,
			"0.018": 0.0,
			"0.019": 0.0,
			"0.02": 0.0,
			"0.021": 0.0,
			"0.022": 0.0,
			"0.023": 0.0,
			"0.024": 0.0,
			"0.025": 0.0
		}
	}
}
