{
	 "smiles": "ClC1=NN2C=CN=C2C=C1", 
	 "Tm": 388.15, 
	 "num_atms": 14, 
	 "gaussian": { 
		 "optdone": 1, 
		 "sigma_profile": "yes", 
		 "theory": "DFT", 
		 "functional": "B3LYP", 
		 "basiset": "6-31G**", 
		 "properties": { 
			 "R2extent": 2168.913, 
			 "electric_dipole_moment_norm": 0.519094307424, 
			 "electric_quadrupole_moment_norm": 12.0438046447, 
			 "total_energy": -855.454259174, 
			 "HOMO_LUMO_gap": 0.16825, 
			 "cosmo_polarized_energy": -8.1, 
			 "cosmo_cavitation_energy": 20.53, 
			 "cosmo_dispersion_energy": -15.81, 
			 "cosmo_repulsion_energy": 1.26, 
			 "cosmo_total_nonelectrostatic_energy": 5.98, 
			 "SMD_solvation_energy": 1.1 
		},
		"coords": [
			{
				"x": 1.2736672825,
				"y": -0.3071322808,
				"z": -3.1857258558,
				"element": "Cl" 
			},
			{
				"x": 0.518669145,
				"y": 0.3203751781,
				"z": -1.7367086202,
				"element": "C" 
			},
			{
				"x": 0.0072002187,
				"y": 1.5171160448,
				"z": -1.8415699987,
				"element": "N" 
			},
			{
				"x": -0.5676555505,
				"y": 1.973580455,
				"z": -0.7093202188,
				"element": "N" 
			},
			{
				"x": -1.176520011,
				"y": 3.1860785597,
				"z": -0.5361221951,
				"element": "C" 
			},
			{
				"x": -1.6018780488,
				"y": 3.1825977563,
				"z": 0.782554167,
				"element": "C" 
			},
			{
				"x": -1.2834768602,
				"y": 2.0251000696,
				"z": 1.4271380911,
				"element": "N" 
			},
			{
				"x": -0.6532388107,
				"y": 1.2886544705,
				"z": 0.5179996342,
				"element": "C" 
			},
			{
				"x": -0.081795799,
				"y": 0.001331816,
				"z": 0.5650283543,
				"element": "C" 
			},
			{
				"x": 0.5120912746,
				"y": -0.4955801869,
				"z": -0.568863275,
				"element": "C" 
			},
			{
				"x": -1.2444170834,
				"y": 3.9042012336,
				"z": -1.3369215544,
				"element": "H" 
			},
			{
				"x": -2.1293447137,
				"y": 3.978319096,
				"z": 1.2916045921,
				"element": "H" 
			},
			{
				"x": -0.1265998877,
				"y": -0.5592917873,
				"z": 1.4917059128,
				"element": "H" 
			},
			{
				"x": 0.9686988442,
				"y": -1.4763504247,
				"z": -0.5986990335,
				"element": "H" 
			}
		],
		 "valence_orbital": [ 
			{
				"type": "occ",
				"energy": -0.33121,
				"method": "rhf"
			},
			{
				"type": "occ",
				"energy": -0.32907,
				"method": "rhf"
			},
			{
				"type": "occ",
				"energy": -0.27831,
				"method": "rhf"
			},
			{
				"type": "occ",
				"energy": -0.26268,
				"method": "rhf"
			},
			{
				"type": "occ",
				"energy": -0.2374,
				"method": "rhf"
			},
			{
				"type": "unocc",
				"energy": -0.06915,
				"method": "rhf"
			},
			{
				"type": "unocc",
				"energy": -0.01705,
				"method": "rhf"
			},
			{
				"type": "unocc",
				"energy": 0.0163,
				"method": "rhf"
			},
			{
				"type": "unocc",
				"energy": 0.05072,
				"method": "rhf"
			},
			{
				"type": "unocc",
				"energy": 0.10079,
				"method": "rhf"
			}
		],
		"cosmo_sigma_profile": { 
			"-0.025": 0.0,
			"-0.024": 0.0,
			"-0.023": 0.0,
			"-0.022": 0.0,
			"-0.021": 0.0,
			"-0.02": 0.0,
			"-0.019": 0.0,
			"-0.018": 0.0,
			"-0.017": 0.0,
			"-0.016": 0.0,
			"-0.015": 0.0,
			"-0.014": 0.0,
			"-0.013": 0.0,
			"-0.012": 0.0,
			"-0.011": 0.0,
			"-0.01": 0.919803068235,
			"-0.009": 5.09175348957,
			"-0.008": 6.45845463712,
			"-0.007": 6.9423237545,
			"-0.006": 6.10232302972,
			"-0.005": 7.61982563815,
			"-0.004": 8.08105447845,
			"-0.003": 10.0034363737,
			"-0.002": 14.5894132045,
			"-0.001": 15.4470104407,
			"0.0": 15.9901877299,
			"0.001": 12.4003905489,
			"0.002": 10.9559219532,
			"0.003": 15.5134635709,
			"0.004": 8.59456727933,
			"0.005": 4.53493539649,
			"0.006": 3.02693286214,
			"0.007": 2.25584988745,
			"0.008": 2.14528292513,
			"0.009": 2.74438710074,
			"0.01": 1.71899425316,
			"0.011": 2.5708215102,
			"0.012": 0.940754797256,
			"0.013": 0.458221589951,
			"0.014": 1.55298589271,
			"0.015": 0.933440732523,
			"0.016": 1.09223503563,
			"0.017": 0.293883156693,
			"0.018": 0.0,
			"0.019": 0.0,
			"0.02": 0.0,
			"0.021": 0.0,
			"0.022": 0.0,
			"0.023": 0.0,
			"0.024": 0.0,
			"0.025": 0.0
		}
	}
}
