{
	 "smiles": "CC1=CC(C)=C(CCl)C=C1CCl", 
	 "Tm": 371.15, 
	 "num_atms": 24, 
	 "gaussian": { 
		 "optdone": 1, 
		 "sigma_profile": "yes", 
		 "theory": "DFT", 
		 "functional": "B3LYP", 
		 "basiset": "6-31G**", 
		 "properties": { 
			 "R2extent": 4314.0242, 
			 "electric_dipole_moment_norm": 1.48200770916, 
			 "electric_quadrupole_moment_norm": 15.1457574109, 
			 "total_energy": -1308.70887626, 
			 "HOMO_LUMO_gap": 0.20536, 
			 "cosmo_polarized_energy": -8.67, 
			 "cosmo_cavitation_energy": 29.99, 
			 "cosmo_dispersion_energy": -21.55, 
			 "cosmo_repulsion_energy": 1.73, 
			 "cosmo_total_nonelectrostatic_energy": 10.17, 
			 "SMD_solvation_energy": 4.36 
		},
		"coords": [
			{
				"x": -2.8583660228,
				"y": 0.6879025559,
				"z": 0.261374673,
				"element": "C" 
			},
			{
				"x": -1.5215609348,
				"y": 0.3907099771,
				"z": -0.374557734,
				"element": "C" 
			},
			{
				"x": -0.4299706491,
				"y": 0.0300147372,
				"z": 0.4218371056,
				"element": "C" 
			},
			{
				"x": 0.8358652429,
				"y": -0.2542542612,
				"z": -0.1004434268,
				"element": "C" 
			},
			{
				"x": 1.9667576982,
				"y": -0.6417372879,
				"z": 0.8219073701,
				"element": "C" 
			},
			{
				"x": 1.0155059343,
				"y": -0.169114217,
				"z": -1.4961419048,
				"element": "C" 
			},
			{
				"x": 2.3397395607,
				"y": -0.4441025196,
				"z": -2.139613075,
				"element": "C" 
			},
			{
				"x": 2.6561881992,
				"y": -2.2461484842,
				"z": -2.3799036611,
				"element": "Cl" 
			},
			{
				"x": -0.070283466,
				"y": 0.1878670064,
				"z": -2.3001289965,
				"element": "C" 
			},
			{
				"x": -1.3324415389,
				"y": 0.4673713711,
				"z": -1.76949435,
				"element": "C" 
			},
			{
				"x": -2.4489668373,
				"y": 0.8334257569,
				"z": -2.6983016499,
				"element": "C" 
			},
			{
				"x": -2.7202302515,
				"y": 2.6555834628,
				"z": -2.805371019,
				"element": "Cl" 
			},
			{
				"x": -2.793369581,
				"y": 0.6328314113,
				"z": 1.3507587643,
				"element": "H" 
			},
			{
				"x": -3.626027115,
				"y": -0.0276060064,
				"z": -0.058774598,
				"element": "H" 
			},
			{
				"x": -3.2166681401,
				"y": 1.6865000579,
				"z": -0.0091657632,
				"element": "H" 
			},
			{
				"x": -0.5721867707,
				"y": -0.0323443897,
				"z": 1.4982010586,
				"element": "H" 
			},
			{
				"x": 1.6212735577,
				"y": -0.7090794605,
				"z": 1.8563735641,
				"element": "H" 
			},
			{
				"x": 2.3973978353,
				"y": -1.6087501166,
				"z": 0.542241904,
				"element": "H" 
			},
			{
				"x": 2.7806117023,
				"y": 0.0935345826,
				"z": 0.7942905448,
				"element": "H" 
			},
			{
				"x": 2.3995930943,
				"y": -0.0115878951,
				"z": -3.1377631939,
				"element": "H" 
			},
			{
				"x": 3.181855985,
				"y": -0.0915010252,
				"z": -1.5448683309,
				"element": "H" 
			},
			{
				"x": 0.0720088949,
				"y": 0.2503842181,
				"z": -3.3769452918,
				"element": "H" 
			},
			{
				"x": -3.4108266559,
				"y": 0.4276922167,
				"z": -2.38616638,
				"element": "H" 
			},
			{
				"x": -2.2415997417,
				"y": 0.5185083094,
				"z": -3.7204456095,
				"element": "H" 
			}
		],
		 "valence_orbital": [ 
			{
				"type": "occ",
				"energy": -0.29496,
				"method": "rhf"
			},
			{
				"type": "occ",
				"energy": -0.29439,
				"method": "rhf"
			},
			{
				"type": "occ",
				"energy": -0.29267,
				"method": "rhf"
			},
			{
				"type": "occ",
				"energy": -0.2559,
				"method": "rhf"
			},
			{
				"type": "occ",
				"energy": -0.24441,
				"method": "rhf"
			},
			{
				"type": "unocc",
				"energy": -0.03905,
				"method": "rhf"
			},
			{
				"type": "unocc",
				"energy": -0.02167,
				"method": "rhf"
			},
			{
				"type": "unocc",
				"energy": 0.02603,
				"method": "rhf"
			},
			{
				"type": "unocc",
				"energy": 0.04877,
				"method": "rhf"
			},
			{
				"type": "unocc",
				"energy": 0.08774,
				"method": "rhf"
			}
		],
		"cosmo_sigma_profile": { 
			"-0.025": 0.0,
			"-0.024": 0.0,
			"-0.023": 0.0,
			"-0.022": 0.0,
			"-0.021": 0.0,
			"-0.02": 0.0,
			"-0.019": 0.0,
			"-0.018": 0.0,
			"-0.017": 0.0,
			"-0.016": 0.0,
			"-0.015": 0.0,
			"-0.014": 0.0,
			"-0.013": 0.0,
			"-0.012": 0.0,
			"-0.011": 0.0,
			"-0.01": 0.0,
			"-0.009": 0.0,
			"-0.008": 3.05530129747,
			"-0.007": 11.8766741442,
			"-0.006": 11.7194794328,
			"-0.005": 16.7771283109,
			"-0.004": 18.8517059569,
			"-0.003": 15.2593537337,
			"-0.002": 17.3766148748,
			"-0.001": 18.5260506894,
			"0.0": 21.1376463184,
			"0.001": 16.1807007082,
			"0.002": 12.0343711565,
			"0.003": 13.3196360917,
			"0.004": 18.3640413474,
			"0.005": 16.9410524799,
			"0.006": 14.8182955291,
			"0.007": 14.6940432814,
			"0.008": 0.279730028311,
			"0.009": 0.0,
			"0.01": 0.0,
			"0.011": 0.0,
			"0.012": 0.0,
			"0.013": 0.0,
			"0.014": 0.0,
			"0.015": 0.0,
			"0.016": 0.0,
			"0.017": 0.0,
			"0.018": 0.0,
			"0.019": 0.0,
			"0.02": 0.0,
			"0.021": 0.0,
			"0.022": 0.0,
			"0.023": 0.0,
			"0.024": 0.0,
			"0.025": 0.0
		}
	}
}
