{
	 "smiles": "NC1=CN=C(OC2=C(Cl)C=CC=C2Cl)C=C1", 
	 "Tm": 394.15, 
	 "num_atms": 24, 
	 "gaussian": { 
		 "optdone": 1, 
		 "sigma_profile": "yes", 
		 "theory": "DFT", 
		 "functional": "B3LYP", 
		 "basiset": "6-31G**", 
		 "properties": { 
			 "R2extent": 4683.643, 
			 "electric_dipole_moment_norm": 2.5860922064, 
			 "electric_quadrupole_moment_norm": 21.442413061, 
			 "total_energy": -1529.08980635, 
			 "HOMO_LUMO_gap": 0.18081, 
			 "cosmo_polarized_energy": -13.91, 
			 "cosmo_cavitation_energy": 32.72, 
			 "cosmo_dispersion_energy": -23.31, 
			 "cosmo_repulsion_energy": 1.85, 
			 "cosmo_total_nonelectrostatic_energy": 11.25, 
			 "SMD_solvation_energy": 4.22 
		},
		"coords": [
			{
				"x": 0.6166593864,
				"y": -2.5015261598,
				"z": 4.5150428949,
				"element": "N" 
			},
			{
				"x": 0.6997865548,
				"y": -2.1876320404,
				"z": 3.1544828924,
				"element": "C" 
			},
			{
				"x": -0.0221865782,
				"y": -1.12231441,
				"z": 2.601993261,
				"element": "C" 
			},
			{
				"x": 0.0697498957,
				"y": -0.7462390538,
				"z": 1.3195193774,
				"element": "N" 
			},
			{
				"x": 0.8851734465,
				"y": -1.421831193,
				"z": 0.5349843005,
				"element": "C" 
			},
			{
				"x": 1.0000558726,
				"y": -1.0624287057,
				"z": -0.7965283276,
				"element": "O" 
			},
			{
				"x": 0.2590004353,
				"y": -0.0065836128,
				"z": -1.2604815266,
				"element": "C" 
			},
			{
				"x": -1.0044538164,
				"y": -0.2124298205,
				"z": -1.8313954908,
				"element": "C" 
			},
			{
				"x": -1.6848053253,
				"y": -1.8235027891,
				"z": -1.8438491213,
				"element": "Cl" 
			},
			{
				"x": -1.7214826599,
				"y": 0.8406408505,
				"z": -2.3965855321,
				"element": "C" 
			},
			{
				"x": -1.1734409415,
				"y": 2.1221657339,
				"z": -2.3936388568,
				"element": "C" 
			},
			{
				"x": 0.0827100598,
				"y": 2.3531001099,
				"z": -1.8356751666,
				"element": "C" 
			},
			{
				"x": 0.7890856921,
				"y": 1.2909768771,
				"z": -1.2738383978,
				"element": "C" 
			},
			{
				"x": 2.3698794863,
				"y": 1.5756944778,
				"z": -0.5834114107,
				"element": "Cl" 
			},
			{
				"x": 1.6605582515,
				"y": -2.506055164,
				"z": 0.9582238418,
				"element": "C" 
			},
			{
				"x": 1.5617241767,
				"y": -2.8858584633,
				"z": 2.2876235154,
				"element": "C" 
			},
			{
				"x": -0.2266269278,
				"y": -2.1766545476,
				"z": 4.9693591766,
				"element": "H" 
			},
			{
				"x": 0.8001889381,
				"y": -3.4708286288,
				"z": 4.7373939016,
				"element": "H" 
			},
			{
				"x": -0.7042978449,
				"y": -0.5439341505,
				"z": 3.2242790604,
				"element": "H" 
			},
			{
				"x": -2.6957009689,
				"y": 0.648896396,
				"z": -2.8314386406,
				"element": "H" 
			},
			{
				"x": -1.7270432835,
				"y": 2.945613543,
				"z": -2.8333809666,
				"element": "H" 
			},
			{
				"x": 0.5201095489,
				"y": 3.3448780112,
				"z": -1.8315244944,
				"element": "H" 
			},
			{
				"x": 2.3104599655,
				"y": -3.0203308147,
				"z": 0.2598055293,
				"element": "H" 
			},
			{
				"x": 2.1514966364,
				"y": -3.7186164456,
				"z": 2.6622401806,
				"element": "H" 
			}
		],
		 "valence_orbital": [ 
			{
				"type": "occ",
				"energy": -0.2767,
				"method": "rhf"
			},
			{
				"type": "occ",
				"energy": -0.26797,
				"method": "rhf"
			},
			{
				"type": "occ",
				"energy": -0.24703,
				"method": "rhf"
			},
			{
				"type": "occ",
				"energy": -0.24543,
				"method": "rhf"
			},
			{
				"type": "occ",
				"energy": -0.20409,
				"method": "rhf"
			},
			{
				"type": "unocc",
				"energy": -0.02328,
				"method": "rhf"
			},
			{
				"type": "unocc",
				"energy": -0.01645,
				"method": "rhf"
			},
			{
				"type": "unocc",
				"energy": -0.0142,
				"method": "rhf"
			},
			{
				"type": "unocc",
				"energy": 0.01097,
				"method": "rhf"
			},
			{
				"type": "unocc",
				"energy": 0.01569,
				"method": "rhf"
			}
		],
		"cosmo_sigma_profile": { 
			"-0.025": 0.0,
			"-0.024": 0.0,
			"-0.023": 0.0,
			"-0.022": 0.0,
			"-0.021": 0.0,
			"-0.02": 0.0,
			"-0.019": 0.0,
			"-0.018": 0.0,
			"-0.017": 0.0,
			"-0.016": 0.0,
			"-0.015": 0.0,
			"-0.014": 0.0,
			"-0.013": 1.03108981654,
			"-0.012": 2.8632722973,
			"-0.011": 3.3035470161,
			"-0.01": 3.42779717302,
			"-0.009": 3.7799132129,
			"-0.008": 6.17362730741,
			"-0.007": 13.0417426065,
			"-0.006": 14.0519130272,
			"-0.005": 11.0746192554,
			"-0.004": 9.48181194394,
			"-0.003": 10.6202981071,
			"-0.002": 11.0367334877,
			"-0.001": 13.4719476203,
			"0.0": 19.5716245322,
			"0.001": 21.9181682999,
			"0.002": 28.4984298416,
			"0.003": 32.54272284,
			"0.004": 25.5786561586,
			"0.005": 11.7990554606,
			"0.006": 6.75232415015,
			"0.007": 4.55792538953,
			"0.008": 3.8311946297,
			"0.009": 2.1399017172,
			"0.01": 1.39801564845,
			"0.011": 1.43747293792,
			"0.012": 1.79681832163,
			"0.013": 1.13595175174,
			"0.014": 0.635175997706,
			"0.015": 0.137761199714,
			"0.016": 0.0,
			"0.017": 0.0,
			"0.018": 0.0,
			"0.019": 0.0,
			"0.02": 0.0,
			"0.021": 0.0,
			"0.022": 0.0,
			"0.023": 0.0,
			"0.024": 0.0,
			"0.025": 0.0
		}
	}
}
