{
	 "smiles": "CC(C)CC1CC(=O)NC(=O)C1", 
	 "Tm": 410.15, 
	 "num_atms": 27, 
	 "gaussian": { 
		 "optdone": 1, 
		 "sigma_profile": "yes", 
		 "theory": "DFT", 
		 "functional": "B3LYP", 
		 "basiset": "6-31G**", 
		 "properties": { 
			 "R2extent": 2847.5897, 
			 "electric_dipole_moment_norm": 3.66182136238, 
			 "electric_quadrupole_moment_norm": 10.0320073166, 
			 "total_energy": -557.240166464, 
			 "HOMO_LUMO_gap": 0.23165, 
			 "cosmo_polarized_energy": -12.95, 
			 "cosmo_cavitation_energy": 28.25, 
			 "cosmo_dispersion_energy": -20.23, 
			 "cosmo_repulsion_energy": 1.61, 
			 "cosmo_total_nonelectrostatic_energy": 9.64, 
			 "SMD_solvation_energy": 5.89 
		},
		"coords": [
			{
				"x": 2.9390039688,
				"y": -0.7859865908,
				"z": -0.1939148611,
				"element": "C" 
			},
			{
				"x": 1.6144425085,
				"y": -0.7943531582,
				"z": -0.9780281038,
				"element": "C" 
			},
			{
				"x": 0.7784532728,
				"y": -2.0365354631,
				"z": -0.6306398622,
				"element": "C" 
			},
			{
				"x": 0.8433710403,
				"y": 0.5530575985,
				"z": -0.9358915472,
				"element": "C" 
			},
			{
				"x": 0.0412976551,
				"y": 1.0280207664,
				"z": 0.301514926,
				"element": "C" 
			},
			{
				"x": 0.7995606968,
				"y": 1.0090459948,
				"z": 1.6384681258,
				"element": "C" 
			},
			{
				"x": -0.0027672536,
				"y": 1.6184966377,
				"z": 2.7750954787,
				"element": "C" 
			},
			{
				"x": 0.4932182067,
				"y": 2.162758799,
				"z": 3.7430393591,
				"element": "O" 
			},
			{
				"x": -1.3892676021,
				"y": 1.4979763059,
				"z": 2.6616246235,
				"element": "N" 
			},
			{
				"x": -2.1306945111,
				"y": 0.9202344008,
				"z": 1.6285523377,
				"element": "C" 
			},
			{
				"x": -3.3456594578,
				"y": 0.8975470534,
				"z": 1.6789973128,
				"element": "O" 
			},
			{
				"x": -1.3160039965,
				"y": 0.3268770248,
				"z": 0.4927770638,
				"element": "C" 
			},
			{
				"x": 3.5443595804,
				"y": 0.0928108641,
				"z": -0.4415540224,
				"element": "H" 
			},
			{
				"x": 3.5306194113,
				"y": -1.6745626337,
				"z": -0.4399008309,
				"element": "H" 
			},
			{
				"x": 2.7877501803,
				"y": -0.7917635129,
				"z": 0.8894971062,
				"element": "H" 
			},
			{
				"x": 1.89465034,
				"y": -0.8973252905,
				"z": -2.0365106605,
				"element": "H" 
			},
			{
				"x": 0.5471565225,
				"y": -2.0903377839,
				"z": 0.4390810688,
				"element": "H" 
			},
			{
				"x": 1.3309479828,
				"y": -2.9484673191,
				"z": -0.8815115533,
				"element": "H" 
			},
			{
				"x": -0.166677718,
				"y": -2.0602842207,
				"z": -1.1834607812,
				"element": "H" 
			},
			{
				"x": 0.1369148776,
				"y": 0.5560937195,
				"z": -1.7772721925,
				"element": "H" 
			},
			{
				"x": 1.573091215,
				"y": 1.3405662113,
				"z": -1.1667362109,
				"element": "H" 
			},
			{
				"x": -0.1912251229,
				"y": 2.0823533846,
				"z": 0.0897784529,
				"element": "H" 
			},
			{
				"x": 1.032294209,
				"y": -0.0219684475,
				"z": 1.9341853992,
				"element": "H" 
			},
			{
				"x": 1.7481917422,
				"y": 1.5491002268,
				"z": 1.5926036001,
				"element": "H" 
			},
			{
				"x": -1.9300927911,
				"y": 1.8920032401,
				"z": 3.4250729167,
				"element": "H" 
			},
			{
				"x": -1.1815101867,
				"y": -0.7374327258,
				"z": 0.718807469,
				"element": "H" 
			},
			{
				"x": -1.9379247705,
				"y": 0.3821749185,
				"z": -0.4045746147,
				"element": "H" 
			}
		],
		 "valence_orbital": [ 
			{
				"type": "occ",
				"energy": -0.33236,
				"method": "rhf"
			},
			{
				"type": "occ",
				"energy": -0.31902,
				"method": "rhf"
			},
			{
				"type": "occ",
				"energy": -0.28437,
				"method": "rhf"
			},
			{
				"type": "occ",
				"energy": -0.27762,
				"method": "rhf"
			},
			{
				"type": "occ",
				"energy": -0.25679,
				"method": "rhf"
			},
			{
				"type": "unocc",
				"energy": -0.02514,
				"method": "rhf"
			},
			{
				"type": "unocc",
				"energy": 0.02885,
				"method": "rhf"
			},
			{
				"type": "unocc",
				"energy": 0.0584,
				"method": "rhf"
			},
			{
				"type": "unocc",
				"energy": 0.09279,
				"method": "rhf"
			},
			{
				"type": "unocc",
				"energy": 0.09887,
				"method": "rhf"
			}
		],
		"cosmo_sigma_profile": { 
			"-0.025": 0.0,
			"-0.024": 0.0,
			"-0.023": 0.0,
			"-0.022": 0.0,
			"-0.021": 0.0,
			"-0.02": 0.0,
			"-0.019": 0.0,
			"-0.018": 0.0,
			"-0.017": 0.0,
			"-0.016": 0.0,
			"-0.015": 0.579063784764,
			"-0.014": 0.873200505265,
			"-0.013": 0.914716820688,
			"-0.012": 0.291554625034,
			"-0.011": 1.28533376464,
			"-0.01": 0.60263620375,
			"-0.009": 0.913284234828,
			"-0.008": 1.27839177739,
			"-0.007": 4.40571153985,
			"-0.006": 8.77469515589,
			"-0.005": 12.8052773271,
			"-0.004": 15.5731203315,
			"-0.003": 22.502360441,
			"-0.002": 33.0367812508,
			"-0.001": 25.4431825599,
			"0.0": 20.1039649324,
			"0.001": 17.1744115807,
			"0.002": 8.81738843976,
			"0.003": 2.68339146449,
			"0.004": 2.42587536831,
			"0.005": 2.46879211905,
			"0.006": 3.42735656877,
			"0.007": 2.00882856095,
			"0.008": 2.00855357089,
			"0.009": 2.71737973234,
			"0.01": 3.53196469511,
			"0.011": 5.87288749748,
			"0.012": 10.5645781324,
			"0.013": 5.48404414108,
			"0.014": 0.410155883863,
			"0.015": 0.0,
			"0.016": 0.0,
			"0.017": 0.0,
			"0.018": 0.0,
			"0.019": 0.0,
			"0.02": 0.0,
			"0.021": 0.0,
			"0.022": 0.0,
			"0.023": 0.0,
			"0.024": 0.0,
			"0.025": 0.0
		}
	}
}
