{
	 "smiles": "CC1=CC(OC(=O)C23CC[C@@](C)(C(=O)O2)C3(C)C)=C(C=C1)C1(C)CC(C)(C)C2=CC=C(C)C=C2O1", 
	 "Tm": 409.15, 
	 "num_atms": 71, 
	 "gaussian": { 
		 "optdone": 1, 
		 "sigma_profile": "yes", 
		 "theory": "DFT", 
		 "functional": "B3LYP", 
		 "basiset": "6-31G**", 
		 "properties": { 
			 "R2extent": 16455.287, 
			 "electric_dipole_moment_norm": 3.7238261345, 
			 "electric_quadrupole_moment_norm": 22.3878100584, 
			 "total_energy": -1541.05258017, 
			 "HOMO_LUMO_gap": 0.17855, 
			 "cosmo_polarized_energy": -20.4, 
			 "cosmo_cavitation_energy": 66.91, 
			 "cosmo_dispersion_energy": -41.9, 
			 "cosmo_repulsion_energy": 3.04, 
			 "cosmo_total_nonelectrostatic_energy": 28.05, 
			 "SMD_solvation_energy": 12.22 
		},
		"coords": [
			{
				"x": -4.1548043857,
				"y": 3.4195156866,
				"z": -3.218480013,
				"element": "C" 
			},
			{
				"x": -3.3285291941,
				"y": 2.9966848523,
				"z": -2.0276774332,
				"element": "C" 
			},
			{
				"x": -2.2527803138,
				"y": 2.1169216267,
				"z": -2.1820502308,
				"element": "C" 
			},
			{
				"x": -1.4706493894,
				"y": 1.741302909,
				"z": -1.0946783528,
				"element": "C" 
			},
			{
				"x": -0.4399327419,
				"y": 0.8108852226,
				"z": -1.308544483,
				"element": "O" 
			},
			{
				"x": 0.5502882763,
				"y": 1.0907284164,
				"z": -2.1827359375,
				"element": "C" 
			},
			{
				"x": 0.6766956577,
				"y": 2.122597332,
				"z": -2.8048207251,
				"element": "O" 
			},
			{
				"x": 1.5130925338,
				"y": -0.0647358794,
				"z": -2.358520146,
				"element": "C" 
			},
			{
				"x": 3.0061441321,
				"y": 0.325156316,
				"z": -2.3860808647,
				"element": "C" 
			},
			{
				"x": 3.6605070502,
				"y": -0.9690891717,
				"z": -2.9475311577,
				"element": "C" 
			},
			{
				"x": 2.4426789949,
				"y": -1.9233610583,
				"z": -3.1938156982,
				"element": "C" 
			},
			{
				"x": 2.7350018407,
				"y": -3.1651159721,
				"z": -4.0151794598,
				"element": "C" 
			},
			{
				"x": 1.9472300912,
				"y": -2.2127045207,
				"z": -1.7777553494,
				"element": "C" 
			},
			{
				"x": 2.0286118386,
				"y": -3.2169004905,
				"z": -1.116221079,
				"element": "O" 
			},
			{
				"x": 1.3827565426,
				"y": -1.0572131707,
				"z": -1.3041972118,
				"element": "O" 
			},
			{
				"x": 1.3210606099,
				"y": -0.9269105894,
				"z": -3.6571215004,
				"element": "C" 
			},
			{
				"x": 1.6072624898,
				"y": -0.1805759639,
				"z": -4.9662421571,
				"element": "C" 
			},
			{
				"x": -0.0754725463,
				"y": -1.5658717086,
				"z": -3.7467969395,
				"element": "C" 
			},
			{
				"x": -1.7292953879,
				"y": 2.1974202924,
				"z": 0.2121935033,
				"element": "C" 
			},
			{
				"x": -2.8125502126,
				"y": 3.0760314511,
				"z": 0.3439041078,
				"element": "C" 
			},
			{
				"x": -3.5923299883,
				"y": 3.4729147196,
				"z": -0.7422345352,
				"element": "C" 
			},
			{
				"x": -0.8613815658,
				"y": 1.7964297613,
				"z": 1.4178913723,
				"element": "C" 
			},
			{
				"x": 0.5199630271,
				"y": 2.472156663,
				"z": 1.2925103319,
				"element": "C" 
			},
			{
				"x": -1.5599280068,
				"y": 2.0974170272,
				"z": 2.7599851473,
				"element": "C" 
			},
			{
				"x": -0.8687282299,
				"y": 1.5145952422,
				"z": 4.0274999674,
				"element": "C" 
			},
			{
				"x": -1.9843369156,
				"y": 1.2234363583,
				"z": 5.061935445,
				"element": "C" 
			},
			{
				"x": 0.0975601922,
				"y": 2.5463584362,
				"z": 4.6587473756,
				"element": "C" 
			},
			{
				"x": -0.1377029999,
				"y": 0.216092711,
				"z": 3.6821831195,
				"element": "C" 
			},
			{
				"x": 0.5103842549,
				"y": -0.5533782877,
				"z": 4.6620052001,
				"element": "C" 
			},
			{
				"x": 1.1391266161,
				"y": -1.7567914736,
				"z": 4.3594317434,
				"element": "C" 
			},
			{
				"x": 1.1449451151,
				"y": -2.2473670128,
				"z": 3.0433652282,
				"element": "C" 
			},
			{
				"x": 1.8084270863,
				"y": -3.5596981181,
				"z": 2.6955384267,
				"element": "C" 
			},
			{
				"x": 0.5177576055,
				"y": -1.4889276047,
				"z": 2.0567024819,
				"element": "C" 
			},
			{
				"x": -0.1128172794,
				"y": -0.2788687403,
				"z": 2.3706061066,
				"element": "C" 
			},
			{
				"x": -0.7155846932,
				"y": 0.3646696695,
				"z": 1.3186658801,
				"element": "O" 
			},
			{
				"x": -3.5907391474,
				"y": 4.0970302973,
				"z": -3.8706552378,
				"element": "H" 
			},
			{
				"x": -4.45075571,
				"y": 2.5582409456,
				"z": -3.8268464421,
				"element": "H" 
			},
			{
				"x": -5.0641476621,
				"y": 3.9403318154,
				"z": -2.9066006582,
				"element": "H" 
			},
			{
				"x": -2.0104307761,
				"y": 1.7204366325,
				"z": -3.1622660658,
				"element": "H" 
			},
			{
				"x": 3.3406589965,
				"y": 0.5685375097,
				"z": -1.3749278187,
				"element": "H" 
			},
			{
				"x": 3.1659352467,
				"y": 1.1994825596,
				"z": -3.018460408,
				"element": "H" 
			},
			{
				"x": 4.3770208826,
				"y": -1.4173234093,
				"z": -2.2537818569,
				"element": "H" 
			},
			{
				"x": 4.1893581367,
				"y": -0.7894455894,
				"z": -3.8876244847,
				"element": "H" 
			},
			{
				"x": 3.4792898129,
				"y": -3.7855454503,
				"z": -3.507594017,
				"element": "H" 
			},
			{
				"x": 3.1243244096,
				"y": -2.8989214133,
				"z": -5.0028709712,
				"element": "H" 
			},
			{
				"x": 1.8390548637,
				"y": -3.7779333815,
				"z": -4.1490693077,
				"element": "H" 
			},
			{
				"x": 1.4872474969,
				"y": -0.8630413908,
				"z": -5.8139067721,
				"element": "H" 
			},
			{
				"x": 0.8979986206,
				"y": 0.6420717742,
				"z": -5.0948631634,
				"element": "H" 
			},
			{
				"x": 2.6108607161,
				"y": 0.24406905,
				"z": -5.0206978925,
				"element": "H" 
			},
			{
				"x": -0.3868834255,
				"y": -2.0429561939,
				"z": -2.8151174467,
				"element": "H" 
			},
			{
				"x": -0.826392365,
				"y": -0.8101906271,
				"z": -3.9997021651,
				"element": "H" 
			},
			{
				"x": -0.0954346663,
				"y": -2.3190555628,
				"z": -4.5406142021,
				"element": "H" 
			},
			{
				"x": -3.0667524269,
				"y": 3.4658320971,
				"z": 1.3217709385,
				"element": "H" 
			},
			{
				"x": -4.4213515544,
				"y": 4.1565498216,
				"z": -0.5802035156,
				"element": "H" 
			},
			{
				"x": 1.2210475708,
				"y": 2.0620321716,
				"z": 2.0221286306,
				"element": "H" 
			},
			{
				"x": 0.4335998591,
				"y": 3.5505373419,
				"z": 1.4554597939,
				"element": "H" 
			},
			{
				"x": 0.9389855998,
				"y": 2.3127340175,
				"z": 0.29802876,
				"element": "H" 
			},
			{
				"x": -1.6808290662,
				"y": 3.1775919373,
				"z": 2.8941576438,
				"element": "H" 
			},
			{
				"x": -2.5647232851,
				"y": 1.6683092655,
				"z": 2.6862447331,
				"element": "H" 
			},
			{
				"x": -2.5620305922,
				"y": 2.1318506022,
				"z": 5.271104634,
				"element": "H" 
			},
			{
				"x": -1.5663190876,
				"y": 0.8696975015,
				"z": 6.0091739411,
				"element": "H" 
			},
			{
				"x": -2.6721711255,
				"y": 0.4572451288,
				"z": 4.6912683066,
				"element": "H" 
			},
			{
				"x": 0.9106976793,
				"y": 2.8250148903,
				"z": 3.9855477525,
				"element": "H" 
			},
			{
				"x": -0.4459124402,
				"y": 3.4597802429,
				"z": 4.9288068088,
				"element": "H" 
			},
			{
				"x": 0.5489797351,
				"y": 2.1480211747,
				"z": 5.5724342138,
				"element": "H" 
			},
			{
				"x": 0.5188157863,
				"y": -0.2019845401,
				"z": 5.6906950114,
				"element": "H" 
			},
			{
				"x": 1.6313776805,
				"y": -2.3201276072,
				"z": 5.1483552886,
				"element": "H" 
			},
			{
				"x": 1.9844087923,
				"y": -3.6404698299,
				"z": 1.6195864373,
				"element": "H" 
			},
			{
				"x": 1.1820028768,
				"y": -4.4097692563,
				"z": 2.994930488,
				"element": "H" 
			},
			{
				"x": 2.7672552556,
				"y": -3.6712088477,
				"z": 3.2137381401,
				"element": "H" 
			},
			{
				"x": 0.523683208,
				"y": -1.8062286088,
				"z": 1.0198887407,
				"element": "H" 
			}
		],
		 "valence_orbital": [ 
			{
				"type": "occ",
				"energy": -0.26236,
				"method": "rhf"
			},
			{
				"type": "occ",
				"energy": -0.24862,
				"method": "rhf"
			},
			{
				"type": "occ",
				"energy": -0.24007,
				"method": "rhf"
			},
			{
				"type": "occ",
				"energy": -0.21894,
				"method": "rhf"
			},
			{
				"type": "occ",
				"energy": -0.19848,
				"method": "rhf"
			},
			{
				"type": "unocc",
				"energy": -0.01993,
				"method": "rhf"
			},
			{
				"type": "unocc",
				"energy": -0.00839,
				"method": "rhf"
			},
			{
				"type": "unocc",
				"energy": 0.00615,
				"method": "rhf"
			},
			{
				"type": "unocc",
				"energy": 0.00835,
				"method": "rhf"
			},
			{
				"type": "unocc",
				"energy": 0.01737,
				"method": "rhf"
			}
		],
		"cosmo_sigma_profile": { 
			"-0.025": 0.0,
			"-0.024": 0.0,
			"-0.023": 0.0,
			"-0.022": 0.0,
			"-0.021": 0.0,
			"-0.02": 0.0,
			"-0.019": 0.0,
			"-0.018": 0.0,
			"-0.017": 0.0,
			"-0.016": 0.0,
			"-0.015": 0.0,
			"-0.014": 0.0,
			"-0.013": 0.0,
			"-0.012": 0.0,
			"-0.011": 0.0,
			"-0.01": 0.0,
			"-0.009": 0.0,
			"-0.008": 0.0,
			"-0.007": 1.3336734296,
			"-0.006": 11.1626206612,
			"-0.005": 28.9412994579,
			"-0.004": 56.6455421877,
			"-0.003": 64.2314119609,
			"-0.002": 58.6784461168,
			"-0.001": 58.4148900327,
			"0.0": 55.6251154268,
			"0.001": 39.3280854603,
			"0.002": 25.1846760205,
			"0.003": 25.2650199969,
			"0.004": 25.9684016045,
			"0.005": 18.8062875878,
			"0.006": 14.8383101411,
			"0.007": 9.77000854037,
			"0.008": 6.27116329064,
			"0.009": 5.62533334793,
			"0.01": 6.35544968849,
			"0.011": 8.09106027834,
			"0.012": 2.35550619065,
			"0.013": 0.664860704051,
			"0.014": 0.0467849375336,
			"0.015": 0.0,
			"0.016": 0.0,
			"0.017": 0.0,
			"0.018": 0.0,
			"0.019": 0.0,
			"0.02": 0.0,
			"0.021": 0.0,
			"0.022": 0.0,
			"0.023": 0.0,
			"0.024": 0.0,
			"0.025": 0.0
		}
	}
}
