{
	 "smiles": "CCCCC(CC)COC(=O)CCCCCCCC(=O)OCC(CC)CCCC", 
	 "Tm": 195.15, 
	 "num_atms": 77, 
	 "gaussian": { 
		 "optdone": 1, 
		 "sigma_profile": "yes", 
		 "theory": "DFT", 
		 "functional": "B3LYP", 
		 "basiset": "6-31G**", 
		 "properties": { 
			 "R2extent": 23714.8512, 
			 "electric_dipole_moment_norm": 3.11567381155, 
			 "electric_quadrupole_moment_norm": 11.404725372, 
			 "total_energy": -1282.5754397, 
			 "HOMO_LUMO_gap": 0.27532, 
			 "cosmo_polarized_energy": -12.27, 
			 "cosmo_cavitation_energy": 74.92, 
			 "cosmo_dispersion_energy": -46.38, 
			 "cosmo_repulsion_energy": 3.7, 
			 "cosmo_total_nonelectrostatic_energy": 32.25, 
			 "SMD_solvation_energy": 12.21 
		},
		"coords": [
			{
				"x": 2.274516679,
				"y": 6.2161801186,
				"z": 5.0709315965,
				"element": "C" 
			},
			{
				"x": 2.8220248307,
				"y": 4.7952123696,
				"z": 4.8900271028,
				"element": "C" 
			},
			{
				"x": 1.8422544319,
				"y": 3.6784582696,
				"z": 5.2900413485,
				"element": "C" 
			},
			{
				"x": 0.5922887121,
				"y": 3.5975836026,
				"z": 4.4020585492,
				"element": "C" 
			},
			{
				"x": -0.3312803809,
				"y": 2.3902238762,
				"z": 4.666197635,
				"element": "C" 
			},
			{
				"x": -0.9607528449,
				"y": 2.3867155017,
				"z": 6.0854579005,
				"element": "C" 
			},
			{
				"x": -0.2175521995,
				"y": 1.5203568656,
				"z": 7.1104821597,
				"element": "C" 
			},
			{
				"x": -1.4531624792,
				"y": 2.3359681283,
				"z": 3.6277906389,
				"element": "C" 
			},
			{
				"x": -0.8663181494,
				"y": 2.2117126942,
				"z": 2.3131260072,
				"element": "O" 
			},
			{
				"x": -1.7292158378,
				"y": 2.2208030698,
				"z": 1.2717478143,
				"element": "C" 
			},
			{
				"x": -2.9320101065,
				"y": 2.3108125287,
				"z": 1.4022630193,
				"element": "O" 
			},
			{
				"x": -0.9851179725,
				"y": 2.1344150429,
				"z": -0.0487565116,
				"element": "C" 
			},
			{
				"x": -1.8935907496,
				"y": 1.8367307467,
				"z": -1.2454550222,
				"element": "C" 
			},
			{
				"x": -2.4570380182,
				"y": 0.4091726933,
				"z": -1.26041157,
				"element": "C" 
			},
			{
				"x": -3.370677674,
				"y": 0.1554239598,
				"z": -2.4674458116,
				"element": "C" 
			},
			{
				"x": -4.0054474815,
				"y": -1.244927596,
				"z": -2.5114723214,
				"element": "C" 
			},
			{
				"x": -3.0473644519,
				"y": -2.4415423693,
				"z": -2.6539253486,
				"element": "C" 
			},
			{
				"x": -2.2143324173,
				"y": -2.4689312049,
				"z": -3.9589524355,
				"element": "C" 
			},
			{
				"x": -0.9533031094,
				"y": -1.6268753448,
				"z": -3.9277878998,
				"element": "C" 
			},
			{
				"x": -0.7498131671,
				"y": -0.6243501388,
				"z": -4.5808671531,
				"element": "O" 
			},
			{
				"x": -0.0462269881,
				"y": -2.1527359826,
				"z": -3.0693244846,
				"element": "O" 
			},
			{
				"x": 1.2173275439,
				"y": -1.4569736207,
				"z": -2.9502522602,
				"element": "C" 
			},
			{
				"x": 2.2387725826,
				"y": -2.4014536692,
				"z": -2.3155639286,
				"element": "C" 
			},
			{
				"x": 1.8426814822,
				"y": -2.839253036,
				"z": -0.8888289077,
				"element": "C" 
			},
			{
				"x": 1.7259883593,
				"y": -1.7021311328,
				"z": 0.132413155,
				"element": "C" 
			},
			{
				"x": 2.5180568093,
				"y": -3.6404194416,
				"z": -3.1956048026,
				"element": "C" 
			},
			{
				"x": 3.0345611891,
				"y": -3.3770372711,
				"z": -4.6206660842,
				"element": "C" 
			},
			{
				"x": 4.3864049776,
				"y": -2.6531558935,
				"z": -4.6974943889,
				"element": "C" 
			},
			{
				"x": 4.9087864115,
				"y": -2.5174927901,
				"z": -6.1316405371,
				"element": "C" 
			},
			{
				"x": 1.407770085,
				"y": 6.4058236005,
				"z": 4.4296090577,
				"element": "H" 
			},
			{
				"x": 3.0341960354,
				"y": 6.9650157349,
				"z": 4.8236984996,
				"element": "H" 
			},
			{
				"x": 1.9633920181,
				"y": 6.3897019617,
				"z": 6.1079406043,
				"element": "H" 
			},
			{
				"x": 3.7365927359,
				"y": 4.6882172917,
				"z": 5.4872967732,
				"element": "H" 
			},
			{
				"x": 3.1243745576,
				"y": 4.6504011547,
				"z": 3.8437259457,
				"element": "H" 
			},
			{
				"x": 1.551755579,
				"y": 3.823005618,
				"z": 6.3391959921,
				"element": "H" 
			},
			{
				"x": 2.3705992911,
				"y": 2.7161372431,
				"z": 5.2476751365,
				"element": "H" 
			},
			{
				"x": -0.0034676302,
				"y": 4.5145441008,
				"z": 4.5128352093,
				"element": "H" 
			},
			{
				"x": 0.9089678174,
				"y": 3.5621803839,
				"z": 3.3526706481,
				"element": "H" 
			},
			{
				"x": 0.2606391652,
				"y": 1.4710119472,
				"z": 4.54537312,
				"element": "H" 
			},
			{
				"x": -1.0313564539,
				"y": 3.4188913236,
				"z": 6.4524708204,
				"element": "H" 
			},
			{
				"x": -1.995987283,
				"y": 2.0249674848,
				"z": 6.0244383815,
				"element": "H" 
			},
			{
				"x": -0.199090909,
				"y": 0.4713433508,
				"z": 6.7940532415,
				"element": "H" 
			},
			{
				"x": 0.8194513675,
				"y": 1.8414729755,
				"z": 7.2438266918,
				"element": "H" 
			},
			{
				"x": -0.7077456009,
				"y": 1.5624406265,
				"z": 8.088911659,
				"element": "H" 
			},
			{
				"x": -2.0755999835,
				"y": 3.2379083154,
				"z": 3.6578607755,
				"element": "H" 
			},
			{
				"x": -2.1112552311,
				"y": 1.4774111633,
				"z": 3.7982872512,
				"element": "H" 
			},
			{
				"x": -0.4721118787,
				"y": 3.096222275,
				"z": -0.1829347034,
				"element": "H" 
			},
			{
				"x": -0.1884349475,
				"y": 1.3879101924,
				"z": 0.0536561991,
				"element": "H" 
			},
			{
				"x": -2.722428582,
				"y": 2.5537378043,
				"z": -1.2432026438,
				"element": "H" 
			},
			{
				"x": -1.3244025723,
				"y": 2.0088232331,
				"z": -2.16724815,
				"element": "H" 
			},
			{
				"x": -1.620957036,
				"y": -0.304348604,
				"z": -1.2629009116,
				"element": "H" 
			},
			{
				"x": -3.0182752819,
				"y": 0.2321627431,
				"z": -0.3344064831,
				"element": "H" 
			},
			{
				"x": -2.8135866615,
				"y": 0.3417302108,
				"z": -3.3932531739,
				"element": "H" 
			},
			{
				"x": -4.1834178597,
				"y": 0.8937513479,
				"z": -2.4482724811,
				"element": "H" 
			},
			{
				"x": -4.7198652409,
				"y": -1.2770785441,
				"z": -3.3454035861,
				"element": "H" 
			},
			{
				"x": -4.5997274878,
				"y": -1.3949903858,
				"z": -1.5997202325,
				"element": "H" 
			},
			{
				"x": -3.6507074724,
				"y": -3.3565238076,
				"z": -2.6272627929,
				"element": "H" 
			},
			{
				"x": -2.3686637569,
				"y": -2.5051741001,
				"z": -1.7963831078,
				"element": "H" 
			},
			{
				"x": -1.9017232107,
				"y": -3.5009773027,
				"z": -4.1538881198,
				"element": "H" 
			},
			{
				"x": -2.812765235,
				"y": -2.1297302432,
				"z": -4.8088562393,
				"element": "H" 
			},
			{
				"x": 1.5285812115,
				"y": -1.122253897,
				"z": -3.9421777119,
				"element": "H" 
			},
			{
				"x": 1.0616648438,
				"y": -0.5610702855,
				"z": -2.3404577978,
				"element": "H" 
			},
			{
				"x": 3.1647624891,
				"y": -1.8125816284,
				"z": -2.2355588526,
				"element": "H" 
			},
			{
				"x": 0.895285514,
				"y": -3.3895430876,
				"z": -0.9371635389,
				"element": "H" 
			},
			{
				"x": 2.5950294865,
				"y": -3.555752609,
				"z": -0.5354530973,
				"element": "H" 
			},
			{
				"x": 1.5289255419,
				"y": -2.0981400037,
				"z": 1.1338146702,
				"element": "H" 
			},
			{
				"x": 0.9079705418,
				"y": -1.0148835059,
				"z": -0.1078333107,
				"element": "H" 
			},
			{
				"x": 2.6503135175,
				"y": -1.1148464008,
				"z": 0.1852792627,
				"element": "H" 
			},
			{
				"x": 1.5963345299,
				"y": -4.2319153029,
				"z": -3.2572058087,
				"element": "H" 
			},
			{
				"x": 3.2491911146,
				"y": -4.2689729435,
				"z": -2.6694000688,
				"element": "H" 
			},
			{
				"x": 3.1277468684,
				"y": -4.346136748,
				"z": -5.1295173439,
				"element": "H" 
			},
			{
				"x": 2.2887131889,
				"y": -2.8149599164,
				"z": -5.198746462,
				"element": "H" 
			},
			{
				"x": 4.3040280317,
				"y": -1.6540747787,
				"z": -4.2503474606,
				"element": "H" 
			},
			{
				"x": 5.1215615249,
				"y": -3.1977141555,
				"z": -4.0885933884,
				"element": "H" 
			},
			{
				"x": 5.8723523499,
				"y": -1.9982893821,
				"z": -6.1603261073,
				"element": "H" 
			},
			{
				"x": 4.2078980674,
				"y": -1.9520476982,
				"z": -6.7562957136,
				"element": "H" 
			},
			{
				"x": 5.0458128596,
				"y": -3.5000967284,
				"z": -6.5974981108,
				"element": "H" 
			}
		],
		 "valence_orbital": [ 
			{
				"type": "occ",
				"energy": -0.30543,
				"method": "rhf"
			},
			{
				"type": "occ",
				"energy": -0.29264,
				"method": "rhf"
			},
			{
				"type": "occ",
				"energy": -0.29112,
				"method": "rhf"
			},
			{
				"type": "occ",
				"energy": -0.26478,
				"method": "rhf"
			},
			{
				"type": "occ",
				"energy": -0.26369,
				"method": "rhf"
			},
			{
				"type": "unocc",
				"energy": 0.01163,
				"method": "rhf"
			},
			{
				"type": "unocc",
				"energy": 0.01722,
				"method": "rhf"
			},
			{
				"type": "unocc",
				"energy": 0.05323,
				"method": "rhf"
			},
			{
				"type": "unocc",
				"energy": 0.08355,
				"method": "rhf"
			},
			{
				"type": "unocc",
				"energy": 0.08585,
				"method": "rhf"
			}
		],
		"cosmo_sigma_profile": { 
			"-0.025": 0.0,
			"-0.024": 0.0,
			"-0.023": 0.0,
			"-0.022": 0.0,
			"-0.021": 0.0,
			"-0.02": 0.0,
			"-0.019": 0.0,
			"-0.018": 0.0,
			"-0.017": 0.0,
			"-0.016": 0.0,
			"-0.015": 0.0,
			"-0.014": 0.0,
			"-0.013": 0.0,
			"-0.012": 0.0,
			"-0.011": 0.0,
			"-0.01": 0.0,
			"-0.009": 0.0,
			"-0.008": 0.0,
			"-0.007": 0.0,
			"-0.006": 1.76866857099,
			"-0.005": 7.2600592242,
			"-0.004": 19.7681050455,
			"-0.003": 53.2056087738,
			"-0.002": 103.12335567,
			"-0.001": 108.973302703,
			"0.0": 99.3815867871,
			"0.001": 84.1144054754,
			"0.002": 37.2338833295,
			"0.003": 9.57878563401,
			"0.004": 7.43323341877,
			"0.005": 6.48889209419,
			"0.006": 7.05308012159,
			"0.007": 4.00140176704,
			"0.008": 2.4849095679,
			"0.009": 3.83081154159,
			"0.01": 3.31684683036,
			"0.011": 4.63516830394,
			"0.012": 7.49529564065,
			"0.013": 3.97088572857,
			"0.014": 0.14512802748,
			"0.015": 0.0,
			"0.016": 0.0,
			"0.017": 0.0,
			"0.018": 0.0,
			"0.019": 0.0,
			"0.02": 0.0,
			"0.021": 0.0,
			"0.022": 0.0,
			"0.023": 0.0,
			"0.024": 0.0,
			"0.025": 0.0
		}
	}
}
