{
	 "smiles": "CC1=NC=CN1C1=NC=CC(=C1)C#N", 
	 "Tm": 468.15, 
	 "num_atms": 22, 
	 "gaussian": { 
		 "optdone": 1, 
		 "sigma_profile": "yes", 
		 "theory": "DFT", 
		 "functional": "B3LYP", 
		 "basiset": "6-31G**", 
		 "properties": { 
			 "R2extent": 3007.7563, 
			 "electric_dipole_moment_norm": 2.62281722772, 
			 "electric_quadrupole_moment_norm": 18.8908981303, 
			 "total_energy": -604.864377828, 
			 "HOMO_LUMO_gap": 0.14372, 
			 "cosmo_polarized_energy": -14.32, 
			 "cosmo_cavitation_energy": 27.63, 
			 "cosmo_dispersion_energy": -19.63, 
			 "cosmo_repulsion_energy": 1.52, 
			 "cosmo_total_nonelectrostatic_energy": 9.53, 
			 "SMD_solvation_energy": 4.14 
		},
		"coords": [
			{
				"x": 2.2334836144,
				"y": -1.3035416752,
				"z": 1.1057486552,
				"element": "C" 
			},
			{
				"x": 0.8733200554,
				"y": -1.0918974739,
				"z": 1.6917039807,
				"element": "C" 
			},
			{
				"x": 0.5705999302,
				"y": -1.4010352101,
				"z": 2.9297981791,
				"element": "N" 
			},
			{
				"x": -0.7428617492,
				"y": -1.0148429054,
				"z": 3.1184974783,
				"element": "C" 
			},
			{
				"x": -1.2478986274,
				"y": -0.4472128939,
				"z": 1.9887042319,
				"element": "C" 
			},
			{
				"x": -0.2187274146,
				"y": -0.5004444778,
				"z": 1.0470867926,
				"element": "N" 
			},
			{
				"x": -0.3385212382,
				"y": 0.0224382445,
				"z": -0.2572166076,
				"element": "C" 
			},
			{
				"x": -1.2795743197,
				"y": 0.9617548443,
				"z": -0.4125543963,
				"element": "N" 
			},
			{
				"x": -1.4516284774,
				"y": 1.4969413149,
				"z": -1.6237402042,
				"element": "C" 
			},
			{
				"x": -0.6990953246,
				"y": 1.1469525895,
				"z": -2.7414225755,
				"element": "C" 
			},
			{
				"x": 0.2698266915,
				"y": 0.147205681,
				"z": -2.5757121998,
				"element": "C" 
			},
			{
				"x": 0.4510393897,
				"y": -0.4406780306,
				"z": -1.3191164155,
				"element": "C" 
			},
			{
				"x": 1.0632025945,
				"y": -0.2905611529,
				"z": -3.689748086,
				"element": "C" 
			},
			{
				"x": 1.705622772,
				"y": -0.642078979,
				"z": -4.5924455166,
				"element": "N" 
			},
			{
				"x": 2.9080426309,
				"y": -1.5186650151,
				"z": 1.9355249192,
				"element": "H" 
			},
			{
				"x": 2.2726423919,
				"y": -2.1581592781,
				"z": 0.4191930757,
				"element": "H" 
			},
			{
				"x": 2.6041254417,
				"y": -0.4224956286,
				"z": 0.5721043798,
				"element": "H" 
			},
			{
				"x": -1.2427775837,
				"y": -1.1684643317,
				"z": 4.0645117576,
				"element": "H" 
			},
			{
				"x": -2.2012034176,
				"y": -0.0146399837,
				"z": 1.7382612109,
				"element": "H" 
			},
			{
				"x": -2.231084249,
				"y": 2.2513903993,
				"z": -1.7031543876,
				"element": "H" 
			},
			{
				"x": -0.8623144612,
				"y": 1.6172028675,
				"z": -3.7036098048,
				"element": "H" 
			},
			{
				"x": 1.1645813506,
				"y": -1.241368905,
				"z": -1.1941144671,
				"element": "H" 
			}
		],
		 "valence_orbital": [ 
			{
				"type": "occ",
				"energy": -0.30887,
				"method": "rhf"
			},
			{
				"type": "occ",
				"energy": -0.29982,
				"method": "rhf"
			},
			{
				"type": "occ",
				"energy": -0.27114,
				"method": "rhf"
			},
			{
				"type": "occ",
				"energy": -0.26366,
				"method": "rhf"
			},
			{
				"type": "occ",
				"energy": -0.22984,
				"method": "rhf"
			},
			{
				"type": "unocc",
				"energy": -0.08612,
				"method": "rhf"
			},
			{
				"type": "unocc",
				"energy": -0.05094,
				"method": "rhf"
			},
			{
				"type": "unocc",
				"energy": 0.01408,
				"method": "rhf"
			},
			{
				"type": "unocc",
				"energy": 0.01877,
				"method": "rhf"
			},
			{
				"type": "unocc",
				"energy": 0.06215,
				"method": "rhf"
			}
		],
		"cosmo_sigma_profile": { 
			"-0.025": 0.0,
			"-0.024": 0.0,
			"-0.023": 0.0,
			"-0.022": 0.0,
			"-0.021": 0.0,
			"-0.02": 0.0,
			"-0.019": 0.0,
			"-0.018": 0.0,
			"-0.017": 0.0,
			"-0.016": 0.0,
			"-0.015": 0.0,
			"-0.014": 0.0,
			"-0.013": 0.0,
			"-0.012": 0.0,
			"-0.011": 0.0175478532727,
			"-0.01": 1.58567874665,
			"-0.009": 4.92221322032,
			"-0.008": 8.16349886808,
			"-0.007": 8.87303833597,
			"-0.006": 13.0218131018,
			"-0.005": 13.5117108158,
			"-0.004": 15.0387757196,
			"-0.003": 18.6291133834,
			"-0.002": 24.052433861,
			"-0.001": 19.3500361028,
			"0.0": 11.5355000824,
			"0.001": 9.08352111292,
			"0.002": 9.27528282139,
			"0.003": 7.24533401723,
			"0.004": 9.67837610291,
			"0.005": 9.03512736853,
			"0.006": 7.26981689365,
			"0.007": 6.3283541287,
			"0.008": 5.6224269343,
			"0.009": 5.01091137038,
			"0.01": 4.72317355894,
			"0.011": 3.97184767303,
			"0.012": 3.08859857017,
			"0.013": 0.731754085715,
			"0.014": 0.961484102019,
			"0.015": 1.05206033174,
			"0.016": 1.08612571018,
			"0.017": 0.687934860105,
			"0.018": 0.412171974042,
			"0.019": 0.0,
			"0.02": 0.0,
			"0.021": 0.0,
			"0.022": 0.0,
			"0.023": 0.0,
			"0.024": 0.0,
			"0.025": 0.0
		}
	}
}
