{
	 "smiles": "CC(=O)OCC(COC(C)=O)(COC(C)=O)COC(C)=O", 
	 "Tm": 356.65, 
	 "num_atms": 41, 
	 "gaussian": { 
		 "optdone": 1, 
		 "sigma_profile": "yes", 
		 "theory": "DFT", 
		 "functional": "B3LYP", 
		 "basiset": "6-31G**", 
		 "properties": { 
			 "R2extent": 7555.6703, 
			 "electric_dipole_moment_norm": 3.8974631775, 
			 "electric_quadrupole_moment_norm": 32.226100447, 
			 "total_energy": -1109.27645312, 
			 "HOMO_LUMO_gap": 0.27508, 
			 "cosmo_polarized_energy": -21.89, 
			 "cosmo_cavitation_energy": 45.58, 
			 "cosmo_dispersion_energy": -28.4, 
			 "cosmo_repulsion_energy": 2.24, 
			 "cosmo_total_nonelectrostatic_energy": 19.42, 
			 "SMD_solvation_energy": 12.2 
		},
		"coords": [
			{
				"x": -2.1908190752,
				"y": -3.6686216802,
				"z": -1.4657534555,
				"element": "C" 
			},
			{
				"x": -1.2611699379,
				"y": -2.6309356781,
				"z": -2.0459456275,
				"element": "C" 
			},
			{
				"x": -0.6053671022,
				"y": -2.7616147838,
				"z": -3.055630044,
				"element": "O" 
			},
			{
				"x": -1.2598661695,
				"y": -1.5152927401,
				"z": -1.2734782326,
				"element": "O" 
			},
			{
				"x": -0.4225609149,
				"y": -0.4192704174,
				"z": -1.6898392658,
				"element": "C" 
			},
			{
				"x": 0.9113115692,
				"y": -0.3720711682,
				"z": -0.9172946099,
				"element": "C" 
			},
			{
				"x": 0.6772062965,
				"y": -0.3200728246,
				"z": 0.5993939354,
				"element": "C" 
			},
			{
				"x": -0.1005205245,
				"y": 0.8503501999,
				"z": 0.9151835644,
				"element": "O" 
			},
			{
				"x": -0.3738084236,
				"y": 1.0330802726,
				"z": 2.2295239228,
				"element": "C" 
			},
			{
				"x": -1.2132817294,
				"y": 2.2714530053,
				"z": 2.4351023925,
				"element": "C" 
			},
			{
				"x": 0.0122568413,
				"y": 0.2870018282,
				"z": 3.1018384273,
				"element": "O" 
			},
			{
				"x": 1.7357347522,
				"y": 0.8408210752,
				"z": -1.4223119619,
				"element": "C" 
			},
			{
				"x": 1.002731479,
				"y": 2.0783875026,
				"z": -1.4430368442,
				"element": "O" 
			},
			{
				"x": 0.6399032514,
				"y": 2.5707193294,
				"z": -2.6584379208,
				"element": "C" 
			},
			{
				"x": -0.0408553057,
				"y": 3.9080446209,
				"z": -2.499595075,
				"element": "C" 
			},
			{
				"x": 0.8447136116,
				"y": 2.0051908796,
				"z": -3.7090760519,
				"element": "O" 
			},
			{
				"x": 1.8174614427,
				"y": -1.5813245212,
				"z": -1.2336894255,
				"element": "C" 
			},
			{
				"x": 1.3368450094,
				"y": -2.756373398,
				"z": -0.5520775419,
				"element": "O" 
			},
			{
				"x": 2.1838655186,
				"y": -3.8205626697,
				"z": -0.5594202277,
				"element": "C" 
			},
			{
				"x": 1.5576936515,
				"y": -5.0110173927,
				"z": 0.124452019,
				"element": "C" 
			},
			{
				"x": 3.2829126306,
				"y": -3.7905755793,
				"z": -1.0635572618,
				"element": "O" 
			},
			{
				"x": -2.253281205,
				"y": -4.5205492884,
				"z": -2.1421618614,
				"element": "H" 
			},
			{
				"x": -3.1841381914,
				"y": -3.2419086048,
				"z": -1.3024202364,
				"element": "H" 
			},
			{
				"x": -1.8110162384,
				"y": -3.9932465166,
				"z": -0.4921058709,
				"element": "H" 
			},
			{
				"x": -0.9996440476,
				"y": 0.4774121104,
				"z": -1.4627789682,
				"element": "H" 
			},
			{
				"x": -0.2403615424,
				"y": -0.4822801428,
				"z": -2.7643174306,
				"element": "H" 
			},
			{
				"x": 1.6299942719,
				"y": -0.2776729936,
				"z": 1.1390837569,
				"element": "H" 
			},
			{
				"x": 0.1421959495,
				"y": -1.2087819215,
				"z": 0.9360596833,
				"element": "H" 
			},
			{
				"x": -2.1941656542,
				"y": 2.135926012,
				"z": 1.9686452922,
				"element": "H" 
			},
			{
				"x": -0.7396997969,
				"y": 3.1335656654,
				"z": 1.9575042672,
				"element": "H" 
			},
			{
				"x": -1.3376451686,
				"y": 2.4519295863,
				"z": 3.5022992668,
				"element": "H" 
			},
			{
				"x": 2.1078787706,
				"y": 0.6430214551,
				"z": -2.4309742785,
				"element": "H" 
			},
			{
				"x": 2.5823773034,
				"y": 1.0081512038,
				"z": -0.7500955586,
				"element": "H" 
			},
			{
				"x": -0.8764164275,
				"y": 3.826230198,
				"z": -1.7988925172,
				"element": "H" 
			},
			{
				"x": 0.6637277514,
				"y": 4.6342661224,
				"z": -2.0828140822,
				"element": "H" 
			},
			{
				"x": -0.3948381366,
				"y": 4.2525489512,
				"z": -3.4705167169,
				"element": "H" 
			},
			{
				"x": 2.8460472463,
				"y": -1.3908988378,
				"z": -0.9088852279,
				"element": "H" 
			},
			{
				"x": 1.8304035753,
				"y": -1.7773688341,
				"z": -2.3092612297,
				"element": "H" 
			},
			{
				"x": 0.7546669734,
				"y": -5.4098721652,
				"z": -0.5039352134,
				"element": "H" 
			},
			{
				"x": 2.3141313128,
				"y": -5.7812998048,
				"z": 0.2713503629,
				"element": "H" 
			},
			{
				"x": 1.1184963827,
				"y": -4.7209880551,
				"z": 1.0824658469,
				"element": "H" 
			}
		],
		 "valence_orbital": [ 
			{
				"type": "occ",
				"energy": -0.29323,
				"method": "rhf"
			},
			{
				"type": "occ",
				"energy": -0.28295,
				"method": "rhf"
			},
			{
				"type": "occ",
				"energy": -0.27648,
				"method": "rhf"
			},
			{
				"type": "occ",
				"energy": -0.27519,
				"method": "rhf"
			},
			{
				"type": "occ",
				"energy": -0.27386,
				"method": "rhf"
			},
			{
				"type": "unocc",
				"energy": 0.00122,
				"method": "rhf"
			},
			{
				"type": "unocc",
				"energy": 0.00467,
				"method": "rhf"
			},
			{
				"type": "unocc",
				"energy": 0.00884,
				"method": "rhf"
			},
			{
				"type": "unocc",
				"energy": 0.01123,
				"method": "rhf"
			},
			{
				"type": "unocc",
				"energy": 0.07332,
				"method": "rhf"
			}
		],
		"cosmo_sigma_profile": { 
			"-0.025": 0.0,
			"-0.024": 0.0,
			"-0.023": 0.0,
			"-0.022": 0.0,
			"-0.021": 0.0,
			"-0.02": 0.0,
			"-0.019": 0.0,
			"-0.018": 0.0,
			"-0.017": 0.0,
			"-0.016": 0.0,
			"-0.015": 0.0,
			"-0.014": 0.0,
			"-0.013": 0.0,
			"-0.012": 0.0,
			"-0.011": 0.0,
			"-0.01": 0.0300231323245,
			"-0.009": 1.05076284372,
			"-0.008": 3.55622329205,
			"-0.007": 10.8193170848,
			"-0.006": 28.1650794883,
			"-0.005": 30.2777761388,
			"-0.004": 34.0162886728,
			"-0.003": 41.0088178037,
			"-0.002": 42.1091814216,
			"-0.001": 28.9124625779,
			"0.0": 14.2109066644,
			"0.001": 14.105469474,
			"0.002": 12.233687139,
			"0.003": 12.1299476794,
			"0.004": 9.07838375711,
			"0.005": 7.51292776901,
			"0.006": 8.26546661408,
			"0.007": 6.36414174963,
			"0.008": 8.39936474663,
			"0.009": 6.11431151153,
			"0.01": 9.26841814108,
			"0.011": 12.2464252631,
			"0.012": 14.3535011655,
			"0.013": 3.30760632222,
			"0.014": 0.0178285901907,
			"0.015": 0.0,
			"0.016": 0.0,
			"0.017": 0.0,
			"0.018": 0.0,
			"0.019": 0.0,
			"0.02": 0.0,
			"0.021": 0.0,
			"0.022": 0.0,
			"0.023": 0.0,
			"0.024": 0.0,
			"0.025": 0.0
		}
	}
}
