{
	 "smiles": "NC(=O)NC(=O)CC1=CC=CC=C1", 
	 "Tm": 488.15, 
	 "num_atms": 23, 
	 "gaussian": { 
		 "optdone": 1, 
		 "sigma_profile": "yes", 
		 "theory": "DFT", 
		 "functional": "B3LYP", 
		 "basiset": "6-31G**", 
		 "properties": { 
			 "R2extent": 3059.297, 
			 "electric_dipole_moment_norm": 4.3313056057, 
			 "electric_quadrupole_moment_norm": 14.0011763706, 
			 "total_energy": -608.973250926, 
			 "HOMO_LUMO_gap": 0.22752, 
			 "cosmo_polarized_energy": -15.54, 
			 "cosmo_cavitation_energy": 27.03, 
			 "cosmo_dispersion_energy": -19.51, 
			 "cosmo_repulsion_energy": 1.56, 
			 "cosmo_total_nonelectrostatic_energy": 9.07, 
			 "SMD_solvation_energy": 6.11 
		},
		"coords": [
			{
				"x": 0.0730169235,
				"y": 0.8409856035,
				"z": -2.4756696315,
				"element": "N" 
			},
			{
				"x": -0.4701507871,
				"y": -0.0738098377,
				"z": -3.3449925989,
				"element": "C" 
			},
			{
				"x": -0.5281104128,
				"y": 0.0924510709,
				"z": -4.5510856161,
				"element": "O" 
			},
			{
				"x": -0.9778376136,
				"y": -1.264125388,
				"z": -2.7812363518,
				"element": "N" 
			},
			{
				"x": -0.7893144137,
				"y": -1.9732266059,
				"z": -1.5965159307,
				"element": "C" 
			},
			{
				"x": -1.4089740272,
				"y": -3.0123700478,
				"z": -1.4313628829,
				"element": "O" 
			},
			{
				"x": 0.1819995937,
				"y": -1.4578222387,
				"z": -0.5406069633,
				"element": "C" 
			},
			{
				"x": -0.4812285147,
				"y": -0.5464468521,
				"z": 0.4856647759,
				"element": "C" 
			},
			{
				"x": 0.1671956837,
				"y": 0.6168867602,
				"z": 0.9243712839,
				"element": "C" 
			},
			{
				"x": -0.4201381285,
				"y": 1.441521657,
				"z": 1.8881294536,
				"element": "C" 
			},
			{
				"x": -1.6650586259,
				"y": 1.1129526372,
				"z": 2.4235306078,
				"element": "C" 
			},
			{
				"x": -2.317021706,
				"y": -0.046102016,
				"z": 1.9938542448,
				"element": "C" 
			},
			{
				"x": -1.7316767776,
				"y": -0.8704925146,
				"z": 1.0338846666,
				"element": "C" 
			},
			{
				"x": 0.2888000807,
				"y": 1.7199736203,
				"z": -2.9244753693,
				"element": "H" 
			},
			{
				"x": -0.2855247963,
				"y": 0.9078774643,
				"z": -1.5318955979,
				"element": "H" 
			},
			{
				"x": -1.5289489494,
				"y": -1.7851216556,
				"z": -3.4543390493,
				"element": "H" 
			},
			{
				"x": 1.0331287974,
				"y": -0.9514713784,
				"z": -1.0009551034,
				"element": "H" 
			},
			{
				"x": 0.5504810652,
				"y": -2.3602575487,
				"z": -0.0427504538,
				"element": "H" 
			},
			{
				"x": 1.1446399697,
				"y": 0.870757005,
				"z": 0.5205039963,
				"element": "H" 
			},
			{
				"x": 0.0984095268,
				"y": 2.3368940882,
				"z": 2.2189052071,
				"element": "H" 
			},
			{
				"x": -2.124207261,
				"y": 1.7526077444,
				"z": 3.1714769019,
				"element": "H" 
			},
			{
				"x": -3.285406768,
				"y": -0.3102671352,
				"z": 2.4090122711,
				"element": "H" 
			},
			{
				"x": -2.2374728587,
				"y": -1.7734944322,
				"z": 0.7053521398,
				"element": "H" 
			}
		],
		 "valence_orbital": [ 
			{
				"type": "occ",
				"energy": -0.28735,
				"method": "rhf"
			},
			{
				"type": "occ",
				"energy": -0.27889,
				"method": "rhf"
			},
			{
				"type": "occ",
				"energy": -0.26646,
				"method": "rhf"
			},
			{
				"type": "occ",
				"energy": -0.26256,
				"method": "rhf"
			},
			{
				"type": "occ",
				"energy": -0.2529,
				"method": "rhf"
			},
			{
				"type": "unocc",
				"energy": -0.02538,
				"method": "rhf"
			},
			{
				"type": "unocc",
				"energy": -0.01958,
				"method": "rhf"
			},
			{
				"type": "unocc",
				"energy": -0.00827,
				"method": "rhf"
			},
			{
				"type": "unocc",
				"energy": 0.05355,
				"method": "rhf"
			},
			{
				"type": "unocc",
				"energy": 0.08055,
				"method": "rhf"
			}
		],
		"cosmo_sigma_profile": { 
			"-0.025": 0.0,
			"-0.024": 0.0,
			"-0.023": 0.0,
			"-0.022": 0.0,
			"-0.021": 0.0,
			"-0.02": 0.0,
			"-0.019": 0.0,
			"-0.018": 0.0,
			"-0.017": 0.0,
			"-0.016": 0.0,
			"-0.015": 0.160184535585,
			"-0.014": 1.91788358897,
			"-0.013": 1.80758715887,
			"-0.012": 1.82827565611,
			"-0.011": 1.86841563661,
			"-0.01": 2.56792356786,
			"-0.009": 3.5136518457,
			"-0.008": 2.43920523407,
			"-0.007": 3.29874642238,
			"-0.006": 13.1557958143,
			"-0.005": 17.0075206166,
			"-0.004": 20.7139560336,
			"-0.003": 16.6086366862,
			"-0.002": 13.4923475078,
			"-0.001": 13.3612982349,
			"0.0": 12.1621029937,
			"0.001": 10.3306918509,
			"0.002": 10.5690996133,
			"0.003": 11.1168705511,
			"0.004": 10.9501152814,
			"0.005": 11.2391562266,
			"0.006": 3.54281521705,
			"0.007": 2.65430106514,
			"0.008": 2.14891627645,
			"0.009": 2.36778472093,
			"0.01": 2.84763144573,
			"0.011": 4.16618740094,
			"0.012": 8.57407559576,
			"0.013": 7.63111043984,
			"0.014": 0.863570518935,
			"0.015": 0.0,
			"0.016": 0.0,
			"0.017": 0.0,
			"0.018": 0.0,
			"0.019": 0.0,
			"0.02": 0.0,
			"0.021": 0.0,
			"0.022": 0.0,
			"0.023": 0.0,
			"0.024": 0.0,
			"0.025": 0.0
		}
	}
}
