{
	 "smiles": "CCOC(=O)C1=CNC=C(C)C1=O", 
	 "Tm": 499.15, 
	 "num_atms": 24, 
	 "gaussian": { 
		 "optdone": 1, 
		 "sigma_profile": "yes", 
		 "theory": "DFT", 
		 "functional": "B3LYP", 
		 "basiset": "6-31G**", 
		 "properties": { 
			 "R2extent": 2933.6473, 
			 "electric_dipole_moment_norm": 4.8580962897, 
			 "electric_quadrupole_moment_norm": 20.3311559507, 
			 "total_energy": -630.023958901, 
			 "HOMO_LUMO_gap": 0.18283, 
			 "cosmo_polarized_energy": -23.42, 
			 "cosmo_cavitation_energy": 28.34, 
			 "cosmo_dispersion_energy": -20.61, 
			 "cosmo_repulsion_energy": 1.65, 
			 "cosmo_total_nonelectrostatic_energy": 9.38, 
			 "SMD_solvation_energy": 7.04 
		},
		"coords": [
			{
				"x": 0.3622840914,
				"y": -2.6716134601,
				"z": -3.2425690199,
				"element": "C" 
			},
			{
				"x": -0.7625248891,
				"y": -2.5437787708,
				"z": -2.232767408,
				"element": "C" 
			},
			{
				"x": -0.3737050449,
				"y": -1.5226957924,
				"z": -1.2882547574,
				"element": "O" 
			},
			{
				"x": -1.2526981544,
				"y": -1.2678936252,
				"z": -0.3109673433,
				"element": "C" 
			},
			{
				"x": -2.3232298779,
				"y": -1.8493766092,
				"z": -0.2037326949,
				"element": "O" 
			},
			{
				"x": -0.8080489728,
				"y": -0.2076505195,
				"z": 0.6385954717,
				"element": "C" 
			},
			{
				"x": -1.7036963131,
				"y": 0.0581056537,
				"z": 1.6407387415,
				"element": "C" 
			},
			{
				"x": -1.4646661151,
				"y": 0.9917858396,
				"z": 2.5925454401,
				"element": "N" 
			},
			{
				"x": -0.2937553325,
				"y": 1.725541271,
				"z": 2.5946858276,
				"element": "C" 
			},
			{
				"x": 0.6556032649,
				"y": 1.5376645426,
				"z": 1.6463110597,
				"element": "C" 
			},
			{
				"x": 1.9350325359,
				"y": 2.3201797645,
				"z": 1.6252327813,
				"element": "C" 
			},
			{
				"x": 0.4686622504,
				"y": 0.5329451312,
				"z": 0.5688879248,
				"element": "C" 
			},
			{
				"x": 1.3413672146,
				"y": 0.3739863633,
				"z": -0.2858897281,
				"element": "O" 
			},
			{
				"x": 1.296448799,
				"y": -2.9549899753,
				"z": -2.7500450903,
				"element": "H" 
			},
			{
				"x": 0.5262904758,
				"y": -1.7245058893,
				"z": -3.7637550251,
				"element": "H" 
			},
			{
				"x": 0.1120475511,
				"y": -3.4382069075,
				"z": -3.9829759772,
				"element": "H" 
			},
			{
				"x": -1.708282511,
				"y": -2.2527092133,
				"z": -2.7015824882,
				"element": "H" 
			},
			{
				"x": -0.9411009556,
				"y": -3.4788973472,
				"z": -1.6918199005,
				"element": "H" 
			},
			{
				"x": -2.6412861602,
				"y": -0.4834546423,
				"z": 1.6948654996,
				"element": "H" 
			},
			{
				"x": -2.1529966629,
				"y": 1.1536299874,
				"z": 3.3115432255,
				"element": "H" 
			},
			{
				"x": -0.1966100594,
				"y": 2.448191843,
				"z": 3.3980460082,
				"element": "H" 
			},
			{
				"x": 1.9905753229,
				"y": 3.0351204962,
				"z": 2.4510069841,
				"element": "H" 
			},
			{
				"x": 2.7944797216,
				"y": 1.6438379504,
				"z": 1.678443419,
				"element": "H" 
			},
			{
				"x": 2.0347098212,
				"y": 2.8591839094,
				"z": 0.6773570498,
				"element": "H" 
			}
		],
		 "valence_orbital": [ 
			{
				"type": "occ",
				"energy": -0.28651,
				"method": "rhf"
			},
			{
				"type": "occ",
				"energy": -0.27535,
				"method": "rhf"
			},
			{
				"type": "occ",
				"energy": -0.26386,
				"method": "rhf"
			},
			{
				"type": "occ",
				"energy": -0.22333,
				"method": "rhf"
			},
			{
				"type": "occ",
				"energy": -0.22136,
				"method": "rhf"
			},
			{
				"type": "unocc",
				"energy": -0.03853,
				"method": "rhf"
			},
			{
				"type": "unocc",
				"energy": -0.01701,
				"method": "rhf"
			},
			{
				"type": "unocc",
				"energy": 0.04331,
				"method": "rhf"
			},
			{
				"type": "unocc",
				"energy": 0.05523,
				"method": "rhf"
			},
			{
				"type": "unocc",
				"energy": 0.11005,
				"method": "rhf"
			}
		],
		"cosmo_sigma_profile": { 
			"-0.025": 0.0,
			"-0.024": 0.0,
			"-0.023": 0.0,
			"-0.022": 0.0,
			"-0.021": 0.0,
			"-0.02": 0.0,
			"-0.019": 0.0,
			"-0.018": 0.728961073313,
			"-0.017": 2.71335217978,
			"-0.016": 1.8733251137,
			"-0.015": 1.61726534357,
			"-0.014": 0.979588200717,
			"-0.013": 1.59479678741,
			"-0.012": 1.01957955817,
			"-0.011": 1.83901953057,
			"-0.01": 2.03783305462,
			"-0.009": 3.40856932182,
			"-0.008": 3.85004465207,
			"-0.007": 2.87241326822,
			"-0.006": 3.86854154951,
			"-0.005": 8.38645384568,
			"-0.004": 17.2069104823,
			"-0.003": 19.8879304046,
			"-0.002": 19.3543965499,
			"-0.001": 21.9646396666,
			"0.0": 30.1354339408,
			"0.001": 18.4442444029,
			"0.002": 7.52141528171,
			"0.003": 4.19077669888,
			"0.004": 4.25332981573,
			"0.005": 3.85952944753,
			"0.006": 2.85797592733,
			"0.007": 3.64373724554,
			"0.008": 3.40518186028,
			"0.009": 2.94853443668,
			"0.01": 2.87452263203,
			"0.011": 3.92290329608,
			"0.012": 5.85713220192,
			"0.013": 3.37824146306,
			"0.014": 3.41143270821,
			"0.015": 5.08688134878,
			"0.016": 2.78384093039,
			"0.017": 0.414736162557,
			"0.018": 0.0,
			"0.019": 0.0,
			"0.02": 0.0,
			"0.021": 0.0,
			"0.022": 0.0,
			"0.023": 0.0,
			"0.024": 0.0,
			"0.025": 0.0
		}
	}
}
