{
	 "smiles": "OC(=O)C1CC=CCC1NC(=O)OCC1=CC=CC=C1", 
	 "Tm": 394.15, 
	 "num_atms": 37, 
	 "gaussian": { 
		 "optdone": 1, 
		 "sigma_profile": "yes", 
		 "theory": "DFT", 
		 "functional": "B3LYP", 
		 "basiset": "6-31G**", 
		 "properties": { 
			 "R2extent": 7457.7871, 
			 "electric_dipole_moment_norm": 1.93389067943, 
			 "electric_quadrupole_moment_norm": 17.1851200697, 
			 "total_energy": -937.514091887, 
			 "HOMO_LUMO_gap": 0.2352, 
			 "cosmo_polarized_energy": -16.78, 
			 "cosmo_cavitation_energy": 40.57, 
			 "cosmo_dispersion_energy": -28.05, 
			 "cosmo_repulsion_energy": 2.2, 
			 "cosmo_total_nonelectrostatic_energy": 14.73, 
			 "SMD_solvation_energy": 8.17 
		},
		"coords": [
			{
				"x": -3.3369543416,
				"y": 0.1865115747,
				"z": 2.3118482718,
				"element": "O" 
			},
			{
				"x": -2.4991709304,
				"y": -0.5126050658,
				"z": 3.1279610118,
				"element": "C" 
			},
			{
				"x": -2.7865665277,
				"y": -0.7304381417,
				"z": 4.2823133654,
				"element": "O" 
			},
			{
				"x": -1.2458722996,
				"y": -1.0178625402,
				"z": 2.413270331,
				"element": "C" 
			},
			{
				"x": -0.1346523507,
				"y": -1.2857460149,
				"z": 3.4458601601,
				"element": "C" 
			},
			{
				"x": 0.5853468106,
				"y": -0.0170844693,
				"z": 3.8353703644,
				"element": "C" 
			},
			{
				"x": 0.502104265,
				"y": 1.1264844699,
				"z": 3.1481539686,
				"element": "C" 
			},
			{
				"x": -0.2880021365,
				"y": 1.2729756018,
				"z": 1.8706584752,
				"element": "C" 
			},
			{
				"x": -0.693213348,
				"y": -0.0972918536,
				"z": 1.2961796734,
				"element": "C" 
			},
			{
				"x": -1.5876297467,
				"y": 0.0015462761,
				"z": 0.1514385051,
				"element": "N" 
			},
			{
				"x": -1.225067593,
				"y": 0.0193306382,
				"z": -1.1644301993,
				"element": "C" 
			},
			{
				"x": -1.9969256479,
				"y": 0.2193010166,
				"z": -2.0864290802,
				"element": "O" 
			},
			{
				"x": 0.1058006183,
				"y": -0.2320315643,
				"z": -1.3247171495,
				"element": "O" 
			},
			{
				"x": 0.5524378228,
				"y": -0.2875914772,
				"z": -2.6978414172,
				"element": "C" 
			},
			{
				"x": 2.0587859618,
				"y": -0.2768735393,
				"z": -2.7077949775,
				"element": "C" 
			},
			{
				"x": 2.7760413848,
				"y": -1.3361528413,
				"z": -3.2724253554,
				"element": "C" 
			},
			{
				"x": 4.1724467509,
				"y": -1.3129250221,
				"z": -3.3069934553,
				"element": "C" 
			},
			{
				"x": 4.8656011959,
				"y": -0.2301586416,
				"z": -2.7665103243,
				"element": "C" 
			},
			{
				"x": 4.1573483164,
				"y": 0.8308435577,
				"z": -2.1945009729,
				"element": "C" 
			},
			{
				"x": 2.7644032333,
				"y": 0.8084627323,
				"z": -2.1693506147,
				"element": "C" 
			},
			{
				"x": -4.1096750948,
				"y": 0.4207207813,
				"z": 2.8537570656,
				"element": "H" 
			},
			{
				"x": -1.5507996727,
				"y": -1.9642376553,
				"z": 1.9454536418,
				"element": "H" 
			},
			{
				"x": -0.574613671,
				"y": -1.7516227696,
				"z": 4.3326854792,
				"element": "H" 
			},
			{
				"x": 0.5787843344,
				"y": -2.011838256,
				"z": 3.0320422966,
				"element": "H" 
			},
			{
				"x": 1.1932738512,
				"y": -0.0585435965,
				"z": 4.7368246675,
				"element": "H" 
			},
			{
				"x": 1.0310357567,
				"y": 2.0079313103,
				"z": 3.5055090242,
				"element": "H" 
			},
			{
				"x": 0.3047261963,
				"y": 1.8071067107,
				"z": 1.1176118576,
				"element": "H" 
			},
			{
				"x": -1.1840969377,
				"y": 1.8877190658,
				"z": 2.0384306186,
				"element": "H" 
			},
			{
				"x": 0.2128319029,
				"y": -0.5860149074,
				"z": 0.93201101,
				"element": "H" 
			},
			{
				"x": -2.5443060789,
				"y": 0.2757769191,
				"z": 0.322620393,
				"element": "H" 
			},
			{
				"x": 0.1585910484,
				"y": -1.1939179206,
				"z": -3.168918797,
				"element": "H" 
			},
			{
				"x": 0.1322557919,
				"y": 0.5689823892,
				"z": -3.233588307,
				"element": "H" 
			},
			{
				"x": 2.2386494516,
				"y": -2.1848386694,
				"z": -3.688223977,
				"element": "H" 
			},
			{
				"x": 4.7158328554,
				"y": -2.1421011337,
				"z": -3.751058277,
				"element": "H" 
			},
			{
				"x": 5.9514446209,
				"y": -0.2107153431,
				"z": -2.7896300944,
				"element": "H" 
			},
			{
				"x": 4.6924225202,
				"y": 1.6770008214,
				"z": -1.7726600457,
				"element": "H" 
			},
			{
				"x": 2.2147816876,
				"y": 1.6337975575,
				"z": -1.7249271367,
				"element": "H" 
			}
		],
		 "valence_orbital": [ 
			{
				"type": "occ",
				"energy": -0.26693,
				"method": "rhf"
			},
			{
				"type": "occ",
				"energy": -0.25301,
				"method": "rhf"
			},
			{
				"type": "occ",
				"energy": -0.25029,
				"method": "rhf"
			},
			{
				"type": "occ",
				"energy": -0.24668,
				"method": "rhf"
			},
			{
				"type": "occ",
				"energy": -0.24511,
				"method": "rhf"
			},
			{
				"type": "unocc",
				"energy": -0.00991,
				"method": "rhf"
			},
			{
				"type": "unocc",
				"energy": -0.0042,
				"method": "rhf"
			},
			{
				"type": "unocc",
				"energy": -0.00299,
				"method": "rhf"
			},
			{
				"type": "unocc",
				"energy": 0.01943,
				"method": "rhf"
			},
			{
				"type": "unocc",
				"energy": 0.05979,
				"method": "rhf"
			}
		],
		"cosmo_sigma_profile": { 
			"-0.025": 0.0,
			"-0.024": 0.0,
			"-0.023": 0.0,
			"-0.022": 0.0,
			"-0.021": 0.0,
			"-0.02": 0.0,
			"-0.019": 0.0887580393629,
			"-0.018": 1.02864347678,
			"-0.017": 0.942509067533,
			"-0.016": 0.696156001638,
			"-0.015": 0.653711083201,
			"-0.014": 0.776908112852,
			"-0.013": 0.628065405236,
			"-0.012": 0.52822638994,
			"-0.011": 1.19669086145,
			"-0.01": 0.869419628202,
			"-0.009": 0.383062272825,
			"-0.008": 1.39262406146,
			"-0.007": 3.99635931191,
			"-0.006": 13.0306791552,
			"-0.005": 24.4537722207,
			"-0.004": 30.3389838018,
			"-0.003": 32.2204551991,
			"-0.002": 30.2779436579,
			"-0.001": 29.5761659218,
			"0.0": 21.5479626078,
			"0.001": 18.4075598506,
			"0.002": 15.1547543393,
			"0.003": 15.7532693939,
			"0.004": 14.8787622875,
			"0.005": 16.2932065383,
			"0.006": 13.3759200959,
			"0.007": 3.88029216348,
			"0.008": 3.54266590468,
			"0.009": 2.35621270321,
			"0.01": 3.70848788552,
			"0.011": 6.39617525571,
			"0.012": 3.73279934501,
			"0.013": 5.0859091058,
			"0.014": 3.23125755619,
			"0.015": 0.0242587570931,
			"0.016": 0.0,
			"0.017": 0.0,
			"0.018": 0.0,
			"0.019": 0.0,
			"0.02": 0.0,
			"0.021": 0.0,
			"0.022": 0.0,
			"0.023": 0.0,
			"0.024": 0.0,
			"0.025": 0.0
		}
	}
}
