{
	 "smiles": "OC(=O)C1=CC=C2C(=C1)C(=O)C1=C2C=CC=C1", 
	 "Tm": 614.15, 
	 "num_atms": 25, 
	 "gaussian": { 
		 "optdone": 1, 
		 "sigma_profile": "yes", 
		 "theory": "DFT", 
		 "functional": "B3LYP", 
		 "basiset": "6-31G**", 
		 "properties": { 
			 "R2extent": 5594.5657, 
			 "electric_dipole_moment_norm": 5.5475822139, 
			 "electric_quadrupole_moment_norm": 23.6011669294, 
			 "total_energy": -763.999742411, 
			 "HOMO_LUMO_gap": 0.14508, 
			 "cosmo_polarized_energy": -17.42, 
			 "cosmo_cavitation_energy": 30.59, 
			 "cosmo_dispersion_energy": -22.31, 
			 "cosmo_repulsion_energy": 1.67, 
			 "cosmo_total_nonelectrostatic_energy": 9.95, 
			 "SMD_solvation_energy": 6.43 
		},
		"coords": [
			{
				"x": 2.6256379483,
				"y": -1.1333647786,
				"z": -5.314923432,
				"element": "O" 
			},
			{
				"x": 1.39693097,
				"y": -1.5964879964,
				"z": -4.9666947309,
				"element": "C" 
			},
			{
				"x": 0.6946122238,
				"y": -2.1266023706,
				"z": -5.7958758072,
				"element": "O" 
			},
			{
				"x": 0.9814264445,
				"y": -1.4149806776,
				"z": -3.5369779003,
				"element": "C" 
			},
			{
				"x": -0.1028539634,
				"y": -2.182785958,
				"z": -3.0814483755,
				"element": "C" 
			},
			{
				"x": -0.5715054021,
				"y": -2.0848586793,
				"z": -1.7680130353,
				"element": "C" 
			},
			{
				"x": 0.0516858617,
				"y": -1.188427027,
				"z": -0.9036465523,
				"element": "C" 
			},
			{
				"x": 1.12699722,
				"y": -0.4041466901,
				"z": -1.3658338993,
				"element": "C" 
			},
			{
				"x": 1.5983387086,
				"y": -0.501165849,
				"z": -2.6631801526,
				"element": "C" 
			},
			{
				"x": 1.6024625572,
				"y": 0.4814288779,
				"z": -0.2517486187,
				"element": "C" 
			},
			{
				"x": 2.5128331042,
				"y": 1.2895125445,
				"z": -0.2920190168,
				"element": "O" 
			},
			{
				"x": 0.7175224268,
				"y": 0.14781537,
				"z": 0.909567706,
				"element": "C" 
			},
			{
				"x": -0.2022832087,
				"y": -0.8465586132,
				"z": 0.5161595803,
				"element": "C" 
			},
			{
				"x": -1.1377549413,
				"y": -1.3283476797,
				"z": 1.4247479685,
				"element": "C" 
			},
			{
				"x": -1.1368222866,
				"y": -0.8018315994,
				"z": 2.7253656854,
				"element": "C" 
			},
			{
				"x": -0.2221457381,
				"y": 0.1836123056,
				"z": 3.1093416359,
				"element": "C" 
			},
			{
				"x": 0.7213018777,
				"y": 0.6700798441,
				"z": 2.1944667308,
				"element": "C" 
			},
			{
				"x": 3.1282610557,
				"y": -0.8734951901,
				"z": -4.5307635047,
				"element": "H" 
			},
			{
				"x": -0.5707851823,
				"y": -2.860369622,
				"z": -3.7876378336,
				"element": "H" 
			},
			{
				"x": -1.4072532847,
				"y": -2.6970502398,
				"z": -1.4426568557,
				"element": "H" 
			},
			{
				"x": 2.4079196293,
				"y": 0.1554232305,
				"z": -2.9742599552,
				"element": "H" 
			},
			{
				"x": -1.8560687556,
				"y": -2.0935360693,
				"z": 1.1452747988,
				"element": "H" 
			},
			{
				"x": -1.8613013576,
				"y": -1.1675783024,
				"z": 3.4472091401,
				"element": "H" 
			},
			{
				"x": -0.2455313188,
				"y": 0.572450075,
				"z": 4.1227627497,
				"element": "H" 
			},
			{
				"x": 1.4403754114,
				"y": 1.4351650949,
				"z": 2.4713836746,
				"element": "H" 
			}
		],
		 "valence_orbital": [ 
			{
				"type": "occ",
				"energy": -0.28367,
				"method": "rhf"
			},
			{
				"type": "occ",
				"energy": -0.27881,
				"method": "rhf"
			},
			{
				"type": "occ",
				"energy": -0.27585,
				"method": "rhf"
			},
			{
				"type": "occ",
				"energy": -0.26435,
				"method": "rhf"
			},
			{
				"type": "occ",
				"energy": -0.24557,
				"method": "rhf"
			},
			{
				"type": "unocc",
				"energy": -0.10049,
				"method": "rhf"
			},
			{
				"type": "unocc",
				"energy": -0.06676,
				"method": "rhf"
			},
			{
				"type": "unocc",
				"energy": -0.02073,
				"method": "rhf"
			},
			{
				"type": "unocc",
				"energy": -0.01254,
				"method": "rhf"
			},
			{
				"type": "unocc",
				"energy": 0.03457,
				"method": "rhf"
			}
		],
		"cosmo_sigma_profile": { 
			"-0.025": 0.0,
			"-0.024": 0.0,
			"-0.023": 0.0,
			"-0.022": 0.0,
			"-0.021": 0.0,
			"-0.02": 0.0,
			"-0.019": 0.463158550453,
			"-0.018": 0.947053385944,
			"-0.017": 1.13391329906,
			"-0.016": 1.04778473259,
			"-0.015": 1.2263226008,
			"-0.014": 1.02402829047,
			"-0.013": 0.565024835338,
			"-0.012": 1.53299068289,
			"-0.011": 1.19884362195,
			"-0.01": 1.10357721602,
			"-0.009": 0.940991034179,
			"-0.008": 2.86671054606,
			"-0.007": 12.0991359424,
			"-0.006": 15.5360968302,
			"-0.005": 14.2112804036,
			"-0.004": 12.6349539782,
			"-0.003": 13.7442993488,
			"-0.002": 14.1151243389,
			"-0.001": 16.5268476279,
			"0.0": 22.6875861967,
			"0.001": 26.0448827456,
			"0.002": 18.8951386077,
			"0.003": 14.5646184122,
			"0.004": 5.78351615508,
			"0.005": 4.29988225942,
			"0.006": 3.29604218859,
			"0.007": 4.23354895365,
			"0.008": 4.40418290615,
			"0.009": 5.07854426374,
			"0.01": 8.21201344166,
			"0.011": 9.63143554723,
			"0.012": 5.81885134495,
			"0.013": 1.39826050377,
			"0.014": 0.0,
			"0.015": 0.0,
			"0.016": 0.0,
			"0.017": 0.0,
			"0.018": 0.0,
			"0.019": 0.0,
			"0.02": 0.0,
			"0.021": 0.0,
			"0.022": 0.0,
			"0.023": 0.0,
			"0.024": 0.0,
			"0.025": 0.0
		}
	}
}
