{
	 "smiles": "OC(=O)C(CC1=CC=CC=C1)N1C=NN=N1", 
	 "Tm": 436.15, 
	 "num_atms": 26, 
	 "gaussian": { 
		 "optdone": 1, 
		 "sigma_profile": "yes", 
		 "theory": "DFT", 
		 "functional": "B3LYP", 
		 "basiset": "6-31G**", 
		 "properties": { 
			 "R2extent": 4669.7928, 
			 "electric_dipole_moment_norm": 5.23947133497, 
			 "electric_quadrupole_moment_norm": 28.2697310751, 
			 "total_energy": -756.493745044, 
			 "HOMO_LUMO_gap": 0.22247, 
			 "cosmo_polarized_energy": -21.2, 
			 "cosmo_cavitation_energy": 31.58, 
			 "cosmo_dispersion_energy": -21.61, 
			 "cosmo_repulsion_energy": 1.69, 
			 "cosmo_total_nonelectrostatic_energy": 11.66, 
			 "SMD_solvation_energy": 5.03 
		},
		"coords": [
			{
				"x": -1.7313290734,
				"y": 0.1019181594,
				"z": 2.2131749047,
				"element": "O" 
			},
			{
				"x": -0.4332718095,
				"y": 0.3424045763,
				"z": 2.4756557126,
				"element": "C" 
			},
			{
				"x": -0.0368404536,
				"y": 1.2722009042,
				"z": 3.1375496839,
				"element": "O" 
			},
			{
				"x": 0.4907819864,
				"y": -0.7261198645,
				"z": 1.8706315006,
				"element": "C" 
			},
			{
				"x": 0.1978107297,
				"y": -1.0497340367,
				"z": 0.3916163798,
				"element": "C" 
			},
			{
				"x": 0.3883257571,
				"y": 0.1589705919,
				"z": -0.5025184218,
				"element": "C" 
			},
			{
				"x": -0.7076230683,
				"y": 0.9277389336,
				"z": -0.9157326763,
				"element": "C" 
			},
			{
				"x": -0.5253540476,
				"y": 2.0488465652,
				"z": -1.7274694729,
				"element": "C" 
			},
			{
				"x": 0.7568669184,
				"y": 2.4173373915,
				"z": -2.1365250164,
				"element": "C" 
			},
			{
				"x": 1.8565712068,
				"y": 1.6570854561,
				"z": -1.7327638487,
				"element": "C" 
			},
			{
				"x": 1.6714265688,
				"y": 0.5367252222,
				"z": -0.92307653,
				"element": "C" 
			},
			{
				"x": 0.4303537186,
				"y": -1.9329530441,
				"z": 2.7030821271,
				"element": "N" 
			},
			{
				"x": 1.1664036809,
				"y": -2.2727552132,
				"z": 3.7847409967,
				"element": "C" 
			},
			{
				"x": 0.7402392007,
				"y": -3.4278037921,
				"z": 4.2475986554,
				"element": "N" 
			},
			{
				"x": -0.2858219559,
				"y": -3.7944271688,
				"z": 3.4274345129,
				"element": "N" 
			},
			{
				"x": -0.4864172015,
				"y": -2.9120976519,
				"z": 2.5045332429,
				"element": "N" 
			},
			{
				"x": -2.2426426551,
				"y": 0.7963001137,
				"z": 2.6628589993,
				"element": "H" 
			},
			{
				"x": 1.501487201,
				"y": -0.3260669424,
				"z": 1.9763327677,
				"element": "H" 
			},
			{
				"x": 0.8772468309,
				"y": -1.8556399932,
				"z": 0.0946762591,
				"element": "H" 
			},
			{
				"x": -0.8183889554,
				"y": -1.4400323796,
				"z": 0.3139437541,
				"element": "H" 
			},
			{
				"x": -1.7073672888,
				"y": 0.6427741913,
				"z": -0.6002600579,
				"element": "H" 
			},
			{
				"x": -1.3861659146,
				"y": 2.6313420318,
				"z": -2.0430939916,
				"element": "H" 
			},
			{
				"x": 0.8988782032,
				"y": 3.2880486623,
				"z": -2.7699047584,
				"element": "H" 
			},
			{
				"x": 2.8571654697,
				"y": 1.9327205047,
				"z": -2.0531069917,
				"element": "H" 
			},
			{
				"x": 2.5317629801,
				"y": -0.0578486221,
				"z": -0.6230750375,
				"element": "H" 
			},
			{
				"x": 1.9715019716,
				"y": -1.6742345956,
				"z": 4.1835973065,
				"element": "H" 
			}
		],
		 "valence_orbital": [ 
			{
				"type": "occ",
				"energy": -0.29999,
				"method": "rhf"
			},
			{
				"type": "occ",
				"energy": -0.29445,
				"method": "rhf"
			},
			{
				"type": "occ",
				"energy": -0.2866,
				"method": "rhf"
			},
			{
				"type": "occ",
				"energy": -0.263,
				"method": "rhf"
			},
			{
				"type": "occ",
				"energy": -0.25827,
				"method": "rhf"
			},
			{
				"type": "unocc",
				"energy": -0.0358,
				"method": "rhf"
			},
			{
				"type": "unocc",
				"energy": -0.02069,
				"method": "rhf"
			},
			{
				"type": "unocc",
				"energy": -0.01415,
				"method": "rhf"
			},
			{
				"type": "unocc",
				"energy": -0.00572,
				"method": "rhf"
			},
			{
				"type": "unocc",
				"energy": 0.01632,
				"method": "rhf"
			}
		],
		"cosmo_sigma_profile": { 
			"-0.025": 0.0,
			"-0.024": 0.0,
			"-0.023": 0.0,
			"-0.022": 0.0,
			"-0.021": 0.0,
			"-0.02": 0.0400899376898,
			"-0.019": 0.79480629901,
			"-0.018": 1.22701629023,
			"-0.017": 0.714402722335,
			"-0.016": 1.00281033649,
			"-0.015": 0.416338811243,
			"-0.014": 0.491607171538,
			"-0.013": 2.81526454167,
			"-0.012": 4.22721264624,
			"-0.011": 2.99004774679,
			"-0.01": 3.11786597566,
			"-0.009": 2.85518418537,
			"-0.008": 4.77668108717,
			"-0.007": 6.38207937305,
			"-0.006": 13.2600821832,
			"-0.005": 18.3446654351,
			"-0.004": 18.2951799486,
			"-0.003": 16.4477322829,
			"-0.002": 13.2155556241,
			"-0.001": 13.4660402392,
			"0.0": 12.6596906048,
			"0.001": 11.7584742444,
			"0.002": 11.2870115588,
			"0.003": 12.1435742183,
			"0.004": 12.8564772951,
			"0.005": 12.8666733371,
			"0.006": 9.91440635653,
			"0.007": 6.62727070263,
			"0.008": 7.48255050965,
			"0.009": 6.30480805251,
			"0.01": 8.92039673953,
			"0.011": 6.94855034519,
			"0.012": 3.41507559168,
			"0.013": 2.15713764245,
			"0.014": 1.63345340549,
			"0.015": 0.401920230209,
			"0.016": 0.0,
			"0.017": 0.0,
			"0.018": 0.0,
			"0.019": 0.0,
			"0.02": 0.0,
			"0.021": 0.0,
			"0.022": 0.0,
			"0.023": 0.0,
			"0.024": 0.0,
			"0.025": 0.0
		}
	}
}
