{
	 "smiles": "CN(C)C1=CC=C(C=C1)C1CC(=NN1C1=CC=CC=C1)C1=CC=C2C=CC=CC2=C1", 
	 "Tm": 459.15, 
	 "num_atms": 55, 
	 "gaussian": { 
		 "optdone": 1, 
		 "sigma_profile": "yes", 
		 "theory": "DFT", 
		 "functional": "B3LYP", 
		 "basiset": "6-31G**", 
		 "properties": { 
			 "R2extent": 18394.3637, 
			 "electric_dipole_moment_norm": 4.14701814561, 
			 "electric_quadrupole_moment_norm": 17.0370557113, 
			 "total_energy": -1208.1829927, 
			 "HOMO_LUMO_gap": 0.12835, 
			 "cosmo_polarized_energy": -13.65, 
			 "cosmo_cavitation_energy": 57.01, 
			 "cosmo_dispersion_energy": -39.8, 
			 "cosmo_repulsion_energy": 2.95, 
			 "cosmo_total_nonelectrostatic_energy": 20.15, 
			 "SMD_solvation_energy": 7.67 
		},
		"coords": [
			{
				"x": -0.5228104672,
				"y": 3.9904549807,
				"z": 4.6613166519,
				"element": "C" 
			},
			{
				"x": -0.2250695465,
				"y": 4.0123717436,
				"z": 3.2395314217,
				"element": "N" 
			},
			{
				"x": -0.11713727,
				"y": 5.305216804,
				"z": 2.584346965,
				"element": "C" 
			},
			{
				"x": -0.4880025182,
				"y": 2.8820861899,
				"z": 2.4735887372,
				"element": "C" 
			},
			{
				"x": -0.4246097564,
				"y": 2.9177111664,
				"z": 1.0606156993,
				"element": "C" 
			},
			{
				"x": -0.656809821,
				"y": 1.7766880178,
				"z": 0.3012315138,
				"element": "C" 
			},
			{
				"x": -0.9744998944,
				"y": 0.5518096007,
				"z": 0.8992021544,
				"element": "C" 
			},
			{
				"x": -1.0572623563,
				"y": 0.5158654633,
				"z": 2.2942348862,
				"element": "C" 
			},
			{
				"x": -0.8249375524,
				"y": 1.6470314959,
				"z": 3.0719588058,
				"element": "C" 
			},
			{
				"x": -1.1671891226,
				"y": -0.7109096338,
				"z": 0.0788930621,
				"element": "C" 
			},
			{
				"x": 0.167578803,
				"y": -1.3515017711,
				"z": -0.4026082608,
				"element": "C" 
			},
			{
				"x": 0.0088287805,
				"y": -1.3504444284,
				"z": -1.9102405311,
				"element": "C" 
			},
			{
				"x": -1.1350801401,
				"y": -0.8772148901,
				"z": -2.2914510823,
				"element": "N" 
			},
			{
				"x": -1.8647364978,
				"y": -0.480167351,
				"z": -1.2109216088,
				"element": "N" 
			},
			{
				"x": -3.2286673394,
				"y": -0.2079508019,
				"z": -1.3515944644,
				"element": "C" 
			},
			{
				"x": -4.0223292673,
				"y": 0.0677692638,
				"z": -0.2228466043,
				"element": "C" 
			},
			{
				"x": -5.3823193208,
				"y": 0.3375355738,
				"z": -0.3740381487,
				"element": "C" 
			},
			{
				"x": -5.9784546341,
				"y": 0.3434151834,
				"z": -1.6345742062,
				"element": "C" 
			},
			{
				"x": -5.186754417,
				"y": 0.0729839308,
				"z": -2.7547163808,
				"element": "C" 
			},
			{
				"x": -3.8294881119,
				"y": -0.2017189147,
				"z": -2.6259640079,
				"element": "C" 
			},
			{
				"x": 1.0108971998,
				"y": -1.82018895,
				"z": -2.8613076894,
				"element": "C" 
			},
			{
				"x": 0.7530747199,
				"y": -1.7672138902,
				"z": -4.2670350258,
				"element": "C" 
			},
			{
				"x": 1.683498581,
				"y": -2.2128999314,
				"z": -5.168501217,
				"element": "C" 
			},
			{
				"x": 2.9355057513,
				"y": -2.7416027341,
				"z": -4.7407961489,
				"element": "C" 
			},
			{
				"x": 3.9172341155,
				"y": -3.209637646,
				"z": -5.6506525212,
				"element": "C" 
			},
			{
				"x": 5.1177778117,
				"y": -3.7140240088,
				"z": -5.1974437712,
				"element": "C" 
			},
			{
				"x": 5.3874014789,
				"y": -3.7710583973,
				"z": -3.8088595197,
				"element": "C" 
			},
			{
				"x": 4.4535448515,
				"y": -3.3237753785,
				"z": -2.9000918325,
				"element": "C" 
			},
			{
				"x": 3.206522626,
				"y": -2.7987005732,
				"z": -3.3352661059,
				"element": "C" 
			},
			{
				"x": 2.2244488647,
				"y": -2.3302650889,
				"z": -2.4242983923,
				"element": "C" 
			},
			{
				"x": -0.2339779836,
				"y": 4.9461417959,
				"z": 5.101758364,
				"element": "H" 
			},
			{
				"x": -1.5900614398,
				"y": 3.8214021835,
				"z": 4.8761201193,
				"element": "H" 
			},
			{
				"x": 0.0513332578,
				"y": 3.2084843323,
				"z": 5.1711748947,
				"element": "H" 
			},
			{
				"x": -1.0391890547,
				"y": 5.600688465,
				"z": 2.059250045,
				"element": "H" 
			},
			{
				"x": 0.7017679164,
				"y": 5.3101327819,
				"z": 1.856271939,
				"element": "H" 
			},
			{
				"x": 0.1078930677,
				"y": 6.0668156565,
				"z": 3.3327396223,
				"element": "H" 
			},
			{
				"x": -0.198523426,
				"y": 3.8433505676,
				"z": 0.5460387327,
				"element": "H" 
			},
			{
				"x": -0.6095513542,
				"y": 1.8452983344,
				"z": -0.7822176477,
				"element": "H" 
			},
			{
				"x": -1.3160761538,
				"y": -0.4161818767,
				"z": 2.7931032636,
				"element": "H" 
			},
			{
				"x": -0.9147125624,
				"y": 1.5638475458,
				"z": 4.1479337675,
				"element": "H" 
			},
			{
				"x": -1.7466666917,
				"y": -1.4313131916,
				"z": 0.6708508335,
				"element": "H" 
			},
			{
				"x": 1.0298721418,
				"y": -0.759089308,
				"z": -0.080556954,
				"element": "H" 
			},
			{
				"x": 0.3058427747,
				"y": -2.3665317903,
				"z": -0.0138948014,
				"element": "H" 
			},
			{
				"x": -3.5798091554,
				"y": 0.0927953944,
				"z": 0.765349322,
				"element": "H" 
			},
			{
				"x": -5.9768158647,
				"y": 0.5482142151,
				"z": 0.5109333875,
				"element": "H" 
			},
			{
				"x": -7.0375067837,
				"y": 0.5553472612,
				"z": -1.7443697653,
				"element": "H" 
			},
			{
				"x": -5.6315775647,
				"y": 0.0710557573,
				"z": -3.7463711317,
				"element": "H" 
			},
			{
				"x": -3.2210152797,
				"y": -0.4192160957,
				"z": -3.4942686475,
				"element": "H" 
			},
			{
				"x": -0.1968826768,
				"y": -1.3652865988,
				"z": -4.6011139007,
				"element": "H" 
			},
			{
				"x": 1.4741883552,
				"y": -2.1668981244,
				"z": -6.2344383149,
				"element": "H" 
			},
			{
				"x": 3.7066355955,
				"y": -3.1641802852,
				"z": -6.7162955536,
				"element": "H" 
			},
			{
				"x": 5.8614356193,
				"y": -4.0696338879,
				"z": -5.904751462,
				"element": "H" 
			},
			{
				"x": 6.3363016754,
				"y": -4.1700785938,
				"z": -3.4619033897,
				"element": "H" 
			},
			{
				"x": 4.6595108664,
				"y": -3.3669808092,
				"z": -1.8334042169,
				"element": "H" 
			},
			{
				"x": 2.4465291704,
				"y": -2.3796487542,
				"z": -1.3617508842,
				"element": "H" 
			}
		],
		 "valence_orbital": [ 
			{
				"type": "occ",
				"energy": -0.23713,
				"method": "rhf"
			},
			{
				"type": "occ",
				"energy": -0.23491,
				"method": "rhf"
			},
			{
				"type": "occ",
				"energy": -0.21478,
				"method": "rhf"
			},
			{
				"type": "occ",
				"energy": -0.1905,
				"method": "rhf"
			},
			{
				"type": "occ",
				"energy": -0.17376,
				"method": "rhf"
			},
			{
				"type": "unocc",
				"energy": -0.04541,
				"method": "rhf"
			},
			{
				"type": "unocc",
				"energy": -0.02148,
				"method": "rhf"
			},
			{
				"type": "unocc",
				"energy": -0.00016,
				"method": "rhf"
			},
			{
				"type": "unocc",
				"energy": 0.01031,
				"method": "rhf"
			},
			{
				"type": "unocc",
				"energy": 0.0165,
				"method": "rhf"
			}
		],
		"cosmo_sigma_profile": { 
			"-0.025": 0.0,
			"-0.024": 0.0,
			"-0.023": 0.0,
			"-0.022": 0.0,
			"-0.021": 0.0,
			"-0.02": 0.0,
			"-0.019": 0.0,
			"-0.018": 0.0,
			"-0.017": 0.0,
			"-0.016": 0.0,
			"-0.015": 0.0,
			"-0.014": 0.0,
			"-0.013": 0.0,
			"-0.012": 0.0,
			"-0.011": 0.0,
			"-0.01": 0.0,
			"-0.009": 0.0,
			"-0.008": 0.0,
			"-0.007": 0.528800268634,
			"-0.006": 18.1910149349,
			"-0.005": 42.3057483136,
			"-0.004": 43.3525427142,
			"-0.003": 47.254953886,
			"-0.002": 42.5584727618,
			"-0.001": 39.771310132,
			"0.0": 24.7901612375,
			"0.001": 23.6011760737,
			"0.002": 24.1989773947,
			"0.003": 31.1199399635,
			"0.004": 44.3344311656,
			"0.005": 34.8348395115,
			"0.006": 21.6778558714,
			"0.007": 13.57916676,
			"0.008": 2.01507344479,
			"0.009": 0.447886725232,
			"0.01": 0.0,
			"0.011": 0.0,
			"0.012": 0.0,
			"0.013": 0.0,
			"0.014": 0.0,
			"0.015": 0.0,
			"0.016": 0.0,
			"0.017": 0.0,
			"0.018": 0.0,
			"0.019": 0.0,
			"0.02": 0.0,
			"0.021": 0.0,
			"0.022": 0.0,
			"0.023": 0.0,
			"0.024": 0.0,
			"0.025": 0.0
		}
	}
}
