{
	 "smiles": "CNC(=O)CS(=O)(=O)C1=CC=C(C=C1)C(O)=O", 
	 "Tm": 523.15, 
	 "num_atms": 28, 
	 "gaussian": { 
		 "optdone": 1, 
		 "sigma_profile": "yes", 
		 "theory": "DFT", 
		 "functional": "B3LYP", 
		 "basiset": "6-31G**", 
		 "properties": { 
			 "R2extent": 5717.0764, 
			 "electric_dipole_moment_norm": 2.25974252737, 
			 "electric_quadrupole_moment_norm": 28.4008377649, 
			 "total_energy": -1216.70671591, 
			 "HOMO_LUMO_gap": 0.18172, 
			 "cosmo_polarized_energy": -27.22, 
			 "cosmo_cavitation_energy": 34.63, 
			 "cosmo_dispersion_energy": -24.42, 
			 "cosmo_repulsion_energy": 1.86, 
			 "cosmo_total_nonelectrostatic_energy": 12.07, 
			 "SMD_solvation_energy": 7.05 
		},
		"coords": [
			{
				"x": -1.0816916211,
				"y": -3.2658810488,
				"z": 1.9843269164,
				"element": "C" 
			},
			{
				"x": -1.3803297706,
				"y": -1.8734146758,
				"z": 2.2754932245,
				"element": "N" 
			},
			{
				"x": -0.4061532058,
				"y": -0.9682813296,
				"z": 2.5474418598,
				"element": "C" 
			},
			{
				"x": 0.7912904009,
				"y": -1.2177098062,
				"z": 2.5948612101,
				"element": "O" 
			},
			{
				"x": -0.8966218878,
				"y": 0.4506776539,
				"z": 2.8818546528,
				"element": "C" 
			},
			{
				"x": -2.091118667,
				"y": 1.2277043705,
				"z": 1.7436830409,
				"element": "S" 
			},
			{
				"x": -3.2017653172,
				"y": 0.2724548845,
				"z": 1.5464089597,
				"element": "O" 
			},
			{
				"x": -2.3457203845,
				"y": 2.5828875063,
				"z": 2.2506329561,
				"element": "O" 
			},
			{
				"x": -1.2026450213,
				"y": 1.3765119528,
				"z": 0.1832166426,
				"element": "C" 
			},
			{
				"x": -1.2968038005,
				"y": 0.355881608,
				"z": -0.7657057193,
				"element": "C" 
			},
			{
				"x": -0.6023942398,
				"y": 0.4851147539,
				"z": -1.9647874662,
				"element": "C" 
			},
			{
				"x": 0.1903232314,
				"y": 1.6151778134,
				"z": -2.2053406635,
				"element": "C" 
			},
			{
				"x": 0.2504032735,
				"y": 2.6406743791,
				"z": -1.2507803776,
				"element": "C" 
			},
			{
				"x": -0.4504691352,
				"y": 2.5280839958,
				"z": -0.0515265253,
				"element": "C" 
			},
			{
				"x": 0.9084367178,
				"y": 1.6878020237,
				"z": -3.5253669909,
				"element": "C" 
			},
			{
				"x": 1.9871111599,
				"y": 2.5085992418,
				"z": -3.591052897,
				"element": "O" 
			},
			{
				"x": 0.5603941591,
				"y": 1.0577684205,
				"z": -4.4944472986,
				"element": "O" 
			},
			{
				"x": -0.0056935734,
				"y": -3.4051579701,
				"z": 2.0899790134,
				"element": "H" 
			},
			{
				"x": -1.6012689852,
				"y": -3.9293767135,
				"z": 2.6833895752,
				"element": "H" 
			},
			{
				"x": -1.3791868745,
				"y": -3.5306792315,
				"z": 0.963641436,
				"element": "H" 
			},
			{
				"x": -2.3316173878,
				"y": -1.5341559892,
				"z": 2.1867267185,
				"element": "H" 
			},
			{
				"x": -0.0289504676,
				"y": 1.1079241735,
				"z": 2.9417671557,
				"element": "H" 
			},
			{
				"x": -1.4240922066,
				"y": 0.465306564,
				"z": 3.8421574857,
				"element": "H" 
			},
			{
				"x": -1.9188037031,
				"y": -0.5098851174,
				"z": -0.5698132771,
				"element": "H" 
			},
			{
				"x": -0.6636728698,
				"y": -0.2775855741,
				"z": -2.733154069,
				"element": "H" 
			},
			{
				"x": 0.8046398688,
				"y": 3.5543020181,
				"z": -1.4490505632,
				"element": "H" 
			},
			{
				"x": -0.4387625424,
				"y": 3.3271873508,
				"z": 0.681659337,
				"element": "H" 
			},
			{
				"x": 2.2436628496,
				"y": 2.8068687455,
				"z": -2.7074143366,
				"element": "H" 
			}
		],
		 "valence_orbital": [ 
			{
				"type": "occ",
				"energy": -0.30208,
				"method": "rhf"
			},
			{
				"type": "occ",
				"energy": -0.29736,
				"method": "rhf"
			},
			{
				"type": "occ",
				"energy": -0.28693,
				"method": "rhf"
			},
			{
				"type": "occ",
				"energy": -0.26759,
				"method": "rhf"
			},
			{
				"type": "occ",
				"energy": -0.26663,
				"method": "rhf"
			},
			{
				"type": "unocc",
				"energy": -0.08491,
				"method": "rhf"
			},
			{
				"type": "unocc",
				"energy": -0.04857,
				"method": "rhf"
			},
			{
				"type": "unocc",
				"energy": -0.00658,
				"method": "rhf"
			},
			{
				"type": "unocc",
				"energy": 0.01155,
				"method": "rhf"
			},
			{
				"type": "unocc",
				"energy": 0.03838,
				"method": "rhf"
			}
		],
		"cosmo_sigma_profile": { 
			"-0.025": 0.0,
			"-0.024": 0.0,
			"-0.023": 0.0,
			"-0.022": 0.0,
			"-0.021": 0.0,
			"-0.02": 0.000388985581735,
			"-0.019": 0.902083398735,
			"-0.018": 0.809942150235,
			"-0.017": 1.31709395252,
			"-0.016": 0.805065581332,
			"-0.015": 1.37850626112,
			"-0.014": 1.23208615278,
			"-0.013": 0.762405219151,
			"-0.012": 0.873350894944,
			"-0.011": 2.42541700721,
			"-0.01": 5.02797084265,
			"-0.009": 6.821001811,
			"-0.008": 11.1584839845,
			"-0.007": 12.3367703932,
			"-0.006": 11.1506078877,
			"-0.005": 15.5404314715,
			"-0.004": 17.279446289,
			"-0.003": 18.4000451793,
			"-0.002": 22.885037658,
			"-0.001": 16.3136799888,
			"0.0": 19.6583526132,
			"0.001": 14.7617525395,
			"0.002": 7.96476760951,
			"0.003": 5.68889032619,
			"0.004": 5.02159082643,
			"0.005": 6.22466295624,
			"0.006": 4.78451591424,
			"0.007": 7.00088488597,
			"0.008": 8.93920532705,
			"0.009": 8.14733669151,
			"0.01": 11.9422130309,
			"0.011": 14.5707486605,
			"0.012": 6.65915583111,
			"0.013": 5.69546737494,
			"0.014": 1.99627051638,
			"0.015": 0.0,
			"0.016": 0.0,
			"0.017": 0.0,
			"0.018": 0.0,
			"0.019": 0.0,
			"0.02": 0.0,
			"0.021": 0.0,
			"0.022": 0.0,
			"0.023": 0.0,
			"0.024": 0.0,
			"0.025": 0.0
		}
	}
}
