{
	 "smiles": "COC1=CC=C(C=C1)C1=NN=C(S)N1CCC(O)=O", 
	 "Tm": 290.15, 
	 "num_atms": 32, 
	 "gaussian": { 
		 "optdone": 1, 
		 "sigma_profile": "yes", 
		 "theory": "DFT", 
		 "functional": "B3LYP", 
		 "basiset": "6-31G**", 
		 "properties": { 
			 "R2extent": 6862.2633, 
			 "electric_dipole_moment_norm": 10.0637149508, 
			 "electric_quadrupole_moment_norm": 8.49147996111, 
			 "total_energy": -1253.19644785, 
			 "HOMO_LUMO_gap": 0.18898, 
			 "cosmo_polarized_energy": -31.08, 
			 "cosmo_cavitation_energy": 37.55, 
			 "cosmo_dispersion_energy": -26.91, 
			 "cosmo_repulsion_energy": 2.04, 
			 "cosmo_total_nonelectrostatic_energy": 12.67, 
			 "SMD_solvation_energy": 5.29 
		},
		"coords": [
			{
				"x": 4.4486078821,
				"y": -1.5470064642,
				"z": -2.9184529278,
				"element": "C" 
			},
			{
				"x": 4.1492840204,
				"y": -1.8653071353,
				"z": -1.5671774018,
				"element": "O" 
			},
			{
				"x": 3.1005854439,
				"y": -1.236651504,
				"z": -0.9696598974,
				"element": "C" 
			},
			{
				"x": 2.8788805245,
				"y": -1.5656528094,
				"z": 0.3780201353,
				"element": "C" 
			},
			{
				"x": 1.8307146494,
				"y": -0.9873069859,
				"z": 1.0754785009,
				"element": "C" 
			},
			{
				"x": 0.9657822356,
				"y": -0.064672052,
				"z": 0.4527118407,
				"element": "C" 
			},
			{
				"x": 1.2116686388,
				"y": 0.2709800659,
				"z": -0.8850330714,
				"element": "C" 
			},
			{
				"x": 2.2620866085,
				"y": -0.3090479885,
				"z": -1.5999725051,
				"element": "C" 
			},
			{
				"x": -0.1008833752,
				"y": 0.5489396596,
				"z": 1.2603322779,
				"element": "C" 
			},
			{
				"x": 0.0620319386,
				"y": 0.9155088123,
				"z": 2.5170350008,
				"element": "N" 
			},
			{
				"x": -1.1340283374,
				"y": 1.4079175331,
				"z": 2.9794343576,
				"element": "N" 
			},
			{
				"x": -2.0005191525,
				"y": 1.3309268943,
				"z": 1.9964988662,
				"element": "C" 
			},
			{
				"x": -3.6470799973,
				"y": 1.9674123186,
				"z": 2.0823786289,
				"element": "S" 
			},
			{
				"x": -1.4031703797,
				"y": 0.7970378864,
				"z": 0.8649340984,
				"element": "N" 
			},
			{
				"x": -2.063792009,
				"y": 0.444598532,
				"z": -0.388679347,
				"element": "C" 
			},
			{
				"x": -2.172933098,
				"y": -1.0682618547,
				"z": -0.6099629198,
				"element": "C" 
			},
			{
				"x": -3.1984814353,
				"y": -1.7436410449,
				"z": 0.2948053362,
				"element": "C" 
			},
			{
				"x": -3.1019519069,
				"y": -3.0889283151,
				"z": 0.3869304486,
				"element": "O" 
			},
			{
				"x": -4.0874779458,
				"y": -1.1636944776,
				"z": 0.8720305082,
				"element": "O" 
			},
			{
				"x": 5.3174863774,
				"y": -2.1505574684,
				"z": -3.1839503516,
				"element": "H" 
			},
			{
				"x": 3.6160256977,
				"y": -1.7995236857,
				"z": -3.5876638963,
				"element": "H" 
			},
			{
				"x": 4.6965254766,
				"y": -0.4848101004,
				"z": -3.0376174583,
				"element": "H" 
			},
			{
				"x": 3.5462484913,
				"y": -2.2769296683,
				"z": 0.8533029825,
				"element": "H" 
			},
			{
				"x": 1.6671148529,
				"y": -1.230667856,
				"z": 2.1197682644,
				"element": "H" 
			},
			{
				"x": 0.6074697927,
				"y": 1.0254866783,
				"z": -1.3788218383,
				"element": "H" 
			},
			{
				"x": 2.4260839099,
				"y": -0.0170921643,
				"z": -2.630281943,
				"element": "H" 
			},
			{
				"x": -4.2620500681,
				"y": 0.8007307341,
				"z": 1.7855286899,
				"element": "H" 
			},
			{
				"x": -3.0593595725,
				"y": 0.8900973761,
				"z": -0.3600361548,
				"element": "H" 
			},
			{
				"x": -1.5238993627,
				"y": 0.894645158,
				"z": -1.2235830986,
				"element": "H" 
			},
			{
				"x": -1.1898465749,
				"y": -1.5379755838,
				"z": -0.4963790285,
				"element": "H" 
			},
			{
				"x": -2.4893655054,
				"y": -1.2511332072,
				"z": -1.6460558296,
				"element": "H" 
			},
			{
				"x": -2.3301578195,
				"y": -3.4121212832,
				"z": -0.0996622672,
				"element": "H" 
			}
		],
		 "valence_orbital": [ 
			{
				"type": "occ",
				"energy": -0.2778,
				"method": "rhf"
			},
			{
				"type": "occ",
				"energy": -0.26937,
				"method": "rhf"
			},
			{
				"type": "occ",
				"energy": -0.25313,
				"method": "rhf"
			},
			{
				"type": "occ",
				"energy": -0.24402,
				"method": "rhf"
			},
			{
				"type": "occ",
				"energy": -0.22065,
				"method": "rhf"
			},
			{
				"type": "unocc",
				"energy": -0.03167,
				"method": "rhf"
			},
			{
				"type": "unocc",
				"energy": -0.01946,
				"method": "rhf"
			},
			{
				"type": "unocc",
				"energy": -0.01657,
				"method": "rhf"
			},
			{
				"type": "unocc",
				"energy": 0.0162,
				"method": "rhf"
			},
			{
				"type": "unocc",
				"energy": 0.03614,
				"method": "rhf"
			}
		],
		"cosmo_sigma_profile": { 
			"-0.025": 0.0,
			"-0.024": 0.0,
			"-0.023": 0.0,
			"-0.022": 0.0,
			"-0.021": 0.0,
			"-0.02": 0.17426586398,
			"-0.019": 1.39635393231,
			"-0.018": 1.01120529466,
			"-0.017": 1.35258757574,
			"-0.016": 1.33645142103,
			"-0.015": 1.03514682501,
			"-0.014": 0.826185629577,
			"-0.013": 0.828559584273,
			"-0.012": 1.59030383584,
			"-0.011": 1.27071636521,
			"-0.01": 1.67810025403,
			"-0.009": 5.56595407061,
			"-0.008": 8.96437795882,
			"-0.007": 11.5367401279,
			"-0.006": 19.7744665138,
			"-0.005": 21.7736069243,
			"-0.004": 21.2093501848,
			"-0.003": 20.4407683691,
			"-0.002": 16.0453680244,
			"-0.001": 16.326531696,
			"0.0": 13.8437159061,
			"0.001": 14.1442318159,
			"0.002": 16.1575959154,
			"0.003": 18.105178103,
			"0.004": 16.9822810406,
			"0.005": 9.19079644264,
			"0.006": 7.88411290123,
			"0.007": 7.08744115089,
			"0.008": 7.93811323016,
			"0.009": 8.11425597453,
			"0.01": 8.2819299059,
			"0.011": 4.1954570107,
			"0.012": 3.95757274584,
			"0.013": 3.67188477793,
			"0.014": 3.16266105217,
			"0.015": 2.51185315704,
			"0.016": 2.04126050138,
			"0.017": 0.771212715173,
			"0.018": 0.0,
			"0.019": 0.0,
			"0.02": 0.0,
			"0.021": 0.0,
			"0.022": 0.0,
			"0.023": 0.0,
			"0.024": 0.0,
			"0.025": 0.0
		}
	}
}
