{
	 "smiles": "COC(=O)C1=CC2=C(NC(C)=NS2(=O)=O)C=C1", 
	 "Tm": 549.15, 
	 "num_atms": 27, 
	 "gaussian": { 
		 "optdone": 1, 
		 "sigma_profile": "yes", 
		 "theory": "DFT", 
		 "functional": "B3LYP", 
		 "basiset": "6-31G**", 
		 "properties": { 
			 "R2extent": 6274.426, 
			 "electric_dipole_moment_norm": 9.91050023914, 
			 "electric_quadrupole_moment_norm": 31.0157659778, 
			 "total_energy": -1195.62272256, 
			 "HOMO_LUMO_gap": 0.1812, 
			 "cosmo_polarized_energy": -31.12, 
			 "cosmo_cavitation_energy": 33.26, 
			 "cosmo_dispersion_energy": -24.91, 
			 "cosmo_repulsion_energy": 1.88, 
			 "cosmo_total_nonelectrostatic_energy": 10.23, 
			 "SMD_solvation_energy": 5.62 
		},
		"coords": [
			{
				"x": -2.7773132553,
				"y": 4.1759560933,
				"z": 1.7633145428,
				"element": "C" 
			},
			{
				"x": -1.9532579626,
				"y": 3.1489327475,
				"z": 1.1866245216,
				"element": "O" 
			},
			{
				"x": -2.4281182473,
				"y": 1.8898876819,
				"z": 1.3206093111,
				"element": "C" 
			},
			{
				"x": -3.471235793,
				"y": 1.6242803078,
				"z": 1.8828187543,
				"element": "O" 
			},
			{
				"x": -1.5260133235,
				"y": 0.8786965582,
				"z": 0.7015468671,
				"element": "C" 
			},
			{
				"x": -1.903541025,
				"y": -0.4634798638,
				"z": 0.7721121262,
				"element": "C" 
			},
			{
				"x": -1.0968924636,
				"y": -1.4500101087,
				"z": 0.2099354242,
				"element": "C" 
			},
			{
				"x": 0.1018640167,
				"y": -1.1030027809,
				"z": -0.4320592101,
				"element": "C" 
			},
			{
				"x": 0.9121971949,
				"y": -2.0848247335,
				"z": -0.9956316245,
				"element": "N" 
			},
			{
				"x": 0.646480976,
				"y": -3.4346899248,
				"z": -0.9887517108,
				"element": "C" 
			},
			{
				"x": 1.6833210619,
				"y": -4.2923625174,
				"z": -1.667333195,
				"element": "C" 
			},
			{
				"x": -0.385589049,
				"y": -4.0052503007,
				"z": -0.4648639404,
				"element": "N" 
			},
			{
				"x": -1.6053354106,
				"y": -3.1618032194,
				"z": 0.315726627,
				"element": "S" 
			},
			{
				"x": -2.827521499,
				"y": -3.3273588611,
				"z": -0.4699250345,
				"element": "O" 
			},
			{
				"x": -1.5857218634,
				"y": -3.5606122236,
				"z": 1.7224889701,
				"element": "O" 
			},
			{
				"x": 0.4804837174,
				"y": 0.2482973097,
				"z": -0.5023822626,
				"element": "C" 
			},
			{
				"x": -0.3255614476,
				"y": 1.2262110676,
				"z": 0.0586253488,
				"element": "C" 
			},
			{
				"x": -3.7659377598,
				"y": 4.180428062,
				"z": 1.2979951041,
				"element": "H" 
			},
			{
				"x": -2.2568129455,
				"y": 5.1135362098,
				"z": 1.5692780563,
				"element": "H" 
			},
			{
				"x": -2.8943302893,
				"y": 4.0152021547,
				"z": 2.8377385974,
				"element": "H" 
			},
			{
				"x": -2.8315082482,
				"y": -0.7244606681,
				"z": 1.2698976361,
				"element": "H" 
			},
			{
				"x": 1.7633929231,
				"y": -1.7805793407,
				"z": -1.4453460697,
				"element": "H" 
			},
			{
				"x": 1.7884913106,
				"y": -4.012038124,
				"z": -2.7214241836,
				"element": "H" 
			},
			{
				"x": 1.3764647367,
				"y": -5.3350456797,
				"z": -1.604344909,
				"element": "H" 
			},
			{
				"x": 2.6596550613,
				"y": -4.1755233308,
				"z": -1.1837332632,
				"element": "H" 
			},
			{
				"x": 1.4083139141,
				"y": 0.5202253344,
				"z": -0.9989023201,
				"element": "H" 
			},
			{
				"x": -0.0328743299,
				"y": 2.2679881501,
				"z": 0.0040858362,
				"element": "H" 
			}
		],
		 "valence_orbital": [ 
			{
				"type": "occ",
				"energy": -0.28936,
				"method": "rhf"
			},
			{
				"type": "occ",
				"energy": -0.28897,
				"method": "rhf"
			},
			{
				"type": "occ",
				"energy": -0.28194,
				"method": "rhf"
			},
			{
				"type": "occ",
				"energy": -0.27463,
				"method": "rhf"
			},
			{
				"type": "occ",
				"energy": -0.24752,
				"method": "rhf"
			},
			{
				"type": "unocc",
				"energy": -0.06632,
				"method": "rhf"
			},
			{
				"type": "unocc",
				"energy": -0.04373,
				"method": "rhf"
			},
			{
				"type": "unocc",
				"energy": -0.01397,
				"method": "rhf"
			},
			{
				"type": "unocc",
				"energy": 0.03875,
				"method": "rhf"
			},
			{
				"type": "unocc",
				"energy": 0.04217,
				"method": "rhf"
			}
		],
		"cosmo_sigma_profile": { 
			"-0.025": 0.0,
			"-0.024": 0.0,
			"-0.023": 0.0,
			"-0.022": 0.0,
			"-0.021": 0.0,
			"-0.02": 0.0,
			"-0.019": 0.0,
			"-0.018": 0.489951545278,
			"-0.017": 1.5642344911,
			"-0.016": 1.64070095843,
			"-0.015": 1.24614375445,
			"-0.014": 2.0389937671,
			"-0.013": 1.25521903974,
			"-0.012": 1.50005071308,
			"-0.011": 1.45525739961,
			"-0.01": 2.49548571976,
			"-0.009": 2.68730841871,
			"-0.008": 5.81041135146,
			"-0.007": 10.9110760701,
			"-0.006": 16.0395903052,
			"-0.005": 18.0283225988,
			"-0.004": 19.819090104,
			"-0.003": 22.9369405234,
			"-0.002": 18.2311763911,
			"-0.001": 16.8632154851,
			"0.0": 16.8184633507,
			"0.001": 15.0215944222,
			"0.002": 9.0319305575,
			"0.003": 5.82637734587,
			"0.004": 6.54017174201,
			"0.005": 6.52686971914,
			"0.006": 3.83682685937,
			"0.007": 4.35400435161,
			"0.008": 5.87628898511,
			"0.009": 5.8120932475,
			"0.01": 12.1340591718,
			"0.011": 19.282558704,
			"0.012": 10.0035173172,
			"0.013": 0.0735780554334,
			"0.014": 0.0,
			"0.015": 0.0,
			"0.016": 0.0,
			"0.017": 0.0,
			"0.018": 0.0,
			"0.019": 0.0,
			"0.02": 0.0,
			"0.021": 0.0,
			"0.022": 0.0,
			"0.023": 0.0,
			"0.024": 0.0,
			"0.025": 0.0
		}
	}
}
