{
	 "smiles": "CC1NC(C)SC(C)S1", 
	 "Tm": 319.15, 
	 "num_atms": 22, 
	 "gaussian": { 
		 "optdone": 1, 
		 "sigma_profile": "yes", 
		 "theory": "DFT", 
		 "functional": "B3LYP", 
		 "basiset": "6-31G**", 
		 "properties": { 
			 "R2extent": 2753.9755, 
			 "electric_dipole_moment_norm": 3.01418108282, 
			 "electric_quadrupole_moment_norm": 11.2032630867, 
			 "total_energy": -1087.5909374, 
			 "HOMO_LUMO_gap": 0.23237, 
			 "cosmo_polarized_energy": -11.19, 
			 "cosmo_cavitation_energy": 25.13, 
			 "cosmo_dispersion_energy": -19.46, 
			 "cosmo_repulsion_energy": 1.49, 
			 "cosmo_total_nonelectrostatic_energy": 7.16, 
			 "SMD_solvation_energy": 1.47 
		},
		"coords": [
			{
				"x": -1.2175654301,
				"y": -1.2708656616,
				"z": -3.2688998151,
				"element": "C" 
			},
			{
				"x": -0.0550007663,
				"y": -2.1179870601,
				"z": -2.7248343675,
				"element": "C" 
			},
			{
				"x": -0.2945354422,
				"y": -2.7814498393,
				"z": -1.4494822467,
				"element": "N" 
			},
			{
				"x": -0.5175428414,
				"y": -1.9527994467,
				"z": -0.279201795,
				"element": "C" 
			},
			{
				"x": -1.0670720916,
				"y": -2.8064622032,
				"z": 0.8608283611,
				"element": "C" 
			},
			{
				"x": 1.0723496694,
				"y": -1.2065156995,
				"z": 0.3122867714,
				"element": "S" 
			},
			{
				"x": 1.5436401657,
				"y": -0.2300289779,
				"z": -1.1772725421,
				"element": "C" 
			},
			{
				"x": 0.8045212405,
				"y": 1.1072904103,
				"z": -1.2885579393,
				"element": "C" 
			},
			{
				"x": 1.5743970835,
				"y": -1.230238159,
				"z": -2.7294204132,
				"element": "S" 
			},
			{
				"x": -2.1130988531,
				"y": -1.8968893811,
				"z": -3.3750735275,
				"element": "H" 
			},
			{
				"x": -0.9671579243,
				"y": -0.8629266596,
				"z": -4.251667172,
				"element": "H" 
			},
			{
				"x": -1.4691346077,
				"y": -0.4326175669,
				"z": -2.615164375,
				"element": "H" 
			},
			{
				"x": 0.1480782176,
				"y": -2.9146879981,
				"z": -3.4495205934,
				"element": "H" 
			},
			{
				"x": -1.0525110335,
				"y": -3.4520629063,
				"z": -1.5503651937,
				"element": "H" 
			},
			{
				"x": -1.2050201203,
				"y": -1.1131743899,
				"z": -0.4625912443,
				"element": "H" 
			},
			{
				"x": -1.2069952351,
				"y": -2.208369112,
				"z": 1.7646379159,
				"element": "H" 
			},
			{
				"x": -2.0398099121,
				"y": -3.2264383538,
				"z": 0.5781926517,
				"element": "H" 
			},
			{
				"x": -0.3840556319,
				"y": -3.6315421033,
				"z": 1.0809788265,
				"element": "H" 
			},
			{
				"x": 2.6079038473,
				"y": -0.0318367363,
				"z": -1.0170484328,
				"element": "H" 
			},
			{
				"x": 0.9873704337,
				"y": 1.7079791201,
				"z": -0.3918196564,
				"element": "H" 
			},
			{
				"x": 1.1556578066,
				"y": 1.6624016257,
				"z": -2.1639750917,
				"element": "H" 
			},
			{
				"x": -0.2754185748,
				"y": 0.9730210987,
				"z": -1.3857301209,
				"element": "H" 
			}
		],
		 "valence_orbital": [ 
			{
				"type": "occ",
				"energy": -0.31621,
				"method": "rhf"
			},
			{
				"type": "occ",
				"energy": -0.29293,
				"method": "rhf"
			},
			{
				"type": "occ",
				"energy": -0.23048,
				"method": "rhf"
			},
			{
				"type": "occ",
				"energy": -0.22807,
				"method": "rhf"
			},
			{
				"type": "occ",
				"energy": -0.21452,
				"method": "rhf"
			},
			{
				"type": "unocc",
				"energy": 0.01785,
				"method": "rhf"
			},
			{
				"type": "unocc",
				"energy": 0.04554,
				"method": "rhf"
			},
			{
				"type": "unocc",
				"energy": 0.05945,
				"method": "rhf"
			},
			{
				"type": "unocc",
				"energy": 0.07222,
				"method": "rhf"
			},
			{
				"type": "unocc",
				"energy": 0.08015,
				"method": "rhf"
			}
		],
		"cosmo_sigma_profile": { 
			"-0.025": 0.0,
			"-0.024": 0.0,
			"-0.023": 0.0,
			"-0.022": 0.0,
			"-0.021": 0.0,
			"-0.02": 0.0,
			"-0.019": 0.0,
			"-0.018": 0.0,
			"-0.017": 0.0,
			"-0.016": 0.0,
			"-0.015": 0.0107641876176,
			"-0.014": 0.0243688050405,
			"-0.013": 0.0548555764766,
			"-0.012": 0.193074209334,
			"-0.011": 1.43456501662,
			"-0.01": 1.48272252794,
			"-0.009": 1.7106598563,
			"-0.008": 2.21049885559,
			"-0.007": 5.96742036322,
			"-0.006": 8.10441794746,
			"-0.005": 10.2999979664,
			"-0.004": 16.7567172679,
			"-0.003": 20.9990874532,
			"-0.002": 20.5767544003,
			"-0.001": 19.7807632497,
			"0.0": 22.2312504972,
			"0.001": 11.4733197363,
			"0.002": 4.93402331088,
			"0.003": 4.96611483071,
			"0.004": 5.73040087155,
			"0.005": 7.28526442697,
			"0.006": 6.75640057198,
			"0.007": 3.93394596121,
			"0.008": 5.43470115139,
			"0.009": 3.77240135007,
			"0.01": 3.69038299659,
			"0.011": 2.35400194082,
			"0.012": 2.19839402019,
			"0.013": 1.12823509042,
			"0.014": 1.2358130696,
			"0.015": 0.975198967908,
			"0.016": 0.509896698896,
			"0.017": 0.67745966729,
			"0.018": 0.161432935943,
			"0.019": 0.0,
			"0.02": 0.0,
			"0.021": 0.0,
			"0.022": 0.0,
			"0.023": 0.0,
			"0.024": 0.0,
			"0.025": 0.0
		}
	}
}
