{
	 "smiles": "N#CC1=CN=C(C=C1)N1CCN(CC1)C1=CC=CC=C1", 
	 "Tm": 405.15, 
	 "num_atms": 36, 
	 "gaussian": { 
		 "optdone": 1, 
		 "sigma_profile": "yes", 
		 "theory": "DFT", 
		 "functional": "B3LYP", 
		 "basiset": "6-31G**", 
		 "properties": { 
			 "R2extent": 9471.3906, 
			 "electric_dipole_moment_norm": 5.96502721201, 
			 "electric_quadrupole_moment_norm": 45.7803330776, 
			 "total_energy": -838.329624227, 
			 "HOMO_LUMO_gap": 0.16896, 
			 "cosmo_polarized_energy": -14.96, 
			 "cosmo_cavitation_energy": 39.18, 
			 "cosmo_dispersion_energy": -28.24, 
			 "cosmo_repulsion_energy": 2.13, 
			 "cosmo_total_nonelectrostatic_energy": 13.07, 
			 "SMD_solvation_energy": 4.74 
		},
		"coords": [
			{
				"x": -3.9002464479,
				"y": -2.3614593505,
				"z": 6.8502952603,
				"element": "N" 
			},
			{
				"x": -3.4959870156,
				"y": -2.0199458838,
				"z": 5.8129115539,
				"element": "C" 
			},
			{
				"x": -2.997304251,
				"y": -1.6023012,
				"z": 4.5433273506,
				"element": "C" 
			},
			{
				"x": -1.7181006419,
				"y": -1.9793540884,
				"z": 4.1055508551,
				"element": "C" 
			},
			{
				"x": -1.1994058572,
				"y": -1.6235054083,
				"z": 2.937734015,
				"element": "N" 
			},
			{
				"x": -1.9213221447,
				"y": -0.8448695466,
				"z": 2.1012717575,
				"element": "C" 
			},
			{
				"x": -3.2370516605,
				"y": -0.4312727978,
				"z": 2.4455020762,
				"element": "C" 
			},
			{
				"x": -3.7613123359,
				"y": -0.8090813728,
				"z": 3.6649686438,
				"element": "C" 
			},
			{
				"x": -1.3040266327,
				"y": -0.4718103545,
				"z": 0.9293296225,
				"element": "N" 
			},
			{
				"x": -0.0896444213,
				"y": -1.1579662832,
				"z": 0.4789567543,
				"element": "C" 
			},
			{
				"x": 0.848186475,
				"y": -0.1987349051,
				"z": -0.2520410512,
				"element": "C" 
			},
			{
				"x": 0.147621315,
				"y": 0.4498604899,
				"z": -1.3554802865,
				"element": "N" 
			},
			{
				"x": -1.0193441931,
				"y": 1.1846106485,
				"z": -0.8635290397,
				"element": "C" 
			},
			{
				"x": -1.9906303986,
				"y": 0.2542320969,
				"z": -0.1332213216,
				"element": "C" 
			},
			{
				"x": 0.9252835573,
				"y": 1.0897752812,
				"z": -2.3544576092,
				"element": "C" 
			},
			{
				"x": 2.3088005969,
				"y": 1.2952848448,
				"z": -2.2205856902,
				"element": "C" 
			},
			{
				"x": 3.0426050734,
				"y": 1.889501146,
				"z": -3.2503973548,
				"element": "C" 
			},
			{
				"x": 2.4181926282,
				"y": 2.3062232108,
				"z": -4.4237259114,
				"element": "C" 
			},
			{
				"x": 1.0410423815,
				"y": 2.1094247943,
				"z": -4.5630947884,
				"element": "C" 
			},
			{
				"x": 0.3055304271,
				"y": 1.5036758611,
				"z": -3.5498798015,
				"element": "C" 
			},
			{
				"x": -1.0927456987,
				"y": -2.6037383178,
				"z": 4.7408444753,
				"element": "H" 
			},
			{
				"x": -3.8430306325,
				"y": 0.1593203908,
				"z": 1.7717522734,
				"element": "H" 
			},
			{
				"x": -4.7643699765,
				"y": -0.5040597527,
				"z": 3.945501981,
				"element": "H" 
			},
			{
				"x": -0.364196968,
				"y": -1.9779847172,
				"z": -0.2023417338,
				"element": "H" 
			},
			{
				"x": 0.4030763721,
				"y": -1.5855241365,
				"z": 1.3499473155,
				"element": "H" 
			},
			{
				"x": 1.6842112238,
				"y": -0.778683481,
				"z": -0.6522969628,
				"element": "H" 
			},
			{
				"x": 1.2560828751,
				"y": 0.5340190314,
				"z": 0.4680234577,
				"element": "H" 
			},
			{
				"x": -0.7123456987,
				"y": 1.9917735039,
				"z": -0.173699599,
				"element": "H" 
			},
			{
				"x": -1.543956585,
				"y": 1.649132341,
				"z": -1.6999731383,
				"element": "H" 
			},
			{
				"x": -2.7889679816,
				"y": 0.8674213123,
				"z": 0.2854013345,
				"element": "H" 
			},
			{
				"x": -2.4378752029,
				"y": -0.4495157561,
				"z": -0.8528821861,
				"element": "H" 
			},
			{
				"x": 2.8214001314,
				"y": 1.0067111604,
				"z": -1.3102055179,
				"element": "H" 
			},
			{
				"x": 4.1115132145,
				"y": 2.0356024458,
				"z": -3.1207521623,
				"element": "H" 
			},
			{
				"x": 2.9917817698,
				"y": 2.7715985525,
				"z": -5.2192688866,
				"element": "H" 
			},
			{
				"x": 0.5370172614,
				"y": 2.4144094285,
				"z": -5.4760788257,
				"element": "H" 
			},
			{
				"x": -0.754780558,
				"y": 1.3198308123,
				"z": -3.6939068597,
				"element": "H" 
			}
		],
		 "valence_orbital": [ 
			{
				"type": "occ",
				"energy": -0.28212,
				"method": "rhf"
			},
			{
				"type": "occ",
				"energy": -0.27112,
				"method": "rhf"
			},
			{
				"type": "occ",
				"energy": -0.25268,
				"method": "rhf"
			},
			{
				"type": "occ",
				"energy": -0.22024,
				"method": "rhf"
			},
			{
				"type": "occ",
				"energy": -0.20866,
				"method": "rhf"
			},
			{
				"type": "unocc",
				"energy": -0.0397,
				"method": "rhf"
			},
			{
				"type": "unocc",
				"energy": -0.03342,
				"method": "rhf"
			},
			{
				"type": "unocc",
				"energy": -0.00473,
				"method": "rhf"
			},
			{
				"type": "unocc",
				"energy": 0.00342,
				"method": "rhf"
			},
			{
				"type": "unocc",
				"energy": 0.04012,
				"method": "rhf"
			}
		],
		"cosmo_sigma_profile": { 
			"-0.025": 0.0,
			"-0.024": 0.0,
			"-0.023": 0.0,
			"-0.022": 0.0,
			"-0.021": 0.0,
			"-0.02": 0.0,
			"-0.019": 0.0,
			"-0.018": 0.0,
			"-0.017": 0.0,
			"-0.016": 0.0,
			"-0.015": 0.0,
			"-0.014": 0.0,
			"-0.013": 0.0,
			"-0.012": 0.0,
			"-0.011": 0.0,
			"-0.01": 0.160213493713,
			"-0.009": 1.61330365041,
			"-0.008": 5.32639711177,
			"-0.007": 8.41480689551,
			"-0.006": 12.5675456455,
			"-0.005": 22.4767509855,
			"-0.004": 31.8844892758,
			"-0.003": 36.9404049595,
			"-0.002": 25.6585309211,
			"-0.001": 20.8743638524,
			"0.0": 21.2909689646,
			"0.001": 21.8676732527,
			"0.002": 16.0682031043,
			"0.003": 14.3361931291,
			"0.004": 12.3678160216,
			"0.005": 12.7216029028,
			"0.006": 13.830064684,
			"0.007": 9.58292941569,
			"0.008": 5.64922254196,
			"0.009": 5.43676093328,
			"0.01": 4.90760813487,
			"0.011": 3.58623620922,
			"0.012": 2.64792811953,
			"0.013": 2.23851255574,
			"0.014": 0.660441827389,
			"0.015": 0.0,
			"0.016": 0.0,
			"0.017": 0.0,
			"0.018": 0.0,
			"0.019": 0.0,
			"0.02": 0.0,
			"0.021": 0.0,
			"0.022": 0.0,
			"0.023": 0.0,
			"0.024": 0.0,
			"0.025": 0.0
		}
	}
}
