{
	 "smiles": "CN(C)C1=C(C=O)C(Cl)=NC=N1", 
	 "Tm": 415.15, 
	 "num_atms": 20, 
	 "gaussian": { 
		 "optdone": 1, 
		 "sigma_profile": "yes", 
		 "theory": "DFT", 
		 "functional": "B3LYP", 
		 "basiset": "6-31G**", 
		 "properties": { 
			 "R2extent": 2785.4191, 
			 "electric_dipole_moment_norm": 3.45433527469, 
			 "electric_quadrupole_moment_norm": 6.79498543192, 
			 "total_energy": -971.216771873, 
			 "HOMO_LUMO_gap": 0.16736, 
			 "cosmo_polarized_energy": -9.57, 
			 "cosmo_cavitation_energy": 25.3, 
			 "cosmo_dispersion_energy": -18.9, 
			 "cosmo_repulsion_energy": 1.49, 
			 "cosmo_total_nonelectrostatic_energy": 7.89, 
			 "SMD_solvation_energy": 2.84 
		},
		"coords": [
			{
				"x": -1.1052909689,
				"y": 2.0587217596,
				"z": -1.2714362139,
				"element": "C" 
			},
			{
				"x": -0.5329648973,
				"y": 1.8525571843,
				"z": 0.0548245722,
				"element": "N" 
			},
			{
				"x": -1.233194437,
				"y": 2.5314507661,
				"z": 1.1455448354,
				"element": "C" 
			},
			{
				"x": 0.4167600945,
				"y": 0.9283651055,
				"z": 0.3233774276,
				"element": "C" 
			},
			{
				"x": 1.3148333307,
				"y": 0.3850850014,
				"z": -0.6665482198,
				"element": "C" 
			},
			{
				"x": 1.7602116061,
				"y": 1.1096542425,
				"z": -1.8701778971,
				"element": "C" 
			},
			{
				"x": 1.5117981038,
				"y": 2.2803595028,
				"z": -2.1173404416,
				"element": "O" 
			},
			{
				"x": 1.958734691,
				"y": -0.7982476819,
				"z": -0.2504435432,
				"element": "C" 
			},
			{
				"x": 2.934380643,
				"y": -1.7240857343,
				"z": -1.3936666994,
				"element": "Cl" 
			},
			{
				"x": 1.9195291178,
				"y": -1.301212418,
				"z": 0.9665137652,
				"element": "N" 
			},
			{
				"x": 1.2355925649,
				"y": -0.5574297747,
				"z": 1.8558515623,
				"element": "C" 
			},
			{
				"x": 0.4863148104,
				"y": 0.4984178614,
				"z": 1.6093560178,
				"element": "N" 
			},
			{
				"x": -0.920489428,
				"y": 1.1876548517,
				"z": -1.9014513538,
				"element": "H" 
			},
			{
				"x": -2.1874561828,
				"y": 2.1767178995,
				"z": -1.1563784876,
				"element": "H" 
			},
			{
				"x": -0.6835737352,
				"y": 2.9353014857,
				"z": -1.7678995483,
				"element": "H" 
			},
			{
				"x": -2.1860698944,
				"y": 2.0375296004,
				"z": 1.3738364101,
				"element": "H" 
			},
			{
				"x": -1.4357256704,
				"y": 3.5614979413,
				"z": 0.8380392128,
				"element": "H" 
			},
			{
				"x": -0.6187940212,
				"y": 2.5279501984,
				"z": 2.0424080708,
				"element": "H" 
			},
			{
				"x": 2.4196160616,
				"y": 0.5254488363,
				"z": -2.5355295073,
				"element": "H" 
			},
			{
				"x": 1.2929882114,
				"y": -0.8856366282,
				"z": 2.8920200379,
				"element": "H" 
			}
		],
		 "valence_orbital": [ 
			{
				"type": "occ",
				"energy": -0.32038,
				"method": "rhf"
			},
			{
				"type": "occ",
				"energy": -0.28613,
				"method": "rhf"
			},
			{
				"type": "occ",
				"energy": -0.27261,
				"method": "rhf"
			},
			{
				"type": "occ",
				"energy": -0.25536,
				"method": "rhf"
			},
			{
				"type": "occ",
				"energy": -0.24193,
				"method": "rhf"
			},
			{
				"type": "unocc",
				"energy": -0.07457,
				"method": "rhf"
			},
			{
				"type": "unocc",
				"energy": -0.03243,
				"method": "rhf"
			},
			{
				"type": "unocc",
				"energy": 0.00959,
				"method": "rhf"
			},
			{
				"type": "unocc",
				"energy": 0.02743,
				"method": "rhf"
			},
			{
				"type": "unocc",
				"energy": 0.09089,
				"method": "rhf"
			}
		],
		"cosmo_sigma_profile": { 
			"-0.025": 0.0,
			"-0.024": 0.0,
			"-0.023": 0.0,
			"-0.022": 0.0,
			"-0.021": 0.0,
			"-0.02": 0.0,
			"-0.019": 0.0,
			"-0.018": 0.0,
			"-0.017": 0.0,
			"-0.016": 0.0,
			"-0.015": 0.0,
			"-0.014": 0.0,
			"-0.013": 0.0,
			"-0.012": 0.0,
			"-0.011": 0.0,
			"-0.01": 0.0,
			"-0.009": 0.251372264304,
			"-0.008": 1.86168074325,
			"-0.007": 2.75851433849,
			"-0.006": 9.12227190316,
			"-0.005": 18.3387964099,
			"-0.004": 20.7455083451,
			"-0.003": 25.8417625192,
			"-0.002": 25.2103833904,
			"-0.001": 13.8129794113,
			"0.0": 10.4821529222,
			"0.001": 10.5026890384,
			"0.002": 10.7723569459,
			"0.003": 10.1653026555,
			"0.004": 7.13253979699,
			"0.005": 6.3720576216,
			"0.006": 5.72527551582,
			"0.007": 4.1949436434,
			"0.008": 4.05418703269,
			"0.009": 3.29894439509,
			"0.01": 4.39751950704,
			"0.011": 3.98329764361,
			"0.012": 2.79193269765,
			"0.013": 2.04442410872,
			"0.014": 0.678653275144,
			"0.015": 0.0617498640791,
			"0.016": 0.0,
			"0.017": 0.0,
			"0.018": 0.0,
			"0.019": 0.0,
			"0.02": 0.0,
			"0.021": 0.0,
			"0.022": 0.0,
			"0.023": 0.0,
			"0.024": 0.0,
			"0.025": 0.0
		}
	}
}
