{
	 "smiles": "OC1=C(Br)C=C(Br)C(C=O)=C1Br", 
	 "Tm": 394.15, 
	 "num_atms": 15, 
	 "gaussian": { 
		 "optdone": 1, 
		 "sigma_profile": "yes", 
		 "theory": "DFT", 
		 "functional": "B3LYP", 
		 "basiset": "6-31G**", 
		 "properties": { 
			 "R2extent": 5775.3813, 
			 "electric_dipole_moment_norm": 1.2228019668, 
			 "electric_quadrupole_moment_norm": 11.1742529307, 
			 "total_energy": -8133.18341603, 
			 "HOMO_LUMO_gap": 0.15739, 
			 "cosmo_polarized_energy": -8.27, 
			 "cosmo_cavitation_energy": 26.42, 
			 "cosmo_dispersion_energy": -20.99, 
			 "cosmo_repulsion_energy": 1.65, 
			 "cosmo_total_nonelectrostatic_energy": 7.09, 
			 "SMD_solvation_energy": 2.81 
		},
		"coords": [
			{
				"x": 0.933505951,
				"y": -2.8507800232,
				"z": 0.9763399273,
				"element": "O" 
			},
			{
				"x": 0.7614471841,
				"y": -1.5973311476,
				"z": 0.5252011907,
				"element": "C" 
			},
			{
				"x": 0.0985854677,
				"y": -0.671617878,
				"z": 1.348405233,
				"element": "C" 
			},
			{
				"x": -0.5242214194,
				"y": -1.2176050578,
				"z": 3.0513005759,
				"element": "Br" 
			},
			{
				"x": -0.1069823768,
				"y": 0.637309406,
				"z": 0.9324373822,
				"element": "C" 
			},
			{
				"x": 0.3475933376,
				"y": 1.0450842829,
				"z": -0.3162766358,
				"element": "C" 
			},
			{
				"x": 0.0003781277,
				"y": 2.8764341594,
				"z": -0.7699335866,
				"element": "Br" 
			},
			{
				"x": 1.0193027445,
				"y": 0.1646567766,
				"z": -1.1871651311,
				"element": "C" 
			},
			{
				"x": 1.4907006077,
				"y": 0.6482314419,
				"z": -2.5198893887,
				"element": "C" 
			},
			{
				"x": 2.0777164448,
				"y": -0.0178786704,
				"z": -3.3473479954,
				"element": "O" 
			},
			{
				"x": 1.2097773852,
				"y": -1.1553878845,
				"z": -0.7322308801,
				"element": "C" 
			},
			{
				"x": 2.0985008355,
				"y": -2.4908727443,
				"z": -1.7754156259,
				"element": "Br" 
			},
			{
				"x": 1.4052794114,
				"y": -3.3584461514,
				"z": 0.2910209827,
				"element": "H" 
			},
			{
				"x": -0.6201575483,
				"y": 1.3339071586,
				"z": 1.5822283449,
				"element": "H" 
			},
			{
				"x": 1.2566738473,
				"y": 1.709096332,
				"z": -2.7117743932,
				"element": "H" 
			}
		],
		 "valence_orbital": [ 
			{
				"type": "occ",
				"energy": -0.30329,
				"method": "rhf"
			},
			{
				"type": "occ",
				"energy": -0.30134,
				"method": "rhf"
			},
			{
				"type": "occ",
				"energy": -0.27037,
				"method": "rhf"
			},
			{
				"type": "occ",
				"energy": -0.26085,
				"method": "rhf"
			},
			{
				"type": "occ",
				"energy": -0.24677,
				"method": "rhf"
			},
			{
				"type": "unocc",
				"energy": -0.08938,
				"method": "rhf"
			},
			{
				"type": "unocc",
				"energy": -0.0481,
				"method": "rhf"
			},
			{
				"type": "unocc",
				"energy": -0.03594,
				"method": "rhf"
			},
			{
				"type": "unocc",
				"energy": 0.00317,
				"method": "rhf"
			},
			{
				"type": "unocc",
				"energy": 0.00854,
				"method": "rhf"
			}
		],
		"cosmo_sigma_profile": { 
			"-0.025": 0.0,
			"-0.024": 0.0,
			"-0.023": 0.0,
			"-0.022": 0.0,
			"-0.021": 0.0,
			"-0.02": 0.0,
			"-0.019": 0.0,
			"-0.018": 0.0,
			"-0.017": 0.0,
			"-0.016": 0.0,
			"-0.015": 0.471588221838,
			"-0.014": 0.339840832939,
			"-0.013": 0.539405075531,
			"-0.012": 0.798262313177,
			"-0.011": 1.10426360312,
			"-0.01": 0.74311445248,
			"-0.009": 1.56347245612,
			"-0.008": 2.77456377623,
			"-0.007": 2.72854447688,
			"-0.006": 7.49162722862,
			"-0.005": 12.8117789678,
			"-0.004": 13.1773259702,
			"-0.003": 14.9581586659,
			"-0.002": 23.1168400998,
			"-0.001": 25.7452214922,
			"0.0": 21.6153680386,
			"0.001": 15.2525073854,
			"0.002": 17.3322913801,
			"0.003": 23.2200414963,
			"0.004": 8.96703115398,
			"0.005": 4.04280450166,
			"0.006": 4.73548365113,
			"0.007": 2.96309558124,
			"0.008": 4.46128802897,
			"0.009": 5.30675704537,
			"0.01": 3.49903352712,
			"0.011": 2.61495260157,
			"0.012": 0.722503126644,
			"0.013": 0.0,
			"0.014": 0.0,
			"0.015": 0.0,
			"0.016": 0.0,
			"0.017": 0.0,
			"0.018": 0.0,
			"0.019": 0.0,
			"0.02": 0.0,
			"0.021": 0.0,
			"0.022": 0.0,
			"0.023": 0.0,
			"0.024": 0.0,
			"0.025": 0.0
		}
	}
}
