{
	 "smiles": "NC1=C(CN2C=CN=C2)C=CC=C1", 
	 "Tm": 355.15, 
	 "num_atms": 24, 
	 "gaussian": { 
		 "optdone": 1, 
		 "sigma_profile": "yes", 
		 "theory": "DFT", 
		 "functional": "B3LYP", 
		 "basiset": "6-31G**", 
		 "properties": { 
			 "R2extent": 3442.612, 
			 "electric_dipole_moment_norm": 5.40304874862, 
			 "electric_quadrupole_moment_norm": 17.9896480063, 
			 "total_energy": -551.938085776, 
			 "HOMO_LUMO_gap": 0.20185, 
			 "cosmo_polarized_energy": -16.48, 
			 "cosmo_cavitation_energy": 27.35, 
			 "cosmo_dispersion_energy": -19.85, 
			 "cosmo_repulsion_energy": 1.55, 
			 "cosmo_total_nonelectrostatic_energy": 9.05, 
			 "SMD_solvation_energy": 3.61 
		},
		"coords": [
			{
				"x": 0.3249698381,
				"y": 1.7371008127,
				"z": 1.1964444894,
				"element": "N" 
			},
			{
				"x": -0.8438354452,
				"y": 1.5007690516,
				"z": 0.459688452,
				"element": "C" 
			},
			{
				"x": -1.8726301988,
				"y": 0.6631426764,
				"z": 0.9473898317,
				"element": "C" 
			},
			{
				"x": -1.8016499885,
				"y": 0.0202666088,
				"z": 2.3177361599,
				"element": "C" 
			},
			{
				"x": -1.128162463,
				"y": -1.2801868703,
				"z": 2.3431825937,
				"element": "N" 
			},
			{
				"x": 0.1671560835,
				"y": -1.5676691429,
				"z": 1.9529723677,
				"element": "C" 
			},
			{
				"x": 0.3277648205,
				"y": -2.9118362235,
				"z": 2.1846346994,
				"element": "C" 
			},
			{
				"x": -0.8231330443,
				"y": -3.4618478474,
				"z": 2.7039126136,
				"element": "N" 
			},
			{
				"x": -1.6697560999,
				"y": -2.4584515421,
				"z": 2.7842418546,
				"element": "C" 
			},
			{
				"x": -2.984600161,
				"y": 0.4147965565,
				"z": 0.1345479417,
				"element": "C" 
			},
			{
				"x": -3.1036474311,
				"y": 0.9625961659,
				"z": -1.1402821843,
				"element": "C" 
			},
			{
				"x": -2.0824428775,
				"y": 1.7872758282,
				"z": -1.6164980458,
				"element": "C" 
			},
			{
				"x": -0.9704406525,
				"y": 2.0557456751,
				"z": -0.8257395141,
				"element": "C" 
			},
			{
				"x": 0.8436332102,
				"y": 2.5529591838,
				"z": 0.899315547,
				"element": "H" 
			},
			{
				"x": 0.2265870119,
				"y": 1.7142809358,
				"z": 2.2023458223,
				"element": "H" 
			},
			{
				"x": -2.8156152854,
				"y": -0.1510339907,
				"z": 2.6888350735,
				"element": "H" 
			},
			{
				"x": -1.3195797527,
				"y": 0.6827780506,
				"z": 3.0487238162,
				"element": "H" 
			},
			{
				"x": 0.81800225,
				"y": -0.8065452769,
				"z": 1.5503611521,
				"element": "H" 
			},
			{
				"x": 1.2076248055,
				"y": -3.5142311346,
				"z": 2.0034540292,
				"element": "H" 
			},
			{
				"x": -2.6863801461,
				"y": -2.5128044203,
				"z": 3.1522486075,
				"element": "H" 
			},
			{
				"x": -3.7732719674,
				"y": -0.2280389882,
				"z": 0.5187310094,
				"element": "H" 
			},
			{
				"x": -3.9766122392,
				"y": 0.7522877851,
				"z": -1.7495097101,
				"element": "H" 
			},
			{
				"x": -2.1528404423,
				"y": 2.2305261263,
				"z": -2.6057766764,
				"element": "H" 
			},
			{
				"x": -0.1787398249,
				"y": 2.6996199802,
				"z": -1.2017599301,
				"element": "H" 
			}
		],
		 "valence_orbital": [ 
			{
				"type": "occ",
				"energy": -0.26214,
				"method": "rhf"
			},
			{
				"type": "occ",
				"energy": -0.25438,
				"method": "rhf"
			},
			{
				"type": "occ",
				"energy": -0.24795,
				"method": "rhf"
			},
			{
				"type": "occ",
				"energy": -0.21592,
				"method": "rhf"
			},
			{
				"type": "occ",
				"energy": -0.21349,
				"method": "rhf"
			},
			{
				"type": "unocc",
				"energy": -0.01164,
				"method": "rhf"
			},
			{
				"type": "unocc",
				"energy": 0.00569,
				"method": "rhf"
			},
			{
				"type": "unocc",
				"energy": 0.03557,
				"method": "rhf"
			},
			{
				"type": "unocc",
				"energy": 0.0624,
				"method": "rhf"
			},
			{
				"type": "unocc",
				"energy": 0.08329,
				"method": "rhf"
			}
		],
		"cosmo_sigma_profile": { 
			"-0.025": 0.0,
			"-0.024": 0.0,
			"-0.023": 0.0,
			"-0.022": 0.0,
			"-0.021": 0.0,
			"-0.02": 0.0,
			"-0.019": 0.0,
			"-0.018": 0.0,
			"-0.017": 0.0,
			"-0.016": 0.0,
			"-0.015": 0.0,
			"-0.014": 0.0074418789348,
			"-0.013": 1.27492333953,
			"-0.012": 2.86892446952,
			"-0.011": 3.2601429236,
			"-0.01": 3.02816739305,
			"-0.009": 4.40001643438,
			"-0.008": 6.94525116553,
			"-0.007": 7.69132323755,
			"-0.006": 10.1252403362,
			"-0.005": 15.2079019674,
			"-0.004": 14.729547072,
			"-0.003": 15.3795533029,
			"-0.002": 12.2863580718,
			"-0.001": 11.2081073689,
			"0.0": 9.87570421236,
			"0.001": 9.52687860558,
			"0.002": 11.0996143728,
			"0.003": 12.27225293,
			"0.004": 12.6531280083,
			"0.005": 15.7051639192,
			"0.006": 14.7233761326,
			"0.007": 6.92100273836,
			"0.008": 2.44324072382,
			"0.009": 2.46050797121,
			"0.01": 2.02983719993,
			"0.011": 1.3030661265,
			"0.012": 1.51784010128,
			"0.013": 1.20446095285,
			"0.014": 1.3062576434,
			"0.015": 1.09840610189,
			"0.016": 1.07675578965,
			"0.017": 1.42590568214,
			"0.018": 0.91062443822,
			"0.019": 0.238858054725,
			"0.02": 0.0,
			"0.021": 0.0,
			"0.022": 0.0,
			"0.023": 0.0,
			"0.024": 0.0,
			"0.025": 0.0
		}
	}
}
