{
	 "smiles": "CC(=C)CNC(=S)NN", 
	 "Tm": 360.15, 
	 "num_atms": 20, 
	 "gaussian": { 
		 "optdone": 1, 
		 "sigma_profile": "yes", 
		 "theory": "DFT", 
		 "functional": "B3LYP", 
		 "basiset": "6-31G**", 
		 "properties": { 
			 "R2extent": 2003.934, 
			 "electric_dipole_moment_norm": 4.93110024842, 
			 "electric_quadrupole_moment_norm": 10.1294111339, 
			 "total_energy": -759.568496964, 
			 "HOMO_LUMO_gap": 0.20375, 
			 "cosmo_polarized_energy": -14.91, 
			 "cosmo_cavitation_energy": 24.76, 
			 "cosmo_dispersion_energy": -18.08, 
			 "cosmo_repulsion_energy": 1.46, 
			 "cosmo_total_nonelectrostatic_energy": 8.15, 
			 "SMD_solvation_energy": 4.08 
		},
		"coords": [
			{
				"x": 1.3895968351,
				"y": 0.6014876875,
				"z": -2.4055147651,
				"element": "C" 
			},
			{
				"x": 0.1903839318,
				"y": 0.5264001038,
				"z": -1.4945874257,
				"element": "C" 
			},
			{
				"x": -1.0095894246,
				"y": 0.1005464012,
				"z": -1.8998742235,
				"element": "C" 
			},
			{
				"x": 0.4595753685,
				"y": 0.9880304921,
				"z": -0.0696199645,
				"element": "C" 
			},
			{
				"x": -0.6402973309,
				"y": 0.8443660529,
				"z": 0.8736371917,
				"element": "N" 
			},
			{
				"x": -0.9259576735,
				"y": -0.2821148734,
				"z": 1.591007636,
				"element": "C" 
			},
			{
				"x": -1.9140067087,
				"y": -0.2370929101,
				"z": 2.9534176338,
				"element": "S" 
			},
			{
				"x": -0.3505610981,
				"y": -1.4277394197,
				"z": 1.1155188838,
				"element": "N" 
			},
			{
				"x": -0.6301841154,
				"y": -2.6978390831,
				"z": 1.6601636864,
				"element": "N" 
			},
			{
				"x": 1.7682564173,
				"y": 1.6297449741,
				"z": -2.4746079501,
				"element": "H" 
			},
			{
				"x": 1.1476003073,
				"y": 0.2619311782,
				"z": -3.4151844705,
				"element": "H" 
			},
			{
				"x": 2.218021019,
				"y": -0.0112414966,
				"z": -2.0275105481,
				"element": "H" 
			},
			{
				"x": -1.176011181,
				"y": -0.220573099,
				"z": -2.9236516146,
				"element": "H" 
			},
			{
				"x": -1.8603540076,
				"y": 0.076962021,
				"z": -1.2263928578,
				"element": "H" 
			},
			{
				"x": 0.73957478,
				"y": 2.0486185768,
				"z": -0.0884618478,
				"element": "H" 
			},
			{
				"x": 1.3403561742,
				"y": 0.4529281495,
				"z": 0.316138929,
				"element": "H" 
			},
			{
				"x": -1.0569441555,
				"y": 1.6787541461,
				"z": 1.2582442531,
				"element": "H" 
			},
			{
				"x": -0.1309372169,
				"y": -1.4646473889,
				"z": 0.1272629296,
				"element": "H" 
			},
			{
				"x": -1.6048080053,
				"y": -2.6826138533,
				"z": 1.9712044257,
				"element": "H" 
			},
			{
				"x": -0.0836139159,
				"y": -2.7826076589,
				"z": 2.5166100984,
				"element": "H" 
			}
		],
		 "valence_orbital": [ 
			{
				"type": "occ",
				"energy": -0.28235,
				"method": "rhf"
			},
			{
				"type": "occ",
				"energy": -0.27062,
				"method": "rhf"
			},
			{
				"type": "occ",
				"energy": -0.25996,
				"method": "rhf"
			},
			{
				"type": "occ",
				"energy": -0.21611,
				"method": "rhf"
			},
			{
				"type": "occ",
				"energy": -0.20616,
				"method": "rhf"
			},
			{
				"type": "unocc",
				"energy": -0.00241,
				"method": "rhf"
			},
			{
				"type": "unocc",
				"energy": 0.00278,
				"method": "rhf"
			},
			{
				"type": "unocc",
				"energy": 0.06423,
				"method": "rhf"
			},
			{
				"type": "unocc",
				"energy": 0.08369,
				"method": "rhf"
			},
			{
				"type": "unocc",
				"energy": 0.09799,
				"method": "rhf"
			}
		],
		"cosmo_sigma_profile": { 
			"-0.025": 0.0,
			"-0.024": 0.0,
			"-0.023": 0.0,
			"-0.022": 0.0,
			"-0.021": 0.0,
			"-0.02": 0.0,
			"-0.019": 0.0,
			"-0.018": 0.0,
			"-0.017": 0.0,
			"-0.016": 0.0,
			"-0.015": 0.0924140345599,
			"-0.014": 1.11263436031,
			"-0.013": 1.00294124873,
			"-0.012": 0.815801746034,
			"-0.011": 2.62246884538,
			"-0.01": 2.888451898,
			"-0.009": 3.32208776664,
			"-0.008": 4.14680557137,
			"-0.007": 6.22315872221,
			"-0.006": 7.96107449188,
			"-0.005": 12.3889606089,
			"-0.004": 17.1964422387,
			"-0.003": 17.292164065,
			"-0.002": 15.0890298207,
			"-0.001": 13.0250496197,
			"0.0": 14.3216487503,
			"0.001": 11.8541545228,
			"0.002": 7.79442740509,
			"0.003": 7.15273782545,
			"0.004": 5.97668588831,
			"0.005": 5.02507111537,
			"0.006": 5.44081366848,
			"0.007": 4.01565159783,
			"0.008": 4.18442426788,
			"0.009": 4.9248859684,
			"0.01": 6.23126260661,
			"0.011": 8.04975863905,
			"0.012": 3.89709133897,
			"0.013": 0.846708292816,
			"0.014": 0.776148201076,
			"0.015": 0.482012669549,
			"0.016": 0.495377203108,
			"0.017": 0.169496086834,
			"0.018": 0.0,
			"0.019": 0.0,
			"0.02": 0.0,
			"0.021": 0.0,
			"0.022": 0.0,
			"0.023": 0.0,
			"0.024": 0.0,
			"0.025": 0.0
		}
	}
}
