{
	 "smiles": "CC1=CC=C(C)C(O)=C1", 
	 "Tm": 348.15, 
	 "num_atms": 19, 
	 "gaussian": { 
		 "optdone": 1, 
		 "sigma_profile": "yes", 
		 "theory": "DFT", 
		 "functional": "B3LYP", 
		 "basiset": "6-31G**", 
		 "properties": { 
			 "R2extent": 1480.7382, 
			 "electric_dipole_moment_norm": 1.35861727135, 
			 "electric_quadrupole_moment_norm": 8.77032641582, 
			 "total_energy": -386.111961984, 
			 "HOMO_LUMO_gap": 0.21785, 
			 "cosmo_polarized_energy": -7.2, 
			 "cosmo_cavitation_energy": 21.88, 
			 "cosmo_dispersion_energy": -16.34, 
			 "cosmo_repulsion_energy": 1.33, 
			 "cosmo_total_nonelectrostatic_energy": 6.88, 
			 "SMD_solvation_energy": 4.08 
		},
		"coords": [
			{
				"x": -0.8731065208,
				"y": -3.1309615764,
				"z": -0.1384098818,
				"element": "C" 
			},
			{
				"x": -1.0101196983,
				"y": -1.6355812296,
				"z": 0.0302213287,
				"element": "C" 
			},
			{
				"x": -2.2491675231,
				"y": -1.0003371397,
				"z": -0.1200600509,
				"element": "C" 
			},
			{
				"x": -2.3630047995,
				"y": 0.3769145465,
				"z": 0.0671087583,
				"element": "C" 
			},
			{
				"x": -1.2613236088,
				"y": 1.168398624,
				"z": 0.4049961911,
				"element": "C" 
			},
			{
				"x": -1.3812887711,
				"y": 2.6607831401,
				"z": 0.6041703939,
				"element": "C" 
			},
			{
				"x": -0.0198331628,
				"y": 0.5222309338,
				"z": 0.550978195,
				"element": "C" 
			},
			{
				"x": 1.1229345686,
				"y": 1.2045206423,
				"z": 0.8761276103,
				"element": "O" 
			},
			{
				"x": 0.1010893759,
				"y": -0.8559154774,
				"z": 0.3651997815,
				"element": "C" 
			},
			{
				"x": -1.6950122441,
				"y": -3.5423430613,
				"z": -0.7315383678,
				"element": "H" 
			},
			{
				"x": 0.0671533913,
				"y": -3.3944818624,
				"z": -0.6331672633,
				"element": "H" 
			},
			{
				"x": -0.8815389268,
				"y": -3.6422657794,
				"z": 0.8324220011,
				"element": "H" 
			},
			{
				"x": -3.1267977046,
				"y": -1.5835099348,
				"z": -0.3851609599,
				"element": "H" 
			},
			{
				"x": -3.3316264946,
				"y": 0.8561092065,
				"z": -0.0551688864,
				"element": "H" 
			},
			{
				"x": -2.4116311132,
				"y": 2.991190708,
				"z": 0.4518609489,
				"element": "H" 
			},
			{
				"x": -1.0928502544,
				"y": 2.9692855814,
				"z": 1.6188795501,
				"element": "H" 
			},
			{
				"x": -0.7563245243,
				"y": 3.2262413216,
				"z": -0.101380107,
				"element": "H" 
			},
			{
				"x": 0.918396769,
				"y": 2.1425744855,
				"z": 0.9739411247,
				"element": "H" 
			},
			{
				"x": 1.0826512416,
				"y": -1.3050531286,
				"z": 0.4865796336,
				"element": "H" 
			}
		],
		 "valence_orbital": [ 
			{
				"type": "occ",
				"energy": -0.34495,
				"method": "rhf"
			},
			{
				"type": "occ",
				"energy": -0.32703,
				"method": "rhf"
			},
			{
				"type": "occ",
				"energy": -0.317,
				"method": "rhf"
			},
			{
				"type": "occ",
				"energy": -0.23261,
				"method": "rhf"
			},
			{
				"type": "occ",
				"energy": -0.21076,
				"method": "rhf"
			},
			{
				"type": "unocc",
				"energy": 0.00709,
				"method": "rhf"
			},
			{
				"type": "unocc",
				"energy": 0.02005,
				"method": "rhf"
			},
			{
				"type": "unocc",
				"energy": 0.06815,
				"method": "rhf"
			},
			{
				"type": "unocc",
				"energy": 0.10614,
				"method": "rhf"
			},
			{
				"type": "unocc",
				"energy": 0.125,
				"method": "rhf"
			}
		],
		"cosmo_sigma_profile": { 
			"-0.025": 0.0,
			"-0.024": 0.0,
			"-0.023": 0.0,
			"-0.022": 0.0,
			"-0.021": 0.0,
			"-0.02": 0.0,
			"-0.019": 0.0,
			"-0.018": 0.0,
			"-0.017": 0.0,
			"-0.016": 0.126522336802,
			"-0.015": 0.718826431493,
			"-0.014": 0.620487551525,
			"-0.013": 1.11041144647,
			"-0.012": 1.25986282229,
			"-0.011": 1.00085380469,
			"-0.01": 1.33888573167,
			"-0.009": 1.2305439439,
			"-0.008": 1.05493317271,
			"-0.007": 1.4718751835,
			"-0.006": 1.33638825173,
			"-0.005": 8.55925159393,
			"-0.004": 16.2430649622,
			"-0.003": 17.4019603588,
			"-0.002": 14.8899891523,
			"-0.001": 16.3025090516,
			"0.0": 18.8193014033,
			"0.001": 10.9036958256,
			"0.002": 8.5876434368,
			"0.003": 7.33828323871,
			"0.004": 8.28706764797,
			"0.005": 9.71834952683,
			"0.006": 9.66066832863,
			"0.007": 6.36677079153,
			"0.008": 1.42054019796,
			"0.009": 1.86767102663,
			"0.01": 1.47477959527,
			"0.011": 1.82318897513,
			"0.012": 1.54217822152,
			"0.013": 0.00864468563355,
			"0.014": 0.0,
			"0.015": 0.0,
			"0.016": 0.0,
			"0.017": 0.0,
			"0.018": 0.0,
			"0.019": 0.0,
			"0.02": 0.0,
			"0.021": 0.0,
			"0.022": 0.0,
			"0.023": 0.0,
			"0.024": 0.0,
			"0.025": 0.0
		}
	}
}
