{
	 "smiles": "CC1=C(C(C)=C(C)C2=C1CC2=O)[N+]([O-])=O", 
	 "Tm": 437.15, 
	 "num_atms": 26, 
	 "gaussian": { 
		 "optdone": 1, 
		 "sigma_profile": "yes", 
		 "theory": "DFT", 
		 "functional": "B3LYP", 
		 "basiset": "6-31G**", 
		 "properties": { 
			 "R2extent": 3753.5247, 
			 "electric_dipole_moment_norm": 0.489753672778, 
			 "electric_quadrupole_moment_norm": 23.4427556829, 
			 "total_energy": -706.095147419, 
			 "HOMO_LUMO_gap": 0.16695, 
			 "cosmo_polarized_energy": -10.54, 
			 "cosmo_cavitation_energy": 30.09, 
			 "cosmo_dispersion_energy": -21.15, 
			 "cosmo_repulsion_energy": 1.65, 
			 "cosmo_total_nonelectrostatic_energy": 10.59, 
			 "SMD_solvation_energy": 7.79 
		},
		"coords": [
			{
				"x": 0.626517811,
				"y": 2.8100738202,
				"z": 0.4200949471,
				"element": "C" 
			},
			{
				"x": -0.1872305532,
				"y": 1.5407157537,
				"z": 0.4207518797,
				"element": "C" 
			},
			{
				"x": -1.5706717831,
				"y": 1.4764360873,
				"z": 0.1378717617,
				"element": "C" 
			},
			{
				"x": -2.3768608671,
				"y": 0.3151247229,
				"z": 0.1328282057,
				"element": "C" 
			},
			{
				"x": -3.8569697575,
				"y": 0.3760386132,
				"z": -0.1741251792,
				"element": "C" 
			},
			{
				"x": -1.7723203236,
				"y": -0.9296016905,
				"z": 0.4290543915,
				"element": "C" 
			},
			{
				"x": -2.5218780299,
				"y": -2.2369949656,
				"z": 0.4541442118,
				"element": "C" 
			},
			{
				"x": -0.406767867,
				"y": -0.874821715,
				"z": 0.6920225261,
				"element": "C" 
			},
			{
				"x": 0.3592274434,
				"y": 0.2946411556,
				"z": 0.6889668949,
				"element": "C" 
			},
			{
				"x": 1.6765989642,
				"y": -0.3985342162,
				"z": 1.0338908458,
				"element": "C" 
			},
			{
				"x": 0.7930415335,
				"y": -1.7040038275,
				"z": 1.0318469047,
				"element": "C" 
			},
			{
				"x": 1.0193027567,
				"y": -2.871915694,
				"z": 1.2250718879,
				"element": "O" 
			},
			{
				"x": -2.2283156739,
				"y": 2.7563450885,
				"z": -0.1991843443,
				"element": "N" 
			},
			{
				"x": -2.1183491509,
				"y": 3.6784269894,
				"z": 0.6069206355,
				"element": "O" 
			},
			{
				"x": -2.8325556111,
				"y": 2.8215327233,
				"z": -1.267842024,
				"element": "O" 
			},
			{
				"x": 1.691316496,
				"y": 2.5659622091,
				"z": 0.4201299412,
				"element": "H" 
			},
			{
				"x": 0.4081387269,
				"y": 3.4176911613,
				"z": 1.3028041656,
				"element": "H" 
			},
			{
				"x": 0.4184539615,
				"y": 3.4331984243,
				"z": -0.4548382549,
				"element": "H" 
			},
			{
				"x": -4.3864275906,
				"y": -0.4265624279,
				"z": 0.342987121,
				"element": "H" 
			},
			{
				"x": -4.0385450991,
				"y": 0.2608824056,
				"z": -1.2482495572,
				"element": "H" 
			},
			{
				"x": -4.3099786694,
				"y": 1.322841883,
				"z": 0.1236633081,
				"element": "H" 
			},
			{
				"x": -3.2887449001,
				"y": -2.2468142192,
				"z": 1.2376702942,
				"element": "H" 
			},
			{
				"x": -3.0308858032,
				"y": -2.428952302,
				"z": -0.4966685885,
				"element": "H" 
			},
			{
				"x": -1.8315311026,
				"y": -3.0604459962,
				"z": 0.6477430519,
				"element": "H" 
			},
			{
				"x": 2.1223803384,
				"y": -0.154486844,
				"z": 2.0042816492,
				"element": "H" 
			},
			{
				"x": 2.4591547506,
				"y": -0.3810771394,
				"z": 0.2673633244,
				"element": "H" 
			}
		],
		 "valence_orbital": [ 
			{
				"type": "occ",
				"energy": -0.30934,
				"method": "rhf"
			},
			{
				"type": "occ",
				"energy": -0.30915,
				"method": "rhf"
			},
			{
				"type": "occ",
				"energy": -0.26765,
				"method": "rhf"
			},
			{
				"type": "occ",
				"energy": -0.26003,
				"method": "rhf"
			},
			{
				"type": "occ",
				"energy": -0.25907,
				"method": "rhf"
			},
			{
				"type": "unocc",
				"energy": -0.09212,
				"method": "rhf"
			},
			{
				"type": "unocc",
				"energy": -0.05661,
				"method": "rhf"
			},
			{
				"type": "unocc",
				"energy": -0.02695,
				"method": "rhf"
			},
			{
				"type": "unocc",
				"energy": 0.03132,
				"method": "rhf"
			},
			{
				"type": "unocc",
				"energy": 0.08444,
				"method": "rhf"
			}
		],
		"cosmo_sigma_profile": { 
			"-0.025": 0.0,
			"-0.024": 0.0,
			"-0.023": 0.0,
			"-0.022": 0.0,
			"-0.021": 0.0,
			"-0.02": 0.0,
			"-0.019": 0.0,
			"-0.018": 0.0,
			"-0.017": 0.0,
			"-0.016": 0.0,
			"-0.015": 0.0,
			"-0.014": 0.0,
			"-0.013": 0.0,
			"-0.012": 0.0,
			"-0.011": 0.0,
			"-0.01": 0.0,
			"-0.009": 0.00555165569696,
			"-0.008": 1.03841817064,
			"-0.007": 2.94860146277,
			"-0.006": 10.7814790764,
			"-0.005": 18.5839620767,
			"-0.004": 23.6851990196,
			"-0.003": 25.9342934057,
			"-0.002": 25.9756810311,
			"-0.001": 32.3123187798,
			"0.0": 17.3858960443,
			"0.001": 16.4250034487,
			"0.002": 6.32047928214,
			"0.003": 5.59060507917,
			"0.004": 4.15455485962,
			"0.005": 5.43704892189,
			"0.006": 6.13004196963,
			"0.007": 11.1569235149,
			"0.008": 8.27144165125,
			"0.009": 6.17018206625,
			"0.01": 4.25613241873,
			"0.011": 4.99211529985,
			"0.012": 1.35950986071,
			"0.013": 0.0634977555267,
			"0.014": 0.0,
			"0.015": 0.0,
			"0.016": 0.0,
			"0.017": 0.0,
			"0.018": 0.0,
			"0.019": 0.0,
			"0.02": 0.0,
			"0.021": 0.0,
			"0.022": 0.0,
			"0.023": 0.0,
			"0.024": 0.0,
			"0.025": 0.0
		}
	}
}
