{
	 "smiles": "COC(=O)C1=CC=CC=C1N", 
	 "Tm": 297.35, 
	 "num_atms": 20, 
	 "gaussian": { 
		 "optdone": 1, 
		 "sigma_profile": "yes", 
		 "theory": "DFT", 
		 "functional": "B3LYP", 
		 "basiset": "6-31G**", 
		 "properties": { 
			 "R2extent": 2015.5637, 
			 "electric_dipole_moment_norm": 3.24062673105, 
			 "electric_quadrupole_moment_norm": 8.72013336653, 
			 "total_energy": -515.491080863, 
			 "HOMO_LUMO_gap": 0.16989, 
			 "cosmo_polarized_energy": -10.5, 
			 "cosmo_cavitation_energy": 23.72, 
			 "cosmo_dispersion_energy": -17.82, 
			 "cosmo_repulsion_energy": 1.43, 
			 "cosmo_total_nonelectrostatic_energy": 7.33, 
			 "SMD_solvation_energy": 5.52 
		},
		"coords": [
			{
				"x": -2.4097031258,
				"y": 0.190824439,
				"z": -1.5430045786,
				"element": "C" 
			},
			{
				"x": -1.1257027738,
				"y": 0.2438426778,
				"z": -0.9002601972,
				"element": "O" 
			},
			{
				"x": -1.1616503163,
				"y": 0.2039029677,
				"z": 0.4672585023,
				"element": "C" 
			},
			{
				"x": -2.2201844825,
				"y": 0.1366646789,
				"z": 1.0633558133,
				"element": "O" 
			},
			{
				"x": 0.1707358811,
				"y": 0.2617469832,
				"z": 1.1142247928,
				"element": "C" 
			},
			{
				"x": 0.1465749035,
				"y": 0.2971926479,
				"z": 2.5231032523,
				"element": "C" 
			},
			{
				"x": 1.304327894,
				"y": 0.3724981023,
				"z": 3.278424674,
				"element": "C" 
			},
			{
				"x": 2.5383641204,
				"y": 0.4133284162,
				"z": 2.6138619307,
				"element": "C" 
			},
			{
				"x": 2.5965018133,
				"y": 0.3738224277,
				"z": 1.231149102,
				"element": "C" 
			},
			{
				"x": 1.4258909388,
				"y": 0.2929687576,
				"z": 0.440975565,
				"element": "C" 
			},
			{
				"x": 1.5616982952,
				"y": 0.2041620049,
				"z": -0.9243561177,
				"element": "N" 
			},
			{
				"x": -2.9341617172,
				"y": -0.7297451269,
				"z": -1.2771599089,
				"element": "H" 
			},
			{
				"x": -2.204596913,
				"y": 0.2200090807,
				"z": -2.613470309,
				"element": "H" 
			},
			{
				"x": -3.024326331,
				"y": 1.0437785212,
				"z": -1.245774571,
				"element": "H" 
			},
			{
				"x": -0.8284429941,
				"y": 0.2680875365,
				"z": 2.9971551345,
				"element": "H" 
			},
			{
				"x": 1.2561536503,
				"y": 0.4013889598,
				"z": 4.361845542,
				"element": "H" 
			},
			{
				"x": 3.4626620667,
				"y": 0.4758744341,
				"z": 3.1820821196,
				"element": "H" 
			},
			{
				"x": 3.5594146648,
				"y": 0.3965697959,
				"z": 0.7264954567,
				"element": "H" 
			},
			{
				"x": 2.4451766144,
				"y": 0.4872916919,
				"z": -1.3174854762,
				"element": "H" 
			},
			{
				"x": 0.7385678111,
				"y": 0.3531910037,
				"z": -1.4864207267,
				"element": "H" 
			}
		],
		 "valence_orbital": [ 
			{
				"type": "occ",
				"energy": -0.3133,
				"method": "rhf"
			},
			{
				"type": "occ",
				"energy": -0.29891,
				"method": "rhf"
			},
			{
				"type": "occ",
				"energy": -0.27001,
				"method": "rhf"
			},
			{
				"type": "occ",
				"energy": -0.25008,
				"method": "rhf"
			},
			{
				"type": "occ",
				"energy": -0.20386,
				"method": "rhf"
			},
			{
				"type": "unocc",
				"energy": -0.03397,
				"method": "rhf"
			},
			{
				"type": "unocc",
				"energy": 0.01478,
				"method": "rhf"
			},
			{
				"type": "unocc",
				"energy": 0.06495,
				"method": "rhf"
			},
			{
				"type": "unocc",
				"energy": 0.08813,
				"method": "rhf"
			},
			{
				"type": "unocc",
				"energy": 0.1061,
				"method": "rhf"
			}
		],
		"cosmo_sigma_profile": { 
			"-0.025": 0.0,
			"-0.024": 0.0,
			"-0.023": 0.0,
			"-0.022": 0.0,
			"-0.021": 0.0,
			"-0.02": 0.0,
			"-0.019": 0.0,
			"-0.018": 0.0,
			"-0.017": 0.0,
			"-0.016": 0.0,
			"-0.015": 0.0,
			"-0.014": 0.0621988980205,
			"-0.013": 1.16294154585,
			"-0.012": 1.30269557035,
			"-0.011": 1.22690002515,
			"-0.01": 1.92262306319,
			"-0.009": 2.2051599507,
			"-0.008": 2.11263940203,
			"-0.007": 3.24532456215,
			"-0.006": 9.39757573771,
			"-0.005": 14.0835505683,
			"-0.004": 16.1138483497,
			"-0.003": 17.9630325145,
			"-0.002": 12.0953885352,
			"-0.001": 10.5434620871,
			"0.0": 11.7848390655,
			"0.001": 10.9222252751,
			"0.002": 10.7022926812,
			"0.003": 12.0386258574,
			"0.004": 12.9540488617,
			"0.005": 11.743536863,
			"0.006": 7.68100586035,
			"0.007": 2.59987110943,
			"0.008": 1.47319438021,
			"0.009": 2.36675356548,
			"0.01": 2.54489322276,
			"0.011": 2.71614519837,
			"0.012": 4.4771998367,
			"0.013": 1.39614900081,
			"0.014": 0.0,
			"0.015": 0.0,
			"0.016": 0.0,
			"0.017": 0.0,
			"0.018": 0.0,
			"0.019": 0.0,
			"0.02": 0.0,
			"0.021": 0.0,
			"0.022": 0.0,
			"0.023": 0.0,
			"0.024": 0.0,
			"0.025": 0.0
		}
	}
}
