{
	 "smiles": "OC1CCN(C1)C1=NC(Cl)=CN=C1", 
	 "Tm": 354.15, 
	 "num_atms": 23, 
	 "gaussian": { 
		 "optdone": 1, 
		 "sigma_profile": "yes", 
		 "theory": "DFT", 
		 "functional": "B3LYP", 
		 "basiset": "6-31G**", 
		 "properties": { 
			 "R2extent": 3836.9949, 
			 "electric_dipole_moment_norm": 3.86620955847, 
			 "electric_quadrupole_moment_norm": 9.64272756019, 
			 "total_energy": -1010.53382788, 
			 "HOMO_LUMO_gap": 0.17166, 
			 "cosmo_polarized_energy": -12.21, 
			 "cosmo_cavitation_energy": 27.89, 
			 "cosmo_dispersion_energy": -20.89, 
			 "cosmo_repulsion_energy": 1.67, 
			 "cosmo_total_nonelectrostatic_energy": 8.66, 
			 "SMD_solvation_energy": 0.97 
		},
		"coords": [
			{
				"x": 1.2820218413,
				"y": 1.2910310863,
				"z": -2.0752024562,
				"element": "O" 
			},
			{
				"x": 2.0965159556,
				"y": 0.9059477179,
				"z": -0.9729403426,
				"element": "C" 
			},
			{
				"x": 1.8625939273,
				"y": 1.9486312641,
				"z": 0.1244008846,
				"element": "C" 
			},
			{
				"x": 0.5346169896,
				"y": 1.5068633936,
				"z": 0.7579077514,
				"element": "C" 
			},
			{
				"x": 0.566419186,
				"y": 0.0505365727,
				"z": 0.6047998576,
				"element": "N" 
			},
			{
				"x": 1.6105974627,
				"y": -0.3976802157,
				"z": -0.3195297505,
				"element": "C" 
			},
			{
				"x": -0.3567741901,
				"y": -0.7961208538,
				"z": 1.1320579207,
				"element": "C" 
			},
			{
				"x": -0.2092836809,
				"y": -2.1126695157,
				"z": 0.8700988201,
				"element": "N" 
			},
			{
				"x": -1.1045675057,
				"y": -2.9253579969,
				"z": 1.3947208886,
				"element": "C" 
			},
			{
				"x": -0.9185402897,
				"y": -4.6459565416,
				"z": 1.051722937,
				"element": "Cl" 
			},
			{
				"x": -2.1699580719,
				"y": -2.5066823901,
				"z": 2.1906895025,
				"element": "C" 
			},
			{
				"x": -2.322620753,
				"y": -1.1997074877,
				"z": 2.446753704,
				"element": "N" 
			},
			{
				"x": -1.4445883122,
				"y": -0.3497881799,
				"z": 1.9329692939,
				"element": "C" 
			},
			{
				"x": 1.3108417059,
				"y": 0.5875458708,
				"z": -2.7364087414,
				"element": "H" 
			},
			{
				"x": 3.1532521401,
				"y": 0.8360690095,
				"z": -1.2673387486,
				"element": "H" 
			},
			{
				"x": 2.671965031,
				"y": 1.8984378922,
				"z": 0.8599445642,
				"element": "H" 
			},
			{
				"x": 1.8233840228,
				"y": 2.9595586026,
				"z": -0.2859555841,
				"element": "H" 
			},
			{
				"x": 0.4622393951,
				"y": 1.7916510608,
				"z": 1.813613142,
				"element": "H" 
			},
			{
				"x": -0.3223612425,
				"y": 1.9404206662,
				"z": 0.2251962782,
				"element": "H" 
			},
			{
				"x": 1.2090420959,
				"y": -1.1104667853,
				"z": -1.0474930832,
				"element": "H" 
			},
			{
				"x": 2.4229136317,
				"y": -0.9067170065,
				"z": 0.2175064463,
				"element": "H" 
			},
			{
				"x": -2.8854008303,
				"y": -3.2058575317,
				"z": 2.6094803058,
				"element": "H" 
			},
			{
				"x": -1.5928085087,
				"y": 0.7050113679,
				"z": 2.1443064096,
				"element": "H" 
			}
		],
		 "valence_orbital": [ 
			{
				"type": "occ",
				"energy": -0.30102,
				"method": "rhf"
			},
			{
				"type": "occ",
				"energy": -0.28686,
				"method": "rhf"
			},
			{
				"type": "occ",
				"energy": -0.27771,
				"method": "rhf"
			},
			{
				"type": "occ",
				"energy": -0.25436,
				"method": "rhf"
			},
			{
				"type": "occ",
				"energy": -0.21295,
				"method": "rhf"
			},
			{
				"type": "unocc",
				"energy": -0.04129,
				"method": "rhf"
			},
			{
				"type": "unocc",
				"energy": -0.00691,
				"method": "rhf"
			},
			{
				"type": "unocc",
				"energy": 0.0392,
				"method": "rhf"
			},
			{
				"type": "unocc",
				"energy": 0.05813,
				"method": "rhf"
			},
			{
				"type": "unocc",
				"energy": 0.1001,
				"method": "rhf"
			}
		],
		"cosmo_sigma_profile": { 
			"-0.025": 0.0,
			"-0.024": 0.0,
			"-0.023": 0.0,
			"-0.022": 0.0,
			"-0.021": 0.0,
			"-0.02": 0.0,
			"-0.019": 0.0,
			"-0.018": 0.0,
			"-0.017": 0.0,
			"-0.016": 0.2546962919,
			"-0.015": 1.27512875793,
			"-0.014": 0.905270635366,
			"-0.013": 1.07785224804,
			"-0.012": 1.24582493586,
			"-0.011": 1.35501960641,
			"-0.01": 0.536151029268,
			"-0.009": 0.890268803238,
			"-0.008": 1.76437764242,
			"-0.007": 5.53496970787,
			"-0.006": 6.46935188674,
			"-0.005": 16.8223085362,
			"-0.004": 22.9083930856,
			"-0.003": 17.8220369973,
			"-0.002": 16.287551368,
			"-0.001": 18.2847732708,
			"0.0": 18.280068716,
			"0.001": 14.0990687591,
			"0.002": 11.3924412157,
			"0.003": 11.3846134803,
			"0.004": 13.4986606886,
			"0.005": 8.72146011701,
			"0.006": 6.27000314185,
			"0.007": 4.45833535435,
			"0.008": 4.50605112072,
			"0.009": 3.54767493566,
			"0.01": 3.07346963231,
			"0.011": 2.93313248707,
			"0.012": 2.52570149587,
			"0.013": 2.15154429562,
			"0.014": 2.06289084057,
			"0.015": 0.54662463676,
			"0.016": 0.00883638948715,
			"0.017": 0.0,
			"0.018": 0.0,
			"0.019": 0.0,
			"0.02": 0.0,
			"0.021": 0.0,
			"0.022": 0.0,
			"0.023": 0.0,
			"0.024": 0.0,
			"0.025": 0.0
		}
	}
}
