{
	 "smiles": "CC1=NN(C(N)=N1)C1=CC=CC=C1", 
	 "Tm": 405.15, 
	 "num_atms": 23, 
	 "gaussian": { 
		 "optdone": 1, 
		 "sigma_profile": "yes", 
		 "theory": "DFT", 
		 "functional": "B3LYP", 
		 "basiset": "6-31G**", 
		 "properties": { 
			 "R2extent": 3403.4899, 
			 "electric_dipole_moment_norm": 2.96508220122, 
			 "electric_quadrupole_moment_norm": 3.58203093231, 
			 "total_energy": -567.993145543, 
			 "HOMO_LUMO_gap": 0.19698, 
			 "cosmo_polarized_energy": -12.72, 
			 "cosmo_cavitation_energy": 26.91, 
			 "cosmo_dispersion_energy": -20.12, 
			 "cosmo_repulsion_energy": 1.6, 
			 "cosmo_total_nonelectrostatic_energy": 8.38, 
			 "SMD_solvation_energy": 2.19 
		},
		"coords": [
			{
				"x": 2.2080136569,
				"y": 4.4567328254,
				"z": -2.0595478595,
				"element": "C" 
			},
			{
				"x": 1.7745284372,
				"y": 3.2139839966,
				"z": -1.3541307026,
				"element": "C" 
			},
			{
				"x": 0.5144138428,
				"y": 2.9911377657,
				"z": -1.0327763228,
				"element": "N" 
			},
			{
				"x": 0.5681766476,
				"y": 1.7447666574,
				"z": -0.4340363416,
				"element": "N" 
			},
			{
				"x": 1.8712927857,
				"y": 1.3294004225,
				"z": -0.4160595808,
				"element": "C" 
			},
			{
				"x": 2.3021234986,
				"y": 0.1225774515,
				"z": 0.1001888568,
				"element": "N" 
			},
			{
				"x": 2.6527124334,
				"y": 2.2239936668,
				"z": -0.9927954432,
				"element": "N" 
			},
			{
				"x": -0.601590397,
				"y": 1.1486907921,
				"z": 0.0993210664,
				"element": "C" 
			},
			{
				"x": -0.7474615974,
				"y": -0.2445985507,
				"z": 0.1309448448,
				"element": "C" 
			},
			{
				"x": -1.9058540016,
				"y": -0.8023359607,
				"z": 0.6748436245,
				"element": "C" 
			},
			{
				"x": -2.9239322054,
				"y": 0.0147324623,
				"z": 1.1661540775,
				"element": "C" 
			},
			{
				"x": -2.7800773803,
				"y": 1.4037091837,
				"z": 1.1071539302,
				"element": "C" 
			},
			{
				"x": -1.6246792638,
				"y": 1.9757598103,
				"z": 0.5810204022,
				"element": "C" 
			},
			{
				"x": 1.3520804034,
				"y": 5.1135617605,
				"z": -2.2243157018,
				"element": "H" 
			},
			{
				"x": 2.6613437122,
				"y": 4.2130183922,
				"z": -3.0259671713,
				"element": "H" 
			},
			{
				"x": 2.9621434009,
				"y": 4.990780879,
				"z": -1.4723633502,
				"element": "H" 
			},
			{
				"x": 3.3084836055,
				"y": 0.1162635584,
				"z": 0.2085396505,
				"element": "H" 
			},
			{
				"x": 1.817022444,
				"y": -0.1876369277,
				"z": 0.9331447837,
				"element": "H" 
			},
			{
				"x": 0.020756602,
				"y": -0.8819511227,
				"z": -0.2924842755,
				"element": "H" 
			},
			{
				"x": -2.0150550444,
				"y": -1.8827637561,
				"z": 0.6958509579,
				"element": "H" 
			},
			{
				"x": -3.8248268547,
				"y": -0.4248762186,
				"z": 1.5831833755,
				"element": "H" 
			},
			{
				"x": -3.5711093663,
				"y": 2.0487535199,
				"z": 1.4784379038,
				"element": "H" 
			},
			{
				"x": -1.4995053593,
				"y": 3.0501993921,
				"z": 0.5235932755,
				"element": "H" 
			}
		],
		 "valence_orbital": [ 
			{
				"type": "occ",
				"energy": -0.29422,
				"method": "rhf"
			},
			{
				"type": "occ",
				"energy": -0.26495,
				"method": "rhf"
			},
			{
				"type": "occ",
				"energy": -0.25932,
				"method": "rhf"
			},
			{
				"type": "occ",
				"energy": -0.24313,
				"method": "rhf"
			},
			{
				"type": "occ",
				"energy": -0.21567,
				"method": "rhf"
			},
			{
				"type": "unocc",
				"energy": -0.01869,
				"method": "rhf"
			},
			{
				"type": "unocc",
				"energy": -0.01172,
				"method": "rhf"
			},
			{
				"type": "unocc",
				"energy": 0.04403,
				"method": "rhf"
			},
			{
				"type": "unocc",
				"energy": 0.06785,
				"method": "rhf"
			},
			{
				"type": "unocc",
				"energy": 0.08336,
				"method": "rhf"
			}
		],
		"cosmo_sigma_profile": { 
			"-0.025": 0.0,
			"-0.024": 0.0,
			"-0.023": 0.0,
			"-0.022": 0.0,
			"-0.021": 0.0,
			"-0.02": 0.0,
			"-0.019": 0.0,
			"-0.018": 0.0,
			"-0.017": 0.0,
			"-0.016": 0.0,
			"-0.015": 0.0,
			"-0.014": 1.16169858857,
			"-0.013": 1.98121691825,
			"-0.012": 2.28540277914,
			"-0.011": 2.55023780847,
			"-0.01": 2.7808186258,
			"-0.009": 2.00125427548,
			"-0.008": 2.37277573084,
			"-0.007": 2.05120900008,
			"-0.006": 9.0334712025,
			"-0.005": 14.7141405386,
			"-0.004": 17.8116215777,
			"-0.003": 15.3687191197,
			"-0.002": 14.1085764849,
			"-0.001": 16.7125058164,
			"0.0": 16.1397848626,
			"0.001": 13.1138394529,
			"0.002": 13.3045345905,
			"0.003": 13.6170133012,
			"0.004": 14.8019614681,
			"0.005": 12.2246751331,
			"0.006": 4.83709473306,
			"0.007": 3.40675978043,
			"0.008": 1.86120120731,
			"0.009": 3.53811559365,
			"0.01": 2.87154040413,
			"0.011": 2.25099790786,
			"0.012": 2.36271694023,
			"0.013": 1.62351498317,
			"0.014": 1.4938699597,
			"0.015": 0.779901500998,
			"0.016": 1.2269337047,
			"0.017": 0.493806122139,
			"0.018": 0.0,
			"0.019": 0.0,
			"0.02": 0.0,
			"0.021": 0.0,
			"0.022": 0.0,
			"0.023": 0.0,
			"0.024": 0.0,
			"0.025": 0.0
		}
	}
}
