{
	 "smiles": "N#CC=CC1=CN=CC=C1", 
	 "Tm": 378.15, 
	 "num_atms": 16, 
	 "gaussian": { 
		 "optdone": 1, 
		 "sigma_profile": "yes", 
		 "theory": "DFT", 
		 "functional": "B3LYP", 
		 "basiset": "6-31G**", 
		 "properties": { 
			 "R2extent": 2270.6748, 
			 "electric_dipole_moment_norm": 4.34618242944, 
			 "electric_quadrupole_moment_norm": 27.6106262948, 
			 "total_energy": -417.92907435, 
			 "HOMO_LUMO_gap": 0.16902, 
			 "cosmo_polarized_energy": -12.83, 
			 "cosmo_cavitation_energy": 22.04, 
			 "cosmo_dispersion_energy": -15.57, 
			 "cosmo_repulsion_energy": 1.25, 
			 "cosmo_total_nonelectrostatic_energy": 7.72, 
			 "SMD_solvation_energy": 4.1 
		},
		"coords": [
			{
				"x": -1.0600312414,
				"y": -0.4507575783,
				"z": 5.4745843575,
				"element": "N" 
			},
			{
				"x": -0.5193669163,
				"y": -0.2444571647,
				"z": 4.4638276654,
				"element": "C" 
			},
			{
				"x": 0.1645819368,
				"y": 0.0065429693,
				"z": 3.2398178521,
				"element": "C" 
			},
			{
				"x": -0.4892167678,
				"y": 0.192047536,
				"z": 2.0735149029,
				"element": "C" 
			},
			{
				"x": 0.1117447376,
				"y": 0.4543260106,
				"z": 0.7682913515,
				"element": "C" 
			},
			{
				"x": -0.7351668681,
				"y": 0.6215977586,
				"z": -0.3437405469,
				"element": "C" 
			},
			{
				"x": -0.3159466808,
				"y": 0.8649371719,
				"z": -1.5867288815,
				"element": "N" 
			},
			{
				"x": 1.0049712604,
				"y": 0.9548110996,
				"z": -1.7809333785,
				"element": "C" 
			},
			{
				"x": 1.9453002028,
				"y": 0.807245886,
				"z": -0.7558966563,
				"element": "C" 
			},
			{
				"x": 1.4945931793,
				"y": 0.5542840285,
				"z": 0.5327984059,
				"element": "C" 
			},
			{
				"x": 1.2487515922,
				"y": 0.0393077468,
				"z": 3.3042340865,
				"element": "H" 
			},
			{
				"x": -1.5762200904,
				"y": 0.1449402791,
				"z": 2.0868255586,
				"element": "H" 
			},
			{
				"x": -1.8142580428,
				"y": 0.5522114535,
				"z": -0.2072320253,
				"element": "H" 
			},
			{
				"x": 1.328906791,
				"y": 1.1536360266,
				"z": -2.8006639354,
				"element": "H" 
			},
			{
				"x": 3.0059407067,
				"y": 0.8900756509,
				"z": -0.9703955877,
				"element": "H" 
			},
			{
				"x": 2.2068162008,
				"y": 0.4362511257,
				"z": 1.3438968312,
				"element": "H" 
			}
		],
		 "valence_orbital": [ 
			{
				"type": "occ",
				"energy": -0.3332,
				"method": "rhf"
			},
			{
				"type": "occ",
				"energy": -0.32897,
				"method": "rhf"
			},
			{
				"type": "occ",
				"energy": -0.29943,
				"method": "rhf"
			},
			{
				"type": "occ",
				"energy": -0.27256,
				"method": "rhf"
			},
			{
				"type": "occ",
				"energy": -0.25519,
				"method": "rhf"
			},
			{
				"type": "unocc",
				"energy": -0.08617,
				"method": "rhf"
			},
			{
				"type": "unocc",
				"energy": -0.03976,
				"method": "rhf"
			},
			{
				"type": "unocc",
				"energy": 0.00532,
				"method": "rhf"
			},
			{
				"type": "unocc",
				"energy": 0.0276,
				"method": "rhf"
			},
			{
				"type": "unocc",
				"energy": 0.07867,
				"method": "rhf"
			}
		],
		"cosmo_sigma_profile": { 
			"-0.025": 0.0,
			"-0.024": 0.0,
			"-0.023": 0.0,
			"-0.022": 0.0,
			"-0.021": 0.0,
			"-0.02": 0.0,
			"-0.019": 0.0,
			"-0.018": 0.0,
			"-0.017": 0.0,
			"-0.016": 0.0,
			"-0.015": 0.0,
			"-0.014": 0.0,
			"-0.013": 0.0,
			"-0.012": 0.0205957027133,
			"-0.011": 1.10080979235,
			"-0.01": 2.25833728308,
			"-0.009": 5.09817705455,
			"-0.008": 7.10682637753,
			"-0.007": 10.7348562585,
			"-0.006": 10.1263960161,
			"-0.005": 10.5862820858,
			"-0.004": 8.46781349557,
			"-0.003": 8.6450064189,
			"-0.002": 9.49163558378,
			"-0.001": 12.7709148729,
			"0.0": 18.2760346633,
			"0.001": 19.0929160439,
			"0.002": 9.58357401796,
			"0.003": 4.06354139776,
			"0.004": 4.41541052764,
			"0.005": 3.19883230868,
			"0.006": 3.9721687567,
			"0.007": 3.91128412496,
			"0.008": 4.57115094117,
			"0.009": 4.42904012574,
			"0.01": 4.48893178689,
			"0.011": 3.76446727423,
			"0.012": 3.67943709159,
			"0.013": 2.53315549249,
			"0.014": 1.0862264687,
			"0.015": 1.02876372769,
			"0.016": 0.513783642572,
			"0.017": 0.0401835962005,
			"0.018": 0.0,
			"0.019": 0.0,
			"0.02": 0.0,
			"0.021": 0.0,
			"0.022": 0.0,
			"0.023": 0.0,
			"0.024": 0.0,
			"0.025": 0.0
		}
	}
}
