{
	 "smiles": "O=C1OC2=CC3=C(C=CO3)C=C2C=C1", 
	 "Tm": 437.15, 
	 "num_atms": 20, 
	 "gaussian": { 
		 "optdone": 1, 
		 "sigma_profile": "yes", 
		 "theory": "DFT", 
		 "functional": "B3LYP", 
		 "basiset": "6-31G**", 
		 "properties": { 
			 "R2extent": 3691.689, 
			 "electric_dipole_moment_norm": 5.78373792715, 
			 "electric_quadrupole_moment_norm": 23.0118152869, 
			 "total_energy": -648.444222003, 
			 "HOMO_LUMO_gap": 0.15886, 
			 "cosmo_polarized_energy": -12.04, 
			 "cosmo_cavitation_energy": 25.09, 
			 "cosmo_dispersion_energy": -19.05, 
			 "cosmo_repulsion_energy": 1.45, 
			 "cosmo_total_nonelectrostatic_energy": 7.48, 
			 "SMD_solvation_energy": 6.15 
		},
		"coords": [
			{
				"x": 4.3299901787,
				"y": -3.4832854877,
				"z": -1.2541102986,
				"element": "O" 
			},
			{
				"x": 3.4576479954,
				"y": -2.6475934815,
				"z": -1.2303522536,
				"element": "C" 
			},
			{
				"x": 2.8321289416,
				"y": -2.3935608225,
				"z": -0.0080582652,
				"element": "O" 
			},
			{
				"x": 1.8349791671,
				"y": -1.4733250943,
				"z": 0.1453358741,
				"element": "C" 
			},
			{
				"x": 1.3059711309,
				"y": -1.3299968272,
				"z": 1.4269025727,
				"element": "C" 
			},
			{
				"x": 0.2948663215,
				"y": -0.3910206989,
				"z": 1.5615125841,
				"element": "C" 
			},
			{
				"x": -0.2051846105,
				"y": 0.3977966058,
				"z": 0.4988079406,
				"element": "C" 
			},
			{
				"x": -1.2345058545,
				"y": 1.2231552287,
				"z": 1.089821739,
				"element": "C" 
			},
			{
				"x": -1.2766633908,
				"y": 0.8873301945,
				"z": 2.4004192708,
				"element": "C" 
			},
			{
				"x": -0.3594040902,
				"y": -0.0911247621,
				"z": 2.7194310311,
				"element": "O" 
			},
			{
				"x": 0.3426848903,
				"y": 0.2332012755,
				"z": -0.7719559768,
				"element": "C" 
			},
			{
				"x": 1.3694454425,
				"y": -0.7063613472,
				"z": -0.9572306805,
				"element": "C" 
			},
			{
				"x": 1.9978332417,
				"y": -0.9474228627,
				"z": -2.2323076683,
				"element": "C" 
			},
			{
				"x": 2.9837014404,
				"y": -1.8624611191,
				"z": -2.3655640745,
				"element": "C" 
			},
			{
				"x": 1.6753873604,
				"y": -1.924622885,
				"z": 2.253213597,
				"element": "H" 
			},
			{
				"x": -1.8509970426,
				"y": 1.9607658053,
				"z": 0.5970574538,
				"element": "H" 
			},
			{
				"x": -1.8795319559,
				"y": 1.232897657,
				"z": 3.2262750637,
				"element": "H" 
			},
			{
				"x": -0.0084172438,
				"y": 0.81597692,
				"z": -1.6186766849,
				"element": "H" 
			},
			{
				"x": 1.6598314015,
				"y": -0.3733604957,
				"z": -3.0918537101,
				"element": "H" 
			},
			{
				"x": 3.4725366763,
				"y": -2.0630878028,
				"z": -3.3111675144,
				"element": "H" 
			}
		],
		 "valence_orbital": [ 
			{
				"type": "occ",
				"energy": -0.31383,
				"method": "rhf"
			},
			{
				"type": "occ",
				"energy": -0.29711,
				"method": "rhf"
			},
			{
				"type": "occ",
				"energy": -0.27217,
				"method": "rhf"
			},
			{
				"type": "occ",
				"energy": -0.24138,
				"method": "rhf"
			},
			{
				"type": "occ",
				"energy": -0.2259,
				"method": "rhf"
			},
			{
				"type": "unocc",
				"energy": -0.06704,
				"method": "rhf"
			},
			{
				"type": "unocc",
				"energy": -0.02802,
				"method": "rhf"
			},
			{
				"type": "unocc",
				"energy": 0.00729,
				"method": "rhf"
			},
			{
				"type": "unocc",
				"energy": 0.03748,
				"method": "rhf"
			},
			{
				"type": "unocc",
				"energy": 0.09262,
				"method": "rhf"
			}
		],
		"cosmo_sigma_profile": { 
			"-0.025": 0.0,
			"-0.024": 0.0,
			"-0.023": 0.0,
			"-0.022": 0.0,
			"-0.021": 0.0,
			"-0.02": 0.0,
			"-0.019": 0.0,
			"-0.018": 0.0,
			"-0.017": 0.0,
			"-0.016": 0.0,
			"-0.015": 0.0,
			"-0.014": 0.0,
			"-0.013": 0.0,
			"-0.012": 0.0,
			"-0.011": 0.0,
			"-0.01": 0.907349648803,
			"-0.009": 3.50467628719,
			"-0.008": 9.75670292768,
			"-0.007": 11.3866225583,
			"-0.006": 10.198193051,
			"-0.005": 9.81575629926,
			"-0.004": 10.2104266481,
			"-0.003": 10.5177475789,
			"-0.002": 10.6487259486,
			"-0.001": 11.9203888755,
			"0.0": 20.5737354214,
			"0.001": 27.3909959478,
			"0.002": 17.8173068265,
			"0.003": 11.7901123176,
			"0.004": 4.87844984276,
			"0.005": 3.54146653585,
			"0.006": 4.02932868438,
			"0.007": 3.14882977378,
			"0.008": 3.4479060471,
			"0.009": 2.63334556569,
			"0.01": 2.42583752875,
			"0.011": 3.62549495526,
			"0.012": 6.61327848144,
			"0.013": 2.6705060007,
			"0.014": 0.100486751722,
			"0.015": 0.0,
			"0.016": 0.0,
			"0.017": 0.0,
			"0.018": 0.0,
			"0.019": 0.0,
			"0.02": 0.0,
			"0.021": 0.0,
			"0.022": 0.0,
			"0.023": 0.0,
			"0.024": 0.0,
			"0.025": 0.0
		}
	}
}
