{
	 "smiles": "CC1=CC=C(O1)C1=NC(CCl)=CS1", 
	 "Tm": 345.15, 
	 "num_atms": 21, 
	 "gaussian": { 
		 "optdone": 1, 
		 "sigma_profile": "yes", 
		 "theory": "DFT", 
		 "functional": "B3LYP", 
		 "basiset": "6-31G**", 
		 "properties": { 
			 "R2extent": 4967.9363, 
			 "electric_dipole_moment_norm": 3.37465845383, 
			 "electric_quadrupole_moment_norm": 15.6811896545, 
			 "total_energy": -1336.11554601, 
			 "HOMO_LUMO_gap": 0.15515, 
			 "cosmo_polarized_energy": -11.41, 
			 "cosmo_cavitation_energy": 29.51, 
			 "cosmo_dispersion_energy": -22.09, 
			 "cosmo_repulsion_energy": 1.74, 
			 "cosmo_total_nonelectrostatic_energy": 9.16, 
			 "SMD_solvation_energy": 3.68 
		},
		"coords": [
			{
				"x": -1.2088298237,
				"y": -2.7416060529,
				"z": -0.9010610273,
				"element": "C" 
			},
			{
				"x": -1.1341187922,
				"y": -1.6622832399,
				"z": 0.1195896484,
				"element": "C" 
			},
			{
				"x": -1.6627910537,
				"y": -1.5110419712,
				"z": 1.3733775612,
				"element": "C" 
			},
			{
				"x": -1.2256584499,
				"y": -0.2410698691,
				"z": 1.8501164242,
				"element": "C" 
			},
			{
				"x": -0.4550681159,
				"y": 0.3027109115,
				"z": 0.8524485132,
				"element": "C" 
			},
			{
				"x": -0.396768178,
				"y": -0.5633901982,
				"z": -0.2061969454,
				"element": "O" 
			},
			{
				"x": 0.2597007902,
				"y": 1.5506199033,
				"z": 0.7261322468,
				"element": "C" 
			},
			{
				"x": 0.9569555092,
				"y": 1.9165312964,
				"z": -0.315906607,
				"element": "N" 
			},
			{
				"x": 1.5239617437,
				"y": 3.1559676448,
				"z": -0.130669876,
				"element": "C" 
			},
			{
				"x": 2.3608855945,
				"y": 3.7448128293,
				"z": -1.2151656648,
				"element": "C" 
			},
			{
				"x": 1.3549428095,
				"y": 4.5641436619,
				"z": -2.5120164435,
				"element": "Cl" 
			},
			{
				"x": 1.264039694,
				"y": 3.7536723422,
				"z": 1.0738457665,
				"element": "C" 
			},
			{
				"x": 0.2549884671,
				"y": 2.7368043511,
				"z": 2.0451108143,
				"element": "S" 
			},
			{
				"x": -1.6483354743,
				"y": -2.3745377903,
				"z": -1.8353210814,
				"element": "H" 
			},
			{
				"x": -0.2134255748,
				"y": -3.1333567865,
				"z": -1.1388918567,
				"element": "H" 
			},
			{
				"x": -1.8239615663,
				"y": -3.563970842,
				"z": -0.5294150233,
				"element": "H" 
			},
			{
				"x": -2.2896117948,
				"y": -2.2228640603,
				"z": 1.8908666695,
				"element": "H" 
			},
			{
				"x": -1.4523376839,
				"y": 0.2114379087,
				"z": 2.8052551897,
				"element": "H" 
			},
			{
				"x": 2.9242676196,
				"y": 2.9681102045,
				"z": -1.7309107062,
				"element": "H" 
			},
			{
				"x": 3.0363017173,
				"y": 4.5105042221,
				"z": -0.8355195492,
				"element": "H" 
			},
			{
				"x": 1.5943625625,
				"y": 4.7188055346,
				"z": 1.4307319472,
				"element": "H" 
			}
		],
		 "valence_orbital": [ 
			{
				"type": "occ",
				"energy": -0.289,
				"method": "rhf"
			},
			{
				"type": "occ",
				"energy": -0.28665,
				"method": "rhf"
			},
			{
				"type": "occ",
				"energy": -0.27862,
				"method": "rhf"
			},
			{
				"type": "occ",
				"energy": -0.26912,
				"method": "rhf"
			},
			{
				"type": "occ",
				"energy": -0.20953,
				"method": "rhf"
			},
			{
				"type": "unocc",
				"energy": -0.05438,
				"method": "rhf"
			},
			{
				"type": "unocc",
				"energy": -0.00993,
				"method": "rhf"
			},
			{
				"type": "unocc",
				"energy": 0.01014,
				"method": "rhf"
			},
			{
				"type": "unocc",
				"energy": 0.0387,
				"method": "rhf"
			},
			{
				"type": "unocc",
				"energy": 0.06713,
				"method": "rhf"
			}
		],
		"cosmo_sigma_profile": { 
			"-0.025": 0.0,
			"-0.024": 0.0,
			"-0.023": 0.0,
			"-0.022": 0.0,
			"-0.021": 0.0,
			"-0.02": 0.0,
			"-0.019": 0.0,
			"-0.018": 0.0,
			"-0.017": 0.0,
			"-0.016": 0.0,
			"-0.015": 0.0,
			"-0.014": 0.0,
			"-0.013": 0.0,
			"-0.012": 0.0,
			"-0.011": 0.0,
			"-0.01": 1.05592167022,
			"-0.009": 3.03820445475,
			"-0.008": 7.56291734952,
			"-0.007": 8.89522370284,
			"-0.006": 12.1088227822,
			"-0.005": 16.0976212787,
			"-0.004": 14.9027392433,
			"-0.003": 13.6473058528,
			"-0.002": 15.0919488065,
			"-0.001": 17.5229399169,
			"0.0": 19.6027092308,
			"0.001": 21.9603091076,
			"0.002": 19.9468676837,
			"0.003": 15.7052471334,
			"0.004": 12.4840197598,
			"0.005": 9.79498387803,
			"0.006": 12.3152921243,
			"0.007": 8.27164290381,
			"0.008": 2.06168107452,
			"0.009": 1.92273749599,
			"0.01": 1.20847939208,
			"0.011": 1.77569282983,
			"0.012": 1.45034557829,
			"0.013": 1.00980699887,
			"0.014": 1.06077917118,
			"0.015": 0.548367262044,
			"0.016": 0.0,
			"0.017": 0.0,
			"0.018": 0.0,
			"0.019": 0.0,
			"0.02": 0.0,
			"0.021": 0.0,
			"0.022": 0.0,
			"0.023": 0.0,
			"0.024": 0.0,
			"0.025": 0.0
		}
	}
}
