{
	 "smiles": "SC1=NC=CN1", 
	 "Tm": 500.15, 
	 "num_atms": 10, 
	 "gaussian": { 
		 "optdone": 1, 
		 "sigma_profile": "yes", 
		 "theory": "DFT", 
		 "functional": "B3LYP", 
		 "basiset": "6-31G**", 
		 "properties": { 
			 "R2extent": 904.3829, 
			 "electric_dipole_moment_norm": 4.43267621872, 
			 "electric_quadrupole_moment_norm": 8.17920593456, 
			 "total_energy": -624.399517439, 
			 "HOMO_LUMO_gap": 0.2178, 
			 "cosmo_polarized_energy": -15.4, 
			 "cosmo_cavitation_energy": 15.85, 
			 "cosmo_dispersion_energy": -12.66, 
			 "cosmo_repulsion_energy": 1.04, 
			 "cosmo_total_nonelectrostatic_energy": 4.23, 
			 "SMD_solvation_energy": 0.96 
		},
		"coords": [
			{
				"x": -1.5838704059,
				"y": -2.2729292488,
				"z": -0.0820410347,
				"element": "S" 
			},
			{
				"x": -1.0677839348,
				"y": -0.6106770079,
				"z": -0.4253020127,
				"element": "C" 
			},
			{
				"x": -1.8032719291,
				"y": 0.2277466555,
				"z": -1.1158534297,
				"element": "N" 
			},
			{
				"x": -1.0702168446,
				"y": 1.3965376521,
				"z": -1.1644375407,
				"element": "C" 
			},
			{
				"x": 0.1165515511,
				"y": 1.2569171497,
				"z": -0.4968088564,
				"element": "C" 
			},
			{
				"x": 0.1119308336,
				"y": -0.0457301794,
				"z": -0.0198656088,
				"element": "N" 
			},
			{
				"x": -0.4870704949,
				"y": -2.6284192051,
				"z": 0.6166455065,
				"element": "H" 
			},
			{
				"x": -1.4454359443,
				"y": 2.2691509212,
				"z": -1.6801763686,
				"element": "H" 
			},
			{
				"x": 0.9413941858,
				"y": 1.9279339386,
				"z": -0.3150787066,
				"element": "H" 
			},
			{
				"x": 0.841872983,
				"y": -0.4829306759,
				"z": 0.5204180517,
				"element": "H" 
			}
		],
		 "valence_orbital": [ 
			{
				"type": "occ",
				"energy": -0.36879,
				"method": "rhf"
			},
			{
				"type": "occ",
				"energy": -0.30003,
				"method": "rhf"
			},
			{
				"type": "occ",
				"energy": -0.28002,
				"method": "rhf"
			},
			{
				"type": "occ",
				"energy": -0.27201,
				"method": "rhf"
			},
			{
				"type": "occ",
				"energy": -0.21106,
				"method": "rhf"
			},
			{
				"type": "unocc",
				"energy": 0.00674,
				"method": "rhf"
			},
			{
				"type": "unocc",
				"energy": 0.02694,
				"method": "rhf"
			},
			{
				"type": "unocc",
				"energy": 0.06123,
				"method": "rhf"
			},
			{
				"type": "unocc",
				"energy": 0.06839,
				"method": "rhf"
			},
			{
				"type": "unocc",
				"energy": 0.07881,
				"method": "rhf"
			}
		],
		"cosmo_sigma_profile": { 
			"-0.025": 0.0,
			"-0.024": 0.0,
			"-0.023": 0.0,
			"-0.022": 0.0,
			"-0.021": 0.0,
			"-0.02": 0.0,
			"-0.019": 0.0,
			"-0.018": 0.0,
			"-0.017": 0.976343825631,
			"-0.016": 2.95044256157,
			"-0.015": 2.20643160901,
			"-0.014": 1.66780654028,
			"-0.013": 1.35361250738,
			"-0.012": 2.38658778163,
			"-0.011": 2.8831283869,
			"-0.01": 1.69670745671,
			"-0.009": 2.8658776608,
			"-0.008": 4.45171551556,
			"-0.007": 3.50995487161,
			"-0.006": 4.55998547441,
			"-0.005": 3.98069119231,
			"-0.004": 4.70383554549,
			"-0.003": 5.36367194187,
			"-0.002": 3.81194492556,
			"-0.001": 5.45458309311,
			"0.0": 4.03231902867,
			"0.001": 5.714302649,
			"0.002": 7.7063764737,
			"0.003": 9.93782699713,
			"0.004": 8.95587276704,
			"0.005": 10.0211795908,
			"0.006": 8.76971767144,
			"0.007": 4.93957164419,
			"0.008": 3.7190113971,
			"0.009": 1.9089992952,
			"0.01": 1.13050933127,
			"0.011": 1.08890634094,
			"0.012": 1.18953644314,
			"0.013": 1.65325743651,
			"0.014": 0.831276447197,
			"0.015": 1.12074476824,
			"0.016": 0.936477705669,
			"0.017": 0.938904397821,
			"0.018": 0.196239118145,
			"0.019": 0.0,
			"0.02": 0.0,
			"0.021": 0.0,
			"0.022": 0.0,
			"0.023": 0.0,
			"0.024": 0.0,
			"0.025": 0.0
		}
	}
}
