{
	 "smiles": "FC(F)(F)C1=CC=CC(CC#N)=C1Cl", 
	 "Tm": 330.65, 
	 "num_atms": 19, 
	 "gaussian": { 
		 "optdone": 1, 
		 "sigma_profile": "yes", 
		 "theory": "DFT", 
		 "functional": "B3LYP", 
		 "basiset": "6-31G**", 
		 "properties": { 
			 "R2extent": 3697.7539, 
			 "electric_dipole_moment_norm": 4.98552018349, 
			 "electric_quadrupole_moment_norm": 21.2858737509, 
			 "total_energy": -1160.41814941, 
			 "HOMO_LUMO_gap": 0.22109, 
			 "cosmo_polarized_energy": -11.88, 
			 "cosmo_cavitation_energy": 27.3, 
			 "cosmo_dispersion_energy": -18.84, 
			 "cosmo_repulsion_energy": 1.42, 
			 "cosmo_total_nonelectrostatic_energy": 9.88, 
			 "SMD_solvation_energy": 6.94 
		},
		"coords": [
			{
				"x": 0.1378799029,
				"y": 0.6403944233,
				"z": -1.970670878,
				"element": "F" 
			},
			{
				"x": 1.2246889956,
				"y": 0.9835209052,
				"z": -1.2529446923,
				"element": "C" 
			},
			{
				"x": 2.2540991092,
				"y": 0.2363668658,
				"z": -1.7099000816,
				"element": "F" 
			},
			{
				"x": 1.5136214028,
				"y": 2.2693274453,
				"z": -1.538084588,
				"element": "F" 
			},
			{
				"x": 1.0133623515,
				"y": 0.7707391204,
				"z": 0.2318686656,
				"element": "C" 
			},
			{
				"x": 1.8529652683,
				"y": -0.1143570767,
				"z": 0.9126192109,
				"element": "C" 
			},
			{
				"x": 1.6947312033,
				"y": -0.3337890337,
				"z": 2.2781896401,
				"element": "C" 
			},
			{
				"x": 0.6923362913,
				"y": 0.3366679457,
				"z": 2.9715634145,
				"element": "C" 
			},
			{
				"x": -0.1660835973,
				"y": 1.2298505097,
				"z": 2.3208275117,
				"element": "C" 
			},
			{
				"x": -1.2461117567,
				"y": 1.9447034697,
				"z": 3.1185017891,
				"element": "C" 
			},
			{
				"x": -2.5655586819,
				"y": 1.3099289475,
				"z": 2.9945317282,
				"element": "C" 
			},
			{
				"x": -3.6032861005,
				"y": 0.7979259971,
				"z": 2.9100666348,
				"element": "N" 
			},
			{
				"x": 0.0020261908,
				"y": 1.4374472401,
				"z": 0.9433108942,
				"element": "C" 
			},
			{
				"x": -1.0754861773,
				"y": 2.5500790502,
				"z": 0.1220059044,
				"element": "Cl" 
			},
			{
				"x": 2.6303816567,
				"y": -0.6268540315,
				"z": 0.3597953696,
				"element": "H" 
			},
			{
				"x": 2.3516104408,
				"y": -1.0232171083,
				"z": 2.7980175745,
				"element": "H" 
			},
			{
				"x": 0.5647765843,
				"y": 0.1694850478,
				"z": 4.037364665,
				"element": "H" 
			},
			{
				"x": -1.3368492969,
				"y": 2.9889674508,
				"z": 2.8032605367,
				"element": "H" 
			},
			{
				"x": -0.972003787,
				"y": 1.9492128318,
				"z": 4.1785767006,
				"element": "H" 
			}
		],
		 "valence_orbital": [ 
			{
				"type": "occ",
				"energy": -0.33726,
				"method": "rhf"
			},
			{
				"type": "occ",
				"energy": -0.32968,
				"method": "rhf"
			},
			{
				"type": "occ",
				"energy": -0.32701,
				"method": "rhf"
			},
			{
				"type": "occ",
				"energy": -0.29039,
				"method": "rhf"
			},
			{
				"type": "occ",
				"energy": -0.27276,
				"method": "rhf"
			},
			{
				"type": "unocc",
				"energy": -0.05167,
				"method": "rhf"
			},
			{
				"type": "unocc",
				"energy": -0.04373,
				"method": "rhf"
			},
			{
				"type": "unocc",
				"energy": 0.0056,
				"method": "rhf"
			},
			{
				"type": "unocc",
				"energy": 0.03249,
				"method": "rhf"
			},
			{
				"type": "unocc",
				"energy": 0.0381,
				"method": "rhf"
			}
		],
		"cosmo_sigma_profile": { 
			"-0.025": 0.0,
			"-0.024": 0.0,
			"-0.023": 0.0,
			"-0.022": 0.0,
			"-0.021": 0.0,
			"-0.02": 0.0,
			"-0.019": 0.0,
			"-0.018": 0.0,
			"-0.017": 0.0,
			"-0.016": 0.0,
			"-0.015": 0.0,
			"-0.014": 0.0,
			"-0.013": 0.0,
			"-0.012": 0.0,
			"-0.011": 0.151396700919,
			"-0.01": 3.03419320096,
			"-0.009": 4.79753114416,
			"-0.008": 7.35530627428,
			"-0.007": 10.1601152884,
			"-0.006": 12.4391252659,
			"-0.005": 7.14998849999,
			"-0.004": 7.95870756709,
			"-0.003": 9.90958223823,
			"-0.002": 11.9910899069,
			"-0.001": 15.4797887247,
			"0.0": 20.6348500949,
			"0.001": 20.4389434907,
			"0.002": 29.8120516043,
			"0.003": 28.1963532259,
			"0.004": 8.49772850231,
			"0.005": 2.42977706499,
			"0.006": 2.67822818451,
			"0.007": 2.79807179794,
			"0.008": 3.34115120656,
			"0.009": 3.4123771478,
			"0.01": 3.21155282035,
			"0.011": 2.78835063177,
			"0.012": 2.35692890302,
			"0.013": 1.52539178498,
			"0.014": 0.0372897414208,
			"0.015": 0.0,
			"0.016": 0.0,
			"0.017": 0.0,
			"0.018": 0.0,
			"0.019": 0.0,
			"0.02": 0.0,
			"0.021": 0.0,
			"0.022": 0.0,
			"0.023": 0.0,
			"0.024": 0.0,
			"0.025": 0.0
		}
	}
}
