{
	 "smiles": "BrC1=CN=C(S1)N1C(=O)CCC1=O", 
	 "Tm": 424.15, 
	 "num_atms": 18, 
	 "gaussian": { 
		 "optdone": 1, 
		 "sigma_profile": "yes", 
		 "theory": "DFT", 
		 "functional": "B3LYP", 
		 "basiset": "6-31G**", 
		 "properties": { 
			 "R2extent": 6460.4792, 
			 "electric_dipole_moment_norm": 3.46534942683, 
			 "electric_quadrupole_moment_norm": 14.2032071646, 
			 "total_energy": -3499.30096345, 
			 "HOMO_LUMO_gap": 0.18491, 
			 "cosmo_polarized_energy": -14.85, 
			 "cosmo_cavitation_energy": 26.73, 
			 "cosmo_dispersion_energy": -21.07, 
			 "cosmo_repulsion_energy": 1.63, 
			 "cosmo_total_nonelectrostatic_energy": 7.29, 
			 "SMD_solvation_energy": 3.52 
		},
		"coords": [
			{
				"x": 2.8529383503,
				"y": 4.4917112873,
				"z": 1.3584916811,
				"element": "Br" 
			},
			{
				"x": 2.1753802838,
				"y": 2.7918859901,
				"z": 0.9213106275,
				"element": "C" 
			},
			{
				"x": 1.9292770253,
				"y": 1.754339175,
				"z": 1.7697945028,
				"element": "C" 
			},
			{
				"x": 1.4320090789,
				"y": 0.6213264517,
				"z": 1.1761052848,
				"element": "N" 
			},
			{
				"x": 1.298665807,
				"y": 0.7853829554,
				"z": -0.1054834143,
				"element": "C" 
			},
			{
				"x": 1.7772775193,
				"y": 2.3733792968,
				"z": -0.7266797397,
				"element": "S" 
			},
			{
				"x": 0.8097925726,
				"y": -0.2136935271,
				"z": -0.9641555478,
				"element": "N" 
			},
			{
				"x": 0.6741323283,
				"y": -0.0158770235,
				"z": -2.3478605226,
				"element": "C" 
			},
			{
				"x": 0.9612626217,
				"y": 1.017595844,
				"z": -2.9165044622,
				"element": "O" 
			},
			{
				"x": 0.1241873531,
				"y": -1.2838822374,
				"z": -2.9745396874,
				"element": "C" 
			},
			{
				"x": -0.0577871574,
				"y": -2.2635570548,
				"z": -1.8122629465,
				"element": "C" 
			},
			{
				"x": 0.3975077293,
				"y": -1.5255458422,
				"z": -0.5564357052,
				"element": "C" 
			},
			{
				"x": 0.4107441238,
				"y": -1.9552534574,
				"z": 0.5650683842,
				"element": "O" 
			},
			{
				"x": 2.0952598492,
				"y": 1.769091434,
				"z": 2.8394137111,
				"element": "H" 
			},
			{
				"x": -0.8067761525,
				"y": -1.0386013047,
				"z": -3.4935497479,
				"element": "H" 
			},
			{
				"x": 0.8310526597,
				"y": -1.6293042218,
				"z": -3.7343873839,
				"element": "H" 
			},
			{
				"x": -1.0945160075,
				"y": -2.5786153777,
				"z": -1.6651551405,
				"element": "H" 
			},
			{
				"x": 0.5414920152,
				"y": -3.1729823874,
				"z": -1.9094698933,
				"element": "H" 
			}
		],
		 "valence_orbital": [ 
			{
				"type": "occ",
				"energy": -0.30854,
				"method": "rhf"
			},
			{
				"type": "occ",
				"energy": -0.28652,
				"method": "rhf"
			},
			{
				"type": "occ",
				"energy": -0.28527,
				"method": "rhf"
			},
			{
				"type": "occ",
				"energy": -0.26652,
				"method": "rhf"
			},
			{
				"type": "occ",
				"energy": -0.23385,
				"method": "rhf"
			},
			{
				"type": "unocc",
				"energy": -0.04894,
				"method": "rhf"
			},
			{
				"type": "unocc",
				"energy": -0.03695,
				"method": "rhf"
			},
			{
				"type": "unocc",
				"energy": -0.00521,
				"method": "rhf"
			},
			{
				"type": "unocc",
				"energy": 0.01429,
				"method": "rhf"
			},
			{
				"type": "unocc",
				"energy": 0.01443,
				"method": "rhf"
			}
		],
		"cosmo_sigma_profile": { 
			"-0.025": 0.0,
			"-0.024": 0.0,
			"-0.023": 0.0,
			"-0.022": 0.0,
			"-0.021": 0.0,
			"-0.02": 0.0,
			"-0.019": 0.0,
			"-0.018": 0.0,
			"-0.017": 0.0,
			"-0.016": 0.0,
			"-0.015": 0.0,
			"-0.014": 0.0,
			"-0.013": 0.0,
			"-0.012": 0.0,
			"-0.011": 0.0,
			"-0.01": 0.760693096307,
			"-0.009": 3.14967781989,
			"-0.008": 13.9047118619,
			"-0.007": 16.6830418275,
			"-0.006": 12.2852642606,
			"-0.005": 10.713695631,
			"-0.004": 12.5350265367,
			"-0.003": 10.7627195279,
			"-0.002": 12.180170453,
			"-0.001": 12.9040572522,
			"0.0": 14.2218464568,
			"0.001": 18.2729191698,
			"0.002": 17.439365693,
			"0.003": 17.1379748998,
			"0.004": 7.0090351551,
			"0.005": 3.95424461225,
			"0.006": 3.70858079559,
			"0.007": 3.92251109834,
			"0.008": 3.8375696566,
			"0.009": 5.60494562317,
			"0.01": 5.72066129606,
			"0.011": 6.57282745808,
			"0.012": 1.80618838058,
			"0.013": 1.72147276914,
			"0.014": 1.11289841583,
			"0.015": 1.08948174709,
			"0.016": 0.766362245487,
			"0.017": 0.624665684874,
			"0.018": 0.00114080342894,
			"0.019": 0.0,
			"0.02": 0.0,
			"0.021": 0.0,
			"0.022": 0.0,
			"0.023": 0.0,
			"0.024": 0.0,
			"0.025": 0.0
		}
	}
}
