{
	 "smiles": "NC1=CC(OC2=CC=CC=C2)=CC=C1", 
	 "Tm": 309.65, 
	 "num_atms": 25, 
	 "gaussian": { 
		 "optdone": 1, 
		 "sigma_profile": "yes", 
		 "theory": "DFT", 
		 "functional": "B3LYP", 
		 "basiset": "6-31G**", 
		 "properties": { 
			 "R2extent": 3485.108, 
			 "electric_dipole_moment_norm": 1.55085051826, 
			 "electric_quadrupole_moment_norm": 14.6343139597, 
			 "total_energy": -593.87563411, 
			 "HOMO_LUMO_gap": 0.19787, 
			 "cosmo_polarized_energy": -10.11, 
			 "cosmo_cavitation_energy": 29.1, 
			 "cosmo_dispersion_energy": -21.33, 
			 "cosmo_repulsion_energy": 1.69, 
			 "cosmo_total_nonelectrostatic_energy": 9.46, 
			 "SMD_solvation_energy": 5.1 
		},
		"coords": [
			{
				"x": -4.48048983,
				"y": 0.0963415639,
				"z": -1.5214512903,
				"element": "N" 
			},
			{
				"x": -3.0886687717,
				"y": 0.0218449248,
				"z": -1.5922793217,
				"element": "C" 
			},
			{
				"x": -2.2953378254,
				"y": 0.6216002781,
				"z": -0.6014155015,
				"element": "C" 
			},
			{
				"x": -0.9084484111,
				"y": 0.4991423797,
				"z": -0.6475216727,
				"element": "C" 
			},
			{
				"x": -0.2059844978,
				"y": 1.1956224735,
				"z": 0.3194222491,
				"element": "O" 
			},
			{
				"x": 0.922274574,
				"y": 0.6555839523,
				"z": 0.9025564635,
				"element": "C" 
			},
			{
				"x": 1.9281272433,
				"y": 1.555933974,
				"z": 1.2630228244,
				"element": "C" 
			},
			{
				"x": 3.0626754769,
				"y": 1.0915672149,
				"z": 1.9274219551,
				"element": "C" 
			},
			{
				"x": 3.2012560454,
				"y": -0.2655623785,
				"z": 2.2272461456,
				"element": "C" 
			},
			{
				"x": 2.1888138418,
				"y": -1.1559163092,
				"z": 1.8632721546,
				"element": "C" 
			},
			{
				"x": 1.0441236967,
				"y": -0.7045224279,
				"z": 1.2051263637,
				"element": "C" 
			},
			{
				"x": -0.2737707165,
				"y": -0.216610508,
				"z": -1.6673842933,
				"element": "C" 
			},
			{
				"x": -1.0713655003,
				"y": -0.8173360129,
				"z": -2.6422406141,
				"element": "C" 
			},
			{
				"x": -2.4593396328,
				"y": -0.7070301971,
				"z": -2.6173492599,
				"element": "C" 
			},
			{
				"x": -4.8438660081,
				"y": 0.8870390596,
				"z": -1.0075302306,
				"element": "H" 
			},
			{
				"x": -4.9618700816,
				"y": -0.0363650945,
				"z": -2.4000234126,
				"element": "H" 
			},
			{
				"x": -2.744370006,
				"y": 1.1862712416,
				"z": 0.2099761338,
				"element": "H" 
			},
			{
				"x": 1.8017266775,
				"y": 2.6057220846,
				"z": 1.0194392976,
				"element": "H" 
			},
			{
				"x": 3.8426623101,
				"y": 1.7942829026,
				"z": 2.2065564183,
				"element": "H" 
			},
			{
				"x": 4.0876565957,
				"y": -0.6253798934,
				"z": 2.7406360793,
				"element": "H" 
			},
			{
				"x": 2.2830858251,
				"y": -2.2123803851,
				"z": 2.0985108734,
				"element": "H" 
			},
			{
				"x": 0.2536773176,
				"y": -1.3937986419,
				"z": 0.9295323871,
				"element": "H" 
			},
			{
				"x": 0.8067254882,
				"y": -0.2912438612,
				"z": -1.6983331812,
				"element": "H" 
			},
			{
				"x": -0.5979500377,
				"y": -1.375125672,
				"z": -3.4455186852,
				"element": "H" 
			},
			{
				"x": -3.0613437733,
				"y": -1.183980668,
				"z": -3.3861718826,
				"element": "H" 
			}
		],
		 "valence_orbital": [ 
			{
				"type": "occ",
				"energy": -0.29674,
				"method": "rhf"
			},
			{
				"type": "occ",
				"energy": -0.24875,
				"method": "rhf"
			},
			{
				"type": "occ",
				"energy": -0.24301,
				"method": "rhf"
			},
			{
				"type": "occ",
				"energy": -0.21793,
				"method": "rhf"
			},
			{
				"type": "occ",
				"energy": -0.19923,
				"method": "rhf"
			},
			{
				"type": "unocc",
				"energy": -0.00136,
				"method": "rhf"
			},
			{
				"type": "unocc",
				"energy": 0.00221,
				"method": "rhf"
			},
			{
				"type": "unocc",
				"energy": 0.01445,
				"method": "rhf"
			},
			{
				"type": "unocc",
				"energy": 0.02438,
				"method": "rhf"
			},
			{
				"type": "unocc",
				"energy": 0.08168,
				"method": "rhf"
			}
		],
		"cosmo_sigma_profile": { 
			"-0.025": 0.0,
			"-0.024": 0.0,
			"-0.023": 0.0,
			"-0.022": 0.0,
			"-0.021": 0.0,
			"-0.02": 0.0,
			"-0.019": 0.0,
			"-0.018": 0.0,
			"-0.017": 0.0,
			"-0.016": 0.0,
			"-0.015": 0.0,
			"-0.014": 0.0,
			"-0.013": 0.364205319113,
			"-0.012": 2.42660033327,
			"-0.011": 3.25350931088,
			"-0.01": 2.40454808135,
			"-0.009": 3.09292104497,
			"-0.008": 2.78010932896,
			"-0.007": 3.65521547468,
			"-0.006": 11.0267051245,
			"-0.005": 16.2227175834,
			"-0.004": 18.2614479155,
			"-0.003": 17.2860215142,
			"-0.002": 13.0797370447,
			"-0.001": 13.5291151397,
			"0.0": 12.8394068922,
			"0.001": 13.0925834589,
			"0.002": 13.6820033549,
			"0.003": 17.6000315575,
			"0.004": 19.1965875896,
			"0.005": 20.3124248434,
			"0.006": 15.6531461017,
			"0.007": 4.62697536907,
			"0.008": 1.83094170854,
			"0.009": 2.22778735777,
			"0.01": 1.07865164957,
			"0.011": 0.606804624786,
			"0.012": 0.805741782785,
			"0.013": 0.692014472948,
			"0.014": 0.546915353757,
			"0.015": 0.143808598307,
			"0.016": 0.0,
			"0.017": 0.0,
			"0.018": 0.0,
			"0.019": 0.0,
			"0.02": 0.0,
			"0.021": 0.0,
			"0.022": 0.0,
			"0.023": 0.0,
			"0.024": 0.0,
			"0.025": 0.0
		}
	}
}
