{
	 "smiles": "C(N1C=NC=N1)C1=CC=CC=C1", 
	 "Tm": 322.15, 
	 "num_atms": 21, 
	 "gaussian": { 
		 "optdone": 1, 
		 "sigma_profile": "yes", 
		 "theory": "DFT", 
		 "functional": "B3LYP", 
		 "basiset": "6-31G**", 
		 "properties": { 
			 "R2extent": 2349.2163, 
			 "electric_dipole_moment_norm": 3.16897171177, 
			 "electric_quadrupole_moment_norm": 8.89486162456, 
			 "total_energy": -512.618354228, 
			 "HOMO_LUMO_gap": 0.23712, 
			 "cosmo_polarized_energy": -11.1, 
			 "cosmo_cavitation_energy": 25.33, 
			 "cosmo_dispersion_energy": -18.3, 
			 "cosmo_repulsion_energy": 1.44, 
			 "cosmo_total_nonelectrostatic_energy": 8.47, 
			 "SMD_solvation_energy": 2.39 
		},
		"coords": [
			{
				"x": -1.0582462465,
				"y": -0.1296387991,
				"z": 1.5723886858,
				"element": "C" 
			},
			{
				"x": -1.4655942538,
				"y": -1.1168332885,
				"z": 0.5756631135,
				"element": "N" 
			},
			{
				"x": -2.2190930232,
				"y": -0.9603733927,
				"z": -0.5363508503,
				"element": "C" 
			},
			{
				"x": -2.2955121958,
				"y": -2.0959996534,
				"z": -1.2108408678,
				"element": "N" 
			},
			{
				"x": -1.540592515,
				"y": -2.9370675693,
				"z": -0.4513251299,
				"element": "C" 
			},
			{
				"x": -1.0138211678,
				"y": -2.3973810452,
				"z": 0.6401612051,
				"element": "N" 
			},
			{
				"x": 0.2300861332,
				"y": 0.5954841384,
				"z": 1.2270183481,
				"element": "C" 
			},
			{
				"x": 0.2665937459,
				"y": 1.9932075939,
				"z": 1.206934002,
				"element": "C" 
			},
			{
				"x": 1.454705164,
				"y": 2.6683985613,
				"z": 0.9174231486,
				"element": "C" 
			},
			{
				"x": 2.6155195889,
				"y": 1.9473298719,
				"z": 0.638886145,
				"element": "C" 
			},
			{
				"x": 2.5844784456,
				"y": 0.5499739532,
				"z": 0.6536515931,
				"element": "C" 
			},
			{
				"x": 1.4004749745,
				"y": -0.1238402969,
				"z": 0.9488815474,
				"element": "C" 
			},
			{
				"x": -0.9608315427,
				"y": -0.6775455974,
				"z": 2.5138051905,
				"element": "H" 
			},
			{
				"x": -1.8776436553,
				"y": 0.5856470807,
				"z": 1.686379222,
				"element": "H" 
			},
			{
				"x": -2.6864218928,
				"y": -0.0223692035,
				"z": -0.8034513426,
				"element": "H" 
			},
			{
				"x": -1.3796046568,
				"y": -3.9766622396,
				"z": -0.7018450511,
				"element": "H" 
			},
			{
				"x": -0.6373847808,
				"y": 2.5593016574,
				"z": 1.4199524102,
				"element": "H" 
			},
			{
				"x": 1.4695193955,
				"y": 3.7544285938,
				"z": 0.9048953257,
				"element": "H" 
			},
			{
				"x": 3.5400095945,
				"y": 2.4695382892,
				"z": 0.4100604312,
				"element": "H" 
			},
			{
				"x": 3.4858651842,
				"y": -0.0159502671,
				"z": 0.4365099435,
				"element": "H" 
			},
			{
				"x": 1.3720937041,
				"y": -1.2095483871,
				"z": 0.9565029299,
				"element": "H" 
			}
		],
		 "valence_orbital": [ 
			{
				"type": "occ",
				"energy": -0.28697,
				"method": "rhf"
			},
			{
				"type": "occ",
				"energy": -0.27386,
				"method": "rhf"
			},
			{
				"type": "occ",
				"energy": -0.26411,
				"method": "rhf"
			},
			{
				"type": "occ",
				"energy": -0.25788,
				"method": "rhf"
			},
			{
				"type": "occ",
				"energy": -0.25232,
				"method": "rhf"
			},
			{
				"type": "unocc",
				"energy": -0.0152,
				"method": "rhf"
			},
			{
				"type": "unocc",
				"energy": -0.00891,
				"method": "rhf"
			},
			{
				"type": "unocc",
				"energy": 0.00882,
				"method": "rhf"
			},
			{
				"type": "unocc",
				"energy": 0.05455,
				"method": "rhf"
			},
			{
				"type": "unocc",
				"energy": 0.08633,
				"method": "rhf"
			}
		],
		"cosmo_sigma_profile": { 
			"-0.025": 0.0,
			"-0.024": 0.0,
			"-0.023": 0.0,
			"-0.022": 0.0,
			"-0.021": 0.0,
			"-0.02": 0.0,
			"-0.019": 0.0,
			"-0.018": 0.0,
			"-0.017": 0.0,
			"-0.016": 0.0,
			"-0.015": 0.0,
			"-0.014": 0.0,
			"-0.013": 0.0,
			"-0.012": 0.0,
			"-0.011": 0.242782016425,
			"-0.01": 2.8449170996,
			"-0.009": 2.80825586335,
			"-0.008": 5.83327502284,
			"-0.007": 8.00965254252,
			"-0.006": 12.4238208213,
			"-0.005": 13.0682944652,
			"-0.004": 17.9494419783,
			"-0.003": 14.0700993342,
			"-0.002": 10.9095998554,
			"-0.001": 11.7668959659,
			"0.0": 12.5945499635,
			"0.001": 13.3362001495,
			"0.002": 13.7957657647,
			"0.003": 12.9178603336,
			"0.004": 11.1265136856,
			"0.005": 13.4737733754,
			"0.006": 6.71594364886,
			"0.007": 2.43720807778,
			"0.008": 2.39040866747,
			"0.009": 2.63001991038,
			"0.01": 1.57154632105,
			"0.011": 2.41560340076,
			"0.012": 1.72763688853,
			"0.013": 1.75358814295,
			"0.014": 1.78029179113,
			"0.015": 1.35780068843,
			"0.016": 0.923384022846,
			"0.017": 0.457912384553,
			"0.018": 0.0,
			"0.019": 0.0,
			"0.02": 0.0,
			"0.021": 0.0,
			"0.022": 0.0,
			"0.023": 0.0,
			"0.024": 0.0,
			"0.025": 0.0
		}
	}
}
