{
	 "smiles": "OC(=O)C=CC1=C(F)C=C(Cl)C=C1", 
	 "Tm": 488.15, 
	 "num_atms": 19, 
	 "gaussian": { 
		 "optdone": 1, 
		 "sigma_profile": "yes", 
		 "theory": "DFT", 
		 "functional": "B3LYP", 
		 "basiset": "6-31G**", 
		 "properties": { 
			 "R2extent": 4889.2967, 
			 "electric_dipole_moment_norm": 4.78463822875, 
			 "electric_quadrupole_moment_norm": 20.4302783258, 
			 "total_energy": -1057.04066106, 
			 "HOMO_LUMO_gap": 0.16409, 
			 "cosmo_polarized_energy": -16.5, 
			 "cosmo_cavitation_energy": 27.04, 
			 "cosmo_dispersion_energy": -19.69, 
			 "cosmo_repulsion_energy": 1.54, 
			 "cosmo_total_nonelectrostatic_energy": 8.89, 
			 "SMD_solvation_energy": 6.16 
		},
		"coords": [
			{
				"x": 0.2712422388,
				"y": 4.0717054199,
				"z": -0.4113930841,
				"element": "O" 
			},
			{
				"x": 0.6456676764,
				"y": 3.1922474455,
				"z": 0.5597571006,
				"element": "C" 
			},
			{
				"x": 1.3680214792,
				"y": 3.5603762351,
				"z": 1.4576783788,
				"element": "O" 
			},
			{
				"x": 0.1119232675,
				"y": 1.8116151742,
				"z": 0.4200768969,
				"element": "C" 
			},
			{
				"x": 0.4333839384,
				"y": 0.8809504424,
				"z": 1.3368936242,
				"element": "C" 
			},
			{
				"x": 0.0103969245,
				"y": -0.5153620212,
				"z": 1.3688331925,
				"element": "C" 
			},
			{
				"x": 0.4505193521,
				"y": -1.3437727343,
				"z": 2.4151139848,
				"element": "C" 
			},
			{
				"x": 1.2531484073,
				"y": -0.8246464725,
				"z": 3.362619571,
				"element": "F" 
			},
			{
				"x": 0.1011965534,
				"y": -2.6828846604,
				"z": 2.5295852134,
				"element": "C" 
			},
			{
				"x": -0.7289296879,
				"y": -3.2279955972,
				"z": 1.553493993,
				"element": "C" 
			},
			{
				"x": -1.1897625147,
				"y": -4.912371045,
				"z": 1.665431372,
				"element": "Cl" 
			},
			{
				"x": -1.198780887,
				"y": -2.4530142163,
				"z": 0.4882159959,
				"element": "C" 
			},
			{
				"x": -0.8268579241,
				"y": -1.1171586377,
				"z": 0.4088942946,
				"element": "C" 
			},
			{
				"x": -0.302912583,
				"y": 3.6390241749,
				"z": -1.0581443928,
				"element": "H" 
			},
			{
				"x": -0.531704443,
				"y": 1.5839877348,
				"z": -0.4274312753,
				"element": "H" 
			},
			{
				"x": 1.0820233743,
				"y": 1.2078428276,
				"z": 2.1451485995,
				"element": "H" 
			},
			{
				"x": 0.4730786788,
				"y": -3.2698325928,
				"z": 3.360220916,
				"element": "H" 
			},
			{
				"x": -1.8439408808,
				"y": -2.8956506894,
				"z": -0.2615393008,
				"element": "H" 
			},
			{
				"x": -1.1955129703,
				"y": -0.5228607878,
				"z": -0.4206550802,
				"element": "H" 
			}
		],
		 "valence_orbital": [ 
			{
				"type": "occ",
				"energy": -0.32133,
				"method": "rhf"
			},
			{
				"type": "occ",
				"energy": -0.30548,
				"method": "rhf"
			},
			{
				"type": "occ",
				"energy": -0.27928,
				"method": "rhf"
			},
			{
				"type": "occ",
				"energy": -0.27409,
				"method": "rhf"
			},
			{
				"type": "occ",
				"energy": -0.24832,
				"method": "rhf"
			},
			{
				"type": "unocc",
				"energy": -0.08423,
				"method": "rhf"
			},
			{
				"type": "unocc",
				"energy": -0.02945,
				"method": "rhf"
			},
			{
				"type": "unocc",
				"energy": 0.00072,
				"method": "rhf"
			},
			{
				"type": "unocc",
				"energy": 0.00959,
				"method": "rhf"
			},
			{
				"type": "unocc",
				"energy": 0.05231,
				"method": "rhf"
			}
		],
		"cosmo_sigma_profile": { 
			"-0.025": 0.0,
			"-0.024": 0.0,
			"-0.023": 0.0,
			"-0.022": 0.0,
			"-0.021": 0.0,
			"-0.02": 0.00743191434546,
			"-0.019": 0.87386040812,
			"-0.018": 1.50489554084,
			"-0.017": 1.10201773877,
			"-0.016": 1.4652290076,
			"-0.015": 0.554254842648,
			"-0.014": 0.512949299527,
			"-0.013": 1.37721366259,
			"-0.012": 1.52514387803,
			"-0.011": 1.16681853849,
			"-0.01": 2.10483905332,
			"-0.009": 3.94834146967,
			"-0.008": 5.9093327261,
			"-0.007": 6.27895117644,
			"-0.006": 6.67162617335,
			"-0.005": 5.67391357441,
			"-0.004": 5.77965232529,
			"-0.003": 9.86838714465,
			"-0.002": 16.1534190643,
			"-0.001": 17.2655126897,
			"0.0": 23.9410564241,
			"0.001": 26.7956422341,
			"0.002": 18.8531716515,
			"0.003": 16.776944406,
			"0.004": 13.1840911653,
			"0.005": 2.59103260841,
			"0.006": 2.61099622354,
			"0.007": 2.0622727065,
			"0.008": 2.32968922122,
			"0.009": 2.86374443549,
			"0.01": 4.37858892282,
			"0.011": 5.43423851843,
			"0.012": 5.66600471075,
			"0.013": 2.47051769032,
			"0.014": 0.327093844343,
			"0.015": 0.0,
			"0.016": 0.0,
			"0.017": 0.0,
			"0.018": 0.0,
			"0.019": 0.0,
			"0.02": 0.0,
			"0.021": 0.0,
			"0.022": 0.0,
			"0.023": 0.0,
			"0.024": 0.0,
			"0.025": 0.0
		}
	}
}
