{
	 "smiles": "OCC1=CC(=CC=C1)C1=CC=CS1", 
	 "Tm": 320.65, 
	 "num_atms": 23, 
	 "gaussian": { 
		 "optdone": 1, 
		 "sigma_profile": "yes", 
		 "theory": "DFT", 
		 "functional": "B3LYP", 
		 "basiset": "6-31G**", 
		 "properties": { 
			 "R2extent": 4197.459, 
			 "electric_dipole_moment_norm": 1.39950860305, 
			 "electric_quadrupole_moment_norm": 16.8423899287, 
			 "total_energy": -898.587273822, 
			 "HOMO_LUMO_gap": 0.17579, 
			 "cosmo_polarized_energy": -9.79, 
			 "cosmo_cavitation_energy": 28.28, 
			 "cosmo_dispersion_energy": -21.48, 
			 "cosmo_repulsion_energy": 1.65, 
			 "cosmo_total_nonelectrostatic_energy": 8.45, 
			 "SMD_solvation_energy": 4.75 
		},
		"coords": [
			{
				"x": 1.1379709787,
				"y": -3.708742836,
				"z": 2.5584859343,
				"element": "O" 
			},
			{
				"x": 1.6466205369,
				"y": -2.6619345935,
				"z": 1.7459132576,
				"element": "C" 
			},
			{
				"x": 0.6570286829,
				"y": -1.517328352,
				"z": 1.7049704695,
				"element": "C" 
			},
			{
				"x": 1.0727586563,
				"y": -0.2675254974,
				"z": 1.237894276,
				"element": "C" 
			},
			{
				"x": 0.182820538,
				"y": 0.8142785031,
				"z": 1.1438146161,
				"element": "C" 
			},
			{
				"x": -1.152592833,
				"y": 0.6150123325,
				"z": 1.542053213,
				"element": "C" 
			},
			{
				"x": -1.5710386972,
				"y": -0.6295478748,
				"z": 2.0025874287,
				"element": "C" 
			},
			{
				"x": -0.6751515519,
				"y": -1.6978604283,
				"z": 2.0865024052,
				"element": "C" 
			},
			{
				"x": 0.6175971507,
				"y": 2.1265667167,
				"z": 0.6458610859,
				"element": "C" 
			},
			{
				"x": -0.1285849374,
				"y": 3.0896148074,
				"z": 0.004731493,
				"element": "C" 
			},
			{
				"x": 0.6148649648,
				"y": 4.2546568968,
				"z": -0.3435226408,
				"element": "C" 
			},
			{
				"x": 1.927443152,
				"y": 4.1784987721,
				"z": 0.0332819673,
				"element": "C" 
			},
			{
				"x": 2.272949948,
				"y": 2.6778993641,
				"z": 0.8296673597,
				"element": "S" 
			},
			{
				"x": 1.7268585068,
				"y": -4.4672969604,
				"z": 2.4704480525,
				"element": "H" 
			},
			{
				"x": 1.8268622765,
				"y": -3.0157963726,
				"z": 0.7164386403,
				"element": "H" 
			},
			{
				"x": 2.6122622714,
				"y": -2.2913298845,
				"z": 2.1267923281,
				"element": "H" 
			},
			{
				"x": 2.1057399633,
				"y": -0.1337406872,
				"z": 0.9236526225,
				"element": "H" 
			},
			{
				"x": -1.8498823231,
				"y": 1.4463384451,
				"z": 1.5128284706,
				"element": "H" 
			},
			{
				"x": -2.6033189233,
				"y": -0.7669260859,
				"z": 2.3125360299,
				"element": "H" 
			},
			{
				"x": -0.9935028906,
				"y": -2.6661274964,
				"z": 2.4544932314,
				"element": "H" 
			},
			{
				"x": -1.1764383879,
				"y": 2.9530650716,
				"z": -0.2370609645,
				"element": "H" 
			},
			{
				"x": 0.1907390517,
				"y": 5.1083078958,
				"z": -0.8601752424,
				"element": "H" 
			},
			{
				"x": 2.7110938666,
				"y": 4.9105182638,
				"z": -0.1040940342,
				"element": "H" 
			}
		],
		 "valence_orbital": [ 
			{
				"type": "occ",
				"energy": -0.27972,
				"method": "rhf"
			},
			{
				"type": "occ",
				"energy": -0.26814,
				"method": "rhf"
			},
			{
				"type": "occ",
				"energy": -0.24843,
				"method": "rhf"
			},
			{
				"type": "occ",
				"energy": -0.23953,
				"method": "rhf"
			},
			{
				"type": "occ",
				"energy": -0.20845,
				"method": "rhf"
			},
			{
				"type": "unocc",
				"energy": -0.03266,
				"method": "rhf"
			},
			{
				"type": "unocc",
				"energy": -0.00225,
				"method": "rhf"
			},
			{
				"type": "unocc",
				"energy": 0.02479,
				"method": "rhf"
			},
			{
				"type": "unocc",
				"energy": 0.03895,
				"method": "rhf"
			},
			{
				"type": "unocc",
				"energy": 0.0707,
				"method": "rhf"
			}
		],
		"cosmo_sigma_profile": { 
			"-0.025": 0.0,
			"-0.024": 0.0,
			"-0.023": 0.0,
			"-0.022": 0.0,
			"-0.021": 0.0,
			"-0.02": 0.0,
			"-0.019": 0.0,
			"-0.018": 0.0,
			"-0.017": 0.0263061066748,
			"-0.016": 0.831970926233,
			"-0.015": 1.10528438875,
			"-0.014": 0.972156987482,
			"-0.013": 1.12100268481,
			"-0.012": 0.646315882541,
			"-0.011": 0.660454223159,
			"-0.01": 0.599418258376,
			"-0.009": 1.56323720423,
			"-0.008": 2.59740564005,
			"-0.007": 4.55402642487,
			"-0.006": 9.89577032313,
			"-0.005": 16.653268779,
			"-0.004": 20.567782009,
			"-0.003": 17.2748366761,
			"-0.002": 12.632366861,
			"-0.001": 12.1619096642,
			"0.0": 12.2145179959,
			"0.001": 12.3689256359,
			"0.002": 15.9190271711,
			"0.003": 18.932676351,
			"0.004": 23.5357520554,
			"0.005": 22.1143737028,
			"0.006": 8.08868944561,
			"0.007": 2.15454348789,
			"0.008": 2.00415101609,
			"0.009": 1.34857054109,
			"0.01": 1.58489515745,
			"0.011": 1.6368604976,
			"0.012": 0.679237726077,
			"0.013": 1.05644428179,
			"0.014": 0.313984618681,
			"0.015": 0.0,
			"0.016": 0.0,
			"0.017": 0.0,
			"0.018": 0.0,
			"0.019": 0.0,
			"0.02": 0.0,
			"0.021": 0.0,
			"0.022": 0.0,
			"0.023": 0.0,
			"0.024": 0.0,
			"0.025": 0.0
		}
	}
}
