{
	 "smiles": "FC1=CC(C=O)=CC(F)=C1F", 
	 "Tm": 298.45, 
	 "num_atms": 14, 
	 "gaussian": { 
		 "optdone": 1, 
		 "sigma_profile": "yes", 
		 "theory": "DFT", 
		 "functional": "B3LYP", 
		 "basiset": "6-31G**", 
		 "properties": { 
			 "R2extent": 2255.6039, 
			 "electric_dipole_moment_norm": 1.65307757229, 
			 "electric_quadrupole_moment_norm": 8.47538932616, 
			 "total_energy": -643.252445095, 
			 "HOMO_LUMO_gap": 0.19149, 
			 "cosmo_polarized_energy": -6.8, 
			 "cosmo_cavitation_energy": 21.02, 
			 "cosmo_dispersion_energy": -14.84, 
			 "cosmo_repulsion_energy": 1.12, 
			 "cosmo_total_nonelectrostatic_energy": 7.29, 
			 "SMD_solvation_energy": 6.29 
		},
		"coords": [
			{
				"x": -3.6560487384,
				"y": 0.2964187478,
				"z": -1.3057361128,
				"element": "F" 
			},
			{
				"x": -2.3520164182,
				"y": 0.135175528,
				"z": -1.0440539634,
				"element": "C" 
			},
			{
				"x": -1.9214239518,
				"y": -0.7696631025,
				"z": -0.0903837587,
				"element": "C" 
			},
			{
				"x": -0.545666953,
				"y": -0.9024759573,
				"z": 0.1477066182,
				"element": "C" 
			},
			{
				"x": -0.0684387592,
				"y": -1.8682710471,
				"z": 1.1669483081,
				"element": "C" 
			},
			{
				"x": -0.798346475,
				"y": -2.5748471197,
				"z": 1.8325602163,
				"element": "O" 
			},
			{
				"x": 0.3834590423,
				"y": -0.1342532163,
				"z": -0.5651747531,
				"element": "C" 
			},
			{
				"x": -0.0730213108,
				"y": 0.7663688071,
				"z": -1.5165044441,
				"element": "C" 
			},
			{
				"x": 0.7850151006,
				"y": 1.5192590887,
				"z": -2.2191033506,
				"element": "F" 
			},
			{
				"x": -1.4379302318,
				"y": 0.9103778169,
				"z": -1.7652051995,
				"element": "C" 
			},
			{
				"x": -1.8680391253,
				"y": 1.7787819657,
				"z": -2.6817636245,
				"element": "F" 
			},
			{
				"x": -2.6308253065,
				"y": -1.3699781815,
				"z": 0.4679625526,
				"element": "H" 
			},
			{
				"x": 1.0364188816,
				"y": -1.9047368236,
				"z": 1.2875945482,
				"element": "H" 
			},
			{
				"x": 1.4504642455,
				"y": -0.2285565062,
				"z": -0.3893470367,
				"element": "H" 
			}
		],
		 "valence_orbital": [ 
			{
				"type": "occ",
				"energy": -0.38588,
				"method": "rhf"
			},
			{
				"type": "occ",
				"energy": -0.36407,
				"method": "rhf"
			},
			{
				"type": "occ",
				"energy": -0.27705,
				"method": "rhf"
			},
			{
				"type": "occ",
				"energy": -0.2731,
				"method": "rhf"
			},
			{
				"type": "occ",
				"energy": -0.27231,
				"method": "rhf"
			},
			{
				"type": "unocc",
				"energy": -0.08082,
				"method": "rhf"
			},
			{
				"type": "unocc",
				"energy": -0.0284,
				"method": "rhf"
			},
			{
				"type": "unocc",
				"energy": 0.02612,
				"method": "rhf"
			},
			{
				"type": "unocc",
				"energy": 0.03984,
				"method": "rhf"
			},
			{
				"type": "unocc",
				"energy": 0.09811,
				"method": "rhf"
			}
		],
		"cosmo_sigma_profile": { 
			"-0.025": 0.0,
			"-0.024": 0.0,
			"-0.023": 0.0,
			"-0.022": 0.0,
			"-0.021": 0.0,
			"-0.02": 0.0,
			"-0.019": 0.0,
			"-0.018": 0.0,
			"-0.017": 0.0,
			"-0.016": 0.0,
			"-0.015": 0.0,
			"-0.014": 0.0,
			"-0.013": 0.0,
			"-0.012": 0.0,
			"-0.011": 0.0,
			"-0.01": 1.0314696131,
			"-0.009": 3.56180943205,
			"-0.008": 4.41144410864,
			"-0.007": 5.53934521789,
			"-0.006": 5.04418680325,
			"-0.005": 4.78290388986,
			"-0.004": 8.04662305517,
			"-0.003": 15.6533868259,
			"-0.002": 15.9779319275,
			"-0.001": 15.9145026831,
			"0.0": 15.5500506111,
			"0.001": 8.19057324414,
			"0.002": 18.4378542567,
			"0.003": 27.9665993398,
			"0.004": 2.81226736457,
			"0.005": 1.59063265352,
			"0.006": 1.75677605848,
			"0.007": 1.42891111428,
			"0.008": 1.87365369818,
			"0.009": 2.09446512643,
			"0.01": 3.60098026735,
			"0.011": 3.68502534792,
			"0.012": 1.34636738712,
			"0.013": 0.120318511941,
			"0.014": 0.0,
			"0.015": 0.0,
			"0.016": 0.0,
			"0.017": 0.0,
			"0.018": 0.0,
			"0.019": 0.0,
			"0.02": 0.0,
			"0.021": 0.0,
			"0.022": 0.0,
			"0.023": 0.0,
			"0.024": 0.0,
			"0.025": 0.0
		}
	}
}
