{
	 "smiles": "CC(=O)OC1CCC2C3CC=C4CC5(CCC4(C)C3CCC12C)OCCO5", 
	 "Tm": 469.15, 
	 "num_atms": 61, 
	 "gaussian": { 
		 "optdone": 1, 
		 "sigma_profile": "yes", 
		 "theory": "DFT", 
		 "functional": "B3LYP", 
		 "basiset": "6-31G**", 
		 "properties": { 
			 "R2extent": 14964.6633, 
			 "electric_dipole_moment_norm": 1.43982196469, 
			 "electric_quadrupole_moment_norm": 18.8988987544, 
			 "total_energy": -1197.823109, 
			 "HOMO_LUMO_gap": 0.2356, 
			 "cosmo_polarized_energy": -11.43, 
			 "cosmo_cavitation_energy": 53.8, 
			 "cosmo_dispersion_energy": -37.11, 
			 "cosmo_repulsion_energy": 2.74, 
			 "cosmo_total_nonelectrostatic_energy": 19.44, 
			 "SMD_solvation_energy": 8.7 
		},
		"coords": [
			{
				"x": -3.4934006598,
				"y": -2.728095829,
				"z": -5.1319707812,
				"element": "C" 
			},
			{
				"x": -2.4326609941,
				"y": -2.6663221836,
				"z": -4.057065783,
				"element": "C" 
			},
			{
				"x": -1.2404151716,
				"y": -2.5827608751,
				"z": -4.2614984986,
				"element": "O" 
			},
			{
				"x": -3.0012302063,
				"y": -2.7223476833,
				"z": -2.8293868678,
				"element": "O" 
			},
			{
				"x": -2.132539916,
				"y": -2.7107378065,
				"z": -1.6715259171,
				"element": "C" 
			},
			{
				"x": -2.6720855539,
				"y": -3.7012171934,
				"z": -0.6153569137,
				"element": "C" 
			},
			{
				"x": -2.3090432006,
				"y": -3.073654921,
				"z": 0.7623689554,
				"element": "C" 
			},
			{
				"x": -1.4820848979,
				"y": -1.8196202602,
				"z": 0.4047129342,
				"element": "C" 
			},
			{
				"x": -1.3398707147,
				"y": -0.7102792694,
				"z": 1.4588317788,
				"element": "C" 
			},
			{
				"x": -0.4839673974,
				"y": -1.1859545974,
				"z": 2.641712197,
				"element": "C" 
			},
			{
				"x": -0.1865453204,
				"y": -0.0701730973,
				"z": 3.5997409504,
				"element": "C" 
			},
			{
				"x": -0.0448068738,
				"y": 1.2026734425,
				"z": 3.2131438171,
				"element": "C" 
			},
			{
				"x": 0.4171049284,
				"y": 2.2635924921,
				"z": 4.1877562131,
				"element": "C" 
			},
			{
				"x": 1.7637405778,
				"y": 2.8979656504,
				"z": 3.7398325611,
				"element": "C" 
			},
			{
				"x": 2.3840445049,
				"y": 2.0948942171,
				"z": 2.5930773439,
				"element": "C" 
			},
			{
				"x": 1.4502806842,
				"y": 1.8679837879,
				"z": 1.3806994895,
				"element": "C" 
			},
			{
				"x": -0.0673978406,
				"y": 1.6355463964,
				"z": 1.7490095693,
				"element": "C" 
			},
			{
				"x": -0.8069380836,
				"y": 2.9917242846,
				"z": 1.5928907059,
				"element": "C" 
			},
			{
				"x": -0.8238653247,
				"y": 0.6152270818,
				"z": 0.7933578069,
				"element": "C" 
			},
			{
				"x": -0.1168145514,
				"y": 0.3209691819,
				"z": -0.5484821432,
				"element": "C" 
			},
			{
				"x": -1.0767973048,
				"y": -0.3118451514,
				"z": -1.586714476,
				"element": "C" 
			},
			{
				"x": -2.0562550822,
				"y": -1.3409805826,
				"z": -0.9525282779,
				"element": "C" 
			},
			{
				"x": -3.4727194577,
				"y": -0.7395702332,
				"z": -0.8278508781,
				"element": "C" 
			},
			{
				"x": 2.7035888212,
				"y": 2.9187378484,
				"z": 4.8280941852,
				"element": "O" 
			},
			{
				"x": 3.0025313918,
				"y": 4.2717860373,
				"z": 5.1538074498,
				"element": "C" 
			},
			{
				"x": 2.6658970788,
				"y": 5.0109505446,
				"z": 3.8621265006,
				"element": "C" 
			},
			{
				"x": 1.5511612704,
				"y": 4.2682657232,
				"z": 3.3826862045,
				"element": "O" 
			},
			{
				"x": -3.0194869282,
				"y": -2.6923985033,
				"z": -6.1123372259,
				"element": "H" 
			},
			{
				"x": -4.0776924336,
				"y": -3.6473653394,
				"z": -5.0309785159,
				"element": "H" 
			},
			{
				"x": -4.1867492965,
				"y": -1.8888660875,
				"z": -5.0223224209,
				"element": "H" 
			},
			{
				"x": -1.1332435884,
				"y": -2.9952726838,
				"z": -2.0089299133,
				"element": "H" 
			},
			{
				"x": -3.7538836933,
				"y": -3.8067944161,
				"z": -0.7385298817,
				"element": "H" 
			},
			{
				"x": -2.2383348389,
				"y": -4.6960966603,
				"z": -0.7516646336,
				"element": "H" 
			},
			{
				"x": -1.7515197141,
				"y": -3.7675739293,
				"z": 1.3979863168,
				"element": "H" 
			},
			{
				"x": -3.2136178469,
				"y": -2.7964955723,
				"z": 1.3154475634,
				"element": "H" 
			},
			{
				"x": -0.4639072209,
				"y": -2.1762984694,
				"z": 0.1835994551,
				"element": "H" 
			},
			{
				"x": -2.3341811552,
				"y": -0.4939544747,
				"z": 1.8727219766,
				"element": "H" 
			},
			{
				"x": -0.9970923637,
				"y": -2.0064971042,
				"z": 3.1582342821,
				"element": "H" 
			},
			{
				"x": 0.4608179433,
				"y": -1.6176715753,
				"z": 2.2718839741,
				"element": "H" 
			},
			{
				"x": -0.0435851737,
				"y": -0.3255655839,
				"z": 4.6490773501,
				"element": "H" 
			},
			{
				"x": 0.5776316298,
				"y": 1.8187947506,
				"z": 5.1731942193,
				"element": "H" 
			},
			{
				"x": -0.3127805766,
				"y": 3.0718725339,
				"z": 4.3020030544,
				"element": "H" 
			},
			{
				"x": 2.6724673889,
				"y": 1.1291650043,
				"z": 3.021592448,
				"element": "H" 
			},
			{
				"x": 3.3093756481,
				"y": 2.5848804546,
				"z": 2.2716535047,
				"element": "H" 
			},
			{
				"x": 1.8461378863,
				"y": 1.0086133424,
				"z": 0.8350551483,
				"element": "H" 
			},
			{
				"x": 1.5201382021,
				"y": 2.7252691611,
				"z": 0.7021427765,
				"element": "H" 
			},
			{
				"x": -1.8337753148,
				"y": 2.9210892323,
				"z": 1.9703938896,
				"element": "H" 
			},
			{
				"x": -0.3019447697,
				"y": 3.8109642144,
				"z": 2.1065489273,
				"element": "H" 
			},
			{
				"x": -0.8597446452,
				"y": 3.2555641839,
				"z": 0.53013096,
				"element": "H" 
			},
			{
				"x": -1.7347299099,
				"y": 1.1522716482,
				"z": 0.5084573201,
				"element": "H" 
			},
			{
				"x": 0.7417190702,
				"y": -0.3433376078,
				"z": -0.389933679,
				"element": "H" 
			},
			{
				"x": 0.2949713375,
				"y": 1.2442279134,
				"z": -0.970142845,
				"element": "H" 
			},
			{
				"x": -0.4904505804,
				"y": -0.7856534363,
				"z": -2.3809071608,
				"element": "H" 
			},
			{
				"x": -1.6531349222,
				"y": 0.4861790158,
				"z": -2.0706034861,
				"element": "H" 
			},
			{
				"x": -3.4633573935,
				"y": 0.1929916728,
				"z": -0.2580214838,
				"element": "H" 
			},
			{
				"x": -4.1796878236,
				"y": -1.4187128622,
				"z": -0.3419674571,
				"element": "H" 
			},
			{
				"x": -3.8688714835,
				"y": -0.516232468,
				"z": -1.8227444066,
				"element": "H" 
			},
			{
				"x": 2.3773822633,
				"y": 4.623928956,
				"z": 5.9874136534,
				"element": "H" 
			},
			{
				"x": 4.0554226785,
				"y": 4.343067263,
				"z": 5.4431809192,
				"element": "H" 
			},
			{
				"x": 3.5054470667,
				"y": 4.9813557476,
				"z": 3.151777526,
				"element": "H" 
			},
			{
				"x": 2.3536498521,
				"y": 6.0486946746,
				"z": 4.0041197184,
				"element": "H" 
			}
		],
		 "valence_orbital": [ 
			{
				"type": "occ",
				"energy": -0.26841,
				"method": "rhf"
			},
			{
				"type": "occ",
				"energy": -0.26471,
				"method": "rhf"
			},
			{
				"type": "occ",
				"energy": -0.26107,
				"method": "rhf"
			},
			{
				"type": "occ",
				"energy": -0.2536,
				"method": "rhf"
			},
			{
				"type": "occ",
				"energy": -0.2199,
				"method": "rhf"
			},
			{
				"type": "unocc",
				"energy": 0.0157,
				"method": "rhf"
			},
			{
				"type": "unocc",
				"energy": 0.03018,
				"method": "rhf"
			},
			{
				"type": "unocc",
				"energy": 0.07205,
				"method": "rhf"
			},
			{
				"type": "unocc",
				"energy": 0.08418,
				"method": "rhf"
			},
			{
				"type": "unocc",
				"energy": 0.08989,
				"method": "rhf"
			}
		],
		"cosmo_sigma_profile": { 
			"-0.025": 0.0,
			"-0.024": 0.0,
			"-0.023": 0.0,
			"-0.022": 0.0,
			"-0.021": 0.0,
			"-0.02": 0.0,
			"-0.019": 0.0,
			"-0.018": 0.0,
			"-0.017": 0.0,
			"-0.016": 0.0,
			"-0.015": 0.0,
			"-0.014": 0.0,
			"-0.013": 0.0,
			"-0.012": 0.0,
			"-0.011": 0.0,
			"-0.01": 0.0,
			"-0.009": 0.0,
			"-0.008": 0.0,
			"-0.007": 0.400207829639,
			"-0.006": 7.14333295772,
			"-0.005": 14.2075044367,
			"-0.004": 26.8121123267,
			"-0.003": 42.0315926042,
			"-0.002": 67.6895581165,
			"-0.001": 69.5278350841,
			"0.0": 51.9742069975,
			"0.001": 40.192993293,
			"0.002": 24.2442295832,
			"0.003": 13.8642832956,
			"0.004": 9.3782377886,
			"0.005": 7.84822609126,
			"0.006": 7.6519245031,
			"0.007": 6.31795227841,
			"0.008": 6.16460034944,
			"0.009": 4.21187584882,
			"0.01": 3.2999242195,
			"0.011": 3.86329121797,
			"0.012": 4.88435206805,
			"0.013": 2.93484428603,
			"0.014": 0.15503260188,
			"0.015": 0.0,
			"0.016": 0.0,
			"0.017": 0.0,
			"0.018": 0.0,
			"0.019": 0.0,
			"0.02": 0.0,
			"0.021": 0.0,
			"0.022": 0.0,
			"0.023": 0.0,
			"0.024": 0.0,
			"0.025": 0.0
		}
	}
}
