{
	 "smiles": "CC1=C(C)C2=C(N1)C=CC(C)=C2", 
	 "Tm": 395.15, 
	 "num_atms": 25, 
	 "gaussian": { 
		 "optdone": 1, 
		 "sigma_profile": "yes", 
		 "theory": "DFT", 
		 "functional": "B3LYP", 
		 "basiset": "6-31G**", 
		 "properties": { 
			 "R2extent": 2518.5614, 
			 "electric_dipole_moment_norm": 2.17250363636, 
			 "electric_quadrupole_moment_norm": 7.76707457799, 
			 "total_energy": -481.784183792, 
			 "HOMO_LUMO_gap": 0.19031, 
			 "cosmo_polarized_energy": -7.83, 
			 "cosmo_cavitation_energy": 27.51, 
			 "cosmo_dispersion_energy": -20.23, 
			 "cosmo_repulsion_energy": 1.61, 
			 "cosmo_total_nonelectrostatic_energy": 8.89, 
			 "SMD_solvation_energy": 4.49 
		},
		"coords": [
			{
				"x": 2.8705783483,
				"y": 0.8700162801,
				"z": 0.260062663,
				"element": "C" 
			},
			{
				"x": 1.4007054087,
				"y": 0.6229943123,
				"z": 0.1445738726,
				"element": "C" 
			},
			{
				"x": 0.5190372376,
				"y": 0.8747608362,
				"z": -0.8843184376,
				"element": "C" 
			},
			{
				"x": 0.8140434675,
				"y": 1.490479266,
				"z": -2.2190682425,
				"element": "C" 
			},
			{
				"x": -0.779164077,
				"y": 0.4287931976,
				"z": -0.439009894,
				"element": "C" 
			},
			{
				"x": -0.6238341304,
				"y": -0.0868220754,
				"z": 0.8733088175,
				"element": "C" 
			},
			{
				"x": 0.7094837857,
				"y": 0.0435987878,
				"z": 1.2034091428,
				"element": "N" 
			},
			{
				"x": -1.7027007181,
				"y": -0.6044261883,
				"z": 1.5955927396,
				"element": "C" 
			},
			{
				"x": -2.9503917862,
				"y": -0.5996184436,
				"z": 0.9829035333,
				"element": "C" 
			},
			{
				"x": -3.1450496094,
				"y": -0.0937062555,
				"z": -0.3247563773,
				"element": "C" 
			},
			{
				"x": -4.5273040839,
				"y": -0.1153881212,
				"z": -0.9384205909,
				"element": "C" 
			},
			{
				"x": -2.0558469746,
				"y": 0.4177107537,
				"z": -1.0272177104,
				"element": "C" 
			},
			{
				"x": 3.426818853,
				"y": -0.0611738469,
				"z": 0.4284093428,
				"element": "H" 
			},
			{
				"x": 3.2594216878,
				"y": 1.3253594221,
				"z": -0.6526400073,
				"element": "H" 
			},
			{
				"x": 3.1046985889,
				"y": 1.5456767461,
				"z": 1.092848899,
				"element": "H" 
			},
			{
				"x": 0.5539971754,
				"y": 0.8124848611,
				"z": -3.0417362555,
				"element": "H" 
			},
			{
				"x": 0.2396576051,
				"y": 2.4126567098,
				"z": -2.3734242768,
				"element": "H" 
			},
			{
				"x": 1.872301056,
				"y": 1.7440491441,
				"z": -2.3284244298,
				"element": "H" 
			},
			{
				"x": 1.1262582267,
				"y": -0.2384722992,
				"z": 2.0754015101,
				"element": "H" 
			},
			{
				"x": -1.575839674,
				"y": -0.9978225022,
				"z": 2.6007645389,
				"element": "H" 
			},
			{
				"x": -3.8056121425,
				"y": -0.9969663774,
				"z": 1.5243427185,
				"element": "H" 
			},
			{
				"x": -5.2429231911,
				"y": 0.4641944613,
				"z": -0.3425861607,
				"element": "H" 
			},
			{
				"x": -4.5207036658,
				"y": 0.3052787759,
				"z": -1.9481251524,
				"element": "H" 
			},
			{
				"x": -4.9227049525,
				"y": -1.136147382,
				"z": -1.0072147455,
				"element": "H" 
			},
			{
				"x": -2.1971264353,
				"y": 0.8082899378,
				"z": -2.0323754974,
				"element": "H" 
			}
		],
		 "valence_orbital": [ 
			{
				"type": "occ",
				"energy": -0.317,
				"method": "rhf"
			},
			{
				"type": "occ",
				"energy": -0.30685,
				"method": "rhf"
			},
			{
				"type": "occ",
				"energy": -0.25688,
				"method": "rhf"
			},
			{
				"type": "occ",
				"energy": -0.20064,
				"method": "rhf"
			},
			{
				"type": "occ",
				"energy": -0.18712,
				"method": "rhf"
			},
			{
				"type": "unocc",
				"energy": 0.00319,
				"method": "rhf"
			},
			{
				"type": "unocc",
				"energy": 0.03699,
				"method": "rhf"
			},
			{
				"type": "unocc",
				"energy": 0.07741,
				"method": "rhf"
			},
			{
				"type": "unocc",
				"energy": 0.08361,
				"method": "rhf"
			},
			{
				"type": "unocc",
				"energy": 0.10209,
				"method": "rhf"
			}
		],
		"cosmo_sigma_profile": { 
			"-0.025": 0.0,
			"-0.024": 0.0,
			"-0.023": 0.0,
			"-0.022": 0.0,
			"-0.021": 0.0,
			"-0.02": 0.0,
			"-0.019": 0.0,
			"-0.018": 0.0,
			"-0.017": 0.0,
			"-0.016": 0.0,
			"-0.015": 0.447334149821,
			"-0.014": 1.43375442762,
			"-0.013": 0.866462740102,
			"-0.012": 1.37066046545,
			"-0.011": 1.02189523717,
			"-0.01": 0.909338821394,
			"-0.009": 1.55452704512,
			"-0.008": 1.43518445622,
			"-0.007": 1.2350627761,
			"-0.006": 2.5099654606,
			"-0.005": 7.39410144166,
			"-0.004": 15.3297920286,
			"-0.003": 20.6184992989,
			"-0.002": 23.438770783,
			"-0.001": 25.7031885673,
			"0.0": 24.171328678,
			"0.001": 20.278849027,
			"0.002": 10.7599595508,
			"0.003": 8.01269873872,
			"0.004": 8.7373319096,
			"0.005": 9.74907135085,
			"0.006": 12.3862277778,
			"0.007": 11.9689561134,
			"0.008": 5.70192809566,
			"0.009": 0.0853863121589,
			"0.01": 0.0,
			"0.011": 0.0,
			"0.012": 0.0,
			"0.013": 0.0,
			"0.014": 0.0,
			"0.015": 0.0,
			"0.016": 0.0,
			"0.017": 0.0,
			"0.018": 0.0,
			"0.019": 0.0,
			"0.02": 0.0,
			"0.021": 0.0,
			"0.022": 0.0,
			"0.023": 0.0,
			"0.024": 0.0,
			"0.025": 0.0
		}
	}
}
