{
	 "smiles": "SC1=NN(C=N1)C1=CC=CC=C1", 
	 "Tm": 447.15, 
	 "num_atms": 19, 
	 "gaussian": { 
		 "optdone": 1, 
		 "sigma_profile": "yes", 
		 "theory": "DFT", 
		 "functional": "B3LYP", 
		 "basiset": "6-31G**", 
		 "properties": { 
			 "R2extent": 3918.2912, 
			 "electric_dipole_moment_norm": 3.75708283779, 
			 "electric_quadrupole_moment_norm": 11.7167576466, 
			 "total_energy": -871.489741513, 
			 "HOMO_LUMO_gap": 0.1841, 
			 "cosmo_polarized_energy": -10.65, 
			 "cosmo_cavitation_energy": 25.4, 
			 "cosmo_dispersion_energy": -19.59, 
			 "cosmo_repulsion_energy": 1.49, 
			 "cosmo_total_nonelectrostatic_energy": 7.3, 
			 "SMD_solvation_energy": 1.7 
		},
		"coords": [
			{
				"x": -1.7653865827,
				"y": 1.6197276753,
				"z": 4.1195445709,
				"element": "S" 
			},
			{
				"x": -1.6812692002,
				"y": 1.4712593347,
				"z": 2.361974719,
				"element": "C" 
			},
			{
				"x": -0.6015296194,
				"y": 1.7485044307,
				"z": 1.6475407927,
				"element": "N" 
			},
			{
				"x": -1.02204701,
				"y": 1.4850521342,
				"z": 0.3708170195,
				"element": "N" 
			},
			{
				"x": -2.3152891719,
				"y": 1.0716657228,
				"z": 0.410830591,
				"element": "C" 
			},
			{
				"x": -2.7662733011,
				"y": 1.0499353824,
				"z": 1.650361519,
				"element": "N" 
			},
			{
				"x": -0.1467634659,
				"y": 1.6567944677,
				"z": -0.73648678,
				"element": "C" 
			},
			{
				"x": 1.1603720629,
				"y": 2.1010911669,
				"z": -0.5104620738,
				"element": "C" 
			},
			{
				"x": 2.0223046876,
				"y": 2.2710634166,
				"z": -1.5921203009,
				"element": "C" 
			},
			{
				"x": 1.5947080052,
				"y": 2.0030362658,
				"z": -2.8935510039,
				"element": "C" 
			},
			{
				"x": 0.2885775827,
				"y": 1.5602060159,
				"z": -3.1083647963,
				"element": "C" 
			},
			{
				"x": -0.5862903896,
				"y": 1.3849898195,
				"z": -2.0376471942,
				"element": "C" 
			},
			{
				"x": -0.4940192756,
				"y": 2.0436673546,
				"z": 4.253395073,
				"element": "H" 
			},
			{
				"x": -2.8848396547,
				"y": 0.8002594792,
				"z": -0.4649389445,
				"element": "H" 
			},
			{
				"x": 1.4784051715,
				"y": 2.3050536575,
				"z": 0.5039532541,
				"element": "H" 
			},
			{
				"x": 3.0360514904,
				"y": 2.616126087,
				"z": -1.4117293043,
				"element": "H" 
			},
			{
				"x": 2.2710362984,
				"y": 2.1374290744,
				"z": -3.7318561278,
				"element": "H" 
			},
			{
				"x": -0.0579110611,
				"y": 1.3478073908,
				"z": -4.1152881337,
				"element": "H" 
			},
			{
				"x": -1.5969365664,
				"y": 1.0402311241,
				"z": -2.2257728797,
				"element": "H" 
			}
		],
		 "valence_orbital": [ 
			{
				"type": "occ",
				"energy": -0.29868,
				"method": "rhf"
			},
			{
				"type": "occ",
				"energy": -0.28711,
				"method": "rhf"
			},
			{
				"type": "occ",
				"energy": -0.26839,
				"method": "rhf"
			},
			{
				"type": "occ",
				"energy": -0.26124,
				"method": "rhf"
			},
			{
				"type": "occ",
				"energy": -0.22461,
				"method": "rhf"
			},
			{
				"type": "unocc",
				"energy": -0.04051,
				"method": "rhf"
			},
			{
				"type": "unocc",
				"energy": -0.01805,
				"method": "rhf"
			},
			{
				"type": "unocc",
				"energy": 0.02114,
				"method": "rhf"
			},
			{
				"type": "unocc",
				"energy": 0.02795,
				"method": "rhf"
			},
			{
				"type": "unocc",
				"energy": 0.04821,
				"method": "rhf"
			}
		],
		"cosmo_sigma_profile": { 
			"-0.025": 0.0,
			"-0.024": 0.0,
			"-0.023": 0.0,
			"-0.022": 0.0,
			"-0.021": 0.0,
			"-0.02": 0.0,
			"-0.019": 0.0,
			"-0.018": 0.0,
			"-0.017": 0.0,
			"-0.016": 0.0,
			"-0.015": 0.0,
			"-0.014": 0.0,
			"-0.013": 0.111021373195,
			"-0.012": 2.11701204287,
			"-0.011": 3.86155331402,
			"-0.01": 3.26061901442,
			"-0.009": 3.03738864752,
			"-0.008": 3.44259994137,
			"-0.007": 4.25173289273,
			"-0.006": 10.7917524078,
			"-0.005": 12.3176529747,
			"-0.004": 13.1056893141,
			"-0.003": 10.2315734698,
			"-0.002": 12.5683548194,
			"-0.001": 10.996628693,
			"0.0": 14.165403659,
			"0.001": 14.5692846663,
			"0.002": 18.3571874984,
			"0.003": 18.7176349425,
			"0.004": 18.2389186981,
			"0.005": 10.4873515014,
			"0.006": 6.71044755597,
			"0.007": 4.03699075526,
			"0.008": 3.34563307002,
			"0.009": 2.68914858644,
			"0.01": 1.32299375236,
			"0.011": 1.21103684748,
			"0.012": 1.01347658953,
			"0.013": 0.762736318091,
			"0.014": 1.09720206972,
			"0.015": 0.76783833302,
			"0.016": 0.0612420306051,
			"0.017": 0.0,
			"0.018": 0.0,
			"0.019": 0.0,
			"0.02": 0.0,
			"0.021": 0.0,
			"0.022": 0.0,
			"0.023": 0.0,
			"0.024": 0.0,
			"0.025": 0.0
		}
	}
}
