{
	 "smiles": "CCOC(=O)CNCC(N)=O", 
	 "Tm": 344.15, 
	 "num_atms": 23, 
	 "gaussian": { 
		 "optdone": 1, 
		 "sigma_profile": "yes", 
		 "theory": "DFT", 
		 "functional": "B3LYP", 
		 "basiset": "6-31G**", 
		 "properties": { 
			 "R2extent": 2805.2358, 
			 "electric_dipole_moment_norm": 4.10800547833, 
			 "electric_quadrupole_moment_norm": 16.9814346458, 
			 "total_energy": -571.068054087, 
			 "HOMO_LUMO_gap": 0.23585, 
			 "cosmo_polarized_energy": -16.99, 
			 "cosmo_cavitation_energy": 26.9, 
			 "cosmo_dispersion_energy": -18.98, 
			 "cosmo_repulsion_energy": 1.6, 
			 "cosmo_total_nonelectrostatic_energy": 9.53, 
			 "SMD_solvation_energy": 5.41 
		},
		"coords": [
			{
				"x": -1.432017414,
				"y": 1.6523933547,
				"z": 1.7797033656,
				"element": "C" 
			},
			{
				"x": -0.7627450593,
				"y": 1.9413314684,
				"z": 0.4452542552,
				"element": "C" 
			},
			{
				"x": -0.2087249003,
				"y": 0.7337171871,
				"z": -0.1396395276,
				"element": "O" 
			},
			{
				"x": -1.054656034,
				"y": -0.0240396715,
				"z": -0.8719746535,
				"element": "C" 
			},
			{
				"x": -2.2173366168,
				"y": 0.2465192065,
				"z": -1.0767341124,
				"element": "O" 
			},
			{
				"x": -0.3508604928,
				"y": -1.2427905089,
				"z": -1.4781368763,
				"element": "C" 
			},
			{
				"x": 0.9257987078,
				"y": -1.647639379,
				"z": -0.9075825238,
				"element": "N" 
			},
			{
				"x": 0.8318752984,
				"y": -2.2156158246,
				"z": 0.4397582389,
				"element": "C" 
			},
			{
				"x": 0.5027439518,
				"y": -3.7157486245,
				"z": 0.4566856551,
				"element": "C" 
			},
			{
				"x": 0.7246733527,
				"y": -4.3491580662,
				"z": -0.7261241364,
				"element": "N" 
			},
			{
				"x": 0.1031662523,
				"y": -4.2661636057,
				"z": 1.4725539608,
				"element": "O" 
			},
			{
				"x": -1.7763522948,
				"y": 2.5889424876,
				"z": 2.2307696911,
				"element": "H" 
			},
			{
				"x": -2.2979661693,
				"y": 1.0004749397,
				"z": 1.6424418229,
				"element": "H" 
			},
			{
				"x": -0.7336261759,
				"y": 1.1745989396,
				"z": 2.4730265794,
				"element": "H" 
			},
			{
				"x": -1.4684684458,
				"y": 2.3792489662,
				"z": -0.2643997933,
				"element": "H" 
			},
			{
				"x": 0.0977001757,
				"y": 2.6045209945,
				"z": 0.5612402254,
				"element": "H" 
			},
			{
				"x": -1.0585068608,
				"y": -2.0758038745,
				"z": -1.432137134,
				"element": "H" 
			},
			{
				"x": -0.2172654136,
				"y": -1.015446992,
				"z": -2.5438212427,
				"element": "H" 
			},
			{
				"x": 1.5542769824,
				"y": -0.8510926089,
				"z": -0.8992073664,
				"element": "H" 
			},
			{
				"x": 1.805824932,
				"y": -2.1080607318,
				"z": 0.9302592593,
				"element": "H" 
			},
			{
				"x": 0.0989757264,
				"y": -1.7197551604,
				"z": 1.0909692956,
				"element": "H" 
			},
			{
				"x": 0.6031873991,
				"y": -5.3482761591,
				"z": -0.7760927947,
				"element": "H" 
			},
			{
				"x": 1.115003099,
				"y": -3.8243563371,
				"z": -1.4953121881,
				"element": "H" 
			}
		],
		 "valence_orbital": [ 
			{
				"type": "occ",
				"energy": -0.30641,
				"method": "rhf"
			},
			{
				"type": "occ",
				"energy": -0.29731,
				"method": "rhf"
			},
			{
				"type": "occ",
				"energy": -0.25985,
				"method": "rhf"
			},
			{
				"type": "occ",
				"energy": -0.25203,
				"method": "rhf"
			},
			{
				"type": "occ",
				"energy": -0.23114,
				"method": "rhf"
			},
			{
				"type": "unocc",
				"energy": 0.00471,
				"method": "rhf"
			},
			{
				"type": "unocc",
				"energy": 0.03378,
				"method": "rhf"
			},
			{
				"type": "unocc",
				"energy": 0.07546,
				"method": "rhf"
			},
			{
				"type": "unocc",
				"energy": 0.09995,
				"method": "rhf"
			},
			{
				"type": "unocc",
				"energy": 0.10634,
				"method": "rhf"
			}
		],
		"cosmo_sigma_profile": { 
			"-0.025": 0.0,
			"-0.024": 0.0,
			"-0.023": 0.0,
			"-0.022": 0.0,
			"-0.021": 0.0,
			"-0.02": 0.0,
			"-0.019": 0.0,
			"-0.018": 0.0,
			"-0.017": 0.0,
			"-0.016": 0.0,
			"-0.015": 0.0,
			"-0.014": 0.528136382782,
			"-0.013": 0.933155809154,
			"-0.012": 1.34568480476,
			"-0.011": 2.07297756401,
			"-0.01": 2.75307999192,
			"-0.009": 2.96212108504,
			"-0.008": 4.26878524078,
			"-0.007": 7.95418455414,
			"-0.006": 11.5186484476,
			"-0.005": 11.6279132706,
			"-0.004": 19.5265288674,
			"-0.003": 20.1834412119,
			"-0.002": 19.0264231996,
			"-0.001": 17.921694049,
			"0.0": 14.4239482656,
			"0.001": 8.28618014165,
			"0.002": 7.18970106245,
			"0.003": 6.69331229799,
			"0.004": 6.97977041823,
			"0.005": 5.4203480553,
			"0.006": 3.21321389998,
			"0.007": 2.17132706503,
			"0.008": 3.40226937715,
			"0.009": 3.11542387547,
			"0.01": 2.73685887336,
			"0.011": 4.73329043817,
			"0.012": 5.6934811674,
			"0.013": 3.48427636109,
			"0.014": 6.19184065499,
			"0.015": 3.58383119808,
			"0.016": 0.231907503329,
			"0.017": 0.0,
			"0.018": 0.0,
			"0.019": 0.0,
			"0.02": 0.0,
			"0.021": 0.0,
			"0.022": 0.0,
			"0.023": 0.0,
			"0.024": 0.0,
			"0.025": 0.0
		}
	}
}
