{
	 "smiles": "CNS(=O)(=O)C1=CC(F)=CC=C1", 
	 "Tm": 332.15, 
	 "num_atms": 20, 
	 "gaussian": { 
		 "optdone": 1, 
		 "sigma_profile": "yes", 
		 "theory": "DFT", 
		 "functional": "B3LYP", 
		 "basiset": "6-31G**", 
		 "properties": { 
			 "R2extent": 2484.6969, 
			 "electric_dipole_moment_norm": 4.11749647359, 
			 "electric_quadrupole_moment_norm": 11.9684522788, 
			 "total_energy": -974.712628422, 
			 "HOMO_LUMO_gap": 0.21518, 
			 "cosmo_polarized_energy": -13.12, 
			 "cosmo_cavitation_energy": 26.07, 
			 "cosmo_dispersion_energy": -19.13, 
			 "cosmo_repulsion_energy": 1.46, 
			 "cosmo_total_nonelectrostatic_energy": 8.39, 
			 "SMD_solvation_energy": 4.02 
		},
		"coords": [
			{
				"x": -2.4976222713,
				"y": 0.7259446817,
				"z": 1.9194786504,
				"element": "C" 
			},
			{
				"x": -1.8095801331,
				"y": -0.4631038524,
				"z": 1.4006430682,
				"element": "N" 
			},
			{
				"x": -1.2187967883,
				"y": -0.3873826121,
				"z": -0.1827501161,
				"element": "S" 
			},
			{
				"x": -1.0666844179,
				"y": -1.7869333368,
				"z": -0.5905103702,
				"element": "O" 
			},
			{
				"x": -1.9958926133,
				"y": 0.5646880986,
				"z": -0.9856663528,
				"element": "O" 
			},
			{
				"x": 0.410698393,
				"y": 0.3298521553,
				"z": 0.0595584165,
				"element": "C" 
			},
			{
				"x": 0.6238674699,
				"y": 1.6527148084,
				"z": -0.3253338538,
				"element": "C" 
			},
			{
				"x": 1.8972782894,
				"y": 2.1801830371,
				"z": -0.1372863934,
				"element": "C" 
			},
			{
				"x": 2.1298109014,
				"y": 3.4560758001,
				"z": -0.4990965313,
				"element": "F" 
			},
			{
				"x": 2.9352319612,
				"y": 1.4332450502,
				"z": 0.4082934244,
				"element": "C" 
			},
			{
				"x": 2.6920404024,
				"y": 0.1075444385,
				"z": 0.7767420532,
				"element": "C" 
			},
			{
				"x": 1.4284965822,
				"y": -0.4561624322,
				"z": 0.6053083483,
				"element": "C" 
			},
			{
				"x": -3.3571294051,
				"y": 1.0328070618,
				"z": 1.3137917534,
				"element": "H" 
			},
			{
				"x": -2.8256863983,
				"y": 0.5024118661,
				"z": 2.9373050266,
				"element": "H" 
			},
			{
				"x": -1.789003554,
				"y": 1.5566576806,
				"z": 1.9713841003,
				"element": "H" 
			},
			{
				"x": -2.3529407577,
				"y": -1.3211285896,
				"z": 1.4659226724,
				"element": "H" 
			},
			{
				"x": -0.1676309163,
				"y": 2.2431877039,
				"z": -0.7710871886,
				"element": "H" 
			},
			{
				"x": 3.911362781,
				"y": 1.8894567934,
				"z": 0.5318640216,
				"element": "H" 
			},
			{
				"x": 3.4969157088,
				"y": -0.4877398721,
				"z": 1.1962677588,
				"element": "H" 
			},
			{
				"x": 1.2321647657,
				"y": -1.4870184807,
				"z": 0.8764715118,
				"element": "H" 
			}
		],
		 "valence_orbital": [ 
			{
				"type": "occ",
				"energy": -0.31431,
				"method": "rhf"
			},
			{
				"type": "occ",
				"energy": -0.30392,
				"method": "rhf"
			},
			{
				"type": "occ",
				"energy": -0.29132,
				"method": "rhf"
			},
			{
				"type": "occ",
				"energy": -0.27308,
				"method": "rhf"
			},
			{
				"type": "occ",
				"energy": -0.26084,
				"method": "rhf"
			},
			{
				"type": "unocc",
				"energy": -0.04566,
				"method": "rhf"
			},
			{
				"type": "unocc",
				"energy": -0.02125,
				"method": "rhf"
			},
			{
				"type": "unocc",
				"energy": 0.0522,
				"method": "rhf"
			},
			{
				"type": "unocc",
				"energy": 0.07631,
				"method": "rhf"
			},
			{
				"type": "unocc",
				"energy": 0.08834,
				"method": "rhf"
			}
		],
		"cosmo_sigma_profile": { 
			"-0.025": 0.0,
			"-0.024": 0.0,
			"-0.023": 0.0,
			"-0.022": 0.0,
			"-0.021": 0.0,
			"-0.02": 0.0,
			"-0.019": 0.0,
			"-0.018": 0.0,
			"-0.017": 0.0,
			"-0.016": 0.0,
			"-0.015": 0.291334675236,
			"-0.014": 1.14250714526,
			"-0.013": 1.53530624464,
			"-0.012": 0.66114092574,
			"-0.011": 1.00440075545,
			"-0.01": 0.898393650507,
			"-0.009": 1.69581633495,
			"-0.008": 4.74780328132,
			"-0.007": 9.89794436666,
			"-0.006": 10.8776445617,
			"-0.005": 11.9515323848,
			"-0.004": 13.8490935356,
			"-0.003": 15.6360330704,
			"-0.002": 13.7083357705,
			"-0.001": 14.0440601128,
			"0.0": 17.0344827261,
			"0.001": 14.4807992488,
			"0.002": 13.4455444183,
			"0.003": 12.0757127593,
			"0.004": 12.0757523929,
			"0.005": 3.07216346659,
			"0.006": 2.94276856231,
			"0.007": 3.98063985581,
			"0.008": 3.93451889937,
			"0.009": 3.94202567636,
			"0.01": 8.28706481771,
			"0.011": 8.35874339846,
			"0.012": 2.62000241538,
			"0.013": 0.0,
			"0.014": 0.0,
			"0.015": 0.0,
			"0.016": 0.0,
			"0.017": 0.0,
			"0.018": 0.0,
			"0.019": 0.0,
			"0.02": 0.0,
			"0.021": 0.0,
			"0.022": 0.0,
			"0.023": 0.0,
			"0.024": 0.0,
			"0.025": 0.0
		}
	}
}
