{
	 "smiles": "OC(=O)C1=C(I)C=C(F)C(=C1)[N+]([O-])=O", 
	 "Tm": 432.15, 
	 "num_atms": 17, 
	 "gaussian": { 
		 "optdone": 1, 
		 "sigma_profile": "yes", 
		 "theory": "DFT", 
		 "functional": "B3LYP", 
		 "basiset": "6-31G**", 
		 "properties": { 
			 "R2extent": 3945.7429, 
			 "electric_dipole_moment_norm": 2.6040427051, 
			 "electric_quadrupole_moment_norm": 15.0658717083, 
			 "total_energy": -735.311673945, 
			 "HOMO_LUMO_gap": 0.16021, 
			 "cosmo_polarized_energy": -13.15, 
			 "cosmo_cavitation_energy": 26.75, 
			 "cosmo_dispersion_energy": -20.95, 
			 "cosmo_repulsion_energy": 1.59, 
			 "cosmo_total_nonelectrostatic_energy": 7.39, 
			 "SMD_solvation_energy": 7.71 
		},
		"coords": [
			{
				"x": -1.0640494679,
				"y": -2.053171479,
				"z": -3.9897696038,
				"element": "O" 
			},
			{
				"x": -0.0189489877,
				"y": -2.532964216,
				"z": -3.2728868526,
				"element": "C" 
			},
			{
				"x": 0.4747559764,
				"y": -3.6155929749,
				"z": -3.4997799143,
				"element": "O" 
			},
			{
				"x": 0.4160431599,
				"y": -1.5755500476,
				"z": -2.2100305315,
				"element": "C" 
			},
			{
				"x": 1.4848423701,
				"y": -1.8269653693,
				"z": -1.3195750565,
				"element": "C" 
			},
			{
				"x": 2.6692447962,
				"y": -3.5748211799,
				"z": -1.3034306888,
				"element": "I" 
			},
			{
				"x": 1.8245986066,
				"y": -0.8767837144,
				"z": -0.3555102237,
				"element": "C" 
			},
			{
				"x": 1.1262432239,
				"y": 0.3216893439,
				"z": -0.2546822911,
				"element": "C" 
			},
			{
				"x": 1.5076936121,
				"y": 1.1753519174,
				"z": 0.6884770167,
				"element": "F" 
			},
			{
				"x": 0.0637420396,
				"y": 0.5862795535,
				"z": -1.1303840113,
				"element": "C" 
			},
			{
				"x": -0.272550471,
				"y": -0.3622831453,
				"z": -2.088805078,
				"element": "C" 
			},
			{
				"x": -0.7170700695,
				"y": 1.8310894693,
				"z": -1.0816524868,
				"element": "N" 
			},
			{
				"x": -0.4042343222,
				"y": 2.6716812264,
				"z": -0.2444621386,
				"element": "O" 
			},
			{
				"x": -1.6372575192,
				"y": 1.9450348532,
				"z": -1.8907805706,
				"element": "O" 
			},
			{
				"x": -1.2722516769,
				"y": -2.7369677067,
				"z": -4.6472362562,
				"element": "H" 
			},
			{
				"x": 2.6385843504,
				"y": -1.0457048878,
				"z": 0.3385489192,
				"element": "H" 
			},
			{
				"x": -1.0955856209,
				"y": -0.1382216427,
				"z": -2.7534402321,
				"element": "H" 
			}
		],
		 "valence_orbital": [ 
			{
				"type": "occ",
				"energy": -0.31572,
				"method": "rhf"
			},
			{
				"type": "occ",
				"energy": -0.30301,
				"method": "rhf"
			},
			{
				"type": "occ",
				"energy": -0.29561,
				"method": "rhf"
			},
			{
				"type": "occ",
				"energy": -0.27229,
				"method": "rhf"
			},
			{
				"type": "occ",
				"energy": -0.26733,
				"method": "rhf"
			},
			{
				"type": "unocc",
				"energy": -0.10712,
				"method": "rhf"
			},
			{
				"type": "unocc",
				"energy": -0.07826,
				"method": "rhf"
			},
			{
				"type": "unocc",
				"energy": -0.06088,
				"method": "rhf"
			},
			{
				"type": "unocc",
				"energy": -0.03407,
				"method": "rhf"
			},
			{
				"type": "unocc",
				"energy": 0.03338,
				"method": "rhf"
			}
		],
		"cosmo_sigma_profile": { 
			"-0.025": 0.0,
			"-0.024": 0.0,
			"-0.023": 0.0,
			"-0.022": 0.0,
			"-0.021": 0.0,
			"-0.02": 0.0,
			"-0.019": 0.488401391006,
			"-0.018": 1.04142490978,
			"-0.017": 0.835031411724,
			"-0.016": 0.640712490669,
			"-0.015": 0.887591559746,
			"-0.014": 1.08916298871,
			"-0.013": 0.278216295757,
			"-0.012": 0.337564731679,
			"-0.011": 0.99514553565,
			"-0.01": 1.23911001584,
			"-0.009": 2.41168539937,
			"-0.008": 5.01152107109,
			"-0.007": 5.97701385898,
			"-0.006": 6.97546822778,
			"-0.005": 9.15728378565,
			"-0.004": 18.0689736611,
			"-0.003": 21.2140288974,
			"-0.002": 20.8754646821,
			"-0.001": 13.645169044,
			"0.0": 9.80387444414,
			"0.001": 11.5980466081,
			"0.002": 15.1696603465,
			"0.003": 15.6314397676,
			"0.004": 7.88025347828,
			"0.005": 8.18095831707,
			"0.006": 7.98256555419,
			"0.007": 12.0491208148,
			"0.008": 7.31507996178,
			"0.009": 5.71115895157,
			"0.01": 3.20252996508,
			"0.011": 3.91078975932,
			"0.012": 1.28590774948,
			"0.013": 0.0,
			"0.014": 0.0,
			"0.015": 0.0,
			"0.016": 0.0,
			"0.017": 0.0,
			"0.018": 0.0,
			"0.019": 0.0,
			"0.02": 0.0,
			"0.021": 0.0,
			"0.022": 0.0,
			"0.023": 0.0,
			"0.024": 0.0,
			"0.025": 0.0
		}
	}
}
