{
	 "smiles": "OC(=O)C1CC1C1=CC2=C(OCCO2)C=C1", 
	 "Tm": 434.15, 
	 "num_atms": 28, 
	 "gaussian": { 
		 "optdone": 1, 
		 "sigma_profile": "yes", 
		 "theory": "DFT", 
		 "functional": "B3LYP", 
		 "basiset": "6-31G**", 
		 "properties": { 
			 "R2extent": 5527.1223, 
			 "electric_dipole_moment_norm": 2.54663001043, 
			 "electric_quadrupole_moment_norm": 24.6132578008, 
			 "total_energy": -765.371454163, 
			 "HOMO_LUMO_gap": 0.2028, 
			 "cosmo_polarized_energy": -14.33, 
			 "cosmo_cavitation_energy": 31.45, 
			 "cosmo_dispersion_energy": -22.84, 
			 "cosmo_repulsion_energy": 1.81, 
			 "cosmo_total_nonelectrostatic_energy": 10.42, 
			 "SMD_solvation_energy": 6.38 
		},
		"coords": [
			{
				"x": 1.2351858306,
				"y": 3.6193192828,
				"z": 1.0742873199,
				"element": "O" 
			},
			{
				"x": 1.4077419218,
				"y": 3.7627709975,
				"z": 2.4123796975,
				"element": "C" 
			},
			{
				"x": 0.833133378,
				"y": 4.6215869153,
				"z": 3.0501645282,
				"element": "O" 
			},
			{
				"x": 2.3521480713,
				"y": 2.7790302734,
				"z": 3.000148555,
				"element": "C" 
			},
			{
				"x": 3.3481434214,
				"y": 2.0184925329,
				"z": 2.1469556446,
				"element": "C" 
			},
			{
				"x": 2.2067011128,
				"y": 1.264333257,
				"z": 2.7496840067,
				"element": "C" 
			},
			{
				"x": 1.0915135171,
				"y": 0.6631676181,
				"z": 1.9489125466,
				"element": "C" 
			},
			{
				"x": -0.1677925855,
				"y": 0.5030946387,
				"z": 2.540315021,
				"element": "C" 
			},
			{
				"x": -1.2152640143,
				"y": -0.0968857439,
				"z": 1.8449939079,
				"element": "C" 
			},
			{
				"x": -1.0091269473,
				"y": -0.5641708118,
				"z": 0.5346862988,
				"element": "C" 
			},
			{
				"x": -2.0081322014,
				"y": -1.176499178,
				"z": -0.1841226007,
				"element": "O" 
			},
			{
				"x": -3.1108762282,
				"y": -1.6054954797,
				"z": 0.6139409564,
				"element": "C" 
			},
			{
				"x": -3.5115152225,
				"y": -0.5089285476,
				"z": 1.5877708769,
				"element": "C" 
			},
			{
				"x": -2.4314386341,
				"y": -0.2191294098,
				"z": 2.4742232432,
				"element": "O" 
			},
			{
				"x": 0.2404587406,
				"y": -0.4021108526,
				"z": -0.0613292183,
				"element": "C" 
			},
			{
				"x": 1.2803429358,
				"y": 0.2075367836,
				"z": 0.6379710533,
				"element": "C" 
			},
			{
				"x": 0.5705778571,
				"y": 4.2813332196,
				"z": 0.8223846797,
				"element": "H" 
			},
			{
				"x": 2.6435393862,
				"y": 3.0624379451,
				"z": 4.0053326729,
				"element": "H" 
			},
			{
				"x": 3.3133239059,
				"y": 2.2247640602,
				"z": 1.0828376092,
				"element": "H" 
			},
			{
				"x": 4.3446992505,
				"y": 1.8729361038,
				"z": 2.551991151,
				"element": "H" 
			},
			{
				"x": 2.4528345504,
				"y": 0.6926293783,
				"z": 3.6435036957,
				"element": "H" 
			},
			{
				"x": -0.3602814546,
				"y": 0.8535879905,
				"z": 3.5501059549,
				"element": "H" 
			},
			{
				"x": -2.8408080002,
				"y": -2.5152273299,
				"z": 1.1679277429,
				"element": "H" 
			},
			{
				"x": -3.923695987,
				"y": -1.8387407606,
				"z": -0.0786770954,
				"element": "H" 
			},
			{
				"x": -4.3518221315,
				"y": -0.8205551725,
				"z": 2.213460326,
				"element": "H" 
			},
			{
				"x": -3.7950147679,
				"y": 0.3965854413,
				"z": 1.0336145672,
				"element": "H" 
			},
			{
				"x": 0.3791557954,
				"y": -0.7698477806,
				"z": -1.0730340385,
				"element": "H" 
			},
			{
				"x": 2.2497684993,
				"y": 0.3171846292,
				"z": 0.1632708974,
				"element": "H" 
			}
		],
		 "valence_orbital": [ 
			{
				"type": "occ",
				"energy": -0.30263,
				"method": "rhf"
			},
			{
				"type": "occ",
				"energy": -0.28791,
				"method": "rhf"
			},
			{
				"type": "occ",
				"energy": -0.26203,
				"method": "rhf"
			},
			{
				"type": "occ",
				"energy": -0.23139,
				"method": "rhf"
			},
			{
				"type": "occ",
				"energy": -0.20786,
				"method": "rhf"
			},
			{
				"type": "unocc",
				"energy": -0.00506,
				"method": "rhf"
			},
			{
				"type": "unocc",
				"energy": 0.01155,
				"method": "rhf"
			},
			{
				"type": "unocc",
				"energy": 0.01974,
				"method": "rhf"
			},
			{
				"type": "unocc",
				"energy": 0.08169,
				"method": "rhf"
			},
			{
				"type": "unocc",
				"energy": 0.08538,
				"method": "rhf"
			}
		],
		"cosmo_sigma_profile": { 
			"-0.025": 0.0,
			"-0.024": 0.0,
			"-0.023": 0.0,
			"-0.022": 0.0,
			"-0.021": 0.0,
			"-0.02": 0.0,
			"-0.019": 0.0,
			"-0.018": 0.42753127173,
			"-0.017": 1.17736359647,
			"-0.016": 0.654357417561,
			"-0.015": 0.965470125486,
			"-0.014": 0.43058906204,
			"-0.013": 0.905029188476,
			"-0.012": 0.318878824187,
			"-0.011": 0.655898287689,
			"-0.01": 0.601884619892,
			"-0.009": 0.990745741181,
			"-0.008": 0.566629359169,
			"-0.007": 6.58649266234,
			"-0.006": 21.2739567942,
			"-0.005": 24.3666498732,
			"-0.004": 19.6309396122,
			"-0.003": 16.6943237957,
			"-0.002": 14.538383209,
			"-0.001": 16.1456001297,
			"0.0": 14.2437750598,
			"0.001": 13.1968157642,
			"0.002": 12.5828836932,
			"0.003": 14.4571069488,
			"0.004": 14.604432762,
			"0.005": 11.3263019681,
			"0.006": 8.17452973781,
			"0.007": 5.71762318448,
			"0.008": 6.07086983433,
			"0.009": 5.2550023405,
			"0.01": 4.22788966735,
			"0.011": 4.27035377338,
			"0.012": 5.31933370496,
			"0.013": 2.5712488168,
			"0.014": 0.148772009011,
			"0.015": 0.0,
			"0.016": 0.0,
			"0.017": 0.0,
			"0.018": 0.0,
			"0.019": 0.0,
			"0.02": 0.0,
			"0.021": 0.0,
			"0.022": 0.0,
			"0.023": 0.0,
			"0.024": 0.0,
			"0.025": 0.0
		}
	}
}
