{
	 "smiles": "COC(=O)C1=NC(SC)=NC=C1Br", 
	 "Tm": 341.65, 
	 "num_atms": 20, 
	 "gaussian": { 
		 "optdone": 1, 
		 "sigma_profile": "yes", 
		 "theory": "DFT", 
		 "functional": "B3LYP", 
		 "basiset": "6-31G**", 
		 "properties": { 
			 "R2extent": 6057.2388, 
			 "electric_dipole_moment_norm": 2.69861441114, 
			 "electric_quadrupole_moment_norm": 8.18533997583, 
			 "total_energy": -3500.49450357, 
			 "HOMO_LUMO_gap": 0.156, 
			 "cosmo_polarized_energy": -10.66, 
			 "cosmo_cavitation_energy": 29.31, 
			 "cosmo_dispersion_energy": -21.83, 
			 "cosmo_repulsion_energy": 1.71, 
			 "cosmo_total_nonelectrostatic_energy": 9.2, 
			 "SMD_solvation_energy": 3.52 
		},
		"coords": [
			{
				"x": -2.5137957612,
				"y": -1.7676544319,
				"z": -0.1052466764,
				"element": "C" 
			},
			{
				"x": -1.4768383759,
				"y": -0.9986381608,
				"z": 0.5307013058,
				"element": "O" 
			},
			{
				"x": -0.4197728464,
				"y": -1.711331063,
				"z": 0.9470030438,
				"element": "C" 
			},
			{
				"x": -0.3100767998,
				"y": -2.9119998474,
				"z": 0.8334432942,
				"element": "O" 
			},
			{
				"x": 0.6340483283,
				"y": -0.8222779116,
				"z": 1.5648979568,
				"element": "C" 
			},
			{
				"x": 0.7949173986,
				"y": 0.3827676023,
				"z": 0.9967481762,
				"element": "N" 
			},
			{
				"x": 1.7498277347,
				"y": 1.1741183481,
				"z": 1.4844282776,
				"element": "C" 
			},
			{
				"x": 2.0197290731,
				"y": 2.7675808113,
				"z": 0.7682188676,
				"element": "S" 
			},
			{
				"x": 0.7559612381,
				"y": 2.7877820192,
				"z": -0.5468956631,
				"element": "C" 
			},
			{
				"x": 2.569078649,
				"y": 0.8878276824,
				"z": 2.5133658433,
				"element": "N" 
			},
			{
				"x": 2.3998748608,
				"y": -0.3000252133,
				"z": 3.0783446305,
				"element": "C" 
			},
			{
				"x": 1.4379683383,
				"y": -1.221127896,
				"z": 2.6372054289,
				"element": "C" 
			},
			{
				"x": 1.2877162878,
				"y": -2.8706585525,
				"z": 3.5572961042,
				"element": "Br" 
			},
			{
				"x": -3.294361903,
				"y": -1.0508847367,
				"z": -0.3576104591,
				"element": "H" 
			},
			{
				"x": -2.8957075375,
				"y": -2.5325318399,
				"z": 0.5752154282,
				"element": "H" 
			},
			{
				"x": -2.1306425179,
				"y": -2.2541197295,
				"z": -1.0055437843,
				"element": "H" 
			},
			{
				"x": -0.2426879943,
				"y": 2.6708265964,
				"z": -0.125483635,
				"element": "H" 
			},
			{
				"x": 0.8476451572,
				"y": 3.7638382428,
				"z": -1.0281940484,
				"element": "H" 
			},
			{
				"x": 0.9400217436,
				"y": 1.9958923873,
				"z": -1.273540558,
				"element": "H" 
			},
			{
				"x": 3.0451949264,
				"y": -0.5486843074,
				"z": 3.9175464673,
				"element": "H" 
			}
		],
		 "valence_orbital": [ 
			{
				"type": "occ",
				"energy": -0.30468,
				"method": "rhf"
			},
			{
				"type": "occ",
				"energy": -0.29301,
				"method": "rhf"
			},
			{
				"type": "occ",
				"energy": -0.28668,
				"method": "rhf"
			},
			{
				"type": "occ",
				"energy": -0.26235,
				"method": "rhf"
			},
			{
				"type": "occ",
				"energy": -0.23464,
				"method": "rhf"
			},
			{
				"type": "unocc",
				"energy": -0.07864,
				"method": "rhf"
			},
			{
				"type": "unocc",
				"energy": -0.04485,
				"method": "rhf"
			},
			{
				"type": "unocc",
				"energy": -0.00411,
				"method": "rhf"
			},
			{
				"type": "unocc",
				"energy": 0.01823,
				"method": "rhf"
			},
			{
				"type": "unocc",
				"energy": 0.03177,
				"method": "rhf"
			}
		],
		"cosmo_sigma_profile": { 
			"-0.025": 0.0,
			"-0.024": 0.0,
			"-0.023": 0.0,
			"-0.022": 0.0,
			"-0.021": 0.0,
			"-0.02": 0.0,
			"-0.019": 0.0,
			"-0.018": 0.0,
			"-0.017": 0.0,
			"-0.016": 0.0,
			"-0.015": 0.0,
			"-0.014": 0.0,
			"-0.013": 0.0,
			"-0.012": 0.0,
			"-0.011": 0.0,
			"-0.01": 0.272845566083,
			"-0.009": 1.5259752807,
			"-0.008": 2.1713357604,
			"-0.007": 6.81266567303,
			"-0.006": 14.1733050358,
			"-0.005": 18.556201506,
			"-0.004": 24.4849394698,
			"-0.003": 23.6534196666,
			"-0.002": 20.3205402579,
			"-0.001": 16.6639752363,
			"0.0": 12.0532998908,
			"0.001": 12.063582108,
			"0.002": 12.997107866,
			"0.003": 17.35338357,
			"0.004": 11.8505783511,
			"0.005": 9.15841436123,
			"0.006": 8.28509893624,
			"0.007": 5.97808900518,
			"0.008": 4.32551325213,
			"0.009": 4.9604116148,
			"0.01": 5.10539873406,
			"0.011": 5.73132571232,
			"0.012": 1.29188129818,
			"0.013": 0.36268026126,
			"0.014": 0.0,
			"0.015": 0.0,
			"0.016": 0.0,
			"0.017": 0.0,
			"0.018": 0.0,
			"0.019": 0.0,
			"0.02": 0.0,
			"0.021": 0.0,
			"0.022": 0.0,
			"0.023": 0.0,
			"0.024": 0.0,
			"0.025": 0.0
		}
	}
}
