{
	 "smiles": "O=C1CCN2C=CC=C12", 
	 "Tm": 328.15, 
	 "num_atms": 16, 
	 "gaussian": { 
		 "optdone": 1, 
		 "sigma_profile": "yes", 
		 "theory": "DFT", 
		 "functional": "B3LYP", 
		 "basiset": "6-31G**", 
		 "properties": { 
			 "R2extent": 1600.4785, 
			 "electric_dipole_moment_norm": 4.27403090653, 
			 "electric_quadrupole_moment_norm": 12.7920286139, 
			 "total_energy": -400.92467535, 
			 "HOMO_LUMO_gap": 0.19001, 
			 "cosmo_polarized_energy": -10.96, 
			 "cosmo_cavitation_energy": 19.6, 
			 "cosmo_dispersion_energy": -14.82, 
			 "cosmo_repulsion_energy": 1.22, 
			 "cosmo_total_nonelectrostatic_energy": 5.99, 
			 "SMD_solvation_energy": 4.03 
		},
		"coords": [
			{
				"x": -3.3139928101,
				"y": -0.1793707669,
				"z": -1.0408823176,
				"element": "O" 
			},
			{
				"x": -2.3844045511,
				"y": 0.178297672,
				"z": -0.3400308901,
				"element": "C" 
			},
			{
				"x": -2.0785323424,
				"y": -0.3767958793,
				"z": 1.0763789356,
				"element": "C" 
			},
			{
				"x": -0.8162682984,
				"y": 0.3651534671,
				"z": 1.5756419492,
				"element": "C" 
			},
			{
				"x": -0.4958760049,
				"y": 1.2593092067,
				"z": 0.4583541273,
				"element": "N" 
			},
			{
				"x": 0.4644331359,
				"y": 2.1827363369,
				"z": 0.2056614437,
				"element": "C" 
			},
			{
				"x": 0.2191766238,
				"y": 2.7052142121,
				"z": -1.0663752544,
				"element": "C" 
			},
			{
				"x": -0.9281846104,
				"y": 2.0687203757,
				"z": -1.5872662303,
				"element": "C" 
			},
			{
				"x": -1.35680039,
				"y": 1.1693200249,
				"z": -0.6155873958,
				"element": "C" 
			},
			{
				"x": -1.9292790733,
				"y": -1.4584158509,
				"z": 1.0126082505,
				"element": "H" 
			},
			{
				"x": -2.9450146628,
				"y": -0.2078040125,
				"z": 1.7220559848,
				"element": "H" 
			},
			{
				"x": 0.0217235049,
				"y": -0.3116519069,
				"z": 1.7700829453,
				"element": "H" 
			},
			{
				"x": -1.0005356047,
				"y": 0.9470264553,
				"z": 2.4842524233,
				"element": "H" 
			},
			{
				"x": 1.2431899877,
				"y": 2.4102405161,
				"z": 0.9195854598,
				"element": "H" 
			},
			{
				"x": 0.8152113758,
				"y": 3.465309377,
				"z": -1.5527122542,
				"element": "H" 
			},
			{
				"x": -1.3944462801,
				"y": 2.2347107726,
				"z": -2.5474671771,
				"element": "H" 
			}
		],
		 "valence_orbital": [ 
			{
				"type": "occ",
				"energy": -0.37696,
				"method": "rhf"
			},
			{
				"type": "occ",
				"energy": -0.33947,
				"method": "rhf"
			},
			{
				"type": "occ",
				"energy": -0.24855,
				"method": "rhf"
			},
			{
				"type": "occ",
				"energy": -0.23999,
				"method": "rhf"
			},
			{
				"type": "occ",
				"energy": -0.22478,
				"method": "rhf"
			},
			{
				"type": "unocc",
				"energy": -0.03477,
				"method": "rhf"
			},
			{
				"type": "unocc",
				"energy": 0.04167,
				"method": "rhf"
			},
			{
				"type": "unocc",
				"energy": 0.08427,
				"method": "rhf"
			},
			{
				"type": "unocc",
				"energy": 0.10558,
				"method": "rhf"
			},
			{
				"type": "unocc",
				"energy": 0.10964,
				"method": "rhf"
			}
		],
		"cosmo_sigma_profile": { 
			"-0.025": 0.0,
			"-0.024": 0.0,
			"-0.023": 0.0,
			"-0.022": 0.0,
			"-0.021": 0.0,
			"-0.02": 0.0,
			"-0.019": 0.0,
			"-0.018": 0.0,
			"-0.017": 0.0,
			"-0.016": 0.0,
			"-0.015": 0.0,
			"-0.014": 0.0,
			"-0.013": 0.0,
			"-0.012": 0.0,
			"-0.011": 0.0,
			"-0.01": 0.0,
			"-0.009": 0.334491268657,
			"-0.008": 2.18825114394,
			"-0.007": 4.75060570279,
			"-0.006": 18.4520245958,
			"-0.005": 18.3965675007,
			"-0.004": 14.7046700201,
			"-0.003": 12.6798720639,
			"-0.002": 9.19221943292,
			"-0.001": 6.80864280835,
			"0.0": 6.73523144455,
			"0.001": 5.72175210632,
			"0.002": 6.25738607981,
			"0.003": 7.69831474151,
			"0.004": 8.0027030569,
			"0.005": 7.07414999532,
			"0.006": 6.51623932638,
			"0.007": 2.71922375706,
			"0.008": 1.58116301768,
			"0.009": 1.4768876719,
			"0.01": 1.837935318,
			"0.011": 2.28387043389,
			"0.012": 4.12714987503,
			"0.013": 4.99483753613,
			"0.014": 2.00091674828,
			"0.015": 0.0,
			"0.016": 0.0,
			"0.017": 0.0,
			"0.018": 0.0,
			"0.019": 0.0,
			"0.02": 0.0,
			"0.021": 0.0,
			"0.022": 0.0,
			"0.023": 0.0,
			"0.024": 0.0,
			"0.025": 0.0
		}
	}
}
