{
	 "smiles": "CC(=O)N1CC2=C(C1)C=C(N)C=C2", 
	 "Tm": 443.15, 
	 "num_atms": 25, 
	 "gaussian": { 
		 "optdone": 1, 
		 "sigma_profile": "yes", 
		 "theory": "DFT", 
		 "functional": "B3LYP", 
		 "basiset": "6-31G**", 
		 "properties": { 
			 "R2extent": 3080.8009, 
			 "electric_dipole_moment_norm": 4.7020901948, 
			 "electric_quadrupole_moment_norm": 15.7060692189, 
			 "total_energy": -573.043842312, 
			 "HOMO_LUMO_gap": 0.19655, 
			 "cosmo_polarized_energy": -15.6, 
			 "cosmo_cavitation_energy": 28.06, 
			 "cosmo_dispersion_energy": -20.74, 
			 "cosmo_repulsion_energy": 1.64, 
			 "cosmo_total_nonelectrostatic_energy": 8.97, 
			 "SMD_solvation_energy": 4.35 
		},
		"coords": [
			{
				"x": 1.5245965447,
				"y": 3.0820772033,
				"z": -1.9956933361,
				"element": "C" 
			},
			{
				"x": 0.6996054603,
				"y": 1.8206375803,
				"z": -2.202512617,
				"element": "C" 
			},
			{
				"x": 0.1021095033,
				"y": 1.589222539,
				"z": -3.2505985453,
				"element": "O" 
			},
			{
				"x": 0.6535918019,
				"y": 0.9458552923,
				"z": -1.1542233116,
				"element": "N" 
			},
			{
				"x": 1.3170556831,
				"y": 1.098248399,
				"z": 0.1479615731,
				"element": "C" 
			},
			{
				"x": 0.9005595133,
				"y": -0.1562870883,
				"z": 0.8744142783,
				"element": "C" 
			},
			{
				"x": 0.0840202826,
				"y": -0.9487589838,
				"z": 0.0651165384,
				"element": "C" 
			},
			{
				"x": -0.121366556,
				"y": -0.2968982157,
				"z": -1.2765126765,
				"element": "C" 
			},
			{
				"x": -0.4275738256,
				"y": -2.1584281256,
				"z": 0.5204588254,
				"element": "C" 
			},
			{
				"x": -0.1158529987,
				"y": -2.5928814438,
				"z": 1.8212991896,
				"element": "C" 
			},
			{
				"x": -0.5676650123,
				"y": -3.8308369242,
				"z": 2.282968488,
				"element": "N" 
			},
			{
				"x": 0.7085928454,
				"y": -1.7882166959,
				"z": 2.6332124032,
				"element": "C" 
			},
			{
				"x": 1.2147749618,
				"y": -0.5774783227,
				"z": 2.1647610602,
				"element": "C" 
			},
			{
				"x": 1.1463603181,
				"y": 3.6745022679,
				"z": -1.1551435718,
				"element": "H" 
			},
			{
				"x": 2.572922726,
				"y": 2.8444803854,
				"z": -1.7833958665,
				"element": "H" 
			},
			{
				"x": 1.46875885,
				"y": 3.6762356586,
				"z": -2.9073318877,
				"element": "H" 
			},
			{
				"x": 2.4094046539,
				"y": 1.1729940225,
				"z": 0.0373461966,
				"element": "H" 
			},
			{
				"x": 0.9841405985,
				"y": 2.0106242562,
				"z": 0.6653322137,
				"element": "H" 
			},
			{
				"x": -1.1746038857,
				"y": -0.075990938,
				"z": -1.494178286,
				"element": "H" 
			},
			{
				"x": 0.2493319629,
				"y": -0.9037445173,
				"z": -2.1131029901,
				"element": "H" 
			},
			{
				"x": -1.0600695602,
				"y": -2.7716736307,
				"z": -0.1174428048,
				"element": "H" 
			},
			{
				"x": -1.3988927087,
				"y": -4.1824801053,
				"z": 1.8281135797,
				"element": "H" 
			},
			{
				"x": -0.6217909472,
				"y": -3.922077384,
				"z": 3.2879964678,
				"element": "H" 
			},
			{
				"x": 0.954036652,
				"y": -2.1249013902,
				"z": 3.6373261259,
				"element": "H" 
			},
			{
				"x": 1.8469531366,
				"y": 0.0254761612,
				"z": 2.8117289534,
				"element": "H" 
			}
		],
		 "valence_orbital": [ 
			{
				"type": "occ",
				"energy": -0.30484,
				"method": "rhf"
			},
			{
				"type": "occ",
				"energy": -0.24868,
				"method": "rhf"
			},
			{
				"type": "occ",
				"energy": -0.23404,
				"method": "rhf"
			},
			{
				"type": "occ",
				"energy": -0.2291,
				"method": "rhf"
			},
			{
				"type": "occ",
				"energy": -0.20352,
				"method": "rhf"
			},
			{
				"type": "unocc",
				"energy": -0.00697,
				"method": "rhf"
			},
			{
				"type": "unocc",
				"energy": 0.01361,
				"method": "rhf"
			},
			{
				"type": "unocc",
				"energy": 0.04206,
				"method": "rhf"
			},
			{
				"type": "unocc",
				"energy": 0.07667,
				"method": "rhf"
			},
			{
				"type": "unocc",
				"energy": 0.08909,
				"method": "rhf"
			}
		],
		"cosmo_sigma_profile": { 
			"-0.025": 0.0,
			"-0.024": 0.0,
			"-0.023": 0.0,
			"-0.022": 0.0,
			"-0.021": 0.0,
			"-0.02": 0.0,
			"-0.019": 0.0,
			"-0.018": 0.0,
			"-0.017": 0.0,
			"-0.016": 0.0,
			"-0.015": 0.0,
			"-0.014": 0.0,
			"-0.013": 0.1903218113,
			"-0.012": 2.32673339911,
			"-0.011": 3.09995663855,
			"-0.01": 2.20996187128,
			"-0.009": 3.2058549706,
			"-0.008": 3.18378049786,
			"-0.007": 3.18600718097,
			"-0.006": 9.70148497923,
			"-0.005": 20.4399560174,
			"-0.004": 22.6087151882,
			"-0.003": 21.2318601584,
			"-0.002": 15.4346607021,
			"-0.001": 16.6547146743,
			"0.0": 13.7478350942,
			"0.001": 11.1436217677,
			"0.002": 8.55655865589,
			"0.003": 7.39605774208,
			"0.004": 7.8335951768,
			"0.005": 8.32892038639,
			"0.006": 11.2751038326,
			"0.007": 5.71309307858,
			"0.008": 2.01606100398,
			"0.009": 1.84575863797,
			"0.01": 2.21559724195,
			"0.011": 2.85564995484,
			"0.012": 1.51326264907,
			"0.013": 3.20205893122,
			"0.014": 5.54544156457,
			"0.015": 4.08332951805,
			"0.016": 0.445564293812,
			"0.017": 0.0,
			"0.018": 0.0,
			"0.019": 0.0,
			"0.02": 0.0,
			"0.021": 0.0,
			"0.022": 0.0,
			"0.023": 0.0,
			"0.024": 0.0,
			"0.025": 0.0
		}
	}
}
