{
	 "smiles": "C#CC1=CC=CC=C1", 
	 "Tm": 228.25, 
	 "num_atms": 14, 
	 "gaussian": { 
		 "optdone": 1, 
		 "sigma_profile": "yes", 
		 "theory": "DFT", 
		 "functional": "B3LYP", 
		 "basiset": "6-31G**", 
		 "properties": { 
			 "R2extent": 1021.8417, 
			 "electric_dipole_moment_norm": 0.62827107207, 
			 "electric_quadrupole_moment_norm": 7.38227478017, 
			 "total_energy": -308.39660204, 
			 "HOMO_LUMO_gap": 0.20199, 
			 "cosmo_polarized_energy": -4.82, 
			 "cosmo_cavitation_energy": 19.02, 
			 "cosmo_dispersion_energy": -13.5, 
			 "cosmo_repulsion_energy": 1.11, 
			 "cosmo_total_nonelectrostatic_energy": 6.63, 
			 "SMD_solvation_energy": 4.69 
		},
		"coords": [
			{
				"x": -0.7393279407,
				"y": 3.5061486898,
				"z": -1.2362431707,
				"element": "C" 
			},
			{
				"x": -0.5149307028,
				"y": 2.3565852482,
				"z": -0.9314160627,
				"element": "C" 
			},
			{
				"x": -0.2501374841,
				"y": 0.9981281074,
				"z": -0.5719694187,
				"element": "C" 
			},
			{
				"x": 1.0325775413,
				"y": 0.6108289468,
				"z": -0.1394640091,
				"element": "C" 
			},
			{
				"x": 1.2859876601,
				"y": -0.713415042,
				"z": 0.209646167,
				"element": "C" 
			},
			{
				"x": 0.2696943735,
				"y": -1.6689192035,
				"z": 0.1337110242,
				"element": "C" 
			},
			{
				"x": -1.0060081839,
				"y": -1.2935033916,
				"z": -0.2943690334,
				"element": "C" 
			},
			{
				"x": -1.2683666962,
				"y": 0.0284775033,
				"z": -0.6454414189,
				"element": "C" 
			},
			{
				"x": -0.936428158,
				"y": 4.5178714995,
				"z": -1.5048483804,
				"element": "H" 
			},
			{
				"x": 1.8189683354,
				"y": 1.3564449769,
				"z": -0.0820559598,
				"element": "H" 
			},
			{
				"x": 2.2793935816,
				"y": -1.0006319803,
				"z": 0.541924963,
				"element": "H" 
			},
			{
				"x": 0.4708026911,
				"y": -2.7007212549,
				"z": 0.4067227411,
				"element": "H" 
			},
			{
				"x": -1.7993127608,
				"y": -2.0329296364,
				"z": -0.354981908,
				"element": "H" 
			},
			{
				"x": -2.2578122566,
				"y": 0.3246355368,
				"z": -0.9785155336,
				"element": "H" 
			}
		],
		 "valence_orbital": [ 
			{
				"type": "occ",
				"energy": -0.35117,
				"method": "rhf"
			},
			{
				"type": "occ",
				"energy": -0.30593,
				"method": "rhf"
			},
			{
				"type": "occ",
				"energy": -0.27164,
				"method": "rhf"
			},
			{
				"type": "occ",
				"energy": -0.2565,
				"method": "rhf"
			},
			{
				"type": "occ",
				"energy": -0.23125,
				"method": "rhf"
			},
			{
				"type": "unocc",
				"energy": -0.02926,
				"method": "rhf"
			},
			{
				"type": "unocc",
				"energy": -0.0054,
				"method": "rhf"
			},
			{
				"type": "unocc",
				"energy": 0.05535,
				"method": "rhf"
			},
			{
				"type": "unocc",
				"energy": 0.09125,
				"method": "rhf"
			},
			{
				"type": "unocc",
				"energy": 0.09229,
				"method": "rhf"
			}
		],
		"cosmo_sigma_profile": { 
			"-0.025": 0.0,
			"-0.024": 0.0,
			"-0.023": 0.0,
			"-0.022": 0.0,
			"-0.021": 0.0,
			"-0.02": 0.0,
			"-0.019": 0.0,
			"-0.018": 0.0,
			"-0.017": 0.0,
			"-0.016": 0.0,
			"-0.015": 0.0,
			"-0.014": 0.0,
			"-0.013": 0.0,
			"-0.012": 0.65321871856,
			"-0.011": 1.19651734878,
			"-0.01": 1.31162533999,
			"-0.009": 0.467754550265,
			"-0.008": 1.70153268876,
			"-0.007": 1.81570639246,
			"-0.006": 9.67746919744,
			"-0.005": 12.4706060004,
			"-0.004": 12.4688910531,
			"-0.003": 8.09536073315,
			"-0.002": 9.19257848172,
			"-0.001": 8.16395798824,
			"0.0": 8.60127976139,
			"0.001": 9.41079013898,
			"0.002": 12.3695787341,
			"0.003": 15.3805157731,
			"0.004": 17.0102741058,
			"0.005": 12.370303928,
			"0.006": 8.77008767846,
			"0.007": 3.17814819619,
			"0.008": 0.0,
			"0.009": 0.0,
			"0.01": 0.0,
			"0.011": 0.0,
			"0.012": 0.0,
			"0.013": 0.0,
			"0.014": 0.0,
			"0.015": 0.0,
			"0.016": 0.0,
			"0.017": 0.0,
			"0.018": 0.0,
			"0.019": 0.0,
			"0.02": 0.0,
			"0.021": 0.0,
			"0.022": 0.0,
			"0.023": 0.0,
			"0.024": 0.0,
			"0.025": 0.0
		}
	}
}
