{
	 "smiles": "COC1=C(C=C(C=C1)C(O)=O)S(=O)(=O)N1CCCC2=C1C=CC=C2", 
	 "Tm": 485.15, 
	 "num_atms": 41, 
	 "gaussian": { 
		 "optdone": 1, 
		 "sigma_profile": "yes", 
		 "theory": "DFT", 
		 "functional": "B3LYP", 
		 "basiset": "6-31G**", 
		 "properties": { 
			 "R2extent": 8746.3681, 
			 "electric_dipole_moment_norm": 6.14087638127, 
			 "electric_quadrupole_moment_norm": 28.6961933434, 
			 "total_energy": -1487.04180696, 
			 "HOMO_LUMO_gap": 0.16794, 
			 "cosmo_polarized_energy": -24.06, 
			 "cosmo_cavitation_energy": 44.17, 
			 "cosmo_dispersion_energy": -30.27, 
			 "cosmo_repulsion_energy": 2.23, 
			 "cosmo_total_nonelectrostatic_energy": 16.13, 
			 "SMD_solvation_energy": 7.46 
		},
		"coords": [
			{
				"x": 1.4464708394,
				"y": 1.0178717531,
				"z": -2.7059861261,
				"element": "C" 
			},
			{
				"x": 1.2242670882,
				"y": -0.125490236,
				"z": -1.8842936669,
				"element": "O" 
			},
			{
				"x": 0.0871376629,
				"y": -0.8305382451,
				"z": -2.0115054668,
				"element": "C" 
			},
			{
				"x": -0.0816298372,
				"y": -1.9258504232,
				"z": -1.1349935416,
				"element": "C" 
			},
			{
				"x": -1.2322905781,
				"y": -2.7058691032,
				"z": -1.1970473262,
				"element": "C" 
			},
			{
				"x": -2.2436165305,
				"y": -2.4195920399,
				"z": -2.1225915767,
				"element": "C" 
			},
			{
				"x": -2.0811178036,
				"y": -1.3195937487,
				"z": -2.9744276318,
				"element": "C" 
			},
			{
				"x": -0.9325590439,
				"y": -0.5382741267,
				"z": -2.9318796467,
				"element": "C" 
			},
			{
				"x": -3.5133007867,
				"y": -3.2045821016,
				"z": -2.2298725781,
				"element": "C" 
			},
			{
				"x": -3.5320969663,
				"y": -4.4362768357,
				"z": -1.6577058838,
				"element": "O" 
			},
			{
				"x": -4.4980003419,
				"y": -2.7858867206,
				"z": -2.7939751015,
				"element": "O" 
			},
			{
				"x": 1.1920921784,
				"y": -2.4097277979,
				"z": 0.0583531473,
				"element": "S" 
			},
			{
				"x": 2.4633960972,
				"y": -2.5176113821,
				"z": -0.6504731315,
				"element": "O" 
			},
			{
				"x": 0.6294093602,
				"y": -3.564955944,
				"z": 0.7664168812,
				"element": "O" 
			},
			{
				"x": 1.3347423598,
				"y": -1.1932835067,
				"z": 1.2382775386,
				"element": "N" 
			},
			{
				"x": 0.2198923548,
				"y": -1.0878371675,
				"z": 2.2036545467,
				"element": "C" 
			},
			{
				"x": -0.6862510903,
				"y": 0.0970317716,
				"z": 1.8690487123,
				"element": "C" 
			},
			{
				"x": 0.1274493436,
				"y": 1.3937142851,
				"z": 1.9252032799,
				"element": "C" 
			},
			{
				"x": 1.5235605513,
				"y": 1.2558970786,
				"z": 1.342742189,
				"element": "C" 
			},
			{
				"x": 2.0942252875,
				"y": 0.0055710336,
				"z": 1.0258267392,
				"element": "C" 
			},
			{
				"x": 3.4250735281,
				"y": -0.0656040514,
				"z": 0.5808586879,
				"element": "C" 
			},
			{
				"x": 4.1677614937,
				"y": 1.0957347541,
				"z": 0.3970119138,
				"element": "C" 
			},
			{
				"x": 3.6075297751,
				"y": 2.3433286667,
				"z": 0.6855049024,
				"element": "C" 
			},
			{
				"x": 2.3026969463,
				"y": 2.4073924443,
				"z": 1.1645019596,
				"element": "C" 
			},
			{
				"x": 2.4045410338,
				"y": 1.4216281937,
				"z": -2.3808977431,
				"element": "H" 
			},
			{
				"x": 0.6629022377,
				"y": 1.7701072179,
				"z": -2.5601114324,
				"element": "H" 
			},
			{
				"x": 1.4992921696,
				"y": 0.7390579392,
				"z": -3.764440168,
				"element": "H" 
			},
			{
				"x": -1.3114570178,
				"y": -3.5207435867,
				"z": -0.4841330979,
				"element": "H" 
			},
			{
				"x": -2.8777378632,
				"y": -1.0907029523,
				"z": -3.6742027783,
				"element": "H" 
			},
			{
				"x": -0.8280364066,
				"y": 0.2979281037,
				"z": -3.6123235064,
				"element": "H" 
			},
			{
				"x": -2.6430051466,
				"y": -4.7053137881,
				"z": -1.3883268326,
				"element": "H" 
			},
			{
				"x": -0.3149576034,
				"y": -2.0365847158,
				"z": 2.211901472,
				"element": "H" 
			},
			{
				"x": 0.6689643521,
				"y": -0.9600946263,
				"z": 3.1962435981,
				"element": "H" 
			},
			{
				"x": -1.5243342462,
				"y": 0.1405804134,
				"z": 2.5730469874,
				"element": "H" 
			},
			{
				"x": -1.1138313575,
				"y": -0.0499192324,
				"z": 0.8710018635,
				"element": "H" 
			},
			{
				"x": -0.40679746,
				"y": 2.2057893755,
				"z": 1.4183609005,
				"element": "H" 
			},
			{
				"x": 0.2248338067,
				"y": 1.7095829872,
				"z": 2.9735012798,
				"element": "H" 
			},
			{
				"x": 3.8582585883,
				"y": -1.034040967,
				"z": 0.3726289909,
				"element": "H" 
			},
			{
				"x": 5.1935188118,
				"y": 1.022129604,
				"z": 0.0476114662,
				"element": "H" 
			},
			{
				"x": 4.1871256903,
				"y": 3.2525494586,
				"z": 0.5552910956,
				"element": "H" 
			},
			{
				"x": 1.8650785227,
				"y": 3.3721782187,
				"z": 1.4119990846,
				"element": "H" 
			}
		],
		 "valence_orbital": [ 
			{
				"type": "occ",
				"energy": -0.28369,
				"method": "rhf"
			},
			{
				"type": "occ",
				"energy": -0.27723,
				"method": "rhf"
			},
			{
				"type": "occ",
				"energy": -0.25627,
				"method": "rhf"
			},
			{
				"type": "occ",
				"energy": -0.24876,
				"method": "rhf"
			},
			{
				"type": "occ",
				"energy": -0.22535,
				"method": "rhf"
			},
			{
				"type": "unocc",
				"energy": -0.05741,
				"method": "rhf"
			},
			{
				"type": "unocc",
				"energy": -0.0474,
				"method": "rhf"
			},
			{
				"type": "unocc",
				"energy": -0.01096,
				"method": "rhf"
			},
			{
				"type": "unocc",
				"energy": -0.00813,
				"method": "rhf"
			},
			{
				"type": "unocc",
				"energy": 0.0371,
				"method": "rhf"
			}
		],
		"cosmo_sigma_profile": { 
			"-0.025": 0.0,
			"-0.024": 0.0,
			"-0.023": 0.0,
			"-0.022": 0.0,
			"-0.021": 0.0,
			"-0.02": 0.0185956193775,
			"-0.019": 0.665785750663,
			"-0.018": 1.02821794509,
			"-0.017": 1.02487481037,
			"-0.016": 0.99609964551,
			"-0.015": 0.983246641475,
			"-0.014": 0.346812932115,
			"-0.013": 0.984857456011,
			"-0.012": 1.34406039239,
			"-0.011": 1.01736130188,
			"-0.01": 0.992164662414,
			"-0.009": 1.34134983834,
			"-0.008": 3.76736973655,
			"-0.007": 8.0351762071,
			"-0.006": 15.2833852271,
			"-0.005": 23.5286360806,
			"-0.004": 36.1692056521,
			"-0.003": 35.8841681869,
			"-0.002": 28.897246863,
			"-0.001": 27.1313659173,
			"0.0": 22.2176261243,
			"0.001": 21.3560612569,
			"0.002": 18.8991406993,
			"0.003": 15.2365617787,
			"0.004": 13.5314635182,
			"0.005": 9.89788700672,
			"0.006": 7.93789197736,
			"0.007": 6.26516747138,
			"0.008": 6.36077873045,
			"0.009": 8.91177569093,
			"0.01": 11.1518419232,
			"0.011": 12.1783729504,
			"0.012": 6.75760794006,
			"0.013": 1.52106614245,
			"0.014": 0.0208699202825,
			"0.015": 0.0,
			"0.016": 0.0,
			"0.017": 0.0,
			"0.018": 0.0,
			"0.019": 0.0,
			"0.02": 0.0,
			"0.021": 0.0,
			"0.022": 0.0,
			"0.023": 0.0,
			"0.024": 0.0,
			"0.0": 0.0
		}
	}
}
