{
	 "smiles": "COC1=C(C)C=C(N)C=C1", 
	 "Tm": 305.15, 
	 "num_atms": 21, 
	 "gaussian": { 
		 "optdone": 1, 
		 "sigma_profile": "yes", 
		 "theory": "DFT", 
		 "functional": "B3LYP", 
		 "basiset": "6-31G**", 
		 "properties": { 
			 "R2extent": 1657.3883, 
			 "electric_dipole_moment_norm": 1.54207006326, 
			 "electric_quadrupole_moment_norm": 11.0156168447, 
			 "total_energy": -441.451232662, 
			 "HOMO_LUMO_gap": 0.18985, 
			 "cosmo_polarized_energy": -9.34, 
			 "cosmo_cavitation_energy": 23.96, 
			 "cosmo_dispersion_energy": -17.79, 
			 "cosmo_repulsion_energy": 1.45, 
			 "cosmo_total_nonelectrostatic_energy": 7.62, 
			 "SMD_solvation_energy": 4.84 
		},
		"coords": [
			{
				"x": -0.2164503038,
				"y": -2.0728142176,
				"z": 2.5515827827,
				"element": "C" 
			},
			{
				"x": -0.5121753357,
				"y": -1.9635285176,
				"z": 1.1729149024,
				"element": "O" 
			},
			{
				"x": -0.2970629113,
				"y": -0.7502280983,
				"z": 0.5616353142,
				"element": "C" 
			},
			{
				"x": -0.615224184,
				"y": -0.6998747098,
				"z": -0.81121836,
				"element": "C" 
			},
			{
				"x": -1.1518642361,
				"y": -1.9275078791,
				"z": -1.5023656258,
				"element": "C" 
			},
			{
				"x": -0.4214687389,
				"y": 0.4967644585,
				"z": -1.4967183544,
				"element": "C" 
			},
			{
				"x": 0.0803686094,
				"y": 1.6492052061,
				"z": -0.8658766062,
				"element": "C" 
			},
			{
				"x": 0.2036269744,
				"y": 2.8563751188,
				"z": -1.577003157,
				"element": "N" 
			},
			{
				"x": 0.3891478593,
				"y": 1.5730445632,
				"z": 0.4950988042,
				"element": "C" 
			},
			{
				"x": 0.2012636917,
				"y": 0.3828435753,
				"z": 1.2046260007,
				"element": "C" 
			},
			{
				"x": -0.4586514659,
				"y": -3.0987735089,
				"z": 2.8356167663,
				"element": "H" 
			},
			{
				"x": 0.846351654,
				"y": -1.8851965609,
				"z": 2.7577481134,
				"element": "H" 
			},
			{
				"x": -0.8205327962,
				"y": -1.3813394299,
				"z": 3.1549052805,
				"element": "H" 
			},
			{
				"x": -0.4467205499,
				"y": -2.763090108,
				"z": -1.4317349965,
				"element": "H" 
			},
			{
				"x": -2.0829530663,
				"y": -2.2688421705,
				"z": -1.0366797781,
				"element": "H" 
			},
			{
				"x": -1.3475467725,
				"y": -1.728755212,
				"z": -2.5594918638,
				"element": "H" 
			},
			{
				"x": -0.6726016259,
				"y": 0.5394406763,
				"z": -2.5548038088,
				"element": "H" 
			},
			{
				"x": 0.8903990598,
				"y": 3.4907291498,
				"z": -1.189800902,
				"element": "H" 
			},
			{
				"x": 0.3565602932,
				"y": 2.7327768456,
				"z": -2.5696696203,
				"element": "H" 
			},
			{
				"x": 0.7748707677,
				"y": 2.4478470207,
				"z": 1.0129034255,
				"element": "H" 
			},
			{
				"x": 0.4522630771,
				"y": 0.3575237984,
				"z": 2.258731683,
				"element": "H" 
			}
		],
		 "valence_orbital": [ 
			{
				"type": "occ",
				"energy": -0.32914,
				"method": "rhf"
			},
			{
				"type": "occ",
				"energy": -0.31305,
				"method": "rhf"
			},
			{
				"type": "occ",
				"energy": -0.26816,
				"method": "rhf"
			},
			{
				"type": "occ",
				"energy": -0.23273,
				"method": "rhf"
			},
			{
				"type": "occ",
				"energy": -0.1785,
				"method": "rhf"
			},
			{
				"type": "unocc",
				"energy": 0.01135,
				"method": "rhf"
			},
			{
				"type": "unocc",
				"energy": 0.03588,
				"method": "rhf"
			},
			{
				"type": "unocc",
				"energy": 0.08781,
				"method": "rhf"
			},
			{
				"type": "unocc",
				"energy": 0.10407,
				"method": "rhf"
			},
			{
				"type": "unocc",
				"energy": 0.11853,
				"method": "rhf"
			}
		],
		"cosmo_sigma_profile": { 
			"-0.025": 0.0,
			"-0.024": 0.0,
			"-0.023": 0.0,
			"-0.022": 0.0,
			"-0.021": 0.0,
			"-0.02": 0.0,
			"-0.019": 0.0,
			"-0.018": 0.0,
			"-0.017": 0.0,
			"-0.016": 0.0,
			"-0.015": 0.0,
			"-0.014": 0.0,
			"-0.013": 0.0,
			"-0.012": 1.00950323023,
			"-0.011": 2.54312336887,
			"-0.01": 2.60365947162,
			"-0.009": 2.84506862585,
			"-0.008": 3.05134964333,
			"-0.007": 2.63321362486,
			"-0.006": 5.43798405038,
			"-0.005": 12.5558511217,
			"-0.004": 18.0620650549,
			"-0.003": 18.6434416182,
			"-0.002": 15.538581166,
			"-0.001": 10.8133523604,
			"0.0": 14.0284355347,
			"0.001": 11.3781602335,
			"0.002": 7.59862736081,
			"0.003": 7.85614506381,
			"0.004": 9.62820133577,
			"0.005": 9.09915325348,
			"0.006": 9.23807197698,
			"0.007": 11.4060979287,
			"0.008": 4.03062601758,
			"0.009": 2.34903269751,
			"0.01": 2.00760279283,
			"0.011": 0.943106060877,
			"0.012": 0.693500410586,
			"0.013": 0.49512196903,
			"0.014": 0.743420187642,
			"0.015": 0.708501058576,
			"0.016": 0.495507882675,
			"0.017": 0.0354887408062,
			"0.018": 0.0,
			"0.019": 0.0,
			"0.02": 0.0,
			"0.021": 0.0,
			"0.022": 0.0,
			"0.023": 0.0,
			"0.024": 0.0,
			"0.025": 0.0
		}
	}
}
