{
	 "smiles": "COC1=CC(=O)NC1", 
	 "Tm": 405.15, 
	 "num_atms": 15, 
	 "gaussian": { 
		 "optdone": 1, 
		 "sigma_profile": "yes", 
		 "theory": "DFT", 
		 "functional": "B3LYP", 
		 "basiset": "6-31G**", 
		 "properties": { 
			 "R2extent": 1412.6607, 
			 "electric_dipole_moment_norm": 6.17152884867, 
			 "electric_quadrupole_moment_norm": 16.1260868142, 
			 "total_energy": -399.927629441, 
			 "HOMO_LUMO_gap": 0.22682, 
			 "cosmo_polarized_energy": -16.41, 
			 "cosmo_cavitation_energy": 18.84, 
			 "cosmo_dispersion_energy": -14.31, 
			 "cosmo_repulsion_energy": 1.21, 
			 "cosmo_total_nonelectrostatic_energy": 5.75, 
			 "SMD_solvation_energy": 4.13 
		},
		"coords": [
			{
				"x": 1.3693529816,
				"y": -0.9970591435,
				"z": 0.9090451424,
				"element": "C" 
			},
			{
				"x": 1.6241959665,
				"y": 0.0614772474,
				"z": -0.0115475011,
				"element": "O" 
			},
			{
				"x": 0.602016414,
				"y": 0.8578806917,
				"z": -0.377675326,
				"element": "C" 
			},
			{
				"x": 0.6868069885,
				"y": 1.8921802455,
				"z": -1.2330236707,
				"element": "C" 
			},
			{
				"x": -0.6506574239,
				"y": 2.5129518289,
				"z": -1.3728321272,
				"element": "C" 
			},
			{
				"x": -0.991946791,
				"y": 3.4683943397,
				"z": -2.0506649302,
				"element": "O" 
			},
			{
				"x": -1.4925962802,
				"y": 1.77169759,
				"z": -0.550405813,
				"element": "N" 
			},
			{
				"x": -0.8201132486,
				"y": 0.696716865,
				"z": 0.1341527894,
				"element": "C" 
			},
			{
				"x": 1.0120074852,
				"y": -0.6172885784,
				"z": 1.8734795914,
				"element": "H" 
			},
			{
				"x": 2.3249637758,
				"y": -1.500601102,
				"z": 1.0569659109,
				"element": "H" 
			},
			{
				"x": 0.6444673371,
				"y": -1.7156628944,
				"z": 0.5087919951,
				"element": "H" 
			},
			{
				"x": 1.5647855882,
				"y": 2.2451209009,
				"z": -1.7531991546,
				"element": "H" 
			},
			{
				"x": -2.4723809814,
				"y": 1.9860464441,
				"z": -0.4597836818,
				"element": "H" 
			},
			{
				"x": -0.8661003139,
				"y": 0.7960204406,
				"z": 1.2292952,
				"element": "H" 
			},
			{
				"x": -1.229301498,
				"y": -0.2921748757,
				"z": -0.1226984247,
				"element": "H" 
			}
		],
		 "valence_orbital": [ 
			{
				"type": "occ",
				"energy": -0.36257,
				"method": "rhf"
			},
			{
				"type": "occ",
				"energy": -0.34556,
				"method": "rhf"
			},
			{
				"type": "occ",
				"energy": -0.24474,
				"method": "rhf"
			},
			{
				"type": "occ",
				"energy": -0.23662,
				"method": "rhf"
			},
			{
				"type": "occ",
				"energy": -0.23491,
				"method": "rhf"
			},
			{
				"type": "unocc",
				"energy": -0.00809,
				"method": "rhf"
			},
			{
				"type": "unocc",
				"energy": 0.06693,
				"method": "rhf"
			},
			{
				"type": "unocc",
				"energy": 0.08243,
				"method": "rhf"
			},
			{
				"type": "unocc",
				"energy": 0.10508,
				"method": "rhf"
			},
			{
				"type": "unocc",
				"energy": 0.11059,
				"method": "rhf"
			}
		],
		"cosmo_sigma_profile": { 
			"-0.025": 0.0,
			"-0.024": 0.0,
			"-0.023": 0.0,
			"-0.022": 0.0,
			"-0.021": 0.0,
			"-0.02": 0.0,
			"-0.019": 0.0,
			"-0.018": 0.0,
			"-0.017": 0.0,
			"-0.016": 0.0,
			"-0.015": 0.0258246304976,
			"-0.014": 1.09988521705,
			"-0.013": 0.921245622194,
			"-0.012": 1.0609010315,
			"-0.011": 1.02369782974,
			"-0.01": 0.819634859648,
			"-0.009": 1.05995989141,
			"-0.008": 4.53565331169,
			"-0.007": 11.3858879291,
			"-0.006": 14.9415346952,
			"-0.005": 13.461933559,
			"-0.004": 13.264142225,
			"-0.003": 8.56224856776,
			"-0.002": 4.87060500517,
			"-0.001": 4.87719191928,
			"0.0": 3.92919094961,
			"0.001": 4.79695585746,
			"0.002": 7.83836288249,
			"0.003": 8.4759778599,
			"0.004": 8.89756787268,
			"0.005": 3.50886904943,
			"0.006": 3.02349259066,
			"0.007": 2.44007726671,
			"0.008": 2.46355695612,
			"0.009": 3.17247159494,
			"0.01": 1.98245374505,
			"0.011": 0.804365413541,
			"0.012": 1.62213525155,
			"0.013": 2.36740680831,
			"0.014": 5.56865148975,
			"0.015": 5.22858008621,
			"0.016": 1.0049651283,
			"0.017": 0.0,
			"0.018": 0.0,
			"0.019": 0.0,
			"0.02": 0.0,
			"0.021": 0.0,
			"0.022": 0.0,
			"0.023": 0.0,
			"0.024": 0.0,
			"0.025": 0.0
		}
	}
}
