{
	 "smiles": "COC1=CC=CC=C1C=C1/C(=O)NN=C1C1=C(O)C2=CC=CC=C2N(C)C1=O", 
	 "Tm": 539.15, 
	 "num_atms": 45, 
	 "gaussian": { 
		 "optdone": 1, 
		 "sigma_profile": "yes", 
		 "theory": "DFT", 
		 "functional": "B3LYP", 
		 "basiset": "6-31G**", 
		 "properties": { 
			 "R2extent": 12312.3341, 
			 "electric_dipole_moment_norm": 5.01593970259, 
			 "electric_quadrupole_moment_norm": 17.7790338815, 
			 "total_energy": -1275.62635044, 
			 "HOMO_LUMO_gap": 0.12012, 
			 "cosmo_polarized_energy": -19.78, 
			 "cosmo_cavitation_energy": 48.07, 
			 "cosmo_dispersion_energy": -34.38, 
			 "cosmo_repulsion_energy": 2.51, 
			 "cosmo_total_nonelectrostatic_energy": 16.2, 
			 "SMD_solvation_energy": 9.33 
		},
		"coords": [
			{
				"x": 3.7407865826,
				"y": 1.8359257954,
				"z": 0.0279652275,
				"element": "C" 
			},
			{
				"x": 2.8745792872,
				"y": 0.9872000033,
				"z": -0.7110153749,
				"element": "O" 
			},
			{
				"x": 3.1858600383,
				"y": 0.6813474877,
				"z": -1.9982805281,
				"element": "C" 
			},
			{
				"x": 4.3759585443,
				"y": 1.0850289772,
				"z": -2.6093064683,
				"element": "C" 
			},
			{
				"x": 4.6388585238,
				"y": 0.716114248,
				"z": -3.9293080488,
				"element": "C" 
			},
			{
				"x": 3.7250918152,
				"y": -0.055251978,
				"z": -4.6476586826,
				"element": "C" 
			},
			{
				"x": 2.5384001152,
				"y": -0.4604123084,
				"z": -4.0469746304,
				"element": "C" 
			},
			{
				"x": 2.2292141651,
				"y": -0.1058591121,
				"z": -2.7158672603,
				"element": "C" 
			},
			{
				"x": 0.9956152644,
				"y": -0.4317057408,
				"z": -2.0308616659,
				"element": "C" 
			},
			{
				"x": -0.0384503634,
				"y": -1.2849876826,
				"z": -2.311207071,
				"element": "C" 
			},
			{
				"x": -0.1867768824,
				"y": -2.281809691,
				"z": -3.4142382784,
				"element": "C" 
			},
			{
				"x": 0.4290577458,
				"y": -2.4707749203,
				"z": -4.4608866282,
				"element": "O" 
			},
			{
				"x": -1.2557928156,
				"y": -3.0523968262,
				"z": -3.0045940749,
				"element": "N" 
			},
			{
				"x": -1.866689478,
				"y": -2.5921276453,
				"z": -1.865636859,
				"element": "N" 
			},
			{
				"x": -1.1877161657,
				"y": -1.5512799849,
				"z": -1.4260955416,
				"element": "C" 
			},
			{
				"x": -1.6088159326,
				"y": -0.9735111062,
				"z": -0.1360008499,
				"element": "C" 
			},
			{
				"x": -2.3090808152,
				"y": -1.7627137724,
				"z": 0.770123271,
				"element": "C" 
			},
			{
				"x": -2.6961025894,
				"y": -3.0124314637,
				"z": 0.514643277,
				"element": "O" 
			},
			{
				"x": -2.6496181758,
				"y": -1.2651941343,
				"z": 2.0837747319,
				"element": "C" 
			},
			{
				"x": -3.2756537043,
				"y": -2.0889729932,
				"z": 3.037247101,
				"element": "C" 
			},
			{
				"x": -3.5862257927,
				"y": -1.6050912061,
				"z": 4.2978226556,
				"element": "C" 
			},
			{
				"x": -3.2784157335,
				"y": -0.2752273764,
				"z": 4.6162458959,
				"element": "C" 
			},
			{
				"x": -2.6696892283,
				"y": 0.560250883,
				"z": 3.6887244771,
				"element": "C" 
			},
			{
				"x": -2.343974605,
				"y": 0.0787957662,
				"z": 2.4043164344,
				"element": "C" 
			},
			{
				"x": -1.7514382267,
				"y": 0.8912754494,
				"z": 1.4483389093,
				"element": "N" 
			},
			{
				"x": -1.5128679104,
				"y": 2.3031954648,
				"z": 1.7438402492,
				"element": "C" 
			},
			{
				"x": -1.3875567964,
				"y": 0.4402191412,
				"z": 0.1610007136,
				"element": "C" 
			},
			{
				"x": -0.9164192054,
				"y": 1.2418682546,
				"z": -0.6503076924,
				"element": "O" 
			},
			{
				"x": 3.8601014606,
				"y": 2.8112403802,
				"z": -0.4591175078,
				"element": "H" 
			},
			{
				"x": 4.7274424239,
				"y": 1.3782198687,
				"z": 0.1705146494,
				"element": "H" 
			},
			{
				"x": 3.2645806248,
				"y": 1.9729596777,
				"z": 0.9995299231,
				"element": "H" 
			},
			{
				"x": 5.1003799878,
				"y": 1.6791448845,
				"z": -2.066394018,
				"element": "H" 
			},
			{
				"x": 5.5683258962,
				"y": 1.0365835481,
				"z": -4.3920601794,
				"element": "H" 
			},
			{
				"x": 3.9339261194,
				"y": -0.3383491308,
				"z": -5.6743119829,
				"element": "H" 
			},
			{
				"x": 1.82343333,
				"y": -1.0629850571,
				"z": -4.5930540385,
				"element": "H" 
			},
			{
				"x": 0.8728258506,
				"y": 0.1210001148,
				"z": -1.1096187661,
				"element": "H" 
			},
			{
				"x": -1.7202139871,
				"y": -3.7401613855,
				"z": -3.576897622,
				"element": "H" 
			},
			{
				"x": -2.5148467958,
				"y": -3.1832447808,
				"z": -0.4534482557,
				"element": "H" 
			},
			{
				"x": -3.5047705802,
				"y": -3.1105687593,
				"z": 2.7576490774,
				"element": "H" 
			},
			{
				"x": -4.0654254513,
				"y": -2.2478757825,
				"z": 5.0291326154,
				"element": "H" 
			},
			{
				"x": -3.5190582816,
				"y": 0.1166404114,
				"z": 5.6003745622,
				"element": "H" 
			},
			{
				"x": -2.4478551673,
				"y": 1.5838009887,
				"z": 3.9612488851,
				"element": "H" 
			},
			{
				"x": -1.0847929966,
				"y": 2.7495430696,
				"z": 0.8496037154,
				"element": "H" 
			},
			{
				"x": -2.450765728,
				"y": 2.8086668567,
				"z": 1.9943178343,
				"element": "H" 
			},
			{
				"x": -0.8148243665,
				"y": 2.4104115671,
				"z": 2.5806278194,
				"element": "H" 
			}
		],
		 "valence_orbital": [ 
			{
				"type": "occ",
				"energy": -0.24642,
				"method": "rhf"
			},
			{
				"type": "occ",
				"energy": -0.23869,
				"method": "rhf"
			},
			{
				"type": "occ",
				"energy": -0.22572,
				"method": "rhf"
			},
			{
				"type": "occ",
				"energy": -0.21722,
				"method": "rhf"
			},
			{
				"type": "occ",
				"energy": -0.20398,
				"method": "rhf"
			},
			{
				"type": "unocc",
				"energy": -0.08386,
				"method": "rhf"
			},
			{
				"type": "unocc",
				"energy": -0.04927,
				"method": "rhf"
			},
			{
				"type": "unocc",
				"energy": -0.00798,
				"method": "rhf"
			},
			{
				"type": "unocc",
				"energy": 0.00709,
				"method": "rhf"
			},
			{
				"type": "unocc",
				"energy": 0.01614,
				"method": "rhf"
			}
		],
		"cosmo_sigma_profile": { 
			"-0.025": 0.0,
			"-0.024": 0.0,
			"-0.023": 0.0,
			"-0.022": 0.0,
			"-0.021": 0.0,
			"-0.02": 0.0,
			"-0.019": 0.0,
			"-0.018": 0.0,
			"-0.017": 0.0124710455878,
			"-0.016": 1.11973771251,
			"-0.015": 1.31094642023,
			"-0.014": 1.43444147609,
			"-0.013": 0.590307049024,
			"-0.012": 0.477898989478,
			"-0.011": 1.21869585407,
			"-0.01": 0.871960885217,
			"-0.009": 0.576172900892,
			"-0.008": 0.576255099509,
			"-0.007": 8.66977810393,
			"-0.006": 25.8828510241,
			"-0.005": 29.2910061233,
			"-0.004": 28.6091970587,
			"-0.003": 24.4817558055,
			"-0.002": 27.4089810548,
			"-0.001": 28.8619626356,
			"0.0": 31.2733582438,
			"0.001": 34.2026378673,
			"0.002": 30.0465205454,
			"0.003": 29.9528162454,
			"0.004": 25.7102931836,
			"0.005": 12.1892602479,
			"0.006": 6.61170419528,
			"0.007": 7.35713385893,
			"0.008": 5.66781507876,
			"0.009": 3.87274955435,
			"0.01": 3.37897470873,
			"0.011": 3.71035580879,
			"0.012": 4.59244729144,
			"0.013": 5.1446552334,
			"0.014": 1.53075049535,
			"0.015": 0.0,
			"0.016": 0.0,
			"0.017": 0.0,
			"0.018": 0.0,
			"0.019": 0.0,
			"0.02": 0.0,
			"0.021": 0.0,
			"0.022": 0.0,
			"0.023": 0.0,
			"0.024": 0.0,
			"0.025": 0.0
		}
	}
}
