{
	 "smiles": "O=C1CCCC1C1=CC=CC=C1", 
	 "Tm": 309.15, 
	 "num_atms": 24, 
	 "gaussian": { 
		 "optdone": 1, 
		 "sigma_profile": "yes", 
		 "theory": "DFT", 
		 "functional": "B3LYP", 
		 "basiset": "6-31G**", 
		 "properties": { 
			 "R2extent": 2582.7178, 
			 "electric_dipole_moment_norm": 2.78206321639, 
			 "electric_quadrupole_moment_norm": 15.4025209839, 
			 "total_energy": -501.630013128, 
			 "HOMO_LUMO_gap": 0.21218, 
			 "cosmo_polarized_energy": -9.74, 
			 "cosmo_cavitation_energy": 26.65, 
			 "cosmo_dispersion_energy": -19.29, 
			 "cosmo_repulsion_energy": 1.56, 
			 "cosmo_total_nonelectrostatic_energy": 8.92, 
			 "SMD_solvation_energy": 4.64 
		},
		"coords": [
			{
				"x": -2.8666214674,
				"y": 1.4202941849,
				"z": -0.7466291532,
				"element": "O" 
			},
			{
				"x": -2.0012992633,
				"y": 0.7562618005,
				"z": -1.2701800931,
				"element": "C" 
			},
			{
				"x": -1.4651808983,
				"y": 0.9523789514,
				"z": -2.6939104336,
				"element": "C" 
			},
			{
				"x": -0.509100951,
				"y": -0.2272670476,
				"z": -2.934325766,
				"element": "C" 
			},
			{
				"x": -0.0024358011,
				"y": -0.5920805602,
				"z": -1.5225824335,
				"element": "C" 
			},
			{
				"x": -1.2456659012,
				"y": -0.4256900456,
				"z": -0.6184486737,
				"element": "C" 
			},
			{
				"x": -0.9931378646,
				"y": -0.3012454415,
				"z": 0.8653152202,
				"element": "C" 
			},
			{
				"x": -0.3959253666,
				"y": 0.8490751101,
				"z": 1.4015922393,
				"element": "C" 
			},
			{
				"x": -0.1332154574,
				"y": 0.947004912,
				"z": 2.7671050328,
				"element": "C" 
			},
			{
				"x": -0.4635778122,
				"y": -0.1057318881,
				"z": 3.6236775154,
				"element": "C" 
			},
			{
				"x": -1.0614221156,
				"y": -1.2537426416,
				"z": 3.1035037359,
				"element": "C" 
			},
			{
				"x": -1.3238096201,
				"y": -1.3470354751,
				"z": 1.735557509,
				"element": "C" 
			},
			{
				"x": -0.928715694,
				"y": 1.9108640178,
				"z": -2.7052345749,
				"element": "H" 
			},
			{
				"x": -2.2868735042,
				"y": 1.0431040244,
				"z": -3.4099026827,
				"element": "H" 
			},
			{
				"x": -1.0579075628,
				"y": -1.0754919864,
				"z": -3.3610945622,
				"element": "H" 
			},
			{
				"x": 0.3042439078,
				"y": 0.0124039502,
				"z": -3.6247430398,
				"element": "H" 
			},
			{
				"x": 0.4266225612,
				"y": -1.596144616,
				"z": -1.4648663915,
				"element": "H" 
			},
			{
				"x": 0.7754702941,
				"y": 0.1132959849,
				"z": -1.2045743424,
				"element": "H" 
			},
			{
				"x": -1.900782387,
				"y": -1.2947159917,
				"z": -0.7898825662,
				"element": "H" 
			},
			{
				"x": -0.1448287671,
				"y": 1.6807828,
				"z": 0.7484533344,
				"element": "H" 
			},
			{
				"x": 0.3254211574,
				"y": 1.8483538006,
				"z": 3.1639781123,
				"element": "H" 
			},
			{
				"x": -0.2601973041,
				"y": -0.028705491,
				"z": 4.6878842847,
				"element": "H" 
			},
			{
				"x": -1.3267583987,
				"y": -2.0769194968,
				"z": 3.7609935147,
				"element": "H" 
			},
			{
				"x": -1.7926017836,
				"y": -2.2439488552,
				"z": 1.337614214,
				"element": "H" 
			}
		],
		 "valence_orbital": [ 
			{
				"type": "occ",
				"energy": -0.33247,
				"method": "rhf"
			},
			{
				"type": "occ",
				"energy": -0.33069,
				"method": "rhf"
			},
			{
				"type": "occ",
				"energy": -0.24953,
				"method": "rhf"
			},
			{
				"type": "occ",
				"energy": -0.24598,
				"method": "rhf"
			},
			{
				"type": "occ",
				"energy": -0.23033,
				"method": "rhf"
			},
			{
				"type": "unocc",
				"energy": -0.01815,
				"method": "rhf"
			},
			{
				"type": "unocc",
				"energy": -0.00041,
				"method": "rhf"
			},
			{
				"type": "unocc",
				"energy": 0.00284,
				"method": "rhf"
			},
			{
				"type": "unocc",
				"energy": 0.08148,
				"method": "rhf"
			},
			{
				"type": "unocc",
				"energy": 0.09858,
				"method": "rhf"
			}
		],
		"cosmo_sigma_profile": { 
			"-0.025": 0.0,
			"-0.024": 0.0,
			"-0.023": 0.0,
			"-0.022": 0.0,
			"-0.021": 0.0,
			"-0.02": 0.0,
			"-0.019": 0.0,
			"-0.018": 0.0,
			"-0.017": 0.0,
			"-0.016": 0.0,
			"-0.015": 0.0,
			"-0.014": 0.0,
			"-0.013": 0.0,
			"-0.012": 0.0,
			"-0.011": 0.0,
			"-0.01": 0.0,
			"-0.009": 0.0,
			"-0.008": 0.0489670781514,
			"-0.007": 1.588834621,
			"-0.006": 11.5839112487,
			"-0.005": 18.9161030339,
			"-0.004": 21.8949533015,
			"-0.003": 27.0869099863,
			"-0.002": 21.3418438784,
			"-0.001": 17.5189597566,
			"0.0": 16.0986730025,
			"0.001": 9.64591377467,
			"0.002": 7.86947722768,
			"0.003": 8.73446952028,
			"0.004": 7.36860854105,
			"0.005": 9.158258723,
			"0.006": 10.1746976596,
			"0.007": 3.46755797535,
			"0.008": 2.05000093253,
			"0.009": 2.272241897,
			"0.01": 2.70320006451,
			"0.011": 3.68537642531,
			"0.012": 4.48988525174,
			"0.013": 2.52514643388,
			"0.014": 0.115451365481,
			"0.015": 0.0,
			"0.016": 0.0,
			"0.017": 0.0,
			"0.018": 0.0,
			"0.019": 0.0,
			"0.02": 0.0,
			"0.021": 0.0,
			"0.022": 0.0,
			"0.023": 0.0,
			"0.024": 0.0,
			"0.025": 0.0
		}
	}
}
