{
	 "smiles": "O=C1N(SC2CCCCC2)C(=O)C2=CC=CC=C12", 
	 "Tm": 365.75, 
	 "num_atms": 33, 
	 "gaussian": { 
		 "optdone": 1, 
		 "sigma_profile": "yes", 
		 "theory": "DFT", 
		 "functional": "B3LYP", 
		 "basiset": "6-31G**", 
		 "properties": { 
			 "R2extent": 6330.5114, 
			 "electric_dipole_moment_norm": 3.1176528046, 
			 "electric_quadrupole_moment_norm": 23.8024653124, 
			 "total_energy": -1145.93715667, 
			 "HOMO_LUMO_gap": 0.15113, 
			 "cosmo_polarized_energy": -12.37, 
			 "cosmo_cavitation_energy": 36.69, 
			 "cosmo_dispersion_energy": -26.33, 
			 "cosmo_repulsion_energy": 1.98, 
			 "cosmo_total_nonelectrostatic_energy": 12.35, 
			 "SMD_solvation_energy": 6.2 
		},
		"coords": [
			{
				"x": -0.0490841315,
				"y": 1.4090666648,
				"z": -2.5573395161,
				"element": "O" 
			},
			{
				"x": 0.971556772,
				"y": 1.2686563016,
				"z": -1.9219193118,
				"element": "C" 
			},
			{
				"x": 1.1091125669,
				"y": 1.4137319504,
				"z": -0.5124924306,
				"element": "N" 
			},
			{
				"x": -0.1382272251,
				"y": 1.9637675784,
				"z": 0.5353866817,
				"element": "S" 
			},
			{
				"x": -0.6916249003,
				"y": 0.3643175487,
				"z": 1.3100003586,
				"element": "C" 
			},
			{
				"x": -1.665933713,
				"y": 0.7343280371,
				"z": 2.4413993223,
				"element": "C" 
			},
			{
				"x": -2.9858189132,
				"y": 1.3595175712,
				"z": 1.9309976711,
				"element": "C" 
			},
			{
				"x": -3.4372490294,
				"y": 0.770078399,
				"z": 0.5712542618,
				"element": "C" 
			},
			{
				"x": -2.8765559887,
				"y": -0.6430701508,
				"z": 0.3654994194,
				"element": "C" 
			},
			{
				"x": -1.3332580716,
				"y": -0.6351740403,
				"z": 0.3115472344,
				"element": "C" 
			},
			{
				"x": 2.4406375612,
				"y": 1.1505288238,
				"z": -0.0840236653,
				"element": "C" 
			},
			{
				"x": 2.8323395789,
				"y": 1.1736166569,
				"z": 1.061127892,
				"element": "O" 
			},
			{
				"x": 3.200869707,
				"y": 0.8302281907,
				"z": -1.3257752434,
				"element": "C" 
			},
			{
				"x": 4.5393728704,
				"y": 0.4982457028,
				"z": -1.486398087,
				"element": "C" 
			},
			{
				"x": 4.9874676862,
				"y": 0.242172254,
				"z": -2.7882714938,
				"element": "C" 
			},
			{
				"x": 4.113997111,
				"y": 0.3160376697,
				"z": -3.882091427,
				"element": "C" 
			},
			{
				"x": 2.7647141995,
				"y": 0.6487269176,
				"z": -3.708880386,
				"element": "C" 
			},
			{
				"x": 2.3312283468,
				"y": 0.9038808561,
				"z": -2.4148520486,
				"element": "C" 
			},
			{
				"x": 0.2194672616,
				"y": -0.0557383964,
				"z": 1.7435697417,
				"element": "H" 
			},
			{
				"x": -1.1791374974,
				"y": 1.3945332387,
				"z": 3.1668769384,
				"element": "H" 
			},
			{
				"x": -1.8839009827,
				"y": -0.1984492339,
				"z": 2.9760948751,
				"element": "H" 
			},
			{
				"x": -3.7588642185,
				"y": 1.1956150097,
				"z": 2.6906781463,
				"element": "H" 
			},
			{
				"x": -2.8759605018,
				"y": 2.4462643866,
				"z": 1.8414003894,
				"element": "H" 
			},
			{
				"x": -4.5310586038,
				"y": 0.7611940819,
				"z": 0.5103386545,
				"element": "H" 
			},
			{
				"x": -3.0837805255,
				"y": 1.4087353652,
				"z": -0.2461241634,
				"element": "H" 
			},
			{
				"x": -3.2189560569,
				"y": -1.2918986487,
				"z": 1.1828196191,
				"element": "H" 
			},
			{
				"x": -3.2698004038,
				"y": -1.0822942526,
				"z": -0.5577573894,
				"element": "H" 
			},
			{
				"x": -0.9544739237,
				"y": -1.6399894549,
				"z": 0.5366222225,
				"element": "H" 
			},
			{
				"x": -1.0061399604,
				"y": -0.4016703278,
				"z": -0.7056052845,
				"element": "H" 
			},
			{
				"x": 5.205281547,
				"y": 0.4432952432,
				"z": -0.6313933501,
				"element": "H" 
			},
			{
				"x": 6.0282925873,
				"y": -0.0183519658,
				"z": -2.9556735808,
				"element": "H" 
			},
			{
				"x": 4.49212445,
				"y": 0.1111670988,
				"z": -4.8792119351,
				"element": "H" 
			},
			{
				"x": 2.0781624016,
				"y": 0.7079309245,
				"z": -4.5471041157,
				"element": "H" 
			}
		],
		 "valence_orbital": [ 
			{
				"type": "occ",
				"energy": -0.28369,
				"method": "rhf"
			},
			{
				"type": "occ",
				"energy": -0.28023,
				"method": "rhf"
			},
			{
				"type": "occ",
				"energy": -0.26973,
				"method": "rhf"
			},
			{
				"type": "occ",
				"energy": -0.26573,
				"method": "rhf"
			},
			{
				"type": "occ",
				"energy": -0.23444,
				"method": "rhf"
			},
			{
				"type": "unocc",
				"energy": -0.08331,
				"method": "rhf"
			},
			{
				"type": "unocc",
				"energy": -0.04561,
				"method": "rhf"
			},
			{
				"type": "unocc",
				"energy": 0.01115,
				"method": "rhf"
			},
			{
				"type": "unocc",
				"energy": 0.02683,
				"method": "rhf"
			},
			{
				"type": "unocc",
				"energy": 0.04954,
				"method": "rhf"
			}
		],
		"cosmo_sigma_profile": { 
			"-0.025": 0.0,
			"-0.024": 0.0,
			"-0.023": 0.0,
			"-0.022": 0.0,
			"-0.021": 0.0,
			"-0.02": 0.0,
			"-0.019": 0.0,
			"-0.018": 0.0,
			"-0.017": 0.0,
			"-0.016": 0.0,
			"-0.015": 0.0,
			"-0.014": 0.0,
			"-0.013": 0.0,
			"-0.012": 0.0,
			"-0.011": 0.0,
			"-0.01": 0.0,
			"-0.009": 0.0,
			"-0.008": 2.47852678386,
			"-0.007": 9.53278350386,
			"-0.006": 10.5126594896,
			"-0.005": 11.8915629817,
			"-0.004": 18.1835396911,
			"-0.003": 32.093167679,
			"-0.002": 33.2882321884,
			"-0.001": 37.7476881075,
			"0.0": 35.5172373804,
			"0.001": 28.9125377522,
			"0.002": 15.8943682067,
			"0.003": 7.27295667691,
			"0.004": 5.93852567121,
			"0.005": 5.09268682004,
			"0.006": 4.31975441377,
			"0.007": 3.3792810513,
			"0.008": 4.72570226906,
			"0.009": 4.43834299422,
			"0.01": 7.23858385484,
			"0.011": 9.68022359825,
			"0.012": 3.39243016455,
			"0.013": 0.37486835642,
			"0.014": 0.0,
			"0.015": 0.0,
			"0.016": 0.0,
			"0.017": 0.0,
			"0.018": 0.0,
			"0.019": 0.0,
			"0.02": 0.0,
			"0.021": 0.0,
			"0.022": 0.0,
			"0.023": 0.0,
			"0.024": 0.0,
			"0.025": 0.0
		}
	}
}
