{
	 "smiles": "ClC1=C(Cl)C(C#N)=C(Cl)C(C#N)=C1Cl", 
	 "Tm": 525.15, 
	 "num_atms": 14, 
	 "gaussian": { 
		 "optdone": 1, 
		 "sigma_profile": "yes", 
		 "theory": "DFT", 
		 "functional": "B3LYP", 
		 "basiset": "6-31G**", 
		 "properties": { 
			 "R2extent": 5242.5573, 
			 "electric_dipole_moment_norm": 2.91055570983, 
			 "electric_quadrupole_moment_norm": 15.4975377041, 
			 "total_energy": -2255.05378286, 
			 "HOMO_LUMO_gap": 0.17973, 
			 "cosmo_polarized_energy": -10.1, 
			 "cosmo_cavitation_energy": 28.4, 
			 "cosmo_dispersion_energy": -20.08, 
			 "cosmo_repulsion_energy": 1.57, 
			 "cosmo_total_nonelectrostatic_energy": 9.9, 
			 "SMD_solvation_energy": 6.27 
		},
		"coords": [
			{
				"x": -3.6452784029,
				"y": -1.8893775766,
				"z": -0.1004750643,
				"element": "Cl" 
			},
			{
				"x": -2.15939844,
				"y": -1.2625695212,
				"z": 0.5244360611,
				"element": "C" 
			},
			{
				"x": -1.7749904184,
				"y": 0.0597024805,
				"z": 0.2500422732,
				"element": "C" 
			},
			{
				"x": -2.7786049176,
				"y": 1.0823976684,
				"z": -0.7154840943,
				"element": "Cl" 
			},
			{
				"x": -0.5642039462,
				"y": 0.5794348077,
				"z": 0.7557836971,
				"element": "C" 
			},
			{
				"x": -0.1820808526,
				"y": 1.9274753879,
				"z": 0.4703368717,
				"element": "C" 
			},
			{
				"x": 0.1307827559,
				"y": 3.0227618888,
				"z": 0.2398047692,
				"element": "N" 
			},
			{
				"x": 0.2619656001,
				"y": -0.2412457625,
				"z": 1.5426265037,
				"element": "C" 
			},
			{
				"x": 1.747433895,
				"y": 0.3853404372,
				"z": 2.1672742795,
				"element": "Cl" 
			},
			{
				"x": -0.1089549141,
				"y": -1.5668647296,
				"z": 1.826080392,
				"element": "C" 
			},
			{
				"x": 0.7353024376,
				"y": -2.397670797,
				"z": 2.6271417951,
				"element": "C" 
			},
			{
				"x": 1.4232190824,
				"y": -3.0709004576,
				"z": 3.2784595089,
				"element": "N" 
			},
			{
				"x": -1.3232600885,
				"y": -2.0700121176,
				"z": 1.31208231,
				"element": "C" 
			},
			{
				"x": -1.7638317908,
				"y": -3.7018717085,
				"z": 1.6702906973,
				"element": "Cl" 
			}
		],
		 "valence_orbital": [ 
			{
				"type": "occ",
				"energy": -0.35528,
				"method": "rhf"
			},
			{
				"type": "occ",
				"energy": -0.3431,
				"method": "rhf"
			},
			{
				"type": "occ",
				"energy": -0.33513,
				"method": "rhf"
			},
			{
				"type": "occ",
				"energy": -0.29588,
				"method": "rhf"
			},
			{
				"type": "occ",
				"energy": -0.29043,
				"method": "rhf"
			},
			{
				"type": "unocc",
				"energy": -0.1107,
				"method": "rhf"
			},
			{
				"type": "unocc",
				"energy": -0.09419,
				"method": "rhf"
			},
			{
				"type": "unocc",
				"energy": -0.06071,
				"method": "rhf"
			},
			{
				"type": "unocc",
				"energy": -0.01488,
				"method": "rhf"
			},
			{
				"type": "unocc",
				"energy": -0.00355,
				"method": "rhf"
			}
		],
		"cosmo_sigma_profile": { 
			"-0.025": 0.0,
			"-0.024": 0.0,
			"-0.023": 0.0,
			"-0.022": 0.0,
			"-0.021": 0.0,
			"-0.02": 0.0,
			"-0.019": 0.0,
			"-0.018": 0.0,
			"-0.017": 0.0,
			"-0.016": 0.0,
			"-0.015": 0.0,
			"-0.014": 0.0,
			"-0.013": 0.0,
			"-0.012": 0.0,
			"-0.011": 0.0,
			"-0.01": 0.0,
			"-0.009": 0.0300565963116,
			"-0.008": 0.96250561971,
			"-0.007": 3.6507793525,
			"-0.006": 20.2366557484,
			"-0.005": 23.5896351363,
			"-0.004": 14.0957682763,
			"-0.003": 16.6647826628,
			"-0.002": 14.4482714278,
			"-0.001": 15.0569430075,
			"0.0": 24.5877511624,
			"0.001": 34.6615130671,
			"0.002": 22.5350986677,
			"0.003": 6.81339651231,
			"0.004": 5.62367113177,
			"0.005": 4.98445030758,
			"0.006": 6.73125673249,
			"0.007": 5.80546900221,
			"0.008": 6.26793399767,
			"0.009": 5.35997419059,
			"0.01": 4.71535420246,
			"0.011": 3.94280471485,
			"0.012": 0.556175809258,
			"0.013": 0.0,
			"0.014": 0.0,
			"0.015": 0.0,
			"0.016": 0.0,
			"0.017": 0.0,
			"0.018": 0.0,
			"0.019": 0.0,
			"0.02": 0.0,
			"0.021": 0.0,
			"0.022": 0.0,
			"0.023": 0.0,
			"0.024": 0.0,
			"0.025": 0.0
		}
	}
}
