{
	 "smiles": "NC1=NC2=C(CCCCCC2)S1", 
	 "Tm": 476.15, 
	 "num_atms": 26, 
	 "gaussian": { 
		 "optdone": 1, 
		 "sigma_profile": "yes", 
		 "theory": "DFT", 
		 "functional": "B3LYP", 
		 "basiset": "6-31G**", 
		 "properties": { 
			 "R2extent": 2870.5297, 
			 "electric_dipole_moment_norm": 1.1576357415, 
			 "electric_quadrupole_moment_norm": 11.6137503327, 
			 "total_energy": -859.093999378, 
			 "HOMO_LUMO_gap": 0.19816, 
			 "cosmo_polarized_energy": -9.06, 
			 "cosmo_cavitation_energy": 27.68, 
			 "cosmo_dispersion_energy": -21.49, 
			 "cosmo_repulsion_energy": 1.68, 
			 "cosmo_total_nonelectrostatic_energy": 7.87, 
			 "SMD_solvation_energy": 1.7 
		},
		"coords": [
			{
				"x": -4.6182431976,
				"y": -0.632060937,
				"z": 1.3020681146,
				"element": "N" 
			},
			{
				"x": -3.2513127318,
				"y": -0.4756740878,
				"z": 1.1776024037,
				"element": "C" 
			},
			{
				"x": -2.4926157243,
				"y": -1.2555823669,
				"z": 0.4698629318,
				"element": "N" 
			},
			{
				"x": -1.1719315736,
				"y": -0.8168859154,
				"z": 0.4624575562,
				"element": "C" 
			},
			{
				"x": -0.9097269106,
				"y": 0.3202546984,
				"z": 1.1803563301,
				"element": "C" 
			},
			{
				"x": 0.3432161152,
				"y": 1.1217069921,
				"z": 1.4509120413,
				"element": "C" 
			},
			{
				"x": 1.6590822275,
				"y": 0.6009128711,
				"z": 0.8419853923,
				"element": "C" 
			},
			{
				"x": 1.8432677077,
				"y": 0.8355777915,
				"z": -0.6730633266,
				"element": "C" 
			},
			{
				"x": 0.6633688982,
				"y": 0.4954735222,
				"z": -1.6006076709,
				"element": "C" 
			},
			{
				"x": 0.2405293982,
				"y": -0.9786645397,
				"z": -1.6824837726,
				"element": "C" 
			},
			{
				"x": -0.1924494883,
				"y": -1.6336696758,
				"z": -0.3489678589,
				"element": "C" 
			},
			{
				"x": -2.4182065989,
				"y": 0.8939465344,
				"z": 1.9101540644,
				"element": "S" 
			},
			{
				"x": -5.0217984114,
				"y": -0.3495683237,
				"z": 2.1845499787,
				"element": "H" 
			},
			{
				"x": -4.9250182343,
				"y": -1.5473672176,
				"z": 0.9969171417,
				"element": "H" 
			},
			{
				"x": 0.1879024159,
				"y": 2.1580070155,
				"z": 1.1148278891,
				"element": "H" 
			},
			{
				"x": 0.4793649026,
				"y": 1.188792291,
				"z": 2.5393860898,
				"element": "H" 
			},
			{
				"x": 1.785509117,
				"y": -0.4548285451,
				"z": 1.0960388254,
				"element": "H" 
			},
			{
				"x": 2.4778272076,
				"y": 1.12011169,
				"z": 1.3556273453,
				"element": "H" 
			},
			{
				"x": 2.7367878135,
				"y": 0.2863632721,
				"z": -1.0006718591,
				"element": "H" 
			},
			{
				"x": 2.076081795,
				"y": 1.8989200989,
				"z": -0.8211638903,
				"element": "H" 
			},
			{
				"x": -0.2053404738,
				"y": 1.0990676083,
				"z": -1.3131671279,
				"element": "H" 
			},
			{
				"x": 0.9308238811,
				"y": 0.8244376084,
				"z": -2.6132725408,
				"element": "H" 
			},
			{
				"x": -0.5934844502,
				"y": -1.0506740538,
				"z": -2.3916308844,
				"element": "H" 
			},
			{
				"x": 1.058782097,
				"y": -1.5757330376,
				"z": -2.1074582885,
				"element": "H" 
			},
			{
				"x": 0.6912932593,
				"y": -1.8714477269,
				"z": 0.2482816002,
				"element": "H" 
			},
			{
				"x": -0.680209041,
				"y": -2.5880155665,
				"z": -0.5673404846,
				"element": "H" 
			}
		],
		 "valence_orbital": [ 
			{
				"type": "occ",
				"energy": -0.30085,
				"method": "rhf"
			},
			{
				"type": "occ",
				"energy": -0.29453,
				"method": "rhf"
			},
			{
				"type": "occ",
				"energy": -0.26035,
				"method": "rhf"
			},
			{
				"type": "occ",
				"energy": -0.2582,
				"method": "rhf"
			},
			{
				"type": "occ",
				"energy": -0.19513,
				"method": "rhf"
			},
			{
				"type": "unocc",
				"energy": 0.00303,
				"method": "rhf"
			},
			{
				"type": "unocc",
				"energy": 0.01674,
				"method": "rhf"
			},
			{
				"type": "unocc",
				"energy": 0.06929,
				"method": "rhf"
			},
			{
				"type": "unocc",
				"energy": 0.07865,
				"method": "rhf"
			},
			{
				"type": "unocc",
				"energy": 0.08969,
				"method": "rhf"
			}
		],
		"cosmo_sigma_profile": { 
			"-0.025": 0.0,
			"-0.024": 0.0,
			"-0.023": 0.0,
			"-0.022": 0.0,
			"-0.021": 0.0,
			"-0.02": 0.0,
			"-0.019": 0.0,
			"-0.018": 0.0,
			"-0.017": 0.0,
			"-0.016": 0.0,
			"-0.015": 0.0261045089247,
			"-0.014": 1.04664867243,
			"-0.013": 2.38550953015,
			"-0.012": 1.92020390634,
			"-0.011": 3.14865003158,
			"-0.01": 2.95218281128,
			"-0.009": 1.58758975307,
			"-0.008": 1.5110943274,
			"-0.007": 2.72414461233,
			"-0.006": 1.39267865118,
			"-0.005": 2.3322197129,
			"-0.004": 4.77741190704,
			"-0.003": 13.5484721066,
			"-0.002": 29.3482762709,
			"-0.001": 34.6701148323,
			"0.0": 32.6646681788,
			"0.001": 21.1963917326,
			"0.002": 10.2024518343,
			"0.003": 10.3086531479,
			"0.004": 10.9953682416,
			"0.005": 8.72312095362,
			"0.006": 3.83203045531,
			"0.007": 3.70622375537,
			"0.008": 1.9157131643,
			"0.009": 2.5468111439,
			"0.01": 1.5702395185,
			"0.011": 1.4027326212,
			"0.012": 1.56438607033,
			"0.013": 1.37198446584,
			"0.014": 0.792989957933,
			"0.015": 1.04701376049,
			"0.016": 0.396814638626,
			"0.017": 0.0,
			"0.018": 0.0,
			"0.019": 0.0,
			"0.02": 0.0,
			"0.021": 0.0,
			"0.022": 0.0,
			"0.023": 0.0,
			"0.024": 0.0,
			"0.025": 0.0
		}
	}
}
