{
	 "smiles": "CC1=CC(=CC=C1)N1C(=O)NC2=C(C=CC(=C2)C(O)=O)C1=O", 
	 "Tm": 618.15, 
	 "num_atms": 34, 
	 "gaussian": { 
		 "optdone": 1, 
		 "sigma_profile": "yes", 
		 "theory": "DFT", 
		 "functional": "B3LYP", 
		 "basiset": "6-31G**", 
		 "properties": { 
			 "R2extent": 9706.2249, 
			 "electric_dipole_moment_norm": 2.48365890371, 
			 "electric_quadrupole_moment_norm": 25.7811735997, 
			 "total_energy": -1027.40738448, 
			 "HOMO_LUMO_gap": 0.15956, 
			 "cosmo_polarized_energy": -22.39, 
			 "cosmo_cavitation_energy": 39.76, 
			 "cosmo_dispersion_energy": -28.33, 
			 "cosmo_repulsion_energy": 2.14, 
			 "cosmo_total_nonelectrostatic_energy": 13.57, 
			 "SMD_solvation_energy": 9.29 
		},
		"coords": [
			{
				"x": 2.6317571101,
				"y": 0.3464525797,
				"z": -3.8931747097,
				"element": "C" 
			},
			{
				"x": 2.6086423716,
				"y": 0.1856733307,
				"z": -2.3912532093,
				"element": "C" 
			},
			{
				"x": 1.3945227733,
				"y": 0.1778377859,
				"z": -1.694919292,
				"element": "C" 
			},
			{
				"x": 1.3756697823,
				"y": 0.0666331971,
				"z": -0.306630577,
				"element": "C" 
			},
			{
				"x": 2.5601294328,
				"y": -0.0485512579,
				"z": 0.4186637413,
				"element": "C" 
			},
			{
				"x": 3.7728863155,
				"y": -0.0527565859,
				"z": -0.2677269993,
				"element": "C" 
			},
			{
				"x": 3.795849101,
				"y": 0.063974899,
				"z": -1.6578833813,
				"element": "C" 
			},
			{
				"x": 0.1069019938,
				"y": 0.0591399591,
				"z": 0.390471108,
				"element": "N" 
			},
			{
				"x": -0.5967925508,
				"y": 1.2777596743,
				"z": 0.445276631,
				"element": "C" 
			},
			{
				"x": -0.1943233367,
				"y": 2.308963407,
				"z": -0.0591145692,
				"element": "O" 
			},
			{
				"x": -1.8028015237,
				"y": 1.2250340479,
				"z": 1.1241796186,
				"element": "N" 
			},
			{
				"x": -2.3456814885,
				"y": 0.1030230307,
				"z": 1.7280446113,
				"element": "C" 
			},
			{
				"x": -1.6303620019,
				"y": -1.103121003,
				"z": 1.6609559285,
				"element": "C" 
			},
			{
				"x": -2.1521740839,
				"y": -2.2574340529,
				"z": 2.2596180537,
				"element": "C" 
			},
			{
				"x": -3.3708904252,
				"y": -2.2155408509,
				"z": 2.918793635,
				"element": "C" 
			},
			{
				"x": -4.0825441741,
				"y": -1.0046603702,
				"z": 2.983738844,
				"element": "C" 
			},
			{
				"x": -3.577638279,
				"y": 0.1538673918,
				"z": 2.3927206742,
				"element": "C" 
			},
			{
				"x": -5.3892143547,
				"y": -1.0033906467,
				"z": 3.7029908719,
				"element": "C" 
			},
			{
				"x": -5.991383139,
				"y": 0.2111078641,
				"z": 3.706294173,
				"element": "O" 
			},
			{
				"x": -5.8824424209,
				"y": -1.9750244346,
				"z": 4.2372397399,
				"element": "O" 
			},
			{
				"x": -0.3288072132,
				"y": -1.1595346632,
				"z": 0.9609111829,
				"element": "C" 
			},
			{
				"x": 0.3380265339,
				"y": -2.1759218447,
				"z": 0.8710800744,
				"element": "O" 
			},
			{
				"x": 3.5354694926,
				"y": -0.0907691323,
				"z": -4.3275552659,
				"element": "H" 
			},
			{
				"x": 1.7654986616,
				"y": -0.1311864195,
				"z": -4.3610218651,
				"element": "H" 
			},
			{
				"x": 2.6110323102,
				"y": 1.406129516,
				"z": -4.1764308344,
				"element": "H" 
			},
			{
				"x": 0.4562448065,
				"y": 0.2654566472,
				"z": -2.2343832885,
				"element": "H" 
			},
			{
				"x": 2.5277838616,
				"y": -0.1435999233,
				"z": 1.4985510281,
				"element": "H" 
			},
			{
				"x": 4.7033003431,
				"y": -0.150292688,
				"z": 0.2836156365,
				"element": "H" 
			},
			{
				"x": 4.7479996951,
				"y": 0.0588288574,
				"z": -2.1823348353,
				"element": "H" 
			},
			{
				"x": -2.2917366032,
				"y": 2.1088297872,
				"z": 1.1540908197,
				"element": "H" 
			},
			{
				"x": -1.5724985091,
				"y": -3.1711309923,
				"z": 2.1875618859,
				"element": "H" 
			},
			{
				"x": -3.7940075434,
				"y": -3.0953174825,
				"z": 3.3891653113,
				"element": "H" 
			},
			{
				"x": -4.1353274198,
				"y": 1.0821205161,
				"z": 2.448855693,
				"element": "H" 
			},
			{
				"x": -6.8226895179,
				"y": 0.0956998566,
				"z": 4.1954095647,
				"element": "H" 
			}
		],
		 "valence_orbital": [ 
			{
				"type": "occ",
				"energy": -0.28122,
				"method": "rhf"
			},
			{
				"type": "occ",
				"energy": -0.27004,
				"method": "rhf"
			},
			{
				"type": "occ",
				"energy": -0.24827,
				"method": "rhf"
			},
			{
				"type": "occ",
				"energy": -0.24418,
				"method": "rhf"
			},
			{
				"type": "occ",
				"energy": -0.24074,
				"method": "rhf"
			},
			{
				"type": "unocc",
				"energy": -0.08118,
				"method": "rhf"
			},
			{
				"type": "unocc",
				"energy": -0.0277,
				"method": "rhf"
			},
			{
				"type": "unocc",
				"energy": -0.0084,
				"method": "rhf"
			},
			{
				"type": "unocc",
				"energy": -0.0015,
				"method": "rhf"
			},
			{
				"type": "unocc",
				"energy": 0.00336,
				"method": "rhf"
			}
		],
		"cosmo_sigma_profile": { 
			"-0.025": 0.0,
			"-0.024": 0.0,
			"-0.023": 0.0,
			"-0.022": 0.0,
			"-0.021": 0.0,
			"-0.02": 0.0,
			"-0.019": 0.356432231827,
			"-0.018": 0.8058982263,
			"-0.017": 1.45585744465,
			"-0.016": 2.13987477874,
			"-0.015": 2.33413407539,
			"-0.014": 1.19339933774,
			"-0.013": 1.94909709701,
			"-0.012": 2.12883923548,
			"-0.011": 2.17765884399,
			"-0.01": 1.73165578805,
			"-0.009": 1.7451421402,
			"-0.008": 1.50353894465,
			"-0.007": 7.4514976311,
			"-0.006": 13.9582763136,
			"-0.005": 21.3862771734,
			"-0.004": 23.115832443,
			"-0.003": 22.7416110651,
			"-0.002": 24.6966948538,
			"-0.001": 27.8763775143,
			"0.0": 28.4010290529,
			"0.001": 23.984938424,
			"0.002": 15.0385873659,
			"0.003": 10.961638565,
			"0.004": 11.0850577668,
			"0.005": 12.1306326906,
			"0.006": 8.47660085497,
			"0.007": 5.74871178925,
			"0.008": 4.31451648279,
			"0.009": 4.75954790037,
			"0.01": 7.13064572662,
			"0.011": 10.8734943191,
			"0.012": 11.6640620568,
			"0.013": 3.14156569303,
			"0.014": 0.0108397753701,
			"0.015": 0.0,
			"0.016": 0.0,
			"0.017": 0.0,
			"0.018": 0.0,
			"0.019": 0.0,
			"0.02": 0.0,
			"0.021": 0.0,
			"0.022": 0.0,
			"0.023": 0.0,
			"0.024": 0.0,
			"0.025": 0.0
		}
	}
}
