{
	 "smiles": "ClC1=NC2=C(CCC2)C=C1", 
	 "Tm": 343.15, 
	 "num_atms": 18, 
	 "gaussian": { 
		 "optdone": 1, 
		 "sigma_profile": "yes", 
		 "theory": "DFT", 
		 "functional": "B3LYP", 
		 "basiset": "6-31G**", 
		 "properties": { 
			 "R2extent": 2799.452, 
			 "electric_dipole_moment_norm": 3.86576556066, 
			 "electric_quadrupole_moment_norm": 10.634315269, 
			 "total_energy": -824.625610219, 
			 "HOMO_LUMO_gap": 0.20889, 
			 "cosmo_polarized_energy": -6.65, 
			 "cosmo_cavitation_energy": 22.72, 
			 "cosmo_dispersion_energy": -17.51, 
			 "cosmo_repulsion_energy": 1.44, 
			 "cosmo_total_nonelectrostatic_energy": 6.65, 
			 "SMD_solvation_energy": 1.47 
		},
		"coords": [
			{
				"x": -0.4193938829,
				"y": 2.6273110182,
				"z": 3.9940316984,
				"element": "Cl" 
			},
			{
				"x": -0.7125364587,
				"y": 1.5091853714,
				"z": 2.658426432,
				"element": "C" 
			},
			{
				"x": -0.5843402501,
				"y": 2.0024823219,
				"z": 1.4368627207,
				"element": "N" 
			},
			{
				"x": -0.8007092517,
				"y": 1.1463997549,
				"z": 0.4333935793,
				"element": "C" 
			},
			{
				"x": -1.1518137111,
				"y": -0.1991597939,
				"z": 0.6021863944,
				"element": "C" 
			},
			{
				"x": -1.3443334845,
				"y": -0.8670425313,
				"z": -0.7390602654,
				"element": "C" 
			},
			{
				"x": -0.6635890149,
				"y": 0.1235505074,
				"z": -1.7258041979,
				"element": "C" 
			},
			{
				"x": -0.7207705796,
				"y": 1.5081664917,
				"z": -1.0320345386,
				"element": "C" 
			},
			{
				"x": -1.2834437781,
				"y": -0.6868559106,
				"z": 1.899917716,
				"element": "C" 
			},
			{
				"x": -1.0541481967,
				"y": 0.1881892489,
				"z": 2.9637020882,
				"element": "C" 
			},
			{
				"x": -2.4158187657,
				"y": -0.9698502283,
				"z": -0.9609444435,
				"element": "H" 
			},
			{
				"x": -0.9146772631,
				"y": -1.873091154,
				"z": -0.7880864595,
				"element": "H" 
			},
			{
				"x": 0.3833108199,
				"y": -0.1688153196,
				"z": -1.8615798575,
				"element": "H" 
			},
			{
				"x": -1.1333637464,
				"y": 0.1216498761,
				"z": -2.7126742332,
				"element": "H" 
			},
			{
				"x": 0.138148432,
				"y": 2.1466947474,
				"z": -1.2567907053,
				"element": "H" 
			},
			{
				"x": -1.6195969236,
				"y": 2.0690422055,
				"z": -1.3230345562,
				"element": "H" 
			},
			{
				"x": -1.5521354993,
				"y": -1.7220042426,
				"z": 2.0942145845,
				"element": "H" 
			},
			{
				"x": -1.1328884456,
				"y": -0.1344523631,
				"z": 3.9947740435,
				"element": "H" 
			}
		],
		 "valence_orbital": [ 
			{
				"type": "occ",
				"energy": -0.31877,
				"method": "rhf"
			},
			{
				"type": "occ",
				"energy": -0.30711,
				"method": "rhf"
			},
			{
				"type": "occ",
				"energy": -0.29005,
				"method": "rhf"
			},
			{
				"type": "occ",
				"energy": -0.26678,
				"method": "rhf"
			},
			{
				"type": "occ",
				"energy": -0.24224,
				"method": "rhf"
			},
			{
				"type": "unocc",
				"energy": -0.03335,
				"method": "rhf"
			},
			{
				"type": "unocc",
				"energy": -0.01391,
				"method": "rhf"
			},
			{
				"type": "unocc",
				"energy": 0.0396,
				"method": "rhf"
			},
			{
				"type": "unocc",
				"energy": 0.09056,
				"method": "rhf"
			},
			{
				"type": "unocc",
				"energy": 0.11221,
				"method": "rhf"
			}
		],
		"cosmo_sigma_profile": { 
			"-0.025": 0.0,
			"-0.024": 0.0,
			"-0.023": 0.0,
			"-0.022": 0.0,
			"-0.021": 0.0,
			"-0.02": 0.0,
			"-0.019": 0.0,
			"-0.018": 0.0,
			"-0.017": 0.0,
			"-0.016": 0.0,
			"-0.015": 0.0,
			"-0.014": 0.0,
			"-0.013": 0.0,
			"-0.012": 0.0,
			"-0.011": 0.0,
			"-0.01": 0.0,
			"-0.009": 0.0,
			"-0.008": 0.98935281111,
			"-0.007": 4.3539678958,
			"-0.006": 4.21158114927,
			"-0.005": 5.87403421821,
			"-0.004": 14.4304592496,
			"-0.003": 20.994334088,
			"-0.002": 22.2759905644,
			"-0.001": 19.6980138541,
			"0.0": 19.1602592139,
			"0.001": 17.2006810916,
			"0.002": 13.5884261081,
			"0.003": 8.03990710682,
			"0.004": 8.18146491512,
			"0.005": 10.0582720215,
			"0.006": 3.44674338132,
			"0.007": 1.61748964928,
			"0.008": 1.96733242766,
			"0.009": 1.47206467768,
			"0.01": 1.04777545878,
			"0.011": 1.09507877034,
			"0.012": 0.975539734254,
			"0.013": 1.04031255315,
			"0.014": 0.723964138691,
			"0.015": 0.468216980242,
			"0.016": 0.0,
			"0.017": 0.0,
			"0.018": 0.0,
			"0.019": 0.0,
			"0.02": 0.0,
			"0.021": 0.0,
			"0.022": 0.0,
			"0.023": 0.0,
			"0.024": 0.0,
			"0.025": 0.0
		}
	}
}
