{
	 "smiles": "ClC1=CC2=C(C=C1Cl)C(=O)OC2=O", 
	 "Tm": 460.15, 
	 "num_atms": 15, 
	 "gaussian": { 
		 "optdone": 1, 
		 "sigma_profile": "yes", 
		 "theory": "DFT", 
		 "functional": "B3LYP", 
		 "basiset": "6-31G**", 
		 "properties": { 
			 "R2extent": 3561.4756, 
			 "electric_dipole_moment_norm": 3.34471501626, 
			 "electric_quadrupole_moment_norm": 8.56447583393, 
			 "total_energy": -1452.11942384, 
			 "HOMO_LUMO_gap": 0.17732, 
			 "cosmo_polarized_energy": -10.08, 
			 "cosmo_cavitation_energy": 24.83, 
			 "cosmo_dispersion_energy": -18.57, 
			 "cosmo_repulsion_energy": 1.45, 
			 "cosmo_total_nonelectrostatic_energy": 7.71, 
			 "SMD_solvation_energy": 5.66 
		},
		"coords": [
			{
				"x": -0.3273250193,
				"y": 3.7069346288,
				"z": 1.6977893246,
				"element": "Cl" 
			},
			{
				"x": -0.3582462543,
				"y": 2.0439852391,
				"z": 1.1920181662,
				"element": "C" 
			},
			{
				"x": 0.8587859763,
				"y": 1.4129482452,
				"z": 0.9095099022,
				"element": "C" 
			},
			{
				"x": 0.8125433102,
				"y": 0.0868649894,
				"z": 0.5078191181,
				"element": "C" 
			},
			{
				"x": -0.3904459214,
				"y": -0.5991458592,
				"z": 0.3868976618,
				"element": "C" 
			},
			{
				"x": -1.6065804954,
				"y": 0.0070826802,
				"z": 0.6616981527,
				"element": "C" 
			},
			{
				"x": -1.5822373595,
				"y": 1.3460051891,
				"z": 1.0689910439,
				"element": "C" 
			},
			{
				"x": -3.0941304235,
				"y": 2.1291568773,
				"z": 1.4197354186,
				"element": "Cl" 
			},
			{
				"x": -0.0827377705,
				"y": -1.981668964,
				"z": -0.0581675041,
				"element": "C" 
			},
			{
				"x": -0.8096296092,
				"y": -2.9056616233,
				"z": -0.2874481462,
				"element": "O" 
			},
			{
				"x": 1.3077029215,
				"y": -2.0672778204,
				"z": -0.1872820058,
				"element": "O" 
			},
			{
				"x": 1.9072454352,
				"y": -0.8468541647,
				"z": 0.1418853168,
				"element": "C" 
			},
			{
				"x": 3.0928185549,
				"y": -0.6802142775,
				"z": 0.1049556267,
				"element": "O" 
			},
			{
				"x": 1.7954698721,
				"y": 1.9500411202,
				"z": 1.0045426863,
				"element": "H" 
			},
			{
				"x": -2.5459332171,
				"y": -0.52559626,
				"z": 0.5681552384,
				"element": "H" 
			}
		],
		 "valence_orbital": [ 
			{
				"type": "occ",
				"energy": -0.33864,
				"method": "rhf"
			},
			{
				"type": "occ",
				"energy": -0.32581,
				"method": "rhf"
			},
			{
				"type": "occ",
				"energy": -0.3033,
				"method": "rhf"
			},
			{
				"type": "occ",
				"energy": -0.30256,
				"method": "rhf"
			},
			{
				"type": "occ",
				"energy": -0.28818,
				"method": "rhf"
			},
			{
				"type": "unocc",
				"energy": -0.11086,
				"method": "rhf"
			},
			{
				"type": "unocc",
				"energy": -0.08087,
				"method": "rhf"
			},
			{
				"type": "unocc",
				"energy": -0.0247,
				"method": "rhf"
			},
			{
				"type": "unocc",
				"energy": -0.00543,
				"method": "rhf"
			},
			{
				"type": "unocc",
				"energy": 0.03089,
				"method": "rhf"
			}
		],
		"cosmo_sigma_profile": { 
			"-0.025": 0.0,
			"-0.024": 0.0,
			"-0.023": 0.0,
			"-0.022": 0.0,
			"-0.021": 0.0,
			"-0.02": 0.0,
			"-0.019": 0.0,
			"-0.018": 0.0,
			"-0.017": 0.0,
			"-0.016": 0.0,
			"-0.015": 0.0,
			"-0.014": 0.0,
			"-0.013": 0.0,
			"-0.012": 0.0,
			"-0.011": 0.197525006566,
			"-0.01": 3.53670222348,
			"-0.009": 5.06293273746,
			"-0.008": 4.55220993356,
			"-0.007": 5.62464936798,
			"-0.006": 6.44532051747,
			"-0.005": 8.46221189189,
			"-0.004": 14.9199178356,
			"-0.003": 24.158484582,
			"-0.002": 19.4894686123,
			"-0.001": 11.1026615073,
			"0.0": 11.6301303056,
			"0.001": 12.1078349946,
			"0.002": 17.201737954,
			"0.003": 16.7857666518,
			"0.004": 6.0983292283,
			"0.005": 4.68544762415,
			"0.006": 6.58784404336,
			"0.007": 6.16548363198,
			"0.008": 6.23509346443,
			"0.009": 10.7219731556,
			"0.01": 4.44843487444,
			"0.011": 0.162919412145,
			"0.012": 0.0,
			"0.013": 0.0,
			"0.014": 0.0,
			"0.015": 0.0,
			"0.016": 0.0,
			"0.017": 0.0,
			"0.018": 0.0,
			"0.019": 0.0,
			"0.02": 0.0,
			"0.021": 0.0,
			"0.022": 0.0,
			"0.023": 0.0,
			"0.024": 0.0,
			"0.025": 0.0
		}
	}
}
