{
	 "smiles": "CC1=NC=CN1CC1=CC=C(N)C=C1", 
	 "Tm": 433.15, 
	 "num_atms": 27, 
	 "gaussian": { 
		 "optdone": 1, 
		 "sigma_profile": "yes", 
		 "theory": "DFT", 
		 "functional": "B3LYP", 
		 "basiset": "6-31G**", 
		 "properties": { 
			 "R2extent": 3559.3465, 
			 "electric_dipole_moment_norm": 4.75664830947, 
			 "electric_quadrupole_moment_norm": 19.2686883799, 
			 "total_energy": -591.263919299, 
			 "HOMO_LUMO_gap": 0.1998, 
			 "cosmo_polarized_energy": -15.73, 
			 "cosmo_cavitation_energy": 30.67, 
			 "cosmo_dispersion_energy": -21.74, 
			 "cosmo_repulsion_energy": 1.72, 
			 "cosmo_total_nonelectrostatic_energy": 10.65, 
			 "SMD_solvation_energy": 3.91 
		},
		"coords": [
			{
				"x": -1.9036249888,
				"y": 0.1736111214,
				"z": -3.5549600382,
				"element": "C" 
			},
			{
				"x": -1.5526859849,
				"y": -1.0172223336,
				"z": -2.7194049523,
				"element": "C" 
			},
			{
				"x": -1.4060584757,
				"y": -2.2425953709,
				"z": -3.189294522,
				"element": "N" 
			},
			{
				"x": -1.1020949511,
				"y": -3.0249501534,
				"z": -2.0978577374,
				"element": "C" 
			},
			{
				"x": -1.0625573181,
				"y": -2.2679978247,
				"z": -0.9569170603,
				"element": "C" 
			},
			{
				"x": -1.348451259,
				"y": -0.9742918648,
				"z": -1.3582483148,
				"element": "N" 
			},
			{
				"x": -1.4751316723,
				"y": 0.1834385112,
				"z": -0.4719407819,
				"element": "C" 
			},
			{
				"x": -0.2726748928,
				"y": 0.4001835189,
				"z": 0.4232761679,
				"element": "C" 
			},
			{
				"x": 1.0157192113,
				"y": 0.5409417712,
				"z": -0.1118090672,
				"element": "C" 
			},
			{
				"x": 2.115223099,
				"y": 0.7670036231,
				"z": 0.7065802288,
				"element": "C" 
			},
			{
				"x": 1.9630519102,
				"y": 0.8645011912,
				"z": 2.1029194912,
				"element": "C" 
			},
			{
				"x": 3.0567366325,
				"y": 1.148299789,
				"z": 2.9196462828,
				"element": "N" 
			},
			{
				"x": 0.6746717815,
				"y": 0.7227662415,
				"z": 2.6429845621,
				"element": "C" 
			},
			{
				"x": -0.4188105108,
				"y": 0.4924163785,
				"z": 1.8106833902,
				"element": "C" 
			},
			{
				"x": -1.9726426147,
				"y": -0.158841075,
				"z": -4.5916684327,
				"element": "H" 
			},
			{
				"x": -2.8673175851,
				"y": 0.6149545522,
				"z": -3.2730450619,
				"element": "H" 
			},
			{
				"x": -1.1475749502,
				"y": 0.9660593318,
				"z": -3.4994439837,
				"element": "H" 
			},
			{
				"x": -0.9248302886,
				"y": -4.0872417127,
				"z": -2.1973846157,
				"element": "H" 
			},
			{
				"x": -0.8481057359,
				"y": -2.505036628,
				"z": 0.0736506265,
				"element": "H" 
			},
			{
				"x": -1.639694402,
				"y": 1.0546148505,
				"z": -1.1131517876,
				"element": "H" 
			},
			{
				"x": -2.3754164733,
				"y": 0.0710869004,
				"z": 0.1445039996,
				"element": "H" 
			},
			{
				"x": 1.1624578796,
				"y": 0.4582971437,
				"z": -1.1857066352,
				"element": "H" 
			},
			{
				"x": 3.1043683085,
				"y": 0.8740895888,
				"z": 0.2679754719,
				"element": "H" 
			},
			{
				"x": 2.9588724526,
				"y": 0.8731349072,
				"z": 3.8870122468,
				"element": "H" 
			},
			{
				"x": 3.9582119804,
				"y": 0.8924722384,
				"z": 2.5414843033,
				"element": "H" 
			},
			{
				"x": 0.5323969329,
				"y": 0.7924471919,
				"z": 3.7186152974,
				"element": "H" 
			},
			{
				"x": -1.4056380851,
				"y": 0.3815581125,
				"z": 2.2546009225,
				"element": "H" 
			}
		],
		 "valence_orbital": [ 
			{
				"type": "occ",
				"energy": -0.25593,
				"method": "rhf"
			},
			{
				"type": "occ",
				"energy": -0.25087,
				"method": "rhf"
			},
			{
				"type": "occ",
				"energy": -0.24798,
				"method": "rhf"
			},
			{
				"type": "occ",
				"energy": -0.20732,
				"method": "rhf"
			},
			{
				"type": "occ",
				"energy": -0.2052,
				"method": "rhf"
			},
			{
				"type": "unocc",
				"energy": -0.0054,
				"method": "rhf"
			},
			{
				"type": "unocc",
				"energy": 0.00645,
				"method": "rhf"
			},
			{
				"type": "unocc",
				"energy": 0.03708,
				"method": "rhf"
			},
			{
				"type": "unocc",
				"energy": 0.07554,
				"method": "rhf"
			},
			{
				"type": "unocc",
				"energy": 0.08437,
				"method": "rhf"
			}
		],
		"cosmo_sigma_profile": { 
			"-0.025": 0.0,
			"-0.024": 0.0,
			"-0.023": 0.0,
			"-0.022": 0.0,
			"-0.021": 0.0,
			"-0.02": 0.0,
			"-0.019": 0.0,
			"-0.018": 0.0,
			"-0.017": 0.0,
			"-0.016": 0.0,
			"-0.015": 0.0,
			"-0.014": 0.0,
			"-0.013": 0.329568119664,
			"-0.012": 2.17063539137,
			"-0.011": 2.93133938614,
			"-0.01": 2.72858289652,
			"-0.009": 3.47400335913,
			"-0.008": 3.11983821376,
			"-0.007": 3.38105007279,
			"-0.006": 13.570224091,
			"-0.005": 23.5634166029,
			"-0.004": 22.1561900913,
			"-0.003": 20.9307139253,
			"-0.002": 15.8823485705,
			"-0.001": 16.5879785043,
			"0.0": 14.7919166471,
			"0.001": 9.29185091371,
			"0.002": 9.89186942778,
			"0.003": 10.8253537105,
			"0.004": 10.8660963839,
			"0.005": 12.3679536409,
			"0.006": 15.519531551,
			"0.007": 8.24237463142,
			"0.008": 3.00964779426,
			"0.009": 2.98912761284,
			"0.01": 2.2652974237,
			"0.011": 1.72712300011,
			"0.012": 2.08510410061,
			"0.013": 2.07703617424,
			"0.014": 1.52451279568,
			"0.015": 1.30404186264,
			"0.016": 0.961647441689,
			"0.017": 1.05881136692,
			"0.018": 1.05349806375,
			"0.019": 0.48061397677,
			"0.02": 0.0,
			"0.021": 0.0,
			"0.022": 0.0,
			"0.023": 0.0,
			"0.024": 0.0,
			"0.025": 0.0
		}
	}
}
