{
	 "smiles": "NS(=O)(=O)CCC(O)=O", 
	 "Tm": 385.15, 
	 "num_atms": 16, 
	 "gaussian": { 
		 "optdone": 1, 
		 "sigma_profile": "yes", 
		 "theory": "DFT", 
		 "functional": "B3LYP", 
		 "basiset": "6-31G**", 
		 "properties": { 
			 "R2extent": 3183.5318, 
			 "electric_dipole_moment_norm": 1.81196081083, 
			 "electric_quadrupole_moment_norm": 21.7623878876, 
			 "total_energy": -872.32560456, 
			 "HOMO_LUMO_gap": 0.28653, 
			 "cosmo_polarized_energy": -19.56, 
			 "cosmo_cavitation_energy": 22.07, 
			 "cosmo_dispersion_energy": -16.77, 
			 "cosmo_repulsion_energy": 1.36, 
			 "cosmo_total_nonelectrostatic_energy": 6.66, 
			 "SMD_solvation_energy": 4.57 
		},
		"coords": [
			{
				"x": 0.7942082377,
				"y": 0.9161250667,
				"z": -0.0279606314,
				"element": "N" 
			},
			{
				"x": -0.4240362316,
				"y": 0.6078306099,
				"z": -1.1621995614,
				"element": "S" 
			},
			{
				"x": -0.3252426968,
				"y": -0.8020459498,
				"z": -1.5566038944,
				"element": "O" 
			},
			{
				"x": -0.3976694483,
				"y": 1.6875642032,
				"z": -2.1554579482,
				"element": "O" 
			},
			{
				"x": -1.9150357974,
				"y": 0.8053044154,
				"z": -0.1612891081,
				"element": "C" 
			},
			{
				"x": -3.1560281078,
				"y": 0.5642337506,
				"z": -1.0150892754,
				"element": "C" 
			},
			{
				"x": -4.4196672459,
				"y": 0.7254370761,
				"z": -0.1979372243,
				"element": "C" 
			},
			{
				"x": -5.5202702556,
				"y": 0.5123241916,
				"z": -0.9518629407,
				"element": "O" 
			},
			{
				"x": -4.46724147,
				"y": 1.0076951945,
				"z": 0.9790559995,
				"element": "O" 
			},
			{
				"x": 1.3350028773,
				"y": 1.7237385353,
				"z": -0.3265992487,
				"element": "H" 
			},
			{
				"x": 1.3823494492,
				"y": 0.0920342283,
				"z": 0.0660692544,
				"element": "H" 
			},
			{
				"x": -1.8923314817,
				"y": 1.8162980053,
				"z": 0.2499213281,
				"element": "H" 
			},
			{
				"x": -1.8425620846,
				"y": 0.0943274528,
				"z": 0.6639276457,
				"element": "H" 
			},
			{
				"x": -3.1917380943,
				"y": 1.2620548351,
				"z": -1.8587155085,
				"element": "H" 
			},
			{
				"x": -3.1434223356,
				"y": -0.4419636355,
				"z": -1.4479130263,
				"element": "H" 
			},
			{
				"x": -6.2842153145,
				"y": 0.6326420207,
				"z": -0.3627458604,
				"element": "H" 
			}
		],
		 "valence_orbital": [ 
			{
				"type": "occ",
				"energy": -0.32146,
				"method": "rhf"
			},
			{
				"type": "occ",
				"energy": -0.31783,
				"method": "rhf"
			},
			{
				"type": "occ",
				"energy": -0.30549,
				"method": "rhf"
			},
			{
				"type": "occ",
				"energy": -0.29922,
				"method": "rhf"
			},
			{
				"type": "occ",
				"energy": -0.28947,
				"method": "rhf"
			},
			{
				"type": "unocc",
				"energy": -0.00294,
				"method": "rhf"
			},
			{
				"type": "unocc",
				"energy": 0.04965,
				"method": "rhf"
			},
			{
				"type": "unocc",
				"energy": 0.06133,
				"method": "rhf"
			},
			{
				"type": "unocc",
				"energy": 0.07839,
				"method": "rhf"
			},
			{
				"type": "unocc",
				"energy": 0.08489,
				"method": "rhf"
			}
		],
		"cosmo_sigma_profile": { 
			"-0.025": 0.0,
			"-0.024": 0.0,
			"-0.023": 0.0,
			"-0.022": 0.0,
			"-0.021": 0.0,
			"-0.02": 0.0,
			"-0.019": 0.215205805301,
			"-0.018": 0.680398741288,
			"-0.017": 1.26300997495,
			"-0.016": 0.78785377324,
			"-0.015": 1.58835149881,
			"-0.014": 3.21865572053,
			"-0.013": 3.18561273108,
			"-0.012": 3.64454930041,
			"-0.011": 2.81842026559,
			"-0.01": 2.69454131235,
			"-0.009": 3.17445975417,
			"-0.008": 6.4564273473,
			"-0.007": 11.4519986698,
			"-0.006": 10.3071668924,
			"-0.005": 8.77474206902,
			"-0.004": 7.97180397252,
			"-0.003": 7.59293481006,
			"-0.002": 6.84849830757,
			"-0.001": 5.09699787611,
			"0.0": 5.18245533319,
			"0.001": 5.90749480075,
			"0.002": 5.29741469548,
			"0.003": 4.56778011167,
			"0.004": 4.36605549823,
			"0.005": 5.20241687859,
			"0.006": 4.74406826439,
			"0.007": 5.23037221629,
			"0.008": 6.1531679521,
			"0.009": 6.79114652926,
			"0.01": 8.97704715825,
			"0.011": 16.5653427815,
			"0.012": 6.54355001357,
			"0.013": 0.00408925920519,
			"0.014": 0.0,
			"0.015": 0.0,
			"0.016": 0.0,
			"0.017": 0.0,
			"0.018": 0.0,
			"0.019": 0.0,
			"0.02": 0.0,
			"0.021": 0.0,
			"0.022": 0.0,
			"0.023": 0.0,
			"0.024": 0.0,
			"0.025": 0.0
		}
	}
}
