{
	 "smiles": "NC1=NC2=C(C=CC=C2Cl)C=C1", 
	 "Tm": 439.15, 
	 "num_atms": 19, 
	 "gaussian": { 
		 "optdone": 1, 
		 "sigma_profile": "yes", 
		 "theory": "DFT", 
		 "functional": "B3LYP", 
		 "basiset": "6-31G**", 
		 "properties": { 
			 "R2extent": 2418.1839, 
			 "electric_dipole_moment_norm": 3.70701217424, 
			 "electric_quadrupole_moment_norm": 14.0959821361, 
			 "total_energy": -916.890477096, 
			 "HOMO_LUMO_gap": 0.16292, 
			 "cosmo_polarized_energy": -12.52, 
			 "cosmo_cavitation_energy": 24.81, 
			 "cosmo_dispersion_energy": -18.82, 
			 "cosmo_repulsion_energy": 1.5, 
			 "cosmo_total_nonelectrostatic_energy": 7.48, 
			 "SMD_solvation_energy": 2.59 
		},
		"coords": [
			{
				"x": 3.0517709484,
				"y": -1.7608125089,
				"z": 2.0547805684,
				"element": "N" 
			},
			{
				"x": 2.1208170446,
				"y": -0.8642278057,
				"z": 1.57835936,
				"element": "C" 
			},
			{
				"x": 1.048774228,
				"y": -1.3647181701,
				"z": 0.9894665065,
				"element": "N" 
			},
			{
				"x": 0.1383432523,
				"y": -0.5098793712,
				"z": 0.4584397425,
				"element": "C" 
			},
			{
				"x": 0.281816608,
				"y": 0.9142352019,
				"z": 0.5208791494,
				"element": "C" 
			},
			{
				"x": -0.6998590339,
				"y": 1.7628724946,
				"z": -0.0425553413,
				"element": "C" 
			},
			{
				"x": -1.8094414945,
				"y": 1.2279020783,
				"z": -0.6606085844,
				"element": "C" 
			},
			{
				"x": -1.9730078224,
				"y": -0.1726274623,
				"z": -0.7337561657,
				"element": "C" 
			},
			{
				"x": -1.0267939249,
				"y": -1.0168130211,
				"z": -0.1899605382,
				"element": "C" 
			},
			{
				"x": -1.263927939,
				"y": -2.7493298551,
				"z": -0.2988055292,
				"element": "Cl" 
			},
			{
				"x": 1.4476226137,
				"y": 1.4084426175,
				"z": 1.1724621751,
				"element": "C" 
			},
			{
				"x": 2.365616989,
				"y": 0.5425114368,
				"z": 1.6962235551,
				"element": "C" 
			},
			{
				"x": 3.6618626654,
				"y": -1.4619858369,
				"z": 2.7999113207,
				"element": "H" 
			},
			{
				"x": 2.7247499981,
				"y": -2.714991845,
				"z": 2.1114482962,
				"element": "H" 
			},
			{
				"x": -0.5638719246,
				"y": 2.8394448157,
				"z": 0.0196048037,
				"element": "H" 
			},
			{
				"x": -2.5653842213,
				"y": 1.8743788069,
				"z": -1.0951494589,
				"element": "H" 
			},
			{
				"x": -2.845548493,
				"y": -0.595811069,
				"z": -1.2194826078,
				"element": "H" 
			},
			{
				"x": 1.5976237729,
				"y": 2.4827439329,
				"z": 1.2435045827,
				"element": "H" 
			},
			{
				"x": 3.2666367331,
				"y": 0.9000655607,
				"z": 2.1857381652,
				"element": "H" 
			}
		],
		 "valence_orbital": [ 
			{
				"type": "occ",
				"energy": -0.29646,
				"method": "rhf"
			},
			{
				"type": "occ",
				"energy": -0.28878,
				"method": "rhf"
			},
			{
				"type": "occ",
				"energy": -0.25643,
				"method": "rhf"
			},
			{
				"type": "occ",
				"energy": -0.23333,
				"method": "rhf"
			},
			{
				"type": "occ",
				"energy": -0.21102,
				"method": "rhf"
			},
			{
				"type": "unocc",
				"energy": -0.0481,
				"method": "rhf"
			},
			{
				"type": "unocc",
				"energy": -0.00866,
				"method": "rhf"
			},
			{
				"type": "unocc",
				"energy": 0.02381,
				"method": "rhf"
			},
			{
				"type": "unocc",
				"energy": 0.04687,
				"method": "rhf"
			},
			{
				"type": "unocc",
				"energy": 0.07768,
				"method": "rhf"
			}
		],
		"cosmo_sigma_profile": { 
			"-0.025": 0.0,
			"-0.024": 0.0,
			"-0.023": 0.0,
			"-0.022": 0.0,
			"-0.021": 0.0,
			"-0.02": 0.0,
			"-0.019": 0.0,
			"-0.018": 0.0,
			"-0.017": 0.0,
			"-0.016": 0.0,
			"-0.015": 0.0,
			"-0.014": 0.653204872425,
			"-0.013": 2.22703358535,
			"-0.012": 2.01927691117,
			"-0.011": 2.86417003731,
			"-0.01": 2.7726950554,
			"-0.009": 2.46588134999,
			"-0.008": 2.74381410153,
			"-0.007": 9.14803562428,
			"-0.006": 11.6343640703,
			"-0.005": 10.651194221,
			"-0.004": 10.6565186811,
			"-0.003": 7.74252530202,
			"-0.002": 7.30717050051,
			"-0.001": 9.15067870287,
			"0.0": 9.5960444088,
			"0.001": 15.1202195959,
			"0.002": 22.840650352,
			"0.003": 22.5223872053,
			"0.004": 16.4200655685,
			"0.005": 10.9592592918,
			"0.006": 5.82609793391,
			"0.007": 3.28592434174,
			"0.008": 1.80773338705,
			"0.009": 2.65558893398,
			"0.01": 2.15662508052,
			"0.011": 1.89773891998,
			"0.012": 1.30152626584,
			"0.013": 0.952265795124,
			"0.014": 1.17306360674,
			"0.015": 0.601546403223,
			"0.016": 0.0202968013006,
			"0.017": 0.0,
			"0.018": 0.0,
			"0.019": 0.0,
			"0.02": 0.0,
			"0.021": 0.0,
			"0.022": 0.0,
			"0.023": 0.0,
			"0.024": 0.0,
			"0.025": 0.0
		}
	}
}
