{
	 "smiles": "CC(=O)C1=C(N)SN=C1C", 
	 "Tm": 457.15, 
	 "num_atms": 18, 
	 "gaussian": { 
		 "optdone": 1, 
		 "sigma_profile": "yes", 
		 "theory": "DFT", 
		 "functional": "B3LYP", 
		 "basiset": "6-31G**", 
		 "properties": { 
			 "R2extent": 2320.5094, 
			 "electric_dipole_moment_norm": 0.872430134739, 
			 "electric_quadrupole_moment_norm": 15.388231283, 
			 "total_energy": -816.376678023, 
			 "HOMO_LUMO_gap": 0.18671, 
			 "cosmo_polarized_energy": -11.7, 
			 "cosmo_cavitation_energy": 22.75, 
			 "cosmo_dispersion_energy": -17.8, 
			 "cosmo_repulsion_energy": 1.38, 
			 "cosmo_total_nonelectrostatic_energy": 6.34, 
			 "SMD_solvation_energy": 3.03 
		},
		"coords": [
			{
				"x": 1.3666242063,
				"y": -1.9665908847,
				"z": 1.1479005348,
				"element": "C" 
			},
			{
				"x": 0.3485150757,
				"y": -0.9451581803,
				"z": 0.673493235,
				"element": "C" 
			},
			{
				"x": -0.4470564368,
				"y": -1.2853824197,
				"z": -0.216973879,
				"element": "O" 
			},
			{
				"x": 0.3014687165,
				"y": 0.4000179354,
				"z": 1.244194204,
				"element": "C" 
			},
			{
				"x": -0.6577742737,
				"y": 1.324232534,
				"z": 0.7788698683,
				"element": "C" 
			},
			{
				"x": -1.5773214367,
				"y": 1.1040241376,
				"z": -0.1716701935,
				"element": "N" 
			},
			{
				"x": -0.4687027909,
				"y": 2.8248429448,
				"z": 1.6384784416,
				"element": "S" 
			},
			{
				"x": 0.8311579639,
				"y": 2.2678919229,
				"z": 2.586535235,
				"element": "N" 
			},
			{
				"x": 1.1084493244,
				"y": 1.0225183869,
				"z": 2.2747494031,
				"element": "C" 
			},
			{
				"x": 2.2444756236,
				"y": 0.3937675072,
				"z": 3.0390555174,
				"element": "C" 
			},
			{
				"x": 1.2082819487,
				"y": -2.8857897149,
				"z": 0.5828197154,
				"element": "H" 
			},
			{
				"x": 2.3905308721,
				"y": -1.6153927915,
				"z": 0.9870473086,
				"element": "H" 
			},
			{
				"x": 1.255799036,
				"y": -2.1755528565,
				"z": 2.2163718187,
				"element": "H" 
			},
			{
				"x": -2.2344315584,
				"y": 1.8101636937,
				"z": -0.4577339766,
				"element": "H" 
			},
			{
				"x": -1.556091905,
				"y": 0.1690889128,
				"z": -0.5786610262,
				"element": "H" 
			},
			{
				"x": 1.9161942184,
				"y": -0.4838010733,
				"z": 3.6048404911,
				"element": "H" 
			},
			{
				"x": 3.0541124781,
				"y": 0.0763301538,
				"z": 2.3744726931,
				"element": "H" 
			},
			{
				"x": 2.638868938,
				"y": 1.1311897919,
				"z": 3.7396106092,
				"element": "H" 
			}
		],
		 "valence_orbital": [ 
			{
				"type": "occ",
				"energy": -0.33815,
				"method": "rhf"
			},
			{
				"type": "occ",
				"energy": -0.28712,
				"method": "rhf"
			},
			{
				"type": "occ",
				"energy": -0.25565,
				"method": "rhf"
			},
			{
				"type": "occ",
				"energy": -0.25193,
				"method": "rhf"
			},
			{
				"type": "occ",
				"energy": -0.2217,
				"method": "rhf"
			},
			{
				"type": "unocc",
				"energy": -0.03499,
				"method": "rhf"
			},
			{
				"type": "unocc",
				"energy": -0.00211,
				"method": "rhf"
			},
			{
				"type": "unocc",
				"energy": -0.00129,
				"method": "rhf"
			},
			{
				"type": "unocc",
				"energy": 0.07959,
				"method": "rhf"
			},
			{
				"type": "unocc",
				"energy": 0.07969,
				"method": "rhf"
			}
		],
		"cosmo_sigma_profile": { 
			"-0.025": 0.0,
			"-0.024": 0.0,
			"-0.023": 0.0,
			"-0.022": 0.0,
			"-0.021": 0.0,
			"-0.02": 0.0,
			"-0.019": 0.0,
			"-0.018": 0.0,
			"-0.017": 0.0,
			"-0.016": 0.608054189225,
			"-0.015": 1.75036527969,
			"-0.014": 1.35355876753,
			"-0.013": 1.30721307884,
			"-0.012": 1.43932681282,
			"-0.011": 1.10691652234,
			"-0.01": 1.9290683035,
			"-0.009": 2.08881110403,
			"-0.008": 1.41855255639,
			"-0.007": 4.47824522334,
			"-0.006": 8.01961753449,
			"-0.005": 8.96329719657,
			"-0.004": 10.4731515685,
			"-0.003": 10.7081547432,
			"-0.002": 14.0750217882,
			"-0.001": 17.598814624,
			"0.0": 14.8643328523,
			"0.001": 17.162114883,
			"0.002": 14.7009595251,
			"0.003": 9.71128523556,
			"0.004": 9.48824431437,
			"0.005": 3.68418003261,
			"0.006": 3.28920137212,
			"0.007": 4.42740173992,
			"0.008": 2.55647488873,
			"0.009": 1.53317023693,
			"0.01": 2.90883655935,
			"0.011": 3.10589709303,
			"0.012": 2.57791893253,
			"0.013": 2.5870051587,
			"0.014": 2.07202926413,
			"0.015": 0.955513272942,
			"0.016": 0.120186593014,
			"0.017": 0.0,
			"0.018": 0.0,
			"0.019": 0.0,
			"0.02": 0.0,
			"0.021": 0.0,
			"0.022": 0.0,
			"0.023": 0.0,
			"0.024": 0.0,
			"0.025": 0.0
		}
	}
}
