{
	 "smiles": "CSC(SC)=C(C#N)C(=O)C1=CC(C)=CC=C1", 
	 "Tm": 327.15, 
	 "num_atms": 30, 
	 "gaussian": { 
		 "optdone": 1, 
		 "sigma_profile": "yes", 
		 "theory": "DFT", 
		 "functional": "B3LYP", 
		 "basiset": "6-31G**", 
		 "properties": { 
			 "R2extent": 6438.7657, 
			 "electric_dipole_moment_norm": 6.86561320859, 
			 "electric_quadrupole_moment_norm": 32.4774345777, 
			 "total_energy": -1429.52848816, 
			 "HOMO_LUMO_gap": 0.16549, 
			 "cosmo_polarized_energy": -16.57, 
			 "cosmo_cavitation_energy": 38.57, 
			 "cosmo_dispersion_energy": -25.52, 
			 "cosmo_repulsion_energy": 1.96, 
			 "cosmo_total_nonelectrostatic_energy": 15.0, 
			 "SMD_solvation_energy": 8.84 
		},
		"coords": [
			{
				"x": 2.0756792538,
				"y": 1.9511068004,
				"z": -5.0505225969,
				"element": "C" 
			},
			{
				"x": 2.8240418539,
				"y": 1.67690917,
				"z": -3.4013680165,
				"element": "S" 
			},
			{
				"x": 1.4110289988,
				"y": 1.3165368331,
				"z": -2.382968746,
				"element": "C" 
			},
			{
				"x": 0.1541982467,
				"y": 0.1749384384,
				"z": -2.9196868052,
				"element": "S" 
			},
			{
				"x": 1.1326698227,
				"y": -1.2962977879,
				"z": -3.4019846163,
				"element": "C" 
			},
			{
				"x": 1.255663732,
				"y": 1.9229964191,
				"z": -1.1749916306,
				"element": "C" 
			},
			{
				"x": 2.0747404502,
				"y": 3.0097769179,
				"z": -0.7456782748,
				"element": "C" 
			},
			{
				"x": 2.7175450897,
				"y": 3.8848237401,
				"z": -0.323189981,
				"element": "N" 
			},
			{
				"x": 0.1301621874,
				"y": 1.5482723623,
				"z": -0.2011310238,
				"element": "C" 
			},
			{
				"x": -0.851822343,
				"y": 2.26677598,
				"z": -0.1460219639,
				"element": "O" 
			},
			{
				"x": 0.3094159356,
				"y": 0.3574587207,
				"z": 0.6752997263,
				"element": "C" 
			},
			{
				"x": 1.5109631347,
				"y": -0.3661457367,
				"z": 0.7216130444,
				"element": "C" 
			},
			{
				"x": 1.6629589299,
				"y": -1.4634076466,
				"z": 1.5748941267,
				"element": "C" 
			},
			{
				"x": 2.9666821278,
				"y": -2.2240523869,
				"z": 1.6454183928,
				"element": "C" 
			},
			{
				"x": 0.5751396663,
				"y": -1.8303574309,
				"z": 2.3807063258,
				"element": "C" 
			},
			{
				"x": -0.6248761403,
				"y": -1.1165153338,
				"z": 2.3444572298,
				"element": "C" 
			},
			{
				"x": -0.7613512549,
				"y": -0.020747342,
				"z": 1.4985455302,
				"element": "C" 
			},
			{
				"x": 1.4207112683,
				"y": 2.8232021924,
				"z": -5.0328111719,
				"element": "H" 
			},
			{
				"x": 1.5250240493,
				"y": 1.0757076649,
				"z": -5.3959756037,
				"element": "H" 
			},
			{
				"x": 2.916515779,
				"y": 2.1414957441,
				"z": -5.7211023409,
				"element": "H" 
			},
			{
				"x": 0.4234344843,
				"y": -1.9865571107,
				"z": -3.8635521529,
				"element": "H" 
			},
			{
				"x": 1.57567739,
				"y": -1.7642697775,
				"z": -2.5212503358,
				"element": "H" 
			},
			{
				"x": 1.911610363,
				"y": -1.0374561602,
				"z": -4.1201294676,
				"element": "H" 
			},
			{
				"x": 2.3433736613,
				"y": -0.0641701269,
				"z": 0.0930901907,
				"element": "H" 
			},
			{
				"x": 3.6426587047,
				"y": -1.9360779626,
				"z": 0.8357436687,
				"element": "H" 
			},
			{
				"x": 2.8030241142,
				"y": -3.3051199618,
				"z": 1.581693224,
				"element": "H" 
			},
			{
				"x": 3.4857025661,
				"y": -2.0318580811,
				"z": 2.5919017188,
				"element": "H" 
			},
			{
				"x": 0.6712797703,
				"y": -2.6842680808,
				"z": 3.0472779793,
				"element": "H" 
			},
			{
				"x": -1.4524434713,
				"y": -1.4189989597,
				"z": 2.9794788672,
				"element": "H" 
			},
			{
				"x": -1.6802083706,
				"y": 0.5536989024,
				"z": 1.4550447028,
				"element": "H" 
			}
		],
		 "valence_orbital": [ 
			{
				"type": "occ",
				"energy": -0.26948,
				"method": "rhf"
			},
			{
				"type": "occ",
				"energy": -0.26379,
				"method": "rhf"
			},
			{
				"type": "occ",
				"energy": -0.2564,
				"method": "rhf"
			},
			{
				"type": "occ",
				"energy": -0.25414,
				"method": "rhf"
			},
			{
				"type": "occ",
				"energy": -0.23847,
				"method": "rhf"
			},
			{
				"type": "unocc",
				"energy": -0.07298,
				"method": "rhf"
			},
			{
				"type": "unocc",
				"energy": -0.06324,
				"method": "rhf"
			},
			{
				"type": "unocc",
				"energy": -0.01259,
				"method": "rhf"
			},
			{
				"type": "unocc",
				"energy": -0.00588,
				"method": "rhf"
			},
			{
				"type": "unocc",
				"energy": 0.02356,
				"method": "rhf"
			}
		],
		"cosmo_sigma_profile": { 
			"-0.025": 0.0,
			"-0.024": 0.0,
			"-0.023": 0.0,
			"-0.022": 0.0,
			"-0.021": 0.0,
			"-0.02": 0.0,
			"-0.019": 0.0,
			"-0.018": 0.0,
			"-0.017": 0.0,
			"-0.016": 0.0,
			"-0.015": 0.0,
			"-0.014": 0.0,
			"-0.013": 0.0,
			"-0.012": 0.0,
			"-0.011": 0.0,
			"-0.01": 0.0,
			"-0.009": 0.0,
			"-0.008": 2.18525382513,
			"-0.007": 8.09798499374,
			"-0.006": 17.9918624808,
			"-0.005": 25.4305119008,
			"-0.004": 30.2836509131,
			"-0.003": 29.3291749496,
			"-0.002": 29.6481367927,
			"-0.001": 22.1123258559,
			"0.0": 20.845889909,
			"0.001": 16.8677815834,
			"0.002": 18.5629425557,
			"0.003": 21.8645896793,
			"0.004": 19.0658275693,
			"0.005": 9.28222591982,
			"0.006": 6.55773674618,
			"0.007": 6.60051480423,
			"0.008": 5.10295689809,
			"0.009": 5.64618181004,
			"0.01": 6.58622397223,
			"0.011": 5.9150309121,
			"0.012": 2.71770070529,
			"0.013": 1.03250834138,
			"0.014": 0.0,
			"0.015": 0.0,
			"0.016": 0.0,
			"0.017": 0.0,
			"0.018": 0.0,
			"0.019": 0.0,
			"0.02": 0.0,
			"0.021": 0.0,
			"0.022": 0.0,
			"0.023": 0.0,
			"0.024": 0.0,
			"0.025": 0.0
		}
	}
}
