{
	 "smiles": "CC(C)CNC(N)=S", 
	 "Tm": 373.15, 
	 "num_atms": 20, 
	 "gaussian": { 
		 "optdone": 1, 
		 "sigma_profile": "yes", 
		 "theory": "DFT", 
		 "functional": "B3LYP", 
		 "basiset": "6-31G**", 
		 "properties": { 
			 "R2extent": 2442.9542, 
			 "electric_dipole_moment_norm": 6.07082027901, 
			 "electric_quadrupole_moment_norm": 14.3845628439, 
			 "total_energy": -705.483815283, 
			 "HOMO_LUMO_gap": 0.20406, 
			 "cosmo_polarized_energy": -18.2, 
			 "cosmo_cavitation_energy": 24.2, 
			 "cosmo_dispersion_energy": -17.87, 
			 "cosmo_repulsion_energy": 1.46, 
			 "cosmo_total_nonelectrostatic_energy": 7.8, 
			 "SMD_solvation_energy": 2.92 
		},
		"coords": [
			{
				"x": 3.9585824694,
				"y": -0.5398887585,
				"z": 0.7190458135,
				"element": "C" 
			},
			{
				"x": 2.6254008011,
				"y": -0.2249974113,
				"z": 1.4110086964,
				"element": "C" 
			},
			{
				"x": 2.6643384221,
				"y": -0.6068504329,
				"z": 2.8977689948,
				"element": "C" 
			},
			{
				"x": 1.4722158245,
				"y": -0.9240203523,
				"z": 0.6708263423,
				"element": "C" 
			},
			{
				"x": 0.1748389524,
				"y": -0.4936630783,
				"z": 1.1740801989,
				"element": "N" 
			},
			{
				"x": -1.0161428042,
				"y": -1.1182562472,
				"z": 1.0026745231,
				"element": "C" 
			},
			{
				"x": -0.9936145712,
				"y": -2.2646698614,
				"z": 0.2607212914,
				"element": "N" 
			},
			{
				"x": -2.4354820972,
				"y": -0.5378687492,
				"z": 1.7024485505,
				"element": "S" 
			},
			{
				"x": 3.9535398482,
				"y": -0.227444897,
				"z": -0.3306653558,
				"element": "H" 
			},
			{
				"x": 4.7853355354,
				"y": -0.0249696126,
				"z": 1.2177080133,
				"element": "H" 
			},
			{
				"x": 4.1726644786,
				"y": -1.6149329968,
				"z": 0.7501797819,
				"element": "H" 
			},
			{
				"x": 2.4526284268,
				"y": 0.8592319453,
				"z": 1.3324868815,
				"element": "H" 
			},
			{
				"x": 2.8724045445,
				"y": -1.6768921811,
				"z": 3.0162426163,
				"element": "H" 
			},
			{
				"x": 1.716193785,
				"y": -0.3973908579,
				"z": 3.4015442237,
				"element": "H" 
			},
			{
				"x": 3.4520561366,
				"y": -0.0539103809,
				"z": 3.4191098139,
				"element": "H" 
			},
			{
				"x": 1.5654699357,
				"y": -2.0102699391,
				"z": 0.8078970268,
				"element": "H" 
			},
			{
				"x": 1.5574372365,
				"y": -0.7190641588,
				"z": -0.4085084319,
				"element": "H" 
			},
			{
				"x": 0.1166607015,
				"y": 0.3681961744,
				"z": 1.6967894182,
				"element": "H" 
			},
			{
				"x": -0.2545747229,
				"y": -2.437605987,
				"z": -0.4052837704,
				"element": "H" 
			},
			{
				"x": -1.8987529026,
				"y": -2.6548322172,
				"z": 0.0493253716,
				"element": "H" 
			}
		],
		 "valence_orbital": [ 
			{
				"type": "occ",
				"energy": -0.3462,
				"method": "rhf"
			},
			{
				"type": "occ",
				"energy": -0.34491,
				"method": "rhf"
			},
			{
				"type": "occ",
				"energy": -0.27197,
				"method": "rhf"
			},
			{
				"type": "occ",
				"energy": -0.20302,
				"method": "rhf"
			},
			{
				"type": "occ",
				"energy": -0.19615,
				"method": "rhf"
			},
			{
				"type": "unocc",
				"energy": 0.00791,
				"method": "rhf"
			},
			{
				"type": "unocc",
				"energy": 0.0623,
				"method": "rhf"
			},
			{
				"type": "unocc",
				"energy": 0.07448,
				"method": "rhf"
			},
			{
				"type": "unocc",
				"energy": 0.07685,
				"method": "rhf"
			},
			{
				"type": "unocc",
				"energy": 0.10988,
				"method": "rhf"
			}
		],
		"cosmo_sigma_profile": { 
			"-0.025": 0.0,
			"-0.024": 0.0,
			"-0.023": 0.0,
			"-0.022": 0.0,
			"-0.021": 0.0,
			"-0.02": 0.0,
			"-0.019": 0.0,
			"-0.018": 0.0,
			"-0.017": 0.0,
			"-0.016": 0.0,
			"-0.015": 0.380513551021,
			"-0.014": 1.7740404541,
			"-0.013": 2.15906983303,
			"-0.012": 3.42997050427,
			"-0.011": 3.46930876727,
			"-0.01": 3.47744831244,
			"-0.009": 3.39483638885,
			"-0.008": 3.88738399361,
			"-0.007": 2.85275657369,
			"-0.006": 3.82919695981,
			"-0.005": 6.32559764436,
			"-0.004": 10.8791503264,
			"-0.003": 20.1932513289,
			"-0.002": 19.8916931868,
			"-0.001": 16.686299996,
			"0.0": 15.3774689799,
			"0.001": 17.6137908497,
			"0.002": 6.2079900121,
			"0.003": 2.86573794505,
			"0.004": 2.92330217413,
			"0.005": 3.78300464608,
			"0.006": 4.22489634824,
			"0.007": 4.118801254,
			"0.008": 4.1125196785,
			"0.009": 2.50351800851,
			"0.01": 4.43481983044,
			"0.011": 5.31976540809,
			"0.012": 7.37997515536,
			"0.013": 6.72370779028,
			"0.014": 0.536101514036,
			"0.015": 0.0,
			"0.016": 0.0,
			"0.017": 0.0,
			"0.018": 0.0,
			"0.019": 0.0,
			"0.02": 0.0,
			"0.021": 0.0,
			"0.022": 0.0,
			"0.023": 0.0,
			"0.024": 0.0,
			"0.025": 0.0
		}
	}
}
