{
	 "smiles": "OC(=O)C1=C(N(N=N1)C1CC1)C(F)(F)F", 
	 "Tm": 364.15, 
	 "num_atms": 21, 
	 "gaussian": { 
		 "optdone": 1, 
		 "sigma_profile": "yes", 
		 "theory": "DFT", 
		 "functional": "B3LYP", 
		 "basiset": "6-31G**", 
		 "properties": { 
			 "R2extent": 3233.8031, 
			 "electric_dipole_moment_norm": 5.90092189577, 
			 "electric_quadrupole_moment_norm": 10.5996286501, 
			 "total_energy": -884.518300878, 
			 "HOMO_LUMO_gap": 0.21867, 
			 "cosmo_polarized_energy": -13.14, 
			 "cosmo_cavitation_energy": 27.0, 
			 "cosmo_dispersion_energy": -19.33, 
			 "cosmo_repulsion_energy": 1.46, 
			 "cosmo_total_nonelectrostatic_energy": 9.13, 
			 "SMD_solvation_energy": 5.2 
		},
		"coords": [
			{
				"x": -3.6916602793,
				"y": -1.6843383458,
				"z": 0.4699311708,
				"element": "O" 
			},
			{
				"x": -2.6367511067,
				"y": -1.8783653541,
				"z": -0.3454409351,
				"element": "C" 
			},
			{
				"x": -2.6658377072,
				"y": -2.6482003096,
				"z": -1.2736499368,
				"element": "O" 
			},
			{
				"x": -1.4596868408,
				"y": -1.0353050555,
				"z": 0.0250320481,
				"element": "C" 
			},
			{
				"x": -0.1774617371,
				"y": -0.9066990309,
				"z": -0.4830543094,
				"element": "C" 
			},
			{
				"x": 0.3907093275,
				"y": 0.0690889342,
				"z": 0.2821820819,
				"element": "N" 
			},
			{
				"x": -0.4794694952,
				"y": 0.5055894604,
				"z": 1.2196687709,
				"element": "N" 
			},
			{
				"x": -1.5859798601,
				"y": -0.1544574957,
				"z": 1.05871537,
				"element": "N" 
			},
			{
				"x": 1.7356928139,
				"y": 0.6015222826,
				"z": 0.2262257155,
				"element": "C" 
			},
			{
				"x": 2.1032512759,
				"y": 1.5292422873,
				"z": -0.9051902184,
				"element": "C" 
			},
			{
				"x": 1.9243848141,
				"y": 2.0672139919,
				"z": 0.4902922175,
				"element": "C" 
			},
			{
				"x": 0.5636960023,
				"y": -1.555555668,
				"z": -1.6172947832,
				"element": "C" 
			},
			{
				"x": 0.6708678763,
				"y": -0.7072096209,
				"z": -2.6646090892,
				"element": "F" 
			},
			{
				"x": 1.8244605096,
				"y": -1.8726133957,
				"z": -1.2332339036,
				"element": "F" 
			},
			{
				"x": -0.0304328935,
				"y": -2.6681103638,
				"z": -2.0367921752,
				"element": "F" 
			},
			{
				"x": -3.4526785952,
				"y": -1.011411792,
				"z": 1.1350064245,
				"element": "H" 
			},
			{
				"x": 2.4778311363,
				"y": -0.1016524172,
				"z": 0.5874787708,
				"element": "H" 
			},
			{
				"x": 3.1025478181,
				"y": 1.4305494811,
				"z": -1.3157800451,
				"element": "H" 
			},
			{
				"x": 1.3332228589,
				"y": 1.749845709,
				"z": -1.6362727741,
				"element": "H" 
			},
			{
				"x": 1.0353091499,
				"y": 2.6491204557,
				"z": 0.7033345143,
				"element": "H" 
			},
			{
				"x": 2.8004849323,
				"y": 2.3504462468,
				"z": 1.0637510858,
				"element": "H" 
			}
		],
		 "valence_orbital": [ 
			{
				"type": "occ",
				"energy": -0.32248,
				"method": "rhf"
			},
			{
				"type": "occ",
				"energy": -0.31877,
				"method": "rhf"
			},
			{
				"type": "occ",
				"energy": -0.30859,
				"method": "rhf"
			},
			{
				"type": "occ",
				"energy": -0.29823,
				"method": "rhf"
			},
			{
				"type": "occ",
				"energy": -0.28017,
				"method": "rhf"
			},
			{
				"type": "unocc",
				"energy": -0.0615,
				"method": "rhf"
			},
			{
				"type": "unocc",
				"energy": -0.03841,
				"method": "rhf"
			},
			{
				"type": "unocc",
				"energy": 0.06991,
				"method": "rhf"
			},
			{
				"type": "unocc",
				"energy": 0.08045,
				"method": "rhf"
			},
			{
				"type": "unocc",
				"energy": 0.08137,
				"method": "rhf"
			}
		],
		"cosmo_sigma_profile": { 
			"-0.025": 0.0,
			"-0.024": 0.0,
			"-0.023": 0.0,
			"-0.022": 0.0,
			"-0.021": 0.0,
			"-0.02": 0.0,
			"-0.019": 0.0,
			"-0.018": 0.0,
			"-0.017": 0.0,
			"-0.016": 0.0,
			"-0.015": 0.16541451946,
			"-0.014": 0.669637752004,
			"-0.013": 0.658336290139,
			"-0.012": 0.413138311857,
			"-0.011": 0.643199429443,
			"-0.01": 0.864012452163,
			"-0.009": 1.06131714111,
			"-0.008": 4.20723819793,
			"-0.007": 8.71698740375,
			"-0.006": 17.0157288557,
			"-0.005": 16.98541798,
			"-0.004": 15.287571253,
			"-0.003": 11.8296168376,
			"-0.002": 12.4583345308,
			"-0.001": 12.4426840885,
			"0.0": 13.0301381894,
			"0.001": 20.8736647015,
			"0.002": 23.7696843419,
			"0.003": 6.6823694867,
			"0.004": 4.87798020353,
			"0.005": 5.86659200361,
			"0.006": 4.96337911098,
			"0.007": 6.33195863578,
			"0.008": 6.69634038102,
			"0.009": 6.81611376057,
			"0.01": 6.35917469671,
			"0.011": 4.36974781062,
			"0.012": 2.15896438761,
			"0.013": 0.29770204463,
			"0.014": 0.0,
			"0.015": 0.0,
			"0.016": 0.0,
			"0.017": 0.0,
			"0.018": 0.0,
			"0.019": 0.0,
			"0.02": 0.0,
			"0.021": 0.0,
			"0.022": 0.0,
			"0.023": 0.0,
			"0.024": 0.0,
			"0.025": 0.0
		}
	}
}
