{
	 "smiles": "CC1=NN(C(C)=C1)C1=CC=C(C=C1)S(N)(=O)=O", 
	 "Tm": 517.15, 
	 "num_atms": 30, 
	 "gaussian": { 
		 "optdone": 1, 
		 "sigma_profile": "yes", 
		 "theory": "DFT", 
		 "functional": "B3LYP", 
		 "basiset": "6-31G**", 
		 "properties": { 
			 "R2extent": 7620.1108, 
			 "electric_dipole_moment_norm": 6.04995706514, 
			 "electric_quadrupole_moment_norm": 31.1932507226, 
			 "total_energy": -1139.81830385, 
			 "HOMO_LUMO_gap": 0.18597, 
			 "cosmo_polarized_energy": -21.6, 
			 "cosmo_cavitation_energy": 35.39, 
			 "cosmo_dispersion_energy": -26.12, 
			 "cosmo_repulsion_energy": 1.99, 
			 "cosmo_total_nonelectrostatic_energy": 11.26, 
			 "SMD_solvation_energy": 5.09 
		},
		"coords": [
			{
				"x": 2.185596381,
				"y": 2.6825217977,
				"z": 2.2779517147,
				"element": "C" 
			},
			{
				"x": 1.8478155587,
				"y": 1.5512567863,
				"z": 1.3562276125,
				"element": "C" 
			},
			{
				"x": 0.6358104253,
				"y": 1.0113205487,
				"z": 1.3690605146,
				"element": "N" 
			},
			{
				"x": 0.6724547288,
				"y": 0.0101006368,
				"z": 0.4357539784,
				"element": "N" 
			},
			{
				"x": 1.9046296351,
				"y": -0.0690806111,
				"z": -0.1835794481,
				"element": "C" 
			},
			{
				"x": 2.2557584987,
				"y": -1.0025548043,
				"z": -1.3004258784,
				"element": "C" 
			},
			{
				"x": 2.6781593268,
				"y": 0.9117410218,
				"z": 0.3991465233,
				"element": "C" 
			},
			{
				"x": -0.5173988141,
				"y": -0.7143917585,
				"z": 0.1925196571,
				"element": "C" 
			},
			{
				"x": -1.748009808,
				"y": -0.0527323958,
				"z": 0.3318692049,
				"element": "C" 
			},
			{
				"x": -2.935533435,
				"y": -0.738319641,
				"z": 0.1080050922,
				"element": "C" 
			},
			{
				"x": -2.8980478365,
				"y": -2.0880008451,
				"z": -0.2569981067,
				"element": "C" 
			},
			{
				"x": -1.6802091614,
				"y": -2.7533766456,
				"z": -0.3990571568,
				"element": "C" 
			},
			{
				"x": -0.4892334694,
				"y": -2.0697523303,
				"z": -0.1630052728,
				"element": "C" 
			},
			{
				"x": -4.43296121,
				"y": -2.9821723943,
				"z": -0.523142584,
				"element": "S" 
			},
			{
				"x": -4.9190138832,
				"y": -3.5782482709,
				"z": 0.9733472275,
				"element": "N" 
			},
			{
				"x": -5.4497126033,
				"y": -2.0028646786,
				"z": -0.9022342239,
				"element": "O" 
			},
			{
				"x": -4.1165537759,
				"y": -4.1598954301,
				"z": -1.3296747025,
				"element": "O" 
			},
			{
				"x": 1.3097525386,
				"y": 2.953949909,
				"z": 2.8710726538,
				"element": "H" 
			},
			{
				"x": 2.5142840249,
				"y": 3.5656234289,
				"z": 1.7189002791,
				"element": "H" 
			},
			{
				"x": 2.9964714777,
				"y": 2.4101768906,
				"z": 2.9627282401,
				"element": "H" 
			},
			{
				"x": 3.130765074,
				"y": -0.6134914003,
				"z": -1.8262075576,
				"element": "H" 
			},
			{
				"x": 2.5097764032,
				"y": -2.00846982,
				"z": -0.9459654657,
				"element": "H" 
			},
			{
				"x": 1.4415465498,
				"y": -1.1015922905,
				"z": -2.0244806482,
				"element": "H" 
			},
			{
				"x": 3.7045266805,
				"y": 1.1442720667,
				"z": 0.1529502416,
				"element": "H" 
			},
			{
				"x": -1.748691603,
				"y": 0.9927277094,
				"z": 0.6133498278,
				"element": "H" 
			},
			{
				"x": -3.8887965362,
				"y": -0.2257636113,
				"z": 0.182844691,
				"element": "H" 
			},
			{
				"x": -1.6671369722,
				"y": -3.7963555126,
				"z": -0.6965447073,
				"element": "H" 
			},
			{
				"x": 0.4523307263,
				"y": -2.5986306585,
				"z": -0.2353475611,
				"element": "H" 
			},
			{
				"x": -4.2727226946,
				"y": -4.2622531415,
				"z": 1.3540174522,
				"element": "H" 
			},
			{
				"x": -5.1540562267,
				"y": -2.8431445555,
				"z": 1.6328184022,
				"element": "H" 
			}
		],
		 "valence_orbital": [ 
			{
				"type": "occ",
				"energy": -0.2919,
				"method": "rhf"
			},
			{
				"type": "occ",
				"energy": -0.2874,
				"method": "rhf"
			},
			{
				"type": "occ",
				"energy": -0.27727,
				"method": "rhf"
			},
			{
				"type": "occ",
				"energy": -0.24657,
				"method": "rhf"
			},
			{
				"type": "occ",
				"energy": -0.23497,
				"method": "rhf"
			},
			{
				"type": "unocc",
				"energy": -0.049,
				"method": "rhf"
			},
			{
				"type": "unocc",
				"energy": -0.02829,
				"method": "rhf"
			},
			{
				"type": "unocc",
				"energy": 0.0178,
				"method": "rhf"
			},
			{
				"type": "unocc",
				"energy": 0.05058,
				"method": "rhf"
			},
			{
				"type": "unocc",
				"energy": 0.05961,
				"method": "rhf"
			}
		],
		"cosmo_sigma_profile": { 
			"-0.025": 0.0,
			"-0.024": 0.0,
			"-0.023": 0.0,
			"-0.022": 0.0,
			"-0.021": 0.0,
			"-0.02": 0.0,
			"-0.019": 0.0,
			"-0.018": 0.0,
			"-0.017": 0.0,
			"-0.016": 0.0954945179817,
			"-0.015": 2.05775554562,
			"-0.014": 3.08749306609,
			"-0.013": 2.36219166503,
			"-0.012": 3.66796769052,
			"-0.011": 2.33702592266,
			"-0.01": 2.15770014627,
			"-0.009": 2.10931802005,
			"-0.008": 4.43878883999,
			"-0.007": 8.5579132162,
			"-0.006": 12.2071009264,
			"-0.005": 16.3583420298,
			"-0.004": 18.9489459686,
			"-0.003": 19.3093754492,
			"-0.002": 22.9764030302,
			"-0.001": 23.0495200336,
			"0.0": 18.5122428795,
			"0.001": 17.4349658779,
			"0.002": 19.2772578278,
			"0.003": 11.3607220256,
			"0.004": 10.4075409194,
			"0.005": 9.43399324007,
			"0.006": 5.31303336065,
			"0.007": 5.54376271527,
			"0.008": 7.03576673625,
			"0.009": 5.87378940828,
			"0.01": 8.19362412318,
			"0.011": 12.19141413,
			"0.012": 5.38312916934,
			"0.013": 1.02978347508,
			"0.014": 0.877259879372,
			"0.015": 0.150548289076,
			"0.016": 0.0,
			"0.017": 0.0,
			"0.018": 0.0,
			"0.019": 0.0,
			"0.02": 0.0,
			"0.021": 0.0,
			"0.022": 0.0,
			"0.023": 0.0,
			"0.024": 0.0,
			"0.0": 0.0
		}
	}
}
