{
	 "smiles": "ClC1=CC(=CC=C1)S(=O)(=O)NC1=C(Cl)N=C2C=CC=CC2=N1", 
	 "Tm": 432.15, 
	 "num_atms": 31, 
	 "gaussian": { 
		 "optdone": 1, 
		 "sigma_profile": "yes", 
		 "theory": "DFT", 
		 "functional": "B3LYP", 
		 "basiset": "6-31G**", 
		 "properties": { 
			 "R2extent": 12582.4518, 
			 "electric_dipole_moment_norm": 7.08893125513, 
			 "electric_quadrupole_moment_norm": 20.7132584443, 
			 "total_energy": -2172.11276639, 
			 "HOMO_LUMO_gap": 0.16761, 
			 "cosmo_polarized_energy": -18.49, 
			 "cosmo_cavitation_energy": 41.54, 
			 "cosmo_dispersion_energy": -29.34, 
			 "cosmo_repulsion_energy": 2.21, 
			 "cosmo_total_nonelectrostatic_energy": 14.41, 
			 "SMD_solvation_energy": 2.69 
		},
		"coords": [
			{
				"x": 5.270398552,
				"y": -4.2062023208,
				"z": 2.6600357137,
				"element": "Cl" 
			},
			{
				"x": 4.5024661667,
				"y": -3.2985785056,
				"z": 1.3712311496,
				"element": "C" 
			},
			{
				"x": 3.5186756984,
				"y": -3.9121872695,
				"z": 0.5984726155,
				"element": "C" 
			},
			{
				"x": 2.9266641775,
				"y": -3.1666227349,
				"z": -0.4227985055,
				"element": "C" 
			},
			{
				"x": 3.3016016657,
				"y": -1.8492509288,
				"z": -0.6905733617,
				"element": "C" 
			},
			{
				"x": 4.2914692321,
				"y": -1.2625155692,
				"z": 0.0979010849,
				"element": "C" 
			},
			{
				"x": 4.8933604063,
				"y": -1.9793143354,
				"z": 1.1329384733,
				"element": "C" 
			},
			{
				"x": 1.6377355246,
				"y": -3.9361592811,
				"z": -1.4169815709,
				"element": "S" 
			},
			{
				"x": 1.7982941516,
				"y": -5.381968751,
				"z": -1.3035453552,
				"element": "O" 
			},
			{
				"x": 1.5781456183,
				"y": -3.2271472093,
				"z": -2.6902916335,
				"element": "O" 
			},
			{
				"x": 0.1632941621,
				"y": -3.5929826579,
				"z": -0.5932464037,
				"element": "N" 
			},
			{
				"x": -0.3659350481,
				"y": -2.2787303183,
				"z": -0.614353709,
				"element": "C" 
			},
			{
				"x": -1.181168196,
				"y": -1.8155423072,
				"z": -1.7110619905,
				"element": "C" 
			},
			{
				"x": -1.5834533042,
				"y": -2.8892494859,
				"z": -3.0253369969,
				"element": "Cl" 
			},
			{
				"x": -1.6920097795,
				"y": -0.6207026868,
				"z": -1.7337509515,
				"element": "N" 
			},
			{
				"x": -1.4653574731,
				"y": 0.195105086,
				"z": -0.6632006399,
				"element": "C" 
			},
			{
				"x": -2.002569771,
				"y": 1.5046300117,
				"z": -0.6459366567,
				"element": "C" 
			},
			{
				"x": -1.7983212647,
				"y": 2.3099171371,
				"z": 0.4545518167,
				"element": "C" 
			},
			{
				"x": -1.0600602919,
				"y": 1.8406362299,
				"z": 1.569948342,
				"element": "C" 
			},
			{
				"x": -0.5263857662,
				"y": 0.5694967146,
				"z": 1.5769425797,
				"element": "C" 
			},
			{
				"x": -0.7149276663,
				"y": -0.2747561379,
				"z": 0.4558315562,
				"element": "C" 
			},
			{
				"x": -0.1643759095,
				"y": -1.5221349098,
				"z": 0.438600693,
				"element": "N" 
			},
			{
				"x": 3.2361664178,
				"y": -4.9449941869,
				"z": 0.7658164227,
				"element": "H" 
			},
			{
				"x": 2.8424665827,
				"y": -1.3108260577,
				"z": -1.5114330598,
				"element": "H" 
			},
			{
				"x": 4.602692067,
				"y": -0.2410262167,
				"z": -0.0968799701,
				"element": "H" 
			},
			{
				"x": 5.664484311,
				"y": -1.5268872174,
				"z": 1.7464473094,
				"element": "H" 
			},
			{
				"x": 0.2420167426,
				"y": -3.9305328422,
				"z": 0.3646847215,
				"element": "H" 
			},
			{
				"x": -2.5698984435,
				"y": 1.8378896936,
				"z": -1.5084098151,
				"element": "H" 
			},
			{
				"x": -2.2089530842,
				"y": 3.3149023134,
				"z": 0.4727543387,
				"element": "H" 
			},
			{
				"x": -0.9156269983,
				"y": 2.4930682053,
				"z": 2.4257614356,
				"element": "H" 
			},
			{
				"x": 0.0456115204,
				"y": 0.1892665387,
				"z": 2.4168823677,
				"element": "H" 
			}
		],
		 "valence_orbital": [ 
			{
				"type": "occ",
				"energy": -0.28772,
				"method": "rhf"
			},
			{
				"type": "occ",
				"energy": -0.27848,
				"method": "rhf"
			},
			{
				"type": "occ",
				"energy": -0.27039,
				"method": "rhf"
			},
			{
				"type": "occ",
				"energy": -0.26046,
				"method": "rhf"
			},
			{
				"type": "occ",
				"energy": -0.25862,
				"method": "rhf"
			},
			{
				"type": "unocc",
				"energy": -0.09101,
				"method": "rhf"
			},
			{
				"type": "unocc",
				"energy": -0.05758,
				"method": "rhf"
			},
			{
				"type": "unocc",
				"energy": -0.04462,
				"method": "rhf"
			},
			{
				"type": "unocc",
				"energy": -0.03851,
				"method": "rhf"
			},
			{
				"type": "unocc",
				"energy": -0.00879,
				"method": "rhf"
			}
		],
		"cosmo_sigma_profile": { 
			"-0.025": 0.0,
			"-0.024": 0.0,
			"-0.023": 0.0,
			"-0.022": 0.0,
			"-0.021": 0.0,
			"-0.02": 0.0,
			"-0.019": 0.0,
			"-0.018": 0.0,
			"-0.017": 0.127718217944,
			"-0.016": 0.662438036144,
			"-0.015": 0.923128294944,
			"-0.014": 1.68590878952,
			"-0.013": 0.969443202588,
			"-0.012": 0.818739854693,
			"-0.011": 0.586776611465,
			"-0.01": 1.03793314038,
			"-0.009": 1.81079387577,
			"-0.008": 6.92798305318,
			"-0.007": 17.2537336908,
			"-0.006": 19.2449537558,
			"-0.005": 16.9322571447,
			"-0.004": 16.7327146149,
			"-0.003": 17.2589807405,
			"-0.002": 18.3860463592,
			"-0.001": 23.2788486507,
			"0.0": 33.0479112485,
			"0.001": 35.1172956076,
			"0.002": 29.0137968638,
			"0.003": 24.1009591487,
			"0.004": 21.8053602959,
			"0.005": 9.50254086805,
			"0.006": 6.42917051326,
			"0.007": 7.31441024199,
			"0.008": 6.55898680788,
			"0.009": 9.26664965146,
			"0.01": 9.09514749758,
			"0.011": 3.43691623507,
			"0.012": 0.546180616309,
			"0.013": 0.107903364793,
			"0.014": 0.0,
			"0.015": 0.0,
			"0.016": 0.0,
			"0.017": 0.0,
			"0.018": 0.0,
			"0.019": 0.0,
			"0.02": 0.0,
			"0.021": 0.0,
			"0.022": 0.0,
			"0.023": 0.0,
			"0.024": 0.0,
			"0.025": 0.0
		}
	}
}
