{
	 "smiles": "IC1=CC=C(C=C1)N1C=CC=C1C=O", 
	 "Tm": 372.15, 
	 "num_atms": 22, 
	 "gaussian": { 
		 "optdone": 1, 
		 "sigma_profile": "no", 
		 "theory": "DFT", 
		 "functional": "B3LYP", 
		 "basiset": "6-31G**", 
		 "properties": { 
			 "R2extent": 3889.8824, 
			 "electric_dipole_moment_norm": 3.86236000005, 
			 "electric_quadrupole_moment_norm": 19.032811937, 
			 "total_energy": -565.328848658, 
			 "HOMO_LUMO_gap": 0.17841, 
			 "cosmo_polarized_energy": -104366.01, 
			 "cosmo_cavitation_energy": 30.2, 
			 "cosmo_dispersion_energy": -22.92, 
			 "cosmo_repulsion_energy": 1.76, 
			 "cosmo_total_nonelectrostatic_energy": 9.04, 
			 "SMD_solvation_energy": 5.63 
		},
		"coords": [
			{
				"x": -3.9529108291,
				"y": -1.6475065776,
				"z": -0.5363600209,
				"element": "I" 
			},
			{
				"x": -1.9178022301,
				"y": -1.0653596427,
				"z": -0.4796259752,
				"element": "C" 
			},
			{
				"x": -1.3046012186,
				"y": -0.8145100423,
				"z": 0.7495711791,
				"element": "C" 
			},
			{
				"x": 0.0382406753,
				"y": -0.4399656882,
				"z": 0.7836038241,
				"element": "C" 
			},
			{
				"x": 0.7614688077,
				"y": -0.301395709,
				"z": -0.4054621484,
				"element": "C" 
			},
			{
				"x": 0.1349396996,
				"y": -0.5424548004,
				"z": -1.6332569984,
				"element": "C" 
			},
			{
				"x": -1.2024695839,
				"y": -0.9346986814,
				"z": -1.6722120232,
				"element": "C" 
			},
			{
				"x": 2.1213757911,
				"y": 0.1191758725,
				"z": -0.3558145774,
				"element": "N" 
			},
			{
				"x": 2.5511390718,
				"y": 1.2480596194,
				"z": 0.2958883451,
				"element": "C" 
			},
			{
				"x": 3.9152938103,
				"y": 1.3867406832,
				"z": 0.1043682018,
				"element": "C" 
			},
			{
				"x": 4.3363522863,
				"y": 0.3029942163,
				"z": -0.6920552452,
				"element": "C" 
			},
			{
				"x": 3.2238605874,
				"y": -0.4816367959,
				"z": -0.9757436008,
				"element": "C" 
			},
			{
				"x": 3.1893416204,
				"y": -1.7633364203,
				"z": -1.6650581492,
				"element": "C" 
			},
			{
				"x": 4.1640612479,
				"y": -2.2575214446,
				"z": -2.2118825461,
				"element": "O" 
			},
			{
				"x": -1.8580502544,
				"y": -0.921697299,
				"z": 1.6754420286,
				"element": "H" 
			},
			{
				"x": 0.5319500809,
				"y": -0.2699510251,
				"z": 1.7349627484,
				"element": "H" 
			},
			{
				"x": 0.6874928034,
				"y": -0.405699079,
				"z": -2.5568368669,
				"element": "H" 
			},
			{
				"x": -1.681022515,
				"y": -1.120664582,
				"z": -2.6268619663,
				"element": "H" 
			},
			{
				"x": 1.8433377474,
				"y": 1.8823676111,
				"z": 0.8093166165,
				"element": "H" 
			},
			{
				"x": 4.5259784985,
				"y": 2.1884227735,
				"z": 0.4946910346,
				"element": "H" 
			},
			{
				"x": 5.3374663356,
				"y": 0.0700827986,
				"z": -1.0248290607,
				"element": "H" 
			},
			{
				"x": 2.2131575676,
				"y": -2.2910457872,
				"z": -1.6582447996,
				"element": "H" 
			}
		],
		 "valence_orbital": [ 
			{
				"type": "occ",
				"energy": -0.27978,
				"method": "rhf"
			},
			{
				"type": "occ",
				"energy": -0.27112,
				"method": "rhf"
			},
			{
				"type": "occ",
				"energy": -0.24921,
				"method": "rhf"
			},
			{
				"type": "occ",
				"energy": -0.24086,
				"method": "rhf"
			},
			{
				"type": "occ",
				"energy": -0.23268,
				"method": "rhf"
			},
			{
				"type": "unocc",
				"energy": -0.05427,
				"method": "rhf"
			},
			{
				"type": "unocc",
				"energy": -0.05007,
				"method": "rhf"
			},
			{
				"type": "unocc",
				"energy": -0.03693,
				"method": "rhf"
			},
			{
				"type": "unocc",
				"energy": -0.03244,
				"method": "rhf"
			},
			{
				"type": "unocc",
				"energy": 0.03554,
				"method": "rhf"
			}
		],
		"cosmo_sigma_profile": { 
			"0.0": 0.0,
			"0.0": 0.0,
			"0.0": 0.0,
			"0.0": 0.0,
			"0.0": 0.0,
			"0.0": 0.0,
			"0.0": 0.0,
			"0.0": 0.0,
			"0.0": 0.0,
			"0.0": 0.0,
			"0.0": 0.0,
			"0.0": 0.0,
			"0.0": 0.0,
			"0.0": 0.0,
			"0.0": 0.0,
			"0.0": 0.0,
			"0.0": 0.0,
			"0.0": 0.0,
			"0.0": 0.0,
			"0.0": 0.0,
			"0.0": 0.0,
			"0.0": 0.0,
			"0.0": 0.0,
			"0.0": 0.0,
			"0.0": 0.0,
			"0.0": 0.0,
			"0.0": 0.0,
			"0.0": 0.0,
			"0.0": 0.0,
			"0.0": 0.0,
			"0.0": 0.0,
			"0.0": 0.0,
			"0.0": 0.0,
			"0.0": 0.0,
			"0.0": 0.0,
			"0.0": 0.0,
			"0.0": 0.0,
			"0.0": 0.0,
			"0.0": 0.0,
			"0.0": 0.0,
			"0.0": 0.0,
			"0.0": 0.0,
			"0.0": 0.0,
			"0.0": 0.0,
			"0.0": 0.0,
			"0.0": 0.0,
			"0.0": 0.0,
			"0.0": 0.0,
			"0.0": 0.0,
			"0.0": 0.0,
			"0.0": 0.0
		}
	}
}
