{
	 "smiles": "CCOC(=O)C1=C(N)SC=C1C", 
	 "Tm": 354.15, 
	 "num_atms": 23, 
	 "gaussian": { 
		 "optdone": 1, 
		 "sigma_profile": "yes", 
		 "theory": "DFT", 
		 "functional": "B3LYP", 
		 "basiset": "6-31G**", 
		 "properties": { 
			 "R2extent": 2801.1801, 
			 "electric_dipole_moment_norm": 2.86544620784, 
			 "electric_quadrupole_moment_norm": 10.0530599859, 
			 "total_energy": -914.881987486, 
			 "HOMO_LUMO_gap": 0.17866, 
			 "cosmo_polarized_energy": -10.41, 
			 "cosmo_cavitation_energy": 27.72, 
			 "cosmo_dispersion_energy": -20.85, 
			 "cosmo_repulsion_energy": 1.63, 
			 "cosmo_total_nonelectrostatic_energy": 8.51, 
			 "SMD_solvation_energy": 5.59 
		},
		"coords": [
			{
				"x": -1.6393030071,
				"y": -0.0201822427,
				"z": -3.480261255,
				"element": "C" 
			},
			{
				"x": -1.1372956686,
				"y": 1.2563368182,
				"z": -2.8217575502,
				"element": "C" 
			},
			{
				"x": -1.1352878684,
				"y": 1.1454520204,
				"z": -1.3794996952,
				"element": "O" 
			},
			{
				"x": -0.0211727293,
				"y": 0.567078386,
				"z": -0.814786219,
				"element": "C" 
			},
			{
				"x": 0.9075935345,
				"y": 0.1742915429,
				"z": -1.4998556062,
				"element": "O" 
			},
			{
				"x": -0.0983801144,
				"y": 0.4887090696,
				"z": 0.6435329745,
				"element": "C" 
			},
			{
				"x": -1.1656561667,
				"y": 0.9449292959,
				"z": 1.4185693127,
				"element": "C" 
			},
			{
				"x": -2.2926366268,
				"y": 1.6163561801,
				"z": 1.0313409172,
				"element": "N" 
			},
			{
				"x": -0.8914919483,
				"y": 0.640679147,
				"z": 3.1179484665,
				"element": "S" 
			},
			{
				"x": 0.6550792627,
				"y": -0.1104641901,
				"z": 2.776087711,
				"element": "C" 
			},
			{
				"x": 0.9511754735,
				"y": -0.1188370128,
				"z": 1.4503838118,
				"element": "C" 
			},
			{
				"x": 2.2251643646,
				"y": -0.7055259343,
				"z": 0.907034283,
				"element": "C" 
			},
			{
				"x": -0.9561733717,
				"y": -0.8477486783,
				"z": -3.2760151826,
				"element": "H" 
			},
			{
				"x": -1.6977743183,
				"y": 0.1187620743,
				"z": -4.5651211963,
				"element": "H" 
			},
			{
				"x": -2.6364640539,
				"y": -0.2846069158,
				"z": -3.1148803994,
				"element": "H" 
			},
			{
				"x": -1.7985014794,
				"y": 2.1017657311,
				"z": -3.0298756999,
				"element": "H" 
			},
			{
				"x": -0.1257907081,
				"y": 1.4975716331,
				"z": -3.1547280192,
				"element": "H" 
			},
			{
				"x": -2.466886216,
				"y": 1.6066812536,
				"z": 0.0353704413,
				"element": "H" 
			},
			{
				"x": -3.0996269499,
				"y": 1.5690844869,
				"z": 1.6344566247,
				"element": "H" 
			},
			{
				"x": 1.245190471,
				"y": -0.4999273825,
				"z": 3.593229152,
				"element": "H" 
			},
			{
				"x": 2.0213260498,
				"y": -1.5129969144,
				"z": 0.1981701198,
				"element": "H" 
			},
			{
				"x": 2.8383739653,
				"y": -1.0980317909,
				"z": 1.7232940052,
				"element": "H" 
			},
			{
				"x": 2.8043381053,
				"y": 0.0420234226,
				"z": 0.3577630036,
				"element": "H" 
			}
		],
		 "valence_orbital": [ 
			{
				"type": "occ",
				"energy": -0.30888,
				"method": "rhf"
			},
			{
				"type": "occ",
				"energy": -0.29335,
				"method": "rhf"
			},
			{
				"type": "occ",
				"energy": -0.26442,
				"method": "rhf"
			},
			{
				"type": "occ",
				"energy": -0.24406,
				"method": "rhf"
			},
			{
				"type": "occ",
				"energy": -0.19677,
				"method": "rhf"
			},
			{
				"type": "unocc",
				"energy": -0.01811,
				"method": "rhf"
			},
			{
				"type": "unocc",
				"energy": 0.0155,
				"method": "rhf"
			},
			{
				"type": "unocc",
				"energy": 0.02473,
				"method": "rhf"
			},
			{
				"type": "unocc",
				"energy": 0.08434,
				"method": "rhf"
			},
			{
				"type": "unocc",
				"energy": 0.10413,
				"method": "rhf"
			}
		],
		"cosmo_sigma_profile": { 
			"-0.025": 0.0,
			"-0.024": 0.0,
			"-0.023": 0.0,
			"-0.022": 0.0,
			"-0.021": 0.0,
			"-0.02": 0.0,
			"-0.019": 0.0,
			"-0.018": 0.0,
			"-0.017": 0.0,
			"-0.016": 0.0,
			"-0.015": 0.305094095939,
			"-0.014": 1.35557138702,
			"-0.013": 1.29795286779,
			"-0.012": 1.50287580937,
			"-0.011": 1.37523248159,
			"-0.01": 2.46879820854,
			"-0.009": 2.10018949849,
			"-0.008": 2.15020167266,
			"-0.007": 3.51244374884,
			"-0.006": 5.20894233023,
			"-0.005": 7.40272716887,
			"-0.004": 14.1102659997,
			"-0.003": 19.6215228326,
			"-0.002": 18.6464932111,
			"-0.001": 18.7971270829,
			"0.0": 23.2934687443,
			"0.001": 21.2712866413,
			"0.002": 14.8549822793,
			"0.003": 14.8483867053,
			"0.004": 15.1642346229,
			"0.005": 10.3664669313,
			"0.006": 5.70099954741,
			"0.007": 2.8455588838,
			"0.008": 2.48036980583,
			"0.009": 1.82225930346,
			"0.01": 2.51723407179,
			"0.011": 2.09324147188,
			"0.012": 2.25108358759,
			"0.013": 1.90875096029,
			"0.014": 0.0,
			"0.015": 0.0,
			"0.016": 0.0,
			"0.017": 0.0,
			"0.018": 0.0,
			"0.019": 0.0,
			"0.02": 0.0,
			"0.021": 0.0,
			"0.022": 0.0,
			"0.023": 0.0,
			"0.024": 0.0,
			"0.025": 0.0
		}
	}
}
