{
	 "smiles": "CC1(C)C(C=C(Br)Br)C1C(=O)OC(C#N)C1=CC=CC(OC2=CC=CC=C2)=C1", 
	 "Tm": 373.15, 
	 "num_atms": 47, 
	 "gaussian": { 
		 "optdone": 1, 
		 "sigma_profile": "yes", 
		 "theory": "DFT", 
		 "functional": "B3LYP", 
		 "basiset": "6-31G**", 
		 "properties": { 
			 "R2extent": 23230.2184, 
			 "electric_dipole_moment_norm": 4.94224856821, 
			 "electric_quadrupole_moment_norm": 16.1615531775, 
			 "total_energy": -6272.9486418, 
			 "HOMO_LUMO_gap": 0.18732, 
			 "cosmo_polarized_energy": -17.77, 
			 "cosmo_cavitation_energy": 57.55, 
			 "cosmo_dispersion_energy": -37.15, 
			 "cosmo_repulsion_energy": 2.9, 
			 "cosmo_total_nonelectrostatic_energy": 23.3, 
			 "SMD_solvation_energy": 9.5 
		},
		"coords": [
			{
				"x": -2.0720484433,
				"y": -3.5596115695,
				"z": 0.0451184417,
				"element": "C" 
			},
			{
				"x": -2.2315093694,
				"y": -2.0468351622,
				"z": 0.0746529411,
				"element": "C" 
			},
			{
				"x": -2.373282222,
				"y": -1.4938284026,
				"z": 1.4833404038,
				"element": "C" 
			},
			{
				"x": -2.9902956695,
				"y": -1.3429256648,
				"z": -1.0360689753,
				"element": "C" 
			},
			{
				"x": -3.6567144715,
				"y": -2.0603826168,
				"z": -2.1395126122,
				"element": "C" 
			},
			{
				"x": -4.8279990232,
				"y": -1.7383730732,
				"z": -2.6972290603,
				"element": "C" 
			},
			{
				"x": -5.5635782941,
				"y": -2.7632029694,
				"z": -4.1232207552,
				"element": "Br" 
			},
			{
				"x": -5.889648276,
				"y": -0.2550408696,
				"z": -2.1563376149,
				"element": "Br" 
			},
			{
				"x": -1.4580761839,
				"y": -1.275036687,
				"z": -0.9966136264,
				"element": "C" 
			},
			{
				"x": -0.7128847001,
				"y": -0.0043459175,
				"z": -0.7874723731,
				"element": "C" 
			},
			{
				"x": 0.436096183,
				"y": 0.1629531659,
				"z": -1.1326104205,
				"element": "O" 
			},
			{
				"x": -1.4619749537,
				"y": 0.9672491191,
				"z": -0.1865665004,
				"element": "O" 
			},
			{
				"x": -0.8166259613,
				"y": 2.2370493365,
				"z": 0.108152375,
				"element": "C" 
			},
			{
				"x": -0.3456723443,
				"y": 2.8976771531,
				"z": -1.1222819425,
				"element": "C" 
			},
			{
				"x": -0.021902992,
				"y": 3.4843450946,
				"z": -2.0690450693,
				"element": "N" 
			},
			{
				"x": 0.2292881554,
				"y": 2.1356455691,
				"z": 1.2072906982,
				"element": "C" 
			},
			{
				"x": -0.2196413575,
				"y": 2.024225329,
				"z": 2.5281740215,
				"element": "C" 
			},
			{
				"x": 0.7074257043,
				"y": 1.8949635334,
				"z": 3.5629142329,
				"element": "C" 
			},
			{
				"x": 2.0719705758,
				"y": 1.8752701559,
				"z": 3.2875505576,
				"element": "C" 
			},
			{
				"x": 2.5148441164,
				"y": 1.9949945641,
				"z": 1.9652034232,
				"element": "C" 
			},
			{
				"x": 3.876400369,
				"y": 2.0232617633,
				"z": 1.794353521,
				"element": "O" 
			},
			{
				"x": 4.479421817,
				"y": 1.6879478097,
				"z": 0.590846171,
				"element": "C" 
			},
			{
				"x": 4.0853764573,
				"y": 0.5870415472,
				"z": -0.1744101701,
				"element": "C" 
			},
			{
				"x": 4.8023317246,
				"y": 0.2762343156,
				"z": -1.3309314258,
				"element": "C" 
			},
			{
				"x": 5.9062591705,
				"y": 1.0404503228,
				"z": -1.7135199622,
				"element": "C" 
			},
			{
				"x": 6.2940100118,
				"y": 2.1309209934,
				"z": -0.9320420907,
				"element": "C" 
			},
			{
				"x": 5.580770651,
				"y": 2.4610028375,
				"z": 0.2198258156,
				"element": "C" 
			},
			{
				"x": 1.5970812804,
				"y": 2.1356168911,
				"z": 0.9209408114,
				"element": "C" 
			},
			{
				"x": -2.9636767836,
				"y": -4.0469088406,
				"z": 0.455222199,
				"element": "H" 
			},
			{
				"x": -1.9083617728,
				"y": -3.9509728861,
				"z": -0.9620220616,
				"element": "H" 
			},
			{
				"x": -1.2149956908,
				"y": -3.8591433591,
				"z": 0.6579544996,
				"element": "H" 
			},
			{
				"x": -3.2346243358,
				"y": -1.9583721224,
				"z": 1.9761672019,
				"element": "H" 
			},
			{
				"x": -2.5163105291,
				"y": -0.4131517034,
				"z": 1.4906034758,
				"element": "H" 
			},
			{
				"x": -1.483228973,
				"y": -1.7238886612,
				"z": 2.0802561123,
				"element": "H" 
			},
			{
				"x": -3.4805687004,
				"y": -0.4248746235,
				"z": -0.7305635653,
				"element": "H" 
			},
			{
				"x": -3.15859965,
				"y": -2.9334166774,
				"z": -2.5513532174,
				"element": "H" 
			},
			{
				"x": -0.9257649276,
				"y": -1.8996019048,
				"z": -1.707412614,
				"element": "H" 
			},
			{
				"x": -1.6557045006,
				"y": 2.8339782657,
				"z": 0.4780975001,
				"element": "H" 
			},
			{
				"x": -1.2839701424,
				"y": 2.0362460207,
				"z": 2.7456252395,
				"element": "H" 
			},
			{
				"x": 0.3658785837,
				"y": 1.8108976032,
				"z": 4.5901653943,
				"element": "H" 
			},
			{
				"x": 2.8093891456,
				"y": 1.7755327755,
				"z": 4.0769235092,
				"element": "H" 
			},
			{
				"x": 3.2264797632,
				"y": -0.0077054864,
				"z": 0.1153875298,
				"element": "H" 
			},
			{
				"x": 4.4916387862,
				"y": -0.5726258728,
				"z": -1.9327005203,
				"element": "H" 
			},
			{
				"x": 6.4580431918,
				"y": 0.7896591408,
				"z": -2.6141990634,
				"element": "H" 
			},
			{
				"x": 7.150889063,
				"y": 2.7326759524,
				"z": -1.2206160373,
				"element": "H" 
			},
			{
				"x": 5.8625322735,
				"y": 3.3047976039,
				"z": 0.8409021489,
				"element": "H" 
			},
			{
				"x": 1.9378332445,
				"y": 2.2264082067,
				"z": -0.1024385464,
				"element": "H" 
			}
		],
		 "valence_orbital": [ 
			{
				"type": "occ",
				"energy": -0.26434,
				"method": "rhf"
			},
			{
				"type": "occ",
				"energy": -0.25697,
				"method": "rhf"
			},
			{
				"type": "occ",
				"energy": -0.2516,
				"method": "rhf"
			},
			{
				"type": "occ",
				"energy": -0.24112,
				"method": "rhf"
			},
			{
				"type": "occ",
				"energy": -0.2221,
				"method": "rhf"
			},
			{
				"type": "unocc",
				"energy": -0.03478,
				"method": "rhf"
			},
			{
				"type": "unocc",
				"energy": -0.03358,
				"method": "rhf"
			},
			{
				"type": "unocc",
				"energy": -0.02851,
				"method": "rhf"
			},
			{
				"type": "unocc",
				"energy": -0.01573,
				"method": "rhf"
			},
			{
				"type": "unocc",
				"energy": -0.0026,
				"method": "rhf"
			}
		],
		"cosmo_sigma_profile": { 
			"-0.025": 0.0,
			"-0.024": 0.0,
			"-0.023": 0.0,
			"-0.022": 0.0,
			"-0.021": 0.0,
			"-0.02": 0.0,
			"-0.019": 0.0,
			"-0.018": 0.0,
			"-0.017": 0.0,
			"-0.016": 0.0,
			"-0.015": 0.0,
			"-0.014": 0.0,
			"-0.013": 0.0,
			"-0.012": 0.12930581342,
			"-0.011": 2.47878286038,
			"-0.01": 3.51225201185,
			"-0.009": 3.58665602796,
			"-0.008": 4.78483068918,
			"-0.007": 8.36211974035,
			"-0.006": 17.7254175493,
			"-0.005": 21.3831605075,
			"-0.004": 34.6435134669,
			"-0.003": 37.0445589032,
			"-0.002": 37.4951669602,
			"-0.001": 41.1411708279,
			"0.0": 42.2300937231,
			"0.001": 40.0422717676,
			"0.002": 40.7221252054,
			"0.003": 45.5387094462,
			"0.004": 36.5567734399,
			"0.005": 14.7727053314,
			"0.006": 6.41147133079,
			"0.007": 6.47929536403,
			"0.008": 6.14499441346,
			"0.009": 5.15081377857,
			"0.01": 4.49583069532,
			"0.011": 3.53096677967,
			"0.012": 2.11268054809,
			"0.013": 0.21073158133,
			"0.014": 0.0,
			"0.015": 0.0,
			"0.016": 0.0,
			"0.017": 0.0,
			"0.018": 0.0,
			"0.019": 0.0,
			"0.02": 0.0,
			"0.021": 0.0,
			"0.022": 0.0,
			"0.023": 0.0,
			"0.024": 0.0,
			"0.025": 0.0
		}
	}
}
