{
	 "smiles": "CCC(=O)C1=C(C)N(C)N=C1C", 
	 "Tm": 324.15, 
	 "num_atms": 26, 
	 "gaussian": { 
		 "optdone": 1, 
		 "sigma_profile": "yes", 
		 "theory": "DFT", 
		 "functional": "B3LYP", 
		 "basiset": "6-31G**", 
		 "properties": { 
			 "R2extent": 2755.8749, 
			 "electric_dipole_moment_norm": 5.05234331474, 
			 "electric_quadrupole_moment_norm": 4.90693298405, 
			 "total_energy": -536.125886274, 
			 "HOMO_LUMO_gap": 0.21005, 
			 "cosmo_polarized_energy": -12.84, 
			 "cosmo_cavitation_energy": 28.39, 
			 "cosmo_dispersion_energy": -20.54, 
			 "cosmo_repulsion_energy": 1.65, 
			 "cosmo_total_nonelectrostatic_energy": 9.49, 
			 "SMD_solvation_energy": 4.52 
		},
		"coords": [
			{
				"x": -1.1589333397,
				"y": 1.5275794879,
				"z": -3.996491711,
				"element": "C" 
			},
			{
				"x": -0.6797393197,
				"y": 1.3474394886,
				"z": -2.5573839086,
				"element": "C" 
			},
			{
				"x": 0.0777307677,
				"y": 0.0366283706,
				"z": -2.3408461221,
				"element": "C" 
			},
			{
				"x": 0.2396878561,
				"y": -0.7366769828,
				"z": -3.2806799858,
				"element": "O" 
			},
			{
				"x": 0.6056808832,
				"y": -0.2855169972,
				"z": -1.0061613949,
				"element": "C" 
			},
			{
				"x": 0.5465193502,
				"y": 0.4289146118,
				"z": 0.2015520099,
				"element": "C" 
			},
			{
				"x": -0.059300187,
				"y": 1.7492129498,
				"z": 0.5713557061,
				"element": "C" 
			},
			{
				"x": 1.1969218544,
				"y": -0.3330544105,
				"z": 1.115427677,
				"element": "N" 
			},
			{
				"x": 1.4307155261,
				"y": -0.0668654282,
				"z": 2.5246631597,
				"element": "C" 
			},
			{
				"x": 1.6786866477,
				"y": -1.4973787325,
				"z": 0.5918822462,
				"element": "N" 
			},
			{
				"x": 1.3284973015,
				"y": -1.4801745543,
				"z": -0.6868901519,
				"element": "C" 
			},
			{
				"x": 1.699708561,
				"y": -2.6215660391,
				"z": -1.5798302351,
				"element": "C" 
			},
			{
				"x": -0.3161968834,
				"y": 1.5196134385,
				"z": -4.6922341362,
				"element": "H" 
			},
			{
				"x": -1.8258998358,
				"y": 0.7133062869,
				"z": -4.2904836175,
				"element": "H" 
			},
			{
				"x": -1.6947267481,
				"y": 2.4752089611,
				"z": -4.1080966971,
				"element": "H" 
			},
			{
				"x": -1.5287802103,
				"y": 1.3783973775,
				"z": -1.861127942,
				"element": "H" 
			},
			{
				"x": -0.0274962014,
				"y": 2.1799650595,
				"z": -2.2606817951,
				"element": "H" 
			},
			{
				"x": 0.3733834215,
				"y": 2.567331984,
				"z": -0.0129663324,
				"element": "H" 
			},
			{
				"x": -1.1391317816,
				"y": 1.759760144,
				"z": 0.3929031082,
				"element": "H" 
			},
			{
				"x": 0.1017293633,
				"y": 1.9780125312,
				"z": 1.6267576966,
				"element": "H" 
			},
			{
				"x": 1.9881015554,
				"y": -0.9182674264,
				"z": 2.9121209254,
				"element": "H" 
			},
			{
				"x": 0.4889577293,
				"y": 0.0263738229,
				"z": 3.0744152566,
				"element": "H" 
			},
			{
				"x": 2.0213847624,
				"y": 0.8436378917,
				"z": 2.6658073944,
				"element": "H" 
			},
			{
				"x": 2.3120750714,
				"y": -2.2811845055,
				"z": -2.4195655613,
				"element": "H" 
			},
			{
				"x": 0.8107234128,
				"y": -3.082716205,
				"z": -2.01920165,
				"element": "H" 
			},
			{
				"x": 2.2518004432,
				"y": -3.3678811245,
				"z": -1.0036439391,
				"element": "H" 
			}
		],
		 "valence_orbital": [ 
			{
				"type": "occ",
				"energy": -0.33536,
				"method": "rhf"
			},
			{
				"type": "occ",
				"energy": -0.28437,
				"method": "rhf"
			},
			{
				"type": "occ",
				"energy": -0.24126,
				"method": "rhf"
			},
			{
				"type": "occ",
				"energy": -0.23903,
				"method": "rhf"
			},
			{
				"type": "occ",
				"energy": -0.23389,
				"method": "rhf"
			},
			{
				"type": "unocc",
				"energy": -0.02384,
				"method": "rhf"
			},
			{
				"type": "unocc",
				"energy": 0.02699,
				"method": "rhf"
			},
			{
				"type": "unocc",
				"energy": 0.07311,
				"method": "rhf"
			},
			{
				"type": "unocc",
				"energy": 0.08079,
				"method": "rhf"
			},
			{
				"type": "unocc",
				"energy": 0.09733,
				"method": "rhf"
			}
		],
		"cosmo_sigma_profile": { 
			"-0.025": 0.0,
			"-0.024": 0.0,
			"-0.023": 0.0,
			"-0.022": 0.0,
			"-0.021": 0.0,
			"-0.02": 0.0,
			"-0.019": 0.0,
			"-0.018": 0.0,
			"-0.017": 0.0,
			"-0.016": 0.0,
			"-0.015": 0.0,
			"-0.014": 0.0,
			"-0.013": 0.0,
			"-0.012": 0.0,
			"-0.011": 0.0,
			"-0.01": 0.0,
			"-0.009": 0.0,
			"-0.008": 0.0,
			"-0.007": 2.21453457422,
			"-0.006": 17.7075649355,
			"-0.005": 16.1374609322,
			"-0.004": 17.0866920204,
			"-0.003": 25.5236937507,
			"-0.002": 24.6437854927,
			"-0.001": 22.4000902309,
			"0.0": 17.886789806,
			"0.001": 16.5405047417,
			"0.002": 11.249098989,
			"0.003": 10.2093164198,
			"0.004": 7.10915683921,
			"0.005": 3.60463743336,
			"0.006": 4.35339068105,
			"0.007": 3.81904800761,
			"0.008": 2.92184166083,
			"0.009": 2.78793856118,
			"0.01": 3.30077795169,
			"0.011": 2.99246116624,
			"0.012": 3.25215565833,
			"0.013": 3.9339730367,
			"0.014": 2.13074493236,
			"0.015": 0.837566950693,
			"0.016": 0.194927937663,
			"0.017": 0.0,
			"0.018": 0.0,
			"0.019": 0.0,
			"0.02": 0.0,
			"0.021": 0.0,
			"0.022": 0.0,
			"0.023": 0.0,
			"0.024": 0.0,
			"0.025": 0.0
		}
	}
}
