{
	 "smiles": "CN(C)CCNC(=O)CC1=CC=C(N)C=C1", 
	 "Tm": 419.15, 
	 "num_atms": 35, 
	 "gaussian": { 
		 "optdone": 1, 
		 "sigma_profile": "yes", 
		 "theory": "DFT", 
		 "functional": "B3LYP", 
		 "basiset": "6-31G**", 
		 "properties": { 
			 "R2extent": 6711.3886, 
			 "electric_dipole_moment_norm": 5.71521689615, 
			 "electric_quadrupole_moment_norm": 13.831506145, 
			 "total_energy": -708.22024432, 
			 "HOMO_LUMO_gap": 0.1973, 
			 "cosmo_polarized_energy": -17.73, 
			 "cosmo_cavitation_energy": 37.79, 
			 "cosmo_dispersion_energy": -26.31, 
			 "cosmo_repulsion_energy": 2.11, 
			 "cosmo_total_nonelectrostatic_energy": 13.6, 
			 "SMD_solvation_energy": 3.97 
		},
		"coords": [
			{
				"x": -2.2105033703,
				"y": -2.4484011903,
				"z": 0.810478866,
				"element": "C" 
			},
			{
				"x": -0.8751499007,
				"y": -2.7270067517,
				"z": 0.2995251313,
				"element": "N" 
			},
			{
				"x": -0.22137256,
				"y": -3.7614914723,
				"z": 1.0907201202,
				"element": "C" 
			},
			{
				"x": -0.0527343728,
				"y": -1.5250065305,
				"z": 0.1840268049,
				"element": "C" 
			},
			{
				"x": -0.4239755529,
				"y": -0.6792500017,
				"z": -1.0457006386,
				"element": "C" 
			},
			{
				"x": 0.393668591,
				"y": 0.5194984934,
				"z": -1.1602071522,
				"element": "N" 
			},
			{
				"x": 1.6446847343,
				"y": 0.4862914658,
				"z": -1.6985941714,
				"element": "C" 
			},
			{
				"x": 2.153947239,
				"y": -0.5374658797,
				"z": -2.1418641097,
				"element": "O" 
			},
			{
				"x": 2.4032676938,
				"y": 1.8268733643,
				"z": -1.7520962469,
				"element": "C" 
			},
			{
				"x": 1.7559299441,
				"y": 3.0304420082,
				"z": -1.1077934609,
				"element": "C" 
			},
			{
				"x": 1.972001426,
				"y": 3.3385679733,
				"z": 0.2440795023,
				"element": "C" 
			},
			{
				"x": 1.3650923648,
				"y": 4.4346735141,
				"z": 0.8503253944,
				"element": "C" 
			},
			{
				"x": 0.5088865635,
				"y": 5.2749567552,
				"z": 0.1171541519,
				"element": "C" 
			},
			{
				"x": -0.0523002567,
				"y": 6.4105010291,
				"z": 0.7010041838,
				"element": "N" 
			},
			{
				"x": 0.2836607545,
				"y": 4.97346613,
				"z": -1.2373507084,
				"element": "C" 
			},
			{
				"x": 0.8979687928,
				"y": 3.8738086406,
				"z": -1.830103337,
				"element": "C" 
			},
			{
				"x": -2.7270545633,
				"y": -1.7267692598,
				"z": 0.1712308447,
				"element": "H" 
			},
			{
				"x": -2.8040020054,
				"y": -3.3683465073,
				"z": 0.8119620684,
				"element": "H" 
			},
			{
				"x": -2.2050244024,
				"y": -2.0447588711,
				"z": 1.8428401366,
				"element": "H" 
			},
			{
				"x": -0.05563701,
				"y": -3.4699994658,
				"z": 2.1466357354,
				"element": "H" 
			},
			{
				"x": -0.8344245136,
				"y": -4.6690445373,
				"z": 1.0883809012,
				"element": "H" 
			},
			{
				"x": 0.7493733898,
				"y": -4.0079610739,
				"z": 0.650444372,
				"element": "H" 
			},
			{
				"x": -0.0985166541,
				"y": -0.8962892652,
				"z": 1.0964009794,
				"element": "H" 
			},
			{
				"x": 0.9899455959,
				"y": -1.8293319056,
				"z": 0.055358095,
				"element": "H" 
			},
			{
				"x": -0.2753263428,
				"y": -1.2855897589,
				"z": -1.9423057498,
				"element": "H" 
			},
			{
				"x": -1.4725118703,
				"y": -0.3679812486,
				"z": -1.0144289782,
				"element": "H" 
			},
			{
				"x": 0.0681667619,
				"y": 1.3888577051,
				"z": -0.7644648587,
				"element": "H" 
			},
			{
				"x": 2.5933623093,
				"y": 2.0125094873,
				"z": -2.8153970103,
				"element": "H" 
			},
			{
				"x": 3.38336179,
				"y": 1.6260664804,
				"z": -1.3066033561,
				"element": "H" 
			},
			{
				"x": 2.6331531167,
				"y": 2.7087008494,
				"z": 0.8349137753,
				"element": "H" 
			},
			{
				"x": 1.5618136906,
				"y": 4.6525682522,
				"z": 1.8973656207,
				"element": "H" 
			},
			{
				"x": -0.8900166421,
				"y": 6.7588721828,
				"z": 0.2562201034,
				"element": "H" 
			},
			{
				"x": -0.1386461011,
				"y": 6.3840660402,
				"z": 1.7073926384,
				"element": "H" 
			},
			{
				"x": -0.3672522345,
				"y": 5.613996219,
				"z": -1.8276864485,
				"element": "H" 
			},
			{
				"x": 0.7092635949,
				"y": 3.6679771292,
				"z": -2.8812631985,
				"element": "H" 
			}
		],
		 "valence_orbital": [ 
			{
				"type": "occ",
				"energy": -0.25495,
				"method": "rhf"
			},
			{
				"type": "occ",
				"energy": -0.24265,
				"method": "rhf"
			},
			{
				"type": "occ",
				"energy": -0.23754,
				"method": "rhf"
			},
			{
				"type": "occ",
				"energy": -0.20757,
				"method": "rhf"
			},
			{
				"type": "occ",
				"energy": -0.20324,
				"method": "rhf"
			},
			{
				"type": "unocc",
				"energy": -0.00594,
				"method": "rhf"
			},
			{
				"type": "unocc",
				"energy": 0.00763,
				"method": "rhf"
			},
			{
				"type": "unocc",
				"energy": 0.04275,
				"method": "rhf"
			},
			{
				"type": "unocc",
				"energy": 0.07475,
				"method": "rhf"
			},
			{
				"type": "unocc",
				"energy": 0.08668,
				"method": "rhf"
			}
		],
		"cosmo_sigma_profile": { 
			"-0.025": 0.0,
			"-0.024": 0.0,
			"-0.023": 0.0,
			"-0.022": 0.0,
			"-0.021": 0.0,
			"-0.02": 0.0,
			"-0.019": 0.0,
			"-0.018": 0.0,
			"-0.017": 0.0,
			"-0.016": 0.0,
			"-0.015": 0.0,
			"-0.014": 0.0,
			"-0.013": 0.15710258755,
			"-0.012": 2.77970908904,
			"-0.011": 3.00792641622,
			"-0.01": 3.47986839792,
			"-0.009": 4.83507750356,
			"-0.008": 3.29851998852,
			"-0.007": 3.67894296842,
			"-0.006": 8.2404372141,
			"-0.005": 19.8643505893,
			"-0.004": 22.0638408546,
			"-0.003": 24.8771077953,
			"-0.002": 26.4613566194,
			"-0.001": 35.6104229051,
			"0.0": 35.021554548,
			"0.001": 16.3220026129,
			"0.002": 11.1082665571,
			"0.003": 9.97181207098,
			"0.004": 11.1017842381,
			"0.005": 10.3023708783,
			"0.006": 8.9720507648,
			"0.007": 6.00040773976,
			"0.008": 4.11689938598,
			"0.009": 3.25231559552,
			"0.01": 1.71313827454,
			"0.011": 2.80203154091,
			"0.012": 2.95157173999,
			"0.013": 3.49020051412,
			"0.014": 5.11626580746,
			"0.015": 4.03775937097,
			"0.016": 0.754254331824,
			"0.017": 0.0117930657449,
			"0.018": 0.0,
			"0.019": 0.0,
			"0.02": 0.0,
			"0.021": 0.0,
			"0.022": 0.0,
			"0.023": 0.0,
			"0.024": 0.0,
			"0.025": 0.0
		}
	}
}
