{
	 "smiles": "IC1=CC(CN2CCOCC2)=CC=C1", 
	 "Tm": 306.15, 
	 "num_atms": 28, 
	 "gaussian": { 
		 "optdone": 1, 
		 "sigma_profile": "no", 
		 "theory": "DFT", 
		 "functional": "B3LYP", 
		 "basiset": "6-31G**", 
		 "properties": { 
			 "R2extent": 4195.0961, 
			 "electric_dipole_moment_norm": 1.56556305846, 
			 "electric_quadrupole_moment_norm": 12.6014306172, 
			 "total_energy": -568.944661767, 
			 "HOMO_LUMO_gap": 0.16973, 
			 "cosmo_polarized_energy": -102348.95, 
			 "cosmo_cavitation_energy": 32.79, 
			 "cosmo_dispersion_energy": -25.17, 
			 "cosmo_repulsion_energy": 1.96, 
			 "cosmo_total_nonelectrostatic_energy": 9.57, 
			 "SMD_solvation_energy": 2.97 
		},
		"coords": [
			{
				"x": -0.1853274488,
				"y": -3.4599430652,
				"z": 4.6551642581,
				"element": "I" 
			},
			{
				"x": 1.0161157733,
				"y": -2.546817289,
				"z": 3.1588173587,
				"element": "C" 
			},
			{
				"x": 0.4602889378,
				"y": -1.5552378367,
				"z": 2.3484074193,
				"element": "C" 
			},
			{
				"x": 1.2396161539,
				"y": -0.945729691,
				"z": 1.3582733908,
				"element": "C" 
			},
			{
				"x": 0.6568524356,
				"y": 0.1773173326,
				"z": 0.5138389966,
				"element": "C" 
			},
			{
				"x": 1.088328073,
				"y": 0.1059774128,
				"z": -0.8826820972,
				"element": "N" 
			},
			{
				"x": 0.4897504235,
				"y": -1.0001903355,
				"z": -1.6467989988,
				"element": "C" 
			},
			{
				"x": -0.9319763435,
				"y": -0.688160022,
				"z": -2.1267488,
				"element": "C" 
			},
			{
				"x": -0.9604943816,
				"y": 0.5209758681,
				"z": -2.8801528345,
				"element": "O" 
			},
			{
				"x": -0.4806325221,
				"y": 1.6205892976,
				"z": -2.1139584961,
				"element": "C" 
			},
			{
				"x": 0.9518540265,
				"y": 1.3597426914,
				"z": -1.6344200504,
				"element": "C" 
			},
			{
				"x": 2.5689623675,
				"y": -1.3532130283,
				"z": 1.1895580126,
				"element": "C" 
			},
			{
				"x": 3.1099340101,
				"y": -2.3476936685,
				"z": 2.0017850935,
				"element": "C" 
			},
			{
				"x": 2.3397122538,
				"y": -2.9545949142,
				"z": 2.9980333046,
				"element": "C" 
			},
			{
				"x": -0.5738928489,
				"y": -1.2542138408,
				"z": 2.4826349576,
				"element": "H" 
			},
			{
				"x": -0.4386038376,
				"y": 0.1895919427,
				"z": 0.6518035306,
				"element": "H" 
			},
			{
				"x": 1.0190291784,
				"y": 1.1350466732,
				"z": 0.9109339913,
				"element": "H" 
			},
			{
				"x": 0.5029116521,
				"y": -1.9086599227,
				"z": -1.0359389938,
				"element": "H" 
			},
			{
				"x": 1.1207907515,
				"y": -1.1818143495,
				"z": -2.5263429161,
				"element": "H" 
			},
			{
				"x": -1.6261348718,
				"y": -0.6149993881,
				"z": -1.2721800752,
				"element": "H" 
			},
			{
				"x": -1.3002536416,
				"y": -1.4766390581,
				"z": -2.790602881,
				"element": "H" 
			},
			{
				"x": -1.1500707029,
				"y": 1.806097769,
				"z": -1.2561449637,
				"element": "H" 
			},
			{
				"x": -0.5207215512,
				"y": 2.4971221094,
				"z": -2.7686929277,
				"element": "H" 
			},
			{
				"x": 1.3115685215,
				"y": 2.1926057173,
				"z": -1.0191876846,
				"element": "H" 
			},
			{
				"x": 1.6014286322,
				"y": 1.2923983496,
				"z": -2.5172588659,
				"element": "H" 
			},
			{
				"x": 3.1608170246,
				"y": -0.8893561275,
				"z": 0.4072905764,
				"element": "H" 
			},
			{
				"x": 4.1417449715,
				"y": -2.6592558858,
				"z": 1.8650596517,
				"element": "H" 
			},
			{
				"x": 2.7631029632,
				"y": -3.728346741,
				"z": 3.6283100431,
				"element": "H" 
			}
		],
		 "valence_orbital": [ 
			{
				"type": "occ",
				"energy": -0.27324,
				"method": "rhf"
			},
			{
				"type": "occ",
				"energy": -0.26675,
				"method": "rhf"
			},
			{
				"type": "occ",
				"energy": -0.25753,
				"method": "rhf"
			},
			{
				"type": "occ",
				"energy": -0.23732,
				"method": "rhf"
			},
			{
				"type": "occ",
				"energy": -0.20693,
				"method": "rhf"
			},
			{
				"type": "unocc",
				"energy": -0.0372,
				"method": "rhf"
			},
			{
				"type": "unocc",
				"energy": -0.01795,
				"method": "rhf"
			},
			{
				"type": "unocc",
				"energy": -0.01382,
				"method": "rhf"
			},
			{
				"type": "unocc",
				"energy": 0.0423,
				"method": "rhf"
			},
			{
				"type": "unocc",
				"energy": 0.05036,
				"method": "rhf"
			}
		],
		"cosmo_sigma_profile": { 
			"0.0": 0.0,
			"0.0": 0.0,
			"0.0": 0.0,
			"0.0": 0.0,
			"0.0": 0.0,
			"0.0": 0.0,
			"0.0": 0.0,
			"0.0": 0.0,
			"0.0": 0.0,
			"0.0": 0.0,
			"0.0": 0.0,
			"0.0": 0.0,
			"0.0": 0.0,
			"0.0": 0.0,
			"0.0": 0.0,
			"0.0": 0.0,
			"0.0": 0.0,
			"0.0": 0.0,
			"0.0": 0.0,
			"0.0": 0.0,
			"0.0": 0.0,
			"0.0": 0.0,
			"0.0": 0.0,
			"0.0": 0.0,
			"0.0": 0.0,
			"0.0": 0.0,
			"0.0": 0.0,
			"0.0": 0.0,
			"0.0": 0.0,
			"0.0": 0.0,
			"0.0": 0.0,
			"0.0": 0.0,
			"0.0": 0.0,
			"0.0": 0.0,
			"0.0": 0.0,
			"0.0": 0.0,
			"0.0": 0.0,
			"0.0": 0.0,
			"0.0": 0.0,
			"0.0": 0.0,
			"0.0": 0.0,
			"0.0": 0.0,
			"0.0": 0.0,
			"0.0": 0.0,
			"0.0": 0.0,
			"0.0": 0.0,
			"0.0": 0.0,
			"0.0": 0.0,
			"0.0": 0.0,
			"0.0": 0.0,
			"0.0": 0.0
		}
	}
}
