{
	 "smiles": "COC1=C(C=CC(C)=N1)C#N", 
	 "Tm": 358.15, 
	 "num_atms": 19, 
	 "gaussian": { 
		 "optdone": 1, 
		 "sigma_profile": "yes", 
		 "theory": "DFT", 
		 "functional": "B3LYP", 
		 "basiset": "6-31G**", 
		 "properties": { 
			 "R2extent": 2008.2632, 
			 "electric_dipole_moment_norm": 5.11431290986, 
			 "electric_quadrupole_moment_norm": 19.0230748471, 
			 "total_energy": -494.384134334, 
			 "HOMO_LUMO_gap": 0.18757, 
			 "cosmo_polarized_energy": -10.74, 
			 "cosmo_cavitation_energy": 24.39, 
			 "cosmo_dispersion_energy": -17.24, 
			 "cosmo_repulsion_energy": 1.41, 
			 "cosmo_total_nonelectrostatic_energy": 8.56, 
			 "SMD_solvation_energy": 5.78 
		},
		"coords": [
			{
				"x": 2.1061242814,
				"y": -1.8919280011,
				"z": 0.2858534809,
				"element": "C" 
			},
			{
				"x": 0.6876289393,
				"y": -2.0829362794,
				"z": 0.3631296708,
				"element": "O" 
			},
			{
				"x": -0.0869437308,
				"y": -0.9882292339,
				"z": 0.3813638002,
				"element": "C" 
			},
			{
				"x": -1.4876409133,
				"y": -1.1946315233,
				"z": 0.4580021579,
				"element": "C" 
			},
			{
				"x": -2.2983954037,
				"y": -0.0546764443,
				"z": 0.4771927937,
				"element": "C" 
			},
			{
				"x": -1.7150143685,
				"y": 1.2065700622,
				"z": 0.4218036815,
				"element": "C" 
			},
			{
				"x": -0.3203208235,
				"y": 1.3045179092,
				"z": 0.3476549818,
				"element": "C" 
			},
			{
				"x": 0.3688119303,
				"y": 2.6436502444,
				"z": 0.2852747817,
				"element": "C" 
			},
			{
				"x": 0.4695838741,
				"y": 0.2159158455,
				"z": 0.3285018086,
				"element": "N" 
			},
			{
				"x": -2.0428409944,
				"y": -2.5086252875,
				"z": 0.5129525764,
				"element": "C" 
			},
			{
				"x": -2.5199958469,
				"y": -3.5689573596,
				"z": 0.5587807604,
				"element": "N" 
			},
			{
				"x": 2.5277746704,
				"y": -2.8970835119,
				"z": 0.2840690384,
				"element": "H" 
			},
			{
				"x": 2.3794487755,
				"y": -1.3598286873,
				"z": -0.6290803238,
				"element": "H" 
			},
			{
				"x": 2.4713629326,
				"y": -1.3244166972,
				"z": 1.1457782681,
				"element": "H" 
			},
			{
				"x": -3.375782795,
				"y": -0.1706845812,
				"z": 0.5352829531,
				"element": "H" 
			},
			{
				"x": -2.3276498484,
				"y": 2.1016080556,
				"z": 0.4356494617,
				"element": "H" 
			},
			{
				"x": 1.4493193656,
				"y": 2.5046817934,
				"z": 0.2325003687,
				"element": "H" 
			},
			{
				"x": 0.0421015307,
				"y": 3.2126729586,
				"z": -0.5923294959,
				"element": "H" 
			},
			{
				"x": 0.1326284247,
				"y": 3.248080738,
				"z": 1.1682192359,
				"element": "H" 
			}
		],
		 "valence_orbital": [ 
			{
				"type": "occ",
				"energy": -0.33758,
				"method": "rhf"
			},
			{
				"type": "occ",
				"energy": -0.3277,
				"method": "rhf"
			},
			{
				"type": "occ",
				"energy": -0.29257,
				"method": "rhf"
			},
			{
				"type": "occ",
				"energy": -0.28172,
				"method": "rhf"
			},
			{
				"type": "occ",
				"energy": -0.24247,
				"method": "rhf"
			},
			{
				"type": "unocc",
				"energy": -0.0549,
				"method": "rhf"
			},
			{
				"type": "unocc",
				"energy": -0.02091,
				"method": "rhf"
			},
			{
				"type": "unocc",
				"energy": 0.0392,
				"method": "rhf"
			},
			{
				"type": "unocc",
				"energy": 0.06934,
				"method": "rhf"
			},
			{
				"type": "unocc",
				"energy": 0.09166,
				"method": "rhf"
			}
		],
		"cosmo_sigma_profile": { 
			"-0.025": 0.0,
			"-0.024": 0.0,
			"-0.023": 0.0,
			"-0.022": 0.0,
			"-0.021": 0.0,
			"-0.02": 0.0,
			"-0.019": 0.0,
			"-0.018": 0.0,
			"-0.017": 0.0,
			"-0.016": 0.0,
			"-0.015": 0.0,
			"-0.014": 0.0,
			"-0.013": 0.0,
			"-0.012": 0.0,
			"-0.011": 0.0,
			"-0.01": 0.0,
			"-0.009": 1.27990301406,
			"-0.008": 2.24011134325,
			"-0.007": 5.11330777108,
			"-0.006": 9.71399846367,
			"-0.005": 15.119941147,
			"-0.004": 17.8287078478,
			"-0.003": 16.9785178,
			"-0.002": 19.3536768225,
			"-0.001": 22.8642877264,
			"0.0": 16.6804813673,
			"0.001": 11.4185713189,
			"0.002": 7.49285512986,
			"0.003": 5.30757615698,
			"0.004": 5.79949743549,
			"0.005": 4.37827410783,
			"0.006": 5.33938095162,
			"0.007": 7.02796086723,
			"0.008": 5.66955930981,
			"0.009": 4.80874579854,
			"0.01": 3.96945315332,
			"0.011": 2.99925681788,
			"0.012": 2.48034591769,
			"0.013": 1.72777474794,
			"0.014": 0.086980561095,
			"0.015": 0.0,
			"0.016": 0.0,
			"0.017": 0.0,
			"0.018": 0.0,
			"0.019": 0.0,
			"0.02": 0.0,
			"0.021": 0.0,
			"0.022": 0.0,
			"0.023": 0.0,
			"0.024": 0.0,
			"0.025": 0.0
		}
	}
}
