{
	 "smiles": "CCOC1=C2C(=O)C(=O)C2=CC=C1", 
	 "Tm": 401.15, 
	 "num_atms": 21, 
	 "gaussian": { 
		 "optdone": 1, 
		 "sigma_profile": "yes", 
		 "theory": "DFT", 
		 "functional": "B3LYP", 
		 "basiset": "6-31G**", 
		 "properties": { 
			 "R2extent": 3472.7649, 
			 "electric_dipole_moment_norm": 7.48694949495, 
			 "electric_quadrupole_moment_norm": 14.748331687, 
			 "total_energy": -611.497613022, 
			 "HOMO_LUMO_gap": 0.15157, 
			 "cosmo_polarized_energy": -14.36, 
			 "cosmo_cavitation_energy": 26.43, 
			 "cosmo_dispersion_energy": -18.95, 
			 "cosmo_repulsion_energy": 1.53, 
			 "cosmo_total_nonelectrostatic_energy": 9.0, 
			 "SMD_solvation_energy": 6.45 
		},
		"coords": [
			{
				"x": -1.9620098511,
				"y": 1.7352801633,
				"z": 1.0924669868,
				"element": "C" 
			},
			{
				"x": -1.3418412144,
				"y": 1.2345582126,
				"z": -0.2061002841,
				"element": "C" 
			},
			{
				"x": -0.2618728521,
				"y": 0.3148575727,
				"z": 0.0258059037,
				"element": "O" 
			},
			{
				"x": -0.5170458364,
				"y": -0.9823119886,
				"z": 0.2857895232,
				"element": "C" 
			},
			{
				"x": 0.5761210282,
				"y": -1.8330889333,
				"z": 0.5187776991,
				"element": "C" 
			},
			{
				"x": 2.0748825655,
				"y": -1.8858256761,
				"z": 0.6174120536,
				"element": "C" 
			},
			{
				"x": 2.9957712763,
				"y": -1.1210523452,
				"z": 0.5215874758,
				"element": "O" 
			},
			{
				"x": 1.8931629143,
				"y": -3.4437601919,
				"z": 0.9142608653,
				"element": "C" 
			},
			{
				"x": 2.6079248709,
				"y": -4.3813949801,
				"z": 1.1412197949,
				"element": "O" 
			},
			{
				"x": 0.4072505325,
				"y": -3.2026824431,
				"z": 0.7792280014,
				"element": "C" 
			},
			{
				"x": -0.8396815762,
				"y": -3.817282486,
				"z": 0.8273515015,
				"element": "C" 
			},
			{
				"x": -1.9266879433,
				"y": -2.9703742027,
				"z": 0.5987177473,
				"element": "C" 
			},
			{
				"x": -1.782201378,
				"y": -1.5934849082,
				"z": 0.3375422843,
				"element": "C" 
			},
			{
				"x": -1.197271885,
				"y": 2.1958200912,
				"z": 1.7236073755,
				"element": "H" 
			},
			{
				"x": -2.4326991069,
				"y": 0.9273451801,
				"z": 1.6594245651,
				"element": "H" 
			},
			{
				"x": -2.7265323676,
				"y": 2.487379127,
				"z": 0.871972861,
				"element": "H" 
			},
			{
				"x": -0.8746132041,
				"y": 2.0582177087,
				"z": -0.7508655821,
				"element": "H" 
			},
			{
				"x": -2.0866455568,
				"y": 0.7782996296,
				"z": -0.8692405036,
				"element": "H" 
			},
			{
				"x": -0.9697515239,
				"y": -4.8746273328,
				"z": 1.0285121143,
				"element": "H" 
			},
			{
				"x": -2.9346608188,
				"y": -3.3761621896,
				"z": 0.6227252605,
				"element": "H" 
			},
			{
				"x": -2.6805980732,
				"y": -1.0086100076,
				"z": 0.1781043565,
				"element": "H" 
			}
		],
		 "valence_orbital": [ 
			{
				"type": "occ",
				"energy": -0.34456,
				"method": "rhf"
			},
			{
				"type": "occ",
				"energy": -0.30984,
				"method": "rhf"
			},
			{
				"type": "occ",
				"energy": -0.28311,
				"method": "rhf"
			},
			{
				"type": "occ",
				"energy": -0.25074,
				"method": "rhf"
			},
			{
				"type": "occ",
				"energy": -0.23116,
				"method": "rhf"
			},
			{
				"type": "unocc",
				"energy": -0.07959,
				"method": "rhf"
			},
			{
				"type": "unocc",
				"energy": -0.05923,
				"method": "rhf"
			},
			{
				"type": "unocc",
				"energy": 0.0179,
				"method": "rhf"
			},
			{
				"type": "unocc",
				"energy": 0.05955,
				"method": "rhf"
			},
			{
				"type": "unocc",
				"energy": 0.06948,
				"method": "rhf"
			}
		],
		"cosmo_sigma_profile": { 
			"-0.025": 0.0,
			"-0.024": 0.0,
			"-0.023": 0.0,
			"-0.022": 0.0,
			"-0.021": 0.0,
			"-0.02": 0.0,
			"-0.019": 0.0,
			"-0.018": 0.0,
			"-0.017": 0.0,
			"-0.016": 0.0,
			"-0.015": 0.0,
			"-0.014": 0.0,
			"-0.013": 0.0,
			"-0.012": 0.0,
			"-0.011": 0.0,
			"-0.01": 0.0,
			"-0.009": 0.81422658257,
			"-0.008": 4.99937504266,
			"-0.007": 9.4928902955,
			"-0.006": 13.1733403193,
			"-0.005": 14.8411167278,
			"-0.004": 19.5152792393,
			"-0.003": 17.7077882602,
			"-0.002": 15.6285702038,
			"-0.001": 21.3083571026,
			"0.0": 17.7912657885,
			"0.001": 13.9200781896,
			"0.002": 8.81570766935,
			"0.003": 3.92320566514,
			"0.004": 5.09357166571,
			"0.005": 3.62318452268,
			"0.006": 5.45516730421,
			"0.007": 5.2919567573,
			"0.008": 5.82957956348,
			"0.009": 7.5425542905,
			"0.01": 10.4586852905,
			"0.011": 6.49701043119,
			"0.012": 0.520994560185,
			"0.013": 0.0,
			"0.014": 0.0,
			"0.015": 0.0,
			"0.016": 0.0,
			"0.017": 0.0,
			"0.018": 0.0,
			"0.019": 0.0,
			"0.02": 0.0,
			"0.021": 0.0,
			"0.022": 0.0,
			"0.023": 0.0,
			"0.024": 0.0,
			"0.025": 0.0
		}
	}
}
