{
	 "smiles": "NCC(CCC(O)=O)C(F)(F)F", 
	 "Tm": 429.15, 
	 "num_atms": 22, 
	 "gaussian": { 
		 "optdone": 1, 
		 "sigma_profile": "yes", 
		 "theory": "DFT", 
		 "functional": "B3LYP", 
		 "basiset": "6-31G**", 
		 "properties": { 
			 "R2extent": 3098.3643, 
			 "electric_dipole_moment_norm": 2.44242051662, 
			 "electric_quadrupole_moment_norm": 16.0804392953, 
			 "total_energy": -739.408458397, 
			 "HOMO_LUMO_gap": 0.26281, 
			 "cosmo_polarized_energy": -12.9, 
			 "cosmo_cavitation_energy": 26.26, 
			 "cosmo_dispersion_energy": -18.33, 
			 "cosmo_repulsion_energy": 1.45, 
			 "cosmo_total_nonelectrostatic_energy": 9.37, 
			 "SMD_solvation_energy": 5.96 
		},
		"coords": [
			{
				"x": 0.5857980482,
				"y": 0.5160156512,
				"z": 1.5398303175,
				"element": "N" 
			},
			{
				"x": -0.8010816508,
				"y": 0.2096094347,
				"z": 1.165195867,
				"element": "C" 
			},
			{
				"x": -0.8833578051,
				"y": -0.9646588624,
				"z": 0.1667703585,
				"element": "C" 
			},
			{
				"x": -0.0727130838,
				"y": -0.7403902194,
				"z": -1.1324720098,
				"element": "C" 
			},
			{
				"x": 1.4084078776,
				"y": -1.1534033368,
				"z": -1.0367433924,
				"element": "C" 
			},
			{
				"x": 1.7136319498,
				"y": -2.6300215311,
				"z": -1.1870831977,
				"element": "C" 
			},
			{
				"x": 0.671319443,
				"y": -3.4298859824,
				"z": -0.8453683959,
				"element": "O" 
			},
			{
				"x": 2.7785878231,
				"y": -3.0795720796,
				"z": -1.5477555142,
				"element": "O" 
			},
			{
				"x": -2.3410334189,
				"y": -1.2353824939,
				"z": -0.1675334796,
				"element": "C" 
			},
			{
				"x": -3.0824509896,
				"y": -1.4338310422,
				"z": 0.9488096759,
				"element": "F" 
			},
			{
				"x": -2.9048702242,
				"y": -0.1981611668,
				"z": -0.837272667,
				"element": "F" 
			},
			{
				"x": -2.4903213854,
				"y": -2.3317444876,
				"z": -0.9414927442,
				"element": "F" 
			},
			{
				"x": 0.6007847681,
				"y": 0.9928752813,
				"z": 2.4365533016,
				"element": "H" 
			},
			{
				"x": 0.9965345652,
				"y": 1.164039984,
				"z": 0.8729663908,
				"element": "H" 
			},
			{
				"x": -1.3384755808,
				"y": 1.0711632878,
				"z": 0.7377969199,
				"element": "H" 
			},
			{
				"x": -1.3417929571,
				"y": -0.0793390573,
				"z": 2.0705428867,
				"element": "H" 
			},
			{
				"x": -0.5205973017,
				"y": -1.8710273922,
				"z": 0.6602870217,
				"element": "H" 
			},
			{
				"x": -0.5430429687,
				"y": -1.2878902503,
				"z": -1.9538656881,
				"element": "H" 
			},
			{
				"x": -0.1251215582,
				"y": 0.3205561948,
				"z": -1.4055165929,
				"element": "H" 
			},
			{
				"x": 1.8172748177,
				"y": -0.848172118,
				"z": -0.0658723611,
				"element": "H" 
			},
			{
				"x": 2.0046566616,
				"y": -0.6495825818,
				"z": -1.8027954567,
				"element": "H" 
			},
			{
				"x": 0.9851629699,
				"y": -4.342897232,
				"z": -0.9598812399,
				"element": "H" 
			}
		],
		 "valence_orbital": [ 
			{
				"type": "occ",
				"energy": -0.34625,
				"method": "rhf"
			},
			{
				"type": "occ",
				"energy": -0.34059,
				"method": "rhf"
			},
			{
				"type": "occ",
				"energy": -0.31623,
				"method": "rhf"
			},
			{
				"type": "occ",
				"energy": -0.27252,
				"method": "rhf"
			},
			{
				"type": "occ",
				"energy": -0.25191,
				"method": "rhf"
			},
			{
				"type": "unocc",
				"energy": 0.0109,
				"method": "rhf"
			},
			{
				"type": "unocc",
				"energy": 0.06099,
				"method": "rhf"
			},
			{
				"type": "unocc",
				"energy": 0.07742,
				"method": "rhf"
			},
			{
				"type": "unocc",
				"energy": 0.10625,
				"method": "rhf"
			},
			{
				"type": "unocc",
				"energy": 0.11917,
				"method": "rhf"
			}
		],
		"cosmo_sigma_profile": { 
			"-0.025": 0.0,
			"-0.024": 0.0,
			"-0.023": 0.0,
			"-0.022": 0.0,
			"-0.021": 0.0,
			"-0.02": 0.0,
			"-0.019": 0.0389668395052,
			"-0.018": 0.567933165715,
			"-0.017": 1.15208601745,
			"-0.016": 0.487835938147,
			"-0.015": 0.796873527263,
			"-0.014": 0.445810440974,
			"-0.013": 1.13328064944,
			"-0.012": 0.610306084309,
			"-0.011": 1.04217739066,
			"-0.01": 2.74010589531,
			"-0.009": 3.81455152464,
			"-0.008": 3.63448441265,
			"-0.007": 5.1203790778,
			"-0.006": 5.72500452377,
			"-0.005": 10.8856630296,
			"-0.004": 15.5243804734,
			"-0.003": 16.0564217232,
			"-0.002": 16.8758256154,
			"-0.001": 13.1193837664,
			"0.0": 9.4490892181,
			"0.001": 8.59356975252,
			"0.002": 11.9712749502,
			"0.003": 31.0167897726,
			"0.004": 13.1181156066,
			"0.005": 4.49576825447,
			"0.006": 4.11297666235,
			"0.007": 2.88722456094,
			"0.008": 2.27782293958,
			"0.009": 1.70552999278,
			"0.01": 3.13728842206,
			"0.011": 3.20640354565,
			"0.012": 5.53394501744,
			"0.013": 2.01165796531,
			"0.014": 1.08608673743,
			"0.015": 0.276805251231,
			"0.016": 0.407100285552,
			"0.017": 0.0494900324481,
			"0.018": 0.0,
			"0.019": 0.0,
			"0.02": 0.0,
			"0.021": 0.0,
			"0.022": 0.0,
			"0.023": 0.0,
			"0.024": 0.0,
			"0.025": 0.0
		}
	}
}
