{
	 "smiles": "CC1=CC(NC(=O)CCCCl)=CC=C1", 
	 "Tm": 411.15, 
	 "num_atms": 28, 
	 "gaussian": { 
		 "optdone": 1, 
		 "sigma_profile": "yes", 
		 "theory": "DFT", 
		 "functional": "B3LYP", 
		 "basiset": "6-31G**", 
		 "properties": { 
			 "R2extent": 5353.4092, 
			 "electric_dipole_moment_norm": 4.91527458643, 
			 "electric_quadrupole_moment_norm": 10.1729846117, 
			 "total_energy": -1017.80767265, 
			 "HOMO_LUMO_gap": 0.21368, 
			 "cosmo_polarized_energy": -13.71, 
			 "cosmo_cavitation_energy": 33.46, 
			 "cosmo_dispersion_energy": -23.31, 
			 "cosmo_repulsion_energy": 1.89, 
			 "cosmo_total_nonelectrostatic_energy": 12.04, 
			 "SMD_solvation_energy": 5.76 
		},
		"coords": [
			{
				"x": -2.776774615,
				"y": -1.9531473218,
				"z": 0.7253829252,
				"element": "C" 
			},
			{
				"x": -1.7516001623,
				"y": -1.5661025065,
				"z": -0.3148857869,
				"element": "C" 
			},
			{
				"x": -0.7914305368,
				"y": -0.5860354888,
				"z": -0.036931214,
				"element": "C" 
			},
			{
				"x": 0.1410738259,
				"y": -0.1905011138,
				"z": -1.0053482453,
				"element": "C" 
			},
			{
				"x": 1.1311607631,
				"y": 0.7867405716,
				"z": -0.7262977152,
				"element": "N" 
			},
			{
				"x": 1.04160665,
				"y": 2.0321909868,
				"z": -0.1368982896,
				"element": "C" 
			},
			{
				"x": 2.0588311159,
				"y": 2.6678710494,
				"z": 0.1053153677,
				"element": "O" 
			},
			{
				"x": -0.3364075919,
				"y": 2.6226217521,
				"z": 0.1430853962,
				"element": "C" 
			},
			{
				"x": -0.4792049159,
				"y": 3.010088685,
				"z": 1.6259474063,
				"element": "C" 
			},
			{
				"x": -1.7631636755,
				"y": 3.7914045088,
				"z": 1.8673142207,
				"element": "C" 
			},
			{
				"x": -1.9621678724,
				"y": 4.228891907,
				"z": 3.6211108688,
				"element": "Cl" 
			},
			{
				"x": 0.1413969938,
				"y": -0.8159331329,
				"z": -2.2586658857,
				"element": "C" 
			},
			{
				"x": -0.7925094177,
				"y": -1.8132752031,
				"z": -2.5321341665,
				"element": "C" 
			},
			{
				"x": -1.7381328216,
				"y": -2.1799555903,
				"z": -1.5743869529,
				"element": "C" 
			},
			{
				"x": -3.0317526927,
				"y": -3.014996514,
				"z": 0.6587303419,
				"element": "H" 
			},
			{
				"x": -3.7072415041,
				"y": -1.3871933001,
				"z": 0.5921703259,
				"element": "H" 
			},
			{
				"x": -2.4163171815,
				"y": -1.7537656284,
				"z": 1.7386874183,
				"element": "H" 
			},
			{
				"x": -0.7488569467,
				"y": -0.1431586921,
				"z": 0.9538923753,
				"element": "H" 
			},
			{
				"x": 2.0826760406,
				"y": 0.5682116774,
				"z": -0.9980308399,
				"element": "H" 
			},
			{
				"x": -1.1457233768,
				"y": 1.9620237909,
				"z": -0.1747900472,
				"element": "H" 
			},
			{
				"x": -0.3902273725,
				"y": 3.5289957161,
				"z": -0.4729242493,
				"element": "H" 
			},
			{
				"x": -0.4774401901,
				"y": 2.1120820804,
				"z": 2.2546527386,
				"element": "H" 
			},
			{
				"x": 0.3876920695,
				"y": 3.6091287611,
				"z": 1.9174602024,
				"element": "H" 
			},
			{
				"x": -1.7722841593,
				"y": 4.7332458814,
				"z": 1.3148807009,
				"element": "H" 
			},
			{
				"x": -2.6508492262,
				"y": 3.2156857553,
				"z": 1.5970019077,
				"element": "H" 
			},
			{
				"x": 0.8660419248,
				"y": -0.5130462335,
				"z": -3.0088966124,
				"element": "H" 
			},
			{
				"x": -0.787156958,
				"y": -2.3015152782,
				"z": -3.502380238,
				"element": "H" 
			},
			{
				"x": -2.4650381666,
				"y": -2.9553571201,
				"z": -1.8008619531,
				"element": "H" 
			}
		],
		 "valence_orbital": [ 
			{
				"type": "occ",
				"energy": -0.29269,
				"method": "rhf"
			},
			{
				"type": "occ",
				"energy": -0.29193,
				"method": "rhf"
			},
			{
				"type": "occ",
				"energy": -0.25744,
				"method": "rhf"
			},
			{
				"type": "occ",
				"energy": -0.25502,
				"method": "rhf"
			},
			{
				"type": "occ",
				"energy": -0.23432,
				"method": "rhf"
			},
			{
				"type": "unocc",
				"energy": -0.02064,
				"method": "rhf"
			},
			{
				"type": "unocc",
				"energy": -0.01495,
				"method": "rhf"
			},
			{
				"type": "unocc",
				"energy": 0.02268,
				"method": "rhf"
			},
			{
				"type": "unocc",
				"energy": 0.02581,
				"method": "rhf"
			},
			{
				"type": "unocc",
				"energy": 0.07782,
				"method": "rhf"
			}
		],
		"cosmo_sigma_profile": { 
			"-0.025": 0.0,
			"-0.024": 0.0,
			"-0.023": 0.0,
			"-0.022": 0.0,
			"-0.021": 0.0,
			"-0.02": 0.0,
			"-0.019": 0.0,
			"-0.018": 0.0,
			"-0.017": 0.0,
			"-0.016": 0.0,
			"-0.015": 0.0,
			"-0.014": 0.751338572954,
			"-0.013": 1.03442863561,
			"-0.012": 0.755046246935,
			"-0.011": 0.876851317151,
			"-0.01": 0.960910294185,
			"-0.009": 0.871556510243,
			"-0.008": 1.5015914725,
			"-0.007": 6.10152767299,
			"-0.006": 15.8543929292,
			"-0.005": 19.8638248113,
			"-0.004": 27.0204088056,
			"-0.003": 23.1511458098,
			"-0.002": 19.8733460415,
			"-0.001": 18.3372208633,
			"0.0": 20.7306408567,
			"0.001": 16.5933221598,
			"0.002": 13.8121695213,
			"0.003": 12.7566563174,
			"0.004": 12.4425356874,
			"0.005": 15.1759900004,
			"0.006": 12.132792923,
			"0.007": 9.44301184278,
			"0.008": 1.49902572571,
			"0.009": 0.790594718672,
			"0.01": 1.01868690989,
			"0.011": 1.42998522939,
			"0.012": 2.04104304839,
			"0.013": 4.16462459673,
			"0.014": 4.61699888008,
			"0.015": 0.430478028019,
			"0.016": 0.0,
			"0.017": 0.0,
			"0.018": 0.0,
			"0.019": 0.0,
			"0.02": 0.0,
			"0.021": 0.0,
			"0.022": 0.0,
			"0.023": 0.0,
			"0.024": 0.0,
			"0.025": 0.0
		}
	}
}
