{
	 "smiles": "CN(C)S(=O)(=O)C1=CN(C)C(=C1)C(O)=O", 
	 "Tm": 433.15, 
	 "num_atms": 27, 
	 "gaussian": { 
		 "optdone": 1, 
		 "sigma_profile": "yes", 
		 "theory": "DFT", 
		 "functional": "B3LYP", 
		 "basiset": "6-31G**", 
		 "properties": { 
			 "R2extent": 4597.4138, 
			 "electric_dipole_moment_norm": 5.36438891394, 
			 "electric_quadrupole_moment_norm": 22.6807196151, 
			 "total_energy": -1120.60402176, 
			 "HOMO_LUMO_gap": 0.1987, 
			 "cosmo_polarized_energy": -20.08, 
			 "cosmo_cavitation_energy": 32.22, 
			 "cosmo_dispersion_energy": -23.07, 
			 "cosmo_repulsion_energy": 1.76, 
			 "cosmo_total_nonelectrostatic_energy": 10.92, 
			 "SMD_solvation_energy": 5.42 
		},
		"coords": [
			{
				"x": 0.0282499283,
				"y": 1.023036382,
				"z": -3.2663390531,
				"element": "C" 
			},
			{
				"x": 0.2152088337,
				"y": -0.4232515609,
				"z": -3.1407120513,
				"element": "N" 
			},
			{
				"x": -0.9846400998,
				"y": -1.166022251,
				"z": -2.7489441724,
				"element": "C" 
			},
			{
				"x": 1.6590349337,
				"y": -0.916208417,
				"z": -2.4086718816,
				"element": "S" 
			},
			{
				"x": 2.7173710868,
				"y": -0.0982463255,
				"z": -3.0060112939,
				"element": "O" 
			},
			{
				"x": 1.666708519,
				"y": -2.3776688261,
				"z": -2.4685400424,
				"element": "O" 
			},
			{
				"x": 1.5609900991,
				"y": -0.4554834525,
				"z": -0.7047780544,
				"element": "C" 
			},
			{
				"x": 2.0845715677,
				"y": 0.717386227,
				"z": -0.1707171779,
				"element": "C" 
			},
			{
				"x": 1.8099574081,
				"y": 0.7480069152,
				"z": 1.1570600485,
				"element": "N" 
			},
			{
				"x": 2.2265629267,
				"y": 1.8197117541,
				"z": 2.0611453746,
				"element": "C" 
			},
			{
				"x": 1.103918536,
				"y": -0.4035120498,
				"z": 1.4940719983,
				"element": "C" 
			},
			{
				"x": 0.9399284689,
				"y": -1.1653274693,
				"z": 0.3454258511,
				"element": "C" 
			},
			{
				"x": 0.6613156051,
				"y": -0.6784655908,
				"z": 2.8571742867,
				"element": "C" 
			},
			{
				"x": -0.0029562947,
				"y": -1.8568854211,
				"z": 2.9417169974,
				"element": "O" 
			},
			{
				"x": 0.8452723051,
				"y": 0.0397809168,
				"z": 3.8259737966,
				"element": "O" 
			},
			{
				"x": 0.9488927468,
				"y": 1.4755662695,
				"z": -3.6336406549,
				"element": "H" 
			},
			{
				"x": -0.2639499247,
				"y": 1.4990372669,
				"z": -2.3166103246,
				"element": "H" 
			},
			{
				"x": -0.7637562829,
				"y": 1.1997034267,
				"z": -3.9997427876,
				"element": "H" 
			},
			{
				"x": -1.7599324087,
				"y": -0.9759364834,
				"z": -3.4968358482,
				"element": "H" 
			},
			{
				"x": -0.7627954345,
				"y": -2.2327997042,
				"z": -2.7423008232,
				"element": "H" 
			},
			{
				"x": -1.3697957012,
				"y": -0.8626973751,
				"z": -1.7625853968,
				"element": "H" 
			},
			{
				"x": 2.6516077974,
				"y": 1.4978587352,
				"z": -0.6552285227,
				"element": "H" 
			},
			{
				"x": 2.8724458156,
				"y": 1.4263471223,
				"z": 2.8469994233,
				"element": "H" 
			},
			{
				"x": 2.7677500728,
				"y": 2.5630667448,
				"z": 1.4740393484,
				"element": "H" 
			},
			{
				"x": 1.3581215193,
				"y": 2.2796285983,
				"z": 2.5341274259,
				"element": "H" 
			},
			{
				"x": 0.4558364945,
				"y": -2.1280321397,
				"z": 0.2887706043,
				"element": "H" 
			},
			{
				"x": -0.2490185182,
				"y": -1.9548932924,
				"z": 3.8760529299,
				"element": "H" 
			}
		],
		 "valence_orbital": [ 
			{
				"type": "occ",
				"energy": -0.29664,
				"method": "rhf"
			},
			{
				"type": "occ",
				"energy": -0.28829,
				"method": "rhf"
			},
			{
				"type": "occ",
				"energy": -0.27697,
				"method": "rhf"
			},
			{
				"type": "occ",
				"energy": -0.25856,
				"method": "rhf"
			},
			{
				"type": "occ",
				"energy": -0.24469,
				"method": "rhf"
			},
			{
				"type": "unocc",
				"energy": -0.04599,
				"method": "rhf"
			},
			{
				"type": "unocc",
				"energy": 0.00434,
				"method": "rhf"
			},
			{
				"type": "unocc",
				"energy": 0.06772,
				"method": "rhf"
			},
			{
				"type": "unocc",
				"energy": 0.07513,
				"method": "rhf"
			},
			{
				"type": "unocc",
				"energy": 0.08313,
				"method": "rhf"
			}
		],
		"cosmo_sigma_profile": { 
			"-0.025": 0.0,
			"-0.024": 0.0,
			"-0.023": 0.0,
			"-0.022": 0.0,
			"-0.021": 0.0,
			"-0.02": 0.0,
			"-0.019": 0.0,
			"-0.018": 0.923941323863,
			"-0.017": 0.917620098398,
			"-0.016": 0.595292515603,
			"-0.015": 0.811731294275,
			"-0.014": 0.772164175089,
			"-0.013": 0.531943422244,
			"-0.012": 1.10122375753,
			"-0.011": 0.939882638036,
			"-0.01": 3.01461196128,
			"-0.009": 2.73274144284,
			"-0.008": 3.00329068128,
			"-0.007": 5.05137495836,
			"-0.006": 12.9490615992,
			"-0.005": 15.7182134365,
			"-0.004": 24.7416429943,
			"-0.003": 30.8191372729,
			"-0.002": 28.2326145498,
			"-0.001": 10.9572980959,
			"0.0": 10.1416792088,
			"0.001": 13.2509125826,
			"0.002": 11.4939077517,
			"0.003": 8.76510560853,
			"0.004": 6.50906259179,
			"0.005": 5.77552192115,
			"0.006": 7.03223541253,
			"0.007": 8.11019927094,
			"0.008": 6.68754060151,
			"0.009": 5.37082018134,
			"0.01": 9.28270115488,
			"0.011": 10.7531211195,
			"0.012": 7.86699803937,
			"0.013": 0.143395878034,
			"0.014": 0.0,
			"0.015": 0.0,
			"0.016": 0.0,
			"0.017": 0.0,
			"0.018": 0.0,
			"0.019": 0.0,
			"0.02": 0.0,
			"0.021": 0.0,
			"0.022": 0.0,
			"0.023": 0.0,
			"0.024": 0.0,
			"0.025": 0.0
		}
	}
}
