{
	 "smiles": "FC(F)(F)C(F)(I)C(F)(F)F", 
	 "Tm": 215.15, 
	 "num_atms": 11, 
	 "gaussian": { 
		 "optdone": 1, 
		 "sigma_profile": "no", 
		 "theory": "DFT", 
		 "functional": "B3LYP", 
		 "basiset": "6-31G**", 
		 "properties": { 
			 "R2extent": 1714.6411, 
			 "electric_dipole_moment_norm": 0.718160051799, 
			 "electric_quadrupole_moment_norm": 3.81428637624, 
			 "total_energy": -824.565328179, 
			 "HOMO_LUMO_gap": 0.20559, 
			 "cosmo_polarized_energy": -77840.8, 
			 "cosmo_cavitation_energy": 21.25, 
			 "cosmo_dispersion_energy": -15.92, 
			 "cosmo_repulsion_energy": 1.12, 
			 "cosmo_total_nonelectrostatic_energy": 6.45, 
			 "SMD_solvation_energy": 5.43 
		},
		"coords": [
			{
				"x": -0.3287777046,
				"y": 0.9622312425,
				"z": 1.7183570028,
				"element": "F" 
			},
			{
				"x": 0.1933791992,
				"y": -0.0459012707,
				"z": 1.0043849673,
				"element": "C" 
			},
			{
				"x": 0.9461893107,
				"y": 0.4695826978,
				"z": 0.0250059216,
				"element": "F" 
			},
			{
				"x": 0.9689233575,
				"y": -0.7710289272,
				"z": 1.8179952093,
				"element": "F" 
			},
			{
				"x": -0.949308343,
				"y": -0.9225301607,
				"z": 0.4292777408,
				"element": "C" 
			},
			{
				"x": -1.6804206437,
				"y": -1.3594489218,
				"z": 1.4909231285,
				"element": "F" 
			},
			{
				"x": -0.1202228063,
				"y": -2.6332600306,
				"z": -0.6393576587,
				"element": "I" 
			},
			{
				"x": -1.9211519336,
				"y": -0.1373928161,
				"z": -0.4894344644,
				"element": "C" 
			},
			{
				"x": -2.9030406355,
				"y": -0.9385562251,
				"z": -0.9175530196,
				"element": "F" 
			},
			{
				"x": -2.4778081862,
				"y": 0.8690947405,
				"z": 0.2003745838,
				"element": "F" 
			},
			{
				"x": -1.2792616144,
				"y": 0.3735096715,
				"z": -1.5470734115,
				"element": "F" 
			}
		],
		 "valence_orbital": [ 
			{
				"type": "occ",
				"energy": -0.42569,
				"method": "rhf"
			},
			{
				"type": "occ",
				"energy": -0.38527,
				"method": "rhf"
			},
			{
				"type": "occ",
				"energy": -0.3727,
				"method": "rhf"
			},
			{
				"type": "occ",
				"energy": -0.29657,
				"method": "rhf"
			},
			{
				"type": "occ",
				"energy": -0.29463,
				"method": "rhf"
			},
			{
				"type": "unocc",
				"energy": -0.08904,
				"method": "rhf"
			},
			{
				"type": "unocc",
				"energy": 0.02939,
				"method": "rhf"
			},
			{
				"type": "unocc",
				"energy": 0.04362,
				"method": "rhf"
			},
			{
				"type": "unocc",
				"energy": 0.04581,
				"method": "rhf"
			},
			{
				"type": "unocc",
				"energy": 0.05134,
				"method": "rhf"
			}
		],
		"cosmo_sigma_profile": { 
			"0.0": 0.0,
			"0.0": 0.0,
			"0.0": 0.0,
			"0.0": 0.0,
			"0.0": 0.0,
			"0.0": 0.0,
			"0.0": 0.0,
			"0.0": 0.0,
			"0.0": 0.0,
			"0.0": 0.0,
			"0.0": 0.0,
			"0.0": 0.0,
			"0.0": 0.0,
			"0.0": 0.0,
			"0.0": 0.0,
			"0.0": 0.0,
			"0.0": 0.0,
			"0.0": 0.0,
			"0.0": 0.0,
			"0.0": 0.0,
			"0.0": 0.0,
			"0.0": 0.0,
			"0.0": 0.0,
			"0.0": 0.0,
			"0.0": 0.0,
			"0.0": 0.0,
			"0.0": 0.0,
			"0.0": 0.0,
			"0.0": 0.0,
			"0.0": 0.0,
			"0.0": 0.0,
			"0.0": 0.0,
			"0.0": 0.0,
			"0.0": 0.0,
			"0.0": 0.0,
			"0.0": 0.0,
			"0.0": 0.0,
			"0.0": 0.0,
			"0.0": 0.0,
			"0.0": 0.0,
			"0.0": 0.0,
			"0.0": 0.0,
			"0.0": 0.0,
			"0.0": 0.0,
			"0.0": 0.0,
			"0.0": 0.0,
			"0.0": 0.0,
			"0.0": 0.0,
			"0.0": 0.0,
			"0.0": 0.0,
			"0.0": 0.0
		}
	}
}
