{
	 "smiles": "O=S(=O)(C1=CC=CS1)C1=CC=CC=C1", 
	 "Tm": 396.15, 
	 "num_atms": 22, 
	 "gaussian": { 
		 "optdone": 1, 
		 "sigma_profile": "yes", 
		 "theory": "DFT", 
		 "functional": "B3LYP", 
		 "basiset": "6-31G**", 
		 "properties": { 
			 "R2extent": 3969.5183, 
			 "electric_dipole_moment_norm": 5.83803419483, 
			 "electric_quadrupole_moment_norm": 20.8861369269, 
			 "total_energy": -1332.61146863, 
			 "HOMO_LUMO_gap": 0.2032, 
			 "cosmo_polarized_energy": -14.88, 
			 "cosmo_cavitation_energy": 29.43, 
			 "cosmo_dispersion_energy": -21.98, 
			 "cosmo_repulsion_energy": 1.63, 
			 "cosmo_total_nonelectrostatic_energy": 9.08, 
			 "SMD_solvation_energy": 4.31 
		},
		"coords": [
			{
				"x": 0.6190779219,
				"y": 0.9296350286,
				"z": 2.7228462205,
				"element": "O" 
			},
			{
				"x": 0.0067089127,
				"y": 1.5674742312,
				"z": 1.5483024702,
				"element": "S" 
			},
			{
				"x": -0.1178438422,
				"y": 3.0308757202,
				"z": 1.482378155,
				"element": "O" 
			},
			{
				"x": -1.6234954412,
				"y": 0.865947303,
				"z": 1.3284021878,
				"element": "C" 
			},
			{
				"x": -2.0906628517,
				"y": 0.0929095347,
				"z": 0.2955285164,
				"element": "C" 
			},
			{
				"x": -3.4553749571,
				"y": -0.2803052323,
				"z": 0.4742310554,
				"element": "C" 
			},
			{
				"x": -3.9899969452,
				"y": 0.2152377402,
				"z": 1.6322748968,
				"element": "C" 
			},
			{
				"x": -2.8472162561,
				"y": 1.1493230913,
				"z": 2.5364313573,
				"element": "S" 
			},
			{
				"x": 0.8895073096,
				"y": 1.0130051841,
				"z": 0.0846527568,
				"element": "C" 
			},
			{
				"x": 0.8855236235,
				"y": 1.8187879634,
				"z": -1.0559002738,
				"element": "C" 
			},
			{
				"x": 1.5919512928,
				"y": 1.3933076963,
				"z": -2.1812262295,
				"element": "C" 
			},
			{
				"x": 2.2903663963,
				"y": 0.1831887226,
				"z": -2.1532677152,
				"element": "C" 
			},
			{
				"x": 2.2938708693,
				"y": -0.6065157862,
				"z": -1.0003112101,
				"element": "C" 
			},
			{
				"x": 1.591676214,
				"y": -0.1931716266,
				"z": 0.1321682854,
				"element": "C" 
			},
			{
				"x": -1.4870775321,
				"y": -0.1971113293,
				"z": -0.5550410756,
				"element": "H" 
			},
			{
				"x": -4.0098877137,
				"y": -0.8898913001,
				"z": -0.2295597489,
				"element": "H" 
			},
			{
				"x": -4.9940736829,
				"y": 0.0882635838,
				"z": 2.0140156604,
				"element": "H" 
			},
			{
				"x": 0.3524717566,
				"y": 2.7633794933,
				"z": -1.0453967717,
				"element": "H" 
			},
			{
				"x": 1.6034615177,
				"y": 2.0089019275,
				"z": -3.0754957162,
				"element": "H" 
			},
			{
				"x": 2.8407882525,
				"y": -0.1420855383,
				"z": -3.0312663709,
				"element": "H" 
			},
			{
				"x": 2.8488873536,
				"y": -1.5394457728,
				"z": -0.9801833168,
				"element": "H" 
			},
			{
				"x": 1.5953378015,
				"y": -0.7779106345,
				"z": 1.0457168665,
				"element": "H" 
			}
		],
		 "valence_orbital": [ 
			{
				"type": "occ",
				"energy": -0.29624,
				"method": "rhf"
			},
			{
				"type": "occ",
				"energy": -0.27873,
				"method": "rhf"
			},
			{
				"type": "occ",
				"energy": -0.27642,
				"method": "rhf"
			},
			{
				"type": "occ",
				"energy": -0.26813,
				"method": "rhf"
			},
			{
				"type": "occ",
				"energy": -0.24969,
				"method": "rhf"
			},
			{
				"type": "unocc",
				"energy": -0.04649,
				"method": "rhf"
			},
			{
				"type": "unocc",
				"energy": -0.04037,
				"method": "rhf"
			},
			{
				"type": "unocc",
				"energy": -0.02573,
				"method": "rhf"
			},
			{
				"type": "unocc",
				"energy": 0.01663,
				"method": "rhf"
			},
			{
				"type": "unocc",
				"energy": 0.04375,
				"method": "rhf"
			}
		],
		"cosmo_sigma_profile": { 
			"-0.025": 0.0,
			"-0.024": 0.0,
			"-0.023": 0.0,
			"-0.022": 0.0,
			"-0.021": 0.0,
			"-0.02": 0.0,
			"-0.019": 0.0,
			"-0.018": 0.0,
			"-0.017": 0.0,
			"-0.016": 0.0,
			"-0.015": 0.0,
			"-0.014": 0.0,
			"-0.013": 0.0,
			"-0.012": 0.0,
			"-0.011": 0.0,
			"-0.01": 0.985066217178,
			"-0.009": 2.43916859846,
			"-0.008": 4.65713672676,
			"-0.007": 13.5264479568,
			"-0.006": 17.3440347514,
			"-0.005": 16.8776495768,
			"-0.004": 13.9135612016,
			"-0.003": 14.432240781,
			"-0.002": 13.8466623825,
			"-0.001": 14.9106144496,
			"0.0": 16.4509867122,
			"0.001": 20.0230718767,
			"0.002": 27.314781365,
			"0.003": 21.4663346144,
			"0.004": 5.47013904496,
			"0.005": 3.50844564483,
			"0.006": 2.41405255663,
			"0.007": 2.08379078244,
			"0.008": 2.89625488966,
			"0.009": 4.58675505,
			"0.01": 6.51014617059,
			"0.011": 10.1698421091,
			"0.012": 3.6252091682,
			"0.013": 0.0,
			"0.014": 0.0,
			"0.015": 0.0,
			"0.016": 0.0,
			"0.017": 0.0,
			"0.018": 0.0,
			"0.019": 0.0,
			"0.02": 0.0,
			"0.021": 0.0,
			"0.022": 0.0,
			"0.023": 0.0,
			"0.024": 0.0,
			"0.025": 0.0
		}
	}
}
