{
	 "smiles": "CC1=CC(=NN1C1=CC=C(Br)C=C1)C(O)=O", 
	 "Tm": 485.15, 
	 "num_atms": 25, 
	 "gaussian": { 
		 "optdone": 1, 
		 "sigma_profile": "yes", 
		 "theory": "DFT", 
		 "functional": "B3LYP", 
		 "basiset": "6-31G**", 
		 "properties": { 
			 "R2extent": 8051.2888, 
			 "electric_dipole_moment_norm": 5.85629776736, 
			 "electric_quadrupole_moment_norm": 31.3028523715, 
			 "total_energy": -3255.94927485, 
			 "HOMO_LUMO_gap": 0.19413, 
			 "cosmo_polarized_energy": -14.79, 
			 "cosmo_cavitation_energy": 32.55, 
			 "cosmo_dispersion_energy": -23.87, 
			 "cosmo_repulsion_energy": 1.87, 
			 "cosmo_total_nonelectrostatic_energy": 10.54, 
			 "SMD_solvation_energy": 5.16 
		},
		"coords": [
			{
				"x": -0.3717693811,
				"y": -0.8776894594,
				"z": -2.9349821456,
				"element": "C" 
			},
			{
				"x": 0.4553879767,
				"y": -1.4768042558,
				"z": -1.8412285877,
				"element": "C" 
			},
			{
				"x": 1.6063710946,
				"y": -2.2348125944,
				"z": -1.9233835427,
				"element": "C" 
			},
			{
				"x": 1.9205575624,
				"y": -2.5780536069,
				"z": -0.5928471855,
				"element": "C" 
			},
			{
				"x": 1.0339014947,
				"y": -2.0770488662,
				"z": 0.2674645533,
				"element": "N" 
			},
			{
				"x": 0.1471093279,
				"y": -1.3972824369,
				"z": -0.4953475667,
				"element": "N" 
			},
			{
				"x": -0.9680785587,
				"y": -0.7771174723,
				"z": 0.1369463557,
				"element": "C" 
			},
			{
				"x": -1.3838720757,
				"y": 0.5040987915,
				"z": -0.2361752327,
				"element": "C" 
			},
			{
				"x": -2.4784129452,
				"y": 1.0931519873,
				"z": 0.3960936561,
				"element": "C" 
			},
			{
				"x": -3.1367866356,
				"y": 0.4026321772,
				"z": 1.4116982363,
				"element": "C" 
			},
			{
				"x": -4.6299653061,
				"y": 1.209579111,
				"z": 2.2819234678,
				"element": "Br" 
			},
			{
				"x": -2.7153559419,
				"y": -0.8681675432,
				"z": 1.8048836151,
				"element": "C" 
			},
			{
				"x": -1.6316844095,
				"y": -1.459968224,
				"z": 1.1621051359,
				"element": "C" 
			},
			{
				"x": 3.0633409445,
				"y": -3.3841334047,
				"z": -0.0910548908,
				"element": "C" 
			},
			{
				"x": 3.1044542975,
				"y": -3.5182861209,
				"z": 1.2533695393,
				"element": "O" 
			},
			{
				"x": 3.8926654826,
				"y": -3.8839433494,
				"z": -0.8151417236,
				"element": "O" 
			},
			{
				"x": -0.1505721358,
				"y": -1.3922331259,
				"z": -3.8726330415,
				"element": "H" 
			},
			{
				"x": -1.4427989457,
				"y": -0.975062128,
				"z": -2.7355291415,
				"element": "H" 
			},
			{
				"x": -0.1566804377,
				"y": 0.1861772629,
				"z": -3.086397476,
				"element": "H" 
			},
			{
				"x": 2.1456936684,
				"y": -2.5177970356,
				"z": -2.8140444685,
				"element": "H" 
			},
			{
				"x": -0.8447938956,
				"y": 1.0551187169,
				"z": -0.9977276636,
				"element": "H" 
			},
			{
				"x": -2.8037374803,
				"y": 2.0868663582,
				"z": 0.1111999343,
				"element": "H" 
			},
			{
				"x": -3.2334783915,
				"y": -1.3933535671,
				"z": 2.5988299146,
				"element": "H" 
			},
			{
				"x": -1.2905952898,
				"y": -2.4475356611,
				"z": 1.4495820428,
				"element": "H" 
			},
			{
				"x": 2.3503999809,
				"y": -3.0294355532,
				"z": 1.6284962151,
				"element": "H" 
			}
		],
		 "valence_orbital": [ 
			{
				"type": "occ",
				"energy": -0.28731,
				"method": "rhf"
			},
			{
				"type": "occ",
				"energy": -0.28623,
				"method": "rhf"
			},
			{
				"type": "occ",
				"energy": -0.2682,
				"method": "rhf"
			},
			{
				"type": "occ",
				"energy": -0.26521,
				"method": "rhf"
			},
			{
				"type": "occ",
				"energy": -0.24784,
				"method": "rhf"
			},
			{
				"type": "unocc",
				"energy": -0.05371,
				"method": "rhf"
			},
			{
				"type": "unocc",
				"energy": -0.03684,
				"method": "rhf"
			},
			{
				"type": "unocc",
				"energy": -0.02101,
				"method": "rhf"
			},
			{
				"type": "unocc",
				"energy": -0.00745,
				"method": "rhf"
			},
			{
				"type": "unocc",
				"energy": 0.01627,
				"method": "rhf"
			}
		],
		"cosmo_sigma_profile": { 
			"-0.025": 0.0,
			"-0.024": 0.0,
			"-0.023": 0.0,
			"-0.022": 0.0,
			"-0.021": 0.0,
			"-0.02": 0.0,
			"-0.019": 0.0,
			"-0.018": 0.0,
			"-0.017": 0.0,
			"-0.016": 0.0,
			"-0.015": 0.136207181428,
			"-0.014": 0.527115204231,
			"-0.013": 0.546478933506,
			"-0.012": 0.410133788395,
			"-0.011": 0.673434438454,
			"-0.01": 0.820819128692,
			"-0.009": 1.18395295085,
			"-0.008": 6.23066812686,
			"-0.007": 11.2767760722,
			"-0.006": 14.4988346248,
			"-0.005": 14.3057100246,
			"-0.004": 16.8338473752,
			"-0.003": 19.1174888836,
			"-0.002": 19.8198839782,
			"-0.001": 18.7219669169,
			"0.0": 18.0151265836,
			"0.001": 24.4225998467,
			"0.002": 28.7633231476,
			"0.003": 16.1337801557,
			"0.004": 15.8029622191,
			"0.005": 5.80862856464,
			"0.006": 3.01034647953,
			"0.007": 3.25564981195,
			"0.008": 3.93642988952,
			"0.009": 3.00836185287,
			"0.01": 5.20870288196,
			"0.011": 4.9318140648,
			"0.012": 5.45580440735,
			"0.013": 1.68437961076,
			"0.014": 0.089212420135,
			"0.015": 0.0,
			"0.016": 0.0,
			"0.017": 0.0,
			"0.018": 0.0,
			"0.019": 0.0,
			"0.02": 0.0,
			"0.021": 0.0,
			"0.022": 0.0,
			"0.023": 0.0,
			"0.024": 0.0,
			"0.025": 0.0
		}
	}
}
