{
	 "smiles": "CC(=O)C1=C(C)C=CC(C)=C1", 
	 "Tm": 255.05, 
	 "num_atms": 23, 
	 "gaussian": { 
		 "optdone": 1, 
		 "sigma_profile": "yes", 
		 "theory": "DFT", 
		 "functional": "B3LYP", 
		 "basiset": "6-31G**", 
		 "properties": { 
			 "R2extent": 1970.8272, 
			 "electric_dipole_moment_norm": 2.91506618278, 
			 "electric_quadrupole_moment_norm": 10.0286603123, 
			 "total_energy": -463.532018692, 
			 "HOMO_LUMO_gap": 0.19103, 
			 "cosmo_polarized_energy": -8.03, 
			 "cosmo_cavitation_energy": 25.69, 
			 "cosmo_dispersion_energy": -18.75, 
			 "cosmo_repulsion_energy": 1.49, 
			 "cosmo_total_nonelectrostatic_energy": 8.43, 
			 "SMD_solvation_energy": 5.18 
		},
		"coords": [
			{
				"x": 1.1537684492,
				"y": -0.7151813155,
				"z": 3.0378716229,
				"element": "C" 
			},
			{
				"x": 1.3479508929,
				"y": -0.227700531,
				"z": 1.6108838812,
				"element": "C" 
			},
			{
				"x": 2.454535804,
				"y": 0.1652190896,
				"z": 1.2688050241,
				"element": "O" 
			},
			{
				"x": 0.1965390754,
				"y": -0.1570966339,
				"z": 0.6364355836,
				"element": "C" 
			},
			{
				"x": -1.0074307654,
				"y": -0.8995146038,
				"z": 0.6991516234,
				"element": "C" 
			},
			{
				"x": -1.3312871941,
				"y": -1.9490817148,
				"z": 1.7419222935,
				"element": "C" 
			},
			{
				"x": -1.955942966,
				"y": -0.6783424804,
				"z": -0.310881855,
				"element": "C" 
			},
			{
				"x": -1.7495306399,
				"y": 0.2350292892,
				"z": -1.3398203814,
				"element": "C" 
			},
			{
				"x": -0.5583254062,
				"y": 0.9676868913,
				"z": -1.4164372247,
				"element": "C" 
			},
			{
				"x": -0.3253575596,
				"y": 1.9701208248,
				"z": -2.5220857039,
				"element": "C" 
			},
			{
				"x": 0.3955490241,
				"y": 0.7435752909,
				"z": -0.4261554525,
				"element": "C" 
			},
			{
				"x": 1.0647330078,
				"y": -1.8052962659,
				"z": 3.0755047962,
				"element": "H" 
			},
			{
				"x": 0.2529586437,
				"y": -0.2949782665,
				"z": 3.4947351365,
				"element": "H" 
			},
			{
				"x": 2.033345968,
				"y": -0.4197540654,
				"z": 3.6116061682,
				"element": "H" 
			},
			{
				"x": -0.5493112238,
				"y": -2.7108621305,
				"z": 1.820295258,
				"element": "H" 
			},
			{
				"x": -1.4708306331,
				"y": -1.5227577588,
				"z": 2.7404080276,
				"element": "H" 
			},
			{
				"x": -2.2590436401,
				"y": -2.4624617007,
				"z": 1.4766931435,
				"element": "H" 
			},
			{
				"x": -2.8808208442,
				"y": -1.2491981595,
				"z": -0.2897144959,
				"element": "H" 
			},
			{
				"x": -2.5195530759,
				"y": 0.3725076379,
				"z": -2.0956139092,
				"element": "H" 
			},
			{
				"x": -0.9079218666,
				"y": 2.8852027978,
				"z": -2.3586432964,
				"element": "H" 
			},
			{
				"x": 0.7278203852,
				"y": 2.256949479,
				"z": -2.5832749604,
				"element": "H" 
			},
			{
				"x": -0.62416618,
				"y": 1.5680631834,
				"z": -3.4960115027,
				"element": "H" 
			},
			{
				"x": 1.3420207445,
				"y": 1.274071143,
				"z": -0.4512737767,
				"element": "H" 
			}
		],
		 "valence_orbital": [ 
			{
				"type": "occ",
				"energy": -0.33893,
				"method": "rhf"
			},
			{
				"type": "occ",
				"energy": -0.33562,
				"method": "rhf"
			},
			{
				"type": "occ",
				"energy": -0.25275,
				"method": "rhf"
			},
			{
				"type": "occ",
				"energy": -0.24132,
				"method": "rhf"
			},
			{
				"type": "occ",
				"energy": -0.23872,
				"method": "rhf"
			},
			{
				"type": "unocc",
				"energy": -0.04769,
				"method": "rhf"
			},
			{
				"type": "unocc",
				"energy": 0.0008,
				"method": "rhf"
			},
			{
				"type": "unocc",
				"energy": 0.03497,
				"method": "rhf"
			},
			{
				"type": "unocc",
				"energy": 0.08981,
				"method": "rhf"
			},
			{
				"type": "unocc",
				"energy": 0.10153,
				"method": "rhf"
			}
		],
		"cosmo_sigma_profile": { 
			"-0.025": 0.0,
			"-0.024": 0.0,
			"-0.023": 0.0,
			"-0.022": 0.0,
			"-0.021": 0.0,
			"-0.02": 0.0,
			"-0.019": 0.0,
			"-0.018": 0.0,
			"-0.017": 0.0,
			"-0.016": 0.0,
			"-0.015": 0.0,
			"-0.014": 0.0,
			"-0.013": 0.0,
			"-0.012": 0.0,
			"-0.011": 0.0,
			"-0.01": 0.0,
			"-0.009": 0.0,
			"-0.008": 0.00865136595028,
			"-0.007": 1.4125640233,
			"-0.006": 7.16068281948,
			"-0.005": 14.2115909116,
			"-0.004": 21.730007396,
			"-0.003": 20.6028459512,
			"-0.002": 21.6177831297,
			"-0.001": 24.0625394406,
			"0.0": 22.1995142578,
			"0.001": 12.4427982322,
			"0.002": 9.07331513059,
			"0.003": 8.58506700043,
			"0.004": 10.6869654308,
			"0.005": 9.94901345408,
			"0.006": 3.04624677109,
			"0.007": 1.2645435094,
			"0.008": 1.42443542757,
			"0.009": 2.34209479153,
			"0.01": 1.78792982998,
			"0.011": 2.34939095074,
			"0.012": 4.42033901858,
			"0.013": 2.23864751619,
			"0.014": 0.300523854234,
			"0.015": 0.0,
			"0.016": 0.0,
			"0.017": 0.0,
			"0.018": 0.0,
			"0.019": 0.0,
			"0.02": 0.0,
			"0.021": 0.0,
			"0.022": 0.0,
			"0.023": 0.0,
			"0.024": 0.0,
			"0.025": 0.0
		}
	}
}
