{
	 "smiles": "CN1N=C(C)C(=C1C(O)=O)[N+]([O-])=O", 
	 "Tm": 420.15, 
	 "num_atms": 20, 
	 "gaussian": { 
		 "optdone": 1, 
		 "sigma_profile": "yes", 
		 "theory": "DFT", 
		 "functional": "B3LYP", 
		 "basiset": "6-31G**", 
		 "properties": { 
			 "R2extent": 2522.2328, 
			 "electric_dipole_moment_norm": 3.63668710504, 
			 "electric_quadrupole_moment_norm": 11.290923239, 
			 "total_energy": -697.905831543, 
			 "HOMO_LUMO_gap": 0.17391, 
			 "cosmo_polarized_energy": -11.89, 
			 "cosmo_cavitation_energy": 24.66, 
			 "cosmo_dispersion_energy": -18.54, 
			 "cosmo_repulsion_energy": 1.44, 
			 "cosmo_total_nonelectrostatic_energy": 7.56, 
			 "SMD_solvation_energy": 6.6 
		},
		"coords": [
			{
				"x": 1.5236646646,
				"y": 0.1694879074,
				"z": -3.1882968628,
				"element": "C" 
			},
			{
				"x": 1.1082836334,
				"y": 0.209148162,
				"z": -1.7833440947,
				"element": "N" 
			},
			{
				"x": 1.0070584887,
				"y": 1.4299190105,
				"z": -1.2081302794,
				"element": "N" 
			},
			{
				"x": 0.6225799997,
				"y": 1.2346202187,
				"z": 0.0482534569,
				"element": "C" 
			},
			{
				"x": 0.41747906,
				"y": 2.3986575493,
				"z": 0.9614374271,
				"element": "C" 
			},
			{
				"x": 0.4757634666,
				"y": -0.1600003339,
				"z": 0.2744004044,
				"element": "C" 
			},
			{
				"x": 0.8002787374,
				"y": -0.8066766779,
				"z": -0.9418140223,
				"element": "C" 
			},
			{
				"x": 0.8638094193,
				"y": -2.2313222361,
				"z": -1.4304593071,
				"element": "C" 
			},
			{
				"x": 0.5538140999,
				"y": -3.1860135611,
				"z": -0.5701985173,
				"element": "O" 
			},
			{
				"x": 1.1907183442,
				"y": -2.4662946542,
				"z": -2.5769224954,
				"element": "O" 
			},
			{
				"x": 0.074071043,
				"y": -0.723562216,
				"z": 1.5181861058,
				"element": "N" 
			},
			{
				"x": -0.0310097498,
				"y": -1.965613853,
				"z": 1.6344116275,
				"element": "O" 
			},
			{
				"x": -0.159201101,
				"y": 0.0407261216,
				"z": 2.449140705,
				"element": "O" 
			},
			{
				"x": 2.445360775,
				"y": -0.4016896991,
				"z": -3.2941429112,
				"element": "H" 
			},
			{
				"x": 1.6690254444,
				"y": 1.208380484,
				"z": -3.4796521727,
				"element": "H" 
			},
			{
				"x": 0.7551734517,
				"y": -0.3062512902,
				"z": -3.7965778086,
				"element": "H" 
			},
			{
				"x": 1.0701198698,
				"y": 2.3333609925,
				"z": 1.836272548,
				"element": "H" 
			},
			{
				"x": 0.6322134193,
				"y": 3.3178214136,
				"z": 0.4133363767,
				"element": "H" 
			},
			{
				"x": -0.608603701,
				"y": 2.4283519132,
				"z": 1.3379970383,
				"element": "H" 
			},
			{
				"x": 0.3123006348,
				"y": -2.8054492513,
				"z": 0.3164027818,
				"element": "H" 
			}
		],
		 "valence_orbital": [ 
			{
				"type": "occ",
				"energy": -0.32338,
				"method": "rhf"
			},
			{
				"type": "occ",
				"energy": -0.31775,
				"method": "rhf"
			},
			{
				"type": "occ",
				"energy": -0.29991,
				"method": "rhf"
			},
			{
				"type": "occ",
				"energy": -0.29145,
				"method": "rhf"
			},
			{
				"type": "occ",
				"energy": -0.28983,
				"method": "rhf"
			},
			{
				"type": "unocc",
				"energy": -0.11592,
				"method": "rhf"
			},
			{
				"type": "unocc",
				"energy": -0.05004,
				"method": "rhf"
			},
			{
				"type": "unocc",
				"energy": 0.0193,
				"method": "rhf"
			},
			{
				"type": "unocc",
				"energy": 0.0785,
				"method": "rhf"
			},
			{
				"type": "unocc",
				"energy": 0.08967,
				"method": "rhf"
			}
		],
		"cosmo_sigma_profile": { 
			"-0.025": 0.0,
			"-0.024": 0.0,
			"-0.023": 0.0,
			"-0.022": 0.0,
			"-0.021": 0.0,
			"-0.02": 0.0,
			"-0.019": 0.0,
			"-0.018": 0.0,
			"-0.017": 0.0,
			"-0.016": 0.0,
			"-0.015": 0.0,
			"-0.014": 0.0,
			"-0.013": 0.0104446168117,
			"-0.012": 0.318626175534,
			"-0.011": 0.717476012527,
			"-0.01": 0.930561806575,
			"-0.009": 1.33382165971,
			"-0.008": 2.30869718602,
			"-0.007": 8.57289311582,
			"-0.006": 13.2308917553,
			"-0.005": 19.9729940003,
			"-0.004": 21.6567179813,
			"-0.003": 17.592095412,
			"-0.002": 14.1905397653,
			"-0.001": 11.7406338491,
			"0.0": 9.02572082544,
			"0.001": 6.38711752505,
			"0.002": 5.92046062282,
			"0.003": 6.55601883923,
			"0.004": 6.57105003571,
			"0.005": 6.55683385856,
			"0.006": 7.05414352717,
			"0.007": 8.24282389907,
			"0.008": 8.02350701855,
			"0.009": 7.23024400251,
			"0.01": 4.87324754488,
			"0.011": 4.82390965666,
			"0.012": 2.87168147798,
			"0.013": 0.550055893052,
			"0.014": 0.0,
			"0.015": 0.0,
			"0.016": 0.0,
			"0.017": 0.0,
			"0.018": 0.0,
			"0.019": 0.0,
			"0.02": 0.0,
			"0.021": 0.0,
			"0.022": 0.0,
			"0.023": 0.0,
			"0.024": 0.0,
			"0.025": 0.0
		}
	}
}
