{
	 "smiles": "CN1N=C(C=C1C(O)=O)C1=CC=CS1", 
	 "Tm": 447.15, 
	 "num_atms": 22, 
	 "gaussian": { 
		 "optdone": 1, 
		 "sigma_profile": "yes", 
		 "theory": "DFT", 
		 "functional": "B3LYP", 
		 "basiset": "6-31G**", 
		 "properties": { 
			 "R2extent": 3931.5515, 
			 "electric_dipole_moment_norm": 0.489491542317, 
			 "electric_quadrupole_moment_norm": 9.36733939387, 
			 "total_energy": -1005.90390896, 
			 "HOMO_LUMO_gap": 0.16309, 
			 "cosmo_polarized_energy": -11.29, 
			 "cosmo_cavitation_energy": 28.83, 
			 "cosmo_dispersion_energy": -21.64, 
			 "cosmo_repulsion_energy": 1.64, 
			 "cosmo_total_nonelectrostatic_energy": 8.83, 
			 "SMD_solvation_energy": 5.25 
		},
		"coords": [
			{
				"x": -2.4908092841,
				"y": -1.8973675934,
				"z": 1.3848199921,
				"element": "C" 
			},
			{
				"x": -1.2268120603,
				"y": -1.3455197328,
				"z": 0.9118904859,
				"element": "N" 
			},
			{
				"x": -1.0501139455,
				"y": -0.0205325928,
				"z": 0.9224131067,
				"element": "N" 
			},
			{
				"x": 0.1904003443,
				"y": 0.1942739922,
				"z": 0.4380859352,
				"element": "C" 
			},
			{
				"x": 0.8123676141,
				"y": -1.0281674344,
				"z": 0.1135811041,
				"element": "C" 
			},
			{
				"x": -0.1250311123,
				"y": -2.0027044465,
				"z": 0.4298218516,
				"element": "C" 
			},
			{
				"x": -0.0614949607,
				"y": -3.4607037458,
				"z": 0.3147931976,
				"element": "C" 
			},
			{
				"x": 1.1262692184,
				"y": -3.8721600516,
				"z": -0.1879864734,
				"element": "O" 
			},
			{
				"x": -0.9501485656,
				"y": -4.2350411586,
				"z": 0.6224717067,
				"element": "O" 
			},
			{
				"x": 0.7005077698,
				"y": 1.5535856282,
				"z": 0.3168838226,
				"element": "C" 
			},
			{
				"x": 0.064818875,
				"y": 2.7284810843,
				"z": 0.6433290822,
				"element": "C" 
			},
			{
				"x": 0.8589941546,
				"y": 3.8850875749,
				"z": 0.3959416515,
				"element": "C" 
			},
			{
				"x": 2.0918341178,
				"y": 3.5856116099,
				"z": -0.1161564143,
				"element": "C" 
			},
			{
				"x": 2.3036938634,
				"y": 1.8742039874,
				"z": -0.3056799703,
				"element": "S" 
			},
			{
				"x": -3.1047670079,
				"y": -1.0488744794,
				"z": 1.6830442498,
				"element": "H" 
			},
			{
				"x": -2.9806361042,
				"y": -2.4648850283,
				"z": 0.5916514745,
				"element": "H" 
			},
			{
				"x": -2.3232484823,
				"y": -2.5655030556,
				"z": 2.2313682835,
				"element": "H" 
			},
			{
				"x": 1.7977043223,
				"y": -1.1983826915,
				"z": -0.2921351752,
				"element": "H" 
			},
			{
				"x": 1.0766090137,
				"y": -4.8415224993,
				"z": -0.228511562,
				"element": "H" 
			},
			{
				"x": -0.9401157501,
				"y": 2.7464861229,
				"z": 1.0469395644,
				"element": "H" 
			},
			{
				"x": 0.5257632794,
				"y": 4.8980747269,
				"z": 0.5913349783,
				"element": "H" 
			},
			{
				"x": 2.8892147001,
				"y": 4.2603597832,
				"z": -0.3943008916,
				"element": "H" 
			}
		],
		 "valence_orbital": [ 
			{
				"type": "occ",
				"energy": -0.28901,
				"method": "rhf"
			},
			{
				"type": "occ",
				"energy": -0.28688,
				"method": "rhf"
			},
			{
				"type": "occ",
				"energy": -0.26402,
				"method": "rhf"
			},
			{
				"type": "occ",
				"energy": -0.24903,
				"method": "rhf"
			},
			{
				"type": "occ",
				"energy": -0.20984,
				"method": "rhf"
			},
			{
				"type": "unocc",
				"energy": -0.04675,
				"method": "rhf"
			},
			{
				"type": "unocc",
				"energy": -0.0289,
				"method": "rhf"
			},
			{
				"type": "unocc",
				"energy": 0.03051,
				"method": "rhf"
			},
			{
				"type": "unocc",
				"energy": 0.04753,
				"method": "rhf"
			},
			{
				"type": "unocc",
				"energy": 0.07279,
				"method": "rhf"
			}
		],
		"cosmo_sigma_profile": { 
			"-0.025": 0.0,
			"-0.024": 0.0,
			"-0.023": 0.0,
			"-0.022": 0.0,
			"-0.021": 0.0,
			"-0.02": 0.0,
			"-0.019": 0.402499970536,
			"-0.018": 0.85954756792,
			"-0.017": 0.718829128743,
			"-0.016": 1.15547327987,
			"-0.015": 0.721696673287,
			"-0.014": 0.582418482784,
			"-0.013": 0.405292241729,
			"-0.012": 0.899840328552,
			"-0.011": 0.840183009033,
			"-0.01": 0.80393999758,
			"-0.009": 0.65013746677,
			"-0.008": 3.86064543622,
			"-0.007": 5.82189557183,
			"-0.006": 12.967400711,
			"-0.005": 13.0472281966,
			"-0.004": 15.9394263549,
			"-0.003": 19.8935151669,
			"-0.002": 12.8066087397,
			"-0.001": 12.5340446422,
			"0.0": 13.737206951,
			"0.001": 16.2387705112,
			"0.002": 18.6502345508,
			"0.003": 18.5327441251,
			"0.004": 21.5532139368,
			"0.005": 12.7472537324,
			"0.006": 6.06509784198,
			"0.007": 4.82282029721,
			"0.008": 3.76642126493,
			"0.009": 2.4300170809,
			"0.01": 3.52248558824,
			"0.011": 4.70362231766,
			"0.012": 1.58689435358,
			"0.013": 0.0,
			"0.014": 0.0,
			"0.015": 0.0,
			"0.016": 0.0,
			"0.017": 0.0,
			"0.018": 0.0,
			"0.019": 0.0,
			"0.02": 0.0,
			"0.021": 0.0,
			"0.022": 0.0,
			"0.023": 0.0,
			"0.024": 0.0,
			"0.025": 0.0
		}
	}
}
