{
	 "smiles": "NC1=CC=C(Br)C=C1N", 
	 "Tm": 336.15, 
	 "num_atms": 16, 
	 "gaussian": { 
		 "optdone": 1, 
		 "sigma_profile": "yes", 
		 "theory": "DFT", 
		 "functional": "B3LYP", 
		 "basiset": "6-31G**", 
		 "properties": { 
			 "R2extent": 4557.2688, 
			 "electric_dipole_moment_norm": 3.39181330559, 
			 "electric_quadrupole_moment_norm": 12.5446833978, 
			 "total_energy": -2913.77059567, 
			 "HOMO_LUMO_gap": 0.19818, 
			 "cosmo_polarized_energy": -10.95, 
			 "cosmo_cavitation_energy": 21.89, 
			 "cosmo_dispersion_energy": -17.0, 
			 "cosmo_repulsion_energy": 1.4, 
			 "cosmo_total_nonelectrostatic_energy": 6.29, 
			 "SMD_solvation_energy": 2.57 
		},
		"coords": [
			{
				"x": 0.3490461038,
				"y": 0.9307287696,
				"z": 0.8090755576,
				"element": "N" 
			},
			{
				"x": -0.2690225755,
				"y": 0.6990237827,
				"z": -0.4344607728,
				"element": "C" 
			},
			{
				"x": -1.6473144614,
				"y": 0.793696185,
				"z": -0.6308112523,
				"element": "C" 
			},
			{
				"x": -2.2260288893,
				"y": 0.5232585669,
				"z": -1.8742459605,
				"element": "C" 
			},
			{
				"x": -1.3975018056,
				"y": 0.1648352071,
				"z": -2.9304448268,
				"element": "C" 
			},
			{
				"x": -2.157239086,
				"y": -0.1921285569,
				"z": -4.6528347812,
				"element": "Br" 
			},
			{
				"x": -0.0181287319,
				"y": 0.0446250854,
				"z": -2.7618089051,
				"element": "C" 
			},
			{
				"x": 0.5557612817,
				"y": 0.3012443892,
				"z": -1.514649758,
				"element": "C" 
			},
			{
				"x": 1.9411573709,
				"y": 0.2279006569,
				"z": -1.2885592606,
				"element": "N" 
			},
			{
				"x": -0.2731640186,
				"y": 1.3438347347,
				"z": 1.4929395032,
				"element": "H" 
			},
			{
				"x": 1.1924507854,
				"y": 1.4902389077,
				"z": 0.7196884713,
				"element": "H" 
			},
			{
				"x": -2.2822063849,
				"y": 1.0940834493,
				"z": 0.1994256452,
				"element": "H" 
			},
			{
				"x": -3.2970435497,
				"y": 0.6063724837,
				"z": -2.0142784373,
				"element": "H" 
			},
			{
				"x": 0.6086485935,
				"y": -0.258090485,
				"z": -3.5943900188,
				"element": "H" 
			},
			{
				"x": 2.1625341405,
				"y": -0.2237869826,
				"z": -0.405926646,
				"element": "H" 
			},
			{
				"x": 2.4514512269,
				"y": -0.2072361937,
				"z": -2.047118558,
				"element": "H" 
			}
		],
		 "valence_orbital": [ 
			{
				"type": "occ",
				"energy": -0.31671,
				"method": "rhf"
			},
			{
				"type": "occ",
				"energy": -0.27546,
				"method": "rhf"
			},
			{
				"type": "occ",
				"energy": -0.27283,
				"method": "rhf"
			},
			{
				"type": "occ",
				"energy": -0.2282,
				"method": "rhf"
			},
			{
				"type": "occ",
				"energy": -0.19407,
				"method": "rhf"
			},
			{
				"type": "unocc",
				"energy": 0.00411,
				"method": "rhf"
			},
			{
				"type": "unocc",
				"energy": 0.01385,
				"method": "rhf"
			},
			{
				"type": "unocc",
				"energy": 0.01831,
				"method": "rhf"
			},
			{
				"type": "unocc",
				"energy": 0.06971,
				"method": "rhf"
			},
			{
				"type": "unocc",
				"energy": 0.09916,
				"method": "rhf"
			}
		],
		"cosmo_sigma_profile": { 
			"-0.025": 0.0,
			"-0.024": 0.0,
			"-0.023": 0.0,
			"-0.022": 0.0,
			"-0.021": 0.0,
			"-0.02": 0.0,
			"-0.019": 0.0,
			"-0.018": 0.0,
			"-0.017": 0.0,
			"-0.016": 0.0,
			"-0.015": 0.0,
			"-0.014": 0.0,
			"-0.013": 0.191069569981,
			"-0.012": 2.73726352048,
			"-0.011": 4.75865028871,
			"-0.01": 5.6564642389,
			"-0.009": 5.59671691367,
			"-0.008": 5.19841503037,
			"-0.007": 5.14573917022,
			"-0.006": 7.67924583693,
			"-0.005": 7.40800534255,
			"-0.004": 7.16401328481,
			"-0.003": 8.05390841374,
			"-0.002": 7.68567322177,
			"-0.001": 8.02444277486,
			"0.0": 7.07489519115,
			"0.001": 8.92315544407,
			"0.002": 9.71486032392,
			"0.003": 12.5698952858,
			"0.004": 17.9324634944,
			"0.005": 24.450366496,
			"0.006": 10.90974229,
			"0.007": 1.9403569516,
			"0.008": 1.44768212559,
			"0.009": 0.764829566582,
			"0.01": 1.22776519107,
			"0.011": 1.51088803702,
			"0.012": 0.797732682825,
			"0.013": 1.42947212996,
			"0.014": 0.54940328139,
			"0.015": 0.328660547673,
			"0.016": 0.0,
			"0.017": 0.0,
			"0.018": 0.0,
			"0.019": 0.0,
			"0.02": 0.0,
			"0.021": 0.0,
			"0.022": 0.0,
			"0.023": 0.0,
			"0.024": 0.0,
			"0.025": 0.0
		}
	}
}
