{
	 "smiles": "CC(C)CC(C)(C)CC(C)(C)CC(C)(C)C", 
	 "Tm": 175.15, 
	 "num_atms": 50, 
	 "gaussian": { 
		 "optdone": 1, 
		 "sigma_profile": "yes", 
		 "theory": "DFT", 
		 "functional": "B3LYP", 
		 "basiset": "6-31G**", 
		 "properties": { 
			 "R2extent": 5457.366, 
			 "electric_dipole_moment_norm": 0.0990422132224, 
			 "electric_quadrupole_moment_norm": 0.76656363728, 
			 "total_energy": -630.222505338, 
			 "HOMO_LUMO_gap": 0.33863, 
			 "cosmo_polarized_energy": -1.43, 
			 "cosmo_cavitation_energy": 43.73, 
			 "cosmo_dispersion_energy": -28.48, 
			 "cosmo_repulsion_energy": 2.17, 
			 "cosmo_total_nonelectrostatic_energy": 17.42, 
			 "SMD_solvation_energy": 7.31 
		},
		"coords": [
			{
				"x": 2.3331104819,
				"y": 3.8409455429,
				"z": -2.6328512916,
				"element": "C" 
			},
			{
				"x": 0.9005791177,
				"y": 3.3612092603,
				"z": -2.3431623367,
				"element": "C" 
			},
			{
				"x": 0.1399510139,
				"y": 4.4393838564,
				"z": -1.5530443176,
				"element": "C" 
			},
			{
				"x": 0.8732708633,
				"y": 2.0023027778,
				"z": -1.5859566475,
				"element": "C" 
			},
			{
				"x": 0.635261214,
				"y": 0.7069317318,
				"z": -2.4206834338,
				"element": "C" 
			},
			{
				"x": 1.6379899053,
				"y": 0.6449347368,
				"z": -3.5979894776,
				"element": "C" 
			},
			{
				"x": -0.7873087954,
				"y": 0.719289703,
				"z": -3.0156267515,
				"element": "C" 
			},
			{
				"x": 0.9339009481,
				"y": -0.5781046778,
				"z": -1.5688990017,
				"element": "C" 
			},
			{
				"x": 0.018428056,
				"y": -1.2111461779,
				"z": -0.4569626381,
				"element": "C" 
			},
			{
				"x": 0.8680474855,
				"y": -2.3658340712,
				"z": 0.1239975916,
				"element": "C" 
			},
			{
				"x": -1.2426405124,
				"y": -1.845555386,
				"z": -1.0907241041,
				"element": "C" 
			},
			{
				"x": -0.3424743602,
				"y": -0.1401918673,
				"z": 0.6187177014,
				"element": "C" 
			},
			{
				"x": -0.9154130236,
				"y": -0.455061578,
				"z": 2.0416700977,
				"element": "C" 
			},
			{
				"x": -1.408457839,
				"y": 0.8996774094,
				"z": 2.6039213784,
				"element": "C" 
			},
			{
				"x": -2.111256149,
				"y": -1.4266541128,
				"z": 2.0381105728,
				"element": "C" 
			},
			{
				"x": 0.1680405468,
				"y": -0.9828237992,
				"z": 3.0074821055,
				"element": "C" 
			},
			{
				"x": 2.8723470357,
				"y": 4.0269231944,
				"z": -1.6956477525,
				"element": "H" 
			},
			{
				"x": 2.3289608156,
				"y": 4.7772534353,
				"z": -3.202417203,
				"element": "H" 
			},
			{
				"x": 2.9079955181,
				"y": 3.1061089685,
				"z": -3.2030988323,
				"element": "H" 
			},
			{
				"x": 0.3854761498,
				"y": 3.2443116412,
				"z": -3.3059061716,
				"element": "H" 
			},
			{
				"x": 0.5893031797,
				"y": 4.588937341,
				"z": -0.5634020066,
				"element": "H" 
			},
			{
				"x": -0.9081196922,
				"y": 4.1587414787,
				"z": -1.4016143414,
				"element": "H" 
			},
			{
				"x": 0.1580883545,
				"y": 5.4037353624,
				"z": -2.0732314742,
				"element": "H" 
			},
			{
				"x": 0.0930140279,
				"y": 2.0556053223,
				"z": -0.822268974,
				"element": "H" 
			},
			{
				"x": 1.8188615663,
				"y": 1.8933465415,
				"z": -1.0365500259,
				"element": "H" 
			},
			{
				"x": 1.462872977,
				"y": -0.2491479146,
				"z": -4.2068737654,
				"element": "H" 
			},
			{
				"x": 2.6733990084,
				"y": 0.6043800013,
				"z": -3.2408779859,
				"element": "H" 
			},
			{
				"x": 1.5422522416,
				"y": 1.5119626934,
				"z": -4.2579735657,
				"element": "H" 
			},
			{
				"x": -1.0035863962,
				"y": -0.212140722,
				"z": -3.5489211893,
				"element": "H" 
			},
			{
				"x": -1.5532935214,
				"y": 0.8545294285,
				"z": -2.2465422752,
				"element": "H" 
			},
			{
				"x": -0.9011849474,
				"y": 1.5374765472,
				"z": -3.7349013286,
				"element": "H" 
			},
			{
				"x": 1.0933843702,
				"y": -1.3898094631,
				"z": -2.2917523919,
				"element": "H" 
			},
			{
				"x": 1.917101303,
				"y": -0.4074832,
				"z": -1.1078202638,
				"element": "H" 
			},
			{
				"x": 1.1993574666,
				"y": -3.0343691406,
				"z": -0.6791925117,
				"element": "H" 
			},
			{
				"x": 0.2979434979,
				"y": -2.9723636093,
				"z": 0.8327701996,
				"element": "H" 
			},
			{
				"x": 1.7630169656,
				"y": -1.9953847614,
				"z": 0.634884326,
				"element": "H" 
			},
			{
				"x": -0.971240189,
				"y": -2.4299996893,
				"z": -1.9774457532,
				"element": "H" 
			},
			{
				"x": -1.7393568684,
				"y": -2.5277097881,
				"z": -0.397274401,
				"element": "H" 
			},
			{
				"x": -1.9786586471,
				"y": -1.0997808547,
				"z": -1.3983678721,
				"element": "H" 
			},
			{
				"x": 0.5587378436,
				"y": 0.4609353036,
				"z": 0.7948036073,
				"element": "H" 
			},
			{
				"x": -1.0609289312,
				"y": 0.5392735067,
				"z": 0.1438647855,
				"element": "H" 
			},
			{
				"x": -0.6027066941,
				"y": 1.642750676,
				"z": 2.6152212616,
				"element": "H" 
			},
			{
				"x": -1.7719468806,
				"y": 0.7868246791,
				"z": 3.6315240461,
				"element": "H" 
			},
			{
				"x": -2.2289008851,
				"y": 1.306249975,
				"z": 2.0016936106,
				"element": "H" 
			},
			{
				"x": -2.558422326,
				"y": -1.4751757255,
				"z": 3.0380107161,
				"element": "H" 
			},
			{
				"x": -2.8926529464,
				"y": -1.1024854098,
				"z": 1.3424174844,
				"element": "H" 
			},
			{
				"x": -1.8173163168,
				"y": -2.4443410325,
				"z": 1.7662676337,
				"element": "H" 
			},
			{
				"x": 0.5262021155,
				"y": -1.9782337422,
				"z": 2.7382184397,
				"element": "H" 
			},
			{
				"x": -0.232083103,
				"y": -1.0441434081,
				"z": 4.0263125496,
				"element": "H" 
			},
			{
				"x": 1.0334549554,
				"y": -0.3104809832,
				"z": 3.0336919779,
				"element": "H" 
			}
		],
		 "valence_orbital": [ 
			{
				"type": "occ",
				"energy": -0.30582,
				"method": "rhf"
			},
			{
				"type": "occ",
				"energy": -0.30211,
				"method": "rhf"
			},
			{
				"type": "occ",
				"energy": -0.29615,
				"method": "rhf"
			},
			{
				"type": "occ",
				"energy": -0.28679,
				"method": "rhf"
			},
			{
				"type": "occ",
				"energy": -0.27633,
				"method": "rhf"
			},
			{
				"type": "unocc",
				"energy": 0.0623,
				"method": "rhf"
			},
			{
				"type": "unocc",
				"energy": 0.08454,
				"method": "rhf"
			},
			{
				"type": "unocc",
				"energy": 0.10165,
				"method": "rhf"
			},
			{
				"type": "unocc",
				"energy": 0.1051,
				"method": "rhf"
			},
			{
				"type": "unocc",
				"energy": 0.10949,
				"method": "rhf"
			}
		],
		"cosmo_sigma_profile": { 
			"-0.025": 0.0,
			"-0.024": 0.0,
			"-0.023": 0.0,
			"-0.022": 0.0,
			"-0.021": 0.0,
			"-0.02": 0.0,
			"-0.019": 0.0,
			"-0.018": 0.0,
			"-0.017": 0.0,
			"-0.016": 0.0,
			"-0.015": 0.0,
			"-0.014": 0.0,
			"-0.013": 0.0,
			"-0.012": 0.0,
			"-0.011": 0.0,
			"-0.01": 0.0,
			"-0.009": 0.0,
			"-0.008": 0.0,
			"-0.007": 0.0,
			"-0.006": 0.0,
			"-0.005": 0.0,
			"-0.004": 0.109036365451,
			"-0.003": 8.99511934262,
			"-0.002": 46.5201451658,
			"-0.001": 81.0241985249,
			"0.0": 68.6575108974,
			"0.001": 60.0758759415,
			"0.002": 58.5804126555,
			"0.003": 8.21244926369,
			"0.004": 0.0,
			"0.005": 0.0,
			"0.006": 0.0,
			"0.007": 0.0,
			"0.008": 0.0,
			"0.009": 0.0,
			"0.01": 0.0,
			"0.011": 0.0,
			"0.012": 0.0,
			"0.013": 0.0,
			"0.014": 0.0,
			"0.015": 0.0,
			"0.016": 0.0,
			"0.017": 0.0,
			"0.018": 0.0,
			"0.019": 0.0,
			"0.02": 0.0,
			"0.021": 0.0,
			"0.022": 0.0,
			"0.023": 0.0,
			"0.024": 0.0,
			"0.025": 0.0
		}
	}
}
