{
	 "smiles": "CC(=O)NC1=C2NCCCC2=CC=C1", 
	 "Tm": 382.15, 
	 "num_atms": 28, 
	 "gaussian": { 
		 "optdone": 1, 
		 "sigma_profile": "yes", 
		 "theory": "DFT", 
		 "functional": "B3LYP", 
		 "basiset": "6-31G**", 
		 "properties": { 
			 "R2extent": 2935.4287, 
			 "electric_dipole_moment_norm": 2.12447409728, 
			 "electric_quadrupole_moment_norm": 13.4909570858, 
			 "total_energy": -612.368034443, 
			 "HOMO_LUMO_gap": 0.17663, 
			 "cosmo_polarized_energy": -12.24, 
			 "cosmo_cavitation_energy": 29.62, 
			 "cosmo_dispersion_energy": -22.11, 
			 "cosmo_repulsion_energy": 1.74, 
			 "cosmo_total_nonelectrostatic_energy": 9.25, 
			 "SMD_solvation_energy": 4.02 
		},
		"coords": [
			{
				"x": 1.6560217783,
				"y": -3.6378005528,
				"z": -1.4563940289,
				"element": "C" 
			},
			{
				"x": 0.7761010601,
				"y": -2.5539511858,
				"z": -0.8522301219,
				"element": "C" 
			},
			{
				"x": -0.0157132903,
				"y": -2.8136429981,
				"z": 0.0540860291,
				"element": "O" 
			},
			{
				"x": 0.9604288339,
				"y": -1.3019444812,
				"z": -1.3676658515,
				"element": "N" 
			},
			{
				"x": 0.2343307415,
				"y": -0.0949655957,
				"z": -1.1100028138,
				"element": "C" 
			},
			{
				"x": -0.0399712882,
				"y": 0.3816726904,
				"z": 0.1988014291,
				"element": "C" 
			},
			{
				"x": 0.3501924849,
				"y": -0.3487680662,
				"z": 1.3138352306,
				"element": "N" 
			},
			{
				"x": -0.0873946558,
				"y": 0.0663697337,
				"z": 2.642471427,
				"element": "C" 
			},
			{
				"x": -0.0321866004,
				"y": 1.5863421511,
				"z": 2.7702087047,
				"element": "C" 
			},
			{
				"x": -0.9387613682,
				"y": 2.2151220121,
				"z": 1.7065868482,
				"element": "C" 
			},
			{
				"x": -0.6487273309,
				"y": 1.6578725859,
				"z": 0.324705838,
				"element": "C" 
			},
			{
				"x": -0.9556000311,
				"y": 2.4038068181,
				"z": -0.8120377558,
				"element": "C" 
			},
			{
				"x": -0.6994655887,
				"y": 1.9204433011,
				"z": -2.0948184913,
				"element": "C" 
			},
			{
				"x": -0.1064712325,
				"y": 0.6699648837,
				"z": -2.2296356489,
				"element": "C" 
			},
			{
				"x": 2.3448758759,
				"y": -4.0011991045,
				"z": -0.6880225485,
				"element": "H" 
			},
			{
				"x": 2.2369861592,
				"y": -3.3126357968,
				"z": -2.3236885208,
				"element": "H" 
			},
			{
				"x": 1.0191842865,
				"y": -4.4775508012,
				"z": -1.7451046246,
				"element": "H" 
			},
			{
				"x": 1.5901493929,
				"y": -1.2416417122,
				"z": -2.1548955509,
				"element": "H" 
			},
			{
				"x": 0.2780791713,
				"y": -1.3532349423,
				"z": 1.1584734391,
				"element": "H" 
			},
			{
				"x": 0.5699042067,
				"y": -0.410052101,
				"z": 3.3786168787,
				"element": "H" 
			},
			{
				"x": -1.1143254615,
				"y": -0.2759684331,
				"z": 2.8580057122,
				"element": "H" 
			},
			{
				"x": 1.0020526584,
				"y": 1.922610523,
				"z": 2.6294658389,
				"element": "H" 
			},
			{
				"x": -0.343910283,
				"y": 1.8892337556,
				"z": 3.7753713467,
				"element": "H" 
			},
			{
				"x": -0.8241947592,
				"y": 3.3051751368,
				"z": 1.6950694636,
				"element": "H" 
			},
			{
				"x": -1.9883523622,
				"y": 2.020947438,
				"z": 1.9714474865,
				"element": "H" 
			},
			{
				"x": -1.4078907445,
				"y": 3.3846385556,
				"z": -0.6834969784,
				"element": "H" 
			},
			{
				"x": -0.9530463161,
				"y": 2.5065821276,
				"z": -2.9720878618,
				"element": "H" 
			},
			{
				"x": 0.1059046629,
				"y": 0.2680740583,
				"z": -3.2177648754,
				"element": "H" 
			}
		],
		 "valence_orbital": [ 
			{
				"type": "occ",
				"energy": -0.28623,
				"method": "rhf"
			},
			{
				"type": "occ",
				"energy": -0.28052,
				"method": "rhf"
			},
			{
				"type": "occ",
				"energy": -0.25686,
				"method": "rhf"
			},
			{
				"type": "occ",
				"energy": -0.223,
				"method": "rhf"
			},
			{
				"type": "occ",
				"energy": -0.18219,
				"method": "rhf"
			},
			{
				"type": "unocc",
				"energy": -0.00556,
				"method": "rhf"
			},
			{
				"type": "unocc",
				"energy": 0.02071,
				"method": "rhf"
			},
			{
				"type": "unocc",
				"energy": 0.03456,
				"method": "rhf"
			},
			{
				"type": "unocc",
				"energy": 0.06993,
				"method": "rhf"
			},
			{
				"type": "unocc",
				"energy": 0.1018,
				"method": "rhf"
			}
		],
		"cosmo_sigma_profile": { 
			"-0.025": 0.0,
			"-0.024": 0.0,
			"-0.023": 0.0,
			"-0.022": 0.0,
			"-0.021": 0.0,
			"-0.02": 0.0,
			"-0.019": 0.0,
			"-0.018": 0.0,
			"-0.017": 0.0,
			"-0.016": 0.0,
			"-0.015": 0.430993546475,
			"-0.014": 1.16013572219,
			"-0.013": 1.27443365295,
			"-0.012": 1.60902433167,
			"-0.011": 1.10983763582,
			"-0.01": 1.64820024215,
			"-0.009": 1.57318692836,
			"-0.008": 1.93007392667,
			"-0.007": 1.75041832159,
			"-0.006": 5.77421750363,
			"-0.005": 10.2174808037,
			"-0.004": 15.6230008157,
			"-0.003": 28.7144375238,
			"-0.002": 33.0112738341,
			"-0.001": 27.407343681,
			"0.0": 18.5552900901,
			"0.001": 9.92787887337,
			"0.002": 8.81365283692,
			"0.003": 7.15096994404,
			"0.004": 9.01519802632,
			"0.005": 10.040317036,
			"0.006": 10.3044511686,
			"0.007": 8.55768356485,
			"0.008": 2.64828227064,
			"0.009": 2.31729531483,
			"0.01": 2.4469349868,
			"0.011": 1.78017966341,
			"0.012": 3.01981053185,
			"0.013": 3.34344058597,
			"0.014": 1.73344311514,
			"0.015": 0.422597822331,
			"0.016": 0.0,
			"0.017": 0.0,
			"0.018": 0.0,
			"0.019": 0.0,
			"0.02": 0.0,
			"0.021": 0.0,
			"0.022": 0.0,
			"0.023": 0.0,
			"0.024": 0.0,
			"0.025": 0.0
		}
	}
}
