{
	 "smiles": "CC(C)NC(=O)C1=CC(F)=C(Cl)N=C1Cl", 
	 "Tm": 433.15, 
	 "num_atms": 24, 
	 "gaussian": { 
		 "optdone": 1, 
		 "sigma_profile": "yes", 
		 "theory": "DFT", 
		 "functional": "B3LYP", 
		 "basiset": "6-31G**", 
		 "properties": { 
			 "R2extent": 6568.544, 
			 "electric_dipole_moment_norm": 2.64172050187, 
			 "electric_quadrupole_moment_norm": 14.270398464, 
			 "total_energy": -1553.3417508, 
			 "HOMO_LUMO_gap": 0.19287, 
			 "cosmo_polarized_energy": -9.07, 
			 "cosmo_cavitation_energy": 31.9, 
			 "cosmo_dispersion_energy": -23.26, 
			 "cosmo_repulsion_energy": 1.82, 
			 "cosmo_total_nonelectrostatic_energy": 10.46, 
			 "SMD_solvation_energy": 4.23 
		},
		"coords": [
			{
				"x": -0.927593349,
				"y": 3.1112117099,
				"z": -2.4036365804,
				"element": "C" 
			},
			{
				"x": -1.2364294129,
				"y": 3.3724338774,
				"z": -0.9230111107,
				"element": "C" 
			},
			{
				"x": -2.68246376,
				"y": 3.0150359718,
				"z": -0.5523251243,
				"element": "C" 
			},
			{
				"x": -0.2634009659,
				"y": 2.7024810466,
				"z": -0.0365727216,
				"element": "N" 
			},
			{
				"x": -0.1166357931,
				"y": 1.361573564,
				"z": 0.0479969292,
				"element": "C" 
			},
			{
				"x": -0.7657727293,
				"y": 0.5638588998,
				"z": -0.6296744908,
				"element": "O" 
			},
			{
				"x": 0.9383588493,
				"y": 0.8016932981,
				"z": 1.0007872858,
				"element": "C" 
			},
			{
				"x": 1.2250914044,
				"y": -0.5549457335,
				"z": 0.7836321916,
				"element": "C" 
			},
			{
				"x": 2.1558367479,
				"y": -1.2132940202,
				"z": 1.5633875187,
				"element": "C" 
			},
			{
				"x": 2.4316470314,
				"y": -2.5027182479,
				"z": 1.3517752367,
				"element": "F" 
			},
			{
				"x": 2.8012227068,
				"y": -0.5031305176,
				"z": 2.5799611466,
				"element": "C" 
			},
			{
				"x": 3.9812387,
				"y": -1.3010492826,
				"z": 3.5807489559,
				"element": "Cl" 
			},
			{
				"x": 2.5370771516,
				"y": 0.7680363126,
				"z": 2.8101104083,
				"element": "N" 
			},
			{
				"x": 1.6497970423,
				"y": 1.3990309337,
				"z": 2.0590200281,
				"element": "C" 
			},
			{
				"x": 1.4179180017,
				"y": 3.0859760897,
				"z": 2.5418392645,
				"element": "Cl" 
			},
			{
				"x": 0.0980272141,
				"y": 3.4068384138,
				"z": -2.6451482887,
				"element": "H" 
			},
			{
				"x": -1.0512517697,
				"y": 2.0525075817,
				"z": -2.6389958705,
				"element": "H" 
			},
			{
				"x": -1.6083427447,
				"y": 3.6929126775,
				"z": -3.0334375671,
				"element": "H" 
			},
			{
				"x": -1.0869704528,
				"y": 4.4404709149,
				"z": -0.7261405351,
				"element": "H" 
			},
			{
				"x": -2.8834942687,
				"y": 3.2466964273,
				"z": 0.4981254892,
				"element": "H" 
			},
			{
				"x": -3.3778032807,
				"y": 3.5933052487,
				"z": -1.1692331948,
				"element": "H" 
			},
			{
				"x": -2.8682025739,
				"y": 1.9521785911,
				"z": -0.7180863193,
				"element": "H" 
			},
			{
				"x": 0.3000561971,
				"y": 3.2849881646,
				"z": 0.5635627546,
				"element": "H" 
			},
			{
				"x": 0.6893900542,
				"y": -1.0723919215,
				"z": -0.004185406,
				"element": "H" 
			}
		],
		 "valence_orbital": [ 
			{
				"type": "occ",
				"energy": -0.31427,
				"method": "rhf"
			},
			{
				"type": "occ",
				"energy": -0.30979,
				"method": "rhf"
			},
			{
				"type": "occ",
				"energy": -0.27071,
				"method": "rhf"
			},
			{
				"type": "occ",
				"energy": -0.26641,
				"method": "rhf"
			},
			{
				"type": "occ",
				"energy": -0.26521,
				"method": "rhf"
			},
			{
				"type": "unocc",
				"energy": -0.07234,
				"method": "rhf"
			},
			{
				"type": "unocc",
				"energy": -0.05085,
				"method": "rhf"
			},
			{
				"type": "unocc",
				"energy": -0.00068,
				"method": "rhf"
			},
			{
				"type": "unocc",
				"energy": 0.02373,
				"method": "rhf"
			},
			{
				"type": "unocc",
				"energy": 0.03601,
				"method": "rhf"
			}
		],
		"cosmo_sigma_profile": { 
			"-0.025": 0.0,
			"-0.024": 0.0,
			"-0.023": 0.0,
			"-0.022": 0.0,
			"-0.021": 0.0,
			"-0.02": 0.0,
			"-0.019": 0.0,
			"-0.018": 0.0,
			"-0.017": 0.0,
			"-0.016": 0.0,
			"-0.015": 0.0,
			"-0.014": 0.0,
			"-0.013": 0.0,
			"-0.012": 0.285057378471,
			"-0.011": 0.868716705404,
			"-0.01": 1.18288109945,
			"-0.009": 1.32244283256,
			"-0.008": 3.21733511615,
			"-0.007": 2.82361588987,
			"-0.006": 3.88399587225,
			"-0.005": 8.5816559257,
			"-0.004": 19.3382660065,
			"-0.003": 31.8670873531,
			"-0.002": 27.2180962373,
			"-0.001": 22.8955577122,
			"0.0": 25.5371926452,
			"0.001": 28.2159118849,
			"0.002": 22.6978380482,
			"0.003": 24.330955584,
			"0.004": 8.86277970068,
			"0.005": 4.77703619968,
			"0.006": 3.76223814076,
			"0.007": 3.37004488086,
			"0.008": 2.53375899392,
			"0.009": 2.48148230063,
			"0.01": 2.70053160994,
			"0.011": 2.18344642316,
			"0.012": 2.02651229072,
			"0.013": 2.2010138058,
			"0.014": 0.00829206050943,
			"0.015": 0.0,
			"0.016": 0.0,
			"0.017": 0.0,
			"0.018": 0.0,
			"0.019": 0.0,
			"0.02": 0.0,
			"0.021": 0.0,
			"0.022": 0.0,
			"0.023": 0.0,
			"0.024": 0.0,
			"0.025": 0.0
		}
	}
}
