{
	 "smiles": "BrC1=C2OCCOC2=C(S1)C=O", 
	 "Tm": 449.15, 
	 "num_atms": 17, 
	 "gaussian": { 
		 "optdone": 1, 
		 "sigma_profile": "yes", 
		 "theory": "DFT", 
		 "functional": "B3LYP", 
		 "basiset": "6-31G**", 
		 "properties": { 
			 "R2extent": 3570.4295, 
			 "electric_dipole_moment_norm": 3.456608883, 
			 "electric_quadrupole_moment_norm": 19.8532438075, 
			 "total_energy": -3464.95661097, 
			 "HOMO_LUMO_gap": 0.16513, 
			 "cosmo_polarized_energy": -12.65, 
			 "cosmo_cavitation_energy": 25.44, 
			 "cosmo_dispersion_energy": -19.91, 
			 "cosmo_repulsion_energy": 1.56, 
			 "cosmo_total_nonelectrostatic_energy": 7.08, 
			 "SMD_solvation_energy": 4.47 
		},
		"coords": [
			{
				"x": -0.0524849703,
				"y": -3.0810318356,
				"z": -1.7314925473,
				"element": "Br" 
			},
			{
				"x": 0.3059935552,
				"y": -1.4166500281,
				"z": -0.9450267739,
				"element": "C" 
			},
			{
				"x": 0.2257212463,
				"y": -1.1303178414,
				"z": 0.3943072619,
				"element": "C" 
			},
			{
				"x": -0.1360542655,
				"y": -2.0200950078,
				"z": 1.3565794773,
				"element": "O" 
			},
			{
				"x": 0.2431087844,
				"y": -1.580824722,
				"z": 2.670650059,
				"element": "C" 
			},
			{
				"x": -0.1349463397,
				"y": -0.1225495153,
				"z": 2.8756156873,
				"element": "C" 
			},
			{
				"x": 0.5503089984,
				"y": 0.7243627305,
				"z": 1.937317074,
				"element": "O" 
			},
			{
				"x": 0.5664178542,
				"y": 0.2304941649,
				"z": 0.679325497,
				"element": "C" 
			},
			{
				"x": 0.9116519164,
				"y": 0.9585254901,
				"z": -0.4464361784,
				"element": "C" 
			},
			{
				"x": 0.7988488251,
				"y": -0.048127467,
				"z": -1.8882067982,
				"element": "S" 
			},
			{
				"x": 1.3021357415,
				"y": 2.3573093724,
				"z": -0.5577985572,
				"element": "C" 
			},
			{
				"x": 1.418683539,
				"y": 3.123303203,
				"z": 0.3833697402,
				"element": "O" 
			},
			{
				"x": 1.3238323286,
				"y": -1.7168419215,
				"z": 2.8061250345,
				"element": "H" 
			},
			{
				"x": -0.2906697861,
				"y": -2.2250540093,
				"z": 3.3723323479,
				"element": "H" 
			},
			{
				"x": -1.2178376518,
				"y": 0.0090373167,
				"z": 2.758008644,
				"element": "H" 
			},
			{
				"x": 0.1632315879,
				"y": 0.2255485127,
				"z": 3.8666120875,
				"element": "H" 
			},
			{
				"x": 1.4933586364,
				"y": 2.6955115579,
				"z": -1.6010820554,
				"element": "H" 
			}
		],
		 "valence_orbital": [ 
			{
				"type": "occ",
				"energy": -0.31248,
				"method": "rhf"
			},
			{
				"type": "occ",
				"energy": -0.30578,
				"method": "rhf"
			},
			{
				"type": "occ",
				"energy": -0.24941,
				"method": "rhf"
			},
			{
				"type": "occ",
				"energy": -0.23813,
				"method": "rhf"
			},
			{
				"type": "occ",
				"energy": -0.23138,
				"method": "rhf"
			},
			{
				"type": "unocc",
				"energy": -0.06625,
				"method": "rhf"
			},
			{
				"type": "unocc",
				"energy": -0.01341,
				"method": "rhf"
			},
			{
				"type": "unocc",
				"energy": 0.00404,
				"method": "rhf"
			},
			{
				"type": "unocc",
				"energy": 0.01931,
				"method": "rhf"
			},
			{
				"type": "unocc",
				"energy": 0.05136,
				"method": "rhf"
			}
		],
		"cosmo_sigma_profile": { 
			"-0.025": 0.0,
			"-0.024": 0.0,
			"-0.023": 0.0,
			"-0.022": 0.0,
			"-0.021": 0.0,
			"-0.02": 0.0,
			"-0.019": 0.0,
			"-0.018": 0.0,
			"-0.017": 0.0,
			"-0.016": 0.0,
			"-0.015": 0.0,
			"-0.014": 0.0,
			"-0.013": 0.0,
			"-0.012": 0.0,
			"-0.011": 0.0,
			"-0.01": 0.0,
			"-0.009": 0.358135523422,
			"-0.008": 9.41568675024,
			"-0.007": 17.355002228,
			"-0.006": 14.2572583292,
			"-0.005": 11.7988201334,
			"-0.004": 9.5061702333,
			"-0.003": 8.27361085246,
			"-0.002": 13.0787992396,
			"-0.001": 14.0069787999,
			"0.0": 19.3109635342,
			"0.001": 20.4163245151,
			"0.002": 15.4329590382,
			"0.003": 14.537932193,
			"0.004": 6.19318535685,
			"0.005": 4.60698380697,
			"0.006": 3.34687463581,
			"0.007": 3.71169816925,
			"0.008": 4.2429189587,
			"0.009": 3.44564482029,
			"0.01": 2.61072793979,
			"0.011": 3.79689517777,
			"0.012": 5.57793852556,
			"0.013": 2.99951244207,
			"0.014": 1.33195112888,
			"0.015": 0.00864106899696,
			"0.016": 0.0,
			"0.017": 0.0,
			"0.018": 0.0,
			"0.019": 0.0,
			"0.02": 0.0,
			"0.021": 0.0,
			"0.022": 0.0,
			"0.023": 0.0,
			"0.024": 0.0,
			"0.025": 0.0
		}
	}
}
