{
	 "smiles": "COC1=C(CCNC(=O)CCl)C=CC=C1", 
	 "Tm": 352.15, 
	 "num_atms": 29, 
	 "gaussian": { 
		 "optdone": 1, 
		 "sigma_profile": "yes", 
		 "theory": "DFT", 
		 "functional": "B3LYP", 
		 "basiset": "6-31G**", 
		 "properties": { 
			 "R2extent": 4748.1742, 
			 "electric_dipole_moment_norm": 3.6135523616, 
			 "electric_quadrupole_moment_norm": 10.6764218678, 
			 "total_energy": -1093.01437, 
			 "HOMO_LUMO_gap": 0.21617, 
			 "cosmo_polarized_energy": -11.92, 
			 "cosmo_cavitation_energy": 34.23, 
			 "cosmo_dispersion_energy": -23.71, 
			 "cosmo_repulsion_energy": 1.9, 
			 "cosmo_total_nonelectrostatic_energy": 12.42, 
			 "SMD_solvation_energy": 6.27 
		},
		"coords": [
			{
				"x": -1.6098375628,
				"y": -3.044630593,
				"z": -2.285941012,
				"element": "C" 
			},
			{
				"x": -1.2193806779,
				"y": -1.7969161647,
				"z": -1.7342469542,
				"element": "O" 
			},
			{
				"x": 0.0682521869,
				"y": -1.3707280557,
				"z": -1.9268985802,
				"element": "C" 
			},
			{
				"x": 0.3729045947,
				"y": -0.1017406454,
				"z": -1.3846413333,
				"element": "C" 
			},
			{
				"x": -0.681046578,
				"y": 0.685784934,
				"z": -0.6378524268,
				"element": "C" 
			},
			{
				"x": -0.9297254217,
				"y": 0.1768440355,
				"z": 0.7964640218,
				"element": "C" 
			},
			{
				"x": 0.2539510653,
				"y": 0.2764964293,
				"z": 1.640126922,
				"element": "N" 
			},
			{
				"x": 0.2989974911,
				"y": 1.0674720064,
				"z": 2.735375008,
				"element": "C" 
			},
			{
				"x": -0.6289743446,
				"y": 1.7493024683,
				"z": 3.1575004183,
				"element": "O" 
			},
			{
				"x": 1.6031042724,
				"y": 1.1187252087,
				"z": 3.5373009151,
				"element": "C" 
			},
			{
				"x": 3.0047346816,
				"y": 0.1478905704,
				"z": 2.9040988253,
				"element": "Cl" 
			},
			{
				"x": 1.672120251,
				"y": 0.3846214339,
				"z": -1.5448406408,
				"element": "C" 
			},
			{
				"x": 2.6550503551,
				"y": -0.3467637842,
				"z": -2.21959386,
				"element": "C" 
			},
			{
				"x": 2.3326075156,
				"y": -1.592160407,
				"z": -2.7491138725,
				"element": "C" 
			},
			{
				"x": 1.0407093479,
				"y": -2.1089585293,
				"z": -2.607833405,
				"element": "C" 
			},
			{
				"x": -2.6629001642,
				"y": -3.1710519369,
				"z": -2.0299125529,
				"element": "H" 
			},
			{
				"x": -1.4995361835,
				"y": -3.0557967652,
				"z": -3.3776921263,
				"element": "H" 
			},
			{
				"x": -1.0328221645,
				"y": -3.8748935894,
				"z": -1.8590032954,
				"element": "H" 
			},
			{
				"x": -1.6336146295,
				"y": 0.6334051891,
				"z": -1.1759809478,
				"element": "H" 
			},
			{
				"x": -0.3848539357,
				"y": 1.7390327052,
				"z": -0.5911243206,
				"element": "H" 
			},
			{
				"x": -1.2678937973,
				"y": -0.8641783324,
				"z": 0.7611051088,
				"element": "H" 
			},
			{
				"x": -1.7046483076,
				"y": 0.7735791699,
				"z": 1.2818511677,
				"element": "H" 
			},
			{
				"x": 1.0912001313,
				"y": -0.2194674596,
				"z": 1.366142324,
				"element": "H" 
			},
			{
				"x": 1.3988198629,
				"y": 0.7622530322,
				"z": 4.5470937735,
				"element": "H" 
			},
			{
				"x": 1.9309445739,
				"y": 2.1567898755,
				"z": 3.5903245255,
				"element": "H" 
			},
			{
				"x": 1.9138519891,
				"y": 1.3628662448,
				"z": -1.1367987257,
				"element": "H" 
			},
			{
				"x": 3.6564169602,
				"y": 0.0574165319,
				"z": -2.3294946801,
				"element": "H" 
			},
			{
				"x": 3.0815750909,
				"y": -2.1741496817,
				"z": -3.2784824383,
				"element": "H" 
			},
			{
				"x": 0.8054933973,
				"y": -3.0798438905,
				"z": -3.0274318381,
				"element": "H" 
			}
		],
		 "valence_orbital": [ 
			{
				"type": "occ",
				"energy": -0.30561,
				"method": "rhf"
			},
			{
				"type": "occ",
				"energy": -0.25691,
				"method": "rhf"
			},
			{
				"type": "occ",
				"energy": -0.25295,
				"method": "rhf"
			},
			{
				"type": "occ",
				"energy": -0.24815,
				"method": "rhf"
			},
			{
				"type": "occ",
				"energy": -0.22197,
				"method": "rhf"
			},
			{
				"type": "unocc",
				"energy": -0.0058,
				"method": "rhf"
			},
			{
				"type": "unocc",
				"energy": 0.0069,
				"method": "rhf"
			},
			{
				"type": "unocc",
				"energy": 0.01932,
				"method": "rhf"
			},
			{
				"type": "unocc",
				"energy": 0.02638,
				"method": "rhf"
			},
			{
				"type": "unocc",
				"energy": 0.08757,
				"method": "rhf"
			}
		],
		"cosmo_sigma_profile": { 
			"-0.025": 0.0,
			"-0.024": 0.0,
			"-0.023": 0.0,
			"-0.022": 0.0,
			"-0.021": 0.0,
			"-0.02": 0.0,
			"-0.019": 0.0,
			"-0.018": 0.0,
			"-0.017": 0.0,
			"-0.016": 0.0,
			"-0.015": 0.0,
			"-0.014": 0.0,
			"-0.013": 0.0,
			"-0.012": 0.0,
			"-0.011": 0.0,
			"-0.01": 0.112965128744,
			"-0.009": 2.89710406882,
			"-0.008": 4.83185606184,
			"-0.007": 4.46229367358,
			"-0.006": 9.29099440295,
			"-0.005": 22.6920592963,
			"-0.004": 26.1035520643,
			"-0.003": 30.4515784573,
			"-0.002": 23.4796008354,
			"-0.001": 21.470745939,
			"0.0": 16.5917617066,
			"0.001": 15.1779757817,
			"0.002": 15.1557568429,
			"0.003": 15.5938427299,
			"0.004": 15.356983069,
			"0.005": 16.1405025847,
			"0.006": 13.0933711636,
			"0.007": 4.23567428275,
			"0.008": 1.84583383227,
			"0.009": 0.881599421618,
			"0.01": 0.976840010455,
			"0.011": 1.9811016663,
			"0.012": 1.75385713671,
			"0.013": 5.41847891971,
			"0.014": 2.8797214046,
			"0.015": 0.0982937707549,
			"0.016": 0.0,
			"0.017": 0.0,
			"0.018": 0.0,
			"0.019": 0.0,
			"0.02": 0.0,
			"0.021": 0.0,
			"0.022": 0.0,
			"0.023": 0.0,
			"0.024": 0.0,
			"0.025": 0.0
		}
	}
}
