{
	 "smiles": "BrC1CCC(Br)C(Br)CCC(Br)C(Br)CCC1Br", 
	 "Tm": 448.15, 
	 "num_atms": 36, 
	 "gaussian": { 
		 "optdone": 1, 
		 "sigma_profile": "yes", 
		 "theory": "DFT", 
		 "functional": "B3LYP", 
		 "basiset": "6-31G**", 
		 "properties": { 
			 "R2extent": 17039.6767, 
			 "electric_dipole_moment_norm": 2.83072870124, 
			 "electric_quadrupole_moment_norm": 12.7478234099, 
			 "total_energy": -15896.5643797, 
			 "HOMO_LUMO_gap": 0.22184, 
			 "cosmo_polarized_energy": -18.03, 
			 "cosmo_cavitation_energy": 44.7, 
			 "cosmo_dispersion_energy": -32.14, 
			 "cosmo_repulsion_energy": 2.47, 
			 "cosmo_total_nonelectrostatic_energy": 15.03, 
			 "SMD_solvation_energy": -0.29 
		},
		"coords": [
			{
				"x": -3.7514543159,
				"y": -2.0429357571,
				"z": 1.0224851393,
				"element": "Br" 
			},
			{
				"x": -2.0669384864,
				"y": -1.6111061067,
				"z": 2.0051272771,
				"element": "C" 
			},
			{
				"x": -0.8886745068,
				"y": -2.4543723599,
				"z": 1.4606774801,
				"element": "C" 
			},
			{
				"x": -0.8131366198,
				"y": -2.6011620277,
				"z": -0.0739436368,
				"element": "C" 
			},
			{
				"x": 0.5917915222,
				"y": -2.6061077808,
				"z": -0.6626772442,
				"element": "C" 
			},
			{
				"x": 1.5609523239,
				"y": -4.2803550669,
				"z": -0.1866617533,
				"element": "Br" 
			},
			{
				"x": 0.6710766787,
				"y": -2.3259910384,
				"z": -2.1709732109,
				"element": "C" 
			},
			{
				"x": -0.250808022,
				"y": -3.7393435313,
				"z": -3.2283668787,
				"element": "Br" 
			},
			{
				"x": 0.0684452169,
				"y": -0.9665464291,
				"z": -2.5917746844,
				"element": "C" 
			},
			{
				"x": 0.7286568102,
				"y": 0.2227118745,
				"z": -1.8586335402,
				"element": "C" 
			},
			{
				"x": -0.0074902441,
				"y": 1.5684330606,
				"z": -1.9186017513,
				"element": "C" 
			},
			{
				"x": 1.0935285899,
				"y": 2.8584087037,
				"z": -0.8132955622,
				"element": "Br" 
			},
			{
				"x": -1.4683070258,
				"y": 1.7054611577,
				"z": -1.4382274704,
				"element": "C" 
			},
			{
				"x": -2.642065456,
				"y": 1.4343742209,
				"z": -3.0574950729,
				"element": "Br" 
			},
			{
				"x": -2.0469692554,
				"y": 0.8188263158,
				"z": -0.3192798901,
				"element": "C" 
			},
			{
				"x": -1.1907233238,
				"y": 0.7019830263,
				"z": 0.9523954562,
				"element": "C" 
			},
			{
				"x": -1.7680516525,
				"y": -0.1024495655,
				"z": 2.1262977596,
				"element": "C" 
			},
			{
				"x": -3.3152650081,
				"y": 0.8618241929,
				"z": 2.9318016054,
				"element": "Br" 
			},
			{
				"x": -2.3111327676,
				"y": -1.952356955,
				"z": 3.0103220907,
				"element": "H" 
			},
			{
				"x": -0.9460236067,
				"y": -3.446499342,
				"z": 1.9155766053,
				"element": "H" 
			},
			{
				"x": 0.0360676752,
				"y": -2.0033725328,
				"z": 1.8476344399,
				"element": "H" 
			},
			{
				"x": -1.3409648152,
				"y": -1.7693628935,
				"z": -0.5387232888,
				"element": "H" 
			},
			{
				"x": -1.3488997303,
				"y": -3.4960233522,
				"z": -0.3957974155,
				"element": "H" 
			},
			{
				"x": 1.2130780964,
				"y": -1.8564912382,
				"z": -0.1686972123,
				"element": "H" 
			},
			{
				"x": 1.7113829477,
				"y": -2.4040633669,
				"z": -2.4892792018,
				"element": "H" 
			},
			{
				"x": 0.2019799202,
				"y": -0.8597579774,
				"z": -3.6718507049,
				"element": "H" 
			},
			{
				"x": -1.0102617939,
				"y": -0.9847139497,
				"z": -2.431080466,
				"element": "H" 
			},
			{
				"x": 1.7312329727,
				"y": 0.3856710675,
				"z": -2.2672639615,
				"element": "H" 
			},
			{
				"x": 0.8825011901,
				"y": -0.0203669997,
				"z": -0.8081415246,
				"element": "H" 
			},
			{
				"x": 0.0651756866,
				"y": 2.0113778075,
				"z": -2.9096390861,
				"element": "H" 
			},
			{
				"x": -1.6409391229,
				"y": 2.7565207305,
				"z": -1.2170078591,
				"element": "H" 
			},
			{
				"x": -2.2664050239,
				"y": -0.1694120656,
				"z": -0.7213247989,
				"element": "H" 
			},
			{
				"x": -3.0207611946,
				"y": 1.2389441155,
				"z": -0.0514685919,
				"element": "H" 
			},
			{
				"x": -0.2237357996,
				"y": 0.2431522084,
				"z": 0.7247906338,
				"element": "H" 
			},
			{
				"x": -0.9562883823,
				"y": 1.6992366135,
				"z": 1.3351386444,
				"element": "H" 
			},
			{
				"x": -1.028873477,
				"y": -0.0422347589,
				"z": 2.930757675,
				"element": "H" 
			}
		],
		 "valence_orbital": [ 
			{
				"type": "occ",
				"energy": -0.28563,
				"method": "rhf"
			},
			{
				"type": "occ",
				"energy": -0.28158,
				"method": "rhf"
			},
			{
				"type": "occ",
				"energy": -0.27955,
				"method": "rhf"
			},
			{
				"type": "occ",
				"energy": -0.2727,
				"method": "rhf"
			},
			{
				"type": "occ",
				"energy": -0.27247,
				"method": "rhf"
			},
			{
				"type": "unocc",
				"energy": -0.05063,
				"method": "rhf"
			},
			{
				"type": "unocc",
				"energy": -0.03188,
				"method": "rhf"
			},
			{
				"type": "unocc",
				"energy": -0.02864,
				"method": "rhf"
			},
			{
				"type": "unocc",
				"energy": -0.01538,
				"method": "rhf"
			},
			{
				"type": "unocc",
				"energy": -0.00112,
				"method": "rhf"
			}
		],
		"cosmo_sigma_profile": { 
			"-0.025": -2.32629886329,
			"-0.024": 0.00376179334616,
			"-0.023": 0.0,
			"-0.022": 0.0,
			"-0.021": 0.0186160961092,
			"-0.02": 0.0194448968908,
			"-0.019": 0.00539201299221,
			"-0.018": 0.0127501790078,
			"-0.017": 0.0354834828418,
			"-0.016": 0.0658860902356,
			"-0.015": 0.374962962888,
			"-0.014": 0.128936402663,
			"-0.013": 0.33650944991,
			"-0.012": 0.439363445439,
			"-0.011": 0.762590903098,
			"-0.01": 1.81097999693,
			"-0.009": 7.01577283583,
			"-0.008": 13.0183665333,
			"-0.007": 14.2999266033,
			"-0.006": 17.2214640053,
			"-0.005": 19.3716124779,
			"-0.004": 16.9154289497,
			"-0.003": 18.0430510444,
			"-0.002": 22.4439015782,
			"-0.001": 21.35263941,
			"0.0": 24.6470661967,
			"0.001": 25.5941409149,
			"0.002": 25.7261829375,
			"0.003": 27.4299904431,
			"0.004": 34.2935291981,
			"0.005": 40.7243035639,
			"0.006": 26.5121417123,
			"0.007": 6.50357318311,
			"0.008": 2.47178487687,
			"0.009": 0.00242997958679,
			"0.01": 0.0,
			"0.011": 0.0,
			"0.012": 0.0,
			"0.013": 0.0,
			"0.014": 1.30376075196,
			"0.015": 6.8553892313,
			"0.016": -6.81465872973,
			"0.017": 2.91387780367,
			"0.018": -3.97835129619,
			"0.019": 0.844048914826,
			"0.02": -0.154238649325,
			"0.021": 3.98447767881,
			"0.022": -4.55648684331,
			"0.023": 0.0,
			"0.024": 0.37072180816,
			"0.025": -0.30084126922
		}
	}
}
