{
	 "smiles": "FC1=CC=C(NC(=O)CCCl)C=C1", 
	 "Tm": 383.15, 
	 "num_atms": 22, 
	 "gaussian": { 
		 "optdone": 1, 
		 "sigma_profile": "yes", 
		 "theory": "DFT", 
		 "functional": "B3LYP", 
		 "basiset": "6-31G**", 
		 "properties": { 
			 "R2extent": 4534.0233, 
			 "electric_dipole_moment_norm": 3.88471593427, 
			 "electric_quadrupole_moment_norm": 9.88866693544, 
			 "total_energy": -1038.40806413, 
			 "HOMO_LUMO_gap": 0.20448, 
			 "cosmo_polarized_energy": -14.43, 
			 "cosmo_cavitation_energy": 28.62, 
			 "cosmo_dispersion_energy": -20.77, 
			 "cosmo_repulsion_energy": 1.64, 
			 "cosmo_total_nonelectrostatic_energy": 9.49, 
			 "SMD_solvation_energy": 5.4 
		},
		"coords": [
			{
				"x": 0.2001329774,
				"y": 4.8339414423,
				"z": 2.6680479997,
				"element": "F" 
			},
			{
				"x": 0.252366901,
				"y": 3.6401585753,
				"z": 2.0389586701,
				"element": "C" 
			},
			{
				"x": 0.2154509873,
				"y": 3.5987780114,
				"z": 0.6510576052,
				"element": "C" 
			},
			{
				"x": 0.2691023402,
				"y": 2.3705409156,
				"z": -0.0071090388,
				"element": "C" 
			},
			{
				"x": 0.3589072797,
				"y": 1.1853297099,
				"z": 0.7398923672,
				"element": "C" 
			},
			{
				"x": 0.4125270754,
				"y": -0.099042382,
				"z": 0.1504487273,
				"element": "N" 
			},
			{
				"x": 0.4014936772,
				"y": -0.4350993932,
				"z": -1.1787806703,
				"element": "C" 
			},
			{
				"x": 0.3458014806,
				"y": 0.3675823677,
				"z": -2.1012550402,
				"element": "O" 
			},
			{
				"x": 0.4280563656,
				"y": -1.9411915389,
				"z": -1.4566875139,
				"element": "C" 
			},
			{
				"x": 1.4486788332,
				"y": -2.2894178206,
				"z": -2.5306037574,
				"element": "C" 
			},
			{
				"x": 3.1490371076,
				"y": -2.162409169,
				"z": -1.8980167486,
				"element": "Cl" 
			},
			{
				"x": 0.3950846153,
				"y": 1.2528438965,
				"z": 2.1412792592,
				"element": "C" 
			},
			{
				"x": 0.3425744871,
				"y": 2.4791573647,
				"z": 2.7977212175,
				"element": "C" 
			},
			{
				"x": 0.1467728911,
				"y": 4.5251833323,
				"z": 0.0910929301,
				"element": "H" 
			},
			{
				"x": 0.2455038888,
				"y": 2.317544521,
				"z": -1.0860193017,
				"element": "H" 
			},
			{
				"x": 0.5063322724,
				"y": -0.8642015342,
				"z": 0.8022987787,
				"element": "H" 
			},
			{
				"x": -0.5643967402,
				"y": -2.2054558671,
				"z": -1.8458224082,
				"element": "H" 
			},
			{
				"x": 0.5979288491,
				"y": -2.5409686326,
				"z": -0.5569251974,
				"element": "H" 
			},
			{
				"x": 1.3286884417,
				"y": -3.3136435201,
				"z": -2.8835225713,
				"element": "H" 
			},
			{
				"x": 1.3705520681,
				"y": -1.5902094741,
				"z": -3.3629971187,
				"element": "H" 
			},
			{
				"x": 0.4657256402,
				"y": 0.3386242497,
				"z": 2.7260409728,
				"element": "H" 
			},
			{
				"x": 0.3707785614,
				"y": 2.5418549451,
				"z": 3.8799008387,
				"element": "H" 
			}
		],
		 "valence_orbital": [ 
			{
				"type": "occ",
				"energy": -0.30148,
				"method": "rhf"
			},
			{
				"type": "occ",
				"energy": -0.29846,
				"method": "rhf"
			},
			{
				"type": "occ",
				"energy": -0.26545,
				"method": "rhf"
			},
			{
				"type": "occ",
				"energy": -0.2644,
				"method": "rhf"
			},
			{
				"type": "occ",
				"energy": -0.22346,
				"method": "rhf"
			},
			{
				"type": "unocc",
				"energy": -0.01898,
				"method": "rhf"
			},
			{
				"type": "unocc",
				"energy": -0.01478,
				"method": "rhf"
			},
			{
				"type": "unocc",
				"energy": 0.02094,
				"method": "rhf"
			},
			{
				"type": "unocc",
				"energy": 0.03836,
				"method": "rhf"
			},
			{
				"type": "unocc",
				"energy": 0.05637,
				"method": "rhf"
			}
		],
		"cosmo_sigma_profile": { 
			"-0.025": 0.0,
			"-0.024": 0.0,
			"-0.023": 0.0,
			"-0.022": 0.0,
			"-0.021": 0.0,
			"-0.02": 0.0,
			"-0.019": 0.0,
			"-0.018": 0.0,
			"-0.017": 0.0,
			"-0.016": 0.443518859147,
			"-0.015": 1.34836457988,
			"-0.014": 1.786693015,
			"-0.013": 1.79702553755,
			"-0.012": 0.752207526178,
			"-0.011": 1.69441249962,
			"-0.01": 1.78404202334,
			"-0.009": 1.89333498845,
			"-0.008": 3.09036369758,
			"-0.007": 12.1320939442,
			"-0.006": 13.5025417478,
			"-0.005": 15.7795968219,
			"-0.004": 13.2792977517,
			"-0.003": 9.64018733709,
			"-0.002": 8.06478512951,
			"-0.001": 8.93943304278,
			"0.0": 10.8510421029,
			"0.001": 17.3342581935,
			"0.002": 19.0226125759,
			"0.003": 21.3933332257,
			"0.004": 24.7408837983,
			"0.005": 14.6839247322,
			"0.006": 10.5580558834,
			"0.007": 4.84833952511,
			"0.008": 1.11623624699,
			"0.009": 1.60626656737,
			"0.01": 1.70887389568,
			"0.011": 1.7726598237,
			"0.012": 2.84030540002,
			"0.013": 2.00363014608,
			"0.014": 0.153185454575,
			"0.015": 0.0,
			"0.016": 0.0,
			"0.017": 0.0,
			"0.018": 0.0,
			"0.019": 0.0,
			"0.02": 0.0,
			"0.021": 0.0,
			"0.022": 0.0,
			"0.023": 0.0,
			"0.024": 0.0,
			"0.025": 0.0
		}
	}
}
