{
	 "smiles": "CCOC(=O)C1=C(C)N=C(S1)C1=CC(F)=C(F)C=C1", 
	 "Tm": 355.15, 
	 "num_atms": 30, 
	 "gaussian": { 
		 "optdone": 1, 
		 "sigma_profile": "yes", 
		 "theory": "DFT", 
		 "functional": "B3LYP", 
		 "basiset": "6-31G**", 
		 "properties": { 
			 "R2extent": 8106.577, 
			 "electric_dipole_moment_norm": 1.13205839514, 
			 "electric_quadrupole_moment_norm": 15.7780223701, 
			 "total_energy": -1305.08688829, 
			 "HOMO_LUMO_gap": 0.15185, 
			 "cosmo_polarized_energy": -8.5, 
			 "cosmo_cavitation_energy": 37.81, 
			 "cosmo_dispersion_energy": -27.3, 
			 "cosmo_repulsion_energy": 2.03, 
			 "cosmo_total_nonelectrostatic_energy": 12.55, 
			 "SMD_solvation_energy": 7.0 
		},
		"coords": [
			{
				"x": -1.2917606848,
				"y": 5.0025217575,
				"z": -2.3831248054,
				"element": "C" 
			},
			{
				"x": -1.1920866776,
				"y": 4.7984009792,
				"z": -0.8836791984,
				"element": "C" 
			},
			{
				"x": -0.9043936575,
				"y": 3.3996654709,
				"z": -0.6539926069,
				"element": "O" 
			},
			{
				"x": -0.7786440632,
				"y": 3.027145798,
				"z": 0.6412251628,
				"element": "C" 
			},
			{
				"x": -0.8941812478,
				"y": 3.7936277713,
				"z": 1.581001286,
				"element": "O" 
			},
			{
				"x": -0.4891332662,
				"y": 1.5959339523,
				"z": 0.7686215091,
				"element": "C" 
			},
			{
				"x": -0.301842501,
				"y": 0.8876260115,
				"z": 1.9439343912,
				"element": "C" 
			},
			{
				"x": -0.3588636448,
				"y": 1.4507159069,
				"z": 3.3336047699,
				"element": "C" 
			},
			{
				"x": -0.0437312749,
				"y": -0.4446196799,
				"z": 1.7723871204,
				"element": "N" 
			},
			{
				"x": -0.0248202304,
				"y": -0.7918814172,
				"z": 0.5045362513,
				"element": "C" 
			},
			{
				"x": -0.331807298,
				"y": 0.5313506854,
				"z": -0.6036167287,
				"element": "S" 
			},
			{
				"x": 0.2306057419,
				"y": -2.1655546004,
				"z": 0.0556744816,
				"element": "C" 
			},
			{
				"x": 0.2455131013,
				"y": -2.5093959484,
				"z": -1.307608973,
				"element": "C" 
			},
			{
				"x": 0.4910280588,
				"y": -3.8186796476,
				"z": -1.6840178155,
				"element": "C" 
			},
			{
				"x": 0.5078268642,
				"y": -4.1595198911,
				"z": -2.9828617271,
				"element": "F" 
			},
			{
				"x": 0.724569134,
				"y": -4.8036082317,
				"z": -0.7227774444,
				"element": "C" 
			},
			{
				"x": 0.9591480288,
				"y": -6.0619616996,
				"z": -1.1227826906,
				"element": "F" 
			},
			{
				"x": 0.7128012964,
				"y": -4.4782523873,
				"z": 0.6277815724,
				"element": "C" 
			},
			{
				"x": 0.4667982097,
				"y": -3.1642820245,
				"z": 1.0166214018,
				"element": "C" 
			},
			{
				"x": -2.0916329033,
				"y": 4.3902450424,
				"z": -2.8091897977,
				"element": "H" 
			},
			{
				"x": -1.5096124802,
				"y": 6.0528957021,
				"z": -2.599767439,
				"element": "H" 
			},
			{
				"x": -0.353100393,
				"y": 4.7367266224,
				"z": -2.8775762033,
				"element": "H" 
			},
			{
				"x": -0.3934856609,
				"y": 5.3995334261,
				"z": -0.4375582939,
				"element": "H" 
			},
			{
				"x": -2.1237468378,
				"y": 5.0548131004,
				"z": -0.3694632373,
				"element": "H" 
			},
			{
				"x": 0.3805954163,
				"y": 2.2455082309,
				"z": 3.4662496133,
				"element": "H" 
			},
			{
				"x": -0.1711806249,
				"y": 0.6516114312,
				"z": 4.052378314,
				"element": "H" 
			},
			{
				"x": -1.3337352286,
				"y": 1.9039911772,
				"z": 3.5342820911,
				"element": "H" 
			},
			{
				"x": 0.0693510692,
				"y": -1.7772080357,
				"z": -2.088728739,
				"element": "H" 
			},
			{
				"x": 0.8968884673,
				"y": -5.2605637115,
				"z": 1.3562176957,
				"element": "H" 
			},
			{
				"x": 0.4533332871,
				"y": -2.8900857906,
				"z": 2.0646300397,
				"element": "H" 
			}
		],
		 "valence_orbital": [ 
			{
				"type": "occ",
				"energy": -0.28383,
				"method": "rhf"
			},
			{
				"type": "occ",
				"energy": -0.283,
				"method": "rhf"
			},
			{
				"type": "occ",
				"energy": -0.27858,
				"method": "rhf"
			},
			{
				"type": "occ",
				"energy": -0.26625,
				"method": "rhf"
			},
			{
				"type": "occ",
				"energy": -0.22987,
				"method": "rhf"
			},
			{
				"type": "unocc",
				"energy": -0.07802,
				"method": "rhf"
			},
			{
				"type": "unocc",
				"energy": -0.02104,
				"method": "rhf"
			},
			{
				"type": "unocc",
				"energy": -0.01582,
				"method": "rhf"
			},
			{
				"type": "unocc",
				"energy": 0.01124,
				"method": "rhf"
			},
			{
				"type": "unocc",
				"energy": 0.04179,
				"method": "rhf"
			}
		],
		"cosmo_sigma_profile": { 
			"-0.025": 0.0,
			"-0.024": 0.0,
			"-0.023": 0.0,
			"-0.022": 0.0,
			"-0.021": 0.0,
			"-0.02": 0.0,
			"-0.019": 0.0,
			"-0.018": 0.0,
			"-0.017": 0.0,
			"-0.016": 0.0,
			"-0.015": 0.0,
			"-0.014": 0.0,
			"-0.013": 0.0,
			"-0.012": 0.0,
			"-0.011": 0.0,
			"-0.01": 0.0455522541893,
			"-0.009": 1.50331213353,
			"-0.008": 3.38307921611,
			"-0.007": 3.48241167685,
			"-0.006": 6.77648107641,
			"-0.005": 13.361250881,
			"-0.004": 21.7470177363,
			"-0.003": 24.7884442382,
			"-0.002": 28.2713068605,
			"-0.001": 41.8927111546,
			"0.0": 38.2890395783,
			"0.001": 28.5515052111,
			"0.002": 23.9811175168,
			"0.003": 26.1967203615,
			"0.004": 15.0665617512,
			"0.005": 5.9354741881,
			"0.006": 3.79493146083,
			"0.007": 3.16145283021,
			"0.008": 3.04946567448,
			"0.009": 2.48211022827,
			"0.01": 3.15767645212,
			"0.011": 2.64723631803,
			"0.012": 3.01818572547,
			"0.013": 0.0775332918423,
			"0.014": 0.0,
			"0.015": 0.0,
			"0.016": 0.0,
			"0.017": 0.0,
			"0.018": 0.0,
			"0.019": 0.0,
			"0.02": 0.0,
			"0.021": 0.0,
			"0.022": 0.0,
			"0.023": 0.0,
			"0.024": 0.0,
			"0.025": 0.0
		}
	}
}
