{
	 "smiles": "CSSC", 
	 "Tm": 188.15, 
	 "num_atms": 10, 
	 "gaussian": { 
		 "optdone": 1, 
		 "sigma_profile": "yes", 
		 "theory": "DFT", 
		 "functional": "B3LYP", 
		 "basiset": "6-31G**", 
		 "properties": { 
			 "R2extent": 1249.1702, 
			 "electric_dipole_moment_norm": 2.24659798584, 
			 "electric_quadrupole_moment_norm": 7.84551040723, 
			 "total_energy": -876.208664213, 
			 "HOMO_LUMO_gap": 0.21472, 
			 "cosmo_polarized_energy": -4.9, 
			 "cosmo_cavitation_energy": 16.41, 
			 "cosmo_dispersion_energy": -13.1, 
			 "cosmo_repulsion_energy": 1.07, 
			 "cosmo_total_nonelectrostatic_energy": 4.38, 
			 "SMD_solvation_energy": 2.8 
		},
		"coords": [
			{
				"x": 0.5635897264,
				"y": 2.5955082198,
				"z": -2.2537179992,
				"element": "C" 
			},
			{
				"x": -0.1789507301,
				"y": 0.979290533,
				"z": -2.706157794,
				"element": "S" 
			},
			{
				"x": -1.5534424833,
				"y": 0.6364636059,
				"z": -1.1797269018,
				"element": "S" 
			},
			{
				"x": -0.5524850587,
				"y": -0.1959209767,
				"z": 0.1139162834,
				"element": "C" 
			},
			{
				"x": 1.1225107645,
				"y": 2.528887242,
				"z": -1.3184283615,
				"element": "H" 
			},
			{
				"x": -0.2053246161,
				"y": 3.3660316397,
				"z": -2.1808631088,
				"element": "H" 
			},
			{
				"x": 1.2533230678,
				"y": 2.8460994455,
				"z": -3.0651219003,
				"element": "H" 
			},
			{
				"x": 0.2186272988,
				"y": 0.4680118576,
				"z": 0.5090867636,
				"element": "H" 
			},
			{
				"x": -0.101493979,
				"y": -1.1095741566,
				"z": -0.2760694431,
				"element": "H" 
			},
			{
				"x": -1.2512539904,
				"y": -0.4495974102,
				"z": 0.9165824619,
				"element": "H" 
			}
		],
		 "valence_orbital": [ 
			{
				"type": "occ",
				"energy": -0.39556,
				"method": "rhf"
			},
			{
				"type": "occ",
				"energy": -0.35861,
				"method": "rhf"
			},
			{
				"type": "occ",
				"energy": -0.31836,
				"method": "rhf"
			},
			{
				"type": "occ",
				"energy": -0.24148,
				"method": "rhf"
			},
			{
				"type": "occ",
				"energy": -0.23725,
				"method": "rhf"
			},
			{
				"type": "unocc",
				"energy": -0.02253,
				"method": "rhf"
			},
			{
				"type": "unocc",
				"energy": 0.04401,
				"method": "rhf"
			},
			{
				"type": "unocc",
				"energy": 0.04609,
				"method": "rhf"
			},
			{
				"type": "unocc",
				"energy": 0.09405,
				"method": "rhf"
			},
			{
				"type": "unocc",
				"energy": 0.12715,
				"method": "rhf"
			}
		],
		"cosmo_sigma_profile": { 
			"-0.025": 0.0,
			"-0.024": 0.0,
			"-0.023": 0.0,
			"-0.022": 0.0,
			"-0.021": 0.0,
			"-0.02": 0.0,
			"-0.019": 0.0,
			"-0.018": 0.0,
			"-0.017": 0.0,
			"-0.016": 0.0,
			"-0.015": 0.0,
			"-0.014": 0.0,
			"-0.013": 0.0,
			"-0.012": 0.0,
			"-0.011": 0.0,
			"-0.01": 0.0,
			"-0.009": 0.0,
			"-0.008": 0.0,
			"-0.007": 2.33116418714,
			"-0.006": 8.11626012869,
			"-0.005": 11.9520220552,
			"-0.004": 11.4834347453,
			"-0.003": 11.6726794189,
			"-0.002": 15.5910267652,
			"-0.001": 12.5205862963,
			"0.0": 5.40035808263,
			"0.001": 5.73608021152,
			"0.002": 6.95717961527,
			"0.003": 7.34899514451,
			"0.004": 8.4398789371,
			"0.005": 7.73273031049,
			"0.006": 5.42530870761,
			"0.007": 5.22452040158,
			"0.008": 4.4443747686,
			"0.009": 2.8121113372,
			"0.01": 0.239903500746,
			"0.011": 0.0,
			"0.012": 0.0,
			"0.013": 0.0,
			"0.014": 0.0,
			"0.015": 0.0,
			"0.016": 0.0,
			"0.017": 0.0,
			"0.018": 0.0,
			"0.019": 0.0,
			"0.02": 0.0,
			"0.021": 0.0,
			"0.022": 0.0,
			"0.023": 0.0,
			"0.024": 0.0,
			"0.025": 0.0
		}
	}
}
