{
	 "smiles": "CC1=CC=C(C=C1)S(=O)(=O)C1=COC(=C1)S(N)(=O)=O", 
	 "Tm": 458.15, 
	 "num_atms": 30, 
	 "gaussian": { 
		 "optdone": 1, 
		 "sigma_profile": "yes", 
		 "theory": "DFT", 
		 "functional": "B3LYP", 
		 "basiset": "6-31G**", 
		 "properties": { 
			 "R2extent": 7460.5669, 
			 "electric_dipole_moment_norm": 7.83676027642, 
			 "electric_quadrupole_moment_norm": 11.9045056302, 
			 "total_energy": -1652.87087857, 
			 "HOMO_LUMO_gap": 0.20984, 
			 "cosmo_polarized_energy": -24.06, 
			 "cosmo_cavitation_energy": 38.65, 
			 "cosmo_dispersion_energy": -28.1, 
			 "cosmo_repulsion_energy": 2.11, 
			 "cosmo_total_nonelectrostatic_energy": 12.66, 
			 "SMD_solvation_energy": 6.55 
		},
		"coords": [
			{
				"x": 1.9826116101,
				"y": -5.1810737252,
				"z": -0.8012522129,
				"element": "C" 
			},
			{
				"x": 1.6480898365,
				"y": -3.7350299881,
				"z": -1.0759231958,
				"element": "C" 
			},
			{
				"x": 0.4147686224,
				"y": -3.3788393082,
				"z": -1.6404771121,
				"element": "C" 
			},
			{
				"x": 0.1094683748,
				"y": -2.0493288688,
				"z": -1.9257321594,
				"element": "C" 
			},
			{
				"x": 1.05174415,
				"y": -1.0612857145,
				"z": -1.6358279356,
				"element": "C" 
			},
			{
				"x": 2.2909733823,
				"y": -1.3861361384,
				"z": -1.0802338753,
				"element": "C" 
			},
			{
				"x": 2.5780267753,
				"y": -2.7201739362,
				"z": -0.802462113,
				"element": "C" 
			},
			{
				"x": 0.668464143,
				"y": 0.6529899096,
				"z": -2.0004495829,
				"element": "S" 
			},
			{
				"x": -0.4217529477,
				"y": 0.6664924241,
				"z": -2.9842201801,
				"element": "O" 
			},
			{
				"x": 1.9341922105,
				"y": 1.36806578,
				"z": -2.2243127946,
				"element": "O" 
			},
			{
				"x": 0.0135931127,
				"y": 1.2939738818,
				"z": -0.475990688,
				"element": "C" 
			},
			{
				"x": 0.6714433773,
				"y": 2.1751548716,
				"z": 0.3351669902,
				"element": "C" 
			},
			{
				"x": -0.1067396953,
				"y": 2.504170132,
				"z": 1.3915079103,
				"element": "O" 
			},
			{
				"x": -1.2760158131,
				"y": 1.815348478,
				"z": 1.2440365287,
				"element": "C" 
			},
			{
				"x": -1.2704267662,
				"y": 1.0581065375,
				"z": 0.1127354899,
				"element": "C" 
			},
			{
				"x": -2.5502751347,
				"y": 2.0667289493,
				"z": 2.4462162389,
				"element": "S" 
			},
			{
				"x": -1.8611351545,
				"y": 1.4517389042,
				"z": 3.8531286796,
				"element": "N" 
			},
			{
				"x": -2.7222842081,
				"y": 3.5018630433,
				"z": 2.6518604126,
				"element": "O" 
			},
			{
				"x": -3.63760821,
				"y": 1.1845359927,
				"z": 2.0243149448,
				"element": "O" 
			},
			{
				"x": 1.0835511735,
				"y": -5.7677610457,
				"z": -0.5924828798,
				"element": "H" 
			},
			{
				"x": 2.4767511347,
				"y": -5.6378712199,
				"z": -1.6676626791,
				"element": "H" 
			},
			{
				"x": 2.6620337042,
				"y": -5.2804870244,
				"z": 0.0501542156,
				"element": "H" 
			},
			{
				"x": -0.3139674528,
				"y": -4.1530085122,
				"z": -1.8653372746,
				"element": "H" 
			},
			{
				"x": -0.8351332224,
				"y": -1.7766686943,
				"z": -2.3839897767,
				"element": "H" 
			},
			{
				"x": 3.0193066797,
				"y": -0.6058451211,
				"z": -0.8866694236,
				"element": "H" 
			},
			{
				"x": 3.5413618402,
				"y": -2.9799896937,
				"z": -0.3717347677,
				"element": "H" 
			},
			{
				"x": 1.6430296164,
				"y": 2.6388655175,
				"z": 0.2733988899,
				"element": "H" 
			},
			{
				"x": -2.0726952254,
				"y": 0.4363795693,
				"z": -0.2527820477,
				"element": "H" 
			},
			{
				"x": -1.898976508,
				"y": 2.1503484983,
				"z": 4.5899592983,
				"element": "H" 
			},
			{
				"x": -2.3103994052,
				"y": 0.5804365016,
				"z": 4.1204611,
				"element": "H" 
			}
		],
		 "valence_orbital": [ 
			{
				"type": "occ",
				"energy": -0.30551,
				"method": "rhf"
			},
			{
				"type": "occ",
				"energy": -0.2987,
				"method": "rhf"
			},
			{
				"type": "occ",
				"energy": -0.27626,
				"method": "rhf"
			},
			{
				"type": "occ",
				"energy": -0.27461,
				"method": "rhf"
			},
			{
				"type": "occ",
				"energy": -0.26295,
				"method": "rhf"
			},
			{
				"type": "unocc",
				"energy": -0.05311,
				"method": "rhf"
			},
			{
				"type": "unocc",
				"energy": -0.03825,
				"method": "rhf"
			},
			{
				"type": "unocc",
				"energy": -0.0265,
				"method": "rhf"
			},
			{
				"type": "unocc",
				"energy": 0.0056,
				"method": "rhf"
			},
			{
				"type": "unocc",
				"energy": 0.03922,
				"method": "rhf"
			}
		],
		"cosmo_sigma_profile": { 
			"-0.025": 0.0,
			"-0.024": 0.0,
			"-0.023": 0.0,
			"-0.022": 0.0,
			"-0.021": 0.0,
			"-0.02": 0.0,
			"-0.019": 0.0,
			"-0.018": 0.0,
			"-0.017": 0.0,
			"-0.016": 0.550467964183,
			"-0.015": 2.51046717548,
			"-0.014": 2.51812309562,
			"-0.013": 2.65533400888,
			"-0.012": 3.61591358442,
			"-0.011": 3.89087567024,
			"-0.01": 3.18904452551,
			"-0.009": 4.27534698854,
			"-0.008": 4.97716776554,
			"-0.007": 8.18347354692,
			"-0.006": 13.9063377136,
			"-0.005": 18.5778578184,
			"-0.004": 18.9884351415,
			"-0.003": 20.4290204756,
			"-0.002": 25.561683006,
			"-0.001": 24.8172314026,
			"0.0": 20.6836881513,
			"0.001": 15.663618248,
			"0.002": 16.6077097706,
			"0.003": 17.1459057049,
			"0.004": 9.17232781967,
			"0.005": 8.51879675178,
			"0.006": 6.4041680636,
			"0.007": 5.97124753528,
			"0.008": 6.47626882061,
			"0.009": 11.0305382986,
			"0.01": 19.501513667,
			"0.011": 11.4953724335,
			"0.012": 2.21154589017,
			"0.013": 0.0,
			"0.014": 0.0,
			"0.015": 0.0,
			"0.016": 0.0,
			"0.017": 0.0,
			"0.018": 0.0,
			"0.019": 0.0,
			"0.02": 0.0,
			"0.021": 0.0,
			"0.022": 0.0,
			"0.023": 0.0,
			"0.024": 0.0,
			"0.025": 0.0
		}
	}
}
