{
	 "smiles": "COC(=O)C(C#N)=C(NC(=O)C1=CC=CC=C1)SC", 
	 "Tm": 403.15, 
	 "num_atms": 31, 
	 "gaussian": { 
		 "optdone": 1, 
		 "sigma_profile": "yes", 
		 "theory": "DFT", 
		 "functional": "B3LYP", 
		 "basiset": "6-31G**", 
		 "properties": { 
			 "R2extent": 6438.8683, 
			 "electric_dipole_moment_norm": 8.88916611725, 
			 "electric_quadrupole_moment_norm": 31.3286358517, 
			 "total_energy": -1235.9563961, 
			 "HOMO_LUMO_gap": 0.1595, 
			 "cosmo_polarized_energy": -23.18, 
			 "cosmo_cavitation_energy": 38.46, 
			 "cosmo_dispersion_energy": -26.25, 
			 "cosmo_repulsion_energy": 1.99, 
			 "cosmo_total_nonelectrostatic_energy": 14.2, 
			 "SMD_solvation_energy": 9.64 
		},
		"coords": [
			{
				"x": -1.6232559376,
				"y": 3.3427573912,
				"z": -0.430590474,
				"element": "C" 
			},
			{
				"x": -1.5426157046,
				"y": 2.1608585517,
				"z": 0.3833271496,
				"element": "O" 
			},
			{
				"x": -2.6761404129,
				"y": 1.4309130382,
				"z": 0.4234763304,
				"element": "C" 
			},
			{
				"x": -3.7289825924,
				"y": 1.7829474973,
				"z": -0.0600101018,
				"element": "O" 
			},
			{
				"x": -2.523436801,
				"y": 0.1820708223,
				"z": 1.2342426593,
				"element": "C" 
			},
			{
				"x": -3.7386054002,
				"y": -0.2856247529,
				"z": 1.8170254163,
				"element": "C" 
			},
			{
				"x": -4.7197266453,
				"y": -0.6786200111,
				"z": 2.3061215009,
				"element": "N" 
			},
			{
				"x": -1.3580306028,
				"y": -0.5132968147,
				"z": 1.4347169745,
				"element": "C" 
			},
			{
				"x": -0.2196387992,
				"y": -0.3872576164,
				"z": 0.6478227479,
				"element": "N" 
			},
			{
				"x": -0.1701693351,
				"y": -0.2370959474,
				"z": -0.7451670298,
				"element": "C" 
			},
			{
				"x": -1.1549831442,
				"y": 0.0191556804,
				"z": -1.414518175,
				"element": "O" 
			},
			{
				"x": 1.19107002,
				"y": -0.4048692604,
				"z": -1.3504401156,
				"element": "C" 
			},
			{
				"x": 1.3885976119,
				"y": 0.1594405013,
				"z": -2.6195332216,
				"element": "C" 
			},
			{
				"x": 2.6211016564,
				"y": 0.0467302764,
				"z": -3.2566566642,
				"element": "C" 
			},
			{
				"x": 3.6672566255,
				"y": -0.6446389692,
				"z": -2.6401295984,
				"element": "C" 
			},
			{
				"x": 3.4732282727,
				"y": -1.2285621864,
				"z": -1.387073633,
				"element": "C" 
			},
			{
				"x": 2.2416957173,
				"y": -1.1102302868,
				"z": -0.7436173574,
				"element": "C" 
			},
			{
				"x": -1.1076615344,
				"y": -1.7780166567,
				"z": 2.6586506513,
				"element": "S" 
			},
			{
				"x": -1.9718608105,
				"y": -1.1789948469,
				"z": 4.1562800699,
				"element": "C" 
			},
			{
				"x": -0.6432076944,
				"y": 3.8147001257,
				"z": -0.3581601627,
				"element": "H" 
			},
			{
				"x": -1.8463500576,
				"y": 3.0740466049,
				"z": -1.4657507594,
				"element": "H" 
			},
			{
				"x": -2.4016639743,
				"y": 4.0136107808,
				"z": -0.0597215395,
				"element": "H" 
			},
			{
				"x": 0.6501451759,
				"y": -0.599205579,
				"z": 1.1157700618,
				"element": "H" 
			},
			{
				"x": 0.5597548234,
				"y": 0.6803487188,
				"z": -3.0861692613,
				"element": "H" 
			},
			{
				"x": 2.7662987893,
				"y": 0.4948544486,
				"z": -4.2349711144,
				"element": "H" 
			},
			{
				"x": 4.6280600756,
				"y": -0.7357580176,
				"z": -3.1381006779,
				"element": "H" 
			},
			{
				"x": 4.2766137579,
				"y": -1.7846350382,
				"z": -0.9136448795,
				"element": "H" 
			},
			{
				"x": 2.1059364946,
				"y": -1.6099742543,
				"z": 0.2118683818,
				"element": "H" 
			},
			{
				"x": -3.0436516157,
				"y": -1.3634404272,
				"z": 4.1004707409,
				"element": "H" 
			},
			{
				"x": -1.7754112033,
				"y": -0.115619409,
				"z": 4.3014283144,
				"element": "H" 
			},
			{
				"x": -1.5315667548,
				"y": -1.7456943634,
				"z": 4.9795537664,
				"element": "H" 
			}
		],
		 "valence_orbital": [ 
			{
				"type": "occ",
				"energy": -0.28361,
				"method": "rhf"
			},
			{
				"type": "occ",
				"energy": -0.27702,
				"method": "rhf"
			},
			{
				"type": "occ",
				"energy": -0.27234,
				"method": "rhf"
			},
			{
				"type": "occ",
				"energy": -0.27122,
				"method": "rhf"
			},
			{
				"type": "occ",
				"energy": -0.24019,
				"method": "rhf"
			},
			{
				"type": "unocc",
				"energy": -0.08069,
				"method": "rhf"
			},
			{
				"type": "unocc",
				"energy": -0.04699,
				"method": "rhf"
			},
			{
				"type": "unocc",
				"energy": -0.02671,
				"method": "rhf"
			},
			{
				"type": "unocc",
				"energy": 0.01048,
				"method": "rhf"
			},
			{
				"type": "unocc",
				"energy": 0.02274,
				"method": "rhf"
			}
		],
		"cosmo_sigma_profile": { 
			"-0.025": 0.0,
			"-0.024": 0.0,
			"-0.023": 0.0,
			"-0.022": 0.0,
			"-0.021": 0.0,
			"-0.02": 0.0,
			"-0.019": 0.0,
			"-0.018": 0.0,
			"-0.017": 0.0,
			"-0.016": 0.303211688899,
			"-0.015": 0.838113385747,
			"-0.014": 1.00092197029,
			"-0.013": 1.20464781379,
			"-0.012": 1.57770318329,
			"-0.011": 1.09860876154,
			"-0.01": 1.41441694228,
			"-0.009": 1.99636340201,
			"-0.008": 4.5498787072,
			"-0.007": 10.5414407983,
			"-0.006": 20.7736647124,
			"-0.005": 24.1273527057,
			"-0.004": 26.0618453502,
			"-0.003": 25.8242433683,
			"-0.002": 18.9605625528,
			"-0.001": 18.2983210752,
			"0.0": 17.4467984222,
			"0.001": 17.1942671282,
			"0.002": 20.1053332302,
			"0.003": 22.1586438976,
			"0.004": 15.220105857,
			"0.005": 7.31259080496,
			"0.006": 6.22943671516,
			"0.007": 7.65817706877,
			"0.008": 8.71853401024,
			"0.009": 6.11430322494,
			"0.01": 6.97830224657,
			"0.011": 9.70171232797,
			"0.012": 5.69848739388,
			"0.013": 1.43595859427,
			"0.014": 0.0191206238984,
			"0.015": 0.0,
			"0.016": 0.0,
			"0.017": 0.0,
			"0.018": 0.0,
			"0.019": 0.0,
			"0.02": 0.0,
			"0.021": 0.0,
			"0.022": 0.0,
			"0.023": 0.0,
			"0.024": 0.0,
			"0.025": 0.0
		}
	}
}
