{
	 "smiles": "NC(=O)CCN1C=NC2=C1NC=NC2=N", 
	 "Tm": 529.15, 
	 "num_atms": 25, 
	 "gaussian": { 
		 "optdone": 1, 
		 "sigma_profile": "yes", 
		 "theory": "DFT", 
		 "functional": "B3LYP", 
		 "basiset": "6-31G**", 
		 "properties": { 
			 "R2extent": 4548.6863, 
			 "electric_dipole_moment_norm": 12.572689754, 
			 "electric_quadrupole_moment_norm": 38.7346179378, 
			 "total_energy": -714.611638224, 
			 "HOMO_LUMO_gap": 0.16953, 
			 "cosmo_polarized_energy": -36.83, 
			 "cosmo_cavitation_energy": 29.09, 
			 "cosmo_dispersion_energy": -21.27, 
			 "cosmo_repulsion_energy": 1.66, 
			 "cosmo_total_nonelectrostatic_energy": 9.49, 
			 "SMD_solvation_energy": 1.53 
		},
		"coords": [
			{
				"x": 0.5122597124,
				"y": 1.7047085936,
				"z": 1.3941321873,
				"element": "N" 
			},
			{
				"x": -0.231802559,
				"y": 0.9063360986,
				"z": 0.5908632095,
				"element": "C" 
			},
			{
				"x": -0.5064666269,
				"y": 1.2209989911,
				"z": -0.5669618199,
				"element": "O" 
			},
			{
				"x": -0.7534106049,
				"y": -0.3775304456,
				"z": 1.2372406128,
				"element": "C" 
			},
			{
				"x": -1.1840598147,
				"y": -1.4346025764,
				"z": 0.2129326473,
				"element": "C" 
			},
			{
				"x": -0.0780757332,
				"y": -2.144982903,
				"z": -0.416840692,
				"element": "N" 
			},
			{
				"x": 0.466482919,
				"y": -3.3578334344,
				"z": -0.0044653123,
				"element": "C" 
			},
			{
				"x": 1.4210078386,
				"y": -3.7857338702,
				"z": -0.790435514,
				"element": "N" 
			},
			{
				"x": 1.5334507058,
				"y": -2.8256924168,
				"z": -1.7775537961,
				"element": "C" 
			},
			{
				"x": 0.6229237528,
				"y": -1.8164998397,
				"z": -1.552945084,
				"element": "C" 
			},
			{
				"x": 0.4750040428,
				"y": -0.7416326587,
				"z": -2.3952663535,
				"element": "N" 
			},
			{
				"x": 1.3682809839,
				"y": -0.7221338521,
				"z": -3.4590871817,
				"element": "C" 
			},
			{
				"x": 2.2385495792,
				"y": -1.6189928164,
				"z": -3.7542567168,
				"element": "N" 
			},
			{
				"x": 2.4160469545,
				"y": -2.7758475746,
				"z": -2.9445287325,
				"element": "C" 
			},
			{
				"x": 3.30151541,
				"y": -3.6367323093,
				"z": -3.2918651492,
				"element": "N" 
			},
			{
				"x": 0.8605477906,
				"y": 2.5738672475,
				"z": 1.0167997213,
				"element": "H" 
			},
			{
				"x": 0.771462848,
				"y": 1.4415082541,
				"z": 2.3312413647,
				"element": "H" 
			},
			{
				"x": -0.0120042818,
				"y": -0.7949130069,
				"z": 1.9274068546,
				"element": "H" 
			},
			{
				"x": -1.6284533132,
				"y": -0.0996637664,
				"z": 1.8398729085,
				"element": "H" 
			},
			{
				"x": -1.8103852624,
				"y": -2.1828670602,
				"z": 0.7053217542,
				"element": "H" 
			},
			{
				"x": -1.7842612683,
				"y": -0.9590099717,
				"z": -0.566929591,
				"element": "H" 
			},
			{
				"x": 0.0949518852,
				"y": -3.8583419981,
				"z": 0.8801538201,
				"element": "H" 
			},
			{
				"x": 0.0074016527,
				"y": 0.1034190243,
				"z": -2.0734587824,
				"element": "H" 
			},
			{
				"x": 1.2757145331,
				"y": 0.1615976312,
				"z": -4.0898502435,
				"element": "H" 
			},
			{
				"x": 3.2964188559,
				"y": -4.3944253398,
				"z": -2.6026201114,
				"element": "H" 
			}
		],
		 "valence_orbital": [ 
			{
				"type": "occ",
				"energy": -0.27084,
				"method": "rhf"
			},
			{
				"type": "occ",
				"energy": -0.26382,
				"method": "rhf"
			},
			{
				"type": "occ",
				"energy": -0.25304,
				"method": "rhf"
			},
			{
				"type": "occ",
				"energy": -0.22161,
				"method": "rhf"
			},
			{
				"type": "occ",
				"energy": -0.18767,
				"method": "rhf"
			},
			{
				"type": "unocc",
				"energy": -0.01814,
				"method": "rhf"
			},
			{
				"type": "unocc",
				"energy": -0.0038,
				"method": "rhf"
			},
			{
				"type": "unocc",
				"energy": 0.02447,
				"method": "rhf"
			},
			{
				"type": "unocc",
				"energy": 0.03503,
				"method": "rhf"
			},
			{
				"type": "unocc",
				"energy": 0.04335,
				"method": "rhf"
			}
		],
		"cosmo_sigma_profile": { 
			"-0.025": 0.0,
			"-0.024": 0.0,
			"-0.023": 0.0,
			"-0.022": 0.0,
			"-0.021": 0.0,
			"-0.02": 0.0,
			"-0.019": 0.0,
			"-0.018": 0.0,
			"-0.017": 0.0,
			"-0.016": 0.0348083282375,
			"-0.015": 1.29332153495,
			"-0.014": 2.44614307249,
			"-0.013": 2.7830879916,
			"-0.012": 2.98018201531,
			"-0.011": 3.71440375422,
			"-0.01": 5.85051042468,
			"-0.009": 7.62929400895,
			"-0.008": 9.61744517463,
			"-0.007": 15.6102659035,
			"-0.006": 16.3953531726,
			"-0.005": 13.5717054319,
			"-0.004": 10.916834786,
			"-0.003": 10.305568979,
			"-0.002": 11.4086099817,
			"-0.001": 10.2631740201,
			"0.0": 10.8808845224,
			"0.001": 10.8047300492,
			"0.002": 10.0274044492,
			"0.003": 8.50608555872,
			"0.004": 7.39312003512,
			"0.005": 5.96505739358,
			"0.006": 4.81655387724,
			"0.007": 3.94675733191,
			"0.008": 4.45606538399,
			"0.009": 4.64081490732,
			"0.01": 4.25382330904,
			"0.011": 4.23360224932,
			"0.012": 4.06318181119,
			"0.013": 5.19785038573,
			"0.014": 2.93575695011,
			"0.015": 3.13871120996,
			"0.016": 2.5811622799,
			"0.017": 2.7171515645,
			"0.018": 2.29898850213,
			"0.019": 2.16241565312,
			"0.02": 1.47326333603,
			"0.021": 0.341225412555,
			"0.022": 0.0,
			"0.023": 0.0,
			"0.024": 0.0,
			"0.025": 0.0
		}
	}
}
