{
	 "smiles": "OC(=O)C1=C(O)C2=C(C=CC=C2)C(Cl)=C1", 
	 "Tm": 502.15, 
	 "num_atms": 22, 
	 "gaussian": { 
		 "optdone": 1, 
		 "sigma_profile": "yes", 
		 "theory": "DFT", 
		 "functional": "B3LYP", 
		 "basiset": "6-31G**", 
		 "properties": { 
			 "R2extent": 3638.1801, 
			 "electric_dipole_moment_norm": 7.32700799508, 
			 "electric_quadrupole_moment_norm": 11.7223663051, 
			 "total_energy": -1109.27180463, 
			 "HOMO_LUMO_gap": 0.15921, 
			 "cosmo_polarized_energy": -17.5, 
			 "cosmo_cavitation_energy": 27.82, 
			 "cosmo_dispersion_energy": -21.28, 
			 "cosmo_repulsion_energy": 1.62, 
			 "cosmo_total_nonelectrostatic_energy": 8.16, 
			 "SMD_solvation_energy": 5.6 
		},
		"coords": [
			{
				"x": -1.8250074066,
				"y": -3.0918013599,
				"z": 0.7298459492,
				"element": "O" 
			},
			{
				"x": -1.3691561661,
				"y": -2.0399853602,
				"z": 1.4327734451,
				"element": "C" 
			},
			{
				"x": -1.4125131018,
				"y": -2.0382641314,
				"z": 2.6435788511,
				"element": "O" 
			},
			{
				"x": -0.8133212415,
				"y": -0.8628437099,
				"z": 0.6670476353,
				"element": "C" 
			},
			{
				"x": -0.7017066357,
				"y": -0.7716418124,
				"z": -0.7109512406,
				"element": "C" 
			},
			{
				"x": -1.0906453771,
				"y": -1.8490673292,
				"z": -1.4820626801,
				"element": "O" 
			},
			{
				"x": -0.1680484444,
				"y": 0.3924400509,
				"z": -1.3427678376,
				"element": "C" 
			},
			{
				"x": 0.210911414,
				"y": 1.5156315806,
				"z": -0.5340511377,
				"element": "C" 
			},
			{
				"x": 0.7053565959,
				"y": 2.6791077461,
				"z": -1.1768845707,
				"element": "C" 
			},
			{
				"x": 0.8368987829,
				"y": 2.7315583583,
				"z": -2.5472597237,
				"element": "C" 
			},
			{
				"x": 0.4946030266,
				"y": 1.6156983882,
				"z": -3.3424528665,
				"element": "C" 
			},
			{
				"x": 0.0074630354,
				"y": 0.4719082334,
				"z": -2.7504297233,
				"element": "C" 
			},
			{
				"x": 0.0770682419,
				"y": 1.3885057552,
				"z": 0.8819540628,
				"element": "C" 
			},
			{
				"x": 0.5383834841,
				"y": 2.7264393667,
				"z": 1.9256891075,
				"element": "Cl" 
			},
			{
				"x": -0.4003951913,
				"y": 0.2423880157,
				"z": 1.4573112436,
				"element": "C" 
			},
			{
				"x": -1.7129623472,
				"y": -2.9284646114,
				"z": -0.2246444584,
				"element": "H" 
			},
			{
				"x": -1.4207020027,
				"y": -1.5471483968,
				"z": -2.3382560376,
				"element": "H" 
			},
			{
				"x": 0.9839093107,
				"y": 3.5305428722,
				"z": -0.5674754369,
				"element": "H" 
			},
			{
				"x": 1.2179877009,
				"y": 3.6322200485,
				"z": -3.0186663667,
				"element": "H" 
			},
			{
				"x": 0.6269220477,
				"y": 1.6554299963,
				"z": -4.4191465516,
				"element": "H" 
			},
			{
				"x": -0.2061400038,
				"y": -0.3909510202,
				"z": -3.3753390978,
				"element": "H" 
			},
			{
				"x": -0.4983057218,
				"y": 0.1456973193,
				"z": 2.5316874346,
				"element": "H" 
			}
		],
		 "valence_orbital": [ 
			{
				"type": "occ",
				"energy": -0.30383,
				"method": "rhf"
			},
			{
				"type": "occ",
				"energy": -0.29203,
				"method": "rhf"
			},
			{
				"type": "occ",
				"energy": -0.27163,
				"method": "rhf"
			},
			{
				"type": "occ",
				"energy": -0.27021,
				"method": "rhf"
			},
			{
				"type": "occ",
				"energy": -0.23244,
				"method": "rhf"
			},
			{
				"type": "unocc",
				"energy": -0.07323,
				"method": "rhf"
			},
			{
				"type": "unocc",
				"energy": -0.04941,
				"method": "rhf"
			},
			{
				"type": "unocc",
				"energy": 0.00607,
				"method": "rhf"
			},
			{
				"type": "unocc",
				"energy": 0.02326,
				"method": "rhf"
			},
			{
				"type": "unocc",
				"energy": 0.02666,
				"method": "rhf"
			}
		],
		"cosmo_sigma_profile": { 
			"-0.025": 0.0,
			"-0.024": 0.0,
			"-0.023": 0.0,
			"-0.022": 0.0,
			"-0.021": 0.0,
			"-0.02": 0.385409467523,
			"-0.019": 0.688115556596,
			"-0.018": 1.25229499745,
			"-0.017": 1.18896862717,
			"-0.016": 1.13219108823,
			"-0.015": 0.615666233771,
			"-0.014": 0.497222968138,
			"-0.013": 1.47247330245,
			"-0.012": 1.35434335067,
			"-0.011": 0.831837095756,
			"-0.01": 1.07108081528,
			"-0.009": 2.39752875107,
			"-0.008": 2.78417170374,
			"-0.007": 6.25044379893,
			"-0.006": 10.5865149896,
			"-0.005": 13.250914065,
			"-0.004": 9.98035797914,
			"-0.003": 9.94136501726,
			"-0.002": 11.7325823845,
			"-0.001": 15.1280062606,
			"0.0": 22.5488045108,
			"0.001": 25.7975753122,
			"0.002": 23.1869425776,
			"0.003": 16.9922691203,
			"0.004": 12.1807902054,
			"0.005": 5.69533063696,
			"0.006": 2.89468198371,
			"0.007": 1.90273248618,
			"0.008": 2.74492554011,
			"0.009": 3.18722530592,
			"0.01": 3.46861984059,
			"0.011": 5.83973289604,
			"0.012": 5.0702228002,
			"0.013": 2.17366528314,
			"0.014": 0.363179627192,
			"0.015": 0.0,
			"0.016": 0.0,
			"0.017": 0.0,
			"0.018": 0.0,
			"0.019": 0.0,
			"0.02": 0.0,
			"0.021": 0.0,
			"0.022": 0.0,
			"0.023": 0.0,
			"0.024": 0.0,
			"0.025": 0.0
		}
	}
}
