{
	 "smiles": "NC1=C(OC2=CC=CC=C2)C=C(O)C2=C1C(=O)C1=C(C=CC=C1)C2=O", 
	 "Tm": 458.15, 
	 "num_atms": 38, 
	 "gaussian": { 
		 "optdone": 1, 
		 "sigma_profile": "yes", 
		 "theory": "DFT", 
		 "functional": "B3LYP", 
		 "basiset": "6-31G**", 
		 "properties": { 
			 "R2extent": 10617.1283, 
			 "electric_dipole_moment_norm": 3.1561896616, 
			 "electric_quadrupole_moment_norm": 20.6763924099, 
			 "total_energy": -1125.64384994, 
			 "HOMO_LUMO_gap": 0.10071, 
			 "cosmo_polarized_energy": -12.54, 
			 "cosmo_cavitation_energy": 42.05, 
			 "cosmo_dispersion_energy": -31.13, 
			 "cosmo_repulsion_energy": 2.28, 
			 "cosmo_total_nonelectrostatic_energy": 13.21, 
			 "SMD_solvation_energy": 7.63 
		},
		"coords": [
			{
				"x": -0.0161477338,
				"y": 2.3143211367,
				"z": -2.0950906585,
				"element": "N" 
			},
			{
				"x": 0.0602255844,
				"y": 1.4110909949,
				"z": -1.0898587675,
				"element": "C" 
			},
			{
				"x": 0.5289755699,
				"y": 0.0853139514,
				"z": -1.3983128124,
				"element": "C" 
			},
			{
				"x": 0.8440121157,
				"y": -0.0831423754,
				"z": -2.7223687274,
				"element": "O" 
			},
			{
				"x": 1.3258240472,
				"y": -1.3132103024,
				"z": -3.1706864485,
				"element": "C" 
			},
			{
				"x": 0.4268651935,
				"y": -2.2491904004,
				"z": -3.6783497438,
				"element": "C" 
			},
			{
				"x": 0.9198105523,
				"y": -3.4481714772,
				"z": -4.1964162732,
				"element": "C" 
			},
			{
				"x": 2.2933968889,
				"y": -3.700898585,
				"z": -4.2024982212,
				"element": "C" 
			},
			{
				"x": 3.1800529281,
				"y": -2.7508297751,
				"z": -3.6904413177,
				"element": "C" 
			},
			{
				"x": 2.6996673607,
				"y": -1.5478770983,
				"z": -3.1701221093,
				"element": "C" 
			},
			{
				"x": 0.6369894712,
				"y": -0.8918913668,
				"z": -0.4409861282,
				"element": "C" 
			},
			{
				"x": 0.282622566,
				"y": -0.6099387874,
				"z": 0.9003121599,
				"element": "C" 
			},
			{
				"x": 0.4079481477,
				"y": -1.5983072134,
				"z": 1.7893329183,
				"element": "O" 
			},
			{
				"x": -0.1807591927,
				"y": 0.6725718132,
				"z": 1.2514663031,
				"element": "C" 
			},
			{
				"x": -0.2935470618,
				"y": 1.6941720577,
				"z": 0.2465566847,
				"element": "C" 
			},
			{
				"x": -0.7741836028,
				"y": 3.0289873826,
				"z": 0.6030396219,
				"element": "C" 
			},
			{
				"x": -0.8911126448,
				"y": 3.949798452,
				"z": -0.2276735535,
				"element": "O" 
			},
			{
				"x": -1.1352694038,
				"y": 3.2811343855,
				"z": 2.0267565031,
				"element": "C" 
			},
			{
				"x": -1.0210171183,
				"y": 2.273110318,
				"z": 3.0038073909,
				"element": "C" 
			},
			{
				"x": -1.3697071109,
				"y": 2.5458315649,
				"z": 4.333703345,
				"element": "C" 
			},
			{
				"x": -1.8281021986,
				"y": 3.8099905938,
				"z": 4.6894190958,
				"element": "C" 
			},
			{
				"x": -1.942311315,
				"y": 4.8138192451,
				"z": 3.7185824356,
				"element": "C" 
			},
			{
				"x": -1.598132008,
				"y": 4.5508155543,
				"z": 2.3962530921,
				"element": "C" 
			},
			{
				"x": -0.5346298669,
				"y": 0.9245096383,
				"z": 2.6374878196,
				"element": "C" 
			},
			{
				"x": -0.4370980692,
				"y": 0.0336590745,
				"z": 3.5167183474,
				"element": "O" 
			},
			{
				"x": 0.2532415363,
				"y": 2.0402729495,
				"z": -3.0244068535,
				"element": "H" 
			},
			{
				"x": -0.3491573414,
				"y": 3.2418617846,
				"z": -1.855400077,
				"element": "H" 
			},
			{
				"x": -0.6357250799,
				"y": -2.0298348817,
				"z": -3.6690201512,
				"element": "H" 
			},
			{
				"x": 0.2281055972,
				"y": -4.1832187911,
				"z": -4.5967533649,
				"element": "H" 
			},
			{
				"x": 2.6720264384,
				"y": -4.634355709,
				"z": -4.6073880274,
				"element": "H" 
			},
			{
				"x": 4.2487683564,
				"y": -2.942725267,
				"z": -3.6969625079,
				"element": "H" 
			},
			{
				"x": 3.3712828032,
				"y": -0.7936752405,
				"z": -2.7733264499,
				"element": "H" 
			},
			{
				"x": 0.9903450419,
				"y": -1.8859156654,
				"z": -0.6851313863,
				"element": "H" 
			},
			{
				"x": 0.1129476134,
				"y": -1.2065315295,
				"z": 2.6647518414,
				"element": "H" 
			},
			{
				"x": -1.2714554265,
				"y": 1.7502132681,
				"z": 5.0641832772,
				"element": "H" 
			},
			{
				"x": -2.0975899266,
				"y": 4.0185683386,
				"z": 5.7207183031,
				"element": "H" 
			},
			{
				"x": -2.300507114,
				"y": 5.8003890984,
				"z": 3.9984094427,
				"element": "H" 
			},
			{
				"x": -1.6774555972,
				"y": 5.3102828632,
				"z": 1.6261949974,
				"element": "H" 
			}
		],
		 "valence_orbital": [ 
			{
				"type": "occ",
				"energy": -0.26166,
				"method": "rhf"
			},
			{
				"type": "occ",
				"energy": -0.25844,
				"method": "rhf"
			},
			{
				"type": "occ",
				"energy": -0.24984,
				"method": "rhf"
			},
			{
				"type": "occ",
				"energy": -0.24911,
				"method": "rhf"
			},
			{
				"type": "occ",
				"energy": -0.19321,
				"method": "rhf"
			},
			{
				"type": "unocc",
				"energy": -0.0925,
				"method": "rhf"
			},
			{
				"type": "unocc",
				"energy": -0.04205,
				"method": "rhf"
			},
			{
				"type": "unocc",
				"energy": -0.02065,
				"method": "rhf"
			},
			{
				"type": "unocc",
				"energy": -0.01719,
				"method": "rhf"
			},
			{
				"type": "unocc",
				"energy": -0.01238,
				"method": "rhf"
			}
		],
		"cosmo_sigma_profile": { 
			"-0.025": 0.0,
			"-0.024": 0.0,
			"-0.023": 0.0,
			"-0.022": 0.0,
			"-0.021": 0.0,
			"-0.02": 0.0,
			"-0.019": 0.0,
			"-0.018": 0.0,
			"-0.017": 0.0,
			"-0.016": 0.0,
			"-0.015": 0.0,
			"-0.014": 0.0100144424258,
			"-0.013": 0.662343720839,
			"-0.012": 0.531420307608,
			"-0.011": 1.08413893328,
			"-0.01": 0.609590886286,
			"-0.009": 1.50019532198,
			"-0.008": 1.76587785889,
			"-0.007": 9.51850059551,
			"-0.006": 17.8745134392,
			"-0.005": 23.1014252691,
			"-0.004": 21.1941008495,
			"-0.003": 19.2546446422,
			"-0.002": 25.1476991862,
			"-0.001": 26.9825061367,
			"0.0": 31.9034762417,
			"0.001": 37.7332825345,
			"0.002": 37.4831422793,
			"0.003": 29.3900788056,
			"0.004": 16.1787995301,
			"0.005": 7.16586022282,
			"0.006": 5.13010655052,
			"0.007": 3.624917932,
			"0.008": 4.39305852877,
			"0.009": 5.15269577221,
			"0.01": 5.00316203722,
			"0.011": 5.28048588697,
			"0.012": 1.7892808663,
			"0.013": 0.00840615724864,
			"0.014": 0.0,
			"0.015": 0.0,
			"0.016": 0.0,
			"0.017": 0.0,
			"0.018": 0.0,
			"0.019": 0.0,
			"0.02": 0.0,
			"0.021": 0.0,
			"0.022": 0.0,
			"0.023": 0.0,
			"0.024": 0.0,
			"0.025": 0.0
		}
	}
}
