{
	 "smiles": "COC1=CC2=C(N=CC=C2)C(N)=C1", 
	 "Tm": 325.15, 
	 "num_atms": 23, 
	 "gaussian": { 
		 "optdone": 1, 
		 "sigma_profile": "yes", 
		 "theory": "DFT", 
		 "functional": "B3LYP", 
		 "basiset": "6-31G**", 
		 "properties": { 
			 "R2extent": 2780.3381, 
			 "electric_dipole_moment_norm": 1.73312853245, 
			 "electric_quadrupole_moment_norm": 13.9627125914, 
			 "total_energy": -571.818813778, 
			 "HOMO_LUMO_gap": 0.14586, 
			 "cosmo_polarized_energy": -10.39, 
			 "cosmo_cavitation_energy": 26.42, 
			 "cosmo_dispersion_energy": -20.04, 
			 "cosmo_repulsion_energy": 1.57, 
			 "cosmo_total_nonelectrostatic_energy": 7.95, 
			 "SMD_solvation_energy": 4.1 
		},
		"coords": [
			{
				"x": 0.3599017802,
				"y": 1.435759507,
				"z": 4.2295266222,
				"element": "C" 
			},
			{
				"x": -0.5727192647,
				"y": 1.7293229636,
				"z": 3.2031319605,
				"element": "O" 
			},
			{
				"x": -0.5652001225,
				"y": 0.9756383335,
				"z": 2.063542349,
				"element": "C" 
			},
			{
				"x": -1.5132667409,
				"y": 1.3118023223,
				"z": 1.1102812271,
				"element": "C" 
			},
			{
				"x": -1.5662519197,
				"y": 0.587540546,
				"z": -0.0998377483,
				"element": "C" 
			},
			{
				"x": -0.6520578349,
				"y": -0.4852598319,
				"z": -0.3398303929,
				"element": "C" 
			},
			{
				"x": -0.629697361,
				"y": -1.204939472,
				"z": -1.4935321161,
				"element": "N" 
			},
			{
				"x": -1.5073797801,
				"y": -0.9071972407,
				"z": -2.4323840659,
				"element": "C" 
			},
			{
				"x": -2.4702990888,
				"y": 0.1231103116,
				"z": -2.2970913482,
				"element": "C" 
			},
			{
				"x": -2.4952414649,
				"y": 0.8656665397,
				"z": -1.1401061164,
				"element": "C" 
			},
			{
				"x": 0.3080420946,
				"y": -0.8264642066,
				"z": 0.6742413564,
				"element": "C" 
			},
			{
				"x": 1.1304196002,
				"y": -1.9067509276,
				"z": 0.4442653473,
				"element": "N" 
			},
			{
				"x": 0.3437955681,
				"y": -0.0885744051,
				"z": 1.8518413384,
				"element": "C" 
			},
			{
				"x": 0.1633395917,
				"y": 2.1543455289,
				"z": 5.0271020129,
				"element": "H" 
			},
			{
				"x": 1.3960760664,
				"y": 1.556402843,
				"z": 3.8875588131,
				"element": "H" 
			},
			{
				"x": 0.2283700592,
				"y": 0.4195963889,
				"z": 4.6232242071,
				"element": "H" 
			},
			{
				"x": -2.1994269344,
				"y": 2.1289644107,
				"z": 1.3042664102,
				"element": "H" 
			},
			{
				"x": -1.4651798643,
				"y": -1.4967900915,
				"z": -3.3470305263,
				"element": "H" 
			},
			{
				"x": -3.1694294173,
				"y": 0.3172859537,
				"z": -3.1047636489,
				"element": "H" 
			},
			{
				"x": -3.2161339219,
				"y": 1.668145418,
				"z": -1.0059587155,
				"element": "H" 
			},
			{
				"x": 1.1292195599,
				"y": -2.2190679855,
				"z": -0.5184648664,
				"element": "H" 
			},
			{
				"x": 2.0196374462,
				"y": -1.9286070629,
				"z": 0.918793883,
				"element": "H" 
			},
			{
				"x": 1.0696819489,
				"y": -0.3520298431,
				"z": 2.6124240178,
				"element": "H" 
			}
		],
		 "valence_orbital": [ 
			{
				"type": "occ",
				"energy": -0.29468,
				"method": "rhf"
			},
			{
				"type": "occ",
				"energy": -0.26361,
				"method": "rhf"
			},
			{
				"type": "occ",
				"energy": -0.25316,
				"method": "rhf"
			},
			{
				"type": "occ",
				"energy": -0.22721,
				"method": "rhf"
			},
			{
				"type": "occ",
				"energy": -0.18412,
				"method": "rhf"
			},
			{
				"type": "unocc",
				"energy": -0.03826,
				"method": "rhf"
			},
			{
				"type": "unocc",
				"energy": 0.00021,
				"method": "rhf"
			},
			{
				"type": "unocc",
				"energy": 0.0426,
				"method": "rhf"
			},
			{
				"type": "unocc",
				"energy": 0.08921,
				"method": "rhf"
			},
			{
				"type": "unocc",
				"energy": 0.1026,
				"method": "rhf"
			}
		],
		"cosmo_sigma_profile": { 
			"-0.025": 0.0,
			"-0.024": 0.0,
			"-0.023": 0.0,
			"-0.022": 0.0,
			"-0.021": 0.0,
			"-0.02": 0.0,
			"-0.019": 0.0,
			"-0.018": 0.0,
			"-0.017": 0.0,
			"-0.016": 0.0,
			"-0.015": 0.0,
			"-0.014": 0.0,
			"-0.013": 0.723710357179,
			"-0.012": 1.34421008994,
			"-0.011": 1.33515673417,
			"-0.01": 2.02074286992,
			"-0.009": 1.8431033767,
			"-0.008": 2.54245222709,
			"-0.007": 4.38972632037,
			"-0.006": 12.7749928862,
			"-0.005": 20.7738836409,
			"-0.004": 16.730899604,
			"-0.003": 16.2670504964,
			"-0.002": 11.2348697356,
			"-0.001": 8.43405796258,
			"0.0": 9.19698154771,
			"0.001": 9.04726800915,
			"0.002": 12.3186959657,
			"0.003": 22.825141332,
			"0.004": 16.5057409142,
			"0.005": 13.9751810114,
			"0.006": 7.22482440413,
			"0.007": 5.03209571214,
			"0.008": 3.6644239827,
			"0.009": 3.56062589625,
			"0.01": 3.6963577149,
			"0.011": 2.23288113966,
			"0.012": 0.648487899473,
			"0.013": 0.374033126217,
			"0.014": 0.0263419264364,
			"0.015": 0.0,
			"0.016": 0.0,
			"0.017": 0.0,
			"0.018": 0.0,
			"0.019": 0.0,
			"0.02": 0.0,
			"0.021": 0.0,
			"0.022": 0.0,
			"0.023": 0.0,
			"0.024": 0.0,
			"0.025": 0.0
		}
	}
}
