{
	 "smiles": "CN(C)C1=CC=C(C=CC2=NC3=C(S2)C=CC=C3)C=C1", 
	 "Tm": 483.15, 
	 "num_atms": 36, 
	 "gaussian": { 
		 "optdone": 1, 
		 "sigma_profile": "yes", 
		 "theory": "DFT", 
		 "functional": "B3LYP", 
		 "basiset": "6-31G**", 
		 "properties": { 
			 "R2extent": 13061.5136, 
			 "electric_dipole_moment_norm": 5.0398970049, 
			 "electric_quadrupole_moment_norm": 26.017623168, 
			 "total_energy": -1165.14174849, 
			 "HOMO_LUMO_gap": 0.12516, 
			 "cosmo_polarized_energy": -11.76, 
			 "cosmo_cavitation_energy": 41.34, 
			 "cosmo_dispersion_energy": -30.81, 
			 "cosmo_repulsion_energy": 2.27, 
			 "cosmo_total_nonelectrostatic_energy": 12.8, 
			 "SMD_solvation_energy": 4.58 
		},
		"coords": [
			{
				"x": 1.2860825144,
				"y": -5.355963586,
				"z": -1.4008497512,
				"element": "C" 
			},
			{
				"x": 0.4404123453,
				"y": -4.8881917067,
				"z": -0.3156907013,
				"element": "N" 
			},
			{
				"x": -0.2289845847,
				"y": -5.8612705797,
				"z": 0.5311036129,
				"element": "C" 
			},
			{
				"x": 0.0965398422,
				"y": -3.5522804361,
				"z": -0.2385238255,
				"element": "C" 
			},
			{
				"x": 0.6403205293,
				"y": -2.5954875323,
				"z": -1.1284038036,
				"element": "C" 
			},
			{
				"x": 0.2985612035,
				"y": -1.2554186121,
				"z": -1.0258822431,
				"element": "C" 
			},
			{
				"x": -0.5984002417,
				"y": -0.7786915692,
				"z": -0.0502882404,
				"element": "C" 
			},
			{
				"x": -0.9102000255,
				"y": 0.6393965725,
				"z": -0.0029284404,
				"element": "C" 
			},
			{
				"x": -1.7362156894,
				"y": 1.2784367308,
				"z": 0.8599601741,
				"element": "C" 
			},
			{
				"x": -1.9662942835,
				"y": 2.7071334584,
				"z": 0.8042483831,
				"element": "C" 
			},
			{
				"x": -1.4365310059,
				"y": 3.5407530972,
				"z": -0.0460620552,
				"element": "N" 
			},
			{
				"x": -1.8631765369,
				"y": 4.8335546194,
				"z": 0.1729660039,
				"element": "C" 
			},
			{
				"x": -2.7716771719,
				"y": 5.0084813404,
				"z": 1.2505269385,
				"element": "C" 
			},
			{
				"x": -3.077917568,
				"y": 3.4547665913,
				"z": 1.9962349176,
				"element": "S" 
			},
			{
				"x": -3.2806825283,
				"y": 6.2664785189,
				"z": 1.5790896332,
				"element": "C" 
			},
			{
				"x": -2.8742522577,
				"y": 7.3610799386,
				"z": 0.818805155,
				"element": "C" 
			},
			{
				"x": -1.9755524091,
				"y": 7.2033027153,
				"z": -0.2507910464,
				"element": "C" 
			},
			{
				"x": -1.468097734,
				"y": 5.9523125909,
				"z": -0.579106008,
				"element": "C" 
			},
			{
				"x": -1.143730704,
				"y": -1.7387078647,
				"z": 0.8271574124,
				"element": "C" 
			},
			{
				"x": -0.8151037007,
				"y": -3.0807415211,
				"z": 0.7410861699,
				"element": "C" 
			},
			{
				"x": 0.8302039208,
				"y": -5.1956084914,
				"z": -2.3891070581,
				"element": "H" 
			},
			{
				"x": 1.4662384114,
				"y": -6.4248091075,
				"z": -1.2801097127,
				"element": "H" 
			},
			{
				"x": 2.2602341818,
				"y": -4.8518485797,
				"z": -1.392870056,
				"element": "H" 
			},
			{
				"x": -1.312355199,
				"y": -5.9063685008,
				"z": 0.3459252504,
				"element": "H" 
			},
			{
				"x": 0.1884475277,
				"y": -6.8503747709,
				"z": 0.3390811142,
				"element": "H" 
			},
			{
				"x": -0.0770619609,
				"y": -5.6378975713,
				"z": 1.594236036,
				"element": "H" 
			},
			{
				"x": 1.3319263589,
				"y": -2.8990583794,
				"z": -1.9043685275,
				"element": "H" 
			},
			{
				"x": 0.7369438402,
				"y": -0.548295106,
				"z": -1.7258627834,
				"element": "H" 
			},
			{
				"x": -0.4183921855,
				"y": 1.2583547834,
				"z": -0.7512886411,
				"element": "H" 
			},
			{
				"x": -2.2646243662,
				"y": 0.7353324152,
				"z": 1.6385005638,
				"element": "H" 
			},
			{
				"x": -3.9746827624,
				"y": 6.3918621104,
				"z": 2.4042316107,
				"element": "H" 
			},
			{
				"x": -3.2582533079,
				"y": 8.3484109312,
				"z": 1.0576412614,
				"element": "H" 
			},
			{
				"x": -1.6746575391,
				"y": 8.0728801292,
				"z": -0.8276984653,
				"element": "H" 
			},
			{
				"x": -0.7739279554,
				"y": 5.8165810241,
				"z": -1.4019623513,
				"element": "H" 
			},
			{
				"x": -1.8466081855,
				"y": -1.4306837485,
				"z": 1.5956835402,
				"element": "H" 
			},
			{
				"x": -1.2703307722,
				"y": -3.7721199035,
				"z": 1.4394159333,
				"element": "H" 
			}
		],
		 "valence_orbital": [ 
			{
				"type": "occ",
				"energy": -0.26153,
				"method": "rhf"
			},
			{
				"type": "occ",
				"energy": -0.25208,
				"method": "rhf"
			},
			{
				"type": "occ",
				"energy": -0.22492,
				"method": "rhf"
			},
			{
				"type": "occ",
				"energy": -0.22184,
				"method": "rhf"
			},
			{
				"type": "occ",
				"energy": -0.18174,
				"method": "rhf"
			},
			{
				"type": "unocc",
				"energy": -0.05658,
				"method": "rhf"
			},
			{
				"type": "unocc",
				"energy": -0.00057,
				"method": "rhf"
			},
			{
				"type": "unocc",
				"energy": 0.00482,
				"method": "rhf"
			},
			{
				"type": "unocc",
				"energy": 0.01036,
				"method": "rhf"
			},
			{
				"type": "unocc",
				"energy": 0.01907,
				"method": "rhf"
			}
		],
		"cosmo_sigma_profile": { 
			"-0.025": 0.0,
			"-0.024": 0.0,
			"-0.023": 0.0,
			"-0.022": 0.0,
			"-0.021": 0.0,
			"-0.02": 0.0,
			"-0.019": 0.0,
			"-0.018": 0.0,
			"-0.017": 0.0,
			"-0.016": 0.0,
			"-0.015": 0.0,
			"-0.014": 0.0,
			"-0.013": 0.0,
			"-0.012": 0.0,
			"-0.011": 0.0,
			"-0.01": 0.0,
			"-0.009": 0.0,
			"-0.008": 0.910161355517,
			"-0.007": 7.01304442122,
			"-0.006": 17.1748093398,
			"-0.005": 25.4975533779,
			"-0.004": 31.7382418712,
			"-0.003": 29.1952009724,
			"-0.002": 29.5783741525,
			"-0.001": 21.4331329704,
			"0.0": 17.7443794377,
			"0.001": 19.5192879929,
			"0.002": 25.9785350197,
			"0.003": 26.0973881148,
			"0.004": 31.5219897335,
			"0.005": 29.2104460783,
			"0.006": 11.0157575051,
			"0.007": 1.6841834466,
			"0.008": 1.95143427594,
			"0.009": 1.24639882046,
			"0.01": 1.09385495355,
			"0.011": 1.40180771714,
			"0.012": 1.0733393498,
			"0.013": 0.722053168624,
			"0.014": 0.0732901600583,
			"0.015": 0.0,
			"0.016": 0.0,
			"0.017": 0.0,
			"0.018": 0.0,
			"0.019": 0.0,
			"0.02": 0.0,
			"0.021": 0.0,
			"0.022": 0.0,
			"0.023": 0.0,
			"0.024": 0.0,
			"0.025": 0.0
		}
	}
}
