{
	 "smiles": "OC(=O)C1=C(CSC2=CC=C(Cl)C=C2)C2=C(O1)C=CC=C2", 
	 "Tm": 432.15, 
	 "num_atms": 32, 
	 "gaussian": { 
		 "optdone": 1, 
		 "sigma_profile": "yes", 
		 "theory": "DFT", 
		 "functional": "B3LYP", 
		 "basiset": "6-31G**", 
		 "properties": { 
			 "R2extent": 8381.6, 
			 "electric_dipole_moment_norm": 4.84367740565, 
			 "electric_quadrupole_moment_norm": 20.6277945331, 
			 "total_energy": -1700.38786247, 
			 "HOMO_LUMO_gap": 0.15891, 
			 "cosmo_polarized_energy": -15.35, 
			 "cosmo_cavitation_energy": 40.57, 
			 "cosmo_dispersion_energy": -28.02, 
			 "cosmo_repulsion_energy": 2.11, 
			 "cosmo_total_nonelectrostatic_energy": 14.65, 
			 "SMD_solvation_energy": 7.17 
		},
		"coords": [
			{
				"x": -0.6446603291,
				"y": 2.2161359517,
				"z": -4.3929155884,
				"element": "O" 
			},
			{
				"x": -1.2593434754,
				"y": 2.040994909,
				"z": -3.201004163,
				"element": "C" 
			},
			{
				"x": -2.4676598985,
				"y": 1.9935772588,
				"z": -3.1116014554,
				"element": "O" 
			},
			{
				"x": -0.3630637958,
				"y": 1.9207953548,
				"z": -2.0389172902,
				"element": "C" 
			},
			{
				"x": -0.6255502976,
				"y": 1.7462664105,
				"z": -0.706737479,
				"element": "C" 
			},
			{
				"x": -1.9738675654,
				"y": 1.6072734269,
				"z": -0.0808357973,
				"element": "C" 
			},
			{
				"x": -2.5578392506,
				"y": -0.150026641,
				"z": 0.1061003896,
				"element": "S" 
			},
			{
				"x": -1.7040587632,
				"y": -0.6785576863,
				"z": 1.5905867111,
				"element": "C" 
			},
			{
				"x": -0.7172001499,
				"y": -1.6697779904,
				"z": 1.5115342403,
				"element": "C" 
			},
			{
				"x": -0.0789432288,
				"y": -2.1337916101,
				"z": 2.6624927447,
				"element": "C" 
			},
			{
				"x": -0.4238043614,
				"y": -1.5882390316,
				"z": 3.8979630385,
				"element": "C" 
			},
			{
				"x": 0.385931335,
				"y": -2.1545242559,
				"z": 5.3502721371,
				"element": "Cl" 
			},
			{
				"x": -1.4062371407,
				"y": -0.6017159651,
				"z": 4.002497727,
				"element": "C" 
			},
			{
				"x": -2.0518169822,
				"y": -0.1614857755,
				"z": 2.8478883349,
				"element": "C" 
			},
			{
				"x": 0.6671758792,
				"y": 1.7307716455,
				"z": -0.0573802819,
				"element": "C" 
			},
			{
				"x": 1.6196708989,
				"y": 1.9033289519,
				"z": -1.0790417584,
				"element": "C" 
			},
			{
				"x": 0.9963349387,
				"y": 2.0159757476,
				"z": -2.2920081141,
				"element": "O" 
			},
			{
				"x": 2.991442996,
				"y": 1.9547633133,
				"z": -0.8594903024,
				"element": "C" 
			},
			{
				"x": 3.4074438741,
				"y": 1.8279249964,
				"z": 0.4638565575,
				"element": "C" 
			},
			{
				"x": 2.481338058,
				"y": 1.6572086267,
				"z": 1.5125511499,
				"element": "C" 
			},
			{
				"x": 1.1137017506,
				"y": 1.6057584505,
				"z": 1.2695629255,
				"element": "C" 
			},
			{
				"x": 0.3172407703,
				"y": 2.2283271796,
				"z": -4.2639332798,
				"element": "H" 
			},
			{
				"x": -2.7287087077,
				"y": 2.0596836666,
				"z": -0.7246009594,
				"element": "H" 
			},
			{
				"x": -2.0061358917,
				"y": 2.0827611307,
				"z": 0.9020360832,
				"element": "H" 
			},
			{
				"x": -0.4449263779,
				"y": -2.0765644475,
				"z": 0.5432944668,
				"element": "H" 
			},
			{
				"x": 0.6846007862,
				"y": -2.9012598566,
				"z": 2.6002750982,
				"element": "H" 
			},
			{
				"x": -1.6731442579,
				"y": -0.2006293347,
				"z": 4.9741318669,
				"element": "H" 
			},
			{
				"x": -2.8394962162,
				"y": 0.5818262962,
				"z": 2.925874269,
				"element": "H" 
			},
			{
				"x": 3.6914205136,
				"y": 2.0883908146,
				"z": -1.676743574,
				"element": "H" 
			},
			{
				"x": 4.4683935272,
				"y": 1.8618694989,
				"z": 0.6916647945,
				"element": "H" 
			},
			{
				"x": 2.8471818615,
				"y": 1.5606319329,
				"z": 2.5299990386,
				"element": "H" 
			},
			{
				"x": 0.4102795005,
				"y": 1.4627070316,
				"z": 2.0829284702,
				"element": "H" 
			}
		],
		 "valence_orbital": [ 
			{
				"type": "occ",
				"energy": -0.27593,
				"method": "rhf"
			},
			{
				"type": "occ",
				"energy": -0.26298,
				"method": "rhf"
			},
			{
				"type": "occ",
				"energy": -0.25863,
				"method": "rhf"
			},
			{
				"type": "occ",
				"energy": -0.24583,
				"method": "rhf"
			},
			{
				"type": "occ",
				"energy": -0.22863,
				"method": "rhf"
			},
			{
				"type": "unocc",
				"energy": -0.06972,
				"method": "rhf"
			},
			{
				"type": "unocc",
				"energy": -0.03573,
				"method": "rhf"
			},
			{
				"type": "unocc",
				"energy": -0.0266,
				"method": "rhf"
			},
			{
				"type": "unocc",
				"energy": -0.01005,
				"method": "rhf"
			},
			{
				"type": "unocc",
				"energy": 0.00539,
				"method": "rhf"
			}
		],
		"cosmo_sigma_profile": { 
			"-0.025": 0.0,
			"-0.024": 0.0,
			"-0.023": 0.0,
			"-0.022": 0.0,
			"-0.021": 0.0,
			"-0.02": 0.0,
			"-0.019": 0.0,
			"-0.018": 0.0,
			"-0.017": 0.214719655533,
			"-0.016": 0.549762339946,
			"-0.015": 0.700064729859,
			"-0.014": 0.708978002064,
			"-0.013": 0.499380614521,
			"-0.012": 0.699137719951,
			"-0.011": 0.830724313792,
			"-0.01": 0.956724514463,
			"-0.009": 0.917908903819,
			"-0.008": 3.54286449458,
			"-0.007": 13.9916000451,
			"-0.006": 19.9367884914,
			"-0.005": 20.1570575983,
			"-0.004": 19.1451827862,
			"-0.003": 18.202718891,
			"-0.002": 21.640509656,
			"-0.001": 21.7202112152,
			"0.0": 25.7931885915,
			"0.001": 32.2283954207,
			"0.002": 30.4948092637,
			"0.003": 29.6018960503,
			"0.004": 24.9134510649,
			"0.005": 11.7177967409,
			"0.006": 4.92667969534,
			"0.007": 4.63612175394,
			"0.008": 4.67888201354,
			"0.009": 4.97213470921,
			"0.01": 5.04247509685,
			"0.011": 3.50723192398,
			"0.012": 2.78961084942,
			"0.013": 0.814291192011,
			"0.014": 0.0,
			"0.015": 0.0,
			"0.016": 0.0,
			"0.017": 0.0,
			"0.018": 0.0,
			"0.019": 0.0,
			"0.02": 0.0,
			"0.021": 0.0,
			"0.022": 0.0,
			"0.023": 0.0,
			"0.024": 0.0,
			"0.025": 0.0
		}
	}
}
