{
	 "smiles": "CC1CCC(CC1)NC(=O)CN1CCNCC1", 
	 "Tm": 394.15, 
	 "num_atms": 42, 
	 "gaussian": { 
		 "optdone": 1, 
		 "sigma_profile": "yes", 
		 "theory": "DFT", 
		 "functional": "B3LYP", 
		 "basiset": "6-31G**", 
		 "properties": { 
			 "R2extent": 5222.8502, 
			 "electric_dipole_moment_norm": 4.02089454351, 
			 "electric_quadrupole_moment_norm": 12.1226626485, 
			 "total_energy": -749.940236551, 
			 "HOMO_LUMO_gap": 0.23649, 
			 "cosmo_polarized_energy": -13.85, 
			 "cosmo_cavitation_energy": 39.28, 
			 "cosmo_dispersion_energy": -27.08, 
			 "cosmo_repulsion_energy": 2.11, 
			 "cosmo_total_nonelectrostatic_energy": 14.32, 
			 "SMD_solvation_energy": 2.3 
		},
		"coords": [
			{
				"x": -0.8237733457,
				"y": -0.0901333866,
				"z": -3.6382999595,
				"element": "C" 
			},
			{
				"x": 0.1312603842,
				"y": 1.0792638921,
				"z": -3.9280948501,
				"element": "C" 
			},
			{
				"x": -0.0012554458,
				"y": 2.2226397641,
				"z": -2.8985662591,
				"element": "C" 
			},
			{
				"x": 0.5882657092,
				"y": 1.8749998859,
				"z": -1.5202983433,
				"element": "C" 
			},
			{
				"x": 2.052818986,
				"y": 1.4175950915,
				"z": -1.6495077833,
				"element": "C" 
			},
			{
				"x": 2.2072757267,
				"y": 0.257127648,
				"z": -2.6529623245,
				"element": "C" 
			},
			{
				"x": 1.6064056286,
				"y": 0.6315941849,
				"z": -4.0190365112,
				"element": "C" 
			},
			{
				"x": 2.7220575035,
				"y": 1.1861884261,
				"z": -0.3594597269,
				"element": "N" 
			},
			{
				"x": 2.4660428495,
				"y": 0.3654171519,
				"z": 0.7077789692,
				"element": "C" 
			},
			{
				"x": 3.1651522165,
				"y": 0.4409276,
				"z": 1.7165929044,
				"element": "O" 
			},
			{
				"x": 1.3198060597,
				"y": -0.6496625829,
				"z": 0.646983929,
				"element": "C" 
			},
			{
				"x": 0.0901775045,
				"y": -0.1303765041,
				"z": 1.2518752829,
				"element": "N" 
			},
			{
				"x": -1.0466282419,
				"y": -1.0177664892,
				"z": 0.9820367408,
				"element": "C" 
			},
			{
				"x": -2.336574486,
				"y": -0.4020432883,
				"z": 1.5242555429,
				"element": "C" 
			},
			{
				"x": -2.1937570366,
				"y": -0.1791429383,
				"z": 2.9610403529,
				"element": "N" 
			},
			{
				"x": -1.0726918395,
				"y": 0.7196277938,
				"z": 3.2394769208,
				"element": "C" 
			},
			{
				"x": 0.2151587936,
				"y": 0.1022315212,
				"z": 2.6995370104,
				"element": "C" 
			},
			{
				"x": -0.7341955956,
				"y": -0.8675663264,
				"z": -4.4050953431,
				"element": "H" 
			},
			{
				"x": -0.6274798704,
				"y": -0.5618045904,
				"z": -2.6699678285,
				"element": "H" 
			},
			{
				"x": -1.8647975166,
				"y": 0.2508294917,
				"z": -3.6291965605,
				"element": "H" 
			},
			{
				"x": -0.1498480752,
				"y": 1.485000493,
				"z": -4.9096061357,
				"element": "H" 
			},
			{
				"x": -1.0541529524,
				"y": 2.5098882217,
				"z": -2.7889086428,
				"element": "H" 
			},
			{
				"x": 0.5191639166,
				"y": 3.1074794099,
				"z": -3.2919251504,
				"element": "H" 
			},
			{
				"x": -0.0049352158,
				"y": 1.1037581159,
				"z": -1.0204636075,
				"element": "H" 
			},
			{
				"x": 0.5471051503,
				"y": 2.7506542902,
				"z": -0.8625717976,
				"element": "H" 
			},
			{
				"x": 2.6072175181,
				"y": 2.2635903784,
				"z": -2.078288829,
				"element": "H" 
			},
			{
				"x": 3.2701755062,
				"y": 0.0119726446,
				"z": -2.7589192766,
				"element": "H" 
			},
			{
				"x": 1.719750887,
				"y": -0.6457285709,
				"z": -2.2694582228,
				"element": "H" 
			},
			{
				"x": 1.7031084675,
				"y": -0.2133660423,
				"z": -4.711684646,
				"element": "H" 
			},
			{
				"x": 2.1967525752,
				"y": 1.4524994085,
				"z": -4.4498991918,
				"element": "H" 
			},
			{
				"x": 3.4990320925,
				"y": 1.79901255,
				"z": -0.1469208226,
				"element": "H" 
			},
			{
				"x": 1.0906142409,
				"y": -0.9300096022,
				"z": -0.3833981043,
				"element": "H" 
			},
			{
				"x": 1.6929340507,
				"y": -1.5508558465,
				"z": 1.1649597827,
				"element": "H" 
			},
			{
				"x": -0.9031920247,
				"y": -2.0147383145,
				"z": 1.4406495805,
				"element": "H" 
			},
			{
				"x": -1.1367828749,
				"y": -1.1574717744,
				"z": -0.1019092878,
				"element": "H" 
			},
			{
				"x": -3.1703316069,
				"y": -1.0912812413,
				"z": 1.3485614232,
				"element": "H" 
			},
			{
				"x": -2.5395509317,
				"y": 0.5276235908,
				"z": 0.9595171401,
				"element": "H" 
			},
			{
				"x": -3.0542040001,
				"y": 0.2035321985,
				"z": 3.3425776828,
				"element": "H" 
			},
			{
				"x": -0.9834309378,
				"y": 0.8525922561,
				"z": 4.3232406646,
				"element": "H" 
			},
			{
				"x": -1.1995339196,
				"y": 1.7194934306,
				"z": 2.7837672439,
				"element": "H" 
			},
			{
				"x": 0.4138048859,
				"y": -0.8450940946,
				"z": 3.2347067629,
				"element": "H" 
			},
			{
				"x": 1.0619352643,
				"y": 0.7656021539,
				"z": 2.8831812709,
				"element": "H" 
			}
		],
		 "valence_orbital": [ 
			{
				"type": "occ",
				"energy": -0.3052,
				"method": "rhf"
			},
			{
				"type": "occ",
				"energy": -0.24186,
				"method": "rhf"
			},
			{
				"type": "occ",
				"energy": -0.23823,
				"method": "rhf"
			},
			{
				"type": "occ",
				"energy": -0.21836,
				"method": "rhf"
			},
			{
				"type": "occ",
				"energy": -0.21334,
				"method": "rhf"
			},
			{
				"type": "unocc",
				"energy": 0.02315,
				"method": "rhf"
			},
			{
				"type": "unocc",
				"energy": 0.05864,
				"method": "rhf"
			},
			{
				"type": "unocc",
				"energy": 0.07035,
				"method": "rhf"
			},
			{
				"type": "unocc",
				"energy": 0.08679,
				"method": "rhf"
			},
			{
				"type": "unocc",
				"energy": 0.09244,
				"method": "rhf"
			}
		],
		"cosmo_sigma_profile": { 
			"-0.025": 0.0,
			"-0.024": 0.0,
			"-0.023": 0.0,
			"-0.022": 0.0,
			"-0.021": 0.0,
			"-0.02": 0.0,
			"-0.019": 0.0,
			"-0.018": 0.0,
			"-0.017": 0.0,
			"-0.016": 0.0,
			"-0.015": 0.0,
			"-0.014": 0.0,
			"-0.013": 0.460552168507,
			"-0.012": 1.13833842849,
			"-0.011": 1.0282089698,
			"-0.01": 2.25295302676,
			"-0.009": 2.42424956116,
			"-0.008": 2.21512070102,
			"-0.007": 2.62875202373,
			"-0.006": 4.42293527972,
			"-0.005": 7.3756803378,
			"-0.004": 13.4168526759,
			"-0.003": 26.6990919379,
			"-0.002": 50.2818175016,
			"-0.001": 55.9093201546,
			"0.0": 44.7118199677,
			"0.001": 26.5056444046,
			"0.002": 11.7317808589,
			"0.003": 7.0338965182,
			"0.004": 4.77217310256,
			"0.005": 4.16760974326,
			"0.006": 2.91471109002,
			"0.007": 2.72092309984,
			"0.008": 3.61498172983,
			"0.009": 2.32758803759,
			"0.01": 3.17672040281,
			"0.011": 2.46976224317,
			"0.012": 2.87714239851,
			"0.013": 2.03236897216,
			"0.014": 5.74822257163,
			"0.015": 2.91667573631,
			"0.016": 0.714528446356,
			"0.017": 0.472852987317,
			"0.018": 0.369065068017,
			"0.019": 0.0171182152264,
			"0.02": 0.0,
			"0.021": 0.0,
			"0.022": 0.0,
			"0.023": 0.0,
			"0.024": 0.0,
			"0.025": 0.0
		}
	}
}
