{
	 "smiles": "COC1=CC=C(C=C1)C(O)C1=C(C)C=C(OC)C=C1", 
	 "Tm": 345.15, 
	 "num_atms": 37, 
	 "gaussian": { 
		 "optdone": 1, 
		 "sigma_profile": "yes", 
		 "theory": "DFT", 
		 "functional": "B3LYP", 
		 "basiset": "6-31G**", 
		 "properties": { 
			 "R2extent": 7065.7055, 
			 "electric_dipole_moment_norm": 3.53105822807, 
			 "electric_quadrupole_moment_norm": 11.0399600131, 
			 "total_energy": -846.196018295, 
			 "HOMO_LUMO_gap": 0.20802, 
			 "cosmo_polarized_energy": -12.84, 
			 "cosmo_cavitation_energy": 39.29, 
			 "cosmo_dispersion_energy": -27.9, 
			 "cosmo_repulsion_energy": 2.14, 
			 "cosmo_total_nonelectrostatic_energy": 13.53, 
			 "SMD_solvation_energy": 7.93 
		},
		"coords": [
			{
				"x": 3.8524775134,
				"y": -3.4640939283,
				"z": 0.8509316524,
				"element": "C" 
			},
			{
				"x": 3.3399657214,
				"y": -3.2949617776,
				"z": -0.4602283644,
				"element": "O" 
			},
			{
				"x": 2.1781457838,
				"y": -2.5932855836,
				"z": -0.6131271538,
				"element": "C" 
			},
			{
				"x": 1.452660865,
				"y": -2.0122425108,
				"z": 0.4323682175,
				"element": "C" 
			},
			{
				"x": 0.2753492036,
				"y": -1.3106970106,
				"z": 0.1537446207,
				"element": "C" 
			},
			{
				"x": -0.2008698469,
				"y": -1.17132365,
				"z": -1.1523754193,
				"element": "C" 
			},
			{
				"x": 0.5370220297,
				"y": -1.7697226717,
				"z": -2.1887447395,
				"element": "C" 
			},
			{
				"x": 1.709612051,
				"y": -2.4667145693,
				"z": -1.9292893592,
				"element": "C" 
			},
			{
				"x": -1.518495135,
				"y": -0.460399985,
				"z": -1.4770249626,
				"element": "C" 
			},
			{
				"x": -1.5007191973,
				"y": 0.0965140268,
				"z": -2.7970839101,
				"element": "O" 
			},
			{
				"x": -1.9827930516,
				"y": 0.5344771497,
				"z": -0.4169717034,
				"element": "C" 
			},
			{
				"x": -1.3639997672,
				"y": 1.7804919262,
				"z": -0.1931378716,
				"element": "C" 
			},
			{
				"x": -0.1900032844,
				"y": 2.2608592333,
				"z": -1.0193782186,
				"element": "C" 
			},
			{
				"x": -1.8607685502,
				"y": 2.6285872533,
				"z": 0.807399677,
				"element": "C" 
			},
			{
				"x": -2.958690992,
				"y": 2.2606338937,
				"z": 1.5924895348,
				"element": "C" 
			},
			{
				"x": -3.4957741619,
				"y": 3.0305526929,
				"z": 2.5847999653,
				"element": "O" 
			},
			{
				"x": -2.9181197911,
				"y": 4.2998423042,
				"z": 2.840263478,
				"element": "C" 
			},
			{
				"x": -3.5748364895,
				"y": 1.023889212,
				"z": 1.3737155757,
				"element": "C" 
			},
			{
				"x": -3.0851398874,
				"y": 0.1882176703,
				"z": 0.3783125416,
				"element": "C" 
			},
			{
				"x": 4.7670329069,
				"y": -4.0498595017,
				"z": 0.7448373731,
				"element": "H" 
			},
			{
				"x": 4.0942137666,
				"y": -2.5014188955,
				"z": 1.3202716484,
				"element": "H" 
			},
			{
				"x": 3.1491786293,
				"y": -4.0079610689,
				"z": 1.4950098603,
				"element": "H" 
			},
			{
				"x": 1.7896319819,
				"y": -2.0934378443,
				"z": 1.4591668586,
				"element": "H" 
			},
			{
				"x": -0.2754844036,
				"y": -0.8643000687,
				"z": 0.9756283141,
				"element": "H" 
			},
			{
				"x": 0.1767579545,
				"y": -1.6843175566,
				"z": -3.2090909609,
				"element": "H" 
			},
			{
				"x": 2.2810997063,
				"y": -2.9266377705,
				"z": -2.7292474806,
				"element": "H" 
			},
			{
				"x": -2.298376525,
				"y": -1.2300660894,
				"z": -1.5414979836,
				"element": "H" 
			},
			{
				"x": -0.6811752647,
				"y": 0.5987395748,
				"z": -2.8909116997,
				"element": "H" 
			},
			{
				"x": 0.5582013861,
				"y": 1.4747318769,
				"z": -1.1625512136,
				"element": "H" 
			},
			{
				"x": 0.3097138434,
				"y": 3.1048768131,
				"z": -0.5359522714,
				"element": "H" 
			},
			{
				"x": -0.5182930129,
				"y": 2.6032681042,
				"z": -2.008597533,
				"element": "H" 
			},
			{
				"x": -1.37213506,
				"y": 3.5842089724,
				"z": 0.9619752329,
				"element": "H" 
			},
			{
				"x": -3.499186613,
				"y": 4.7376472386,
				"z": 3.6536223177,
				"element": "H" 
			},
			{
				"x": -1.8693078727,
				"y": 4.2142749958,
				"z": 3.1535468615,
				"element": "H" 
			},
			{
				"x": -2.9757133935,
				"y": 4.9569732208,
				"z": 1.9627114518,
				"element": "H" 
			},
			{
				"x": -4.4278200369,
				"y": 0.7448915823,
				"z": 1.9832854246,
				"element": "H" 
			},
			{
				"x": -3.5743610061,
				"y": -0.7682372589,
				"z": 0.2094302394,
				"element": "H" 
			}
		],
		 "valence_orbital": [ 
			{
				"type": "occ",
				"energy": -0.26868,
				"method": "rhf"
			},
			{
				"type": "occ",
				"energy": -0.24805,
				"method": "rhf"
			},
			{
				"type": "occ",
				"energy": -0.24269,
				"method": "rhf"
			},
			{
				"type": "occ",
				"energy": -0.21341,
				"method": "rhf"
			},
			{
				"type": "occ",
				"energy": -0.21183,
				"method": "rhf"
			},
			{
				"type": "unocc",
				"energy": -0.00381,
				"method": "rhf"
			},
			{
				"type": "unocc",
				"energy": 0.00318,
				"method": "rhf"
			},
			{
				"type": "unocc",
				"energy": 0.01141,
				"method": "rhf"
			},
			{
				"type": "unocc",
				"energy": 0.01291,
				"method": "rhf"
			},
			{
				"type": "unocc",
				"energy": 0.08885,
				"method": "rhf"
			}
		],
		"cosmo_sigma_profile": { 
			"-0.025": 0.0,
			"-0.024": 0.0,
			"-0.023": 0.0,
			"-0.022": 0.0,
			"-0.021": 0.0,
			"-0.02": 0.0,
			"-0.019": 0.0,
			"-0.018": 0.0,
			"-0.017": 0.0,
			"-0.016": 0.0,
			"-0.015": 0.0,
			"-0.014": 0.0,
			"-0.013": 0.391447779252,
			"-0.012": 0.773702683895,
			"-0.011": 0.735121941371,
			"-0.01": 1.14643460208,
			"-0.009": 1.25904454268,
			"-0.008": 1.11998573881,
			"-0.007": 0.991157380245,
			"-0.006": 13.4129459693,
			"-0.005": 32.560934701,
			"-0.004": 32.6054295703,
			"-0.003": 33.7426095256,
			"-0.002": 22.946992883,
			"-0.001": 19.4067292635,
			"0.0": 21.3252495479,
			"0.001": 16.3536856151,
			"0.002": 16.6462683897,
			"0.003": 16.9933876007,
			"0.004": 21.2182893481,
			"0.005": 21.5190267407,
			"0.006": 11.2233257255,
			"0.007": 4.40369765708,
			"0.008": 4.94512034246,
			"0.009": 3.63932802832,
			"0.01": 3.78461313884,
			"0.011": 2.78007661685,
			"0.012": 1.1515143587,
			"0.013": 1.87069056188,
			"0.014": 1.82121141033,
			"0.015": 0.0580580907533,
			"0.016": 0.0,
			"0.017": 0.0,
			"0.018": 0.0,
			"0.019": 0.0,
			"0.02": 0.0,
			"0.021": 0.0,
			"0.022": 0.0,
			"0.023": 0.0,
			"0.024": 0.0,
			"0.025": 0.0
		}
	}
}
