{
	 "smiles": "CC1=NC=CC(O)=C1OCC1=CC=C(Cl)C=C1", 
	 "Tm": 470.15, 
	 "num_atms": 29, 
	 "gaussian": { 
		 "optdone": 1, 
		 "sigma_profile": "yes", 
		 "theory": "DFT", 
		 "functional": "B3LYP", 
		 "basiset": "6-31G**", 
		 "properties": { 
			 "R2extent": 8370.5526, 
			 "electric_dipole_moment_norm": 4.06797495076, 
			 "electric_quadrupole_moment_norm": 19.0752757707, 
			 "total_energy": -1167.99298072, 
			 "HOMO_LUMO_gap": 0.22223, 
			 "cosmo_polarized_energy": -14.54, 
			 "cosmo_cavitation_energy": 35.39, 
			 "cosmo_dispersion_energy": -25.33, 
			 "cosmo_repulsion_energy": 1.96, 
			 "cosmo_total_nonelectrostatic_energy": 12.02, 
			 "SMD_solvation_energy": 4.84 
		},
		"coords": [
			{
				"x": 2.5918444311,
				"y": 1.0441004065,
				"z": -2.1311613093,
				"element": "C" 
			},
			{
				"x": 2.3148919336,
				"y": 1.7726240042,
				"z": -0.8410569062,
				"element": "C" 
			},
			{
				"x": 3.3277988501,
				"y": 2.4644754047,
				"z": -0.2922871275,
				"element": "N" 
			},
			{
				"x": 3.102775678,
				"y": 3.1016146264,
				"z": 0.860716186,
				"element": "C" 
			},
			{
				"x": 1.8843905834,
				"y": 3.0841656885,
				"z": 1.5336289055,
				"element": "C" 
			},
			{
				"x": 0.8296074385,
				"y": 2.3590700514,
				"z": 0.9743632797,
				"element": "C" 
			},
			{
				"x": -0.3984095957,
				"y": 2.256852682,
				"z": 1.5526319766,
				"element": "O" 
			},
			{
				"x": 1.0461920636,
				"y": 1.6968976952,
				"z": -0.2450311413,
				"element": "C" 
			},
			{
				"x": 0.0761096553,
				"y": 0.9176728387,
				"z": -0.8292522,
				"element": "O" 
			},
			{
				"x": -1.0895890486,
				"y": 1.6046465521,
				"z": -1.3031787443,
				"element": "C" 
			},
			{
				"x": -1.96373989,
				"y": 0.6430347951,
				"z": -2.0738406995,
				"element": "C" 
			},
			{
				"x": -1.4702999207,
				"y": -0.5658117972,
				"z": -2.5732956146,
				"element": "C" 
			},
			{
				"x": -2.2893042308,
				"y": -1.4209666688,
				"z": -3.3123486816,
				"element": "C" 
			},
			{
				"x": -3.6113154616,
				"y": -1.0562213725,
				"z": -3.5570809774,
				"element": "C" 
			},
			{
				"x": -4.64979451,
				"y": -2.1277086801,
				"z": -4.4900659722,
				"element": "Cl" 
			},
			{
				"x": -4.1272018346,
				"y": 0.1440386804,
				"z": -3.0688240076,
				"element": "C" 
			},
			{
				"x": -3.2986107289,
				"y": 0.982772512,
				"z": -2.3256811148,
				"element": "C" 
			},
			{
				"x": 3.5896980403,
				"y": 1.3105000161,
				"z": -2.481989877,
				"element": "H" 
			},
			{
				"x": 2.545690187,
				"y": -0.0413993547,
				"z": -1.9877592843,
				"element": "H" 
			},
			{
				"x": 1.8563032219,
				"y": 1.2935762593,
				"z": -2.9024744206,
				"element": "H" 
			},
			{
				"x": 3.9409834847,
				"y": 3.6590047097,
				"z": 1.274890122,
				"element": "H" 
			},
			{
				"x": 1.7576900082,
				"y": 3.6140723583,
				"z": 2.4749202921,
				"element": "H" 
			},
			{
				"x": -0.3971898494,
				"y": 2.7460968421,
				"z": 2.3861550812,
				"element": "H" 
			},
			{
				"x": -0.7769493567,
				"y": 2.4371550138,
				"z": -1.9522299109,
				"element": "H" 
			},
			{
				"x": -1.6453378946,
				"y": 2.0311574243,
				"z": -0.4607234801,
				"element": "H" 
			},
			{
				"x": -0.4423155472,
				"y": -0.8430102931,
				"z": -2.3713630028,
				"element": "H" 
			},
			{
				"x": -1.9054238157,
				"y": -2.3606988957,
				"z": -3.6940654907,
				"element": "H" 
			},
			{
				"x": -5.1603871528,
				"y": 0.4114213726,
				"z": -3.2608975253,
				"element": "H" 
			},
			{
				"x": -3.7029067381,
				"y": 1.9140671289,
				"z": -1.9358983551,
				"element": "H" 
			}
		],
		 "valence_orbital": [ 
			{
				"type": "occ",
				"energy": -0.26151,
				"method": "rhf"
			},
			{
				"type": "occ",
				"energy": -0.25699,
				"method": "rhf"
			},
			{
				"type": "occ",
				"energy": -0.25165,
				"method": "rhf"
			},
			{
				"type": "occ",
				"energy": -0.24016,
				"method": "rhf"
			},
			{
				"type": "occ",
				"energy": -0.23627,
				"method": "rhf"
			},
			{
				"type": "unocc",
				"energy": -0.01404,
				"method": "rhf"
			},
			{
				"type": "unocc",
				"energy": -0.01061,
				"method": "rhf"
			},
			{
				"type": "unocc",
				"energy": -0.00947,
				"method": "rhf"
			},
			{
				"type": "unocc",
				"energy": -0.00803,
				"method": "rhf"
			},
			{
				"type": "unocc",
				"energy": 0.03273,
				"method": "rhf"
			}
		],
		"cosmo_sigma_profile": { 
			"-0.025": 0.0,
			"-0.024": 0.0,
			"-0.023": 0.0,
			"-0.022": 0.0,
			"-0.021": 0.0,
			"-0.02": 0.0,
			"-0.019": 0.495803521227,
			"-0.018": 1.16919212281,
			"-0.017": 1.2528552237,
			"-0.016": 0.950657380783,
			"-0.015": 1.04814760162,
			"-0.014": 0.663559723989,
			"-0.013": 0.799721736393,
			"-0.012": 0.978121965447,
			"-0.011": 1.63907754614,
			"-0.01": 1.08368683557,
			"-0.009": 0.903945129979,
			"-0.008": 1.47778339923,
			"-0.007": 6.89053682116,
			"-0.006": 12.7970980509,
			"-0.005": 16.7571231238,
			"-0.004": 18.265263482,
			"-0.003": 17.1033245175,
			"-0.002": 17.6256368073,
			"-0.001": 18.9247665682,
			"0.0": 22.74845034,
			"0.001": 24.0656652177,
			"0.002": 27.2631168283,
			"0.003": 25.4188607414,
			"0.004": 26.6448247851,
			"0.005": 14.7270729449,
			"0.006": 3.86423163863,
			"0.007": 4.1992764611,
			"0.008": 3.21643154358,
			"0.009": 4.0019125984,
			"0.01": 1.63729640191,
			"0.011": 1.0913652404,
			"0.012": 1.00290873779,
			"0.013": 1.38062613276,
			"0.014": 0.730289876835,
			"0.015": 0.511892526703,
			"0.016": 1.08119257446,
			"0.017": 0.269419066058,
			"0.018": 0.0,
			"0.019": 0.0,
			"0.02": 0.0,
			"0.021": 0.0,
			"0.022": 0.0,
			"0.023": 0.0,
			"0.024": 0.0,
			"0.025": 0.0
		}
	}
}
