{
	 "smiles": "CC1=CC(Br)=C(C=C1)C#N", 
	 "Tm": 325.65, 
	 "num_atms": 16, 
	 "gaussian": { 
		 "optdone": 1, 
		 "sigma_profile": "yes", 
		 "theory": "DFT", 
		 "functional": "B3LYP", 
		 "basiset": "6-31G**", 
		 "properties": { 
			 "R2extent": 2517.5992, 
			 "electric_dipole_moment_norm": 5.71836666365, 
			 "electric_quadrupole_moment_norm": 14.7790747775, 
			 "total_energy": -2934.61070722, 
			 "HOMO_LUMO_gap": 0.19888, 
			 "cosmo_polarized_energy": -9.32, 
			 "cosmo_cavitation_energy": 23.5, 
			 "cosmo_dispersion_energy": -17.04, 
			 "cosmo_repulsion_energy": 1.38, 
			 "cosmo_total_nonelectrostatic_energy": 7.84, 
			 "SMD_solvation_energy": 4.33 
		},
		"coords": [
			{
				"x": -0.3600471742,
				"y": 1.9252709478,
				"z": -2.1908264412,
				"element": "C" 
			},
			{
				"x": -0.0940013971,
				"y": 0.6551559847,
				"z": -1.4207926356,
				"element": "C" 
			},
			{
				"x": 0.4034086491,
				"y": 0.7018436496,
				"z": -0.113467546,
				"element": "C" 
			},
			{
				"x": 0.6652038148,
				"y": -0.4687715419,
				"z": 0.5939638864,
				"element": "C" 
			},
			{
				"x": 1.3395783094,
				"y": -0.3412716238,
				"z": 2.3664644271,
				"element": "Br" 
			},
			{
				"x": 0.4338307693,
				"y": -1.7262086337,
				"z": 0.0103901915,
				"element": "C" 
			},
			{
				"x": -0.0684134375,
				"y": -1.7699198619,
				"z": -1.3039983851,
				"element": "C" 
			},
			{
				"x": -0.3273789109,
				"y": -0.59997707,
				"z": -2.0040904818,
				"element": "C" 
			},
			{
				"x": 0.687750263,
				"y": -2.9525160424,
				"z": 0.7033220509,
				"element": "C" 
			},
			{
				"x": 0.8789143794,
				"y": -3.9736809764,
				"z": 1.2263721538,
				"element": "N" 
			},
			{
				"x": -0.3054378722,
				"y": 2.8055940611,
				"z": -1.5457653197,
				"element": "H" 
			},
			{
				"x": 0.3732175358,
				"y": 2.0547972192,
				"z": -2.9956214868,
				"element": "H" 
			},
			{
				"x": -1.3505978337,
				"y": 1.9047924757,
				"z": -2.656806537,
				"element": "H" 
			},
			{
				"x": 0.589720323,
				"y": 1.6582636311,
				"z": 0.3625810603,
				"element": "H" 
			},
			{
				"x": -0.2515208455,
				"y": -2.7371889213,
				"z": -1.759803374,
				"element": "H" 
			},
			{
				"x": -0.7166265727,
				"y": -0.6583832979,
				"z": -3.0165215628,
				"element": "H" 
			}
		],
		 "valence_orbital": [ 
			{
				"type": "occ",
				"energy": -0.33348,
				"method": "rhf"
			},
			{
				"type": "occ",
				"energy": -0.32635,
				"method": "rhf"
			},
			{
				"type": "occ",
				"energy": -0.29736,
				"method": "rhf"
			},
			{
				"type": "occ",
				"energy": -0.2714,
				"method": "rhf"
			},
			{
				"type": "occ",
				"energy": -0.25702,
				"method": "rhf"
			},
			{
				"type": "unocc",
				"energy": -0.05814,
				"method": "rhf"
			},
			{
				"type": "unocc",
				"energy": -0.03323,
				"method": "rhf"
			},
			{
				"type": "unocc",
				"energy": -0.00648,
				"method": "rhf"
			},
			{
				"type": "unocc",
				"energy": 0.03467,
				"method": "rhf"
			},
			{
				"type": "unocc",
				"energy": 0.06726,
				"method": "rhf"
			}
		],
		"cosmo_sigma_profile": { 
			"-0.025": 0.0,
			"-0.024": 0.0,
			"-0.023": 0.0,
			"-0.022": 0.0,
			"-0.021": 0.0,
			"-0.02": 0.0,
			"-0.019": 0.0,
			"-0.018": 0.0,
			"-0.017": 0.0,
			"-0.016": 0.0,
			"-0.015": 0.0,
			"-0.014": 0.0,
			"-0.013": 0.0,
			"-0.012": 0.0,
			"-0.011": 0.0,
			"-0.01": 0.0,
			"-0.009": 0.379213529644,
			"-0.008": 2.81301094044,
			"-0.007": 6.52238255478,
			"-0.006": 8.78277235153,
			"-0.005": 13.2687918505,
			"-0.004": 12.58365027,
			"-0.003": 14.0473707519,
			"-0.002": 17.0315167219,
			"-0.001": 19.6032098347,
			"0.0": 18.7786337713,
			"0.001": 18.9926682665,
			"0.002": 14.0196564784,
			"0.003": 12.533131,
			"0.004": 7.58849118752,
			"0.005": 3.36979209242,
			"0.006": 2.83991056915,
			"0.007": 3.24702475269,
			"0.008": 3.45316188765,
			"0.009": 3.5626335493,
			"0.01": 2.85505200168,
			"0.011": 2.8173046601,
			"0.012": 2.36991719441,
			"0.013": 1.12155781256,
			"0.014": 0.0,
			"0.015": 0.0,
			"0.016": 0.0,
			"0.017": 0.0,
			"0.018": 0.0,
			"0.019": 0.0,
			"0.02": 0.0,
			"0.021": 0.0,
			"0.022": 0.0,
			"0.023": 0.0,
			"0.024": 0.0,
			"0.025": 0.0
		}
	}
}
