{
	 "smiles": "COC1=CC=C(C=C1)C(=O)CC(C)=O", 
	 "Tm": 326.15, 
	 "num_atms": 26, 
	 "gaussian": { 
		 "optdone": 1, 
		 "sigma_profile": "yes", 
		 "theory": "DFT", 
		 "functional": "B3LYP", 
		 "basiset": "6-31G**", 
		 "properties": { 
			 "R2extent": 4750.334, 
			 "electric_dipole_moment_norm": 5.78577866324, 
			 "electric_quadrupole_moment_norm": 16.1705500853, 
			 "total_energy": -652.063175318, 
			 "HOMO_LUMO_gap": 0.18097, 
			 "cosmo_polarized_energy": -14.25, 
			 "cosmo_cavitation_energy": 30.4, 
			 "cosmo_dispersion_energy": -21.94, 
			 "cosmo_repulsion_energy": 1.72, 
			 "cosmo_total_nonelectrostatic_energy": 10.18, 
			 "SMD_solvation_energy": 7.27 
		},
		"coords": [
			{
				"x": -0.2096231812,
				"y": 1.9291404588,
				"z": -3.5047221442,
				"element": "C" 
			},
			{
				"x": -0.8661366083,
				"y": 0.7081872633,
				"z": -3.1884241608,
				"element": "O" 
			},
			{
				"x": -0.6962566336,
				"y": 0.179071542,
				"z": -1.9505428284,
				"element": "C" 
			},
			{
				"x": -1.3784015255,
				"y": -1.0273186999,
				"z": -1.7056063118,
				"element": "C" 
			},
			{
				"x": -1.2695070258,
				"y": -1.6459916014,
				"z": -0.4743854651,
				"element": "C" 
			},
			{
				"x": -0.4822603156,
				"y": -1.0869893586,
				"z": 0.5528699871,
				"element": "C" 
			},
			{
				"x": 0.1909116472,
				"y": 0.1146535074,
				"z": 0.2954946447,
				"element": "C" 
			},
			{
				"x": 0.0928533292,
				"y": 0.7498258043,
				"z": -0.9419904066,
				"element": "C" 
			},
			{
				"x": -0.4040905651,
				"y": -1.812550246,
				"z": 1.8507891716,
				"element": "C" 
			},
			{
				"x": -0.9949001841,
				"y": -2.8719614082,
				"z": 2.016295218,
				"element": "O" 
			},
			{
				"x": 0.4416114508,
				"y": -1.1970667309,
				"z": 2.9741006778,
				"element": "C" 
			},
			{
				"x": 0.2867178326,
				"y": -1.896285722,
				"z": 4.3271351918,
				"element": "C" 
			},
			{
				"x": 0.8390616663,
				"y": -3.298039244,
				"z": 4.4572151972,
				"element": "C" 
			},
			{
				"x": -0.2499650023,
				"y": -1.3164439934,
				"z": 5.2508905994,
				"element": "O" 
			},
			{
				"x": 0.8807062007,
				"y": 1.8285598775,
				"z": -3.4384452271,
				"element": "H" 
			},
			{
				"x": -0.5384950014,
				"y": 2.7442995759,
				"z": -2.8485535631,
				"element": "H" 
			},
			{
				"x": -0.4878688004,
				"y": 2.1604754955,
				"z": -4.5335284004,
				"element": "H" 
			},
			{
				"x": -1.9830692182,
				"y": -1.4487591943,
				"z": -2.5018153755,
				"element": "H" 
			},
			{
				"x": -1.7888356945,
				"y": -2.5764390644,
				"z": -0.2716689876,
				"element": "H" 
			},
			{
				"x": 0.8060752476,
				"y": 0.5752599077,
				"z": 1.0615841518,
				"element": "H" 
			},
			{
				"x": 0.6261389534,
				"y": 1.6778430284,
				"z": -1.1082805034,
				"element": "H" 
			},
			{
				"x": 1.4943898512,
				"y": -1.2231000537,
				"z": 2.6591112507,
				"element": "H" 
			},
			{
				"x": 0.1652695022,
				"y": -0.1480727138,
				"z": 3.1154869418,
				"element": "H" 
			},
			{
				"x": 0.2759222082,
				"y": -3.9579252703,
				"z": 3.7899869518,
				"element": "H" 
			},
			{
				"x": 0.7462534419,
				"y": -3.6361241298,
				"z": 5.4902205935,
				"element": "H" 
			},
			{
				"x": 1.8894984247,
				"y": -3.3338490302,
				"z": 4.1450827969,
				"element": "H" 
			}
		],
		 "valence_orbital": [ 
			{
				"type": "occ",
				"energy": -0.32923,
				"method": "rhf"
			},
			{
				"type": "occ",
				"energy": -0.26724,
				"method": "rhf"
			},
			{
				"type": "occ",
				"energy": -0.25713,
				"method": "rhf"
			},
			{
				"type": "occ",
				"energy": -0.24059,
				"method": "rhf"
			},
			{
				"type": "occ",
				"energy": -0.23665,
				"method": "rhf"
			},
			{
				"type": "unocc",
				"energy": -0.05568,
				"method": "rhf"
			},
			{
				"type": "unocc",
				"energy": -0.0154,
				"method": "rhf"
			},
			{
				"type": "unocc",
				"energy": -0.00972,
				"method": "rhf"
			},
			{
				"type": "unocc",
				"energy": 0.0415,
				"method": "rhf"
			},
			{
				"type": "unocc",
				"energy": 0.08018,
				"method": "rhf"
			}
		],
		"cosmo_sigma_profile": { 
			"-0.025": 0.0,
			"-0.024": 0.0,
			"-0.023": 0.0,
			"-0.022": 0.0,
			"-0.021": 0.0,
			"-0.02": 0.0,
			"-0.019": 0.0,
			"-0.018": 0.0,
			"-0.017": 0.0,
			"-0.016": 0.0,
			"-0.015": 0.0,
			"-0.014": 0.0,
			"-0.013": 0.0,
			"-0.012": 0.0,
			"-0.011": 0.0,
			"-0.01": 0.0,
			"-0.009": 0.0,
			"-0.008": 3.63285618715,
			"-0.007": 12.1147469405,
			"-0.006": 20.0468022907,
			"-0.005": 20.2154100299,
			"-0.004": 21.677592952,
			"-0.003": 18.4944889982,
			"-0.002": 14.7623171144,
			"-0.001": 16.1014304843,
			"0.0": 13.0658766348,
			"0.001": 12.9837813151,
			"0.002": 16.1379700659,
			"0.003": 16.8623245608,
			"0.004": 13.4741102101,
			"0.005": 6.0352700949,
			"0.006": 3.66494967544,
			"0.007": 4.49556027125,
			"0.008": 4.13752999283,
			"0.009": 4.90798358045,
			"0.01": 4.94590297322,
			"0.011": 6.16093756373,
			"0.012": 5.54628730295,
			"0.013": 2.00809846201,
			"0.014": 0.0187861294781,
			"0.015": 0.0,
			"0.016": 0.0,
			"0.017": 0.0,
			"0.018": 0.0,
			"0.019": 0.0,
			"0.02": 0.0,
			"0.021": 0.0,
			"0.022": 0.0,
			"0.023": 0.0,
			"0.024": 0.0,
			"0.025": 0.0
		}
	}
}
