{
	 "smiles": "CC1=C(NC(=O)C2=CC=NC=C2)C(=CC=C1)C(O)=O", 
	 "Tm": 523.15, 
	 "num_atms": 31, 
	 "gaussian": { 
		 "optdone": 1, 
		 "sigma_profile": "yes", 
		 "theory": "DFT", 
		 "functional": "B3LYP", 
		 "basiset": "6-31G**", 
		 "properties": { 
			 "R2extent": 4807.3649, 
			 "electric_dipole_moment_norm": 6.25199595169, 
			 "electric_quadrupole_moment_norm": 14.7553897668, 
			 "total_energy": -875.912680247, 
			 "HOMO_LUMO_gap": 0.19331, 
			 "cosmo_polarized_energy": -21.71, 
			 "cosmo_cavitation_energy": 35.32, 
			 "cosmo_dispersion_energy": -23.93, 
			 "cosmo_repulsion_energy": 1.83, 
			 "cosmo_total_nonelectrostatic_energy": 13.22, 
			 "SMD_solvation_energy": 6.74 
		},
		"coords": [
			{
				"x": 0.1054020691,
				"y": -3.0555311802,
				"z": 1.7966867773,
				"element": "C" 
			},
			{
				"x": 0.1640255838,
				"y": -1.5750019195,
				"z": 2.0910965589,
				"element": "C" 
			},
			{
				"x": 1.0920465262,
				"y": -0.7412153722,
				"z": 1.4337868391,
				"element": "C" 
			},
			{
				"x": 1.9939976511,
				"y": -1.342504482,
				"z": 0.4868568634,
				"element": "N" 
			},
			{
				"x": 1.9137273154,
				"y": -1.3958899753,
				"z": -0.9162706075,
				"element": "C" 
			},
			{
				"x": 2.6608024032,
				"y": -2.1549603801,
				"z": -1.5115884906,
				"element": "O" 
			},
			{
				"x": 0.9846063904,
				"y": -0.4821573522,
				"z": -1.6645002493,
				"element": "C" 
			},
			{
				"x": 1.4321528796,
				"y": -0.0139858916,
				"z": -2.9064657897,
				"element": "C" 
			},
			{
				"x": 0.5843668243,
				"y": 0.7852012956,
				"z": -3.669228403,
				"element": "C" 
			},
			{
				"x": -0.6595978601,
				"y": 1.1162402024,
				"z": -3.2967515479,
				"element": "N" 
			},
			{
				"x": -1.0876325063,
				"y": 0.6449610183,
				"z": -2.1214121259,
				"element": "C" 
			},
			{
				"x": -0.3144810205,
				"y": -0.1452916537,
				"z": -1.2674375695,
				"element": "C" 
			},
			{
				"x": 1.1604896831,
				"y": 0.6367402717,
				"z": 1.7228606706,
				"element": "C" 
			},
			{
				"x": 0.2474814052,
				"y": 1.1813156687,
				"z": 2.6359753281,
				"element": "C" 
			},
			{
				"x": -0.6797394568,
				"y": 0.3728877627,
				"z": 3.2819094128,
				"element": "C" 
			},
			{
				"x": -0.7096881173,
				"y": -0.9966641268,
				"z": 3.0177431652,
				"element": "C" 
			},
			{
				"x": 2.1603478284,
				"y": 1.6178488636,
				"z": 1.1461221006,
				"element": "C" 
			},
			{
				"x": 3.2536636527,
				"y": 1.1173234693,
				"z": 0.5403679765,
				"element": "O" 
			},
			{
				"x": 2.0106632521,
				"y": 2.8133887068,
				"z": 1.2583706015,
				"element": "O" 
			},
			{
				"x": -0.0137629459,
				"y": -3.2551268663,
				"z": 0.7263856905,
				"element": "H" 
			},
			{
				"x": 1.0178313522,
				"y": -3.5743095556,
				"z": 2.1176146873,
				"element": "H" 
			},
			{
				"x": -0.7322639433,
				"y": -3.5201577122,
				"z": 2.3215837544,
				"element": "H" 
			},
			{
				"x": 2.5029993112,
				"y": -2.1562814329,
				"z": 0.8205498911,
				"element": "H" 
			},
			{
				"x": 2.4224374539,
				"y": -0.2785365469,
				"z": -3.2588453061,
				"element": "H" 
			},
			{
				"x": 0.9176431646,
				"y": 1.1737334258,
				"z": -4.6293577186,
				"element": "H" 
			},
			{
				"x": -2.1043631693,
				"y": 0.9107058325,
				"z": -1.8383846426,
				"element": "H" 
			},
			{
				"x": -0.7370960458,
				"y": -0.4912676237,
				"z": -0.332825759,
				"element": "H" 
			},
			{
				"x": 0.3016769943,
				"y": 2.2473590441,
				"z": 2.8245305939,
				"element": "H" 
			},
			{
				"x": -1.3754315192,
				"y": 0.8042561252,
				"z": 3.9950007914,
				"element": "H" 
			},
			{
				"x": -1.4290225412,
				"y": -1.6310425372,
				"z": 3.5285059716,
				"element": "H" 
			},
			{
				"x": 3.2009173848,
				"y": 0.1428629218,
				"z": 0.5339205355,
				"element": "H" 
			}
		],
		 "valence_orbital": [ 
			{
				"type": "occ",
				"energy": -0.27804,
				"method": "rhf"
			},
			{
				"type": "occ",
				"energy": -0.27358,
				"method": "rhf"
			},
			{
				"type": "occ",
				"energy": -0.26977,
				"method": "rhf"
			},
			{
				"type": "occ",
				"energy": -0.26849,
				"method": "rhf"
			},
			{
				"type": "occ",
				"energy": -0.26049,
				"method": "rhf"
			},
			{
				"type": "unocc",
				"energy": -0.06718,
				"method": "rhf"
			},
			{
				"type": "unocc",
				"energy": -0.05952,
				"method": "rhf"
			},
			{
				"type": "unocc",
				"energy": -0.03516,
				"method": "rhf"
			},
			{
				"type": "unocc",
				"energy": -0.02096,
				"method": "rhf"
			},
			{
				"type": "unocc",
				"energy": 0.01908,
				"method": "rhf"
			}
		],
		"cosmo_sigma_profile": { 
			"-0.025": 0.0,
			"-0.024": 0.0,
			"-0.023": 0.0,
			"-0.022": 0.0,
			"-0.021": 0.0,
			"-0.02": 0.0,
			"-0.019": 0.0,
			"-0.018": 0.0,
			"-0.017": 0.0,
			"-0.016": 0.0,
			"-0.015": 0.555569702893,
			"-0.014": 1.18178406499,
			"-0.013": 0.931680812482,
			"-0.012": 2.70090026342,
			"-0.011": 3.29385971216,
			"-0.01": 2.20162002982,
			"-0.009": 2.34195774673,
			"-0.008": 2.36674687271,
			"-0.007": 12.0194588243,
			"-0.006": 19.7269600968,
			"-0.005": 20.9279896865,
			"-0.004": 19.1868268564,
			"-0.003": 17.8342910094,
			"-0.002": 19.1830589469,
			"-0.001": 22.0807240123,
			"0.0": 22.5855434018,
			"0.001": 22.8147534953,
			"0.002": 16.2268443383,
			"0.003": 11.9111328438,
			"0.004": 5.40165523026,
			"0.005": 4.51396603655,
			"0.006": 5.56654763915,
			"0.007": 4.85179738485,
			"0.008": 4.9312026103,
			"0.009": 4.85584019218,
			"0.01": 7.79174531693,
			"0.011": 10.3126784143,
			"0.012": 9.23937266246,
			"0.013": 3.18092446059,
			"0.014": 0.881091197288,
			"0.015": 0.806333196012,
			"0.016": 0.499670482551,
			"0.017": 0.0248372385477,
			"0.018": 0.0,
			"0.019": 0.0,
			"0.02": 0.0,
			"0.021": 0.0,
			"0.022": 0.0,
			"0.023": 0.0,
			"0.024": 0.0,
			"0.025": 0.0
		}
	}
}
