{
	 "smiles": "NCC(O)COC1=CC=C(F)C=C1", 
	 "Tm": 345.15, 
	 "num_atms": 25, 
	 "gaussian": { 
		 "optdone": 1, 
		 "sigma_profile": "yes", 
		 "theory": "DFT", 
		 "functional": "B3LYP", 
		 "basiset": "6-31G**", 
		 "properties": { 
			 "R2extent": 4112.5524, 
			 "electric_dipole_moment_norm": 1.27607959391, 
			 "electric_quadrupole_moment_norm": 14.8537897494, 
			 "total_energy": -655.200057563, 
			 "HOMO_LUMO_gap": 0.20668, 
			 "cosmo_polarized_energy": -12.04, 
			 "cosmo_cavitation_energy": 28.67, 
			 "cosmo_dispersion_energy": -20.53, 
			 "cosmo_repulsion_energy": 1.61, 
			 "cosmo_total_nonelectrostatic_energy": 9.75, 
			 "SMD_solvation_energy": 3.89 
		},
		"coords": [
			{
				"x": 3.7699635852,
				"y": 0.9143902332,
				"z": 2.7653313186,
				"element": "N" 
			},
			{
				"x": 4.033883541,
				"y": 1.3090505039,
				"z": 1.3838157892,
				"element": "C" 
			},
			{
				"x": 3.5751039208,
				"y": 0.332281428,
				"z": 0.2738895533,
				"element": "C" 
			},
			{
				"x": 4.0513235361,
				"y": -0.9865273756,
				"z": 0.5145828323,
				"element": "O" 
			},
			{
				"x": 2.0666256418,
				"y": 0.3116803035,
				"z": 0.0225095017,
				"element": "C" 
			},
			{
				"x": 1.4353865105,
				"y": -0.2467274684,
				"z": 1.1797614823,
				"element": "O" 
			},
			{
				"x": 0.084602345,
				"y": -0.4899600185,
				"z": 1.1442826765,
				"element": "C" 
			},
			{
				"x": -0.7511162829,
				"y": -0.1453396558,
				"z": 0.0767820901,
				"element": "C" 
			},
			{
				"x": -2.1181174616,
				"y": -0.4334595143,
				"z": 0.1441033596,
				"element": "C" 
			},
			{
				"x": -2.6286440812,
				"y": -1.0569332914,
				"z": 1.2724676164,
				"element": "C" 
			},
			{
				"x": -3.9494979316,
				"y": -1.3341068584,
				"z": 1.3359329796,
				"element": "F" 
			},
			{
				"x": -1.8108738392,
				"y": -1.404491185,
				"z": 2.3447568734,
				"element": "C" 
			},
			{
				"x": -0.4517270451,
				"y": -1.1192534788,
				"z": 2.2766389089,
				"element": "C" 
			},
			{
				"x": 4.2583739565,
				"y": 0.0435285683,
				"z": 2.9596881691,
				"element": "H" 
			},
			{
				"x": 2.7781680725,
				"y": 0.7281947898,
				"z": 2.8879127814,
				"element": "H" 
			},
			{
				"x": 3.5801872374,
				"y": 2.2927131935,
				"z": 1.2029612686,
				"element": "H" 
			},
			{
				"x": 5.1166421739,
				"y": 1.4397694472,
				"z": 1.2776095946,
				"element": "H" 
			},
			{
				"x": 4.0377032207,
				"y": 0.6551498168,
				"z": -0.6684927494,
				"element": "H" 
			},
			{
				"x": 3.4625957931,
				"y": -1.3656812218,
				"z": 1.1824810777,
				"element": "H" 
			},
			{
				"x": 1.8496437848,
				"y": -0.3159992897,
				"z": -0.8516485918,
				"element": "H" 
			},
			{
				"x": 1.6880290769,
				"y": 1.3258292952,
				"z": -0.1672294349,
				"element": "H" 
			},
			{
				"x": -0.3592701228,
				"y": 0.3459208217,
				"z": -0.8052365305,
				"element": "H" 
			},
			{
				"x": -2.7832853323,
				"y": -0.1747869407,
				"z": -0.6725700542,
				"element": "H" 
			},
			{
				"x": -2.2416271318,
				"y": -1.8910452801,
				"z": 3.2130696413,
				"element": "H" 
			},
			{
				"x": 0.2121268325,
				"y": -1.3789968226,
				"z": 3.0946998464,
				"element": "H" 
			}
		],
		 "valence_orbital": [ 
			{
				"type": "occ",
				"energy": -0.32459,
				"method": "rhf"
			},
			{
				"type": "occ",
				"energy": -0.28273,
				"method": "rhf"
			},
			{
				"type": "occ",
				"energy": -0.26825,
				"method": "rhf"
			},
			{
				"type": "occ",
				"energy": -0.23099,
				"method": "rhf"
			},
			{
				"type": "occ",
				"energy": -0.22595,
				"method": "rhf"
			},
			{
				"type": "unocc",
				"energy": -0.01927,
				"method": "rhf"
			},
			{
				"type": "unocc",
				"energy": 0.00665,
				"method": "rhf"
			},
			{
				"type": "unocc",
				"energy": 0.06332,
				"method": "rhf"
			},
			{
				"type": "unocc",
				"energy": 0.07781,
				"method": "rhf"
			},
			{
				"type": "unocc",
				"energy": 0.09172,
				"method": "rhf"
			}
		],
		"cosmo_sigma_profile": { 
			"-0.025": 0.0,
			"-0.024": 0.0,
			"-0.023": 0.0,
			"-0.022": 0.0,
			"-0.021": 0.0,
			"-0.02": 0.0,
			"-0.019": 0.0,
			"-0.018": 0.0,
			"-0.017": 0.0,
			"-0.016": 0.0,
			"-0.015": 0.0,
			"-0.014": 0.0,
			"-0.013": 0.173313648392,
			"-0.012": 0.657358167776,
			"-0.011": 0.563679058091,
			"-0.01": 1.17622747145,
			"-0.009": 2.0121092788,
			"-0.008": 2.42299145411,
			"-0.007": 6.90294509077,
			"-0.006": 14.9816303356,
			"-0.005": 22.949684595,
			"-0.004": 18.8769609342,
			"-0.003": 16.8563363253,
			"-0.002": 13.0014679662,
			"-0.001": 13.025299253,
			"0.0": 13.3605066259,
			"0.001": 13.3157049098,
			"0.002": 16.135589855,
			"0.003": 16.4272937551,
			"0.004": 20.1911146245,
			"0.005": 10.3561641489,
			"0.006": 1.93450041994,
			"0.007": 2.32757304118,
			"0.008": 1.83695875402,
			"0.009": 1.79306140179,
			"0.01": 2.0013584259,
			"0.011": 1.28768323218,
			"0.012": 2.18951633445,
			"0.013": 2.42161912727,
			"0.014": 2.68306470359,
			"0.015": 1.1560983723,
			"0.016": 0.836914508607,
			"0.017": 0.207588876888,
			"0.018": 0.53347612625,
			"0.019": 0.794918475294,
			"0.02": 0.417255367568,
			"0.021": 0.0,
			"0.022": 0.0,
			"0.023": 0.0,
			"0.024": 0.0,
			"0.025": 0.0
		}
	}
}
