{
	 "smiles": "BrC1=CC=C2CCCC(=O)C2=C1", 
	 "Tm": 351.65, 
	 "num_atms": 21, 
	 "gaussian": { 
		 "optdone": 1, 
		 "sigma_profile": "yes", 
		 "theory": "DFT", 
		 "functional": "B3LYP", 
		 "basiset": "6-31G**", 
		 "properties": { 
			 "R2extent": 4986.5089, 
			 "electric_dipole_moment_norm": 4.30251331666, 
			 "electric_quadrupole_moment_norm": 3.45428419792, 
			 "total_energy": -3033.13222104, 
			 "HOMO_LUMO_gap": 0.18098, 
			 "cosmo_polarized_energy": -8.52, 
			 "cosmo_cavitation_energy": 26.26, 
			 "cosmo_dispersion_energy": -20.04, 
			 "cosmo_repulsion_energy": 1.59, 
			 "cosmo_total_nonelectrostatic_energy": 7.81, 
			 "SMD_solvation_energy": 3.22 
		},
		"coords": [
			{
				"x": 3.0216289374,
				"y": 3.8399025754,
				"z": -0.3194648671,
				"element": "Br" 
			},
			{
				"x": 2.5664779115,
				"y": 1.9838328479,
				"z": -0.3724454475,
				"element": "C" 
			},
			{
				"x": 3.5430774725,
				"y": 1.0502120263,
				"z": -0.7301877604,
				"element": "C" 
			},
			{
				"x": 3.2123694682,
				"y": -0.3021718166,
				"z": -0.7675379275,
				"element": "C" 
			},
			{
				"x": 1.9204120432,
				"y": -0.745915862,
				"z": -0.458305615,
				"element": "C" 
			},
			{
				"x": 1.5681968821,
				"y": -2.2173259112,
				"z": -0.515891274,
				"element": "C" 
			},
			{
				"x": 0.4098249144,
				"y": -2.5681391007,
				"z": 0.4259376955,
				"element": "C" 
			},
			{
				"x": -0.7947957625,
				"y": -1.6600869907,
				"z": 0.1514395685,
				"element": "C" 
			},
			{
				"x": -0.4503768325,
				"y": -0.1801110296,
				"z": 0.2456948634,
				"element": "C" 
			},
			{
				"x": -1.285298842,
				"y": 0.6499693935,
				"z": 0.569548688,
				"element": "O" 
			},
			{
				"x": 0.9526437736,
				"y": 0.2139159597,
				"z": -0.1002584396,
				"element": "C" 
			},
			{
				"x": 1.2798499106,
				"y": 1.5781224047,
				"z": -0.0556402808,
				"element": "C" 
			},
			{
				"x": 4.5482404212,
				"y": 1.3790294224,
				"z": -0.9694752914,
				"element": "H" 
			},
			{
				"x": 3.9763215084,
				"y": -1.0266634501,
				"z": -1.0378930878,
				"element": "H" 
			},
			{
				"x": 1.2836948155,
				"y": -2.478172752,
				"z": -1.546697281,
				"element": "H" 
			},
			{
				"x": 2.4543433496,
				"y": -2.8184689572,
				"z": -0.2842841309,
				"element": "H" 
			},
			{
				"x": 0.7348689279,
				"y": -2.44326192,
				"z": 1.4665366137,
				"element": "H" 
			},
			{
				"x": 0.1276043988,
				"y": -3.6192852745,
				"z": 0.3053656447,
				"element": "H" 
			},
			{
				"x": -1.6331545581,
				"y": -1.8521553228,
				"z": 0.8265447284,
				"element": "H" 
			},
			{
				"x": -1.1636215493,
				"y": -1.8378037936,
				"z": -0.8704505581,
				"element": "H" 
			},
			{
				"x": 0.5092928095,
				"y": 2.2858775511,
				"z": 0.2269641588,
				"element": "H" 
			}
		],
		 "valence_orbital": [ 
			{
				"type": "occ",
				"energy": -0.30965,
				"method": "rhf"
			},
			{
				"type": "occ",
				"energy": -0.28888,
				"method": "rhf"
			},
			{
				"type": "occ",
				"energy": -0.2688,
				"method": "rhf"
			},
			{
				"type": "occ",
				"energy": -0.24905,
				"method": "rhf"
			},
			{
				"type": "occ",
				"energy": -0.24426,
				"method": "rhf"
			},
			{
				"type": "unocc",
				"energy": -0.06328,
				"method": "rhf"
			},
			{
				"type": "unocc",
				"energy": -0.02101,
				"method": "rhf"
			},
			{
				"type": "unocc",
				"energy": 0.00558,
				"method": "rhf"
			},
			{
				"type": "unocc",
				"energy": 0.03104,
				"method": "rhf"
			},
			{
				"type": "unocc",
				"energy": 0.08658,
				"method": "rhf"
			}
		],
		"cosmo_sigma_profile": { 
			"-0.025": 0.0,
			"-0.024": 0.0,
			"-0.023": 0.0,
			"-0.022": 0.0,
			"-0.021": 0.0,
			"-0.02": 0.0,
			"-0.019": 0.0,
			"-0.018": 0.0,
			"-0.017": 0.0,
			"-0.016": 0.0,
			"-0.015": 0.0,
			"-0.014": 0.0,
			"-0.013": 0.0,
			"-0.012": 0.0,
			"-0.011": 0.0,
			"-0.01": 0.0,
			"-0.009": 0.0,
			"-0.008": 0.522087611272,
			"-0.007": 3.09182951176,
			"-0.006": 8.39497115717,
			"-0.005": 14.3592699373,
			"-0.004": 20.2987653825,
			"-0.003": 22.4924767111,
			"-0.002": 22.0149987676,
			"-0.001": 19.1620439055,
			"0.0": 13.4317230026,
			"0.001": 15.9558745034,
			"0.002": 21.5285274547,
			"0.003": 14.267307536,
			"0.004": 12.1032877383,
			"0.005": 7.41291426209,
			"0.006": 1.6072413791,
			"0.007": 1.21379371071,
			"0.008": 1.55892376655,
			"0.009": 1.63031932229,
			"0.01": 2.35967557651,
			"0.011": 2.77666958705,
			"0.012": 4.14028697233,
			"0.013": 1.49556809033,
			"0.014": 0.196220802704,
			"0.015": 0.0,
			"0.016": 0.0,
			"0.017": 0.0,
			"0.018": 0.0,
			"0.019": 0.0,
			"0.02": 0.0,
			"0.021": 0.0,
			"0.022": 0.0,
			"0.023": 0.0,
			"0.024": 0.0,
			"0.025": 0.0
		}
	}
}
