{
	 "smiles": "CC1=CC=C(NS(=O)(=O)C2=CC(=CC=C2)C(O)=O)C=C1", 
	 "Tm": 477.15, 
	 "num_atms": 33, 
	 "gaussian": { 
		 "optdone": 1, 
		 "sigma_profile": "yes", 
		 "theory": "DFT", 
		 "functional": "B3LYP", 
		 "basiset": "6-31G**", 
		 "properties": { 
			 "R2extent": 7424.6523, 
			 "electric_dipole_moment_norm": 4.76399446788, 
			 "electric_quadrupole_moment_norm": 22.0152889856, 
			 "total_energy": -1295.11238317, 
			 "HOMO_LUMO_gap": 0.15508, 
			 "cosmo_polarized_energy": -20.13, 
			 "cosmo_cavitation_energy": 39.49, 
			 "cosmo_dispersion_energy": -28.01, 
			 "cosmo_repulsion_energy": 2.11, 
			 "cosmo_total_nonelectrostatic_energy": 13.6, 
			 "SMD_solvation_energy": 7.12 
		},
		"coords": [
			{
				"x": 3.3406651293,
				"y": -4.2428253943,
				"z": -1.607634826,
				"element": "C" 
			},
			{
				"x": 2.707227955,
				"y": -3.1943536956,
				"z": -0.7240132278,
				"element": "C" 
			},
			{
				"x": 1.8055484052,
				"y": -2.2572036269,
				"z": -1.2473832275,
				"element": "C" 
			},
			{
				"x": 1.2271585343,
				"y": -1.2753978744,
				"z": -0.4478964783,
				"element": "C" 
			},
			{
				"x": 1.5629774573,
				"y": -1.1916328072,
				"z": 0.9080177512,
				"element": "C" 
			},
			{
				"x": 0.9509680173,
				"y": -0.2243642441,
				"z": 1.7572184111,
				"element": "N" 
			},
			{
				"x": 1.0566409061,
				"y": 1.4538660589,
				"z": 1.459433259,
				"element": "S" 
			},
			{
				"x": 1.0270936873,
				"y": 2.0412207477,
				"z": 2.803044317,
				"element": "O" 
			},
			{
				"x": 2.1198385063,
				"y": 1.7462811549,
				"z": 0.4996637129,
				"element": "O" 
			},
			{
				"x": -0.5087167081,
				"y": 1.8353369961,
				"z": 0.6623079275,
				"element": "C" 
			},
			{
				"x": -0.5250863265,
				"y": 2.1511528742,
				"z": -0.691490183,
				"element": "C" 
			},
			{
				"x": -1.7469591594,
				"y": 2.4708639776,
				"z": -1.2991470483,
				"element": "C" 
			},
			{
				"x": -2.9260650139,
				"y": 2.476874154,
				"z": -0.5435644431,
				"element": "C" 
			},
			{
				"x": -2.8875691682,
				"y": 2.1673575796,
				"z": 0.8172089791,
				"element": "C" 
			},
			{
				"x": -1.6776833273,
				"y": 1.8473633149,
				"z": 1.4299695289,
				"element": "C" 
			},
			{
				"x": -1.7313809862,
				"y": 2.7987174449,
				"z": -2.752384915,
				"element": "C" 
			},
			{
				"x": -2.9574434091,
				"y": 3.117994697,
				"z": -3.2334293283,
				"element": "O" 
			},
			{
				"x": -0.7398211467,
				"y": 2.7856044531,
				"z": -3.4521036512,
				"element": "O" 
			},
			{
				"x": 2.4658439069,
				"y": -2.1144954931,
				"z": 1.4455271297,
				"element": "C" 
			},
			{
				"x": 3.0156756456,
				"y": -3.1093580812,
				"z": 0.6386141041,
				"element": "C" 
			},
			{
				"x": 4.2122864961,
				"y": -3.8407941037,
				"z": -2.1392275698,
				"element": "H" 
			},
			{
				"x": 3.6823451232,
				"y": -5.1038255311,
				"z": -1.0257066239,
				"element": "H" 
			},
			{
				"x": 2.639183286,
				"y": -4.6047739708,
				"z": -2.3660358503,
				"element": "H" 
			},
			{
				"x": 1.5378620759,
				"y": -2.3035482345,
				"z": -2.3000067097,
				"element": "H" 
			},
			{
				"x": 0.508920683,
				"y": -0.5836449699,
				"z": -0.8739038683,
				"element": "H" 
			},
			{
				"x": 1.1454664479,
				"y": -0.3529531259,
				"z": 2.7463144034,
				"element": "H" 
			},
			{
				"x": 0.3893262779,
				"y": 2.1631361569,
				"z": -1.2738436646,
				"element": "H" 
			},
			{
				"x": -3.8652049081,
				"y": 2.7277037198,
				"z": -1.0230574377,
				"element": "H" 
			},
			{
				"x": -3.8017971467,
				"y": 2.1807684672,
				"z": 1.4020789411,
				"element": "H" 
			},
			{
				"x": -1.6319822104,
				"y": 1.6210799424,
				"z": 2.4896924259,
				"element": "H" 
			},
			{
				"x": -2.8317295848,
				"y": 3.3110973762,
				"z": -4.1771147602,
				"element": "H" 
			},
			{
				"x": 2.736716763,
				"y": -2.0565098203,
				"z": 2.4969156047,
				"element": "H" 
			},
			{
				"x": 3.7074937916,
				"y": -3.8236381426,
				"z": 1.0777373175,
				"element": "H" 
			}
		],
		 "valence_orbital": [ 
			{
				"type": "occ",
				"energy": -0.2894,
				"method": "rhf"
			},
			{
				"type": "occ",
				"energy": -0.28203,
				"method": "rhf"
			},
			{
				"type": "occ",
				"energy": -0.28067,
				"method": "rhf"
			},
			{
				"type": "occ",
				"energy": -0.25444,
				"method": "rhf"
			},
			{
				"type": "occ",
				"energy": -0.22389,
				"method": "rhf"
			},
			{
				"type": "unocc",
				"energy": -0.06881,
				"method": "rhf"
			},
			{
				"type": "unocc",
				"energy": -0.04312,
				"method": "rhf"
			},
			{
				"type": "unocc",
				"energy": -0.00661,
				"method": "rhf"
			},
			{
				"type": "unocc",
				"energy": -0.00589,
				"method": "rhf"
			},
			{
				"type": "unocc",
				"energy": 0.02976,
				"method": "rhf"
			}
		],
		"cosmo_sigma_profile": { 
			"-0.025": 0.0,
			"-0.024": 0.0,
			"-0.023": 0.0,
			"-0.022": 0.0,
			"-0.021": 0.0,
			"-0.02": 0.0,
			"-0.019": 0.272093526095,
			"-0.018": 0.850938992192,
			"-0.017": 0.891454346386,
			"-0.016": 0.95464686813,
			"-0.015": 1.53938422624,
			"-0.014": 1.25890468414,
			"-0.013": 1.63256176165,
			"-0.012": 2.00204911182,
			"-0.011": 2.66188078759,
			"-0.01": 1.35955853441,
			"-0.009": 1.31989282322,
			"-0.008": 5.69014970797,
			"-0.007": 9.32696722216,
			"-0.006": 11.4911125791,
			"-0.005": 16.2814327738,
			"-0.004": 24.170210658,
			"-0.003": 23.1229824935,
			"-0.002": 23.6734104892,
			"-0.001": 24.9279512555,
			"0.0": 29.0164397967,
			"0.001": 24.7342916247,
			"0.002": 14.3585605294,
			"0.003": 12.1946669699,
			"0.004": 14.0945862211,
			"0.005": 14.5099861,
			"0.006": 9.68859498281,
			"0.007": 7.48003588752,
			"0.008": 4.88270730797,
			"0.009": 7.05960158513,
			"0.01": 11.7026621484,
			"0.011": 10.6299215891,
			"0.012": 1.93403430816,
			"0.013": 0.0,
			"0.014": 0.0,
			"0.015": 0.0,
			"0.016": 0.0,
			"0.017": 0.0,
			"0.018": 0.0,
			"0.019": 0.0,
			"0.02": 0.0,
			"0.021": 0.0,
			"0.022": 0.0,
			"0.023": 0.0,
			"0.024": 0.0,
			"0.0": 0.0
		}
	}
}
