{
	 "smiles": "CC1(CCC2=CC=CC=C2)NC(=O)NC1=O", 
	 "Tm": 453.15, 
	 "num_atms": 30, 
	 "gaussian": { 
		 "optdone": 1, 
		 "sigma_profile": "yes", 
		 "theory": "DFT", 
		 "functional": "B3LYP", 
		 "basiset": "6-31G**", 
		 "properties": { 
			 "R2extent": 4085.4787, 
			 "electric_dipole_moment_norm": 2.57127095033, 
			 "electric_quadrupole_moment_norm": 7.50143356233, 
			 "total_energy": -725.71835483, 
			 "HOMO_LUMO_gap": 0.23494, 
			 "cosmo_polarized_energy": -15.83, 
			 "cosmo_cavitation_energy": 32.65, 
			 "cosmo_dispersion_energy": -22.63, 
			 "cosmo_repulsion_energy": 1.76, 
			 "cosmo_total_nonelectrostatic_energy": 11.78, 
			 "SMD_solvation_energy": 6.1 
		},
		"coords": [
			{
				"x": -3.592714242,
				"y": 1.272059764,
				"z": 1.4080967909,
				"element": "C" 
			},
			{
				"x": -2.2881533117,
				"y": 0.4575482861,
				"z": 1.4131292042,
				"element": "C" 
			},
			{
				"x": -2.2068270381,
				"y": -0.4381015399,
				"z": 0.1525609016,
				"element": "C" 
			},
			{
				"x": -0.8482479444,
				"y": -1.1305261543,
				"z": -0.1157293074,
				"element": "C" 
			},
			{
				"x": 0.1531993783,
				"y": -0.2948767339,
				"z": -0.8952517787,
				"element": "C" 
			},
			{
				"x": -0.0844231537,
				"y": 0.0012102137,
				"z": -2.2468697852,
				"element": "C" 
			},
			{
				"x": 0.8199450837,
				"y": 0.7620120288,
				"z": -2.9873352715,
				"element": "C" 
			},
			{
				"x": 1.9870299672,
				"y": 1.2420519076,
				"z": -2.3882958337,
				"element": "C" 
			},
			{
				"x": 2.2393061978,
				"y": 0.9520730276,
				"z": -1.047273473,
				"element": "C" 
			},
			{
				"x": 1.3312110175,
				"y": 0.188501183,
				"z": -0.3087725543,
				"element": "C" 
			},
			{
				"x": -1.115113064,
				"y": 1.3088304682,
				"z": 1.6256626495,
				"element": "N" 
			},
			{
				"x": -0.3775172157,
				"y": 0.9591963859,
				"z": 2.7280313031,
				"element": "C" 
			},
			{
				"x": 0.6987285618,
				"y": 1.3886306244,
				"z": 3.0919428507,
				"element": "O" 
			},
			{
				"x": -1.1303194289,
				"y": -0.0393692397,
				"z": 3.3859560924,
				"element": "N" 
			},
			{
				"x": -2.2504816848,
				"y": -0.4236299784,
				"z": 2.6837971029,
				"element": "C" 
			},
			{
				"x": -3.0557828222,
				"y": -1.2783809527,
				"z": 2.9904615493,
				"element": "O" 
			},
			{
				"x": -4.452863587,
				"y": 0.5978492902,
				"z": 1.3835348627,
				"element": "H" 
			},
			{
				"x": -3.6292140877,
				"y": 1.9241357222,
				"z": 0.5299443857,
				"element": "H" 
			},
			{
				"x": -3.6623916561,
				"y": 1.8955562781,
				"z": 2.3034675785,
				"element": "H" 
			},
			{
				"x": -2.9879431171,
				"y": -1.1961143991,
				"z": 0.2752676155,
				"element": "H" 
			},
			{
				"x": -2.486016879,
				"y": 0.1626068999,
				"z": -0.7211497208,
				"element": "H" 
			},
			{
				"x": -1.0540013751,
				"y": -2.043576096,
				"z": -0.6869891054,
				"element": "H" 
			},
			{
				"x": -0.4012034609,
				"y": -1.4642009355,
				"z": 0.827444464,
				"element": "H" 
			},
			{
				"x": -0.9843398059,
				"y": -0.3771449332,
				"z": -2.7272168108,
				"element": "H" 
			},
			{
				"x": 0.6165820454,
				"y": 0.9752579674,
				"z": -4.0331326612,
				"element": "H" 
			},
			{
				"x": 2.693527956,
				"y": 1.8337232365,
				"z": -2.9631639245,
				"element": "H" 
			},
			{
				"x": 3.1433498829,
				"y": 1.3186052562,
				"z": -0.5695422096,
				"element": "H" 
			},
			{
				"x": 1.5411787002,
				"y": -0.0215186239,
				"z": 0.7365026456,
				"element": "H" 
			},
			{
				"x": -0.6546527623,
				"y": 1.808706702,
				"z": 0.879275094,
				"element": "H" 
			},
			{
				"x": -0.8355521543,
				"y": -0.4466156551,
				"z": 4.2619473456,
				"element": "H" 
			}
		],
		 "valence_orbital": [ 
			{
				"type": "occ",
				"energy": -0.28779,
				"method": "rhf"
			},
			{
				"type": "occ",
				"energy": -0.27116,
				"method": "rhf"
			},
			{
				"type": "occ",
				"energy": -0.26042,
				"method": "rhf"
			},
			{
				"type": "occ",
				"energy": -0.25365,
				"method": "rhf"
			},
			{
				"type": "occ",
				"energy": -0.24472,
				"method": "rhf"
			},
			{
				"type": "unocc",
				"energy": -0.00978,
				"method": "rhf"
			},
			{
				"type": "unocc",
				"energy": -0.00837,
				"method": "rhf"
			},
			{
				"type": "unocc",
				"energy": -0.00504,
				"method": "rhf"
			},
			{
				"type": "unocc",
				"energy": 0.05658,
				"method": "rhf"
			},
			{
				"type": "unocc",
				"energy": 0.07679,
				"method": "rhf"
			}
		],
		"cosmo_sigma_profile": { 
			"-0.025": 0.0,
			"-0.024": 0.0,
			"-0.023": 0.0,
			"-0.022": 0.0,
			"-0.021": 0.0,
			"-0.02": 0.0,
			"-0.019": 0.0,
			"-0.018": 0.0,
			"-0.017": 0.352054585731,
			"-0.016": 1.44929972413,
			"-0.015": 0.895871471935,
			"-0.014": 1.02920773336,
			"-0.013": 1.36152325432,
			"-0.012": 0.959560975835,
			"-0.011": 2.48894090012,
			"-0.01": 2.06450846982,
			"-0.009": 1.4414963874,
			"-0.008": 1.78664661038,
			"-0.007": 2.99077296051,
			"-0.006": 6.09019429521,
			"-0.005": 18.1372514926,
			"-0.004": 28.528096281,
			"-0.003": 28.4339831805,
			"-0.002": 23.5761234147,
			"-0.001": 23.0157171372,
			"0.0": 15.6536796742,
			"0.001": 10.5400667938,
			"0.002": 10.6844663216,
			"0.003": 11.9287071359,
			"0.004": 11.0907882536,
			"0.005": 10.7147289818,
			"0.006": 9.50715183344,
			"0.007": 3.03688013122,
			"0.008": 2.42883329213,
			"0.009": 2.93417239278,
			"0.01": 3.20463301932,
			"0.011": 4.38326983728,
			"0.012": 9.01934763529,
			"0.013": 6.91896856182,
			"0.014": 0.787735250177,
			"0.015": 0.0,
			"0.016": 0.0,
			"0.017": 0.0,
			"0.018": 0.0,
			"0.019": 0.0,
			"0.02": 0.0,
			"0.021": 0.0,
			"0.022": 0.0,
			"0.023": 0.0,
			"0.024": 0.0,
			"0.025": 0.0
		}
	}
}
