{
	 "smiles": "CC(C)CC(CC1=CC=CC=C1)=N/NC(N)=O", 
	 "Tm": 362.15, 
	 "num_atms": 36, 
	 "gaussian": { 
		 "optdone": 1, 
		 "sigma_profile": "yes", 
		 "theory": "DFT", 
		 "functional": "B3LYP", 
		 "basiset": "6-31G**", 
		 "properties": { 
			 "R2extent": 5551.9547, 
			 "electric_dipole_moment_norm": 5.01416065558, 
			 "electric_quadrupole_moment_norm": 27.8289416915, 
			 "total_energy": -746.313374536, 
			 "HOMO_LUMO_gap": 0.21664, 
			 "cosmo_polarized_energy": -22.07, 
			 "cosmo_cavitation_energy": 38.93, 
			 "cosmo_dispersion_energy": -25.66, 
			 "cosmo_repulsion_energy": 2.05, 
			 "cosmo_total_nonelectrostatic_energy": 15.32, 
			 "SMD_solvation_energy": 6.87 
		},
		"coords": [
			{
				"x": 0.7805654979,
				"y": -2.5647700244,
				"z": -1.3823486579,
				"element": "C" 
			},
			{
				"x": 0.6954292576,
				"y": -1.2769003967,
				"z": -0.5506350114,
				"element": "C" 
			},
			{
				"x": 1.46868692,
				"y": -1.4212643065,
				"z": 0.7668821507,
				"element": "C" 
			},
			{
				"x": 1.1806928102,
				"y": -0.0690310825,
				"z": -1.3974609849,
				"element": "C" 
			},
			{
				"x": 1.0087213655,
				"y": 1.305726774,
				"z": -0.7752961431,
				"element": "C" 
			},
			{
				"x": -0.3313644064,
				"y": 2.0046803962,
				"z": -0.9352941764,
				"element": "C" 
			},
			{
				"x": -1.4324216811,
				"y": 1.4597616838,
				"z": -0.0361351128,
				"element": "C" 
			},
			{
				"x": -1.3082760295,
				"y": 1.5485247616,
				"z": 1.3586410106,
				"element": "C" 
			},
			{
				"x": -2.3140446053,
				"y": 1.0655921825,
				"z": 2.1948403966,
				"element": "C" 
			},
			{
				"x": -3.4624184193,
				"y": 0.4832852708,
				"z": 1.6509593037,
				"element": "C" 
			},
			{
				"x": -3.5974858225,
				"y": 0.3920013361,
				"z": 0.265591608,
				"element": "C" 
			},
			{
				"x": -2.5885075773,
				"y": 0.8782858041,
				"z": -0.570138177,
				"element": "C" 
			},
			{
				"x": 1.8983894147,
				"y": 1.979895443,
				"z": -0.1347435337,
				"element": "N" 
			},
			{
				"x": 3.1272221997,
				"y": 1.4410906864,
				"z": 0.0965882152,
				"element": "N" 
			},
			{
				"x": 4.152391997,
				"y": 2.2666976607,
				"z": 0.5655840154,
				"element": "C" 
			},
			{
				"x": 5.340646666,
				"y": 1.5556133634,
				"z": 0.7389638235,
				"element": "N" 
			},
			{
				"x": 4.0467869099,
				"y": 3.4585264337,
				"z": 0.7701907901,
				"element": "O" 
			},
			{
				"x": 1.8169567282,
				"y": -2.7813449906,
				"z": -1.6707858478,
				"element": "H" 
			},
			{
				"x": 0.1882953468,
				"y": -2.4904394747,
				"z": -2.3008355199,
				"element": "H" 
			},
			{
				"x": 0.4094573147,
				"y": -3.4239806448,
				"z": -0.8138264006,
				"element": "H" 
			},
			{
				"x": -0.3577787494,
				"y": -1.1005263101,
				"z": -0.3028933382,
				"element": "H" 
			},
			{
				"x": 1.0696558431,
				"y": -2.2511269839,
				"z": 1.3594832498,
				"element": "H" 
			},
			{
				"x": 2.5296119546,
				"y": -1.6373319631,
				"z": 0.5810608343,
				"element": "H" 
			},
			{
				"x": 1.4061764632,
				"y": -0.5148601791,
				"z": 1.3757269855,
				"element": "H" 
			},
			{
				"x": 2.2305479779,
				"y": -0.2365527075,
				"z": -1.6818404512,
				"element": "H" 
			},
			{
				"x": 0.6228609972,
				"y": -0.0721028004,
				"z": -2.3420268624,
				"element": "H" 
			},
			{
				"x": -0.6546019206,
				"y": 1.9341794219,
				"z": -1.9813036303,
				"element": "H" 
			},
			{
				"x": -0.1677068368,
				"y": 3.0631443049,
				"z": -0.7109749869,
				"element": "H" 
			},
			{
				"x": -0.4165981607,
				"y": 2.0037441879,
				"z": 1.7817983049,
				"element": "H" 
			},
			{
				"x": -2.2039360286,
				"y": 1.1465113124,
				"z": 3.2727980386,
				"element": "H" 
			},
			{
				"x": -4.2462166772,
				"y": 0.1080126258,
				"z": 2.3027210787,
				"element": "H" 
			},
			{
				"x": -4.4881637951,
				"y": -0.0549398145,
				"z": -0.1675104059,
				"element": "H" 
			},
			{
				"x": -2.70313032,
				"y": 0.8099978496,
				"z": -1.6495615593,
				"element": "H" 
			},
			{
				"x": 3.3791343552,
				"y": 0.5435642033,
				"z": -0.3040136411,
				"element": "H" 
			},
			{
				"x": 6.0349171503,
				"y": 2.1045370995,
				"z": 1.2267706017,
				"element": "H" 
			},
			{
				"x": 5.2690038601,
				"y": 0.6035988768,
				"z": 1.0736240335,
				"element": "H" 
			}
		],
		 "valence_orbital": [ 
			{
				"type": "occ",
				"energy": -0.26934,
				"method": "rhf"
			},
			{
				"type": "occ",
				"energy": -0.25236,
				"method": "rhf"
			},
			{
				"type": "occ",
				"energy": -0.24893,
				"method": "rhf"
			},
			{
				"type": "occ",
				"energy": -0.24071,
				"method": "rhf"
			},
			{
				"type": "occ",
				"energy": -0.22711,
				"method": "rhf"
			},
			{
				"type": "unocc",
				"energy": -0.01047,
				"method": "rhf"
			},
			{
				"type": "unocc",
				"energy": -0.00235,
				"method": "rhf"
			},
			{
				"type": "unocc",
				"energy": 0.01028,
				"method": "rhf"
			},
			{
				"type": "unocc",
				"energy": 0.04922,
				"method": "rhf"
			},
			{
				"type": "unocc",
				"energy": 0.06471,
				"method": "rhf"
			}
		],
		"cosmo_sigma_profile": { 
			"-0.025": 0.0,
			"-0.024": 0.0,
			"-0.023": 0.0,
			"-0.022": 0.0,
			"-0.021": 0.0,
			"-0.02": 0.0,
			"-0.019": 0.0,
			"-0.018": 0.0,
			"-0.017": 0.0,
			"-0.016": 0.0,
			"-0.015": 0.0,
			"-0.014": 1.55972657818,
			"-0.013": 3.98978552834,
			"-0.012": 4.47443713133,
			"-0.011": 2.52087958835,
			"-0.01": 3.77899073981,
			"-0.009": 3.14098786216,
			"-0.008": 2.90553364188,
			"-0.007": 3.31228869011,
			"-0.006": 5.80238460845,
			"-0.005": 17.6502977589,
			"-0.004": 18.9815606303,
			"-0.003": 28.0134145419,
			"-0.002": 27.3765148959,
			"-0.001": 29.331578954,
			"0.0": 27.1566317786,
			"0.001": 28.8042843527,
			"0.002": 19.7446034391,
			"0.003": 12.8318908817,
			"0.004": 12.8400759838,
			"0.005": 11.9454729085,
			"0.006": 8.82182955001,
			"0.007": 3.35794287703,
			"0.008": 2.09147270937,
			"0.009": 2.19830680191,
			"0.01": 2.29194182833,
			"0.011": 2.12882241889,
			"0.012": 2.56162330655,
			"0.013": 4.07082587066,
			"0.014": 5.37123826421,
			"0.015": 2.49928814415,
			"0.016": 1.45765514989,
			"0.017": 0.824780001773,
			"0.018": 1.0717814186,
			"0.019": 0.307732305673,
			"0.02": 0.0,
			"0.021": 0.0,
			"0.022": 0.0,
			"0.023": 0.0,
			"0.024": 0.0,
			"0.025": 0.0
		}
	}
}
