{
	 "smiles": "OC(=O)CC1=CC(=CC(=C1)C(F)(F)F)C(F)(F)F", 
	 "Tm": 395.15, 
	 "num_atms": 24, 
	 "gaussian": { 
		 "optdone": 1, 
		 "sigma_profile": "yes", 
		 "theory": "DFT", 
		 "functional": "B3LYP", 
		 "basiset": "6-31G**", 
		 "properties": { 
			 "R2extent": 5785.7067, 
			 "electric_dipole_moment_norm": 2.73866115648, 
			 "electric_quadrupole_moment_norm": 18.1767583072, 
			 "total_energy": -1134.19221164, 
			 "HOMO_LUMO_gap": 0.20591, 
			 "cosmo_polarized_energy": -15.09, 
			 "cosmo_cavitation_energy": 32.42, 
			 "cosmo_dispersion_energy": -21.66, 
			 "cosmo_repulsion_energy": 1.58, 
			 "cosmo_total_nonelectrostatic_energy": 12.33, 
			 "SMD_solvation_energy": 8.97 
		},
		"coords": [
			{
				"x": 1.318078594,
				"y": -3.7922184692,
				"z": -1.7667272521,
				"element": "O" 
			},
			{
				"x": 1.6046027236,
				"y": -2.827622098,
				"z": -2.6710025133,
				"element": "C" 
			},
			{
				"x": 1.7696199061,
				"y": -3.0958378392,
				"z": -3.8328014401,
				"element": "O" 
			},
			{
				"x": 1.7613805401,
				"y": -1.3939356048,
				"z": -2.1295963551,
				"element": "C" 
			},
			{
				"x": 1.0011065969,
				"y": -1.0779572628,
				"z": -0.8616554133,
				"element": "C" 
			},
			{
				"x": 1.6167847654,
				"y": -1.1779976419,
				"z": 0.3919493477,
				"element": "C" 
			},
			{
				"x": 0.9002285481,
				"y": -0.9104964769,
				"z": 1.5630258329,
				"element": "C" 
			},
			{
				"x": -0.4385292103,
				"y": -0.5331845651,
				"z": 1.4998713301,
				"element": "C" 
			},
			{
				"x": -1.0575263117,
				"y": -0.4265221006,
				"z": 0.2520237108,
				"element": "C" 
			},
			{
				"x": -0.3487528393,
				"y": -0.6994901255,
				"z": -0.9165159181,
				"element": "C" 
			},
			{
				"x": -2.4878250351,
				"y": 0.0479633296,
				"z": 0.1712584683,
				"element": "C" 
			},
			{
				"x": -2.5524375541,
				"y": 1.3965106229,
				"z": 0.127457253,
				"element": "F" 
			},
			{
				"x": -3.1057432022,
				"y": -0.4179677866,
				"z": -0.9334391155,
				"element": "F" 
			},
			{
				"x": -3.2026245402,
				"y": -0.3503215266,
				"z": 1.2439915043,
				"element": "F" 
			},
			{
				"x": 1.5778991671,
				"y": -1.0845899131,
				"z": 2.8993092506,
				"element": "C" 
			},
			{
				"x": 0.9677904074,
				"y": -0.3741434665,
				"z": 3.8683827831,
				"element": "F" 
			},
			{
				"x": 1.5696108656,
				"y": -2.3804324725,
				"z": 3.2839603508,
				"element": "F" 
			},
			{
				"x": 2.86992096,
				"y": -0.695538068,
				"z": 2.8514434559,
				"element": "F" 
			},
			{
				"x": 1.1759405841,
				"y": -3.4017588602,
				"z": -0.8906650648,
				"element": "H" 
			},
			{
				"x": 2.8362586672,
				"y": -1.243384289,
				"z": -1.9724513318,
				"element": "H" 
			},
			{
				"x": 1.4695029701,
				"y": -0.7295673712,
				"z": -2.9459074165,
				"element": "H" 
			},
			{
				"x": 2.6675495307,
				"y": -1.4447176867,
				"z": 0.4607117156,
				"element": "H" 
			},
			{
				"x": -0.9922736873,
				"y": -0.3226384713,
				"z": 2.4068106565,
				"element": "H" 
			},
			{
				"x": -0.8485624463,
				"y": -0.6178518568,
				"z": -1.8765338388,
				"element": "H" 
			}
		],
		 "valence_orbital": [ 
			{
				"type": "occ",
				"energy": -0.37912,
				"method": "rhf"
			},
			{
				"type": "occ",
				"energy": -0.32478,
				"method": "rhf"
			},
			{
				"type": "occ",
				"energy": -0.30888,
				"method": "rhf"
			},
			{
				"type": "occ",
				"energy": -0.30425,
				"method": "rhf"
			},
			{
				"type": "occ",
				"energy": -0.27431,
				"method": "rhf"
			},
			{
				"type": "unocc",
				"energy": -0.0684,
				"method": "rhf"
			},
			{
				"type": "unocc",
				"energy": -0.05932,
				"method": "rhf"
			},
			{
				"type": "unocc",
				"energy": -1e-05,
				"method": "rhf"
			},
			{
				"type": "unocc",
				"energy": 0.06219,
				"method": "rhf"
			},
			{
				"type": "unocc",
				"energy": 0.07047,
				"method": "rhf"
			}
		],
		"cosmo_sigma_profile": { 
			"-0.025": 0.0,
			"-0.024": 0.0,
			"-0.023": 0.0,
			"-0.022": 0.0,
			"-0.021": 0.0,
			"-0.02": 0.0,
			"-0.019": 0.0,
			"-0.018": 0.0,
			"-0.017": 0.0,
			"-0.016": 0.111578730596,
			"-0.015": 0.781048960598,
			"-0.014": 0.403583430835,
			"-0.013": 1.46860693618,
			"-0.012": 1.84294369352,
			"-0.011": 1.38692856887,
			"-0.01": 2.08063693406,
			"-0.009": 5.99773408754,
			"-0.008": 8.80093114895,
			"-0.007": 9.59260191955,
			"-0.006": 10.3301836317,
			"-0.005": 9.28151097077,
			"-0.004": 10.0856940591,
			"-0.003": 11.3295917236,
			"-0.002": 13.4522081276,
			"-0.001": 16.868677675,
			"0.0": 22.5825992028,
			"0.001": 20.1095655541,
			"0.002": 45.3100022546,
			"0.003": 36.5250835691,
			"0.004": 2.15791005178,
			"0.005": 1.44037403692,
			"0.006": 2.54202598049,
			"0.007": 2.56624678729,
			"0.008": 2.58401078838,
			"0.009": 3.45823464469,
			"0.01": 5.38649770479,
			"0.011": 4.63251645936,
			"0.012": 5.4846008043,
			"0.013": 1.38014538003,
			"0.014": 0.0,
			"0.015": 0.0,
			"0.016": 0.0,
			"0.017": 0.0,
			"0.018": 0.0,
			"0.019": 0.0,
			"0.02": 0.0,
			"0.021": 0.0,
			"0.022": 0.0,
			"0.023": 0.0,
			"0.024": 0.0,
			"0.025": 0.0
		}
	}
}
