{
	 "smiles": "ClS(=O)(=O)N1CCS(=O)(=O)CC1", 
	 "Tm": 451.15, 
	 "num_atms": 20, 
	 "gaussian": { 
		 "optdone": 1, 
		 "sigma_profile": "yes", 
		 "theory": "DFT", 
		 "functional": "B3LYP", 
		 "basiset": "6-31G**", 
		 "properties": { 
			 "R2extent": 3882.0137, 
			 "electric_dipole_moment_norm": 1.3067850971, 
			 "electric_quadrupole_moment_norm": 21.5946807054, 
			 "total_energy": -1769.31485057, 
			 "HOMO_LUMO_gap": 0.20652, 
			 "cosmo_polarized_energy": -20.39, 
			 "cosmo_cavitation_energy": 26.94, 
			 "cosmo_dispersion_energy": -21.03, 
			 "cosmo_repulsion_energy": 1.56, 
			 "cosmo_total_nonelectrostatic_energy": 7.48, 
			 "SMD_solvation_energy": 1.11 
		},
		"coords": [
			{
				"x": -2.8826497868,
				"y": -0.6196623919,
				"z": -2.5952990434,
				"element": "Cl" 
			},
			{
				"x": -0.9681003367,
				"y": -1.4712436598,
				"z": -3.0795540672,
				"element": "S" 
			},
			{
				"x": -0.5685310598,
				"y": -0.841011846,
				"z": -4.3245631234,
				"element": "O" 
			},
			{
				"x": -1.1329512585,
				"y": -2.9046787731,
				"z": -2.9174671098,
				"element": "O" 
			},
			{
				"x": 0.0287590662,
				"y": -0.9125032276,
				"z": -1.8799068641,
				"element": "N" 
			},
			{
				"x": -0.1120294523,
				"y": -1.5188323229,
				"z": -0.5328311549,
				"element": "C" 
			},
			{
				"x": -0.6397132006,
				"y": -0.5303961222,
				"z": 0.5061731553,
				"element": "C" 
			},
			{
				"x": 0.5831218936,
				"y": 0.799945843,
				"z": 0.7924028954,
				"element": "S" 
			},
			{
				"x": 1.5845139516,
				"y": 0.3119808359,
				"z": 1.7509974312,
				"element": "O" 
			},
			{
				"x": -0.1447454907,
				"y": 2.0563690495,
				"z": 1.015653035,
				"element": "O" 
			},
			{
				"x": 1.378373579,
				"y": 0.877701177,
				"z": -0.8566180285,
				"element": "C" 
			},
			{
				"x": 0.3942734023,
				"y": 0.5237598889,
				"z": -1.9660913857,
				"element": "C" 
			},
			{
				"x": -0.7741987838,
				"y": -2.3822416728,
				"z": -0.6100114185,
				"element": "H" 
			},
			{
				"x": 0.8691309814,
				"y": -1.9000296978,
				"z": -0.229895918,
				"element": "H" 
			},
			{
				"x": -1.578051366,
				"y": -0.0640571263,
				"z": 0.199430053,
				"element": "H" 
			},
			{
				"x": -0.7701939587,
				"y": -1.014328477,
				"z": 1.4774109635,
				"element": "H" 
			},
			{
				"x": 1.7161902884,
				"y": 1.911478699,
				"z": -0.9612514584,
				"element": "H" 
			},
			{
				"x": 2.2436182104,
				"y": 0.211895898,
				"z": -0.8402743141,
				"element": "H" 
			},
			{
				"x": 0.8532101388,
				"y": 0.6949306591,
				"z": -2.9407612696,
				"element": "H" 
			},
			{
				"x": -0.4966268178,
				"y": 1.162623267,
				"z": -1.895142378,
				"element": "H" 
			}
		],
		 "valence_orbital": [ 
			{
				"type": "occ",
				"energy": -0.33084,
				"method": "rhf"
			},
			{
				"type": "occ",
				"energy": -0.33048,
				"method": "rhf"
			},
			{
				"type": "occ",
				"energy": -0.31673,
				"method": "rhf"
			},
			{
				"type": "occ",
				"energy": -0.30926,
				"method": "rhf"
			},
			{
				"type": "occ",
				"energy": -0.30261,
				"method": "rhf"
			},
			{
				"type": "unocc",
				"energy": -0.09609,
				"method": "rhf"
			},
			{
				"type": "unocc",
				"energy": 0.0247,
				"method": "rhf"
			},
			{
				"type": "unocc",
				"energy": 0.03329,
				"method": "rhf"
			},
			{
				"type": "unocc",
				"energy": 0.0433,
				"method": "rhf"
			},
			{
				"type": "unocc",
				"energy": 0.05113,
				"method": "rhf"
			}
		],
		"cosmo_sigma_profile": { 
			"-0.025": 0.0,
			"-0.024": 0.0,
			"-0.023": 0.0,
			"-0.022": 0.0,
			"-0.021": 0.0,
			"-0.02": 0.0,
			"-0.019": 0.0,
			"-0.018": 0.0,
			"-0.017": 0.0,
			"-0.016": 0.0,
			"-0.015": 0.0,
			"-0.014": 0.0,
			"-0.013": 0.000289569986735,
			"-0.012": 0.036973534222,
			"-0.011": 0.668055784356,
			"-0.01": 5.8629380365,
			"-0.009": 12.8687732623,
			"-0.008": 15.0937673809,
			"-0.007": 16.2431221851,
			"-0.006": 14.0700212261,
			"-0.005": 11.4546186019,
			"-0.004": 6.33254848339,
			"-0.003": 5.37340232546,
			"-0.002": 8.6702114636,
			"-0.001": 8.91844405475,
			"0.0": 8.51083528708,
			"0.001": 9.89401424244,
			"0.002": 9.19427004089,
			"0.003": 10.6879121639,
			"0.004": 11.5309596675,
			"0.005": 5.48196252562,
			"0.006": 5.59846107394,
			"0.007": 10.1348381814,
			"0.008": 11.2164711593,
			"0.009": 4.62289167822,
			"0.01": 5.47892469302,
			"0.011": 12.049503948,
			"0.012": 5.77513302706,
			"0.013": 0.0,
			"0.014": 0.0,
			"0.015": 0.0,
			"0.016": 0.0,
			"0.017": 0.0,
			"0.018": 0.0,
			"0.019": 0.0,
			"0.02": 0.0,
			"0.021": 0.0,
			"0.022": 0.0,
			"0.023": 0.0,
			"0.024": 0.0,
			"0.025": 0.0
		}
	}
}
