{
	 "smiles": "OCC1=C(CC2=CC=CC=C2)C=CC=C1", 
	 "Tm": 312.15, 
	 "num_atms": 29, 
	 "gaussian": { 
		 "optdone": 1, 
		 "sigma_profile": "yes", 
		 "theory": "DFT", 
		 "functional": "B3LYP", 
		 "basiset": "6-31G**", 
		 "properties": { 
			 "R2extent": 3547.8145, 
			 "electric_dipole_moment_norm": 1.47073353807, 
			 "electric_quadrupole_moment_norm": 3.79724793633, 
			 "total_energy": -617.148853493, 
			 "HOMO_LUMO_gap": 0.22247, 
			 "cosmo_polarized_energy": -8.69, 
			 "cosmo_cavitation_energy": 31.68, 
			 "cosmo_dispersion_energy": -22.35, 
			 "cosmo_repulsion_energy": 1.75, 
			 "cosmo_total_nonelectrostatic_energy": 11.08, 
			 "SMD_solvation_energy": 5.17 
		},
		"coords": [
			{
				"x": 0.389470956,
				"y": 2.0805122343,
				"z": -1.4353555116,
				"element": "O" 
			},
			{
				"x": -0.5256117187,
				"y": 1.0072808111,
				"z": -1.1930354588,
				"element": "C" 
			},
			{
				"x": -1.034797629,
				"y": 0.9635822884,
				"z": 0.2337396789,
				"element": "C" 
			},
			{
				"x": -0.1623810076,
				"y": 0.7298810481,
				"z": 1.3218857307,
				"element": "C" 
			},
			{
				"x": 1.3185643203,
				"y": 0.4646265508,
				"z": 1.109114634,
				"element": "C" 
			},
			{
				"x": 1.6496033717,
				"y": -0.932190647,
				"z": 0.5937654688,
				"element": "C" 
			},
			{
				"x": 1.0887862741,
				"y": -2.0769807272,
				"z": 1.177930929,
				"element": "C" 
			},
			{
				"x": 1.4319974736,
				"y": -3.3511176878,
				"z": 0.7259598065,
				"element": "C" 
			},
			{
				"x": 2.3413555979,
				"y": -3.5047122687,
				"z": -0.3233029371,
				"element": "C" 
			},
			{
				"x": 2.9024127615,
				"y": -2.3733949977,
				"z": -0.9163106558,
				"element": "C" 
			},
			{
				"x": 2.5572487191,
				"y": -1.0989449808,
				"z": -0.4606613407,
				"element": "C" 
			},
			{
				"x": -0.6891717815,
				"y": 0.7421451702,
				"z": 2.6180890189,
				"element": "C" 
			},
			{
				"x": -2.047905489,
				"y": 0.9670762983,
				"z": 2.8544207982,
				"element": "C" 
			},
			{
				"x": -2.9067581298,
				"y": 1.1904816233,
				"z": 1.7813486958,
				"element": "C" 
			},
			{
				"x": -2.3924286169,
				"y": 1.1919789235,
				"z": 0.4829191438,
				"element": "C" 
			},
			{
				"x": -0.0388348477,
				"y": 2.8934814194,
				"z": -1.135655738,
				"element": "H" 
			},
			{
				"x": -1.3818321769,
				"y": 1.0621770027,
				"z": -1.8819159748,
				"element": "H" 
			},
			{
				"x": 0.0316474579,
				"y": 0.098153301,
				"z": -1.4362747413,
				"element": "H" 
			},
			{
				"x": 1.8378185992,
				"y": 0.6196938735,
				"z": 2.0636151451,
				"element": "H" 
			},
			{
				"x": 1.7168790207,
				"y": 1.2009203507,
				"z": 0.4061124537,
				"element": "H" 
			},
			{
				"x": 0.3731370892,
				"y": -1.9673767297,
				"z": 1.9882377042,
				"element": "H" 
			},
			{
				"x": 0.9871283547,
				"y": -4.2259215926,
				"z": 1.1925345499,
				"element": "H" 
			},
			{
				"x": 2.6068616748,
				"y": -4.4971045648,
				"z": -0.6764833189,
				"element": "H" 
			},
			{
				"x": 3.606719669,
				"y": -2.4797233079,
				"z": -1.7368750539,
				"element": "H" 
			},
			{
				"x": 2.9945796433,
				"y": -0.2207429596,
				"z": -0.9291951628,
				"element": "H" 
			},
			{
				"x": -0.0202118335,
				"y": 0.5746108874,
				"z": 3.4590316007,
				"element": "H" 
			},
			{
				"x": -2.4276558577,
				"y": 0.9696764597,
				"z": 3.8722783116,
				"element": "H" 
			},
			{
				"x": -3.9650163941,
				"y": 1.3683008626,
				"z": 1.9493241422,
				"element": "H" 
			},
			{
				"x": -3.0581055004,
				"y": 1.372831359,
				"z": -0.3583419183,
				"element": "H" 
			}
		],
		 "valence_orbital": [ 
			{
				"type": "occ",
				"energy": -0.27075,
				"method": "rhf"
			},
			{
				"type": "occ",
				"energy": -0.24919,
				"method": "rhf"
			},
			{
				"type": "occ",
				"energy": -0.24591,
				"method": "rhf"
			},
			{
				"type": "occ",
				"energy": -0.24095,
				"method": "rhf"
			},
			{
				"type": "occ",
				"energy": -0.23327,
				"method": "rhf"
			},
			{
				"type": "unocc",
				"energy": -0.0108,
				"method": "rhf"
			},
			{
				"type": "unocc",
				"energy": -0.00555,
				"method": "rhf"
			},
			{
				"type": "unocc",
				"energy": 0.00319,
				"method": "rhf"
			},
			{
				"type": "unocc",
				"energy": 0.01163,
				"method": "rhf"
			},
			{
				"type": "unocc",
				"energy": 0.09,
				"method": "rhf"
			}
		],
		"cosmo_sigma_profile": { 
			"-0.025": 0.0,
			"-0.024": 0.0,
			"-0.023": 0.0,
			"-0.022": 0.0,
			"-0.021": 0.0,
			"-0.02": 0.0,
			"-0.019": 0.0,
			"-0.018": 0.0,
			"-0.017": 0.0,
			"-0.016": 0.0332005466566,
			"-0.015": 0.567164787535,
			"-0.014": 1.17803170628,
			"-0.013": 0.682199023639,
			"-0.012": 0.620736471108,
			"-0.011": 0.798361448258,
			"-0.01": 1.05012466803,
			"-0.009": 0.712434823921,
			"-0.008": 0.612787260463,
			"-0.007": 1.25779377167,
			"-0.006": 5.04245971189,
			"-0.005": 20.5976824846,
			"-0.004": 23.8998622994,
			"-0.003": 26.6897651854,
			"-0.002": 21.2421200736,
			"-0.001": 20.0797303724,
			"0.0": 17.9043636678,
			"0.001": 17.0018890113,
			"0.002": 15.2992607257,
			"0.003": 17.0198290866,
			"0.004": 16.1664988788,
			"0.005": 16.3913146565,
			"0.006": 14.9220235872,
			"0.007": 3.54263844076,
			"0.008": 1.1955661166,
			"0.009": 0.873363828733,
			"0.01": 0.87537889038,
			"0.011": 1.36826213263,
			"0.012": 1.00873278875,
			"0.013": 1.33828113882,
			"0.014": 1.24646939158,
			"0.015": 0.271266134992,
			"0.016": 0.0,
			"0.017": 0.0,
			"0.018": 0.0,
			"0.019": 0.0,
			"0.02": 0.0,
			"0.021": 0.0,
			"0.022": 0.0,
			"0.023": 0.0,
			"0.024": 0.0,
			"0.025": 0.0
		}
	}
}
