{
	 "smiles": "CC(=O)OC(OC(C)=O)C1=CC=C(O1)[N+]([O-])=O", 
	 "Tm": 363.65, 
	 "num_atms": 26, 
	 "gaussian": { 
		 "optdone": 1, 
		 "sigma_profile": "yes", 
		 "theory": "DFT", 
		 "functional": "B3LYP", 
		 "basiset": "6-31G**", 
		 "properties": { 
			 "R2extent": 5577.4455, 
			 "electric_dipole_moment_norm": 2.81484431719, 
			 "electric_quadrupole_moment_norm": 33.8741177249, 
			 "total_energy": -929.585389078, 
			 "HOMO_LUMO_gap": 0.17332, 
			 "cosmo_polarized_energy": -16.49, 
			 "cosmo_cavitation_energy": 33.95, 
			 "cosmo_dispersion_energy": -22.99, 
			 "cosmo_repulsion_energy": 1.87, 
			 "cosmo_total_nonelectrostatic_energy": 12.83, 
			 "SMD_solvation_energy": 11.3 
		},
		"coords": [
			{
				"x": 4.0589298503,
				"y": -2.751433519,
				"z": -0.5128927833,
				"element": "C" 
			},
			{
				"x": 2.7675914042,
				"y": -2.0873505207,
				"z": -0.9064330848,
				"element": "C" 
			},
			{
				"x": 2.216041503,
				"y": -2.1553145119,
				"z": -1.9769330397,
				"element": "O" 
			},
			{
				"x": 2.2671532982,
				"y": -1.3593166583,
				"z": 0.1483142019,
				"element": "O" 
			},
			{
				"x": 1.0778771152,
				"y": -0.6459875726,
				"z": -0.1134808427,
				"element": "C" 
			},
			{
				"x": 1.4664965306,
				"y": 0.5570345056,
				"z": -0.7960886445,
				"element": "O" 
			},
			{
				"x": 0.5504382558,
				"y": 1.0607271811,
				"z": -1.6764945744,
				"element": "C" 
			},
			{
				"x": 1.1288340769,
				"y": 2.2292976614,
				"z": -2.4297548621,
				"element": "C" 
			},
			{
				"x": -0.5625692107,
				"y": 0.6052348772,
				"z": -1.8057226841,
				"element": "O" 
			},
			{
				"x": 0.4070139192,
				"y": -0.3397579377,
				"z": 1.18154915,
				"element": "C" 
			},
			{
				"x": -0.9106434905,
				"y": -0.4009524952,
				"z": 1.5514726535,
				"element": "C" 
			},
			{
				"x": -0.9728201278,
				"y": 0.0644828989,
				"z": 2.8952283755,
				"element": "C" 
			},
			{
				"x": 0.3176969831,
				"y": 0.3727115522,
				"z": 3.2225816054,
				"element": "C" 
			},
			{
				"x": 1.170880319,
				"y": 0.1395548786,
				"z": 2.2006976765,
				"element": "O" 
			},
			{
				"x": 0.8697056355,
				"y": 0.8777318328,
				"z": 4.4429411069,
				"element": "N" 
			},
			{
				"x": 0.0596025169,
				"y": 1.0782710053,
				"z": 5.3523780702,
				"element": "O" 
			},
			{
				"x": 2.0823402611,
				"y": 1.0705361532,
				"z": 4.4925802598,
				"element": "O" 
			},
			{
				"x": 4.409786835,
				"y": -3.3761519246,
				"z": -1.3333240362,
				"element": "H" 
			},
			{
				"x": 4.8070479908,
				"y": -1.988271119,
				"z": -0.277769305,
				"element": "H" 
			},
			{
				"x": 3.9145047236,
				"y": -3.3531472592,
				"z": 0.388710673,
				"element": "H" 
			},
			{
				"x": 0.4052293563,
				"y": -1.2110628996,
				"z": -0.7601908254,
				"element": "H" 
			},
			{
				"x": 1.5521712264,
				"y": 2.9581480512,
				"z": -1.7334599929,
				"element": "H" 
			},
			{
				"x": 0.3495326452,
				"y": 2.6903365677,
				"z": -3.0354046005,
				"element": "H" 
			},
			{
				"x": 1.9410845687,
				"y": 1.8808699775,
				"z": -3.0752120328,
				"element": "H" 
			},
			{
				"x": -1.7291859519,
				"y": -0.7257132723,
				"z": 0.9261878728,
				"element": "H" 
			},
			{
				"x": -1.8322402342,
				"y": 0.1630225474,
				"z": 3.5394196628,
				"element": "H" 
			}
		],
		 "valence_orbital": [ 
			{
				"type": "occ",
				"energy": -0.31064,
				"method": "rhf"
			},
			{
				"type": "occ",
				"energy": -0.29731,
				"method": "rhf"
			},
			{
				"type": "occ",
				"energy": -0.2963,
				"method": "rhf"
			},
			{
				"type": "occ",
				"energy": -0.29014,
				"method": "rhf"
			},
			{
				"type": "occ",
				"energy": -0.27,
				"method": "rhf"
			},
			{
				"type": "unocc",
				"energy": -0.09668,
				"method": "rhf"
			},
			{
				"type": "unocc",
				"energy": -0.01842,
				"method": "rhf"
			},
			{
				"type": "unocc",
				"energy": -0.00736,
				"method": "rhf"
			},
			{
				"type": "unocc",
				"energy": -0.00108,
				"method": "rhf"
			},
			{
				"type": "unocc",
				"energy": 0.05009,
				"method": "rhf"
			}
		],
		"cosmo_sigma_profile": { 
			"-0.025": 0.0,
			"-0.024": 0.0,
			"-0.023": 0.0,
			"-0.022": 0.0,
			"-0.021": 0.0,
			"-0.02": 0.0,
			"-0.019": 0.0,
			"-0.018": 0.0,
			"-0.017": 0.0,
			"-0.016": 0.0,
			"-0.015": 0.0,
			"-0.014": 0.0,
			"-0.013": 0.0,
			"-0.012": 0.0,
			"-0.011": 0.150098741808,
			"-0.01": 1.9075583129,
			"-0.009": 4.97070751616,
			"-0.008": 5.7341251568,
			"-0.007": 14.571024931,
			"-0.006": 18.7051188781,
			"-0.005": 19.4496841128,
			"-0.004": 19.2159708053,
			"-0.003": 27.0132069064,
			"-0.002": 22.5787272211,
			"-0.001": 16.027056995,
			"0.0": 12.2106208887,
			"0.001": 9.73333177584,
			"0.002": 11.188966029,
			"0.003": 8.69778123918,
			"0.004": 8.53187812224,
			"0.005": 9.73634839392,
			"0.006": 9.25290297492,
			"0.007": 14.8396907634,
			"0.008": 12.7711964051,
			"0.009": 9.85605070476,
			"0.01": 7.00423160454,
			"0.011": 5.61485837007,
			"0.012": 1.60631693621,
			"0.013": 0.0251720268285,
			"0.014": 0.0,
			"0.015": 0.0,
			"0.016": 0.0,
			"0.017": 0.0,
			"0.018": 0.0,
			"0.019": 0.0,
			"0.02": 0.0,
			"0.021": 0.0,
			"0.022": 0.0,
			"0.023": 0.0,
			"0.024": 0.0,
			"0.025": 0.0
		}
	}
}
