{
	 "smiles": "OC1=C(Cl)C=C(C=N1)[N+]([O-])=O", 
	 "Tm": 472.15, 
	 "num_atms": 14, 
	 "gaussian": { 
		 "optdone": 1, 
		 "sigma_profile": "yes", 
		 "theory": "DFT", 
		 "functional": "B3LYP", 
		 "basiset": "6-31G**", 
		 "properties": { 
			 "R2extent": 2849.5345, 
			 "electric_dipole_moment_norm": 3.16144755927, 
			 "electric_quadrupole_moment_norm": 13.5309950395, 
			 "total_energy": -987.600234109, 
			 "HOMO_LUMO_gap": 0.16959, 
			 "cosmo_polarized_energy": -10.55, 
			 "cosmo_cavitation_energy": 21.73, 
			 "cosmo_dispersion_energy": -16.41, 
			 "cosmo_repulsion_energy": 1.32, 
			 "cosmo_total_nonelectrostatic_energy": 6.64, 
			 "SMD_solvation_energy": 5.07 
		},
		"coords": [
			{
				"x": -0.0806183982,
				"y": 0.2915560825,
				"z": -3.5908692611,
				"element": "O" 
			},
			{
				"x": -0.3627193226,
				"y": -0.4052434059,
				"z": -2.4855037424,
				"element": "C" 
			},
			{
				"x": -0.9151925938,
				"y": 0.2649898913,
				"z": -1.3692727708,
				"element": "C" 
			},
			{
				"x": -1.2245808882,
				"y": 1.9755439198,
				"z": -1.4321700872,
				"element": "Cl" 
			},
			{
				"x": -1.2001068037,
				"y": -0.4726645382,
				"z": -0.2354271383,
				"element": "C" 
			},
			{
				"x": -0.9242986885,
				"y": -1.8430013303,
				"z": -0.2589810555,
				"element": "C" 
			},
			{
				"x": -0.3798396724,
				"y": -2.4294538419,
				"z": -1.3971863979,
				"element": "C" 
			},
			{
				"x": -0.106420897,
				"y": -1.7130067131,
				"z": -2.4896810348,
				"element": "N" 
			},
			{
				"x": -1.2106767142,
				"y": -2.65873149,
				"z": 0.9189169256,
				"element": "N" 
			},
			{
				"x": -1.692102805,
				"y": -2.0908774199,
				"z": 1.8989925351,
				"element": "O" 
			},
			{
				"x": -0.9520726074,
				"y": -3.8601884959,
				"z": 0.8526493954,
				"element": "O" 
			},
			{
				"x": 0.2846810535,
				"y": -0.3415560917,
				"z": -4.2308933078,
				"element": "H" 
			},
			{
				"x": -1.623784617,
				"y": -0.0166177942,
				"z": 0.6504304418,
				"element": "H" 
			},
			{
				"x": -0.1645670455,
				"y": -3.4920487726,
				"z": -1.4192045019,
				"element": "H" 
			}
		],
		 "valence_orbital": [ 
			{
				"type": "occ",
				"energy": -0.32162,
				"method": "rhf"
			},
			{
				"type": "occ",
				"energy": -0.31354,
				"method": "rhf"
			},
			{
				"type": "occ",
				"energy": -0.30389,
				"method": "rhf"
			},
			{
				"type": "occ",
				"energy": -0.30227,
				"method": "rhf"
			},
			{
				"type": "occ",
				"energy": -0.26984,
				"method": "rhf"
			},
			{
				"type": "unocc",
				"energy": -0.10025,
				"method": "rhf"
			},
			{
				"type": "unocc",
				"energy": -0.06298,
				"method": "rhf"
			},
			{
				"type": "unocc",
				"energy": -0.01082,
				"method": "rhf"
			},
			{
				"type": "unocc",
				"energy": 0.00798,
				"method": "rhf"
			},
			{
				"type": "unocc",
				"energy": 0.06075,
				"method": "rhf"
			}
		],
		"cosmo_sigma_profile": { 
			"-0.025": 0.0,
			"-0.024": 0.0,
			"-0.023": 0.0,
			"-0.022": 0.0,
			"-0.021": 0.0,
			"-0.02": 0.0,
			"-0.019": 0.515316069769,
			"-0.018": 1.07229230707,
			"-0.017": 0.591179555312,
			"-0.016": 0.672195694361,
			"-0.015": 0.863667563575,
			"-0.014": 0.762579971515,
			"-0.013": 0.747823826195,
			"-0.012": 0.824186564571,
			"-0.011": 0.447186957353,
			"-0.01": 0.647803502681,
			"-0.009": 2.59146932572,
			"-0.008": 3.98962765758,
			"-0.007": 4.37297188739,
			"-0.006": 4.68298813769,
			"-0.005": 8.43971874043,
			"-0.004": 12.8885198124,
			"-0.003": 18.7001009811,
			"-0.002": 14.7988064416,
			"-0.001": 9.4282674913,
			"0.0": 8.71574704246,
			"0.001": 8.66513786777,
			"0.002": 9.76424358891,
			"0.003": 12.8042229647,
			"0.004": 8.46340908561,
			"0.005": 6.00789959647,
			"0.006": 6.85873538574,
			"0.007": 11.9696807257,
			"0.008": 8.42664436388,
			"0.009": 6.14723012289,
			"0.01": 1.98318216835,
			"0.011": 0.718992474981,
			"0.012": 0.0,
			"0.013": 0.0,
			"0.014": 0.0,
			"0.015": 0.0,
			"0.016": 0.0,
			"0.017": 0.0,
			"0.018": 0.0,
			"0.019": 0.0,
			"0.02": 0.0,
			"0.021": 0.0,
			"0.022": 0.0,
			"0.023": 0.0,
			"0.024": 0.0,
			"0.025": 0.0
		}
	}
}
