{
	 "smiles": "CC(C)(C)OC(=O)NC(CC1=CC=CC=C1)C(O)=O", 
	 "Tm": 359.65, 
	 "num_atms": 38, 
	 "gaussian": { 
		 "optdone": 1, 
		 "sigma_profile": "yes", 
		 "theory": "DFT", 
		 "functional": "B3LYP", 
		 "basiset": "6-31G**", 
		 "properties": { 
			 "R2extent": 6615.714, 
			 "electric_dipole_moment_norm": 1.25838408684, 
			 "electric_quadrupole_moment_norm": 14.2704977751, 
			 "total_energy": -900.641535543, 
			 "HOMO_LUMO_gap": 0.22918, 
			 "cosmo_polarized_energy": -16.36, 
			 "cosmo_cavitation_energy": 40.92, 
			 "cosmo_dispersion_energy": -26.93, 
			 "cosmo_repulsion_energy": 2.09, 
			 "cosmo_total_nonelectrostatic_energy": 16.07, 
			 "SMD_solvation_energy": 8.4 
		},
		"coords": [
			{
				"x": 0.4645875948,
				"y": -1.6903321757,
				"z": 3.6213516097,
				"element": "C" 
			},
			{
				"x": 0.1818039288,
				"y": -0.4144101838,
				"z": 2.8227275963,
				"element": "C" 
			},
			{
				"x": -1.3154104068,
				"y": -0.097086116,
				"z": 2.8043659471,
				"element": "C" 
			},
			{
				"x": 0.9896721896,
				"y": 0.7829681426,
				"z": 3.3333477021,
				"element": "C" 
			},
			{
				"x": 0.4771902298,
				"y": -0.6395672303,
				"z": 1.3957367678,
				"element": "O" 
			},
			{
				"x": 1.7290461045,
				"y": -0.9300946412,
				"z": 0.9754487348,
				"element": "C" 
			},
			{
				"x": 2.7137042084,
				"y": -1.0978719582,
				"z": 1.6739635093,
				"element": "O" 
			},
			{
				"x": 1.7569198549,
				"y": -1.0295286621,
				"z": -0.3946444466,
				"element": "N" 
			},
			{
				"x": 0.6748045278,
				"y": -0.6815808192,
				"z": -1.3104481138,
				"element": "C" 
			},
			{
				"x": -0.4612985486,
				"y": -1.7335811714,
				"z": -1.3634937402,
				"element": "C" 
			},
			{
				"x": -1.195767112,
				"y": -1.7723611359,
				"z": -2.6901691049,
				"element": "C" 
			},
			{
				"x": -0.7028060536,
				"y": -2.5622990734,
				"z": -3.7395264298,
				"element": "C" 
			},
			{
				"x": -1.3539310613,
				"y": -2.6087376369,
				"z": -4.9727766779,
				"element": "C" 
			},
			{
				"x": -2.5175740476,
				"y": -1.8646206294,
				"z": -5.1757408895,
				"element": "C" 
			},
			{
				"x": -3.02011817,
				"y": -1.0768894009,
				"z": -4.1385263529,
				"element": "C" 
			},
			{
				"x": -2.3646299623,
				"y": -1.029821938,
				"z": -2.9069812836,
				"element": "C" 
			},
			{
				"x": 0.1377173124,
				"y": 0.7325633916,
				"z": -1.0379433087,
				"element": "C" 
			},
			{
				"x": 1.1447500556,
				"y": 1.631859619,
				"z": -0.9592650864,
				"element": "O" 
			},
			{
				"x": -1.0264438971,
				"y": 1.0455125955,
				"z": -0.9332120348,
				"element": "O" 
			},
			{
				"x": 1.5289377025,
				"y": -1.926162225,
				"z": 3.6178166063,
				"element": "H" 
			},
			{
				"x": -0.0881097403,
				"y": -2.5341731159,
				"z": 3.1965341813,
				"element": "H" 
			},
			{
				"x": 0.1335772863,
				"y": -1.5547303931,
				"z": 4.6561948495,
				"element": "H" 
			},
			{
				"x": -1.8875457718,
				"y": -0.9523205786,
				"z": 2.4329467684,
				"element": "H" 
			},
			{
				"x": -1.6611665392,
				"y": 0.1365505572,
				"z": 3.8157612764,
				"element": "H" 
			},
			{
				"x": -1.5201216884,
				"y": 0.7584961015,
				"z": 2.1550324562,
				"element": "H" 
			},
			{
				"x": 0.7924059535,
				"y": 1.6649875465,
				"z": 2.7157283386,
				"element": "H" 
			},
			{
				"x": 2.0587805187,
				"y": 0.5693652944,
				"z": 3.3150422389,
				"element": "H" 
			},
			{
				"x": 0.6925380133,
				"y": 1.0147038208,
				"z": 4.3611620485,
				"element": "H" 
			},
			{
				"x": 2.6912282818,
				"y": -1.116944271,
				"z": -0.7631981768,
				"element": "H" 
			},
			{
				"x": 1.1399248606,
				"y": -0.6313916208,
				"z": -2.3018504396,
				"element": "H" 
			},
			{
				"x": -1.1531658614,
				"y": -1.5447414105,
				"z": -0.5405579765,
				"element": "H" 
			},
			{
				"x": 0.0097862102,
				"y": -2.7045491767,
				"z": -1.1825108223,
				"element": "H" 
			},
			{
				"x": 0.1955822806,
				"y": -3.1565594421,
				"z": -3.5846431519,
				"element": "H" 
			},
			{
				"x": -0.9575261623,
				"y": -3.230993592,
				"z": -5.7704532047,
				"element": "H" 
			},
			{
				"x": -3.030028493,
				"y": -1.9015785547,
				"z": -6.1329186427,
				"element": "H" 
			},
			{
				"x": -3.9265233583,
				"y": -0.4963201397,
				"z": -4.2870291005,
				"element": "H" 
			},
			{
				"x": -2.746933573,
				"y": -0.4033737988,
				"z": -2.1081167316,
				"element": "H" 
			},
			{
				"x": 0.725043333,
				"y": 2.4936140223,
				"z": -0.7988549155,
				"element": "H" 
			}
		],
		 "valence_orbital": [ 
			{
				"type": "occ",
				"energy": -0.29014,
				"method": "rhf"
			},
			{
				"type": "occ",
				"energy": -0.26566,
				"method": "rhf"
			},
			{
				"type": "occ",
				"energy": -0.25845,
				"method": "rhf"
			},
			{
				"type": "occ",
				"energy": -0.24561,
				"method": "rhf"
			},
			{
				"type": "occ",
				"energy": -0.23629,
				"method": "rhf"
			},
			{
				"type": "unocc",
				"energy": -0.00711,
				"method": "rhf"
			},
			{
				"type": "unocc",
				"energy": 0.003,
				"method": "rhf"
			},
			{
				"type": "unocc",
				"energy": 0.00463,
				"method": "rhf"
			},
			{
				"type": "unocc",
				"energy": 0.05094,
				"method": "rhf"
			},
			{
				"type": "unocc",
				"energy": 0.06652,
				"method": "rhf"
			}
		],
		"cosmo_sigma_profile": { 
			"-0.025": 0.0,
			"-0.024": 0.0,
			"-0.023": 0.0,
			"-0.022": 0.0,
			"-0.021": 0.0,
			"-0.02": 0.0,
			"-0.019": 0.087028939624,
			"-0.018": 1.06678531417,
			"-0.017": 0.5931600249,
			"-0.016": 0.790506602154,
			"-0.015": 1.49933134794,
			"-0.014": 1.95942915484,
			"-0.013": 1.51105297164,
			"-0.012": 2.45667322612,
			"-0.011": 1.96395794785,
			"-0.01": 1.05857370174,
			"-0.009": 1.5010199495,
			"-0.008": 3.41406789309,
			"-0.007": 3.60273577369,
			"-0.006": 4.61288061593,
			"-0.005": 14.697874765,
			"-0.004": 24.6266925392,
			"-0.003": 29.6176236884,
			"-0.002": 28.013618362,
			"-0.001": 28.1430123504,
			"0.0": 37.287771365,
			"0.001": 25.2763947652,
			"0.002": 16.8556242199,
			"0.003": 16.2193382062,
			"0.004": 15.5771317571,
			"0.005": 15.2011853364,
			"0.006": 13.9998524448,
			"0.007": 6.51807439034,
			"0.008": 5.06004578254,
			"0.009": 3.764227396,
			"0.01": 2.38157734648,
			"0.011": 3.76250478494,
			"0.012": 2.97139683012,
			"0.013": 3.7524217088,
			"0.014": 1.07049662996,
			"0.015": 0.0,
			"0.016": 0.0,
			"0.017": 0.0,
			"0.018": 0.0,
			"0.019": 0.0,
			"0.02": 0.0,
			"0.021": 0.0,
			"0.022": 0.0,
			"0.023": 0.0,
			"0.024": 0.0,
			"0.025": 0.0
		}
	}
}
