{
	 "smiles": "OC(=O)C1CSCN1C(=O)OCC1C2=CC=CC=C2C2=C1C=CC=C2", 
	 "Tm": 430.15, 
	 "num_atms": 42, 
	 "gaussian": { 
		 "optdone": 1, 
		 "sigma_profile": "yes", 
		 "theory": "DFT", 
		 "functional": "B3LYP", 
		 "basiset": "6-31G**", 
		 "properties": { 
			 "R2extent": 7304.1821, 
			 "electric_dipole_moment_norm": 3.31047930367, 
			 "electric_quadrupole_moment_norm": 14.237897684, 
			 "total_energy": -1488.12525383, 
			 "HOMO_LUMO_gap": 0.18422, 
			 "cosmo_polarized_energy": -20.86, 
			 "cosmo_cavitation_energy": 45.09, 
			 "cosmo_dispersion_energy": -29.64, 
			 "cosmo_repulsion_energy": 2.16, 
			 "cosmo_total_nonelectrostatic_energy": 17.61, 
			 "SMD_solvation_energy": 6.59 
		},
		"coords": [
			{
				"x": 0.3750664255,
				"y": -2.5374555942,
				"z": 1.2835527232,
				"element": "O" 
			},
			{
				"x": 0.0602471583,
				"y": -1.9122881419,
				"z": 2.4344841719,
				"element": "C" 
			},
			{
				"x": 0.7241940812,
				"y": -2.0689008563,
				"z": 3.4270546283,
				"element": "O" 
			},
			{
				"x": -1.2607217344,
				"y": -1.1135033826,
				"z": 2.4973939753,
				"element": "C" 
			},
			{
				"x": -2.3147944723,
				"y": -1.3003011883,
				"z": 1.3909980459,
				"element": "C" 
			},
			{
				"x": -3.6052837003,
				"y": -0.0380703055,
				"z": 1.7816038053,
				"element": "S" 
			},
			{
				"x": -2.4274814118,
				"y": 0.8915938885,
				"z": 2.9262557644,
				"element": "C" 
			},
			{
				"x": -1.1128315731,
				"y": 0.3405724645,
				"z": 2.6744578001,
				"element": "N" 
			},
			{
				"x": -0.256510032,
				"y": 1.1206410013,
				"z": 1.9090059843,
				"element": "C" 
			},
			{
				"x": -0.3044909645,
				"y": 2.3333413618,
				"z": 1.8568772533,
				"element": "O" 
			},
			{
				"x": 0.6520322372,
				"y": 0.3496904499,
				"z": 1.2629769669,
				"element": "O" 
			},
			{
				"x": 1.6513774621,
				"y": 1.0259485151,
				"z": 0.4733158655,
				"element": "C" 
			},
			{
				"x": 1.4293176182,
				"y": 0.7567660411,
				"z": -1.0219116342,
				"element": "C" 
			},
			{
				"x": 0.0584306387,
				"y": 1.1701542585,
				"z": -1.5417301308,
				"element": "C" 
			},
			{
				"x": -0.5665783033,
				"y": 2.4110018004,
				"z": -1.4883549129,
				"element": "C" 
			},
			{
				"x": -1.8411765548,
				"y": 2.551187303,
				"z": -2.0494809772,
				"element": "C" 
			},
			{
				"x": -2.4786497309,
				"y": 1.4625331274,
				"z": -2.6537194842,
				"element": "C" 
			},
			{
				"x": -1.856788529,
				"y": 0.2130400413,
				"z": -2.7070313789,
				"element": "C" 
			},
			{
				"x": -0.5850081318,
				"y": 0.0707718566,
				"z": -2.1467685174,
				"element": "C" 
			},
			{
				"x": 0.300485047,
				"y": -1.1001690941,
				"z": -2.0569971259,
				"element": "C" 
			},
			{
				"x": 1.4932136195,
				"y": -0.7144104901,
				"z": -1.4091545735,
				"element": "C" 
			},
			{
				"x": 2.518007074,
				"y": -1.6328424506,
				"z": -1.212361055,
				"element": "C" 
			},
			{
				"x": 2.3468922748,
				"y": -2.9484057519,
				"z": -1.6584879109,
				"element": "C" 
			},
			{
				"x": 1.1619736272,
				"y": -3.3355694089,
				"z": -2.2929112345,
				"element": "C" 
			},
			{
				"x": 0.1294743465,
				"y": -2.4161408297,
				"z": -2.4982144811,
				"element": "C" 
			},
			{
				"x": -0.086750724,
				"y": -2.152887936,
				"z": 0.5232802995,
				"element": "H" 
			},
			{
				"x": -1.7042407012,
				"y": -1.4697646602,
				"z": 3.4335024592,
				"element": "H" 
			},
			{
				"x": -1.9105420514,
				"y": -1.1009083207,
				"z": 0.3932020122,
				"element": "H" 
			},
			{
				"x": -2.7585871561,
				"y": -2.297712048,
				"z": 1.4135860896,
				"element": "H" 
			},
			{
				"x": -2.7334034427,
				"y": 0.7095084523,
				"z": 3.9580525189,
				"element": "H" 
			},
			{
				"x": -2.4352131527,
				"y": 1.9554318715,
				"z": 2.7014940217,
				"element": "H" 
			},
			{
				"x": 1.6071951009,
				"y": 2.0935529847,
				"z": 0.6937307814,
				"element": "H" 
			},
			{
				"x": 2.6152884563,
				"y": 0.6250655997,
				"z": 0.7977376735,
				"element": "H" 
			},
			{
				"x": 2.2186356608,
				"y": 1.3170055949,
				"z": -1.5463616972,
				"element": "H" 
			},
			{
				"x": -0.088205675,
				"y": 3.2574405316,
				"z": -1.0050817276,
				"element": "H" 
			},
			{
				"x": -2.341767873,
				"y": 3.5139494924,
				"z": -2.0103381039,
				"element": "H" 
			},
			{
				"x": -3.4682663868,
				"y": 1.5894532879,
				"z": -3.0827130411,
				"element": "H" 
			},
			{
				"x": -2.3558592842,
				"y": -0.6284921349,
				"z": -3.1796668567,
				"element": "H" 
			},
			{
				"x": 3.4394117979,
				"y": -1.3447612944,
				"z": -0.7131030815,
				"element": "H" 
			},
			{
				"x": 3.1373574685,
				"y": -3.6761739911,
				"z": -1.503195886,
				"element": "H" 
			},
			{
				"x": 1.0431852188,
				"y": -4.3612347872,
				"z": -2.629712463,
				"element": "H" 
			},
			{
				"x": -0.7847337282,
				"y": -2.721057258,
				"z": -3.000166567,
				"element": "H" 
			}
		],
		 "valence_orbital": [ 
			{
				"type": "occ",
				"energy": -0.26754,
				"method": "rhf"
			},
			{
				"type": "occ",
				"energy": -0.26001,
				"method": "rhf"
			},
			{
				"type": "occ",
				"energy": -0.25306,
				"method": "rhf"
			},
			{
				"type": "occ",
				"energy": -0.23284,
				"method": "rhf"
			},
			{
				"type": "occ",
				"energy": -0.22569,
				"method": "rhf"
			},
			{
				"type": "unocc",
				"energy": -0.04147,
				"method": "rhf"
			},
			{
				"type": "unocc",
				"energy": -0.02366,
				"method": "rhf"
			},
			{
				"type": "unocc",
				"energy": -0.00554,
				"method": "rhf"
			},
			{
				"type": "unocc",
				"energy": -0.00143,
				"method": "rhf"
			},
			{
				"type": "unocc",
				"energy": 0.00571,
				"method": "rhf"
			}
		],
		"cosmo_sigma_profile": { 
			"-0.025": 0.0,
			"-0.024": 0.0,
			"-0.023": 0.0,
			"-0.022": 0.0,
			"-0.021": 0.0,
			"-0.02": 0.0,
			"-0.019": 0.0,
			"-0.018": 0.0,
			"-0.017": 0.0,
			"-0.016": 0.0,
			"-0.015": 0.0,
			"-0.014": 0.0,
			"-0.013": 0.00221593222148,
			"-0.012": 0.349076804407,
			"-0.011": 1.33572532099,
			"-0.01": 1.4432155482,
			"-0.009": 3.84571285646,
			"-0.008": 7.84281119106,
			"-0.007": 14.1586939217,
			"-0.006": 28.1282190467,
			"-0.005": 31.6250929995,
			"-0.004": 30.2814460902,
			"-0.003": 25.4632110484,
			"-0.002": 21.0427837834,
			"-0.001": 18.6363104055,
			"0.0": 17.9483238749,
			"0.001": 18.6931201084,
			"0.002": 18.8959963939,
			"0.003": 20.4021678407,
			"0.004": 20.5848272071,
			"0.005": 20.9673696741,
			"0.006": 14.3711810491,
			"0.007": 7.85234057049,
			"0.008": 7.58569206717,
			"0.009": 7.30608729877,
			"0.01": 7.76525561117,
			"0.011": 8.19576284524,
			"0.012": 6.00601435607,
			"0.013": 0.457771328809,
			"0.014": 0.0,
			"0.015": 0.0,
			"0.016": 0.0,
			"0.017": 0.0,
			"0.018": 0.0,
			"0.019": 0.0,
			"0.02": 0.0,
			"0.021": 0.0,
			"0.022": 0.0,
			"0.023": 0.0,
			"0.024": 0.0,
			"0.025": 0.0
		}
	}
}
