{
	 "smiles": "[O-][N+](=O)C1=CC=C(C=C1)C1=NN(C(=O)C1C=C1/C(=O)N(N=C1C1=CC=C(C=C1)[N+]([O-])=O)C1=CC=CC=C1)C1=CC=CC=C1", 
	 "Tm": 557.15, 
	 "num_atms": 63, 
	 "gaussian": { 
		 "optdone": 1, 
		 "sigma_profile": "yes", 
		 "theory": "DFT", 
		 "functional": "B3LYP", 
		 "basiset": "6-31G**", 
		 "properties": { 
			 "R2extent": 29750.6222, 
			 "electric_dipole_moment_norm": 3.12091813734, 
			 "electric_quadrupole_moment_norm": 58.8165819264, 
			 "total_energy": -1972.96570575, 
			 "HOMO_LUMO_gap": 0.10958, 
			 "cosmo_polarized_energy": -25.03, 
			 "cosmo_cavitation_energy": 71.1, 
			 "cosmo_dispersion_energy": -48.34, 
			 "cosmo_repulsion_energy": 3.53, 
			 "cosmo_total_nonelectrostatic_energy": 26.29, 
			 "SMD_solvation_energy": 15.79 
		},
		"coords": [
			{
				"x": 0.1532578278,
				"y": 0.5439896623,
				"z": 6.6951820239,
				"element": "O" 
			},
			{
				"x": -0.5585645826,
				"y": 0.9177831578,
				"z": 5.7635759624,
				"element": "N" 
			},
			{
				"x": -1.7432727805,
				"y": 1.2338327481,
				"z": 5.8661608764,
				"element": "O" 
			},
			{
				"x": 0.0531307998,
				"y": 0.9915218206,
				"z": 4.4273305295,
				"element": "C" 
			},
			{
				"x": 1.3938705674,
				"y": 0.6332227611,
				"z": 4.2767282618,
				"element": "C" 
			},
			{
				"x": 1.9646017694,
				"y": 0.6984250894,
				"z": 3.0139453444,
				"element": "C" 
			},
			{
				"x": 1.2044838088,
				"y": 1.1194733932,
				"z": 1.9047213093,
				"element": "C" 
			},
			{
				"x": -0.1431342781,
				"y": 1.4788357881,
				"z": 2.0882073854,
				"element": "C" 
			},
			{
				"x": -0.7225121351,
				"y": 1.4170694008,
				"z": 3.3520438295,
				"element": "C" 
			},
			{
				"x": 1.8214305039,
				"y": 1.1950254632,
				"z": 0.5770342247,
				"element": "C" 
			},
			{
				"x": 3.1064863705,
				"y": 1.2213614738,
				"z": 0.4283608707,
				"element": "N" 
			},
			{
				"x": 3.4175766469,
				"y": 1.3044161381,
				"z": -0.9170390254,
				"element": "N" 
			},
			{
				"x": 2.2816274748,
				"y": 1.3475969905,
				"z": -1.7270300836,
				"element": "C" 
			},
			{
				"x": 2.2314676601,
				"y": 1.4049038356,
				"z": -2.9388929471,
				"element": "O" 
			},
			{
				"x": 1.0890370652,
				"y": 1.2738951654,
				"z": -0.7480311047,
				"element": "C" 
			},
			{
				"x": 0.2492148456,
				"y": 0.0726940998,
				"z": -1.0722560812,
				"element": "C" 
			},
			{
				"x": -1.0647447762,
				"y": 0.0927402179,
				"z": -1.3678798594,
				"element": "C" 
			},
			{
				"x": -1.9784985566,
				"y": 1.2709376037,
				"z": -1.2486483024,
				"element": "C" 
			},
			{
				"x": -1.7047018361,
				"y": 2.4210425647,
				"z": -0.9124315199,
				"element": "O" 
			},
			{
				"x": -3.2347622244,
				"y": 0.752863606,
				"z": -1.540677841,
				"element": "N" 
			},
			{
				"x": -3.1852335679,
				"y": -0.6002884108,
				"z": -1.8433730438,
				"element": "N" 
			},
			{
				"x": -1.9514799429,
				"y": -1.008039586,
				"z": -1.7556699142,
				"element": "C" 
			},
			{
				"x": -1.6091910413,
				"y": -2.4109406025,
				"z": -2.0379584691,
				"element": "C" 
			},
			{
				"x": -2.5100697372,
				"y": -3.4300638278,
				"z": -1.6781182546,
				"element": "C" 
			},
			{
				"x": -2.2192149771,
				"y": -4.7609296676,
				"z": -1.9495014484,
				"element": "C" 
			},
			{
				"x": -1.0162780453,
				"y": -5.0686674566,
				"z": -2.5844645523,
				"element": "C" 
			},
			{
				"x": -0.1085457502,
				"y": -4.0833856306,
				"z": -2.9644534926,
				"element": "C" 
			},
			{
				"x": -0.410730605,
				"y": -2.7529006099,
				"z": -2.6905578424,
				"element": "C" 
			},
			{
				"x": -0.6980255395,
				"y": -6.4780763561,
				"z": -2.8670991428,
				"element": "N" 
			},
			{
				"x": 0.3725481226,
				"y": -6.718934988,
				"z": -3.4233353023,
				"element": "O" 
			},
			{
				"x": -1.5225666719,
				"y": -7.3258262357,
				"z": -2.5287073165,
				"element": "O" 
			},
			{
				"x": -4.4919450724,
				"y": 1.4211677169,
				"z": -1.5919915851,
				"element": "C" 
			},
			{
				"x": -5.6342066667,
				"y": 0.691524686,
				"z": -1.9507442275,
				"element": "C" 
			},
			{
				"x": -6.8705160092,
				"y": 1.3308937039,
				"z": -2.0022636281,
				"element": "C" 
			},
			{
				"x": -6.983676741,
				"y": 2.6891939315,
				"z": -1.7010192021,
				"element": "C" 
			},
			{
				"x": -5.8409937395,
				"y": 3.406108994,
				"z": -1.3462596446,
				"element": "C" 
			},
			{
				"x": -4.5926559182,
				"y": 2.7866959821,
				"z": -1.2877189736,
				"element": "C" 
			},
			{
				"x": 4.7871758783,
				"y": 1.3784387968,
				"z": -1.3040674325,
				"element": "C" 
			},
			{
				"x": 5.7752749038,
				"y": 1.4079313398,
				"z": -0.3094712282,
				"element": "C" 
			},
			{
				"x": 7.1176052199,
				"y": 1.4745924192,
				"z": -0.6749101971,
				"element": "C" 
			},
			{
				"x": 7.4890258142,
				"y": 1.513926122,
				"z": -2.0199552255,
				"element": "C" 
			},
			{
				"x": 6.4984080182,
				"y": 1.4861541476,
				"z": -3.0014304368,
				"element": "C" 
			},
			{
				"x": 5.1479512189,
				"y": 1.4183079647,
				"z": -2.6590894688,
				"element": "C" 
			},
			{
				"x": 1.9579431694,
				"y": 0.3075957378,
				"z": 5.1416191068,
				"element": "H" 
			},
			{
				"x": 3.0018938856,
				"y": 0.4194013158,
				"z": 2.8675521072,
				"element": "H" 
			},
			{
				"x": -0.7334174968,
				"y": 1.8381542725,
				"z": 1.2512735766,
				"element": "H" 
			},
			{
				"x": -1.7554701658,
				"y": 1.6962667006,
				"z": 3.5172232451,
				"element": "H" 
			},
			{
				"x": 0.4846485301,
				"y": 2.1838485956,
				"z": -0.8332848202,
				"element": "H" 
			},
			{
				"x": 0.7735934437,
				"y": -0.8801507823,
				"z": -1.0987825326,
				"element": "H" 
			},
			{
				"x": -3.434904991,
				"y": -3.1632247458,
				"z": -1.179100035,
				"element": "H" 
			},
			{
				"x": -2.896016047,
				"y": -5.5602413152,
				"z": -1.6749365159,
				"element": "H" 
			},
			{
				"x": 0.8040928305,
				"y": -4.3668954679,
				"z": -3.4733065298,
				"element": "H" 
			},
			{
				"x": 0.2692314132,
				"y": -1.9760957824,
				"z": -3.0230180434,
				"element": "H" 
			},
			{
				"x": -5.5435618445,
				"y": -0.3605514623,
				"z": -2.1864060827,
				"element": "H" 
			},
			{
				"x": -7.7500527421,
				"y": 0.7583020346,
				"z": -2.2816580201,
				"element": "H" 
			},
			{
				"x": -7.9501002788,
				"y": 3.1820120563,
				"z": -1.7429497679,
				"element": "H" 
			},
			{
				"x": -5.9128704001,
				"y": 4.4636566858,
				"z": -1.1098241216,
				"element": "H" 
			},
			{
				"x": -3.7105073852,
				"y": 3.3469979694,
				"z": -1.0129588284,
				"element": "H" 
			},
			{
				"x": 5.4857897094,
				"y": 1.3794611622,
				"z": 0.7326232635,
				"element": "H" 
			},
			{
				"x": 7.8760706947,
				"y": 1.4970921286,
				"z": 0.1021041144,
				"element": "H" 
			},
			{
				"x": 8.5369656437,
				"y": 1.5665643385,
				"z": -2.298574717,
				"element": "H" 
			},
			{
				"x": 6.7714717446,
				"y": 1.517431222,
				"z": -4.0521062759,
				"element": "H" 
			},
			{
				"x": 4.3844469649,
				"y": 1.400361923,
				"z": -3.4235329475,
				"element": "H" 
			}
		],
		 "valence_orbital": [ 
			{
				"type": "occ",
				"energy": -0.27645,
				"method": "rhf"
			},
			{
				"type": "occ",
				"energy": -0.26278,
				"method": "rhf"
			},
			{
				"type": "occ",
				"energy": -0.2615,
				"method": "rhf"
			},
			{
				"type": "occ",
				"energy": -0.23175,
				"method": "rhf"
			},
			{
				"type": "occ",
				"energy": -0.23099,
				"method": "rhf"
			},
			{
				"type": "unocc",
				"energy": -0.12141,
				"method": "rhf"
			},
			{
				"type": "unocc",
				"energy": -0.10806,
				"method": "rhf"
			},
			{
				"type": "unocc",
				"energy": -0.09902,
				"method": "rhf"
			},
			{
				"type": "unocc",
				"energy": -0.06117,
				"method": "rhf"
			},
			{
				"type": "unocc",
				"energy": -0.04364,
				"method": "rhf"
			}
		],
		"cosmo_sigma_profile": { 
			"-0.025": 0.0,
			"-0.024": 0.0,
			"-0.023": 0.0,
			"-0.022": 0.0,
			"-0.021": 0.0,
			"-0.02": 0.0,
			"-0.019": 0.0,
			"-0.018": 0.0,
			"-0.017": 0.0,
			"-0.016": 0.0,
			"-0.015": 0.0,
			"-0.014": 0.0,
			"-0.013": 0.0445245871784,
			"-0.012": 0.652075367973,
			"-0.011": 1.4283676102,
			"-0.01": 2.5664136097,
			"-0.009": 3.45776145946,
			"-0.008": 9.57567295117,
			"-0.007": 17.9403211242,
			"-0.006": 29.5419838476,
			"-0.005": 37.7533539725,
			"-0.004": 43.1394049406,
			"-0.003": 40.2858096888,
			"-0.002": 43.9663294709,
			"-0.001": 43.375010151,
			"0.0": 50.8899431693,
			"0.001": 49.5660801102,
			"0.002": 34.4961672785,
			"0.003": 31.7669721913,
			"0.004": 29.7712534612,
			"0.005": 29.9628990533,
			"0.006": 14.6836391367,
			"0.007": 19.5547189892,
			"0.008": 17.383512134,
			"0.009": 11.7799281843,
			"0.01": 8.71458195798,
			"0.011": 2.78067292072,
			"0.012": 0.627685001016,
			"0.013": 0.0,
			"0.014": 0.0,
			"0.015": 0.0,
			"0.016": 0.0,
			"0.017": 0.0,
			"0.018": 0.0,
			"0.019": 0.0,
			"0.02": 0.0,
			"0.021": 0.0,
			"0.022": 0.0,
			"0.023": 0.0,
			"0.024": 0.0,
			"0.025": 0.0
		}
	}
}
