{
	 "smiles": "CC(=O)NC1=CC=CC=C1CCCCC1=C(NC(C)=O)C=CC=C1", 
	 "Tm": 509.15, 
	 "num_atms": 48, 
	 "gaussian": { 
		 "optdone": 1, 
		 "sigma_profile": "yes", 
		 "theory": "DFT", 
		 "functional": "B3LYP", 
		 "basiset": "6-31G**", 
		 "properties": { 
			 "R2extent": 8103.1034, 
			 "electric_dipole_moment_norm": 5.53430311873, 
			 "electric_quadrupole_moment_norm": 17.0627408689, 
			 "total_energy": -1036.59595286, 
			 "HOMO_LUMO_gap": 0.2021, 
			 "cosmo_polarized_energy": -19.56, 
			 "cosmo_cavitation_energy": 49.69, 
			 "cosmo_dispersion_energy": -30.67, 
			 "cosmo_repulsion_energy": 2.31, 
			 "cosmo_total_nonelectrostatic_energy": 21.33, 
			 "SMD_solvation_energy": 9.04 
		},
		"coords": [
			{
				"x": 0.0336023167,
				"y": -2.9078387417,
				"z": 0.0938430458,
				"element": "C" 
			},
			{
				"x": -0.4072680339,
				"y": -2.373785283,
				"z": -1.2546700738,
				"element": "C" 
			},
			{
				"x": 0.363489953,
				"y": -2.299480049,
				"z": -2.2051336383,
				"element": "O" 
			},
			{
				"x": -1.7160050647,
				"y": -1.9546407458,
				"z": -1.4084617676,
				"element": "N" 
			},
			{
				"x": -2.7617084269,
				"y": -1.8277469927,
				"z": -0.457149286,
				"element": "C" 
			},
			{
				"x": -3.1265192492,
				"y": -2.9191231908,
				"z": 0.3415416151,
				"element": "C" 
			},
			{
				"x": -4.1551491935,
				"y": -2.8047083441,
				"z": 1.2750754985,
				"element": "C" 
			},
			{
				"x": -4.8548006733,
				"y": -1.6045945442,
				"z": 1.3896796702,
				"element": "C" 
			},
			{
				"x": -4.5126626947,
				"y": -0.5287879322,
				"z": 0.5696941738,
				"element": "C" 
			},
			{
				"x": -3.4659485421,
				"y": -0.606110653,
				"z": -0.3573262525,
				"element": "C" 
			},
			{
				"x": -3.1186260022,
				"y": 0.5966713603,
				"z": -1.2151643442,
				"element": "C" 
			},
			{
				"x": -1.7746590019,
				"y": 1.2844926663,
				"z": -0.8837995751,
				"element": "C" 
			},
			{
				"x": -1.6993134642,
				"y": 1.8510016855,
				"z": 0.5377804655,
				"element": "C" 
			},
			{
				"x": -0.3567432475,
				"y": 2.5415925408,
				"z": 0.8708021788,
				"element": "C" 
			},
			{
				"x": 0.8385861275,
				"y": 1.6038598404,
				"z": 0.8818907787,
				"element": "C" 
			},
			{
				"x": 1.7372893461,
				"y": 1.4714724388,
				"z": -0.2033150039,
				"element": "C" 
			},
			{
				"x": 1.5771498977,
				"y": 2.2860373206,
				"z": -1.3490703956,
				"element": "N" 
			},
			{
				"x": 1.6616531012,
				"y": 2.0145135922,
				"z": -2.7081991973,
				"element": "C" 
			},
			{
				"x": 2.0289159502,
				"y": 0.6178371942,
				"z": -3.1654114994,
				"element": "C" 
			},
			{
				"x": 1.4262444988,
				"y": 2.9177348611,
				"z": -3.5003923907,
				"element": "O" 
			},
			{
				"x": 2.8145258392,
				"y": 0.5767410719,
				"z": -0.108535489,
				"element": "C" 
			},
			{
				"x": 2.9889187576,
				"y": -0.2162303109,
				"z": 1.0227594822,
				"element": "C" 
			},
			{
				"x": 2.1078064221,
				"y": -0.0978060314,
				"z": 2.0979309245,
				"element": "C" 
			},
			{
				"x": 1.0571053185,
				"y": 0.8144237834,
				"z": 2.018920253,
				"element": "C" 
			},
			{
				"x": 1.1044056564,
				"y": -2.7229233642,
				"z": 0.1814389196,
				"element": "H" 
			},
			{
				"x": -0.1313172482,
				"y": -3.9896562558,
				"z": 0.1396081808,
				"element": "H" 
			},
			{
				"x": -0.4931461501,
				"y": -2.4459360976,
				"z": 0.9305952726,
				"element": "H" 
			},
			{
				"x": -1.8577406029,
				"y": -1.5219099782,
				"z": -2.3136277274,
				"element": "H" 
			},
			{
				"x": -2.610464192,
				"y": -3.8642397575,
				"z": 0.2118627899,
				"element": "H" 
			},
			{
				"x": -4.4205314053,
				"y": -3.6588063102,
				"z": 1.8910001188,
				"element": "H" 
			},
			{
				"x": -5.6672226177,
				"y": -1.5071322669,
				"z": 2.1034905013,
				"element": "H" 
			},
			{
				"x": -5.0656152211,
				"y": 0.4036060138,
				"z": 0.6513115186,
				"element": "H" 
			},
			{
				"x": -3.9274562489,
				"y": 1.3304337639,
				"z": -1.1188422781,
				"element": "H" 
			},
			{
				"x": -3.1078529445,
				"y": 0.3132733746,
				"z": -2.2770151708,
				"element": "H" 
			},
			{
				"x": -0.9542478498,
				"y": 0.5766181535,
				"z": -1.0365233402,
				"element": "H" 
			},
			{
				"x": -1.6210155597,
				"y": 2.0937502307,
				"z": -1.6088818139,
				"element": "H" 
			},
			{
				"x": -1.8731467469,
				"y": 1.0477415239,
				"z": 1.2640982104,
				"element": "H" 
			},
			{
				"x": -2.5073570681,
				"y": 2.5808518462,
				"z": 0.6844770681,
				"element": "H" 
			},
			{
				"x": -0.2090028386,
				"y": 3.3753237462,
				"z": 0.175646957,
				"element": "H" 
			},
			{
				"x": -0.4432729687,
				"y": 2.9963728572,
				"z": 1.8645592271,
				"element": "H" 
			},
			{
				"x": 1.2415140865,
				"y": 3.2289381578,
				"z": -1.1998168284,
				"element": "H" 
			},
			{
				"x": 3.1175954248,
				"y": 0.4960979288,
				"z": -3.16784157,
				"element": "H" 
			},
			{
				"x": 1.5985124745,
				"y": -0.1795583263,
				"z": -2.5551606621,
				"element": "H" 
			},
			{
				"x": 1.6833611613,
				"y": 0.5177696095,
				"z": -4.1948658548,
				"element": "H" 
			},
			{
				"x": 3.5297750447,
				"y": 0.5210904783,
				"z": -0.9201551865,
				"element": "H" 
			},
			{
				"x": 3.8296153026,
				"y": -0.9021060369,
				"z": 1.071538307,
				"element": "H" 
			},
			{
				"x": 2.2458865029,
				"y": -0.6957423497,
				"z": 2.9937563716,
				"element": "H" 
			},
			{
				"x": 0.3770400741,
				"y": 0.9217175224,
				"z": 2.8610578164,
				"element": "H" 
			}
		],
		 "valence_orbital": [ 
			{
				"type": "occ",
				"energy": -0.25363,
				"method": "rhf"
			},
			{
				"type": "occ",
				"energy": -0.2496,
				"method": "rhf"
			},
			{
				"type": "occ",
				"energy": -0.24309,
				"method": "rhf"
			},
			{
				"type": "occ",
				"energy": -0.2297,
				"method": "rhf"
			},
			{
				"type": "occ",
				"energy": -0.21996,
				"method": "rhf"
			},
			{
				"type": "unocc",
				"energy": -0.01786,
				"method": "rhf"
			},
			{
				"type": "unocc",
				"energy": -0.01147,
				"method": "rhf"
			},
			{
				"type": "unocc",
				"energy": -0.01045,
				"method": "rhf"
			},
			{
				"type": "unocc",
				"energy": -0.00874,
				"method": "rhf"
			},
			{
				"type": "unocc",
				"energy": 0.02718,
				"method": "rhf"
			}
		],
		"cosmo_sigma_profile": { 
			"-0.025": 0.0,
			"-0.024": 0.0,
			"-0.023": 0.0,
			"-0.022": 0.0,
			"-0.021": 0.0,
			"-0.02": 0.0,
			"-0.019": 0.0,
			"-0.018": 0.0,
			"-0.017": 0.0,
			"-0.016": 0.0,
			"-0.015": 0.0,
			"-0.014": 0.0,
			"-0.013": 1.31400740548,
			"-0.012": 1.88186406934,
			"-0.011": 1.90035956822,
			"-0.01": 2.6239515682,
			"-0.009": 1.70666545989,
			"-0.008": 2.77962311873,
			"-0.007": 7.19541405414,
			"-0.006": 15.2167446933,
			"-0.005": 23.3187828431,
			"-0.004": 30.5418986907,
			"-0.003": 34.4907465815,
			"-0.002": 40.2142505159,
			"-0.001": 42.7711291387,
			"0.0": 35.7268055946,
			"0.001": 27.2755427292,
			"0.002": 26.0092542545,
			"0.003": 23.7765068427,
			"0.004": 16.3085736089,
			"0.005": 14.958109384,
			"0.006": 8.33173237924,
			"0.007": 2.79680791089,
			"0.008": 2.31778585957,
			"0.009": 2.85527800407,
			"0.01": 2.96933741912,
			"0.011": 2.761011885,
			"0.012": 4.64779469797,
			"0.013": 6.5529997689,
			"0.014": 7.2699932393,
			"0.015": 1.4839569767,
			"0.016": 0.0,
			"0.017": 0.0,
			"0.018": 0.0,
			"0.019": 0.0,
			"0.02": 0.0,
			"0.021": 0.0,
			"0.022": 0.0,
			"0.023": 0.0,
			"0.024": 0.0,
			"0.025": 0.0
		}
	}
}
