{
	 "smiles": "OCC1=CC2=C(OCO2)C=C1", 
	 "Tm": 328.65, 
	 "num_atms": 19, 
	 "gaussian": { 
		 "optdone": 1, 
		 "sigma_profile": "yes", 
		 "theory": "DFT", 
		 "functional": "B3LYP", 
		 "basiset": "6-31G**", 
		 "properties": { 
			 "R2extent": 2070.0085, 
			 "electric_dipole_moment_norm": 1.6745572579, 
			 "electric_quadrupole_moment_norm": 4.23970641672, 
			 "total_energy": -535.304671349, 
			 "HOMO_LUMO_gap": 0.20311, 
			 "cosmo_polarized_energy": -9.18, 
			 "cosmo_cavitation_energy": 22.69, 
			 "cosmo_dispersion_energy": -17.46, 
			 "cosmo_repulsion_energy": 1.41, 
			 "cosmo_total_nonelectrostatic_energy": 6.63, 
			 "SMD_solvation_energy": 4.57 
		},
		"coords": [
			{
				"x": 1.640714596,
				"y": -0.011947136,
				"z": 3.5533693833,
				"element": "O" 
			},
			{
				"x": 0.4006515051,
				"y": 0.5400923309,
				"z": 3.1362356612,
				"element": "C" 
			},
			{
				"x": 0.1807501322,
				"y": 0.4881333196,
				"z": 1.6347974782,
				"element": "C" 
			},
			{
				"x": -0.6382330392,
				"y": 1.4577454161,
				"z": 1.0167640259,
				"element": "C" 
			},
			{
				"x": -0.8421680182,
				"y": 1.3414718981,
				"z": -0.342905893,
				"element": "C" 
			},
			{
				"x": -0.2584570745,
				"y": 0.3230714333,
				"z": -1.0938988989,
				"element": "C" 
			},
			{
				"x": -0.5972190554,
				"y": 0.4732781881,
				"z": -2.4189082279,
				"element": "O" 
			},
			{
				"x": -1.5638852452,
				"y": 1.5285897695,
				"z": -2.4517322376,
				"element": "C" 
			},
			{
				"x": -1.5678671992,
				"y": 2.1670852352,
				"z": -1.1695551174,
				"element": "O" 
			},
			{
				"x": 0.5551890479,
				"y": -0.6296323293,
				"z": -0.5142281045,
				"element": "C" 
			},
			{
				"x": 0.7608994308,
				"y": -0.5310276497,
				"z": 0.8741565581,
				"element": "C" 
			},
			{
				"x": 2.3389364253,
				"y": 0.4598453684,
				"z": 3.0794249711,
				"element": "H" 
			},
			{
				"x": -0.3626928329,
				"y": -0.0549684402,
				"z": 3.6525041825,
				"element": "H" 
			},
			{
				"x": 0.2817723809,
				"y": 1.5777464581,
				"z": 3.4879510529,
				"element": "H" 
			},
			{
				"x": -1.0879098244,
				"y": 2.2669588531,
				"z": 1.5835638248,
				"element": "H" 
			},
			{
				"x": -1.2841173557,
				"y": 2.2559223162,
				"z": -3.2200371603,
				"element": "H" 
			},
			{
				"x": -2.5600030614,
				"y": 1.1091049696,
				"z": -2.6557383573,
				"element": "H" 
			},
			{
				"x": 1.0120632809,
				"y": -1.4158986594,
				"z": -1.1047992354,
				"element": "H" 
			},
			{
				"x": 1.3865759071,
				"y": -1.2602713418,
				"z": 1.3777360944,
				"element": "H" 
			}
		],
		 "valence_orbital": [ 
			{
				"type": "occ",
				"energy": -0.33131,
				"method": "rhf"
			},
			{
				"type": "occ",
				"energy": -0.31019,
				"method": "rhf"
			},
			{
				"type": "occ",
				"energy": -0.27343,
				"method": "rhf"
			},
			{
				"type": "occ",
				"energy": -0.24559,
				"method": "rhf"
			},
			{
				"type": "occ",
				"energy": -0.20545,
				"method": "rhf"
			},
			{
				"type": "unocc",
				"energy": -0.00234,
				"method": "rhf"
			},
			{
				"type": "unocc",
				"energy": 0.00864,
				"method": "rhf"
			},
			{
				"type": "unocc",
				"energy": 0.08774,
				"method": "rhf"
			},
			{
				"type": "unocc",
				"energy": 0.10254,
				"method": "rhf"
			},
			{
				"type": "unocc",
				"energy": 0.10689,
				"method": "rhf"
			}
		],
		"cosmo_sigma_profile": { 
			"-0.025": 0.0,
			"-0.024": 0.0,
			"-0.023": 0.0,
			"-0.022": 0.0,
			"-0.021": 0.0,
			"-0.02": 0.0,
			"-0.019": 0.0,
			"-0.018": 0.0,
			"-0.017": 0.0,
			"-0.016": 0.0519901649826,
			"-0.015": 0.71656072212,
			"-0.014": 0.998679427312,
			"-0.013": 1.08787771749,
			"-0.012": 0.31646985869,
			"-0.011": 0.837026802626,
			"-0.01": 0.674619725343,
			"-0.009": 0.763568217839,
			"-0.008": 2.86495894641,
			"-0.007": 8.76600988734,
			"-0.006": 12.7047557491,
			"-0.005": 11.924442049,
			"-0.004": 14.123512011,
			"-0.003": 12.2242672976,
			"-0.002": 10.49963678,
			"-0.001": 10.6849112031,
			"0.0": 8.37671958566,
			"0.001": 10.2560152127,
			"0.002": 11.1862763611,
			"0.003": 12.2155802954,
			"0.004": 11.8996346167,
			"0.005": 11.2730589254,
			"0.006": 4.43027543828,
			"0.007": 4.09244123382,
			"0.008": 2.93523538694,
			"0.009": 4.78333273796,
			"0.01": 3.33550228958,
			"0.011": 0.86635854363,
			"0.012": 1.80035290016,
			"0.013": 1.36370836802,
			"0.014": 2.11197599903,
			"0.015": 0.149507446577,
			"0.016": 0.0,
			"0.017": 0.0,
			"0.018": 0.0,
			"0.019": 0.0,
			"0.02": 0.0,
			"0.021": 0.0,
			"0.022": 0.0,
			"0.023": 0.0,
			"0.024": 0.0,
			"0.025": 0.0
		}
	}
}
