{
	 "smiles": "CC1=NC(=CC2=CC=C(C)C=C2)C(=O)O1", 
	 "Tm": 518.15, 
	 "num_atms": 26, 
	 "gaussian": { 
		 "optdone": 1, 
		 "sigma_profile": "yes", 
		 "theory": "DFT", 
		 "functional": "B3LYP", 
		 "basiset": "6-31G**", 
		 "properties": { 
			 "R2extent": 4557.2009, 
			 "electric_dipole_moment_norm": 3.79901927081, 
			 "electric_quadrupole_moment_norm": 19.3950393441, 
			 "total_energy": -669.119225464, 
			 "HOMO_LUMO_gap": 0.13811, 
			 "cosmo_polarized_energy": -10.13, 
			 "cosmo_cavitation_energy": 31.01, 
			 "cosmo_dispersion_energy": -22.63, 
			 "cosmo_repulsion_energy": 1.77, 
			 "cosmo_total_nonelectrostatic_energy": 10.15, 
			 "SMD_solvation_energy": 5.51 
		},
		"coords": [
			{
				"x": -2.2159810793,
				"y": 4.3743881421,
				"z": -1.104461318,
				"element": "C" 
			},
			{
				"x": -2.0954452887,
				"y": 2.8982829473,
				"z": -1.2132251082,
				"element": "C" 
			},
			{
				"x": -1.1845321898,
				"y": 2.1485323944,
				"z": -0.6947526783,
				"element": "N" 
			},
			{
				"x": -1.5130956207,
				"y": 0.8408569861,
				"z": -1.0849943787,
				"element": "C" 
			},
			{
				"x": -0.8752042287,
				"y": -0.3238959106,
				"z": -0.804193359,
				"element": "C" 
			},
			{
				"x": 0.3250462911,
				"y": -0.5631941886,
				"z": -0.0253030307,
				"element": "C" 
			},
			{
				"x": 0.7793308833,
				"y": -1.8901035494,
				"z": 0.112372705,
				"element": "C" 
			},
			{
				"x": 1.92202956,
				"y": -2.1863962429,
				"z": 0.8476865253,
				"element": "C" 
			},
			{
				"x": 2.6579236403,
				"y": -1.1713705947,
				"z": 1.473242893,
				"element": "C" 
			},
			{
				"x": 3.9116455022,
				"y": -1.4809720494,
				"z": 2.2533708952,
				"element": "C" 
			},
			{
				"x": 2.2044088009,
				"y": 0.1523912007,
				"z": 1.3391135915,
				"element": "C" 
			},
			{
				"x": 1.0654651853,
				"y": 0.4603639157,
				"z": 0.6078186653,
				"element": "C" 
			},
			{
				"x": -2.7415766292,
				"y": 0.8909736045,
				"z": -1.9080730723,
				"element": "C" 
			},
			{
				"x": -3.4028523858,
				"y": 0.0536192098,
				"z": -2.462482192,
				"element": "O" 
			},
			{
				"x": -3.066583906,
				"y": 2.2639200126,
				"z": -1.950700165,
				"element": "O" 
			},
			{
				"x": -1.3956094287,
				"y": 4.7623061438,
				"z": -0.5005691975,
				"element": "H" 
			},
			{
				"x": -3.1724250013,
				"y": 4.6456226201,
				"z": -0.6450397036,
				"element": "H" 
			},
			{
				"x": -2.1908837781,
				"y": 4.8328839915,
				"z": -2.0987321397,
				"element": "H" 
			},
			{
				"x": -1.3477287424,
				"y": -1.204323662,
				"z": -1.2365555384,
				"element": "H" 
			},
			{
				"x": 0.2224544386,
				"y": -2.6931742413,
				"z": -0.3636784854,
				"element": "H" 
			},
			{
				"x": 2.2486415777,
				"y": -3.2189833722,
				"z": 0.9396501316,
				"element": "H" 
			},
			{
				"x": 4.8077724556,
				"y": -1.1964837299,
				"z": 1.6877302327,
				"element": "H" 
			},
			{
				"x": 3.9406698452,
				"y": -0.9282197806,
				"z": 3.1982287814,
				"element": "H" 
			},
			{
				"x": 3.9904312938,
				"y": -2.5476074796,
				"z": 2.4805827558,
				"element": "H" 
			},
			{
				"x": 2.7587752564,
				"y": 0.954143975,
				"z": 1.8212104769,
				"element": "H" 
			},
			{
				"x": 0.7289235483,
				"y": 1.4862396574,
				"z": 0.5154527131,
				"element": "H" 
			}
		],
		 "valence_orbital": [ 
			{
				"type": "occ",
				"energy": -0.31553,
				"method": "rhf"
			},
			{
				"type": "occ",
				"energy": -0.27974,
				"method": "rhf"
			},
			{
				"type": "occ",
				"energy": -0.26835,
				"method": "rhf"
			},
			{
				"type": "occ",
				"energy": -0.25786,
				"method": "rhf"
			},
			{
				"type": "occ",
				"energy": -0.21985,
				"method": "rhf"
			},
			{
				"type": "unocc",
				"energy": -0.08174,
				"method": "rhf"
			},
			{
				"type": "unocc",
				"energy": -0.00759,
				"method": "rhf"
			},
			{
				"type": "unocc",
				"energy": 0.01091,
				"method": "rhf"
			},
			{
				"type": "unocc",
				"energy": 0.02063,
				"method": "rhf"
			},
			{
				"type": "unocc",
				"energy": 0.0922,
				"method": "rhf"
			}
		],
		"cosmo_sigma_profile": { 
			"-0.025": 0.0,
			"-0.024": 0.0,
			"-0.023": 0.0,
			"-0.022": 0.0,
			"-0.021": 0.0,
			"-0.02": 0.0,
			"-0.019": 0.0,
			"-0.018": 0.0,
			"-0.017": 0.0,
			"-0.016": 0.0,
			"-0.015": 0.0,
			"-0.014": 0.0,
			"-0.013": 0.0,
			"-0.012": 0.0,
			"-0.011": 0.0,
			"-0.01": 0.0,
			"-0.009": 0.0819697309577,
			"-0.008": 1.73067765168,
			"-0.007": 5.73945096188,
			"-0.006": 12.7805742542,
			"-0.005": 19.4350035908,
			"-0.004": 23.4356293675,
			"-0.003": 22.9737892432,
			"-0.002": 22.6462294407,
			"-0.001": 19.3781484913,
			"0.0": 18.6095961999,
			"0.001": 15.3557948304,
			"0.002": 16.7822522777,
			"0.003": 15.401421848,
			"0.004": 15.9856687062,
			"0.005": 8.63948949712,
			"0.006": 3.65422300759,
			"0.007": 5.36878141555,
			"0.008": 4.9668672982,
			"0.009": 4.46817006915,
			"0.01": 4.73527777594,
			"0.011": 5.20697175732,
			"0.012": 0.725898811623,
			"0.013": 0.0,
			"0.014": 0.0,
			"0.015": 0.0,
			"0.016": 0.0,
			"0.017": 0.0,
			"0.018": 0.0,
			"0.019": 0.0,
			"0.02": 0.0,
			"0.021": 0.0,
			"0.022": 0.0,
			"0.023": 0.0,
			"0.024": 0.0,
			"0.025": 0.0
		}
	}
}
