{
	 "smiles": "FC1=C(Br)C(Br)=CC(Cl)=C1", 
	 "Tm": 311.15, 
	 "num_atms": 12, 
	 "gaussian": { 
		 "optdone": 1, 
		 "sigma_profile": "yes", 
		 "theory": "DFT", 
		 "functional": "B3LYP", 
		 "basiset": "6-31G**", 
		 "properties": { 
			 "R2extent": 8611.0237, 
			 "electric_dipole_moment_norm": 0.663820781537, 
			 "electric_quadrupole_moment_norm": 2.48067785091, 
			 "total_energy": -5932.66654505, 
			 "HOMO_LUMO_gap": 0.20978, 
			 "cosmo_polarized_energy": -3.51, 
			 "cosmo_cavitation_energy": 23.48, 
			 "cosmo_dispersion_energy": -18.25, 
			 "cosmo_repulsion_energy": 1.45, 
			 "cosmo_total_nonelectrostatic_energy": 6.69, 
			 "SMD_solvation_energy": 2.13 
		},
		"coords": [
			{
				"x": 0.644754094,
				"y": -1.8365304569,
				"z": -1.0305905163,
				"element": "F" 
			},
			{
				"x": 1.399516039,
				"y": -0.7408293061,
				"z": -1.1778587055,
				"element": "C" 
			},
			{
				"x": 1.804057647,
				"y": -0.356829386,
				"z": -2.4608175663,
				"element": "C" 
			},
			{
				"x": 1.2629546606,
				"y": -1.4094139386,
				"z": -3.9327051865,
				"element": "Br" 
			},
			{
				"x": 2.5930554586,
				"y": 0.7942093571,
				"z": -2.5814257926,
				"element": "C" 
			},
			{
				"x": 3.1961907629,
				"y": 1.404143825,
				"z": -4.2741196254,
				"element": "Br" 
			},
			{
				"x": 2.962279545,
				"y": 1.5323402398,
				"z": -1.455154527,
				"element": "C" 
			},
			{
				"x": 2.5365417229,
				"y": 1.1124979903,
				"z": -0.1971887831,
				"element": "C" 
			},
			{
				"x": 2.9983181266,
				"y": 2.0360351326,
				"z": 1.2151692795,
				"element": "Cl" 
			},
			{
				"x": 1.7510478996,
				"y": -0.0270438687,
				"z": -0.0403293691,
				"element": "C" 
			},
			{
				"x": 3.5722328427,
				"y": 2.4195107772,
				"z": -1.563569269,
				"element": "H" 
			},
			{
				"x": 1.4132512012,
				"y": -0.3645903655,
				"z": 0.9314900613,
				"element": "H" 
			}
		],
		 "valence_orbital": [ 
			{
				"type": "occ",
				"energy": -0.31799,
				"method": "rhf"
			},
			{
				"type": "occ",
				"energy": -0.31575,
				"method": "rhf"
			},
			{
				"type": "occ",
				"energy": -0.28963,
				"method": "rhf"
			},
			{
				"type": "occ",
				"energy": -0.26738,
				"method": "rhf"
			},
			{
				"type": "occ",
				"energy": -0.25534,
				"method": "rhf"
			},
			{
				"type": "unocc",
				"energy": -0.04556,
				"method": "rhf"
			},
			{
				"type": "unocc",
				"energy": -0.04072,
				"method": "rhf"
			},
			{
				"type": "unocc",
				"energy": -0.03423,
				"method": "rhf"
			},
			{
				"type": "unocc",
				"energy": 0.01273,
				"method": "rhf"
			},
			{
				"type": "unocc",
				"energy": 0.03263,
				"method": "rhf"
			}
		],
		"cosmo_sigma_profile": { 
			"-0.025": 0.0,
			"-0.024": 0.0,
			"-0.023": 0.0,
			"-0.022": 0.0,
			"-0.021": 0.0,
			"-0.02": 0.0,
			"-0.019": 0.0,
			"-0.018": 0.0,
			"-0.017": 0.0,
			"-0.016": 0.0,
			"-0.015": 0.0,
			"-0.014": 0.0,
			"-0.013": 0.0,
			"-0.012": 0.0,
			"-0.011": 0.0,
			"-0.01": 0.720935423004,
			"-0.009": 2.15284433146,
			"-0.008": 2.61738511334,
			"-0.007": 3.33607796444,
			"-0.006": 5.21486422725,
			"-0.005": 5.08107284372,
			"-0.004": 6.89985981609,
			"-0.003": 9.66137653735,
			"-0.002": 18.4264748244,
			"-0.001": 25.4344518791,
			"0.0": 26.8134393281,
			"0.001": 16.4380163287,
			"0.002": 20.8959218608,
			"0.003": 34.1415515711,
			"0.004": 19.2141427584,
			"0.005": 1.56676814872,
			"0.006": 0.0,
			"0.007": 0.0,
			"0.008": 0.0,
			"0.009": 0.0,
			"0.01": 0.0,
			"0.011": 0.0,
			"0.012": 0.0,
			"0.013": 0.0,
			"0.014": 0.0,
			"0.015": 0.0,
			"0.016": 0.0,
			"0.017": 0.0,
			"0.018": 0.0,
			"0.019": 0.0,
			"0.02": 0.0,
			"0.021": 0.0,
			"0.022": 0.0,
			"0.023": 0.0,
			"0.024": 0.0,
			"0.025": 0.0
		}
	}
}
