{
	 "smiles": "ClC(=O)C1=CC(Br)=CC2=C1OCC2", 
	 "Tm": 399.15, 
	 "num_atms": 19, 
	 "gaussian": { 
		 "optdone": 1, 
		 "sigma_profile": "yes", 
		 "theory": "DFT", 
		 "functional": "B3LYP", 
		 "basiset": "6-31G**", 
		 "properties": { 
			 "R2extent": 5880.5768, 
			 "electric_dipole_moment_norm": 5.76319912549, 
			 "electric_quadrupole_moment_norm": 13.1864778027, 
			 "total_energy": -3528.61433315, 
			 "HOMO_LUMO_gap": 0.15686, 
			 "cosmo_polarized_energy": -10.48, 
			 "cosmo_cavitation_energy": 27.49, 
			 "cosmo_dispersion_energy": -21.02, 
			 "cosmo_repulsion_energy": 1.68, 
			 "cosmo_total_nonelectrostatic_energy": 8.15, 
			 "SMD_solvation_energy": 4.16 
		},
		"coords": [
			{
				"x": -4.5613984784,
				"y": 1.2276712689,
				"z": -0.5239491421,
				"element": "Cl" 
			},
			{
				"x": -3.2279968899,
				"y": -0.0396553378,
				"z": -0.3643882137,
				"element": "C" 
			},
			{
				"x": -3.4086992194,
				"y": -1.11406662,
				"z": -0.8479586787,
				"element": "O" 
			},
			{
				"x": -2.0329625338,
				"y": 0.4146664061,
				"z": 0.3694865227,
				"element": "C" 
			},
			{
				"x": -1.8886662771,
				"y": 1.7154772299,
				"z": 0.8986611117,
				"element": "C" 
			},
			{
				"x": -0.7399108754,
				"y": 2.0807972565,
				"z": 1.5813052747,
				"element": "C" 
			},
			{
				"x": -0.5857007246,
				"y": 3.849227244,
				"z": 2.2866045895,
				"element": "Br" 
			},
			{
				"x": 0.3206854808,
				"y": 1.1794701678,
				"z": 1.7672858628,
				"element": "C" 
			},
			{
				"x": 0.1937269865,
				"y": -0.0994608128,
				"z": 1.257542334,
				"element": "C" 
			},
			{
				"x": -0.9662485047,
				"y": -0.4839397903,
				"z": 0.5676029896,
				"element": "C" 
			},
			{
				"x": -0.9310393119,
				"y": -1.7593790834,
				"z": 0.1350227786,
				"element": "O" 
			},
			{
				"x": 0.2632395347,
				"y": -2.3949737424,
				"z": 0.6744455698,
				"element": "C" 
			},
			{
				"x": 1.153187673,
				"y": -1.2677806757,
				"z": 1.2497351775,
				"element": "C" 
			},
			{
				"x": -2.6914010665,
				"y": 2.4277998175,
				"z": 0.7668484729,
				"element": "H" 
			},
			{
				"x": 1.2138709707,
				"y": 1.4900915643,
				"z": 2.2985204689,
				"element": "H" 
			},
			{
				"x": -0.0639850284,
				"y": -3.0983881369,
				"z": 1.4467072543,
				"element": "H" 
			},
			{
				"x": 0.7272924933,
				"y": -2.9528279771,
				"z": -0.1406425413,
				"element": "H" 
			},
			{
				"x": 1.534143856,
				"y": -1.516075431,
				"z": 2.2446795066,
				"element": "H" 
			},
			{
				"x": 2.0178619152,
				"y": -1.0640533477,
				"z": 0.6073906621,
				"element": "H" 
			}
		],
		 "valence_orbital": [ 
			{
				"type": "occ",
				"energy": -0.30171,
				"method": "rhf"
			},
			{
				"type": "occ",
				"energy": -0.29722,
				"method": "rhf"
			},
			{
				"type": "occ",
				"energy": -0.28533,
				"method": "rhf"
			},
			{
				"type": "occ",
				"energy": -0.28302,
				"method": "rhf"
			},
			{
				"type": "occ",
				"energy": -0.23479,
				"method": "rhf"
			},
			{
				"type": "unocc",
				"energy": -0.07793,
				"method": "rhf"
			},
			{
				"type": "unocc",
				"energy": -0.02117,
				"method": "rhf"
			},
			{
				"type": "unocc",
				"energy": -0.00378,
				"method": "rhf"
			},
			{
				"type": "unocc",
				"energy": 0.01799,
				"method": "rhf"
			},
			{
				"type": "unocc",
				"energy": 0.01999,
				"method": "rhf"
			}
		],
		"cosmo_sigma_profile": { 
			"-0.025": 0.0,
			"-0.024": 0.0,
			"-0.023": 0.0,
			"-0.022": 0.0,
			"-0.021": 0.0,
			"-0.02": 0.0,
			"-0.019": 0.0,
			"-0.018": 0.0,
			"-0.017": 0.0,
			"-0.016": 0.0,
			"-0.015": 0.0,
			"-0.014": 0.0,
			"-0.013": 0.0,
			"-0.012": 0.0,
			"-0.011": 0.0,
			"-0.01": 0.0,
			"-0.009": 0.277657772819,
			"-0.008": 1.60318877648,
			"-0.007": 5.76731775667,
			"-0.006": 17.5417412583,
			"-0.005": 16.972142644,
			"-0.004": 18.4204589275,
			"-0.003": 14.9854637306,
			"-0.002": 13.5757804184,
			"-0.001": 17.4896507207,
			"0.0": 17.9928593732,
			"0.001": 21.1281418881,
			"0.002": 14.8353247412,
			"0.003": 12.6584020324,
			"0.004": 19.7108711145,
			"0.005": 12.1136599905,
			"0.006": 3.82669637922,
			"0.007": 3.30521015488,
			"0.008": 3.81320103443,
			"0.009": 5.06538602064,
			"0.01": 2.15418751813,
			"0.011": 1.77035210328,
			"0.012": 1.16736291816,
			"0.013": 0.232076035898,
			"0.014": 0.0,
			"0.015": 0.0,
			"0.016": 0.0,
			"0.017": 0.0,
			"0.018": 0.0,
			"0.019": 0.0,
			"0.02": 0.0,
			"0.021": 0.0,
			"0.022": 0.0,
			"0.023": 0.0,
			"0.024": 0.0,
			"0.025": 0.0
		}
	}
}
