{
	 "smiles": "CC(C)(C)OCC(NC(=O)OCC1C2=C(C=CC=C2)C2=C1C=CC=C2)C(O)=O", 
	 "Tm": 402.15, 
	 "num_atms": 53, 
	 "gaussian": { 
		 "optdone": 1, 
		 "sigma_profile": "yes", 
		 "theory": "DFT", 
		 "functional": "B3LYP", 
		 "basiset": "6-31G**", 
		 "properties": { 
			 "R2extent": 14618.7163, 
			 "electric_dipole_moment_norm": 3.02045159869, 
			 "electric_quadrupole_moment_norm": 23.929639551, 
			 "total_energy": -1284.33177567, 
			 "HOMO_LUMO_gap": 0.18426, 
			 "cosmo_polarized_energy": -19.42, 
			 "cosmo_cavitation_energy": 55.48, 
			 "cosmo_dispersion_energy": -36.11, 
			 "cosmo_repulsion_energy": 2.71, 
			 "cosmo_total_nonelectrostatic_energy": 22.08, 
			 "SMD_solvation_energy": 10.32 
		},
		"coords": [
			{
				"x": -2.5445366432,
				"y": -1.4030920809,
				"z": -5.1209811721,
				"element": "C" 
			},
			{
				"x": -1.5692662969,
				"y": -0.3082136578,
				"z": -4.6790625428,
				"element": "C" 
			},
			{
				"x": -0.2301572748,
				"y": -0.9249525692,
				"z": -4.2499165678,
				"element": "C" 
			},
			{
				"x": -1.3735355935,
				"y": 0.7199874091,
				"z": -5.8031514775,
				"element": "C" 
			},
			{
				"x": -2.2553533597,
				"y": 0.3141854101,
				"z": -3.5591557798,
				"element": "O" 
			},
			{
				"x": -1.6068096912,
				"y": 1.327688984,
				"z": -2.8172653579,
				"element": "C" 
			},
			{
				"x": -1.1429113263,
				"y": 0.7996024076,
				"z": -1.4344156679,
				"element": "C" 
			},
			{
				"x": -2.2522865579,
				"y": 0.0923821544,
				"z": -0.8306434359,
				"element": "N" 
			},
			{
				"x": -2.1984559546,
				"y": -0.5887387191,
				"z": 0.3540160572,
				"element": "C" 
			},
			{
				"x": -3.0540517706,
				"y": -1.3644414508,
				"z": 0.7366979401,
				"element": "O" 
			},
			{
				"x": -1.0688196096,
				"y": -0.2608711114,
				"z": 1.0471571949,
				"element": "O" 
			},
			{
				"x": -0.9070850695,
				"y": -0.8761437654,
				"z": 2.3433089668,
				"element": "C" 
			},
			{
				"x": 0.4133542735,
				"y": -1.6568843437,
				"z": 2.3994604275,
				"element": "C" 
			},
			{
				"x": 0.5167338526,
				"y": -2.4971989759,
				"z": 3.6649093354,
				"element": "C" 
			},
			{
				"x": 1.687003089,
				"y": -2.1671107565,
				"z": 4.3779738385,
				"element": "C" 
			},
			{
				"x": 1.992937014,
				"y": -2.8203256677,
				"z": 5.5738573129,
				"element": "C" 
			},
			{
				"x": 1.1191231197,
				"y": -3.8008123599,
				"z": 6.04978011,
				"element": "C" 
			},
			{
				"x": -0.0423707255,
				"y": -4.1272068045,
				"z": 5.3415246038,
				"element": "C" 
			},
			{
				"x": -0.3497445758,
				"y": -3.4753233182,
				"z": 4.141228334,
				"element": "C" 
			},
			{
				"x": 2.4015050145,
				"y": -1.1150280258,
				"z": 3.6429608737,
				"element": "C" 
			},
			{
				"x": 1.6696538414,
				"y": -0.7989325573,
				"z": 2.4781041042,
				"element": "C" 
			},
			{
				"x": 2.1279664743,
				"y": 0.182281546,
				"z": 1.6043143428,
				"element": "C" 
			},
			{
				"x": 3.3249922317,
				"y": 0.8458389345,
				"z": 1.9004008574,
				"element": "C" 
			},
			{
				"x": 4.0535021913,
				"y": 0.5286070747,
				"z": 3.0515527707,
				"element": "C" 
			},
			{
				"x": 3.5971846761,
				"y": -0.4545328043,
				"z": 3.9324060177,
				"element": "C" 
			},
			{
				"x": -0.6432497809,
				"y": 1.9945176886,
				"z": -0.6290428314,
				"element": "C" 
			},
			{
				"x": -1.6222881754,
				"y": 2.6544276548,
				"z": 0.0173541379,
				"element": "O" 
			},
			{
				"x": 0.5132485097,
				"y": 2.3601646941,
				"z": -0.640617333,
				"element": "O" 
			},
			{
				"x": -2.7058137827,
				"y": -2.1206821269,
				"z": -4.3112723714,
				"element": "H" 
			},
			{
				"x": -3.5103834228,
				"y": -0.9652281556,
				"z": -5.3881294373,
				"element": "H" 
			},
			{
				"x": -2.1530450987,
				"y": -1.9410740168,
				"z": -5.9894134088,
				"element": "H" 
			},
			{
				"x": 0.2253486705,
				"y": -1.4557607274,
				"z": -5.0918013242,
				"element": "H" 
			},
			{
				"x": -0.3783934307,
				"y": -1.6423393759,
				"z": -3.4371190936,
				"element": "H" 
			},
			{
				"x": 0.4857127008,
				"y": -0.1654138163,
				"z": -3.9201923392,
				"element": "H" 
			},
			{
				"x": -0.6885663613,
				"y": 1.522117514,
				"z": -5.5104953086,
				"element": "H" 
			},
			{
				"x": -2.3330837905,
				"y": 1.1684399438,
				"z": -6.0761869335,
				"element": "H" 
			},
			{
				"x": -0.951072235,
				"y": 0.2391148427,
				"z": -6.6909991411,
				"element": "H" 
			},
			{
				"x": -2.3393180668,
				"y": 2.1270622241,
				"z": -2.654388082,
				"element": "H" 
			},
			{
				"x": -0.743003501,
				"y": 1.7560226307,
				"z": -3.3351257871,
				"element": "H" 
			},
			{
				"x": -0.2693314024,
				"y": 0.1517594308,
				"z": -1.5670416226,
				"element": "H" 
			},
			{
				"x": -2.9512957628,
				"y": -0.2520227915,
				"z": -1.4754393427,
				"element": "H" 
			},
			{
				"x": -0.9128969807,
				"y": -0.0734189521,
				"z": 3.0862822569,
				"element": "H" 
			},
			{
				"x": -1.7591769826,
				"y": -1.5350991272,
				"z": 2.5145698923,
				"element": "H" 
			},
			{
				"x": 0.4425933806,
				"y": -2.3051566156,
				"z": 1.5117507207,
				"element": "H" 
			},
			{
				"x": 2.8939523202,
				"y": -2.5732256556,
				"z": 6.1285851616,
				"element": "H" 
			},
			{
				"x": 1.3441473516,
				"y": -4.3162892281,
				"z": 6.9792447728,
				"element": "H" 
			},
			{
				"x": -0.7103174895,
				"y": -4.8931442521,
				"z": 5.7247800858,
				"element": "H" 
			},
			{
				"x": -1.2513915567,
				"y": -3.7378057742,
				"z": 3.5935556948,
				"element": "H" 
			},
			{
				"x": 1.5717522614,
				"y": 0.4479890445,
				"z": 0.7121641586,
				"element": "H" 
			},
			{
				"x": 3.6867651891,
				"y": 1.6171121784,
				"z": 1.2266658024,
				"element": "H" 
			},
			{
				"x": 4.9815143903,
				"y": 1.0524028722,
				"z": 3.2634850273,
				"element": "H" 
			},
			{
				"x": 4.1647890328,
				"y": -0.6970289258,
				"z": 4.826771958,
				"element": "H" 
			},
			{
				"x": -1.1921673156,
				"y": 3.4024938706,
				"z": 0.4653936008,
				"element": "H" 
			}
		],
		 "valence_orbital": [ 
			{
				"type": "occ",
				"energy": -0.26928,
				"method": "rhf"
			},
			{
				"type": "occ",
				"energy": -0.25539,
				"method": "rhf"
			},
			{
				"type": "occ",
				"energy": -0.24589,
				"method": "rhf"
			},
			{
				"type": "occ",
				"energy": -0.23876,
				"method": "rhf"
			},
			{
				"type": "occ",
				"energy": -0.21054,
				"method": "rhf"
			},
			{
				"type": "unocc",
				"energy": -0.02628,
				"method": "rhf"
			},
			{
				"type": "unocc",
				"energy": -0.00838,
				"method": "rhf"
			},
			{
				"type": "unocc",
				"energy": -0.00403,
				"method": "rhf"
			},
			{
				"type": "unocc",
				"energy": 0.01264,
				"method": "rhf"
			},
			{
				"type": "unocc",
				"energy": 0.04512,
				"method": "rhf"
			}
		],
		"cosmo_sigma_profile": { 
			"-0.025": 0.0,
			"-0.024": 0.0,
			"-0.023": 0.0,
			"-0.022": 0.0,
			"-0.021": 0.0,
			"-0.02": 0.0,
			"-0.019": 0.308773635215,
			"-0.018": 0.899040330807,
			"-0.017": 0.794195718809,
			"-0.016": 1.23411068221,
			"-0.015": 0.648036748822,
			"-0.014": 0.60344193977,
			"-0.013": 0.245216458346,
			"-0.012": 0.694731397912,
			"-0.011": 0.870751506047,
			"-0.01": 1.51359482601,
			"-0.009": 1.37631430466,
			"-0.008": 0.897901966473,
			"-0.007": 3.6912401579,
			"-0.006": 18.2780213641,
			"-0.005": 31.193002297,
			"-0.004": 40.4419495079,
			"-0.003": 42.9170417158,
			"-0.002": 38.825741213,
			"-0.001": 35.7941120291,
			"0.0": 37.987252194,
			"0.001": 31.7089429425,
			"0.002": 21.015366318,
			"0.003": 25.4968513014,
			"0.004": 24.279758198,
			"0.005": 23.5286483881,
			"0.006": 16.5738095429,
			"0.007": 6.11005174923,
			"0.008": 4.2003854258,
			"0.009": 4.16514405015,
			"0.01": 4.81110652143,
			"0.011": 5.70640749541,
			"0.012": 5.48634710148,
			"0.013": 4.81037510256,
			"0.014": 0.37000513219,
			"0.015": 0.0,
			"0.016": 0.0,
			"0.017": 0.0,
			"0.018": 0.0,
			"0.019": 0.0,
			"0.02": 0.0,
			"0.021": 0.0,
			"0.022": 0.0,
			"0.023": 0.0,
			"0.024": 0.0,
			"0.025": 0.0
		}
	}
}
