{
	 "smiles": "S1C=C(N=C1C1=CC=NC=C1)C1=CC=CC=C1", 
	 "Tm": 366.15, 
	 "num_atms": 27, 
	 "gaussian": { 
		 "optdone": 1, 
		 "sigma_profile": "yes", 
		 "theory": "DFT", 
		 "functional": "B3LYP", 
		 "basiset": "6-31G**", 
		 "properties": { 
			 "R2extent": 7163.3717, 
			 "electric_dipole_moment_norm": 2.85904577788, 
			 "electric_quadrupole_moment_norm": 18.533323257, 
			 "total_energy": -1047.20538499, 
			 "HOMO_LUMO_gap": 0.15083, 
			 "cosmo_polarized_energy": -9.74, 
			 "cosmo_cavitation_energy": 33.25, 
			 "cosmo_dispersion_energy": -25.0, 
			 "cosmo_repulsion_energy": 1.84, 
			 "cosmo_total_nonelectrostatic_energy": 10.09, 
			 "SMD_solvation_energy": 3.07 
		},
		"coords": [
			{
				"x": -3.2703093028,
				"y": -0.6604117421,
				"z": -1.3530108269,
				"element": "S" 
			},
			{
				"x": -2.4374127964,
				"y": -0.1606995816,
				"z": 0.0720271782,
				"element": "C" 
			},
			{
				"x": -1.0799433264,
				"y": -0.3509139753,
				"z": -0.0583942493,
				"element": "C" 
			},
			{
				"x": -0.7031148308,
				"y": -0.8904770513,
				"z": -1.2700309816,
				"element": "N" 
			},
			{
				"x": -1.7170985262,
				"y": -1.1117648185,
				"z": -2.0600681744,
				"element": "C" 
			},
			{
				"x": -1.597412839,
				"y": -1.6762135548,
				"z": -3.4111181755,
				"element": "C" 
			},
			{
				"x": -2.7071120381,
				"y": -1.930569405,
				"z": -4.2291384485,
				"element": "C" 
			},
			{
				"x": -2.5011911954,
				"y": -2.4678929567,
				"z": -5.4983705454,
				"element": "C" 
			},
			{
				"x": -1.2954896647,
				"y": -2.7637565832,
				"z": -5.9993155329,
				"element": "N" 
			},
			{
				"x": -0.2393347257,
				"y": -2.5180280368,
				"z": -5.2109235353,
				"element": "C" 
			},
			{
				"x": -0.3296610005,
				"y": -1.9834759095,
				"z": -3.9288058531,
				"element": "C" 
			},
			{
				"x": -0.0474503034,
				"y": -0.0439388944,
				"z": 0.952095658,
				"element": "C" 
			},
			{
				"x": 1.2818655008,
				"y": -0.4411665434,
				"z": 0.7341259874,
				"element": "C" 
			},
			{
				"x": 2.2686077752,
				"y": -0.1671134889,
				"z": 1.6793899493,
				"element": "C" 
			},
			{
				"x": 1.9484590139,
				"y": 0.5085759818,
				"z": 2.8581268348,
				"element": "C" 
			},
			{
				"x": 0.6299189637,
				"y": 0.9117092631,
				"z": 3.082957844,
				"element": "C" 
			},
			{
				"x": -0.3577800073,
				"y": 0.6401010244,
				"z": 2.1394318673,
				"element": "C" 
			},
			{
				"x": -2.9875358333,
				"y": 0.2277168162,
				"z": 0.9161015839,
				"element": "H" 
			},
			{
				"x": -3.7181081915,
				"y": -1.7192465668,
				"z": -3.8934180334,
				"element": "H" 
			},
			{
				"x": -3.3529229429,
				"y": -2.6709270503,
				"z": -6.1450613462,
				"element": "H" 
			},
			{
				"x": 0.7358001464,
				"y": -2.7621756474,
				"z": -5.6285676781,
				"element": "H" 
			},
			{
				"x": 0.5556443523,
				"y": -1.8019464855,
				"z": -3.3309662095,
				"element": "H" 
			},
			{
				"x": 1.5253403726,
				"y": -0.9654955023,
				"z": -0.1827868442,
				"element": "H" 
			},
			{
				"x": 3.2911792905,
				"y": -0.4835006351,
				"z": 1.4939916494,
				"element": "H" 
			},
			{
				"x": 2.718128023,
				"y": 0.7221130977,
				"z": 3.5940548827,
				"element": "H" 
			},
			{
				"x": 0.3703076221,
				"y": 1.4432382522,
				"z": 3.994007936,
				"element": "H" 
			},
			{
				"x": -1.374173536,
				"y": 0.9730599933,
				"z": 2.3274650632,
				"element": "H" 
			}
		],
		 "valence_orbital": [ 
			{
				"type": "occ",
				"energy": -0.26847,
				"method": "rhf"
			},
			{
				"type": "occ",
				"energy": -0.26446,
				"method": "rhf"
			},
			{
				"type": "occ",
				"energy": -0.2582,
				"method": "rhf"
			},
			{
				"type": "occ",
				"energy": -0.25348,
				"method": "rhf"
			},
			{
				"type": "occ",
				"energy": -0.22121,
				"method": "rhf"
			},
			{
				"type": "unocc",
				"energy": -0.07038,
				"method": "rhf"
			},
			{
				"type": "unocc",
				"energy": -0.03366,
				"method": "rhf"
			},
			{
				"type": "unocc",
				"energy": -0.01428,
				"method": "rhf"
			},
			{
				"type": "unocc",
				"energy": -0.00326,
				"method": "rhf"
			},
			{
				"type": "unocc",
				"energy": 0.0097,
				"method": "rhf"
			}
		],
		"cosmo_sigma_profile": { 
			"-0.025": 0.0,
			"-0.024": 0.0,
			"-0.023": 0.0,
			"-0.022": 0.0,
			"-0.021": 0.0,
			"-0.02": 0.0,
			"-0.019": 0.0,
			"-0.018": 0.0,
			"-0.017": 0.0,
			"-0.016": 0.0,
			"-0.015": 0.0,
			"-0.014": 0.0,
			"-0.013": 0.0,
			"-0.012": 0.0,
			"-0.011": 0.00541033380807,
			"-0.01": 1.46697039328,
			"-0.009": 2.8257711284,
			"-0.008": 3.34507031319,
			"-0.007": 6.42739174826,
			"-0.006": 16.226222573,
			"-0.005": 16.2844771557,
			"-0.004": 18.4125010976,
			"-0.003": 16.7159579111,
			"-0.002": 15.8301300944,
			"-0.001": 17.7011648696,
			"0.0": 23.2464548495,
			"0.001": 30.3588169176,
			"0.002": 34.7922132045,
			"0.003": 17.4106323167,
			"0.004": 14.958212636,
			"0.005": 15.6690727314,
			"0.006": 5.9513976918,
			"0.007": 3.65009749734,
			"0.008": 2.0040369855,
			"0.009": 1.23468963178,
			"0.01": 1.16199693956,
			"0.011": 0.807406355091,
			"0.012": 0.688663121134,
			"0.013": 0.925297346803,
			"0.014": 1.17392187616,
			"0.015": 0.725368066134,
			"0.016": 0.865543925508,
			"0.017": 0.163289982262,
			"0.018": 0.0,
			"0.019": 0.0,
			"0.02": 0.0,
			"0.021": 0.0,
			"0.022": 0.0,
			"0.023": 0.0,
			"0.024": 0.0,
			"0.025": 0.0
		}
	}
}
