{
	 "smiles": "CN(C)C1=C2NC=NC2=NC=N1", 
	 "Tm": 530.15, 
	 "num_atms": 21, 
	 "gaussian": { 
		 "optdone": 1, 
		 "sigma_profile": "yes", 
		 "theory": "DFT", 
		 "functional": "B3LYP", 
		 "basiset": "6-31G**", 
		 "properties": { 
			 "R2extent": 2019.6366, 
			 "electric_dipole_moment_norm": 7.44539963602, 
			 "electric_quadrupole_moment_norm": 14.0309957654, 
			 "total_energy": -545.92290961, 
			 "HOMO_LUMO_gap": 0.1898, 
			 "cosmo_polarized_energy": -22.44, 
			 "cosmo_cavitation_energy": 24.17, 
			 "cosmo_dispersion_energy": -18.47, 
			 "cosmo_repulsion_energy": 1.44, 
			 "cosmo_total_nonelectrostatic_energy": 7.14, 
			 "SMD_solvation_energy": -0.23 
		},
		"coords": [
			{
				"x": -1.6424791951,
				"y": -0.0773849996,
				"z": 2.2620737259,
				"element": "C" 
			},
			{
				"x": -0.7156561212,
				"y": 0.4143358466,
				"z": 1.2489047017,
				"element": "N" 
			},
			{
				"x": -0.3069371765,
				"y": 1.8014758341,
				"z": 1.3517737663,
				"element": "C" 
			},
			{
				"x": -0.4507462556,
				"y": -0.3348441253,
				"z": 0.125647924,
				"element": "C" 
			},
			{
				"x": 0.2679617764,
				"y": 0.1179914194,
				"z": -1.0071405307,
				"element": "C" 
			},
			{
				"x": 0.8664340406,
				"y": 1.3006946893,
				"z": -1.4318857161,
				"element": "N" 
			},
			{
				"x": 1.3873614159,
				"y": 1.0463412439,
				"z": -2.6739276659,
				"element": "C" 
			},
			{
				"x": 1.1919044117,
				"y": -0.1791242871,
				"z": -3.0924376648,
				"element": "N" 
			},
			{
				"x": 0.4875377164,
				"y": -0.7871946766,
				"z": -2.0706491038,
				"element": "C" 
			},
			{
				"x": 0.0494204942,
				"y": -2.059273174,
				"z": -2.0738007777,
				"element": "N" 
			},
			{
				"x": -0.6220657147,
				"y": -2.3730343648,
				"z": -0.973808445,
				"element": "C" 
			},
			{
				"x": -0.8927150008,
				"y": -1.6020731372,
				"z": 0.0941454934,
				"element": "N" 
			},
			{
				"x": -1.8007106949,
				"y": -1.1413622722,
				"z": 2.1011109456,
				"element": "H" 
			},
			{
				"x": -1.2213177267,
				"y": 0.0833184414,
				"z": 3.2606650418,
				"element": "H" 
			},
			{
				"x": -2.6105813885,
				"y": 0.4400056736,
				"z": 2.2041734826,
				"element": "H" 
			},
			{
				"x": -0.8795738723,
				"y": 2.4727018815,
				"z": 0.6923978679,
				"element": "H" 
			},
			{
				"x": -0.467549705,
				"y": 2.1381628334,
				"z": 2.3778650884,
				"element": "H" 
			},
			{
				"x": 0.7633515738,
				"y": 1.9152106683,
				"z": 1.1468400117,
				"element": "H" 
			},
			{
				"x": 0.8847827466,
				"y": 2.187856395,
				"z": -0.9578248313,
				"element": "H" 
			},
			{
				"x": 1.9091192713,
				"y": 1.8166852837,
				"z": -3.2278603148,
				"element": "H" 
			},
			{
				"x": -1.0124405955,
				"y": -3.3877891733,
				"z": -0.9168629991,
				"element": "H" 
			}
		],
		 "valence_orbital": [ 
			{
				"type": "occ",
				"energy": -0.28129,
				"method": "rhf"
			},
			{
				"type": "occ",
				"energy": -0.27089,
				"method": "rhf"
			},
			{
				"type": "occ",
				"energy": -0.25544,
				"method": "rhf"
			},
			{
				"type": "occ",
				"energy": -0.24057,
				"method": "rhf"
			},
			{
				"type": "occ",
				"energy": -0.21103,
				"method": "rhf"
			},
			{
				"type": "unocc",
				"energy": -0.02123,
				"method": "rhf"
			},
			{
				"type": "unocc",
				"energy": 0.00897,
				"method": "rhf"
			},
			{
				"type": "unocc",
				"energy": 0.04853,
				"method": "rhf"
			},
			{
				"type": "unocc",
				"energy": 0.05197,
				"method": "rhf"
			},
			{
				"type": "unocc",
				"energy": 0.09173,
				"method": "rhf"
			}
		],
		"cosmo_sigma_profile": { 
			"-0.025": 0.0,
			"-0.024": 0.0,
			"-0.023": 0.0,
			"-0.022": 0.0,
			"-0.021": 0.0,
			"-0.02": 0.0,
			"-0.019": 0.0,
			"-0.018": 0.00148674531253,
			"-0.017": 0.668520998079,
			"-0.016": 1.11160376365,
			"-0.015": 1.65052135855,
			"-0.014": 0.878051945088,
			"-0.013": 1.36723243229,
			"-0.012": 1.90272194986,
			"-0.011": 1.36837827435,
			"-0.01": 3.29515820615,
			"-0.009": 4.53831656484,
			"-0.008": 2.80943997171,
			"-0.007": 4.11310583793,
			"-0.006": 9.09978239258,
			"-0.005": 12.8039524287,
			"-0.004": 13.4233159127,
			"-0.003": 16.8331708145,
			"-0.002": 15.1986112637,
			"-0.001": 10.6721877371,
			"0.0": 15.9234195135,
			"0.001": 12.1738540756,
			"0.002": 7.7788906378,
			"0.003": 6.79911262453,
			"0.004": 5.98058933437,
			"0.005": 5.24695623762,
			"0.006": 3.59136065307,
			"0.007": 3.72926558943,
			"0.008": 4.23707562502,
			"0.009": 4.2882311446,
			"0.01": 2.38655726819,
			"0.011": 3.62204872466,
			"0.012": 2.37688938396,
			"0.013": 2.97485162174,
			"0.014": 2.6887167865,
			"0.015": 2.75556434053,
			"0.016": 2.9510517792,
			"0.017": 1.78294397793,
			"0.018": 0.164506661732,
			"0.019": 0.0,
			"0.02": 0.0,
			"0.021": 0.0,
			"0.022": 0.0,
			"0.023": 0.0,
			"0.024": 0.0,
			"0.025": 0.0
		}
	}
}
