{
	 "smiles": "NCCCOCCCN", 
	 "Tm": 424.15, 
	 "num_atms": 25, 
	 "gaussian": { 
		 "optdone": 1, 
		 "sigma_profile": "yes", 
		 "theory": "DFT", 
		 "functional": "B3LYP", 
		 "basiset": "6-31G**", 
		 "properties": { 
			 "R2extent": 2545.6457, 
			 "electric_dipole_moment_norm": 3.87303416071, 
			 "electric_quadrupole_moment_norm": 11.6716465826, 
			 "total_energy": -422.990855853, 
			 "HOMO_LUMO_gap": 0.28862, 
			 "cosmo_polarized_energy": -10.31, 
			 "cosmo_cavitation_energy": 26.52, 
			 "cosmo_dispersion_energy": -19.3, 
			 "cosmo_repulsion_energy": 1.67, 
			 "cosmo_total_nonelectrostatic_energy": 8.88, 
			 "SMD_solvation_energy": 1.89 
		},
		"coords": [
			{
				"x": -1.0419709893,
				"y": -2.6856466851,
				"z": 1.528369998,
				"element": "N" 
			},
			{
				"x": -0.3607089235,
				"y": -1.6077141704,
				"z": 2.2569676536,
				"element": "C" 
			},
			{
				"x": 0.0340018294,
				"y": -0.4701316304,
				"z": 1.308621662,
				"element": "C" 
			},
			{
				"x": -1.1760425204,
				"y": 0.2071776313,
				"z": 0.6579378331,
				"element": "C" 
			},
			{
				"x": -0.8121005824,
				"y": 1.2946100754,
				"z": -0.188946827,
				"element": "O" 
			},
			{
				"x": -0.4384963847,
				"y": 0.9130708145,
				"z": -1.5080543883,
				"element": "C" 
			},
			{
				"x": -0.1259605936,
				"y": 2.1556721743,
				"z": -2.3370988885,
				"element": "C" 
			},
			{
				"x": -1.3214098855,
				"y": 3.1076729108,
				"z": -2.5467477087,
				"element": "C" 
			},
			{
				"x": -1.7694779437,
				"y": 3.8751071355,
				"z": -1.3818364734,
				"element": "N" 
			},
			{
				"x": -0.3776477791,
				"y": -3.1620560239,
				"z": 0.921751681,
				"element": "H" 
			},
			{
				"x": -1.3848199132,
				"y": -3.3866858365,
				"z": 2.1800241434,
				"element": "H" 
			},
			{
				"x": 0.5366799538,
				"y": -1.9377091271,
				"z": 2.8089169034,
				"element": "H" 
			},
			{
				"x": -1.0612712617,
				"y": -1.2231544826,
				"z": 3.0097686424,
				"element": "H" 
			},
			{
				"x": 0.6072863834,
				"y": 0.2828759541,
				"z": 1.8623068572,
				"element": "H" 
			},
			{
				"x": 0.7052794392,
				"y": -0.8650717091,
				"z": 0.5336857089,
				"element": "H" 
			},
			{
				"x": -1.816355677,
				"y": 0.6356215402,
				"z": 1.4381282375,
				"element": "H" 
			},
			{
				"x": -1.7739467799,
				"y": -0.5323109709,
				"z": 0.1093668325,
				"element": "H" 
			},
			{
				"x": -1.260769445,
				"y": 0.3451922776,
				"z": -1.9772416558,
				"element": "H" 
			},
			{
				"x": 0.4410064352,
				"y": 0.2499865034,
				"z": -1.4867854555,
				"element": "H" 
			},
			{
				"x": 0.7033652751,
				"y": 2.7018507706,
				"z": -1.8679856949,
				"element": "H" 
			},
			{
				"x": 0.23756722,
				"y": 1.8090992249,
				"z": -3.3147795545,
				"element": "H" 
			},
			{
				"x": -2.1753447564,
				"y": 2.5236029226,
				"z": -2.9179164305,
				"element": "H" 
			},
			{
				"x": -1.0725419414,
				"y": 3.8184629997,
				"z": -3.3445179684,
				"element": "H" 
			},
			{
				"x": -1.0220330033,
				"y": 4.5044249619,
				"z": -1.0941045823,
				"element": "H" 
			},
			{
				"x": -1.886788156,
				"y": 3.2260527391,
				"z": -0.6065305253,
				"element": "H" 
			}
		],
		 "valence_orbital": [ 
			{
				"type": "occ",
				"energy": -0.32605,
				"method": "rhf"
			},
			{
				"type": "occ",
				"energy": -0.30254,
				"method": "rhf"
			},
			{
				"type": "occ",
				"energy": -0.25597,
				"method": "rhf"
			},
			{
				"type": "occ",
				"energy": -0.23398,
				"method": "rhf"
			},
			{
				"type": "occ",
				"energy": -0.21323,
				"method": "rhf"
			},
			{
				"type": "unocc",
				"energy": 0.07539,
				"method": "rhf"
			},
			{
				"type": "unocc",
				"energy": 0.08948,
				"method": "rhf"
			},
			{
				"type": "unocc",
				"energy": 0.11126,
				"method": "rhf"
			},
			{
				"type": "unocc",
				"energy": 0.11453,
				"method": "rhf"
			},
			{
				"type": "unocc",
				"energy": 0.11981,
				"method": "rhf"
			}
		],
		"cosmo_sigma_profile": { 
			"-0.025": 0.0,
			"-0.024": 0.0,
			"-0.023": 0.0,
			"-0.022": 0.0,
			"-0.021": 0.0,
			"-0.02": 0.0,
			"-0.019": 0.0,
			"-0.018": 0.0,
			"-0.017": 0.0,
			"-0.016": 0.0,
			"-0.015": 0.0,
			"-0.014": 0.0,
			"-0.013": 0.0,
			"-0.012": 0.0,
			"-0.011": 0.0,
			"-0.01": 0.553593073346,
			"-0.009": 3.19646783624,
			"-0.008": 4.29426943257,
			"-0.007": 3.50768541119,
			"-0.006": 4.49101564858,
			"-0.005": 4.62130784007,
			"-0.004": 8.97839277276,
			"-0.003": 28.766793124,
			"-0.002": 36.0654477744,
			"-0.001": 30.359925656,
			"0.0": 21.424194751,
			"0.001": 11.1801964364,
			"0.002": 6.32784492756,
			"0.003": 5.85175349073,
			"0.004": 4.16295512439,
			"0.005": 3.17524589314,
			"0.006": 2.84374477818,
			"0.007": 2.48613886299,
			"0.008": 3.69467952587,
			"0.009": 1.87387244314,
			"0.01": 2.12891740774,
			"0.011": 1.53333266142,
			"0.012": 2.27402378763,
			"0.013": 2.29644086887,
			"0.014": 1.02845120091,
			"0.015": 0.776017504682,
			"0.016": 1.38370938791,
			"0.017": 1.60913845146,
			"0.018": 0.631475932313,
			"0.019": 0.866682207725,
			"0.02": 0.434118040043,
			"0.021": 0.303864748821,
			"0.022": 0.0,
			"0.023": 0.0,
			"0.024": 0.0,
			"0.025": 0.0
		}
	}
}
