{
	 "smiles": "OC(=O)C1=C(C=CC=C1)C1=NC=C(O1)C1=C(F)C=CC=C1", 
	 "Tm": 458.15, 
	 "num_atms": 31, 
	 "gaussian": { 
		 "optdone": 1, 
		 "sigma_profile": "yes", 
		 "theory": "DFT", 
		 "functional": "B3LYP", 
		 "basiset": "6-31G**", 
		 "properties": { 
			 "R2extent": 7785.5464, 
			 "electric_dipole_moment_norm": 4.28779212299, 
			 "electric_quadrupole_moment_norm": 12.8713034161, 
			 "total_energy": -995.99581009, 
			 "HOMO_LUMO_gap": 0.15168, 
			 "cosmo_polarized_energy": -14.15, 
			 "cosmo_cavitation_energy": 37.34, 
			 "cosmo_dispersion_energy": -26.71, 
			 "cosmo_repulsion_energy": 1.99, 
			 "cosmo_total_nonelectrostatic_energy": 12.62, 
			 "SMD_solvation_energy": 6.89 
		},
		"coords": [
			{
				"x": -2.248231696,
				"y": 1.3607397778,
				"z": -2.3445841226,
				"element": "O" 
			},
			{
				"x": -2.577980102,
				"y": 0.0520242872,
				"z": -2.378044324,
				"element": "C" 
			},
			{
				"x": -3.7090395175,
				"y": -0.3382447145,
				"z": -2.5767340601,
				"element": "O" 
			},
			{
				"x": -1.387703764,
				"y": -0.8520317594,
				"z": -2.2711328547,
				"element": "C" 
			},
			{
				"x": -0.3449151346,
				"y": -0.7032085369,
				"z": -1.3290413408,
				"element": "C" 
			},
			{
				"x": 0.7683576166,
				"y": -1.5566587227,
				"z": -1.4098772773,
				"element": "C" 
			},
			{
				"x": 0.8412200432,
				"y": -2.5488285727,
				"z": -2.3836546923,
				"element": "C" 
			},
			{
				"x": -0.2133594894,
				"y": -2.7253896104,
				"z": -3.2806515362,
				"element": "C" 
			},
			{
				"x": -1.3215717654,
				"y": -1.8834716243,
				"z": -3.2139488582,
				"element": "C" 
			},
			{
				"x": -0.4305356095,
				"y": 0.2388798927,
				"z": -0.2134605541,
				"element": "C" 
			},
			{
				"x": -1.4903044612,
				"y": 0.6972410239,
				"z": 0.3923432293,
				"element": "N" 
			},
			{
				"x": -1.0067084093,
				"y": 1.4782518581,
				"z": 1.4184692999,
				"element": "C" 
			},
			{
				"x": 0.364255189,
				"y": 1.463902171,
				"z": 1.4068713437,
				"element": "C" 
			},
			{
				"x": 0.7388726808,
				"y": 0.6605302303,
				"z": 0.353583145,
				"element": "O" 
			},
			{
				"x": 1.4206362698,
				"y": 2.0696193449,
				"z": 2.1972023281,
				"element": "C" 
			},
			{
				"x": 1.128313719,
				"y": 2.8892563616,
				"z": 3.2981267153,
				"element": "C" 
			},
			{
				"x": -0.1673247589,
				"y": 3.1116874237,
				"z": 3.6185781957,
				"element": "F" 
			},
			{
				"x": 2.1101388477,
				"y": 3.483382936,
				"z": 4.0753802969,
				"element": "C" 
			},
			{
				"x": 3.4511950452,
				"y": 3.26343821,
				"z": 3.7568979349,
				"element": "C" 
			},
			{
				"x": 3.7826610918,
				"y": 2.4541877139,
				"z": 2.6673315362,
				"element": "C" 
			},
			{
				"x": 2.7816618434,
				"y": 1.8661960127,
				"z": 1.8989578035,
				"element": "C" 
			},
			{
				"x": -3.0871252782,
				"y": 1.8489143577,
				"z": -2.3927064291,
				"element": "H" 
			},
			{
				"x": 1.5652153861,
				"y": -1.4485063255,
				"z": -0.6823007625,
				"element": "H" 
			},
			{
				"x": 1.7117985218,
				"y": -3.196413244,
				"z": -2.4271772268,
				"element": "H" 
			},
			{
				"x": -0.1730504121,
				"y": -3.5110170828,
				"z": -4.0288122868,
				"element": "H" 
			},
			{
				"x": -2.1482730715,
				"y": -1.9997372493,
				"z": -3.9067529224,
				"element": "H" 
			},
			{
				"x": -1.6608417113,
				"y": 1.9943880771,
				"z": 2.1020526964,
				"element": "H" 
			},
			{
				"x": 1.811506778,
				"y": 4.1049324145,
				"z": 4.912461056,
				"element": "H" 
			},
			{
				"x": 4.2293330788,
				"y": 3.7234130827,
				"z": 4.3577714538,
				"element": "H" 
			},
			{
				"x": 4.82387953,
				"y": 2.2809213786,
				"z": 2.4143971474,
				"element": "H" 
			},
			{
				"x": 3.0390195396,
				"y": 1.2406008881,
				"z": 1.0517550659,
				"element": "H" 
			}
		],
		 "valence_orbital": [ 
			{
				"type": "occ",
				"energy": -0.28133,
				"method": "rhf"
			},
			{
				"type": "occ",
				"energy": -0.2718,
				"method": "rhf"
			},
			{
				"type": "occ",
				"energy": -0.25906,
				"method": "rhf"
			},
			{
				"type": "occ",
				"energy": -0.25837,
				"method": "rhf"
			},
			{
				"type": "occ",
				"energy": -0.21461,
				"method": "rhf"
			},
			{
				"type": "unocc",
				"energy": -0.06293,
				"method": "rhf"
			},
			{
				"type": "unocc",
				"energy": -0.03464,
				"method": "rhf"
			},
			{
				"type": "unocc",
				"energy": -0.02054,
				"method": "rhf"
			},
			{
				"type": "unocc",
				"energy": -0.00987,
				"method": "rhf"
			},
			{
				"type": "unocc",
				"energy": 0.03443,
				"method": "rhf"
			}
		],
		"cosmo_sigma_profile": { 
			"-0.025": 0.0,
			"-0.024": 0.0,
			"-0.023": 0.0,
			"-0.022": 0.0,
			"-0.021": 0.0,
			"-0.02": 0.0,
			"-0.019": 0.0824898889348,
			"-0.018": 1.09779622955,
			"-0.017": 0.664336345455,
			"-0.016": 0.712876988789,
			"-0.015": 1.13978562089,
			"-0.014": 0.384708553209,
			"-0.013": 0.229823840724,
			"-0.012": 0.675692553097,
			"-0.011": 1.12668891705,
			"-0.01": 0.521275541438,
			"-0.009": 0.437042806821,
			"-0.008": 1.70509700248,
			"-0.007": 11.1323203509,
			"-0.006": 17.6461850117,
			"-0.005": 19.7648029929,
			"-0.004": 16.5198551187,
			"-0.003": 15.4868790393,
			"-0.002": 15.5396069082,
			"-0.001": 20.2478810325,
			"0.0": 31.5227819052,
			"0.001": 31.5684358879,
			"0.002": 30.9785956375,
			"0.003": 27.6663348028,
			"0.004": 17.613043427,
			"0.005": 5.30822955515,
			"0.006": 4.44612950459,
			"0.007": 5.21969225208,
			"0.008": 4.29374389597,
			"0.009": 4.19394436708,
			"0.01": 2.97459550085,
			"0.011": 5.34131651497,
			"0.012": 4.18894694284,
			"0.013": 0.967242653793,
			"0.014": 0.0483191455714,
			"0.015": 0.0,
			"0.016": 0.0,
			"0.017": 0.0,
			"0.018": 0.0,
			"0.019": 0.0,
			"0.02": 0.0,
			"0.021": 0.0,
			"0.022": 0.0,
			"0.023": 0.0,
			"0.024": 0.0,
			"0.025": 0.0
		}
	}
}
