{
	 "smiles": "CN1C(=O)C(C2=NNC(=O)C2=N/NC2=CC=C(Br)C=C2)=C(O)C2=CC=CC=C12", 
	 "Tm": 533.15, 
	 "num_atms": 42, 
	 "gaussian": { 
		 "optdone": 1, 
		 "sigma_profile": "yes", 
		 "theory": "DFT", 
		 "functional": "B3LYP", 
		 "basiset": "6-31G**", 
		 "properties": { 
			 "R2extent": 19007.6326, 
			 "electric_dipole_moment_norm": 2.63813216121, 
			 "electric_quadrupole_moment_norm": 15.9293463403, 
			 "total_energy": -3803.28467186, 
			 "HOMO_LUMO_gap": 0.11914, 
			 "cosmo_polarized_energy": -18.61, 
			 "cosmo_cavitation_energy": 48.93, 
			 "cosmo_dispersion_energy": -36.03, 
			 "cosmo_repulsion_energy": 2.64, 
			 "cosmo_total_nonelectrostatic_energy": 15.54, 
			 "SMD_solvation_energy": 7.04 
		},
		"coords": [
			{
				"x": -1.0660996427,
				"y": 2.6264354796,
				"z": 2.2695231721,
				"element": "C" 
			},
			{
				"x": -0.5791316189,
				"y": 2.718509297,
				"z": 0.8939268334,
				"element": "N" 
			},
			{
				"x": 0.229861587,
				"y": 1.654296465,
				"z": 0.4334781152,
				"element": "C" 
			},
			{
				"x": 0.5247085368,
				"y": 0.7360756966,
				"z": 1.1970120065,
				"element": "O" 
			},
			{
				"x": 0.6897937805,
				"y": 1.7354204491,
				"z": -0.9540715479,
				"element": "C" 
			},
			{
				"x": 1.4062828313,
				"y": 0.6119495153,
				"z": -1.5620190915,
				"element": "C" 
			},
			{
				"x": 2.1827853966,
				"y": 0.8428516486,
				"z": -2.609332478,
				"element": "N" 
			},
			{
				"x": 2.6558562153,
				"y": -0.3680574447,
				"z": -3.0789188769,
				"element": "N" 
			},
			{
				"x": 2.2269686627,
				"y": -1.4378031141,
				"z": -2.3423397018,
				"element": "C" 
			},
			{
				"x": 2.4909344119,
				"y": -2.6376645841,
				"z": -2.5134587309,
				"element": "O" 
			},
			{
				"x": 1.3567761468,
				"y": -0.8248491841,
				"z": -1.3223519463,
				"element": "C" 
			},
			{
				"x": 0.6223001972,
				"y": -1.4890312906,
				"z": -0.4591345382,
				"element": "N" 
			},
			{
				"x": 0.7092992211,
				"y": -2.7926201488,
				"z": -0.4629106785,
				"element": "N" 
			},
			{
				"x": -0.0204160074,
				"y": -3.5556022431,
				"z": 0.4615363758,
				"element": "C" 
			},
			{
				"x": -0.732518819,
				"y": -2.9441340698,
				"z": 1.5035669818,
				"element": "C" 
			},
			{
				"x": -1.4436904145,
				"y": -3.7346838297,
				"z": 2.3997653097,
				"element": "C" 
			},
			{
				"x": -1.4378179069,
				"y": -5.1244144857,
				"z": 2.2592734708,
				"element": "C" 
			},
			{
				"x": -2.4157932462,
				"y": -6.1999968071,
				"z": 3.4974289761,
				"element": "Br" 
			},
			{
				"x": -0.7240308972,
				"y": -5.7376505608,
				"z": 1.2311250383,
				"element": "C" 
			},
			{
				"x": -0.0136135544,
				"y": -4.9495254429,
				"z": 0.3288521778,
				"element": "C" 
			},
			{
				"x": 0.4886806772,
				"y": 2.8984270523,
				"z": -1.6875537659,
				"element": "C" 
			},
			{
				"x": 0.9979427661,
				"y": 3.0981240655,
				"z": -2.9035747885,
				"element": "O" 
			},
			{
				"x": -0.3294348107,
				"y": 3.969355134,
				"z": -1.1682072169,
				"element": "C" 
			},
			{
				"x": -0.5998967995,
				"y": 5.1189870446,
				"z": -1.9331547837,
				"element": "C" 
			},
			{
				"x": -1.4045366787,
				"y": 6.1299431869,
				"z": -1.4336645664,
				"element": "C" 
			},
			{
				"x": -1.9472473258,
				"y": 6.0001422272,
				"z": -0.1477429881,
				"element": "C" 
			},
			{
				"x": -1.6886611549,
				"y": 4.8786807182,
				"z": 0.629435566,
				"element": "C" 
			},
			{
				"x": -0.8725601486,
				"y": 3.8411890911,
				"z": 0.1335755815,
				"element": "C" 
			},
			{
				"x": -0.6785988812,
				"y": 1.6993320707,
				"z": 2.6846764977,
				"element": "H" 
			},
			{
				"x": -0.7063299323,
				"y": 3.4717459848,
				"z": 2.8644940062,
				"element": "H" 
			},
			{
				"x": -2.1605527988,
				"y": 2.612483044,
				"z": 2.2919257972,
				"element": "H" 
			},
			{
				"x": 3.3139689026,
				"y": -0.3842233973,
				"z": -3.8421156141,
				"element": "H" 
			},
			{
				"x": 1.3411074761,
				"y": -3.2385637543,
				"z": -1.1439505375,
				"element": "H" 
			},
			{
				"x": -0.7044017853,
				"y": -1.8646131336,
				"z": 1.6024573612,
				"element": "H" 
			},
			{
				"x": -1.9953884393,
				"y": -3.2742330698,
				"z": 3.2113465049,
				"element": "H" 
			},
			{
				"x": -0.7240032558,
				"y": -6.8169156639,
				"z": 1.132805819,
				"element": "H" 
			},
			{
				"x": 0.5408014562,
				"y": -5.4176569993,
				"z": -0.4798177498,
				"element": "H" 
			},
			{
				"x": 1.5964101379,
				"y": 2.327948586,
				"z": -3.1125464817,
				"element": "H" 
			},
			{
				"x": -0.1637202469,
				"y": 5.188357218,
				"z": -2.9227999389,
				"element": "H" 
			},
			{
				"x": -1.6109483441,
				"y": 7.0123975148,
				"z": -2.0304441234,
				"element": "H" 
			},
			{
				"x": -2.5794397999,
				"y": 6.7859079607,
				"z": 0.255798918,
				"element": "H" 
			},
			{
				"x": -2.1197458944,
				"y": 4.8085797738,
				"z": 1.6195056358,
				"element": "H" 
			}
		],
		 "valence_orbital": [ 
			{
				"type": "occ",
				"energy": -0.25959,
				"method": "rhf"
			},
			{
				"type": "occ",
				"energy": -0.24946,
				"method": "rhf"
			},
			{
				"type": "occ",
				"energy": -0.2278,
				"method": "rhf"
			},
			{
				"type": "occ",
				"energy": -0.21802,
				"method": "rhf"
			},
			{
				"type": "occ",
				"energy": -0.21135,
				"method": "rhf"
			},
			{
				"type": "unocc",
				"energy": -0.09221,
				"method": "rhf"
			},
			{
				"type": "unocc",
				"energy": -0.05155,
				"method": "rhf"
			},
			{
				"type": "unocc",
				"energy": -0.02055,
				"method": "rhf"
			},
			{
				"type": "unocc",
				"energy": -0.00967,
				"method": "rhf"
			},
			{
				"type": "unocc",
				"energy": 0.00031,
				"method": "rhf"
			}
		],
		"cosmo_sigma_profile": { 
			"-0.025": 0.0,
			"-0.024": 0.0,
			"-0.023": 0.0,
			"-0.022": 0.0,
			"-0.021": 0.0,
			"-0.02": 0.0,
			"-0.019": 0.0,
			"-0.018": 0.0,
			"-0.017": 0.609342424566,
			"-0.016": 1.47412856292,
			"-0.015": 1.48616504196,
			"-0.014": 1.14606056575,
			"-0.013": 0.622328010598,
			"-0.012": 1.20820137094,
			"-0.011": 2.33634660894,
			"-0.01": 2.10768581809,
			"-0.009": 2.31920912628,
			"-0.008": 4.21480144572,
			"-0.007": 9.78771982814,
			"-0.006": 18.9019825383,
			"-0.005": 20.1892082775,
			"-0.004": 25.2043367999,
			"-0.003": 24.9052026413,
			"-0.002": 29.2805219303,
			"-0.001": 32.2034729944,
			"0.0": 34.241242244,
			"0.001": 36.0936979339,
			"0.002": 40.3904382794,
			"0.003": 30.8423438809,
			"0.004": 26.3127270635,
			"0.005": 12.5309415808,
			"0.006": 6.95240137914,
			"0.007": 6.75978514495,
			"0.008": 5.17139644421,
			"0.009": 3.59643577628,
			"0.01": 3.36463551754,
			"0.011": 3.32319266278,
			"0.012": 4.2051375825,
			"0.013": 4.22049591822,
			"0.014": 1.70549377785,
			"0.015": 0.0610469845136,
			"0.016": 0.0,
			"0.017": 0.0,
			"0.018": 0.0,
			"0.019": 0.0,
			"0.02": 0.0,
			"0.021": 0.0,
			"0.022": 0.0,
			"0.023": 0.0,
			"0.024": 0.0,
			"0.025": 0.0
		}
	}
}
