{
	 "smiles": "FC1=CC2=NSN=C2C=C1Cl", 
	 "Tm": 351.15, 
	 "num_atms": 13, 
	 "gaussian": { 
		 "optdone": 1, 
		 "sigma_profile": "yes", 
		 "theory": "DFT", 
		 "functional": "B3LYP", 
		 "basiset": "6-31G**", 
		 "properties": { 
			 "R2extent": 3780.0613, 
			 "electric_dipole_moment_norm": 0.511027729189, 
			 "electric_quadrupole_moment_norm": 0.880741647704, 
			 "total_energy": -1297.52859502, 
			 "HOMO_LUMO_gap": 0.15584, 
			 "cosmo_polarized_energy": -5.07, 
			 "cosmo_cavitation_energy": 21.87, 
			 "cosmo_dispersion_energy": -17.29, 
			 "cosmo_repulsion_energy": 1.29, 
			 "cosmo_total_nonelectrostatic_energy": 5.87, 
			 "SMD_solvation_energy": 0.61 
		},
		"coords": [
			{
				"x": -1.6422881254,
				"y": 0.7944711616,
				"z": -0.8009559334,
				"element": "F" 
			},
			{
				"x": -0.7784989926,
				"y": -0.1678890149,
				"z": -1.1463777028,
				"element": "C" 
			},
			{
				"x": -1.2041039019,
				"y": -1.4618637533,
				"z": -1.2332050134,
				"element": "C" 
			},
			{
				"x": -0.245559135,
				"y": -2.446605351,
				"z": -1.6044814732,
				"element": "C" 
			},
			{
				"x": -0.4706083508,
				"y": -3.7578001673,
				"z": -1.7416289586,
				"element": "N" 
			},
			{
				"x": 0.9667400138,
				"y": -4.4257465904,
				"z": -2.1805092744,
				"element": "S" 
			},
			{
				"x": 1.9173576121,
				"y": -3.0862323457,
				"z": -2.2122195389,
				"element": "N" 
			},
			{
				"x": 1.1267241986,
				"y": -2.0606749304,
				"z": -1.8749599994,
				"element": "C" 
			},
			{
				"x": 1.5261873505,
				"y": -0.696978219,
				"z": -1.7718049613,
				"element": "C" 
			},
			{
				"x": 0.579751876,
				"y": 0.2246311069,
				"z": -1.4125681353,
				"element": "C" 
			},
			{
				"x": 0.9854625896,
				"y": 1.9123066393,
				"z": -1.2638411401,
				"element": "Cl" 
			},
			{
				"x": -2.2345488309,
				"y": -1.7229499262,
				"z": -1.0259498646,
				"element": "H" 
			},
			{
				"x": 2.5501836959,
				"y": -0.4077686095,
				"z": -1.9734980045,
				"element": "H" 
			}
		],
		 "valence_orbital": [ 
			{
				"type": "occ",
				"energy": -0.33631,
				"method": "rhf"
			},
			{
				"type": "occ",
				"energy": -0.33225,
				"method": "rhf"
			},
			{
				"type": "occ",
				"energy": -0.31289,
				"method": "rhf"
			},
			{
				"type": "occ",
				"energy": -0.26764,
				"method": "rhf"
			},
			{
				"type": "occ",
				"energy": -0.25592,
				"method": "rhf"
			},
			{
				"type": "unocc",
				"energy": -0.10008,
				"method": "rhf"
			},
			{
				"type": "unocc",
				"energy": -0.01306,
				"method": "rhf"
			},
			{
				"type": "unocc",
				"energy": -0.004,
				"method": "rhf"
			},
			{
				"type": "unocc",
				"energy": -0.00202,
				"method": "rhf"
			},
			{
				"type": "unocc",
				"energy": 0.01132,
				"method": "rhf"
			}
		],
		"cosmo_sigma_profile": { 
			"-0.025": 0.0,
			"-0.024": 0.0,
			"-0.023": 0.0,
			"-0.022": 0.0,
			"-0.021": 0.0,
			"-0.02": 0.0,
			"-0.019": 0.0,
			"-0.018": 0.0,
			"-0.017": 0.0,
			"-0.016": 0.0,
			"-0.015": 0.0,
			"-0.014": 0.0,
			"-0.013": 0.0,
			"-0.012": 0.0,
			"-0.011": 0.0,
			"-0.01": 0.460179558173,
			"-0.009": 3.02860181873,
			"-0.008": 2.91750853421,
			"-0.007": 2.55007009559,
			"-0.006": 3.09059160259,
			"-0.005": 6.2695118589,
			"-0.004": 9.640493396,
			"-0.003": 16.9177648721,
			"-0.002": 24.7471244286,
			"-0.001": 23.3214957953,
			"0.0": 19.4982462678,
			"0.001": 11.122086756,
			"0.002": 11.1307313195,
			"0.003": 21.0793351168,
			"0.004": 9.4023568914,
			"0.005": 2.33687990111,
			"0.006": 2.56884855735,
			"0.007": 2.37790645879,
			"0.008": 2.08193738823,
			"0.009": 1.49359551307,
			"0.01": 2.23033196166,
			"0.011": 1.96673382261,
			"0.012": 1.96470012709,
			"0.013": 0.54107129541,
			"0.014": 0.0,
			"0.015": 0.0,
			"0.016": 0.0,
			"0.017": 0.0,
			"0.018": 0.0,
			"0.019": 0.0,
			"0.02": 0.0,
			"0.021": 0.0,
			"0.022": 0.0,
			"0.023": 0.0,
			"0.024": 0.0,
			"0.025": 0.0
		}
	}
}
