{
	 "smiles": "CCN1CCNC1=O", 
	 "Tm": 349.15, 
	 "num_atms": 18, 
	 "gaussian": { 
		 "optdone": 1, 
		 "sigma_profile": "yes", 
		 "theory": "DFT", 
		 "functional": "B3LYP", 
		 "basiset": "6-31G**", 
		 "properties": { 
			 "R2extent": 1080.0552, 
			 "electric_dipole_moment_norm": 3.86361913884, 
			 "electric_quadrupole_moment_norm": 8.7652600047, 
			 "total_energy": -381.310806623, 
			 "HOMO_LUMO_gap": 0.29249, 
			 "cosmo_polarized_energy": -11.63, 
			 "cosmo_cavitation_energy": 20.41, 
			 "cosmo_dispersion_energy": -15.28, 
			 "cosmo_repulsion_energy": 1.29, 
			 "cosmo_total_nonelectrostatic_energy": 6.42, 
			 "SMD_solvation_energy": 2.33 
		},
		"coords": [
			{
				"x": 1.833224378,
				"y": -1.8766201643,
				"z": -1.3565901611,
				"element": "C" 
			},
			{
				"x": 2.0058384237,
				"y": -1.2607997782,
				"z": 0.0374360345,
				"element": "C" 
			},
			{
				"x": 0.9486836435,
				"y": -0.3401119366,
				"z": 0.4224051964,
				"element": "N" 
			},
			{
				"x": 0.7147787109,
				"y": 0.9361060895,
				"z": -0.2378166427,
				"element": "C" 
			},
			{
				"x": -0.5167482464,
				"y": 1.4627277245,
				"z": 0.5280482286,
				"element": "C" 
			},
			{
				"x": -1.1625684267,
				"y": 0.2128422875,
				"z": 0.9130131694,
				"element": "N" 
			},
			{
				"x": -0.2147511533,
				"y": -0.8059139601,
				"z": 1.0175276018,
				"element": "C" 
			},
			{
				"x": -0.3814621058,
				"y": -1.901328131,
				"z": 1.5300121254,
				"element": "O" 
			},
			{
				"x": 1.8231903712,
				"y": -1.114196837,
				"z": -2.1427547718,
				"element": "H" 
			},
			{
				"x": 2.6592794268,
				"y": -2.5626363837,
				"z": -1.5712685486,
				"element": "H" 
			},
			{
				"x": 0.8981412702,
				"y": -2.4418056463,
				"z": -1.4115492415,
				"element": "H" 
			},
			{
				"x": 2.007619255,
				"y": -2.0496562276,
				"z": 0.7940300936,
				"element": "H" 
			},
			{
				"x": 2.9640490459,
				"y": -0.7308700567,
				"z": 0.1053329184,
				"element": "H" 
			},
			{
				"x": 0.4852456151,
				"y": 0.8114046037,
				"z": -1.3071406692,
				"element": "H" 
			},
			{
				"x": 1.5790913596,
				"y": 1.6026790171,
				"z": -0.1486722811,
				"element": "H" 
			},
			{
				"x": -0.2044851818,
				"y": 2.0571453515,
				"z": 1.3996832348,
				"element": "H" 
			},
			{
				"x": -1.1621635962,
				"y": 2.0816499282,
				"z": -0.1015995593,
				"element": "H" 
			},
			{
				"x": -1.8891627897,
				"y": 0.2063841195,
				"z": 1.6148032724,
				"element": "H" 
			}
		],
		 "valence_orbital": [ 
			{
				"type": "occ",
				"energy": -0.3638,
				"method": "rhf"
			},
			{
				"type": "occ",
				"energy": -0.34478,
				"method": "rhf"
			},
			{
				"type": "occ",
				"energy": -0.25583,
				"method": "rhf"
			},
			{
				"type": "occ",
				"energy": -0.24412,
				"method": "rhf"
			},
			{
				"type": "occ",
				"energy": -0.22952,
				"method": "rhf"
			},
			{
				"type": "unocc",
				"energy": 0.06297,
				"method": "rhf"
			},
			{
				"type": "unocc",
				"energy": 0.08085,
				"method": "rhf"
			},
			{
				"type": "unocc",
				"energy": 0.0954,
				"method": "rhf"
			},
			{
				"type": "unocc",
				"energy": 0.11477,
				"method": "rhf"
			},
			{
				"type": "unocc",
				"energy": 0.12732,
				"method": "rhf"
			}
		],
		"cosmo_sigma_profile": { 
			"-0.025": 0.0,
			"-0.024": 0.0,
			"-0.023": 0.0,
			"-0.022": 0.0,
			"-0.021": 0.0,
			"-0.02": 0.0,
			"-0.019": 0.0,
			"-0.018": 0.0,
			"-0.017": 0.0,
			"-0.016": 0.0,
			"-0.015": 0.0,
			"-0.014": 0.0594234092971,
			"-0.013": 1.40837533393,
			"-0.012": 1.00576061677,
			"-0.011": 0.944308003823,
			"-0.01": 1.41309550588,
			"-0.009": 0.868434077546,
			"-0.008": 0.911730137432,
			"-0.007": 0.846555357028,
			"-0.006": 1.52415750276,
			"-0.005": 8.79970449153,
			"-0.004": 23.2886590099,
			"-0.003": 24.9782454839,
			"-0.002": 18.8599654733,
			"-0.001": 13.8071619035,
			"0.0": 11.8864860679,
			"0.001": 8.11359727812,
			"0.002": 4.53932657292,
			"0.003": 2.95001286303,
			"0.004": 2.58393493179,
			"0.005": 3.63825072022,
			"0.006": 3.21035525726,
			"0.007": 2.50723090641,
			"0.008": 2.06008686034,
			"0.009": 2.12194299317,
			"0.01": 2.23243290465,
			"0.011": 1.29822227073,
			"0.012": 1.49449978805,
			"0.013": 2.01136018793,
			"0.014": 5.61454267401,
			"0.015": 3.92521488265,
			"0.016": 0.202469002163,
			"0.017": 0.0,
			"0.018": 0.0,
			"0.019": 0.0,
			"0.02": 0.0,
			"0.021": 0.0,
			"0.022": 0.0,
			"0.023": 0.0,
			"0.024": 0.0,
			"0.025": 0.0
		}
	}
}
