{
	 "smiles": "CCCN(CCC)CCC1=CC=CC2=C1CC(=O)N2", 
	 "Tm": 519.65, 
	 "num_atms": 43, 
	 "gaussian": { 
		 "optdone": 1, 
		 "sigma_profile": "yes", 
		 "theory": "DFT", 
		 "functional": "B3LYP", 
		 "basiset": "6-31G**", 
		 "properties": { 
			 "R2extent": 6194.1077, 
			 "electric_dipole_moment_norm": 3.23401079466, 
			 "electric_quadrupole_moment_norm": 16.9931649015, 
			 "total_energy": -808.92134056, 
			 "HOMO_LUMO_gap": 0.20163, 
			 "cosmo_polarized_energy": -13.0, 
			 "cosmo_cavitation_energy": 43.16, 
			 "cosmo_dispersion_energy": -27.72, 
			 "cosmo_repulsion_energy": 2.15, 
			 "cosmo_total_nonelectrostatic_energy": 17.59, 
			 "SMD_solvation_energy": 6.65 
		},
		"coords": [
			{
				"x": 0.6858413002,
				"y": -3.925569188,
				"z": -1.3849148332,
				"element": "C" 
			},
			{
				"x": 2.1874713288,
				"y": -3.8203045632,
				"z": -1.1064162142,
				"element": "C" 
			},
			{
				"x": 2.5458570139,
				"y": -2.9777106831,
				"z": 0.1249159293,
				"element": "C" 
			},
			{
				"x": 2.2093292885,
				"y": -1.5505513607,
				"z": 0.0275069184,
				"element": "N" 
			},
			{
				"x": 2.9900550258,
				"y": -0.8583916597,
				"z": -1.0187805476,
				"element": "C" 
			},
			{
				"x": 2.1796354804,
				"y": -0.5081600257,
				"z": -2.2773160077,
				"element": "C" 
			},
			{
				"x": 1.0468399388,
				"y": 0.4870839824,
				"z": -2.0146235564,
				"element": "C" 
			},
			{
				"x": 2.2929589356,
				"y": -0.9060889916,
				"z": 1.3443296796,
				"element": "C" 
			},
			{
				"x": 1.0434413123,
				"y": -1.0956581448,
				"z": 2.2314851771,
				"element": "C" 
			},
			{
				"x": -0.1639855626,
				"y": -0.2813926067,
				"z": 1.8099883539,
				"element": "C" 
			},
			{
				"x": -0.1128426074,
				"y": 1.1279311775,
				"z": 1.8322086203,
				"element": "C" 
			},
			{
				"x": -1.20912994,
				"y": 1.9038656263,
				"z": 1.4632905962,
				"element": "C" 
			},
			{
				"x": -2.4137000408,
				"y": 1.3125163869,
				"z": 1.0611691514,
				"element": "C" 
			},
			{
				"x": -2.4651841331,
				"y": -0.0748909243,
				"z": 1.0531603817,
				"element": "C" 
			},
			{
				"x": -1.3628826938,
				"y": -0.8717600159,
				"z": 1.4210721524,
				"element": "C" 
			},
			{
				"x": -1.7753589814,
				"y": -2.319885377,
				"z": 1.3104211437,
				"element": "C" 
			},
			{
				"x": -3.2363028786,
				"y": -2.2536231882,
				"z": 0.8344489104,
				"element": "C" 
			},
			{
				"x": -3.9946745915,
				"y": -3.174916132,
				"z": 0.6043270273,
				"element": "O" 
			},
			{
				"x": -3.5399845973,
				"y": -0.9061101834,
				"z": 0.7122005376,
				"element": "N" 
			},
			{
				"x": 0.4895717843,
				"y": -4.5009281604,
				"z": -2.2954195788,
				"element": "H" 
			},
			{
				"x": 0.1695638062,
				"y": -4.4324719807,
				"z": -0.5611326801,
				"element": "H" 
			},
			{
				"x": 0.2376435785,
				"y": -2.9352644397,
				"z": -1.5047161608,
				"element": "H" 
			},
			{
				"x": 2.7046888206,
				"y": -3.4254912509,
				"z": -1.9889416525,
				"element": "H" 
			},
			{
				"x": 2.6019011777,
				"y": -4.8238797871,
				"z": -0.9453456461,
				"element": "H" 
			},
			{
				"x": 2.0126939793,
				"y": -3.3922219727,
				"z": 0.9889215093,
				"element": "H" 
			},
			{
				"x": 3.6265194984,
				"y": -3.1048981552,
				"z": 0.3390596259,
				"element": "H" 
			},
			{
				"x": 3.397962219,
				"y": 0.0729469845,
				"z": -0.6057967021,
				"element": "H" 
			},
			{
				"x": 3.8649947432,
				"y": -1.4636100099,
				"z": -1.3047206868,
				"element": "H" 
			},
			{
				"x": 1.7691386174,
				"y": -1.4249482335,
				"z": -2.715410097,
				"element": "H" 
			},
			{
				"x": 2.8748991862,
				"y": -0.0953719837,
				"z": -3.0215178689,
				"element": "H" 
			},
			{
				"x": 1.4371843028,
				"y": 1.4440901173,
				"z": -1.6478431284,
				"element": "H" 
			},
			{
				"x": 0.4770254202,
				"y": 0.6899838476,
				"z": -2.9274463459,
				"element": "H" 
			},
			{
				"x": 0.3584672464,
				"y": 0.0990723599,
				"z": -1.2591770889,
				"element": "H" 
			},
			{
				"x": 3.1767969177,
				"y": -1.2606820054,
				"z": 1.9091755028,
				"element": "H" 
			},
			{
				"x": 2.4369985397,
				"y": 0.1669117294,
				"z": 1.191697155,
				"element": "H" 
			},
			{
				"x": 0.7828435357,
				"y": -2.1570876884,
				"z": 2.2868732578,
				"element": "H" 
			},
			{
				"x": 1.3259908062,
				"y": -0.800790517,
				"z": 3.2513818439,
				"element": "H" 
			},
			{
				"x": 0.801674054,
				"y": 1.6209641198,
				"z": 2.151399806,
				"element": "H" 
			},
			{
				"x": -1.1332253395,
				"y": 2.9870811983,
				"z": 1.4922283387,
				"element": "H" 
			},
			{
				"x": -3.269939018,
				"y": 1.9157808999,
				"z": 0.7757382592,
				"element": "H" 
			},
			{
				"x": -1.7347461074,
				"y": -2.8682676403,
				"z": 2.2587331486,
				"element": "H" 
			},
			{
				"x": -1.1872851408,
				"y": -2.8898405384,
				"z": 0.5843052395,
				"element": "H" 
			},
			{
				"x": -4.4509462257,
				"y": -0.5922610222,
				"z": 0.4117805294,
				"element": "H" 
			}
		],
		 "valence_orbital": [ 
			{
				"type": "occ",
				"energy": -0.30002,
				"method": "rhf"
			},
			{
				"type": "occ",
				"energy": -0.25089,
				"method": "rhf"
			},
			{
				"type": "occ",
				"energy": -0.24259,
				"method": "rhf"
			},
			{
				"type": "occ",
				"energy": -0.21294,
				"method": "rhf"
			},
			{
				"type": "occ",
				"energy": -0.20915,
				"method": "rhf"
			},
			{
				"type": "unocc",
				"energy": -0.00752,
				"method": "rhf"
			},
			{
				"type": "unocc",
				"energy": -0.00101,
				"method": "rhf"
			},
			{
				"type": "unocc",
				"energy": 0.03847,
				"method": "rhf"
			},
			{
				"type": "unocc",
				"energy": 0.0786,
				"method": "rhf"
			},
			{
				"type": "unocc",
				"energy": 0.09034,
				"method": "rhf"
			}
		],
		"cosmo_sigma_profile": { 
			"-0.025": 0.0,
			"-0.024": 0.0,
			"-0.023": 0.0,
			"-0.022": 0.0,
			"-0.021": 0.0,
			"-0.02": 0.0,
			"-0.019": 0.0,
			"-0.018": 0.0,
			"-0.017": 0.0,
			"-0.016": 0.271303297883,
			"-0.015": 1.3233778163,
			"-0.014": 0.96310343371,
			"-0.013": 1.21419293475,
			"-0.012": 1.15307065887,
			"-0.011": 0.775748472657,
			"-0.01": 1.16370997675,
			"-0.009": 1.12944464564,
			"-0.008": 0.96285635899,
			"-0.007": 2.63043793063,
			"-0.006": 6.49454385476,
			"-0.005": 9.53443463165,
			"-0.004": 19.6301457951,
			"-0.003": 29.1000187693,
			"-0.002": 42.1848556043,
			"-0.001": 49.7138024379,
			"0.0": 47.4735592316,
			"0.001": 34.7878444569,
			"0.002": 20.555625478,
			"0.003": 16.8449037561,
			"0.004": 11.8074399357,
			"0.005": 8.29084184032,
			"0.006": 5.30564153412,
			"0.007": 2.71359556197,
			"0.008": 2.34221632677,
			"0.009": 2.7975803165,
			"0.01": 0.992666062962,
			"0.011": 2.22687531479,
			"0.012": 2.96119170939,
			"0.013": 5.79352583696,
			"0.014": 3.24333752009,
			"0.015": 0.182955818647,
			"0.016": 0.0,
			"0.017": 0.0,
			"0.018": 0.0,
			"0.019": 0.0,
			"0.02": 0.0,
			"0.021": 0.0,
			"0.022": 0.0,
			"0.023": 0.0,
			"0.024": 0.0,
			"0.025": 0.0
		}
	}
}
