{
	 "smiles": "BrC1=CNN=C1", 
	 "Tm": 367.65, 
	 "num_atms": 9, 
	 "gaussian": { 
		 "optdone": 1, 
		 "sigma_profile": "yes", 
		 "theory": "DFT", 
		 "functional": "B3LYP", 
		 "basiset": "6-31G**", 
		 "properties": { 
			 "R2extent": 1992.1905, 
			 "electric_dipole_moment_norm": 2.4982702616, 
			 "electric_quadrupole_moment_norm": 8.33206859309, 
			 "total_energy": -2796.99943423, 
			 "HOMO_LUMO_gap": 0.24568, 
			 "cosmo_polarized_energy": -9.09, 
			 "cosmo_cavitation_energy": 15.6, 
			 "cosmo_dispersion_energy": -12.41, 
			 "cosmo_repulsion_energy": 1.08, 
			 "cosmo_total_nonelectrostatic_energy": 4.27, 
			 "SMD_solvation_energy": 1.27 
		},
		"coords": [
			{
				"x": -2.1661089991,
				"y": -2.5695246895,
				"z": -0.6106606057,
				"element": "Br" 
			},
			{
				"x": -1.2565199637,
				"y": -0.9556946402,
				"z": -0.9505755606,
				"element": "C" 
			},
			{
				"x": -1.7902675478,
				"y": 0.317797915,
				"z": -0.9200698597,
				"element": "C" 
			},
			{
				"x": -0.7587497296,
				"y": 1.1445723293,
				"z": -1.2293639586,
				"element": "N" 
			},
			{
				"x": 0.4025464695,
				"y": 0.4963736608,
				"z": -1.4572757553,
				"element": "N" 
			},
			{
				"x": 0.1049443561,
				"y": -0.7898117433,
				"z": -1.2882105802,
				"element": "C" 
			},
			{
				"x": -2.7874778603,
				"y": 0.6711624415,
				"z": -0.7088593233,
				"element": "H" 
			},
			{
				"x": -0.7788043406,
				"y": 2.1499639147,
				"z": -1.3012158057,
				"element": "H" 
			},
			{
				"x": 0.8603376154,
				"y": -1.5525391882,
				"z": -1.4104685508,
				"element": "H" 
			}
		],
		 "valence_orbital": [ 
			{
				"type": "occ",
				"energy": -0.32831,
				"method": "rhf"
			},
			{
				"type": "occ",
				"energy": -0.31004,
				"method": "rhf"
			},
			{
				"type": "occ",
				"energy": -0.28267,
				"method": "rhf"
			},
			{
				"type": "occ",
				"energy": -0.26875,
				"method": "rhf"
			},
			{
				"type": "occ",
				"energy": -0.23943,
				"method": "rhf"
			},
			{
				"type": "unocc",
				"energy": 0.00625,
				"method": "rhf"
			},
			{
				"type": "unocc",
				"energy": 0.01332,
				"method": "rhf"
			},
			{
				"type": "unocc",
				"energy": 0.05652,
				"method": "rhf"
			},
			{
				"type": "unocc",
				"energy": 0.07989,
				"method": "rhf"
			},
			{
				"type": "unocc",
				"energy": 0.12842,
				"method": "rhf"
			}
		],
		"cosmo_sigma_profile": { 
			"-0.025": 0.0,
			"-0.024": 0.0,
			"-0.023": 0.0,
			"-0.022": 0.0,
			"-0.021": 0.0,
			"-0.02": 0.0,
			"-0.019": 0.0,
			"-0.018": 0.130701500664,
			"-0.017": 1.64513815488,
			"-0.016": 1.12601663085,
			"-0.015": 1.84708102765,
			"-0.014": 0.86609709622,
			"-0.013": 0.837117522753,
			"-0.012": 1.18034193494,
			"-0.011": 0.973404617506,
			"-0.01": 3.07836757316,
			"-0.009": 2.44550064217,
			"-0.008": 3.52032127933,
			"-0.007": 3.93768163535,
			"-0.006": 2.5184298775,
			"-0.005": 4.75751195618,
			"-0.004": 4.1426712686,
			"-0.003": 4.82615198735,
			"-0.002": 4.68251931864,
			"-0.001": 6.43799618781,
			"0.0": 7.10855806958,
			"0.001": 7.22785017039,
			"0.002": 12.2788776562,
			"0.003": 16.626387832,
			"0.004": 15.7239231786,
			"0.005": 7.73421997015,
			"0.006": 2.16833407573,
			"0.007": 1.0952668243,
			"0.008": 1.31702789736,
			"0.009": 1.78157846689,
			"0.01": 1.49810709643,
			"0.011": 1.09237948252,
			"0.012": 0.791045148,
			"0.013": 1.48864793456,
			"0.014": 1.06261298807,
			"0.015": 0.894039686476,
			"0.016": 0.114020872231,
			"0.017": 0.0,
			"0.018": 0.0,
			"0.019": 0.0,
			"0.02": 0.0,
			"0.021": 0.0,
			"0.022": 0.0,
			"0.023": 0.0,
			"0.024": 0.0,
			"0.025": 0.0
		}
	}
}
