{
	 "smiles": "FC(F)(F)C(F)(F)C(F)(F)F", 
	 "Tm": 125.15, 
	 "num_atms": 11, 
	 "gaussian": { 
		 "optdone": 1, 
		 "sigma_profile": "yes", 
		 "theory": "DFT", 
		 "functional": "B3LYP", 
		 "basiset": "6-31G**", 
		 "properties": { 
			 "R2extent": 1524.5891, 
			 "electric_dipole_moment_norm": 0.0843483254131, 
			 "electric_quadrupole_moment_norm": 0.183015627748, 
			 "total_energy": -913.026069666, 
			 "HOMO_LUMO_gap": 0.42056, 
			 "cosmo_polarized_energy": -0.8, 
			 "cosmo_cavitation_energy": 19.08, 
			 "cosmo_dispersion_energy": -12.9, 
			 "cosmo_repulsion_energy": 0.9, 
			 "cosmo_total_nonelectrostatic_energy": 7.07, 
			 "SMD_solvation_energy": 6.46 
		},
		"coords": [
			{
				"x": 0.349959937,
				"y": -1.4664206591,
				"z": -1.3163022857,
				"element": "F" 
			},
			{
				"x": 0.724944202,
				"y": -0.4185443916,
				"z": -0.5745830195,
				"element": "C" 
			},
			{
				"x": 2.060859518,
				"y": -0.4001574265,
				"z": -0.4900257652,
				"element": "F" 
			},
			{
				"x": 0.3097114687,
				"y": 0.7069265456,
				"z": -1.168762421,
				"element": "F" 
			},
			{
				"x": 0.0992296988,
				"y": -0.5451081356,
				"z": 0.833312331,
				"element": "C" 
			},
			{
				"x": -1.2445991466,
				"y": -0.5851166053,
				"z": 0.6921159412,
				"element": "F" 
			},
			{
				"x": 0.5273376271,
				"y": -1.7055087697,
				"z": 1.3788436771,
				"element": "F" 
			},
			{
				"x": 0.4437339933,
				"y": 0.6001261789,
				"z": 1.8128190274,
				"element": "C" 
			},
			{
				"x": -0.1565089254,
				"y": 0.3688963885,
				"z": 2.9854412715,
				"element": "F" 
			},
			{
				"x": 1.7668767627,
				"y": 0.6650318818,
				"z": 2.0058025153,
				"element": "F" 
			},
			{
				"x": 0.0154548646,
				"y": 1.7719749929,
				"z": 1.3275387278,
				"element": "F" 
			}
		],
		 "valence_orbital": [ 
			{
				"type": "occ",
				"energy": -0.43923,
				"method": "rhf"
			},
			{
				"type": "occ",
				"energy": -0.43036,
				"method": "rhf"
			},
			{
				"type": "occ",
				"energy": -0.42766,
				"method": "rhf"
			},
			{
				"type": "occ",
				"energy": -0.42484,
				"method": "rhf"
			},
			{
				"type": "occ",
				"energy": -0.37025,
				"method": "rhf"
			},
			{
				"type": "unocc",
				"energy": 0.05031,
				"method": "rhf"
			},
			{
				"type": "unocc",
				"energy": 0.05172,
				"method": "rhf"
			},
			{
				"type": "unocc",
				"energy": 0.15153,
				"method": "rhf"
			},
			{
				"type": "unocc",
				"energy": 0.15256,
				"method": "rhf"
			},
			{
				"type": "unocc",
				"energy": 0.17632,
				"method": "rhf"
			}
		],
		"cosmo_sigma_profile": { 
			"-0.025": 0.0,
			"-0.024": 0.0,
			"-0.023": 0.0,
			"-0.022": 0.0,
			"-0.021": 0.0,
			"-0.02": 0.0,
			"-0.019": 0.0,
			"-0.018": 0.0,
			"-0.017": 0.0,
			"-0.016": 0.0,
			"-0.015": 0.0,
			"-0.014": 0.0,
			"-0.013": 0.0,
			"-0.012": 0.0,
			"-0.011": 0.0,
			"-0.01": 0.0,
			"-0.009": 0.0,
			"-0.008": 0.0,
			"-0.007": 0.189306958442,
			"-0.006": 0.423585947239,
			"-0.005": 0.620328186363,
			"-0.004": 2.10563484775,
			"-0.003": 5.75083946609,
			"-0.002": 13.8945654233,
			"-0.001": 19.5443355528,
			"0.0": 38.4130297909,
			"0.001": 67.1106455008,
			"0.002": 5.64970990232,
			"0.003": 0.0,
			"0.004": 0.0,
			"0.005": 0.0,
			"0.006": 0.0,
			"0.007": 0.0,
			"0.008": 0.0,
			"0.009": 0.0,
			"0.01": 0.0,
			"0.011": 0.0,
			"0.012": 0.0,
			"0.013": 0.0,
			"0.014": 0.0,
			"0.015": 0.0,
			"0.016": 0.0,
			"0.017": 0.0,
			"0.018": 0.0,
			"0.019": 0.0,
			"0.02": 0.0,
			"0.021": 0.0,
			"0.022": 0.0,
			"0.023": 0.0,
			"0.024": 0.0,
			"0.025": 0.0
		}
	}
}
