{
	 "smiles": "OC(=O)C1=C(F)C=CC(Br)=C1", 
	 "Tm": 453.15, 
	 "num_atms": 15, 
	 "gaussian": { 
		 "optdone": 1, 
		 "sigma_profile": "yes", 
		 "theory": "DFT", 
		 "functional": "B3LYP", 
		 "basiset": "6-31G**", 
		 "properties": { 
			 "R2extent": 3148.0982, 
			 "electric_dipole_moment_norm": 4.71811302323, 
			 "electric_quadrupole_moment_norm": 7.67767451446, 
			 "total_energy": -3090.84991895, 
			 "HOMO_LUMO_gap": 0.19222, 
			 "cosmo_polarized_energy": -11.01, 
			 "cosmo_cavitation_energy": 22.64, 
			 "cosmo_dispersion_energy": -17.32, 
			 "cosmo_repulsion_energy": 1.36, 
			 "cosmo_total_nonelectrostatic_energy": 6.68, 
			 "SMD_solvation_energy": 4.37 
		},
		"coords": [
			{
				"x": 1.6436910516,
				"y": -1.6594329535,
				"z": -2.3335208766,
				"element": "O" 
			},
			{
				"x": 1.0617024368,
				"y": -1.6961841192,
				"z": -1.1194207877,
				"element": "C" 
			},
			{
				"x": 0.7033933735,
				"y": -2.744774318,
				"z": -0.6364611409,
				"element": "O" 
			},
			{
				"x": 0.8740667887,
				"y": -0.387565767,
				"z": -0.3886335427,
				"element": "C" 
			},
			{
				"x": 1.2494984439,
				"y": 0.8750939132,
				"z": -0.8539016745,
				"element": "C" 
			},
			{
				"x": 1.846057022,
				"y": 0.9984011642,
				"z": -2.0769572018,
				"element": "F" 
			},
			{
				"x": 1.0461484744,
				"y": 2.038918971,
				"z": -0.1270223623,
				"element": "C" 
			},
			{
				"x": 0.4407723186,
				"y": 1.9545680474,
				"z": 1.1248450353,
				"element": "C" 
			},
			{
				"x": 0.0550117024,
				"y": 0.7045727526,
				"z": 1.6151703337,
				"element": "C" 
			},
			{
				"x": -0.7732690059,
				"y": 0.5888066942,
				"z": 3.3283136846,
				"element": "Br" 
			},
			{
				"x": 0.2659806895,
				"y": -0.4513659141,
				"z": 0.8742307761,
				"element": "C" 
			},
			{
				"x": 1.8722318996,
				"y": -0.7491401779,
				"z": -2.5791064149,
				"element": "H" 
			},
			{
				"x": 1.3601404745,
				"y": 2.9895740705,
				"z": -0.5432574054,
				"element": "H" 
			},
			{
				"x": 0.2711437841,
				"y": 2.8496749401,
				"z": 1.7118052151,
				"element": "H" 
			},
			{
				"x": -0.0279694536,
				"y": -1.4271473034,
				"z": 1.2420163621,
				"element": "H" 
			}
		],
		 "valence_orbital": [ 
			{
				"type": "occ",
				"energy": -0.32152,
				"method": "rhf"
			},
			{
				"type": "occ",
				"energy": -0.30302,
				"method": "rhf"
			},
			{
				"type": "occ",
				"energy": -0.29195,
				"method": "rhf"
			},
			{
				"type": "occ",
				"energy": -0.2851,
				"method": "rhf"
			},
			{
				"type": "occ",
				"energy": -0.26275,
				"method": "rhf"
			},
			{
				"type": "unocc",
				"energy": -0.07053,
				"method": "rhf"
			},
			{
				"type": "unocc",
				"energy": -0.03686,
				"method": "rhf"
			},
			{
				"type": "unocc",
				"energy": -0.00973,
				"method": "rhf"
			},
			{
				"type": "unocc",
				"energy": 0.03557,
				"method": "rhf"
			},
			{
				"type": "unocc",
				"energy": 0.06483,
				"method": "rhf"
			}
		],
		"cosmo_sigma_profile": { 
			"-0.025": 0.0,
			"-0.024": 0.0,
			"-0.023": 0.0,
			"-0.022": 0.0,
			"-0.021": 0.0,
			"-0.02": 0.0,
			"-0.019": 0.0,
			"-0.018": 0.0,
			"-0.017": 0.0,
			"-0.016": 0.0,
			"-0.015": 0.0,
			"-0.014": 0.191686973748,
			"-0.013": 0.481568320449,
			"-0.012": 0.807042004853,
			"-0.011": 1.36228157919,
			"-0.01": 2.06018088999,
			"-0.009": 3.79341832531,
			"-0.008": 6.53140933224,
			"-0.007": 6.47610642857,
			"-0.006": 6.27937039083,
			"-0.005": 7.89394500474,
			"-0.004": 8.61602647734,
			"-0.003": 10.4001891533,
			"-0.002": 14.4297376306,
			"-0.001": 17.4979116358,
			"0.0": 22.3082822184,
			"0.001": 14.819259354,
			"0.002": 11.7096931355,
			"0.003": 10.5985098343,
			"0.004": 11.8059192566,
			"0.005": 3.21482964572,
			"0.006": 2.38041522321,
			"0.007": 2.37271140174,
			"0.008": 2.07325425764,
			"0.009": 4.14253592309,
			"0.01": 5.03184412628,
			"0.011": 5.28146608438,
			"0.012": 3.08552482228,
			"0.013": 0.658286785917,
			"0.014": 0.0,
			"0.015": 0.0,
			"0.016": 0.0,
			"0.017": 0.0,
			"0.018": 0.0,
			"0.019": 0.0,
			"0.02": 0.0,
			"0.021": 0.0,
			"0.022": 0.0,
			"0.023": 0.0,
			"0.024": 0.0,
			"0.025": 0.0
		}
	}
}
