{
	 "smiles": "CN(C)C(=O)C1=NC=CC(OC2=CC=C(N)C=C2)=C1", 
	 "Tm": 387.15, 
	 "num_atms": 34, 
	 "gaussian": { 
		 "optdone": 1, 
		 "sigma_profile": "yes", 
		 "theory": "DFT", 
		 "functional": "B3LYP", 
		 "basiset": "6-31G**", 
		 "properties": { 
			 "R2extent": 6926.7831, 
			 "electric_dipole_moment_norm": 2.98390113945, 
			 "electric_quadrupole_moment_norm": 20.1860895876, 
			 "total_energy": -857.23143026, 
			 "HOMO_LUMO_gap": 0.17132, 
			 "cosmo_polarized_energy": -16.86, 
			 "cosmo_cavitation_energy": 38.4, 
			 "cosmo_dispersion_energy": -27.27, 
			 "cosmo_repulsion_energy": 2.13, 
			 "cosmo_total_nonelectrostatic_energy": 13.25, 
			 "SMD_solvation_energy": 6.7 
		},
		"coords": [
			{
				"x": 4.0991210353,
				"y": 2.1280775385,
				"z": 0.5153068796,
				"element": "C" 
			},
			{
				"x": 3.5245061107,
				"y": 0.8826783964,
				"z": 1.0085646598,
				"element": "N" 
			},
			{
				"x": 4.4878693444,
				"y": -0.1973340149,
				"z": 1.1831602992,
				"element": "C" 
			},
			{
				"x": 2.1942305968,
				"y": 0.5650632381,
				"z": 1.1008038238,
				"element": "C" 
			},
			{
				"x": 1.8168265682,
				"y": -0.5942210867,
				"z": 1.2879888009,
				"element": "O" 
			},
			{
				"x": 1.1259734997,
				"y": 1.6430272553,
				"z": 1.0048647787,
				"element": "C" 
			},
			{
				"x": 1.3872726779,
				"y": 2.9009783517,
				"z": 1.3900194256,
				"element": "N" 
			},
			{
				"x": 0.3691697134,
				"y": 3.7730161799,
				"z": 1.359740957,
				"element": "C" 
			},
			{
				"x": -0.9188531636,
				"y": 3.4546983062,
				"z": 0.9495221654,
				"element": "C" 
			},
			{
				"x": -1.1764222568,
				"y": 2.1377333217,
				"z": 0.5482172369,
				"element": "C" 
			},
			{
				"x": -2.4508242346,
				"y": 1.8647433732,
				"z": 0.1463759488,
				"element": "O" 
			},
			{
				"x": -2.7967801086,
				"y": 0.5639110706,
				"z": -0.2299843745,
				"element": "C" 
			},
			{
				"x": -2.8649025748,
				"y": 0.2422072197,
				"z": -1.5834403346,
				"element": "C" 
			},
			{
				"x": -3.2932998044,
				"y": -1.0238819518,
				"z": -1.9740564103,
				"element": "C" 
			},
			{
				"x": -3.6563397858,
				"y": -1.9873487222,
				"z": -1.0163105901,
				"element": "C" 
			},
			{
				"x": -4.0285416105,
				"y": -3.2746165556,
				"z": -1.4049298036,
				"element": "N" 
			},
			{
				"x": -3.5820829805,
				"y": -1.640663473,
				"z": 0.3448722603,
				"element": "C" 
			},
			{
				"x": -3.1580186051,
				"y": -0.3738060651,
				"z": 0.7358557623,
				"element": "C" 
			},
			{
				"x": -0.1371108339,
				"y": 1.2080891689,
				"z": 0.5852232229,
				"element": "C" 
			},
			{
				"x": 4.6021367443,
				"y": 1.954268873,
				"z": -0.4464203197,
				"element": "H" 
			},
			{
				"x": 3.3342723796,
				"y": 2.8890979973,
				"z": 0.4050459972,
				"element": "H" 
			},
			{
				"x": 4.8485732532,
				"y": 2.4983250009,
				"z": 1.2256576765,
				"element": "H" 
			},
			{
				"x": 3.9876084186,
				"y": -1.0504413665,
				"z": 1.6365644317,
				"element": "H" 
			},
			{
				"x": 5.3077397476,
				"y": 0.1445556162,
				"z": 1.8251559536,
				"element": "H" 
			},
			{
				"x": 4.9131496522,
				"y": -0.5063856087,
				"z": 0.2182613401,
				"element": "H" 
			},
			{
				"x": 0.5985838458,
				"y": 4.786181158,
				"z": 1.6846694342,
				"element": "H" 
			},
			{
				"x": -1.7134712049,
				"y": 4.1923798757,
				"z": 0.9363889444,
				"element": "H" 
			},
			{
				"x": -2.5922576933,
				"y": 0.9878848058,
				"z": -2.3233600854,
				"element": "H" 
			},
			{
				"x": -3.3434831869,
				"y": -1.2726352037,
				"z": -3.0309512803,
				"element": "H" 
			},
			{
				"x": -4.5874338519,
				"y": -3.7843073953,
				"z": -0.734973567,
				"element": "H" 
			},
			{
				"x": -4.3957692448,
				"y": -3.3545921518,
				"z": -2.3428635745,
				"element": "H" 
			},
			{
				"x": -3.8569352136,
				"y": -2.3720612536,
				"z": 1.1003511466,
				"element": "H" 
			},
			{
				"x": -3.110818172,
				"y": -0.107644601,
				"z": 1.7869130945,
				"element": "H" 
			},
			{
				"x": -0.2799890615,
				"y": 0.1683227028,
				"z": 0.3246661001,
				"element": "H" 
			}
		],
		 "valence_orbital": [ 
			{
				"type": "occ",
				"energy": -0.25631,
				"method": "rhf"
			},
			{
				"type": "occ",
				"energy": -0.24673,
				"method": "rhf"
			},
			{
				"type": "occ",
				"energy": -0.23597,
				"method": "rhf"
			},
			{
				"type": "occ",
				"energy": -0.22552,
				"method": "rhf"
			},
			{
				"type": "occ",
				"energy": -0.20537,
				"method": "rhf"
			},
			{
				"type": "unocc",
				"energy": -0.03405,
				"method": "rhf"
			},
			{
				"type": "unocc",
				"energy": -0.0076,
				"method": "rhf"
			},
			{
				"type": "unocc",
				"energy": -0.0054,
				"method": "rhf"
			},
			{
				"type": "unocc",
				"energy": 0.01249,
				"method": "rhf"
			},
			{
				"type": "unocc",
				"energy": 0.0654,
				"method": "rhf"
			}
		],
		"cosmo_sigma_profile": { 
			"-0.025": 0.0,
			"-0.024": 0.0,
			"-0.023": 0.0,
			"-0.022": 0.0,
			"-0.021": 0.0,
			"-0.02": 0.0,
			"-0.019": 0.0,
			"-0.018": 0.0,
			"-0.017": 0.0,
			"-0.016": 0.0,
			"-0.015": 0.0,
			"-0.014": 0.0,
			"-0.013": 0.423168225331,
			"-0.012": 2.47629484031,
			"-0.011": 3.2572358244,
			"-0.01": 3.39471097447,
			"-0.009": 2.74794823795,
			"-0.008": 3.81395968752,
			"-0.007": 7.65455706377,
			"-0.006": 13.1698942411,
			"-0.005": 16.3819338082,
			"-0.004": 24.5441973652,
			"-0.003": 22.7073028342,
			"-0.002": 28.9940197891,
			"-0.001": 26.55371519,
			"0.0": 20.1428974865,
			"0.001": 23.9893953957,
			"0.002": 21.1898731573,
			"0.003": 15.2604734454,
			"0.004": 15.1211248017,
			"0.005": 14.944170249,
			"0.006": 6.70093789797,
			"0.007": 4.11594676477,
			"0.008": 6.05484580035,
			"0.009": 4.79829074046,
			"0.01": 2.14905967034,
			"0.011": 3.04136907419,
			"0.012": 3.19955809569,
			"0.013": 4.19738996569,
			"0.014": 4.51258518099,
			"0.015": 0.207102214401,
			"0.016": 0.0,
			"0.017": 0.0,
			"0.018": 0.0,
			"0.019": 0.0,
			"0.02": 0.0,
			"0.021": 0.0,
			"0.022": 0.0,
			"0.023": 0.0,
			"0.024": 0.0,
			"0.025": 0.0
		}
	}
}
