{
	 "smiles": "CCOC(=O)C1=C(C)N=C(Cl)S1", 
	 "Tm": 319.65, 
	 "num_atms": 20, 
	 "gaussian": { 
		 "optdone": 1, 
		 "sigma_profile": "yes", 
		 "theory": "DFT", 
		 "functional": "B3LYP", 
		 "basiset": "6-31G**", 
		 "properties": { 
			 "R2extent": 3976.1927, 
			 "electric_dipole_moment_norm": 2.40018360548, 
			 "electric_quadrupole_moment_norm": 3.3927541305, 
			 "total_energy": -1335.15366365, 
			 "HOMO_LUMO_gap": 0.18293, 
			 "cosmo_polarized_energy": -6.37, 
			 "cosmo_cavitation_energy": 28.01, 
			 "cosmo_dispersion_energy": -20.95, 
			 "cosmo_repulsion_energy": 1.67, 
			 "cosmo_total_nonelectrostatic_energy": 8.72, 
			 "SMD_solvation_energy": 3.89 
		},
		"coords": [
			{
				"x": -3.393748795,
				"y": 0.0482818581,
				"z": 0.8330073293,
				"element": "C" 
			},
			{
				"x": -2.5084969793,
				"y": 0.729956699,
				"z": 1.8648936403,
				"element": "C" 
			},
			{
				"x": -1.1480524617,
				"y": 0.8656475252,
				"z": 1.3836218477,
				"element": "O" 
			},
			{
				"x": -0.3269233398,
				"y": -0.1927844751,
				"z": 1.5782021843,
				"element": "C" 
			},
			{
				"x": -0.6557401572,
				"y": -1.2270363946,
				"z": 2.1300892641,
				"element": "O" 
			},
			{
				"x": 1.0141170504,
				"y": 0.0671464164,
				"z": 1.0427671474,
				"element": "C" 
			},
			{
				"x": 2.0993577884,
				"y": -0.788277121,
				"z": 1.068095768,
				"element": "C" 
			},
			{
				"x": 2.1308631928,
				"y": -2.1686686712,
				"z": 1.6538963732,
				"element": "C" 
			},
			{
				"x": 3.2437645316,
				"y": -0.2841903717,
				"z": 0.4883350476,
				"element": "N" 
			},
			{
				"x": 3.0396810112,
				"y": 0.9133698165,
				"z": 0.0361051781,
				"element": "C" 
			},
			{
				"x": 4.2660002059,
				"y": 1.8437282996,
				"z": -0.7534306421,
				"element": "Cl" 
			},
			{
				"x": 1.4436429143,
				"y": 1.5711948764,
				"z": 0.2583318183,
				"element": "S" 
			},
			{
				"x": -4.4286365234,
				"y": 0.0271287242,
				"z": 1.1903343795,
				"element": "H" 
			},
			{
				"x": -3.0682242525,
				"y": -0.9814786743,
				"z": 0.6666117713,
				"element": "H" 
			},
			{
				"x": -3.3698250654,
				"y": 0.5869649902,
				"z": -0.1187096467,
				"element": "H" 
			},
			{
				"x": -2.4923222389,
				"y": 0.1720379893,
				"z": 2.8038942671,
				"element": "H" 
			},
			{
				"x": -2.829526754,
				"y": 1.7562722424,
				"z": 2.0564628546,
				"element": "H" 
			},
			{
				"x": 3.1267100644,
				"y": -2.5927900577,
				"z": 1.5182761025,
				"element": "H" 
			},
			{
				"x": 1.3881364669,
				"y": -2.8141359686,
				"z": 1.1766645989,
				"element": "H" 
			},
			{
				"x": 1.8817233413,
				"y": -2.1485677032,
				"z": 2.7185507166,
				"element": "H" 
			}
		],
		 "valence_orbital": [ 
			{
				"type": "occ",
				"energy": -0.30895,
				"method": "rhf"
			},
			{
				"type": "occ",
				"energy": -0.29922,
				"method": "rhf"
			},
			{
				"type": "occ",
				"energy": -0.29749,
				"method": "rhf"
			},
			{
				"type": "occ",
				"energy": -0.28479,
				"method": "rhf"
			},
			{
				"type": "occ",
				"energy": -0.25148,
				"method": "rhf"
			},
			{
				"type": "unocc",
				"energy": -0.06855,
				"method": "rhf"
			},
			{
				"type": "unocc",
				"energy": -0.0065,
				"method": "rhf"
			},
			{
				"type": "unocc",
				"energy": 0.00598,
				"method": "rhf"
			},
			{
				"type": "unocc",
				"energy": 0.02061,
				"method": "rhf"
			},
			{
				"type": "unocc",
				"energy": 0.07765,
				"method": "rhf"
			}
		],
		"cosmo_sigma_profile": { 
			"-0.025": 0.0,
			"-0.024": 0.0,
			"-0.023": 0.0,
			"-0.022": 0.0,
			"-0.021": 0.0,
			"-0.02": 0.0,
			"-0.019": 0.0,
			"-0.018": 0.0,
			"-0.017": 0.0,
			"-0.016": 0.0,
			"-0.015": 0.0,
			"-0.014": 0.0,
			"-0.013": 0.0,
			"-0.012": 0.0,
			"-0.011": 0.0,
			"-0.01": 0.0,
			"-0.009": 0.0,
			"-0.008": 0.0,
			"-0.007": 0.134627114937,
			"-0.006": 2.56558224585,
			"-0.005": 9.58683431955,
			"-0.004": 19.0656382168,
			"-0.003": 28.7351921328,
			"-0.002": 29.1487758503,
			"-0.001": 33.2529879077,
			"0.0": 27.4517526191,
			"0.001": 18.7353348246,
			"0.002": 16.320098036,
			"0.003": 10.1302569879,
			"0.004": 6.97957960498,
			"0.005": 5.39839563124,
			"0.006": 2.95256142746,
			"0.007": 2.91868875687,
			"0.008": 2.0896989596,
			"0.009": 2.79452349734,
			"0.01": 2.99877586708,
			"0.011": 3.87998232855,
			"0.012": 1.87259520488,
			"0.013": 0.517427307189,
			"0.014": 0.00325464018634,
			"0.015": 0.0,
			"0.016": 0.0,
			"0.017": 0.0,
			"0.018": 0.0,
			"0.019": 0.0,
			"0.02": 0.0,
			"0.021": 0.0,
			"0.022": 0.0,
			"0.023": 0.0,
			"0.024": 0.0,
			"0.025": 0.0
		}
	}
}
