{
	 "smiles": "ClC1=CC(Cl)=C(Cl)C(N=C=S)=C1Cl", 
	 "Tm": 362.15, 
	 "num_atms": 14, 
	 "gaussian": { 
		 "optdone": 1, 
		 "sigma_profile": "yes", 
		 "theory": "DFT", 
		 "functional": "B3LYP", 
		 "basiset": "6-31G**", 
		 "properties": { 
			 "R2extent": 5508.5063, 
			 "electric_dipole_moment_norm": 2.19882842214, 
			 "electric_quadrupole_moment_norm": 2.26424737385, 
			 "total_energy": -2561.03058949, 
			 "HOMO_LUMO_gap": 0.17119, 
			 "cosmo_polarized_energy": -4.28, 
			 "cosmo_cavitation_energy": 29.35, 
			 "cosmo_dispersion_energy": -21.89, 
			 "cosmo_repulsion_energy": 1.71, 
			 "cosmo_total_nonelectrostatic_energy": 9.17, 
			 "SMD_solvation_energy": 4.53 
		},
		"coords": [
			{
				"x": 1.7019624494,
				"y": 4.1909263572,
				"z": 1.3008390273,
				"element": "Cl" 
			},
			{
				"x": 1.2609843203,
				"y": 2.5134425162,
				"z": 1.441578057,
				"element": "C" 
			},
			{
				"x": 1.1959748951,
				"y": 1.9507140731,
				"z": 2.7149104202,
				"element": "C" 
			},
			{
				"x": 0.8467646354,
				"y": 0.6110860499,
				"z": 2.8750994992,
				"element": "C" 
			},
			{
				"x": 0.7811899365,
				"y": -0.0387637617,
				"z": 4.4880531457,
				"element": "Cl" 
			},
			{
				"x": 0.5574010856,
				"y": -0.1850914077,
				"z": 1.7617092708,
				"element": "C" 
			},
			{
				"x": 0.1197216993,
				"y": -1.8532001234,
				"z": 1.9251865306,
				"element": "Cl" 
			},
			{
				"x": 0.6222606384,
				"y": 0.3813043002,
				"z": 0.4664919271,
				"element": "C" 
			},
			{
				"x": 0.3449163774,
				"y": -0.3776019885,
				"z": -0.6207550319,
				"element": "N" 
			},
			{
				"x": 0.1013487853,
				"y": -1.0445013249,
				"z": -1.5761322473,
				"element": "C" 
			},
			{
				"x": -0.220463688,
				"y": -1.9320505831,
				"z": -2.8485307996,
				"element": "S" 
			},
			{
				"x": 0.9771712801,
				"y": 1.7422484828,
				"z": 0.3093618377,
				"element": "C" 
			},
			{
				"x": 1.0482992044,
				"y": 2.4101460675,
				"z": -1.2874027694,
				"element": "Cl" 
			},
			{
				"x": 1.4178683808,
				"y": 2.5571413424,
				"z": 3.5837911327,
				"element": "H" 
			}
		],
		 "valence_orbital": [ 
			{
				"type": "occ",
				"energy": -0.32972,
				"method": "rhf"
			},
			{
				"type": "occ",
				"energy": -0.30582,
				"method": "rhf"
			},
			{
				"type": "occ",
				"energy": -0.27091,
				"method": "rhf"
			},
			{
				"type": "occ",
				"energy": -0.26743,
				"method": "rhf"
			},
			{
				"type": "occ",
				"energy": -0.25126,
				"method": "rhf"
			},
			{
				"type": "unocc",
				"energy": -0.08007,
				"method": "rhf"
			},
			{
				"type": "unocc",
				"energy": -0.0562,
				"method": "rhf"
			},
			{
				"type": "unocc",
				"energy": -0.03886,
				"method": "rhf"
			},
			{
				"type": "unocc",
				"energy": -0.01969,
				"method": "rhf"
			},
			{
				"type": "unocc",
				"energy": 0.00603,
				"method": "rhf"
			}
		],
		"cosmo_sigma_profile": { 
			"-0.025": 0.0,
			"-0.024": 0.0,
			"-0.023": 0.0,
			"-0.022": 0.0,
			"-0.021": 0.0,
			"-0.02": 0.0,
			"-0.019": 0.0,
			"-0.018": 0.0,
			"-0.017": 0.0,
			"-0.016": 0.0,
			"-0.015": 0.0,
			"-0.014": 0.0,
			"-0.013": 0.0,
			"-0.012": 0.0,
			"-0.011": 0.0,
			"-0.01": 0.983817484847,
			"-0.009": 1.54913956106,
			"-0.008": 1.20467997596,
			"-0.007": 1.68621900684,
			"-0.006": 1.97572652845,
			"-0.005": 3.1015100108,
			"-0.004": 14.578211618,
			"-0.003": 24.7273547948,
			"-0.002": 31.4611324642,
			"-0.001": 27.5555490417,
			"0.0": 26.0761052785,
			"0.001": 26.5238345781,
			"0.002": 30.8884330731,
			"0.003": 33.138152654,
			"0.004": 18.5815431171,
			"0.005": 6.62889183564,
			"0.006": 0.0,
			"0.007": 0.0,
			"0.008": 0.0,
			"0.009": 0.0,
			"0.01": 0.0,
			"0.011": 0.0,
			"0.012": 0.0,
			"0.013": 0.0,
			"0.014": 0.0,
			"0.015": 0.0,
			"0.016": 0.0,
			"0.017": 0.0,
			"0.018": 0.0,
			"0.019": 0.0,
			"0.02": 0.0,
			"0.021": 0.0,
			"0.022": 0.0,
			"0.023": 0.0,
			"0.024": 0.0,
			"0.025": 0.0
		}
	}
}
