{
	 "smiles": "COC1=CC=C(C=C1)C1=CC2=CC=CC=C2C=N1", 
	 "Tm": 372.35, 
	 "num_atms": 31, 
	 "gaussian": { 
		 "optdone": 1, 
		 "sigma_profile": "yes", 
		 "theory": "DFT", 
		 "functional": "B3LYP", 
		 "basiset": "6-31G**", 
		 "properties": { 
			 "R2extent": 6904.0889, 
			 "electric_dipole_moment_norm": 0.597886820393, 
			 "electric_quadrupole_moment_norm": 20.5081508106, 
			 "total_energy": -747.517170911, 
			 "HOMO_LUMO_gap": 0.14838, 
			 "cosmo_polarized_energy": -10.1, 
			 "cosmo_cavitation_energy": 34.82, 
			 "cosmo_dispersion_energy": -25.91, 
			 "cosmo_repulsion_energy": 1.94, 
			 "cosmo_total_nonelectrostatic_energy": 10.84, 
			 "SMD_solvation_energy": 5.29 
		},
		"coords": [
			{
				"x": 5.5930522207,
				"y": -0.7813467792,
				"z": 1.5901637383,
				"element": "C" 
			},
			{
				"x": 4.8781548586,
				"y": 0.0176528787,
				"z": 0.6608395015,
				"element": "O" 
			},
			{
				"x": 3.5151260981,
				"y": -0.0119984457,
				"z": 0.6987843845,
				"element": "C" 
			},
			{
				"x": 2.8605485089,
				"y": 0.7872802247,
				"z": -0.2512593885,
				"element": "C" 
			},
			{
				"x": 1.4753064404,
				"y": 0.8279655731,
				"z": -0.294335282,
				"element": "C" 
			},
			{
				"x": 0.6910852084,
				"y": 0.0799629492,
				"z": 0.6056839982,
				"element": "C" 
			},
			{
				"x": 1.3631355524,
				"y": -0.7224071733,
				"z": 1.5388240193,
				"element": "C" 
			},
			{
				"x": 2.7554738747,
				"y": -0.7725689901,
				"z": 1.595735701,
				"element": "C" 
			},
			{
				"x": -0.7913072837,
				"y": 0.1149762518,
				"z": 0.588856106,
				"element": "C" 
			},
			{
				"x": -1.5159234016,
				"y": 1.089478704,
				"z": -0.0797717464,
				"element": "C" 
			},
			{
				"x": -2.9312263144,
				"y": 1.0640638287,
				"z": -0.074487697,
				"element": "C" 
			},
			{
				"x": -3.7386121332,
				"y": 2.0240693102,
				"z": -0.7439108094,
				"element": "C" 
			},
			{
				"x": -5.111933932,
				"y": 1.9337351959,
				"z": -0.6935355035,
				"element": "C" 
			},
			{
				"x": -5.7461853289,
				"y": 0.8881477201,
				"z": 0.0249205344,
				"element": "C" 
			},
			{
				"x": -4.9892976285,
				"y": -0.0541227027,
				"z": 0.6857391176,
				"element": "C" 
			},
			{
				"x": -3.5743200345,
				"y": 0.0159644021,
				"z": 0.6499025534,
				"element": "C" 
			},
			{
				"x": -2.7313278295,
				"y": -0.9142117926,
				"z": 1.317626038,
				"element": "C" 
			},
			{
				"x": -1.4199043944,
				"y": -0.879799144,
				"z": 1.2967056895,
				"element": "N" 
			},
			{
				"x": 5.3682310299,
				"y": -1.8482838868,
				"z": 1.4645053538,
				"element": "H" 
			},
			{
				"x": 5.3767145371,
				"y": -0.4899374653,
				"z": 2.6260410091,
				"element": "H" 
			},
			{
				"x": 6.650840645,
				"y": -0.6110055778,
				"z": 1.3834952423,
				"element": "H" 
			},
			{
				"x": 3.462353289,
				"y": 1.3588044134,
				"z": -0.950317315,
				"element": "H" 
			},
			{
				"x": 1.0012721062,
				"y": 1.4370933648,
				"z": -1.0574696655,
				"element": "H" 
			},
			{
				"x": 0.7718106565,
				"y": -1.3145278601,
				"z": 2.2276501871,
				"element": "H" 
			},
			{
				"x": 3.2325567652,
				"y": -1.402373744,
				"z": 2.3374699611,
				"element": "H" 
			},
			{
				"x": -1.0125149284,
				"y": 1.8951027244,
				"z": -0.6039964081,
				"element": "H" 
			},
			{
				"x": -3.2570827786,
				"y": 2.8267388826,
				"z": -1.2960994134,
				"element": "H" 
			},
			{
				"x": -5.7212628977,
				"y": 2.6706363152,
				"z": -1.2092201413,
				"element": "H" 
			},
			{
				"x": -6.8305313745,
				"y": 0.8367415869,
				"z": 0.0512517592,
				"element": "H" 
			},
			{
				"x": -5.4644433072,
				"y": -0.8589488485,
				"z": 1.2410588396,
				"element": "H" 
			},
			{
				"x": -3.1896882239,
				"y": -1.7208819158,
				"z": 1.8926496363,
				"element": "H" 
			}
		],
		 "valence_orbital": [ 
			{
				"type": "occ",
				"energy": -0.26256,
				"method": "rhf"
			},
			{
				"type": "occ",
				"energy": -0.25023,
				"method": "rhf"
			},
			{
				"type": "occ",
				"energy": -0.24706,
				"method": "rhf"
			},
			{
				"type": "occ",
				"energy": -0.23626,
				"method": "rhf"
			},
			{
				"type": "occ",
				"energy": -0.19874,
				"method": "rhf"
			},
			{
				"type": "unocc",
				"energy": -0.05036,
				"method": "rhf"
			},
			{
				"type": "unocc",
				"energy": -0.03169,
				"method": "rhf"
			},
			{
				"type": "unocc",
				"energy": 0.00354,
				"method": "rhf"
			},
			{
				"type": "unocc",
				"energy": 0.02048,
				"method": "rhf"
			},
			{
				"type": "unocc",
				"energy": 0.03784,
				"method": "rhf"
			}
		],
		"cosmo_sigma_profile": { 
			"-0.025": 0.0,
			"-0.024": 0.0,
			"-0.023": 0.0,
			"-0.022": 0.0,
			"-0.021": 0.0,
			"-0.02": 0.0,
			"-0.019": 0.0,
			"-0.018": 0.0,
			"-0.017": 0.0,
			"-0.016": 0.0,
			"-0.015": 0.0,
			"-0.014": 0.0,
			"-0.013": 0.0,
			"-0.012": 0.0,
			"-0.011": 0.0,
			"-0.01": 0.0,
			"-0.009": 0.0,
			"-0.008": 0.442980319282,
			"-0.007": 5.94934675589,
			"-0.006": 22.4761146179,
			"-0.005": 24.9229229103,
			"-0.004": 25.1311823898,
			"-0.003": 21.6414592848,
			"-0.002": 16.4577444327,
			"-0.001": 11.8715096614,
			"0.0": 14.627854503,
			"0.001": 16.9744618006,
			"0.002": 24.9761081279,
			"0.003": 32.528815085,
			"0.004": 23.8972307349,
			"0.005": 17.3580174131,
			"0.006": 6.03631751005,
			"0.007": 3.12062481793,
			"0.008": 2.63567554979,
			"0.009": 3.24759602704,
			"0.01": 2.54325022293,
			"0.011": 1.21597885396,
			"0.012": 0.909791044647,
			"0.013": 0.567711531719,
			"0.014": 0.0326092592535,
			"0.015": 0.0,
			"0.016": 0.0,
			"0.017": 0.0,
			"0.018": 0.0,
			"0.019": 0.0,
			"0.02": 0.0,
			"0.021": 0.0,
			"0.022": 0.0,
			"0.023": 0.0,
			"0.024": 0.0,
			"0.025": 0.0
		}
	}
}
