{
	 "smiles": "CC1=CC=CC(=C1)C(=O)CC#N", 
	 "Tm": 347.15, 
	 "num_atms": 21, 
	 "gaussian": { 
		 "optdone": 1, 
		 "sigma_profile": "yes", 
		 "theory": "DFT", 
		 "functional": "B3LYP", 
		 "basiset": "6-31G**", 
		 "properties": { 
			 "R2extent": 2794.5527, 
			 "electric_dipole_moment_norm": 4.10760215211, 
			 "electric_quadrupole_moment_norm": 16.1227023535, 
			 "total_energy": -516.448762015, 
			 "HOMO_LUMO_gap": 0.1872, 
			 "cosmo_polarized_energy": -12.33, 
			 "cosmo_cavitation_energy": 26.27, 
			 "cosmo_dispersion_energy": -18.31, 
			 "cosmo_repulsion_energy": 1.47, 
			 "cosmo_total_nonelectrostatic_energy": 9.43, 
			 "SMD_solvation_energy": 6.47 
		},
		"coords": [
			{
				"x": 0.9132251797,
				"y": 1.5461475798,
				"z": -3.8093355911,
				"element": "C" 
			},
			{
				"x": 1.0050864144,
				"y": 1.0044269058,
				"z": -2.4022435389,
				"element": "C" 
			},
			{
				"x": 1.8787880681,
				"y": -0.0537279688,
				"z": -2.0984663283,
				"element": "C" 
			},
			{
				"x": 1.9775123123,
				"y": -0.5585998194,
				"z": -0.803319399,
				"element": "C" 
			},
			{
				"x": 1.202549271,
				"y": -0.0174504544,
				"z": 0.2222111034,
				"element": "C" 
			},
			{
				"x": 0.3229201097,
				"y": 1.038002385,
				"z": -0.0575366976,
				"element": "C" 
			},
			{
				"x": 0.2346422282,
				"y": 1.5359952118,
				"z": -1.3694352944,
				"element": "C" 
			},
			{
				"x": -0.5510953724,
				"y": 1.6612311005,
				"z": 0.9740129906,
				"element": "C" 
			},
			{
				"x": -1.3442224498,
				"y": 2.5466792386,
				"z": 0.7107867213,
				"element": "O" 
			},
			{
				"x": -0.4939355314,
				"y": 1.1440459374,
				"z": 2.436313497,
				"element": "C" 
			},
			{
				"x": 0.7909267828,
				"y": 1.3677378021,
				"z": 3.0975469352,
				"element": "C" 
			},
			{
				"x": 1.8132699848,
				"y": 1.5511342491,
				"z": 3.6161350816,
				"element": "N" 
			},
			{
				"x": 0.1577709453,
				"y": 2.3322078493,
				"z": -3.8847612448,
				"element": "H" 
			},
			{
				"x": 0.6512335939,
				"y": 0.7571247644,
				"z": -4.523105253,
				"element": "H" 
			},
			{
				"x": 1.8707196924,
				"y": 1.9693878695,
				"z": -4.1339701894,
				"element": "H" 
			},
			{
				"x": 2.4892171725,
				"y": -0.4841980891,
				"z": -2.8888599226,
				"element": "H" 
			},
			{
				"x": 2.6617143041,
				"y": -1.3742243771,
				"z": -0.5900597553,
				"element": "H" 
			},
			{
				"x": 1.3006503156,
				"y": -0.4140549968,
				"z": 1.2267695514,
				"element": "H" 
			},
			{
				"x": -0.4558534765,
				"y": 2.3520389719,
				"z": -1.5578115779,
				"element": "H" 
			},
			{
				"x": -0.7237944721,
				"y": 0.0719090626,
				"z": 2.4606538238,
				"element": "H" 
			},
			{
				"x": -1.2799250725,
				"y": 1.6735867778,
				"z": 2.9805750882,
				"element": "H" 
			}
		],
		 "valence_orbital": [ 
			{
				"type": "occ",
				"energy": -0.34017,
				"method": "rhf"
			},
			{
				"type": "occ",
				"energy": -0.33009,
				"method": "rhf"
			},
			{
				"type": "occ",
				"energy": -0.26945,
				"method": "rhf"
			},
			{
				"type": "occ",
				"energy": -0.26784,
				"method": "rhf"
			},
			{
				"type": "occ",
				"energy": -0.2608,
				"method": "rhf"
			},
			{
				"type": "unocc",
				"energy": -0.0736,
				"method": "rhf"
			},
			{
				"type": "unocc",
				"energy": -0.01584,
				"method": "rhf"
			},
			{
				"type": "unocc",
				"energy": 0.0157,
				"method": "rhf"
			},
			{
				"type": "unocc",
				"energy": 0.03047,
				"method": "rhf"
			},
			{
				"type": "unocc",
				"energy": 0.04041,
				"method": "rhf"
			}
		],
		"cosmo_sigma_profile": { 
			"-0.025": 0.0,
			"-0.024": 0.0,
			"-0.023": 0.0,
			"-0.022": 0.0,
			"-0.021": 0.0,
			"-0.02": 0.0,
			"-0.019": 0.0,
			"-0.018": 0.0,
			"-0.017": 0.0,
			"-0.016": 0.0,
			"-0.015": 0.0,
			"-0.014": 0.0,
			"-0.013": 0.0,
			"-0.012": 0.0,
			"-0.011": 0.707858648062,
			"-0.01": 3.73240967929,
			"-0.009": 5.19324009478,
			"-0.008": 4.9287495099,
			"-0.007": 6.38759504836,
			"-0.006": 10.442671173,
			"-0.005": 14.1511940072,
			"-0.004": 16.0341018678,
			"-0.003": 16.1793486955,
			"-0.002": 13.084396402,
			"-0.001": 15.2942117519,
			"0.0": 16.1211690777,
			"0.001": 12.0844378277,
			"0.002": 13.2376774111,
			"0.003": 14.009351177,
			"0.004": 10.5681878014,
			"0.005": 3.83210048855,
			"0.006": 3.59639290754,
			"0.007": 4.5156806696,
			"0.008": 4.63546473219,
			"0.009": 5.40776069656,
			"0.01": 6.24951863112,
			"0.011": 6.24690838212,
			"0.012": 2.72310229547,
			"0.013": 1.25454706757,
			"0.014": 0.013893169524,
			"0.015": 0.0,
			"0.016": 0.0,
			"0.017": 0.0,
			"0.018": 0.0,
			"0.019": 0.0,
			"0.02": 0.0,
			"0.021": 0.0,
			"0.022": 0.0,
			"0.023": 0.0,
			"0.024": 0.0,
			"0.025": 0.0
		}
	}
}
