{
	 "smiles": "CC(=O)C1=CC(=CC=C1)N(S(C)(=O)=O)S(C)(=O)=O", 
	 "Tm": 459.15, 
	 "num_atms": 31, 
	 "gaussian": { 
		 "optdone": 1, 
		 "sigma_profile": "yes", 
		 "theory": "DFT", 
		 "functional": "B3LYP", 
		 "basiset": "6-31G**", 
		 "properties": { 
			 "R2extent": 6907.4064, 
			 "electric_dipole_moment_norm": 5.30938004479, 
			 "electric_quadrupole_moment_norm": 29.7183673564, 
			 "total_energy": -1616.0031254, 
			 "HOMO_LUMO_gap": 0.18946, 
			 "cosmo_polarized_energy": -25.3, 
			 "cosmo_cavitation_energy": 37.54, 
			 "cosmo_dispersion_energy": -26.0, 
			 "cosmo_repulsion_energy": 1.93, 
			 "cosmo_total_nonelectrostatic_energy": 13.46, 
			 "SMD_solvation_energy": 6.53 
		},
		"coords": [
			{
				"x": 0.0795198777,
				"y": 0.1027525173,
				"z": 3.4469776217,
				"element": "C" 
			},
			{
				"x": 0.7225200526,
				"y": 1.1317911682,
				"z": 2.5336076711,
				"element": "C" 
			},
			{
				"x": 1.0335630424,
				"y": 2.2340830865,
				"z": 2.9558483419,
				"element": "O" 
			},
			{
				"x": 0.9666892912,
				"y": 0.7740896497,
				"z": 1.0950882516,
				"element": "C" 
			},
			{
				"x": 0.6730221655,
				"y": -0.4902344062,
				"z": 0.5705115761,
				"element": "C" 
			},
			{
				"x": 0.9164647928,
				"y": -0.7649076195,
				"z": -0.7775385565,
				"element": "C" 
			},
			{
				"x": 1.4414847578,
				"y": 0.2226669721,
				"z": -1.6196119254,
				"element": "C" 
			},
			{
				"x": 1.739781095,
				"y": 1.4816715147,
				"z": -1.0952178949,
				"element": "C" 
			},
			{
				"x": 1.5073612964,
				"y": 1.7555377579,
				"z": 0.2491963435,
				"element": "C" 
			},
			{
				"x": 0.5908306073,
				"y": -2.0857767342,
				"z": -1.2722508788,
				"element": "N" 
			},
			{
				"x": -0.9378936191,
				"y": -2.1623643871,
				"z": -2.1797755551,
				"element": "S" 
			},
			{
				"x": -1.5809167759,
				"y": -3.7737512916,
				"z": -1.7114862856,
				"element": "C" 
			},
			{
				"x": -0.6704771654,
				"y": -2.1395621043,
				"z": -3.6149496113,
				"element": "O" 
			},
			{
				"x": -1.7567882937,
				"y": -1.129940086,
				"z": -1.5492795266,
				"element": "O" 
			},
			{
				"x": 1.926881095,
				"y": -3.0529809269,
				"z": -1.8290215771,
				"element": "S" 
			},
			{
				"x": 2.7251196457,
				"y": -3.4138204701,
				"z": -0.2552022713,
				"element": "C" 
			},
			{
				"x": 1.3360608979,
				"y": -4.2859304359,
				"z": -2.3527186757,
				"element": "O" 
			},
			{
				"x": 2.8591749601,
				"y": -2.2676948711,
				"z": -2.6349893818,
				"element": "O" 
			},
			{
				"x": 0.692988262,
				"y": -0.8027398377,
				"z": 3.5149455136,
				"element": "H" 
			},
			{
				"x": -0.9048706241,
				"y": -0.1954357307,
				"z": 3.0696997805,
				"element": "H" 
			},
			{
				"x": -0.0292083043,
				"y": 0.538474876,
				"z": 4.4403134185,
				"element": "H" 
			},
			{
				"x": 0.2453720824,
				"y": -1.2716412905,
				"z": 1.1885411925,
				"element": "H" 
			},
			{
				"x": 1.6197676537,
				"y": -0.005151412,
				"z": -2.6640149766,
				"element": "H" 
			},
			{
				"x": 2.1501391922,
				"y": 2.2488339784,
				"z": -1.7443153465,
				"element": "H" 
			},
			{
				"x": 1.7303860461,
				"y": 2.7280211167,
				"z": 0.6749328851,
				"element": "H" 
			},
			{
				"x": -1.7136632423,
				"y": -3.7871103303,
				"z": -0.6299773981,
				"element": "H" 
			},
			{
				"x": -0.8841609687,
				"y": -4.5380575593,
				"z": -2.0497620891,
				"element": "H" 
			},
			{
				"x": -2.544141588,
				"y": -3.8586661957,
				"z": -2.2186997221,
				"element": "H" 
			},
			{
				"x": 3.0147582414,
				"y": -2.4779613027,
				"z": 0.2224313023,
				"element": "H" 
			},
			{
				"x": 3.6097992849,
				"y": -4.0053039986,
				"z": -0.4986352244,
				"element": "H" 
			},
			{
				"x": 2.0353362411,
				"y": -3.9840916471,
				"z": 0.3661529985,
				"element": "H" 
			}
		],
		 "valence_orbital": [ 
			{
				"type": "occ",
				"energy": -0.31819,
				"method": "rhf"
			},
			{
				"type": "occ",
				"energy": -0.29679,
				"method": "rhf"
			},
			{
				"type": "occ",
				"energy": -0.27721,
				"method": "rhf"
			},
			{
				"type": "occ",
				"energy": -0.2701,
				"method": "rhf"
			},
			{
				"type": "occ",
				"energy": -0.25961,
				"method": "rhf"
			},
			{
				"type": "unocc",
				"energy": -0.07015,
				"method": "rhf"
			},
			{
				"type": "unocc",
				"energy": -0.0425,
				"method": "rhf"
			},
			{
				"type": "unocc",
				"energy": -0.00577,
				"method": "rhf"
			},
			{
				"type": "unocc",
				"energy": 0.01605,
				"method": "rhf"
			},
			{
				"type": "unocc",
				"energy": 0.04942,
				"method": "rhf"
			}
		],
		"cosmo_sigma_profile": { 
			"-0.025": 0.0,
			"-0.024": 0.0,
			"-0.023": 0.0,
			"-0.022": 0.0,
			"-0.021": 0.0,
			"-0.02": 0.0,
			"-0.019": 0.0,
			"-0.018": 0.0,
			"-0.017": 0.0,
			"-0.016": 0.0,
			"-0.015": 0.0,
			"-0.014": 0.0,
			"-0.013": 0.0,
			"-0.012": 0.0,
			"-0.011": 0.48297478407,
			"-0.01": 3.81180184972,
			"-0.009": 7.84672176577,
			"-0.008": 9.20970129708,
			"-0.007": 18.2923270558,
			"-0.006": 24.9732245095,
			"-0.005": 26.9172094309,
			"-0.004": 21.8691653139,
			"-0.003": 17.4241609651,
			"-0.002": 14.9824807653,
			"-0.001": 16.1949431769,
			"0.0": 13.8237183994,
			"0.001": 12.0638664501,
			"0.002": 14.0314753777,
			"0.003": 8.79556425318,
			"0.004": 6.52018086005,
			"0.005": 7.33709429427,
			"0.006": 9.414010076,
			"0.007": 8.92939675001,
			"0.008": 8.70560248197,
			"0.009": 17.2343629612,
			"0.01": 20.1517609176,
			"0.011": 5.78411614527,
			"0.012": 3.25430587377,
			"0.013": 0.859427529306,
			"0.014": 0.0064175700322,
			"0.015": 0.0,
			"0.016": 0.0,
			"0.017": 0.0,
			"0.018": 0.0,
			"0.019": 0.0,
			"0.02": 0.0,
			"0.021": 0.0,
			"0.022": 0.0,
			"0.023": 0.0,
			"0.024": 0.0,
			"0.025": 0.0
		}
	}
}
