{
	 "smiles": "CC(=O)CCC1=CC=C(O)C=C1", 
	 "Tm": 356.15, 
	 "num_atms": 24, 
	 "gaussian": { 
		 "optdone": 1, 
		 "sigma_profile": "yes", 
		 "theory": "DFT", 
		 "functional": "B3LYP", 
		 "basiset": "6-31G**", 
		 "properties": { 
			 "R2extent": 2609.5374, 
			 "electric_dipole_moment_norm": 3.64478280011, 
			 "electric_quadrupole_moment_norm": 15.5607251907, 
			 "total_energy": -538.743572199, 
			 "HOMO_LUMO_gap": 0.20826, 
			 "cosmo_polarized_energy": -14.26, 
			 "cosmo_cavitation_energy": 27.56, 
			 "cosmo_dispersion_energy": -19.39, 
			 "cosmo_repulsion_energy": 1.57, 
			 "cosmo_total_nonelectrostatic_energy": 9.74, 
			 "SMD_solvation_energy": 5.58 
		},
		"coords": [
			{
				"x": 2.8466592279,
				"y": -1.4597177631,
				"z": 0.3903198386,
				"element": "C" 
			},
			{
				"x": 1.6776527954,
				"y": -1.6969775511,
				"z": -0.5512769718,
				"element": "C" 
			},
			{
				"x": 1.0168368561,
				"y": -2.7165198616,
				"z": -0.4940584845,
				"element": "O" 
			},
			{
				"x": 1.3775095456,
				"y": -0.625661094,
				"z": -1.5972012604,
				"element": "C" 
			},
			{
				"x": 1.3379043552,
				"y": 0.8311984274,
				"z": -1.083285483,
				"element": "C" 
			},
			{
				"x": 0.2905848312,
				"y": 1.1004477802,
				"z": -0.0195262912,
				"element": "C" 
			},
			{
				"x": 0.6480390934,
				"y": 1.5981705843,
				"z": 1.237999314,
				"element": "C" 
			},
			{
				"x": -0.3094676386,
				"y": 1.8599098902,
				"z": 2.2204197862,
				"element": "C" 
			},
			{
				"x": -1.660055241,
				"y": 1.6242427887,
				"z": 1.9536360117,
				"element": "C" 
			},
			{
				"x": -2.6501917181,
				"y": 1.8570903173,
				"z": 2.8662923195,
				"element": "O" 
			},
			{
				"x": -2.0407883449,
				"y": 1.1304260304,
				"z": 0.6997799302,
				"element": "C" 
			},
			{
				"x": -1.073982337,
				"y": 0.8758955731,
				"z": -0.2662168389,
				"element": "C" 
			},
			{
				"x": 2.5658411171,
				"y": -0.7095334902,
				"z": 1.1386827757,
				"element": "H" 
			},
			{
				"x": 3.7244065786,
				"y": -1.0766124833,
				"z": -0.1418254427,
				"element": "H" 
			},
			{
				"x": 3.0939786722,
				"y": -2.3911061603,
				"z": 0.9016673202,
				"element": "H" 
			},
			{
				"x": 0.433123122,
				"y": -0.9037452203,
				"z": -2.0729411236,
				"element": "H" 
			},
			{
				"x": 2.1592784808,
				"y": -0.6996117252,
				"z": -2.367750561,
				"element": "H" 
			},
			{
				"x": 1.1596342409,
				"y": 1.4804970661,
				"z": -1.9504416417,
				"element": "H" 
			},
			{
				"x": 2.3238939966,
				"y": 1.113539477,
				"z": -0.6975377027,
				"element": "H" 
			},
			{
				"x": 1.6944876484,
				"y": 1.7966800735,
				"z": 1.4581571994,
				"element": "H" 
			},
			{
				"x": -0.0036873726,
				"y": 2.2472648967,
				"z": 3.1903201455,
				"element": "H" 
			},
			{
				"x": -2.2557037608,
				"y": 2.1862364821,
				"z": 3.6842148478,
				"element": "H" 
			},
			{
				"x": -3.0933399116,
				"y": 0.9542477961,
				"z": 0.5039201471,
				"element": "H" 
			},
			{
				"x": -1.390114237,
				"y": 0.4954381662,
				"z": -1.2341478344,
				"element": "H" 
			}
		],
		 "valence_orbital": [ 
			{
				"type": "occ",
				"energy": -0.33491,
				"method": "rhf"
			},
			{
				"type": "occ",
				"energy": -0.32517,
				"method": "rhf"
			},
			{
				"type": "occ",
				"energy": -0.25338,
				"method": "rhf"
			},
			{
				"type": "occ",
				"energy": -0.23814,
				"method": "rhf"
			},
			{
				"type": "occ",
				"energy": -0.21808,
				"method": "rhf"
			},
			{
				"type": "unocc",
				"energy": -0.00982,
				"method": "rhf"
			},
			{
				"type": "unocc",
				"energy": -0.00449,
				"method": "rhf"
			},
			{
				"type": "unocc",
				"energy": 0.01104,
				"method": "rhf"
			},
			{
				"type": "unocc",
				"energy": 0.0695,
				"method": "rhf"
			},
			{
				"type": "unocc",
				"energy": 0.0781,
				"method": "rhf"
			}
		],
		"cosmo_sigma_profile": { 
			"-0.025": 0.0,
			"-0.024": 0.0,
			"-0.023": 0.0,
			"-0.022": 0.0,
			"-0.021": 0.0,
			"-0.02": 0.0,
			"-0.019": 0.0,
			"-0.018": 0.197173161052,
			"-0.017": 1.17327538852,
			"-0.016": 0.674242876298,
			"-0.015": 1.26083742883,
			"-0.014": 1.14824462604,
			"-0.013": 1.20723448708,
			"-0.012": 0.679070233434,
			"-0.011": 0.716037714317,
			"-0.01": 0.998204927433,
			"-0.009": 1.24735932509,
			"-0.008": 1.19470738062,
			"-0.007": 0.985931278177,
			"-0.006": 8.74566221094,
			"-0.005": 20.2780838104,
			"-0.004": 22.6734927206,
			"-0.003": 20.6822514685,
			"-0.002": 17.5303927166,
			"-0.001": 17.7495826575,
			"0.0": 12.0614261973,
			"0.001": 7.29234264351,
			"0.002": 8.66219313025,
			"0.003": 10.7687312009,
			"0.004": 11.0786423625,
			"0.005": 11.6529248624,
			"0.006": 10.7359077326,
			"0.007": 2.04584517609,
			"0.008": 2.58637420058,
			"0.009": 3.81657507203,
			"0.01": 2.74349634471,
			"0.011": 5.32926711642,
			"0.012": 5.48223671747,
			"0.013": 3.21265655281,
			"0.014": 0.54882112403,
			"0.015": 0.0,
			"0.016": 0.0,
			"0.017": 0.0,
			"0.018": 0.0,
			"0.019": 0.0,
			"0.02": 0.0,
			"0.021": 0.0,
			"0.022": 0.0,
			"0.023": 0.0,
			"0.024": 0.0,
			"0.025": 0.0
		}
	}
}
