{
	 "smiles": "CSC1=CC(NC(=O)C(C)Cl)=CC=C1", 
	 "Tm": 355.15, 
	 "num_atms": 26, 
	 "gaussian": { 
		 "optdone": 1, 
		 "sigma_profile": "yes", 
		 "theory": "DFT", 
		 "functional": "B3LYP", 
		 "basiset": "6-31G**", 
		 "properties": { 
			 "R2extent": 5709.2469, 
			 "electric_dipole_moment_norm": 0.892809072535, 
			 "electric_quadrupole_moment_norm": 11.3835170343, 
			 "total_energy": -1376.67880322, 
			 "HOMO_LUMO_gap": 0.19382, 
			 "cosmo_polarized_energy": -10.87, 
			 "cosmo_cavitation_energy": 33.11, 
			 "cosmo_dispersion_energy": -24.33, 
			 "cosmo_repulsion_energy": 1.89, 
			 "cosmo_total_nonelectrostatic_energy": 10.67, 
			 "SMD_solvation_energy": 5.79 
		},
		"coords": [
			{
				"x": 3.3702479814,
				"y": 2.1161820783,
				"z": -0.1559202384,
				"element": "C" 
			},
			{
				"x": 3.134004938,
				"y": 0.4716271744,
				"z": 0.6193353481,
				"element": "S" 
			},
			{
				"x": 1.7640985864,
				"y": -0.1706933684,
				"z": -0.3469551519,
				"element": "C" 
			},
			{
				"x": 0.5331669944,
				"y": -0.3810955141,
				"z": 0.2772657414,
				"element": "C" 
			},
			{
				"x": -0.5443001406,
				"y": -0.9314926233,
				"z": -0.4346057476,
				"element": "C" 
			},
			{
				"x": -1.7497482059,
				"y": -1.1179611865,
				"z": 0.2781452381,
				"element": "N" 
			},
			{
				"x": -2.9350011629,
				"y": -1.6073764133,
				"z": -0.1784194183,
				"element": "C" 
			},
			{
				"x": -3.1648858445,
				"y": -1.9846917769,
				"z": -1.3211561254,
				"element": "O" 
			},
			{
				"x": -4.0955873043,
				"y": -1.7219035545,
				"z": 0.8299019031,
				"element": "C" 
			},
			{
				"x": -4.5188870609,
				"y": -3.1771934941,
				"z": 1.0086354588,
				"element": "C" 
			},
			{
				"x": -3.7621363372,
				"y": -0.9625759671,
				"z": 2.4703399291,
				"element": "Cl" 
			},
			{
				"x": -0.3907666837,
				"y": -1.2584918029,
				"z": -1.7892052326,
				"element": "C" 
			},
			{
				"x": 0.8441117799,
				"y": -1.0402230507,
				"z": -2.4018560206,
				"element": "C" 
			},
			{
				"x": 1.9241227658,
				"y": -0.5128216614,
				"z": -1.6964712636,
				"element": "C" 
			},
			{
				"x": 3.6259610061,
				"y": 2.0225705628,
				"z": -1.2132205375,
				"element": "H" 
			},
			{
				"x": 4.2041275502,
				"y": 2.5867161586,
				"z": 0.3703409297,
				"element": "H" 
			},
			{
				"x": 2.4775713374,
				"y": 2.7343302054,
				"z": -0.0412401578,
				"element": "H" 
			},
			{
				"x": 0.4145510863,
				"y": -0.1115952621,
				"z": 1.3233177497,
				"element": "H" 
			},
			{
				"x": -1.7366504405,
				"y": -0.8380033111,
				"z": 1.2507109949,
				"element": "H" 
			},
			{
				"x": -4.9165808215,
				"y": -1.1319136558,
				"z": 0.4191424407,
				"element": "H" 
			},
			{
				"x": -3.7231241173,
				"y": -3.760363197,
				"z": 1.4799588788,
				"element": "H" 
			},
			{
				"x": -5.4171917252,
				"y": -3.2440419143,
				"z": 1.6257531725,
				"element": "H" 
			},
			{
				"x": -4.7267533603,
				"y": -3.5965804664,
				"z": 0.0210890889,
				"element": "H" 
			},
			{
				"x": -1.2239582546,
				"y": -1.6754955519,
				"z": -2.3364102251,
				"element": "H" 
			},
			{
				"x": 0.9639641678,
				"y": -1.302032456,
				"z": -3.4492775651,
				"element": "H" 
			},
			{
				"x": 2.8851432657,
				"y": -0.3748799519,
				"z": -2.1814991898,
				"element": "H" 
			}
		],
		 "valence_orbital": [ 
			{
				"type": "occ",
				"energy": -0.30764,
				"method": "rhf"
			},
			{
				"type": "occ",
				"energy": -0.26615,
				"method": "rhf"
			},
			{
				"type": "occ",
				"energy": -0.26168,
				"method": "rhf"
			},
			{
				"type": "occ",
				"energy": -0.23516,
				"method": "rhf"
			},
			{
				"type": "occ",
				"energy": -0.2223,
				"method": "rhf"
			},
			{
				"type": "unocc",
				"energy": -0.02848,
				"method": "rhf"
			},
			{
				"type": "unocc",
				"energy": -0.01635,
				"method": "rhf"
			},
			{
				"type": "unocc",
				"energy": 0.00479,
				"method": "rhf"
			},
			{
				"type": "unocc",
				"energy": 0.02681,
				"method": "rhf"
			},
			{
				"type": "unocc",
				"energy": 0.04942,
				"method": "rhf"
			}
		],
		"cosmo_sigma_profile": { 
			"-0.025": 0.0,
			"-0.024": 0.0,
			"-0.023": 0.0,
			"-0.022": 0.0,
			"-0.021": 0.0,
			"-0.02": 0.0,
			"-0.019": 0.0,
			"-0.018": 0.0,
			"-0.017": 0.0,
			"-0.016": 0.0,
			"-0.015": 0.0,
			"-0.014": 0.0374682013184,
			"-0.013": 0.766461018614,
			"-0.012": 1.16749019947,
			"-0.011": 1.06519313438,
			"-0.01": 1.00676004745,
			"-0.009": 2.00279817015,
			"-0.008": 3.66447663047,
			"-0.007": 4.31489878042,
			"-0.006": 11.8786168158,
			"-0.005": 20.1609952369,
			"-0.004": 21.7660767963,
			"-0.003": 19.7671312427,
			"-0.002": 20.6883232874,
			"-0.001": 23.3825155898,
			"0.0": 18.8483693193,
			"0.001": 16.6390369354,
			"0.002": 18.3505805114,
			"0.003": 18.5158330708,
			"0.004": 19.912645817,
			"0.005": 15.657539033,
			"0.006": 7.65178758577,
			"0.007": 3.82317465976,
			"0.008": 3.53261541782,
			"0.009": 3.22312641376,
			"0.01": 3.32157780367,
			"0.011": 2.43392621901,
			"0.012": 2.62871813292,
			"0.013": 1.06160699632,
			"0.014": 0.0,
			"0.015": 0.0,
			"0.016": 0.0,
			"0.017": 0.0,
			"0.018": 0.0,
			"0.019": 0.0,
			"0.02": 0.0,
			"0.021": 0.0,
			"0.022": 0.0,
			"0.023": 0.0,
			"0.024": 0.0,
			"0.025": 0.0
		}
	}
}
