{
	 "smiles": "CNC1=NC(C)=NC=C1", 
	 "Tm": 353.15, 
	 "num_atms": 18, 
	 "gaussian": { 
		 "optdone": 1, 
		 "sigma_profile": "yes", 
		 "theory": "DFT", 
		 "functional": "B3LYP", 
		 "basiset": "6-31G**", 
		 "properties": { 
			 "R2extent": 1765.6529, 
			 "electric_dipole_moment_norm": 3.50159604466, 
			 "electric_quadrupole_moment_norm": 6.56600225023, 
			 "total_energy": -398.329930011, 
			 "HOMO_LUMO_gap": 0.2076, 
			 "cosmo_polarized_energy": -10.56, 
			 "cosmo_cavitation_energy": 21.58, 
			 "cosmo_dispersion_energy": -16.17, 
			 "cosmo_repulsion_energy": 1.35, 
			 "cosmo_total_nonelectrostatic_energy": 6.76, 
			 "SMD_solvation_energy": 1.09 
		},
		"coords": [
			{
				"x": 2.9605231872,
				"y": -2.507202701,
				"z": -0.7307258502,
				"element": "C" 
			},
			{
				"x": 2.4353945253,
				"y": -1.1537824036,
				"z": -0.6831537878,
				"element": "N" 
			},
			{
				"x": 1.1019740666,
				"y": -0.8747590071,
				"z": -0.7610322278,
				"element": "C" 
			},
			{
				"x": 0.2484498505,
				"y": -1.910254321,
				"z": -0.7435541614,
				"element": "N" 
			},
			{
				"x": -1.0635991613,
				"y": -1.6262173226,
				"z": -0.7934121864,
				"element": "C" 
			},
			{
				"x": -2.0010911277,
				"y": -2.8052236553,
				"z": -0.7639262485,
				"element": "C" 
			},
			{
				"x": -1.6105126837,
				"y": -0.4075474502,
				"z": -0.8697367317,
				"element": "N" 
			},
			{
				"x": -0.737174131,
				"y": 0.6188162404,
				"z": -0.8917175009,
				"element": "C" 
			},
			{
				"x": 0.6314987062,
				"y": 0.4581404635,
				"z": -0.8386687597,
				"element": "C" 
			},
			{
				"x": 4.0261005169,
				"y": -2.4760109132,
				"z": -0.4921317128,
				"element": "H" 
			},
			{
				"x": 2.4484110422,
				"y": -3.131964223,
				"z": 0.0037232361,
				"element": "H" 
			},
			{
				"x": 2.829078513,
				"y": -2.9744140153,
				"z": -1.7154969218,
				"element": "H" 
			},
			{
				"x": 3.0731423015,
				"y": -0.391435726,
				"z": -0.8475892487,
				"element": "H" 
			},
			{
				"x": -1.7862009298,
				"y": -3.4824864889,
				"z": -1.5970002282,
				"element": "H" 
			},
			{
				"x": -1.8599389997,
				"y": -3.3792154291,
				"z": 0.1579900726,
				"element": "H" 
			},
			{
				"x": -3.0354731528,
				"y": -2.4659465125,
				"z": -0.826173612,
				"element": "H" 
			},
			{
				"x": -1.1714894752,
				"y": 1.6156359971,
				"z": -0.9551519071,
				"element": "H" 
			},
			{
				"x": 1.3092069517,
				"y": 1.3059674677,
				"z": -0.8532422236,
				"element": "H" 
			}
		],
		 "valence_orbital": [ 
			{
				"type": "occ",
				"energy": -0.32197,
				"method": "rhf"
			},
			{
				"type": "occ",
				"energy": -0.28357,
				"method": "rhf"
			},
			{
				"type": "occ",
				"energy": -0.27277,
				"method": "rhf"
			},
			{
				"type": "occ",
				"energy": -0.23481,
				"method": "rhf"
			},
			{
				"type": "occ",
				"energy": -0.22006,
				"method": "rhf"
			},
			{
				"type": "unocc",
				"energy": -0.01246,
				"method": "rhf"
			},
			{
				"type": "unocc",
				"energy": 0.00534,
				"method": "rhf"
			},
			{
				"type": "unocc",
				"energy": 0.07619,
				"method": "rhf"
			},
			{
				"type": "unocc",
				"energy": 0.12124,
				"method": "rhf"
			},
			{
				"type": "unocc",
				"energy": 0.12405,
				"method": "rhf"
			}
		],
		"cosmo_sigma_profile": { 
			"-0.025": 0.0,
			"-0.024": 0.0,
			"-0.023": 0.0,
			"-0.022": 0.0,
			"-0.021": 0.0,
			"-0.02": 0.0,
			"-0.019": 0.0,
			"-0.018": 0.0,
			"-0.017": 0.0,
			"-0.016": 0.0,
			"-0.015": 0.0,
			"-0.014": 1.03867445686,
			"-0.013": 1.62757185799,
			"-0.012": 1.48435237482,
			"-0.011": 1.31441818745,
			"-0.01": 1.52513959651,
			"-0.009": 1.72323639492,
			"-0.008": 1.59820934118,
			"-0.007": 2.91647362075,
			"-0.006": 6.72332607759,
			"-0.005": 8.37030638206,
			"-0.004": 11.3010015461,
			"-0.003": 14.0648961102,
			"-0.002": 15.6498138808,
			"-0.001": 15.7428077888,
			"0.0": 14.786435164,
			"0.001": 13.5277417101,
			"0.002": 11.9436486777,
			"0.003": 10.6455455798,
			"0.004": 6.4287141436,
			"0.005": 4.84521861519,
			"0.006": 4.56279019379,
			"0.007": 3.50962470389,
			"0.008": 1.94203915654,
			"0.009": 2.52588795308,
			"0.01": 2.36542501944,
			"0.011": 1.90219675376,
			"0.012": 1.61555903896,
			"0.013": 1.57033015257,
			"0.014": 1.58898436833,
			"0.015": 0.461135742429,
			"0.016": 0.924713680152,
			"0.017": 0.629447031695,
			"0.018": 0.0,
			"0.019": 0.0,
			"0.02": 0.0,
			"0.021": 0.0,
			"0.022": 0.0,
			"0.023": 0.0,
			"0.024": 0.0,
			"0.025": 0.0
		}
	}
}
