{
	 "smiles": "CCOC1=C(CO)C=C(N)C=C1", 
	 "Tm": 351.15, 
	 "num_atms": 25, 
	 "gaussian": { 
		 "optdone": 1, 
		 "sigma_profile": "yes", 
		 "theory": "DFT", 
		 "functional": "B3LYP", 
		 "basiset": "6-31G**", 
		 "properties": { 
			 "R2extent": 2991.4589, 
			 "electric_dipole_moment_norm": 2.1591838736, 
			 "electric_quadrupole_moment_norm": 11.5622503052, 
			 "total_energy": -555.979509528, 
			 "HOMO_LUMO_gap": 0.18835, 
			 "cosmo_polarized_energy": -12.74, 
			 "cosmo_cavitation_energy": 28.01, 
			 "cosmo_dispersion_energy": -20.52, 
			 "cosmo_repulsion_energy": 1.68, 
			 "cosmo_total_nonelectrostatic_energy": 9.17, 
			 "SMD_solvation_energy": 5.02 
		},
		"coords": [
			{
				"x": -1.0368105831,
				"y": -1.7018543092,
				"z": -2.5127084564,
				"element": "C" 
			},
			{
				"x": -0.0457192422,
				"y": -0.6148711578,
				"z": -2.1328385475,
				"element": "C" 
			},
			{
				"x": -0.24586438,
				"y": -0.3091453105,
				"z": -0.7575328423,
				"element": "O" 
			},
			{
				"x": 0.5579505703,
				"y": 0.6408926117,
				"z": -0.1717133985,
				"element": "C" 
			},
			{
				"x": 0.330647458,
				"y": 0.8676395685,
				"z": 1.1999485565,
				"element": "C" 
			},
			{
				"x": -0.7385294361,
				"y": 0.0750790224,
				"z": 1.9292023981,
				"element": "C" 
			},
			{
				"x": -0.6526874548,
				"y": 0.1648866536,
				"z": 3.3450542328,
				"element": "O" 
			},
			{
				"x": 1.0881142727,
				"y": 1.8262964293,
				"z": 1.8651564734,
				"element": "C" 
			},
			{
				"x": 2.0843343169,
				"y": 2.5690770692,
				"z": 1.2079607918,
				"element": "C" 
			},
			{
				"x": 2.8769814277,
				"y": 3.4855425684,
				"z": 1.9202095345,
				"element": "N" 
			},
			{
				"x": 2.301537896,
				"y": 2.3238446649,
				"z": -0.1515815603,
				"element": "C" 
			},
			{
				"x": 1.5450272869,
				"y": 1.3687329395,
				"z": -0.8375411102,
				"element": "C" 
			},
			{
				"x": -0.8743968397,
				"y": -2.5996394999,
				"z": -1.9095620797,
				"element": "H" 
			},
			{
				"x": -2.0631990093,
				"y": -1.360391988,
				"z": -2.3513559558,
				"element": "H" 
			},
			{
				"x": -0.9207358638,
				"y": -1.9667732744,
				"z": -3.5682036832,
				"element": "H" 
			},
			{
				"x": -0.2017641941,
				"y": 0.2856579788,
				"z": -2.744959543,
				"element": "H" 
			},
			{
				"x": 0.988003619,
				"y": -0.9532994885,
				"z": -2.2970485793,
				"element": "H" 
			},
			{
				"x": -1.7324938906,
				"y": 0.4580149583,
				"z": 1.6689935851,
				"element": "H" 
			},
			{
				"x": -0.7135129815,
				"y": -0.9693853432,
				"z": 1.5877747599,
				"element": "H" 
			},
			{
				"x": 0.1935157369,
				"y": -0.2229214449,
				"z": 3.6053683891,
				"element": "H" 
			},
			{
				"x": 0.8900880359,
				"y": 1.9942916872,
				"z": 2.9201857923,
				"element": "H" 
			},
			{
				"x": 3.273092307,
				"y": 4.2191202269,
				"z": 1.3467894501,
				"element": "H" 
			},
			{
				"x": 2.4186821773,
				"y": 3.877796937,
				"z": 2.7326313373,
				"element": "H" 
			},
			{
				"x": 3.0692895024,
				"y": 2.8785014816,
				"z": -0.6855275732,
				"element": "H" 
			},
			{
				"x": 1.737149268,
				"y": 1.207807019,
				"z": -1.8919019714,
				"element": "H" 
			}
		],
		 "valence_orbital": [ 
			{
				"type": "occ",
				"energy": -0.31472,
				"method": "rhf"
			},
			{
				"type": "occ",
				"energy": -0.2712,
				"method": "rhf"
			},
			{
				"type": "occ",
				"energy": -0.26657,
				"method": "rhf"
			},
			{
				"type": "occ",
				"energy": -0.23578,
				"method": "rhf"
			},
			{
				"type": "occ",
				"energy": -0.18148,
				"method": "rhf"
			},
			{
				"type": "unocc",
				"energy": 0.00687,
				"method": "rhf"
			},
			{
				"type": "unocc",
				"energy": 0.03219,
				"method": "rhf"
			},
			{
				"type": "unocc",
				"energy": 0.08415,
				"method": "rhf"
			},
			{
				"type": "unocc",
				"energy": 0.0923,
				"method": "rhf"
			},
			{
				"type": "unocc",
				"energy": 0.10119,
				"method": "rhf"
			}
		],
		"cosmo_sigma_profile": { 
			"-0.025": 0.0,
			"-0.024": 0.0,
			"-0.023": 0.0,
			"-0.022": 0.0,
			"-0.021": 0.0,
			"-0.02": 0.0,
			"-0.019": 0.0,
			"-0.018": 0.0,
			"-0.017": 0.0,
			"-0.016": 0.0986331412916,
			"-0.015": 0.901732208231,
			"-0.014": 0.948913028932,
			"-0.013": 0.66240303031,
			"-0.012": 2.03482523355,
			"-0.011": 3.6535570638,
			"-0.01": 3.02856282197,
			"-0.009": 3.20796039834,
			"-0.008": 3.09341482886,
			"-0.007": 5.67739581135,
			"-0.006": 5.3558375196,
			"-0.005": 9.97431842149,
			"-0.004": 19.6401597335,
			"-0.003": 21.8743319546,
			"-0.002": 17.2538874007,
			"-0.001": 17.0258850229,
			"0.0": 14.2782833293,
			"0.001": 11.5574576012,
			"0.002": 7.83763243741,
			"0.003": 9.18882604733,
			"0.004": 11.060557154,
			"0.005": 10.0273870066,
			"0.006": 11.0818701225,
			"0.007": 10.8961635842,
			"0.008": 4.00399333781,
			"0.009": 3.1154102822,
			"0.01": 1.86319363207,
			"0.011": 1.83928203499,
			"0.012": 1.53810877089,
			"0.013": 2.75944967172,
			"0.014": 2.70376904024,
			"0.015": 0.876870530457,
			"0.016": 0.384501881462,
			"0.017": 0.0,
			"0.018": 0.0,
			"0.019": 0.0,
			"0.02": 0.0,
			"0.021": 0.0,
			"0.022": 0.0,
			"0.023": 0.0,
			"0.024": 0.0,
			"0.025": 0.0
		}
	}
}
