{
	 "smiles": "NNC1=NC2=C(S1)C=CC(=C2)C(F)(F)F", 
	 "Tm": 493.15, 
	 "num_atms": 21, 
	 "gaussian": { 
		 "optdone": 1, 
		 "sigma_profile": "yes", 
		 "theory": "DFT", 
		 "functional": "B3LYP", 
		 "basiset": "6-31G**", 
		 "properties": { 
			 "R2extent": 4974.5506, 
			 "electric_dipole_moment_norm": 4.44857408503, 
			 "electric_quadrupole_moment_norm": 6.63487797175, 
			 "total_energy": -1170.41318166, 
			 "HOMO_LUMO_gap": 0.19658, 
			 "cosmo_polarized_energy": -11.68, 
			 "cosmo_cavitation_energy": 28.69, 
			 "cosmo_dispersion_energy": -21.42, 
			 "cosmo_repulsion_energy": 1.56, 
			 "cosmo_total_nonelectrostatic_energy": 8.83, 
			 "SMD_solvation_energy": 4.28 
		},
		"coords": [
			{
				"x": 3.7931280598,
				"y": 2.9172520443,
				"z": -3.7564706447,
				"element": "N" 
			},
			{
				"x": 3.3683331569,
				"y": 3.005594037,
				"z": -2.4266728511,
				"element": "N" 
			},
			{
				"x": 2.5867629609,
				"y": 2.0644839465,
				"z": -1.8206192636,
				"element": "C" 
			},
			{
				"x": 1.9623774114,
				"y": 2.2454559303,
				"z": -0.6990026146,
				"element": "N" 
			},
			{
				"x": 1.2973711918,
				"y": 1.0902914166,
				"z": -0.3258784176,
				"element": "C" 
			},
			{
				"x": 1.4179100202,
				"y": -0.0099013802,
				"z": -1.2117687586,
				"element": "C" 
			},
			{
				"x": 2.4306302214,
				"y": 0.4480840397,
				"z": -2.5784239228,
				"element": "S" 
			},
			{
				"x": 0.7954945584,
				"y": -1.2307894698,
				"z": -0.9587293281,
				"element": "C" 
			},
			{
				"x": 0.0382506779,
				"y": -1.3576518427,
				"z": 0.2030071984,
				"element": "C" 
			},
			{
				"x": -0.0892821309,
				"y": -0.275891292,
				"z": 1.0898664985,
				"element": "C" 
			},
			{
				"x": 0.5314341389,
				"y": 0.9451025707,
				"z": 0.8369089511,
				"element": "C" 
			},
			{
				"x": -0.9627155614,
				"y": -0.4330435982,
				"z": 2.3049543327,
				"element": "C" 
			},
			{
				"x": -2.2724683476,
				"y": -0.2613152821,
				"z": 2.004689662,
				"element": "F" 
			},
			{
				"x": -0.8503659223,
				"y": -1.6681704883,
				"z": 2.8463787346,
				"element": "F" 
			},
			{
				"x": -0.6607944435,
				"y": 0.4615993826,
				"z": 3.2707413273,
				"element": "F" 
			},
			{
				"x": 4.5518008736,
				"y": 2.2447761366,
				"z": -3.8330561382,
				"element": "H" 
			},
			{
				"x": 3.0299166845,
				"y": 2.6360450306,
				"z": -4.3708060818,
				"element": "H" 
			},
			{
				"x": 3.2883984997,
				"y": 3.9446562594,
				"z": -2.0597070752,
				"element": "H" 
			},
			{
				"x": 0.8980885405,
				"y": -2.067349549,
				"z": -1.6420652309,
				"element": "H" 
			},
			{
				"x": -0.4488574526,
				"y": -2.299023095,
				"z": 0.4314036861,
				"element": "H" 
			},
			{
				"x": 0.4371868623,
				"y": 1.7770952031,
				"z": 1.5243499363,
				"element": "H" 
			}
		],
		 "valence_orbital": [ 
			{
				"type": "occ",
				"energy": -0.30262,
				"method": "rhf"
			},
			{
				"type": "occ",
				"energy": -0.29564,
				"method": "rhf"
			},
			{
				"type": "occ",
				"energy": -0.28696,
				"method": "rhf"
			},
			{
				"type": "occ",
				"energy": -0.24773,
				"method": "rhf"
			},
			{
				"type": "occ",
				"energy": -0.2228,
				"method": "rhf"
			},
			{
				"type": "unocc",
				"energy": -0.02622,
				"method": "rhf"
			},
			{
				"type": "unocc",
				"energy": -0.0242,
				"method": "rhf"
			},
			{
				"type": "unocc",
				"energy": -0.0053,
				"method": "rhf"
			},
			{
				"type": "unocc",
				"energy": 0.02992,
				"method": "rhf"
			},
			{
				"type": "unocc",
				"energy": 0.05376,
				"method": "rhf"
			}
		],
		"cosmo_sigma_profile": { 
			"-0.025": 0.0,
			"-0.024": 0.0,
			"-0.023": 0.0,
			"-0.022": 0.0,
			"-0.021": 0.0,
			"-0.02": 0.0,
			"-0.019": 0.0,
			"-0.018": 0.0,
			"-0.017": 0.0,
			"-0.016": 0.0,
			"-0.015": 0.436584991757,
			"-0.014": 1.0516374904,
			"-0.013": 0.767520188514,
			"-0.012": 3.9091950967,
			"-0.011": 3.9919244119,
			"-0.01": 3.32312546914,
			"-0.009": 4.3887462391,
			"-0.008": 4.64168704023,
			"-0.007": 6.78512405604,
			"-0.006": 8.94063298897,
			"-0.005": 8.06934146886,
			"-0.004": 8.45468517303,
			"-0.003": 8.48671887542,
			"-0.002": 7.88167152583,
			"-0.001": 13.1789448983,
			"0.0": 15.8800047764,
			"0.001": 19.1590843914,
			"0.002": 32.4610552273,
			"0.003": 48.1418230255,
			"0.004": 12.3206480905,
			"0.005": 3.52148785112,
			"0.006": 2.85677740999,
			"0.007": 1.59105711002,
			"0.008": 1.21954695078,
			"0.009": 2.17808531667,
			"0.01": 2.13005059816,
			"0.011": 1.18859480038,
			"0.012": 1.36969348914,
			"0.013": 1.38972139213,
			"0.014": 1.78213718691,
			"0.015": 0.603978465452,
			"0.016": 0.0,
			"0.017": 0.0,
			"0.018": 0.0,
			"0.019": 0.0,
			"0.02": 0.0,
			"0.021": 0.0,
			"0.022": 0.0,
			"0.023": 0.0,
			"0.024": 0.0,
			"0.025": 0.0
		}
	}
}
