{
	 "smiles": "CCC1=C2NC=C(CCN)C2=CC=C1", 
	 "Tm": 365.15, 
	 "num_atms": 30, 
	 "gaussian": { 
		 "optdone": 1, 
		 "sigma_profile": "yes", 
		 "theory": "DFT", 
		 "functional": "B3LYP", 
		 "basiset": "6-31G**", 
		 "properties": { 
			 "R2extent": 3582.3223, 
			 "electric_dipole_moment_norm": 2.32042900344, 
			 "electric_quadrupole_moment_norm": 11.2970661337, 
			 "total_energy": -576.437185187, 
			 "HOMO_LUMO_gap": 0.18948, 
			 "cosmo_polarized_energy": -10.49, 
			 "cosmo_cavitation_energy": 31.95, 
			 "cosmo_dispersion_energy": -23.13, 
			 "cosmo_repulsion_energy": 1.85, 
			 "cosmo_total_nonelectrostatic_energy": 10.68, 
			 "SMD_solvation_energy": 4.4 
		},
		"coords": [
			{
				"x": -3.4058116297,
				"y": 2.6831606365,
				"z": 1.0225260973,
				"element": "C" 
			},
			{
				"x": -3.4682185714,
				"y": 1.3452969036,
				"z": 0.2610895173,
				"element": "C" 
			},
			{
				"x": -2.1590150863,
				"y": 0.9628335504,
				"z": -0.3929851031,
				"element": "C" 
			},
			{
				"x": -1.0904121103,
				"y": 0.427932667,
				"z": 0.3473471035,
				"element": "C" 
			},
			{
				"x": -1.0076055849,
				"y": 0.1272262311,
				"z": 1.6928652658,
				"element": "N" 
			},
			{
				"x": 0.2441925904,
				"y": -0.3935169331,
				"z": 1.9727570255,
				"element": "C" 
			},
			{
				"x": 0.9997856763,
				"y": -0.4336220466,
				"z": 0.8262937004,
				"element": "C" 
			},
			{
				"x": 2.4143320007,
				"y": -0.9217388974,
				"z": 0.6629150861,
				"element": "C" 
			},
			{
				"x": 3.325094435,
				"y": -0.7572158726,
				"z": 1.8867733881,
				"element": "C" 
			},
			{
				"x": 2.8852426311,
				"y": -1.5963838723,
				"z": 3.0103991099,
				"element": "N" 
			},
			{
				"x": 0.1625359858,
				"y": 0.0839318721,
				"z": -0.2305848609,
				"element": "C" 
			},
			{
				"x": 0.3505366416,
				"y": 0.2889097057,
				"z": -1.6092256708,
				"element": "C" 
			},
			{
				"x": -0.6941202633,
				"y": 0.8163461637,
				"z": -2.3565489625,
				"element": "C" 
			},
			{
				"x": -1.9263811147,
				"y": 1.1442456428,
				"z": -1.7556073312,
				"element": "C" 
			},
			{
				"x": -3.1526610224,
				"y": 3.5024503497,
				"z": 0.3427026614,
				"element": "H" 
			},
			{
				"x": -4.3673683156,
				"y": 2.9145845177,
				"z": 1.493372237,
				"element": "H" 
			},
			{
				"x": -2.6409734979,
				"y": 2.6629306659,
				"z": 1.8061376394,
				"element": "H" 
			},
			{
				"x": -3.7866638255,
				"y": 0.5505090571,
				"z": 0.9510088036,
				"element": "H" 
			},
			{
				"x": -4.2476073486,
				"y": 1.4044932581,
				"z": -0.5068375905,
				"element": "H" 
			},
			{
				"x": -1.7434725027,
				"y": 0.2527767219,
				"z": 2.3671131277,
				"element": "H" 
			},
			{
				"x": 0.5190501726,
				"y": -0.7080964663,
				"z": 2.9681975132,
				"element": "H" 
			},
			{
				"x": 2.4257280216,
				"y": -1.9813328222,
				"z": 0.3591599541,
				"element": "H" 
			},
			{
				"x": 2.8800360884,
				"y": -0.3802387898,
				"z": -0.1704139899,
				"element": "H" 
			},
			{
				"x": 4.3639340484,
				"y": -0.960597658,
				"z": 1.5717274932,
				"element": "H" 
			},
			{
				"x": 3.2920828343,
				"y": 0.2876704367,
				"z": 2.2174097359,
				"element": "H" 
			},
			{
				"x": 3.5122217444,
				"y": -1.4706847725,
				"z": 3.8015083793,
				"element": "H" 
			},
			{
				"x": 2.9522308839,
				"y": -2.5778961572,
				"z": 2.7474313165,
				"element": "H" 
			},
			{
				"x": 1.2938882127,
				"y": 0.0334188476,
				"z": -2.0844084966,
				"element": "H" 
			},
			{
				"x": -0.5673500956,
				"y": 0.9765010228,
				"z": -3.4235902346,
				"element": "H" 
			},
			{
				"x": -2.7254309981,
				"y": 1.5499060377,
				"z": -2.3719329151,
				"element": "H" 
			}
		],
		 "valence_orbital": [ 
			{
				"type": "occ",
				"energy": -0.31082,
				"method": "rhf"
			},
			{
				"type": "occ",
				"energy": -0.25092,
				"method": "rhf"
			},
			{
				"type": "occ",
				"energy": -0.23502,
				"method": "rhf"
			},
			{
				"type": "occ",
				"energy": -0.20506,
				"method": "rhf"
			},
			{
				"type": "occ",
				"energy": -0.18408,
				"method": "rhf"
			},
			{
				"type": "unocc",
				"energy": 0.0054,
				"method": "rhf"
			},
			{
				"type": "unocc",
				"energy": 0.03983,
				"method": "rhf"
			},
			{
				"type": "unocc",
				"energy": 0.07163,
				"method": "rhf"
			},
			{
				"type": "unocc",
				"energy": 0.07561,
				"method": "rhf"
			},
			{
				"type": "unocc",
				"energy": 0.08887,
				"method": "rhf"
			}
		],
		"cosmo_sigma_profile": { 
			"-0.025": 0.0,
			"-0.024": 0.0,
			"-0.023": 0.0,
			"-0.022": 0.0,
			"-0.021": 0.0,
			"-0.02": 0.0,
			"-0.019": 0.0,
			"-0.018": 0.0,
			"-0.017": 0.0,
			"-0.016": 0.0,
			"-0.015": 0.142255489831,
			"-0.014": 0.787247614465,
			"-0.013": 1.16125841958,
			"-0.012": 1.06783460499,
			"-0.011": 1.17852082562,
			"-0.01": 1.64332359359,
			"-0.009": 4.03963889739,
			"-0.008": 4.88098950937,
			"-0.007": 4.45338593766,
			"-0.006": 4.44759402094,
			"-0.005": 7.65981298142,
			"-0.004": 13.2787652491,
			"-0.003": 21.4742729047,
			"-0.002": 28.2938265198,
			"-0.001": 30.1897559589,
			"0.0": 26.5001001929,
			"0.001": 18.3286778816,
			"0.002": 10.9872370515,
			"0.003": 8.76881405131,
			"0.004": 10.9742475645,
			"0.005": 10.6980431898,
			"0.006": 14.3503581366,
			"0.007": 13.5342379181,
			"0.008": 6.67353075663,
			"0.009": 1.60725390521,
			"0.01": 1.45377990613,
			"0.011": 0.79023547488,
			"0.012": 0.582660507942,
			"0.013": 0.203785035492,
			"0.014": 0.0,
			"0.015": 0.0,
			"0.016": 0.0,
			"0.017": 0.0,
			"0.018": 0.0,
			"0.019": 0.0,
			"0.02": 0.0,
			"0.021": 0.0,
			"0.022": 0.0,
			"0.023": 0.0,
			"0.024": 0.0,
			"0.025": 0.0
		}
	}
}
