{
	 "smiles": "CS(=O)(=O)C1=CC(=CC(=C1)C(O)=O)[N+]([O-])=O", 
	 "Tm": 503.15, 
	 "num_atms": 23, 
	 "gaussian": { 
		 "optdone": 1, 
		 "sigma_profile": "yes", 
		 "theory": "DFT", 
		 "functional": "B3LYP", 
		 "basiset": "6-31G**", 
		 "properties": { 
			 "R2extent": 4495.2153, 
			 "electric_dipole_moment_norm": 2.60266505913, 
			 "electric_quadrupole_moment_norm": 26.3990007118, 
			 "total_energy": -1213.18556378, 
			 "HOMO_LUMO_gap": 0.1789, 
			 "cosmo_polarized_energy": -27.0, 
			 "cosmo_cavitation_energy": 30.88, 
			 "cosmo_dispersion_energy": -22.34, 
			 "cosmo_repulsion_energy": 1.7, 
			 "cosmo_total_nonelectrostatic_energy": 10.23, 
			 "SMD_solvation_energy": 8.59 
		},
		"coords": [
			{
				"x": -1.5236871113,
				"y": 1.1180057269,
				"z": 3.4552215334,
				"element": "C" 
			},
			{
				"x": -1.1532852485,
				"y": -0.4672760176,
				"z": 2.6711308662,
				"element": "S" 
			},
			{
				"x": -2.4115663549,
				"y": -1.2129440844,
				"z": 2.5361098536,
				"element": "O" 
			},
			{
				"x": 0.0196449136,
				"y": -1.0414753625,
				"z": 3.3418875027,
				"element": "O" 
			},
			{
				"x": -0.6360774321,
				"y": 0.0020867751,
				"z": 0.9976620143,
				"element": "C" 
			},
			{
				"x": -1.5827066935,
				"y": -0.0114593781,
				"z": -0.0261247544,
				"element": "C" 
			},
			{
				"x": -1.153761401,
				"y": 0.3383816715,
				"z": -1.3017464799,
				"element": "C" 
			},
			{
				"x": 0.1686396779,
				"y": 0.6771269445,
				"z": -1.5776535746,
				"element": "C" 
			},
			{
				"x": 1.1053913658,
				"y": 0.665648641,
				"z": -0.5403880756,
				"element": "C" 
			},
			{
				"x": 0.6948390193,
				"y": 0.3339289616,
				"z": 0.7589622011,
				"element": "C" 
			},
			{
				"x": 2.5497159289,
				"y": 1.0466600255,
				"z": -0.7338709611,
				"element": "C" 
			},
			{
				"x": 3.0468835154,
				"y": 0.9652777111,
				"z": -1.9902403862,
				"element": "O" 
			},
			{
				"x": 3.2424497406,
				"y": 1.4209493228,
				"z": 0.1803650392,
				"element": "O" 
			},
			{
				"x": -2.1332088158,
				"y": 0.3519442522,
				"z": -2.4072549349,
				"element": "N" 
			},
			{
				"x": -3.2954643949,
				"y": 0.0693230243,
				"z": -2.1343468884,
				"element": "O" 
			},
			{
				"x": -1.7146941564,
				"y": 0.6468494092,
				"z": -3.5251859853,
				"element": "O" 
			},
			{
				"x": -1.8398799577,
				"y": 0.8822405345,
				"z": 4.4736435634,
				"element": "H" 
			},
			{
				"x": -0.622225971,
				"y": 1.7321176694,
				"z": 3.4714109075,
				"element": "H" 
			},
			{
				"x": -2.3321993692,
				"y": 1.6087879633,
				"z": 2.9116466268,
				"element": "H" 
			},
			{
				"x": -2.611889126,
				"y": -0.2965852209,
				"z": 0.1564485947,
				"element": "H" 
			},
			{
				"x": 0.4174207501,
				"y": 0.965982968,
				"z": -2.5927346816,
				"element": "H" 
			},
			{
				"x": 1.4261927241,
				"y": 0.3249602453,
				"z": 1.5600930478,
				"element": "H" 
			},
			{
				"x": 2.4405683966,
				"y": 0.4962682173,
				"z": -2.5802350286,
				"element": "H" 
			}
		],
		 "valence_orbital": [ 
			{
				"type": "occ",
				"energy": -0.32161,
				"method": "rhf"
			},
			{
				"type": "occ",
				"energy": -0.31951,
				"method": "rhf"
			},
			{
				"type": "occ",
				"energy": -0.31868,
				"method": "rhf"
			},
			{
				"type": "occ",
				"energy": -0.3095,
				"method": "rhf"
			},
			{
				"type": "occ",
				"energy": -0.30089,
				"method": "rhf"
			},
			{
				"type": "unocc",
				"energy": -0.12199,
				"method": "rhf"
			},
			{
				"type": "unocc",
				"energy": -0.09474,
				"method": "rhf"
			},
			{
				"type": "unocc",
				"energy": -0.05333,
				"method": "rhf"
			},
			{
				"type": "unocc",
				"energy": 0.01198,
				"method": "rhf"
			},
			{
				"type": "unocc",
				"energy": 0.03073,
				"method": "rhf"
			}
		],
		"cosmo_sigma_profile": { 
			"-0.025": 0.0,
			"-0.024": 0.0,
			"-0.023": 0.0,
			"-0.022": 0.0,
			"-0.021": 0.0446078074089,
			"-0.02": 1.03806475741,
			"-0.019": 1.00265380217,
			"-0.018": 1.22141000897,
			"-0.017": 1.21392626467,
			"-0.016": 0.851960228836,
			"-0.015": 0.72007574341,
			"-0.014": 1.44103700654,
			"-0.013": 1.16903789666,
			"-0.012": 0.848816999071,
			"-0.011": 1.25123228896,
			"-0.01": 3.38928971493,
			"-0.009": 8.81298167649,
			"-0.008": 11.1562454661,
			"-0.007": 10.2460802586,
			"-0.006": 14.5217254023,
			"-0.005": 16.6463534447,
			"-0.004": 20.0744290005,
			"-0.003": 18.7061100424,
			"-0.002": 10.2067286586,
			"-0.001": 6.02620099229,
			"0.0": 7.47264360465,
			"0.001": 7.35475212435,
			"0.002": 5.34596609596,
			"0.003": 6.76412097631,
			"0.004": 6.1612709007,
			"0.005": 7.36448504196,
			"0.006": 12.0802030768,
			"0.007": 13.7819791324,
			"0.008": 10.3169126275,
			"0.009": 10.087871836,
			"0.01": 12.5756321012,
			"0.011": 13.9869517106,
			"0.012": 3.95997443498,
			"0.013": 0.0579402105451,
			"0.014": 0.0,
			"0.015": 0.0,
			"0.016": 0.0,
			"0.017": 0.0,
			"0.018": 0.0,
			"0.019": 0.0,
			"0.02": 0.0,
			"0.021": 0.0,
			"0.022": 0.0,
			"0.023": 0.0,
			"0.024": 0.0,
			"0.025": 0.0
		}
	}
}
