{
	 "smiles": "OC(=O)CC1=CSC2=C1C=C(Cl)C=C2", 
	 "Tm": 426.65, 
	 "num_atms": 21, 
	 "gaussian": { 
		 "optdone": 1, 
		 "sigma_profile": "yes", 
		 "theory": "DFT", 
		 "functional": "B3LYP", 
		 "basiset": "6-31G**", 
		 "properties": { 
			 "R2extent": 4117.1115, 
			 "electric_dipole_moment_norm": 2.67912552338, 
			 "electric_quadrupole_moment_norm": 14.8963431922, 
			 "total_energy": -1394.12815714, 
			 "HOMO_LUMO_gap": 0.1881, 
			 "cosmo_polarized_energy": -12.97, 
			 "cosmo_cavitation_energy": 29.24, 
			 "cosmo_dispersion_energy": -21.7, 
			 "cosmo_repulsion_energy": 1.67, 
			 "cosmo_total_nonelectrostatic_energy": 9.21, 
			 "SMD_solvation_energy": 5.37 
		},
		"coords": [
			{
				"x": -4.2800142167,
				"y": 1.2942506534,
				"z": 0.4596394833,
				"element": "O" 
			},
			{
				"x": -3.1144847952,
				"y": 0.9762636875,
				"z": -0.1550547668,
				"element": "C" 
			},
			{
				"x": -2.8795094571,
				"y": 1.2629046388,
				"z": -1.3056526566,
				"element": "O" 
			},
			{
				"x": -2.1826892288,
				"y": 0.2570610412,
				"z": 0.8097841641,
				"element": "C" 
			},
			{
				"x": -0.9882848757,
				"y": -0.3868494249,
				"z": 0.1629780794,
				"element": "C" 
			},
			{
				"x": -0.8114513341,
				"y": -1.7342584534,
				"z": 0.0883969473,
				"element": "C" 
			},
			{
				"x": 0.6879794195,
				"y": -2.2167056793,
				"z": -0.6656466388,
				"element": "S" 
			},
			{
				"x": 1.1343379484,
				"y": -0.535605016,
				"z": -0.898898143,
				"element": "C" 
			},
			{
				"x": 0.1310823644,
				"y": 0.3343832783,
				"z": -0.4080662525,
				"element": "C" 
			},
			{
				"x": 0.3226808387,
				"y": 1.7240737174,
				"z": -0.5129161783,
				"element": "C" 
			},
			{
				"x": 1.4941694198,
				"y": 2.1935930282,
				"z": -1.0847784053,
				"element": "C" 
			},
			{
				"x": 1.7494381935,
				"y": 3.9301515329,
				"z": -1.2175238857,
				"element": "Cl" 
			},
			{
				"x": 2.4891934674,
				"y": 1.3279971612,
				"z": -1.5699154309,
				"element": "C" 
			},
			{
				"x": 2.3084347242,
				"y": -0.0463077863,
				"z": -1.4797368257,
				"element": "C" 
			},
			{
				"x": -4.8127776411,
				"y": 1.7702807398,
				"z": -0.1996740838,
				"element": "H" 
			},
			{
				"x": -1.869641492,
				"y": 1.0013504687,
				"z": 1.555712792,
				"element": "H" 
			},
			{
				"x": -2.7728891712,
				"y": -0.4804140136,
				"z": 1.3618573952,
				"element": "H" 
			},
			{
				"x": -1.4890850874,
				"y": -2.4990692345,
				"z": 0.4454158181,
				"element": "H" 
			},
			{
				"x": -0.4349438533,
				"y": 2.4196008285,
				"z": -0.1724501966,
				"element": "H" 
			},
			{
				"x": 3.3891031834,
				"y": 1.73836709,
				"z": -2.0134541995,
				"element": "H" 
			},
			{
				"x": 3.0706515934,
				"y": -0.7221682576,
				"z": -1.8544170159,
				"element": "H" 
			}
		],
		 "valence_orbital": [ 
			{
				"type": "occ",
				"energy": -0.31003,
				"method": "rhf"
			},
			{
				"type": "occ",
				"energy": -0.28654,
				"method": "rhf"
			},
			{
				"type": "occ",
				"energy": -0.28486,
				"method": "rhf"
			},
			{
				"type": "occ",
				"energy": -0.23761,
				"method": "rhf"
			},
			{
				"type": "occ",
				"energy": -0.22388,
				"method": "rhf"
			},
			{
				"type": "unocc",
				"energy": -0.03578,
				"method": "rhf"
			},
			{
				"type": "unocc",
				"energy": -0.01165,
				"method": "rhf"
			},
			{
				"type": "unocc",
				"energy": 0.00159,
				"method": "rhf"
			},
			{
				"type": "unocc",
				"energy": 0.01278,
				"method": "rhf"
			},
			{
				"type": "unocc",
				"energy": 0.03352,
				"method": "rhf"
			}
		],
		"cosmo_sigma_profile": { 
			"-0.025": 0.0,
			"-0.024": 0.0,
			"-0.023": 0.0,
			"-0.022": 0.0,
			"-0.021": 0.0,
			"-0.02": 0.0,
			"-0.019": 0.0343269692258,
			"-0.018": 0.898007495645,
			"-0.017": 0.814201616791,
			"-0.016": 1.1321249021,
			"-0.015": 0.758793920618,
			"-0.014": 0.431525983344,
			"-0.013": 0.250885864699,
			"-0.012": 0.867680623834,
			"-0.011": 1.21452116436,
			"-0.01": 0.697283905902,
			"-0.009": 2.86132011815,
			"-0.008": 8.58181312532,
			"-0.007": 12.9145010791,
			"-0.006": 11.6441512488,
			"-0.005": 10.9224117936,
			"-0.004": 10.1152226124,
			"-0.003": 11.9084672836,
			"-0.002": 10.3062450524,
			"-0.001": 10.7536538055,
			"0.0": 13.6199091973,
			"0.001": 17.3788893016,
			"0.002": 24.9472521596,
			"0.003": 29.4308366445,
			"0.004": 19.4920718531,
			"0.005": 13.3766028718,
			"0.006": 3.53687041174,
			"0.007": 2.70445735698,
			"0.008": 3.34812335059,
			"0.009": 3.36750921252,
			"0.01": 3.14014444193,
			"0.011": 4.22542618457,
			"0.012": 3.08731500888,
			"0.013": 0.0182904203994,
			"0.014": 0.0,
			"0.015": 0.0,
			"0.016": 0.0,
			"0.017": 0.0,
			"0.018": 0.0,
			"0.019": 0.0,
			"0.02": 0.0,
			"0.021": 0.0,
			"0.022": 0.0,
			"0.023": 0.0,
			"0.024": 0.0,
			"0.025": 0.0
		}
	}
}
