{
	 "smiles": "NC(=O)C(=CC1=CC=CC=C1)C#N", 
	 "Tm": 428.15, 
	 "num_atms": 21, 
	 "gaussian": { 
		 "optdone": 1, 
		 "sigma_profile": "yes", 
		 "theory": "DFT", 
		 "functional": "B3LYP", 
		 "basiset": "6-31G**", 
		 "properties": { 
			 "R2extent": 3106.4302, 
			 "electric_dipole_moment_norm": 2.23413171053, 
			 "electric_quadrupole_moment_norm": 16.4663575483, 
			 "total_energy": -570.595015204, 
			 "HOMO_LUMO_gap": 0.15775, 
			 "cosmo_polarized_energy": -13.3, 
			 "cosmo_cavitation_energy": 26.57, 
			 "cosmo_dispersion_energy": -19.16, 
			 "cosmo_repulsion_energy": 1.51, 
			 "cosmo_total_nonelectrostatic_energy": 8.92, 
			 "SMD_solvation_energy": 6.49 
		},
		"coords": [
			{
				"x": -0.9275755807,
				"y": -1.2155470528,
				"z": 3.6202869019,
				"element": "N" 
			},
			{
				"x": -1.1920668436,
				"y": -0.8279574127,
				"z": 2.340643077,
				"element": "C" 
			},
			{
				"x": -2.3172948776,
				"y": -0.9370743391,
				"z": 1.8625728847,
				"element": "O" 
			},
			{
				"x": -0.0085498506,
				"y": -0.2698118462,
				"z": 1.5910890468,
				"element": "C" 
			},
			{
				"x": 0.0686358051,
				"y": 0.2046514892,
				"z": 0.3081468746,
				"element": "C" 
			},
			{
				"x": -0.8314843442,
				"y": 0.38539255,
				"z": -0.8243931463,
				"element": "C" 
			},
			{
				"x": -2.2060636342,
				"y": 0.0652020796,
				"z": -0.8723557777,
				"element": "C" 
			},
			{
				"x": -2.9376465383,
				"y": 0.2980365159,
				"z": -2.0334118395,
				"element": "C" 
			},
			{
				"x": -2.3314553207,
				"y": 0.848644765,
				"z": -3.1655465086,
				"element": "C" 
			},
			{
				"x": -0.9725347993,
				"y": 1.1716854231,
				"z": -3.1367672198,
				"element": "C" 
			},
			{
				"x": -0.2353977991,
				"y": 0.9424144329,
				"z": -1.9815313871,
				"element": "C" 
			},
			{
				"x": 1.2225168292,
				"y": -0.2287698892,
				"z": 2.3303655778,
				"element": "C" 
			},
			{
				"x": 2.1950839242,
				"y": -0.2168847228,
				"z": 2.9725617005,
				"element": "N" 
			},
			{
				"x": -1.6965533851,
				"y": -1.5940084714,
				"z": 4.1507817426,
				"element": "H" 
			},
			{
				"x": -0.0168450077,
				"y": -1.1415879282,
				"z": 4.0457844884,
				"element": "H" 
			},
			{
				"x": 1.0748924245,
				"y": 0.5401617203,
				"z": 0.0611393498,
				"element": "H" 
			},
			{
				"x": -2.6730723892,
				"y": -0.3609208408,
				"z": 0.0047144834,
				"element": "H" 
			},
			{
				"x": -3.9939170305,
				"y": 0.0462301833,
				"z": -2.0538257894,
				"element": "H" 
			},
			{
				"x": -2.9139432968,
				"y": 1.0252546788,
				"z": -4.0653348541,
				"element": "H" 
			},
			{
				"x": -0.4912879532,
				"y": 1.5999636633,
				"z": -4.0107646124,
				"element": "H" 
			},
			{
				"x": 0.8215596679,
				"y": 1.1954250017,
				"z": -1.9637549927,
				"element": "H" 
			}
		],
		 "valence_orbital": [ 
			{
				"type": "occ",
				"energy": -0.31088,
				"method": "rhf"
			},
			{
				"type": "occ",
				"energy": -0.27934,
				"method": "rhf"
			},
			{
				"type": "occ",
				"energy": -0.26644,
				"method": "rhf"
			},
			{
				"type": "occ",
				"energy": -0.26401,
				"method": "rhf"
			},
			{
				"type": "occ",
				"energy": -0.24602,
				"method": "rhf"
			},
			{
				"type": "unocc",
				"energy": -0.08827,
				"method": "rhf"
			},
			{
				"type": "unocc",
				"energy": -0.01258,
				"method": "rhf"
			},
			{
				"type": "unocc",
				"energy": 0.01008,
				"method": "rhf"
			},
			{
				"type": "unocc",
				"energy": 0.02498,
				"method": "rhf"
			},
			{
				"type": "unocc",
				"energy": 0.03162,
				"method": "rhf"
			}
		],
		"cosmo_sigma_profile": { 
			"-0.025": 0.0,
			"-0.024": 0.0,
			"-0.023": 0.0,
			"-0.022": 0.0,
			"-0.021": 0.0,
			"-0.02": 0.0,
			"-0.019": 0.0,
			"-0.018": 0.0,
			"-0.017": 0.0,
			"-0.016": 0.0,
			"-0.015": 0.339206821231,
			"-0.014": 1.50509251885,
			"-0.013": 1.78265127456,
			"-0.012": 2.02687253619,
			"-0.011": 1.70713509428,
			"-0.01": 2.34645427325,
			"-0.009": 4.5025125387,
			"-0.008": 4.19456341982,
			"-0.007": 6.67634076398,
			"-0.006": 10.8088838004,
			"-0.005": 13.4561187088,
			"-0.004": 11.7416146452,
			"-0.003": 12.4992227629,
			"-0.002": 13.608976715,
			"-0.001": 13.6023198549,
			"0.0": 14.8233225282,
			"0.001": 14.4721266968,
			"0.002": 15.5678237967,
			"0.003": 18.7194785026,
			"0.004": 13.5506239662,
			"0.005": 3.48618701386,
			"0.006": 3.35882229741,
			"0.007": 4.37510837479,
			"0.008": 3.94171491323,
			"0.009": 4.77269854699,
			"0.01": 4.64804767111,
			"0.011": 3.98795071448,
			"0.012": 4.7119678235,
			"0.013": 2.95060425072,
			"0.014": 0.440018099257,
			"0.015": 0.0,
			"0.016": 0.0,
			"0.017": 0.0,
			"0.018": 0.0,
			"0.019": 0.0,
			"0.02": 0.0,
			"0.021": 0.0,
			"0.022": 0.0,
			"0.023": 0.0,
			"0.024": 0.0,
			"0.025": 0.0
		}
	}
}
