{
	 "smiles": "COC1=CC(C)=C2C(CCC(=C/C3=CC=CC=C3)C2=O)=C1", 
	 "Tm": 369.65, 
	 "num_atms": 39, 
	 "gaussian": { 
		 "optdone": 1, 
		 "sigma_profile": "yes", 
		 "theory": "DFT", 
		 "functional": "B3LYP", 
		 "basiset": "6-31G**", 
		 "properties": { 
			 "R2extent": 8935.1475, 
			 "electric_dipole_moment_norm": 4.26270600558, 
			 "electric_quadrupole_moment_norm": 11.5158406172, 
			 "total_energy": -885.317157267, 
			 "HOMO_LUMO_gap": 0.15645, 
			 "cosmo_polarized_energy": -11.89, 
			 "cosmo_cavitation_energy": 41.29, 
			 "cosmo_dispersion_energy": -29.97, 
			 "cosmo_repulsion_energy": 2.26, 
			 "cosmo_total_nonelectrostatic_energy": 13.58, 
			 "SMD_solvation_energy": 7.44 
		},
		"coords": [
			{
				"x": -2.8742636331,
				"y": -2.6957590497,
				"z": 4.137409924,
				"element": "C" 
			},
			{
				"x": -3.3819347853,
				"y": -1.5086895833,
				"z": 3.5452871818,
				"element": "O" 
			},
			{
				"x": -2.5989762281,
				"y": -0.8401604908,
				"z": 2.6569557892,
				"element": "C" 
			},
			{
				"x": -3.1595579596,
				"y": 0.3231356598,
				"z": 2.1107692373,
				"element": "C" 
			},
			{
				"x": -2.4690981556,
				"y": 1.1070181638,
				"z": 1.1931915144,
				"element": "C" 
			},
			{
				"x": -3.1530211455,
				"y": 2.3454389098,
				"z": 0.6638662321,
				"element": "C" 
			},
			{
				"x": -1.1627634385,
				"y": 0.6995253146,
				"z": 0.7905076093,
				"element": "C" 
			},
			{
				"x": -0.6075055641,
				"y": -0.4761527104,
				"z": 1.3401752391,
				"element": "C" 
			},
			{
				"x": 0.7872024899,
				"y": -0.902107144,
				"z": 0.9436562215,
				"element": "C" 
			},
			{
				"x": 1.064421659,
				"y": -0.616055227,
				"z": -0.5378605354,
				"element": "C" 
			},
			{
				"x": 0.8095403248,
				"y": 0.8374734055,
				"z": -0.8507656271,
				"element": "C" 
			},
			{
				"x": 1.5532836621,
				"y": 1.6208502979,
				"z": -1.6641764433,
				"element": "C" 
			},
			{
				"x": 2.7172082868,
				"y": 1.2874769009,
				"z": -2.4918668779,
				"element": "C" 
			},
			{
				"x": 2.9197267122,
				"y": 0.0317929967,
				"z": -3.098108532,
				"element": "C" 
			},
			{
				"x": 4.0461063694,
				"y": -0.2097303693,
				"z": -3.8832984966,
				"element": "C" 
			},
			{
				"x": 4.9964306361,
				"y": 0.7934184539,
				"z": -4.0834489185,
				"element": "C" 
			},
			{
				"x": 4.8016755534,
				"y": 2.0515203455,
				"z": -3.5077543013,
				"element": "C" 
			},
			{
				"x": 3.6708487489,
				"y": 2.2970309861,
				"z": -2.7339698796,
				"element": "C" 
			},
			{
				"x": -0.3640168069,
				"y": 1.5024796252,
				"z": -0.175806618,
				"element": "C" 
			},
			{
				"x": -0.6528378073,
				"y": 2.670699722,
				"z": -0.4392690579,
				"element": "O" 
			},
			{
				"x": -1.3177175096,
				"y": -1.2395543163,
				"z": 2.2693014508,
				"element": "C" 
			},
			{
				"x": -3.6562179365,
				"y": -3.054855667,
				"z": 4.8079574599,
				"element": "H" 
			},
			{
				"x": -1.9630662505,
				"y": -2.5003176103,
				"z": 4.7165104919,
				"element": "H" 
			},
			{
				"x": -2.6633621285,
				"y": -3.4647645159,
				"z": 3.3837068278,
				"element": "H" 
			},
			{
				"x": -4.1601830541,
				"y": 0.6003488596,
				"z": 2.4270159083,
				"element": "H" 
			},
			{
				"x": -4.1913647688,
				"y": 2.3756933516,
				"z": 1.0065080924,
				"element": "H" 
			},
			{
				"x": -3.1370772562,
				"y": 2.3817254892,
				"z": -0.4284052682,
				"element": "H" 
			},
			{
				"x": -2.6409968346,
				"y": 3.2519926696,
				"z": 0.9956757223,
				"element": "H" 
			},
			{
				"x": 0.928018438,
				"y": -1.9668838883,
				"z": 1.1575371535,
				"element": "H" 
			},
			{
				"x": 1.5235810609,
				"y": -0.3607161002,
				"z": 1.5542435282,
				"element": "H" 
			},
			{
				"x": 0.4112232101,
				"y": -1.2583370052,
				"z": -1.1470572534,
				"element": "H" 
			},
			{
				"x": 2.0946920469,
				"y": -0.8875766318,
				"z": -0.783021289,
				"element": "H" 
			},
			{
				"x": 1.2492563725,
				"y": 2.6664446099,
				"z": -1.6853397206,
				"element": "H" 
			},
			{
				"x": 2.1730420255,
				"y": -0.7463989586,
				"z": -2.9881139118,
				"element": "H" 
			},
			{
				"x": 4.1767122391,
				"y": -1.1826655059,
				"z": -4.3487598847,
				"element": "H" 
			},
			{
				"x": 5.8737378036,
				"y": 0.6012971261,
				"z": -4.6943105967,
				"element": "H" 
			},
			{
				"x": 5.5276426343,
				"y": 2.8432975764,
				"z": -3.669323532,
				"element": "H" 
			},
			{
				"x": 3.5178314525,
				"y": 3.2797211876,
				"z": -2.2957463962,
				"element": "H" 
			},
			{
				"x": -0.8617204633,
				"y": -2.1354568774,
				"z": 2.6747275561,
				"element": "H" 
			}
		],
		 "valence_orbital": [ 
			{
				"type": "occ",
				"energy": -0.25324,
				"method": "rhf"
			},
			{
				"type": "occ",
				"energy": -0.24154,
				"method": "rhf"
			},
			{
				"type": "occ",
				"energy": -0.23324,
				"method": "rhf"
			},
			{
				"type": "occ",
				"energy": -0.22489,
				"method": "rhf"
			},
			{
				"type": "occ",
				"energy": -0.21986,
				"method": "rhf"
			},
			{
				"type": "unocc",
				"energy": -0.06341,
				"method": "rhf"
			},
			{
				"type": "unocc",
				"energy": -0.01301,
				"method": "rhf"
			},
			{
				"type": "unocc",
				"energy": -0.00415,
				"method": "rhf"
			},
			{
				"type": "unocc",
				"energy": 0.00084,
				"method": "rhf"
			},
			{
				"type": "unocc",
				"energy": 0.03656,
				"method": "rhf"
			}
		],
		"cosmo_sigma_profile": { 
			"-0.025": 0.0,
			"-0.024": 0.0,
			"-0.023": 0.0,
			"-0.022": 0.0,
			"-0.021": 0.0,
			"-0.02": 0.0,
			"-0.019": 0.0,
			"-0.018": 0.0,
			"-0.017": 0.0,
			"-0.016": 0.0,
			"-0.015": 0.0,
			"-0.014": 0.0,
			"-0.013": 0.0,
			"-0.012": 0.0,
			"-0.011": 0.0,
			"-0.01": 0.0,
			"-0.009": 0.0,
			"-0.008": 0.0,
			"-0.007": 0.603544823776,
			"-0.006": 15.3079564402,
			"-0.005": 26.779111907,
			"-0.004": 34.8056677478,
			"-0.003": 34.841192511,
			"-0.002": 28.2136474571,
			"-0.001": 26.8506139918,
			"0.0": 23.2677701966,
			"0.001": 22.0210011062,
			"0.002": 21.235848022,
			"0.003": 26.4100213012,
			"0.004": 26.964997305,
			"0.005": 15.9819387071,
			"0.006": 5.01667138968,
			"0.007": 3.21137357714,
			"0.008": 3.74249837615,
			"0.009": 3.13867473635,
			"0.01": 2.07570983363,
			"0.011": 2.59327249273,
			"0.012": 2.31946347866,
			"0.013": 2.35450941246,
			"0.014": 0.359495002202,
			"0.015": 0.0,
			"0.016": 0.0,
			"0.017": 0.0,
			"0.018": 0.0,
			"0.019": 0.0,
			"0.02": 0.0,
			"0.021": 0.0,
			"0.022": 0.0,
			"0.023": 0.0,
			"0.024": 0.0,
			"0.025": 0.0
		}
	}
}
