{
	 "smiles": "CCOC(=O)C1=CC(C(O)=O)=C(C=C1[N+]([O-])=O)[N+]([O-])=O", 
	 "Tm": 427.15, 
	 "num_atms": 28, 
	 "gaussian": { 
		 "optdone": 1, 
		 "sigma_profile": "yes", 
		 "theory": "DFT", 
		 "functional": "B3LYP", 
		 "basiset": "6-31G**", 
		 "properties": { 
			 "R2extent": 6667.5333, 
			 "electric_dipole_moment_norm": 6.09690729305, 
			 "electric_quadrupole_moment_norm": 12.3080900834, 
			 "total_energy": -1096.97753538, 
			 "HOMO_LUMO_gap": 0.17083, 
			 "cosmo_polarized_energy": -20.16, 
			 "cosmo_cavitation_energy": 36.28, 
			 "cosmo_dispersion_energy": -24.86, 
			 "cosmo_repulsion_energy": 1.96, 
			 "cosmo_total_nonelectrostatic_energy": 13.38, 
			 "SMD_solvation_energy": 12.75 
		},
		"coords": [
			{
				"x": -3.2775909504,
				"y": -0.539606732,
				"z": -3.1569472859,
				"element": "C" 
			},
			{
				"x": -2.3745069838,
				"y": 0.6670883453,
				"z": -3.0005499702,
				"element": "C" 
			},
			{
				"x": -1.6455426029,
				"y": 0.5065231071,
				"z": -1.7509011658,
				"element": "O" 
			},
			{
				"x": -0.8172125035,
				"y": 1.5087573952,
				"z": -1.4310991121,
				"element": "C" 
			},
			{
				"x": -0.604231112,
				"y": 2.4909833336,
				"z": -2.1030012288,
				"element": "O" 
			},
			{
				"x": -0.0849626394,
				"y": 1.2150043513,
				"z": -0.145369372,
				"element": "C" 
			},
			{
				"x": 0.6328950941,
				"y": 0.0202536008,
				"z": -0.0322014991,
				"element": "C" 
			},
			{
				"x": 1.4533380339,
				"y": -0.2450214346,
				"z": 1.0682057907,
				"element": "C" 
			},
			{
				"x": 2.0582664318,
				"y": -1.6157821451,
				"z": 1.2085183026,
				"element": "C" 
			},
			{
				"x": 2.7059035321,
				"y": -1.9858069724,
				"z": 0.0866255127,
				"element": "O" 
			},
			{
				"x": 1.9047594856,
				"y": -2.3237025948,
				"z": 2.1739251953,
				"element": "O" 
			},
			{
				"x": 1.5610780684,
				"y": 0.7370832203,
				"z": 2.059488147,
				"element": "C" 
			},
			{
				"x": 0.8444393942,
				"y": 1.924050135,
				"z": 1.9926761793,
				"element": "C" 
			},
			{
				"x": 0.0197830306,
				"y": 2.142289756,
				"z": 0.8967385678,
				"element": "C" 
			},
			{
				"x": -0.7994396074,
				"y": 3.3708969803,
				"z": 0.9058379484,
				"element": "N" 
			},
			{
				"x": -1.8928889928,
				"y": 3.3138255815,
				"z": 0.3523378049,
				"element": "O" 
			},
			{
				"x": -0.3435380308,
				"y": 4.3415745077,
				"z": 1.5020587059,
				"element": "O" 
			},
			{
				"x": 2.5022758644,
				"y": 0.5812202801,
				"z": 3.1861367165,
				"element": "N" 
			},
			{
				"x": 3.5168812792,
				"y": -0.0754754161,
				"z": 2.9751544041,
				"element": "O" 
			},
			{
				"x": 2.2192271769,
				"y": 1.1544903281,
				"z": 4.2334166552,
				"element": "O" 
			},
			{
				"x": -3.9858729109,
				"y": -0.6085481071,
				"z": -2.3268340161,
				"element": "H" 
			},
			{
				"x": -3.8458945242,
				"y": -0.4532012242,
				"z": -4.0879767522,
				"element": "H" 
			},
			{
				"x": -2.6958482107,
				"y": -1.4650444014,
				"z": -3.1948694351,
				"element": "H" 
			},
			{
				"x": -1.6490129665,
				"y": 0.7544608833,
				"z": -3.814852639,
				"element": "H" 
			},
			{
				"x": -2.9354633926,
				"y": 1.6043948475,
				"z": -2.9497765899,
				"element": "H" 
			},
			{
				"x": 0.5485937611,
				"y": -0.7203960224,
				"z": -0.8186379279,
				"element": "H" 
			},
			{
				"x": 3.0246885285,
				"y": -2.8927674659,
				"z": 0.2371165057,
				"element": "H" 
			},
			{
				"x": 0.9271757471,
				"y": 2.663955863,
				"z": 2.7779805582,
				"element": "H" 
			}
		],
		 "valence_orbital": [ 
			{
				"type": "occ",
				"energy": -0.32201,
				"method": "rhf"
			},
			{
				"type": "occ",
				"energy": -0.31399,
				"method": "rhf"
			},
			{
				"type": "occ",
				"energy": -0.30853,
				"method": "rhf"
			},
			{
				"type": "occ",
				"energy": -0.30045,
				"method": "rhf"
			},
			{
				"type": "occ",
				"energy": -0.29505,
				"method": "rhf"
			},
			{
				"type": "unocc",
				"energy": -0.12422,
				"method": "rhf"
			},
			{
				"type": "unocc",
				"energy": -0.10291,
				"method": "rhf"
			},
			{
				"type": "unocc",
				"energy": -0.05715,
				"method": "rhf"
			},
			{
				"type": "unocc",
				"energy": -0.04982,
				"method": "rhf"
			},
			{
				"type": "unocc",
				"energy": -0.01155,
				"method": "rhf"
			}
		],
		"cosmo_sigma_profile": { 
			"-0.025": 0.0,
			"-0.024": 0.0,
			"-0.023": 0.0,
			"-0.022": 0.0,
			"-0.021": 0.0,
			"-0.02": 0.37521968364,
			"-0.019": 0.872681323194,
			"-0.018": 1.00690835828,
			"-0.017": 1.12421314003,
			"-0.016": 0.662174645345,
			"-0.015": 0.435449910018,
			"-0.014": 0.54328628844,
			"-0.013": 1.099554894,
			"-0.012": 0.831298215683,
			"-0.011": 0.528874659946,
			"-0.01": 1.8569340281,
			"-0.009": 6.50786880937,
			"-0.008": 6.9570200284,
			"-0.007": 5.7721387648,
			"-0.006": 12.1307856428,
			"-0.005": 24.4421780296,
			"-0.004": 27.2342259379,
			"-0.003": 22.3934712304,
			"-0.002": 16.59843924,
			"-0.001": 17.7886590572,
			"0.0": 13.8450268521,
			"0.001": 12.1763086104,
			"0.002": 10.0827992989,
			"0.003": 10.0879870507,
			"0.004": 10.2338994407,
			"0.005": 13.5731383745,
			"0.006": 23.3015047549,
			"0.007": 17.1190600439,
			"0.008": 11.5007422604,
			"0.009": 6.23191536869,
			"0.01": 8.41444294567,
			"0.011": 4.19312007,
			"0.012": 0.0,
			"0.013": 0.0,
			"0.014": 0.0,
			"0.015": 0.0,
			"0.016": 0.0,
			"0.017": 0.0,
			"0.018": 0.0,
			"0.019": 0.0,
			"0.02": 0.0,
			"0.021": 0.0,
			"0.022": 0.0,
			"0.023": 0.0,
			"0.024": 0.0,
			"0.025": 0.0
		}
	}
}
