{
	 "smiles": "CC1=CC=CC=C1NC(=S)NN", 
	 "Tm": 420.15, 
	 "num_atms": 23, 
	 "gaussian": { 
		 "optdone": 1, 
		 "sigma_profile": "yes", 
		 "theory": "DFT", 
		 "functional": "B3LYP", 
		 "basiset": "6-31G**", 
		 "properties": { 
			 "R2extent": 2989.611, 
			 "electric_dipole_moment_norm": 4.6798756992, 
			 "electric_quadrupole_moment_norm": 9.42882089606, 
			 "total_energy": -873.911148965, 
			 "HOMO_LUMO_gap": 0.17873, 
			 "cosmo_polarized_energy": -14.75, 
			 "cosmo_cavitation_energy": 28.06, 
			 "cosmo_dispersion_energy": -20.34, 
			 "cosmo_repulsion_energy": 1.59, 
			 "cosmo_total_nonelectrostatic_energy": 9.31, 
			 "SMD_solvation_energy": 4.71 
		},
		"coords": [
			{
				"x": 1.5388068166,
				"y": 0.7369893302,
				"z": -2.3511258984,
				"element": "C" 
			},
			{
				"x": 0.1864850085,
				"y": 0.3347948279,
				"z": -1.8168661482,
				"element": "C" 
			},
			{
				"x": -0.8959077853,
				"y": 0.1280639533,
				"z": -2.6831200492,
				"element": "C" 
			},
			{
				"x": -2.1640775702,
				"y": -0.2030645154,
				"z": -2.206319246,
				"element": "C" 
			},
			{
				"x": -2.3796478428,
				"y": -0.3392775764,
				"z": -0.8344582182,
				"element": "C" 
			},
			{
				"x": -1.3159146168,
				"y": -0.1577198027,
				"z": 0.0471551395,
				"element": "C" 
			},
			{
				"x": -0.0422929325,
				"y": 0.1716648786,
				"z": -0.433920999,
				"element": "C" 
			},
			{
				"x": 1.0138870337,
				"y": 0.3916922337,
				"z": 0.5076126867,
				"element": "N" 
			},
			{
				"x": 2.0708769875,
				"y": -0.4396328079,
				"z": 0.7675797092,
				"element": "C" 
			},
			{
				"x": 3.2054547195,
				"y": -0.0714365888,
				"z": 1.9559588251,
				"element": "S" 
			},
			{
				"x": 2.1343482256,
				"y": -1.5631794414,
				"z": 0.0022818422,
				"element": "N" 
			},
			{
				"x": 3.0745728545,
				"y": -2.5886717406,
				"z": 0.2037138016,
				"element": "N" 
			},
			{
				"x": 2.2532290997,
				"y": -0.0926632156,
				"z": -2.305287176,
				"element": "H" 
			},
			{
				"x": 1.4635289615,
				"y": 1.0597584547,
				"z": -3.3923951272,
				"element": "H" 
			},
			{
				"x": 1.9680649057,
				"y": 1.5530489476,
				"z": -1.7623373449,
				"element": "H" 
			},
			{
				"x": -0.7392009077,
				"y": 0.249068172,
				"z": -3.7517517564,
				"element": "H" 
			},
			{
				"x": -2.9830133305,
				"y": -0.3468850624,
				"z": -2.9049787407,
				"element": "H" 
			},
			{
				"x": -3.3642063886,
				"y": -0.5918802009,
				"z": -0.4529232359,
				"element": "H" 
			},
			{
				"x": -1.4576296261,
				"y": -0.2723871845,
				"z": 1.1179632647,
				"element": "H" 
			},
			{
				"x": 0.9159956998,
				"y": 1.1379821504,
				"z": 1.1822920825,
				"element": "H" 
			},
			{
				"x": 1.3201016971,
				"y": -1.845028237,
				"z": -0.5274856259,
				"element": "H" 
			},
			{
				"x": 3.164537479,
				"y": -2.7217672015,
				"z": 1.2132982097,
				"element": "H" 
			},
			{
				"x": 3.9818015119,
				"y": -2.2289693734,
				"z": -0.0924859952,
				"element": "H" 
			}
		],
		 "valence_orbital": [ 
			{
				"type": "occ",
				"energy": -0.27379,
				"method": "rhf"
			},
			{
				"type": "occ",
				"energy": -0.26236,
				"method": "rhf"
			},
			{
				"type": "occ",
				"energy": -0.25534,
				"method": "rhf"
			},
			{
				"type": "occ",
				"energy": -0.21503,
				"method": "rhf"
			},
			{
				"type": "occ",
				"energy": -0.20673,
				"method": "rhf"
			},
			{
				"type": "unocc",
				"energy": -0.028,
				"method": "rhf"
			},
			{
				"type": "unocc",
				"energy": -0.01772,
				"method": "rhf"
			},
			{
				"type": "unocc",
				"energy": 0.00561,
				"method": "rhf"
			},
			{
				"type": "unocc",
				"energy": 0.08018,
				"method": "rhf"
			},
			{
				"type": "unocc",
				"energy": 0.08496,
				"method": "rhf"
			}
		],
		"cosmo_sigma_profile": { 
			"-0.025": 0.0,
			"-0.024": 0.0,
			"-0.023": 0.0,
			"-0.022": 0.0,
			"-0.021": 0.0,
			"-0.02": 0.0,
			"-0.019": 0.0,
			"-0.018": 0.0,
			"-0.017": 0.0,
			"-0.016": 0.0,
			"-0.015": 0.0648542962137,
			"-0.014": 0.897929365408,
			"-0.013": 1.56727508406,
			"-0.012": 1.21883558205,
			"-0.011": 2.39504761823,
			"-0.01": 3.68148650354,
			"-0.009": 4.21859337543,
			"-0.008": 4.10865336884,
			"-0.007": 4.44658326703,
			"-0.006": 11.7908113286,
			"-0.005": 13.8273462366,
			"-0.004": 16.4703582727,
			"-0.003": 17.417672287,
			"-0.002": 16.8756168803,
			"-0.001": 16.9241556109,
			"0.0": 18.0422338902,
			"0.001": 12.4317799394,
			"0.002": 9.70591128628,
			"0.003": 9.68790976769,
			"0.004": 10.9586980488,
			"0.005": 9.44375108491,
			"0.006": 4.65464174967,
			"0.007": 4.03670319437,
			"0.008": 3.90805928521,
			"0.009": 5.18052464136,
			"0.01": 6.48545270242,
			"0.011": 7.74278813626,
			"0.012": 3.84720044443,
			"0.013": 0.948399125138,
			"0.014": 0.791812259352,
			"0.015": 0.457640388299,
			"0.016": 0.460802986083,
			"0.017": 0.00729071629789,
			"0.018": 0.0,
			"0.019": 0.0,
			"0.02": 0.0,
			"0.021": 0.0,
			"0.022": 0.0,
			"0.023": 0.0,
			"0.024": 0.0,
			"0.025": 0.0
		}
	}
}
