{
	 "smiles": "NC1=CC(Cl)=C(O)C(Cl)=C1", 
	 "Tm": 441.15, 
	 "num_atms": 15, 
	 "gaussian": { 
		 "optdone": 1, 
		 "sigma_profile": "yes", 
		 "theory": "DFT", 
		 "functional": "B3LYP", 
		 "basiset": "6-31G**", 
		 "properties": { 
			 "R2extent": 2581.8361, 
			 "electric_dipole_moment_norm": 3.43471789089, 
			 "electric_quadrupole_moment_norm": 11.1595302603, 
			 "total_energy": -1282.00679467, 
			 "HOMO_LUMO_gap": 0.18296, 
			 "cosmo_polarized_energy": -11.48, 
			 "cosmo_cavitation_energy": 22.72, 
			 "cosmo_dispersion_energy": -17.49, 
			 "cosmo_repulsion_energy": 1.43, 
			 "cosmo_total_nonelectrostatic_energy": 6.66, 
			 "SMD_solvation_energy": 3.66 
		},
		"coords": [
			{
				"x": 0.155090544,
				"y": -2.1269787691,
				"z": 2.3350140097,
				"element": "N" 
			},
			{
				"x": 0.1583657229,
				"y": -1.6017141452,
				"z": 1.0381483075,
				"element": "C" 
			},
			{
				"x": 1.1748475462,
				"y": -1.9397719427,
				"z": 0.1307806646,
				"element": "C" 
			},
			{
				"x": 1.1435377051,
				"y": -1.4671602525,
				"z": -1.1766412974,
				"element": "C" 
			},
			{
				"x": 2.4308345964,
				"y": -1.9066071611,
				"z": -2.2768479357,
				"element": "Cl" 
			},
			{
				"x": 0.1089932792,
				"y": -0.6415553416,
				"z": -1.6442097483,
				"element": "C" 
			},
			{
				"x": 0.1266827001,
				"y": -0.2047992237,
				"z": -2.927059833,
				"element": "O" 
			},
			{
				"x": -0.8925479501,
				"y": -0.3193142381,
				"z": -0.7180554633,
				"element": "C" 
			},
			{
				"x": -2.2099184577,
				"y": 0.7199045067,
				"z": -1.2633866607,
				"element": "Cl" 
			},
			{
				"x": -0.8857762992,
				"y": -0.7779861419,
				"z": 0.594890744,
				"element": "C" 
			},
			{
				"x": -0.3559891724,
				"y": -1.5774690561,
				"z": 3.0126235213,
				"element": "H" 
			},
			{
				"x": 1.0666495097,
				"y": -2.3872257781,
				"z": 2.6867327846,
				"element": "H" 
			},
			{
				"x": 1.9949214538,
				"y": -2.5796197384,
				"z": 0.4389706096,
				"element": "H" 
			},
			{
				"x": -0.6586727427,
				"y": 0.3428922371,
				"z": -3.0761426131,
				"element": "H" 
			},
			{
				"x": -1.6936184353,
				"y": -0.4985949552,
				"z": 1.2625829101,
				"element": "H" 
			}
		],
		 "valence_orbital": [ 
			{
				"type": "occ",
				"energy": -0.33588,
				"method": "rhf"
			},
			{
				"type": "occ",
				"energy": -0.30902,
				"method": "rhf"
			},
			{
				"type": "occ",
				"energy": -0.28544,
				"method": "rhf"
			},
			{
				"type": "occ",
				"energy": -0.24916,
				"method": "rhf"
			},
			{
				"type": "occ",
				"energy": -0.204,
				"method": "rhf"
			},
			{
				"type": "unocc",
				"energy": -0.02104,
				"method": "rhf"
			},
			{
				"type": "unocc",
				"energy": 0.00322,
				"method": "rhf"
			},
			{
				"type": "unocc",
				"energy": 0.01004,
				"method": "rhf"
			},
			{
				"type": "unocc",
				"energy": 0.05044,
				"method": "rhf"
			},
			{
				"type": "unocc",
				"energy": 0.07038,
				"method": "rhf"
			}
		],
		"cosmo_sigma_profile": { 
			"-0.025": 0.0,
			"-0.024": 0.0,
			"-0.023": 0.0,
			"-0.022": 0.0,
			"-0.021": 0.0,
			"-0.02": 0.0,
			"-0.019": 0.0,
			"-0.018": 0.0,
			"-0.017": 0.0,
			"-0.016": 0.0479040861227,
			"-0.015": 0.715459245123,
			"-0.014": 0.52932514118,
			"-0.013": 1.54164011293,
			"-0.012": 4.53840272,
			"-0.011": 4.01372912456,
			"-0.01": 4.16232332658,
			"-0.009": 5.02778085345,
			"-0.008": 5.048916295,
			"-0.007": 4.91953340475,
			"-0.006": 4.86853541027,
			"-0.005": 5.35790093868,
			"-0.004": 4.51061992172,
			"-0.003": 5.84965003024,
			"-0.002": 7.79416745948,
			"-0.001": 10.0916236658,
			"0.0": 9.99940199885,
			"0.001": 15.7241286008,
			"0.002": 22.3974119181,
			"0.003": 22.5228271809,
			"0.004": 18.9595980767,
			"0.005": 8.7588704848,
			"0.006": 3.00384082245,
			"0.007": 2.49285971662,
			"0.008": 3.17545606792,
			"0.009": 3.04433468604,
			"0.01": 2.55307319689,
			"0.011": 2.28860312434,
			"0.012": 0.481242094362,
			"0.013": 0.727042794824,
			"0.014": 0.626075744336,
			"0.015": 0.0769403761502,
			"0.016": 0.0,
			"0.017": 0.0,
			"0.018": 0.0,
			"0.019": 0.0,
			"0.02": 0.0,
			"0.021": 0.0,
			"0.022": 0.0,
			"0.023": 0.0,
			"0.024": 0.0,
			"0.025": 0.0
		}
	}
}
