{
	 "smiles": "OC(=O)C(F)(F)C(F)(F)C(F)(F)F", 
	 "Tm": 255.35, 
	 "num_atms": 14, 
	 "gaussian": { 
		 "optdone": 1, 
		 "sigma_profile": "yes", 
		 "theory": "DFT", 
		 "functional": "B3LYP", 
		 "basiset": "6-31G**", 
		 "properties": { 
			 "R2extent": 2031.7977, 
			 "electric_dipole_moment_norm": 2.57854717622, 
			 "electric_quadrupole_moment_norm": 8.57103069181, 
			 "total_energy": -1002.33314835, 
			 "HOMO_LUMO_gap": 0.26447, 
			 "cosmo_polarized_energy": -8.15, 
			 "cosmo_cavitation_energy": 21.93, 
			 "cosmo_dispersion_energy": -14.93, 
			 "cosmo_repulsion_energy": 1.06, 
			 "cosmo_total_nonelectrostatic_energy": 8.06, 
			 "SMD_solvation_energy": 7.55 
		},
		"coords": [
			{
				"x": 0.0722035207,
				"y": 2.451589186,
				"z": -1.9313272871,
				"element": "O" 
			},
			{
				"x": -0.133242712,
				"y": 1.9816438471,
				"z": -0.6937679455,
				"element": "C" 
			},
			{
				"x": 0.5199017867,
				"y": 2.2931676324,
				"z": 0.2618431229,
				"element": "O" 
			},
			{
				"x": -1.3029277374,
				"y": 0.9663867379,
				"z": -0.5808860316,
				"element": "C" 
			},
			{
				"x": -1.8559699833,
				"y": 1.0433148319,
				"z": 0.640166638,
				"element": "F" 
			},
			{
				"x": -2.252241581,
				"y": 1.2922267897,
				"z": -1.5214306174,
				"element": "F" 
			},
			{
				"x": -0.9142983697,
				"y": -0.5030581967,
				"z": -0.8796850678,
				"element": "C" 
			},
			{
				"x": -2.0396034105,
				"y": -1.2480751803,
				"z": -0.8606413037,
				"element": "F" 
			},
			{
				"x": -0.3836447713,
				"y": -0.5307017087,
				"z": -2.1326036386,
				"element": "F" 
			},
			{
				"x": 0.1065043997,
				"y": -1.156292101,
				"z": 0.0792738753,
				"element": "C" 
			},
			{
				"x": 0.2821096957,
				"y": -2.4336289172,
				"z": -0.278894011,
				"element": "F" 
			},
			{
				"x": 1.2817497911,
				"y": -0.5186330009,
				"z": -0.0014652885,
				"element": "F" 
			},
			{
				"x": -0.3361855587,
				"y": -1.1135595759,
				"z": 1.3388345269,
				"element": "F" 
			},
			{
				"x": -0.61055507,
				"y": 2.1184196558,
				"z": -2.5350169718,
				"element": "H" 
			}
		],
		 "valence_orbital": [ 
			{
				"type": "occ",
				"energy": -0.43122,
				"method": "rhf"
			},
			{
				"type": "occ",
				"energy": -0.40865,
				"method": "rhf"
			},
			{
				"type": "occ",
				"energy": -0.37623,
				"method": "rhf"
			},
			{
				"type": "occ",
				"energy": -0.3515,
				"method": "rhf"
			},
			{
				"type": "occ",
				"energy": -0.31031,
				"method": "rhf"
			},
			{
				"type": "unocc",
				"energy": -0.04584,
				"method": "rhf"
			},
			{
				"type": "unocc",
				"energy": 0.02868,
				"method": "rhf"
			},
			{
				"type": "unocc",
				"energy": 0.06125,
				"method": "rhf"
			},
			{
				"type": "unocc",
				"energy": 0.06577,
				"method": "rhf"
			},
			{
				"type": "unocc",
				"energy": 0.12791,
				"method": "rhf"
			}
		],
		"cosmo_sigma_profile": { 
			"-0.025": 0.0,
			"-0.024": 0.0,
			"-0.023": 0.0,
			"-0.022": 0.0,
			"-0.021": 0.0,
			"-0.02": 0.294986174667,
			"-0.019": 0.407318601563,
			"-0.018": 0.587165064848,
			"-0.017": 0.847909850166,
			"-0.016": 0.590975881376,
			"-0.015": 0.707893252156,
			"-0.014": 0.874933359605,
			"-0.013": 0.824902523159,
			"-0.012": 0.770068555136,
			"-0.011": 0.590563866601,
			"-0.01": 1.18956746377,
			"-0.009": 2.63353818386,
			"-0.008": 1.55496456893,
			"-0.007": 1.56065140023,
			"-0.006": 2.37238934084,
			"-0.005": 2.25781618513,
			"-0.004": 3.61477914391,
			"-0.003": 6.75674457418,
			"-0.002": 12.1075638742,
			"-0.001": 18.1093329516,
			"0.0": 30.7122081635,
			"0.001": 49.2722708968,
			"0.002": 8.50453665905,
			"0.003": 2.93449588602,
			"0.004": 3.33275657973,
			"0.005": 3.58726753116,
			"0.006": 3.92900668556,
			"0.007": 4.1337953128,
			"0.008": 4.4245231353,
			"0.009": 4.57307517555,
			"0.01": 2.10134976906,
			"0.011": 0.0874597526061,
			"0.012": 0.0,
			"0.013": 0.0,
			"0.014": 0.0,
			"0.015": 0.0,
			"0.016": 0.0,
			"0.017": 0.0,
			"0.018": 0.0,
			"0.019": 0.0,
			"0.02": 0.0,
			"0.021": 0.0,
			"0.022": 0.0,
			"0.023": 0.0,
			"0.024": 0.0,
			"0.025": 0.0
		}
	}
}
