{
	 "smiles": "FC(F)(F)C1=CC=CC(=C1)C(=O)CC#N", 
	 "Tm": 334.15, 
	 "num_atms": 21, 
	 "gaussian": { 
		 "optdone": 1, 
		 "sigma_profile": "yes", 
		 "theory": "DFT", 
		 "functional": "B3LYP", 
		 "basiset": "6-31G**", 
		 "properties": { 
			 "R2extent": 4867.2919, 
			 "electric_dipole_moment_norm": 3.44412049005, 
			 "electric_quadrupole_moment_norm": 19.2326938579, 
			 "total_energy": -814.159116961, 
			 "HOMO_LUMO_gap": 0.19312, 
			 "cosmo_polarized_energy": -13.08, 
			 "cosmo_cavitation_energy": 28.62, 
			 "cosmo_dispersion_energy": -19.4, 
			 "cosmo_repulsion_energy": 1.46, 
			 "cosmo_total_nonelectrostatic_energy": 10.68, 
			 "SMD_solvation_energy": 7.95 
		},
		"coords": [
			{
				"x": 3.3763871324,
				"y": -2.2614124444,
				"z": 1.6122379852,
				"element": "F" 
			},
			{
				"x": 2.5701100677,
				"y": -2.2007171409,
				"z": 2.6906272284,
				"element": "C" 
			},
			{
				"x": 3.29091228,
				"y": -1.6625903015,
				"z": 3.7006822843,
				"element": "F" 
			},
			{
				"x": 2.2713584899,
				"y": -3.4675390682,
				"z": 3.0541139538,
				"element": "F" 
			},
			{
				"x": 1.3236489406,
				"y": -1.3972211664,
				"z": 2.4197375215,
				"element": "C" 
			},
			{
				"x": 0.1942263914,
				"y": -1.5883398708,
				"z": 3.2256939839,
				"element": "C" 
			},
			{
				"x": -0.9461663826,
				"y": -0.8166649757,
				"z": 3.0155084554,
				"element": "C" 
			},
			{
				"x": -0.9651577163,
				"y": 0.1451078162,
				"z": 2.0050927144,
				"element": "C" 
			},
			{
				"x": 0.1628731877,
				"y": 0.3386783828,
				"z": 1.1941787539,
				"element": "C" 
			},
			{
				"x": 1.3099934321,
				"y": -0.4414092435,
				"z": 1.4104970988,
				"element": "C" 
			},
			{
				"x": 0.222212351,
				"y": 1.3537628902,
				"z": 0.1013534674,
				"element": "C" 
			},
			{
				"x": 1.2261453253,
				"y": 1.5273977681,
				"z": -0.5626081304,
				"element": "O" 
			},
			{
				"x": -1.0084270695,
				"y": 2.2542961055,
				"z": -0.175077816,
				"element": "C" 
			},
			{
				"x": -2.1986208136,
				"y": 1.5226844681,
				"z": -0.6071590076,
				"element": "C" 
			},
			{
				"x": -3.1381716931,
				"y": 0.9318235931,
				"z": -0.9472059363,
				"element": "N" 
			},
			{
				"x": 0.209889757,
				"y": -2.3441864907,
				"z": 4.0038835635,
				"element": "H" 
			},
			{
				"x": -1.8245789339,
				"y": -0.9679563914,
				"z": 3.6343725209,
				"element": "H" 
			},
			{
				"x": -1.8677265621,
				"y": 0.7255995901,
				"z": 1.8489627807,
				"element": "H" 
			},
			{
				"x": 2.1738631983,
				"y": -0.2858397917,
				"z": 0.7749694738,
				"element": "H" 
			},
			{
				"x": -0.7067867859,
				"y": 2.9562460668,
				"z": -0.9565456588,
				"element": "H" 
			},
			{
				"x": -1.2533845964,
				"y": 2.8315802042,
				"z": 0.7251847633,
				"element": "H" 
			}
		],
		 "valence_orbital": [ 
			{
				"type": "occ",
				"energy": -0.35037,
				"method": "rhf"
			},
			{
				"type": "occ",
				"energy": -0.34018,
				"method": "rhf"
			},
			{
				"type": "occ",
				"energy": -0.29121,
				"method": "rhf"
			},
			{
				"type": "occ",
				"energy": -0.28747,
				"method": "rhf"
			},
			{
				"type": "occ",
				"energy": -0.28232,
				"method": "rhf"
			},
			{
				"type": "unocc",
				"energy": -0.0892,
				"method": "rhf"
			},
			{
				"type": "unocc",
				"energy": -0.04475,
				"method": "rhf"
			},
			{
				"type": "unocc",
				"energy": 0.0001,
				"method": "rhf"
			},
			{
				"type": "unocc",
				"energy": 0.02006,
				"method": "rhf"
			},
			{
				"type": "unocc",
				"energy": 0.02798,
				"method": "rhf"
			}
		],
		"cosmo_sigma_profile": { 
			"-0.025": 0.0,
			"-0.024": 0.0,
			"-0.023": 0.0,
			"-0.022": 0.0,
			"-0.021": 0.0,
			"-0.02": 0.0,
			"-0.019": 0.0,
			"-0.018": 0.0,
			"-0.017": 0.0,
			"-0.016": 0.0,
			"-0.015": 0.0,
			"-0.014": 0.0,
			"-0.013": 0.0,
			"-0.012": 0.300389888604,
			"-0.011": 2.81104459083,
			"-0.01": 4.61197943213,
			"-0.009": 4.47135187905,
			"-0.008": 7.30967628976,
			"-0.007": 11.4970290619,
			"-0.006": 11.0222651278,
			"-0.005": 9.92360408873,
			"-0.004": 8.84544924227,
			"-0.003": 10.5116348695,
			"-0.002": 10.7976428193,
			"-0.001": 15.6169401492,
			"0.0": 19.0847954329,
			"0.001": 23.1995965558,
			"0.002": 27.0743986594,
			"0.003": 25.3351207029,
			"0.004": 2.58741151759,
			"0.005": 3.75713425665,
			"0.006": 3.9059359333,
			"0.007": 3.40992086777,
			"0.008": 6.14739490774,
			"0.009": 4.92057327797,
			"0.01": 6.78817074211,
			"0.011": 4.16871946893,
			"0.012": 2.31920298768,
			"0.013": 0.880830559174,
			"0.014": 0.0,
			"0.015": 0.0,
			"0.016": 0.0,
			"0.017": 0.0,
			"0.018": 0.0,
			"0.019": 0.0,
			"0.02": 0.0,
			"0.021": 0.0,
			"0.022": 0.0,
			"0.023": 0.0,
			"0.024": 0.0,
			"0.025": 0.0
		}
	}
}
