{
	 "smiles": "OCC1=CC=C(OC2CCOCC2)C=C1", 
	 "Tm": 355.15, 
	 "num_atms": 31, 
	 "gaussian": { 
		 "optdone": 1, 
		 "sigma_profile": "yes", 
		 "theory": "DFT", 
		 "functional": "B3LYP", 
		 "basiset": "6-31G**", 
		 "properties": { 
			 "R2extent": 5136.408, 
			 "electric_dipole_moment_norm": 0.4550576447, 
			 "electric_quadrupole_moment_norm": 18.4158056069, 
			 "total_energy": -692.558199029, 
			 "HOMO_LUMO_gap": 0.21072, 
			 "cosmo_polarized_energy": -11.84, 
			 "cosmo_cavitation_energy": 32.7, 
			 "cosmo_dispersion_energy": -24.13, 
			 "cosmo_repulsion_energy": 1.91, 
			 "cosmo_total_nonelectrostatic_energy": 10.48, 
			 "SMD_solvation_energy": 5.24 
		},
		"coords": [
			{
				"x": -3.401034341,
				"y": -2.3567735068,
				"z": -2.2684540882,
				"element": "O" 
			},
			{
				"x": -3.4191057124,
				"y": -0.943142628,
				"z": -2.4254501425,
				"element": "C" 
			},
			{
				"x": -2.2379682808,
				"y": -0.2455867518,
				"z": -1.7808906011,
				"element": "C" 
			},
			{
				"x": -1.6742264271,
				"y": -0.7397507897,
				"z": -0.6019315108,
				"element": "C" 
			},
			{
				"x": -0.6006612366,
				"y": -0.0975013959,
				"z": 0.0197857288,
				"element": "C" 
			},
			{
				"x": -0.0757134658,
				"y": 1.0752138285,
				"z": -0.5379964727,
				"element": "C" 
			},
			{
				"x": 0.9530056201,
				"y": 1.8082475534,
				"z": -0.0151982973,
				"element": "O" 
			},
			{
				"x": 1.6272960047,
				"y": 1.3679070562,
				"z": 1.1736369104,
				"element": "C" 
			},
			{
				"x": 2.3927185587,
				"y": 2.5881634643,
				"z": 1.7159005864,
				"element": "C" 
			},
			{
				"x": 3.8107905038,
				"y": 2.6431109864,
				"z": 1.1540367635,
				"element": "C" 
			},
			{
				"x": 4.5917947995,
				"y": 1.5106484383,
				"z": 1.5423440436,
				"element": "O" 
			},
			{
				"x": 3.855423847,
				"y": 0.3071882613,
				"z": 1.7451418144,
				"element": "C" 
			},
			{
				"x": 2.6102090327,
				"y": 0.2154251781,
				"z": 0.8622165666,
				"element": "C" 
			},
			{
				"x": -0.6311381079,
				"y": 1.5790612255,
				"z": -1.724036425,
				"element": "C" 
			},
			{
				"x": -1.6929150768,
				"y": 0.9218290127,
				"z": -2.3339129601,
				"element": "C" 
			},
			{
				"x": -2.5584241329,
				"y": -2.672534607,
				"z": -2.6218685366,
				"element": "H" 
			},
			{
				"x": -4.3573286977,
				"y": -0.6208244074,
				"z": -1.9572055051,
				"element": "H" 
			},
			{
				"x": -3.481686739,
				"y": -0.6550274129,
				"z": -3.4872955837,
				"element": "H" 
			},
			{
				"x": -2.0774420342,
				"y": -1.6507790899,
				"z": -0.1695783362,
				"element": "H" 
			},
			{
				"x": -0.1883327862,
				"y": -0.5187046212,
				"z": 0.9288734247,
				"element": "H" 
			},
			{
				"x": 0.8783934652,
				"y": 1.0565704089,
				"z": 1.9129335807,
				"element": "H" 
			},
			{
				"x": 2.4423817316,
				"y": 2.530083852,
				"z": 2.8090811057,
				"element": "H" 
			},
			{
				"x": 1.8385942764,
				"y": 3.496342986,
				"z": 1.4607354816,
				"element": "H" 
			},
			{
				"x": 3.7685503944,
				"y": 2.7164756383,
				"z": 0.056251359,
				"element": "H" 
			},
			{
				"x": 4.3447922945,
				"y": 3.5252342511,
				"z": 1.5220350856,
				"element": "H" 
			},
			{
				"x": 3.56785922,
				"y": 0.2117480079,
				"z": 2.8060467106,
				"element": "H" 
			},
			{
				"x": 4.542898067,
				"y": -0.5160982321,
				"z": 1.5245655113,
				"element": "H" 
			},
			{
				"x": 2.9095782767,
				"y": 0.3020098563,
				"z": -0.1882158467,
				"element": "H" 
			},
			{
				"x": 2.13882463,
				"y": -0.7647957512,
				"z": 0.9823530292,
				"element": "H" 
			},
			{
				"x": -0.2076533509,
				"y": 2.483260681,
				"z": -2.1492653714,
				"element": "H" 
			},
			{
				"x": -2.1044803332,
				"y": 1.3225985077,
				"z": -3.2577380245,
				"element": "H" 
			}
		],
		 "valence_orbital": [ 
			{
				"type": "occ",
				"energy": -0.29344,
				"method": "rhf"
			},
			{
				"type": "occ",
				"energy": -0.2718,
				"method": "rhf"
			},
			{
				"type": "occ",
				"energy": -0.25171,
				"method": "rhf"
			},
			{
				"type": "occ",
				"energy": -0.24459,
				"method": "rhf"
			},
			{
				"type": "occ",
				"energy": -0.21467,
				"method": "rhf"
			},
			{
				"type": "unocc",
				"energy": -0.00395,
				"method": "rhf"
			},
			{
				"type": "unocc",
				"energy": 0.00749,
				"method": "rhf"
			},
			{
				"type": "unocc",
				"energy": 0.07349,
				"method": "rhf"
			},
			{
				"type": "unocc",
				"energy": 0.08965,
				"method": "rhf"
			},
			{
				"type": "unocc",
				"energy": 0.09701,
				"method": "rhf"
			}
		],
		"cosmo_sigma_profile": { 
			"-0.025": 0.0,
			"-0.024": 0.0,
			"-0.023": 0.0,
			"-0.022": 0.0,
			"-0.021": 0.0,
			"-0.02": 0.0,
			"-0.019": 0.0,
			"-0.018": 0.0,
			"-0.017": 0.0,
			"-0.016": 0.0,
			"-0.015": 0.70052615883,
			"-0.014": 0.843673677362,
			"-0.013": 1.0180681811,
			"-0.012": 0.808611503416,
			"-0.011": 0.358727305474,
			"-0.01": 1.32503497713,
			"-0.009": 0.601602855727,
			"-0.008": 0.687088280764,
			"-0.007": 2.88437328716,
			"-0.006": 5.57681642775,
			"-0.005": 18.2499650937,
			"-0.004": 29.7063692915,
			"-0.003": 32.6384803457,
			"-0.002": 29.3648739626,
			"-0.001": 21.5444783357,
			"0.0": 14.0825653231,
			"0.001": 11.4592243544,
			"0.002": 11.6115839998,
			"0.003": 10.3264468746,
			"0.004": 12.8292302815,
			"0.005": 12.4578857476,
			"0.006": 11.1034388251,
			"0.007": 4.03250704237,
			"0.008": 3.28585214462,
			"0.009": 3.75983753931,
			"0.01": 2.20453616333,
			"0.011": 2.52243717467,
			"0.012": 2.35583117283,
			"0.013": 3.57630901292,
			"0.014": 3.57795943615,
			"0.015": 0.370534594811,
			"0.016": 0.0,
			"0.017": 0.0,
			"0.018": 0.0,
			"0.019": 0.0,
			"0.02": 0.0,
			"0.021": 0.0,
			"0.022": 0.0,
			"0.023": 0.0,
			"0.024": 0.0,
			"0.025": 0.0
		}
	}
}
