{
	 "smiles": "CC1=C(I)C=CC(=C1)C(O)=O", 
	 "Tm": 492.15, 
	 "num_atms": 18, 
	 "gaussian": { 
		 "optdone": 1, 
		 "sigma_profile": "yes", 
		 "theory": "DFT", 
		 "functional": "B3LYP", 
		 "basiset": "6-31G**", 
		 "properties": { 
			 "R2extent": 2161.5491, 
			 "electric_dipole_moment_norm": 1.85603479763, 
			 "electric_quadrupole_moment_norm": 6.69714435114, 
			 "total_energy": -470.928972478, 
			 "HOMO_LUMO_gap": 0.1893, 
			 "cosmo_polarized_energy": -8.68, 
			 "cosmo_cavitation_energy": 25.49, 
			 "cosmo_dispersion_energy": -20.09, 
			 "cosmo_repulsion_energy": 1.57, 
			 "cosmo_total_nonelectrostatic_energy": 6.97, 
			 "SMD_solvation_energy": 4.83 
		},
		"coords": [
			{
				"x": -0.1653228339,
				"y": -1.971135081,
				"z": 1.4594648303,
				"element": "C" 
			},
			{
				"x": 0.2180550261,
				"y": -1.0801881116,
				"z": 0.3054094342,
				"element": "C" 
			},
			{
				"x": 1.3399564394,
				"y": -1.3130787344,
				"z": -0.5097153757,
				"element": "C" 
			},
			{
				"x": 2.6056392822,
				"y": -2.9849114396,
				"z": -0.1580024127,
				"element": "I" 
			},
			{
				"x": 1.6730295051,
				"y": -0.4702183854,
				"z": -1.5744905709,
				"element": "C" 
			},
			{
				"x": 0.8794193791,
				"y": 0.6379915031,
				"z": -1.8489524584,
				"element": "C" 
			},
			{
				"x": -0.2443870411,
				"y": 0.8998893964,
				"z": -1.0581811959,
				"element": "C" 
			},
			{
				"x": -0.560961731,
				"y": 0.0446042564,
				"z": 0.0026329185,
				"element": "C" 
			},
			{
				"x": -1.0660335273,
				"y": 2.0951466232,
				"z": -1.385394454,
				"element": "C" 
			},
			{
				"x": -2.1287537782,
				"y": 2.2542770178,
				"z": -0.5573211325,
				"element": "O" 
			},
			{
				"x": -0.8336928285,
				"y": 2.8673877226,
				"z": -2.2942717263,
				"element": "O" 
			},
			{
				"x": 0.6335202276,
				"y": -2.0218626795,
				"z": 2.2071467028,
				"element": "H" 
			},
			{
				"x": -0.3544028225,
				"y": -2.9971908936,
				"z": 1.1259841503,
				"element": "H" 
			},
			{
				"x": -1.06840487,
				"y": -1.5991640051,
				"z": 1.9490978374,
				"element": "H" 
			},
			{
				"x": 2.545353731,
				"y": -0.6796291341,
				"z": -2.1827720425,
				"element": "H" 
			},
			{
				"x": 1.1165755952,
				"y": 1.3068717579,
				"z": -2.6690608597,
				"element": "H" 
			},
			{
				"x": -1.4344777014,
				"y": 0.2566956096,
				"z": 0.609542452,
				"element": "H" 
			},
			{
				"x": -2.5840120517,
				"y": 3.0556145771,
				"z": -0.8639160969,
				"element": "H" 
			}
		],
		 "valence_orbital": [ 
			{
				"type": "occ",
				"energy": -0.30191,
				"method": "rhf"
			},
			{
				"type": "occ",
				"energy": -0.28225,
				"method": "rhf"
			},
			{
				"type": "occ",
				"energy": -0.27285,
				"method": "rhf"
			},
			{
				"type": "occ",
				"energy": -0.26489,
				"method": "rhf"
			},
			{
				"type": "occ",
				"energy": -0.24786,
				"method": "rhf"
			},
			{
				"type": "unocc",
				"energy": -0.05856,
				"method": "rhf"
			},
			{
				"type": "unocc",
				"energy": -0.04293,
				"method": "rhf"
			},
			{
				"type": "unocc",
				"energy": -0.01887,
				"method": "rhf"
			},
			{
				"type": "unocc",
				"energy": 0.03718,
				"method": "rhf"
			},
			{
				"type": "unocc",
				"energy": 0.04091,
				"method": "rhf"
			}
		],
		"cosmo_sigma_profile": { 
			"-0.025": 0.0,
			"-0.024": 0.0,
			"-0.023": 0.0,
			"-0.022": 0.0,
			"-0.021": 0.0,
			"-0.02": 0.0,
			"-0.019": 0.0934562788868,
			"-0.018": 0.70074882278,
			"-0.017": 1.02074124146,
			"-0.016": 0.892901694139,
			"-0.015": 0.762218693199,
			"-0.014": 0.83008117378,
			"-0.013": 0.302373735449,
			"-0.012": 0.80601940392,
			"-0.011": 0.724330946383,
			"-0.01": 0.912621271066,
			"-0.009": 0.375135088225,
			"-0.008": 0.38616494382,
			"-0.007": 4.79144596388,
			"-0.006": 8.0204369175,
			"-0.005": 9.36789537237,
			"-0.004": 11.0469146194,
			"-0.003": 14.602118397,
			"-0.002": 16.145798768,
			"-0.001": 18.1232771504,
			"0.0": 19.89334487,
			"0.001": 20.8644976415,
			"0.002": 23.1018806202,
			"0.003": 18.0504910655,
			"0.004": 13.2456888761,
			"0.005": 4.68843535688,
			"0.006": 2.39653072763,
			"0.007": 3.35064203279,
			"0.008": 1.64634476145,
			"0.009": 1.57602008231,
			"0.01": 2.0609145236,
			"0.011": 3.91023853806,
			"0.012": 3.63389238548,
			"0.013": 0.0813686229064,
			"0.014": 0.0,
			"0.015": 0.0,
			"0.016": 0.0,
			"0.017": 0.0,
			"0.018": 0.0,
			"0.019": 0.0,
			"0.02": 0.0,
			"0.021": 0.0,
			"0.022": 0.0,
			"0.023": 0.0,
			"0.024": 0.0,
			"0.025": 0.0
		}
	}
}
