{
	 "smiles": "CN1C=C(CCC(O)=O)C(C)=N1", 
	 "Tm": 388.15, 
	 "num_atms": 24, 
	 "gaussian": { 
		 "optdone": 1, 
		 "sigma_profile": "yes", 
		 "theory": "DFT", 
		 "functional": "B3LYP", 
		 "basiset": "6-31G**", 
		 "properties": { 
			 "R2extent": 3278.8496, 
			 "electric_dipole_moment_norm": 2.15191888788, 
			 "electric_quadrupole_moment_norm": 11.5714626928, 
			 "total_energy": -572.041444597, 
			 "HOMO_LUMO_gap": 0.23573, 
			 "cosmo_polarized_energy": -13.98, 
			 "cosmo_cavitation_energy": 28.42, 
			 "cosmo_dispersion_energy": -20.07, 
			 "cosmo_repulsion_energy": 1.64, 
			 "cosmo_total_nonelectrostatic_energy": 10.0, 
			 "SMD_solvation_energy": 5.45 
		},
		"coords": [
			{
				"x": 1.1502887287,
				"y": 3.2006331882,
				"z": 1.4640756484,
				"element": "C" 
			},
			{
				"x": 0.7191079385,
				"y": 2.2587200302,
				"z": 0.4512599035,
				"element": "N" 
			},
			{
				"x": 1.1375447151,
				"y": 0.9793653886,
				"z": 0.2610346305,
				"element": "C" 
			},
			{
				"x": 0.5213384506,
				"y": 0.5104980449,
				"z": -0.8863459556,
				"element": "C" 
			},
			{
				"x": 0.6384560842,
				"y": -0.8556403897,
				"z": -1.5006111573,
				"element": "C" 
			},
			{
				"x": -0.5322438823,
				"y": -1.7827202075,
				"z": -1.1356903984,
				"element": "C" 
			},
			{
				"x": -0.4090360138,
				"y": -3.1580701365,
				"z": -1.7530313799,
				"element": "C" 
			},
			{
				"x": -1.4690327474,
				"y": -3.943510131,
				"z": -1.4361911454,
				"element": "O" 
			},
			{
				"x": 0.5046482612,
				"y": -3.5500106944,
				"z": -2.4459439109,
				"element": "O" 
			},
			{
				"x": -0.2639763994,
				"y": 1.6119596258,
				"z": -1.3298369677,
				"element": "C" 
			},
			{
				"x": -1.1541412966,
				"y": 1.6955138388,
				"z": -2.5331925561,
				"element": "C" 
			},
			{
				"x": -0.1312878167,
				"y": 2.6638073731,
				"z": -0.5176771819,
				"element": "N" 
			},
			{
				"x": 0.2839928906,
				"y": 3.7550865325,
				"z": 1.8303592829,
				"element": "H" 
			},
			{
				"x": 1.6053733001,
				"y": 2.6531513352,
				"z": 2.2919630409,
				"element": "H" 
			},
			{
				"x": 1.8790238271,
				"y": 3.9110771569,
				"z": 1.0592449563,
				"element": "H" 
			},
			{
				"x": 1.8336021408,
				"y": 0.5043083899,
				"z": 0.9387763871,
				"element": "H" 
			},
			{
				"x": 1.5739257161,
				"y": -1.3317698154,
				"z": -1.1898974887,
				"element": "H" 
			},
			{
				"x": 0.6958894384,
				"y": -0.7776314028,
				"z": -2.5922482476,
				"element": "H" 
			},
			{
				"x": -0.6111692553,
				"y": -1.905265883,
				"z": -0.0485708137,
				"element": "H" 
			},
			{
				"x": -1.4926417591,
				"y": -1.3564354483,
				"z": -1.4491826798,
				"element": "H" 
			},
			{
				"x": -1.306724532,
				"y": -4.7994092141,
				"z": -1.8674662429,
				"element": "H" 
			},
			{
				"x": -1.5144155468,
				"y": 2.7194986015,
				"z": -2.6542234547,
				"element": "H" 
			},
			{
				"x": -0.6227737648,
				"y": 1.4060480234,
				"z": -3.4471460784,
				"element": "H" 
			},
			{
				"x": -2.0275484771,
				"y": 1.0379957937,
				"z": -2.4445581904,
				"element": "H" 
			}
		],
		 "valence_orbital": [ 
			{
				"type": "occ",
				"energy": -0.31765,
				"method": "rhf"
			},
			{
				"type": "occ",
				"energy": -0.27554,
				"method": "rhf"
			},
			{
				"type": "occ",
				"energy": -0.27535,
				"method": "rhf"
			},
			{
				"type": "occ",
				"energy": -0.23643,
				"method": "rhf"
			},
			{
				"type": "occ",
				"energy": -0.22493,
				"method": "rhf"
			},
			{
				"type": "unocc",
				"energy": 0.0108,
				"method": "rhf"
			},
			{
				"type": "unocc",
				"energy": 0.02627,
				"method": "rhf"
			},
			{
				"type": "unocc",
				"energy": 0.06484,
				"method": "rhf"
			},
			{
				"type": "unocc",
				"energy": 0.08563,
				"method": "rhf"
			},
			{
				"type": "unocc",
				"energy": 0.091,
				"method": "rhf"
			}
		],
		"cosmo_sigma_profile": { 
			"-0.025": 0.0,
			"-0.024": 0.0,
			"-0.023": 0.0,
			"-0.022": 0.0,
			"-0.021": 0.0,
			"-0.02": 0.0,
			"-0.019": 0.0,
			"-0.018": 0.484462129562,
			"-0.017": 0.80205978199,
			"-0.016": 1.00297637931,
			"-0.015": 1.07020727083,
			"-0.014": 0.2700221222,
			"-0.013": 0.553447216337,
			"-0.012": 0.676005835135,
			"-0.011": 1.32113804119,
			"-0.01": 0.688033888764,
			"-0.009": 0.378333491617,
			"-0.008": 3.01550341645,
			"-0.007": 4.74737868215,
			"-0.006": 9.23636055238,
			"-0.005": 14.6022184229,
			"-0.004": 22.8269136853,
			"-0.003": 27.2648357743,
			"-0.002": 20.5728148256,
			"-0.001": 15.1430135999,
			"0.0": 15.1286035967,
			"0.001": 10.5899106888,
			"0.002": 8.81540076378,
			"0.003": 7.3148978035,
			"0.004": 8.07452756448,
			"0.005": 8.41043314558,
			"0.006": 6.75750388541,
			"0.007": 4.87389151249,
			"0.008": 4.73278944047,
			"0.009": 4.36731355749,
			"0.01": 4.42921350653,
			"0.011": 4.45685629268,
			"0.012": 6.2133655866,
			"0.013": 1.38535914498,
			"0.014": 0.925228399508,
			"0.015": 1.11526116654,
			"0.016": 0.807919718421,
			"0.017": 0.374445761035,
			"0.018": 0.0,
			"0.019": 0.0,
			"0.02": 0.0,
			"0.021": 0.0,
			"0.022": 0.0,
			"0.023": 0.0,
			"0.024": 0.0,
			"0.025": 0.0
		}
	}
}
