{
	 "smiles": "CCOC(O)=C1C=NC2=C(CNN2C)C1=O", 
	 "Tm": 412.15, 
	 "num_atms": 29, 
	 "gaussian": { 
		 "optdone": 1, 
		 "sigma_profile": "yes", 
		 "theory": "DFT", 
		 "functional": "B3LYP", 
		 "basiset": "6-31G**", 
		 "properties": { 
			 "R2extent": 4531.0751, 
			 "electric_dipole_moment_norm": 3.63697195068, 
			 "electric_quadrupole_moment_norm": 17.9833702792, 
			 "total_energy": -778.753893892, 
			 "HOMO_LUMO_gap": 0.11384, 
			 "cosmo_polarized_energy": -18.53, 
			 "cosmo_cavitation_energy": 32.08, 
			 "cosmo_dispersion_energy": -23.49, 
			 "cosmo_repulsion_energy": 1.85, 
			 "cosmo_total_nonelectrostatic_energy": 10.45, 
			 "SMD_solvation_energy": 4.24 
		},
		"coords": [
			{
				"x": 2.9474150351,
				"y": 2.0838830596,
				"z": 0.462268905,
				"element": "C" 
			},
			{
				"x": 3.3657181424,
				"y": 1.2504570872,
				"z": -0.7358459124,
				"element": "C" 
			},
			{
				"x": 2.5702480703,
				"y": 1.6092286029,
				"z": -1.9208544458,
				"element": "O" 
			},
			{
				"x": 1.2807686629,
				"y": 1.3519190375,
				"z": -2.0427301002,
				"element": "C" 
			},
			{
				"x": 0.6861168495,
				"y": 2.2956097152,
				"z": -2.7889670834,
				"element": "O" 
			},
			{
				"x": 0.5040661057,
				"y": 0.2960580518,
				"z": -1.5664502059,
				"element": "C" 
			},
			{
				"x": -0.925829,
				"y": 0.5015169927,
				"z": -1.578229436,
				"element": "C" 
			},
			{
				"x": -1.83239846,
				"y": -0.3699571656,
				"z": -1.219744941,
				"element": "N" 
			},
			{
				"x": -1.3224542236,
				"y": -1.5860755485,
				"z": -0.8444987131,
				"element": "C" 
			},
			{
				"x": 0.0053120986,
				"y": -1.9303684045,
				"z": -0.7614741199,
				"element": "C" 
			},
			{
				"x": 0.1082955667,
				"y": -3.3349190084,
				"z": -0.238471369,
				"element": "C" 
			},
			{
				"x": -1.3258960679,
				"y": -3.7162029209,
				"z": 0.0004513217,
				"element": "N" 
			},
			{
				"x": -2.1515899259,
				"y": -2.6298130848,
				"z": -0.5060216953,
				"element": "N" 
			},
			{
				"x": -3.3791182739,
				"y": -2.4046929618,
				"z": 0.2412054171,
				"element": "C" 
			},
			{
				"x": 1.0439900496,
				"y": -1.0345092523,
				"z": -1.146321995,
				"element": "C" 
			},
			{
				"x": 2.2540605827,
				"y": -1.3475995413,
				"z": -1.1541202153,
				"element": "O" 
			},
			{
				"x": 3.0303868454,
				"y": 3.1567857898,
				"z": 0.2610216712,
				"element": "H" 
			},
			{
				"x": 1.9209665172,
				"y": 1.8581500103,
				"z": 0.7655219486,
				"element": "H" 
			},
			{
				"x": 3.6030475161,
				"y": 1.8438589719,
				"z": 1.305580103,
				"element": "H" 
			},
			{
				"x": 3.2611275771,
				"y": 0.1756393635,
				"z": -0.5831245595,
				"element": "H" 
			},
			{
				"x": 4.3808927187,
				"y": 1.4888235101,
				"z": -1.0580059772,
				"element": "H" 
			},
			{
				"x": 1.3277821058,
				"y": 3.0133895338,
				"z": -2.9120287138,
				"element": "H" 
			},
			{
				"x": -1.2962677193,
				"y": 1.4792778148,
				"z": -1.87916762,
				"element": "H" 
			},
			{
				"x": 0.5864983,
				"y": -4.0189441888,
				"z": -0.9527867491,
				"element": "H" 
			},
			{
				"x": 0.6812680758,
				"y": -3.397748002,
				"z": 0.6964690943,
				"element": "H" 
			},
			{
				"x": -1.5528731338,
				"y": -4.5147368246,
				"z": -0.5880177068,
				"element": "H" 
			},
			{
				"x": -3.8430091126,
				"y": -1.4967078988,
				"z": -0.1474746438,
				"element": "H" 
			},
			{
				"x": -3.1809062793,
				"y": -2.2931666168,
				"z": 1.3159471718,
				"element": "H" 
			},
			{
				"x": -4.0621186235,
				"y": -3.2465561221,
				"z": 0.09607057,
				"element": "H" 
			}
		],
		 "valence_orbital": [ 
			{
				"type": "occ",
				"energy": -0.2653,
				"method": "rhf"
			},
			{
				"type": "occ",
				"energy": -0.25842,
				"method": "rhf"
			},
			{
				"type": "occ",
				"energy": -0.22215,
				"method": "rhf"
			},
			{
				"type": "occ",
				"energy": -0.21989,
				"method": "rhf"
			},
			{
				"type": "occ",
				"energy": -0.17684,
				"method": "rhf"
			},
			{
				"type": "unocc",
				"energy": -0.063,
				"method": "rhf"
			},
			{
				"type": "unocc",
				"energy": 0.01983,
				"method": "rhf"
			},
			{
				"type": "unocc",
				"energy": 0.04254,
				"method": "rhf"
			},
			{
				"type": "unocc",
				"energy": 0.0569,
				"method": "rhf"
			},
			{
				"type": "unocc",
				"energy": 0.09353,
				"method": "rhf"
			}
		],
		"cosmo_sigma_profile": { 
			"-0.025": 0.0,
			"-0.024": 0.0,
			"-0.023": 0.0,
			"-0.022": 0.0,
			"-0.021": 0.0,
			"-0.02": 0.206663345014,
			"-0.019": 1.0755596317,
			"-0.018": 0.879961289963,
			"-0.017": 0.61735795693,
			"-0.016": 0.802038494637,
			"-0.015": 0.77270668345,
			"-0.014": 0.928730102134,
			"-0.013": 0.886496897113,
			"-0.012": 1.3319914049,
			"-0.011": 2.11711590433,
			"-0.01": 1.91496491644,
			"-0.009": 2.75015757782,
			"-0.008": 1.72724459883,
			"-0.007": 2.23840250992,
			"-0.006": 7.00992431038,
			"-0.005": 13.4572992676,
			"-0.004": 22.7181682571,
			"-0.003": 26.1765643248,
			"-0.002": 25.7185807988,
			"-0.001": 22.0169610845,
			"0.0": 17.452324161,
			"0.001": 17.7180508883,
			"0.002": 14.241389691,
			"0.003": 10.8814735871,
			"0.004": 9.43980780644,
			"0.005": 7.03706309812,
			"0.006": 6.80929071305,
			"0.007": 6.2083015463,
			"0.008": 5.42979455977,
			"0.009": 2.76607637717,
			"0.01": 3.29107760311,
			"0.011": 3.11828400679,
			"0.012": 2.72051206724,
			"0.013": 3.23686879723,
			"0.014": 3.68746358986,
			"0.015": 2.90816840612,
			"0.016": 1.49066859306,
			"0.017": 0.0,
			"0.018": 0.0,
			"0.019": 0.0,
			"0.02": 0.0,
			"0.021": 0.0,
			"0.022": 0.0,
			"0.023": 0.0,
			"0.024": 0.0,
			"0.025": 0.0
		}
	}
}
