{
	 "smiles": "ClC1=CC=C(C=C1)S(=O)(=O)C=CC#N", 
	 "Tm": 415.15, 
	 "num_atms": 20, 
	 "gaussian": { 
		 "optdone": 1, 
		 "sigma_profile": "yes", 
		 "theory": "DFT", 
		 "functional": "B3LYP", 
		 "basiset": "6-31G**", 
		 "properties": { 
			 "R2extent": 5135.4976, 
			 "electric_dipole_moment_norm": 3.54520401247, 
			 "electric_quadrupole_moment_norm": 12.6464860226, 
			 "total_energy": -1410.02790885, 
			 "HOMO_LUMO_gap": 0.18872, 
			 "cosmo_polarized_energy": -17.0, 
			 "cosmo_cavitation_energy": 30.25, 
			 "cosmo_dispersion_energy": -21.45, 
			 "cosmo_repulsion_energy": 1.65, 
			 "cosmo_total_nonelectrostatic_energy": 10.45, 
			 "SMD_solvation_energy": 6.2 
		},
		"coords": [
			{
				"x": 2.3219385033,
				"y": -2.7525000583,
				"z": -3.6344369557,
				"element": "Cl" 
			},
			{
				"x": 1.7298301388,
				"y": -1.3769745534,
				"z": -2.7293141933,
				"element": "C" 
			},
			{
				"x": 2.5466021377,
				"y": -0.8005185258,
				"z": -1.753412409,
				"element": "C" 
			},
			{
				"x": 2.0739696543,
				"y": 0.2938947824,
				"z": -1.032103321,
				"element": "C" 
			},
			{
				"x": 0.7944150565,
				"y": 0.7857113716,
				"z": -1.2988288034,
				"element": "C" 
			},
			{
				"x": -0.0166547889,
				"y": 0.21730335,
				"z": -2.2833826363,
				"element": "C" 
			},
			{
				"x": 0.4547702667,
				"y": -0.8771659634,
				"z": -3.0053982605,
				"element": "C" 
			},
			{
				"x": 0.1895983514,
				"y": 2.1982547181,
				"z": -0.3746450711,
				"element": "S" 
			},
			{
				"x": -0.8463482434,
				"y": 2.8658233801,
				"z": -1.1748952651,
				"element": "O" 
			},
			{
				"x": 1.3463214574,
				"y": 2.9457879136,
				"z": 0.1376223596,
				"element": "O" 
			},
			{
				"x": -0.6263056769,
				"y": 1.4267566022,
				"z": 1.0353102218,
				"element": "C" 
			},
			{
				"x": -1.2126859978,
				"y": 2.1884941356,
				"z": 1.9669725785,
				"element": "C" 
			},
			{
				"x": -1.8709998703,
				"y": 1.6248922115,
				"z": 3.1011211348,
				"element": "C" 
			},
			{
				"x": -2.410921035,
				"y": 1.1792895514,
				"z": 4.030257602,
				"element": "N" 
			},
			{
				"x": 3.5375988319,
				"y": -1.1993546597,
				"z": -1.5692228555,
				"element": "H" 
			},
			{
				"x": 2.6948490452,
				"y": 0.7745662572,
				"z": -0.283681339,
				"element": "H" 
			},
			{
				"x": -0.9939641013,
				"y": 0.6394301494,
				"z": -2.4915643967,
				"element": "H" 
			},
			{
				"x": -0.1527217632,
				"y": -1.3345884853,
				"z": -3.7779206126,
				"element": "H" 
			},
			{
				"x": -0.6077979798,
				"y": 0.3421931935,
				"z": 1.0717812546,
				"element": "H" 
			},
			{
				"x": -1.2084939865,
				"y": 3.2738046292,
				"z": 1.8924409677,
				"element": "H" 
			}
		],
		 "valence_orbital": [ 
			{
				"type": "occ",
				"energy": -0.32636,
				"method": "rhf"
			},
			{
				"type": "occ",
				"energy": -0.31558,
				"method": "rhf"
			},
			{
				"type": "occ",
				"energy": -0.29876,
				"method": "rhf"
			},
			{
				"type": "occ",
				"energy": -0.29794,
				"method": "rhf"
			},
			{
				"type": "occ",
				"energy": -0.28297,
				"method": "rhf"
			},
			{
				"type": "unocc",
				"energy": -0.09425,
				"method": "rhf"
			},
			{
				"type": "unocc",
				"energy": -0.06602,
				"method": "rhf"
			},
			{
				"type": "unocc",
				"energy": -0.04707,
				"method": "rhf"
			},
			{
				"type": "unocc",
				"energy": 0.00041,
				"method": "rhf"
			},
			{
				"type": "unocc",
				"energy": 0.00662,
				"method": "rhf"
			}
		],
		"cosmo_sigma_profile": { 
			"-0.025": 0.0,
			"-0.024": 0.0,
			"-0.023": 0.0,
			"-0.022": 0.0,
			"-0.021": 0.0,
			"-0.02": 0.0,
			"-0.019": 0.0,
			"-0.018": 0.0,
			"-0.017": 0.0,
			"-0.016": 0.0,
			"-0.015": 0.0,
			"-0.014": 0.0,
			"-0.013": 0.255272236675,
			"-0.012": 2.80097267156,
			"-0.011": 3.40958798534,
			"-0.01": 3.29208140486,
			"-0.009": 5.76342941723,
			"-0.008": 12.2001804982,
			"-0.007": 12.2852186637,
			"-0.006": 11.1768242829,
			"-0.005": 9.60711270138,
			"-0.004": 11.1630973932,
			"-0.003": 13.7525117332,
			"-0.002": 13.6023756556,
			"-0.001": 17.2338571001,
			"0.0": 22.0807075834,
			"0.001": 19.6637177207,
			"0.002": 11.3647258708,
			"0.003": 12.4319823048,
			"0.004": 13.2110401847,
			"0.005": 4.28517364358,
			"0.006": 5.20471908235,
			"0.007": 6.44470935297,
			"0.008": 6.47319823178,
			"0.009": 7.64912551025,
			"0.01": 12.6540119632,
			"0.011": 8.15989355959,
			"0.012": 1.40593274101,
			"0.013": 0.0249560687811,
			"0.014": 0.0,
			"0.015": 0.0,
			"0.016": 0.0,
			"0.017": 0.0,
			"0.018": 0.0,
			"0.019": 0.0,
			"0.02": 0.0,
			"0.021": 0.0,
			"0.022": 0.0,
			"0.023": 0.0,
			"0.024": 0.0,
			"0.025": 0.0
		}
	}
}
