{
	 "smiles": "CC(=O)OC1CC(=O)OC1=O", 
	 "Tm": 328.15, 
	 "num_atms": 17, 
	 "gaussian": { 
		 "optdone": 1, 
		 "sigma_profile": "yes", 
		 "theory": "DFT", 
		 "functional": "B3LYP", 
		 "basiset": "6-31G**", 
		 "properties": { 
			 "R2extent": 1692.2678, 
			 "electric_dipole_moment_norm": 5.41419114642, 
			 "electric_quadrupole_moment_norm": 6.74415588714, 
			 "total_energy": -608.391629138, 
			 "HOMO_LUMO_gap": 0.25248, 
			 "cosmo_polarized_energy": -15.46, 
			 "cosmo_cavitation_energy": 22.14, 
			 "cosmo_dispersion_energy": -16.22, 
			 "cosmo_repulsion_energy": 1.34, 
			 "cosmo_total_nonelectrostatic_energy": 7.26, 
			 "SMD_solvation_energy": 6.83 
		},
		"coords": [
			{
				"x": -3.5553411933,
				"y": -0.0844352987,
				"z": -0.4960881883,
				"element": "C" 
			},
			{
				"x": -2.0559253694,
				"y": -0.0709662665,
				"z": -0.3810027844,
				"element": "C" 
			},
			{
				"x": -1.2714427435,
				"y": 0.2721057485,
				"z": -1.2370747612,
				"element": "O" 
			},
			{
				"x": -1.6539813177,
				"y": -0.516583464,
				"z": 0.8447793502,
				"element": "O" 
			},
			{
				"x": -0.2461630865,
				"y": -0.6294964291,
				"z": 1.0395141331,
				"element": "C" 
			},
			{
				"x": 0.5685193855,
				"y": 0.6656231073,
				"z": 1.0605657793,
				"element": "C" 
			},
			{
				"x": 1.8432115779,
				"y": 0.3038743198,
				"z": 0.3151701256,
				"element": "C" 
			},
			{
				"x": 2.8622679802,
				"y": 0.920820726,
				"z": 0.2265778111,
				"element": "O" 
			},
			{
				"x": 1.6827797465,
				"y": -0.9317012631,
				"z": -0.3088519149,
				"element": "O" 
			},
			{
				"x": 0.4439031743,
				"y": -1.4818706567,
				"z": -0.0393857068,
				"element": "C" 
			},
			{
				"x": 0.0584924794,
				"y": -2.4960101608,
				"z": -0.5388880176,
				"element": "O" 
			},
			{
				"x": -3.8525753991,
				"y": 0.4363522843,
				"z": -1.4055057015,
				"element": "H" 
			},
			{
				"x": -4.0137369063,
				"y": 0.3798719359,
				"z": 0.3806249757,
				"element": "H" 
			},
			{
				"x": -3.9016911599,
				"y": -1.1220118549,
				"z": -0.5396047139,
				"element": "H" 
			},
			{
				"x": -0.1524142626,
				"y": -1.170241035,
				"z": 1.9858232738,
				"element": "H" 
			},
			{
				"x": 0.0714440151,
				"y": 1.4647002249,
				"z": 0.5060633148,
				"element": "H" 
			},
			{
				"x": 0.8105530795,
				"y": 1.0328680821,
				"z": 2.0594830251,
				"element": "H" 
			}
		],
		 "valence_orbital": [ 
			{
				"type": "occ",
				"energy": -0.34748,
				"method": "rhf"
			},
			{
				"type": "occ",
				"energy": -0.33658,
				"method": "rhf"
			},
			{
				"type": "occ",
				"energy": -0.30704,
				"method": "rhf"
			},
			{
				"type": "occ",
				"energy": -0.30027,
				"method": "rhf"
			},
			{
				"type": "occ",
				"energy": -0.28844,
				"method": "rhf"
			},
			{
				"type": "unocc",
				"energy": -0.03596,
				"method": "rhf"
			},
			{
				"type": "unocc",
				"energy": -0.01639,
				"method": "rhf"
			},
			{
				"type": "unocc",
				"energy": -0.01311,
				"method": "rhf"
			},
			{
				"type": "unocc",
				"energy": 0.07822,
				"method": "rhf"
			},
			{
				"type": "unocc",
				"energy": 0.09371,
				"method": "rhf"
			}
		],
		"cosmo_sigma_profile": { 
			"-0.025": 0.0,
			"-0.024": 0.0,
			"-0.023": 0.0,
			"-0.022": 0.0,
			"-0.021": 0.0,
			"-0.02": 0.0,
			"-0.019": 0.0,
			"-0.018": 0.0,
			"-0.017": 0.0,
			"-0.016": 0.0,
			"-0.015": 0.0,
			"-0.014": 0.572484156929,
			"-0.013": 1.0034696475,
			"-0.012": 1.53678290497,
			"-0.011": 2.99928363702,
			"-0.01": 3.60649373767,
			"-0.009": 6.32564867281,
			"-0.008": 6.15712827595,
			"-0.007": 8.95365597616,
			"-0.006": 12.3690026338,
			"-0.005": 10.2708893713,
			"-0.004": 10.337028647,
			"-0.003": 11.9614425298,
			"-0.002": 9.5864462359,
			"-0.001": 6.0065965768,
			"0.0": 4.87192720894,
			"0.001": 5.25265930553,
			"0.002": 4.69510351107,
			"0.003": 7.28049353426,
			"0.004": 7.98981545033,
			"0.005": 7.21336507875,
			"0.006": 8.3407809775,
			"0.007": 7.95854216986,
			"0.008": 6.81550471356,
			"0.009": 10.6875771687,
			"0.01": 10.1555156682,
			"0.011": 3.03351171353,
			"0.012": 0.529044474218,
			"0.013": 0.0,
			"0.014": 0.0,
			"0.015": 0.0,
			"0.016": 0.0,
			"0.017": 0.0,
			"0.018": 0.0,
			"0.019": 0.0,
			"0.02": 0.0,
			"0.021": 0.0,
			"0.022": 0.0,
			"0.023": 0.0,
			"0.024": 0.0,
			"0.025": 0.0
		}
	}
}
