{
	 "smiles": "O=C(NC1=CC=CC=C1)C1=CC=CC=C1", 
	 "Tm": 437.15, 
	 "num_atms": 26, 
	 "gaussian": { 
		 "optdone": 1, 
		 "sigma_profile": "yes", 
		 "theory": "DFT", 
		 "functional": "B3LYP", 
		 "basiset": "6-31G**", 
		 "properties": { 
			 "R2extent": 4222.2338, 
			 "electric_dipole_moment_norm": 3.21159857081, 
			 "electric_quadrupole_moment_norm": 12.6469646062, 
			 "total_energy": -632.00169643, 
			 "HOMO_LUMO_gap": 0.18632, 
			 "cosmo_polarized_energy": -11.26, 
			 "cosmo_cavitation_energy": 30.17, 
			 "cosmo_dispersion_energy": -21.45, 
			 "cosmo_repulsion_energy": 1.69, 
			 "cosmo_total_nonelectrostatic_energy": 10.4, 
			 "SMD_solvation_energy": 5.72 
		},
		"coords": [
			{
				"x": -3.0764129416,
				"y": -0.4581216673,
				"z": 1.1849599479,
				"element": "O" 
			},
			{
				"x": -2.0098419488,
				"y": -0.8937558344,
				"z": 0.7648586547,
				"element": "C" 
			},
			{
				"x": -0.8229943628,
				"y": -0.3164211998,
				"z": 1.1901964278,
				"element": "N" 
			},
			{
				"x": 0.4589841943,
				"y": -0.2661618493,
				"z": 0.5860774427,
				"element": "C" 
			},
			{
				"x": 0.6351814401,
				"y": -0.2905677652,
				"z": -0.8049143032,
				"element": "C" 
			},
			{
				"x": 1.9183059641,
				"y": -0.2112573724,
				"z": -1.3445494311,
				"element": "C" 
			},
			{
				"x": 3.0337485725,
				"y": -0.0763585061,
				"z": -0.51550209,
				"element": "C" 
			},
			{
				"x": 2.8563525422,
				"y": -0.027453648,
				"z": 0.8683759253,
				"element": "C" 
			},
			{
				"x": 1.5795725482,
				"y": -0.130709742,
				"z": 1.4182947643,
				"element": "C" 
			},
			{
				"x": -1.9659002645,
				"y": -2.0916194082,
				"z": -0.1366329687,
				"element": "C" 
			},
			{
				"x": -3.0587124306,
				"y": -2.2932317825,
				"z": -0.991346694,
				"element": "C" 
			},
			{
				"x": -3.1168061134,
				"y": -3.4226772708,
				"z": -1.8048246216,
				"element": "C" 
			},
			{
				"x": -2.0967473895,
				"y": -4.3759829153,
				"z": -1.7502060106,
				"element": "C" 
			},
			{
				"x": -1.0195993077,
				"y": -4.1951683402,
				"z": -0.8798036548,
				"element": "C" 
			},
			{
				"x": -0.9490335738,
				"y": -3.0555396824,
				"z": -0.0790805538,
				"element": "C" 
			},
			{
				"x": -0.9968954966,
				"y": 0.3670729787,
				"z": 1.9179309888,
				"element": "H" 
			},
			{
				"x": -0.2273828135,
				"y": -0.3653419844,
				"z": -1.4571774914,
				"element": "H" 
			},
			{
				"x": 2.0420577124,
				"y": -0.2359765089,
				"z": -2.4234092024,
				"element": "H" 
			},
			{
				"x": 4.0288675465,
				"y": -0.0040006217,
				"z": -0.9434769115,
				"element": "H" 
			},
			{
				"x": 3.7141749513,
				"y": 0.0812118976,
				"z": 1.5257563496,
				"element": "H" 
			},
			{
				"x": 1.4416638376,
				"y": -0.1130984292,
				"z": 2.4959792571,
				"element": "H" 
			},
			{
				"x": -3.8559167763,
				"y": -1.5574183177,
				"z": -0.9959355815,
				"element": "H" 
			},
			{
				"x": -3.960887956,
				"y": -3.5653095795,
				"z": -2.4732803026,
				"element": "H" 
			},
			{
				"x": -2.1450659662,
				"y": -5.2612056372,
				"z": -2.378070272,
				"element": "H" 
			},
			{
				"x": -0.2342461063,
				"y": -4.9431732802,
				"z": -0.8222296914,
				"element": "H" 
			},
			{
				"x": -0.1129658617,
				"y": -2.9235335335,
				"z": 0.5990100225,
				"element": "H" 
			}
		],
		 "valence_orbital": [ 
			{
				"type": "occ",
				"energy": -0.26502,
				"method": "rhf"
			},
			{
				"type": "occ",
				"energy": -0.26129,
				"method": "rhf"
			},
			{
				"type": "occ",
				"energy": -0.25326,
				"method": "rhf"
			},
			{
				"type": "occ",
				"energy": -0.24591,
				"method": "rhf"
			},
			{
				"type": "occ",
				"energy": -0.22628,
				"method": "rhf"
			},
			{
				"type": "unocc",
				"energy": -0.03996,
				"method": "rhf"
			},
			{
				"type": "unocc",
				"energy": -0.0142,
				"method": "rhf"
			},
			{
				"type": "unocc",
				"energy": -0.00432,
				"method": "rhf"
			},
			{
				"type": "unocc",
				"energy": 4e-05,
				"method": "rhf"
			},
			{
				"type": "unocc",
				"energy": 0.0564,
				"method": "rhf"
			}
		],
		"cosmo_sigma_profile": { 
			"-0.025": 0.0,
			"-0.024": 0.0,
			"-0.023": 0.0,
			"-0.022": 0.0,
			"-0.021": 0.0,
			"-0.02": 0.0,
			"-0.019": 0.0,
			"-0.018": 0.0,
			"-0.017": 0.0,
			"-0.016": 0.0,
			"-0.015": 0.0,
			"-0.014": 0.825687270054,
			"-0.013": 0.731489389747,
			"-0.012": 0.914218718138,
			"-0.011": 1.23991592016,
			"-0.01": 0.874834100806,
			"-0.009": 1.15784945491,
			"-0.008": 1.6576628731,
			"-0.007": 2.10101274042,
			"-0.006": 14.5483275277,
			"-0.005": 20.9124458412,
			"-0.004": 24.0873988656,
			"-0.003": 17.8664546906,
			"-0.002": 16.3610023809,
			"-0.001": 15.8990993953,
			"0.0": 14.3990963781,
			"0.001": 16.0974979126,
			"0.002": 17.5479808138,
			"0.003": 16.6413679686,
			"0.004": 21.4748244983,
			"0.005": 14.3975578307,
			"0.006": 4.39607909579,
			"0.007": 1.31783318037,
			"0.008": 1.32385679591,
			"0.009": 2.18476329239,
			"0.01": 1.11933910611,
			"0.011": 1.46989892642,
			"0.012": 2.98720605697,
			"0.013": 5.16897508281,
			"0.014": 1.92863354142,
			"0.015": 0.0,
			"0.016": 0.0,
			"0.017": 0.0,
			"0.018": 0.0,
			"0.019": 0.0,
			"0.02": 0.0,
			"0.021": 0.0,
			"0.022": 0.0,
			"0.023": 0.0,
			"0.024": 0.0,
			"0.025": 0.0
		}
	}
}
