{
	 "smiles": "OC(=O)CCCCCCNC(=O)OCC1=CC=CC=C1", 
	 "Tm": 363.15, 
	 "num_atms": 41, 
	 "gaussian": { 
		 "optdone": 1, 
		 "sigma_profile": "yes", 
		 "theory": "DFT", 
		 "functional": "B3LYP", 
		 "basiset": "6-31G**", 
		 "properties": { 
			 "R2extent": 9895.9069, 
			 "electric_dipole_moment_norm": 3.25513466081, 
			 "electric_quadrupole_moment_norm": 12.615957251, 
			 "total_energy": -939.957454124, 
			 "HOMO_LUMO_gap": 0.23778, 
			 "cosmo_polarized_energy": -16.76, 
			 "cosmo_cavitation_energy": 44.98, 
			 "cosmo_dispersion_energy": -30.49, 
			 "cosmo_repulsion_energy": 2.43, 
			 "cosmo_total_nonelectrostatic_energy": 16.91, 
			 "SMD_solvation_energy": 8.52 
		},
		"coords": [
			{
				"x": 2.1697816803,
				"y": -5.887689418,
				"z": -1.5909184985,
				"element": "O" 
			},
			{
				"x": 1.9414384467,
				"y": -4.5693515937,
				"z": -1.3744019239,
				"element": "C" 
			},
			{
				"x": 1.7091039191,
				"y": -4.126212242,
				"z": -0.2695364286,
				"element": "O" 
			},
			{
				"x": 2.0380349365,
				"y": -3.7716479692,
				"z": -2.6584871372,
				"element": "C" 
			},
			{
				"x": 1.6360526851,
				"y": -2.3026456751,
				"z": -2.4980315172,
				"element": "C" 
			},
			{
				"x": 0.1351966757,
				"y": -2.0928561844,
				"z": -2.2560038728,
				"element": "C" 
			},
			{
				"x": -0.2323133132,
				"y": -0.6162693912,
				"z": -2.0555506142,
				"element": "C" 
			},
			{
				"x": -1.7267571812,
				"y": -0.3538347516,
				"z": -1.8150916318,
				"element": "C" 
			},
			{
				"x": -2.294007593,
				"y": -0.9544177361,
				"z": -0.5172662514,
				"element": "C" 
			},
			{
				"x": -1.6416973779,
				"y": -0.4751370142,
				"z": 0.6943249189,
				"element": "N" 
			},
			{
				"x": -1.9904645987,
				"y": 0.7054378698,
				"z": 1.2725942413,
				"element": "C" 
			},
			{
				"x": -2.9088416637,
				"y": 1.4232835421,
				"z": 0.9054149506,
				"element": "O" 
			},
			{
				"x": -1.1784324596,
				"y": 0.9594352405,
				"z": 2.3373332496,
				"element": "O" 
			},
			{
				"x": -1.4299399382,
				"y": 2.1979694978,
				"z": 3.045985616,
				"element": "C" 
			},
			{
				"x": -0.573662135,
				"y": 3.3295079278,
				"z": 2.5295820719,
				"element": "C" 
			},
			{
				"x": -0.9623562581,
				"y": 4.0547169212,
				"z": 1.3935418717,
				"element": "C" 
			},
			{
				"x": -0.1646195695,
				"y": 5.0933849756,
				"z": 0.9138302106,
				"element": "C" 
			},
			{
				"x": 1.0281109885,
				"y": 5.4218989044,
				"z": 1.5633059819,
				"element": "C" 
			},
			{
				"x": 1.4216183629,
				"y": 4.7059034691,
				"z": 2.6949638259,
				"element": "C" 
			},
			{
				"x": 0.6235941167,
				"y": 3.6650357065,
				"z": 3.1727940824,
				"element": "C" 
			},
			{
				"x": 2.1088705381,
				"y": -6.3184706371,
				"z": -0.7216207575,
				"element": "H" 
			},
			{
				"x": 3.0754212398,
				"y": -3.8603154809,
				"z": -3.0063559294,
				"element": "H" 
			},
			{
				"x": 1.4306074127,
				"y": -4.2782312484,
				"z": -3.4185934636,
				"element": "H" 
			},
			{
				"x": 2.201415346,
				"y": -1.872401678,
				"z": -1.6633121282,
				"element": "H" 
			},
			{
				"x": 1.9409754955,
				"y": -1.7578571227,
				"z": -3.4001623929,
				"element": "H" 
			},
			{
				"x": -0.4327476893,
				"y": -2.4985018643,
				"z": -3.1062059797,
				"element": "H" 
			},
			{
				"x": -0.158876774,
				"y": -2.67686375,
				"z": -1.3767172094,
				"element": "H" 
			},
			{
				"x": 0.343620447,
				"y": -0.2104425564,
				"z": -1.2128347552,
				"element": "H" 
			},
			{
				"x": 0.0860804676,
				"y": -0.044410852,
				"z": -2.9372379596,
				"element": "H" 
			},
			{
				"x": -1.9072630699,
				"y": 0.7267022539,
				"z": -1.789338128,
				"element": "H" 
			},
			{
				"x": -2.3138199496,
				"y": -0.7501230604,
				"z": -2.6552360003,
				"element": "H" 
			},
			{
				"x": -2.2163095945,
				"y": -2.0461839422,
				"z": -0.5224538699,
				"element": "H" 
			},
			{
				"x": -3.3543992766,
				"y": -0.7012698369,
				"z": -0.4378531799,
				"element": "H" 
			},
			{
				"x": -0.8214155181,
				"y": -0.9418279358,
				"z": 1.0502881029,
				"element": "H" 
			},
			{
				"x": -2.492061666,
				"y": 2.4352356079,
				"z": 2.9589639012,
				"element": "H" 
			},
			{
				"x": -1.1883584875,
				"y": 1.9728729436,
				"z": 4.0874248314,
				"element": "H" 
			},
			{
				"x": -1.8871854487,
				"y": 3.7886542054,
				"z": 0.8907511939,
				"element": "H" 
			},
			{
				"x": -0.4757870943,
				"y": 5.6506444462,
				"z": 0.0345427204,
				"element": "H" 
			},
			{
				"x": 1.6460948502,
				"y": 6.2340145291,
				"z": 1.1904968656,
				"element": "H" 
			},
			{
				"x": 2.3467486803,
				"y": 4.9578902837,
				"z": 3.2058059752,
				"element": "H" 
			},
			{
				"x": 0.9310503679,
				"y": 3.1087736161,
				"z": 4.055265018,
				"element": "H" 
			}
		],
		 "valence_orbital": [ 
			{
				"type": "occ",
				"energy": -0.27919,
				"method": "rhf"
			},
			{
				"type": "occ",
				"energy": -0.26666,
				"method": "rhf"
			},
			{
				"type": "occ",
				"energy": -0.24689,
				"method": "rhf"
			},
			{
				"type": "occ",
				"energy": -0.2456,
				"method": "rhf"
			},
			{
				"type": "occ",
				"energy": -0.24229,
				"method": "rhf"
			},
			{
				"type": "unocc",
				"energy": -0.00451,
				"method": "rhf"
			},
			{
				"type": "unocc",
				"energy": 0.00321,
				"method": "rhf"
			},
			{
				"type": "unocc",
				"energy": 0.00542,
				"method": "rhf"
			},
			{
				"type": "unocc",
				"energy": 0.05878,
				"method": "rhf"
			},
			{
				"type": "unocc",
				"energy": 0.07547,
				"method": "rhf"
			}
		],
		"cosmo_sigma_profile": { 
			"-0.025": 0.0,
			"-0.024": 0.0,
			"-0.023": 0.0,
			"-0.022": 0.0,
			"-0.021": 0.0,
			"-0.02": 0.0,
			"-0.019": 0.0,
			"-0.018": 0.530172784588,
			"-0.017": 1.03153546501,
			"-0.016": 0.615498665106,
			"-0.015": 0.887002578458,
			"-0.014": 1.04905659684,
			"-0.013": 1.29134994195,
			"-0.012": 1.12239329171,
			"-0.011": 1.70767218429,
			"-0.01": 2.03834780723,
			"-0.009": 1.41205042339,
			"-0.008": 1.67770047025,
			"-0.007": 2.77683627649,
			"-0.006": 13.7168679349,
			"-0.005": 19.84605951,
			"-0.004": 23.1250360992,
			"-0.003": 33.8461399829,
			"-0.002": 42.5167466432,
			"-0.001": 37.3679977018,
			"0.0": 30.8100214459,
			"0.001": 23.7962981196,
			"0.002": 16.4096013479,
			"0.003": 13.8061829372,
			"0.004": 15.3711562185,
			"0.005": 18.2824936277,
			"0.006": 11.542012206,
			"0.007": 6.14980738506,
			"0.008": 5.81040583193,
			"0.009": 4.63995134087,
			"0.01": 4.31175702738,
			"0.011": 3.83857704871,
			"0.012": 6.43867742987,
			"0.013": 3.51505317342,
			"0.014": 1.17318189871,
			"0.015": 0.0,
			"0.016": 0.0,
			"0.017": 0.0,
			"0.018": 0.0,
			"0.019": 0.0,
			"0.02": 0.0,
			"0.021": 0.0,
			"0.022": 0.0,
			"0.023": 0.0,
			"0.024": 0.0,
			"0.025": 0.0
		}
	}
}
