{
	 "smiles": "COC1=CC(CNC(=O)C(C)Cl)=CC=C1", 
	 "Tm": 363.15, 
	 "num_atms": 29, 
	 "gaussian": { 
		 "optdone": 1, 
		 "sigma_profile": "yes", 
		 "theory": "DFT", 
		 "functional": "B3LYP", 
		 "basiset": "6-31G**", 
		 "properties": { 
			 "R2extent": 5452.6882, 
			 "electric_dipole_moment_norm": 4.74012690969, 
			 "electric_quadrupole_moment_norm": 16.2597752528, 
			 "total_energy": -1093.00424692, 
			 "HOMO_LUMO_gap": 0.21405, 
			 "cosmo_polarized_energy": -13.54, 
			 "cosmo_cavitation_energy": 34.13, 
			 "cosmo_dispersion_energy": -23.93, 
			 "cosmo_repulsion_energy": 1.9, 
			 "cosmo_total_nonelectrostatic_energy": 12.1, 
			 "SMD_solvation_energy": 6.69 
		},
		"coords": [
			{
				"x": -2.092960836,
				"y": 2.8212649224,
				"z": 3.4201367649,
				"element": "C" 
			},
			{
				"x": -1.0745120958,
				"y": 2.5459299027,
				"z": 2.4713309744,
				"element": "O" 
			},
			{
				"x": -0.6010274657,
				"y": 1.2693789723,
				"z": 2.3828365991,
				"element": "C" 
			},
			{
				"x": 0.4076914824,
				"y": 1.0683663834,
				"z": 1.4273803194,
				"element": "C" 
			},
			{
				"x": 0.9717232109,
				"y": -0.1915327289,
				"z": 1.2461710743,
				"element": "C" 
			},
			{
				"x": 2.0335554935,
				"y": -0.4438651971,
				"z": 0.1851876164,
				"element": "C" 
			},
			{
				"x": 2.8278055795,
				"y": 0.7286308348,
				"z": -0.1482264433,
				"element": "N" 
			},
			{
				"x": 3.0142149546,
				"y": 1.3952847086,
				"z": -1.3252875484,
				"element": "C" 
			},
			{
				"x": 3.7293469844,
				"y": 2.3888916452,
				"z": -1.3832437635,
				"element": "O" 
			},
			{
				"x": 2.2759435385,
				"y": 0.9698183346,
				"z": -2.6061356332,
				"element": "C" 
			},
			{
				"x": 0.7731466882,
				"y": 1.2334553111,
				"z": -2.5771359673,
				"element": "C" 
			},
			{
				"x": 2.6295901073,
				"y": -0.76886756,
				"z": -3.0903528199,
				"element": "Cl" 
			},
			{
				"x": 0.5261650757,
				"y": -1.2650254511,
				"z": 2.0340459491,
				"element": "C" 
			},
			{
				"x": -0.4770770492,
				"y": -1.0638665427,
				"z": 2.9760139152,
				"element": "C" 
			},
			{
				"x": -1.050177097,
				"y": 0.1983201413,
				"z": 3.1627317107,
				"element": "C" 
			},
			{
				"x": -2.3169378879,
				"y": 3.8844880399,
				"z": 3.3216436736,
				"element": "H" 
			},
			{
				"x": -3.0026679416,
				"y": 2.2409953471,
				"z": 3.2185236192,
				"element": "H" 
			},
			{
				"x": -1.7579275084,
				"y": 2.6169511024,
				"z": 4.4452362618,
				"element": "H" 
			},
			{
				"x": 0.7405706344,
				"y": 1.9204191899,
				"z": 0.8444149403,
				"element": "H" 
			},
			{
				"x": 1.5683785439,
				"y": -0.8196573432,
				"z": -0.7268395576,
				"element": "H" 
			},
			{
				"x": 2.6986882018,
				"y": -1.2471726569,
				"z": 0.5281593568,
				"element": "H" 
			},
			{
				"x": 3.3581676961,
				"y": 1.1483893318,
				"z": 0.6061306813,
				"element": "H" 
			},
			{
				"x": 2.747427017,
				"y": 1.5607638284,
				"z": -3.3889784841,
				"element": "H" 
			},
			{
				"x": 0.3310504586,
				"y": 1.0086458909,
				"z": -3.5506168288,
				"element": "H" 
			},
			{
				"x": 0.2566235204,
				"y": 0.6453172684,
				"z": -1.8156590126,
				"element": "H" 
			},
			{
				"x": 0.609798581,
				"y": 2.2948384406,
				"z": -2.359949044,
				"element": "H" 
			},
			{
				"x": 0.9667077441,
				"y": -2.2503958425,
				"z": 1.9075330909,
				"element": "H" 
			},
			{
				"x": -0.8199060238,
				"y": -1.8951124547,
				"z": 3.5857757238,
				"element": "H" 
			},
			{
				"x": -1.825201607,
				"y": 0.3319461813,
				"z": 3.9076728317,
				"element": "H" 
			}
		],
		 "valence_orbital": [ 
			{
				"type": "occ",
				"energy": -0.29881,
				"method": "rhf"
			},
			{
				"type": "occ",
				"energy": -0.26339,
				"method": "rhf"
			},
			{
				"type": "occ",
				"energy": -0.2526,
				"method": "rhf"
			},
			{
				"type": "occ",
				"energy": -0.24765,
				"method": "rhf"
			},
			{
				"type": "occ",
				"energy": -0.225,
				"method": "rhf"
			},
			{
				"type": "unocc",
				"energy": -0.01095,
				"method": "rhf"
			},
			{
				"type": "unocc",
				"energy": -0.00858,
				"method": "rhf"
			},
			{
				"type": "unocc",
				"energy": 0.00331,
				"method": "rhf"
			},
			{
				"type": "unocc",
				"energy": 0.05122,
				"method": "rhf"
			},
			{
				"type": "unocc",
				"energy": 0.08072,
				"method": "rhf"
			}
		],
		"cosmo_sigma_profile": { 
			"-0.025": 0.0,
			"-0.024": 0.0,
			"-0.023": 0.0,
			"-0.022": 0.0,
			"-0.021": 0.0,
			"-0.02": 0.0,
			"-0.019": 0.0,
			"-0.018": 0.0,
			"-0.017": 0.0,
			"-0.016": 0.0,
			"-0.015": 0.0,
			"-0.014": 0.398164838572,
			"-0.013": 0.999139753052,
			"-0.012": 1.19146715771,
			"-0.011": 0.625638428307,
			"-0.01": 0.725110744526,
			"-0.009": 1.02844353557,
			"-0.008": 1.36527384204,
			"-0.007": 3.48884447073,
			"-0.006": 14.2375145936,
			"-0.005": 27.8161086654,
			"-0.004": 27.9234336865,
			"-0.003": 28.1397730212,
			"-0.002": 21.0553295469,
			"-0.001": 17.8355411521,
			"0.0": 13.0113237497,
			"0.001": 12.6856693907,
			"0.002": 15.4640358119,
			"0.003": 13.2600292974,
			"0.004": 16.9285258327,
			"0.005": 16.6398219987,
			"0.006": 13.3696443295,
			"0.007": 2.80897284611,
			"0.008": 2.51895278,
			"0.009": 2.22360163751,
			"0.01": 3.3371993759,
			"0.011": 2.05007265628,
			"0.012": 2.48652860717,
			"0.013": 5.66112767709,
			"0.014": 2.54973095212,
			"0.015": 0.0,
			"0.016": 0.0,
			"0.017": 0.0,
			"0.018": 0.0,
			"0.019": 0.0,
			"0.02": 0.0,
			"0.021": 0.0,
			"0.022": 0.0,
			"0.023": 0.0,
			"0.024": 0.0,
			"0.025": 0.0
		}
	}
}
