{
	 "smiles": "CN(N=CC1=CC=CC=C1)P(=O)(N1CC1)N1CC1", 
	 "Tm": 366.15, 
	 "num_atms": 35, 
	 "gaussian": { 
		 "optdone": 1, 
		 "sigma_profile": "yes", 
		 "theory": "DFT", 
		 "functional": "B3LYP", 
		 "basiset": "6-31G**", 
		 "properties": { 
			 "R2extent": 6321.0172, 
			 "electric_dipole_moment_norm": 2.00677035059, 
			 "electric_quadrupole_moment_norm": 7.42734541273, 
			 "total_energy": -1103.0293599, 
			 "HOMO_LUMO_gap": 0.17118, 
			 "cosmo_polarized_energy": -13.72, 
			 "cosmo_cavitation_energy": 40.04, 
			 "cosmo_dispersion_energy": -26.88, 
			 "cosmo_repulsion_energy": 2.09, 
			 "cosmo_total_nonelectrostatic_energy": 15.25, 
			 "SMD_solvation_energy": 4.7 
		},
		"coords": [
			{
				"x": -1.0690762718,
				"y": -1.9308024887,
				"z": 3.3398765149,
				"element": "C" 
			},
			{
				"x": -0.8483323214,
				"y": -1.2815539964,
				"z": 2.0418579509,
				"element": "N" 
			},
			{
				"x": 0.4871012022,
				"y": -1.0354546054,
				"z": 1.8127531096,
				"element": "N" 
			},
			{
				"x": 0.9115550739,
				"y": -0.4750430186,
				"z": 0.7362604924,
				"element": "C" 
			},
			{
				"x": 2.3491521865,
				"y": -0.2383136324,
				"z": 0.5483210728,
				"element": "C" 
			},
			{
				"x": 2.7858168084,
				"y": 0.3750819155,
				"z": -0.6368417434,
				"element": "C" 
			},
			{
				"x": 4.1414835355,
				"y": 0.619037198,
				"z": -0.857118556,
				"element": "C" 
			},
			{
				"x": 5.082441104,
				"y": 0.2528025912,
				"z": 0.1057900055,
				"element": "C" 
			},
			{
				"x": 4.6575423809,
				"y": -0.3593411583,
				"z": 1.290890499,
				"element": "C" 
			},
			{
				"x": 3.306566546,
				"y": -0.6034588515,
				"z": 1.5125217903,
				"element": "C" 
			},
			{
				"x": -2.1814829185,
				"y": -0.9281930127,
				"z": 1.0474021142,
				"element": "P" 
			},
			{
				"x": -3.4712967899,
				"y": -1.3565326682,
				"z": 1.6714400998,
				"element": "O" 
			},
			{
				"x": -2.0218951539,
				"y": 0.7232332898,
				"z": 0.6819294058,
				"element": "N" 
			},
			{
				"x": -2.6348078561,
				"y": 1.6988767374,
				"z": 1.5968217123,
				"element": "C" 
			},
			{
				"x": -3.209554368,
				"y": 1.4779538992,
				"z": 0.2449203244,
				"element": "C" 
			},
			{
				"x": -1.7946667844,
				"y": -1.6190636242,
				"z": -0.4558575005,
				"element": "N" 
			},
			{
				"x": -2.1733402564,
				"y": -3.0207960488,
				"z": -0.6933802967,
				"element": "C" 
			},
			{
				"x": -2.8804923638,
				"y": -1.924598677,
				"z": -1.4039894816,
				"element": "C" 
			},
			{
				"x": -0.6986488715,
				"y": -1.2904770186,
				"z": 4.1468509082,
				"element": "H" 
			},
			{
				"x": -2.1363464194,
				"y": -2.1038127904,
				"z": 3.4715836987,
				"element": "H" 
			},
			{
				"x": -0.5351005033,
				"y": -2.8857277955,
				"z": 3.3760181308,
				"element": "H" 
			},
			{
				"x": 0.253802945,
				"y": -0.1545723469,
				"z": -0.0709181277,
				"element": "H" 
			},
			{
				"x": 2.0535294935,
				"y": 0.6610312853,
				"z": -1.3880459789,
				"element": "H" 
			},
			{
				"x": 4.4618503707,
				"y": 1.0946509901,
				"z": -1.7799087865,
				"element": "H" 
			},
			{
				"x": 6.1388737714,
				"y": 0.4414648246,
				"z": -0.0627849568,
				"element": "H" 
			},
			{
				"x": 5.3868612564,
				"y": -0.6462476591,
				"z": 2.043623955,
				"element": "H" 
			},
			{
				"x": 2.9681487401,
				"y": -1.0772029311,
				"z": 2.4278808153,
				"element": "H" 
			},
			{
				"x": -3.2037008185,
				"y": 1.3174250299,
				"z": 2.4421010866,
				"element": "H" 
			},
			{
				"x": -2.0226057838,
				"y": 2.5742702148,
				"z": 1.7960492992,
				"element": "H" 
			},
			{
				"x": -3.0234585404,
				"y": 2.1906579453,
				"z": -0.5542655136,
				"element": "H" 
			},
			{
				"x": -4.1605027082,
				"y": 0.9519499871,
				"z": 0.1965201725,
				"element": "H" 
			},
			{
				"x": -2.7262469781,
				"y": -3.5387587198,
				"z": 0.0874126633,
				"element": "H" 
			},
			{
				"x": -1.417983176,
				"y": -3.6094649429,
				"z": -1.2069040407,
				"element": "H" 
			},
			{
				"x": -3.9027532724,
				"y": -1.7188841647,
				"z": -1.0942267902,
				"element": "H" 
			},
			{
				"x": -2.6488332589,
				"y": -1.704335757,
				"z": -2.4427840489,
				"element": "H" 
			}
		],
		 "valence_orbital": [ 
			{
				"type": "occ",
				"energy": -0.26542,
				"method": "rhf"
			},
			{
				"type": "occ",
				"energy": -0.25686,
				"method": "rhf"
			},
			{
				"type": "occ",
				"energy": -0.25032,
				"method": "rhf"
			},
			{
				"type": "occ",
				"energy": -0.24395,
				"method": "rhf"
			},
			{
				"type": "occ",
				"energy": -0.20218,
				"method": "rhf"
			},
			{
				"type": "unocc",
				"energy": -0.031,
				"method": "rhf"
			},
			{
				"type": "unocc",
				"energy": 0.00706,
				"method": "rhf"
			},
			{
				"type": "unocc",
				"energy": 0.0575,
				"method": "rhf"
			},
			{
				"type": "unocc",
				"energy": 0.06424,
				"method": "rhf"
			},
			{
				"type": "unocc",
				"energy": 0.07584,
				"method": "rhf"
			}
		],
		"cosmo_sigma_profile": { 
			"-0.025": 0.0,
			"-0.024": 0.0,
			"-0.023": 0.0,
			"-0.022": 0.0,
			"-0.021": 0.0,
			"-0.02": 0.0,
			"-0.019": 0.0,
			"-0.018": 0.0,
			"-0.017": 0.0,
			"-0.016": 0.0,
			"-0.015": 0.0,
			"-0.014": 0.0,
			"-0.013": 0.0,
			"-0.012": 0.0,
			"-0.011": 0.0,
			"-0.01": 0.0,
			"-0.009": 0.0,
			"-0.008": 0.0,
			"-0.007": 4.23233683728,
			"-0.006": 19.1486863837,
			"-0.005": 26.8773878487,
			"-0.004": 30.5097206559,
			"-0.003": 35.3550215422,
			"-0.002": 31.3134496184,
			"-0.001": 24.6739380819,
			"0.0": 19.4905219087,
			"0.001": 17.0613922282,
			"0.002": 14.3051294401,
			"0.003": 18.0932166422,
			"0.004": 18.8801829225,
			"0.005": 19.2648865622,
			"0.006": 10.362614411,
			"0.007": 6.90616408311,
			"0.008": 4.54401192183,
			"0.009": 4.35568929729,
			"0.01": 2.04275429973,
			"0.011": 1.2772193472,
			"0.012": 0.745495819283,
			"0.013": 1.15652083894,
			"0.014": 3.03885905247,
			"0.015": 2.81591973747,
			"0.016": 0.0,
			"0.017": 0.0,
			"0.018": 0.0,
			"0.019": 0.0,
			"0.02": 0.0,
			"0.021": 0.0,
			"0.022": 0.0,
			"0.023": 0.0,
			"0.024": 0.0,
			"0.025": 0.0
		}
	}
}
