{
	 "smiles": "CC1=CC(SC2=C(C=CC=N2)C(O)=O)=C(C)C=C1", 
	 "Tm": 462.15, 
	 "num_atms": 31, 
	 "gaussian": { 
		 "optdone": 1, 
		 "sigma_profile": "yes", 
		 "theory": "DFT", 
		 "functional": "B3LYP", 
		 "basiset": "6-31G**", 
		 "properties": { 
			 "R2extent": 5947.2711, 
			 "electric_dipole_moment_norm": 1.57474172168, 
			 "electric_quadrupole_moment_norm": 8.25251754981, 
			 "total_energy": -1144.73159114, 
			 "HOMO_LUMO_gap": 0.16557, 
			 "cosmo_polarized_energy": -12.65, 
			 "cosmo_cavitation_energy": 36.53, 
			 "cosmo_dispersion_energy": -26.2, 
			 "cosmo_repulsion_energy": 2.0, 
			 "cosmo_total_nonelectrostatic_energy": 12.33, 
			 "SMD_solvation_energy": 6.93 
		},
		"coords": [
			{
				"x": -3.4559301773,
				"y": -2.1880512621,
				"z": 0.3435613976,
				"element": "C" 
			},
			{
				"x": -2.6974238319,
				"y": -1.1223239433,
				"z": -0.4124126263,
				"element": "C" 
			},
			{
				"x": -1.2978959604,
				"y": -1.1112855881,
				"z": -0.4318657645,
				"element": "C" 
			},
			{
				"x": -0.5830630042,
				"y": -0.1468467686,
				"z": -1.1492872341,
				"element": "C" 
			},
			{
				"x": 1.2039099015,
				"y": -0.3337097643,
				"z": -1.2108009913,
				"element": "S" 
			},
			{
				"x": 1.7687962265,
				"y": 0.915272648,
				"z": -0.0520754054,
				"element": "C" 
			},
			{
				"x": 3.1433590872,
				"y": 1.0864236715,
				"z": 0.2713103466,
				"element": "C" 
			},
			{
				"x": 3.4701254419,
				"y": 2.0773513468,
				"z": 1.2068871202,
				"element": "C" 
			},
			{
				"x": 2.4786741579,
				"y": 2.8600631816,
				"z": 1.7818450117,
				"element": "C" 
			},
			{
				"x": 1.1645550816,
				"y": 2.6180048021,
				"z": 1.3845842577,
				"element": "C" 
			},
			{
				"x": 0.8203892714,
				"y": 1.6797369963,
				"z": 0.5002035326,
				"element": "N" 
			},
			{
				"x": 4.3011089959,
				"y": 0.3240742893,
				"z": -0.2703930251,
				"element": "C" 
			},
			{
				"x": 3.9685976637,
				"y": -0.6035344264,
				"z": -1.1933138314,
				"element": "O" 
			},
			{
				"x": 5.4549717216,
				"y": 0.5060628074,
				"z": 0.0700540445,
				"element": "O" 
			},
			{
				"x": -1.253665716,
				"y": 0.8491784754,
				"z": -1.887373453,
				"element": "C" 
			},
			{
				"x": -0.5208524124,
				"y": 1.9113104594,
				"z": -2.6659304319,
				"element": "C" 
			},
			{
				"x": -2.6527903034,
				"y": 0.8326644255,
				"z": -1.8558458877,
				"element": "C" 
			},
			{
				"x": -3.3627094532,
				"y": -0.1278580633,
				"z": -1.1358714405,
				"element": "C" 
			},
			{
				"x": -4.4303403602,
				"y": -1.821348847,
				"z": 0.6803479567,
				"element": "H" 
			},
			{
				"x": -3.6390578117,
				"y": -3.0686445116,
				"z": -0.2851245363,
				"element": "H" 
			},
			{
				"x": -2.9002007802,
				"y": -2.5276489736,
				"z": 1.2228440451,
				"element": "H" 
			},
			{
				"x": -0.746735746,
				"y": -1.8652293391,
				"z": 0.1230508712,
				"element": "H" 
			},
			{
				"x": 4.5179746126,
				"y": 2.2037205308,
				"z": 1.4577752567,
				"element": "H" 
			},
			{
				"x": 2.7110524123,
				"y": 3.6315031837,
				"z": 2.507726427,
				"element": "H" 
			},
			{
				"x": 0.3426480208,
				"y": 3.2036754205,
				"z": 1.7934463735,
				"element": "H" 
			},
			{
				"x": 4.7997214671,
				"y": -1.0280438156,
				"z": -1.4644555012,
				"element": "H" 
			},
			{
				"x": -1.2190921176,
				"y": 2.5167284667,
				"z": -3.2501927797,
				"element": "H" 
			},
			{
				"x": 0.2141762196,
				"y": 1.4754363374,
				"z": -3.3499191105,
				"element": "H" 
			},
			{
				"x": 0.0241654877,
				"y": 2.5779478177,
				"z": -1.9890168697,
				"element": "H" 
			},
			{
				"x": -3.1979245366,
				"y": 1.5930978408,
				"z": -2.4094755,
				"element": "H" 
			},
			{
				"x": -4.4499435579,
				"y": -0.1033273979,
				"z": -1.1400822526,
				"element": "H" 
			}
		],
		 "valence_orbital": [ 
			{
				"type": "occ",
				"energy": -0.28776,
				"method": "rhf"
			},
			{
				"type": "occ",
				"energy": -0.26056,
				"method": "rhf"
			},
			{
				"type": "occ",
				"energy": -0.24719,
				"method": "rhf"
			},
			{
				"type": "occ",
				"energy": -0.23189,
				"method": "rhf"
			},
			{
				"type": "occ",
				"energy": -0.22418,
				"method": "rhf"
			},
			{
				"type": "unocc",
				"energy": -0.05861,
				"method": "rhf"
			},
			{
				"type": "unocc",
				"energy": -0.02663,
				"method": "rhf"
			},
			{
				"type": "unocc",
				"energy": -0.01386,
				"method": "rhf"
			},
			{
				"type": "unocc",
				"energy": 0.00432,
				"method": "rhf"
			},
			{
				"type": "unocc",
				"energy": 0.04594,
				"method": "rhf"
			}
		],
		"cosmo_sigma_profile": { 
			"-0.025": 0.0,
			"-0.024": 0.0,
			"-0.023": 0.0,
			"-0.022": 0.0,
			"-0.021": 0.0,
			"-0.02": 0.0,
			"-0.019": 0.467248541521,
			"-0.018": 0.812796553539,
			"-0.017": 0.952689753902,
			"-0.016": 0.927643927736,
			"-0.015": 1.12684894398,
			"-0.014": 0.371547182012,
			"-0.013": 0.370156488122,
			"-0.012": 0.50598937027,
			"-0.011": 0.94164780003,
			"-0.01": 0.406689246507,
			"-0.009": 0.485019490874,
			"-0.008": 2.06406451975,
			"-0.007": 6.92025043171,
			"-0.006": 8.99961338088,
			"-0.005": 14.374252124,
			"-0.004": 21.0140219302,
			"-0.003": 22.3724343517,
			"-0.002": 23.2350081266,
			"-0.001": 27.2537774858,
			"0.0": 38.3783931444,
			"0.001": 30.0971945261,
			"0.002": 17.0238458464,
			"0.003": 13.1516744382,
			"0.004": 13.070810147,
			"0.005": 11.334485695,
			"0.006": 7.05898186441,
			"0.007": 6.68529777299,
			"0.008": 6.57895123016,
			"0.009": 3.57008092197,
			"0.01": 3.1003332979,
			"0.011": 5.39852513329,
			"0.012": 3.08735789263,
			"0.013": 0.713563844512,
			"0.014": 0.0766778890176,
			"0.015": 0.0,
			"0.016": 0.0,
			"0.017": 0.0,
			"0.018": 0.0,
			"0.019": 0.0,
			"0.02": 0.0,
			"0.021": 0.0,
			"0.022": 0.0,
			"0.023": 0.0,
			"0.024": 0.0,
			"0.025": 0.0
		}
	}
}
