{
	 "smiles": "CC(=O)NC1=C(C=CC=C1)C#CC1=CC=CC=C1", 
	 "Tm": 391.15, 
	 "num_atms": 31, 
	 "gaussian": { 
		 "optdone": 1, 
		 "sigma_profile": "yes", 
		 "theory": "DFT", 
		 "functional": "B3LYP", 
		 "basiset": "6-31G**", 
		 "properties": { 
			 "R2extent": 6968.2303, 
			 "electric_dipole_moment_norm": 3.57996933087, 
			 "electric_quadrupole_moment_norm": 13.6374062846, 
			 "total_energy": -747.488129772, 
			 "HOMO_LUMO_gap": 0.15565, 
			 "cosmo_polarized_energy": -12.23, 
			 "cosmo_cavitation_energy": 36.84, 
			 "cosmo_dispersion_energy": -25.88, 
			 "cosmo_repulsion_energy": 2.0, 
			 "cosmo_total_nonelectrostatic_energy": 12.96, 
			 "SMD_solvation_energy": 6.96 
		},
		"coords": [
			{
				"x": -0.2146741913,
				"y": -2.3798073711,
				"z": 2.2750007388,
				"element": "C" 
			},
			{
				"x": 1.1873745879,
				"y": -1.7867664761,
				"z": 2.2620003003,
				"element": "C" 
			},
			{
				"x": 2.1175630696,
				"y": -2.3325613738,
				"z": 2.8379558639,
				"element": "O" 
			},
			{
				"x": 1.299258574,
				"y": -0.6171647703,
				"z": 1.5393711218,
				"element": "N" 
			},
			{
				"x": 2.4379983091,
				"y": 0.1671756405,
				"z": 1.2997043637,
				"element": "C" 
			},
			{
				"x": 2.2654314378,
				"y": 1.334058994,
				"z": 0.5026456633,
				"element": "C" 
			},
			{
				"x": 3.3778921931,
				"y": 2.1532507448,
				"z": 0.2354002951,
				"element": "C" 
			},
			{
				"x": 4.6341359443,
				"y": 1.8363475143,
				"z": 0.7382907422,
				"element": "C" 
			},
			{
				"x": 4.7903305371,
				"y": 0.6883096803,
				"z": 1.5191473524,
				"element": "C" 
			},
			{
				"x": 3.7087803569,
				"y": -0.1440807739,
				"z": 1.802473809,
				"element": "C" 
			},
			{
				"x": 0.9840280987,
				"y": 1.6697997246,
				"z": -0.0190974678,
				"element": "C" 
			},
			{
				"x": -0.1212820481,
				"y": 1.9388981634,
				"z": -0.4563657416,
				"element": "C" 
			},
			{
				"x": -1.3915858183,
				"y": 2.3005288639,
				"z": -0.992037785,
				"element": "C" 
			},
			{
				"x": -1.5297296891,
				"y": 3.4754071386,
				"z": -1.759932525,
				"element": "C" 
			},
			{
				"x": -2.7688989392,
				"y": 3.8313655456,
				"z": -2.2843404713,
				"element": "C" 
			},
			{
				"x": -3.8897475975,
				"y": 3.0288325241,
				"z": -2.0558123395,
				"element": "C" 
			},
			{
				"x": -3.7639897715,
				"y": 1.8628708415,
				"z": -1.2965899949,
				"element": "C" 
			},
			{
				"x": -2.528803944,
				"y": 1.4984150274,
				"z": -0.7679869328,
				"element": "C" 
			},
			{
				"x": -0.4569917641,
				"y": -2.6717843654,
				"z": 3.299128902,
				"element": "H" 
			},
			{
				"x": -0.9884687933,
				"y": -1.7035711667,
				"z": 1.9011385834,
				"element": "H" 
			},
			{
				"x": -0.2191836472,
				"y": -3.288803614,
				"z": 1.6652202871,
				"element": "H" 
			},
			{
				"x": 0.4563602424,
				"y": -0.2608899014,
				"z": 1.1072577001,
				"element": "H" 
			},
			{
				"x": 3.2321348251,
				"y": 3.039467425,
				"z": -0.3735596644,
				"element": "H" 
			},
			{
				"x": 5.4832858564,
				"y": 2.4776119792,
				"z": 0.5240302763,
				"element": "H" 
			},
			{
				"x": 5.7678652883,
				"y": 0.4316461385,
				"z": 1.9170353528,
				"element": "H" 
			},
			{
				"x": 3.8254855046,
				"y": -1.0326461059,
				"z": 2.4061008411,
				"element": "H" 
			},
			{
				"x": -0.6578346662,
				"y": 4.0970002586,
				"z": -1.9357913115,
				"element": "H" 
			},
			{
				"x": -2.8607658167,
				"y": 4.7389210636,
				"z": -2.8738844793,
				"element": "H" 
			},
			{
				"x": -4.8547421831,
				"y": 3.3101637522,
				"z": -2.4667079424,
				"element": "H" 
			},
			{
				"x": -4.6315308958,
				"y": 1.2349422135,
				"z": -1.1156643742,
				"element": "H" 
			},
			{
				"x": -2.4323950597,
				"y": 0.5918626852,
				"z": -0.1786311636,
				"element": "H" 
			}
		],
		 "valence_orbital": [ 
			{
				"type": "occ",
				"energy": -0.27225,
				"method": "rhf"
			},
			{
				"type": "occ",
				"energy": -0.26249,
				"method": "rhf"
			},
			{
				"type": "occ",
				"energy": -0.25285,
				"method": "rhf"
			},
			{
				"type": "occ",
				"energy": -0.23294,
				"method": "rhf"
			},
			{
				"type": "occ",
				"energy": -0.20898,
				"method": "rhf"
			},
			{
				"type": "unocc",
				"energy": -0.05333,
				"method": "rhf"
			},
			{
				"type": "unocc",
				"energy": -0.01208,
				"method": "rhf"
			},
			{
				"type": "unocc",
				"energy": -0.01112,
				"method": "rhf"
			},
			{
				"type": "unocc",
				"energy": 0.00428,
				"method": "rhf"
			},
			{
				"type": "unocc",
				"energy": 0.03831,
				"method": "rhf"
			}
		],
		"cosmo_sigma_profile": { 
			"-0.025": 0.0,
			"-0.024": 0.0,
			"-0.023": 0.0,
			"-0.022": 0.0,
			"-0.021": 0.0,
			"-0.02": 0.0,
			"-0.019": 0.0,
			"-0.018": 0.0,
			"-0.017": 0.0,
			"-0.016": 0.0,
			"-0.015": 0.0,
			"-0.014": 0.0,
			"-0.013": 0.0,
			"-0.012": 0.219487694663,
			"-0.011": 0.863277782903,
			"-0.01": 1.50206356472,
			"-0.009": 1.60252345203,
			"-0.008": 1.28592718594,
			"-0.007": 4.12706128658,
			"-0.006": 20.1434936937,
			"-0.005": 23.4317026447,
			"-0.004": 26.749244868,
			"-0.003": 21.6501116288,
			"-0.002": 21.5661291796,
			"-0.001": 18.0909666476,
			"0.0": 17.2372117306,
			"0.001": 19.0966257501,
			"0.002": 23.4729853509,
			"0.003": 29.7443573064,
			"0.004": 29.3268404755,
			"0.005": 18.3592289959,
			"0.006": 2.67257715442,
			"0.007": 1.7971603698,
			"0.008": 1.71145728406,
			"0.009": 1.38537320339,
			"0.01": 1.3782560916,
			"0.011": 1.69954909751,
			"0.012": 2.93970754372,
			"0.013": 2.93804567336,
			"0.014": 1.50295274268,
			"0.015": 0.119029499802,
			"0.016": 0.0,
			"0.017": 0.0,
			"0.018": 0.0,
			"0.019": 0.0,
			"0.02": 0.0,
			"0.021": 0.0,
			"0.022": 0.0,
			"0.023": 0.0,
			"0.024": 0.0,
			"0.025": 0.0
		}
	}
}
