{
	 "smiles": "CC1=C(C=NN1C(C)(C)C)C(O)=O", 
	 "Tm": 406.15, 
	 "num_atms": 27, 
	 "gaussian": { 
		 "optdone": 1, 
		 "sigma_profile": "yes", 
		 "theory": "DFT", 
		 "functional": "B3LYP", 
		 "basiset": "6-31G**", 
		 "properties": { 
			 "R2extent": 3452.5387, 
			 "electric_dipole_moment_norm": 6.54110905352, 
			 "electric_quadrupole_moment_norm": 22.7760765489, 
			 "total_energy": -611.347511049, 
			 "HOMO_LUMO_gap": 0.23108, 
			 "cosmo_polarized_energy": -17.04, 
			 "cosmo_cavitation_energy": 28.86, 
			 "cosmo_dispersion_energy": -20.54, 
			 "cosmo_repulsion_energy": 1.6, 
			 "cosmo_total_nonelectrostatic_energy": 9.92, 
			 "SMD_solvation_energy": 5.77 
		},
		"coords": [
			{
				"x": -2.3601595794,
				"y": 0.5288144672,
				"z": 0.5353323389,
				"element": "C" 
			},
			{
				"x": -1.6756244415,
				"y": -0.4878319425,
				"z": -0.3325107803,
				"element": "C" 
			},
			{
				"x": -2.2569422348,
				"y": -1.4095742481,
				"z": -1.2111785172,
				"element": "C" 
			},
			{
				"x": -1.1811981984,
				"y": -2.202561272,
				"z": -1.6699128679,
				"element": "C" 
			},
			{
				"x": -0.0300804403,
				"y": -1.8024575847,
				"z": -1.1616806176,
				"element": "N" 
			},
			{
				"x": -0.3338122101,
				"y": -0.7673239049,
				"z": -0.3286309937,
				"element": "N" 
			},
			{
				"x": 0.8018859871,
				"y": -0.0483807417,
				"z": 0.3368802341,
				"element": "C" 
			},
			{
				"x": 2.08429658,
				"y": -0.8775179254,
				"z": 0.1527113941,
				"element": "C" 
			},
			{
				"x": 0.5355951511,
				"y": 0.1058351515,
				"z": 1.8464751404,
				"element": "C" 
			},
			{
				"x": 0.9817230387,
				"y": 1.3240500992,
				"z": -0.3398382724,
				"element": "C" 
			},
			{
				"x": -3.6642350502,
				"y": -1.6323915217,
				"z": -1.6036412183,
				"element": "C" 
			},
			{
				"x": -4.4742821428,
				"y": -0.527100893,
				"z": -1.6499338337,
				"element": "O" 
			},
			{
				"x": -4.1150741784,
				"y": -2.7140101349,
				"z": -1.8974991354,
				"element": "O" 
			},
			{
				"x": -2.2654501725,
				"y": 0.2800647166,
				"z": 1.595944329,
				"element": "H" 
			},
			{
				"x": -1.9725927554,
				"y": 1.5428936682,
				"z": 0.3964223316,
				"element": "H" 
			},
			{
				"x": -3.4285506062,
				"y": 0.5382875125,
				"z": 0.314919042,
				"element": "H" 
			},
			{
				"x": -1.2238700204,
				"y": -3.0320936147,
				"z": -2.3620265639,
				"element": "H" 
			},
			{
				"x": 1.9845873304,
				"y": -1.8682931165,
				"z": 0.601454615,
				"element": "H" 
			},
			{
				"x": 2.3312669737,
				"y": -1.0114705853,
				"z": -0.9002208426,
				"element": "H" 
			},
			{
				"x": 2.9052935328,
				"y": -0.3494466758,
				"z": 0.6472008283,
				"element": "H" 
			},
			{
				"x": 1.44625617,
				"y": 0.4685926481,
				"z": 2.3318498347,
				"element": "H" 
			},
			{
				"x": 0.2742813925,
				"y": -0.856982342,
				"z": 2.2953947725,
				"element": "H" 
			},
			{
				"x": -0.2548772344,
				"y": 0.823719868,
				"z": 2.06943525,
				"element": "H" 
			},
			{
				"x": 1.1785577948,
				"y": 1.198672403,
				"z": -1.4083076937,
				"element": "H" 
			},
			{
				"x": 1.8306387203,
				"y": 1.851013023,
				"z": 0.1067421518,
				"element": "H" 
			},
			{
				"x": 0.0990783324,
				"y": 1.9591946192,
				"z": -0.2244290527,
				"element": "H" 
			},
			{
				"x": -3.925511739,
				"y": 0.2689983268,
				"z": -1.6382518731,
				"element": "H" 
			}
		],
		 "valence_orbital": [ 
			{
				"type": "occ",
				"energy": -0.31034,
				"method": "rhf"
			},
			{
				"type": "occ",
				"energy": -0.28992,
				"method": "rhf"
			},
			{
				"type": "occ",
				"energy": -0.27152,
				"method": "rhf"
			},
			{
				"type": "occ",
				"energy": -0.25544,
				"method": "rhf"
			},
			{
				"type": "occ",
				"energy": -0.24993,
				"method": "rhf"
			},
			{
				"type": "unocc",
				"energy": -0.01885,
				"method": "rhf"
			},
			{
				"type": "unocc",
				"energy": 0.01547,
				"method": "rhf"
			},
			{
				"type": "unocc",
				"energy": 0.05337,
				"method": "rhf"
			},
			{
				"type": "unocc",
				"energy": 0.07628,
				"method": "rhf"
			},
			{
				"type": "unocc",
				"energy": 0.08789,
				"method": "rhf"
			}
		],
		"cosmo_sigma_profile": { 
			"-0.025": 0.0,
			"-0.024": 0.0,
			"-0.023": 0.0,
			"-0.022": 0.0,
			"-0.021": 0.0,
			"-0.02": 0.0,
			"-0.019": 0.0,
			"-0.018": 0.145761883302,
			"-0.017": 0.879540728286,
			"-0.016": 0.974447289163,
			"-0.015": 0.574339632619,
			"-0.014": 0.881200369879,
			"-0.013": 0.935658510376,
			"-0.012": 0.649445961456,
			"-0.011": 1.53559187795,
			"-0.01": 1.02958568122,
			"-0.009": 0.708785349069,
			"-0.008": 1.09215989067,
			"-0.007": 4.46024414849,
			"-0.006": 7.61619543578,
			"-0.005": 12.0286079216,
			"-0.004": 22.5947846072,
			"-0.003": 24.4251597651,
			"-0.002": 24.4787900149,
			"-0.001": 21.5269932702,
			"0.0": 23.6734459701,
			"0.001": 12.0515150698,
			"0.002": 6.26440306925,
			"0.003": 6.71306687224,
			"0.004": 6.20083193118,
			"0.005": 5.23119823305,
			"0.006": 4.27325700874,
			"0.007": 4.15000158875,
			"0.008": 3.9324359818,
			"0.009": 4.33132320298,
			"0.01": 5.88610221461,
			"0.011": 6.65389485483,
			"0.012": 7.0046593291,
			"0.013": 3.30130446945,
			"0.014": 0.443334829861,
			"0.015": 0.0,
			"0.016": 0.0,
			"0.017": 0.0,
			"0.018": 0.0,
			"0.019": 0.0,
			"0.02": 0.0,
			"0.021": 0.0,
			"0.022": 0.0,
			"0.023": 0.0,
			"0.024": 0.0,
			"0.025": 0.0
		}
	}
}
