{
	 "smiles": "O[C@H]1CC2=C(CCCC2)C[C@H]1O", 
	 "Tm": 393.15, 
	 "num_atms": 28, 
	 "gaussian": { 
		 "optdone": 1, 
		 "sigma_profile": "yes", 
		 "theory": "DFT", 
		 "functional": "B3LYP", 
		 "basiset": "6-31G**", 
		 "properties": { 
			 "R2extent": 2402.5873, 
			 "electric_dipole_moment_norm": 2.19527589382, 
			 "electric_quadrupole_moment_norm": 7.16740654909, 
			 "total_energy": -541.151154306, 
			 "HOMO_LUMO_gap": 0.25046, 
			 "cosmo_polarized_energy": -8.98, 
			 "cosmo_cavitation_energy": 27.52, 
			 "cosmo_dispersion_energy": -20.8, 
			 "cosmo_repulsion_energy": 1.68, 
			 "cosmo_total_nonelectrostatic_energy": 8.4, 
			 "SMD_solvation_energy": 3.32 
		},
		"coords": [
			{
				"x": -3.1237976471,
				"y": -0.5055965847,
				"z": -1.6377226294,
				"element": "O" 
			},
			{
				"x": -1.7590844263,
				"y": -0.076397192,
				"z": -1.580530465,
				"element": "C" 
			},
			{
				"x": -1.5097255884,
				"y": 0.8917416697,
				"z": -0.423190124,
				"element": "C" 
			},
			{
				"x": -0.0369447068,
				"y": 1.1325794836,
				"z": -0.1641247435,
				"element": "C" 
			},
			{
				"x": 0.8954545071,
				"y": 0.2394053903,
				"z": -0.5396543543,
				"element": "C" 
			},
			{
				"x": 2.3708197521,
				"y": 0.435698641,
				"z": -0.2509132398,
				"element": "C" 
			},
			{
				"x": 2.6475048131,
				"y": 1.5095495327,
				"z": 0.8087598439,
				"element": "C" 
			},
			{
				"x": 1.7975595576,
				"y": 2.7549296052,
				"z": 0.5434911082,
				"element": "C" 
			},
			{
				"x": 0.3046702259,
				"y": 2.404659584,
				"z": 0.5856702113,
				"element": "C" 
			},
			{
				"x": 0.5570168245,
				"y": -1.0221091932,
				"z": -1.3071400507,
				"element": "C" 
			},
			{
				"x": -0.9328104433,
				"y": -1.3489661787,
				"z": -1.3989107191,
				"element": "C" 
			},
			{
				"x": -1.3255822954,
				"y": -2.0099158005,
				"z": -0.201067354,
				"element": "O" 
			},
			{
				"x": -3.6907443352,
				"y": 0.2711766978,
				"z": -1.5510893549,
				"element": "H" 
			},
			{
				"x": -1.468234077,
				"y": 0.4011698341,
				"z": -2.5299277643,
				"element": "H" 
			},
			{
				"x": -1.9797012562,
				"y": 0.4720612819,
				"z": 0.4772622267,
				"element": "H" 
			},
			{
				"x": -2.0159966993,
				"y": 1.8469154437,
				"z": -0.6257027042,
				"element": "H" 
			},
			{
				"x": 2.8045660664,
				"y": -0.5228425801,
				"z": 0.0650468608,
				"element": "H" 
			},
			{
				"x": 2.8898337975,
				"y": 0.6924690461,
				"z": -1.188595394,
				"element": "H" 
			},
			{
				"x": 2.4022040601,
				"y": 1.110583635,
				"z": 1.8020252787,
				"element": "H" 
			},
			{
				"x": 3.7145857581,
				"y": 1.7599200921,
				"z": 0.8236843656,
				"element": "H" 
			},
			{
				"x": 2.0208874011,
				"y": 3.544081542,
				"z": 1.2707500026,
				"element": "H" 
			},
			{
				"x": 2.0485109536,
				"y": 3.1579368355,
				"z": -0.447030671,
				"element": "H" 
			},
			{
				"x": -0.0259201271,
				"y": 2.3037440606,
				"z": 1.6320147502,
				"element": "H" 
			},
			{
				"x": -0.2863514673,
				"y": 3.2357674347,
				"z": 0.1760157257,
				"element": "H" 
			},
			{
				"x": 0.9734138156,
				"y": -0.9466573077,
				"z": -2.32329717,
				"element": "H" 
			},
			{
				"x": 1.0559390136,
				"y": -1.884662524,
				"z": -0.8467539606,
				"element": "H" 
			},
			{
				"x": -1.1129542122,
				"y": -2.0057940403,
				"z": -2.2652845289,
				"element": "H" 
			},
			{
				"x": -2.2940192648,
				"y": -2.035148409,
				"z": -0.229885146,
				"element": "H" 
			}
		],
		 "valence_orbital": [ 
			{
				"type": "occ",
				"energy": -0.3064,
				"method": "rhf"
			},
			{
				"type": "occ",
				"energy": -0.29658,
				"method": "rhf"
			},
			{
				"type": "occ",
				"energy": -0.27239,
				"method": "rhf"
			},
			{
				"type": "occ",
				"energy": -0.25412,
				"method": "rhf"
			},
			{
				"type": "occ",
				"energy": -0.22003,
				"method": "rhf"
			},
			{
				"type": "unocc",
				"energy": 0.03043,
				"method": "rhf"
			},
			{
				"type": "unocc",
				"energy": 0.069,
				"method": "rhf"
			},
			{
				"type": "unocc",
				"energy": 0.08939,
				"method": "rhf"
			},
			{
				"type": "unocc",
				"energy": 0.10838,
				"method": "rhf"
			},
			{
				"type": "unocc",
				"energy": 0.11659,
				"method": "rhf"
			}
		],
		"cosmo_sigma_profile": { 
			"-0.025": 0.0,
			"-0.024": 0.0,
			"-0.023": 0.0,
			"-0.022": 0.0,
			"-0.021": 0.0,
			"-0.02": 0.0,
			"-0.019": 0.0,
			"-0.018": 0.0,
			"-0.017": 0.0,
			"-0.016": 0.079027912589,
			"-0.015": 1.09482283781,
			"-0.014": 0.60272675742,
			"-0.013": 1.07774613106,
			"-0.012": 0.959397677201,
			"-0.011": 1.81659214189,
			"-0.01": 1.47750245026,
			"-0.009": 0.947890816992,
			"-0.008": 1.70499426479,
			"-0.007": 1.80537107542,
			"-0.006": 1.72956037296,
			"-0.005": 1.92794790832,
			"-0.004": 4.78279554639,
			"-0.003": 23.4268175478,
			"-0.002": 32.6872431801,
			"-0.001": 34.6107464562,
			"0.0": 34.0816608504,
			"0.001": 21.1566148049,
			"0.002": 8.45354253529,
			"0.003": 4.30803230676,
			"0.004": 4.56385321511,
			"0.005": 4.17171820287,
			"0.006": 3.6119494409,
			"0.007": 1.49521521384,
			"0.008": 3.19936885992,
			"0.009": 2.48761510435,
			"0.01": 2.24249823071,
			"0.011": 2.58303173236,
			"0.012": 2.15926707584,
			"0.013": 2.7523084265,
			"0.014": 2.59366012747,
			"0.015": 0.733140044601,
			"0.016": 0.0,
			"0.017": 0.0,
			"0.018": 0.0,
			"0.019": 0.0,
			"0.02": 0.0,
			"0.021": 0.0,
			"0.022": 0.0,
			"0.023": 0.0,
			"0.024": 0.0,
			"0.025": 0.0
		}
	}
}
