{
	 "smiles": "NC1=NC2=C(C=C1)C(Br)=CC=C2Cl", 
	 "Tm": 523.15, 
	 "num_atms": 19, 
	 "gaussian": { 
		 "optdone": 1, 
		 "sigma_profile": "yes", 
		 "theory": "DFT", 
		 "functional": "B3LYP", 
		 "basiset": "6-31G**", 
		 "properties": { 
			 "R2extent": 5287.837, 
			 "electric_dipole_moment_norm": 3.02225755024, 
			 "electric_quadrupole_moment_norm": 11.7202448677, 
			 "total_energy": -3487.69138471, 
			 "HOMO_LUMO_gap": 0.15931, 
			 "cosmo_polarized_energy": -11.49, 
			 "cosmo_cavitation_energy": 27.22, 
			 "cosmo_dispersion_energy": -20.97, 
			 "cosmo_repulsion_energy": 1.66, 
			 "cosmo_total_nonelectrostatic_energy": 7.91, 
			 "SMD_solvation_energy": 1.96 
		},
		"coords": [
			{
				"x": 0.0943906375,
				"y": -0.8494920359,
				"z": -2.3349968903,
				"element": "N" 
			},
			{
				"x": 0.0465802507,
				"y": -0.5316588613,
				"z": -0.9996280574,
				"element": "C" 
			},
			{
				"x": 0.6075279009,
				"y": 0.6064497997,
				"z": -0.628991817,
				"element": "N" 
			},
			{
				"x": 0.5371242519,
				"y": 0.9825094834,
				"z": 0.6704312704,
				"element": "C" 
			},
			{
				"x": -0.1139697903,
				"y": 0.1860845946,
				"z": 1.6741153776,
				"element": "C" 
			},
			{
				"x": -0.6973793276,
				"y": -1.0352555373,
				"z": 1.2322936481,
				"element": "C" 
			},
			{
				"x": -0.6278784144,
				"y": -1.3987876388,
				"z": -0.0820869033,
				"element": "C" 
			},
			{
				"x": -0.1360923498,
				"y": 0.6504155466,
				"z": 3.0133991442,
				"element": "C" 
			},
			{
				"x": -0.9935906613,
				"y": -0.3820651437,
				"z": 4.3819743092,
				"element": "Br" 
			},
			{
				"x": 0.4495739993,
				"y": 1.8432091079,
				"z": 3.3724250808,
				"element": "C" 
			},
			{
				"x": 1.0897326033,
				"y": 2.6277435313,
				"z": 2.3913552136,
				"element": "C" 
			},
			{
				"x": 1.1343400673,
				"y": 2.2127747939,
				"z": 1.0783985635,
				"element": "C" 
			},
			{
				"x": 1.9387590731,
				"y": 3.2136851967,
				"z": -0.1084494818,
				"element": "Cl" 
			},
			{
				"x": -0.0116040015,
				"y": -1.8139317898,
				"z": -2.6075040615,
				"element": "H" 
			},
			{
				"x": 0.7340101441,
				"y": -0.2956242226,
				"z": -2.8862609279,
				"element": "H" 
			},
			{
				"x": -1.1992816411,
				"y": -1.668828738,
				"z": 1.9549162063,
				"element": "H" 
			},
			{
				"x": -1.0783392754,
				"y": -2.3222420533,
				"z": -0.4332181137,
				"element": "H" 
			},
			{
				"x": 0.4219088952,
				"y": 2.1815804189,
				"z": 4.4011212562,
				"element": "H" 
			},
			{
				"x": 1.5514876382,
				"y": 3.5675335476,
				"z": 2.673006183,
				"element": "H" 
			}
		],
		 "valence_orbital": [ 
			{
				"type": "occ",
				"energy": -0.29207,
				"method": "rhf"
			},
			{
				"type": "occ",
				"energy": -0.28748,
				"method": "rhf"
			},
			{
				"type": "occ",
				"energy": -0.26454,
				"method": "rhf"
			},
			{
				"type": "occ",
				"energy": -0.23748,
				"method": "rhf"
			},
			{
				"type": "occ",
				"energy": -0.21731,
				"method": "rhf"
			},
			{
				"type": "unocc",
				"energy": -0.058,
				"method": "rhf"
			},
			{
				"type": "unocc",
				"energy": -0.01903,
				"method": "rhf"
			},
			{
				"type": "unocc",
				"energy": 0.00325,
				"method": "rhf"
			},
			{
				"type": "unocc",
				"energy": 0.01569,
				"method": "rhf"
			},
			{
				"type": "unocc",
				"energy": 0.04189,
				"method": "rhf"
			}
		],
		"cosmo_sigma_profile": { 
			"-0.025": 0.0,
			"-0.024": 0.0,
			"-0.023": 0.0,
			"-0.022": 0.0,
			"-0.021": 0.0,
			"-0.02": 0.0,
			"-0.019": 0.0,
			"-0.018": 0.0,
			"-0.017": 0.0,
			"-0.016": 0.0,
			"-0.015": 0.012354235727,
			"-0.014": 1.15459270517,
			"-0.013": 2.2242392605,
			"-0.012": 3.32059499974,
			"-0.011": 2.09960135004,
			"-0.01": 2.7440437236,
			"-0.009": 2.91833858644,
			"-0.008": 4.75658716331,
			"-0.007": 7.36904404825,
			"-0.006": 7.66541158576,
			"-0.005": 8.48652403387,
			"-0.004": 7.94380514346,
			"-0.003": 8.97375911066,
			"-0.002": 8.414065241,
			"-0.001": 12.711360566,
			"0.0": 18.7030448667,
			"0.001": 30.8450821752,
			"0.002": 29.0801423533,
			"0.003": 19.3524967553,
			"0.004": 16.7642478922,
			"0.005": 10.7148769746,
			"0.006": 4.2342097555,
			"0.007": 2.78299830436,
			"0.008": 2.39933963526,
			"0.009": 2.12679547587,
			"0.01": 2.32026904048,
			"0.011": 0.846302598431,
			"0.012": 1.25726493333,
			"0.013": 1.37878522739,
			"0.014": 0.716404848038,
			"0.015": 0.0525367503835,
			"0.016": 0.0,
			"0.017": 0.0,
			"0.018": 0.0,
			"0.019": 0.0,
			"0.02": 0.0,
			"0.021": 0.0,
			"0.022": 0.0,
			"0.023": 0.0,
			"0.024": 0.0,
			"0.025": 0.0
		}
	}
}
