{
	 "smiles": "O=C1CCCC2=C1C1=C3C(CCC1)=CC=C1CCCC2=C31", 
	 "Tm": 421.15, 
	 "num_atms": 41, 
	 "gaussian": { 
		 "optdone": 1, 
		 "sigma_profile": "yes", 
		 "theory": "DFT", 
		 "functional": "B3LYP", 
		 "basiset": "6-31G**", 
		 "properties": { 
			 "R2extent": 6298.2814, 
			 "electric_dipole_moment_norm": 3.01562255098, 
			 "electric_quadrupole_moment_norm": 16.2837636482, 
			 "total_energy": -849.461940182, 
			 "HOMO_LUMO_gap": 0.14442, 
			 "cosmo_polarized_energy": -8.16, 
			 "cosmo_cavitation_energy": 38.63, 
			 "cosmo_dispersion_energy": -29.11, 
			 "cosmo_repulsion_energy": 2.18, 
			 "cosmo_total_nonelectrostatic_energy": 11.7, 
			 "SMD_solvation_energy": 4.37 
		},
		"coords": [
			{
				"x": 1.0708959663,
				"y": -3.8305635341,
				"z": 0.6327859241,
				"element": "O" 
			},
			{
				"x": 0.9830977534,
				"y": -2.9066029126,
				"z": 1.4334462943,
				"element": "C" 
			},
			{
				"x": 1.6002116896,
				"y": -3.0904337937,
				"z": 2.8168198717,
				"element": "C" 
			},
			{
				"x": 1.7662826767,
				"y": -1.7872671685,
				"z": 3.5855871914,
				"element": "C" 
			},
			{
				"x": 0.426445804,
				"y": -1.0514864511,
				"z": 3.6201242082,
				"element": "C" 
			},
			{
				"x": -0.1139014302,
				"y": -0.7736474696,
				"z": 2.2256097906,
				"element": "C" 
			},
			{
				"x": 0.2503550582,
				"y": -1.6341567307,
				"z": 1.1336874354,
				"element": "C" 
			},
			{
				"x": -0.1371884696,
				"y": -1.3251777674,
				"z": -0.1794871994,
				"element": "C" 
			},
			{
				"x": -0.9701359966,
				"y": -0.1839045771,
				"z": -0.4116149433,
				"element": "C" 
			},
			{
				"x": -1.4336289791,
				"y": 0.1394976918,
				"z": -1.732113399,
				"element": "C" 
			},
			{
				"x": -1.06196731,
				"y": -0.737408334,
				"z": -2.9040517841,
				"element": "C" 
			},
			{
				"x": 0.3095588978,
				"y": -1.3674697021,
				"z": -2.6857306496,
				"element": "C" 
			},
			{
				"x": 0.3226096011,
				"y": -2.1497099148,
				"z": -1.3706811498,
				"element": "C" 
			},
			{
				"x": -2.2334822956,
				"y": 1.2457508679,
				"z": -1.9185436439,
				"element": "C" 
			},
			{
				"x": -2.610763803,
				"y": 2.0653654566,
				"z": -0.8371824619,
				"element": "C" 
			},
			{
				"x": -2.197343337,
				"y": 1.7912129151,
				"z": 0.4485395942,
				"element": "C" 
			},
			{
				"x": -2.5902833362,
				"y": 2.7003796664,
				"z": 1.5910613948,
				"element": "C" 
			},
			{
				"x": -2.7145304544,
				"y": 1.9171335807,
				"z": 2.8966966607,
				"element": "C" 
			},
			{
				"x": -1.4059912652,
				"y": 1.1755838643,
				"z": 3.1847515482,
				"element": "C" 
			},
			{
				"x": -0.9423499121,
				"y": 0.3183861996,
				"z": 2.0161121946,
				"element": "C" 
			},
			{
				"x": -1.3761336694,
				"y": 0.6425395432,
				"z": 0.6925412824,
				"element": "C" 
			},
			{
				"x": 2.5409097344,
				"y": -3.6320669647,
				"z": 2.6773839126,
				"element": "H" 
			},
			{
				"x": 0.935344803,
				"y": -3.7696702038,
				"z": 3.3705100725,
				"element": "H" 
			},
			{
				"x": 2.51765377,
				"y": -1.1546825557,
				"z": 3.0957674434,
				"element": "H" 
			},
			{
				"x": 2.1244484272,
				"y": -1.977660517,
				"z": 4.6033270748,
				"element": "H" 
			},
			{
				"x": -0.2967573404,
				"y": -1.6512720875,
				"z": 4.1955003078,
				"element": "H" 
			},
			{
				"x": 0.5400812172,
				"y": -0.1110851102,
				"z": 4.1654978102,
				"element": "H" 
			},
			{
				"x": -1.8090410423,
				"y": -1.538463491,
				"z": -3.0144014019,
				"element": "H" 
			},
			{
				"x": -1.0970930081,
				"y": -0.1529192624,
				"z": -3.8301793321,
				"element": "H" 
			},
			{
				"x": 1.073806278,
				"y": -0.579801632,
				"z": -2.6588264148,
				"element": "H" 
			},
			{
				"x": 0.5681659733,
				"y": -2.037076641,
				"z": -3.5133042366,
				"element": "H" 
			},
			{
				"x": -0.3195187496,
				"y": -3.0364286709,
				"z": -1.4615397702,
				"element": "H" 
			},
			{
				"x": 1.3167548728,
				"y": -2.5535421764,
				"z": -1.1797409564,
				"element": "H" 
			},
			{
				"x": -2.5809644026,
				"y": 1.4888857406,
				"z": -2.919696258,
				"element": "H" 
			},
			{
				"x": -3.238985671,
				"y": 2.9341188169,
				"z": -1.0204779235,
				"element": "H" 
			},
			{
				"x": -3.5248213096,
				"y": 3.2182309143,
				"z": 1.348159141,
				"element": "H" 
			},
			{
				"x": -1.827761674,
				"y": 3.4842160075,
				"z": 1.7180251802,
				"element": "H" 
			},
			{
				"x": -2.9579610364,
				"y": 2.5852021829,
				"z": 3.730194923,
				"element": "H" 
			},
			{
				"x": -3.5352342369,
				"y": 1.1936886168,
				"z": 2.8123131545,
				"element": "H" 
			},
			{
				"x": -1.5338763615,
				"y": 0.5549149581,
				"z": 4.0764709711,
				"element": "H" 
			},
			{
				"x": -0.6274074319,
				"y": 1.9124906453,
				"z": 3.4378581428,
				"element": "H" 
			}
		],
		 "valence_orbital": [ 
			{
				"type": "occ",
				"energy": -0.29628,
				"method": "rhf"
			},
			{
				"type": "occ",
				"energy": -0.25735,
				"method": "rhf"
			},
			{
				"type": "occ",
				"energy": -0.23828,
				"method": "rhf"
			},
			{
				"type": "occ",
				"energy": -0.22901,
				"method": "rhf"
			},
			{
				"type": "occ",
				"energy": -0.19882,
				"method": "rhf"
			},
			{
				"type": "unocc",
				"energy": -0.0544,
				"method": "rhf"
			},
			{
				"type": "unocc",
				"energy": -0.02166,
				"method": "rhf"
			},
			{
				"type": "unocc",
				"energy": 0.01991,
				"method": "rhf"
			},
			{
				"type": "unocc",
				"energy": 0.03865,
				"method": "rhf"
			},
			{
				"type": "unocc",
				"energy": 0.08724,
				"method": "rhf"
			}
		],
		"cosmo_sigma_profile": { 
			"-0.025": 0.0,
			"-0.024": 0.0,
			"-0.023": 0.0,
			"-0.022": 0.0,
			"-0.021": 0.0,
			"-0.02": 0.0,
			"-0.019": 0.0,
			"-0.018": 0.0,
			"-0.017": 0.0,
			"-0.016": 0.0,
			"-0.015": 0.0,
			"-0.014": 0.0,
			"-0.013": 0.0,
			"-0.012": 0.0,
			"-0.011": 0.0,
			"-0.01": 0.0,
			"-0.009": 0.0,
			"-0.008": 0.0,
			"-0.007": 0.0,
			"-0.006": 0.315517315179,
			"-0.005": 7.4185845216,
			"-0.004": 20.1028289247,
			"-0.003": 47.2507296177,
			"-0.002": 46.038635105,
			"-0.001": 49.5355650449,
			"0.0": 39.0566146793,
			"0.001": 18.8723176211,
			"0.002": 10.605767997,
			"0.003": 12.9449591845,
			"0.004": 19.5705867321,
			"0.005": 10.8785460678,
			"0.006": 4.6750512496,
			"0.007": 1.64953771781,
			"0.008": 1.81940847008,
			"0.009": 1.40543869986,
			"0.01": 2.24042924757,
			"0.011": 1.63402796218,
			"0.012": 2.6179492318,
			"0.013": 2.62790098355,
			"0.014": 1.2465663424,
			"0.015": 0.0549439582975,
			"0.016": 0.0,
			"0.017": 0.0,
			"0.018": 0.0,
			"0.019": 0.0,
			"0.02": 0.0,
			"0.021": 0.0,
			"0.022": 0.0,
			"0.023": 0.0,
			"0.024": 0.0,
			"0.025": 0.0
		}
	}
}
