{
	 "smiles": "CC1=C(C=CO1)C1=NN=C(S)N1CC1=CC=CC=C1", 
	 "Tm": 408.15, 
	 "num_atms": 32, 
	 "gaussian": { 
		 "optdone": 1, 
		 "sigma_profile": "yes", 
		 "theory": "DFT", 
		 "functional": "B3LYP", 
		 "basiset": "6-31G**", 
		 "properties": { 
			 "R2extent": 6826.2376, 
			 "electric_dipole_moment_norm": 4.56890585808, 
			 "electric_quadrupole_moment_norm": 6.17307256073, 
			 "total_energy": -1178.94831365, 
			 "HOMO_LUMO_gap": 0.19078, 
			 "cosmo_polarized_energy": -16.0, 
			 "cosmo_cavitation_energy": 37.5, 
			 "cosmo_dispersion_energy": -26.63, 
			 "cosmo_repulsion_energy": 2.01, 
			 "cosmo_total_nonelectrostatic_energy": 12.88, 
			 "SMD_solvation_energy": 5.12 
		},
		"coords": [
			{
				"x": 1.2264677502,
				"y": -2.1709864591,
				"z": -3.859759192,
				"element": "C" 
			},
			{
				"x": 0.0931895878,
				"y": -1.9630285033,
				"z": -2.9206307793,
				"element": "C" 
			},
			{
				"x": -0.2489778344,
				"y": -0.9493688186,
				"z": -2.0546706181,
				"element": "C" 
			},
			{
				"x": -1.4788290175,
				"y": -1.3621246773,
				"z": -1.4168843077,
				"element": "C" 
			},
			{
				"x": -1.7870398155,
				"y": -2.5743602454,
				"z": -1.9419628008,
				"element": "C" 
			},
			{
				"x": -0.8447320457,
				"y": -2.9509090199,
				"z": -2.8553149248,
				"element": "O" 
			},
			{
				"x": 0.5296449513,
				"y": 0.2624052093,
				"z": -1.8322160896,
				"element": "C" 
			},
			{
				"x": 1.8416090717,
				"y": 0.3551185642,
				"z": -1.9269235437,
				"element": "N" 
			},
			{
				"x": 2.2036563598,
				"y": 1.6607953619,
				"z": -1.6685312585,
				"element": "N" 
			},
			{
				"x": 1.0978239803,
				"y": 2.3212854105,
				"z": -1.4226586798,
				"element": "C" 
			},
			{
				"x": 0.9783830048,
				"y": 4.0406916167,
				"z": -1.0284963455,
				"element": "S" 
			},
			{
				"x": -0.0030795046,
				"y": 1.503515964,
				"z": -1.5106140471,
				"element": "N" 
			},
			{
				"x": -1.4015942249,
				"y": 1.9106723135,
				"z": -1.4368630021,
				"element": "C" 
			},
			{
				"x": -1.9619615149,
				"y": 2.0434055041,
				"z": -0.0280506534,
				"element": "C" 
			},
			{
				"x": -1.3420755146,
				"y": 1.4617135074,
				"z": 1.0824738355,
				"element": "C" 
			},
			{
				"x": -1.9135250487,
				"y": 1.5801422346,
				"z": 2.352288034,
				"element": "C" 
			},
			{
				"x": -3.1085476745,
				"y": 2.2776926832,
				"z": 2.5240120364,
				"element": "C" 
			},
			{
				"x": -3.7314400784,
				"y": 2.8628954385,
				"z": 1.4185668575,
				"element": "C" 
			},
			{
				"x": -3.1596632424,
				"y": 2.7485646886,
				"z": 0.1527607683,
				"element": "C" 
			},
			{
				"x": 0.8655224304,
				"y": -2.34409832,
				"z": -4.8799927903,
				"element": "H" 
			},
			{
				"x": 1.8207734294,
				"y": -3.0440848519,
				"z": -3.5665552035,
				"element": "H" 
			},
			{
				"x": 1.8794787228,
				"y": -1.2980217886,
				"z": -3.8390660188,
				"element": "H" 
			},
			{
				"x": -2.0267333445,
				"y": -0.8382331063,
				"z": -0.6472831278,
				"element": "H" 
			},
			{
				"x": -2.5926893529,
				"y": -3.2725825514,
				"z": -1.7781586922,
				"element": "H" 
			},
			{
				"x": 2.2426925251,
				"y": 4.2856246001,
				"z": -1.4210592258,
				"element": "H" 
			},
			{
				"x": -1.4988181536,
				"y": 2.8652718317,
				"z": -1.9654353832,
				"element": "H" 
			},
			{
				"x": -1.9768813968,
				"y": 1.1751975386,
				"z": -2.0073102233,
				"element": "H" 
			},
			{
				"x": -0.4064526958,
				"y": 0.9248560492,
				"z": 0.9606758886,
				"element": "H" 
			},
			{
				"x": -1.4182136244,
				"y": 1.1278211209,
				"z": 3.206461789,
				"element": "H" 
			},
			{
				"x": -3.5502143844,
				"y": 2.3706744562,
				"z": 3.5117486755,
				"element": "H" 
			},
			{
				"x": -4.6587171214,
				"y": 3.4145466634,
				"z": 1.5435331067,
				"element": "H" 
			},
			{
				"x": -3.6454562235,
				"y": 3.2133075853,
				"z": -0.702384084,
				"element": "H" 
			}
		],
		 "valence_orbital": [ 
			{
				"type": "occ",
				"energy": -0.2623,
				"method": "rhf"
			},
			{
				"type": "occ",
				"energy": -0.25753,
				"method": "rhf"
			},
			{
				"type": "occ",
				"energy": -0.2517,
				"method": "rhf"
			},
			{
				"type": "occ",
				"energy": -0.24049,
				"method": "rhf"
			},
			{
				"type": "occ",
				"energy": -0.21005,
				"method": "rhf"
			},
			{
				"type": "unocc",
				"energy": -0.01927,
				"method": "rhf"
			},
			{
				"type": "unocc",
				"energy": -0.01349,
				"method": "rhf"
			},
			{
				"type": "unocc",
				"energy": -0.00929,
				"method": "rhf"
			},
			{
				"type": "unocc",
				"energy": 0.00878,
				"method": "rhf"
			},
			{
				"type": "unocc",
				"energy": 0.02134,
				"method": "rhf"
			}
		],
		"cosmo_sigma_profile": { 
			"-0.025": 0.0,
			"-0.024": 0.0,
			"-0.023": 0.0,
			"-0.022": 0.0,
			"-0.021": 0.0,
			"-0.02": 0.0,
			"-0.019": 0.0,
			"-0.018": 0.0,
			"-0.017": 0.0,
			"-0.016": 0.0,
			"-0.015": 0.0,
			"-0.014": 0.0,
			"-0.013": 0.0467838134069,
			"-0.012": 1.56627881895,
			"-0.011": 1.13957856395,
			"-0.01": 1.63886893439,
			"-0.009": 2.90300204635,
			"-0.008": 3.09177831525,
			"-0.007": 7.59148306053,
			"-0.006": 17.3702855561,
			"-0.005": 26.3403383858,
			"-0.004": 23.9405013595,
			"-0.003": 23.1831103707,
			"-0.002": 20.8159812041,
			"-0.001": 22.2986125779,
			"0.0": 21.8110271711,
			"0.001": 18.1116425388,
			"0.002": 22.6219895731,
			"0.003": 20.4689056502,
			"0.004": 18.0397864094,
			"0.005": 15.8943997054,
			"0.006": 7.43241561534,
			"0.007": 5.0767042379,
			"0.008": 3.35420010214,
			"0.009": 1.68472650679,
			"0.01": 1.87511045581,
			"0.011": 2.94341167225,
			"0.012": 2.00091786519,
			"0.013": 3.32495383102,
			"0.014": 2.96316655857,
			"0.015": 2.34228861087,
			"0.016": 1.1424803431,
			"0.017": 0.138599236092,
			"0.018": 0.0,
			"0.019": 0.0,
			"0.02": 0.0,
			"0.021": 0.0,
			"0.022": 0.0,
			"0.023": 0.0,
			"0.024": 0.0,
			"0.025": 0.0
		}
	}
}
