{
	 "smiles": "NNC(=O)CC1=CC(F)=CC=C1", 
	 "Tm": 380.15, 
	 "num_atms": 21, 
	 "gaussian": { 
		 "optdone": 1, 
		 "sigma_profile": "yes", 
		 "theory": "DFT", 
		 "functional": "B3LYP", 
		 "basiset": "6-31G**", 
		 "properties": { 
			 "R2extent": 3174.4908, 
			 "electric_dipole_moment_norm": 2.25364042385, 
			 "electric_quadrupole_moment_norm": 6.88229330383, 
			 "total_energy": -594.821223035, 
			 "HOMO_LUMO_gap": 0.21885, 
			 "cosmo_polarized_energy": -12.58, 
			 "cosmo_cavitation_energy": 25.99, 
			 "cosmo_dispersion_energy": -18.4, 
			 "cosmo_repulsion_energy": 1.48, 
			 "cosmo_total_nonelectrostatic_energy": 9.06, 
			 "SMD_solvation_energy": 5.97 
		},
		"coords": [
			{
				"x": 3.6210382895,
				"y": -0.478668369,
				"z": -1.3424449313,
				"element": "N" 
			},
			{
				"x": 2.5463273383,
				"y": 0.2629571224,
				"z": -0.8132426615,
				"element": "N" 
			},
			{
				"x": 2.1039683149,
				"y": 1.403205636,
				"z": -1.414833179,
				"element": "C" 
			},
			{
				"x": 2.668209676,
				"y": 1.8913751602,
				"z": -2.3860482114,
				"element": "O" 
			},
			{
				"x": 0.8399342884,
				"y": 2.0476485868,
				"z": -0.8203535234,
				"element": "C" 
			},
			{
				"x": 0.2782994765,
				"y": 1.4465495682,
				"z": 0.4482316023,
				"element": "C" 
			},
			{
				"x": 0.716681069,
				"y": 1.8987549405,
				"z": 1.7007978525,
				"element": "C" 
			},
			{
				"x": 0.2004480088,
				"y": 1.3219365716,
				"z": 2.8546691495,
				"element": "C" 
			},
			{
				"x": 0.6288554327,
				"y": 1.7722556628,
				"z": 4.0517333679,
				"element": "F" 
			},
			{
				"x": -0.741033107,
				"y": 0.2990630351,
				"z": 2.8182821832,
				"element": "C" 
			},
			{
				"x": -1.1744932342,
				"y": -0.1512436219,
				"z": 1.5709891004,
				"element": "C" 
			},
			{
				"x": -0.6722840446,
				"y": 0.4150065101,
				"z": 0.3973825274,
				"element": "C" 
			},
			{
				"x": 3.5215529296,
				"y": -0.4542417958,
				"z": -2.3580414055,
				"element": "H" 
			},
			{
				"x": 4.4764000501,
				"y": 0.0430378203,
				"z": -1.1499252499,
				"element": "H" 
			},
			{
				"x": 1.9995668832,
				"y": -0.203319678,
				"z": -0.1051354401,
				"element": "H" 
			},
			{
				"x": 0.0912034281,
				"y": 2.0239523562,
				"z": -1.6198341342,
				"element": "H" 
			},
			{
				"x": 1.0918129064,
				"y": 3.1024676907,
				"z": -0.6730397379,
				"element": "H" 
			},
			{
				"x": 1.4486588046,
				"y": 2.6954963788,
				"z": 1.7882494602,
				"element": "H" 
			},
			{
				"x": -1.1173002939,
				"y": -0.1196034812,
				"z": 3.745087509,
				"element": "H" 
			},
			{
				"x": -1.9132447115,
				"y": -0.9451329699,
				"z": 1.5153677375,
				"element": "H" 
			},
			{
				"x": -1.026401505,
				"y": 0.0613028761,
				"z": -0.5670920156,
				"element": "H" 
			}
		],
		 "valence_orbital": [ 
			{
				"type": "occ",
				"energy": -0.28641,
				"method": "rhf"
			},
			{
				"type": "occ",
				"energy": -0.2746,
				"method": "rhf"
			},
			{
				"type": "occ",
				"energy": -0.26052,
				"method": "rhf"
			},
			{
				"type": "occ",
				"energy": -0.25394,
				"method": "rhf"
			},
			{
				"type": "occ",
				"energy": -0.24287,
				"method": "rhf"
			},
			{
				"type": "unocc",
				"energy": -0.02402,
				"method": "rhf"
			},
			{
				"type": "unocc",
				"energy": -0.01174,
				"method": "rhf"
			},
			{
				"type": "unocc",
				"energy": 0.02745,
				"method": "rhf"
			},
			{
				"type": "unocc",
				"energy": 0.07704,
				"method": "rhf"
			},
			{
				"type": "unocc",
				"energy": 0.09021,
				"method": "rhf"
			}
		],
		"cosmo_sigma_profile": { 
			"-0.025": 0.0,
			"-0.024": 0.0,
			"-0.023": 0.0,
			"-0.022": 0.0,
			"-0.021": 0.0,
			"-0.02": 0.0,
			"-0.019": 0.0,
			"-0.018": 0.0,
			"-0.017": 0.0,
			"-0.016": 0.0,
			"-0.015": 0.0,
			"-0.014": 0.0,
			"-0.013": 0.0,
			"-0.012": 0.421044194592,
			"-0.011": 2.49917242501,
			"-0.01": 3.11440714297,
			"-0.009": 2.8019556466,
			"-0.008": 3.09129195154,
			"-0.007": 8.5977132119,
			"-0.006": 16.3489080141,
			"-0.005": 15.2332594129,
			"-0.004": 15.6617092959,
			"-0.003": 11.0896528462,
			"-0.002": 10.6765658634,
			"-0.001": 12.2357100715,
			"0.0": 13.0117660404,
			"0.001": 16.253980344,
			"0.002": 13.3997364389,
			"0.003": 12.4838863592,
			"0.004": 16.9729829877,
			"0.005": 6.42446991664,
			"0.006": 1.80882107071,
			"0.007": 2.06022331131,
			"0.008": 2.61289204183,
			"0.009": 1.24011222414,
			"0.01": 1.07947969952,
			"0.011": 2.6923884872,
			"0.012": 2.33121967933,
			"0.013": 4.00750868385,
			"0.014": 5.50780306654,
			"0.015": 1.65616841535,
			"0.016": 0.756403131691,
			"0.017": 0.160092468017,
			"0.018": 0.0,
			"0.019": 0.0,
			"0.02": 0.0,
			"0.021": 0.0,
			"0.022": 0.0,
			"0.023": 0.0,
			"0.024": 0.0,
			"0.025": 0.0
		}
	}
}
