{
	 "smiles": "CCOC1=CC=C(C=C1)C1=NN=C2SC(NN12)C1=CC=CC=C1OC", 
	 "Tm": 467.15, 
	 "num_atms": 43, 
	 "gaussian": { 
		 "optdone": 1, 
		 "sigma_profile": "yes", 
		 "theory": "DFT", 
		 "functional": "B3LYP", 
		 "basiset": "6-31G**", 
		 "properties": { 
			 "R2extent": 13298.9232, 
			 "electric_dipole_moment_norm": 5.7361775574, 
			 "electric_quadrupole_moment_norm": 42.779676783, 
			 "total_energy": -1464.32104536, 
			 "HOMO_LUMO_gap": 0.16528, 
			 "cosmo_polarized_energy": -23.82, 
			 "cosmo_cavitation_energy": 47.88, 
			 "cosmo_dispersion_energy": -34.07, 
			 "cosmo_repulsion_energy": 2.53, 
			 "cosmo_total_nonelectrostatic_energy": 16.34, 
			 "SMD_solvation_energy": 6.49 
		},
		"coords": [
			{
				"x": -3.7907109704,
				"y": 4.2167427068,
				"z": -3.589580002,
				"element": "C" 
			},
			{
				"x": -2.6579482148,
				"y": 3.7766017292,
				"z": -4.5110838828,
				"element": "C" 
			},
			{
				"x": -2.1056392825,
				"y": 2.5108122916,
				"z": -4.1361609719,
				"element": "O" 
			},
			{
				"x": -1.1967891866,
				"y": 2.434864482,
				"z": -3.123207038,
				"element": "C" 
			},
			{
				"x": -0.6877029178,
				"y": 3.5279418831,
				"z": -2.4047741377,
				"element": "C" 
			},
			{
				"x": 0.2568106063,
				"y": 3.3213589718,
				"z": -1.4041257793,
				"element": "C" 
			},
			{
				"x": 0.7157312993,
				"y": 2.032799909,
				"z": -1.0894012,
				"element": "C" 
			},
			{
				"x": 0.1963571048,
				"y": 0.9436530131,
				"z": -1.813195477,
				"element": "C" 
			},
			{
				"x": -0.746022939,
				"y": 1.1430375297,
				"z": -2.8132523848,
				"element": "C" 
			},
			{
				"x": 1.701468528,
				"y": 1.8860742702,
				"z": -0.0187852943,
				"element": "C" 
			},
			{
				"x": 2.1553754222,
				"y": 2.8689296127,
				"z": 0.7424191665,
				"element": "N" 
			},
			{
				"x": 3.0608123092,
				"y": 2.3619631143,
				"z": 1.6658285697,
				"element": "N" 
			},
			{
				"x": 3.1494690684,
				"y": 1.0810380672,
				"z": 1.4214875099,
				"element": "C" 
			},
			{
				"x": 4.0021346748,
				"y": -0.2999326356,
				"z": 2.0974374237,
				"element": "S" 
			},
			{
				"x": 2.752633103,
				"y": -1.4074362023,
				"z": 1.1327268873,
				"element": "C" 
			},
			{
				"x": 2.3251991587,
				"y": -0.6232575983,
				"z": -0.0294129399,
				"element": "N" 
			},
			{
				"x": 2.3249778978,
				"y": 0.723466333,
				"z": 0.3860972267,
				"element": "N" 
			},
			{
				"x": 1.6231698809,
				"y": -1.8543291221,
				"z": 2.0209548707,
				"element": "C" 
			},
			{
				"x": 0.3147152856,
				"y": -1.3921764009,
				"z": 1.8804638733,
				"element": "C" 
			},
			{
				"x": -0.6981592728,
				"y": -1.839179788,
				"z": 2.7327008973,
				"element": "C" 
			},
			{
				"x": -0.4006574925,
				"y": -2.7633913373,
				"z": 3.7302983142,
				"element": "C" 
			},
			{
				"x": 0.9005844406,
				"y": -3.2510825621,
				"z": 3.8834494996,
				"element": "C" 
			},
			{
				"x": 1.9089234137,
				"y": -2.7984205395,
				"z": 3.0302693171,
				"element": "C" 
			},
			{
				"x": 3.2117073368,
				"y": -3.2103685949,
				"z": 3.0831748756,
				"element": "O" 
			},
			{
				"x": 3.5972489902,
				"y": -4.120131324,
				"z": 4.1050226774,
				"element": "C" 
			},
			{
				"x": -4.5765970497,
				"y": 3.4564591398,
				"z": -3.5665648168,
				"element": "H" 
			},
			{
				"x": -3.4417613978,
				"y": 4.3775829547,
				"z": -2.5660613294,
				"element": "H" 
			},
			{
				"x": -4.2268860171,
				"y": 5.1531279936,
				"z": -3.9533678758,
				"element": "H" 
			},
			{
				"x": -3.0345818237,
				"y": 3.6171955749,
				"z": -5.5253616646,
				"element": "H" 
			},
			{
				"x": -1.8667635456,
				"y": 4.5343379311,
				"z": -4.5710702072,
				"element": "H" 
			},
			{
				"x": -1.0182172229,
				"y": 4.5384386323,
				"z": -2.6127148796,
				"element": "H" 
			},
			{
				"x": 0.6513780685,
				"y": 4.1627452795,
				"z": -0.8448899212,
				"element": "H" 
			},
			{
				"x": 0.5269992985,
				"y": -0.0645300547,
				"z": -1.5880296112,
				"element": "H" 
			},
			{
				"x": -1.1496622642,
				"y": 0.3075313245,
				"z": -3.3756869326,
				"element": "H" 
			},
			{
				"x": 3.3314162848,
				"y": -2.263384748,
				"z": 0.7845865265,
				"element": "H" 
			},
			{
				"x": 3.0373686831,
				"y": -0.7071672848,
				"z": -0.7569467804,
				"element": "H" 
			},
			{
				"x": 0.0852793473,
				"y": -0.6846498624,
				"z": 1.0919055927,
				"element": "H" 
			},
			{
				"x": -1.7102091136,
				"y": -1.4667349803,
				"z": 2.6118243092,
				"element": "H" 
			},
			{
				"x": -1.1806646562,
				"y": -3.1175623392,
				"z": 4.3979395015,
				"element": "H" 
			},
			{
				"x": 1.1159904908,
				"y": -3.974653307,
				"z": 4.6603629452,
				"element": "H" 
			},
			{
				"x": 4.6670388075,
				"y": -4.2856472962,
				"z": 3.971833582,
				"element": "H" 
			},
			{
				"x": 3.4162222845,
				"y": -3.7007188507,
				"z": 5.1017483734,
				"element": "H" 
			},
			{
				"x": 3.0677615817,
				"y": -5.0763479158,
				"z": 4.011741187,
				"element": "H" 
			}
		],
		 "valence_orbital": [ 
			{
				"type": "occ",
				"energy": -0.25358,
				"method": "rhf"
			},
			{
				"type": "occ",
				"energy": -0.24304,
				"method": "rhf"
			},
			{
				"type": "occ",
				"energy": -0.23806,
				"method": "rhf"
			},
			{
				"type": "occ",
				"energy": -0.22898,
				"method": "rhf"
			},
			{
				"type": "occ",
				"energy": -0.1975,
				"method": "rhf"
			},
			{
				"type": "unocc",
				"energy": -0.03222,
				"method": "rhf"
			},
			{
				"type": "unocc",
				"energy": -0.01884,
				"method": "rhf"
			},
			{
				"type": "unocc",
				"energy": -0.0047,
				"method": "rhf"
			},
			{
				"type": "unocc",
				"energy": 0.00164,
				"method": "rhf"
			},
			{
				"type": "unocc",
				"energy": 0.01398,
				"method": "rhf"
			}
		],
		"cosmo_sigma_profile": { 
			"-0.025": 0.0,
			"-0.024": 0.0,
			"-0.023": 0.0,
			"-0.022": 0.0,
			"-0.021": 0.0,
			"-0.02": 0.0,
			"-0.019": 0.0,
			"-0.018": 0.0,
			"-0.017": 0.0,
			"-0.016": 0.280204036047,
			"-0.015": 2.14971531052,
			"-0.014": 2.05153204803,
			"-0.013": 1.52827117885,
			"-0.012": 1.81634087696,
			"-0.011": 1.44204339706,
			"-0.01": 1.81028265463,
			"-0.009": 2.12376394919,
			"-0.008": 2.55951961408,
			"-0.007": 5.55110617295,
			"-0.006": 17.8909522995,
			"-0.005": 28.8260348153,
			"-0.004": 34.9690837768,
			"-0.003": 34.8229778214,
			"-0.002": 26.5916057974,
			"-0.001": 24.3551649025,
			"0.0": 25.1163317787,
			"0.001": 25.2479890387,
			"0.002": 24.0383410313,
			"0.003": 28.3688758703,
			"0.004": 31.3852910489,
			"0.005": 22.7426742685,
			"0.006": 7.97017928874,
			"0.007": 3.7286123044,
			"0.008": 3.36576118228,
			"0.009": 3.35031628998,
			"0.01": 3.47558942545,
			"0.011": 2.65987446506,
			"0.012": 2.41553820888,
			"0.013": 3.56321965915,
			"0.014": 3.55158930415,
			"0.015": 2.66061505211,
			"0.016": 1.5694878753,
			"0.017": 0.38322701067,
			"0.018": 0.0,
			"0.019": 0.0,
			"0.02": 0.0,
			"0.021": 0.0,
			"0.022": 0.0,
			"0.023": 0.0,
			"0.024": 0.0,
			"0.025": 0.0
		}
	}
}
