{
	 "smiles": "OCCCCCCCCl", 
	 "Tm": 284.15, 
	 "num_atms": 24, 
	 "gaussian": { 
		 "optdone": 1, 
		 "sigma_profile": "yes", 
		 "theory": "DFT", 
		 "functional": "B3LYP", 
		 "basiset": "6-31G**", 
		 "properties": { 
			 "R2extent": 2428.7953, 
			 "electric_dipole_moment_norm": 2.18524102561, 
			 "electric_quadrupole_moment_norm": 8.84742346166, 
			 "total_energy": -811.209524178, 
			 "HOMO_LUMO_gap": 0.28484, 
			 "cosmo_polarized_energy": -8.52, 
			 "cosmo_cavitation_energy": 27.2, 
			 "cosmo_dispersion_energy": -19.25, 
			 "cosmo_repulsion_energy": 1.63, 
			 "cosmo_total_nonelectrostatic_energy": 9.58, 
			 "SMD_solvation_energy": 3.75 
		},
		"coords": [
			{
				"x": -0.0554611248,
				"y": 2.7862702567,
				"z": 1.8175595906,
				"element": "O" 
			},
			{
				"x": 0.2704698853,
				"y": 3.2383633977,
				"z": 0.5077492937,
				"element": "C" 
			},
			{
				"x": 0.9971350979,
				"y": 2.1857103144,
				"z": -0.3329929145,
				"element": "C" 
			},
			{
				"x": 0.2104604833,
				"y": 0.878914422,
				"z": -0.4872698955,
				"element": "C" 
			},
			{
				"x": 0.9748612197,
				"y": -0.1932549945,
				"z": -1.2733700981,
				"element": "C" 
			},
			{
				"x": 0.1938828484,
				"y": -1.5023425414,
				"z": -1.4862974455,
				"element": "C" 
			},
			{
				"x": -0.2030659607,
				"y": -2.3050959266,
				"z": -0.2333409311,
				"element": "C" 
			},
			{
				"x": 0.9197370157,
				"y": -3.033291494,
				"z": 0.5005556151,
				"element": "C" 
			},
			{
				"x": 1.9429806307,
				"y": -1.9577792214,
				"z": 1.5678271935,
				"element": "Cl" 
			},
			{
				"x": 0.7703881309,
				"y": 2.5444103186,
				"z": 2.2573663344,
				"element": "H" 
			},
			{
				"x": 0.8685508477,
				"y": 4.1634197591,
				"z": 0.5448650927,
				"element": "H" 
			},
			{
				"x": -0.6887428094,
				"y": 3.494162541,
				"z": 0.0430124135,
				"element": "H" 
			},
			{
				"x": 1.9736127123,
				"y": 1.9721512239,
				"z": 0.1282858102,
				"element": "H" 
			},
			{
				"x": 1.2180979652,
				"y": 2.6178059426,
				"z": -1.3192782235,
				"element": "H" 
			},
			{
				"x": -0.0425015551,
				"y": 0.5135070148,
				"z": 0.5134887149,
				"element": "H" 
			},
			{
				"x": -0.7455493109,
				"y": 1.0906787494,
				"z": -0.9886980526,
				"element": "H" 
			},
			{
				"x": 1.9266028031,
				"y": -0.4014547183,
				"z": -0.7719849451,
				"element": "H" 
			},
			{
				"x": 1.2324868246,
				"y": 0.2068331801,
				"z": -2.2639694405,
				"element": "H" 
			},
			{
				"x": 0.7742124152,
				"y": -2.1602391911,
				"z": -2.1480306292,
				"element": "H" 
			},
			{
				"x": -0.7298960476,
				"y": -1.2692912695,
				"z": -2.0330160329,
				"element": "H" 
			},
			{
				"x": -0.8998791793,
				"y": -3.0942748834,
				"z": -0.5503405842,
				"element": "H" 
			},
			{
				"x": -0.7579764625,
				"y": -1.6833406407,
				"z": 0.4772619188,
				"element": "H" 
			},
			{
				"x": 1.6151664914,
				"y": -3.5116489145,
				"z": -0.1926792514,
				"element": "H" 
			},
			{
				"x": 0.5187270787,
				"y": -3.790113325,
				"z": 1.1759964667,
				"element": "H" 
			}
		],
		 "valence_orbital": [ 
			{
				"type": "occ",
				"energy": -0.3185,
				"method": "rhf"
			},
			{
				"type": "occ",
				"energy": -0.30892,
				"method": "rhf"
			},
			{
				"type": "occ",
				"energy": -0.29128,
				"method": "rhf"
			},
			{
				"type": "occ",
				"energy": -0.28596,
				"method": "rhf"
			},
			{
				"type": "occ",
				"energy": -0.2591,
				"method": "rhf"
			},
			{
				"type": "unocc",
				"energy": 0.02574,
				"method": "rhf"
			},
			{
				"type": "unocc",
				"energy": 0.07769,
				"method": "rhf"
			},
			{
				"type": "unocc",
				"energy": 0.08369,
				"method": "rhf"
			},
			{
				"type": "unocc",
				"energy": 0.11406,
				"method": "rhf"
			},
			{
				"type": "unocc",
				"energy": 0.11551,
				"method": "rhf"
			}
		],
		"cosmo_sigma_profile": { 
			"-0.025": 0.0,
			"-0.024": 0.0,
			"-0.023": 0.0,
			"-0.022": 0.0,
			"-0.021": 0.0,
			"-0.02": 0.0,
			"-0.019": 0.0,
			"-0.018": 0.0,
			"-0.017": 0.0,
			"-0.016": 0.0,
			"-0.015": 0.506745926054,
			"-0.014": 0.923923400093,
			"-0.013": 1.15201330501,
			"-0.012": 0.784884869409,
			"-0.011": 0.756879493507,
			"-0.01": 0.974716285065,
			"-0.009": 0.943686283267,
			"-0.008": 0.791333688963,
			"-0.007": 1.6870423794,
			"-0.006": 5.26178639063,
			"-0.005": 7.75663939548,
			"-0.004": 11.7656728697,
			"-0.003": 19.7282080315,
			"-0.002": 29.2903185262,
			"-0.001": 29.6067051989,
			"0.0": 25.5686142266,
			"0.001": 16.9128670323,
			"0.002": 9.41367662648,
			"0.003": 7.01424765335,
			"0.004": 7.31390424326,
			"0.005": 6.47752544103,
			"0.006": 7.28078674936,
			"0.007": 7.93722304237,
			"0.008": 1.68769033449,
			"0.009": 1.33104622251,
			"0.01": 1.2426524439,
			"0.011": 1.13486844382,
			"0.012": 1.23856134814,
			"0.013": 1.53027409998,
			"0.014": 1.90121160479,
			"0.015": 1.67469004293,
			"0.016": 0.000318059438731,
			"0.017": 0.0,
			"0.018": 0.0,
			"0.019": 0.0,
			"0.02": 0.0,
			"0.021": 0.0,
			"0.022": 0.0,
			"0.023": 0.0,
			"0.024": 0.0,
			"0.025": 0.0
		}
	}
}
