{
	 "smiles": "ClCC1=NN=C(S1)C1CC1", 
	 "Tm": 355.15, 
	 "num_atms": 17, 
	 "gaussian": { 
		 "optdone": 1, 
		 "sigma_profile": "yes", 
		 "theory": "DFT", 
		 "functional": "B3LYP", 
		 "basiset": "6-31G**", 
		 "properties": { 
			 "R2extent": 2695.1935, 
			 "electric_dipole_moment_norm": 3.17773641921, 
			 "electric_quadrupole_moment_norm": 9.35230727735, 
			 "total_energy": -1200.6820699, 
			 "HOMO_LUMO_gap": 0.20724, 
			 "cosmo_polarized_energy": -10.02, 
			 "cosmo_cavitation_energy": 24.59, 
			 "cosmo_dispersion_energy": -18.66, 
			 "cosmo_repulsion_energy": 1.49, 
			 "cosmo_total_nonelectrostatic_energy": 7.42, 
			 "SMD_solvation_energy": 1.37 
		},
		"coords": [
			{
				"x": 0.7375840329,
				"y": 3.7097463751,
				"z": -2.0498613963,
				"element": "Cl" 
			},
			{
				"x": -0.5642588526,
				"y": 2.4413024997,
				"z": -1.895148843,
				"element": "C" 
			},
			{
				"x": -0.239126057,
				"y": 1.4023705039,
				"z": -0.8787135287,
				"element": "C" 
			},
			{
				"x": -0.9240523729,
				"y": 1.2749626388,
				"z": 0.2229242962,
				"element": "N" 
			},
			{
				"x": -0.4948560647,
				"y": 0.2499812483,
				"z": 1.0119134882,
				"element": "N" 
			},
			{
				"x": 0.5220899701,
				"y": -0.4020015321,
				"z": 0.5119135029,
				"element": "C" 
			},
			{
				"x": 1.0499833766,
				"y": 0.2243827606,
				"z": -1.0404768485,
				"element": "S" 
			},
			{
				"x": 1.1783210819,
				"y": -1.5439360508,
				"z": 1.1750793044,
				"element": "C" 
			},
			{
				"x": 0.3345938148,
				"y": -2.4819158103,
				"z": 2.0267062481,
				"element": "C" 
			},
			{
				"x": 1.2904729475,
				"y": -1.5451820723,
				"z": 2.6936456859,
				"element": "C" 
			},
			{
				"x": -1.4755767289,
				"y": 2.9500330985,
				"z": -1.5836128364,
				"element": "H" 
			},
			{
				"x": -0.689778595,
				"y": 2.0206386662,
				"z": -2.8933020983,
				"element": "H" 
			},
			{
				"x": 1.999773719,
				"y": -1.9856176319,
				"z": 0.6207065433,
				"element": "H" 
			},
			{
				"x": 0.5774850647,
				"y": -3.5390925129,
				"z": 1.9831958641,
				"element": "H" 
			},
			{
				"x": -0.7230059112,
				"y": -2.2482021143,
				"z": 2.0864442458,
				"element": "H" 
			},
			{
				"x": 0.8764604751,
				"y": -0.6809943995,
				"z": 3.2020513851,
				"element": "H" 
			},
			{
				"x": 2.2065900998,
				"y": -1.9424756669,
				"z": 3.1195349872,
				"element": "H" 
			}
		],
		 "valence_orbital": [ 
			{
				"type": "occ",
				"energy": -0.30894,
				"method": "rhf"
			},
			{
				"type": "occ",
				"energy": -0.30328,
				"method": "rhf"
			},
			{
				"type": "occ",
				"energy": -0.29589,
				"method": "rhf"
			},
			{
				"type": "occ",
				"energy": -0.26934,
				"method": "rhf"
			},
			{
				"type": "occ",
				"energy": -0.26088,
				"method": "rhf"
			},
			{
				"type": "unocc",
				"energy": -0.05364,
				"method": "rhf"
			},
			{
				"type": "unocc",
				"energy": -0.00678,
				"method": "rhf"
			},
			{
				"type": "unocc",
				"energy": 0.00492,
				"method": "rhf"
			},
			{
				"type": "unocc",
				"energy": 0.04094,
				"method": "rhf"
			},
			{
				"type": "unocc",
				"energy": 0.0775,
				"method": "rhf"
			}
		],
		"cosmo_sigma_profile": { 
			"-0.025": 0.0,
			"-0.024": 0.0,
			"-0.023": 0.0,
			"-0.022": 0.0,
			"-0.021": 0.0,
			"-0.02": 0.0,
			"-0.019": 0.0,
			"-0.018": 0.0,
			"-0.017": 0.0,
			"-0.016": 0.0,
			"-0.015": 0.0,
			"-0.014": 0.0,
			"-0.013": 0.0,
			"-0.012": 0.0,
			"-0.011": 0.0,
			"-0.01": 0.822007983361,
			"-0.009": 4.00090709792,
			"-0.008": 5.54115759037,
			"-0.007": 6.88192267607,
			"-0.006": 10.0382291402,
			"-0.005": 13.4107173464,
			"-0.004": 10.0685441354,
			"-0.003": 11.9824541978,
			"-0.002": 14.9527071806,
			"-0.001": 17.9750594178,
			"0.0": 18.4578707171,
			"0.001": 16.981295756,
			"0.002": 16.9782823521,
			"0.003": 8.52323180866,
			"0.004": 9.23143403049,
			"0.005": 10.2049819413,
			"0.006": 8.05417638065,
			"0.007": 1.48702318918,
			"0.008": 2.22678888634,
			"0.009": 2.1391994139,
			"0.01": 2.31020833046,
			"0.011": 2.64955750599,
			"0.012": 2.69436328275,
			"0.013": 2.07285157438,
			"0.014": 0.976551502428,
			"0.015": 0.0168286794485,
			"0.016": 0.0,
			"0.017": 0.0,
			"0.018": 0.0,
			"0.019": 0.0,
			"0.02": 0.0,
			"0.021": 0.0,
			"0.022": 0.0,
			"0.023": 0.0,
			"0.024": 0.0,
			"0.025": 0.0
		}
	}
}
