{
	 "smiles": "NC1=CC=NN1C1=NC=C(C=C1)C(F)(F)F", 
	 "Tm": 363.15, 
	 "num_atms": 23, 
	 "gaussian": { 
		 "optdone": 1, 
		 "sigma_profile": "yes", 
		 "theory": "DFT", 
		 "functional": "B3LYP", 
		 "basiset": "6-31G**", 
		 "properties": { 
			 "R2extent": 5867.6631, 
			 "electric_dipole_moment_norm": 2.23269451784, 
			 "electric_quadrupole_moment_norm": 8.79271116266, 
			 "total_energy": -865.690688915, 
			 "HOMO_LUMO_gap": 0.15664, 
			 "cosmo_polarized_energy": -9.37, 
			 "cosmo_cavitation_energy": 29.05, 
			 "cosmo_dispersion_energy": -21.29, 
			 "cosmo_repulsion_energy": 1.57, 
			 "cosmo_total_nonelectrostatic_energy": 9.33, 
			 "SMD_solvation_energy": 5.15 
		},
		"coords": [
			{
				"x": -1.0994799948,
				"y": 1.2522050424,
				"z": -0.7395042505,
				"element": "N" 
			},
			{
				"x": 0.1791437277,
				"y": 1.2387571573,
				"z": -1.2334154711,
				"element": "C" 
			},
			{
				"x": 0.7059904523,
				"y": 1.7862441887,
				"z": -2.3914734812,
				"element": "C" 
			},
			{
				"x": 2.0575031987,
				"y": 1.3706865063,
				"z": -2.4078676968,
				"element": "C" 
			},
			{
				"x": 2.3887058692,
				"y": 0.6285276057,
				"z": -1.3677187482,
				"element": "N" 
			},
			{
				"x": 1.2203693492,
				"y": 0.5462383163,
				"z": -0.6270165478,
				"element": "N" 
			},
			{
				"x": 1.243109963,
				"y": -0.1456242208,
				"z": 0.5872680134,
				"element": "C" 
			},
			{
				"x": 0.1330764635,
				"y": -0.1145311007,
				"z": 1.3354154517,
				"element": "N" 
			},
			{
				"x": 0.1387711266,
				"y": -0.7695070208,
				"z": 2.5028535402,
				"element": "C" 
			},
			{
				"x": 1.2379458522,
				"y": -1.4768179667,
				"z": 2.975137794,
				"element": "C" 
			},
			{
				"x": 2.3965724458,
				"y": -1.501878458,
				"z": 2.1836002595,
				"element": "C" 
			},
			{
				"x": 2.4113455316,
				"y": -0.8329408436,
				"z": 0.9746607722,
				"element": "C" 
			},
			{
				"x": 1.2131918275,
				"y": -2.1654161937,
				"z": 4.3070886655,
				"element": "C" 
			},
			{
				"x": 1.7508224051,
				"y": -3.4042748078,
				"z": 4.2326924229,
				"element": "F" 
			},
			{
				"x": -0.0421168915,
				"y": -2.291242183,
				"z": 4.788600919,
				"element": "F" 
			},
			{
				"x": 1.9308644479,
				"y": -1.4883547728,
				"z": 5.2336162808,
				"element": "F" 
			},
			{
				"x": -1.1831490889,
				"y": 0.9717416842,
				"z": 0.2313744735,
				"element": "H" 
			},
			{
				"x": -1.6752158135,
				"y": 2.0201075809,
				"z": -1.049293648,
				"element": "H" 
			},
			{
				"x": 0.1785541277,
				"y": 2.3830331272,
				"z": -3.1199563635,
				"element": "H" 
			},
			{
				"x": 2.8075130217,
				"y": 1.5927609321,
				"z": -3.1566755422,
				"element": "H" 
			},
			{
				"x": -0.7792836845,
				"y": -0.7279806199,
				"z": 3.0813351904,
				"element": "H" 
			},
			{
				"x": 3.2722920553,
				"y": -2.0504413546,
				"z": 2.5159000616,
				"element": "H" 
			},
			{
				"x": 3.2745736083,
				"y": -0.8185925985,
				"z": 0.3240779046,
				"element": "H" 
			}
		],
		 "valence_orbital": [ 
			{
				"type": "occ",
				"energy": -0.30082,
				"method": "rhf"
			},
			{
				"type": "occ",
				"energy": -0.2952,
				"method": "rhf"
			},
			{
				"type": "occ",
				"energy": -0.28573,
				"method": "rhf"
			},
			{
				"type": "occ",
				"energy": -0.24006,
				"method": "rhf"
			},
			{
				"type": "occ",
				"energy": -0.20571,
				"method": "rhf"
			},
			{
				"type": "unocc",
				"energy": -0.04907,
				"method": "rhf"
			},
			{
				"type": "unocc",
				"energy": -0.03893,
				"method": "rhf"
			},
			{
				"type": "unocc",
				"energy": 0.03595,
				"method": "rhf"
			},
			{
				"type": "unocc",
				"energy": 0.07703,
				"method": "rhf"
			},
			{
				"type": "unocc",
				"energy": 0.09168,
				"method": "rhf"
			}
		],
		"cosmo_sigma_profile": { 
			"-0.025": 0.0,
			"-0.024": 0.0,
			"-0.023": 0.0,
			"-0.022": 0.0,
			"-0.021": 0.0,
			"-0.02": 0.0,
			"-0.019": 0.0,
			"-0.018": 0.0,
			"-0.017": 0.0,
			"-0.016": 0.0,
			"-0.015": 0.0,
			"-0.014": 0.496220109337,
			"-0.013": 1.6966062373,
			"-0.012": 0.762969709545,
			"-0.011": 1.435313105,
			"-0.01": 1.33233334454,
			"-0.009": 2.68028871124,
			"-0.008": 5.46844569704,
			"-0.007": 8.71762521864,
			"-0.006": 9.20371540399,
			"-0.005": 10.1347301542,
			"-0.004": 9.84199300397,
			"-0.003": 9.43279440498,
			"-0.002": 12.3816350873,
			"-0.001": 21.6993341172,
			"0.0": 22.8533231207,
			"0.001": 20.7705021446,
			"0.002": 26.2359987391,
			"0.003": 31.7624072895,
			"0.004": 9.28677294568,
			"0.005": 7.94240804329,
			"0.006": 5.92338857439,
			"0.007": 3.27100452759,
			"0.008": 1.68792523266,
			"0.009": 1.9087357847,
			"0.01": 2.34503321712,
			"0.011": 2.56709164901,
			"0.012": 1.92684943639,
			"0.013": 0.376847630089,
			"0.014": 0.0,
			"0.015": 0.0,
			"0.016": 0.0,
			"0.017": 0.0,
			"0.018": 0.0,
			"0.019": 0.0,
			"0.02": 0.0,
			"0.021": 0.0,
			"0.022": 0.0,
			"0.023": 0.0,
			"0.024": 0.0,
			"0.025": 0.0
		}
	}
}
