{
	 "smiles": "CN1CC(=O)N(C)CC1=O", 
	 "Tm": 418.15, 
	 "num_atms": 20, 
	 "gaussian": { 
		 "optdone": 1, 
		 "sigma_profile": "yes", 
		 "theory": "DFT", 
		 "functional": "B3LYP", 
		 "basiset": "6-31G**", 
		 "properties": { 
			 "R2extent": 2110.8429, 
			 "electric_dipole_moment_norm": 0.513219114999, 
			 "electric_quadrupole_moment_norm": 18.4978887412, 
			 "total_energy": -494.635791726, 
			 "HOMO_LUMO_gap": 0.26028, 
			 "cosmo_polarized_energy": -14.42, 
			 "cosmo_cavitation_energy": 22.77, 
			 "cosmo_dispersion_energy": -17.05, 
			 "cosmo_repulsion_energy": 1.38, 
			 "cosmo_total_nonelectrostatic_energy": 7.11, 
			 "SMD_solvation_energy": 4.58 
		},
		"coords": [
			{
				"x": 1.3001702502,
				"y": 2.9688953691,
				"z": -0.3621442517,
				"element": "C" 
			},
			{
				"x": 1.3478401141,
				"y": 1.5137819587,
				"z": -0.4120109759,
				"element": "N" 
			},
			{
				"x": 0.2668578575,
				"y": 0.8505833146,
				"z": -1.1243454136,
				"element": "C" 
			},
			{
				"x": 0.449152494,
				"y": -0.6309576206,
				"z": -1.4334264593,
				"element": "C" 
			},
			{
				"x": -0.301370754,
				"y": -1.1629902091,
				"z": -2.2434245991,
				"element": "O" 
			},
			{
				"x": 1.4473927227,
				"y": -1.2833169812,
				"z": -0.7734813487,
				"element": "N" 
			},
			{
				"x": 1.6323623211,
				"y": -2.7123966532,
				"z": -0.9870779898,
				"element": "C" 
			},
			{
				"x": 2.2377035068,
				"y": -0.6752658883,
				"z": 0.2855153559,
				"element": "C" 
			},
			{
				"x": 2.2749480482,
				"y": 0.8479324796,
				"z": 0.3327733457,
				"element": "C" 
			},
			{
				"x": 3.1187085754,
				"y": 1.397651229,
				"z": 1.0315725057,
				"element": "O" 
			},
			{
				"x": 0.3807038816,
				"y": 3.3123228464,
				"z": 0.128899012,
				"element": "H" 
			},
			{
				"x": 1.3283185844,
				"y": 3.382879103,
				"z": -1.3763976746,
				"element": "H" 
			},
			{
				"x": 2.162545909,
				"y": 3.3168511385,
				"z": 0.204523452,
				"element": "H" 
			},
			{
				"x": 0.1185184342,
				"y": 1.3407633629,
				"z": -2.0923589063,
				"element": "H" 
			},
			{
				"x": -0.6835481353,
				"y": 0.9540243994,
				"z": -0.5777571,
				"element": "H" 
			},
			{
				"x": 2.6751545769,
				"y": -2.923344423,
				"z": -1.2496955736,
				"element": "H" 
			},
			{
				"x": 0.9756431394,
				"y": -3.0213727907,
				"z": -1.7989450998,
				"element": "H" 
			},
			{
				"x": 1.3800311302,
				"y": -3.2779517906,
				"z": -0.0810074792,
				"element": "H" 
			},
			{
				"x": 1.9005154468,
				"y": -1.0229968875,
				"z": 1.2745145912,
				"element": "H" 
			},
			{
				"x": 3.2802518969,
				"y": -0.9957919569,
				"z": 0.1870746091,
				"element": "H" 
			}
		],
		 "valence_orbital": [ 
			{
				"type": "occ",
				"energy": -0.3541,
				"method": "rhf"
			},
			{
				"type": "occ",
				"energy": -0.26438,
				"method": "rhf"
			},
			{
				"type": "occ",
				"energy": -0.26144,
				"method": "rhf"
			},
			{
				"type": "occ",
				"energy": -0.25393,
				"method": "rhf"
			},
			{
				"type": "occ",
				"energy": -0.24358,
				"method": "rhf"
			},
			{
				"type": "unocc",
				"energy": 0.0167,
				"method": "rhf"
			},
			{
				"type": "unocc",
				"energy": 0.0172,
				"method": "rhf"
			},
			{
				"type": "unocc",
				"energy": 0.07833,
				"method": "rhf"
			},
			{
				"type": "unocc",
				"energy": 0.08846,
				"method": "rhf"
			},
			{
				"type": "unocc",
				"energy": 0.1246,
				"method": "rhf"
			}
		],
		"cosmo_sigma_profile": { 
			"-0.025": 0.0,
			"-0.024": 0.0,
			"-0.023": 0.0,
			"-0.022": 0.0,
			"-0.021": 0.0,
			"-0.02": 0.0,
			"-0.019": 0.0,
			"-0.018": 0.0,
			"-0.017": 0.0,
			"-0.016": 0.0,
			"-0.015": 0.0,
			"-0.014": 0.0,
			"-0.013": 0.0,
			"-0.012": 0.0,
			"-0.011": 0.0,
			"-0.01": 0.0,
			"-0.009": 0.0,
			"-0.008": 0.0502940870672,
			"-0.007": 10.2071451834,
			"-0.006": 18.3436890068,
			"-0.005": 20.3855121662,
			"-0.004": 19.7147294056,
			"-0.003": 18.9122347086,
			"-0.002": 19.0412567444,
			"-0.001": 9.41768767707,
			"0.0": 6.3361748923,
			"0.001": 7.03241581006,
			"0.002": 3.4280253693,
			"0.003": 3.0541662344,
			"0.004": 3.0657466959,
			"0.005": 2.53947052597,
			"0.006": 2.92974119507,
			"0.007": 2.91486199214,
			"0.008": 3.06649983194,
			"0.009": 1.95355816768,
			"0.01": 2.50316697328,
			"0.011": 2.53388853035,
			"0.012": 4.13854448879,
			"0.013": 8.51038665313,
			"0.014": 7.8771221103,
			"0.015": 0.998869115171,
			"0.016": 0.0,
			"0.017": 0.0,
			"0.018": 0.0,
			"0.019": 0.0,
			"0.02": 0.0,
			"0.021": 0.0,
			"0.022": 0.0,
			"0.023": 0.0,
			"0.024": 0.0,
			"0.025": 0.0
		}
	}
}
