{
	 "smiles": "COC1=C(Br)C=NC(N)=C1", 
	 "Tm": 410.15, 
	 "num_atms": 17, 
	 "gaussian": { 
		 "optdone": 1, 
		 "sigma_profile": "yes", 
		 "theory": "DFT", 
		 "functional": "B3LYP", 
		 "basiset": "6-31G**", 
		 "properties": { 
			 "R2extent": 3709.8064, 
			 "electric_dipole_moment_norm": 2.70908881545, 
			 "electric_quadrupole_moment_norm": 16.0091419117, 
			 "total_energy": -2988.97369303, 
			 "HOMO_LUMO_gap": 0.19426, 
			 "cosmo_polarized_energy": -10.32, 
			 "cosmo_cavitation_energy": 23.34, 
			 "cosmo_dispersion_energy": -17.72, 
			 "cosmo_repulsion_energy": 1.45, 
			 "cosmo_total_nonelectrostatic_energy": 7.07, 
			 "SMD_solvation_energy": 2.45 
		},
		"coords": [
			{
				"x": -3.1906210758,
				"y": 0.4893709718,
				"z": -0.8847874168,
				"element": "C" 
			},
			{
				"x": -3.3791561565,
				"y": -0.3427754627,
				"z": 0.2664737464,
				"element": "O" 
			},
			{
				"x": -2.2502782067,
				"y": -0.9438283952,
				"z": 0.7461055652,
				"element": "C" 
			},
			{
				"x": -1.3269255761,
				"y": -0.2760996317,
				"z": 1.5711328605,
				"element": "C" 
			},
			{
				"x": -1.5755596369,
				"y": 1.5440002077,
				"z": 2.0756946361,
				"element": "Br" 
			},
			{
				"x": -0.2350549547,
				"y": -0.9892216692,
				"z": 2.0559968626,
				"element": "C" 
			},
			{
				"x": -0.0107189061,
				"y": -2.2779003136,
				"z": 1.787037698,
				"element": "N" 
			},
			{
				"x": -0.8903852365,
				"y": -2.9196289326,
				"z": 1.0006729432,
				"element": "C" 
			},
			{
				"x": -0.5989356356,
				"y": -4.2368273944,
				"z": 0.7090824077,
				"element": "N" 
			},
			{
				"x": -2.0234342146,
				"y": -2.2838497875,
				"z": 0.4571125797,
				"element": "C" 
			},
			{
				"x": -2.8033826762,
				"y": -0.0961123921,
				"z": -1.7278605648,
				"element": "H" 
			},
			{
				"x": -4.1764611321,
				"y": 0.8831630995,
				"z": -1.1370225573,
				"element": "H" 
			},
			{
				"x": -2.5108506655,
				"y": 1.320613243,
				"z": -0.6719795277,
				"element": "H" 
			},
			{
				"x": 0.4864019723,
				"y": -0.4940292742,
				"z": 2.7015944645,
				"element": "H" 
			},
			{
				"x": -1.3674663649,
				"y": -4.8417705385,
				"z": 0.4624877472,
				"element": "H" 
			},
			{
				"x": 0.094930442,
				"y": -4.6497287773,
				"z": 1.3162033268,
				"element": "H" 
			},
			{
				"x": -2.7270019762,
				"y": -2.813074953,
				"z": -0.1772447714,
				"element": "H" 
			}
		],
		 "valence_orbital": [ 
			{
				"type": "occ",
				"energy": -0.28996,
				"method": "rhf"
			},
			{
				"type": "occ",
				"energy": -0.283,
				"method": "rhf"
			},
			{
				"type": "occ",
				"energy": -0.26811,
				"method": "rhf"
			},
			{
				"type": "occ",
				"energy": -0.26314,
				"method": "rhf"
			},
			{
				"type": "occ",
				"energy": -0.2147,
				"method": "rhf"
			},
			{
				"type": "unocc",
				"energy": -0.02044,
				"method": "rhf"
			},
			{
				"type": "unocc",
				"energy": -0.00086,
				"method": "rhf"
			},
			{
				"type": "unocc",
				"energy": 0.01043,
				"method": "rhf"
			},
			{
				"type": "unocc",
				"energy": 0.08362,
				"method": "rhf"
			},
			{
				"type": "unocc",
				"energy": 0.1081,
				"method": "rhf"
			}
		],
		"cosmo_sigma_profile": { 
			"-0.025": 0.0,
			"-0.024": 0.0,
			"-0.023": 0.0,
			"-0.022": 0.0,
			"-0.021": 0.0,
			"-0.02": 0.0,
			"-0.019": 0.0,
			"-0.018": 0.0,
			"-0.017": 0.0,
			"-0.016": 0.0,
			"-0.015": 0.0,
			"-0.014": 0.377587568808,
			"-0.013": 1.98528492674,
			"-0.012": 2.31870858892,
			"-0.011": 2.62722195753,
			"-0.01": 2.9038413511,
			"-0.009": 3.01801292321,
			"-0.008": 2.16643104413,
			"-0.007": 4.36910634854,
			"-0.006": 6.86655917338,
			"-0.005": 8.48519609018,
			"-0.004": 12.6677354643,
			"-0.003": 16.0401718852,
			"-0.002": 11.4104092797,
			"-0.001": 10.0737022493,
			"0.0": 10.1080156758,
			"0.001": 17.6547113247,
			"0.002": 18.7561582494,
			"0.003": 10.4324075897,
			"0.004": 12.7475602226,
			"0.005": 8.73405305516,
			"0.006": 4.7842048636,
			"0.007": 4.26566587487,
			"0.008": 3.69818276657,
			"0.009": 3.49952535671,
			"0.01": 2.57919089711,
			"0.011": 2.79647567004,
			"0.012": 1.05959246533,
			"0.013": 1.23859645556,
			"0.014": 0.861136525527,
			"0.015": 0.466780031162,
			"0.016": 0.0,
			"0.017": 0.0,
			"0.018": 0.0,
			"0.019": 0.0,
			"0.02": 0.0,
			"0.021": 0.0,
			"0.022": 0.0,
			"0.023": 0.0,
			"0.024": 0.0,
			"0.025": 0.0
		}
	}
}
