{
	 "smiles": "CC(C)N1C(O)=NN=C1S", 
	 "Tm": 441.15, 
	 "num_atms": 19, 
	 "gaussian": { 
		 "optdone": 1, 
		 "sigma_profile": "yes", 
		 "theory": "DFT", 
		 "functional": "B3LYP", 
		 "basiset": "6-31G**", 
		 "properties": { 
			 "R2extent": 2124.851, 
			 "electric_dipole_moment_norm": 3.87563667415, 
			 "electric_quadrupole_moment_norm": 12.3144425992, 
			 "total_energy": -833.598143388, 
			 "HOMO_LUMO_gap": 0.2222, 
			 "cosmo_polarized_energy": -15.08, 
			 "cosmo_cavitation_energy": 23.94, 
			 "cosmo_dispersion_energy": -17.8, 
			 "cosmo_repulsion_energy": 1.41, 
			 "cosmo_total_nonelectrostatic_energy": 7.55, 
			 "SMD_solvation_energy": 2.63 
		},
		"coords": [
			{
				"x": -0.3349186521,
				"y": -1.3231271143,
				"z": -1.2596348268,
				"element": "C" 
			},
			{
				"x": -0.2165976141,
				"y": -0.2854923845,
				"z": -0.1369761239,
				"element": "C" 
			},
			{
				"x": 0.214254581,
				"y": -0.8946204458,
				"z": 1.2025613504,
				"element": "C" 
			},
			{
				"x": 0.692939859,
				"y": 0.8101447629,
				"z": -0.5305129184,
				"element": "N" 
			},
			{
				"x": 2.0314375077,
				"y": 0.7516939397,
				"z": -0.8195541706,
				"element": "C" 
			},
			{
				"x": 2.6983273046,
				"y": -0.4176953261,
				"z": -0.7655221449,
				"element": "O" 
			},
			{
				"x": 2.5289498707,
				"y": 1.9139429331,
				"z": -1.1326265952,
				"element": "N" 
			},
			{
				"x": 1.4773786827,
				"y": 2.8267754619,
				"z": -1.0560018676,
				"element": "N" 
			},
			{
				"x": 0.4145934486,
				"y": 2.1539553147,
				"z": -0.7016753307,
				"element": "C" 
			},
			{
				"x": -1.2046925154,
				"y": 2.8302615689,
				"z": -0.4571080531,
				"element": "S" 
			},
			{
				"x": -0.6682363752,
				"y": -0.8540739945,
				"z": -2.1895617473,
				"element": "H" 
			},
			{
				"x": 0.6253153337,
				"y": -1.8129336839,
				"z": -1.4400308379,
				"element": "H" 
			},
			{
				"x": -1.0649062094,
				"y": -2.0883779683,
				"z": -0.9792333232,
				"element": "H" 
			},
			{
				"x": -1.192354972,
				"y": 0.1923572211,
				"z": -0.0025527441,
				"element": "H" 
			},
			{
				"x": 1.195850818,
				"y": -1.3676395171,
				"z": 1.1175021416,
				"element": "H" 
			},
			{
				"x": 0.2618297027,
				"y": -0.128262249,
				"z": 1.981217089,
				"element": "H" 
			},
			{
				"x": -0.5091581369,
				"y": -1.655007635,
				"z": 1.5117555997,
				"element": "H" 
			},
			{
				"x": 3.6154037485,
				"y": -0.2139859191,
				"z": -1.0058336208,
				"element": "H" 
			},
			{
				"x": -0.792316382,
				"y": 4.0737850355,
				"z": -0.7661118763,
				"element": "H" 
			}
		],
		 "valence_orbital": [ 
			{
				"type": "occ",
				"energy": -0.30664,
				"method": "rhf"
			},
			{
				"type": "occ",
				"energy": -0.29852,
				"method": "rhf"
			},
			{
				"type": "occ",
				"energy": -0.28282,
				"method": "rhf"
			},
			{
				"type": "occ",
				"energy": -0.25756,
				"method": "rhf"
			},
			{
				"type": "occ",
				"energy": -0.21752,
				"method": "rhf"
			},
			{
				"type": "unocc",
				"energy": 0.00468,
				"method": "rhf"
			},
			{
				"type": "unocc",
				"energy": 0.0321,
				"method": "rhf"
			},
			{
				"type": "unocc",
				"energy": 0.05248,
				"method": "rhf"
			},
			{
				"type": "unocc",
				"energy": 0.05997,
				"method": "rhf"
			},
			{
				"type": "unocc",
				"energy": 0.06689,
				"method": "rhf"
			}
		],
		"cosmo_sigma_profile": { 
			"-0.025": 0.0,
			"-0.024": 0.0,
			"-0.023": 0.0,
			"-0.022": 0.0,
			"-0.021": 0.0,
			"-0.02": 0.102538171321,
			"-0.019": 0.716633039571,
			"-0.018": 0.907227304487,
			"-0.017": 0.893099399332,
			"-0.016": 0.873028759979,
			"-0.015": 0.454843745632,
			"-0.014": 0.145815454953,
			"-0.013": 1.11467918873,
			"-0.012": 2.10985725815,
			"-0.011": 2.40413577667,
			"-0.01": 1.43277338946,
			"-0.009": 1.51456676411,
			"-0.008": 2.31682739745,
			"-0.007": 2.89430227249,
			"-0.006": 3.23603374469,
			"-0.005": 9.64324313334,
			"-0.004": 17.5406351406,
			"-0.003": 14.8192567715,
			"-0.002": 19.0419996544,
			"-0.001": 20.5165378672,
			"0.0": 18.9232610363,
			"0.001": 10.4643816701,
			"0.002": 9.33666982954,
			"0.003": 7.17109950285,
			"0.004": 6.23155556685,
			"0.005": 6.30844816789,
			"0.006": 4.85378873707,
			"0.007": 3.22687328293,
			"0.008": 1.75876154441,
			"0.009": 1.66897463081,
			"0.01": 1.73893582039,
			"0.011": 2.09363452027,
			"0.012": 2.71094338727,
			"0.013": 3.28144899871,
			"0.014": 3.68781271168,
			"0.015": 2.57322399112,
			"0.016": 2.45528221184,
			"0.017": 0.400817774963,
			"0.018": 0.0,
			"0.019": 0.0,
			"0.02": 0.0,
			"0.021": 0.0,
			"0.022": 0.0,
			"0.023": 0.0,
			"0.024": 0.0,
			"0.025": 0.0
		}
	}
}
