{
	 "smiles": "COCCCS(N)(=O)=O", 
	 "Tm": 315.15, 
	 "num_atms": 20, 
	 "gaussian": { 
		 "optdone": 1, 
		 "sigma_profile": "yes", 
		 "theory": "DFT", 
		 "functional": "B3LYP", 
		 "basiset": "6-31G**", 
		 "properties": { 
			 "R2extent": 2210.5243, 
			 "electric_dipole_moment_norm": 3.89352467823, 
			 "electric_quadrupole_moment_norm": 15.2225032955, 
			 "total_energy": -837.591492281, 
			 "HOMO_LUMO_gap": 0.31942, 
			 "cosmo_polarized_energy": -15.85, 
			 "cosmo_cavitation_energy": 24.51, 
			 "cosmo_dispersion_energy": -18.55, 
			 "cosmo_repulsion_energy": 1.52, 
			 "cosmo_total_nonelectrostatic_energy": 7.47, 
			 "SMD_solvation_energy": 4.22 
		},
		"coords": [
			{
				"x": -1.9611988478,
				"y": 0.6549094616,
				"z": -3.1026008893,
				"element": "C" 
			},
			{
				"x": -1.4280330122,
				"y": 0.0184151845,
				"z": -1.9603324504,
				"element": "O" 
			},
			{
				"x": -1.3303772042,
				"y": 0.880242136,
				"z": -0.8421090983,
				"element": "C" 
			},
			{
				"x": -0.7318178741,
				"y": 0.0990411735,
				"z": 0.3230153489,
				"element": "C" 
			},
			{
				"x": 0.6604178899,
				"y": -0.4299635489,
				"z": -0.0148177063,
				"element": "C" 
			},
			{
				"x": 1.4407579096,
				"y": -1.3298607494,
				"z": 1.3425387731,
				"element": "S" 
			},
			{
				"x": 0.4193220698,
				"y": -2.675404188,
				"z": 1.5286234065,
				"element": "N" 
			},
			{
				"x": 2.7441790494,
				"y": -1.803827577,
				"z": 0.8654032637,
				"element": "O" 
			},
			{
				"x": 1.3121855137,
				"y": -0.5314379241,
				"z": 2.5673621781,
				"element": "O" 
			},
			{
				"x": -2.9808298091,
				"y": 1.030238458,
				"z": -2.9222695841,
				"element": "H" 
			},
			{
				"x": -1.9952496154,
				"y": -0.0879460027,
				"z": -3.9029585782,
				"element": "H" 
			},
			{
				"x": -1.3362479979,
				"y": 1.5012640948,
				"z": -3.4287497707,
				"element": "H" 
			},
			{
				"x": -2.3250019792,
				"y": 1.264220734,
				"z": -0.5601097301,
				"element": "H" 
			},
			{
				"x": -0.7012467193,
				"y": 1.7550187401,
				"z": -1.0846239909,
				"element": "H" 
			},
			{
				"x": -0.6780882736,
				"y": 0.7489025474,
				"z": 1.2021505168,
				"element": "H" 
			},
			{
				"x": -1.3904121616,
				"y": -0.7408899113,
				"z": 0.5658153346,
				"element": "H" 
			},
			{
				"x": 1.3645902247,
				"y": 0.3801456519,
				"z": -0.2327931651,
				"element": "H" 
			},
			{
				"x": 0.6397121324,
				"y": -1.1075663231,
				"z": -0.8705713622,
				"element": "H" 
			},
			{
				"x": 0.9174841013,
				"y": -3.5172790149,
				"z": 1.2505948947,
				"element": "H" 
			},
			{
				"x": 0.1303546038,
				"y": -2.7300229423,
				"z": 2.5019326093,
				"element": "H" 
			}
		],
		 "valence_orbital": [ 
			{
				"type": "occ",
				"energy": -0.31261,
				"method": "rhf"
			},
			{
				"type": "occ",
				"energy": -0.30983,
				"method": "rhf"
			},
			{
				"type": "occ",
				"energy": -0.29674,
				"method": "rhf"
			},
			{
				"type": "occ",
				"energy": -0.2876,
				"method": "rhf"
			},
			{
				"type": "occ",
				"energy": -0.26505,
				"method": "rhf"
			},
			{
				"type": "unocc",
				"energy": 0.05437,
				"method": "rhf"
			},
			{
				"type": "unocc",
				"energy": 0.07611,
				"method": "rhf"
			},
			{
				"type": "unocc",
				"energy": 0.0862,
				"method": "rhf"
			},
			{
				"type": "unocc",
				"energy": 0.09135,
				"method": "rhf"
			},
			{
				"type": "unocc",
				"energy": 0.1045,
				"method": "rhf"
			}
		],
		"cosmo_sigma_profile": { 
			"-0.025": 0.0,
			"-0.024": 0.0,
			"-0.023": 0.0,
			"-0.022": 0.0,
			"-0.021": 0.0,
			"-0.02": 0.0,
			"-0.019": 0.0,
			"-0.018": 0.0,
			"-0.017": 0.0,
			"-0.016": 0.0,
			"-0.015": 0.603383051488,
			"-0.014": 2.31001776967,
			"-0.013": 2.63641056977,
			"-0.012": 2.18180511132,
			"-0.011": 2.48616748827,
			"-0.01": 2.20759893201,
			"-0.009": 1.87625960278,
			"-0.008": 3.86986795749,
			"-0.007": 5.41078944633,
			"-0.006": 4.37973435625,
			"-0.005": 8.63952774728,
			"-0.004": 20.5526532622,
			"-0.003": 24.7425160395,
			"-0.002": 20.7510003333,
			"-0.001": 11.4223347089,
			"0.0": 6.0898382116,
			"0.001": 5.82048382583,
			"0.002": 4.72624639243,
			"0.003": 5.36396792645,
			"0.004": 4.22096798353,
			"0.005": 4.01326278051,
			"0.006": 5.32290978445,
			"0.007": 4.49017582421,
			"0.008": 5.14467699511,
			"0.009": 4.78933616127,
			"0.01": 5.22841906539,
			"0.011": 12.5203398461,
			"0.012": 8.51648740194,
			"0.013": 0.564238843575,
			"0.014": 0.0,
			"0.015": 0.0,
			"0.016": 0.0,
			"0.017": 0.0,
			"0.018": 0.0,
			"0.019": 0.0,
			"0.02": 0.0,
			"0.021": 0.0,
			"0.022": 0.0,
			"0.023": 0.0,
			"0.024": 0.0,
			"0.025": 0.0
		}
	}
}
