{
	 "smiles": "CC1=C(C#N)C2=NC3=C(C=CC=C3)N2C(Cl)=C1", 
	 "Tm": 484.15, 
	 "num_atms": 25, 
	 "gaussian": { 
		 "optdone": 1, 
		 "sigma_profile": "yes", 
		 "theory": "DFT", 
		 "functional": "B3LYP", 
		 "basiset": "6-31G**", 
		 "properties": { 
			 "R2extent": 4721.0352, 
			 "electric_dipole_moment_norm": 5.81770606769, 
			 "electric_quadrupole_moment_norm": 25.6869517798, 
			 "total_energy": -1124.63900896, 
			 "HOMO_LUMO_gap": 0.13834, 
			 "cosmo_polarized_energy": -14.69, 
			 "cosmo_cavitation_energy": 31.72, 
			 "cosmo_dispersion_energy": -23.08, 
			 "cosmo_repulsion_energy": 1.74, 
			 "cosmo_total_nonelectrostatic_energy": 10.38, 
			 "SMD_solvation_energy": 4.44 
		},
		"coords": [
			{
				"x": 2.7371312737,
				"y": 2.16493702,
				"z": 2.7410171276,
				"element": "C" 
			},
			{
				"x": 1.6744548237,
				"y": 1.3323766203,
				"z": 2.0758803559,
				"element": "C" 
			},
			{
				"x": 0.4451933497,
				"y": 1.8485286413,
				"z": 1.696839479,
				"element": "C" 
			},
			{
				"x": 0.1068694636,
				"y": 3.2196015853,
				"z": 1.9167838987,
				"element": "C" 
			},
			{
				"x": -0.130123135,
				"y": 4.3415149122,
				"z": 2.1135223788,
				"element": "N" 
			},
			{
				"x": -0.531434225,
				"y": 1.0115365629,
				"z": 1.0666081956,
				"element": "C" 
			},
			{
				"x": -1.7310181169,
				"y": 1.3260404912,
				"z": 0.6466339142,
				"element": "N" 
			},
			{
				"x": -2.2508159871,
				"y": 0.1638065027,
				"z": 0.1220866296,
				"element": "C" 
			},
			{
				"x": -1.3364930035,
				"y": -0.9182769863,
				"z": 0.2200218652,
				"element": "C" 
			},
			{
				"x": -1.6546174022,
				"y": -2.1988650817,
				"z": -0.2510648489,
				"element": "C" 
			},
			{
				"x": -2.9107621727,
				"y": -2.3675557742,
				"z": -0.8222935497,
				"element": "C" 
			},
			{
				"x": -3.828178467,
				"y": -1.3012713605,
				"z": -0.9257842626,
				"element": "C" 
			},
			{
				"x": -3.5128130365,
				"y": -0.0342236868,
				"z": -0.4593256671,
				"element": "C" 
			},
			{
				"x": -0.2056794439,
				"y": -0.3639198469,
				"z": 0.8403228847,
				"element": "N" 
			},
			{
				"x": 1.0156595629,
				"y": -0.8520660674,
				"z": 1.2234059491,
				"element": "C" 
			},
			{
				"x": 1.3771930457,
				"y": -2.5257264368,
				"z": 0.9333785796,
				"element": "Cl" 
			},
			{
				"x": 1.940660517,
				"y": -0.0445358659,
				"z": 1.8241060575,
				"element": "C" 
			},
			{
				"x": 3.6544738026,
				"y": 2.1648272269,
				"z": 2.1414949999,
				"element": "H" 
			},
			{
				"x": 2.9924717753,
				"y": 1.747453187,
				"z": 3.721551923,
				"element": "H" 
			},
			{
				"x": 2.4164160799,
				"y": 3.1980859132,
				"z": 2.8795456913,
				"element": "H" 
			},
			{
				"x": -0.9667906011,
				"y": -3.0293084651,
				"z": -0.1815558234,
				"element": "H" 
			},
			{
				"x": -3.1886542791,
				"y": -3.3476274976,
				"z": -1.1972872669,
				"element": "H" 
			},
			{
				"x": -4.7981715762,
				"y": -1.480467238,
				"z": -1.3798131767,
				"element": "H" 
			},
			{
				"x": -4.2065381477,
				"y": 0.7963610718,
				"z": -0.5311474442,
				"element": "H" 
			},
			{
				"x": 2.8927658998,
				"y": -0.4734254277,
				"z": 2.1099721101,
				"element": "H" 
			}
		],
		 "valence_orbital": [ 
			{
				"type": "occ",
				"energy": -0.31705,
				"method": "rhf"
			},
			{
				"type": "occ",
				"energy": -0.28724,
				"method": "rhf"
			},
			{
				"type": "occ",
				"energy": -0.27249,
				"method": "rhf"
			},
			{
				"type": "occ",
				"energy": -0.24823,
				"method": "rhf"
			},
			{
				"type": "occ",
				"energy": -0.21915,
				"method": "rhf"
			},
			{
				"type": "unocc",
				"energy": -0.08081,
				"method": "rhf"
			},
			{
				"type": "unocc",
				"energy": -0.03333,
				"method": "rhf"
			},
			{
				"type": "unocc",
				"energy": -0.00594,
				"method": "rhf"
			},
			{
				"type": "unocc",
				"energy": -0.00413,
				"method": "rhf"
			},
			{
				"type": "unocc",
				"energy": 0.02369,
				"method": "rhf"
			}
		],
		"cosmo_sigma_profile": { 
			"-0.025": 0.0,
			"-0.024": 0.0,
			"-0.023": 0.0,
			"-0.022": 0.0,
			"-0.021": 0.0,
			"-0.02": 0.0,
			"-0.019": 0.0,
			"-0.018": 0.0,
			"-0.017": 0.0,
			"-0.016": 0.0,
			"-0.015": 0.0,
			"-0.014": 0.0,
			"-0.013": 0.0,
			"-0.012": 0.0,
			"-0.011": 0.0,
			"-0.01": 0.0320221481816,
			"-0.009": 1.39057446719,
			"-0.008": 1.91138646879,
			"-0.007": 4.13391424289,
			"-0.006": 14.5580881488,
			"-0.005": 19.496363831,
			"-0.004": 25.3538795431,
			"-0.003": 25.8938285411,
			"-0.002": 30.1496130069,
			"-0.001": 22.0864697352,
			"0.0": 14.9925024551,
			"0.001": 14.8909831703,
			"0.002": 15.4309796956,
			"0.003": 14.0399600578,
			"0.004": 12.1446844768,
			"0.005": 8.88716026778,
			"0.006": 3.90320304747,
			"0.007": 4.54636782708,
			"0.008": 5.56397520866,
			"0.009": 4.62816754375,
			"0.01": 4.62851612942,
			"0.011": 3.69168892516,
			"0.012": 2.98808435396,
			"0.013": 2.3709589041,
			"0.014": 0.789050267734,
			"0.015": 0.799855508403,
			"0.016": 0.116287967946,
			"0.017": 0.0,
			"0.018": 0.0,
			"0.019": 0.0,
			"0.02": 0.0,
			"0.021": 0.0,
			"0.022": 0.0,
			"0.023": 0.0,
			"0.024": 0.0,
			"0.025": 0.0
		}
	}
}
