{
	 "smiles": "O=CC1=CC=CC=C1OC1CCOCC1", 
	 "Tm": 341.65, 
	 "num_atms": 29, 
	 "gaussian": { 
		 "optdone": 1, 
		 "sigma_profile": "yes", 
		 "theory": "DFT", 
		 "functional": "B3LYP", 
		 "basiset": "6-31G**", 
		 "properties": { 
			 "R2extent": 4344.4858, 
			 "electric_dipole_moment_norm": 4.45849118088, 
			 "electric_quadrupole_moment_norm": 15.0026814713, 
			 "total_energy": -691.353216211, 
			 "HOMO_LUMO_gap": 0.1757, 
			 "cosmo_polarized_energy": -12.23, 
			 "cosmo_cavitation_energy": 31.41, 
			 "cosmo_dispersion_energy": -22.68, 
			 "cosmo_repulsion_energy": 1.77, 
			 "cosmo_total_nonelectrostatic_energy": 10.5, 
			 "SMD_solvation_energy": 6.11 
		},
		"coords": [
			{
				"x": 1.4026711369,
				"y": 3.447492868,
				"z": 3.5041185915,
				"element": "O" 
			},
			{
				"x": 1.1571016685,
				"y": 2.7683257658,
				"z": 2.5206742837,
				"element": "C" 
			},
			{
				"x": 0.000035894,
				"y": 1.849201162,
				"z": 2.4303330968,
				"element": "C" 
			},
			{
				"x": -0.8677522328,
				"y": 1.7418570787,
				"z": 3.5259585564,
				"element": "C" 
			},
			{
				"x": -1.9689150117,
				"y": 0.8948888385,
				"z": 3.4924069726,
				"element": "C" 
			},
			{
				"x": -2.2055698145,
				"y": 0.139360529,
				"z": 2.340768181,
				"element": "C" 
			},
			{
				"x": -1.3588732094,
				"y": 0.2230042049,
				"z": 1.2348861436,
				"element": "C" 
			},
			{
				"x": -0.2503083416,
				"y": 1.0809569459,
				"z": 1.2677759062,
				"element": "C" 
			},
			{
				"x": 0.6208001092,
				"y": 1.2517443062,
				"z": 0.2354868376,
				"element": "O" 
			},
			{
				"x": 0.4833012977,
				"y": 0.4982982732,
				"z": -0.9848076311,
				"element": "C" 
			},
			{
				"x": 1.3172106994,
				"y": 1.2366678458,
				"z": -2.0465724316,
				"element": "C" 
			},
			{
				"x": 2.7421509742,
				"y": 0.6920977893,
				"z": -2.10585908,
				"element": "C" 
			},
			{
				"x": 2.7790127146,
				"y": -0.6840562369,
				"z": -2.4885986781,
				"element": "O" 
			},
			{
				"x": 1.6482786891,
				"y": -1.4555935222,
				"z": -2.0925708084,
				"element": "C" 
			},
			{
				"x": 1.0013728836,
				"y": -0.9457871207,
				"z": -0.8036205493,
				"element": "C" 
			},
			{
				"x": 1.8073759516,
				"y": 2.8092622592,
				"z": 1.6275182526,
				"element": "H" 
			},
			{
				"x": -0.6410997648,
				"y": 2.3482577269,
				"z": 4.3974516804,
				"element": "H" 
			},
			{
				"x": -2.6340999998,
				"y": 0.8183378927,
				"z": 4.3463923115,
				"element": "H" 
			},
			{
				"x": -3.0601061139,
				"y": -0.5303089939,
				"z": 2.2969613758,
				"element": "H" 
			},
			{
				"x": -1.5686687388,
				"y": -0.3803553295,
				"z": 0.3606722499,
				"element": "H" 
			},
			{
				"x": -0.5713900698,
				"y": 0.5070927371,
				"z": -1.2851818974,
				"element": "H" 
			},
			{
				"x": 1.3181109587,
				"y": 2.3069407667,
				"z": -1.8196965411,
				"element": "H" 
			},
			{
				"x": 0.8450357377,
				"y": 1.1108304663,
				"z": -3.0273289716,
				"element": "H" 
			},
			{
				"x": 3.3372660199,
				"y": 1.2335326286,
				"z": -2.8479943752,
				"element": "H" 
			},
			{
				"x": 3.2307150066,
				"y": 0.8281112069,
				"z": -1.1285350279,
				"element": "H" 
			},
			{
				"x": 0.8995377024,
				"y": -1.4756056317,
				"z": -2.9025558282,
				"element": "H" 
			},
			{
				"x": 2.0045127912,
				"y": -2.4823576375,
				"z": -1.9599780652,
				"element": "H" 
			},
			{
				"x": 0.2051192374,
				"y": -1.6278220918,
				"z": -0.4902755193,
				"element": "H" 
			},
			{
				"x": 1.751973824,
				"y": -0.9392747277,
				"z": -0.0055290353,
				"element": "H" 
			}
		],
		 "valence_orbital": [ 
			{
				"type": "occ",
				"energy": -0.301,
				"method": "rhf"
			},
			{
				"type": "occ",
				"energy": -0.26148,
				"method": "rhf"
			},
			{
				"type": "occ",
				"energy": -0.25103,
				"method": "rhf"
			},
			{
				"type": "occ",
				"energy": -0.2442,
				"method": "rhf"
			},
			{
				"type": "occ",
				"energy": -0.2333,
				"method": "rhf"
			},
			{
				"type": "unocc",
				"energy": -0.0576,
				"method": "rhf"
			},
			{
				"type": "unocc",
				"energy": -0.00147,
				"method": "rhf"
			},
			{
				"type": "unocc",
				"energy": 0.04155,
				"method": "rhf"
			},
			{
				"type": "unocc",
				"energy": 0.06429,
				"method": "rhf"
			},
			{
				"type": "unocc",
				"energy": 0.08495,
				"method": "rhf"
			}
		],
		"cosmo_sigma_profile": { 
			"-0.025": 0.0,
			"-0.024": 0.0,
			"-0.023": 0.0,
			"-0.022": 0.0,
			"-0.021": 0.0,
			"-0.02": 0.0,
			"-0.019": 0.0,
			"-0.018": 0.0,
			"-0.017": 0.0,
			"-0.016": 0.0,
			"-0.015": 0.0,
			"-0.014": 0.0,
			"-0.013": 0.0,
			"-0.012": 0.0,
			"-0.011": 0.0,
			"-0.01": 0.0,
			"-0.009": 0.113106542136,
			"-0.008": 1.58298589209,
			"-0.007": 3.83326502221,
			"-0.006": 9.49346056534,
			"-0.005": 20.4219742641,
			"-0.004": 26.9607244813,
			"-0.003": 29.5042850672,
			"-0.002": 27.4427485819,
			"-0.001": 19.5515843303,
			"0.0": 14.4066691277,
			"0.001": 15.781259258,
			"0.002": 14.7187273848,
			"0.003": 16.2255893187,
			"0.004": 13.5760008742,
			"0.005": 4.41902357288,
			"0.006": 2.90037314952,
			"0.007": 2.35001103043,
			"0.008": 3.60126002991,
			"0.009": 3.05216326017,
			"0.01": 2.63493597602,
			"0.011": 5.19354676986,
			"0.012": 5.20215441081,
			"0.013": 3.30602352599,
			"0.014": 1.61442170726,
			"0.015": 0.0535092942042,
			"0.016": 0.0,
			"0.017": 0.0,
			"0.018": 0.0,
			"0.019": 0.0,
			"0.02": 0.0,
			"0.021": 0.0,
			"0.022": 0.0,
			"0.023": 0.0,
			"0.024": 0.0,
			"0.025": 0.0
		}
	}
}
