{
	 "smiles": "CC(C)CN1CCCC(C1)C(O)=O", 
	 "Tm": 382.15, 
	 "num_atms": 32, 
	 "gaussian": { 
		 "optdone": 1, 
		 "sigma_profile": "yes", 
		 "theory": "DFT", 
		 "functional": "B3LYP", 
		 "basiset": "6-31G**", 
		 "properties": { 
			 "R2extent": 3667.5838, 
			 "electric_dipole_moment_norm": 1.85678952496, 
			 "electric_quadrupole_moment_norm": 8.11919580254, 
			 "total_energy": -597.729061128, 
			 "HOMO_LUMO_gap": 0.20317, 
			 "cosmo_polarized_energy": -8.97, 
			 "cosmo_cavitation_energy": 32.0, 
			 "cosmo_dispersion_energy": -22.5, 
			 "cosmo_repulsion_energy": 1.8, 
			 "cosmo_total_nonelectrostatic_energy": 11.3, 
			 "SMD_solvation_energy": 4.75 
		},
		"coords": [
			{
				"x": 2.5864886558,
				"y": 0.5388057341,
				"z": -4.3127847391,
				"element": "C" 
			},
			{
				"x": 1.484359373,
				"y": 0.5339179976,
				"z": -3.2422348558,
				"element": "C" 
			},
			{
				"x": 0.1367028122,
				"y": 0.1221822483,
				"z": -3.8508487432,
				"element": "C" 
			},
			{
				"x": 1.9357377404,
				"y": -0.3532070824,
				"z": -2.0526106669,
				"element": "C" 
			},
			{
				"x": 1.093592517,
				"y": -0.4362196977,
				"z": -0.8686319592,
				"element": "N" 
			},
			{
				"x": 0.0635327985,
				"y": -1.4745149936,
				"z": -0.8365307208,
				"element": "C" 
			},
			{
				"x": -0.7861424371,
				"y": -1.3505563509,
				"z": 0.4433225252,
				"element": "C" 
			},
			{
				"x": 0.0618050447,
				"y": -0.8491181706,
				"z": 1.6156585348,
				"element": "C" 
			},
			{
				"x": 0.5981713613,
				"y": 0.5690898306,
				"z": 1.3274014221,
				"element": "C" 
			},
			{
				"x": 0.7407142714,
				"y": 0.8049491456,
				"z": -0.2089233518,
				"element": "C" 
			},
			{
				"x": 1.913994229,
				"y": 0.8139787777,
				"z": 2.0475439804,
				"element": "C" 
			},
			{
				"x": 2.3196758963,
				"y": 2.105728808,
				"z": 1.9150939498,
				"element": "O" 
			},
			{
				"x": 2.5571734975,
				"y": 0.005767593,
				"z": 2.6805414996,
				"element": "O" 
			},
			{
				"x": 2.7286639128,
				"y": -0.4643439999,
				"z": -4.7339352335,
				"element": "H" 
			},
			{
				"x": 3.5480989636,
				"y": 0.8641505639,
				"z": -3.9004924113,
				"element": "H" 
			},
			{
				"x": 2.3326336747,
				"y": 1.2105366086,
				"z": -5.1395474337,
				"element": "H" 
			},
			{
				"x": 1.3818288149,
				"y": 1.562794002,
				"z": -2.8668919894,
				"element": "H" 
			},
			{
				"x": -0.6826784624,
				"y": 0.2183702549,
				"z": -3.1331058668,
				"element": "H" 
			},
			{
				"x": -0.1071608314,
				"y": 0.7518060771,
				"z": -4.7141670496,
				"element": "H" 
			},
			{
				"x": 0.1599530734,
				"y": -0.9182201207,
				"z": -4.1979791923,
				"element": "H" 
			},
			{
				"x": 2.9260824621,
				"y": 0.0099000658,
				"z": -1.7377952209,
				"element": "H" 
			},
			{
				"x": 2.0892703544,
				"y": -1.3791250415,
				"z": -2.4149198991,
				"element": "H" 
			},
			{
				"x": -0.6065593486,
				"y": -1.4583619794,
				"z": -1.7128059549,
				"element": "H" 
			},
			{
				"x": 0.5704541604,
				"y": -2.4501235989,
				"z": -0.8490552143,
				"element": "H" 
			},
			{
				"x": -1.2336461158,
				"y": -2.3226428612,
				"z": 0.6756473098,
				"element": "H" 
			},
			{
				"x": -1.6235306254,
				"y": -0.6615758002,
				"z": 0.272351025,
				"element": "H" 
			},
			{
				"x": -0.5170432858,
				"y": -0.8498891522,
				"z": 2.5452468803,
				"element": "H" 
			},
			{
				"x": 0.9119550829,
				"y": -1.5182159001,
				"z": 1.774785888,
				"element": "H" 
			},
			{
				"x": -0.0954259116,
				"y": 1.3301578219,
				"z": 1.7084551609,
				"element": "H" 
			},
			{
				"x": 1.5246670683,
				"y": 1.5432504631,
				"z": -0.3968324818,
				"element": "H" 
			},
			{
				"x": -0.1981182934,
				"y": 1.2520673915,
				"z": -0.5846686911,
				"element": "H" 
			},
			{
				"x": 3.1624495471,
				"y": 2.1696613654,
				"z": 2.3945134995,
				"element": "H" 
			}
		],
		 "valence_orbital": [ 
			{
				"type": "occ",
				"energy": -0.31753,
				"method": "rhf"
			},
			{
				"type": "occ",
				"energy": -0.31244,
				"method": "rhf"
			},
			{
				"type": "occ",
				"energy": -0.31073,
				"method": "rhf"
			},
			{
				"type": "occ",
				"energy": -0.26857,
				"method": "rhf"
			},
			{
				"type": "occ",
				"energy": -0.19202,
				"method": "rhf"
			},
			{
				"type": "unocc",
				"energy": 0.01115,
				"method": "rhf"
			},
			{
				"type": "unocc",
				"energy": 0.07181,
				"method": "rhf"
			},
			{
				"type": "unocc",
				"energy": 0.08196,
				"method": "rhf"
			},
			{
				"type": "unocc",
				"energy": 0.09947,
				"method": "rhf"
			},
			{
				"type": "unocc",
				"energy": 0.11411,
				"method": "rhf"
			}
		],
		"cosmo_sigma_profile": { 
			"-0.025": 0.0,
			"-0.024": 0.0,
			"-0.023": 0.0,
			"-0.022": 0.0,
			"-0.021": 0.0,
			"-0.02": 0.0,
			"-0.019": 0.0,
			"-0.018": 0.451286297242,
			"-0.017": 1.0406932432,
			"-0.016": 0.664541685936,
			"-0.015": 0.527289761727,
			"-0.014": 0.985997333707,
			"-0.013": 0.825170647378,
			"-0.012": 0.419123064642,
			"-0.011": 0.617146776633,
			"-0.01": 0.817970084633,
			"-0.009": 0.600285476062,
			"-0.008": 0.497524817904,
			"-0.007": 0.735351989582,
			"-0.006": 1.27664119571,
			"-0.005": 4.09283288813,
			"-0.004": 4.78289089708,
			"-0.003": 21.3637384758,
			"-0.002": 46.4516656807,
			"-0.001": 44.2725713477,
			"0.0": 37.0517283918,
			"0.001": 25.7169033871,
			"0.002": 13.8831630089,
			"0.003": 4.44671717963,
			"0.004": 3.49353261856,
			"0.005": 3.78162139539,
			"0.006": 3.85935441485,
			"0.007": 3.3277141226,
			"0.008": 3.65366445157,
			"0.009": 4.31772593308,
			"0.01": 2.9155056096,
			"0.011": 3.71401679218,
			"0.012": 5.14890272125,
			"0.013": 0.455333846775,
			"0.014": 0.0,
			"0.015": 0.0,
			"0.016": 0.0,
			"0.017": 0.0,
			"0.018": 0.0,
			"0.019": 0.0,
			"0.02": 0.0,
			"0.021": 0.0,
			"0.022": 0.0,
			"0.023": 0.0,
			"0.024": 0.0,
			"0.025": 0.0
		}
	}
}
