{
	 "smiles": "NC1=NC=C(I)C=C1", 
	 "Tm": 401.15, 
	 "num_atms": 13, 
	 "gaussian": { 
		 "optdone": 1, 
		 "sigma_profile": "no", 
		 "theory": "DFT", 
		 "functional": "B3LYP", 
		 "basiset": "6-31G**", 
		 "properties": { 
			 "R2extent": 1780.1742, 
			 "electric_dipole_moment_norm": 3.2512412199, 
			 "electric_quadrupole_moment_norm": 4.49441945417, 
			 "total_energy": -314.437231867, 
			 "HOMO_LUMO_gap": 0.17986, 
			 "cosmo_polarized_energy": -100412.51, 
			 "cosmo_cavitation_energy": 20.38, 
			 "cosmo_dispersion_energy": -16.87, 
			 "cosmo_repulsion_energy": 1.37, 
			 "cosmo_total_nonelectrostatic_energy": 4.87, 
			 "SMD_solvation_energy": 1.3 
		},
		"coords": [
			{
				"x": 1.6198617955,
				"y": -1.1122175826,
				"z": 0.1975848252,
				"element": "N" 
			},
			{
				"x": 1.292241394,
				"y": 0.0552388488,
				"z": -0.4586696889,
				"element": "C" 
			},
			{
				"x": 2.180275407,
				"y": 1.0576045393,
				"z": -0.3642098992,
				"element": "N" 
			},
			{
				"x": 1.9351295522,
				"y": 2.1929344468,
				"z": -1.0246455312,
				"element": "C" 
			},
			{
				"x": 0.7945017327,
				"y": 2.3899708052,
				"z": -1.8012405526,
				"element": "C" 
			},
			{
				"x": 0.4843595937,
				"y": 4.2274237062,
				"z": -2.8022573628,
				"element": "I" 
			},
			{
				"x": -0.1374050738,
				"y": 1.3500838243,
				"z": -1.8966991949,
				"element": "C" 
			},
			{
				"x": 0.1101934738,
				"y": 0.1650561081,
				"z": -1.2216408228,
				"element": "C" 
			},
			{
				"x": 0.8694146186,
				"y": -1.7338862315,
				"z": 0.4568493292,
				"element": "H" 
			},
			{
				"x": 2.3580659831,
				"y": -1.0153357368,
				"z": 0.8800489453,
				"element": "H" 
			},
			{
				"x": 2.6804492515,
				"y": 2.978123513,
				"z": -0.9231408506,
				"element": "H" 
			},
			{
				"x": -1.0389083975,
				"y": 1.463151931,
				"z": -2.4893016916,
				"element": "H" 
			},
			{
				"x": -0.5883793308,
				"y": -0.6640481719,
				"z": -1.283777505,
				"element": "H" 
			}
		],
		 "valence_orbital": [ 
			{
				"type": "occ",
				"energy": -0.29225,
				"method": "rhf"
			},
			{
				"type": "occ",
				"energy": -0.27272,
				"method": "rhf"
			},
			{
				"type": "occ",
				"energy": -0.27097,
				"method": "rhf"
			},
			{
				"type": "occ",
				"energy": -0.26154,
				"method": "rhf"
			},
			{
				"type": "occ",
				"energy": -0.21541,
				"method": "rhf"
			},
			{
				"type": "unocc",
				"energy": -0.03555,
				"method": "rhf"
			},
			{
				"type": "unocc",
				"energy": -0.02707,
				"method": "rhf"
			},
			{
				"type": "unocc",
				"energy": -0.00516,
				"method": "rhf"
			},
			{
				"type": "unocc",
				"energy": 0.04492,
				"method": "rhf"
			},
			{
				"type": "unocc",
				"energy": 0.05223,
				"method": "rhf"
			}
		],
		"cosmo_sigma_profile": { 
			"0.0": 0.0,
			"0.0": 0.0,
			"0.0": 0.0,
			"0.0": 0.0,
			"0.0": 0.0,
			"0.0": 0.0,
			"0.0": 0.0,
			"0.0": 0.0,
			"0.0": 0.0,
			"0.0": 0.0,
			"0.0": 0.0,
			"0.0": 0.0,
			"0.0": 0.0,
			"0.0": 0.0,
			"0.0": 0.0,
			"0.0": 0.0,
			"0.0": 0.0,
			"0.0": 0.0,
			"0.0": 0.0,
			"0.0": 0.0,
			"0.0": 0.0,
			"0.0": 0.0,
			"0.0": 0.0,
			"0.0": 0.0,
			"0.0": 0.0,
			"0.0": 0.0,
			"0.0": 0.0,
			"0.0": 0.0,
			"0.0": 0.0,
			"0.0": 0.0,
			"0.0": 0.0,
			"0.0": 0.0,
			"0.0": 0.0,
			"0.0": 0.0,
			"0.0": 0.0,
			"0.0": 0.0,
			"0.0": 0.0,
			"0.0": 0.0,
			"0.0": 0.0,
			"0.0": 0.0,
			"0.0": 0.0,
			"0.0": 0.0,
			"0.0": 0.0,
			"0.0": 0.0,
			"0.0": 0.0,
			"0.0": 0.0,
			"0.0": 0.0,
			"0.0": 0.0,
			"0.0": 0.0,
			"0.0": 0.0,
			"0.0": 0.0
		}
	}
}
