{
	 "smiles": "COC1=CC=C2CC(=O)CCC2=C1", 
	 "Tm": 308.15, 
	 "num_atms": 25, 
	 "gaussian": { 
		 "optdone": 1, 
		 "sigma_profile": "yes", 
		 "theory": "DFT", 
		 "functional": "B3LYP", 
		 "basiset": "6-31G**", 
		 "properties": { 
			 "R2extent": 3142.2589, 
			 "electric_dipole_moment_norm": 3.34808436274, 
			 "electric_quadrupole_moment_norm": 12.4903979116, 
			 "total_energy": -576.846765231, 
			 "HOMO_LUMO_gap": 0.19872, 
			 "cosmo_polarized_energy": -10.26, 
			 "cosmo_cavitation_energy": 27.69, 
			 "cosmo_dispersion_energy": -20.58, 
			 "cosmo_repulsion_energy": 1.63, 
			 "cosmo_total_nonelectrostatic_energy": 8.74, 
			 "SMD_solvation_energy": 5.51 
		},
		"coords": [
			{
				"x": -4.2813689592,
				"y": -0.5551786259,
				"z": 0.2592740785,
				"element": "C" 
			},
			{
				"x": -2.9956986909,
				"y": -1.1429923431,
				"z": 0.3713663978,
				"element": "O" 
			},
			{
				"x": -1.929023834,
				"y": -0.3216263045,
				"z": 0.6025796547,
				"element": "C" 
			},
			{
				"x": -2.0073745851,
				"y": 1.0683402827,
				"z": 0.7377067374,
				"element": "C" 
			},
			{
				"x": -0.838022065,
				"y": 1.7996850379,
				"z": 0.9687603585,
				"element": "C" 
			},
			{
				"x": 0.403350738,
				"y": 1.1755887338,
				"z": 1.0749335563,
				"element": "C" 
			},
			{
				"x": 1.6729643814,
				"y": 1.9468779783,
				"z": 1.3568459572,
				"element": "C" 
			},
			{
				"x": 2.9019043938,
				"y": 1.4182335017,
				"z": 0.6132102986,
				"element": "C" 
			},
			{
				"x": 3.8478705858,
				"y": 2.1362340278,
				"z": 0.3570825205,
				"element": "O" 
			},
			{
				"x": 2.8776126772,
				"y": -0.0580484555,
				"z": 0.2271826758,
				"element": "C" 
			},
			{
				"x": 1.8388289973,
				"y": -0.8752026209,
				"z": 1.0148197476,
				"element": "C" 
			},
			{
				"x": 0.4750544418,
				"y": -0.2250843364,
				"z": 0.9314151059,
				"element": "C" 
			},
			{
				"x": -0.6825885493,
				"y": -0.9588086639,
				"z": 0.6939914171,
				"element": "C" 
			},
			{
				"x": -4.3337293889,
				"y": 0.1500543101,
				"z": -0.5804809717,
				"element": "H" 
			},
			{
				"x": -4.9750845252,
				"y": -1.3780023585,
				"z": 0.0793355969,
				"element": "H" 
			},
			{
				"x": -4.5716987143,
				"y": -0.0345847154,
				"z": 1.1812103298,
				"element": "H" 
			},
			{
				"x": -2.9549455807,
				"y": 1.5876661378,
				"z": 0.6596843155,
				"element": "H" 
			},
			{
				"x": -0.9038682347,
				"y": 2.8805660661,
				"z": 1.0675125273,
				"element": "H" 
			},
			{
				"x": 1.5727991753,
				"y": 3.0143699671,
				"z": 1.14231826,
				"element": "H" 
			},
			{
				"x": 1.9289115077,
				"y": 1.874533424,
				"z": 2.427904807,
				"element": "H" 
			},
			{
				"x": 3.8918292496,
				"y": -0.454593896,
				"z": 0.3333339315,
				"element": "H" 
			},
			{
				"x": 2.6356047444,
				"y": -0.0955971217,
				"z": -0.8440714189,
				"element": "H" 
			},
			{
				"x": 1.8002371814,
				"y": -1.9023427752,
				"z": 0.6393072509,
				"element": "H" 
			},
			{
				"x": 2.1551540984,
				"y": -0.9428741522,
				"z": 2.0661558174,
				"element": "H" 
			},
			{
				"x": -0.6454190448,
				"y": -2.0372130981,
				"z": 0.5704210483,
				"element": "H" 
			}
		],
		 "valence_orbital": [ 
			{
				"type": "occ",
				"energy": -0.32244,
				"method": "rhf"
			},
			{
				"type": "occ",
				"energy": -0.31213,
				"method": "rhf"
			},
			{
				"type": "occ",
				"energy": -0.24723,
				"method": "rhf"
			},
			{
				"type": "occ",
				"energy": -0.24237,
				"method": "rhf"
			},
			{
				"type": "occ",
				"energy": -0.21362,
				"method": "rhf"
			},
			{
				"type": "unocc",
				"energy": -0.0149,
				"method": "rhf"
			},
			{
				"type": "unocc",
				"energy": -0.00121,
				"method": "rhf"
			},
			{
				"type": "unocc",
				"energy": 0.01057,
				"method": "rhf"
			},
			{
				"type": "unocc",
				"energy": 0.08985,
				"method": "rhf"
			},
			{
				"type": "unocc",
				"energy": 0.09667,
				"method": "rhf"
			}
		],
		"cosmo_sigma_profile": { 
			"-0.025": 0.0,
			"-0.024": 0.0,
			"-0.023": 0.0,
			"-0.022": 0.0,
			"-0.021": 0.0,
			"-0.02": 0.0,
			"-0.019": 0.0,
			"-0.018": 0.0,
			"-0.017": 0.0,
			"-0.016": 0.0,
			"-0.015": 0.0,
			"-0.014": 0.0,
			"-0.013": 0.0,
			"-0.012": 0.0,
			"-0.011": 0.0,
			"-0.01": 0.0,
			"-0.009": 0.0,
			"-0.008": 0.00256808148204,
			"-0.007": 2.07230779827,
			"-0.006": 11.5305456974,
			"-0.005": 25.5843576789,
			"-0.004": 28.1269524121,
			"-0.003": 24.947048498,
			"-0.002": 21.3933277717,
			"-0.001": 14.393257617,
			"0.0": 9.61830891555,
			"0.001": 8.62765498634,
			"0.002": 7.75259303879,
			"0.003": 9.0464468566,
			"0.004": 10.1210178475,
			"0.005": 12.2763457957,
			"0.006": 9.34402712209,
			"0.007": 2.18611465821,
			"0.008": 3.11609782402,
			"0.009": 3.24541256479,
			"0.01": 3.36245099787,
			"0.011": 3.74063165225,
			"0.012": 4.58484386172,
			"0.013": 3.11006060628,
			"0.014": 0.399915401539,
			"0.015": 0.0,
			"0.016": 0.0,
			"0.017": 0.0,
			"0.018": 0.0,
			"0.019": 0.0,
			"0.02": 0.0,
			"0.021": 0.0,
			"0.022": 0.0,
			"0.023": 0.0,
			"0.024": 0.0,
			"0.025": 0.0
		}
	}
}
