{
	 "smiles": "CNC1=CC(C)=C(C=C1)[N+]([O-])=O", 
	 "Tm": 364.15, 
	 "num_atms": 22, 
	 "gaussian": { 
		 "optdone": 1, 
		 "sigma_profile": "yes", 
		 "theory": "DFT", 
		 "functional": "B3LYP", 
		 "basiset": "6-31G**", 
		 "properties": { 
			 "R2extent": 2666.7074, 
			 "electric_dipole_moment_norm": 7.50585551686, 
			 "electric_quadrupole_moment_norm": 15.8477150126, 
			 "total_energy": -570.737318885, 
			 "HOMO_LUMO_gap": 0.15245, 
			 "cosmo_polarized_energy": -13.94, 
			 "cosmo_cavitation_energy": 25.72, 
			 "cosmo_dispersion_energy": -19.09, 
			 "cosmo_repulsion_energy": 1.51, 
			 "cosmo_total_nonelectrostatic_energy": 8.15, 
			 "SMD_solvation_energy": 6.01 
		},
		"coords": [
			{
				"x": -0.596736542,
				"y": 2.6270227925,
				"z": 2.1046851016,
				"element": "C" 
			},
			{
				"x": 0.2749795925,
				"y": 1.4760061607,
				"z": 2.215780436,
				"element": "N" 
			},
			{
				"x": 0.20738324,
				"y": 0.3734358954,
				"z": 1.4052580153,
				"element": "C" 
			},
			{
				"x": -0.6463509846,
				"y": 0.3241302734,
				"z": 0.2845753082,
				"element": "C" 
			},
			{
				"x": -0.7163659411,
				"y": -0.7813751165,
				"z": -0.5668032587,
				"element": "C" 
			},
			{
				"x": -1.6699469158,
				"y": -0.7123620579,
				"z": -1.7353822655,
				"element": "C" 
			},
			{
				"x": 0.1144825328,
				"y": -1.8834145004,
				"z": -0.2611016111,
				"element": "C" 
			},
			{
				"x": 0.9682764595,
				"y": -1.8539977997,
				"z": 0.8528774074,
				"element": "C" 
			},
			{
				"x": 1.0210641632,
				"y": -0.7508833077,
				"z": 1.6766197205,
				"element": "C" 
			},
			{
				"x": 0.1379201303,
				"y": -3.0977276745,
				"z": -1.0642414398,
				"element": "N" 
			},
			{
				"x": -0.5934207784,
				"y": -3.169586902,
				"z": -2.0584724774,
				"element": "O" 
			},
			{
				"x": 0.8945783377,
				"y": -4.0101306452,
				"z": -0.7133021601,
				"element": "O" 
			},
			{
				"x": -0.4719836535,
				"y": 3.128472116,
				"z": 1.137487524,
				"element": "H" 
			},
			{
				"x": -0.3346568086,
				"y": 3.3419468454,
				"z": 2.8867574643,
				"element": "H" 
			},
			{
				"x": -1.6579171627,
				"y": 2.3643602941,
				"z": 2.2195968979,
				"element": "H" 
			},
			{
				"x": 0.8129148799,
				"y": 1.3821417744,
				"z": 3.0622886964,
				"element": "H" 
			},
			{
				"x": -1.2810324174,
				"y": 1.1744906267,
				"z": 0.0627478561,
				"element": "H" 
			},
			{
				"x": -1.1457306403,
				"y": -0.8314508099,
				"z": -2.6865701621,
				"element": "H" 
			},
			{
				"x": -2.4082916891,
				"y": -1.5167704912,
				"z": -1.6980239155,
				"element": "H" 
			},
			{
				"x": -2.1895919652,
				"y": 0.2496907926,
				"z": -1.7325956027,
				"element": "H" 
			},
			{
				"x": 1.5835822841,
				"y": -2.7233282672,
				"z": 1.0454873812,
				"element": "H" 
			},
			{
				"x": 1.6892438789,
				"y": -0.741469999,
				"z": 2.5336310839,
				"element": "H" 
			}
		],
		 "valence_orbital": [ 
			{
				"type": "occ",
				"energy": -0.28559,
				"method": "rhf"
			},
			{
				"type": "occ",
				"energy": -0.28516,
				"method": "rhf"
			},
			{
				"type": "occ",
				"energy": -0.26485,
				"method": "rhf"
			},
			{
				"type": "occ",
				"energy": -0.25955,
				"method": "rhf"
			},
			{
				"type": "occ",
				"energy": -0.2169,
				"method": "rhf"
			},
			{
				"type": "unocc",
				"energy": -0.06445,
				"method": "rhf"
			},
			{
				"type": "unocc",
				"energy": -0.0111,
				"method": "rhf"
			},
			{
				"type": "unocc",
				"energy": 0.02477,
				"method": "rhf"
			},
			{
				"type": "unocc",
				"energy": 0.06152,
				"method": "rhf"
			},
			{
				"type": "unocc",
				"energy": 0.08848,
				"method": "rhf"
			}
		],
		"cosmo_sigma_profile": { 
			"-0.025": 0.0,
			"-0.024": 0.0,
			"-0.023": 0.0,
			"-0.022": 0.0,
			"-0.021": 0.0,
			"-0.02": 0.0,
			"-0.019": 0.0,
			"-0.018": 0.0,
			"-0.017": 0.0,
			"-0.016": 0.0,
			"-0.015": 0.108726689029,
			"-0.014": 1.09255039618,
			"-0.013": 1.87564282872,
			"-0.012": 1.2176746187,
			"-0.011": 1.01497790542,
			"-0.01": 1.87778341016,
			"-0.009": 1.96842186268,
			"-0.008": 1.72322328355,
			"-0.007": 3.23781989709,
			"-0.006": 7.59359559685,
			"-0.005": 12.1163676612,
			"-0.004": 16.1991732907,
			"-0.003": 16.9610205952,
			"-0.002": 19.5064279622,
			"-0.001": 15.6764535875,
			"0.0": 16.2895544654,
			"0.001": 13.6754354107,
			"0.002": 12.8841977475,
			"0.003": 14.6712618159,
			"0.004": 10.4352335093,
			"0.005": 3.24180299523,
			"0.006": 3.49045415309,
			"0.007": 3.43780294247,
			"0.008": 4.14928836477,
			"0.009": 7.75725027155,
			"0.01": 4.86807604989,
			"0.011": 4.41470652937,
			"0.012": 2.29388290077,
			"0.013": 0.00617677888424,
			"0.014": 0.0,
			"0.015": 0.0,
			"0.016": 0.0,
			"0.017": 0.0,
			"0.018": 0.0,
			"0.019": 0.0,
			"0.02": 0.0,
			"0.021": 0.0,
			"0.022": 0.0,
			"0.023": 0.0,
			"0.024": 0.0,
			"0.025": 0.0
		}
	}
}
