{
	 "smiles": "OC(=O)CC1=CSC=C1", 
	 "Tm": 352.15, 
	 "num_atms": 15, 
	 "gaussian": { 
		 "optdone": 1, 
		 "sigma_profile": "yes", 
		 "theory": "DFT", 
		 "functional": "B3LYP", 
		 "basiset": "6-31G**", 
		 "properties": { 
			 "R2extent": 2523.7043, 
			 "electric_dipole_moment_norm": 1.54610491559, 
			 "electric_quadrupole_moment_norm": 4.33286667115, 
			 "total_energy": -780.8879831, 
			 "HOMO_LUMO_gap": 0.22402, 
			 "cosmo_polarized_energy": -9.96, 
			 "cosmo_cavitation_energy": 21.13, 
			 "cosmo_dispersion_energy": -16.23, 
			 "cosmo_repulsion_energy": 1.3, 
			 "cosmo_total_nonelectrostatic_energy": 6.19, 
			 "SMD_solvation_energy": 5.04 
		},
		"coords": [
			{
				"x": 2.2052920326,
				"y": -1.1229832846,
				"z": -0.9768182794,
				"element": "O" 
			},
			{
				"x": 1.1326589028,
				"y": -1.8323065068,
				"z": -0.5511496367,
				"element": "C" 
			},
			{
				"x": 0.7857330985,
				"y": -2.8664586038,
				"z": -1.0762017358,
				"element": "O" 
			},
			{
				"x": 0.4948784515,
				"y": -1.1869360913,
				"z": 0.6687010416,
				"element": "C" 
			},
			{
				"x": -1.0023773167,
				"y": -1.3484536925,
				"z": 0.7459121777,
				"element": "C" 
			},
			{
				"x": -1.8617016548,
				"y": -0.2943629802,
				"z": 0.9141457744,
				"element": "C" 
			},
			{
				"x": -3.5139518483,
				"y": -0.8088608647,
				"z": 1.0122702101,
				"element": "S" 
			},
			{
				"x": -3.0482251888,
				"y": -2.470363447,
				"z": 0.822653872,
				"element": "C" 
			},
			{
				"x": -1.6958534717,
				"y": -2.6040786575,
				"z": 0.6927604856,
				"element": "C" 
			},
			{
				"x": 2.5790434148,
				"y": -1.621366607,
				"z": -1.7236810451,
				"element": "H" 
			},
			{
				"x": 0.9736203078,
				"y": -1.6628172345,
				"z": 1.5375638317,
				"element": "H" 
			},
			{
				"x": 0.7781335259,
				"y": -0.1326294657,
				"z": 0.7016905569,
				"element": "H" 
			},
			{
				"x": -1.6159683657,
				"y": 0.7562482372,
				"z": 0.9897735038,
				"element": "H" 
			},
			{
				"x": -3.8016455935,
				"y": -3.2455531981,
				"z": 0.8114125997,
				"element": "H" 
			},
			{
				"x": -1.1957362944,
				"y": -3.5517776036,
				"z": 0.5396666436,
				"element": "H" 
			}
		],
		 "valence_orbital": [ 
			{
				"type": "occ",
				"energy": -0.3399,
				"method": "rhf"
			},
			{
				"type": "occ",
				"energy": -0.32307,
				"method": "rhf"
			},
			{
				"type": "occ",
				"energy": -0.28161,
				"method": "rhf"
			},
			{
				"type": "occ",
				"energy": -0.24468,
				"method": "rhf"
			},
			{
				"type": "occ",
				"energy": -0.23205,
				"method": "rhf"
			},
			{
				"type": "unocc",
				"energy": -0.00803,
				"method": "rhf"
			},
			{
				"type": "unocc",
				"energy": 0.0046,
				"method": "rhf"
			},
			{
				"type": "unocc",
				"energy": 0.03493,
				"method": "rhf"
			},
			{
				"type": "unocc",
				"energy": 0.06173,
				"method": "rhf"
			},
			{
				"type": "unocc",
				"energy": 0.07739,
				"method": "rhf"
			}
		],
		"cosmo_sigma_profile": { 
			"-0.025": 0.0,
			"-0.024": 0.0,
			"-0.023": 0.0,
			"-0.022": 0.0,
			"-0.021": 0.0,
			"-0.02": 0.0,
			"-0.019": 0.0,
			"-0.018": 0.680686440434,
			"-0.017": 0.917274103816,
			"-0.016": 0.977793450805,
			"-0.015": 0.733907513186,
			"-0.014": 0.611056576286,
			"-0.013": 0.928647907246,
			"-0.012": 0.602494746722,
			"-0.011": 0.782346208881,
			"-0.01": 0.840079896198,
			"-0.009": 0.566721670936,
			"-0.008": 4.56212112127,
			"-0.007": 8.65027049799,
			"-0.006": 9.71270041571,
			"-0.005": 9.7378538357,
			"-0.004": 8.58842590687,
			"-0.003": 11.7716016991,
			"-0.002": 9.56095578877,
			"-0.001": 8.03157557511,
			"0.0": 9.32407940834,
			"0.001": 8.77314388397,
			"0.002": 11.0321883298,
			"0.003": 10.9894672,
			"0.004": 12.817915567,
			"0.005": 14.2718353464,
			"0.006": 5.78534427172,
			"0.007": 3.49724480809,
			"0.008": 3.46226061033,
			"0.009": 3.52669339771,
			"0.01": 2.86733813378,
			"0.011": 3.72990213794,
			"0.012": 2.31327484624,
			"0.013": 0.054948651619,
			"0.014": 0.0,
			"0.015": 0.0,
			"0.016": 0.0,
			"0.017": 0.0,
			"0.018": 0.0,
			"0.019": 0.0,
			"0.02": 0.0,
			"0.021": 0.0,
			"0.022": 0.0,
			"0.023": 0.0,
			"0.024": 0.0,
			"0.025": 0.0
		}
	}
}
