{
	 "smiles": "OC(=O)C1(CCCCC1)C1=CC(F)=CC=C1", 
	 "Tm": 409.15, 
	 "num_atms": 31, 
	 "gaussian": { 
		 "optdone": 1, 
		 "sigma_profile": "yes", 
		 "theory": "DFT", 
		 "functional": "B3LYP", 
		 "basiset": "6-31G**", 
		 "properties": { 
			 "R2extent": 3728.4753, 
			 "electric_dipole_moment_norm": 2.42673011684, 
			 "electric_quadrupole_moment_norm": 7.71951538181, 
			 "total_energy": -754.725844422, 
			 "HOMO_LUMO_gap": 0.22233, 
			 "cosmo_polarized_energy": -9.27, 
			 "cosmo_cavitation_energy": 32.14, 
			 "cosmo_dispersion_energy": -23.05, 
			 "cosmo_repulsion_energy": 1.76, 
			 "cosmo_total_nonelectrostatic_energy": 10.86, 
			 "SMD_solvation_energy": 6.19 
		},
		"coords": [
			{
				"x": 1.3029407517,
				"y": -2.3920940014,
				"z": -0.2413533946,
				"element": "O" 
			},
			{
				"x": 0.1531613163,
				"y": -1.6827264819,
				"z": -0.3862042865,
				"element": "C" 
			},
			{
				"x": -0.9311090823,
				"y": -2.2207914031,
				"z": -0.3270903955,
				"element": "O" 
			},
			{
				"x": 0.3679186739,
				"y": -0.1698187128,
				"z": -0.5780663144,
				"element": "C" 
			},
			{
				"x": -0.8020040383,
				"y": 0.3490063612,
				"z": -1.4433219516,
				"element": "C" 
			},
			{
				"x": -0.8543497093,
				"y": -0.3223158113,
				"z": -2.8374113848,
				"element": "C" 
			},
			{
				"x": 0.5438066291,
				"y": -0.7140208756,
				"z": -3.3664423838,
				"element": "C" 
			},
			{
				"x": 1.609433133,
				"y": 0.2485547071,
				"z": -2.8333447517,
				"element": "C" 
			},
			{
				"x": 1.7180638914,
				"y": 0.1845539756,
				"z": -1.2913342346,
				"element": "C" 
			},
			{
				"x": 0.381848927,
				"y": 0.4203196703,
				"z": 0.8494556333,
				"element": "C" 
			},
			{
				"x": -0.5632224862,
				"y": 1.3653097439,
				"z": 1.2657450292,
				"element": "C" 
			},
			{
				"x": -0.4881311978,
				"y": 1.8914452512,
				"z": 2.5511932151,
				"element": "C" 
			},
			{
				"x": -1.4106357822,
				"y": 2.8051677922,
				"z": 2.9241744153,
				"element": "F" 
			},
			{
				"x": 0.4919866892,
				"y": 1.5152652145,
				"z": 3.458403875,
				"element": "C" 
			},
			{
				"x": 1.4304219923,
				"y": 0.5689117574,
				"z": 3.043541428,
				"element": "C" 
			},
			{
				"x": 1.3794823997,
				"y": 0.0280177742,
				"z": 1.7596689967,
				"element": "C" 
			},
			{
				"x": 1.0237896503,
				"y": -3.3077588231,
				"z": -0.0702470488,
				"element": "H" 
			},
			{
				"x": -1.7515171803,
				"y": 0.1868478365,
				"z": -0.9283680854,
				"element": "H" 
			},
			{
				"x": -0.6711685748,
				"y": 1.4313366127,
				"z": -1.5562113185,
				"element": "H" 
			},
			{
				"x": -1.4944955052,
				"y": -1.2078659886,
				"z": -2.7914011765,
				"element": "H" 
			},
			{
				"x": -1.3316769589,
				"y": 0.3746165953,
				"z": -3.5358583527,
				"element": "H" 
			},
			{
				"x": 0.5436803414,
				"y": -0.725829078,
				"z": -4.4619012232,
				"element": "H" 
			},
			{
				"x": 0.7963426289,
				"y": -1.7356505621,
				"z": -3.0539816925,
				"element": "H" 
			},
			{
				"x": 2.5882372591,
				"y": 0.0324401126,
				"z": -3.2756579464,
				"element": "H" 
			},
			{
				"x": 1.3520676849,
				"y": 1.2689077975,
				"z": -3.1458348688,
				"element": "H" 
			},
			{
				"x": 2.0505495472,
				"y": 1.1551846463,
				"z": -0.91081516,
				"element": "H" 
			},
			{
				"x": 2.4794053817,
				"y": -0.541211128,
				"z": -0.998508313,
				"element": "H" 
			},
			{
				"x": -1.3604803945,
				"y": 1.7091285611,
				"z": 0.6196736616,
				"element": "H" 
			},
			{
				"x": 0.5090688552,
				"y": 1.9518450772,
				"z": 4.4508198711,
				"element": "H" 
			},
			{
				"x": 2.208867092,
				"y": 0.2501159945,
				"z": 3.7305150435,
				"element": "H" 
			},
			{
				"x": 2.1148180653,
				"y": -0.7118926156,
				"z": 1.4639631146,
				"element": "H" 
			}
		],
		 "valence_orbital": [ 
			{
				"type": "occ",
				"energy": -0.30795,
				"method": "rhf"
			},
			{
				"type": "occ",
				"energy": -0.30252,
				"method": "rhf"
			},
			{
				"type": "occ",
				"energy": -0.2748,
				"method": "rhf"
			},
			{
				"type": "occ",
				"energy": -0.25462,
				"method": "rhf"
			},
			{
				"type": "occ",
				"energy": -0.24074,
				"method": "rhf"
			},
			{
				"type": "unocc",
				"energy": -0.01841,
				"method": "rhf"
			},
			{
				"type": "unocc",
				"energy": -0.00091,
				"method": "rhf"
			},
			{
				"type": "unocc",
				"energy": 0.01756,
				"method": "rhf"
			},
			{
				"type": "unocc",
				"energy": 0.06791,
				"method": "rhf"
			},
			{
				"type": "unocc",
				"energy": 0.08508,
				"method": "rhf"
			}
		],
		"cosmo_sigma_profile": { 
			"-0.025": 0.0,
			"-0.024": 0.0,
			"-0.023": 0.0,
			"-0.022": 0.0,
			"-0.021": 0.0,
			"-0.02": 0.0,
			"-0.019": 0.0331502863038,
			"-0.018": 0.627445254846,
			"-0.017": 0.931407870296,
			"-0.016": 0.983026273854,
			"-0.015": 0.309492451003,
			"-0.014": 0.930033958552,
			"-0.013": 0.474211798537,
			"-0.012": 0.880244967119,
			"-0.011": 1.03594266029,
			"-0.01": 0.909693721764,
			"-0.009": 0.335101489284,
			"-0.008": 0.344564419681,
			"-0.007": 2.95648047298,
			"-0.006": 7.05404239856,
			"-0.005": 6.98874291713,
			"-0.004": 11.170182662,
			"-0.003": 19.285575999,
			"-0.002": 30.5786133501,
			"-0.001": 29.73019136,
			"0.0": 29.5459874637,
			"0.001": 28.7243318551,
			"0.002": 15.1244206559,
			"0.003": 16.2510062352,
			"0.004": 19.5423406455,
			"0.005": 9.88757086488,
			"0.006": 2.71106073276,
			"0.007": 2.60296677648,
			"0.008": 1.77993726831,
			"0.009": 1.14914192694,
			"0.01": 2.05550420925,
			"0.011": 3.22216190849,
			"0.012": 3.78853393128,
			"0.013": 0.107261549908,
			"0.014": 0.0,
			"0.015": 0.0,
			"0.016": 0.0,
			"0.017": 0.0,
			"0.018": 0.0,
			"0.019": 0.0,
			"0.02": 0.0,
			"0.021": 0.0,
			"0.022": 0.0,
			"0.023": 0.0,
			"0.024": 0.0,
			"0.025": 0.0
		}
	}
}
