{
	 "smiles": "NNC(=O)CSC1=CC=C(Cl)C=C1", 
	 "Tm": 374.15, 
	 "num_atms": 22, 
	 "gaussian": { 
		 "optdone": 1, 
		 "sigma_profile": "yes", 
		 "theory": "DFT", 
		 "functional": "B3LYP", 
		 "basiset": "6-31G**", 
		 "properties": { 
			 "R2extent": 4254.4214, 
			 "electric_dipole_moment_norm": 1.28570980785, 
			 "electric_quadrupole_moment_norm": 9.20927002916, 
			 "total_energy": -1353.35995035, 
			 "HOMO_LUMO_gap": 0.19834, 
			 "cosmo_polarized_energy": -13.68, 
			 "cosmo_cavitation_energy": 31.28, 
			 "cosmo_dispersion_energy": -21.69, 
			 "cosmo_repulsion_energy": 1.71, 
			 "cosmo_total_nonelectrostatic_energy": 11.31, 
			 "SMD_solvation_energy": 5.56 
		},
		"coords": [
			{
				"x": 1.0575529445,
				"y": 2.8652615568,
				"z": -1.8813491814,
				"element": "N" 
			},
			{
				"x": 0.0323035894,
				"y": 2.1965704608,
				"z": -1.1864877609,
				"element": "N" 
			},
			{
				"x": -0.6135844038,
				"y": 1.123894782,
				"z": -1.7155662852,
				"element": "C" 
			},
			{
				"x": -0.3915262619,
				"y": 0.7043953805,
				"z": -2.8447430872,
				"element": "O" 
			},
			{
				"x": -1.6994543568,
				"y": 0.4814297428,
				"z": -0.8470921099,
				"element": "C" 
			},
			{
				"x": -1.5661307497,
				"y": 0.6557893902,
				"z": 0.9822769452,
				"element": "S" 
			},
			{
				"x": -0.2300650699,
				"y": -0.4871281174,
				"z": 1.351221322,
				"element": "C" 
			},
			{
				"x": 1.0180659326,
				"y": -0.0030890653,
				"z": 1.7608600607,
				"element": "C" 
			},
			{
				"x": 2.0458546839,
				"y": -0.8848569821,
				"z": 2.0974162331,
				"element": "C" 
			},
			{
				"x": 1.8192647241,
				"y": -2.2575336722,
				"z": 2.0111294215,
				"element": "C" 
			},
			{
				"x": 3.109485923,
				"y": -3.3732059401,
				"z": 2.4244350172,
				"element": "Cl" 
			},
			{
				"x": 0.5819679066,
				"y": -2.7608762319,
				"z": 1.6062330458,
				"element": "C" 
			},
			{
				"x": -0.442150952,
				"y": -1.8712466024,
				"z": 1.2879027492,
				"element": "C" 
			},
			{
				"x": 1.6957279226,
				"y": 2.1520422732,
				"z": -2.2356284499,
				"element": "H" 
			},
			{
				"x": 0.64044718,
				"y": 3.2838261416,
				"z": -2.7128295036,
				"element": "H" 
			},
			{
				"x": -0.10961562,
				"y": 2.4661893552,
				"z": -0.2238902176,
				"element": "H" 
			},
			{
				"x": -1.7527100538,
				"y": -0.5732910515,
				"z": -1.1216168239,
				"element": "H" 
			},
			{
				"x": -2.6618126642,
				"y": 0.9364764876,
				"z": -1.1055547349,
				"element": "H" 
			},
			{
				"x": 1.1907062991,
				"y": 1.0665058525,
				"z": 1.8192501302,
				"element": "H" 
			},
			{
				"x": 3.0126687584,
				"y": -0.5111758875,
				"z": 2.4157487632,
				"element": "H" 
			},
			{
				"x": 0.4211872625,
				"y": -3.8319102859,
				"z": 1.5534736939,
				"element": "H" 
			},
			{
				"x": -1.4139829945,
				"y": -2.255967587,
				"z": 0.9947107724,
				"element": "H" 
			}
		],
		 "valence_orbital": [ 
			{
				"type": "occ",
				"energy": -0.27748,
				"method": "rhf"
			},
			{
				"type": "occ",
				"energy": -0.2734,
				"method": "rhf"
			},
			{
				"type": "occ",
				"energy": -0.26591,
				"method": "rhf"
			},
			{
				"type": "occ",
				"energy": -0.26055,
				"method": "rhf"
			},
			{
				"type": "occ",
				"energy": -0.23655,
				"method": "rhf"
			},
			{
				"type": "unocc",
				"energy": -0.03821,
				"method": "rhf"
			},
			{
				"type": "unocc",
				"energy": -0.02776,
				"method": "rhf"
			},
			{
				"type": "unocc",
				"energy": 0.01141,
				"method": "rhf"
			},
			{
				"type": "unocc",
				"energy": 0.01779,
				"method": "rhf"
			},
			{
				"type": "unocc",
				"energy": 0.03706,
				"method": "rhf"
			}
		],
		"cosmo_sigma_profile": { 
			"-0.025": 0.0,
			"-0.024": 0.0,
			"-0.023": 0.0,
			"-0.022": 0.0,
			"-0.021": 0.0,
			"-0.02": 0.0,
			"-0.019": 0.0,
			"-0.018": 0.0,
			"-0.017": 0.0,
			"-0.016": 0.0,
			"-0.015": 0.0,
			"-0.014": 0.0,
			"-0.013": 0.0,
			"-0.012": 0.236288566487,
			"-0.011": 2.09829490118,
			"-0.01": 3.22585217226,
			"-0.009": 3.79117837806,
			"-0.008": 6.4338668505,
			"-0.007": 11.2244599611,
			"-0.006": 15.7469510281,
			"-0.005": 14.3949394183,
			"-0.004": 13.5875864125,
			"-0.003": 13.6139726445,
			"-0.002": 17.8418757562,
			"-0.001": 18.4385346816,
			"0.0": 17.9658902151,
			"0.001": 20.3035971541,
			"0.002": 22.1573862249,
			"0.003": 18.9561791695,
			"0.004": 16.1635504225,
			"0.005": 7.95962437297,
			"0.006": 3.05441314887,
			"0.007": 4.02137689187,
			"0.008": 2.85876136903,
			"0.009": 1.79763601977,
			"0.01": 1.73423104573,
			"0.011": 2.0058054652,
			"0.012": 2.45745750688,
			"0.013": 5.58746688915,
			"0.014": 3.95865235666,
			"0.015": 1.03103293957,
			"0.016": 0.429939525284,
			"0.017": 0.116790496002,
			"0.018": 0.0,
			"0.019": 0.0,
			"0.02": 0.0,
			"0.021": 0.0,
			"0.022": 0.0,
			"0.023": 0.0,
			"0.024": 0.0,
			"0.025": 0.0
		}
	}
}
