{
	 "smiles": "CN(C)C1=CC=C(C=C1)C(=O)C(=O)C1=CC=C(C=C1)N(C)C", 
	 "Tm": 475.15, 
	 "num_atms": 42, 
	 "gaussian": { 
		 "optdone": 1, 
		 "sigma_profile": "yes", 
		 "theory": "DFT", 
		 "functional": "B3LYP", 
		 "basiset": "6-31G**", 
		 "properties": { 
			 "R2extent": 12104.3727, 
			 "electric_dipole_moment_norm": 4.45418377259, 
			 "electric_quadrupole_moment_norm": 50.2208829863, 
			 "total_energy": -957.907243862, 
			 "HOMO_LUMO_gap": 0.13818, 
			 "cosmo_polarized_energy": -19.14, 
			 "cosmo_cavitation_energy": 44.74, 
			 "cosmo_dispersion_energy": -32.31, 
			 "cosmo_repulsion_energy": 2.41, 
			 "cosmo_total_nonelectrostatic_energy": 14.84, 
			 "SMD_solvation_energy": 8.07 
		},
		"coords": [
			{
				"x": -3.8421954498,
				"y": -1.7972801953,
				"z": 5.0625984603,
				"element": "C" 
			},
			{
				"x": -3.9646364717,
				"y": -1.4369984846,
				"z": 3.6593165284,
				"element": "N" 
			},
			{
				"x": -5.2415547739,
				"y": -1.6081875146,
				"z": 2.9855884148,
				"element": "C" 
			},
			{
				"x": -2.9092244855,
				"y": -0.8445422978,
				"z": 3.0012731335,
				"element": "C" 
			},
			{
				"x": -1.6668837736,
				"y": -0.6238724989,
				"z": 3.6526338341,
				"element": "C" 
			},
			{
				"x": -0.6124953839,
				"y": -0.0346169396,
				"z": 2.9802633392,
				"element": "C" 
			},
			{
				"x": -0.7246447154,
				"y": 0.372104009,
				"z": 1.6369798651,
				"element": "C" 
			},
			{
				"x": -1.9552703581,
				"y": 0.1572796103,
				"z": 0.9891026145,
				"element": "C" 
			},
			{
				"x": -3.0212197825,
				"y": -0.4341285709,
				"z": 1.6490845711,
				"element": "C" 
			},
			{
				"x": 0.4649837066,
				"y": 0.9612307943,
				"z": 0.9918546628,
				"element": "C" 
			},
			{
				"x": 1.5264491166,
				"y": 1.1245933156,
				"z": 1.5917842548,
				"element": "O" 
			},
			{
				"x": 0.3729004576,
				"y": 1.4434086054,
				"z": -0.4699399834,
				"element": "C" 
			},
			{
				"x": -0.5976292877,
				"y": 2.1249223054,
				"z": -0.7968882667,
				"element": "O" 
			},
			{
				"x": 1.4643664504,
				"y": 1.1208364899,
				"z": -1.4097304542,
				"element": "C" 
			},
			{
				"x": 2.5880023292,
				"y": 0.3387024258,
				"z": -1.0841305253,
				"element": "C" 
			},
			{
				"x": 3.5588216697,
				"y": 0.0468590816,
				"z": -2.0296272375,
				"element": "C" 
			},
			{
				"x": 3.4535151571,
				"y": 0.5252025373,
				"z": -3.3598253048,
				"element": "C" 
			},
			{
				"x": 2.3203297696,
				"y": 1.3171955803,
				"z": -3.6837918275,
				"element": "C" 
			},
			{
				"x": 1.35963953,
				"y": 1.5980032999,
				"z": -2.7302253265,
				"element": "C" 
			},
			{
				"x": 4.4126781429,
				"y": 0.2315010037,
				"z": -4.3043756935,
				"element": "N" 
			},
			{
				"x": 5.5952428163,
				"y": -0.52785873,
				"z": -3.9317816525,
				"element": "C" 
			},
			{
				"x": 4.315472312,
				"y": 0.7903504434,
				"z": -5.6431760281,
				"element": "C" 
			},
			{
				"x": -3.6443586812,
				"y": -0.9232182966,
				"z": 5.6983872927,
				"element": "H" 
			},
			{
				"x": -3.0352731797,
				"y": -2.5232685549,
				"z": 5.2253713935,
				"element": "H" 
			},
			{
				"x": -4.7738443591,
				"y": -2.253916658,
				"z": 5.3981053138,
				"element": "H" 
			},
			{
				"x": -5.9397780357,
				"y": -2.1042531372,
				"z": 3.660494742,
				"element": "H" 
			},
			{
				"x": -5.1436953467,
				"y": -2.2306404689,
				"z": 2.0869744351,
				"element": "H" 
			},
			{
				"x": -5.6829922645,
				"y": -0.6477460684,
				"z": 2.6853406654,
				"element": "H" 
			},
			{
				"x": -1.5321824309,
				"y": -0.9160264059,
				"z": 4.6867784849,
				"element": "H" 
			},
			{
				"x": 0.3348280913,
				"y": 0.1285916493,
				"z": 3.4841117529,
				"element": "H" 
			},
			{
				"x": -2.0842713227,
				"y": 0.4764213619,
				"z": -0.03779862,
				"element": "H" 
			},
			{
				"x": -3.9513054217,
				"y": -0.5726297871,
				"z": 1.112149811,
				"element": "H" 
			},
			{
				"x": 2.7124135544,
				"y": -0.0273805581,
				"z": -0.072433981,
				"element": "H" 
			},
			{
				"x": 4.4098770161,
				"y": -0.5523652555,
				"z": -1.7310377506,
				"element": "H" 
			},
			{
				"x": 2.1967094526,
				"y": 1.7113132938,
				"z": -4.6849587532,
				"element": "H" 
			},
			{
				"x": 0.4950051755,
				"y": 2.2020174901,
				"z": -2.9861415072,
				"element": "H" 
			},
			{
				"x": 5.3313805551,
				"y": -1.5208347262,
				"z": -3.5463608585,
				"element": "H" 
			},
			{
				"x": 6.2234651194,
				"y": -0.6683278017,
				"z": -4.811968363,
				"element": "H" 
			},
			{
				"x": 6.1929109146,
				"y": -0.0151851806,
				"z": -3.16515273,
				"element": "H" 
			},
			{
				"x": 4.3426703266,
				"y": 1.8889850118,
				"z": -5.6374396306,
				"element": "H" 
			},
			{
				"x": 3.390906113,
				"y": 0.4776730004,
				"z": -6.1447589295,
				"element": "H" 
			},
			{
				"x": 5.1549877477,
				"y": 0.4351868219,
				"z": -6.2416501462,
				"element": "H" 
			}
		],
		 "valence_orbital": [ 
			{
				"type": "occ",
				"energy": -0.24601,
				"method": "rhf"
			},
			{
				"type": "occ",
				"energy": -0.24528,
				"method": "rhf"
			},
			{
				"type": "occ",
				"energy": -0.21054,
				"method": "rhf"
			},
			{
				"type": "occ",
				"energy": -0.1947,
				"method": "rhf"
			},
			{
				"type": "occ",
				"energy": -0.19402,
				"method": "rhf"
			},
			{
				"type": "unocc",
				"energy": -0.05584,
				"method": "rhf"
			},
			{
				"type": "unocc",
				"energy": -0.02084,
				"method": "rhf"
			},
			{
				"type": "unocc",
				"energy": 0.00784,
				"method": "rhf"
			},
			{
				"type": "unocc",
				"energy": 0.00792,
				"method": "rhf"
			},
			{
				"type": "unocc",
				"energy": 0.04974,
				"method": "rhf"
			}
		],
		"cosmo_sigma_profile": { 
			"-0.025": 0.0,
			"-0.024": 0.0,
			"-0.023": 0.0,
			"-0.022": 0.0,
			"-0.021": 0.0,
			"-0.02": 0.0,
			"-0.019": 0.0,
			"-0.018": 0.0,
			"-0.017": 0.0,
			"-0.016": 0.0,
			"-0.015": 0.0,
			"-0.014": 0.0,
			"-0.013": 0.0,
			"-0.012": 0.0,
			"-0.011": 0.0,
			"-0.01": 0.0,
			"-0.009": 0.0,
			"-0.008": 0.992553370654,
			"-0.007": 4.87667875408,
			"-0.006": 12.4464202607,
			"-0.005": 31.0207854655,
			"-0.004": 42.0233696728,
			"-0.003": 41.5057384811,
			"-0.002": 40.6815986539,
			"-0.001": 24.5206608939,
			"0.0": 16.9651762209,
			"0.001": 16.062008115,
			"0.002": 19.2596144114,
			"0.003": 22.7812943847,
			"0.004": 21.4312466559,
			"0.005": 26.5163665831,
			"0.006": 5.9674921172,
			"0.007": 3.08850585531,
			"0.008": 4.02629806363,
			"0.009": 3.01326888428,
			"0.01": 4.13425856975,
			"0.011": 4.56599154431,
			"0.012": 7.31124931967,
			"0.013": 2.19875929825,
			"0.014": 0.0,
			"0.015": 0.0,
			"0.016": 0.0,
			"0.017": 0.0,
			"0.018": 0.0,
			"0.019": 0.0,
			"0.02": 0.0,
			"0.021": 0.0,
			"0.022": 0.0,
			"0.023": 0.0,
			"0.024": 0.0,
			"0.025": 0.0
		}
	}
}
