{
	 "smiles": "COC(=O)NC1(CCCC1)C(O)=O", 
	 "Tm": 405.15, 
	 "num_atms": 26, 
	 "gaussian": { 
		 "optdone": 1, 
		 "sigma_profile": "yes", 
		 "theory": "DFT", 
		 "functional": "B3LYP", 
		 "basiset": "6-31G**", 
		 "properties": { 
			 "R2extent": 2633.8923, 
			 "electric_dipole_moment_norm": 3.67674077003, 
			 "electric_quadrupole_moment_norm": 12.8473054868, 
			 "total_energy": -668.366680974, 
			 "HOMO_LUMO_gap": 0.25854, 
			 "cosmo_polarized_energy": -15.14, 
			 "cosmo_cavitation_energy": 28.27, 
			 "cosmo_dispersion_energy": -20.21, 
			 "cosmo_repulsion_energy": 1.63, 
			 "cosmo_total_nonelectrostatic_energy": 9.69, 
			 "SMD_solvation_energy": 6.65 
		},
		"coords": [
			{
				"x": 0.1809148318,
				"y": 2.0956231118,
				"z": -2.6895268226,
				"element": "C" 
			},
			{
				"x": 0.5938080262,
				"y": 1.3783318435,
				"z": -1.51834888,
				"element": "O" 
			},
			{
				"x": 0.4041769045,
				"y": 2.0482582976,
				"z": -0.3536894241,
				"element": "C" 
			},
			{
				"x": -0.0128974743,
				"y": 3.187455856,
				"z": -0.2783698899,
				"element": "O" 
			},
			{
				"x": 0.7989335528,
				"y": 1.3010774152,
				"z": 0.7354598272,
				"element": "N" 
			},
			{
				"x": 0.9535745256,
				"y": -0.1505934939,
				"z": 0.7485231919,
				"element": "C" 
			},
			{
				"x": 1.2339773643,
				"y": -0.6127411314,
				"z": 2.2239184363,
				"element": "C" 
			},
			{
				"x": 2.3476614202,
				"y": -1.6642154338,
				"z": 2.126324408,
				"element": "C" 
			},
			{
				"x": 3.227015588,
				"y": -1.121024746,
				"z": 0.9923520762,
				"element": "C" 
			},
			{
				"x": 2.2098524028,
				"y": -0.6335109514,
				"z": -0.057187129,
				"element": "C" 
			},
			{
				"x": -0.3521025079,
				"y": -0.8164417937,
				"z": 0.2828539874,
				"element": "C" 
			},
			{
				"x": -0.2120843346,
				"y": -2.1585289298,
				"z": 0.1351854287,
				"element": "O" 
			},
			{
				"x": -1.4108975905,
				"y": -0.2561664865,
				"z": 0.1169411963,
				"element": "O" 
			},
			{
				"x": -0.8926401264,
				"y": 2.297007625,
				"z": -2.657449964,
				"element": "H" 
			},
			{
				"x": 0.7170552706,
				"y": 3.043912296,
				"z": -2.7726817721,
				"element": "H" 
			},
			{
				"x": 0.4209090299,
				"y": 1.4447955712,
				"z": -3.530842366,
				"element": "H" 
			},
			{
				"x": 0.4588294035,
				"y": 1.7197961362,
				"z": 1.5901552558,
				"element": "H" 
			},
			{
				"x": 0.3334608843,
				"y": -0.9696130832,
				"z": 2.7323847141,
				"element": "H" 
			},
			{
				"x": 1.6025344535,
				"y": 0.2586071458,
				"z": 2.7774389251,
				"element": "H" 
			},
			{
				"x": 1.9244550297,
				"y": -2.63485476,
				"z": 1.8455400065,
				"element": "H" 
			},
			{
				"x": 2.8808986885,
				"y": -1.7922417414,
				"z": 3.0735240358,
				"element": "H" 
			},
			{
				"x": 3.8253969068,
				"y": -0.2780364944,
				"z": 1.3595155893,
				"element": "H" 
			},
			{
				"x": 3.9218270719,
				"y": -1.8631616255,
				"z": 0.5875625545,
				"element": "H" 
			},
			{
				"x": 1.9285677141,
				"y": -1.4563140778,
				"z": -0.7178636918,
				"element": "H" 
			},
			{
				"x": 2.5873011831,
				"y": 0.1756611215,
				"z": -0.6815186499,
				"element": "H" 
			},
			{
				"x": -1.0915282185,
				"y": -2.4934816713,
				"z": -0.1081010435,
				"element": "H" 
			}
		],
		 "valence_orbital": [ 
			{
				"type": "occ",
				"energy": -0.32195,
				"method": "rhf"
			},
			{
				"type": "occ",
				"energy": -0.29151,
				"method": "rhf"
			},
			{
				"type": "occ",
				"energy": -0.2784,
				"method": "rhf"
			},
			{
				"type": "occ",
				"energy": -0.26681,
				"method": "rhf"
			},
			{
				"type": "occ",
				"energy": -0.25312,
				"method": "rhf"
			},
			{
				"type": "unocc",
				"energy": 0.00542,
				"method": "rhf"
			},
			{
				"type": "unocc",
				"energy": 0.04902,
				"method": "rhf"
			},
			{
				"type": "unocc",
				"energy": 0.07178,
				"method": "rhf"
			},
			{
				"type": "unocc",
				"energy": 0.08405,
				"method": "rhf"
			},
			{
				"type": "unocc",
				"energy": 0.09446,
				"method": "rhf"
			}
		],
		"cosmo_sigma_profile": { 
			"-0.025": 0.0,
			"-0.024": 0.0,
			"-0.023": 0.0,
			"-0.022": 0.0,
			"-0.021": 0.0,
			"-0.02": 0.0,
			"-0.019": 0.0460222142179,
			"-0.018": 0.847520864719,
			"-0.017": 1.01119923549,
			"-0.016": 0.715017857494,
			"-0.015": 0.756340783346,
			"-0.014": 1.32239897033,
			"-0.013": 1.35914060142,
			"-0.012": 1.33108689731,
			"-0.011": 2.24256815254,
			"-0.01": 1.59714616493,
			"-0.009": 1.21657917875,
			"-0.008": 1.93198512005,
			"-0.007": 2.26314753113,
			"-0.006": 6.43650935063,
			"-0.005": 11.987337593,
			"-0.004": 13.6726169202,
			"-0.003": 23.4327838812,
			"-0.002": 22.5660615769,
			"-0.001": 24.3919593659,
			"0.0": 21.0704362734,
			"0.001": 12.8962858925,
			"0.002": 7.3261047973,
			"0.003": 7.5963829054,
			"0.004": 7.75061909045,
			"0.005": 6.72724944443,
			"0.006": 5.50088924138,
			"0.007": 4.90562724103,
			"0.008": 3.23802525191,
			"0.009": 3.18946264314,
			"0.01": 3.72150831107,
			"0.011": 5.36064608974,
			"0.012": 4.9270795534,
			"0.013": 6.14865494141,
			"0.014": 0.967675374015,
			"0.015": 0.0,
			"0.016": 0.0,
			"0.017": 0.0,
			"0.018": 0.0,
			"0.019": 0.0,
			"0.02": 0.0,
			"0.021": 0.0,
			"0.022": 0.0,
			"0.023": 0.0,
			"0.024": 0.0,
			"0.025": 0.0
		}
	}
}
