{
	 "smiles": "FC1=C(F)C(F)=C(OC(=O)C2=CC=C(C=C2)C2=CN=CO2)C(F)=C1F", 
	 "Tm": 415.15, 
	 "num_atms": 31, 
	 "gaussian": { 
		 "optdone": 1, 
		 "sigma_profile": "yes", 
		 "theory": "DFT", 
		 "functional": "B3LYP", 
		 "basiset": "6-31G**", 
		 "properties": { 
			 "R2extent": 10476.8581, 
			 "electric_dipole_moment_norm": 2.44387045688, 
			 "electric_quadrupole_moment_norm": 15.5397334836, 
			 "total_energy": -1392.84815262, 
			 "HOMO_LUMO_gap": 0.15867, 
			 "cosmo_polarized_energy": -12.75, 
			 "cosmo_cavitation_energy": 40.83, 
			 "cosmo_dispersion_energy": -27.5, 
			 "cosmo_repulsion_energy": 1.94, 
			 "cosmo_total_nonelectrostatic_energy": 15.27, 
			 "SMD_solvation_energy": 9.48 
		},
		"coords": [
			{
				"x": -3.3221815194,
				"y": 4.2133272496,
				"z": 2.3659590355,
				"element": "F" 
			},
			{
				"x": -2.3630228246,
				"y": 3.8118590664,
				"z": 1.5279949911,
				"element": "C" 
			},
			{
				"x": -2.6978811079,
				"y": 3.1478912197,
				"z": 0.3493897767,
				"element": "C" 
			},
			{
				"x": -3.9801771881,
				"y": 2.9185942892,
				"z": 0.0530441345,
				"element": "F" 
			},
			{
				"x": -1.6940845779,
				"y": 2.7358530976,
				"z": -0.5235041655,
				"element": "C" 
			},
			{
				"x": -2.0231713513,
				"y": 2.102865364,
				"z": -1.6567534025,
				"element": "F" 
			},
			{
				"x": -0.3464925297,
				"y": 2.9625940243,
				"z": -0.2281746384,
				"element": "C" 
			},
			{
				"x": 0.6507174753,
				"y": 2.6534543866,
				"z": -1.1133360081,
				"element": "O" 
			},
			{
				"x": 0.7561369703,
				"y": 1.3595454376,
				"z": -1.6546354756,
				"element": "C" 
			},
			{
				"x": 1.0277808113,
				"y": 1.2551443629,
				"z": -2.8191735472,
				"element": "O" 
			},
			{
				"x": 0.6069978926,
				"y": 0.2263861946,
				"z": -0.7065246678,
				"element": "C" 
			},
			{
				"x": 0.9784029705,
				"y": 0.3204472573,
				"z": 0.6444781683,
				"element": "C" 
			},
			{
				"x": 0.8921183158,
				"y": -0.7916372415,
				"z": 1.4709694808,
				"element": "C" 
			},
			{
				"x": 0.4212963556,
				"y": -2.0215147774,
				"z": 0.9732596327,
				"element": "C" 
			},
			{
				"x": 0.0607523753,
				"y": -2.1116323881,
				"z": -0.3844834253,
				"element": "C" 
			},
			{
				"x": 0.1667868597,
				"y": -1.0042638513,
				"z": -1.2150284953,
				"element": "C" 
			},
			{
				"x": 0.3201125029,
				"y": -3.1754835712,
				"z": 1.8510143043,
				"element": "C" 
			},
			{
				"x": 0.5777151982,
				"y": -3.4148861165,
				"z": 3.1736821506,
				"element": "C" 
			},
			{
				"x": 0.2905815497,
				"y": -4.7341442639,
				"z": 3.4787278052,
				"element": "N" 
			},
			{
				"x": -0.121279153,
				"y": -5.2348140932,
				"z": 2.356455614,
				"element": "C" 
			},
			{
				"x": -0.1359272909,
				"y": -4.3627590933,
				"z": 1.3196275168,
				"element": "O" 
			},
			{
				"x": -0.0267001429,
				"y": 3.6201586803,
				"z": 0.9623330146,
				"element": "C" 
			},
			{
				"x": 1.2592325222,
				"y": 3.8068960397,
				"z": 1.2869356084,
				"element": "F" 
			},
			{
				"x": -1.0236589155,
				"y": 4.0447496137,
				"z": 1.8365648492,
				"element": "C" 
			},
			{
				"x": -0.6990393585,
				"y": 4.663388391,
				"z": 2.9757246366,
				"element": "F" 
			},
			{
				"x": 1.3663829502,
				"y": 1.2530798184,
				"z": 1.0386708637,
				"element": "H" 
			},
			{
				"x": 1.1971792378,
				"y": -0.708027592,
				"z": 2.5090913123,
				"element": "H" 
			},
			{
				"x": -0.2953432978,
				"y": -3.0559653268,
				"z": -0.7801564388,
				"element": "H" 
			},
			{
				"x": -0.0923961624,
				"y": -1.0755540578,
				"z": -2.2659699913,
				"element": "H" 
			},
			{
				"x": 0.9481245682,
				"y": -2.7327700704,
				"z": 3.924696491,
				"element": "H" 
			},
			{
				"x": -0.4483631358,
				"y": -6.2430820494,
				"z": 2.1494208693,
				"element": "H" 
			}
		],
		 "valence_orbital": [ 
			{
				"type": "occ",
				"energy": -0.29827,
				"method": "rhf"
			},
			{
				"type": "occ",
				"energy": -0.28232,
				"method": "rhf"
			},
			{
				"type": "occ",
				"energy": -0.26895,
				"method": "rhf"
			},
			{
				"type": "occ",
				"energy": -0.26367,
				"method": "rhf"
			},
			{
				"type": "occ",
				"energy": -0.24058,
				"method": "rhf"
			},
			{
				"type": "unocc",
				"energy": -0.08191,
				"method": "rhf"
			},
			{
				"type": "unocc",
				"energy": -0.03754,
				"method": "rhf"
			},
			{
				"type": "unocc",
				"energy": -0.02943,
				"method": "rhf"
			},
			{
				"type": "unocc",
				"energy": -0.02629,
				"method": "rhf"
			},
			{
				"type": "unocc",
				"energy": -0.01553,
				"method": "rhf"
			}
		],
		"cosmo_sigma_profile": { 
			"-0.025": 0.0,
			"-0.024": 0.0,
			"-0.023": 0.0,
			"-0.022": 0.0,
			"-0.021": 0.0,
			"-0.02": 0.0,
			"-0.019": 0.0,
			"-0.018": 0.0,
			"-0.017": 0.0,
			"-0.016": 0.0,
			"-0.015": 0.0,
			"-0.014": 0.0,
			"-0.013": 0.0,
			"-0.012": 0.169038897781,
			"-0.011": 1.90593022957,
			"-0.01": 1.99719085517,
			"-0.009": 4.8188886784,
			"-0.008": 4.83616416964,
			"-0.007": 6.70411142705,
			"-0.006": 12.0732386141,
			"-0.005": 13.2998150234,
			"-0.004": 28.6162669986,
			"-0.003": 22.2031442913,
			"-0.002": 21.8577098008,
			"-0.001": 24.6316684443,
			"0.0": 28.0271130615,
			"0.001": 33.2365676243,
			"0.002": 64.8461563965,
			"0.003": 21.0897068236,
			"0.004": 6.93568422956,
			"0.005": 4.2241798723,
			"0.006": 4.51948109911,
			"0.007": 3.56986057845,
			"0.008": 4.44744340264,
			"0.009": 5.17217459749,
			"0.01": 6.27742794273,
			"0.011": 2.62175391563,
			"0.012": 0.807619203367,
			"0.013": 1.3623819964,
			"0.014": 1.13698292247,
			"0.015": 0.794779888396,
			"0.016": 0.178555925389,
			"0.017": 0.0,
			"0.018": 0.0,
			"0.019": 0.0,
			"0.02": 0.0,
			"0.021": 0.0,
			"0.022": 0.0,
			"0.023": 0.0,
			"0.024": 0.0,
			"0.025": 0.0
		}
	}
}
