{
	 "smiles": "SC1=NC2=C(C=CC=C2)N1C1CCCCC1", 
	 "Tm": 453.15, 
	 "num_atms": 32, 
	 "gaussian": { 
		 "optdone": 1, 
		 "sigma_profile": "yes", 
		 "theory": "DFT", 
		 "functional": "B3LYP", 
		 "basiset": "6-31G**", 
		 "properties": { 
			 "R2extent": 4623.0408, 
			 "electric_dipole_moment_norm": 3.22080420082, 
			 "electric_quadrupole_moment_norm": 5.33984155851, 
			 "total_energy": -1012.74318008, 
			 "HOMO_LUMO_gap": 0.19938, 
			 "cosmo_polarized_energy": -9.38, 
			 "cosmo_cavitation_energy": 34.15, 
			 "cosmo_dispersion_energy": -25.12, 
			 "cosmo_repulsion_energy": 1.91, 
			 "cosmo_total_nonelectrostatic_energy": 10.94, 
			 "SMD_solvation_energy": 2.5 
		},
		"coords": [
			{
				"x": 0.7452411182,
				"y": -2.723414477,
				"z": 2.7899133402,
				"element": "S" 
			},
			{
				"x": -0.4418444202,
				"y": -1.7356646623,
				"z": 1.9149188662,
				"element": "C" 
			},
			{
				"x": -1.7256490247,
				"y": -1.9871795166,
				"z": 1.8937322522,
				"element": "N" 
			},
			{
				"x": -2.2594764994,
				"y": -0.9794588821,
				"z": 1.1034008357,
				"element": "C" 
			},
			{
				"x": -1.2378582586,
				"y": -0.1093771425,
				"z": 0.6501561078,
				"element": "C" 
			},
			{
				"x": -1.5196160135,
				"y": 0.9903178713,
				"z": -0.1666700317,
				"element": "C" 
			},
			{
				"x": -2.8527046015,
				"y": 1.1970901033,
				"z": -0.5190255024,
				"element": "C" 
			},
			{
				"x": -3.8747629594,
				"y": 0.3383567508,
				"z": -0.0740556275,
				"element": "C" 
			},
			{
				"x": -3.5918680749,
				"y": -0.7550414922,
				"z": 0.7387303212,
				"element": "C" 
			},
			{
				"x": -0.0556994721,
				"y": -0.6216631371,
				"z": 1.1928931972,
				"element": "N" 
			},
			{
				"x": 1.3141222444,
				"y": -0.114877336,
				"z": 1.0367471045,
				"element": "C" 
			},
			{
				"x": 1.7916896636,
				"y": -0.1798430111,
				"z": -0.4258770109,
				"element": "C" 
			},
			{
				"x": 3.2425627675,
				"y": 0.3123805557,
				"z": -0.5509084654,
				"element": "C" 
			},
			{
				"x": 3.4171338794,
				"y": 1.7189878824,
				"z": 0.0414194239,
				"element": "C" 
			},
			{
				"x": 2.9408910274,
				"y": 1.7713913201,
				"z": 1.5010289709,
				"element": "C" 
			},
			{
				"x": 1.4873619856,
				"y": 1.290660154,
				"z": 1.6418837486,
				"element": "C" 
			},
			{
				"x": -0.201723741,
				"y": -3.5697165618,
				"z": 3.2336750294,
				"element": "H" 
			},
			{
				"x": -0.7475095016,
				"y": 1.6638638321,
				"z": -0.5203713143,
				"element": "H" 
			},
			{
				"x": -3.1050657574,
				"y": 2.0423428554,
				"z": -1.1525097911,
				"element": "H" 
			},
			{
				"x": -4.9003531488,
				"y": 0.5352402876,
				"z": -0.3720483429,
				"element": "H" 
			},
			{
				"x": -4.3704386686,
				"y": -1.4251665665,
				"z": 1.0885591316,
				"element": "H" 
			},
			{
				"x": 1.9478169419,
				"y": -0.7973614748,
				"z": 1.6157325111,
				"element": "H" 
			},
			{
				"x": 1.6970081996,
				"y": -1.2084414179,
				"z": -0.7907643924,
				"element": "H" 
			},
			{
				"x": 1.1387191992,
				"y": 0.4383357116,
				"z": -1.0530101143,
				"element": "H" 
			},
			{
				"x": 3.9090651054,
				"y": -0.3863919344,
				"z": -0.0257312693,
				"element": "H" 
			},
			{
				"x": 3.5472287164,
				"y": 0.2982098206,
				"z": -1.6034576753,
				"element": "H" 
			},
			{
				"x": 2.8386828058,
				"y": 2.4385670776,
				"z": -0.5552333643,
				"element": "H" 
			},
			{
				"x": 4.4658852163,
				"y": 2.0305402022,
				"z": -0.0256666837,
				"element": "H" 
			},
			{
				"x": 3.0326649624,
				"y": 2.7883074525,
				"z": 1.8989695845,
				"element": "H" 
			},
			{
				"x": 3.593775783,
				"y": 1.1372436921,
				"z": 2.1174205623,
				"element": "H" 
			},
			{
				"x": 1.1844351984,
				"y": 1.2701616795,
				"z": 2.6944795351,
				"element": "H" 
			},
			{
				"x": 0.8171853274,
				"y": 1.9945003638,
				"z": 1.134669063,
				"element": "H" 
			}
		],
		 "valence_orbital": [ 
			{
				"type": "occ",
				"energy": -0.28985,
				"method": "rhf"
			},
			{
				"type": "occ",
				"energy": -0.27842,
				"method": "rhf"
			},
			{
				"type": "occ",
				"energy": -0.26997,
				"method": "rhf"
			},
			{
				"type": "occ",
				"energy": -0.2202,
				"method": "rhf"
			},
			{
				"type": "occ",
				"energy": -0.20878,
				"method": "rhf"
			},
			{
				"type": "unocc",
				"energy": -0.0094,
				"method": "rhf"
			},
			{
				"type": "unocc",
				"energy": 0.00889,
				"method": "rhf"
			},
			{
				"type": "unocc",
				"energy": 0.02401,
				"method": "rhf"
			},
			{
				"type": "unocc",
				"energy": 0.05629,
				"method": "rhf"
			},
			{
				"type": "unocc",
				"energy": 0.0641,
				"method": "rhf"
			}
		],
		"cosmo_sigma_profile": { 
			"-0.025": 0.0,
			"-0.024": 0.0,
			"-0.023": 0.0,
			"-0.022": 0.0,
			"-0.021": 0.0,
			"-0.02": 0.0,
			"-0.019": 0.0,
			"-0.018": 0.0,
			"-0.017": 0.0,
			"-0.016": 0.0,
			"-0.015": 0.0,
			"-0.014": 0.0,
			"-0.013": 0.0,
			"-0.012": 0.691333506067,
			"-0.011": 1.38120013663,
			"-0.01": 1.30639101474,
			"-0.009": 0.902128083412,
			"-0.008": 1.22086878178,
			"-0.007": 2.30015221283,
			"-0.006": 6.10341896652,
			"-0.005": 12.4274009845,
			"-0.004": 15.9491754813,
			"-0.003": 30.4146444103,
			"-0.002": 34.042615439,
			"-0.001": 33.0274978639,
			"0.0": 32.2028281076,
			"0.001": 21.5459945252,
			"0.002": 12.5355698811,
			"0.003": 12.1327486842,
			"0.004": 13.0957521637,
			"0.005": 13.6906880668,
			"0.006": 11.646585059,
			"0.007": 4.64595909674,
			"0.008": 2.13267301425,
			"0.009": 1.35165200082,
			"0.01": 0.813110640979,
			"0.011": 1.1448934015,
			"0.012": 1.15917468386,
			"0.013": 1.05380997422,
			"0.014": 0.674012783286,
			"0.015": 0.9361788919,
			"0.016": 0.727570842539,
			"0.017": 0.243905615288,
			"0.018": 0.0,
			"0.019": 0.0,
			"0.02": 0.0,
			"0.021": 0.0,
			"0.022": 0.0,
			"0.023": 0.0,
			"0.024": 0.0,
			"0.025": 0.0
		}
	}
}
