{
	 "smiles": "NC1=NN(CC(F)(F)F)C=C1", 
	 "Tm": 313.15, 
	 "num_atms": 17, 
	 "gaussian": { 
		 "optdone": 1, 
		 "sigma_profile": "yes", 
		 "theory": "DFT", 
		 "functional": "B3LYP", 
		 "basiset": "6-31G**", 
		 "properties": { 
			 "R2extent": 2295.5652, 
			 "electric_dipole_moment_norm": 2.93989666145, 
			 "electric_quadrupole_moment_norm": 3.56519092757, 
			 "total_energy": -657.904564808, 
			 "HOMO_LUMO_gap": 0.22446, 
			 "cosmo_polarized_energy": -11.78, 
			 "cosmo_cavitation_energy": 22.87, 
			 "cosmo_dispersion_energy": -16.22, 
			 "cosmo_repulsion_energy": 1.27, 
			 "cosmo_total_nonelectrostatic_energy": 7.92, 
			 "SMD_solvation_energy": 4.36 
		},
		"coords": [
			{
				"x": -1.6338525277,
				"y": -2.2086864237,
				"z": 0.2799951571,
				"element": "N" 
			},
			{
				"x": -1.4500972232,
				"y": -0.8591189078,
				"z": -0.0174869126,
				"element": "C" 
			},
			{
				"x": -1.0797240819,
				"y": 0.0033689063,
				"z": 0.9262938162,
				"element": "N" 
			},
			{
				"x": -0.9429536357,
				"y": 1.1939294452,
				"z": 0.2662673526,
				"element": "N" 
			},
			{
				"x": -0.4428898084,
				"y": 2.3388998069,
				"z": 0.9778725942,
				"element": "C" 
			},
			{
				"x": 1.0568996943,
				"y": 2.5488845371,
				"z": 0.7996695337,
				"element": "C" 
			},
			{
				"x": 1.4439401205,
				"y": 3.6401008243,
				"z": 1.4971747978,
				"element": "F" 
			},
			{
				"x": 1.7738804634,
				"y": 1.5011728728,
				"z": 1.2298342261,
				"element": "F" 
			},
			{
				"x": 1.3682745973,
				"y": 2.7602363744,
				"z": -0.4982161517,
				"element": "F" 
			},
			{
				"x": -1.2172121027,
				"y": 1.0789121531,
				"z": -1.0613226138,
				"element": "C" 
			},
			{
				"x": -1.5571722558,
				"y": -0.2357673215,
				"z": -1.2919843549,
				"element": "C" 
			},
			{
				"x": -1.6978408562,
				"y": -2.3704462026,
				"z": 1.277796188,
				"element": "H" 
			},
			{
				"x": -2.4128095019,
				"y": -2.6308186603,
				"z": -0.2086873839,
				"element": "H" 
			},
			{
				"x": -0.6478892584,
				"y": 2.1933968886,
				"z": 2.03937592,
				"element": "H" 
			},
			{
				"x": -0.9445785392,
				"y": 3.2497653208,
				"z": 0.638847392,
				"element": "H" 
			},
			{
				"x": -1.1426999853,
				"y": 1.9246493575,
				"z": -1.7293358203,
				"element": "H" 
			},
			{
				"x": -1.8352750991,
				"y": -0.6871789709,
				"z": -2.2324937405,
				"element": "H" 
			}
		],
		 "valence_orbital": [ 
			{
				"type": "occ",
				"energy": -0.3812,
				"method": "rhf"
			},
			{
				"type": "occ",
				"energy": -0.31771,
				"method": "rhf"
			},
			{
				"type": "occ",
				"energy": -0.28879,
				"method": "rhf"
			},
			{
				"type": "occ",
				"energy": -0.24451,
				"method": "rhf"
			},
			{
				"type": "occ",
				"energy": -0.20628,
				"method": "rhf"
			},
			{
				"type": "unocc",
				"energy": 0.01818,
				"method": "rhf"
			},
			{
				"type": "unocc",
				"energy": 0.07629,
				"method": "rhf"
			},
			{
				"type": "unocc",
				"energy": 0.09263,
				"method": "rhf"
			},
			{
				"type": "unocc",
				"energy": 0.098,
				"method": "rhf"
			},
			{
				"type": "unocc",
				"energy": 0.11888,
				"method": "rhf"
			}
		],
		"cosmo_sigma_profile": { 
			"-0.025": 0.0,
			"-0.024": 0.0,
			"-0.023": 0.0,
			"-0.022": 0.0,
			"-0.021": 0.0,
			"-0.02": 0.0,
			"-0.019": 0.0,
			"-0.018": 0.0,
			"-0.017": 0.0,
			"-0.016": 0.0,
			"-0.015": 0.0,
			"-0.014": 0.0,
			"-0.013": 0.365792589252,
			"-0.012": 1.98228425889,
			"-0.011": 2.68682066365,
			"-0.01": 3.04474042805,
			"-0.009": 7.81671782506,
			"-0.008": 8.3258896154,
			"-0.007": 8.18962753115,
			"-0.006": 8.89807852754,
			"-0.005": 6.65934234406,
			"-0.004": 6.87376710112,
			"-0.003": 7.48597693619,
			"-0.002": 5.83284087636,
			"-0.001": 5.50657454622,
			"0.0": 7.86844010373,
			"0.001": 10.1734223855,
			"0.002": 24.3755118474,
			"0.003": 26.5359614783,
			"0.004": 6.75070140178,
			"0.005": 7.43122622809,
			"0.006": 6.78375450567,
			"0.007": 3.42395400165,
			"0.008": 2.27995560165,
			"0.009": 2.04120817177,
			"0.01": 1.92311736967,
			"0.011": 2.18263223358,
			"0.012": 1.89303742649,
			"0.013": 1.67649134657,
			"0.014": 1.36420759952,
			"0.015": 1.23305493842,
			"0.016": 0.324595236266,
			"0.017": 0.0,
			"0.018": 0.0,
			"0.019": 0.0,
			"0.02": 0.0,
			"0.021": 0.0,
			"0.022": 0.0,
			"0.023": 0.0,
			"0.024": 0.0,
			"0.025": 0.0
		}
	}
}
