{
	 "smiles": "CCOC(=O)C1=NC(=NO1)C1=CC(Br)=CN=C1", 
	 "Tm": 375.15, 
	 "num_atms": 25, 
	 "gaussian": { 
		 "optdone": 1, 
		 "sigma_profile": "yes", 
		 "theory": "DFT", 
		 "functional": "B3LYP", 
		 "basiset": "6-31G**", 
		 "properties": { 
			 "R2extent": 10686.3215, 
			 "electric_dipole_moment_norm": 3.33499676462, 
			 "electric_quadrupole_moment_norm": 16.9082148088, 
			 "total_energy": -3347.17005962, 
			 "HOMO_LUMO_gap": 0.17311, 
			 "cosmo_polarized_energy": -11.52, 
			 "cosmo_cavitation_energy": 34.2, 
			 "cosmo_dispersion_energy": -25.34, 
			 "cosmo_repulsion_energy": 1.97, 
			 "cosmo_total_nonelectrostatic_energy": 10.84, 
			 "SMD_solvation_energy": 3.13 
		},
		"coords": [
			{
				"x": -4.7988207898,
				"y": 1.4611932039,
				"z": 2.5744550333,
				"element": "C" 
			},
			{
				"x": -3.5638106687,
				"y": 1.8404181243,
				"z": 3.3753936799,
				"element": "C" 
			},
			{
				"x": -2.4117429481,
				"y": 1.0505492765,
				"z": 2.9666969318,
				"element": "O" 
			},
			{
				"x": -1.7208393901,
				"y": 1.5071588065,
				"z": 1.9163137233,
				"element": "C" 
			},
			{
				"x": -1.9496151961,
				"y": 2.5070603679,
				"z": 1.2775145946,
				"element": "O" 
			},
			{
				"x": -0.5696635,
				"y": 0.6003113726,
				"z": 1.6051575218,
				"element": "C" 
			},
			{
				"x": 0.2986830934,
				"y": 0.7557917999,
				"z": 0.6520210795,
				"element": "N" 
			},
			{
				"x": 1.1146045647,
				"y": -0.3419848337,
				"z": 0.8202061662,
				"element": "C" 
			},
			{
				"x": 0.762227064,
				"y": -1.1265089037,
				"z": 1.8199212348,
				"element": "N" 
			},
			{
				"x": -0.362203003,
				"y": -0.5009014738,
				"z": 2.3495508784,
				"element": "O" 
			},
			{
				"x": 2.2726222413,
				"y": -0.6179047596,
				"z": -0.0367515453,
				"element": "C" 
			},
			{
				"x": 3.0748672442,
				"y": -1.7486090314,
				"z": 0.1696618303,
				"element": "C" 
			},
			{
				"x": 4.1530175598,
				"y": -1.9421470291,
				"z": -0.6822396523,
				"element": "C" 
			},
			{
				"x": 5.2937751438,
				"y": -3.4525946404,
				"z": -0.4719137552,
				"element": "Br" 
			},
			{
				"x": 4.4046520236,
				"y": -1.0209476986,
				"z": -1.7041525895,
				"element": "C" 
			},
			{
				"x": 3.6408709027,
				"y": 0.0565547423,
				"z": -1.9016561237,
				"element": "N" 
			},
			{
				"x": 2.5998907369,
				"y": 0.2520672852,
				"z": -1.0864202209,
				"element": "C" 
			},
			{
				"x": -5.0076576682,
				"y": 0.3913913715,
				"z": 2.6627550948,
				"element": "H" 
			},
			{
				"x": -4.6700134282,
				"y": 1.7137971218,
				"z": 1.5191506204,
				"element": "H" 
			},
			{
				"x": -5.6642956419,
				"y": 2.0133396641,
				"z": 2.9548086695,
				"element": "H" 
			},
			{
				"x": -3.6792944854,
				"y": 1.6065746069,
				"z": 4.4352998978,
				"element": "H" 
			},
			{
				"x": -3.3185781908,
				"y": 2.8982312817,
				"z": 3.2573656977,
				"element": "H" 
			},
			{
				"x": 2.8553383796,
				"y": -2.4455187364,
				"z": 0.9701988055,
				"element": "H" 
			},
			{
				"x": 5.2465162412,
				"y": -1.1634469292,
				"z": -2.3767188015,
				"element": "H" 
			},
			{
				"x": 1.9922697148,
				"y": 1.1346250109,
				"z": -1.2650187714,
				"element": "H" 
			}
		],
		 "valence_orbital": [ 
			{
				"type": "occ",
				"energy": -0.30426,
				"method": "rhf"
			},
			{
				"type": "occ",
				"energy": -0.30367,
				"method": "rhf"
			},
			{
				"type": "occ",
				"energy": -0.28554,
				"method": "rhf"
			},
			{
				"type": "occ",
				"energy": -0.27269,
				"method": "rhf"
			},
			{
				"type": "occ",
				"energy": -0.26112,
				"method": "rhf"
			},
			{
				"type": "unocc",
				"energy": -0.08801,
				"method": "rhf"
			},
			{
				"type": "unocc",
				"energy": -0.06271,
				"method": "rhf"
			},
			{
				"type": "unocc",
				"energy": -0.04144,
				"method": "rhf"
			},
			{
				"type": "unocc",
				"energy": -0.00506,
				"method": "rhf"
			},
			{
				"type": "unocc",
				"energy": 0.0302,
				"method": "rhf"
			}
		],
		"cosmo_sigma_profile": { 
			"-0.025": 0.0,
			"-0.024": 0.0,
			"-0.023": 0.0,
			"-0.022": 0.0,
			"-0.021": 0.0,
			"-0.02": 0.0,
			"-0.019": 0.0,
			"-0.018": 0.0,
			"-0.017": 0.0,
			"-0.016": 0.0,
			"-0.015": 0.0,
			"-0.014": 0.0,
			"-0.013": 0.0,
			"-0.012": 0.0,
			"-0.011": 0.0,
			"-0.01": 0.0,
			"-0.009": 0.660958185671,
			"-0.008": 4.71360607489,
			"-0.007": 8.87027893139,
			"-0.006": 11.7784935341,
			"-0.005": 19.3255032859,
			"-0.004": 23.9543512367,
			"-0.003": 23.0213003013,
			"-0.002": 29.0871484171,
			"-0.001": 33.0713302298,
			"0.0": 18.3518125058,
			"0.001": 14.6296868346,
			"0.002": 13.2700594254,
			"0.003": 17.2381121305,
			"0.004": 14.612882752,
			"0.005": 7.48378966924,
			"0.006": 6.73770269736,
			"0.007": 6.07713975553,
			"0.008": 6.10298696167,
			"0.009": 4.99304069205,
			"0.01": 7.35022696043,
			"0.011": 3.76354219874,
			"0.012": 1.60439658614,
			"0.013": 0.968729096717,
			"0.014": 0.653246069881,
			"0.015": 0.452664119059,
			"0.016": 0.0,
			"0.017": 0.0,
			"0.018": 0.0,
			"0.019": 0.0,
			"0.02": 0.0,
			"0.021": 0.0,
			"0.022": 0.0,
			"0.023": 0.0,
			"0.024": 0.0,
			"0.025": 0.0
		}
	}
}
