{
	 "smiles": "[H][C@@]12CC[C@](O)(C(=O)CO)[C@@]1(C)C[C@H](O)[C@@]1([H])[C@@]2([H])CCC2=CC(=O)CC[C@]12C", 
	 "Tm": 496.15, 
	 "num_atms": 56, 
	 "gaussian": { 
		 "optdone": 1, 
		 "sigma_profile": "yes", 
		 "theory": "DFT", 
		 "functional": "B3LYP", 
		 "basiset": "6-31G**", 
		 "properties": { 
			 "R2extent": 11133.6094, 
			 "electric_dipole_moment_norm": 2.31238593881, 
			 "electric_quadrupole_moment_norm": 48.2348895172, 
			 "total_energy": -1194.41033875, 
			 "HOMO_LUMO_gap": 0.18725, 
			 "cosmo_polarized_energy": -24.13, 
			 "cosmo_cavitation_energy": 49.07, 
			 "cosmo_dispersion_energy": -34.05, 
			 "cosmo_repulsion_energy": 2.48, 
			 "cosmo_total_nonelectrostatic_energy": 17.5, 
			 "SMD_solvation_energy": 8.1 
		},
		"coords": [
			{
				"x": 0.143488053,
				"y": -2.0379724148,
				"z": 0.3736484537,
				"element": "C" 
			},
			{
				"x": 0.0498360656,
				"y": -3.1833090603,
				"z": 1.3961871114,
				"element": "C" 
			},
			{
				"x": 1.1560024201,
				"y": -2.8514274472,
				"z": 2.4385125773,
				"element": "C" 
			},
			{
				"x": 1.7157494253,
				"y": -1.4492956936,
				"z": 2.0714375144,
				"element": "C" 
			},
			{
				"x": 2.8763222498,
				"y": -1.68576971,
				"z": 1.2643814453,
				"element": "O" 
			},
			{
				"x": 2.1214197945,
				"y": -0.6469173212,
				"z": 3.3098790689,
				"element": "C" 
			},
			{
				"x": 1.4581466671,
				"y": -0.6311187233,
				"z": 4.3355873942,
				"element": "O" 
			},
			{
				"x": 3.4147181609,
				"y": 0.1634221214,
				"z": 3.2767675486,
				"element": "C" 
			},
			{
				"x": 3.5686491314,
				"y": 0.9135084591,
				"z": 4.4456195398,
				"element": "O" 
			},
			{
				"x": 0.5334159348,
				"y": -0.8038865634,
				"z": 1.2312825309,
				"element": "C" 
			},
			{
				"x": -0.5973585215,
				"y": -0.3494603925,
				"z": 2.1806157754,
				"element": "C" 
			},
			{
				"x": 0.9305254292,
				"y": 0.3363135437,
				"z": 0.2770645491,
				"element": "C" 
			},
			{
				"x": -0.1472245419,
				"y": 0.6569610429,
				"z": -0.7907530746,
				"element": "C" 
			},
			{
				"x": -1.2737564397,
				"y": 1.334228838,
				"z": -0.232668905,
				"element": "O" 
			},
			{
				"x": -0.6315958615,
				"y": -0.6050274327,
				"z": -1.5419799378,
				"element": "C" 
			},
			{
				"x": -1.0194847882,
				"y": -1.7820952383,
				"z": -0.5955411536,
				"element": "C" 
			},
			{
				"x": -1.3383938858,
				"y": -3.0593716883,
				"z": -1.4005903937,
				"element": "C" 
			},
			{
				"x": -2.3364936165,
				"y": -2.8327712823,
				"z": -2.5588229035,
				"element": "C" 
			},
			{
				"x": -1.8371612936,
				"y": -1.6858440474,
				"z": -3.395854454,
				"element": "C" 
			},
			{
				"x": -1.3898789083,
				"y": -1.8766070115,
				"z": -4.6549088944,
				"element": "C" 
			},
			{
				"x": -0.631815081,
				"y": -0.8719743353,
				"z": -5.4232959094,
				"element": "C" 
			},
			{
				"x": -0.2777448092,
				"y": -1.0692727048,
				"z": -6.577654929,
				"element": "O" 
			},
			{
				"x": -0.2436937889,
				"y": 0.3846672714,
				"z": -4.6559078001,
				"element": "C" 
			},
			{
				"x": -1.3323256573,
				"y": 0.7715532416,
				"z": -3.6517619228,
				"element": "C" 
			},
			{
				"x": -1.7228807882,
				"y": -0.3515600554,
				"z": -2.6579196949,
				"element": "C" 
			},
			{
				"x": -3.1113891793,
				"y": 0.035985111,
				"z": -2.0811526735,
				"element": "C" 
			},
			{
				"x": 1.0241132744,
				"y": -2.2542710641,
				"z": -0.2480776598,
				"element": "H" 
			},
			{
				"x": -0.9375117019,
				"y": -3.2081086574,
				"z": 1.870717061,
				"element": "H" 
			},
			{
				"x": 0.2074431049,
				"y": -4.1618428898,
				"z": 0.935312211,
				"element": "H" 
			},
			{
				"x": 0.76794746,
				"y": -2.8395965791,
				"z": 3.4584875758,
				"element": "H" 
			},
			{
				"x": 1.9862415022,
				"y": -3.5609470732,
				"z": 2.4031357262,
				"element": "H" 
			},
			{
				"x": 3.1297287182,
				"y": -0.8664319947,
				"z": 0.8196150312,
				"element": "H" 
			},
			{
				"x": 4.246766192,
				"y": -0.5423036347,
				"z": 3.1250212666,
				"element": "H" 
			},
			{
				"x": 3.4045634118,
				"y": 0.8218124868,
				"z": 2.3901062028,
				"element": "H" 
			},
			{
				"x": 2.8278075141,
				"y": 0.6427468471,
				"z": 5.0180479503,
				"element": "H" 
			},
			{
				"x": -1.4897532984,
				"y": -0.0828298668,
				"z": 1.6158988023,
				"element": "H" 
			},
			{
				"x": -0.2936907772,
				"y": 0.536605544,
				"z": 2.7461810522,
				"element": "H" 
			},
			{
				"x": -0.8547716032,
				"y": -1.113566427,
				"z": 2.9157140629,
				"element": "H" 
			},
			{
				"x": 1.8377696819,
				"y": 0.0648284465,
				"z": -0.2798552538,
				"element": "H" 
			},
			{
				"x": 1.1623971142,
				"y": 1.2627670079,
				"z": 0.8232076078,
				"element": "H" 
			},
			{
				"x": 0.3344698747,
				"y": 1.316790092,
				"z": -1.5287736776,
				"element": "H" 
			},
			{
				"x": -0.951173122,
				"y": 2.1000467676,
				"z": 0.2601831505,
				"element": "H" 
			},
			{
				"x": 0.2640916501,
				"y": -0.9495250163,
				"z": -2.0816247306,
				"element": "H" 
			},
			{
				"x": -1.9111761279,
				"y": -1.5037468302,
				"z": -0.0213333034,
				"element": "H" 
			},
			{
				"x": -1.7246096008,
				"y": -3.8343522423,
				"z": -0.7291223552,
				"element": "H" 
			},
			{
				"x": -0.4032141756,
				"y": -3.4482633875,
				"z": -1.8266975727,
				"element": "H" 
			},
			{
				"x": -3.3312749415,
				"y": -2.6197156264,
				"z": -2.1507532307,
				"element": "H" 
			},
			{
				"x": -2.421181376,
				"y": -3.7423034985,
				"z": -3.1618205014,
				"element": "H" 
			},
			{
				"x": -1.5084791164,
				"y": -2.8414981147,
				"z": -5.1436130598,
				"element": "H" 
			},
			{
				"x": 0.7093493844,
				"y": 0.176694416,
				"z": -4.148157315,
				"element": "H" 
			},
			{
				"x": -0.0480258761,
				"y": 1.1854291997,
				"z": -5.374748575,
				"element": "H" 
			},
			{
				"x": -2.2357755671,
				"y": 1.0295248706,
				"z": -4.2186799303,
				"element": "H" 
			},
			{
				"x": -1.0598092462,
				"y": 1.678194454,
				"z": -3.1031016697,
				"element": "H" 
			},
			{
				"x": -3.86941031,
				"y": -0.0462131482,
				"z": -2.8679443421,
				"element": "H" 
			},
			{
				"x": -3.426513903,
				"y": -0.5933218631,
				"z": -1.2473259214,
				"element": "H" 
			},
			{
				"x": -3.09109431,
				"y": 1.0639392748,
				"z": -1.7195694646,
				"element": "H" 
			}
		],
		 "valence_orbital": [ 
			{
				"type": "occ",
				"energy": -0.28149,
				"method": "rhf"
			},
			{
				"type": "occ",
				"energy": -0.27394,
				"method": "rhf"
			},
			{
				"type": "occ",
				"energy": -0.25999,
				"method": "rhf"
			},
			{
				"type": "occ",
				"energy": -0.25294,
				"method": "rhf"
			},
			{
				"type": "occ",
				"energy": -0.23147,
				"method": "rhf"
			},
			{
				"type": "unocc",
				"energy": -0.04422,
				"method": "rhf"
			},
			{
				"type": "unocc",
				"energy": -0.0388,
				"method": "rhf"
			},
			{
				"type": "unocc",
				"energy": 0.03592,
				"method": "rhf"
			},
			{
				"type": "unocc",
				"energy": 0.05005,
				"method": "rhf"
			},
			{
				"type": "unocc",
				"energy": 0.0608,
				"method": "rhf"
			}
		],
		"cosmo_sigma_profile": { 
			"-0.025": 0.0,
			"-0.024": 0.0,
			"-0.023": 0.0,
			"-0.022": 0.0,
			"-0.021": 0.0,
			"-0.02": 0.0,
			"-0.019": 0.0,
			"-0.018": 0.0,
			"-0.017": 0.0,
			"-0.016": 0.0071661332232,
			"-0.015": 1.1187378599,
			"-0.014": 2.16689892117,
			"-0.013": 1.94300085037,
			"-0.012": 2.6267418888,
			"-0.011": 1.73703732833,
			"-0.01": 2.17549085789,
			"-0.009": 3.35515437174,
			"-0.008": 3.52502006357,
			"-0.007": 4.27004439392,
			"-0.006": 5.67185639943,
			"-0.005": 15.9411125127,
			"-0.004": 31.5455227785,
			"-0.003": 45.3286903108,
			"-0.002": 48.5745452786,
			"-0.001": 47.4911971421,
			"0.0": 33.274478428,
			"0.001": 22.6292172484,
			"0.002": 18.5190674594,
			"0.003": 10.5510556436,
			"0.004": 8.06077403594,
			"0.005": 7.91855736999,
			"0.006": 6.44534741079,
			"0.007": 7.71327654821,
			"0.008": 7.36161510678,
			"0.009": 5.21407942159,
			"0.01": 6.69500765695,
			"0.011": 5.78021579808,
			"0.012": 6.11295400351,
			"0.013": 7.92120549438,
			"0.014": 5.47820421341,
			"0.015": 0.835656122973,
			"0.016": 0.0,
			"0.017": 0.0,
			"0.018": 0.0,
			"0.019": 0.0,
			"0.02": 0.0,
			"0.021": 0.0,
			"0.022": 0.0,
			"0.023": 0.0,
			"0.024": 0.0,
			"0.025": 0.0
		}
	}
}
