{
	 "smiles": "FC1=CC(N=C=O)=C2OCOCC2=C1", 
	 "Tm": 358.65, 
	 "num_atms": 20, 
	 "gaussian": { 
		 "optdone": 1, 
		 "sigma_profile": "yes", 
		 "theory": "DFT", 
		 "functional": "B3LYP", 
		 "basiset": "6-31G**", 
		 "properties": { 
			 "R2extent": 3067.6699, 
			 "electric_dipole_moment_norm": 2.88035136919, 
			 "electric_quadrupole_moment_norm": 8.30672542642, 
			 "total_energy": -726.808081241, 
			 "HOMO_LUMO_gap": 0.1938, 
			 "cosmo_polarized_energy": -7.88, 
			 "cosmo_cavitation_energy": 25.66, 
			 "cosmo_dispersion_energy": -18.82, 
			 "cosmo_repulsion_energy": 1.45, 
			 "cosmo_total_nonelectrostatic_energy": 8.29, 
			 "SMD_solvation_energy": 7.24 
		},
		"coords": [
			{
				"x": -2.2853954284,
				"y": -2.4336954455,
				"z": 0.2470573253,
				"element": "F" 
			},
			{
				"x": -1.3130251339,
				"y": -1.5691892285,
				"z": -0.1122271848,
				"element": "C" 
			},
			{
				"x": -1.1259346816,
				"y": -1.3018019828,
				"z": -1.4633627202,
				"element": "C" 
			},
			{
				"x": -0.1240384034,
				"y": -0.4054456308,
				"z": -1.8404170381,
				"element": "C" 
			},
			{
				"x": 0.0702379496,
				"y": -0.1227946245,
				"z": -3.1888046112,
				"element": "N" 
			},
			{
				"x": 0.8174904309,
				"y": 0.5919624294,
				"z": -3.8307008344,
				"element": "C" 
			},
			{
				"x": 1.4511653574,
				"y": 1.2179463518,
				"z": -4.597458779,
				"element": "O" 
			},
			{
				"x": 0.6723715879,
				"y": 0.203970252,
				"z": -0.8490678708,
				"element": "C" 
			},
			{
				"x": 1.637969975,
				"y": 1.0771358107,
				"z": -1.2727521573,
				"element": "O" 
			},
			{
				"x": 2.1574655997,
				"y": 1.8981063903,
				"z": -0.2254401109,
				"element": "C" 
			},
			{
				"x": 2.5274142747,
				"y": 1.1506685318,
				"z": 0.889934904,
				"element": "O" 
			},
			{
				"x": 1.3911423348,
				"y": 0.5587848225,
				"z": 1.5194833482,
				"element": "C" 
			},
			{
				"x": 0.4782311424,
				"y": -0.0928169988,
				"z": 0.5025062693,
				"element": "C" 
			},
			{
				"x": -0.5317356252,
				"y": -0.9863891403,
				"z": 0.8751284143,
				"element": "C" 
			},
			{
				"x": -1.747224196,
				"y": -1.7754242963,
				"z": -2.2134544461,
				"element": "H" 
			},
			{
				"x": 3.05274949,
				"y": 2.3717873739,
				"z": -0.6273046049,
				"element": "H" 
			},
			{
				"x": 1.3948013208,
				"y": 2.6510931836,
				"z": 0.0336913896,
				"element": "H" 
			},
			{
				"x": 0.8459643995,
				"y": 1.3164965694,
				"z": 2.1058826807,
				"element": "H" 
			},
			{
				"x": 1.7870622427,
				"y": -0.1828028409,
				"z": 2.2189520306,
				"element": "H" 
			},
			{
				"x": -0.7049126368,
				"y": -1.2397915272,
				"z": 1.9161539958,
				"element": "H" 
			}
		],
		 "valence_orbital": [ 
			{
				"type": "occ",
				"energy": -0.32134,
				"method": "rhf"
			},
			{
				"type": "occ",
				"energy": -0.31335,
				"method": "rhf"
			},
			{
				"type": "occ",
				"energy": -0.29384,
				"method": "rhf"
			},
			{
				"type": "occ",
				"energy": -0.25167,
				"method": "rhf"
			},
			{
				"type": "occ",
				"energy": -0.22641,
				"method": "rhf"
			},
			{
				"type": "unocc",
				"energy": -0.03261,
				"method": "rhf"
			},
			{
				"type": "unocc",
				"energy": -0.00513,
				"method": "rhf"
			},
			{
				"type": "unocc",
				"energy": 0.01502,
				"method": "rhf"
			},
			{
				"type": "unocc",
				"energy": 0.07194,
				"method": "rhf"
			},
			{
				"type": "unocc",
				"energy": 0.0813,
				"method": "rhf"
			}
		],
		"cosmo_sigma_profile": { 
			"-0.025": 0.0,
			"-0.024": 0.0,
			"-0.023": 0.0,
			"-0.022": 0.0,
			"-0.021": 0.0,
			"-0.02": 0.0,
			"-0.019": 0.0,
			"-0.018": 0.0,
			"-0.017": 0.0,
			"-0.016": 0.0,
			"-0.015": 0.0,
			"-0.014": 0.0,
			"-0.013": 0.0,
			"-0.012": 0.0,
			"-0.011": 0.0,
			"-0.01": 0.0,
			"-0.009": 0.049344485271,
			"-0.008": 5.31731152793,
			"-0.007": 11.855821186,
			"-0.006": 15.4011475787,
			"-0.005": 11.9960718583,
			"-0.004": 9.33873776081,
			"-0.003": 10.7736236959,
			"-0.002": 13.0270782904,
			"-0.001": 11.5746043428,
			"0.0": 13.1910449119,
			"0.001": 21.6334061855,
			"0.002": 21.7009519197,
			"0.003": 11.9215324609,
			"0.004": 16.4958581352,
			"0.005": 10.6554517248,
			"0.006": 6.11042654001,
			"0.007": 8.77101631768,
			"0.008": 2.75126962178,
			"0.009": 1.15104147337,
			"0.01": 1.37731597321,
			"0.011": 1.63396561934,
			"0.012": 0.188761511492,
			"0.013": 0.0,
			"0.014": 0.0,
			"0.015": 0.0,
			"0.016": 0.0,
			"0.017": 0.0,
			"0.018": 0.0,
			"0.019": 0.0,
			"0.02": 0.0,
			"0.021": 0.0,
			"0.022": 0.0,
			"0.023": 0.0,
			"0.024": 0.0,
			"0.025": 0.0
		}
	}
}
