{
	 "smiles": "ClC1=C(C=CC(Br)=C1)N=[N+]=[N-]", 
	 "Tm": 334.15, 
	 "num_atms": 14, 
	 "gaussian": { 
		 "optdone": 1, 
		 "sigma_profile": "yes", 
		 "theory": "DFT", 
		 "functional": "B3LYP", 
		 "basiset": "6-31G**", 
		 "properties": { 
			 "R2extent": 3760.3122, 
			 "electric_dipole_moment_norm": 1.40047524077, 
			 "electric_quadrupole_moment_norm": 7.2329135402, 
			 "total_energy": -3426.22033739, 
			 "HOMO_LUMO_gap": 0.18508, 
			 "cosmo_polarized_energy": -4.38, 
			 "cosmo_cavitation_energy": 24.14, 
			 "cosmo_dispersion_energy": -18.01, 
			 "cosmo_repulsion_energy": 1.45, 
			 "cosmo_total_nonelectrostatic_energy": 7.59, 
			 "SMD_solvation_energy": 1.0 
		},
		"coords": [
			{
				"x": 2.3336685305,
				"y": 1.058262346,
				"z": 1.8343336372,
				"element": "Cl" 
			},
			{
				"x": 1.3174003383,
				"y": 0.3050838046,
				"z": 0.6214020453,
				"element": "C" 
			},
			{
				"x": 0.8580388969,
				"y": 1.0243407616,
				"z": -0.4988340993,
				"element": "C" 
			},
			{
				"x": 0.0969982875,
				"y": 0.3300755147,
				"z": -1.4548476793,
				"element": "C" 
			},
			{
				"x": -0.2196315949,
				"y": -1.0131095076,
				"z": -1.3036934482,
				"element": "C" 
			},
			{
				"x": 0.2311014081,
				"y": -1.6929024954,
				"z": -0.172178678,
				"element": "C" 
			},
			{
				"x": -0.1966294296,
				"y": -3.5353678732,
				"z": 0.0629843936,
				"element": "Br" 
			},
			{
				"x": 0.9989113264,
				"y": -1.0432369428,
				"z": 0.7887988894,
				"element": "C" 
			},
			{
				"x": 1.1113112006,
				"y": 2.3708592242,
				"z": -0.8215684006,
				"element": "N" 
			},
			{
				"x": 1.4226455481,
				"y": 3.2271091582,
				"z": 0.0207679466,
				"element": "N" 
			},
			{
				"x": 1.6964817186,
				"y": 4.1560542352,
				"z": 0.6206941003,
				"element": "N" 
			},
			{
				"x": -0.2459794344,
				"y": 0.8829258607,
				"z": -2.322606692,
				"element": "H" 
			},
			{
				"x": -0.8124059491,
				"y": -1.5248900519,
				"z": -2.0523967346,
				"element": "H" 
			},
			{
				"x": 1.360989153,
				"y": -1.5724040342,
				"z": 1.6613447196,
				"element": "H" 
			}
		],
		 "valence_orbital": [ 
			{
				"type": "occ",
				"energy": -0.31848,
				"method": "rhf"
			},
			{
				"type": "occ",
				"energy": -0.29979,
				"method": "rhf"
			},
			{
				"type": "occ",
				"energy": -0.29597,
				"method": "rhf"
			},
			{
				"type": "occ",
				"energy": -0.27311,
				"method": "rhf"
			},
			{
				"type": "occ",
				"energy": -0.23666,
				"method": "rhf"
			},
			{
				"type": "unocc",
				"energy": -0.05158,
				"method": "rhf"
			},
			{
				"type": "unocc",
				"energy": -0.047,
				"method": "rhf"
			},
			{
				"type": "unocc",
				"energy": -0.03534,
				"method": "rhf"
			},
			{
				"type": "unocc",
				"energy": -0.01298,
				"method": "rhf"
			},
			{
				"type": "unocc",
				"energy": 0.01874,
				"method": "rhf"
			}
		],
		"cosmo_sigma_profile": { 
			"-0.025": 0.0,
			"-0.024": 0.0,
			"-0.023": 0.0,
			"-0.022": 0.0,
			"-0.021": 0.0,
			"-0.02": 0.0,
			"-0.019": 0.0,
			"-0.018": 0.0,
			"-0.017": 0.0,
			"-0.016": 0.0,
			"-0.015": 0.0,
			"-0.014": 0.0,
			"-0.013": 0.0,
			"-0.012": 0.0,
			"-0.011": 0.0,
			"-0.01": 0.0,
			"-0.009": 0.384966140432,
			"-0.008": 4.38614827857,
			"-0.007": 6.05783832554,
			"-0.006": 6.37163886485,
			"-0.005": 7.98635913182,
			"-0.004": 11.2965037166,
			"-0.003": 12.0103832757,
			"-0.002": 12.6606415477,
			"-0.001": 15.4654688554,
			"0.0": 24.032181166,
			"0.001": 30.5658296986,
			"0.002": 19.5307407999,
			"0.003": 19.4639288132,
			"0.004": 17.5113100198,
			"0.005": 5.88509944736,
			"0.006": 4.91901831253,
			"0.007": 2.34663640803,
			"0.008": 0.598752106937,
			"0.009": 0.0,
			"0.01": 0.0,
			"0.011": 0.0,
			"0.012": 0.0,
			"0.013": 0.0,
			"0.014": 0.0,
			"0.015": 0.0,
			"0.016": 0.0,
			"0.017": 0.0,
			"0.018": 0.0,
			"0.019": 0.0,
			"0.02": 0.0,
			"0.021": 0.0,
			"0.022": 0.0,
			"0.023": 0.0,
			"0.024": 0.0,
			"0.025": 0.0
		}
	}
}
