{
	 "smiles": "COC(=O)C1=CC=C(O)C(N)=C1", 
	 "Tm": 416.15, 
	 "num_atms": 21, 
	 "gaussian": { 
		 "optdone": 1, 
		 "sigma_profile": "yes", 
		 "theory": "DFT", 
		 "functional": "B3LYP", 
		 "basiset": "6-31G**", 
		 "properties": { 
			 "R2extent": 3050.9423, 
			 "electric_dipole_moment_norm": 0.891616705765, 
			 "electric_quadrupole_moment_norm": 15.4590294129, 
			 "total_energy": -590.711792041, 
			 "HOMO_LUMO_gap": 0.19243, 
			 "cosmo_polarized_energy": -11.81, 
			 "cosmo_cavitation_energy": 25.43, 
			 "cosmo_dispersion_energy": -19.0, 
			 "cosmo_repulsion_energy": 1.53, 
			 "cosmo_total_nonelectrostatic_energy": 7.96, 
			 "SMD_solvation_energy": 6.64 
		},
		"coords": [
			{
				"x": 2.2213466797,
				"y": 4.647921653,
				"z": 1.5674964635,
				"element": "C" 
			},
			{
				"x": 1.9039231981,
				"y": 3.5620520024,
				"z": 0.6863512284,
				"element": "O" 
			},
			{
				"x": 1.2111346458,
				"y": 2.5435371143,
				"z": 1.2537317541,
				"element": "C" 
			},
			{
				"x": 0.8801187303,
				"y": 2.5458583405,
				"z": 2.4260179037,
				"element": "O" 
			},
			{
				"x": 0.9136168571,
				"y": 1.4534603937,
				"z": 0.2946834665,
				"element": "C" 
			},
			{
				"x": 1.3143640724,
				"y": 1.4899947622,
				"z": -1.051411043,
				"element": "C" 
			},
			{
				"x": 1.0109030519,
				"y": 0.4421660928,
				"z": -1.9118488653,
				"element": "C" 
			},
			{
				"x": 0.2971616194,
				"y": -0.6623240617,
				"z": -1.4297729364,
				"element": "C" 
			},
			{
				"x": -0.0097168595,
				"y": -1.6908015676,
				"z": -2.2435738878,
				"element": "O" 
			},
			{
				"x": -0.1111987545,
				"y": -0.7106690437,
				"z": -0.0782882989,
				"element": "C" 
			},
			{
				"x": -0.8384525606,
				"y": -1.9026591785,
				"z": 0.2899251155,
				"element": "N" 
			},
			{
				"x": 0.1988657477,
				"y": 0.3428960855,
				"z": 0.7695673099,
				"element": "C" 
			},
			{
				"x": 2.8368070299,
				"y": 4.3020540555,
				"z": 2.4020874713,
				"element": "H" 
			},
			{
				"x": 1.3104735265,
				"y": 5.0995150125,
				"z": 1.9691575823,
				"element": "H" 
			},
			{
				"x": 2.7700449565,
				"y": 5.3689713828,
				"z": 0.9611786681,
				"element": "H" 
			},
			{
				"x": 1.8662920128,
				"y": 2.3483443999,
				"z": -1.4168486975,
				"element": "H" 
			},
			{
				"x": 1.3144680539,
				"y": 0.4584172894,
				"z": -2.9530625923,
				"element": "H" 
			},
			{
				"x": -0.4996899346,
				"y": -2.313255219,
				"z": -1.6635211184,
				"element": "H" 
			},
			{
				"x": -1.7699112835,
				"y": -1.6792371523,
				"z": 0.630952706,
				"element": "H" 
			},
			{
				"x": -0.3627193954,
				"y": -2.4151184141,
				"z": 1.0281220761,
				"element": "H" 
			},
			{
				"x": -0.1045313939,
				"y": 0.3278760524,
				"z": 1.8122556941,
				"element": "H" 
			}
		],
		 "valence_orbital": [ 
			{
				"type": "occ",
				"energy": -0.29504,
				"method": "rhf"
			},
			{
				"type": "occ",
				"energy": -0.28493,
				"method": "rhf"
			},
			{
				"type": "occ",
				"energy": -0.26636,
				"method": "rhf"
			},
			{
				"type": "occ",
				"energy": -0.25666,
				"method": "rhf"
			},
			{
				"type": "occ",
				"energy": -0.22384,
				"method": "rhf"
			},
			{
				"type": "unocc",
				"energy": -0.03141,
				"method": "rhf"
			},
			{
				"type": "unocc",
				"energy": -0.00897,
				"method": "rhf"
			},
			{
				"type": "unocc",
				"energy": 0.06682,
				"method": "rhf"
			},
			{
				"type": "unocc",
				"energy": 0.07135,
				"method": "rhf"
			},
			{
				"type": "unocc",
				"energy": 0.1067,
				"method": "rhf"
			}
		],
		"cosmo_sigma_profile": { 
			"-0.025": 0.0,
			"-0.024": 0.0,
			"-0.023": 0.0,
			"-0.022": 0.0,
			"-0.021": 0.0,
			"-0.02": 0.0,
			"-0.019": 0.0,
			"-0.018": 0.0,
			"-0.017": 0.0,
			"-0.016": 0.0,
			"-0.015": 0.0,
			"-0.014": 0.0,
			"-0.013": 0.0207075636487,
			"-0.012": 2.15338992323,
			"-0.011": 3.0292250277,
			"-0.01": 3.42384184331,
			"-0.009": 3.44309849589,
			"-0.008": 3.41611788991,
			"-0.007": 3.47094366412,
			"-0.006": 10.1080134258,
			"-0.005": 14.3791845285,
			"-0.004": 14.5818084587,
			"-0.003": 15.1528637914,
			"-0.002": 12.4995927184,
			"-0.001": 11.1574627606,
			"0.0": 11.4945626383,
			"0.001": 11.8524997892,
			"0.002": 15.6254530525,
			"0.003": 16.7102760032,
			"0.004": 14.1743899018,
			"0.005": 5.97123916104,
			"0.006": 5.32764199479,
			"0.007": 3.17804718864,
			"0.008": 3.27263322266,
			"0.009": 3.15646165522,
			"0.01": 3.60362460488,
			"0.011": 4.03634943809,
			"0.012": 5.06986127314,
			"0.013": 1.56527692035,
			"0.014": 0.0,
			"0.015": 0.0,
			"0.016": 0.0,
			"0.017": 0.0,
			"0.018": 0.0,
			"0.019": 0.0,
			"0.02": 0.0,
			"0.021": 0.0,
			"0.022": 0.0,
			"0.023": 0.0,
			"0.024": 0.0,
			"0.025": 0.0
		}
	}
}
