{
	 "smiles": "COC1=CC=C2[C@H]3CC4=C5C(O[C@@H]1[C@@]25CCN3C)=C(OC)C=C4", 
	 "Tm": 466.15, 
	 "num_atms": 44, 
	 "gaussian": { 
		 "optdone": 1, 
		 "sigma_profile": "yes", 
		 "theory": "DFT", 
		 "functional": "B3LYP", 
		 "basiset": "6-31G**", 
		 "properties": { 
			 "R2extent": 6650.2583, 
			 "electric_dipole_moment_norm": 1.25636750197, 
			 "electric_quadrupole_moment_norm": 10.8741005577, 
			 "total_energy": -1017.01420695, 
			 "HOMO_LUMO_gap": 0.16769, 
			 "cosmo_polarized_energy": -11.41, 
			 "cosmo_cavitation_energy": 42.71, 
			 "cosmo_dispersion_energy": -30.25, 
			 "cosmo_repulsion_energy": 2.27, 
			 "cosmo_total_nonelectrostatic_energy": 14.73, 
			 "SMD_solvation_energy": 6.59 
		},
		"coords": [
			{
				"x": -3.5081124638,
				"y": 2.5339056374,
				"z": -1.6160809654,
				"element": "C" 
			},
			{
				"x": -2.3212339829,
				"y": 2.4392285931,
				"z": -2.4080522052,
				"element": "O" 
			},
			{
				"x": -1.2842658977,
				"y": 1.6543531713,
				"z": -1.9890363335,
				"element": "C" 
			},
			{
				"x": -0.0351772575,
				"y": 1.9928909384,
				"z": -2.3794206693,
				"element": "C" 
			},
			{
				"x": 1.1347629806,
				"y": 1.1675723659,
				"z": -2.1115444837,
				"element": "C" 
			},
			{
				"x": 1.0244305779,
				"y": -0.0164292256,
				"z": -1.4889456908,
				"element": "C" 
			},
			{
				"x": 2.1508934611,
				"y": -0.8581670333,
				"z": -0.9252004366,
				"element": "C" 
			},
			{
				"x": 2.262915478,
				"y": -0.6408698857,
				"z": 0.6179175104,
				"element": "C" 
			},
			{
				"x": 0.9140458208,
				"y": -0.4404551089,
				"z": 1.288410369,
				"element": "C" 
			},
			{
				"x": -0.2226125608,
				"y": -0.3135251272,
				"z": 0.4954594396,
				"element": "C" 
			},
			{
				"x": -1.416002358,
				"y": 0.2079907428,
				"z": 0.955314921,
				"element": "C" 
			},
			{
				"x": -2.3080624996,
				"y": 0.4797019996,
				"z": -0.0484748496,
				"element": "O" 
			},
			{
				"x": -1.5825614472,
				"y": 0.3278454798,
				"z": -1.3274061647,
				"element": "C" 
			},
			{
				"x": -0.3132603396,
				"y": -0.5199421465,
				"z": -1.0060081723,
				"element": "C" 
			},
			{
				"x": -0.4857195908,
				"y": -2.024793038,
				"z": -1.4127472578,
				"element": "C" 
			},
			{
				"x": 0.7902631251,
				"y": -2.5795274775,
				"z": -2.0491536909,
				"element": "C" 
			},
			{
				"x": 1.9306851627,
				"y": -2.3061116664,
				"z": -1.1841715436,
				"element": "N" 
			},
			{
				"x": 3.1448502836,
				"y": -2.9896865877,
				"z": -1.5939227249,
				"element": "C" 
			},
			{
				"x": -1.6039127788,
				"y": 0.4688807774,
				"z": 2.3176397714,
				"element": "C" 
			},
			{
				"x": -2.8212339267,
				"y": 0.955596368,
				"z": 2.7024590885,
				"element": "O" 
			},
			{
				"x": -3.0069053547,
				"y": 1.2508952511,
				"z": 4.0758965172,
				"element": "C" 
			},
			{
				"x": -0.5034849029,
				"y": 0.2346362616,
				"z": 3.1595780374,
				"element": "C" 
			},
			{
				"x": 0.7371207323,
				"y": -0.1816166466,
				"z": 2.6533435904,
				"element": "C" 
			},
			{
				"x": -4.1431375302,
				"y": 3.2545362805,
				"z": -2.1353635453,
				"element": "H" 
			},
			{
				"x": -4.0340232178,
				"y": 1.5771400258,
				"z": -1.5398445736,
				"element": "H" 
			},
			{
				"x": -3.2891153824,
				"y": 2.8894173671,
				"z": -0.6046991735,
				"element": "H" 
			},
			{
				"x": 0.0867153236,
				"y": 2.9220922469,
				"z": -2.9277476348,
				"element": "H" 
			},
			{
				"x": 2.1118922894,
				"y": 1.5621068326,
				"z": -2.3815133818,
				"element": "H" 
			},
			{
				"x": 3.0946694386,
				"y": -0.5343569035,
				"z": -1.3888991836,
				"element": "H" 
			},
			{
				"x": 2.8104682624,
				"y": -1.487056331,
				"z": 1.0491675157,
				"element": "H" 
			},
			{
				"x": 2.8667977894,
				"y": 0.2583226105,
				"z": 0.802697063,
				"element": "H" 
			},
			{
				"x": -2.2815674361,
				"y": -0.2203891002,
				"z": -1.9689746238,
				"element": "H" 
			},
			{
				"x": -0.7439603812,
				"y": -2.6182036985,
				"z": -0.5302210215,
				"element": "H" 
			},
			{
				"x": -1.3096770588,
				"y": -2.1206840287,
				"z": -2.1291468611,
				"element": "H" 
			},
			{
				"x": 0.7013031667,
				"y": -3.6657075537,
				"z": -2.1656856435,
				"element": "H" 
			},
			{
				"x": 0.9167373474,
				"y": -2.157744601,
				"z": -3.0659714771,
				"element": "H" 
			},
			{
				"x": 3.9353428385,
				"y": -2.8230074068,
				"z": -0.8543156223,
				"element": "H" 
			},
			{
				"x": 3.5296469727,
				"y": -2.6596012616,
				"z": -2.57885103,
				"element": "H" 
			},
			{
				"x": 2.963858726,
				"y": -4.0685727206,
				"z": -1.6468089434,
				"element": "H" 
			},
			{
				"x": -4.0285404594,
				"y": 1.6230333621,
				"z": 4.1693910198,
				"element": "H" 
			},
			{
				"x": -2.8908519137,
				"y": 0.357170077,
				"z": 4.7033583977,
				"element": "H" 
			},
			{
				"x": -2.3082345547,
				"y": 2.0233004415,
				"z": 4.4242134282,
				"element": "H" 
			},
			{
				"x": -0.5927947565,
				"y": 0.4290141665,
				"z": 4.2222659546,
				"element": "H" 
			},
			{
				"x": 1.5777482746,
				"y": -0.2668834478,
				"z": 3.3371952797,
				"element": "H" 
			}
		],
		 "valence_orbital": [ 
			{
				"type": "occ",
				"energy": -0.27672,
				"method": "rhf"
			},
			{
				"type": "occ",
				"energy": -0.2204,
				"method": "rhf"
			},
			{
				"type": "occ",
				"energy": -0.20435,
				"method": "rhf"
			},
			{
				"type": "occ",
				"energy": -0.19444,
				"method": "rhf"
			},
			{
				"type": "occ",
				"energy": -0.19039,
				"method": "rhf"
			},
			{
				"type": "unocc",
				"energy": -0.0227,
				"method": "rhf"
			},
			{
				"type": "unocc",
				"energy": 0.01682,
				"method": "rhf"
			},
			{
				"type": "unocc",
				"energy": 0.01824,
				"method": "rhf"
			},
			{
				"type": "unocc",
				"energy": 0.07273,
				"method": "rhf"
			},
			{
				"type": "unocc",
				"energy": 0.08755,
				"method": "rhf"
			}
		],
		"cosmo_sigma_profile": { 
			"-0.025": 0.0,
			"-0.024": 0.0,
			"-0.023": 0.0,
			"-0.022": 0.0,
			"-0.021": 0.0,
			"-0.02": 0.0,
			"-0.019": 0.0,
			"-0.018": 0.0,
			"-0.017": 0.0,
			"-0.016": 0.0,
			"-0.015": 0.0,
			"-0.014": 0.0,
			"-0.013": 0.0,
			"-0.012": 0.0,
			"-0.011": 0.0,
			"-0.01": 0.0,
			"-0.009": 0.0,
			"-0.008": 0.0,
			"-0.007": 1.65091908428,
			"-0.006": 8.86274477684,
			"-0.005": 22.4373218505,
			"-0.004": 33.9309566022,
			"-0.003": 44.5841817432,
			"-0.002": 39.6277302378,
			"-0.001": 36.8492749859,
			"0.0": 27.9758603174,
			"0.001": 14.8277497826,
			"0.002": 15.3407962386,
			"0.003": 16.5844131029,
			"0.004": 16.380938343,
			"0.005": 18.1605983782,
			"0.006": 12.7973584705,
			"0.007": 5.25821951598,
			"0.008": 4.50596980834,
			"0.009": 4.42865496628,
			"0.01": 4.985570793,
			"0.011": 4.35969331926,
			"0.012": 1.12589741816,
			"0.013": 0.347462547762,
			"0.014": 0.277022272119,
			"0.015": 0.0751655401143,
			"0.016": 0.0,
			"0.017": 0.0,
			"0.018": 0.0,
			"0.019": 0.0,
			"0.02": 0.0,
			"0.021": 0.0,
			"0.022": 0.0,
			"0.023": 0.0,
			"0.024": 0.0,
			"0.025": 0.0
		}
	}
}
