{
	 "smiles": "COC(=O)C(O)(C1=CC=CC=C1)C1=CC=CC=C1", 
	 "Tm": 348.55, 
	 "num_atms": 32, 
	 "gaussian": { 
		 "optdone": 1, 
		 "sigma_profile": "yes", 
		 "theory": "DFT", 
		 "functional": "B3LYP", 
		 "basiset": "6-31G**", 
		 "properties": { 
			 "R2extent": 4551.6283, 
			 "electric_dipole_moment_norm": 2.38864147163, 
			 "electric_quadrupole_moment_norm": 10.1361005584, 
			 "total_energy": -805.701168662, 
			 "HOMO_LUMO_gap": 0.22161, 
			 "cosmo_polarized_energy": -11.05, 
			 "cosmo_cavitation_energy": 35.29, 
			 "cosmo_dispersion_energy": -24.77, 
			 "cosmo_repulsion_energy": 1.94, 
			 "cosmo_total_nonelectrostatic_energy": 12.46, 
			 "SMD_solvation_energy": 7.47 
		},
		"coords": [
			{
				"x": -1.2870003668,
				"y": 1.9650486937,
				"z": 4.1107980639,
				"element": "C" 
			},
			{
				"x": -1.4410407356,
				"y": 1.236815263,
				"z": 2.8783961066,
				"element": "O" 
			},
			{
				"x": -0.4088739705,
				"y": 1.3347341832,
				"z": 2.010645179,
				"element": "C" 
			},
			{
				"x": 0.5881254642,
				"y": 1.9830678146,
				"z": 2.2327161709,
				"element": "O" 
			},
			{
				"x": -0.6593326958,
				"y": 0.4623998056,
				"z": 0.7542988873,
				"element": "C" 
			},
			{
				"x": -2.0526125319,
				"y": 0.2389427457,
				"z": 0.5932335489,
				"element": "O" 
			},
			{
				"x": -0.1725022144,
				"y": 1.2172793937,
				"z": -0.4932632742,
				"element": "C" 
			},
			{
				"x": -1.1022748311,
				"y": 1.800358958,
				"z": -1.3616850623,
				"element": "C" 
			},
			{
				"x": -0.6713408191,
				"y": 2.5025761637,
				"z": -2.4891180063,
				"element": "C" 
			},
			{
				"x": 0.6904355309,
				"y": 2.637372862,
				"z": -2.7574721239,
				"element": "C" 
			},
			{
				"x": 1.6212022574,
				"y": 2.061891921,
				"z": -1.8903477192,
				"element": "C" 
			},
			{
				"x": 1.1936952769,
				"y": 1.3548717043,
				"z": -0.7673706851,
				"element": "C" 
			},
			{
				"x": 0.0767277235,
				"y": -0.8867611618,
				"z": 0.9377519391,
				"element": "C" 
			},
			{
				"x": -0.4663406226,
				"y": -2.0191874643,
				"z": 0.3159004369,
				"element": "C" 
			},
			{
				"x": 0.1626530036,
				"y": -3.2583335884,
				"z": 0.4262317591,
				"element": "C" 
			},
			{
				"x": 1.342308419,
				"y": -3.3868991443,
				"z": 1.162891305,
				"element": "C" 
			},
			{
				"x": 1.8869461061,
				"y": -2.2647340379,
				"z": 1.7859975819,
				"element": "C" 
			},
			{
				"x": 1.2601033239,
				"y": -1.0207933825,
				"z": 1.675448312,
				"element": "C" 
			},
			{
				"x": -1.1589241445,
				"y": 3.0303284642,
				"z": 3.9072603264,
				"element": "H" 
			},
			{
				"x": -0.4166012789,
				"y": 1.6004329235,
				"z": 4.6612733503,
				"element": "H" 
			},
			{
				"x": -2.2022666502,
				"y": 1.7870278572,
				"z": 4.6744150407,
				"element": "H" 
			},
			{
				"x": -2.4102454038,
				"y": 0.0375895652,
				"z": 1.4689240507,
				"element": "H" 
			},
			{
				"x": -2.1595806907,
				"y": 1.6950070866,
				"z": -1.15296967,
				"element": "H" 
			},
			{
				"x": -1.4055145153,
				"y": 2.9445340151,
				"z": -3.1571755863,
				"element": "H" 
			},
			{
				"x": 1.0249325742,
				"y": 3.1838571013,
				"z": -3.6348155059,
				"element": "H" 
			},
			{
				"x": 2.6848096414,
				"y": 2.1591912067,
				"z": -2.0888842991,
				"element": "H" 
			},
			{
				"x": 1.9270308201,
				"y": 0.906484643,
				"z": -0.1074477519,
				"element": "H" 
			},
			{
				"x": -1.3863353495,
				"y": -1.9165597822,
				"z": -0.2485531776,
				"element": "H" 
			},
			{
				"x": -0.2709117211,
				"y": -4.1256897361,
				"z": -0.0639075533,
				"element": "H" 
			},
			{
				"x": 1.8304971389,
				"y": -4.3532551115,
				"z": 1.2509488453,
				"element": "H" 
			},
			{
				"x": 2.8022243604,
				"y": -2.3522064452,
				"z": 2.3647564063,
				"element": "H" 
			},
			{
				"x": 1.6962069013,
				"y": -0.1575925174,
				"z": 2.1671231047,
				"element": "H" 
			}
		],
		 "valence_orbital": [ 
			{
				"type": "occ",
				"energy": -0.27242,
				"method": "rhf"
			},
			{
				"type": "occ",
				"energy": -0.24983,
				"method": "rhf"
			},
			{
				"type": "occ",
				"energy": -0.246,
				"method": "rhf"
			},
			{
				"type": "occ",
				"energy": -0.23947,
				"method": "rhf"
			},
			{
				"type": "occ",
				"energy": -0.23454,
				"method": "rhf"
			},
			{
				"type": "unocc",
				"energy": -0.01293,
				"method": "rhf"
			},
			{
				"type": "unocc",
				"energy": -0.00819,
				"method": "rhf"
			},
			{
				"type": "unocc",
				"energy": 0.00438,
				"method": "rhf"
			},
			{
				"type": "unocc",
				"energy": 0.01131,
				"method": "rhf"
			},
			{
				"type": "unocc",
				"energy": 0.0144,
				"method": "rhf"
			}
		],
		"cosmo_sigma_profile": { 
			"-0.025": 0.0,
			"-0.024": 0.0,
			"-0.023": 0.0,
			"-0.022": 0.0,
			"-0.021": 0.0,
			"-0.02": 0.0,
			"-0.019": 0.0,
			"-0.018": 0.0,
			"-0.017": 0.0,
			"-0.016": 0.0,
			"-0.015": 0.0,
			"-0.014": 0.280548934769,
			"-0.013": 0.676048021746,
			"-0.012": 0.661577926468,
			"-0.011": 0.340885970743,
			"-0.01": 0.328430037267,
			"-0.009": 0.367917427709,
			"-0.008": 1.11478073373,
			"-0.007": 3.51955106743,
			"-0.006": 13.7656358456,
			"-0.005": 23.7814638527,
			"-0.004": 29.5007903724,
			"-0.003": 27.8243235857,
			"-0.002": 20.3806723853,
			"-0.001": 16.6385931914,
			"0.0": 17.0212755418,
			"0.001": 17.5677806446,
			"0.002": 18.46968959,
			"0.003": 17.3448493495,
			"0.004": 21.9442404699,
			"0.005": 20.8668755939,
			"0.006": 11.8444910279,
			"0.007": 3.97663531501,
			"0.008": 2.80451293033,
			"0.009": 2.70252278906,
			"0.01": 3.32122228004,
			"0.011": 3.90405394101,
			"0.012": 0.609091532155,
			"0.013": 0.0,
			"0.014": 0.0,
			"0.015": 0.0,
			"0.016": 0.0,
			"0.017": 0.0,
			"0.018": 0.0,
			"0.019": 0.0,
			"0.02": 0.0,
			"0.021": 0.0,
			"0.022": 0.0,
			"0.023": 0.0,
			"0.024": 0.0,
			"0.025": 0.0
		}
	}
}
