{
	 "smiles": "ClC1=C2C=C(Br)C=CC2=NC=C1", 
	 "Tm": 385.15, 
	 "num_atms": 17, 
	 "gaussian": { 
		 "optdone": 1, 
		 "sigma_profile": "yes", 
		 "theory": "DFT", 
		 "functional": "B3LYP", 
		 "basiset": "6-31G**", 
		 "properties": { 
			 "R2extent": 6629.9831, 
			 "electric_dipole_moment_norm": 1.08765588768, 
			 "electric_quadrupole_moment_norm": 7.07093624777, 
			 "total_energy": -3432.32356038, 
			 "HOMO_LUMO_gap": 0.16987, 
			 "cosmo_polarized_energy": -5.58, 
			 "cosmo_cavitation_energy": 25.44, 
			 "cosmo_dispersion_energy": -19.61, 
			 "cosmo_repulsion_energy": 1.54, 
			 "cosmo_total_nonelectrostatic_energy": 7.37, 
			 "SMD_solvation_energy": 1.32 
		},
		"coords": [
			{
				"x": 4.4959232404,
				"y": 0.7060184356,
				"z": -0.0717034012,
				"element": "Cl" 
			},
			{
				"x": 2.7853867092,
				"y": 0.5580425791,
				"z": -0.4219724012,
				"element": "C" 
			},
			{
				"x": 2.0758308744,
				"y": -0.6194099058,
				"z": -0.0532860151,
				"element": "C" 
			},
			{
				"x": 2.6578340231,
				"y": -1.7341104011,
				"z": 0.6025852206,
				"element": "C" 
			},
			{
				"x": 1.8752736619,
				"y": -2.8211895696,
				"z": 0.9119478805,
				"element": "C" 
			},
			{
				"x": 2.6534279262,
				"y": -4.3238772585,
				"z": 1.7951377267,
				"element": "Br" 
			},
			{
				"x": 0.4970667289,
				"y": -2.8641680908,
				"z": 0.5944707249,
				"element": "C" 
			},
			{
				"x": -0.0820366147,
				"y": -1.7919478255,
				"z": -0.0411504088,
				"element": "C" 
			},
			{
				"x": 0.6789583276,
				"y": -0.6423624399,
				"z": -0.3844402373,
				"element": "C" 
			},
			{
				"x": 0.0395691254,
				"y": 0.3834367529,
				"z": -1.013247541,
				"element": "N" 
			},
			{
				"x": 0.7524031381,
				"y": 1.4448766899,
				"z": -1.3276606082,
				"element": "C" 
			},
			{
				"x": 2.1348647541,
				"y": 1.5889376825,
				"z": -1.0558477181,
				"element": "C" 
			},
			{
				"x": 3.7105465565,
				"y": -1.7212657706,
				"z": 0.8542520448,
				"element": "H" 
			},
			{
				"x": -0.085914899,
				"y": -3.7398973396,
				"z": 0.8552485195,
				"element": "H" 
			},
			{
				"x": -1.1353570723,
				"y": -1.7886394021,
				"z": -0.300391426,
				"element": "H" 
			},
			{
				"x": 0.2271205462,
				"y": 2.2560320345,
				"z": -1.8296825058,
				"element": "H" 
			},
			{
				"x": 2.6625029738,
				"y": 2.491123829,
				"z": -1.3422598541,
				"element": "H" 
			}
		],
		 "valence_orbital": [ 
			{
				"type": "occ",
				"energy": -0.30018,
				"method": "rhf"
			},
			{
				"type": "occ",
				"energy": -0.29516,
				"method": "rhf"
			},
			{
				"type": "occ",
				"energy": -0.27186,
				"method": "rhf"
			},
			{
				"type": "occ",
				"energy": -0.26286,
				"method": "rhf"
			},
			{
				"type": "occ",
				"energy": -0.24219,
				"method": "rhf"
			},
			{
				"type": "unocc",
				"energy": -0.07232,
				"method": "rhf"
			},
			{
				"type": "unocc",
				"energy": -0.03651,
				"method": "rhf"
			},
			{
				"type": "unocc",
				"energy": -0.00108,
				"method": "rhf"
			},
			{
				"type": "unocc",
				"energy": 0.00286,
				"method": "rhf"
			},
			{
				"type": "unocc",
				"energy": 0.0172,
				"method": "rhf"
			}
		],
		"cosmo_sigma_profile": { 
			"-0.025": 0.0,
			"-0.024": 0.0,
			"-0.023": 0.0,
			"-0.022": 0.0,
			"-0.021": 0.0,
			"-0.02": 0.0,
			"-0.019": 0.0,
			"-0.018": 0.0,
			"-0.017": 0.0,
			"-0.016": 0.0,
			"-0.015": 0.0,
			"-0.014": 0.0,
			"-0.013": 0.0,
			"-0.012": 0.0,
			"-0.011": 0.0,
			"-0.01": 0.0,
			"-0.009": 0.611346962482,
			"-0.008": 3.60933513726,
			"-0.007": 8.58501138796,
			"-0.006": 8.82486709404,
			"-0.005": 8.43044127886,
			"-0.004": 7.94936807217,
			"-0.003": 11.7952618509,
			"-0.002": 12.468329385,
			"-0.001": 21.9247485753,
			"0.0": 29.9768471529,
			"0.001": 29.6083173418,
			"0.002": 20.1672508914,
			"0.003": 18.487575627,
			"0.004": 16.2689202912,
			"0.005": 2.94796235686,
			"0.006": 1.30879962814,
			"0.007": 1.41312270058,
			"0.008": 1.37855156721,
			"0.009": 0.794657544712,
			"0.01": 1.15405157279,
			"0.011": 0.498148479418,
			"0.012": 1.00255293473,
			"0.013": 0.657414957706,
			"0.014": 0.897432687911,
			"0.015": 0.618517507759,
			"0.016": 0.0236230268045,
			"0.017": 0.0,
			"0.018": 0.0,
			"0.019": 0.0,
			"0.02": 0.0,
			"0.021": 0.0,
			"0.022": 0.0,
			"0.023": 0.0,
			"0.024": 0.0,
			"0.025": 0.0
		}
	}
}
