{
	 "smiles": "CCC1=CC2=C(CCCC2)C=C1", 
	 "Tm": 203.15, 
	 "num_atms": 28, 
	 "gaussian": { 
		 "optdone": 1, 
		 "sigma_profile": "yes", 
		 "theory": "DFT", 
		 "functional": "B3LYP", 
		 "basiset": "6-31G**", 
		 "properties": { 
			 "R2extent": 2652.4119, 
			 "electric_dipole_moment_norm": 0.430415252983, 
			 "electric_quadrupole_moment_norm": 3.98726111009, 
			 "total_energy": -466.947522773, 
			 "HOMO_LUMO_gap": 0.231, 
			 "cosmo_polarized_energy": -3.0, 
			 "cosmo_cavitation_energy": 28.81, 
			 "cosmo_dispersion_energy": -21.12, 
			 "cosmo_repulsion_energy": 1.7, 
			 "cosmo_total_nonelectrostatic_energy": 9.4, 
			 "SMD_solvation_energy": 3.98 
		},
		"coords": [
			{
				"x": 2.5400790814,
				"y": -3.100623744,
				"z": 1.2901103199,
				"element": "C" 
			},
			{
				"x": 1.1808882324,
				"y": -2.937882174,
				"z": 1.9941726444,
				"element": "C" 
			},
			{
				"x": 0.2322672565,
				"y": -2.0257885392,
				"z": 1.2441094668,
				"element": "C" 
			},
			{
				"x": 0.2395332423,
				"y": -0.6416376896,
				"z": 1.4676352868,
				"element": "C" 
			},
			{
				"x": -0.6032084555,
				"y": 0.2162821668,
				"z": 0.7594062812,
				"element": "C" 
			},
			{
				"x": -1.4788019728,
				"y": -0.3092804935,
				"z": -0.2090398309,
				"element": "C" 
			},
			{
				"x": -2.357941599,
				"y": 0.6736943753,
				"z": -0.9428731854,
				"element": "C" 
			},
			{
				"x": -1.5384435204,
				"y": 1.8807775492,
				"z": -1.4569318655,
				"element": "C" 
			},
			{
				"x": -0.5682844936,
				"y": 2.4617895918,
				"z": -0.3863313416,
				"element": "C" 
			},
			{
				"x": -0.6339405457,
				"y": 1.7115203423,
				"z": 0.9647675166,
				"element": "C" 
			},
			{
				"x": -1.4875446268,
				"y": -1.685579301,
				"z": -0.4420730043,
				"element": "C" 
			},
			{
				"x": -0.6456299531,
				"y": -2.534415213,
				"z": 0.2790246265,
				"element": "C" 
			},
			{
				"x": 3.2011416524,
				"y": -3.7644726687,
				"z": 1.8577126034,
				"element": "H" 
			},
			{
				"x": 3.0423899121,
				"y": -2.1339036378,
				"z": 1.1802251769,
				"element": "H" 
			},
			{
				"x": 2.4134391597,
				"y": -3.5226573757,
				"z": 0.2877666538,
				"element": "H" 
			},
			{
				"x": 1.3447072464,
				"y": -2.5446699351,
				"z": 3.0049384027,
				"element": "H" 
			},
			{
				"x": 0.7188163143,
				"y": -3.9250036691,
				"z": 2.1164443129,
				"element": "H" 
			},
			{
				"x": 0.9151780072,
				"y": -0.2261372843,
				"z": 2.2138926421,
				"element": "H" 
			},
			{
				"x": -2.8791877996,
				"y": 0.1872603876,
				"z": -1.7743934168,
				"element": "H" 
			},
			{
				"x": -3.1401588682,
				"y": 1.0407944877,
				"z": -0.2616679088,
				"element": "H" 
			},
			{
				"x": -0.9621270044,
				"y": 1.5570897445,
				"z": -2.3301919992,
				"element": "H" 
			},
			{
				"x": -2.2265748817,
				"y": 2.6559030676,
				"z": -1.8115555301,
				"element": "H" 
			},
			{
				"x": 0.4596965775,
				"y": 2.4050523421,
				"z": -0.7599246714,
				"element": "H" 
			},
			{
				"x": -0.7763875994,
				"y": 3.5238233012,
				"z": -0.2164816928,
				"element": "H" 
			},
			{
				"x": 0.1838350564,
				"y": 2.0340738327,
				"z": 1.6181014308,
				"element": "H" 
			},
			{
				"x": -1.5667384034,
				"y": 1.9875277631,
				"z": 1.4787792406,
				"element": "H" 
			},
			{
				"x": -2.1607896004,
				"y": -2.0993714765,
				"z": -1.1897067691,
				"element": "H" 
			},
			{
				"x": -0.6700124147,
				"y": -3.6051657508,
				"z": 0.0888846105,
				"element": "H" 
			}
		],
		 "valence_orbital": [ 
			{
				"type": "occ",
				"energy": -0.3217,
				"method": "rhf"
			},
			{
				"type": "occ",
				"energy": -0.30769,
				"method": "rhf"
			},
			{
				"type": "occ",
				"energy": -0.29836,
				"method": "rhf"
			},
			{
				"type": "occ",
				"energy": -0.23376,
				"method": "rhf"
			},
			{
				"type": "occ",
				"energy": -0.22144,
				"method": "rhf"
			},
			{
				"type": "unocc",
				"energy": 0.00956,
				"method": "rhf"
			},
			{
				"type": "unocc",
				"energy": 0.01043,
				"method": "rhf"
			},
			{
				"type": "unocc",
				"energy": 0.0895,
				"method": "rhf"
			},
			{
				"type": "unocc",
				"energy": 0.10317,
				"method": "rhf"
			},
			{
				"type": "unocc",
				"energy": 0.12002,
				"method": "rhf"
			}
		],
		"cosmo_sigma_profile": { 
			"-0.025": 0.0,
			"-0.024": 0.0,
			"-0.023": 0.0,
			"-0.022": 0.0,
			"-0.021": 0.0,
			"-0.02": 0.0,
			"-0.019": 0.0,
			"-0.018": 0.0,
			"-0.017": 0.0,
			"-0.016": 0.0,
			"-0.015": 0.0,
			"-0.014": 0.0,
			"-0.013": 0.0,
			"-0.012": 0.0,
			"-0.011": 0.0,
			"-0.01": 0.0,
			"-0.009": 0.0,
			"-0.008": 0.0,
			"-0.007": 0.0,
			"-0.006": 0.0,
			"-0.005": 1.42137614457,
			"-0.004": 7.77349779602,
			"-0.003": 27.8349012942,
			"-0.002": 35.3807683019,
			"-0.001": 38.6733473746,
			"0.0": 36.6586132053,
			"0.001": 28.9765583746,
			"0.002": 12.5490754538,
			"0.003": 7.48094525934,
			"0.004": 7.10962827328,
			"0.005": 6.65935292925,
			"0.006": 6.33629749881,
			"0.007": 6.28823458483,
			"0.008": 1.30858424549,
			"0.009": 0.0,
			"0.01": 0.0,
			"0.011": 0.0,
			"0.012": 0.0,
			"0.013": 0.0,
			"0.014": 0.0,
			"0.015": 0.0,
			"0.016": 0.0,
			"0.017": 0.0,
			"0.018": 0.0,
			"0.019": 0.0,
			"0.02": 0.0,
			"0.021": 0.0,
			"0.022": 0.0,
			"0.023": 0.0,
			"0.024": 0.0,
			"0.025": 0.0
		}
	}
}
