{
	 "smiles": "CC1(C)C2CCC1(C)C(=O)C2(CC(Br)CC1=CC=CC=C1)C1(CC(Br)CC2=CC=CC=C2)C2CCC(C)(C1=O)C2(C)C", 
	 "Tm": 488.15, 
	 "num_atms": 90, 
	 "gaussian": { 
		 "optdone": 1, 
		 "sigma_profile": "yes", 
		 "theory": "DFT", 
		 "functional": "B3LYP", 
		 "basiset": "6-31G**", 
		 "properties": { 
			 "R2extent": 26297.2893, 
			 "electric_dipole_moment_norm": 2.25686179683, 
			 "electric_quadrupole_moment_norm": 8.46290166669, 
			 "total_energy": -6770.18564493, 
			 "HOMO_LUMO_gap": 0.20039, 
			 "cosmo_polarized_energy": -15.64, 
			 "cosmo_cavitation_energy": 77.74, 
			 "cosmo_dispersion_energy": -49.29, 
			 "cosmo_repulsion_energy": 3.54, 
			 "cosmo_total_nonelectrostatic_energy": 31.99, 
			 "SMD_solvation_energy": 10.53 
		},
		"coords": [
			{
				"x": -1.5342576762,
				"y": 3.2752117195,
				"z": 3.2854668163,
				"element": "C" 
			},
			{
				"x": -0.574027167,
				"y": 2.7834808136,
				"z": 2.1759869828,
				"element": "C" 
			},
			{
				"x": -0.43011974,
				"y": 4.0004411315,
				"z": 1.2354150243,
				"element": "C" 
			},
			{
				"x": -0.9881926435,
				"y": 1.3472709694,
				"z": 1.610444849,
				"element": "C" 
			},
			{
				"x": -0.911630176,
				"y": 0.5270700002,
				"z": 2.91538021,
				"element": "C" 
			},
			{
				"x": 0.3664500042,
				"y": 1.0842700657,
				"z": 3.6022775745,
				"element": "C" 
			},
			{
				"x": 0.8190042371,
				"y": 2.260062496,
				"z": 2.6866522529,
				"element": "C" 
			},
			{
				"x": 1.7844864896,
				"y": 3.2385013557,
				"z": 3.3359943659,
				"element": "C" 
			},
			{
				"x": 1.3275713416,
				"y": 1.7219244456,
				"z": 1.3300906905,
				"element": "C" 
			},
			{
				"x": 2.382427238,
				"y": 2.0496509829,
				"z": 0.8172422989,
				"element": "O" 
			},
			{
				"x": 0.1876921681,
				"y": 0.9324871939,
				"z": 0.6143967701,
				"element": "C" 
			},
			{
				"x": -0.1768227845,
				"y": 1.6381669207,
				"z": -0.7616946925,
				"element": "C" 
			},
			{
				"x": 0.8848180731,
				"y": 2.0290179835,
				"z": -1.8143963742,
				"element": "C" 
			},
			{
				"x": 0.8375624035,
				"y": 0.7709544349,
				"z": -3.3945492554,
				"element": "Br" 
			},
			{
				"x": 0.6790216547,
				"y": 3.4496050081,
				"z": -2.3680500968,
				"element": "C" 
			},
			{
				"x": 1.7762522742,
				"y": 3.9450165382,
				"z": -3.2856477493,
				"element": "C" 
			},
			{
				"x": 3.043067001,
				"y": 4.2465412252,
				"z": -2.7648886071,
				"element": "C" 
			},
			{
				"x": 4.064122261,
				"y": 4.7091687264,
				"z": -3.5945565195,
				"element": "C" 
			},
			{
				"x": 3.8313362861,
				"y": 4.8839965165,
				"z": -4.9607032676,
				"element": "C" 
			},
			{
				"x": 2.5733457436,
				"y": 4.5910794554,
				"z": -5.4886929369,
				"element": "C" 
			},
			{
				"x": 1.5548369787,
				"y": 4.1241131993,
				"z": -4.655840226,
				"element": "C" 
			},
			{
				"x": 0.5335395697,
				"y": -0.6554473721,
				"z": 0.3040889201,
				"element": "C" 
			},
			{
				"x": -0.6588518868,
				"y": -1.2716570499,
				"z": -0.5450395234,
				"element": "C" 
			},
			{
				"x": -2.0492231964,
				"y": -1.3724464351,
				"z": 0.1269618576,
				"element": "C" 
			},
			{
				"x": -3.4044097482,
				"y": -0.2693658349,
				"z": -0.886836309,
				"element": "Br" 
			},
			{
				"x": -2.5664019754,
				"y": -2.8181969036,
				"z": 0.2064687342,
				"element": "C" 
			},
			{
				"x": -3.8155709055,
				"y": -3.0101628759,
				"z": 1.0380615198,
				"element": "C" 
			},
			{
				"x": -3.7261915986,
				"y": -3.0176813368,
				"z": 2.4378492283,
				"element": "C" 
			},
			{
				"x": -4.8662391707,
				"y": -3.1872064179,
				"z": 3.2235901251,
				"element": "C" 
			},
			{
				"x": -6.1142884704,
				"y": -3.3574469031,
				"z": 2.6200891071,
				"element": "C" 
			},
			{
				"x": -6.2131968744,
				"y": -3.3570742191,
				"z": 1.2279332354,
				"element": "C" 
			},
			{
				"x": -5.071219867,
				"y": -3.1840341735,
				"z": 0.4439124454,
				"element": "C" 
			},
			{
				"x": 1.9564350884,
				"y": -0.8055067451,
				"z": -0.4222183202,
				"element": "C" 
			},
			{
				"x": 1.9244429166,
				"y": -2.0185198229,
				"z": -1.3870426892,
				"element": "C" 
			},
			{
				"x": 1.8690961703,
				"y": -3.2266052553,
				"z": -0.4085960553,
				"element": "C" 
			},
			{
				"x": 2.0595387571,
				"y": -2.5754531365,
				"z": 1.000752473,
				"element": "C" 
			},
			{
				"x": 2.4723604294,
				"y": -3.560994103,
				"z": 2.0840832585,
				"element": "C" 
			},
			{
				"x": 0.7516128426,
				"y": -1.8296919829,
				"z": 1.3500746079,
				"element": "C" 
			},
			{
				"x": -0.0268014718,
				"y": -2.239834167,
				"z": 2.1904564603,
				"element": "O" 
			},
			{
				"x": 2.9689204747,
				"y": -1.3588988467,
				"z": 0.6661327173,
				"element": "C" 
			},
			{
				"x": 4.3532346835,
				"y": -1.7093120001,
				"z": 0.0752746021,
				"element": "C" 
			},
			{
				"x": 3.2694886631,
				"y": -0.5210779416,
				"z": 1.9161974119,
				"element": "C" 
			},
			{
				"x": -1.1562655417,
				"y": 4.2043971988,
				"z": 3.7233711317,
				"element": "H" 
			},
			{
				"x": -2.5123196798,
				"y": 3.5000114775,
				"z": 2.8444322566,
				"element": "H" 
			},
			{
				"x": -1.6975511102,
				"y": 2.5752891478,
				"z": 4.1025433358,
				"element": "H" 
			},
			{
				"x": 0.4076047107,
				"y": 3.9348927726,
				"z": 0.5420116543,
				"element": "H" 
			},
			{
				"x": -0.2522394208,
				"y": 4.8950582001,
				"z": 1.840907001,
				"element": "H" 
			},
			{
				"x": -1.3466937286,
				"y": 4.1827341479,
				"z": 0.6640367101,
				"element": "H" 
			},
			{
				"x": -1.9676372772,
				"y": 1.3271999367,
				"z": 1.1274798179,
				"element": "H" 
			},
			{
				"x": -0.8514160069,
				"y": -0.5414333054,
				"z": 2.7508142654,
				"element": "H" 
			},
			{
				"x": -1.8034945227,
				"y": 0.6967386284,
				"z": 3.5224809936,
				"element": "H" 
			},
			{
				"x": 0.1577453808,
				"y": 1.4823585645,
				"z": 4.6003437441,
				"element": "H" 
			},
			{
				"x": 1.1388405805,
				"y": 0.3245870389,
				"z": 3.7388885614,
				"element": "H" 
			},
			{
				"x": 2.0763951195,
				"y": 4.0366472182,
				"z": 2.6485629081,
				"element": "H" 
			},
			{
				"x": 2.7028026186,
				"y": 2.7270774153,
				"z": 3.6422009233,
				"element": "H" 
			},
			{
				"x": 1.3390169951,
				"y": 3.6901779814,
				"z": 4.2282975683,
				"element": "H" 
			},
			{
				"x": -0.6804040593,
				"y": 2.5634133139,
				"z": -0.4985153312,
				"element": "H" 
			},
			{
				"x": -0.9667951993,
				"y": 1.0631382424,
				"z": -1.2388058277,
				"element": "H" 
			},
			{
				"x": 1.8986125728,
				"y": 1.9316557296,
				"z": -1.4380741945,
				"element": "H" 
			},
			{
				"x": 0.6273843608,
				"y": 4.1169679969,
				"z": -1.4985563094,
				"element": "H" 
			},
			{
				"x": -0.2955848861,
				"y": 3.5073360644,
				"z": -2.8643491432,
				"element": "H" 
			},
			{
				"x": 3.2292787549,
				"y": 4.1181922,
				"z": -1.7006271585,
				"element": "H" 
			},
			{
				"x": 5.0393261158,
				"y": 4.9385725213,
				"z": -3.1740773112,
				"element": "H" 
			},
			{
				"x": 4.6244378213,
				"y": 5.2480741974,
				"z": -5.6076260345,
				"element": "H" 
			},
			{
				"x": 2.3831845197,
				"y": 4.7245309224,
				"z": -6.5500073834,
				"element": "H" 
			},
			{
				"x": 0.5788705505,
				"y": 3.8911647725,
				"z": -5.0728465358,
				"element": "H" 
			},
			{
				"x": -0.7256071508,
				"y": -0.7597418869,
				"z": -1.5028040666,
				"element": "H" 
			},
			{
				"x": -0.3975195302,
				"y": -2.2961478017,
				"z": -0.8041705539,
				"element": "H" 
			},
			{
				"x": -2.0786228226,
				"y": -0.9232982143,
				"z": 1.1125506628,
				"element": "H" 
			},
			{
				"x": -2.7116119714,
				"y": -3.2027371517,
				"z": -0.8090046307,
				"element": "H" 
			},
			{
				"x": -1.7525633632,
				"y": -3.3982952127,
				"z": 0.6588064771,
				"element": "H" 
			},
			{
				"x": -2.7532351013,
				"y": -2.8982386199,
				"z": 2.9086182556,
				"element": "H" 
			},
			{
				"x": -4.7793347388,
				"y": -3.1943103673,
				"z": 4.3066786469,
				"element": "H" 
			},
			{
				"x": -7.0023352852,
				"y": -3.4940946379,
				"z": 3.2307750164,
				"element": "H" 
			},
			{
				"x": -7.1796886734,
				"y": -3.4921505478,
				"z": 0.7503421519,
				"element": "H" 
			},
			{
				"x": -5.1539626487,
				"y": -3.1796647592,
				"z": -0.6393751124,
				"element": "H" 
			},
			{
				"x": 2.295541763,
				"y": 0.1069198019,
				"z": -0.8979367106,
				"element": "H" 
			},
			{
				"x": 1.1025498909,
				"y": -1.9862352673,
				"z": -2.0982743699,
				"element": "H" 
			},
			{
				"x": 2.8323240026,
				"y": -2.032609232,
				"z": -1.9922319894,
				"element": "H" 
			},
			{
				"x": 2.6825380258,
				"y": -3.9381891858,
				"z": -0.5820723507,
				"element": "H" 
			},
			{
				"x": 0.9411501894,
				"y": -3.8046850279,
				"z": -0.4711618043,
				"element": "H" 
			},
			{
				"x": 3.416988847,
				"y": -4.0483877391,
				"z": 1.8218840764,
				"element": "H" 
			},
			{
				"x": 2.5929684832,
				"y": -3.073986806,
				"z": 3.0557141553,
				"element": "H" 
			},
			{
				"x": 1.7095898701,
				"y": -4.3356519435,
				"z": 2.2058572713,
				"element": "H" 
			},
			{
				"x": 4.342792219,
				"y": -2.4749705471,
				"z": -0.7001792211,
				"element": "H" 
			},
			{
				"x": 4.8086041522,
				"y": -0.8090950184,
				"z": -0.3526273482,
				"element": "H" 
			},
			{
				"x": 5.0197830427,
				"y": -2.0627239207,
				"z": 0.8686310931,
				"element": "H" 
			},
			{
				"x": 3.871087054,
				"y": -1.119362016,
				"z": 2.6089192364,
				"element": "H" 
			},
			{
				"x": 2.3764913141,
				"y": -0.2197441658,
				"z": 2.4615926103,
				"element": "H" 
			},
			{
				"x": 3.8300553661,
				"y": 0.3821002245,
				"z": 1.6726609454,
				"element": "H" 
			}
		],
		 "valence_orbital": [ 
			{
				"type": "occ",
				"energy": -0.24275,
				"method": "rhf"
			},
			{
				"type": "occ",
				"energy": -0.24198,
				"method": "rhf"
			},
			{
				"type": "occ",
				"energy": -0.2399,
				"method": "rhf"
			},
			{
				"type": "occ",
				"energy": -0.23773,
				"method": "rhf"
			},
			{
				"type": "occ",
				"energy": -0.23659,
				"method": "rhf"
			},
			{
				"type": "unocc",
				"energy": -0.0362,
				"method": "rhf"
			},
			{
				"type": "unocc",
				"energy": -0.02719,
				"method": "rhf"
			},
			{
				"type": "unocc",
				"energy": -0.0079,
				"method": "rhf"
			},
			{
				"type": "unocc",
				"energy": -0.00191,
				"method": "rhf"
			},
			{
				"type": "unocc",
				"energy": 0.00205,
				"method": "rhf"
			}
		],
		"cosmo_sigma_profile": { 
			"-0.025": 0.0,
			"-0.024": 0.0,
			"-0.023": 0.0,
			"-0.022": 0.0,
			"-0.021": 0.0,
			"-0.02": 0.0,
			"-0.019": 0.0,
			"-0.018": 0.0,
			"-0.017": 0.0,
			"-0.016": 0.0,
			"-0.015": 0.0,
			"-0.014": 0.0,
			"-0.013": 0.0,
			"-0.012": 0.0,
			"-0.011": 0.0,
			"-0.01": 0.0,
			"-0.009": 0.000968848593171,
			"-0.008": 0.297356279273,
			"-0.007": 0.837799741461,
			"-0.006": 6.24261824338,
			"-0.005": 26.6274877549,
			"-0.004": 49.8131984131,
			"-0.003": 79.0213985578,
			"-0.002": 76.026003728,
			"-0.001": 74.4134532223,
			"0.0": 68.7907345286,
			"0.001": 57.6935225482,
			"0.002": 33.8021892032,
			"0.003": 27.41949225,
			"0.004": 28.930148696,
			"0.005": 27.4241584029,
			"0.006": 29.4392055397,
			"0.007": 14.042164465,
			"0.008": 4.20607546288,
			"0.009": 2.58054726473,
			"0.01": 2.18821604661,
			"0.011": 1.97428000148,
			"0.012": 1.06511927982,
			"0.013": 0.0,
			"0.014": 0.0,
			"0.015": 0.0,
			"0.016": 0.0,
			"0.017": 0.0,
			"0.018": 0.0,
			"0.019": 0.0,
			"0.02": 0.0,
			"0.021": 0.0,
			"0.022": 0.0,
			"0.023": 0.0,
			"0.024": 0.0,
			"0.025": 0.0
		}
	}
}
