{
	 "smiles": "NCC1CC(O)CN1CC1=CC=CC=C1", 
	 "Tm": 328.15, 
	 "num_atms": 33, 
	 "gaussian": { 
		 "optdone": 1, 
		 "sigma_profile": "yes", 
		 "theory": "DFT", 
		 "functional": "B3LYP", 
		 "basiset": "6-31G**", 
		 "properties": { 
			 "R2extent": 4144.7174, 
			 "electric_dipole_moment_norm": 1.46169863173, 
			 "electric_quadrupole_moment_norm": 6.57401613171, 
			 "total_energy": -652.821979713, 
			 "HOMO_LUMO_gap": 0.21431, 
			 "cosmo_polarized_energy": -13.03, 
			 "cosmo_cavitation_energy": 33.74, 
			 "cosmo_dispersion_energy": -23.93, 
			 "cosmo_repulsion_energy": 1.91, 
			 "cosmo_total_nonelectrostatic_energy": 11.72, 
			 "SMD_solvation_energy": 2.79 
		},
		"coords": [
			{
				"x": -2.1331083799,
				"y": -2.4127885649,
				"z": 2.2577521517,
				"element": "N" 
			},
			{
				"x": -1.4403941591,
				"y": -1.2390273619,
				"z": 1.707025499,
				"element": "C" 
			},
			{
				"x": -0.7644332338,
				"y": -1.6266729324,
				"z": 0.3931685119,
				"element": "C" 
			},
			{
				"x": -1.7053775144,
				"y": -2.1338211311,
				"z": -0.7216495121,
				"element": "C" 
			},
			{
				"x": -0.8243794221,
				"y": -2.0730797815,
				"z": -1.9881758459,
				"element": "C" 
			},
			{
				"x": -0.2636526005,
				"y": -3.3340217183,
				"z": -2.3540994171,
				"element": "O" 
			},
			{
				"x": 0.3629373527,
				"y": -1.1590942555,
				"z": -1.5624682373,
				"element": "C" 
			},
			{
				"x": 0.0459588154,
				"y": -0.5644288252,
				"z": -0.2546301912,
				"element": "N" 
			},
			{
				"x": -0.5875469598,
				"y": 0.7580709318,
				"z": -0.3378821226,
				"element": "C" 
			},
			{
				"x": -0.3300060495,
				"y": 1.6449290575,
				"z": 0.8716840278,
				"element": "C" 
			},
			{
				"x": -1.2889587602,
				"y": 2.5804113918,
				"z": 1.2776194253,
				"element": "C" 
			},
			{
				"x": -1.0366638209,
				"y": 3.4484393392,
				"z": 2.342049105,
				"element": "C" 
			},
			{
				"x": 0.1819939711,
				"y": 3.3875395739,
				"z": 3.0194689759,
				"element": "C" 
			},
			{
				"x": 1.1435903968,
				"y": 2.4542533361,
				"z": 2.6237430653,
				"element": "C" 
			},
			{
				"x": 0.8900525189,
				"y": 1.5908766899,
				"z": 1.5575495024,
				"element": "C" 
			},
			{
				"x": -1.4467095307,
				"y": -3.1000449149,
				"z": 2.5633943703,
				"element": "H" 
			},
			{
				"x": -2.6492808545,
				"y": -2.1433844687,
				"z": 3.0912387397,
				"element": "H" 
			},
			{
				"x": -0.6887592952,
				"y": -0.7994323113,
				"z": 2.3806334251,
				"element": "H" 
			},
			{
				"x": -2.1943935977,
				"y": -0.4639641395,
				"z": 1.5287143931,
				"element": "H" 
			},
			{
				"x": -0.0555601293,
				"y": -2.4395947786,
				"z": 0.6167033379,
				"element": "H" 
			},
			{
				"x": -2.5693800313,
				"y": -1.4640220869,
				"z": -0.8136322553,
				"element": "H" 
			},
			{
				"x": -2.0904283232,
				"y": -3.1376051975,
				"z": -0.5276674259,
				"element": "H" 
			},
			{
				"x": -1.3769880271,
				"y": -1.6482422218,
				"z": -2.8389976559,
				"element": "H" 
			},
			{
				"x": -0.9867947928,
				"y": -3.9056879266,
				"z": -2.6417948859,
				"element": "H" 
			},
			{
				"x": 0.6046378739,
				"y": -0.386478939,
				"z": -2.2962026634,
				"element": "H" 
			},
			{
				"x": 1.2356986469,
				"y": -1.8160287736,
				"z": -1.4635857972,
				"element": "H" 
			},
			{
				"x": -1.6751739692,
				"y": 0.7178430069,
				"z": -0.5259144936,
				"element": "H" 
			},
			{
				"x": -0.1568289864,
				"y": 1.260340668,
				"z": -1.2131383866,
				"element": "H" 
			},
			{
				"x": -2.243078222,
				"y": 2.6295103044,
				"z": 0.7566637421,
				"element": "H" 
			},
			{
				"x": -1.7939745136,
				"y": 4.1664614222,
				"z": 2.6449662989,
				"element": "H" 
			},
			{
				"x": 0.3797910672,
				"y": 4.0584750628,
				"z": 3.8507396767,
				"element": "H" 
			},
			{
				"x": 2.0942523175,
				"y": 2.3991352481,
				"z": 3.147586252,
				"element": "H" 
			},
			{
				"x": 1.6246582126,
				"y": 0.8536342964,
				"z": 1.2495383901,
				"element": "H" 
			}
		],
		 "valence_orbital": [ 
			{
				"type": "occ",
				"energy": -0.25919,
				"method": "rhf"
			},
			{
				"type": "occ",
				"energy": -0.24389,
				"method": "rhf"
			},
			{
				"type": "occ",
				"energy": -0.23862,
				"method": "rhf"
			},
			{
				"type": "occ",
				"energy": -0.22925,
				"method": "rhf"
			},
			{
				"type": "occ",
				"energy": -0.21024,
				"method": "rhf"
			},
			{
				"type": "unocc",
				"energy": 0.00407,
				"method": "rhf"
			},
			{
				"type": "unocc",
				"energy": 0.00455,
				"method": "rhf"
			},
			{
				"type": "unocc",
				"energy": 0.07725,
				"method": "rhf"
			},
			{
				"type": "unocc",
				"energy": 0.08273,
				"method": "rhf"
			},
			{
				"type": "unocc",
				"energy": 0.0949,
				"method": "rhf"
			}
		],
		"cosmo_sigma_profile": { 
			"-0.025": 0.0,
			"-0.024": 0.0,
			"-0.023": 0.0,
			"-0.022": 0.0,
			"-0.021": 0.0,
			"-0.02": 0.0,
			"-0.019": 0.0,
			"-0.018": 0.0,
			"-0.017": 0.0,
			"-0.016": 0.0,
			"-0.015": 0.607848891576,
			"-0.014": 1.10313537457,
			"-0.013": 1.05705999356,
			"-0.012": 0.694515972761,
			"-0.011": 0.833531999223,
			"-0.01": 1.7143038733,
			"-0.009": 3.61084947913,
			"-0.008": 3.89026786396,
			"-0.007": 3.67252562105,
			"-0.006": 5.91391312295,
			"-0.005": 15.5741127398,
			"-0.004": 21.2278255772,
			"-0.003": 33.9296588188,
			"-0.002": 25.8965117234,
			"-0.001": 23.486390495,
			"0.0": 16.295196434,
			"0.001": 14.2842794342,
			"0.002": 14.3202733834,
			"0.003": 12.1658833887,
			"0.004": 11.4752936955,
			"0.005": 11.5273359594,
			"0.006": 10.8953364886,
			"0.007": 7.22314439263,
			"0.008": 3.66603471475,
			"0.009": 2.03583029282,
			"0.01": 2.58008043622,
			"0.011": 2.71340956782,
			"0.012": 2.98648102367,
			"0.013": 1.8164175776,
			"0.014": 2.39406617656,
			"0.015": 1.04941042439,
			"0.016": 0.567613232143,
			"0.017": 0.651000414837,
			"0.018": 0.350797197762,
			"0.019": 0.134320635671,
			"0.02": 0.0,
			"0.021": 0.0,
			"0.022": 0.0,
			"0.023": 0.0,
			"0.024": 0.0,
			"0.025": 0.0
		}
	}
}
