{
	 "smiles": "COC(=O)C1=CC=C(C=C1)S(=O)(=O)C1=CC=C(C=C1)C(=O)OC", 
	 "Tm": 469.15, 
	 "num_atms": 37, 
	 "gaussian": { 
		 "optdone": 1, 
		 "sigma_profile": "yes", 
		 "theory": "DFT", 
		 "functional": "B3LYP", 
		 "basiset": "6-31G**", 
		 "properties": { 
			 "R2extent": 12252.0704, 
			 "electric_dipole_moment_norm": 5.8015299439, 
			 "electric_quadrupole_moment_norm": 22.1862752951, 
			 "total_energy": -1467.62323888, 
			 "HOMO_LUMO_gap": 0.18937, 
			 "cosmo_polarized_energy": -19.03, 
			 "cosmo_cavitation_energy": 44.7, 
			 "cosmo_dispersion_energy": -31.86, 
			 "cosmo_repulsion_energy": 2.37, 
			 "cosmo_total_nonelectrostatic_energy": 15.22, 
			 "SMD_solvation_energy": 10.13 
		},
		"coords": [
			{
				"x": -2.1273817311,
				"y": -3.9884537268,
				"z": 4.6431062564,
				"element": "C" 
			},
			{
				"x": -1.5085536364,
				"y": -2.9424369457,
				"z": 3.8753870861,
				"element": "O" 
			},
			{
				"x": -2.2880494686,
				"y": -2.3902386297,
				"z": 2.9217456857,
				"element": "C" 
			},
			{
				"x": -3.4320646779,
				"y": -2.7382941231,
				"z": 2.7073946654,
				"element": "O" 
			},
			{
				"x": -1.5840976463,
				"y": -1.3100479243,
				"z": 2.1656728249,
				"element": "C" 
			},
			{
				"x": -2.2988131629,
				"y": -0.6556407198,
				"z": 1.1533153868,
				"element": "C" 
			},
			{
				"x": -1.6963754218,
				"y": 0.3579082088,
				"z": 0.4140061801,
				"element": "C" 
			},
			{
				"x": -0.3730645314,
				"y": 0.7050432403,
				"z": 0.6960921096,
				"element": "C" 
			},
			{
				"x": 0.3493443366,
				"y": 0.0722161378,
				"z": 1.7095128726,
				"element": "C" 
			},
			{
				"x": -0.2613811072,
				"y": -0.9404753522,
				"z": 2.4459119679,
				"element": "C" 
			},
			{
				"x": 0.4148622814,
				"y": 2.0212594636,
				"z": -0.2550379579,
				"element": "S" 
			},
			{
				"x": -0.6555416814,
				"y": 2.8806667635,
				"z": -0.7834601694,
				"element": "O" 
			},
			{
				"x": 1.5135369326,
				"y": 2.5556771003,
				"z": 0.5647452705,
				"element": "O" 
			},
			{
				"x": 1.1598849888,
				"y": 1.1662444292,
				"z": -1.6592553977,
				"element": "C" 
			},
			{
				"x": 2.474330783,
				"y": 0.7068322654,
				"z": -1.5563943497,
				"element": "C" 
			},
			{
				"x": 3.0496911791,
				"y": 0.0507615168,
				"z": -2.6423558759,
				"element": "C" 
			},
			{
				"x": 2.3103818696,
				"y": -0.1386696496,
				"z": -3.8180668583,
				"element": "C" 
			},
			{
				"x": 0.9964933202,
				"y": 0.3402556003,
				"z": -3.9087002645,
				"element": "C" 
			},
			{
				"x": 0.4148385997,
				"y": 0.9976764693,
				"z": -2.8287287243,
				"element": "C" 
			},
			{
				"x": 2.8757942784,
				"y": -0.836893691,
				"z": -5.0125563447,
				"element": "C" 
			},
			{
				"x": 2.2662686568,
				"y": -1.0198031297,
				"z": -6.0473915805,
				"element": "O" 
			},
			{
				"x": 4.1466828129,
				"y": -1.2465971165,
				"z": -4.8151862096,
				"element": "O" 
			},
			{
				"x": 4.7521167381,
				"y": -1.9244849945,
				"z": -5.9289237332,
				"element": "C" 
			},
			{
				"x": -1.3708158637,
				"y": -4.3162937213,
				"z": 5.355475355,
				"element": "H" 
			},
			{
				"x": -3.0096536347,
				"y": -3.6098095287,
				"z": 5.1647665543,
				"element": "H" 
			},
			{
				"x": -2.4286652394,
				"y": -4.8136596757,
				"z": 3.9933113055,
				"element": "H" 
			},
			{
				"x": -3.3251828765,
				"y": -0.9521266536,
				"z": 0.9668620785,
				"element": "H" 
			},
			{
				"x": -2.2435577024,
				"y": 0.8913337693,
				"z": -0.3553554184,
				"element": "H" 
			},
			{
				"x": 1.3634799319,
				"y": 0.3884185874,
				"z": 1.9273135918,
				"element": "H" 
			},
			{
				"x": 0.2786083987,
				"y": -1.441919296,
				"z": 3.240304461,
				"element": "H" 
			},
			{
				"x": 3.0383033229,
				"y": 0.884083618,
				"z": -0.647319194,
				"element": "H" 
			},
			{
				"x": 4.0699271271,
				"y": -0.3099202435,
				"z": -2.5865273376,
				"element": "H" 
			},
			{
				"x": 0.4521845124,
				"y": 0.1923493707,
				"z": -4.83496003,
				"element": "H" 
			},
			{
				"x": -0.5915782268,
				"y": 1.3965234306,
				"z": -2.8913442212,
				"element": "H" 
			},
			{
				"x": 4.7844854604,
				"y": -1.2704565528,
				"z": -6.8036259789,
				"element": "H" 
			},
			{
				"x": 4.1874357966,
				"y": -2.8249905346,
				"z": -6.1822976848,
				"element": "H" 
			},
			{
				"x": 5.7598252814,
				"y": -2.1812377624,
				"z": -5.6034363214,
				"element": "H" 
			}
		],
		 "valence_orbital": [ 
			{
				"type": "occ",
				"energy": -0.28714,
				"method": "rhf"
			},
			{
				"type": "occ",
				"energy": -0.28703,
				"method": "rhf"
			},
			{
				"type": "occ",
				"energy": -0.28135,
				"method": "rhf"
			},
			{
				"type": "occ",
				"energy": -0.27773,
				"method": "rhf"
			},
			{
				"type": "occ",
				"energy": -0.27222,
				"method": "rhf"
			},
			{
				"type": "unocc",
				"energy": -0.08285,
				"method": "rhf"
			},
			{
				"type": "unocc",
				"energy": -0.06065,
				"method": "rhf"
			},
			{
				"type": "unocc",
				"energy": -0.03411,
				"method": "rhf"
			},
			{
				"type": "unocc",
				"energy": -0.0239,
				"method": "rhf"
			},
			{
				"type": "unocc",
				"energy": 0.01949,
				"method": "rhf"
			}
		],
		"cosmo_sigma_profile": { 
			"-0.025": 0.0,
			"-0.024": 0.0,
			"-0.023": 0.0,
			"-0.022": 0.0,
			"-0.021": 0.0,
			"-0.02": 0.0,
			"-0.019": 0.0,
			"-0.018": 0.0,
			"-0.017": 0.0,
			"-0.016": 0.0,
			"-0.015": 0.0,
			"-0.014": 0.0,
			"-0.013": 0.0,
			"-0.012": 0.0,
			"-0.011": 0.0,
			"-0.01": 0.0,
			"-0.009": 0.00935002428112,
			"-0.008": 3.51149789945,
			"-0.007": 14.7145010158,
			"-0.006": 27.6454986201,
			"-0.005": 25.5939240967,
			"-0.004": 29.8931814139,
			"-0.003": 30.3685075588,
			"-0.002": 25.3462888748,
			"-0.001": 27.0649746463,
			"0.0": 35.8162620884,
			"0.001": 38.146068999,
			"0.002": 15.4536381862,
			"0.003": 9.73343539614,
			"0.004": 9.68460937375,
			"0.005": 8.06947972958,
			"0.006": 5.89709971046,
			"0.007": 7.25858450607,
			"0.008": 4.71093938673,
			"0.009": 7.0771651302,
			"0.01": 10.9855686383,
			"0.011": 15.6883358532,
			"0.012": 5.98010238798,
			"0.013": 0.0,
			"0.014": 0.0,
			"0.015": 0.0,
			"0.016": 0.0,
			"0.017": 0.0,
			"0.018": 0.0,
			"0.019": 0.0,
			"0.02": 0.0,
			"0.021": 0.0,
			"0.022": 0.0,
			"0.023": 0.0,
			"0.024": 0.0,
			"0.025": 0.0
		}
	}
}
