{
	 "smiles": "OC(=O)CC1=CC=C(C=C1)C1=CC=CC=C1", 
	 "Tm": 434.15, 
	 "num_atms": 28, 
	 "gaussian": { 
		 "optdone": 1, 
		 "sigma_profile": "yes", 
		 "theory": "DFT", 
		 "functional": "B3LYP", 
		 "basiset": "6-31G**", 
		 "properties": { 
			 "R2extent": 5887.7856, 
			 "electric_dipole_moment_norm": 5.27467379939, 
			 "electric_quadrupole_moment_norm": 22.0493816167, 
			 "total_energy": -691.19017878, 
			 "HOMO_LUMO_gap": 0.19028, 
			 "cosmo_polarized_energy": -14.24, 
			 "cosmo_cavitation_energy": 32.37, 
			 "cosmo_dispersion_energy": -23.26, 
			 "cosmo_repulsion_energy": 1.8, 
			 "cosmo_total_nonelectrostatic_energy": 10.91, 
			 "SMD_solvation_energy": 6.37 
		},
		"coords": [
			{
				"x": 1.3884069162,
				"y": -1.5654521786,
				"z": 3.6582761029,
				"element": "O" 
			},
			{
				"x": 1.3315149534,
				"y": -2.9165609109,
				"z": 3.6699199998,
				"element": "C" 
			},
			{
				"x": 1.954867998,
				"y": -3.5579696791,
				"z": 4.4778839192,
				"element": "O" 
			},
			{
				"x": 0.4005697493,
				"y": -3.5769345734,
				"z": 2.6358341143,
				"element": "C" 
			},
			{
				"x": 0.0170111528,
				"y": -2.7240831297,
				"z": 1.448886305,
				"element": "C" 
			},
			{
				"x": -1.1079167402,
				"y": -1.8855168515,
				"z": 1.4926857153,
				"element": "C" 
			},
			{
				"x": -1.442175762,
				"y": -1.07185908,
				"z": 0.4107014054,
				"element": "C" 
			},
			{
				"x": -0.664126944,
				"y": -1.0652844633,
				"z": -0.758300824,
				"element": "C" 
			},
			{
				"x": 0.4618543082,
				"y": -1.9067797497,
				"z": -0.7991841034,
				"element": "C" 
			},
			{
				"x": 0.7955022565,
				"y": -2.7177846133,
				"z": 0.281639174,
				"element": "C" 
			},
			{
				"x": -1.0205239511,
				"y": -0.202535853,
				"z": -1.9130356827,
				"element": "C" 
			},
			{
				"x": -1.532200732,
				"y": 1.0913708973,
				"z": -1.7156288936,
				"element": "C" 
			},
			{
				"x": -1.8673621824,
				"y": 1.9013886003,
				"z": -2.7995874851,
				"element": "C" 
			},
			{
				"x": -1.6975670587,
				"y": 1.4351683693,
				"z": -4.1045976513,
				"element": "C" 
			},
			{
				"x": -1.1900450776,
				"y": 0.1518280229,
				"z": -4.3160976547,
				"element": "C" 
			},
			{
				"x": -0.8553690872,
				"y": -0.6583470817,
				"z": -3.2321079134,
				"element": "C" 
			},
			{
				"x": 0.8595624442,
				"y": -1.2249891003,
				"z": 2.9181350523,
				"element": "H" 
			},
			{
				"x": 0.8994142264,
				"y": -4.4983252729,
				"z": 2.324930442,
				"element": "H" 
			},
			{
				"x": -0.4938172622,
				"y": -3.8830292662,
				"z": 3.1923483847,
				"element": "H" 
			},
			{
				"x": -1.7442974706,
				"y": -1.887691172,
				"z": 2.3749411001,
				"element": "H" 
			},
			{
				"x": -2.3368287728,
				"y": -0.4587674873,
				"z": 0.4614287381,
				"element": "H" 
			},
			{
				"x": 1.0957855862,
				"y": -1.9067743178,
				"z": -1.6806827175,
				"element": "H" 
			},
			{
				"x": 1.6765559943,
				"y": -3.3519877245,
				"z": 0.2236276852,
				"element": "H" 
			},
			{
				"x": -1.6426991764,
				"y": 1.4742877572,
				"z": -0.7052885728,
				"element": "H" 
			},
			{
				"x": -2.2532070841,
				"y": 2.90157726,
				"z": -2.6242594621,
				"element": "H" 
			},
			{
				"x": -1.9582764094,
				"y": 2.066278918,
				"z": -4.9491016382,
				"element": "H" 
			},
			{
				"x": -1.0622562949,
				"y": -0.2235779705,
				"z": -5.3274036511,
				"element": "H" 
			},
			{
				"x": -0.4871755801,
				"y": -1.6648493494,
				"z": -3.4078618885,
				"element": "H" 
			}
		],
		 "valence_orbital": [ 
			{
				"type": "occ",
				"energy": -0.29212,
				"method": "rhf"
			},
			{
				"type": "occ",
				"energy": -0.27035,
				"method": "rhf"
			},
			{
				"type": "occ",
				"energy": -0.26392,
				"method": "rhf"
			},
			{
				"type": "occ",
				"energy": -0.25969,
				"method": "rhf"
			},
			{
				"type": "occ",
				"energy": -0.2342,
				"method": "rhf"
			},
			{
				"type": "unocc",
				"energy": -0.04392,
				"method": "rhf"
			},
			{
				"type": "unocc",
				"energy": -0.02513,
				"method": "rhf"
			},
			{
				"type": "unocc",
				"energy": -0.01093,
				"method": "rhf"
			},
			{
				"type": "unocc",
				"energy": 0.01277,
				"method": "rhf"
			},
			{
				"type": "unocc",
				"energy": 0.01802,
				"method": "rhf"
			}
		],
		"cosmo_sigma_profile": { 
			"-0.025": 0.0,
			"-0.024": 0.0,
			"-0.023": 0.0,
			"-0.022": 0.0,
			"-0.021": 0.0,
			"-0.02": 0.0,
			"-0.019": 0.0,
			"-0.018": 0.0,
			"-0.017": 0.0,
			"-0.016": 0.0,
			"-0.015": 0.0,
			"-0.014": 0.356437273475,
			"-0.013": 0.533942583262,
			"-0.012": 0.376213102261,
			"-0.011": 0.542739450092,
			"-0.01": 1.16264082673,
			"-0.009": 1.48307560592,
			"-0.008": 3.66378562665,
			"-0.007": 7.59369455306,
			"-0.006": 18.5573107074,
			"-0.005": 25.2566787611,
			"-0.004": 23.1264355471,
			"-0.003": 20.8919791096,
			"-0.002": 15.4549210625,
			"-0.001": 13.101550997,
			"0.0": 12.4175733371,
			"0.001": 14.9693373345,
			"0.002": 16.1805643695,
			"0.003": 17.6684356324,
			"0.004": 17.0573207947,
			"0.005": 14.2699744144,
			"0.006": 7.06054846419,
			"0.007": 2.82232083942,
			"0.008": 2.16754217498,
			"0.009": 3.20072223902,
			"0.01": 5.17270913871,
			"0.011": 4.52555950212,
			"0.012": 6.04009575189,
			"0.013": 2.93712444596,
			"0.014": 0.153503196011,
			"0.015": 0.0,
			"0.016": 0.0,
			"0.017": 0.0,
			"0.018": 0.0,
			"0.019": 0.0,
			"0.02": 0.0,
			"0.021": 0.0,
			"0.022": 0.0,
			"0.023": 0.0,
			"0.024": 0.0,
			"0.025": 0.0
		}
	}
}
