{
	 "smiles": "OC(O)C(F)(F)C(F)(F)C(F)(F)C(F)(F)C(F)(F)C(F)(F)C(F)(F)C(F)(F)F", 
	 "Tm": 365.65, 
	 "num_atms": 31, 
	 "gaussian": { 
		 "optdone": 1, 
		 "sigma_profile": "yes", 
		 "theory": "DFT", 
		 "functional": "B3LYP", 
		 "basiset": "6-31G**", 
		 "properties": { 
			 "R2extent": 10951.3606, 
			 "electric_dipole_moment_norm": 2.30416240313, 
			 "electric_quadrupole_moment_norm": 7.9693689173, 
			 "total_energy": -2192.41812572, 
			 "HOMO_LUMO_gap": 0.3155, 
			 "cosmo_polarized_energy": -9.38, 
			 "cosmo_cavitation_energy": 40.44, 
			 "cosmo_dispersion_energy": -26.56, 
			 "cosmo_repulsion_energy": 1.71, 
			 "cosmo_total_nonelectrostatic_energy": 15.59, 
			 "SMD_solvation_energy": 12.1 
		},
		"coords": [
			{
				"x": -5.2589884802,
				"y": -0.4159646139,
				"z": 1.3671189127,
				"element": "O" 
			},
			{
				"x": -3.9905727462,
				"y": -0.1538092878,
				"z": 0.8488472964,
				"element": "C" 
			},
			{
				"x": -3.3658457637,
				"y": -1.289442713,
				"z": 0.3210928821,
				"element": "O" 
			},
			{
				"x": -3.0685891085,
				"y": 0.3681266657,
				"z": 1.9695550301,
				"element": "C" 
			},
			{
				"x": -3.0706117269,
				"y": -0.5503852964,
				"z": 2.9823333087,
				"element": "F" 
			},
			{
				"x": -3.59066072,
				"y": 1.5214268196,
				"z": 2.4539892746,
				"element": "F" 
			},
			{
				"x": -1.5725665235,
				"y": 0.63525712,
				"z": 1.6355185418,
				"element": "C" 
			},
			{
				"x": -1.0253173649,
				"y": 1.2494587844,
				"z": 2.715925278,
				"element": "F" 
			},
			{
				"x": -0.937286777,
				"y": -0.5407455998,
				"z": 1.4413426379,
				"element": "F" 
			},
			{
				"x": -1.3307790211,
				"y": 1.5348745874,
				"z": 0.3966398919,
				"element": "C" 
			},
			{
				"x": -1.649578691,
				"y": 0.8397898583,
				"z": -0.7206390022,
				"element": "F" 
			},
			{
				"x": -2.1588696569,
				"y": 2.6081127045,
				"z": 0.4777119457,
				"element": "F" 
			},
			{
				"x": 0.1052011868,
				"y": 2.125663125,
				"z": 0.2135643478,
				"element": "C" 
			},
			{
				"x": 0.0804144697,
				"y": 2.7898839785,
				"z": -0.9691488044,
				"element": "F" 
			},
			{
				"x": 0.3328391947,
				"y": 3.0076570206,
				"z": 1.2070726502,
				"element": "F" 
			},
			{
				"x": 1.2768980293,
				"y": 1.1039522576,
				"z": 0.1732367224,
				"element": "C" 
			},
			{
				"x": 0.916205748,
				"y": 0.0459057015,
				"z": -0.591592301,
				"element": "F" 
			},
			{
				"x": 1.5115977681,
				"y": 0.6843166306,
				"z": 1.4376565169,
				"element": "F" 
			},
			{
				"x": 2.5911824878,
				"y": 1.6876775539,
				"z": -0.4206878247,
				"element": "C" 
			},
			{
				"x": 2.4544087214,
				"y": 1.7776912917,
				"z": -1.7608715131,
				"element": "F" 
			},
			{
				"x": 2.7844191731,
				"y": 2.927476875,
				"z": 0.0902717867,
				"element": "F" 
			},
			{
				"x": 3.8994288072,
				"y": 0.8928445128,
				"z": -0.1229416705,
				"element": "C" 
			},
			{
				"x": 4.1622958763,
				"y": 0.9584523719,
				"z": 1.1995901716,
				"element": "F" 
			},
			{
				"x": 4.8836173609,
				"y": 1.5300780146,
				"z": -0.7997163877,
				"element": "F" 
			},
			{
				"x": 3.9385838168,
				"y": -0.5944502722,
				"z": -0.5489429023,
				"element": "C" 
			},
			{
				"x": 5.1868346986,
				"y": -1.0532015212,
				"z": -0.4061827663,
				"element": "F" 
			},
			{
				"x": 3.5696131944,
				"y": -0.7279310895,
				"z": -1.8286665976,
				"element": "F" 
			},
			{
				"x": 3.1219584896,
				"y": -1.323435459,
				"z": 0.2226336595,
				"element": "F" 
			},
			{
				"x": -5.1425905071,
				"y": -1.0454216903,
				"z": 2.0959883603,
				"element": "H" 
			},
			{
				"x": -4.1284950552,
				"y": 0.6418211656,
				"z": 0.1075096442,
				"element": "H" 
			},
			{
				"x": -3.9213468801,
				"y": -1.6176794961,
				"z": -0.3988090893,
				"element": "H" 
			}
		],
		 "valence_orbital": [ 
			{
				"type": "occ",
				"energy": -0.36654,
				"method": "rhf"
			},
			{
				"type": "occ",
				"energy": -0.34785,
				"method": "rhf"
			},
			{
				"type": "occ",
				"energy": -0.34201,
				"method": "rhf"
			},
			{
				"type": "occ",
				"energy": -0.3336,
				"method": "rhf"
			},
			{
				"type": "occ",
				"energy": -0.30875,
				"method": "rhf"
			},
			{
				"type": "unocc",
				"energy": 0.00675,
				"method": "rhf"
			},
			{
				"type": "unocc",
				"energy": 0.01611,
				"method": "rhf"
			},
			{
				"type": "unocc",
				"energy": 0.03671,
				"method": "rhf"
			},
			{
				"type": "unocc",
				"energy": 0.03983,
				"method": "rhf"
			},
			{
				"type": "unocc",
				"energy": 0.06397,
				"method": "rhf"
			}
		],
		"cosmo_sigma_profile": { 
			"-0.025": 0.0,
			"-0.024": 0.0,
			"-0.023": 0.0,
			"-0.022": 0.0,
			"-0.021": 0.0,
			"-0.02": 0.0,
			"-0.019": 0.0,
			"-0.018": 0.528185362348,
			"-0.017": 1.10648436159,
			"-0.016": 1.42570088272,
			"-0.015": 1.80251465341,
			"-0.014": 1.91818579351,
			"-0.013": 1.26042035264,
			"-0.012": 0.696010345038,
			"-0.011": 1.64743872036,
			"-0.01": 2.06533761129,
			"-0.009": 2.25421220592,
			"-0.008": 3.18656358278,
			"-0.007": 2.92421875338,
			"-0.006": 3.1407252333,
			"-0.005": 3.40723936146,
			"-0.004": 4.79689634903,
			"-0.003": 7.88720135503,
			"-0.002": 14.2887060172,
			"-0.001": 24.9204464237,
			"0.0": 71.468981632,
			"0.001": 109.494313596,
			"0.002": 29.3778646413,
			"0.003": 9.50707201805,
			"0.004": 3.8588757736,
			"0.005": 2.67555089325,
			"0.006": 3.54195979674,
			"0.007": 3.06809205091,
			"0.008": 2.63133502981,
			"0.009": 3.21872235402,
			"0.01": 2.15165926057,
			"0.011": 1.96909006201,
			"0.012": 0.7065716649,
			"0.013": 0.0,
			"0.014": 0.0,
			"0.015": 0.0,
			"0.016": 0.0,
			"0.017": 0.0,
			"0.018": 0.0,
			"0.019": 0.0,
			"0.02": 0.0,
			"0.021": 0.0,
			"0.022": 0.0,
			"0.023": 0.0,
			"0.024": 0.0,
			"0.025": 0.0
		}
	}
}
