{
	 "smiles": "C1=CC=C(C=C1)N=C=NC1=CC=CC=C1", 
	 "Tm": 442.15, 
	 "num_atms": 25, 
	 "gaussian": { 
		 "optdone": 1, 
		 "sigma_profile": "yes", 
		 "theory": "DFT", 
		 "functional": "B3LYP", 
		 "basiset": "6-31G**", 
		 "properties": { 
			 "R2extent": 5241.854, 
			 "electric_dipole_moment_norm": 1.48846077207, 
			 "electric_quadrupole_moment_norm": 10.5448473635, 
			 "total_energy": -610.890824001, 
			 "HOMO_LUMO_gap": 0.19639, 
			 "cosmo_polarized_energy": -6.63, 
			 "cosmo_cavitation_energy": 30.94, 
			 "cosmo_dispersion_energy": -22.4, 
			 "cosmo_repulsion_energy": 1.76, 
			 "cosmo_total_nonelectrostatic_energy": 10.3, 
			 "SMD_solvation_energy": 5.56 
		},
		"coords": [
			{
				"x": -0.2570976749,
				"y": -5.2361127353,
				"z": 2.2829655811,
				"element": "C" 
			},
			{
				"x": 0.2971642929,
				"y": -3.9870045456,
				"z": 2.575885354,
				"element": "C" 
			},
			{
				"x": -0.0156006192,
				"y": -2.8756156003,
				"z": 1.7968147313,
				"element": "C" 
			},
			{
				"x": -0.8934076159,
				"y": -3.0091356012,
				"z": 0.7092056782,
				"element": "C" 
			},
			{
				"x": -1.4510620991,
				"y": -4.260145782,
				"z": 0.4166371956,
				"element": "C" 
			},
			{
				"x": -1.1310716097,
				"y": -5.3665707466,
				"z": 1.2017945036,
				"element": "C" 
			},
			{
				"x": -1.2534977967,
				"y": -1.9255689135,
				"z": -0.1114575474,
				"element": "N" 
			},
			{
				"x": -0.8746476612,
				"y": -0.7607991077,
				"z": -0.1329701504,
				"element": "C" 
			},
			{
				"x": -0.6913172109,
				"y": 0.4499399131,
				"z": -0.1677984247,
				"element": "N" 
			},
			{
				"x": 0.2139991223,
				"y": 1.235925865,
				"z": -0.902611509,
				"element": "C" 
			},
			{
				"x": 0.2360829911,
				"y": 2.6128531315,
				"z": -0.6473061445,
				"element": "C" 
			},
			{
				"x": 1.1113477232,
				"y": 3.4381701064,
				"z": -1.3514345448,
				"element": "C" 
			},
			{
				"x": 1.967993982,
				"y": 2.9007512137,
				"z": -2.3143078376,
				"element": "C" 
			},
			{
				"x": 1.9438355921,
				"y": 1.5270096577,
				"z": -2.5702875957,
				"element": "C" 
			},
			{
				"x": 1.0735562523,
				"y": 0.6938573487,
				"z": -1.8714141845,
				"element": "C" 
			},
			{
				"x": -0.0097903717,
				"y": -6.0992262145,
				"z": 2.8935426035,
				"element": "H" 
			},
			{
				"x": 0.976707853,
				"y": -3.8762988818,
				"z": 3.4161609656,
				"element": "H" 
			},
			{
				"x": 0.4116709958,
				"y": -1.9030772612,
				"z": 2.0245683389,
				"element": "H" 
			},
			{
				"x": -2.1299163123,
				"y": -4.3445162193,
				"z": -0.425489749,
				"element": "H" 
			},
			{
				"x": -1.5675309911,
				"y": -6.3332546217,
				"z": 0.9678529173,
				"element": "H" 
			},
			{
				"x": -0.4371383413,
				"y": 3.0151761161,
				"z": 0.1023931606,
				"element": "H" 
			},
			{
				"x": 1.1224621017,
				"y": 4.5048620954,
				"z": -1.1471100974,
				"element": "H" 
			},
			{
				"x": 2.6484674146,
				"y": 3.5456770142,
				"z": -2.8619915636,
				"element": "H" 
			},
			{
				"x": 2.6057677093,
				"y": 1.1008317604,
				"z": -3.3188307302,
				"element": "H" 
			},
			{
				"x": 1.0509222738,
				"y": -0.3738279915,
				"z": -2.0709109508,
				"element": "H" 
			}
		],
		 "valence_orbital": [ 
			{
				"type": "occ",
				"energy": -0.29771,
				"method": "rhf"
			},
			{
				"type": "occ",
				"energy": -0.2557,
				"method": "rhf"
			},
			{
				"type": "occ",
				"energy": -0.25561,
				"method": "rhf"
			},
			{
				"type": "occ",
				"energy": -0.22923,
				"method": "rhf"
			},
			{
				"type": "occ",
				"energy": -0.22374,
				"method": "rhf"
			},
			{
				"type": "unocc",
				"energy": -0.02735,
				"method": "rhf"
			},
			{
				"type": "unocc",
				"energy": -0.02352,
				"method": "rhf"
			},
			{
				"type": "unocc",
				"energy": -0.00503,
				"method": "rhf"
			},
			{
				"type": "unocc",
				"energy": -0.00479,
				"method": "rhf"
			},
			{
				"type": "unocc",
				"energy": 0.05286,
				"method": "rhf"
			}
		],
		"cosmo_sigma_profile": { 
			"-0.025": 0.0,
			"-0.024": 0.0,
			"-0.023": 0.0,
			"-0.022": 0.0,
			"-0.021": 0.0,
			"-0.02": 0.0,
			"-0.019": 0.0,
			"-0.018": 0.0,
			"-0.017": 0.0,
			"-0.016": 0.0,
			"-0.015": 0.0,
			"-0.014": 0.0,
			"-0.013": 0.0,
			"-0.012": 0.0,
			"-0.011": 0.0,
			"-0.01": 0.0,
			"-0.009": 0.0,
			"-0.008": 0.0,
			"-0.007": 1.70028994916,
			"-0.006": 17.0549168389,
			"-0.005": 21.7603971768,
			"-0.004": 25.0373328715,
			"-0.003": 18.9580979007,
			"-0.002": 16.2108446302,
			"-0.001": 14.0602313638,
			"0.0": 15.2444807612,
			"0.001": 17.1219805772,
			"0.002": 19.4366432555,
			"0.003": 24.7659198308,
			"0.004": 24.2872954705,
			"0.005": 22.4030096288,
			"0.006": 4.91466648851,
			"0.007": 2.82313118738,
			"0.008": 2.68012498783,
			"0.009": 1.55137207289,
			"0.01": 0.050226581247,
			"0.011": 0.0,
			"0.012": 0.0,
			"0.013": 0.0,
			"0.014": 0.0,
			"0.015": 0.0,
			"0.016": 0.0,
			"0.017": 0.0,
			"0.018": 0.0,
			"0.019": 0.0,
			"0.02": 0.0,
			"0.021": 0.0,
			"0.022": 0.0,
			"0.023": 0.0,
			"0.024": 0.0,
			"0.025": 0.0
		}
	}
}
