{
	 "smiles": "CC(C)(CS(O)(=O)=O)NC(=O)C=C", 
	 "Tm": 468.15, 
	 "num_atms": 26, 
	 "gaussian": { 
		 "optdone": 1, 
		 "sigma_profile": "yes", 
		 "theory": "DFT", 
		 "functional": "B3LYP", 
		 "basiset": "6-31G**", 
		 "properties": { 
			 "R2extent": 3592.3419, 
			 "electric_dipole_moment_norm": 6.12266060549, 
			 "electric_quadrupole_moment_norm": 9.21674400371, 
			 "total_energy": -1028.34490581, 
			 "HOMO_LUMO_gap": 0.21357, 
			 "cosmo_polarized_energy": -20.65, 
			 "cosmo_cavitation_energy": 30.06, 
			 "cosmo_dispersion_energy": -21.66, 
			 "cosmo_repulsion_energy": 1.66, 
			 "cosmo_total_nonelectrostatic_energy": 10.06, 
			 "SMD_solvation_energy": 5.38 
		},
		"coords": [
			{
				"x": 1.3160969176,
				"y": 0.8599537079,
				"z": 0.7602732378,
				"element": "C" 
			},
			{
				"x": 0.1047755715,
				"y": 0.0782460558,
				"z": 0.2213330152,
				"element": "C" 
			},
			{
				"x": 0.3921896894,
				"y": -1.4305066444,
				"z": 0.2316433171,
				"element": "C" 
			},
			{
				"x": -1.1976224872,
				"y": 0.4335796022,
				"z": 0.9973805905,
				"element": "C" 
			},
			{
				"x": -1.3820454997,
				"y": -0.1477367161,
				"z": 2.7011151754,
				"element": "S" 
			},
			{
				"x": -1.7861269594,
				"y": -1.7282525793,
				"z": 2.4267161522,
				"element": "O" 
			},
			{
				"x": -2.570986175,
				"y": 0.4808900468,
				"z": 3.2780094618,
				"element": "O" 
			},
			{
				"x": -0.1087479074,
				"y": -0.1240914586,
				"z": 3.4133585612,
				"element": "O" 
			},
			{
				"x": -0.1428192366,
				"y": 0.4487806758,
				"z": -1.1884632671,
				"element": "N" 
			},
			{
				"x": -0.4440487956,
				"y": 1.7077801878,
				"z": -1.6353555485,
				"element": "C" 
			},
			{
				"x": -0.6153444738,
				"y": 2.6705565454,
				"z": -0.8888815452,
				"element": "O" 
			},
			{
				"x": -0.5586259831,
				"y": 1.8720081334,
				"z": -3.1188811015,
				"element": "C" 
			},
			{
				"x": 0.094578976,
				"y": 1.1561807071,
				"z": -4.0375640637,
				"element": "C" 
			},
			{
				"x": 1.14257707,
				"y": 1.9343117609,
				"z": 0.680064201,
				"element": "H" 
			},
			{
				"x": 2.2032747788,
				"y": 0.6050541995,
				"z": 0.1728219369,
				"element": "H" 
			},
			{
				"x": 1.4977609885,
				"y": 0.6041830189,
				"z": 1.8054335249,
				"element": "H" 
			},
			{
				"x": 1.2543228136,
				"y": -1.6449667365,
				"z": -0.4084045012,
				"element": "H" 
			},
			{
				"x": 0.6301233532,
				"y": -1.7698510995,
				"z": 1.2409821692,
				"element": "H" 
			},
			{
				"x": -0.4665027522,
				"y": -2.0086507496,
				"z": -0.1256477113,
				"element": "H" 
			},
			{
				"x": -2.0760893285,
				"y": 0.0405981314,
				"z": 0.4805980728,
				"element": "H" 
			},
			{
				"x": -1.2979488824,
				"y": 1.5192639111,
				"z": 1.0659882184,
				"element": "H" 
			},
			{
				"x": -2.5596918521,
				"y": -1.9018518822,
				"z": 2.9901393656,
				"element": "H" 
			},
			{
				"x": -0.1859839973,
				"y": -0.3052748059,
				"z": -1.8577510718,
				"element": "H" 
			},
			{
				"x": -1.1827782037,
				"y": 2.7137528483,
				"z": -3.4062258295,
				"element": "H" 
			},
			{
				"x": 0.7758011523,
				"y": 0.3514609756,
				"z": -3.7727295443,
				"element": "H" 
			},
			{
				"x": -0.0052387771,
				"y": 1.3714821643,
				"z": -5.0969528159,
				"element": "H" 
			}
		],
		 "valence_orbital": [ 
			{
				"type": "occ",
				"energy": -0.31918,
				"method": "rhf"
			},
			{
				"type": "occ",
				"energy": -0.30445,
				"method": "rhf"
			},
			{
				"type": "occ",
				"energy": -0.29302,
				"method": "rhf"
			},
			{
				"type": "occ",
				"energy": -0.2679,
				"method": "rhf"
			},
			{
				"type": "occ",
				"energy": -0.25936,
				"method": "rhf"
			},
			{
				"type": "unocc",
				"energy": -0.04579,
				"method": "rhf"
			},
			{
				"type": "unocc",
				"energy": 0.03238,
				"method": "rhf"
			},
			{
				"type": "unocc",
				"energy": 0.05567,
				"method": "rhf"
			},
			{
				"type": "unocc",
				"energy": 0.06024,
				"method": "rhf"
			},
			{
				"type": "unocc",
				"energy": 0.07348,
				"method": "rhf"
			}
		],
		"cosmo_sigma_profile": { 
			"-0.025": 0.0,
			"-0.024": 0.0,
			"-0.023": 0.0,
			"-0.022": 0.0,
			"-0.021": 0.0,
			"-0.02": 0.200345563581,
			"-0.019": 1.05781515599,
			"-0.018": 1.10882189817,
			"-0.017": 0.451233046206,
			"-0.016": 0.581662430195,
			"-0.015": 1.12918611755,
			"-0.014": 1.02561587184,
			"-0.013": 1.56134357683,
			"-0.012": 1.63770948628,
			"-0.011": 2.294785965,
			"-0.01": 1.78057215047,
			"-0.009": 3.48922630813,
			"-0.008": 5.07833663114,
			"-0.007": 8.30144150091,
			"-0.006": 10.8524750607,
			"-0.005": 12.2530351439,
			"-0.004": 15.6334040659,
			"-0.003": 14.5890912766,
			"-0.002": 16.7817746384,
			"-0.001": 19.2916572463,
			"0.0": 19.9324486985,
			"0.001": 14.9509425143,
			"0.002": 10.254869719,
			"0.003": 8.54689769742,
			"0.004": 7.91227003465,
			"0.005": 6.1803502436,
			"0.006": 5.08494256767,
			"0.007": 6.68477003641,
			"0.008": 5.34324759066,
			"0.009": 7.33591719615,
			"0.01": 10.5886808398,
			"0.011": 7.15560968256,
			"0.012": 1.87551265287,
			"0.013": 2.41262592477,
			"0.014": 2.42100496985,
			"0.015": 0.513364918743,
			"0.016": 0.0,
			"0.017": 0.0,
			"0.018": 0.0,
			"0.019": 0.0,
			"0.02": 0.0,
			"0.021": 0.0,
			"0.022": 0.0,
			"0.023": 0.0,
			"0.024": 0.0,
			"0.025": 0.0
		}
	}
}
