{
	 "smiles": "CC1=NNC(=O)C(=C1)C1=NC=CN1CC1=CC=CC=C1", 
	 "Tm": 489.15, 
	 "num_atms": 34, 
	 "gaussian": { 
		 "optdone": 1, 
		 "sigma_profile": "yes", 
		 "theory": "DFT", 
		 "functional": "B3LYP", 
		 "basiset": "6-31G**", 
		 "properties": { 
			 "R2extent": 6788.2379, 
			 "electric_dipole_moment_norm": 2.30254024069, 
			 "electric_quadrupole_moment_norm": 13.8699006312, 
			 "total_energy": -874.250770504, 
			 "HOMO_LUMO_gap": 0.1449, 
			 "cosmo_polarized_energy": -15.68, 
			 "cosmo_cavitation_energy": 38.28, 
			 "cosmo_dispersion_energy": -26.82, 
			 "cosmo_repulsion_energy": 2.06, 
			 "cosmo_total_nonelectrostatic_energy": 13.53, 
			 "SMD_solvation_energy": 5.11 
		},
		"coords": [
			{
				"x": 2.3347130314,
				"y": 4.7800768335,
				"z": 0.3284709406,
				"element": "C" 
			},
			{
				"x": 1.7432373402,
				"y": 3.6885180826,
				"z": 1.179031888,
				"element": "C" 
			},
			{
				"x": 2.4577155175,
				"y": 3.2645246786,
				"z": 2.194156792,
				"element": "N" 
			},
			{
				"x": 1.9026369031,
				"y": 2.2893502222,
				"z": 2.9349832925,
				"element": "N" 
			},
			{
				"x": 0.6659451747,
				"y": 1.6646567576,
				"z": 2.8082803775,
				"element": "C" 
			},
			{
				"x": 0.3280551694,
				"y": 0.8204173188,
				"z": 3.6421740209,
				"element": "O" 
			},
			{
				"x": -0.096736464,
				"y": 2.1372772322,
				"z": 1.6479369327,
				"element": "C" 
			},
			{
				"x": 0.4575601865,
				"y": 3.1385351854,
				"z": 0.8877236706,
				"element": "C" 
			},
			{
				"x": -1.4664985996,
				"y": 1.7039766978,
				"z": 1.3423821996,
				"element": "C" 
			},
			{
				"x": -2.3381954252,
				"y": 2.5572086708,
				"z": 0.8069544229,
				"element": "N" 
			},
			{
				"x": -3.487433957,
				"y": 1.8498438343,
				"z": 0.6125171912,
				"element": "C" 
			},
			{
				"x": -3.3192037042,
				"y": 0.5482874414,
				"z": 1.0223938932,
				"element": "C" 
			},
			{
				"x": -2.031040706,
				"y": 0.4521129144,
				"z": 1.4931457122,
				"element": "N" 
			},
			{
				"x": -1.4228207226,
				"y": -0.8288811174,
				"z": 1.8838489959,
				"element": "C" 
			},
			{
				"x": -1.0997420641,
				"y": -1.7252628406,
				"z": 0.7027250258,
				"element": "C" 
			},
			{
				"x": -1.5988504435,
				"y": -3.031377086,
				"z": 0.654233708,
				"element": "C" 
			},
			{
				"x": -1.2797025514,
				"y": -3.8800105696,
				"z": -0.4084838215,
				"element": "C" 
			},
			{
				"x": -0.4602667671,
				"y": -3.4265174016,
				"z": -1.4416717102,
				"element": "C" 
			},
			{
				"x": 0.0408258012,
				"y": -2.1224017428,
				"z": -1.4041273575,
				"element": "C" 
			},
			{
				"x": -0.2736702537,
				"y": -1.2803342653,
				"z": -0.3388554196,
				"element": "C" 
			},
			{
				"x": 2.4469030918,
				"y": 4.4528365036,
				"z": -0.7113293649,
				"element": "H" 
			},
			{
				"x": 3.3154155992,
				"y": 5.062114588,
				"z": 0.714925352,
				"element": "H" 
			},
			{
				"x": 1.6896944372,
				"y": 5.6658017487,
				"z": 0.3227017664,
				"element": "H" 
			},
			{
				"x": 2.4495387118,
				"y": 1.995669095,
				"z": 3.7361922383,
				"element": "H" 
			},
			{
				"x": -0.1145790599,
				"y": 3.5305880273,
				"z": 0.0530887258,
				"element": "H" 
			},
			{
				"x": -4.3753194457,
				"y": 2.3102712107,
				"z": 0.2012684499,
				"element": "H" 
			},
			{
				"x": -3.9772515876,
				"y": -0.3074232665,
				"z": 1.0156258616,
				"element": "H" 
			},
			{
				"x": -0.5415056821,
				"y": -0.5999203895,
				"z": 2.4831564342,
				"element": "H" 
			},
			{
				"x": -2.1303538641,
				"y": -1.3322892994,
				"z": 2.549538937,
				"element": "H" 
			},
			{
				"x": -2.2406598759,
				"y": -3.3893873814,
				"z": 1.4558814757,
				"element": "H" 
			},
			{
				"x": -1.6760456325,
				"y": -4.891230532,
				"z": -0.4294466662,
				"element": "H" 
			},
			{
				"x": -0.2131574921,
				"y": -4.0823692162,
				"z": -2.2714432565,
				"element": "H" 
			},
			{
				"x": 0.6804366476,
				"y": -1.7624767165,
				"z": -2.2050984924,
				"element": "H" 
			},
			{
				"x": 0.1204566865,
				"y": -0.2677852182,
				"z": -0.3177822158,
				"element": "H" 
			}
		],
		 "valence_orbital": [ 
			{
				"type": "occ",
				"energy": -0.2581,
				"method": "rhf"
			},
			{
				"type": "occ",
				"energy": -0.25448,
				"method": "rhf"
			},
			{
				"type": "occ",
				"energy": -0.24978,
				"method": "rhf"
			},
			{
				"type": "occ",
				"energy": -0.24429,
				"method": "rhf"
			},
			{
				"type": "occ",
				"energy": -0.21444,
				"method": "rhf"
			},
			{
				"type": "unocc",
				"energy": -0.06954,
				"method": "rhf"
			},
			{
				"type": "unocc",
				"energy": -0.00969,
				"method": "rhf"
			},
			{
				"type": "unocc",
				"energy": -0.00502,
				"method": "rhf"
			},
			{
				"type": "unocc",
				"energy": -0.00248,
				"method": "rhf"
			},
			{
				"type": "unocc",
				"energy": 0.03159,
				"method": "rhf"
			}
		],
		"cosmo_sigma_profile": { 
			"-0.025": 0.0,
			"-0.024": 0.0,
			"-0.023": 0.0,
			"-0.022": 0.0,
			"-0.021": 0.0,
			"-0.02": 0.0,
			"-0.019": 0.0,
			"-0.018": 0.0,
			"-0.017": 0.0,
			"-0.016": 0.707798319989,
			"-0.015": 1.29054043354,
			"-0.014": 0.612340603308,
			"-0.013": 1.02844065541,
			"-0.012": 0.850546981278,
			"-0.011": 0.825220978367,
			"-0.01": 0.474208424796,
			"-0.009": 1.14498836332,
			"-0.008": 3.17933554606,
			"-0.007": 7.9080338548,
			"-0.006": 14.6631158448,
			"-0.005": 24.1454189083,
			"-0.004": 26.9695240141,
			"-0.003": 27.7137012454,
			"-0.002": 25.5424552715,
			"-0.001": 26.4776536441,
			"0.0": 19.9689301604,
			"0.001": 14.0363622553,
			"0.002": 16.38740176,
			"0.003": 18.2519510319,
			"0.004": 16.0140874871,
			"0.005": 15.6883047564,
			"0.006": 11.5757014035,
			"0.007": 4.02767069388,
			"0.008": 3.65294648892,
			"0.009": 4.9485802319,
			"0.01": 2.84831985384,
			"0.011": 3.78981657076,
			"0.012": 3.40752039825,
			"0.013": 4.98419820935,
			"0.014": 2.00544413431,
			"0.015": 0.677534622144,
			"0.016": 0.741465673531,
			"0.017": 0.124913672491,
			"0.018": 0.0,
			"0.019": 0.0,
			"0.02": 0.0,
			"0.021": 0.0,
			"0.022": 0.0,
			"0.023": 0.0,
			"0.024": 0.0,
			"0.025": 0.0
		}
	}
}
