{
	 "smiles": "[O-][N+](=O)C1=NN(C=C1)C1CCCCC1=O", 
	 "Tm": 402.15, 
	 "num_atms": 26, 
	 "gaussian": { 
		 "optdone": 1, 
		 "sigma_profile": "yes", 
		 "theory": "DFT", 
		 "functional": "B3LYP", 
		 "basiset": "6-31G**", 
		 "properties": { 
			 "R2extent": 4925.1758, 
			 "electric_dipole_moment_norm": 7.79837411644, 
			 "electric_quadrupole_moment_norm": 25.0262591543, 
			 "total_energy": -739.381486829, 
			 "HOMO_LUMO_gap": 0.18585, 
			 "cosmo_polarized_energy": -18.22, 
			 "cosmo_cavitation_energy": 30.13, 
			 "cosmo_dispersion_energy": -21.54, 
			 "cosmo_repulsion_energy": 1.71, 
			 "cosmo_total_nonelectrostatic_energy": 10.3, 
			 "SMD_solvation_energy": 7.1 
		},
		"coords": [
			{
				"x": 0.6041219512,
				"y": 4.3738862475,
				"z": 4.0122126477,
				"element": "O" 
			},
			{
				"x": 0.273886606,
				"y": 3.7995856126,
				"z": 2.9712217171,
				"element": "N" 
			},
			{
				"x": -0.5338917303,
				"y": 4.2181469873,
				"z": 2.1482556988,
				"element": "O" 
			},
			{
				"x": 0.9117111866,
				"y": 2.5222757557,
				"z": 2.7254497502,
				"element": "C" 
			},
			{
				"x": 0.62290931,
				"y": 1.8273952988,
				"z": 1.6300793896,
				"element": "N" 
			},
			{
				"x": 1.4038465833,
				"y": 0.7422562285,
				"z": 1.730360079,
				"element": "N" 
			},
			{
				"x": 2.1504407518,
				"y": 0.7328837841,
				"z": 2.8746824218,
				"element": "C" 
			},
			{
				"x": 1.8631685475,
				"y": 1.8969715321,
				"z": 3.5537017607,
				"element": "C" 
			},
			{
				"x": 1.2819139453,
				"y": -0.3310597085,
				"z": 0.7527349542,
				"element": "C" 
			},
			{
				"x": 0.9600932377,
				"y": 0.1843976043,
				"z": -0.657426426,
				"element": "C" 
			},
			{
				"x": 0.9709150873,
				"y": -0.9636369434,
				"z": -1.694034139,
				"element": "C" 
			},
			{
				"x": 0.5436820319,
				"y": -2.3301174755,
				"z": -1.1019685947,
				"element": "C" 
			},
			{
				"x": -0.4066181713,
				"y": -2.1762713268,
				"z": 0.0954274182,
				"element": "C" 
			},
			{
				"x": 0.2303698661,
				"y": -1.3746308287,
				"z": 1.2187095521,
				"element": "C" 
			},
			{
				"x": -0.0312561178,
				"y": -1.5291559069,
				"z": 2.3908218642,
				"element": "O" 
			},
			{
				"x": 2.8107362338,
				"y": -0.088519304,
				"z": 3.1089982627,
				"element": "H" 
			},
			{
				"x": 2.2622271842,
				"y": 2.2549450286,
				"z": 4.4880250031,
				"element": "H" 
			},
			{
				"x": 2.2497875206,
				"y": -0.8515714366,
				"z": 0.7393094906,
				"element": "H" 
			},
			{
				"x": 1.675214727,
				"y": 0.9643961129,
				"z": -0.9327422825,
				"element": "H" 
			},
			{
				"x": -0.0187894998,
				"y": 0.6698918783,
				"z": -0.6249274898,
				"element": "H" 
			},
			{
				"x": 0.3028863857,
				"y": -0.6878668749,
				"z": -2.5163937559,
				"element": "H" 
			},
			{
				"x": 1.9699192361,
				"y": -1.0619893205,
				"z": -2.1326227426,
				"element": "H" 
			},
			{
				"x": 1.4301873609,
				"y": -2.8870738639,
				"z": -0.7735522726,
				"element": "H" 
			},
			{
				"x": 0.0730700721,
				"y": -2.9467048482,
				"z": -1.8736953984,
				"element": "H" 
			},
			{
				"x": -0.7331447562,
				"y": -3.1367211442,
				"z": 0.5036893732,
				"element": "H" 
			},
			{
				"x": -1.3158875496,
				"y": -1.6366130887,
				"z": -0.2082162818,
				"element": "H" 
			}
		],
		 "valence_orbital": [ 
			{
				"type": "occ",
				"energy": -0.29681,
				"method": "rhf"
			},
			{
				"type": "occ",
				"energy": -0.286,
				"method": "rhf"
			},
			{
				"type": "occ",
				"energy": -0.28021,
				"method": "rhf"
			},
			{
				"type": "occ",
				"energy": -0.27437,
				"method": "rhf"
			},
			{
				"type": "occ",
				"energy": -0.25917,
				"method": "rhf"
			},
			{
				"type": "unocc",
				"energy": -0.07332,
				"method": "rhf"
			},
			{
				"type": "unocc",
				"energy": -0.04032,
				"method": "rhf"
			},
			{
				"type": "unocc",
				"energy": 0.00195,
				"method": "rhf"
			},
			{
				"type": "unocc",
				"energy": 0.05361,
				"method": "rhf"
			},
			{
				"type": "unocc",
				"energy": 0.0744,
				"method": "rhf"
			}
		],
		"cosmo_sigma_profile": { 
			"-0.025": 0.0,
			"-0.024": 0.0,
			"-0.023": 0.0,
			"-0.022": 0.0,
			"-0.021": 0.0,
			"-0.02": 0.0,
			"-0.019": 0.0,
			"-0.018": 0.0,
			"-0.017": 0.0,
			"-0.016": 0.0,
			"-0.015": 0.0,
			"-0.014": 0.0,
			"-0.013": 0.0,
			"-0.012": 0.232509954617,
			"-0.011": 1.99777699153,
			"-0.01": 4.32007309282,
			"-0.009": 4.84885125244,
			"-0.008": 5.89108265119,
			"-0.007": 6.98673173872,
			"-0.006": 9.36915255543,
			"-0.005": 13.4687745472,
			"-0.004": 19.9898139477,
			"-0.003": 28.2716017438,
			"-0.002": 20.4485332397,
			"-0.001": 18.3736154579,
			"0.0": 15.3861162442,
			"0.001": 8.76233332214,
			"0.002": 9.51441087818,
			"0.003": 5.72589008078,
			"0.004": 5.32646208956,
			"0.005": 5.68930223174,
			"0.006": 5.92947534611,
			"0.007": 9.55356832762,
			"0.008": 13.1302964978,
			"0.009": 8.13560688917,
			"0.01": 7.50862747217,
			"0.011": 5.24405353189,
			"0.012": 2.82844799136,
			"0.013": 1.03077595955,
			"0.014": 0.114171007763,
			"0.015": 0.0,
			"0.016": 0.0,
			"0.017": 0.0,
			"0.018": 0.0,
			"0.019": 0.0,
			"0.02": 0.0,
			"0.021": 0.0,
			"0.022": 0.0,
			"0.023": 0.0,
			"0.024": 0.0,
			"0.025": 0.0
		}
	}
}
