{
	 "smiles": "CC(=C)C(C)=O", 
	 "Tm": 219.15, 
	 "num_atms": 14, 
	 "gaussian": { 
		 "optdone": 1, 
		 "sigma_profile": "yes", 
		 "theory": "DFT", 
		 "functional": "B3LYP", 
		 "basiset": "6-31G**", 
		 "properties": { 
			 "R2extent": 819.7791, 
			 "electric_dipole_moment_norm": 2.88169166463, 
			 "electric_quadrupole_moment_norm": 2.92937134382, 
			 "total_energy": -270.558663658, 
			 "HOMO_LUMO_gap": 0.19527, 
			 "cosmo_polarized_energy": -6.94, 
			 "cosmo_cavitation_energy": 17.52, 
			 "cosmo_dispersion_energy": -12.51, 
			 "cosmo_repulsion_energy": 1.07, 
			 "cosmo_total_nonelectrostatic_energy": 6.08, 
			 "SMD_solvation_energy": 4.69 
		},
		"coords": [
			{
				"x": -0.9384026865,
				"y": -2.0412734554,
				"z": -1.8912093338,
				"element": "C" 
			},
			{
				"x": -1.236524792,
				"y": -0.9341316591,
				"z": -0.9093084414,
				"element": "C" 
			},
			{
				"x": -2.4464039114,
				"y": -0.3689740331,
				"z": -0.8004581813,
				"element": "C" 
			},
			{
				"x": -0.1430189326,
				"y": -0.4229513602,
				"z": 0.0002967497,
				"element": "C" 
			},
			{
				"x": 1.2351085986,
				"y": -1.0527813084,
				"z": -0.1132555918,
				"element": "C" 
			},
			{
				"x": -0.3519481031,
				"y": 0.4703312126,
				"z": 0.8058101659,
				"element": "O" 
			},
			{
				"x": -0.149446471,
				"y": -1.7581021744,
				"z": -2.5980838112,
				"element": "H" 
			},
			{
				"x": -1.8293586403,
				"y": -2.2948564329,
				"z": -2.4712753704,
				"element": "H" 
			},
			{
				"x": -0.5980169462,
				"y": -2.9533122695,
				"z": -1.3866334698,
				"element": "H" 
			},
			{
				"x": -3.2823886988,
				"y": -0.6818395765,
				"z": -1.4191338285,
				"element": "H" 
			},
			{
				"x": -2.6111148477,
				"y": 0.4243398778,
				"z": -0.0788637986,
				"element": "H" 
			},
			{
				"x": 1.6404756332,
				"y": -0.9309256292,
				"z": -1.1242985802,
				"element": "H" 
			},
			{
				"x": 1.1928730349,
				"y": -2.1300661294,
				"z": 0.083965527,
				"element": "H" 
			},
			{
				"x": 1.902466763,
				"y": -0.5770570622,
				"z": 0.6058479644,
				"element": "H" 
			}
		],
		 "valence_orbital": [ 
			{
				"type": "occ",
				"energy": -0.38344,
				"method": "rhf"
			},
			{
				"type": "occ",
				"energy": -0.36053,
				"method": "rhf"
			},
			{
				"type": "occ",
				"energy": -0.35908,
				"method": "rhf"
			},
			{
				"type": "occ",
				"energy": -0.26354,
				"method": "rhf"
			},
			{
				"type": "occ",
				"energy": -0.24438,
				"method": "rhf"
			},
			{
				"type": "unocc",
				"energy": -0.04911,
				"method": "rhf"
			},
			{
				"type": "unocc",
				"energy": 0.06706,
				"method": "rhf"
			},
			{
				"type": "unocc",
				"energy": 0.08466,
				"method": "rhf"
			},
			{
				"type": "unocc",
				"energy": 0.12123,
				"method": "rhf"
			},
			{
				"type": "unocc",
				"energy": 0.12648,
				"method": "rhf"
			}
		],
		"cosmo_sigma_profile": { 
			"-0.025": 0.0,
			"-0.024": 0.0,
			"-0.023": 0.0,
			"-0.022": 0.0,
			"-0.021": 0.0,
			"-0.02": 0.0,
			"-0.019": 0.0,
			"-0.018": 0.0,
			"-0.017": 0.0,
			"-0.016": 0.0,
			"-0.015": 0.0,
			"-0.014": 0.0,
			"-0.013": 0.0,
			"-0.012": 0.0,
			"-0.011": 0.0,
			"-0.01": 0.0,
			"-0.009": 0.0,
			"-0.008": 0.0,
			"-0.007": 0.324023845074,
			"-0.006": 7.90606940423,
			"-0.005": 12.1363774945,
			"-0.004": 14.8497062949,
			"-0.003": 12.337400755,
			"-0.002": 15.9039371087,
			"-0.001": 16.4363900633,
			"0.0": 14.1459703186,
			"0.001": 6.40141987977,
			"0.002": 5.56916217469,
			"0.003": 5.95830221244,
			"0.004": 4.96969571372,
			"0.005": 2.1894419132,
			"0.006": 2.07726058846,
			"0.007": 2.07079182888,
			"0.008": 1.42231825781,
			"0.009": 1.66703176317,
			"0.01": 1.86156213301,
			"0.011": 3.03798134293,
			"0.012": 4.08724878733,
			"0.013": 2.27008267735,
			"0.014": 0.339263987039,
			"0.015": 0.0,
			"0.016": 0.0,
			"0.017": 0.0,
			"0.018": 0.0,
			"0.019": 0.0,
			"0.02": 0.0,
			"0.021": 0.0,
			"0.022": 0.0,
			"0.023": 0.0,
			"0.024": 0.0,
			"0.025": 0.0
		}
	}
}
