{
	 "smiles": "O=C=N[Si](N=C=O)(N=C=O)N=C=O", 
	 "Tm": 299.15, 
	 "num_atms": 13, 
	 "gaussian": { 
		 "optdone": 1, 
		 "sigma_profile": "yes", 
		 "theory": "DFT", 
		 "functional": "B3LYP", 
		 "basiset": "6-31G**", 
		 "properties": { 
			 "R2extent": 4089.6908, 
			 "electric_dipole_moment_norm": 0.00193390796058, 
			 "electric_quadrupole_moment_norm": 0.017298843892, 
			 "total_energy": -961.990745452, 
			 "HOMO_LUMO_gap": 0.29578, 
			 "cosmo_polarized_energy": -6.99, 
			 "cosmo_cavitation_energy": 26.66, 
			 "cosmo_dispersion_energy": -15.52, 
			 "cosmo_repulsion_energy": 1.39, 
			 "cosmo_total_nonelectrostatic_energy": 12.54, 
			 "SMD_solvation_energy": 17.46 
		},
		"coords": [
			{
				"x": -2.8049280304,
				"y": 1.0576015196,
				"z": -1.4044403209,
				"element": "O" 
			},
			{
				"x": -1.6444734383,
				"y": 0.9079782727,
				"z": -1.304768085,
				"element": "C" 
			},
			{
				"x": -0.4567615068,
				"y": 0.754853476,
				"z": -1.203197901,
				"element": "N" 
			},
			{
				"x": 1.2137548659,
				"y": 0.5417217334,
				"z": -1.0613947943,
				"element": "Si" 
			},
			{
				"x": 1.9472766124,
				"y": 2.0346043464,
				"z": -0.7623728012,
				"element": "N" 
			},
			{
				"x": 2.4704978122,
				"y": 3.0956231451,
				"z": -0.5504882816,
				"element": "C" 
			},
			{
				"x": 2.982585124,
				"y": 4.1318364499,
				"z": -0.3431066783,
				"element": "O" 
			},
			{
				"x": 1.8255826802,
				"y": -0.1076378761,
				"z": -2.4967354748,
				"element": "N" 
			},
			{
				"x": 2.2603356455,
				"y": -0.5711038509,
				"z": -3.5168278132,
				"element": "C" 
			},
			{
				"x": 2.6835476581,
				"y": -1.0226509375,
				"z": -4.5148468046,
				"element": "O" 
			},
			{
				"x": 1.5390095741,
				"y": -0.5150006956,
				"z": 0.2167575769,
				"element": "N" 
			},
			{
				"x": 1.7689237688,
				"y": -1.2658469913,
				"z": 1.1265854592,
				"element": "C" 
			},
			{
				"x": 1.9936492343,
				"y": -1.9988785916,
				"z": 2.0160359187,
				"element": "O" 
			}
		],
		 "valence_orbital": [ 
			{
				"type": "occ",
				"energy": -0.3476,
				"method": "rhf"
			},
			{
				"type": "occ",
				"energy": -0.3475,
				"method": "rhf"
			},
			{
				"type": "occ",
				"energy": -0.31569,
				"method": "rhf"
			},
			{
				"type": "occ",
				"energy": -0.31569,
				"method": "rhf"
			},
			{
				"type": "occ",
				"energy": -0.31565,
				"method": "rhf"
			},
			{
				"type": "unocc",
				"energy": -0.01987,
				"method": "rhf"
			},
			{
				"type": "unocc",
				"energy": -0.01961,
				"method": "rhf"
			},
			{
				"type": "unocc",
				"energy": -0.01954,
				"method": "rhf"
			},
			{
				"type": "unocc",
				"energy": 0.01413,
				"method": "rhf"
			},
			{
				"type": "unocc",
				"energy": 0.01421,
				"method": "rhf"
			}
		],
		"cosmo_sigma_profile": { 
			"-0.025": 0.0,
			"-0.024": 0.0,
			"-0.023": 0.0,
			"-0.022": 0.0,
			"-0.021": 0.0,
			"-0.02": 0.0,
			"-0.019": 0.0,
			"-0.018": 0.0,
			"-0.017": 0.0,
			"-0.016": 0.0,
			"-0.015": 0.0,
			"-0.014": 0.0,
			"-0.013": 0.0,
			"-0.012": 0.0,
			"-0.011": 0.0,
			"-0.01": 0.0,
			"-0.009": 0.0,
			"-0.008": 0.0,
			"-0.007": 0.0,
			"-0.006": 0.0,
			"-0.005": 6.96769328291,
			"-0.004": 39.2656391322,
			"-0.003": 38.5348698411,
			"-0.002": 32.4727306522,
			"-0.001": 18.8226847431,
			"0.0": 3.22444505,
			"0.001": 8.46193053551,
			"0.002": 6.45104045088,
			"0.003": 5.6332534603,
			"0.004": 7.52858476404,
			"0.005": 9.04260716785,
			"0.006": 17.5792386209,
			"0.007": 25.0883647,
			"0.008": 0.0,
			"0.009": 0.0,
			"0.01": 0.0,
			"0.011": 0.0,
			"0.012": 0.0,
			"0.013": 0.0,
			"0.014": 0.0,
			"0.015": 0.0,
			"0.016": 0.0,
			"0.017": 0.0,
			"0.018": 0.0,
			"0.019": 0.0,
			"0.02": 0.0,
			"0.021": 0.0,
			"0.022": 0.0,
			"0.023": 0.0,
			"0.024": 0.0,
			"0.025": 0.0
		}
	}
}
