{
	 "smiles": "OC1=C(C(O)=C(C=C1[N+]([O-])=O)[N+]([O-])=O)[N+]([O-])=O", 
	 "Tm": 449.15, 
	 "num_atms": 20, 
	 "gaussian": { 
		 "optdone": 1, 
		 "sigma_profile": "yes", 
		 "theory": "DFT", 
		 "functional": "B3LYP", 
		 "basiset": "6-31G**", 
		 "properties": { 
			 "R2extent": 4125.5227, 
			 "electric_dipole_moment_norm": 1.6721526904, 
			 "electric_quadrupole_moment_norm": 11.9088570497, 
			 "total_energy": -996.172916671, 
			 "HOMO_LUMO_gap": 0.1515, 
			 "cosmo_polarized_energy": -15.52, 
			 "cosmo_cavitation_energy": 27.71, 
			 "cosmo_dispersion_energy": -20.26, 
			 "cosmo_repulsion_energy": 1.55, 
			 "cosmo_total_nonelectrostatic_energy": 9.0, 
			 "SMD_solvation_energy": 12.48 
		},
		"coords": [
			{
				"x": 1.7829237443,
				"y": 1.5285343422,
				"z": -0.877068122,
				"element": "O" 
			},
			{
				"x": 0.6214511805,
				"y": 1.1786536481,
				"z": -0.3521426266,
				"element": "C" 
			},
			{
				"x": 0.5180144343,
				"y": -0.0602315005,
				"z": 0.2846402676,
				"element": "C" 
			},
			{
				"x": -0.6600155249,
				"y": -0.5274255018,
				"z": 0.8719963239,
				"element": "C" 
			},
			{
				"x": -0.6539136546,
				"y": -1.7156970543,
				"z": 1.4507627182,
				"element": "O" 
			},
			{
				"x": -1.8044395827,
				"y": 0.3246666773,
				"z": 0.804322113,
				"element": "C" 
			},
			{
				"x": -1.7408456202,
				"y": 1.5618049843,
				"z": 0.1805738496,
				"element": "C" 
			},
			{
				"x": -0.5525526123,
				"y": 1.9913915659,
				"z": -0.3913034503,
				"element": "C" 
			},
			{
				"x": -0.5276454498,
				"y": 3.2887537599,
				"z": -1.032503733,
				"element": "N" 
			},
			{
				"x": 0.5527280149,
				"y": 3.6622951736,
				"z": -1.5441546848,
				"element": "O" 
			},
			{
				"x": -1.5462890212,
				"y": 3.9625688388,
				"z": -1.051086685,
				"element": "O" 
			},
			{
				"x": -3.0630360366,
				"y": -0.0867917848,
				"z": 1.3887049674,
				"element": "N" 
			},
			{
				"x": -4.0254400234,
				"y": 0.6618694139,
				"z": 1.3158540881,
				"element": "O" 
			},
			{
				"x": -3.1041717364,
				"y": -1.2064607134,
				"z": 1.9483067367,
				"element": "O" 
			},
			{
				"x": 1.7179901449,
				"y": -0.9220469124,
				"z": 0.3395720963,
				"element": "N" 
			},
			{
				"x": 1.8732149522,
				"y": -1.700823214,
				"z": -0.5911424957,
				"element": "O" 
			},
			{
				"x": 2.448861641,
				"y": -0.7782810643,
				"z": 1.3101197699,
				"element": "O" 
			},
			{
				"x": 1.6508721805,
				"y": 2.4277857341,
				"z": -1.2761731978,
				"element": "H" 
			},
			{
				"x": -1.5709389998,
				"y": -1.8615658756,
				"z": 1.801663733,
				"element": "H" 
			},
			{
				"x": -2.6195680307,
				"y": 2.192699483,
				"z": 0.1400583315,
				"element": "H" 
			}
		],
		 "valence_orbital": [ 
			{
				"type": "occ",
				"energy": -0.34101,
				"method": "rhf"
			},
			{
				"type": "occ",
				"energy": -0.33329,
				"method": "rhf"
			},
			{
				"type": "occ",
				"energy": -0.32613,
				"method": "rhf"
			},
			{
				"type": "occ",
				"energy": -0.30235,
				"method": "rhf"
			},
			{
				"type": "occ",
				"energy": -0.28984,
				"method": "rhf"
			},
			{
				"type": "unocc",
				"energy": -0.13834,
				"method": "rhf"
			},
			{
				"type": "unocc",
				"energy": -0.12616,
				"method": "rhf"
			},
			{
				"type": "unocc",
				"energy": -0.09228,
				"method": "rhf"
			},
			{
				"type": "unocc",
				"energy": -0.05331,
				"method": "rhf"
			},
			{
				"type": "unocc",
				"energy": -0.02708,
				"method": "rhf"
			}
		],
		"cosmo_sigma_profile": { 
			"-0.025": 0.0,
			"-0.024": 0.0,
			"-0.023": 0.0,
			"-0.022": 0.0,
			"-0.021": 0.0,
			"-0.02": 0.0,
			"-0.019": 0.0,
			"-0.018": 0.0,
			"-0.017": 0.0,
			"-0.016": 0.0,
			"-0.015": 0.0,
			"-0.014": 0.0,
			"-0.013": 0.232318687277,
			"-0.012": 1.31612767067,
			"-0.011": 3.12493566443,
			"-0.01": 5.36921599409,
			"-0.009": 8.65643273264,
			"-0.008": 8.00820579009,
			"-0.007": 11.0570308514,
			"-0.006": 14.3920343455,
			"-0.005": 13.842907016,
			"-0.004": 9.13319656822,
			"-0.003": 6.58778482431,
			"-0.002": 8.70393203409,
			"-0.001": 9.51312165617,
			"0.0": 9.46794872352,
			"0.001": 10.4315874565,
			"0.002": 10.8753244551,
			"0.003": 10.1350893407,
			"0.004": 14.5278830806,
			"0.005": 16.0911618411,
			"0.006": 25.4604749967,
			"0.007": 15.1951926303,
			"0.008": 10.2323213986,
			"0.009": 1.80816483903,
			"0.01": 0.0,
			"0.011": 0.0,
			"0.012": 0.0,
			"0.013": 0.0,
			"0.014": 0.0,
			"0.015": 0.0,
			"0.016": 0.0,
			"0.017": 0.0,
			"0.018": 0.0,
			"0.019": 0.0,
			"0.02": 0.0,
			"0.021": 0.0,
			"0.022": 0.0,
			"0.023": 0.0,
			"0.024": 0.0,
			"0.025": 0.0
		}
	}
}
