{
	 "smiles": "CC(C)C(N)C1=NC(=NO1)C1=NN=CN1", 
	 "Tm": 484.15, 
	 "num_atms": 27, 
	 "gaussian": { 
		 "optdone": 1, 
		 "sigma_profile": "yes", 
		 "theory": "DFT", 
		 "functional": "B3LYP", 
		 "basiset": "6-31G**", 
		 "properties": { 
			 "R2extent": 4127.0039, 
			 "electric_dipole_moment_norm": 4.04168933121, 
			 "electric_quadrupole_moment_norm": 33.0936404598, 
			 "total_energy": -715.752219152, 
			 "HOMO_LUMO_gap": 0.20278, 
			 "cosmo_polarized_energy": -24.66, 
			 "cosmo_cavitation_energy": 31.3, 
			 "cosmo_dispersion_energy": -22.38, 
			 "cosmo_repulsion_energy": 1.77, 
			 "cosmo_total_nonelectrostatic_energy": 10.68, 
			 "SMD_solvation_energy": 1.36 
		},
		"coords": [
			{
				"x": 2.4520603227,
				"y": 1.9054329836,
				"z": 0.4476326564,
				"element": "C" 
			},
			{
				"x": 1.7029745786,
				"y": 1.8838580874,
				"z": -0.891037565,
				"element": "C" 
			},
			{
				"x": 0.4139606124,
				"y": 2.7135372451,
				"z": -0.8452759413,
				"element": "C" 
			},
			{
				"x": 1.4439404338,
				"y": 0.4339951635,
				"z": -1.4091282874,
				"element": "C" 
			},
			{
				"x": 2.7217368108,
				"y": -0.2213386798,
				"z": -1.6905014246,
				"element": "N" 
			},
			{
				"x": 0.6631538612,
				"y": -0.3856527216,
				"z": -0.4196718317,
				"element": "C" 
			},
			{
				"x": -0.6310024666,
				"y": -0.4106974594,
				"z": -0.2666737614,
				"element": "N" 
			},
			{
				"x": -0.7813862212,
				"y": -1.2948276516,
				"z": 0.7738447485,
				"element": "C" 
			},
			{
				"x": 0.3413817449,
				"y": -1.8012893122,
				"z": 1.2369724176,
				"element": "N" 
			},
			{
				"x": 1.3160864087,
				"y": -1.1931194474,
				"z": 0.4406901886,
				"element": "O" 
			},
			{
				"x": -2.0579364448,
				"y": -1.6831879035,
				"z": 1.3538639938,
				"element": "C" 
			},
			{
				"x": -3.2597793745,
				"y": -1.2710170378,
				"z": 1.0066594437,
				"element": "N" 
			},
			{
				"x": -4.1630126311,
				"y": -1.9038466054,
				"z": 1.830106947,
				"element": "N" 
			},
			{
				"x": -3.4802691966,
				"y": -2.6757159588,
				"z": 2.6461992617,
				"element": "C" 
			},
			{
				"x": -2.1451106044,
				"y": -2.5765342131,
				"z": 2.3911574316,
				"element": "N" 
			},
			{
				"x": 3.3333973828,
				"y": 1.2606673049,
				"z": 0.4152764961,
				"element": "H" 
			},
			{
				"x": 2.7718675327,
				"y": 2.9248211782,
				"z": 0.6861779614,
				"element": "H" 
			},
			{
				"x": 1.8099429509,
				"y": 1.5635715514,
				"z": 1.2673212381,
				"element": "H" 
			},
			{
				"x": 2.3596213415,
				"y": 2.3287480918,
				"z": -1.6542586934,
				"element": "H" 
			},
			{
				"x": -0.0774118718,
				"y": 2.7502418329,
				"z": -1.8233946784,
				"element": "H" 
			},
			{
				"x": -0.3048440215,
				"y": 2.2993698049,
				"z": -0.1318930257,
				"element": "H" 
			},
			{
				"x": 0.6372027889,
				"y": 3.741471998,
				"z": -0.54236735,
				"element": "H" 
			},
			{
				"x": 0.7796750674,
				"y": 0.5229493937,
				"z": -2.2847477349,
				"element": "H" 
			},
			{
				"x": 2.578657813,
				"y": -1.1549723141,
				"z": -2.0662866728,
				"element": "H" 
			},
			{
				"x": 3.2219841877,
				"y": 0.3119900149,
				"z": -2.3960448383,
				"element": "H" 
			},
			{
				"x": -3.8978244177,
				"y": -3.307101167,
				"z": 3.4169126245,
				"element": "H" 
			},
			{
				"x": -1.3713665878,
				"y": -3.0411541785,
				"z": 2.8449663959,
				"element": "H" 
			}
		],
		 "valence_orbital": [ 
			{
				"type": "occ",
				"energy": -0.30634,
				"method": "rhf"
			},
			{
				"type": "occ",
				"energy": -0.3035,
				"method": "rhf"
			},
			{
				"type": "occ",
				"energy": -0.26,
				"method": "rhf"
			},
			{
				"type": "occ",
				"energy": -0.25914,
				"method": "rhf"
			},
			{
				"type": "occ",
				"energy": -0.25444,
				"method": "rhf"
			},
			{
				"type": "unocc",
				"energy": -0.05166,
				"method": "rhf"
			},
			{
				"type": "unocc",
				"energy": -0.00718,
				"method": "rhf"
			},
			{
				"type": "unocc",
				"energy": 0.02654,
				"method": "rhf"
			},
			{
				"type": "unocc",
				"energy": 0.05495,
				"method": "rhf"
			},
			{
				"type": "unocc",
				"energy": 0.06982,
				"method": "rhf"
			}
		],
		"cosmo_sigma_profile": { 
			"-0.025": 0.0,
			"-0.024": 0.0,
			"-0.023": 0.0,
			"-0.022": 0.0,
			"-0.021": 0.0,
			"-0.02": 0.0,
			"-0.019": 0.0,
			"-0.018": 0.87499026635,
			"-0.017": 1.62270069631,
			"-0.016": 0.716070574001,
			"-0.015": 1.20089700332,
			"-0.014": 0.802691830489,
			"-0.013": 1.14641519797,
			"-0.012": 1.60361111835,
			"-0.011": 5.97481873079,
			"-0.01": 6.22888953006,
			"-0.009": 5.55831076326,
			"-0.008": 5.53521085837,
			"-0.007": 6.35491176073,
			"-0.006": 6.22943944049,
			"-0.005": 11.6125007019,
			"-0.004": 15.6664952074,
			"-0.003": 19.4949433076,
			"-0.002": 21.6327878815,
			"-0.001": 18.2483008513,
			"0.0": 17.380232434,
			"0.001": 19.5314545186,
			"0.002": 8.35936206194,
			"0.003": 4.65674554558,
			"0.004": 5.78211436546,
			"0.005": 7.44473734933,
			"0.006": 6.69378658211,
			"0.007": 6.61624563948,
			"0.008": 5.40052784484,
			"0.009": 4.88472722054,
			"0.01": 4.58107598424,
			"0.011": 6.09365993491,
			"0.012": 4.27858159471,
			"0.013": 5.94331116774,
			"0.014": 3.90169681698,
			"0.015": 3.16691760744,
			"0.016": 2.05438060646,
			"0.017": 0.0751783624104,
			"0.018": 0.0,
			"0.019": 0.0,
			"0.02": 0.0,
			"0.021": 0.0,
			"0.022": 0.0,
			"0.023": 0.0,
			"0.024": 0.0,
			"0.025": 0.0
		}
	}
}
