{
	 "smiles": "FC(F)=C(F)Cl", 
	 "Tm": 164.15, 
	 "num_atms": 6, 
	 "gaussian": { 
		 "optdone": 1, 
		 "sigma_profile": "yes", 
		 "theory": "DFT", 
		 "functional": "B3LYP", 
		 "basiset": "6-31G**", 
		 "properties": { 
			 "R2extent": 2765.1182, 
			 "electric_dipole_moment_norm": 0.301392319079, 
			 "electric_quadrupole_moment_norm": 1.23727912372, 
			 "total_energy": -835.855042156, 
			 "HOMO_LUMO_gap": 0.26543, 
			 "cosmo_polarized_energy": -0.97, 
			 "cosmo_cavitation_energy": 14.13, 
			 "cosmo_dispersion_energy": -10.15, 
			 "cosmo_repulsion_energy": 0.84, 
			 "cosmo_total_nonelectrostatic_energy": 4.82, 
			 "SMD_solvation_energy": 4.48 
		},
		"coords": [
			{
				"x": -1.8013627755,
				"y": -0.2523330413,
				"z": 3.2049358374,
				"element": "F" 
			},
			{
				"x": -1.459840861,
				"y": -1.4545274238,
				"z": 2.7759025079,
				"element": "C" 
			},
			{
				"x": -0.727232114,
				"y": -2.1242811627,
				"z": 3.6456946448,
				"element": "F" 
			},
			{
				"x": -1.8224447758,
				"y": -1.9309749913,
				"z": 1.5877638721,
				"element": "C" 
			},
			{
				"x": -2.5658418241,
				"y": -1.192312383,
				"z": 0.7604241957,
				"element": "F" 
			},
			{
				"x": -1.3906776496,
				"y": -3.491370998,
				"z": 1.0072789421,
				"element": "Cl" 
			}
		],
		 "valence_orbital": [ 
			{
				"type": "occ",
				"energy": -0.44372,
				"method": "rhf"
			},
			{
				"type": "occ",
				"energy": -0.41892,
				"method": "rhf"
			},
			{
				"type": "occ",
				"energy": -0.3718,
				"method": "rhf"
			},
			{
				"type": "occ",
				"energy": -0.35164,
				"method": "rhf"
			},
			{
				"type": "occ",
				"energy": -0.25598,
				"method": "rhf"
			},
			{
				"type": "unocc",
				"energy": 0.00945,
				"method": "rhf"
			},
			{
				"type": "unocc",
				"energy": 0.01115,
				"method": "rhf"
			},
			{
				"type": "unocc",
				"energy": 0.07476,
				"method": "rhf"
			},
			{
				"type": "unocc",
				"energy": 0.1346,
				"method": "rhf"
			},
			{
				"type": "unocc",
				"energy": 0.25807,
				"method": "rhf"
			}
		],
		"cosmo_sigma_profile": { 
			"-0.025": 0.0,
			"-0.024": 0.0,
			"-0.023": 0.0,
			"-0.022": 0.0,
			"-0.021": 0.0,
			"-0.02": 0.0,
			"-0.019": 0.0,
			"-0.018": 0.0,
			"-0.017": 0.0,
			"-0.016": 0.0,
			"-0.015": 0.0,
			"-0.014": 0.0,
			"-0.013": 0.0,
			"-0.012": 0.0,
			"-0.011": 0.0,
			"-0.01": 0.0,
			"-0.009": 0.0,
			"-0.008": 0.0,
			"-0.007": 0.0,
			"-0.006": 0.0207665155611,
			"-0.005": 2.89647392872,
			"-0.004": 8.01422667635,
			"-0.003": 9.33464577045,
			"-0.002": 9.73199186132,
			"-0.001": 9.90377620701,
			"0.0": 12.9973768373,
			"0.001": 30.4164322639,
			"0.002": 29.0255543567,
			"0.003": 4.65175127968,
			"0.004": 0.0,
			"0.005": 0.0,
			"0.006": 0.0,
			"0.007": 0.0,
			"0.008": 0.0,
			"0.009": 0.0,
			"0.01": 0.0,
			"0.011": 0.0,
			"0.012": 0.0,
			"0.013": 0.0,
			"0.014": 0.0,
			"0.015": 0.0,
			"0.016": 0.0,
			"0.017": 0.0,
			"0.018": 0.0,
			"0.019": 0.0,
			"0.02": 0.0,
			"0.021": 0.0,
			"0.022": 0.0,
			"0.023": 0.0,
			"0.024": 0.0,
			"0.025": 0.0
		}
	}
}
