{
	 "smiles": "OC(=O)C1(CCCCC1)C1=CC2=C(OCO2)C=C1", 
	 "Tm": 450.15, 
	 "num_atms": 34, 
	 "gaussian": { 
		 "optdone": 1, 
		 "sigma_profile": "yes", 
		 "theory": "DFT", 
		 "functional": "B3LYP", 
		 "basiset": "6-31G**", 
		 "properties": { 
			 "R2extent": 5287.3185, 
			 "electric_dipole_moment_norm": 5.02481847234, 
			 "electric_quadrupole_moment_norm": 21.9567650869, 
			 "total_energy": -844.02218747, 
			 "HOMO_LUMO_gap": 0.19797, 
			 "cosmo_polarized_energy": -13.84, 
			 "cosmo_cavitation_energy": 34.34, 
			 "cosmo_dispersion_energy": -25.15, 
			 "cosmo_repulsion_energy": 1.93, 
			 "cosmo_total_nonelectrostatic_energy": 11.12, 
			 "SMD_solvation_energy": 6.74 
		},
		"coords": [
			{
				"x": 1.1693119267,
				"y": -3.3045954757,
				"z": 1.8764693521,
				"element": "O" 
			},
			{
				"x": 1.7292260044,
				"y": -2.8961918997,
				"z": 0.7128416984,
				"element": "C" 
			},
			{
				"x": 2.6877897059,
				"y": -3.4790794488,
				"z": 0.2656385221,
				"element": "O" 
			},
			{
				"x": 1.015100722,
				"y": -1.7269312745,
				"z": -0.0204604204,
				"element": "C" 
			},
			{
				"x": -0.0593606286,
				"y": -2.408594461,
				"z": -0.926749936,
				"element": "C" 
			},
			{
				"x": -0.7204767701,
				"y": -1.4454055738,
				"z": -1.9267767751,
				"element": "C" 
			},
			{
				"x": 0.3239569157,
				"y": -0.7345811602,
				"z": -2.798671485,
				"element": "C" 
			},
			{
				"x": 1.3884471034,
				"y": -0.0478836291,
				"z": -1.9318734175,
				"element": "C" 
			},
			{
				"x": 2.0413835229,
				"y": -1.0401135126,
				"z": -0.9608689272,
				"element": "C" 
			},
			{
				"x": 0.4224102485,
				"y": -0.7516668764,
				"z": 1.0180064339,
				"element": "C" 
			},
			{
				"x": -0.9581716267,
				"y": -0.7568797952,
				"z": 1.3434132101,
				"element": "C" 
			},
			{
				"x": -1.3982917008,
				"y": 0.1055290283,
				"z": 2.3296797502,
				"element": "C" 
			},
			{
				"x": -0.5376259803,
				"y": 0.9594826889,
				"z": 3.0097247811,
				"element": "C" 
			},
			{
				"x": -1.2400222759,
				"y": 1.6974572577,
				"z": 3.9277761438,
				"element": "O" 
			},
			{
				"x": -2.6092644343,
				"y": 1.2905624875,
				"z": 3.7997398131,
				"element": "C" 
			},
			{
				"x": -2.6794238569,
				"y": 0.2710756487,
				"z": 2.7929010486,
				"element": "O" 
			},
			{
				"x": 0.8142935281,
				"y": 0.9814718117,
				"z": 2.7302146169,
				"element": "C" 
			},
			{
				"x": 1.2742033418,
				"y": 0.1106390289,
				"z": 1.7280003409,
				"element": "C" 
			},
			{
				"x": 0.4719669023,
				"y": -2.6790857907,
				"z": 2.1324732565,
				"element": "H" 
			},
			{
				"x": -0.8129161558,
				"y": -2.919718999,
				"z": -0.3172424057,
				"element": "H" 
			},
			{
				"x": 0.4575020914,
				"y": -3.1982856622,
				"z": -1.4848072127,
				"element": "H" 
			},
			{
				"x": -1.3144797245,
				"y": -0.6943720339,
				"z": -1.3922020651,
				"element": "H" 
			},
			{
				"x": -1.421846482,
				"y": -2.0091457746,
				"z": -2.5536239547,
				"element": "H" 
			},
			{
				"x": -0.1654312084,
				"y": -0.0064107419,
				"z": -3.4560853511,
				"element": "H" 
			},
			{
				"x": 0.8120602792,
				"y": -1.4707603817,
				"z": -3.4525319978,
				"element": "H" 
			},
			{
				"x": 0.9306726156,
				"y": 0.7771288219,
				"z": -1.3700612999,
				"element": "H" 
			},
			{
				"x": 2.1626867537,
				"y": 0.398920609,
				"z": -2.5665714228,
				"element": "H" 
			},
			{
				"x": 2.8261867097,
				"y": -0.5477383555,
				"z": -0.3793712412,
				"element": "H" 
			},
			{
				"x": 2.543980025,
				"y": -1.8351695866,
				"z": -1.5199009262,
				"element": "H" 
			},
			{
				"x": -1.669496408,
				"y": -1.3957366642,
				"z": 0.8361878497,
				"element": "H" 
			},
			{
				"x": -3.2191368489,
				"y": 2.1493231151,
				"z": 3.4934093523,
				"element": "H" 
			},
			{
				"x": -2.9610297985,
				"y": 0.8848145592,
				"z": 4.7556603601,
				"element": "H" 
			},
			{
				"x": 1.4915511354,
				"y": 1.6383581999,
				"z": 3.2640644067,
				"element": "H" 
			},
			{
				"x": 2.3364443677,
				"y": 0.1074838406,
				"z": 1.5113979022,
				"element": "H" 
			}
		],
		 "valence_orbital": [ 
			{
				"type": "occ",
				"energy": -0.30767,
				"method": "rhf"
			},
			{
				"type": "occ",
				"energy": -0.30054,
				"method": "rhf"
			},
			{
				"type": "occ",
				"energy": -0.26791,
				"method": "rhf"
			},
			{
				"type": "occ",
				"energy": -0.25484,
				"method": "rhf"
			},
			{
				"type": "occ",
				"energy": -0.21714,
				"method": "rhf"
			},
			{
				"type": "unocc",
				"energy": -0.01917,
				"method": "rhf"
			},
			{
				"type": "unocc",
				"energy": -0.0096,
				"method": "rhf"
			},
			{
				"type": "unocc",
				"energy": 0.01931,
				"method": "rhf"
			},
			{
				"type": "unocc",
				"energy": 0.07374,
				"method": "rhf"
			},
			{
				"type": "unocc",
				"energy": 0.08792,
				"method": "rhf"
			}
		],
		"cosmo_sigma_profile": { 
			"-0.025": 0.0,
			"-0.024": 0.0,
			"-0.023": 0.0,
			"-0.022": 0.0,
			"-0.021": 0.0,
			"-0.02": 0.0,
			"-0.019": 0.0,
			"-0.018": 0.0,
			"-0.017": 0.0,
			"-0.016": 0.0,
			"-0.015": 0.0,
			"-0.014": 0.00312981403016,
			"-0.013": 0.586794774832,
			"-0.012": 0.35938119865,
			"-0.011": 0.929045112855,
			"-0.01": 1.94547518612,
			"-0.009": 1.14500772159,
			"-0.008": 4.23183675755,
			"-0.007": 14.1921976631,
			"-0.006": 14.5756490363,
			"-0.005": 11.012988814,
			"-0.004": 10.4850014998,
			"-0.003": 18.0474452542,
			"-0.002": 30.2720096912,
			"-0.001": 32.3217177439,
			"0.0": 29.8335366459,
			"0.001": 21.7361548163,
			"0.002": 14.7324310906,
			"0.003": 10.2504725484,
			"0.004": 7.72629147604,
			"0.005": 5.37190385515,
			"0.006": 4.76209944898,
			"0.007": 5.26508237824,
			"0.008": 5.29273855158,
			"0.009": 6.65535636319,
			"0.01": 5.30569211506,
			"0.011": 4.62706306832,
			"0.012": 5.85134685216,
			"0.013": 2.26852149144,
			"0.014": 0.186672736608,
			"0.015": 0.0,
			"0.016": 0.0,
			"0.017": 0.0,
			"0.018": 0.0,
			"0.019": 0.0,
			"0.02": 0.0,
			"0.021": 0.0,
			"0.022": 0.0,
			"0.023": 0.0,
			"0.024": 0.0,
			"0.025": 0.0
		}
	}
}
