{
	 "smiles": "CS(=O)(=O)NC1CCCNC1", 
	 "Tm": 397.15, 
	 "num_atms": 25, 
	 "gaussian": { 
		 "optdone": 1, 
		 "sigma_profile": "yes", 
		 "theory": "DFT", 
		 "functional": "B3LYP", 
		 "basiset": "6-31G**", 
		 "properties": { 
			 "R2extent": 2399.2619, 
			 "electric_dipole_moment_norm": 2.83152310603, 
			 "electric_quadrupole_moment_norm": 12.417995922, 
			 "total_energy": -895.137212323, 
			 "HOMO_LUMO_gap": 0.27178, 
			 "cosmo_polarized_energy": -14.46, 
			 "cosmo_cavitation_energy": 26.51, 
			 "cosmo_dispersion_energy": -20.46, 
			 "cosmo_repulsion_energy": 1.59, 
			 "cosmo_total_nonelectrostatic_energy": 7.64, 
			 "SMD_solvation_energy": 1.31 
		},
		"coords": [
			{
				"x": 1.6070555621,
				"y": 0.8915620371,
				"z": 2.4218193257,
				"element": "C" 
			},
			{
				"x": 0.3792176507,
				"y": -0.2161640344,
				"z": 1.7087448597,
				"element": "S" 
			},
			{
				"x": 0.7421830966,
				"y": -1.5830541819,
				"z": 2.1003152612,
				"element": "O" 
			},
			{
				"x": -0.9406596823,
				"y": 0.3425210499,
				"z": 2.025843666,
				"element": "O" 
			},
			{
				"x": 0.690919694,
				"y": -0.1033520566,
				"z": 0.052888841,
				"element": "N" 
			},
			{
				"x": -0.2296476602,
				"y": 0.5298246643,
				"z": -0.9251588385,
				"element": "C" 
			},
			{
				"x": -0.4719133242,
				"y": 2.046195502,
				"z": -0.6752440921,
				"element": "C" 
			},
			{
				"x": -1.9382383398,
				"y": 2.3541253815,
				"z": -0.338446229,
				"element": "C" 
			},
			{
				"x": -2.8977456982,
				"y": 1.8294605686,
				"z": -1.4246044544,
				"element": "C" 
			},
			{
				"x": -2.3682226091,
				"y": 0.5958347713,
				"z": -2.0313247086,
				"element": "N" 
			},
			{
				"x": -1.5698073638,
				"y": -0.2121618072,
				"z": -1.1116670879,
				"element": "C" 
			},
			{
				"x": 2.5998763581,
				"y": 0.546235003,
				"z": 2.1333423672,
				"element": "H" 
			},
			{
				"x": 1.4838459945,
				"y": 0.8453318118,
				"z": 3.5054844708,
				"element": "H" 
			},
			{
				"x": 1.4272208598,
				"y": 1.9048186766,
				"z": 2.0621119234,
				"element": "H" 
			},
			{
				"x": 1.0011845928,
				"y": -1.0257161611,
				"z": -0.2421412486,
				"element": "H" 
			},
			{
				"x": 0.3149907703,
				"y": 0.4367212267,
				"z": -1.8702269526,
				"element": "H" 
			},
			{
				"x": -0.1803514367,
				"y": 2.5958124168,
				"z": -1.5766067901,
				"element": "H" 
			},
			{
				"x": 0.1810968416,
				"y": 2.4063794851,
				"z": 0.1251009198,
				"element": "H" 
			},
			{
				"x": -2.1764795166,
				"y": 1.8967072499,
				"z": 0.6248711434,
				"element": "H" 
			},
			{
				"x": -2.0778024496,
				"y": 3.4342146693,
				"z": -0.2209633787,
				"element": "H" 
			},
			{
				"x": -3.8946235548,
				"y": 1.6876855775,
				"z": -0.9741813493,
				"element": "H" 
			},
			{
				"x": -3.0125788826,
				"y": 2.5771665839,
				"z": -2.2209366855,
				"element": "H" 
			},
			{
				"x": -3.1176027188,
				"y": 0.0477760328,
				"z": -2.438784222,
				"element": "H" 
			},
			{
				"x": -2.0405122896,
				"y": -0.3931431783,
				"z": -0.13276373,
				"element": "H" 
			},
			{
				"x": -1.3844058942,
				"y": -1.1895812886,
				"z": -1.5716730108,
				"element": "H" 
			}
		],
		 "valence_orbital": [ 
			{
				"type": "occ",
				"energy": -0.31128,
				"method": "rhf"
			},
			{
				"type": "occ",
				"energy": -0.30055,
				"method": "rhf"
			},
			{
				"type": "occ",
				"energy": -0.29631,
				"method": "rhf"
			},
			{
				"type": "occ",
				"energy": -0.2674,
				"method": "rhf"
			},
			{
				"type": "occ",
				"energy": -0.21375,
				"method": "rhf"
			},
			{
				"type": "unocc",
				"energy": 0.05803,
				"method": "rhf"
			},
			{
				"type": "unocc",
				"energy": 0.06453,
				"method": "rhf"
			},
			{
				"type": "unocc",
				"energy": 0.08155,
				"method": "rhf"
			},
			{
				"type": "unocc",
				"energy": 0.09204,
				"method": "rhf"
			},
			{
				"type": "unocc",
				"energy": 0.09776,
				"method": "rhf"
			}
		],
		"cosmo_sigma_profile": { 
			"-0.025": 0.0,
			"-0.024": 0.0,
			"-0.023": 0.0,
			"-0.022": 0.0,
			"-0.021": 0.0,
			"-0.02": 0.0,
			"-0.019": 0.0,
			"-0.018": 0.0,
			"-0.017": 0.0,
			"-0.016": 0.0,
			"-0.015": 0.0,
			"-0.014": 0.525050310527,
			"-0.013": 1.02022277465,
			"-0.012": 0.902727200253,
			"-0.011": 0.982314529213,
			"-0.01": 1.72156303299,
			"-0.009": 3.47364865336,
			"-0.008": 7.56742044877,
			"-0.007": 7.14549869251,
			"-0.006": 9.82467724127,
			"-0.005": 10.3308590803,
			"-0.004": 14.4104625457,
			"-0.003": 17.1316815482,
			"-0.002": 19.0062210709,
			"-0.001": 21.033810494,
			"0.0": 21.5388803604,
			"0.001": 10.3396827126,
			"0.002": 6.00612653764,
			"0.003": 4.09873608562,
			"0.004": 4.30233307527,
			"0.005": 3.28926025668,
			"0.006": 3.91858825643,
			"0.007": 5.20651074388,
			"0.008": 3.45173785863,
			"0.009": 4.01761543456,
			"0.01": 4.62537737799,
			"0.011": 8.66136756575,
			"0.012": 8.0267612911,
			"0.013": 1.31735867071,
			"0.014": 0.681810926682,
			"0.015": 0.326916561853,
			"0.016": 0.487388671065,
			"0.017": 0.277304182704,
			"0.018": 0.171990472776,
			"0.019": 0.0,
			"0.02": 0.0,
			"0.021": 0.0,
			"0.022": 0.0,
			"0.023": 0.0,
			"0.024": 0.0,
			"0.025": 0.0
		}
	}
}
