{
	 "smiles": "COC(=O)C1=CC=C(C(O)=C1)[N+]([O-])=O", 
	 "Tm": 364.15, 
	 "num_atms": 21, 
	 "gaussian": { 
		 "optdone": 1, 
		 "sigma_profile": "yes", 
		 "theory": "DFT", 
		 "functional": "B3LYP", 
		 "basiset": "6-31G**", 
		 "properties": { 
			 "R2extent": 4357.9687, 
			 "electric_dipole_moment_norm": 5.19519074722, 
			 "electric_quadrupole_moment_norm": 21.5694187335, 
			 "total_energy": -739.836211343, 
			 "HOMO_LUMO_gap": 0.16218, 
			 "cosmo_polarized_energy": -16.55, 
			 "cosmo_cavitation_energy": 27.04, 
			 "cosmo_dispersion_energy": -19.88, 
			 "cosmo_repulsion_energy": 1.56, 
			 "cosmo_total_nonelectrostatic_energy": 8.72, 
			 "SMD_solvation_energy": 9.0 
		},
		"coords": [
			{
				"x": -1.6758320367,
				"y": -3.7724307597,
				"z": -2.063727104,
				"element": "C" 
			},
			{
				"x": -1.3034634084,
				"y": -2.9412809428,
				"z": -0.9504881697,
				"element": "O" 
			},
			{
				"x": -0.0363299184,
				"y": -2.4843671115,
				"z": -0.9710686329,
				"element": "C" 
			},
			{
				"x": 0.7578898534,
				"y": -2.7404993378,
				"z": -1.8544856409,
				"element": "O" 
			},
			{
				"x": 0.2779953391,
				"y": -1.6287604121,
				"z": 0.2151958503,
				"element": "C" 
			},
			{
				"x": -0.6634876507,
				"y": -1.3450888174,
				"z": 1.2147776634,
				"element": "C" 
			},
			{
				"x": -0.2905711088,
				"y": -0.537902862,
				"z": 2.2796197922,
				"element": "C" 
			},
			{
				"x": 1.00590176,
				"y": -0.0241290661,
				"z": 2.3684890283,
				"element": "C" 
			},
			{
				"x": 1.9637317036,
				"y": -0.298339878,
				"z": 1.3681454456,
				"element": "C" 
			},
			{
				"x": 3.2060558515,
				"y": 0.2251703449,
				"z": 1.4333790357,
				"element": "O" 
			},
			{
				"x": 1.5674332468,
				"y": -1.1055834032,
				"z": 0.2945646662,
				"element": "C" 
			},
			{
				"x": 1.3183800169,
				"y": 0.8015867434,
				"z": 3.5431739784,
				"element": "N" 
			},
			{
				"x": 0.3634313628,
				"y": 1.2903231601,
				"z": 4.1518731488,
				"element": "O" 
			},
			{
				"x": 2.4958085025,
				"y": 0.9407877988,
				"z": 3.8591225716,
				"element": "O" 
			},
			{
				"x": -1.042071512,
				"y": -4.661438591,
				"z": -2.105641469,
				"element": "H" 
			},
			{
				"x": -1.5757580501,
				"y": -3.221753942,
				"z": -3.0020734177,
				"element": "H" 
			},
			{
				"x": -2.715060831,
				"y": -4.0483499907,
				"z": -1.8881765212,
				"element": "H" 
			},
			{
				"x": -1.664943222,
				"y": -1.750977314,
				"z": 1.1518914552,
				"element": "H" 
			},
			{
				"x": -0.9879297451,
				"y": -0.2822055765,
				"z": 3.0674280148,
				"element": "H" 
			},
			{
				"x": 3.6922700953,
				"y": -0.0315614614,
				"z": 0.6372883926,
				"element": "H" 
			},
			{
				"x": 2.269049751,
				"y": -1.3383985808,
				"z": -0.5019880877,
				"element": "H" 
			}
		],
		 "valence_orbital": [ 
			{
				"type": "occ",
				"energy": -0.30305,
				"method": "rhf"
			},
			{
				"type": "occ",
				"energy": -0.29552,
				"method": "rhf"
			},
			{
				"type": "occ",
				"energy": -0.29233,
				"method": "rhf"
			},
			{
				"type": "occ",
				"energy": -0.27932,
				"method": "rhf"
			},
			{
				"type": "occ",
				"energy": -0.25718,
				"method": "rhf"
			},
			{
				"type": "unocc",
				"energy": -0.095,
				"method": "rhf"
			},
			{
				"type": "unocc",
				"energy": -0.03743,
				"method": "rhf"
			},
			{
				"type": "unocc",
				"energy": -0.023,
				"method": "rhf"
			},
			{
				"type": "unocc",
				"energy": 0.04708,
				"method": "rhf"
			},
			{
				"type": "unocc",
				"energy": 0.0504,
				"method": "rhf"
			}
		],
		"cosmo_sigma_profile": { 
			"-0.025": 0.0,
			"-0.024": 0.0,
			"-0.023": 0.0,
			"-0.022": 0.0,
			"-0.021": 0.0,
			"-0.02": 0.210177210901,
			"-0.019": 1.26137454282,
			"-0.018": 1.19026640876,
			"-0.017": 1.26129604079,
			"-0.016": 1.26540980596,
			"-0.015": 0.900480318016,
			"-0.014": 0.615437326647,
			"-0.013": 1.01949184061,
			"-0.012": 1.08755540086,
			"-0.011": 1.07552131251,
			"-0.01": 1.18988672142,
			"-0.009": 0.971258158625,
			"-0.008": 1.51652900778,
			"-0.007": 5.762549915,
			"-0.006": 12.8455399269,
			"-0.005": 12.9337486328,
			"-0.004": 16.5006422838,
			"-0.003": 15.5761841601,
			"-0.002": 13.7304194273,
			"-0.001": 17.4682168514,
			"0.0": 18.2399389087,
			"0.001": 13.8506883048,
			"0.002": 9.17676648453,
			"0.003": 6.12905096276,
			"0.004": 5.90618864369,
			"0.005": 6.49910845789,
			"0.006": 5.7098874732,
			"0.007": 7.81944330577,
			"0.008": 11.2635470343,
			"0.009": 7.94247388713,
			"0.01": 6.90471495427,
			"0.011": 5.51183792172,
			"0.012": 2.78663389364,
			"0.013": 0.350669746591,
			"0.014": 0.0,
			"0.015": 0.0,
			"0.016": 0.0,
			"0.017": 0.0,
			"0.018": 0.0,
			"0.019": 0.0,
			"0.02": 0.0,
			"0.021": 0.0,
			"0.022": 0.0,
			"0.023": 0.0,
			"0.024": 0.0,
			"0.025": 0.0
		}
	}
}
