{
	 "smiles": "[O-][N+](=O)C1=CC2=C(NC=C2)C=C1", 
	 "Tm": 479.15, 
	 "num_atms": 18, 
	 "gaussian": { 
		 "optdone": 1, 
		 "sigma_profile": "yes", 
		 "theory": "DFT", 
		 "functional": "B3LYP", 
		 "basiset": "6-31G**", 
		 "properties": { 
			 "R2extent": 2889.5766, 
			 "electric_dipole_moment_norm": 7.3448537528, 
			 "electric_quadrupole_moment_norm": 15.9753978846, 
			 "total_energy": -568.322712688, 
			 "HOMO_LUMO_gap": 0.15525, 
			 "cosmo_polarized_energy": -14.14, 
			 "cosmo_cavitation_energy": 22.97, 
			 "cosmo_dispersion_energy": -17.33, 
			 "cosmo_repulsion_energy": 1.36, 
			 "cosmo_total_nonelectrostatic_energy": 7.0, 
			 "SMD_solvation_energy": 6.21 
		},
		"coords": [
			{
				"x": 4.5945035464,
				"y": -0.7503664773,
				"z": -1.4106678281,
				"element": "O" 
			},
			{
				"x": 3.5266782831,
				"y": -0.8137124342,
				"z": -2.023218088,
				"element": "N" 
			},
			{
				"x": 3.4280694806,
				"y": -1.0926133894,
				"z": -3.2201896988,
				"element": "O" 
			},
			{
				"x": 2.2928665199,
				"y": -0.5389496185,
				"z": -1.2808220404,
				"element": "C" 
			},
			{
				"x": 2.3877239729,
				"y": -0.2228846156,
				"z": 0.0686442076,
				"element": "C" 
			},
			{
				"x": 1.1999704539,
				"y": 0.036458181,
				"z": 0.7619803953,
				"element": "C" 
			},
			{
				"x": -0.0414350226,
				"y": -0.0343688381,
				"z": 0.0605815255,
				"element": "C" 
			},
			{
				"x": -1.0327978739,
				"y": 0.2601137134,
				"z": 0.9647581391,
				"element": "N" 
			},
			{
				"x": -0.4660239596,
				"y": 0.512862465,
				"z": 2.2044101805,
				"element": "C" 
			},
			{
				"x": 0.8933098938,
				"y": 0.3865616641,
				"z": 2.1221219264,
				"element": "C" 
			},
			{
				"x": -0.1174865948,
				"y": -0.3550385187,
				"z": -1.3019125853,
				"element": "C" 
			},
			{
				"x": 1.0670905835,
				"y": -0.6087558208,
				"z": -1.9728994591,
				"element": "C" 
			},
			{
				"x": 3.3598445591,
				"y": -0.1850741766,
				"z": 0.5443248736,
				"element": "H" 
			},
			{
				"x": -2.0186835641,
				"y": 0.2884010668,
				"z": 0.7603953135,
				"element": "H" 
			},
			{
				"x": -1.0909442386,
				"y": 0.7643914603,
				"z": 3.0491767917,
				"element": "H" 
			},
			{
				"x": 1.5957929643,
				"y": 0.5253463828,
				"z": 2.9308050073,
				"element": "H" 
			},
			{
				"x": -1.0698335348,
				"y": -0.4047605395,
				"z": -1.8208254687,
				"element": "H" 
			},
			{
				"x": 1.078554531,
				"y": -0.8618105049,
				"z": -3.024863192,
				"element": "H" 
			}
		],
		 "valence_orbital": [ 
			{
				"type": "occ",
				"energy": -0.29388,
				"method": "rhf"
			},
			{
				"type": "occ",
				"energy": -0.2937,
				"method": "rhf"
			},
			{
				"type": "occ",
				"energy": -0.27605,
				"method": "rhf"
			},
			{
				"type": "occ",
				"energy": -0.24787,
				"method": "rhf"
			},
			{
				"type": "occ",
				"energy": -0.22753,
				"method": "rhf"
			},
			{
				"type": "unocc",
				"energy": -0.07228,
				"method": "rhf"
			},
			{
				"type": "unocc",
				"energy": -0.02834,
				"method": "rhf"
			},
			{
				"type": "unocc",
				"energy": 0.02797,
				"method": "rhf"
			},
			{
				"type": "unocc",
				"energy": 0.05247,
				"method": "rhf"
			},
			{
				"type": "unocc",
				"energy": 0.06154,
				"method": "rhf"
			}
		],
		"cosmo_sigma_profile": { 
			"-0.025": 0.0,
			"-0.024": 0.0,
			"-0.023": 0.0,
			"-0.022": 0.0,
			"-0.021": 0.0,
			"-0.02": 0.0,
			"-0.019": 0.0,
			"-0.018": 0.0,
			"-0.017": 0.359293959963,
			"-0.016": 1.81415133081,
			"-0.015": 1.13682680052,
			"-0.014": 1.74729460883,
			"-0.013": 1.11666895713,
			"-0.012": 1.041086524,
			"-0.011": 1.75414804211,
			"-0.01": 1.36162920966,
			"-0.009": 3.00082280176,
			"-0.008": 4.4368251189,
			"-0.007": 5.88455480769,
			"-0.006": 8.72248608513,
			"-0.005": 8.7304606518,
			"-0.004": 9.76039402181,
			"-0.003": 8.44043079323,
			"-0.002": 8.94601485866,
			"-0.001": 9.16220239736,
			"0.0": 12.0466664628,
			"0.001": 12.7185137388,
			"0.002": 18.3859011781,
			"0.003": 17.4153307767,
			"0.004": 10.1070567818,
			"0.005": 6.73787120795,
			"0.006": 3.85545476397,
			"0.007": 3.72080295836,
			"0.008": 10.3005111916,
			"0.009": 5.75116422643,
			"0.01": 4.53858010805,
			"0.011": 2.020192407,
			"0.012": 0.000235003044032,
			"0.013": 0.0,
			"0.014": 0.0,
			"0.015": 0.0,
			"0.016": 0.0,
			"0.017": 0.0,
			"0.018": 0.0,
			"0.019": 0.0,
			"0.02": 0.0,
			"0.021": 0.0,
			"0.022": 0.0,
			"0.023": 0.0,
			"0.024": 0.0,
			"0.025": 0.0
		}
	}
}
