{
	 "smiles": "COC1=CC=C2C(O)C3CC(=O)CCN3CC2=C1O", 
	 "Tm": 430.15, 
	 "num_atms": 36, 
	 "gaussian": { 
		 "optdone": 1, 
		 "sigma_profile": "yes", 
		 "theory": "DFT", 
		 "functional": "B3LYP", 
		 "basiset": "6-31G**", 
		 "properties": { 
			 "R2extent": 6430.1369, 
			 "electric_dipole_moment_norm": 6.75562012254, 
			 "electric_quadrupole_moment_norm": 14.2657197799, 
			 "total_energy": -899.348367553, 
			 "HOMO_LUMO_gap": 0.19902, 
			 "cosmo_polarized_energy": -17.13, 
			 "cosmo_cavitation_energy": 36.48, 
			 "cosmo_dispersion_energy": -26.8, 
			 "cosmo_repulsion_energy": 2.04, 
			 "cosmo_total_nonelectrostatic_energy": 11.72, 
			 "SMD_solvation_energy": 4.56 
		},
		"coords": [
			{
				"x": -0.6851551137,
				"y": 4.6745760936,
				"z": -0.0841639408,
				"element": "C" 
			},
			{
				"x": -0.6787352253,
				"y": 3.5487524689,
				"z": -0.9491682145,
				"element": "O" 
			},
			{
				"x": -0.1090439826,
				"y": 2.3835227261,
				"z": -0.4926066455,
				"element": "C" 
			},
			{
				"x": 0.4920876375,
				"y": 2.190621449,
				"z": 0.7483198789,
				"element": "C" 
			},
			{
				"x": 1.025309973,
				"y": 0.9369017436,
				"z": 1.0615785383,
				"element": "C" 
			},
			{
				"x": 0.9619179361,
				"y": -0.1213774689,
				"z": 0.1516101074,
				"element": "C" 
			},
			{
				"x": 1.5489028064,
				"y": -1.4760360948,
				"z": 0.525345567,
				"element": "C" 
			},
			{
				"x": 2.7455090941,
				"y": -1.3543064034,
				"z": 1.2966832532,
				"element": "O" 
			},
			{
				"x": 1.7711672595,
				"y": -2.3407588578,
				"z": -0.7357059677,
				"element": "C" 
			},
			{
				"x": 2.2397103201,
				"y": -3.7781236637,
				"z": -0.439794477,
				"element": "C" 
			},
			{
				"x": 1.1111225479,
				"y": -4.7978296159,
				"z": -0.4959708253,
				"element": "C" 
			},
			{
				"x": 1.315386355,
				"y": -5.9730670853,
				"z": -0.7296104388,
				"element": "O" 
			},
			{
				"x": -0.2728987771,
				"y": -4.2534835321,
				"z": -0.1862670737,
				"element": "C" 
			},
			{
				"x": -0.6110386739,
				"y": -2.974644312,
				"z": -0.9891140835,
				"element": "C" 
			},
			{
				"x": 0.5839904554,
				"y": -2.3698027826,
				"z": -1.599713345,
				"element": "N" 
			},
			{
				"x": 0.3084711277,
				"y": -1.0421607599,
				"z": -2.1436902875,
				"element": "C" 
			},
			{
				"x": 0.3532412182,
				"y": 0.0702100326,
				"z": -1.1054129743,
				"element": "C" 
			},
			{
				"x": -0.1712171806,
				"y": 1.3248222665,
				"z": -1.4175538106,
				"element": "C" 
			},
			{
				"x": -0.7478785986,
				"y": 1.521259836,
				"z": -2.639841274,
				"element": "O" 
			},
			{
				"x": -1.2392326461,
				"y": 4.4652382735,
				"z": 0.8392456326,
				"element": "H" 
			},
			{
				"x": -1.183172408,
				"y": 5.4767325211,
				"z": -0.6306689204,
				"element": "H" 
			},
			{
				"x": 0.3348764203,
				"y": 4.9880255766,
				"z": 0.1706247183,
				"element": "H" 
			},
			{
				"x": 0.5505951025,
				"y": 2.9988271384,
				"z": 1.4683380698,
				"element": "H" 
			},
			{
				"x": 1.5048978452,
				"y": 0.7782057306,
				"z": 2.0217369323,
				"element": "H" 
			},
			{
				"x": 0.8590783972,
				"y": -1.9965915643,
				"z": 1.2027479642,
				"element": "H" 
			},
			{
				"x": 3.3403638657,
				"y": -0.7658643481,
				"z": 0.8101259917,
				"element": "H" 
			},
			{
				"x": 2.5597083806,
				"y": -1.8386380964,
				"z": -1.3150260441,
				"element": "H" 
			},
			{
				"x": 3.0002997107,
				"y": -4.1035870881,
				"z": -1.1541831232,
				"element": "H" 
			},
			{
				"x": 2.702986868,
				"y": -3.8203812099,
				"z": 0.5547823117,
				"element": "H" 
			},
			{
				"x": -1.0069831366,
				"y": -5.043421187,
				"z": -0.3576233509,
				"element": "H" 
			},
			{
				"x": -0.2816546968,
				"y": -4.0308789724,
				"z": 0.8898179974,
				"element": "H" 
			},
			{
				"x": -1.2895914332,
				"y": -3.2318374224,
				"z": -1.8101083774,
				"element": "H" 
			},
			{
				"x": -1.1584189281,
				"y": -2.2681429436,
				"z": -0.3418901849,
				"element": "H" 
			},
			{
				"x": 1.0452502088,
				"y": -0.8261192214,
				"z": -2.9312340343,
				"element": "H" 
			},
			{
				"x": -0.6658175026,
				"y": -1.0518126908,
				"z": -2.6425567165,
				"element": "H" 
			},
			{
				"x": -1.0609352267,
				"y": 2.4387694644,
				"z": -2.6603528529,
				"element": "H" 
			}
		],
		 "valence_orbital": [ 
			{
				"type": "occ",
				"energy": -0.28866,
				"method": "rhf"
			},
			{
				"type": "occ",
				"energy": -0.23794,
				"method": "rhf"
			},
			{
				"type": "occ",
				"energy": -0.23112,
				"method": "rhf"
			},
			{
				"type": "occ",
				"energy": -0.21536,
				"method": "rhf"
			},
			{
				"type": "occ",
				"energy": -0.20516,
				"method": "rhf"
			},
			{
				"type": "unocc",
				"energy": -0.00614,
				"method": "rhf"
			},
			{
				"type": "unocc",
				"energy": 0.00034,
				"method": "rhf"
			},
			{
				"type": "unocc",
				"energy": 0.00518,
				"method": "rhf"
			},
			{
				"type": "unocc",
				"energy": 0.07075,
				"method": "rhf"
			},
			{
				"type": "unocc",
				"energy": 0.08319,
				"method": "rhf"
			}
		],
		"cosmo_sigma_profile": { 
			"-0.025": 0.0,
			"-0.024": 0.0,
			"-0.023": 0.0,
			"-0.022": 0.0,
			"-0.021": 0.0,
			"-0.02": 0.0,
			"-0.019": 0.0,
			"-0.018": 0.0,
			"-0.017": 0.0,
			"-0.016": 0.0,
			"-0.015": 0.761703804808,
			"-0.014": 1.2261095006,
			"-0.013": 1.0043224428,
			"-0.012": 1.59015569167,
			"-0.011": 1.80879188116,
			"-0.01": 1.33633819993,
			"-0.009": 1.11184914191,
			"-0.008": 2.33939544719,
			"-0.007": 5.73474230057,
			"-0.006": 13.3685182153,
			"-0.005": 23.2334355481,
			"-0.004": 32.1608037743,
			"-0.003": 29.2579339733,
			"-0.002": 24.0800432641,
			"-0.001": 18.3622600407,
			"0.0": 12.9216768708,
			"0.001": 13.9422319187,
			"0.002": 13.6123384474,
			"0.003": 15.261089897,
			"0.004": 13.5347792147,
			"0.005": 12.6965152605,
			"0.006": 9.47795043239,
			"0.007": 4.52292105721,
			"0.008": 3.91411894608,
			"0.009": 5.49127714923,
			"0.01": 5.53789200996,
			"0.011": 5.14734561983,
			"0.012": 5.44536246564,
			"0.013": 4.87558465424,
			"0.014": 1.87798169807,
			"0.015": 0.018461186793,
			"0.016": 0.0,
			"0.017": 0.0,
			"0.018": 0.0,
			"0.019": 0.0,
			"0.02": 0.0,
			"0.021": 0.0,
			"0.022": 0.0,
			"0.023": 0.0,
			"0.024": 0.0,
			"0.025": 0.0
		}
	}
}
