{
	 "smiles": "[O-][N+](=O)C1=CC2=C(NC(=O)C2)C=C1", 
	 "Tm": 510.15, 
	 "num_atms": 19, 
	 "gaussian": { 
		 "optdone": 1, 
		 "sigma_profile": "yes", 
		 "theory": "DFT", 
		 "functional": "B3LYP", 
		 "basiset": "6-31G**", 
		 "properties": { 
			 "R2extent": 3464.7619, 
			 "electric_dipole_moment_norm": 3.34623577322, 
			 "electric_quadrupole_moment_norm": 29.0879493217, 
			 "total_energy": -643.564216303, 
			 "HOMO_LUMO_gap": 0.1605, 
			 "cosmo_polarized_energy": -16.76, 
			 "cosmo_cavitation_energy": 24.37, 
			 "cosmo_dispersion_energy": -18.26, 
			 "cosmo_repulsion_energy": 1.44, 
			 "cosmo_total_nonelectrostatic_energy": 7.55, 
			 "SMD_solvation_energy": 6.88 
		},
		"coords": [
			{
				"x": 2.3105058984,
				"y": 4.0739592312,
				"z": 0.1287456166,
				"element": "O" 
			},
			{
				"x": 1.8529141439,
				"y": 3.4847627243,
				"z": -0.8519468361,
				"element": "N" 
			},
			{
				"x": 1.689307789,
				"y": 3.9974317858,
				"z": -1.9608850731,
				"element": "O" 
			},
			{
				"x": 1.4770704401,
				"y": 2.0791964629,
				"z": -0.6919197908,
				"element": "C" 
			},
			{
				"x": 0.9544739347,
				"y": 1.3908638709,
				"z": -1.7966582969,
				"element": "C" 
			},
			{
				"x": 0.6058820102,
				"y": 0.0656789264,
				"z": -1.6255368559,
				"element": "C" 
			},
			{
				"x": 0.7805669516,
				"y": -0.552156158,
				"z": -0.3675197124,
				"element": "C" 
			},
			{
				"x": 0.361467455,
				"y": -1.8748003269,
				"z": -0.4460561811,
				"element": "N" 
			},
			{
				"x": -0.1057568557,
				"y": -2.2182712128,
				"z": -1.7163412958,
				"element": "C" 
			},
			{
				"x": -0.5232735532,
				"y": -3.3087585062,
				"z": -2.0373516936,
				"element": "O" 
			},
			{
				"x": 0.0288818151,
				"y": -0.9508310075,
				"z": -2.5771580709,
				"element": "C" 
			},
			{
				"x": 1.3005477184,
				"y": 0.1353236102,
				"z": 0.7285341221,
				"element": "C" 
			},
			{
				"x": 1.6514743758,
				"y": 1.4732705702,
				"z": 0.5525723092,
				"element": "C" 
			},
			{
				"x": 0.8397858003,
				"y": 1.9091230625,
				"z": -2.7409112724,
				"element": "H" 
			},
			{
				"x": 0.3782833503,
				"y": -2.542816502,
				"z": 0.3112245696,
				"element": "H" 
			},
			{
				"x": 0.672486922,
				"y": -1.1638826976,
				"z": -3.4377286576,
				"element": "H" 
			},
			{
				"x": -0.9549736185,
				"y": -0.6754657352,
				"z": -2.9726106482,
				"element": "H" 
			},
			{
				"x": 1.4308614305,
				"y": -0.3485664227,
				"z": 1.6908450375,
				"element": "H" 
			},
			{
				"x": 2.060093992,
				"y": 2.0591383244,
				"z": 1.3662027298,
				"element": "H" 
			}
		],
		 "valence_orbital": [ 
			{
				"type": "occ",
				"energy": -0.30647,
				"method": "rhf"
			},
			{
				"type": "occ",
				"energy": -0.28852,
				"method": "rhf"
			},
			{
				"type": "occ",
				"energy": -0.28423,
				"method": "rhf"
			},
			{
				"type": "occ",
				"energy": -0.27896,
				"method": "rhf"
			},
			{
				"type": "occ",
				"energy": -0.24767,
				"method": "rhf"
			},
			{
				"type": "unocc",
				"energy": -0.08717,
				"method": "rhf"
			},
			{
				"type": "unocc",
				"energy": -0.03914,
				"method": "rhf"
			},
			{
				"type": "unocc",
				"energy": -0.01448,
				"method": "rhf"
			},
			{
				"type": "unocc",
				"energy": 0.02226,
				"method": "rhf"
			},
			{
				"type": "unocc",
				"energy": 0.06763,
				"method": "rhf"
			}
		],
		"cosmo_sigma_profile": { 
			"-0.025": 0.0,
			"-0.024": 0.0,
			"-0.023": 0.0,
			"-0.022": 0.0,
			"-0.021": 0.0,
			"-0.02": 0.0,
			"-0.019": 0.0,
			"-0.018": 0.0,
			"-0.017": 0.1873820197,
			"-0.016": 1.47006414959,
			"-0.015": 1.59988234227,
			"-0.014": 1.29410736784,
			"-0.013": 1.10026830737,
			"-0.012": 1.24917936587,
			"-0.011": 1.20698096931,
			"-0.01": 1.12551109925,
			"-0.009": 1.22543936196,
			"-0.008": 7.4801648745,
			"-0.007": 10.2161800205,
			"-0.006": 11.5367972265,
			"-0.005": 12.6686753824,
			"-0.004": 12.0113685155,
			"-0.003": 8.94527144563,
			"-0.002": 10.5822572757,
			"-0.001": 14.9057216437,
			"0.0": 14.739339215,
			"0.001": 14.2536528367,
			"0.002": 9.25111619927,
			"0.003": 4.83905954767,
			"0.004": 2.19424515169,
			"0.005": 5.0322999685,
			"0.006": 4.36255308629,
			"0.007": 5.5923292456,
			"0.008": 11.3283656373,
			"0.009": 6.3764434112,
			"0.01": 6.17966290367,
			"0.011": 3.90679808507,
			"0.012": 6.07172518033,
			"0.013": 2.60559322329,
			"0.014": 0.105089956917,
			"0.015": 0.0,
			"0.016": 0.0,
			"0.017": 0.0,
			"0.018": 0.0,
			"0.019": 0.0,
			"0.02": 0.0,
			"0.021": 0.0,
			"0.022": 0.0,
			"0.023": 0.0,
			"0.024": 0.0,
			"0.025": 0.0
		}
	}
}
