{
	 "smiles": "FC1=CC(F)=C(C#N)C(F)=C1", 
	 "Tm": 332.15, 
	 "num_atms": 13, 
	 "gaussian": { 
		 "optdone": 1, 
		 "sigma_profile": "yes", 
		 "theory": "DFT", 
		 "functional": "B3LYP", 
		 "basiset": "6-31G**", 
		 "properties": { 
			 "R2extent": 1734.6481, 
			 "electric_dipole_moment_norm": 4.32040291292, 
			 "electric_quadrupole_moment_norm": 13.6664589572, 
			 "total_energy": -622.17714379, 
			 "HOMO_LUMO_gap": 0.21209, 
			 "cosmo_polarized_energy": -7.99, 
			 "cosmo_cavitation_energy": 20.73, 
			 "cosmo_dispersion_energy": -14.26, 
			 "cosmo_repulsion_energy": 1.08, 
			 "cosmo_total_nonelectrostatic_energy": 7.55, 
			 "SMD_solvation_energy": 6.48 
		},
		"coords": [
			{
				"x": -2.8730897802,
				"y": -0.2428629604,
				"z": -1.6543079755,
				"element": "F" 
			},
			{
				"x": -1.6196460075,
				"y": -0.2524328868,
				"z": -1.184595036,
				"element": "C" 
			},
			{
				"x": -0.7826837355,
				"y": -1.3044935766,
				"z": -1.5462362424,
				"element": "C" 
			},
			{
				"x": 0.5107917635,
				"y": -1.2925403223,
				"z": -1.0474081275,
				"element": "C" 
			},
			{
				"x": 1.343001623,
				"y": -2.2850068227,
				"z": -1.3723997724,
				"element": "F" 
			},
			{
				"x": 0.9885096513,
				"y": -0.272391705,
				"z": -0.207189091,
				"element": "C" 
			},
			{
				"x": 2.3232538272,
				"y": -0.2825654295,
				"z": 0.2930293129,
				"element": "C" 
			},
			{
				"x": 3.4117771495,
				"y": -0.2908120108,
				"z": 0.7010201216,
				"element": "N" 
			},
			{
				"x": 0.0899985228,
				"y": 0.7582759559,
				"z": 0.1172976226,
				"element": "C" 
			},
			{
				"x": 0.5169164138,
				"y": 1.7411240329,
				"z": 0.9141262463,
				"element": "F" 
			},
			{
				"x": -1.2124431267,
				"y": 0.7901112856,
				"z": -0.3567094327,
				"element": "C" 
			},
			{
				"x": -1.124998979,
				"y": -2.1029669612,
				"z": -2.1918612739,
				"element": "H" 
			},
			{
				"x": -1.8839873225,
				"y": 1.5963614007,
				"z": -0.0910663519,
				"element": "H" 
			}
		],
		 "valence_orbital": [ 
			{
				"type": "occ",
				"energy": -0.36956,
				"method": "rhf"
			},
			{
				"type": "occ",
				"energy": -0.35607,
				"method": "rhf"
			},
			{
				"type": "occ",
				"energy": -0.34441,
				"method": "rhf"
			},
			{
				"type": "occ",
				"energy": -0.28679,
				"method": "rhf"
			},
			{
				"type": "occ",
				"energy": -0.27684,
				"method": "rhf"
			},
			{
				"type": "unocc",
				"energy": -0.06475,
				"method": "rhf"
			},
			{
				"type": "unocc",
				"energy": -0.03887,
				"method": "rhf"
			},
			{
				"type": "unocc",
				"energy": 0.01731,
				"method": "rhf"
			},
			{
				"type": "unocc",
				"energy": 0.04824,
				"method": "rhf"
			},
			{
				"type": "unocc",
				"energy": 0.0605,
				"method": "rhf"
			}
		],
		"cosmo_sigma_profile": { 
			"-0.025": 0.0,
			"-0.024": 0.0,
			"-0.023": 0.0,
			"-0.022": 0.0,
			"-0.021": 0.0,
			"-0.02": 0.0,
			"-0.019": 0.0,
			"-0.018": 0.0,
			"-0.017": 0.0,
			"-0.016": 0.0,
			"-0.015": 0.0,
			"-0.014": 0.0,
			"-0.013": 0.0,
			"-0.012": 0.0,
			"-0.011": 0.136050397149,
			"-0.01": 3.18735519924,
			"-0.009": 2.80976879466,
			"-0.008": 3.05168382497,
			"-0.007": 3.41959622252,
			"-0.006": 2.5091431055,
			"-0.005": 4.1821227106,
			"-0.004": 11.2259789463,
			"-0.003": 20.9701886825,
			"-0.002": 21.4046462896,
			"-0.001": 12.5844152707,
			"0.0": 8.76035881821,
			"0.001": 9.94035077277,
			"0.002": 24.9476489051,
			"0.003": 15.6022530298,
			"0.004": 2.34655893202,
			"0.005": 2.83247746105,
			"0.006": 2.71808707121,
			"0.007": 3.15642507163,
			"0.008": 3.35695796726,
			"0.009": 3.11868498533,
			"0.01": 2.76095642358,
			"0.011": 2.43402503834,
			"0.012": 1.9574771894,
			"0.013": 0.179208349562,
			"0.014": 0.0,
			"0.015": 0.0,
			"0.016": 0.0,
			"0.017": 0.0,
			"0.018": 0.0,
			"0.019": 0.0,
			"0.02": 0.0,
			"0.021": 0.0,
			"0.022": 0.0,
			"0.023": 0.0,
			"0.024": 0.0,
			"0.025": 0.0
		}
	}
}
