{
	 "smiles": "CC1CNC(=O)CC(C)C1", 
	 "Tm": 396.15, 
	 "num_atms": 25, 
	 "gaussian": { 
		 "optdone": 1, 
		 "sigma_profile": "yes", 
		 "theory": "DFT", 
		 "functional": "B3LYP", 
		 "basiset": "6-31G**", 
		 "properties": { 
			 "R2extent": 2320.1172, 
			 "electric_dipole_moment_norm": 3.98138448281, 
			 "electric_quadrupole_moment_norm": 16.4223705941, 
			 "total_energy": -443.89070912, 
			 "HOMO_LUMO_gap": 0.26757, 
			 "cosmo_polarized_energy": -10.53, 
			 "cosmo_cavitation_energy": 24.98, 
			 "cosmo_dispersion_energy": -18.49, 
			 "cosmo_repulsion_energy": 1.5, 
			 "cosmo_total_nonelectrostatic_energy": 7.99, 
			 "SMD_solvation_energy": 4.01 
		},
		"coords": [
			{
				"x": -0.0496105682,
				"y": -2.7124006701,
				"z": 0.3406805414,
				"element": "C" 
			},
			{
				"x": 0.6708920588,
				"y": -1.3661477921,
				"z": 0.1685748618,
				"element": "C" 
			},
			{
				"x": 2.1715256188,
				"y": -1.540818203,
				"z": 0.4451160742,
				"element": "C" 
			},
			{
				"x": 3.0328357509,
				"y": -0.5088128439,
				"z": -0.1273936665,
				"element": "N" 
			},
			{
				"x": 2.845163804,
				"y": 0.8309406963,
				"z": -0.3624050582,
				"element": "C" 
			},
			{
				"x": 3.769999173,
				"y": 1.5055317612,
				"z": -0.8046687395,
				"element": "O" 
			},
			{
				"x": 1.4758011176,
				"y": 1.4671974055,
				"z": -0.1179223118,
				"element": "C" 
			},
			{
				"x": 0.7186672639,
				"y": 1.0756035465,
				"z": 1.1673726826,
				"element": "C" 
			},
			{
				"x": 1.6151283579,
				"y": 1.202295063,
				"z": 2.4118273437,
				"element": "C" 
			},
			{
				"x": 0.0061596455,
				"y": -0.297451559,
				"z": 1.0591327244,
				"element": "C" 
			},
			{
				"x": 0.0988969696,
				"y": -3.1123255766,
				"z": 1.3510768335,
				"element": "H" 
			},
			{
				"x": -1.1278194079,
				"y": -2.6016080455,
				"z": 0.1866340655,
				"element": "H" 
			},
			{
				"x": 0.3164660448,
				"y": -3.4578955663,
				"z": -0.3730586041,
				"element": "H" 
			},
			{
				"x": 0.571444777,
				"y": -1.0648594443,
				"z": -0.8827236666,
				"element": "H" 
			},
			{
				"x": 2.3292814977,
				"y": -1.6339947133,
				"z": 1.531791749,
				"element": "H" 
			},
			{
				"x": 2.5001517927,
				"y": -2.488756214,
				"z": 0.003889043,
				"element": "H" 
			},
			{
				"x": 3.9885227353,
				"y": -0.7794487748,
				"z": -0.3220234138,
				"element": "H" 
			},
			{
				"x": 0.8494362739,
				"y": 1.2723462237,
				"z": -0.9986719063,
				"element": "H" 
			},
			{
				"x": 1.678992016,
				"y": 2.5409483301,
				"z": -0.1184635837,
				"element": "H" 
			},
			{
				"x": -0.0748212316,
				"y": 1.825307685,
				"z": 1.2837835584,
				"element": "H" 
			},
			{
				"x": 2.4513270473,
				"y": 0.496426254,
				"z": 2.3960539494,
				"element": "H" 
			},
			{
				"x": 1.0390042391,
				"y": 1.0189698344,
				"z": 3.3250031008,
				"element": "H" 
			},
			{
				"x": 2.0416109285,
				"y": 2.2088909631,
				"z": 2.4809359085,
				"element": "H" 
			},
			{
				"x": -1.0092019576,
				"y": -0.1415768711,
				"z": 0.6729714682,
				"element": "H" 
			},
			{
				"x": -0.119453947,
				"y": -0.7123614889,
				"z": 2.0688870461,
				"element": "H" 
			}
		],
		 "valence_orbital": [ 
			{
				"type": "occ",
				"energy": -0.32407,
				"method": "rhf"
			},
			{
				"type": "occ",
				"energy": -0.31979,
				"method": "rhf"
			},
			{
				"type": "occ",
				"energy": -0.31065,
				"method": "rhf"
			},
			{
				"type": "occ",
				"energy": -0.23986,
				"method": "rhf"
			},
			{
				"type": "occ",
				"energy": -0.23295,
				"method": "rhf"
			},
			{
				"type": "unocc",
				"energy": 0.03462,
				"method": "rhf"
			},
			{
				"type": "unocc",
				"energy": 0.0691,
				"method": "rhf"
			},
			{
				"type": "unocc",
				"energy": 0.09276,
				"method": "rhf"
			},
			{
				"type": "unocc",
				"energy": 0.09995,
				"method": "rhf"
			},
			{
				"type": "unocc",
				"energy": 0.10792,
				"method": "rhf"
			}
		],
		"cosmo_sigma_profile": { 
			"-0.025": 0.0,
			"-0.024": 0.0,
			"-0.023": 0.0,
			"-0.022": 0.0,
			"-0.021": 0.0,
			"-0.02": 0.0,
			"-0.019": 0.0,
			"-0.018": 0.0,
			"-0.017": 0.0,
			"-0.016": 0.0,
			"-0.015": 0.0,
			"-0.014": 0.0,
			"-0.013": 0.375711270028,
			"-0.012": 1.08512600913,
			"-0.011": 1.12448265396,
			"-0.01": 1.05069688971,
			"-0.009": 1.0985151068,
			"-0.008": 0.580655286603,
			"-0.007": 0.984661492755,
			"-0.006": 1.64603608957,
			"-0.005": 5.05122447389,
			"-0.004": 8.922146621,
			"-0.003": 26.4359563994,
			"-0.002": 39.8351152536,
			"-0.001": 29.4153690083,
			"0.0": 21.0725457836,
			"0.001": 18.601659804,
			"0.002": 6.83691147801,
			"0.003": 2.60535835507,
			"0.004": 1.73489067197,
			"0.005": 1.68849163624,
			"0.006": 1.41690769706,
			"0.007": 1.43447453118,
			"0.008": 0.975876853614,
			"0.009": 1.83287916563,
			"0.01": 1.22413594271,
			"0.011": 1.39961226756,
			"0.012": 1.01275242306,
			"0.013": 1.89552602813,
			"0.014": 4.87883970893,
			"0.015": 5.05659508103,
			"0.016": 0.882814478385,
			"0.017": 0.0,
			"0.018": 0.0,
			"0.019": 0.0,
			"0.02": 0.0,
			"0.021": 0.0,
			"0.022": 0.0,
			"0.023": 0.0,
			"0.024": 0.0,
			"0.025": 0.0
		}
	}
}
