{
	 "smiles": "CC1=CC=C(C=C1)N(CC1=NCCN1)C1=CC(O)=CC=C1", 
	 "Tm": 448.15, 
	 "num_atms": 40, 
	 "gaussian": { 
		 "optdone": 1, 
		 "sigma_profile": "yes", 
		 "theory": "DFT", 
		 "functional": "B3LYP", 
		 "basiset": "6-31G**", 
		 "properties": { 
			 "R2extent": 7090.9624, 
			 "electric_dipole_moment_norm": 4.03075889753, 
			 "electric_quadrupole_moment_norm": 10.3249982436, 
			 "total_energy": -898.726545702, 
			 "HOMO_LUMO_gap": 0.1715, 
			 "cosmo_polarized_energy": -14.62, 
			 "cosmo_cavitation_energy": 41.9, 
			 "cosmo_dispersion_energy": -29.02, 
			 "cosmo_repulsion_energy": 2.25, 
			 "cosmo_total_nonelectrostatic_energy": 15.13, 
			 "SMD_solvation_energy": 2.66 
		},
		"coords": [
			{
				"x": -3.7233446371,
				"y": 2.9772615997,
				"z": -0.9676272354,
				"element": "C" 
			},
			{
				"x": -2.5326524871,
				"y": 2.1829255588,
				"z": -0.4856752788,
				"element": "C" 
			},
			{
				"x": -1.9474581644,
				"y": 2.4348988343,
				"z": 0.7620560665,
				"element": "C" 
			},
			{
				"x": -0.8245298645,
				"y": 1.7324466975,
				"z": 1.19514819,
				"element": "C" 
			},
			{
				"x": -0.2564692422,
				"y": 0.7279673411,
				"z": 0.3965965511,
				"element": "C" 
			},
			{
				"x": -0.8434063694,
				"y": 0.4622987781,
				"z": -0.852992526,
				"element": "C" 
			},
			{
				"x": -1.9545266925,
				"y": 1.1855817171,
				"z": -1.2828267182,
				"element": "C" 
			},
			{
				"x": 0.8607530509,
				"y": -0.0214534408,
				"z": 0.861145827,
				"element": "N" 
			},
			{
				"x": 0.7279406142,
				"y": -0.735502466,
				"z": 2.1331579161,
				"element": "C" 
			},
			{
				"x": 0.0838344077,
				"y": -2.1019215368,
				"z": 2.0228707445,
				"element": "C" 
			},
			{
				"x": 0.6776515611,
				"y": -3.1885784633,
				"z": 2.3675503596,
				"element": "N" 
			},
			{
				"x": -0.3011969907,
				"y": -4.2731322693,
				"z": 2.1567494794,
				"element": "C" 
			},
			{
				"x": -1.4486924588,
				"y": -3.6487969231,
				"z": 1.3165312206,
				"element": "C" 
			},
			{
				"x": -1.2304278927,
				"y": -2.2196553861,
				"z": 1.5844637572,
				"element": "N" 
			},
			{
				"x": 1.9614701171,
				"y": -0.291244978,
				"z": 0.0200002328,
				"element": "C" 
			},
			{
				"x": 2.7449453467,
				"y": -1.4445735665,
				"z": 0.2033115185,
				"element": "C" 
			},
			{
				"x": 3.8715123875,
				"y": -1.6636372122,
				"z": -0.5963480922,
				"element": "C" 
			},
			{
				"x": 4.6505390826,
				"y": -2.7763016405,
				"z": -0.4375481524,
				"element": "O" 
			},
			{
				"x": 4.2316233146,
				"y": -0.7605384295,
				"z": -1.5989561619,
				"element": "C" 
			},
			{
				"x": 3.4438424702,
				"y": 0.3756337789,
				"z": -1.7787251115,
				"element": "C" 
			},
			{
				"x": 2.3272708672,
				"y": 0.6256759096,
				"z": -0.9854402539,
				"element": "C" 
			},
			{
				"x": -4.339390696,
				"y": 3.3232065881,
				"z": -0.1321508532,
				"element": "H" 
			},
			{
				"x": -4.3582555801,
				"y": 2.3835283893,
				"z": -1.632502115,
				"element": "H" 
			},
			{
				"x": -3.4086396471,
				"y": 3.8661757499,
				"z": -1.5290369684,
				"element": "H" 
			},
			{
				"x": -2.3679260885,
				"y": 3.2057142186,
				"z": 1.4034279407,
				"element": "H" 
			},
			{
				"x": -0.377855658,
				"y": 1.9705602716,
				"z": 2.1558730568,
				"element": "H" 
			},
			{
				"x": -0.4142991135,
				"y": -0.3064741556,
				"z": -1.4878916025,
				"element": "H" 
			},
			{
				"x": -2.3880646877,
				"y": 0.9600409707,
				"z": -2.2543831747,
				"element": "H" 
			},
			{
				"x": 0.1242636784,
				"y": -0.1238524449,
				"z": 2.8095862954,
				"element": "H" 
			},
			{
				"x": 1.7118548294,
				"y": -0.86332629,
				"z": 2.5876238736,
				"element": "H" 
			},
			{
				"x": -0.6677499258,
				"y": -4.6161667065,
				"z": 3.1337266175,
				"element": "H" 
			},
			{
				"x": 0.1669059371,
				"y": -5.1313758311,
				"z": 1.6653134588,
				"element": "H" 
			},
			{
				"x": -1.3395181355,
				"y": -3.8779725478,
				"z": 0.2464203467,
				"element": "H" 
			},
			{
				"x": -2.4430932737,
				"y": -3.9715041809,
				"z": 1.6377733783,
				"element": "H" 
			},
			{
				"x": -1.5723736568,
				"y": -1.5389138415,
				"z": 0.9171255147,
				"element": "H" 
			},
			{
				"x": 2.4687403558,
				"y": -2.1904892479,
				"z": 0.942321018,
				"element": "H" 
			},
			{
				"x": 4.3002594352,
				"y": -3.2999632608,
				"z": 0.2952180501,
				"element": "H" 
			},
			{
				"x": 5.1066372659,
				"y": -0.9570216611,
				"z": -2.2081567934,
				"element": "H" 
			},
			{
				"x": 3.7157191527,
				"y": 1.0951972224,
				"z": -2.5462783125,
				"element": "H" 
			},
			{
				"x": 1.7511073877,
				"y": 1.5322828546,
				"z": -1.1266520639,
				"element": "H" 
			}
		],
		 "valence_orbital": [ 
			{
				"type": "occ",
				"energy": -0.2579,
				"method": "rhf"
			},
			{
				"type": "occ",
				"energy": -0.24844,
				"method": "rhf"
			},
			{
				"type": "occ",
				"energy": -0.21914,
				"method": "rhf"
			},
			{
				"type": "occ",
				"energy": -0.21661,
				"method": "rhf"
			},
			{
				"type": "occ",
				"energy": -0.18503,
				"method": "rhf"
			},
			{
				"type": "unocc",
				"energy": -0.01353,
				"method": "rhf"
			},
			{
				"type": "unocc",
				"energy": -0.01187,
				"method": "rhf"
			},
			{
				"type": "unocc",
				"energy": 0.0162,
				"method": "rhf"
			},
			{
				"type": "unocc",
				"energy": 0.02732,
				"method": "rhf"
			},
			{
				"type": "unocc",
				"energy": 0.03144,
				"method": "rhf"
			}
		],
		"cosmo_sigma_profile": { 
			"-0.025": 0.0,
			"-0.024": 0.0,
			"-0.023": 0.0,
			"-0.022": 0.0,
			"-0.021": 0.0,
			"-0.02": 0.0,
			"-0.019": 0.0,
			"-0.018": 0.0132782248408,
			"-0.017": 0.553284496797,
			"-0.016": 1.09462764093,
			"-0.015": 0.955470798176,
			"-0.014": 0.833694101699,
			"-0.013": 0.606639858133,
			"-0.012": 1.14836331971,
			"-0.011": 0.92356926953,
			"-0.01": 1.15221259696,
			"-0.009": 1.45075017004,
			"-0.008": 1.44969065249,
			"-0.007": 3.67357544295,
			"-0.006": 7.76171196616,
			"-0.005": 18.7847022953,
			"-0.004": 35.1189790622,
			"-0.003": 40.0173661608,
			"-0.002": 32.0970438992,
			"-0.001": 26.6376010421,
			"0.0": 24.1197019407,
			"0.001": 18.4566163892,
			"0.002": 17.0964989204,
			"0.003": 19.0409600306,
			"0.004": 18.4128758128,
			"0.005": 20.1756223744,
			"0.006": 13.7892767871,
			"0.007": 7.21441781898,
			"0.008": 2.99604994815,
			"0.009": 3.32707151467,
			"0.01": 2.69032356512,
			"0.011": 3.14648204329,
			"0.012": 2.63901441794,
			"0.013": 0.689377092527,
			"0.014": 0.930631189446,
			"0.015": 0.60660403159,
			"0.016": 0.932093445509,
			"0.017": 0.626333904111,
			"0.018": 0.539419030349,
			"0.019": 0.124336350217,
			"0.02": 0.0,
			"0.021": 0.0,
			"0.022": 0.0,
			"0.023": 0.0,
			"0.024": 0.0,
			"0.025": 0.0
		}
	}
}
