{
	 "smiles": "CC(=O)C(CC1=CC=CC=C1)=CNC1=CC=C(C)C=C1", 
	 "Tm": 376.15, 
	 "num_atms": 39, 
	 "gaussian": { 
		 "optdone": 1, 
		 "sigma_profile": "yes", 
		 "theory": "DFT", 
		 "functional": "B3LYP", 
		 "basiset": "6-31G**", 
		 "properties": { 
			 "R2extent": 7009.4824, 
			 "electric_dipole_moment_norm": 4.69384794492, 
			 "electric_quadrupole_moment_norm": 13.6029763611, 
			 "total_energy": -827.334322976, 
			 "HOMO_LUMO_gap": 0.15324, 
			 "cosmo_polarized_energy": -14.49, 
			 "cosmo_cavitation_energy": 41.69, 
			 "cosmo_dispersion_energy": -28.24, 
			 "cosmo_repulsion_energy": 2.18, 
			 "cosmo_total_nonelectrostatic_energy": 15.63, 
			 "SMD_solvation_energy": 7.68 
		},
		"coords": [
			{
				"x": -3.5102917975,
				"y": -0.5060631288,
				"z": 0.4488563699,
				"element": "C" 
			},
			{
				"x": -2.4940536228,
				"y": 0.1756803261,
				"z": -0.4529792271,
				"element": "C" 
			},
			{
				"x": -2.5138440395,
				"y": -0.0657775423,
				"z": -1.6591766095,
				"element": "O" 
			},
			{
				"x": -1.5775060514,
				"y": 1.2138095821,
				"z": 0.0819564918,
				"element": "C" 
			},
			{
				"x": -0.9618686561,
				"y": 2.1506993862,
				"z": -0.9543503808,
				"element": "C" 
			},
			{
				"x": 0.4267947504,
				"y": 1.7332953752,
				"z": -1.4196307954,
				"element": "C" 
			},
			{
				"x": 0.6004003724,
				"y": 0.6247865196,
				"z": -2.2628037437,
				"element": "C" 
			},
			{
				"x": 1.8765616321,
				"y": 0.2411113165,
				"z": -2.6758098497,
				"element": "C" 
			},
			{
				"x": 3.0012073407,
				"y": 0.9565961205,
				"z": -2.2567251871,
				"element": "C" 
			},
			{
				"x": 2.8390578582,
				"y": 2.0619803627,
				"z": -1.4212372514,
				"element": "C" 
			},
			{
				"x": 1.5608472261,
				"y": 2.4442266744,
				"z": -1.0076086503,
				"element": "C" 
			},
			{
				"x": -1.2779778219,
				"y": 1.4448159696,
				"z": 1.3889656924,
				"element": "C" 
			},
			{
				"x": -1.495337854,
				"y": 0.6690078852,
				"z": 2.5136688342,
				"element": "N" 
			},
			{
				"x": -1.2720729614,
				"y": -0.7179981643,
				"z": 2.6950796947,
				"element": "C" 
			},
			{
				"x": -0.56059734,
				"y": -1.5019948428,
				"z": 1.7758696602,
				"element": "C" 
			},
			{
				"x": -0.3310416636,
				"y": -2.8491427072,
				"z": 2.0449068888,
				"element": "C" 
			},
			{
				"x": -0.7859653539,
				"y": -3.4595371597,
				"z": 3.2222876385,
				"element": "C" 
			},
			{
				"x": -0.5525046616,
				"y": -4.9290366842,
				"z": 3.4813855268,
				"element": "C" 
			},
			{
				"x": -1.4841814432,
				"y": -2.659374802,
				"z": 4.1344146012,
				"element": "C" 
			},
			{
				"x": -1.7326684427,
				"y": -1.3127367899,
				"z": 3.8773214463,
				"element": "C" 
			},
			{
				"x": -3.7535562334,
				"y": 0.0783290655,
				"z": 1.3383614735,
				"element": "H" 
			},
			{
				"x": -4.4081613225,
				"y": -0.6880892408,
				"z": -0.145749241,
				"element": "H" 
			},
			{
				"x": -3.1245263938,
				"y": -1.475399628,
				"z": 0.7804539961,
				"element": "H" 
			},
			{
				"x": -0.8986733729,
				"y": 3.1588725803,
				"z": -0.5270835648,
				"element": "H" 
			},
			{
				"x": -1.6319719165,
				"y": 2.19740002,
				"z": -1.8169708184,
				"element": "H" 
			},
			{
				"x": -0.2767254305,
				"y": 0.0726290544,
				"z": -2.5859858156,
				"element": "H" 
			},
			{
				"x": 1.9930778787,
				"y": -0.6178184301,
				"z": -3.3315228402,
				"element": "H" 
			},
			{
				"x": 3.9937088259,
				"y": 0.6572843279,
				"z": -2.5819003823,
				"element": "H" 
			},
			{
				"x": 3.7054071757,
				"y": 2.6303022608,
				"z": -1.0932433178,
				"element": "H" 
			},
			{
				"x": 1.4431175718,
				"y": 3.3113541353,
				"z": -0.3609779566,
				"element": "H" 
			},
			{
				"x": -0.7734063882,
				"y": 2.3851985578,
				"z": 1.6191346091,
				"element": "H" 
			},
			{
				"x": -1.4639527408,
				"y": 1.1873716378,
				"z": 3.3803023663,
				"element": "H" 
			},
			{
				"x": -0.1784878927,
				"y": -1.0584558898,
				"z": 0.8631824085,
				"element": "H" 
			},
			{
				"x": 0.2280264395,
				"y": -3.4371132511,
				"z": 1.3209892475,
				"element": "H" 
			},
			{
				"x": 0.4225920687,
				"y": -5.2522773757,
				"z": 3.1031346288,
				"element": "H" 
			},
			{
				"x": -0.5915390513,
				"y": -5.1579281479,
				"z": 4.5505540226,
				"element": "H" 
			},
			{
				"x": -1.31162749,
				"y": -5.5488389518,
				"z": 2.987423334,
				"element": "H" 
			},
			{
				"x": -1.8477620393,
				"y": -3.0952920417,
				"z": 5.0616924917,
				"element": "H" 
			},
			{
				"x": -2.2872971585,
				"y": -0.7156763797,
				"z": 4.5974142085,
				"element": "H" 
			}
		],
		 "valence_orbital": [ 
			{
				"type": "occ",
				"energy": -0.25529,
				"method": "rhf"
			},
			{
				"type": "occ",
				"energy": -0.23908,
				"method": "rhf"
			},
			{
				"type": "occ",
				"energy": -0.23772,
				"method": "rhf"
			},
			{
				"type": "occ",
				"energy": -0.22829,
				"method": "rhf"
			},
			{
				"type": "occ",
				"energy": -0.20044,
				"method": "rhf"
			},
			{
				"type": "unocc",
				"energy": -0.0472,
				"method": "rhf"
			},
			{
				"type": "unocc",
				"energy": -0.00812,
				"method": "rhf"
			},
			{
				"type": "unocc",
				"energy": 0.00847,
				"method": "rhf"
			},
			{
				"type": "unocc",
				"energy": 0.00994,
				"method": "rhf"
			},
			{
				"type": "unocc",
				"energy": 0.01197,
				"method": "rhf"
			}
		],
		"cosmo_sigma_profile": { 
			"-0.025": 0.0,
			"-0.024": 0.0,
			"-0.023": 0.0,
			"-0.022": 0.0,
			"-0.021": 0.0,
			"-0.02": 0.0,
			"-0.019": 0.0,
			"-0.018": 0.0,
			"-0.017": 0.0,
			"-0.016": 0.0,
			"-0.015": 0.678048947184,
			"-0.014": 1.57440002775,
			"-0.013": 1.53460664019,
			"-0.012": 1.29646644996,
			"-0.011": 1.36142986388,
			"-0.01": 1.25238278262,
			"-0.009": 1.74907354199,
			"-0.008": 2.19370174125,
			"-0.007": 3.45450553583,
			"-0.006": 6.27690996651,
			"-0.005": 18.0090332997,
			"-0.004": 25.57895942,
			"-0.003": 30.0482309701,
			"-0.002": 29.8701414302,
			"-0.001": 32.262617343,
			"0.0": 36.9460987895,
			"0.001": 26.7656961639,
			"0.002": 22.386547619,
			"0.003": 19.9870423316,
			"0.004": 17.5920046773,
			"0.005": 15.8925928699,
			"0.006": 13.7074276562,
			"0.007": 7.56730684965,
			"0.008": 1.17638636581,
			"0.009": 1.34320613381,
			"0.01": 1.69276472931,
			"0.011": 1.40161516877,
			"0.012": 2.21187557893,
			"0.013": 2.35634954586,
			"0.014": 1.92426466619,
			"0.015": 0.435765524158,
			"0.016": 0.0,
			"0.017": 0.0,
			"0.018": 0.0,
			"0.019": 0.0,
			"0.02": 0.0,
			"0.021": 0.0,
			"0.022": 0.0,
			"0.023": 0.0,
			"0.024": 0.0,
			"0.025": 0.0
		}
	}
}
