{
	 "smiles": "IC1=CC2=C(N=CC=C2)N1S(=O)(=O)C1=CC=CC=C1", 
	 "Tm": 383.15, 
	 "num_atms": 28, 
	 "gaussian": { 
		 "optdone": 1, 
		 "sigma_profile": "yes", 
		 "theory": "DFT", 
		 "functional": "B3LYP", 
		 "basiset": "6-31G**", 
		 "properties": { 
			 "R2extent": 5693.6979, 
			 "electric_dipole_moment_norm": 5.02498232833, 
			 "electric_quadrupole_moment_norm": 16.7699673712, 
			 "total_energy": -1170.23711968, 
			 "HOMO_LUMO_gap": 0.1746, 
			 "cosmo_polarized_energy": -13.5, 
			 "cosmo_cavitation_energy": 36.54, 
			 "cosmo_dispersion_energy": -27.53, 
			 "cosmo_repulsion_energy": 2.03, 
			 "cosmo_total_nonelectrostatic_energy": 11.04, 
			 "SMD_solvation_energy": 4.26 
		},
		"coords": [
			{
				"x": 3.6558079369,
				"y": -2.18986216,
				"z": 3.0582880311,
				"element": "I" 
			},
			{
				"x": 3.0572707037,
				"y": -0.4529795525,
				"z": 2.0700438639,
				"element": "C" 
			},
			{
				"x": 3.33451004,
				"y": 0.7987880935,
				"z": 2.5471445852,
				"element": "C" 
			},
			{
				"x": 2.7375475487,
				"y": 1.7466800842,
				"z": 1.6560450472,
				"element": "C" 
			},
			{
				"x": 2.0921233111,
				"y": 1.0092361944,
				"z": 0.6326309136,
				"element": "C" 
			},
			{
				"x": 1.3895531305,
				"y": 1.5066168184,
				"z": -0.3773047989,
				"element": "N" 
			},
			{
				"x": 1.3229255437,
				"y": 2.8427715545,
				"z": -0.4139469626,
				"element": "C" 
			},
			{
				"x": 1.9303226911,
				"y": 3.6892092847,
				"z": 0.5285799632,
				"element": "C" 
			},
			{
				"x": 2.6475278131,
				"y": 3.1426386532,
				"z": 1.5878872584,
				"element": "C" 
			},
			{
				"x": 2.2957530534,
				"y": -0.3587563473,
				"z": 0.8866429062,
				"element": "N" 
			},
			{
				"x": 1.7882038541,
				"y": -1.6126455943,
				"z": -0.234167277,
				"element": "S" 
			},
			{
				"x": 2.3098941268,
				"y": -2.8567081545,
				"z": 0.3181548088,
				"element": "O" 
			},
			{
				"x": 2.1512105865,
				"y": -1.1509928857,
				"z": -1.564397835,
				"element": "O" 
			},
			{
				"x": 0.0088580922,
				"y": -1.609113022,
				"z": -0.0577061522,
				"element": "C" 
			},
			{
				"x": -0.7616820266,
				"y": -0.8075127508,
				"z": -0.9022067998,
				"element": "C" 
			},
			{
				"x": -2.1499383519,
				"y": -0.8499783311,
				"z": -0.7726535524,
				"element": "C" 
			},
			{
				"x": -2.7432760128,
				"y": -1.6796191142,
				"z": 0.1817869916,
				"element": "C" 
			},
			{
				"x": -1.9549466438,
				"y": -2.4795709535,
				"z": 1.0132754214,
				"element": "C" 
			},
			{
				"x": -0.5659334193,
				"y": -2.4528350209,
				"z": 0.8964837272,
				"element": "C" 
			},
			{
				"x": 3.897117737,
				"y": 1.0072540177,
				"z": 3.4452284503,
				"element": "H" 
			},
			{
				"x": 0.7521570621,
				"y": 3.2669309665,
				"z": -1.2368444108,
				"element": "H" 
			},
			{
				"x": 1.8281104717,
				"y": 4.7642639334,
				"z": 0.423412438,
				"element": "H" 
			},
			{
				"x": 3.1186088162,
				"y": 3.773612215,
				"z": 2.3358743918,
				"element": "H" 
			},
			{
				"x": -0.2741144479,
				"y": -0.1640574358,
				"z": -1.6238366725,
				"element": "H" 
			},
			{
				"x": -2.7677556739,
				"y": -0.2355846592,
				"z": -1.420263427,
				"element": "H" 
			},
			{
				"x": -3.8250052584,
				"y": -1.7072426783,
				"z": 0.2750668969,
				"element": "H" 
			},
			{
				"x": -2.4202558599,
				"y": -3.1301422416,
				"z": 1.74723804,
				"element": "H" 
			},
			{
				"x": 0.0633051758,
				"y": -3.0819009136,
				"z": 1.5162441533,
				"element": "H" 
			}
		],
		 "valence_orbital": [ 
			{
				"type": "occ",
				"energy": -0.27672,
				"method": "rhf"
			},
			{
				"type": "occ",
				"energy": -0.26706,
				"method": "rhf"
			},
			{
				"type": "occ",
				"energy": -0.26507,
				"method": "rhf"
			},
			{
				"type": "occ",
				"energy": -0.25233,
				"method": "rhf"
			},
			{
				"type": "occ",
				"energy": -0.22461,
				"method": "rhf"
			},
			{
				"type": "unocc",
				"energy": -0.05001,
				"method": "rhf"
			},
			{
				"type": "unocc",
				"energy": -0.04443,
				"method": "rhf"
			},
			{
				"type": "unocc",
				"energy": -0.04226,
				"method": "rhf"
			},
			{
				"type": "unocc",
				"energy": -0.02266,
				"method": "rhf"
			},
			{
				"type": "unocc",
				"energy": -0.00481,
				"method": "rhf"
			}
		],
		"cosmo_sigma_profile": { 
			"-0.025": 0.0,
			"-0.024": 0.0,
			"-0.023": 0.0,
			"-0.022": 0.0,
			"-0.021": 0.0,
			"-0.02": 0.0,
			"-0.019": 0.0,
			"-0.018": 0.0,
			"-0.017": 0.0,
			"-0.016": 0.0,
			"-0.015": 0.0,
			"-0.014": 0.0,
			"-0.013": 0.0,
			"-0.012": 0.0,
			"-0.011": 0.0,
			"-0.01": 0.0,
			"-0.009": 0.539163189236,
			"-0.008": 3.414157416,
			"-0.007": 15.6875158441,
			"-0.006": 21.9943134709,
			"-0.005": 21.2129894368,
			"-0.004": 15.7875763906,
			"-0.003": 17.6870931523,
			"-0.002": 14.6355812281,
			"-0.001": 19.1093714801,
			"0.0": 23.7135440336,
			"0.001": 30.3539424236,
			"0.002": 36.1425457414,
			"0.003": 31.3804575595,
			"0.004": 10.5974659909,
			"0.005": 5.61199617283,
			"0.006": 4.61823697839,
			"0.007": 4.30733864186,
			"0.008": 4.26072768201,
			"0.009": 8.02807594357,
			"0.01": 8.38110256512,
			"0.011": 1.91167519854,
			"0.012": 0.761925082727,
			"0.013": 0.186253184712,
			"0.014": 0.0,
			"0.015": 0.0,
			"0.016": 0.0,
			"0.017": 0.0,
			"0.018": 0.0,
			"0.019": 0.0,
			"0.02": 0.0,
			"0.021": 0.0,
			"0.022": 0.0,
			"0.023": 0.0,
			"0.024": 0.0,
			"0.025": 0.0
		}
	}
}
