{
	 "smiles": "NC1=C(OC(F)(F)F)C=C(C=C1)C(O)=O", 
	 "Tm": 441.15, 
	 "num_atms": 21, 
	 "gaussian": { 
		 "optdone": 1, 
		 "sigma_profile": "yes", 
		 "theory": "DFT", 
		 "functional": "B3LYP", 
		 "basiset": "6-31G**", 
		 "properties": { 
			 "R2extent": 4084.7305, 
			 "electric_dipole_moment_norm": 5.68785266511, 
			 "electric_quadrupole_moment_norm": 17.998900355, 
			 "total_energy": -888.426428152, 
			 "HOMO_LUMO_gap": 0.18609, 
			 "cosmo_polarized_energy": -18.22, 
			 "cosmo_cavitation_energy": 27.64, 
			 "cosmo_dispersion_energy": -19.65, 
			 "cosmo_repulsion_energy": 1.49, 
			 "cosmo_total_nonelectrostatic_energy": 9.49, 
			 "SMD_solvation_energy": 7.32 
		},
		"coords": [
			{
				"x": 1.8623285259,
				"y": -0.9143257942,
				"z": 1.4531470142,
				"element": "N" 
			},
			{
				"x": 0.7778477223,
				"y": -0.3591467081,
				"z": 0.8180922204,
				"element": "C" 
			},
			{
				"x": 0.9379276721,
				"y": 0.7510224825,
				"z": -0.0346335789,
				"element": "C" 
			},
			{
				"x": 2.2572929006,
				"y": 1.1813098442,
				"z": -0.2773829871,
				"element": "O" 
			},
			{
				"x": 2.6579732652,
				"y": 2.3370797161,
				"z": 0.3222880012,
				"element": "C" 
			},
			{
				"x": 1.9939809896,
				"y": 3.4112085414,
				"z": -0.1482601083,
				"element": "F" 
			},
			{
				"x": 2.4831174025,
				"y": 2.308879976,
				"z": 1.6532343395,
				"element": "F" 
			},
			{
				"x": 3.955111713,
				"y": 2.4936219645,
				"z": 0.0590081351,
				"element": "F" 
			},
			{
				"x": -0.1323385991,
				"y": 1.35041037,
				"z": -0.6779800687,
				"element": "C" 
			},
			{
				"x": -1.4324505986,
				"y": 0.8649341099,
				"z": -0.4776281604,
				"element": "C" 
			},
			{
				"x": -1.6123270514,
				"y": -0.2241246614,
				"z": 0.390745302,
				"element": "C" 
			},
			{
				"x": -0.5355490986,
				"y": -0.8325423781,
				"z": 1.0145863597,
				"element": "C" 
			},
			{
				"x": -2.6450835388,
				"y": 1.460779809,
				"z": -1.1107140727,
				"element": "C" 
			},
			{
				"x": -2.4481319964,
				"y": 2.2821846226,
				"z": -2.1798816699,
				"element": "O" 
			},
			{
				"x": -3.770275472,
				"y": 1.246418115,
				"z": -0.7210498496,
				"element": "O" 
			},
			{
				"x": 2.7723598347,
				"y": -0.6927909121,
				"z": 1.0784296135,
				"element": "H" 
			},
			{
				"x": 1.7606679573,
				"y": -1.8487628998,
				"z": 1.8175422313,
				"element": "H" 
			},
			{
				"x": 0.0758080482,
				"y": 2.2139022962,
				"z": -1.3013832675,
				"element": "H" 
			},
			{
				"x": -2.6220196528,
				"y": -0.583902815,
				"z": 0.5555175642,
				"element": "H" 
			},
			{
				"x": -0.6950694409,
				"y": -1.6808580778,
				"z": 1.6743765771,
				"element": "H" 
			},
			{
				"x": -1.5339705828,
				"y": 2.2227023989,
				"z": -2.4881535951,
				"element": "H" 
			}
		],
		 "valence_orbital": [ 
			{
				"type": "occ",
				"energy": -0.33863,
				"method": "rhf"
			},
			{
				"type": "occ",
				"energy": -0.30988,
				"method": "rhf"
			},
			{
				"type": "occ",
				"energy": -0.27588,
				"method": "rhf"
			},
			{
				"type": "occ",
				"energy": -0.26956,
				"method": "rhf"
			},
			{
				"type": "occ",
				"energy": -0.23055,
				"method": "rhf"
			},
			{
				"type": "unocc",
				"energy": -0.04446,
				"method": "rhf"
			},
			{
				"type": "unocc",
				"energy": -0.02656,
				"method": "rhf"
			},
			{
				"type": "unocc",
				"energy": 0.04887,
				"method": "rhf"
			},
			{
				"type": "unocc",
				"energy": 0.05926,
				"method": "rhf"
			},
			{
				"type": "unocc",
				"energy": 0.06732,
				"method": "rhf"
			}
		],
		"cosmo_sigma_profile": { 
			"-0.025": 0.0,
			"-0.024": 0.0,
			"-0.023": 0.0,
			"-0.022": 0.0,
			"-0.021": 0.0,
			"-0.02": 0.0,
			"-0.019": 0.360202085428,
			"-0.018": 0.949123690442,
			"-0.017": 1.41656815561,
			"-0.016": 0.707630041164,
			"-0.015": 0.91869607407,
			"-0.014": 2.15784636648,
			"-0.013": 3.31962517882,
			"-0.012": 3.01898844488,
			"-0.011": 4.54171539976,
			"-0.01": 3.25370838529,
			"-0.009": 3.07827474639,
			"-0.008": 4.63496116051,
			"-0.007": 4.71255580912,
			"-0.006": 6.28478998492,
			"-0.005": 7.26114910141,
			"-0.004": 6.71249398772,
			"-0.003": 7.43360526266,
			"-0.002": 9.52501136527,
			"-0.001": 12.7741014036,
			"0.0": 15.8399589517,
			"0.001": 25.9103973574,
			"0.002": 37.9100719002,
			"0.003": 13.597158913,
			"0.004": 7.54768465139,
			"0.005": 4.80934928034,
			"0.006": 3.97942698645,
			"0.007": 3.11781509368,
			"0.008": 3.9448931081,
			"0.009": 3.6655349956,
			"0.01": 3.98568588477,
			"0.011": 5.10372375684,
			"0.012": 5.91727851226,
			"0.013": 2.53571687613,
			"0.014": 0.455182303457,
			"0.015": 0.0,
			"0.016": 0.0,
			"0.017": 0.0,
			"0.018": 0.0,
			"0.019": 0.0,
			"0.02": 0.0,
			"0.021": 0.0,
			"0.022": 0.0,
			"0.023": 0.0,
			"0.024": 0.0,
			"0.025": 0.0
		}
	}
}
