{
	 "smiles": "CC1=CC=C(F)C=C1[N+]([O-])=O", 
	 "Tm": 299.65, 
	 "num_atms": 17, 
	 "gaussian": { 
		 "optdone": 1, 
		 "sigma_profile": "yes", 
		 "theory": "DFT", 
		 "functional": "B3LYP", 
		 "basiset": "6-31G**", 
		 "properties": { 
			 "R2extent": 2489.3376, 
			 "electric_dipole_moment_norm": 3.94728558506, 
			 "electric_quadrupole_moment_norm": 6.7844473489, 
			 "total_energy": -575.294931823, 
			 "HOMO_LUMO_gap": 0.17109, 
			 "cosmo_polarized_energy": -7.17, 
			 "cosmo_cavitation_energy": 22.09, 
			 "cosmo_dispersion_energy": -16.22, 
			 "cosmo_repulsion_energy": 1.27, 
			 "cosmo_total_nonelectrostatic_energy": 7.13, 
			 "SMD_solvation_energy": 6.47 
		},
		"coords": [
			{
				"x": -0.9967649229,
				"y": 1.0489790447,
				"z": 0.1537844889,
				"element": "C" 
			},
			{
				"x": 0.4427041466,
				"y": 0.6709499966,
				"z": -0.098937879,
				"element": "C" 
			},
			{
				"x": 0.8908985719,
				"y": 0.5906829344,
				"z": -1.4284435896,
				"element": "C" 
			},
			{
				"x": 2.1966982205,
				"y": 0.2502926723,
				"z": -1.7692130738,
				"element": "C" 
			},
			{
				"x": 3.1003053839,
				"y": -0.0256626445,
				"z": -0.749141382,
				"element": "C" 
			},
			{
				"x": 4.3667496473,
				"y": -0.3569053135,
				"z": -1.0595372729,
				"element": "F" 
			},
			{
				"x": 2.7244811974,
				"y": 0.0325677101,
				"z": 0.5807329386,
				"element": "C" 
			},
			{
				"x": 1.4062491778,
				"y": 0.3798556269,
				"z": 0.8886256838,
				"element": "C" 
			},
			{
				"x": 1.0849245799,
				"y": 0.422139588,
				"z": 2.3303723065,
				"element": "N" 
			},
			{
				"x": 1.9724849329,
				"y": 0.1067733079,
				"z": 3.1222944461,
				"element": "O" 
			},
			{
				"x": -0.046759737,
				"y": 0.7700441492,
				"z": 2.6671405555,
				"element": "O" 
			},
			{
				"x": -1.075811981,
				"y": 1.9699412151,
				"z": 0.736501389,
				"element": "H" 
			},
			{
				"x": -1.5092913551,
				"y": 1.1902332577,
				"z": -0.8013657793,
				"element": "H" 
			},
			{
				"x": -1.5227197278,
				"y": 0.2814161549,
				"z": 0.7265426871,
				"element": "H" 
			},
			{
				"x": 0.1817458828,
				"y": 0.8051208731,
				"z": -2.2220246692,
				"element": "H" 
			},
			{
				"x": 2.5176479656,
				"y": 0.1964898836,
				"z": -2.80378856,
				"element": "H" 
			},
			{
				"x": 3.427458017,
				"y": -0.1845184563,
				"z": 1.3732577104,
				"element": "H" 
			}
		],
		 "valence_orbital": [ 
			{
				"type": "occ",
				"energy": -0.3124,
				"method": "rhf"
			},
			{
				"type": "occ",
				"energy": -0.30956,
				"method": "rhf"
			},
			{
				"type": "occ",
				"energy": -0.29208,
				"method": "rhf"
			},
			{
				"type": "occ",
				"energy": -0.28897,
				"method": "rhf"
			},
			{
				"type": "occ",
				"energy": -0.26404,
				"method": "rhf"
			},
			{
				"type": "unocc",
				"energy": -0.09295,
				"method": "rhf"
			},
			{
				"type": "unocc",
				"energy": -0.02452,
				"method": "rhf"
			},
			{
				"type": "unocc",
				"energy": -0.00552,
				"method": "rhf"
			},
			{
				"type": "unocc",
				"energy": 0.07191,
				"method": "rhf"
			},
			{
				"type": "unocc",
				"energy": 0.10747,
				"method": "rhf"
			}
		],
		"cosmo_sigma_profile": { 
			"-0.025": 0.0,
			"-0.024": 0.0,
			"-0.023": 0.0,
			"-0.022": 0.0,
			"-0.021": 0.0,
			"-0.02": 0.0,
			"-0.019": 0.0,
			"-0.018": 0.0,
			"-0.017": 0.0,
			"-0.016": 0.0,
			"-0.015": 0.0,
			"-0.014": 0.0,
			"-0.013": 0.0,
			"-0.012": 0.0,
			"-0.011": 0.0,
			"-0.01": 0.0,
			"-0.009": 0.516514923812,
			"-0.008": 3.2406326227,
			"-0.007": 5.71704337595,
			"-0.006": 8.64422708606,
			"-0.005": 8.49178441212,
			"-0.004": 11.9679241199,
			"-0.003": 12.7624114595,
			"-0.002": 13.753154309,
			"-0.001": 22.0084812981,
			"0.0": 23.6991997882,
			"0.001": 11.6751531382,
			"0.002": 9.4398101479,
			"0.003": 7.62954194936,
			"0.004": 10.0850303077,
			"0.005": 3.6478433591,
			"0.006": 3.5245458256,
			"0.007": 6.31355071272,
			"0.008": 6.26343347015,
			"0.009": 4.40419309216,
			"0.01": 2.97951565295,
			"0.011": 0.221083717955,
			"0.012": 0.0,
			"0.013": 0.0,
			"0.014": 0.0,
			"0.015": 0.0,
			"0.016": 0.0,
			"0.017": 0.0,
			"0.018": 0.0,
			"0.019": 0.0,
			"0.02": 0.0,
			"0.021": 0.0,
			"0.022": 0.0,
			"0.023": 0.0,
			"0.024": 0.0,
			"0.025": 0.0
		}
	}
}
