{
	 "smiles": "NC(=NO)C1=CC(CN2CCCCC2)=CC=C1", 
	 "Tm": 427.15, 
	 "num_atms": 36, 
	 "gaussian": { 
		 "optdone": 1, 
		 "sigma_profile": "yes", 
		 "theory": "DFT", 
		 "functional": "B3LYP", 
		 "basiset": "6-31G**", 
		 "properties": { 
			 "R2extent": 5597.8644, 
			 "electric_dipole_moment_norm": 1.35361044987, 
			 "electric_quadrupole_moment_norm": 9.57352788266, 
			 "total_energy": -746.257276679, 
			 "HOMO_LUMO_gap": 0.16507, 
			 "cosmo_polarized_energy": -12.48, 
			 "cosmo_cavitation_energy": 36.91, 
			 "cosmo_dispersion_energy": -26.19, 
			 "cosmo_repulsion_energy": 2.07, 
			 "cosmo_total_nonelectrostatic_energy": 12.79, 
			 "SMD_solvation_energy": 3.26 
		},
		"coords": [
			{
				"x": -0.5599111949,
				"y": -0.106144174,
				"z": -3.4427354906,
				"element": "N" 
			},
			{
				"x": 0.069031044,
				"y": -0.4740610391,
				"z": -2.2671890097,
				"element": "C" 
			},
			{
				"x": 0.6089828768,
				"y": -1.6339041513,
				"z": -2.0692875537,
				"element": "N" 
			},
			{
				"x": 0.5499015074,
				"y": -2.3981785628,
				"z": -3.2694513613,
				"element": "O" 
			},
			{
				"x": 0.0738924912,
				"y": 0.4924456349,
				"z": -1.142643793,
				"element": "C" 
			},
			{
				"x": 1.0541923677,
				"y": 0.406635082,
				"z": -0.1420972637,
				"element": "C" 
			},
			{
				"x": 1.085751945,
				"y": 1.3047484683,
				"z": 0.9291205216,
				"element": "C" 
			},
			{
				"x": 2.1311520578,
				"y": 1.1646230005,
				"z": 2.0321958174,
				"element": "C" 
			},
			{
				"x": 1.7492300085,
				"y": 0.3850009639,
				"z": 3.2101604201,
				"element": "N" 
			},
			{
				"x": 1.575846046,
				"y": -1.0664833772,
				"z": 3.0055640016,
				"element": "C" 
			},
			{
				"x": 0.1356766113,
				"y": -1.5390181024,
				"z": 3.2451794804,
				"element": "C" 
			},
			{
				"x": -0.3185174845,
				"y": -1.2114769731,
				"z": 4.6855010393,
				"element": "C" 
			},
			{
				"x": 0.3612013715,
				"y": 0.0777356659,
				"z": 5.2085398612,
				"element": "C" 
			},
			{
				"x": 0.7306043907,
				"y": 1.01136906,
				"z": 4.0533472559,
				"element": "C" 
			},
			{
				"x": 0.1252498203,
				"y": 2.3289577982,
				"z": 0.9692719368,
				"element": "C" 
			},
			{
				"x": -0.855355459,
				"y": 2.4256646369,
				"z": -0.0173279355,
				"element": "C" 
			},
			{
				"x": -0.8902534687,
				"y": 1.5084139936,
				"z": -1.0674491468,
				"element": "C" 
			},
			{
				"x": -0.4863906674,
				"y": 0.8703153444,
				"z": -3.6895057406,
				"element": "H" 
			},
			{
				"x": -0.3844751793,
				"y": -0.7445904038,
				"z": -4.2071486526,
				"element": "H" 
			},
			{
				"x": 0.9625390735,
				"y": -3.2264429305,
				"z": -2.9975626785,
				"element": "H" 
			},
			{
				"x": 1.8065817037,
				"y": -0.3706956319,
				"z": -0.2280260556,
				"element": "H" 
			},
			{
				"x": 3.0363128782,
				"y": 0.7124011205,
				"z": 1.6101670102,
				"element": "H" 
			},
			{
				"x": 2.413357866,
				"y": 2.1656997949,
				"z": 2.3845071524,
				"element": "H" 
			},
			{
				"x": 2.2495902758,
				"y": -1.6130756243,
				"z": 3.6846759839,
				"element": "H" 
			},
			{
				"x": 1.8856329044,
				"y": -1.3278817289,
				"z": 1.9895522058,
				"element": "H" 
			},
			{
				"x": 0.0597377851,
				"y": -2.6148597436,
				"z": 3.0503967666,
				"element": "H" 
			},
			{
				"x": -0.5199500671,
				"y": -1.0441377841,
				"z": 2.5197988799,
				"element": "H" 
			},
			{
				"x": -0.080334206,
				"y": -2.0459398754,
				"z": 5.3553465471,
				"element": "H" 
			},
			{
				"x": -1.4087590682,
				"y": -1.099970432,
				"z": 4.7073515729,
				"element": "H" 
			},
			{
				"x": 1.2798710397,
				"y": -0.1714476731,
				"z": 5.7526275132,
				"element": "H" 
			},
			{
				"x": -0.292198943,
				"y": 0.6017206809,
				"z": 5.9143704304,
				"element": "H" 
			},
			{
				"x": 1.1383010537,
				"y": 1.9568307683,
				"z": 4.4379190989,
				"element": "H" 
			},
			{
				"x": -0.1915536833,
				"y": 1.2711890021,
				"z": 3.4997625409,
				"element": "H" 
			},
			{
				"x": 0.1573245768,
				"y": 3.0623290674,
				"z": 1.7709132546,
				"element": "H" 
			},
			{
				"x": -1.5974580322,
				"y": 3.2177245364,
				"z": 0.0307695191,
				"element": "H" 
			},
			{
				"x": -1.6737042414,
				"y": 1.5675035884,
				"z": -1.8164141286,
				"element": "H" 
			}
		],
		 "valence_orbital": [ 
			{
				"type": "occ",
				"energy": -0.27148,
				"method": "rhf"
			},
			{
				"type": "occ",
				"energy": -0.25389,
				"method": "rhf"
			},
			{
				"type": "occ",
				"energy": -0.2461,
				"method": "rhf"
			},
			{
				"type": "occ",
				"energy": -0.20753,
				"method": "rhf"
			},
			{
				"type": "occ",
				"energy": -0.18946,
				"method": "rhf"
			},
			{
				"type": "unocc",
				"energy": -0.02439,
				"method": "rhf"
			},
			{
				"type": "unocc",
				"energy": -0.00313,
				"method": "rhf"
			},
			{
				"type": "unocc",
				"energy": 0.05934,
				"method": "rhf"
			},
			{
				"type": "unocc",
				"energy": 0.07693,
				"method": "rhf"
			},
			{
				"type": "unocc",
				"energy": 0.08494,
				"method": "rhf"
			}
		],
		"cosmo_sigma_profile": { 
			"-0.025": 0.0,
			"-0.024": 0.0,
			"-0.023": 0.0,
			"-0.022": 0.0,
			"-0.021": 0.0,
			"-0.02": 0.0,
			"-0.019": 0.0,
			"-0.018": 0.0,
			"-0.017": 0.277698733421,
			"-0.016": 0.970768405561,
			"-0.015": 1.00177588003,
			"-0.014": 0.760062648965,
			"-0.013": 1.53677206241,
			"-0.012": 2.17696149821,
			"-0.011": 2.19226550611,
			"-0.01": 3.04413251819,
			"-0.009": 2.21398530062,
			"-0.008": 3.69588600782,
			"-0.007": 3.1521175477,
			"-0.006": 4.38574053776,
			"-0.005": 10.6154432846,
			"-0.004": 14.7847644727,
			"-0.003": 19.9481196779,
			"-0.002": 28.0752277762,
			"-0.001": 38.5769850726,
			"0.0": 36.4448003182,
			"0.001": 25.9886992445,
			"0.002": 16.0280889922,
			"0.003": 12.3869130073,
			"0.004": 13.5755567978,
			"0.005": 12.8018113458,
			"0.006": 5.29624834038,
			"0.007": 6.05703718294,
			"0.008": 6.01918608632,
			"0.009": 4.85094107179,
			"0.01": 4.01240636534,
			"0.011": 2.43820240811,
			"0.012": 1.82756709257,
			"0.013": 1.06106734215,
			"0.014": 1.05441713878,
			"0.015": 0.660470685249,
			"0.016": 0.075980249595,
			"0.017": 0.0,
			"0.018": 0.0,
			"0.019": 0.0,
			"0.02": 0.0,
			"0.021": 0.0,
			"0.022": 0.0,
			"0.023": 0.0,
			"0.024": 0.0,
			"0.025": 0.0
		}
	}
}
