{
	 "smiles": "CC1=NNC(=N1)C1=C(C)C=CC=C1", 
	 "Tm": 415.15, 
	 "num_atms": 24, 
	 "gaussian": { 
		 "optdone": 1, 
		 "sigma_profile": "yes", 
		 "theory": "DFT", 
		 "functional": "B3LYP", 
		 "basiset": "6-31G**", 
		 "properties": { 
			 "R2extent": 3184.8251, 
			 "electric_dipole_moment_norm": 2.22054184378, 
			 "electric_quadrupole_moment_norm": 7.06819647152, 
			 "total_energy": -551.957767569, 
			 "HOMO_LUMO_gap": 0.19486, 
			 "cosmo_polarized_energy": -11.28, 
			 "cosmo_cavitation_energy": 27.59, 
			 "cosmo_dispersion_energy": -20.36, 
			 "cosmo_repulsion_energy": 1.61, 
			 "cosmo_total_nonelectrostatic_energy": 8.84, 
			 "SMD_solvation_energy": 2.54 
		},
		"coords": [
			{
				"x": 1.1126125818,
				"y": -3.0392212437,
				"z": 1.4905264329,
				"element": "C" 
			},
			{
				"x": 0.3169981743,
				"y": -2.075473892,
				"z": 0.6722628768,
				"element": "C" 
			},
			{
				"x": 0.1371807482,
				"y": -2.2300683545,
				"z": -0.6349045067,
				"element": "N" 
			},
			{
				"x": -0.6360476341,
				"y": -1.1590408631,
				"z": -0.9452976556,
				"element": "N" 
			},
			{
				"x": -0.8867464245,
				"y": -0.4030623535,
				"z": 0.158114205,
				"element": "C" 
			},
			{
				"x": -0.2878432637,
				"y": -0.9695130095,
				"z": 1.200734926,
				"element": "N" 
			},
			{
				"x": -1.7172165103,
				"y": 0.8100299556,
				"z": 0.1285713015,
				"element": "C" 
			},
			{
				"x": -1.5084873995,
				"y": 1.8835193719,
				"z": 1.0285989458,
				"element": "C" 
			},
			{
				"x": -0.433758982,
				"y": 1.863206803,
				"z": 2.0885463075,
				"element": "C" 
			},
			{
				"x": -2.3364041205,
				"y": 3.0069314614,
				"z": 0.9096905159,
				"element": "C" 
			},
			{
				"x": -3.3414663687,
				"y": 3.090481118,
				"z": -0.0535827171,
				"element": "C" 
			},
			{
				"x": -3.5463868238,
				"y": 2.0273806044,
				"z": -0.9318537941,
				"element": "C" 
			},
			{
				"x": -2.7392936614,
				"y": 0.8979732419,
				"z": -0.8331074245,
				"element": "C" 
			},
			{
				"x": 1.5132713509,
				"y": -3.8301824099,
				"z": 0.8539887565,
				"element": "H" 
			},
			{
				"x": 1.9422025428,
				"y": -2.5292470683,
				"z": 1.9904996914,
				"element": "H" 
			},
			{
				"x": 0.4908819543,
				"y": -3.4914441627,
				"z": 2.269948327,
				"element": "H" 
			},
			{
				"x": -0.8817872772,
				"y": -0.9788067353,
				"z": -1.9065226577,
				"element": "H" 
			},
			{
				"x": -0.6185759916,
				"y": 1.0797823192,
				"z": 2.8277192167,
				"element": "H" 
			},
			{
				"x": 0.5497638087,
				"y": 1.6449408294,
				"z": 1.6609013581,
				"element": "H" 
			},
			{
				"x": -0.3844356411,
				"y": 2.8294781334,
				"z": 2.5979341304,
				"element": "H" 
			},
			{
				"x": -2.1814884618,
				"y": 3.8385838826,
				"z": 1.5919939923,
				"element": "H" 
			},
			{
				"x": -3.963007718,
				"y": 3.9792700827,
				"z": -0.1126844475,
				"element": "H" 
			},
			{
				"x": -4.333261322,
				"y": 2.0696458583,
				"z": -1.6788104206,
				"element": "H" 
			},
			{
				"x": -2.9258035605,
				"y": 0.0537364305,
				"z": -1.49146736,
				"element": "H" 
			}
		],
		 "valence_orbital": [ 
			{
				"type": "occ",
				"energy": -0.29402,
				"method": "rhf"
			},
			{
				"type": "occ",
				"energy": -0.27374,
				"method": "rhf"
			},
			{
				"type": "occ",
				"energy": -0.26722,
				"method": "rhf"
			},
			{
				"type": "occ",
				"energy": -0.25082,
				"method": "rhf"
			},
			{
				"type": "occ",
				"energy": -0.22982,
				"method": "rhf"
			},
			{
				"type": "unocc",
				"energy": -0.03496,
				"method": "rhf"
			},
			{
				"type": "unocc",
				"energy": -0.00634,
				"method": "rhf"
			},
			{
				"type": "unocc",
				"energy": 0.03805,
				"method": "rhf"
			},
			{
				"type": "unocc",
				"energy": 0.06594,
				"method": "rhf"
			},
			{
				"type": "unocc",
				"energy": 0.07438,
				"method": "rhf"
			}
		],
		"cosmo_sigma_profile": { 
			"-0.025": 0.0,
			"-0.024": 0.0,
			"-0.023": 0.0,
			"-0.022": 0.0,
			"-0.021": 0.0,
			"-0.02": 0.0,
			"-0.019": 0.0,
			"-0.018": 0.0,
			"-0.017": 0.608248032475,
			"-0.016": 1.15622251635,
			"-0.015": 1.08908572348,
			"-0.014": 1.21893599028,
			"-0.013": 1.13026961289,
			"-0.012": 1.07866124876,
			"-0.011": 1.55728025021,
			"-0.01": 0.744000184659,
			"-0.009": 1.29514808441,
			"-0.008": 1.75773806011,
			"-0.007": 1.40604769911,
			"-0.006": 5.85707483415,
			"-0.005": 14.669759714,
			"-0.004": 16.4135578931,
			"-0.003": 16.7772351361,
			"-0.002": 16.6148444289,
			"-0.001": 19.4355675524,
			"0.0": 22.7874032704,
			"0.001": 18.5706347669,
			"0.002": 13.3794466315,
			"0.003": 13.452053182,
			"0.004": 13.5697382641,
			"0.005": 11.3377065508,
			"0.006": 3.67729436545,
			"0.007": 3.32630512966,
			"0.008": 2.42927666303,
			"0.009": 2.58916489486,
			"0.01": 2.81516182373,
			"0.011": 2.63036648203,
			"0.012": 1.43268854017,
			"0.013": 2.04282778389,
			"0.014": 1.48537293418,
			"0.015": 1.09057056627,
			"0.016": 0.180289238832,
			"0.017": 0.0,
			"0.018": 0.0,
			"0.019": 0.0,
			"0.02": 0.0,
			"0.021": 0.0,
			"0.022": 0.0,
			"0.023": 0.0,
			"0.024": 0.0,
			"0.025": 0.0
		}
	}
}
