{
	 "smiles": "NS(=O)(=O)C1=C2N=S=NC2=CC=C1", 
	 "Tm": 402.15, 
	 "num_atms": 18, 
	 "gaussian": { 
		 "optdone": 1, 
		 "sigma_profile": "yes", 
		 "theory": "DFT", 
		 "functional": "B3LYP", 
		 "basiset": "6-31G**", 
		 "properties": { 
			 "R2extent": 3162.9295, 
			 "electric_dipole_moment_norm": 5.43459538328, 
			 "electric_quadrupole_moment_norm": 17.9101760647, 
			 "total_energy": -1342.63064253, 
			 "HOMO_LUMO_gap": 0.1529, 
			 "cosmo_polarized_energy": -17.74, 
			 "cosmo_cavitation_energy": 25.53, 
			 "cosmo_dispersion_energy": -20.31, 
			 "cosmo_repulsion_energy": 1.49, 
			 "cosmo_total_nonelectrostatic_energy": 6.71, 
			 "SMD_solvation_energy": 0.98 
		},
		"coords": [
			{
				"x": 2.5770548934,
				"y": 1.1624147487,
				"z": 1.5786301037,
				"element": "N" 
			},
			{
				"x": 1.9062022438,
				"y": 1.3070046116,
				"z": 0.0560706488,
				"element": "S" 
			},
			{
				"x": 2.7752814445,
				"y": 0.5730398409,
				"z": -0.8629543332,
				"element": "O" 
			},
			{
				"x": 1.5860028486,
				"y": 2.7179490296,
				"z": -0.1318509634,
				"element": "O" 
			},
			{
				"x": 0.3432542116,
				"y": 0.4116500381,
				"z": 0.1147170204,
				"element": "C" 
			},
			{
				"x": -0.5979936587,
				"y": 0.6270920722,
				"z": 1.1680667972,
				"element": "C" 
			},
			{
				"x": -0.422905391,
				"y": 1.3738587677,
				"z": 2.2641566014,
				"element": "N" 
			},
			{
				"x": -1.8145338259,
				"y": 1.2502298014,
				"z": 3.1345640107,
				"element": "S" 
			},
			{
				"x": -2.6697362757,
				"y": 0.2420511752,
				"z": 2.1658257964,
				"element": "N" 
			},
			{
				"x": -1.8883355747,
				"y": -0.0334778872,
				"z": 1.1140011641,
				"element": "C" 
			},
			{
				"x": -2.2148033092,
				"y": -0.88985881,
				"z": 0.0220498507,
				"element": "C" 
			},
			{
				"x": -1.2740977992,
				"y": -1.0784214549,
				"z": -0.9568371408,
				"element": "C" 
			},
			{
				"x": 0.0013673923,
				"y": -0.4301113811,
				"z": -0.9125261477,
				"element": "C" 
			},
			{
				"x": 1.9563126768,
				"y": 1.5360210699,
				"z": 2.2943405001,
				"element": "H" 
			},
			{
				"x": 2.8917235047,
				"y": 0.2164995455,
				"z": 1.7719032946,
				"element": "H" 
			},
			{
				"x": -3.1852383152,
				"y": -1.3724280173,
				"z": -0.0063118012,
				"element": "H" 
			},
			{
				"x": -1.4910696835,
				"y": -1.7306506089,
				"z": -1.7968003477,
				"element": "H" 
			},
			{
				"x": 0.7206146175,
				"y": -0.5993625414,
				"z": -1.707145054,
				"element": "H" 
			}
		],
		 "valence_orbital": [ 
			{
				"type": "occ",
				"energy": -0.31266,
				"method": "rhf"
			},
			{
				"type": "occ",
				"energy": -0.30548,
				"method": "rhf"
			},
			{
				"type": "occ",
				"energy": -0.30187,
				"method": "rhf"
			},
			{
				"type": "occ",
				"energy": -0.28958,
				"method": "rhf"
			},
			{
				"type": "occ",
				"energy": -0.26607,
				"method": "rhf"
			},
			{
				"type": "unocc",
				"energy": -0.11317,
				"method": "rhf"
			},
			{
				"type": "unocc",
				"energy": -0.02845,
				"method": "rhf"
			},
			{
				"type": "unocc",
				"energy": -0.01671,
				"method": "rhf"
			},
			{
				"type": "unocc",
				"energy": -0.01203,
				"method": "rhf"
			},
			{
				"type": "unocc",
				"energy": 0.04483,
				"method": "rhf"
			}
		],
		"cosmo_sigma_profile": { 
			"-0.025": 0.0,
			"-0.024": 0.0,
			"-0.023": 0.0,
			"-0.022": 0.0,
			"-0.021": 0.0,
			"-0.02": 0.0,
			"-0.019": 0.0,
			"-0.018": 0.0,
			"-0.017": 0.0,
			"-0.016": 0.571346109727,
			"-0.015": 1.35851136279,
			"-0.014": 1.64373146936,
			"-0.013": 0.812755915888,
			"-0.012": 2.20923684492,
			"-0.011": 1.83634557527,
			"-0.01": 2.03320218429,
			"-0.009": 2.40992410135,
			"-0.008": 6.90191705125,
			"-0.007": 7.53249904936,
			"-0.006": 9.38266365753,
			"-0.005": 10.3631409725,
			"-0.004": 13.3568611713,
			"-0.003": 18.6648961888,
			"-0.002": 20.0986185368,
			"-0.001": 13.8510874834,
			"0.0": 14.783515671,
			"0.001": 10.150320039,
			"0.002": 7.04116797248,
			"0.003": 5.40702059745,
			"0.004": 4.05729623899,
			"0.005": 4.88226283514,
			"0.006": 6.11806963187,
			"0.007": 6.64451239363,
			"0.008": 4.68617020742,
			"0.009": 6.06112820401,
			"0.01": 11.3955734217,
			"0.011": 11.4036137084,
			"0.012": 2.85420438515,
			"0.013": 0.0582484850593,
			"0.014": 0.0,
			"0.015": 0.0,
			"0.016": 0.0,
			"0.017": 0.0,
			"0.018": 0.0,
			"0.019": 0.0,
			"0.02": 0.0,
			"0.021": 0.0,
			"0.022": 0.0,
			"0.023": 0.0,
			"0.024": 0.0,
			"0.025": 0.0
		}
	}
}
