{
	 "smiles": "COC(=O)C1=C(CC2=CC3=C(CC(C(=O)OC)=C(C3)C(=O)OC)C=C2C1)C(=O)OC", 
	 "Tm": 482.15, 
	 "num_atms": 52, 
	 "gaussian": { 
		 "optdone": 1, 
		 "sigma_profile": "yes", 
		 "theory": "DFT", 
		 "functional": "B3LYP", 
		 "basiset": "6-31G**", 
		 "properties": { 
			 "R2extent": 21148.6931, 
			 "electric_dipole_moment_norm": 3.0495635327, 
			 "electric_quadrupole_moment_norm": 31.3300611551, 
			 "total_energy": -1453.40365878, 
			 "HOMO_LUMO_gap": 0.18011, 
			 "cosmo_polarized_energy": -22.54, 
			 "cosmo_cavitation_energy": 56.75, 
			 "cosmo_dispersion_energy": -38.7, 
			 "cosmo_repulsion_energy": 2.93, 
			 "cosmo_total_nonelectrostatic_energy": 20.98, 
			 "SMD_solvation_energy": 13.89 
		},
		"coords": [
			{
				"x": -7.4839084078,
				"y": -3.2570042414,
				"z": -0.8111717368,
				"element": "C" 
			},
			{
				"x": -6.3026942878,
				"y": -2.4892902345,
				"z": -0.5230346256,
				"element": "O" 
			},
			{
				"x": -5.5511549567,
				"y": -2.1806279418,
				"z": -1.5940660209,
				"element": "C" 
			},
			{
				"x": -5.7202320779,
				"y": -2.6239833737,
				"z": -2.7092461577,
				"element": "O" 
			},
			{
				"x": -4.3595711678,
				"y": -1.3386605368,
				"z": -1.2202409578,
				"element": "C" 
			},
			{
				"x": -4.4278772026,
				"y": -0.0172345297,
				"z": -0.9792387161,
				"element": "C" 
			},
			{
				"x": -3.2146900018,
				"y": 0.8174460486,
				"z": -0.6456459123,
				"element": "C" 
			},
			{
				"x": -1.9129671317,
				"y": 0.0493010711,
				"z": -0.5683014082,
				"element": "C" 
			},
			{
				"x": -0.7418577706,
				"y": 0.7237825053,
				"z": -0.211712212,
				"element": "C" 
			},
			{
				"x": 0.4944298024,
				"y": 0.0787427642,
				"z": -0.1245124902,
				"element": "C" 
			},
			{
				"x": 0.5627667377,
				"y": -1.2943728733,
				"z": -0.3960975743,
				"element": "C" 
			},
			{
				"x": 1.8648212779,
				"y": -2.0567592512,
				"z": -0.3103214492,
				"element": "C" 
			},
			{
				"x": 3.0303184595,
				"y": -1.2670791154,
				"z": 0.2351103242,
				"element": "C" 
			},
			{
				"x": 4.2475033499,
				"y": -2.1080741278,
				"z": 0.4667872746,
				"element": "C" 
			},
			{
				"x": 4.599071645,
				"y": -2.99306782,
				"z": -0.2870839368,
				"element": "O" 
			},
			{
				"x": 4.8559928605,
				"y": -1.8406438448,
				"z": 1.641087472,
				"element": "O" 
			},
			{
				"x": 6.0368153569,
				"y": -2.6160209129,
				"z": 1.905518223,
				"element": "C" 
			},
			{
				"x": 2.9786653311,
				"y": 0.0602112752,
				"z": 0.4437904059,
				"element": "C" 
			},
			{
				"x": 1.7225037661,
				"y": 0.8740325096,
				"z": 0.2527044735,
				"element": "C" 
			},
			{
				"x": 4.1418783758,
				"y": 0.8838299783,
				"z": 0.9060439538,
				"element": "C" 
			},
			{
				"x": 4.045381947,
				"y": 1.7793647488,
				"z": 1.7209841708,
				"element": "O" 
			},
			{
				"x": 5.2865111177,
				"y": 0.5861706394,
				"z": 0.2565806376,
				"element": "O" 
			},
			{
				"x": 6.4369546695,
				"y": 1.3409948644,
				"z": 0.6716195085,
				"element": "C" 
			},
			{
				"x": -0.6082689262,
				"y": -1.9708783079,
				"z": -0.74713235,
				"element": "C" 
			},
			{
				"x": -1.8426075517,
				"y": -1.3229039206,
				"z": -0.8417772361,
				"element": "C" 
			},
			{
				"x": -3.0696129798,
				"y": -2.1144517334,
				"z": -1.2310516641,
				"element": "C" 
			},
			{
				"x": -5.7473862369,
				"y": 0.6713726306,
				"z": -1.0716946353,
				"element": "C" 
			},
			{
				"x": -6.7816475669,
				"y": 0.173962322,
				"z": -1.4759746323,
				"element": "O" 
			},
			{
				"x": -5.6673251413,
				"y": 1.9583135657,
				"z": -0.6594247194,
				"element": "O" 
			},
			{
				"x": -6.8939978407,
				"y": 2.7016591068,
				"z": -0.7327895336,
				"element": "C" 
			},
			{
				"x": -7.9365868261,
				"y": -3.4741070609,
				"z": 0.1562290603,
				"element": "H" 
			},
			{
				"x": -8.165434475,
				"y": -2.6682092424,
				"z": -1.4299537959,
				"element": "H" 
			},
			{
				"x": -7.2284030638,
				"y": -4.1810486343,
				"z": -1.3351538403,
				"element": "H" 
			},
			{
				"x": -3.3947291912,
				"y": 1.3375440844,
				"z": 0.3042533481,
				"element": "H" 
			},
			{
				"x": -3.124094829,
				"y": 1.6243157317,
				"z": -1.3862002328,
				"element": "H" 
			},
			{
				"x": -0.7949299981,
				"y": 1.7895722773,
				"z": 0.0055864069,
				"element": "H" 
			},
			{
				"x": 1.7251490266,
				"y": -2.9591179469,
				"z": 0.3007660275,
				"element": "H" 
			},
			{
				"x": 2.159025912,
				"y": -2.4386958119,
				"z": -1.2984836706,
				"element": "H" 
			},
			{
				"x": 5.807562766,
				"y": -3.6840383381,
				"z": 1.885233384,
				"element": "H" 
			},
			{
				"x": 6.3709562825,
				"y": -2.3127559195,
				"z": 2.897539075,
				"element": "H" 
			},
			{
				"x": 6.8074341374,
				"y": -2.4070478228,
				"z": 1.1588635883,
				"element": "H" 
			},
			{
				"x": 1.9138954343,
				"y": 1.6445761332,
				"z": -0.509925014,
				"element": "H" 
			},
			{
				"x": 1.5512834276,
				"y": 1.4385092316,
				"z": 1.1785799791,
				"element": "H" 
			},
			{
				"x": 7.2512461802,
				"y": 1.0136722257,
				"z": 0.0254914915,
				"element": "H" 
			},
			{
				"x": 6.256791147,
				"y": 2.4120092534,
				"z": 0.5529908569,
				"element": "H" 
			},
			{
				"x": 6.6710216375,
				"y": 1.1370442457,
				"z": 1.7197518767,
				"element": "H" 
			},
			{
				"x": -0.5572516255,
				"y": -3.039006779,
				"z": -0.9530430659,
				"element": "H" 
			},
			{
				"x": -2.9527736919,
				"y": -2.5405223583,
				"z": -2.2386027913,
				"element": "H" 
			},
			{
				"x": -3.1787706264,
				"y": -2.9864240367,
				"z": -0.5687085154,
				"element": "H" 
			},
			{
				"x": -7.2652946354,
				"y": 2.7299231632,
				"z": -1.7601789567,
				"element": "H" 
			},
			{
				"x": -7.6570302981,
				"y": 2.2470882845,
				"z": -0.0959974721,
				"element": "H" 
			},
			{
				"x": -6.6509821388,
				"y": 3.7050880553,
				"z": -0.3835462142,
				"element": "H" 
			}
		],
		 "valence_orbital": [ 
			{
				"type": "occ",
				"energy": -0.27341,
				"method": "rhf"
			},
			{
				"type": "occ",
				"energy": -0.26154,
				"method": "rhf"
			},
			{
				"type": "occ",
				"energy": -0.25603,
				"method": "rhf"
			},
			{
				"type": "occ",
				"energy": -0.24396,
				"method": "rhf"
			},
			{
				"type": "occ",
				"energy": -0.23091,
				"method": "rhf"
			},
			{
				"type": "unocc",
				"energy": -0.0508,
				"method": "rhf"
			},
			{
				"type": "unocc",
				"energy": -0.04552,
				"method": "rhf"
			},
			{
				"type": "unocc",
				"energy": -0.01528,
				"method": "rhf"
			},
			{
				"type": "unocc",
				"energy": 0.00471,
				"method": "rhf"
			},
			{
				"type": "unocc",
				"energy": 0.01764,
				"method": "rhf"
			}
		],
		"cosmo_sigma_profile": { 
			"-0.025": 0.0,
			"-0.024": 0.0,
			"-0.023": 0.0,
			"-0.022": 0.0,
			"-0.021": 0.0,
			"-0.02": 0.0,
			"-0.019": 0.0,
			"-0.018": 0.0,
			"-0.017": 0.0,
			"-0.016": 0.0,
			"-0.015": 0.0,
			"-0.014": 0.0,
			"-0.013": 0.0,
			"-0.012": 0.0,
			"-0.011": 0.0,
			"-0.01": 0.0,
			"-0.009": 0.0,
			"-0.008": 0.0,
			"-0.007": 4.55950114652,
			"-0.006": 29.688793867,
			"-0.005": 48.4409943818,
			"-0.004": 57.6767433646,
			"-0.003": 53.2222662541,
			"-0.002": 34.0268179931,
			"-0.001": 27.9583409689,
			"0.0": 24.9063604934,
			"0.001": 20.8778041628,
			"0.002": 19.0996320035,
			"0.003": 18.4947535443,
			"0.004": 17.8656381526,
			"0.005": 19.3786318492,
			"0.006": 12.9053442396,
			"0.007": 8.81371246856,
			"0.008": 9.07930162076,
			"0.009": 8.23015848547,
			"0.01": 9.29385225464,
			"0.011": 13.9458503254,
			"0.012": 10.1037532834,
			"0.013": 0.297952841491,
			"0.014": 0.0,
			"0.015": 0.0,
			"0.016": 0.0,
			"0.017": 0.0,
			"0.018": 0.0,
			"0.019": 0.0,
			"0.02": 0.0,
			"0.021": 0.0,
			"0.022": 0.0,
			"0.023": 0.0,
			"0.024": 0.0,
			"0.025": 0.0
		}
	}
}
