{
	 "smiles": "NC(NO)=C1C=CC=NC1=O", 
	 "Tm": 450.15, 
	 "num_atms": 18, 
	 "gaussian": { 
		 "optdone": 1, 
		 "sigma_profile": "yes", 
		 "theory": "DFT", 
		 "functional": "B3LYP", 
		 "basiset": "6-31G**", 
		 "properties": { 
			 "R2extent": 2140.5447, 
			 "electric_dipole_moment_norm": 7.51730410586, 
			 "electric_quadrupole_moment_norm": 20.8598252802, 
			 "total_energy": -547.494533192, 
			 "HOMO_LUMO_gap": 0.15611, 
			 "cosmo_polarized_energy": -26.95, 
			 "cosmo_cavitation_energy": 21.92, 
			 "cosmo_dispersion_energy": -16.92, 
			 "cosmo_repulsion_energy": 1.36, 
			 "cosmo_total_nonelectrostatic_energy": 6.36, 
			 "SMD_solvation_energy": 3.86 
		},
		"coords": [
			{
				"x": 1.8826805639,
				"y": -1.6707965243,
				"z": -0.1087770275,
				"element": "N" 
			},
			{
				"x": 0.5523788062,
				"y": -1.9166848875,
				"z": -0.4189649273,
				"element": "C" 
			},
			{
				"x": 0.2514512288,
				"y": -3.0504749976,
				"z": -1.0183393048,
				"element": "N" 
			},
			{
				"x": -0.8968653019,
				"y": -3.3660408841,
				"z": -1.588562608,
				"element": "O" 
			},
			{
				"x": -0.4299252821,
				"y": -0.8851796785,
				"z": -0.1030991448,
				"element": "C" 
			},
			{
				"x": -0.0000312765,
				"y": 0.4513859881,
				"z": -0.0018244028,
				"element": "C" 
			},
			{
				"x": -0.882817237,
				"y": 1.4377096065,
				"z": 0.4060550413,
				"element": "C" 
			},
			{
				"x": -2.1901625344,
				"y": 1.0437164356,
				"z": 0.7181966495,
				"element": "C" 
			},
			{
				"x": -2.6407542409,
				"y": -0.2027215852,
				"z": 0.6243009984,
				"element": "N" 
			},
			{
				"x": -1.8002502703,
				"y": -1.1714258642,
				"z": 0.2197454969,
				"element": "C" 
			},
			{
				"x": -2.2940067442,
				"y": -2.3919459509,
				"z": 0.1919329614,
				"element": "O" 
			},
			{
				"x": 2.0471579857,
				"y": -1.2953956116,
				"z": 0.816296726,
				"element": "H" 
			},
			{
				"x": 2.554975079,
				"y": -2.3776364629,
				"z": -0.3764445834,
				"element": "H" 
			},
			{
				"x": 0.9849248616,
				"y": -3.7587566954,
				"z": -1.0891624159,
				"element": "H" 
			},
			{
				"x": -1.8078337959,
				"y": -2.9308272957,
				"z": -0.5554925586,
				"element": "H" 
			},
			{
				"x": 1.0249830122,
				"y": 0.6960004179,
				"z": -0.2628785461,
				"element": "H" 
			},
			{
				"x": -0.5804797842,
				"y": 2.4764791552,
				"z": 0.4788628864,
				"element": "H" 
			},
			{
				"x": -2.9146250702,
				"y": 1.7840948348,
				"z": 1.0572547593,
				"element": "H" 
			}
		],
		 "valence_orbital": [ 
			{
				"type": "occ",
				"energy": -0.29094,
				"method": "rhf"
			},
			{
				"type": "occ",
				"energy": -0.26056,
				"method": "rhf"
			},
			{
				"type": "occ",
				"energy": -0.2526,
				"method": "rhf"
			},
			{
				"type": "occ",
				"energy": -0.23602,
				"method": "rhf"
			},
			{
				"type": "occ",
				"energy": -0.21269,
				"method": "rhf"
			},
			{
				"type": "unocc",
				"energy": -0.05658,
				"method": "rhf"
			},
			{
				"type": "unocc",
				"energy": -0.00302,
				"method": "rhf"
			},
			{
				"type": "unocc",
				"energy": 0.02301,
				"method": "rhf"
			},
			{
				"type": "unocc",
				"energy": 0.03838,
				"method": "rhf"
			},
			{
				"type": "unocc",
				"energy": 0.07796,
				"method": "rhf"
			}
		],
		"cosmo_sigma_profile": { 
			"-0.025": 0.0,
			"-0.024": 0.0,
			"-0.023": 0.0,
			"-0.022": 0.0,
			"-0.021": 0.0,
			"-0.02": 0.0618028236193,
			"-0.019": 0.675777585124,
			"-0.018": 1.36865116337,
			"-0.017": 2.08145689139,
			"-0.016": 2.12716973408,
			"-0.015": 2.47076747436,
			"-0.014": 3.31149851676,
			"-0.013": 3.09346043182,
			"-0.012": 2.92069612385,
			"-0.011": 2.81194240684,
			"-0.01": 2.70089304691,
			"-0.009": 2.56209168077,
			"-0.008": 2.50511996786,
			"-0.007": 4.88703050775,
			"-0.006": 8.74324434895,
			"-0.005": 8.41170541405,
			"-0.004": 7.20405073671,
			"-0.003": 7.21693871189,
			"-0.002": 5.92787162646,
			"-0.001": 7.46825820238,
			"0.0": 10.6441968728,
			"0.001": 12.1901137026,
			"0.002": 13.3389639941,
			"0.003": 9.56335182761,
			"0.004": 5.07899811197,
			"0.005": 4.29844653567,
			"0.006": 3.20858925849,
			"0.007": 4.14739894558,
			"0.008": 4.81942218746,
			"0.009": 2.90649238155,
			"0.01": 2.95115091917,
			"0.011": 3.72354687036,
			"0.012": 4.21783228401,
			"0.013": 4.02768778125,
			"0.014": 4.8294869537,
			"0.015": 3.78176364418,
			"0.016": 1.73601409744,
			"0.017": 0.844953559196,
			"0.018": 0.0195364238509,
			"0.019": 0.0,
			"0.02": 0.0,
			"0.021": 0.0,
			"0.022": 0.0,
			"0.023": 0.0,
			"0.024": 0.0,
			"0.025": 0.0
		}
	}
}
