{
	 "smiles": "COC1=CC=CC=C1C(O)=O", 
	 "Tm": 373.15, 
	 "num_atms": 19, 
	 "gaussian": { 
		 "optdone": 1, 
		 "sigma_profile": "yes", 
		 "theory": "DFT", 
		 "functional": "B3LYP", 
		 "basiset": "6-31G**", 
		 "properties": { 
			 "R2extent": 2757.5721, 
			 "electric_dipole_moment_norm": 2.42957915903, 
			 "electric_quadrupole_moment_norm": 14.0274256726, 
			 "total_energy": -535.340361819, 
			 "HOMO_LUMO_gap": 0.20169, 
			 "cosmo_polarized_energy": -10.4, 
			 "cosmo_cavitation_energy": 23.22, 
			 "cosmo_dispersion_energy": -17.09, 
			 "cosmo_repulsion_energy": 1.38, 
			 "cosmo_total_nonelectrostatic_energy": 7.5, 
			 "SMD_solvation_energy": 6.02 
		},
		"coords": [
			{
				"x": 0.0102543536,
				"y": 3.0229962178,
				"z": 0.6059747256,
				"element": "C" 
			},
			{
				"x": -0.5306527735,
				"y": 2.0138036506,
				"z": 1.4593559493,
				"element": "O" 
			},
			{
				"x": -0.0250633861,
				"y": 0.75244229,
				"z": 1.2731606126,
				"element": "C" 
			},
			{
				"x": -0.6319565638,
				"y": -0.0623359346,
				"z": 0.3099395932,
				"element": "C" 
			},
			{
				"x": -0.2146885361,
				"y": -1.3772317844,
				"z": 0.1225417582,
				"element": "C" 
			},
			{
				"x": 0.8173520538,
				"y": -1.901089658,
				"z": 0.9064630699,
				"element": "C" 
			},
			{
				"x": 1.4187058265,
				"y": -1.1001753994,
				"z": 1.8691878553,
				"element": "C" 
			},
			{
				"x": 1.023223304,
				"y": 0.2350450168,
				"z": 2.0643938979,
				"element": "C" 
			},
			{
				"x": 1.7580221725,
				"y": 0.9741244038,
				"z": 3.1309601471,
				"element": "C" 
			},
			{
				"x": 1.5268291041,
				"y": 2.3069494886,
				"z": 3.1727735245,
				"element": "O" 
			},
			{
				"x": 2.5332295151,
				"y": 0.4438241995,
				"z": 3.9052054517,
				"element": "O" 
			},
			{
				"x": -0.1295096725,
				"y": 2.7656214103,
				"z": -0.4521545571,
				"element": "H" 
			},
			{
				"x": -0.5380445926,
				"y": 3.9399639561,
				"z": 0.8297665969,
				"element": "H" 
			},
			{
				"x": 1.0751594589,
				"y": 3.1799619717,
				"z": 0.8081764621,
				"element": "H" 
			},
			{
				"x": -1.4496468131,
				"y": 0.3551615906,
				"z": -0.2691967329,
				"element": "H" 
			},
			{
				"x": -0.7005163525,
				"y": -1.9949970402,
				"z": -0.6274732355,
				"element": "H" 
			},
			{
				"x": 1.1433396575,
				"y": -2.9276032609,
				"z": 0.7715746913,
				"element": "H" 
			},
			{
				"x": 2.2132474532,
				"y": -1.4832419488,
				"z": 2.5001518216,
				"element": "H" 
			},
			{
				"x": 2.0768157909,
				"y": 2.6326808305,
				"z": 3.9053983683,
				"element": "H" 
			}
		],
		 "valence_orbital": [ 
			{
				"type": "occ",
				"energy": -0.31591,
				"method": "rhf"
			},
			{
				"type": "occ",
				"energy": -0.27805,
				"method": "rhf"
			},
			{
				"type": "occ",
				"energy": -0.2711,
				"method": "rhf"
			},
			{
				"type": "occ",
				"energy": -0.26117,
				"method": "rhf"
			},
			{
				"type": "occ",
				"energy": -0.2485,
				"method": "rhf"
			},
			{
				"type": "unocc",
				"energy": -0.04681,
				"method": "rhf"
			},
			{
				"type": "unocc",
				"energy": -0.00713,
				"method": "rhf"
			},
			{
				"type": "unocc",
				"energy": 0.05564,
				"method": "rhf"
			},
			{
				"type": "unocc",
				"energy": 0.07987,
				"method": "rhf"
			},
			{
				"type": "unocc",
				"energy": 0.09471,
				"method": "rhf"
			}
		],
		"cosmo_sigma_profile": { 
			"-0.025": 0.0,
			"-0.024": 0.0,
			"-0.023": 0.0,
			"-0.022": 0.0,
			"-0.021": 0.0,
			"-0.02": 0.0,
			"-0.019": 0.0,
			"-0.018": 0.534779325455,
			"-0.017": 0.800921399496,
			"-0.016": 1.04705635236,
			"-0.015": 0.78186929291,
			"-0.014": 0.827346866825,
			"-0.013": 0.703660242139,
			"-0.012": 0.521806067302,
			"-0.011": 0.417194496125,
			"-0.01": 0.729056262294,
			"-0.009": 0.753609540051,
			"-0.008": 0.577373027224,
			"-0.007": 3.02591695647,
			"-0.006": 9.09744991198,
			"-0.005": 12.6195584359,
			"-0.004": 15.0028015573,
			"-0.003": 17.0230561137,
			"-0.002": 16.5174449723,
			"-0.001": 12.0885490968,
			"0.0": 12.0916819289,
			"0.001": 11.3506283672,
			"0.002": 12.5765820576,
			"0.003": 15.4382461487,
			"0.004": 9.92036308447,
			"0.005": 3.68018433604,
			"0.006": 3.05166348525,
			"0.007": 3.29333781511,
			"0.008": 2.42897723202,
			"0.009": 3.0547941145,
			"0.01": 3.03919981536,
			"0.011": 5.59753242026,
			"0.012": 5.61907176075,
			"0.013": 0.798042031979,
			"0.014": 0.00984483228095,
			"0.015": 0.0,
			"0.016": 0.0,
			"0.017": 0.0,
			"0.018": 0.0,
			"0.019": 0.0,
			"0.02": 0.0,
			"0.021": 0.0,
			"0.022": 0.0,
			"0.023": 0.0,
			"0.024": 0.0,
			"0.025": 0.0
		}
	}
}
