{
	 "smiles": "CCOC(=O)C(=CNC1=C(F)C=C(Cl)C=C1)C#N", 
	 "Tm": 428.15, 
	 "num_atms": 28, 
	 "gaussian": { 
		 "optdone": 1, 
		 "sigma_profile": "yes", 
		 "theory": "DFT", 
		 "functional": "B3LYP", 
		 "basiset": "6-31G**", 
		 "properties": { 
			 "R2extent": 9512.9603, 
			 "electric_dipole_moment_norm": 2.90538593306, 
			 "electric_quadrupole_moment_norm": 14.9372606632, 
			 "total_energy": -1283.27575391, 
			 "HOMO_LUMO_gap": 0.15853, 
			 "cosmo_polarized_energy": -15.81, 
			 "cosmo_cavitation_energy": 37.14, 
			 "cosmo_dispersion_energy": -25.92, 
			 "cosmo_repulsion_energy": 2.01, 
			 "cosmo_total_nonelectrostatic_energy": 13.22, 
			 "SMD_solvation_energy": 8.96 
		},
		"coords": [
			{
				"x": 2.8694998663,
				"y": 4.3553813497,
				"z": -1.2345019052,
				"element": "C" 
			},
			{
				"x": 3.4933697999,
				"y": 3.0663103581,
				"z": -1.7468971061,
				"element": "C" 
			},
			{
				"x": 2.5154511692,
				"y": 1.9994487849,
				"z": -1.8117407334,
				"element": "O" 
			},
			{
				"x": 2.3131551575,
				"y": 1.2953910251,
				"z": -0.6821567284,
				"element": "C" 
			},
			{
				"x": 2.8958882355,
				"y": 1.489792777,
				"z": 0.3713139501,
				"element": "O" 
			},
			{
				"x": 1.2928534168,
				"y": 0.2429858054,
				"z": -0.8758174368,
				"element": "C" 
			},
			{
				"x": 0.9913717542,
				"y": -0.5522136204,
				"z": 0.1989738868,
				"element": "C" 
			},
			{
				"x": 0.0887816885,
				"y": -1.5547863063,
				"z": 0.1901372942,
				"element": "N" 
			},
			{
				"x": -0.2564459591,
				"y": -2.3952163541,
				"z": 1.2568429735,
				"element": "C" 
			},
			{
				"x": -1.2295167961,
				"y": -3.3751944088,
				"z": 1.0141671706,
				"element": "C" 
			},
			{
				"x": -1.7580533275,
				"y": -3.4320618837,
				"z": -0.2298545198,
				"element": "F" 
			},
			{
				"x": -1.6589246502,
				"y": -4.2665737238,
				"z": 1.9807072352,
				"element": "C" 
			},
			{
				"x": -1.0915060807,
				"y": -4.1784830254,
				"z": 3.2530009606,
				"element": "C" 
			},
			{
				"x": -1.6107163579,
				"y": -5.2907046037,
				"z": 4.5024047062,
				"element": "Cl" 
			},
			{
				"x": -0.1207080264,
				"y": -3.2185972645,
				"z": 3.5365244594,
				"element": "C" 
			},
			{
				"x": 0.2936625126,
				"y": -2.3323565821,
				"z": 2.5427847986,
				"element": "C" 
			},
			{
				"x": 0.6329955146,
				"y": 0.0415591932,
				"z": -2.1197486777,
				"element": "C" 
			},
			{
				"x": 0.0409117724,
				"y": -0.1981871462,
				"z": -3.0949967994,
				"element": "N" 
			},
			{
				"x": 2.0131007708,
				"y": 4.6449300735,
				"z": -1.8501913687,
				"element": "H" 
			},
			{
				"x": 2.5397297394,
				"y": 4.2379860346,
				"z": -0.1992931846,
				"element": "H" 
			},
			{
				"x": 3.6080182518,
				"y": 5.1632059974,
				"z": -1.2698682741,
				"element": "H" 
			},
			{
				"x": 4.3211470643,
				"y": 2.7459687163,
				"z": -1.1100190421,
				"element": "H" 
			},
			{
				"x": 3.8438111827,
				"y": 3.1705915763,
				"z": -2.776092187,
				"element": "H" 
			},
			{
				"x": 1.5240777011,
				"y": -0.3539709216,
				"z": 1.1219778042,
				"element": "H" 
			},
			{
				"x": -0.4042949046,
				"y": -1.7331236728,
				"z": -0.6793302189,
				"element": "H" 
			},
			{
				"x": -2.4142061883,
				"y": -5.0035058619,
				"z": 1.7368700687,
				"element": "H" 
			},
			{
				"x": 0.3116671564,
				"y": -3.161225364,
				"z": 4.5284980286,
				"element": "H" 
			},
			{
				"x": 1.0494795367,
				"y": -1.5935509522,
				"z": 2.7829048456,
				"element": "H" 
			}
		],
		 "valence_orbital": [ 
			{
				"type": "occ",
				"energy": -0.30355,
				"method": "rhf"
			},
			{
				"type": "occ",
				"energy": -0.28522,
				"method": "rhf"
			},
			{
				"type": "occ",
				"energy": -0.2817,
				"method": "rhf"
			},
			{
				"type": "occ",
				"energy": -0.27932,
				"method": "rhf"
			},
			{
				"type": "occ",
				"energy": -0.22858,
				"method": "rhf"
			},
			{
				"type": "unocc",
				"energy": -0.07005,
				"method": "rhf"
			},
			{
				"type": "unocc",
				"energy": -0.03333,
				"method": "rhf"
			},
			{
				"type": "unocc",
				"energy": -0.01162,
				"method": "rhf"
			},
			{
				"type": "unocc",
				"energy": 0.00809,
				"method": "rhf"
			},
			{
				"type": "unocc",
				"energy": 0.02201,
				"method": "rhf"
			}
		],
		"cosmo_sigma_profile": { 
			"-0.025": 0.0,
			"-0.024": 0.0,
			"-0.023": 0.0,
			"-0.022": 0.0,
			"-0.021": 0.0,
			"-0.02": 0.0,
			"-0.019": 0.0,
			"-0.018": 0.0,
			"-0.017": 0.0,
			"-0.016": 0.0,
			"-0.015": 0.0,
			"-0.014": 0.0,
			"-0.013": 0.222502594487,
			"-0.012": 1.17754312572,
			"-0.011": 2.59254631886,
			"-0.01": 3.22905069084,
			"-0.009": 5.62354978741,
			"-0.008": 6.83228316545,
			"-0.007": 7.20891148099,
			"-0.006": 9.26725739855,
			"-0.005": 13.4854793552,
			"-0.004": 18.1761611718,
			"-0.003": 22.0101332091,
			"-0.002": 28.5392473435,
			"-0.001": 30.8778727263,
			"0.0": 29.2480234336,
			"0.001": 24.7897397895,
			"0.002": 19.9592101564,
			"0.003": 16.1402389704,
			"0.004": 15.7974000245,
			"0.005": 6.3724198848,
			"0.006": 5.11828581449,
			"0.007": 5.80822808802,
			"0.008": 5.46347032307,
			"0.009": 4.54138081052,
			"0.01": 5.01671086787,
			"0.011": 5.07204858086,
			"0.012": 6.25080834691,
			"0.013": 2.10747467079,
			"0.014": 0.220833937013,
			"0.015": 0.0,
			"0.016": 0.0,
			"0.017": 0.0,
			"0.018": 0.0,
			"0.019": 0.0,
			"0.02": 0.0,
			"0.021": 0.0,
			"0.022": 0.0,
			"0.023": 0.0,
			"0.024": 0.0,
			"0.025": 0.0
		}
	}
}
