{
	 "smiles": "NNC(=O)C1CC2=C(CN1CC1=CC=CC=C1)C=CC=C2", 
	 "Tm": 402.15, 
	 "num_atms": 40, 
	 "gaussian": { 
		 "optdone": 1, 
		 "sigma_profile": "yes", 
		 "theory": "DFT", 
		 "functional": "B3LYP", 
		 "basiset": "6-31G**", 
		 "properties": { 
			 "R2extent": 6819.502, 
			 "electric_dipole_moment_norm": 2.4488376406, 
			 "electric_quadrupole_moment_norm": 6.67903508974, 
			 "total_energy": -898.710807342, 
			 "HOMO_LUMO_gap": 0.18901, 
			 "cosmo_polarized_energy": -15.18, 
			 "cosmo_cavitation_energy": 41.46, 
			 "cosmo_dispersion_energy": -28.05, 
			 "cosmo_repulsion_energy": 2.15, 
			 "cosmo_total_nonelectrostatic_energy": 15.55, 
			 "SMD_solvation_energy": 6.22 
		},
		"coords": [
			{
				"x": -1.6637150141,
				"y": 3.3240367931,
				"z": -2.6736063905,
				"element": "N" 
			},
			{
				"x": -1.2751092608,
				"y": 2.1713853872,
				"z": -1.955412394,
				"element": "N" 
			},
			{
				"x": -0.1105010229,
				"y": 2.1466278882,
				"z": -1.2376032206,
				"element": "C" 
			},
			{
				"x": 0.5659109649,
				"y": 3.1532345157,
				"z": -1.0599160724,
				"element": "O" 
			},
			{
				"x": 0.2696192848,
				"y": 0.7575495396,
				"z": -0.6862635812,
				"element": "C" 
			},
			{
				"x": 0.6896974074,
				"y": 0.9014357865,
				"z": 0.7898236352,
				"element": "C" 
			},
			{
				"x": 1.241366312,
				"y": -0.3972651849,
				"z": 1.3176704775,
				"element": "C" 
			},
			{
				"x": 2.1660121677,
				"y": -1.0641263358,
				"z": 0.4969914978,
				"element": "C" 
			},
			{
				"x": 2.5145047967,
				"y": -0.3787750846,
				"z": -0.8061659122,
				"element": "C" 
			},
			{
				"x": 1.344114369,
				"y": 0.1834219424,
				"z": -1.489285209,
				"element": "N" 
			},
			{
				"x": 0.9927141336,
				"y": -0.2736456669,
				"z": -2.822649201,
				"element": "C" 
			},
			{
				"x": -0.1696233714,
				"y": -1.2621121091,
				"z": -2.9318392447,
				"element": "C" 
			},
			{
				"x": -0.2674666063,
				"y": -2.3763012952,
				"z": -2.0859299425,
				"element": "C" 
			},
			{
				"x": -1.3198655589,
				"y": -3.281486802,
				"z": -2.2213785264,
				"element": "C" 
			},
			{
				"x": -2.2947200206,
				"y": -3.0886958105,
				"z": -3.2043723643,
				"element": "C" 
			},
			{
				"x": -2.211604632,
				"y": -1.981241134,
				"z": -4.0481136966,
				"element": "C" 
			},
			{
				"x": -1.1575591567,
				"y": -1.0741253611,
				"z": -3.9070832099,
				"element": "C" 
			},
			{
				"x": 2.7168388148,
				"y": -2.2786078619,
				"z": 0.9103422302,
				"element": "C" 
			},
			{
				"x": 2.3556977102,
				"y": -2.8308682399,
				"z": 2.1425456407,
				"element": "C" 
			},
			{
				"x": 1.4352007745,
				"y": -2.1705829932,
				"z": 2.9577999916,
				"element": "C" 
			},
			{
				"x": 0.8751894998,
				"y": -0.9597460954,
				"z": 2.5420443369,
				"element": "C" 
			},
			{
				"x": -0.7988393314,
				"y": 3.8080863888,
				"z": -2.9206478421,
				"element": "H" 
			},
			{
				"x": -2.1347417269,
				"y": 3.9462042327,
				"z": -2.0164938845,
				"element": "H" 
			},
			{
				"x": -1.6853453884,
				"y": 1.3072848684,
				"z": -2.284257456,
				"element": "H" 
			},
			{
				"x": -0.62370502,
				"y": 0.1101456446,
				"z": -0.722143001,
				"element": "H" 
			},
			{
				"x": -0.1705147803,
				"y": 1.2364392931,
				"z": 1.3774872986,
				"element": "H" 
			},
			{
				"x": 1.4398499518,
				"y": 1.7012732262,
				"z": 0.8410501764,
				"element": "H" 
			},
			{
				"x": 3.0104812303,
				"y": -1.0787596148,
				"z": -1.4846337422,
				"element": "H" 
			},
			{
				"x": 3.2475550276,
				"y": 0.4198680154,
				"z": -0.6002981564,
				"element": "H" 
			},
			{
				"x": 0.7596814779,
				"y": 0.5889050377,
				"z": -3.465423988,
				"element": "H" 
			},
			{
				"x": 1.8899803048,
				"y": -0.7257965067,
				"z": -3.2607397043,
				"element": "H" 
			},
			{
				"x": 0.4774169729,
				"y": -2.5271494724,
				"z": -1.3094716098,
				"element": "H" 
			},
			{
				"x": -1.3809269606,
				"y": -4.1390949901,
				"z": -1.5570129368,
				"element": "H" 
			},
			{
				"x": -3.1141821986,
				"y": -3.7942782481,
				"z": -3.3069377532,
				"element": "H" 
			},
			{
				"x": -2.9667122656,
				"y": -1.8183876046,
				"z": -4.8121607869,
				"element": "H" 
			},
			{
				"x": -1.0957217466,
				"y": -0.2129530105,
				"z": -4.5698185758,
				"element": "H" 
			},
			{
				"x": 3.4315350283,
				"y": -2.793221492,
				"z": 0.2718452868,
				"element": "H" 
			},
			{
				"x": 2.787891236,
				"y": -3.775167063,
				"z": 2.4612683026,
				"element": "H" 
			},
			{
				"x": 1.148460978,
				"y": -2.5995565202,
				"z": 3.9137514418,
				"element": "H" 
			},
			{
				"x": 0.152735619,
				"y": -0.4487540627,
				"z": 3.1740380863,
				"element": "H" 
			}
		],
		 "valence_orbital": [ 
			{
				"type": "occ",
				"energy": -0.24788,
				"method": "rhf"
			},
			{
				"type": "occ",
				"energy": -0.24631,
				"method": "rhf"
			},
			{
				"type": "occ",
				"energy": -0.24542,
				"method": "rhf"
			},
			{
				"type": "occ",
				"energy": -0.23661,
				"method": "rhf"
			},
			{
				"type": "occ",
				"energy": -0.19787,
				"method": "rhf"
			},
			{
				"type": "unocc",
				"energy": -0.00886,
				"method": "rhf"
			},
			{
				"type": "unocc",
				"energy": -0.00582,
				"method": "rhf"
			},
			{
				"type": "unocc",
				"energy": -0.00115,
				"method": "rhf"
			},
			{
				"type": "unocc",
				"energy": -0.00014,
				"method": "rhf"
			},
			{
				"type": "unocc",
				"energy": 0.02729,
				"method": "rhf"
			}
		],
		"cosmo_sigma_profile": { 
			"-0.025": 0.0,
			"-0.024": 0.0,
			"-0.023": 0.0,
			"-0.022": 0.0,
			"-0.021": 0.0,
			"-0.02": 0.0,
			"-0.019": 0.0,
			"-0.018": 0.0,
			"-0.017": 0.0,
			"-0.016": 0.0,
			"-0.015": 0.0,
			"-0.014": 0.0,
			"-0.013": 0.0,
			"-0.012": 0.26815918411,
			"-0.011": 1.68244286657,
			"-0.01": 2.80497116825,
			"-0.009": 3.16232329829,
			"-0.008": 3.96931268276,
			"-0.007": 3.69210658954,
			"-0.006": 9.99605547031,
			"-0.005": 31.3873263717,
			"-0.004": 31.9929031002,
			"-0.003": 34.8093735467,
			"-0.002": 25.9947136696,
			"-0.001": 26.9054470903,
			"0.0": 17.9239954794,
			"0.001": 19.3863532564,
			"0.002": 19.4226192268,
			"0.003": 18.0634033678,
			"0.004": 16.2365363933,
			"0.005": 16.7626162753,
			"0.006": 15.4327075498,
			"0.007": 3.77884581963,
			"0.008": 3.21536664242,
			"0.009": 2.28875387886,
			"0.01": 1.69640085287,
			"0.011": 2.15112131948,
			"0.012": 3.58324424114,
			"0.013": 4.80316010508,
			"0.014": 4.25068391099,
			"0.015": 1.09248798861,
			"0.016": 0.314164404594,
			"0.017": 0.429924535307,
			"0.018": 0.0,
			"0.019": 0.0,
			"0.02": 0.0,
			"0.021": 0.0,
			"0.022": 0.0,
			"0.023": 0.0,
			"0.024": 0.0,
			"0.025": 0.0
		}
	}
}
