{
	 "smiles": "OC(C1=CC=CN1)C(F)(F)F", 
	 "Tm": 321.15, 
	 "num_atms": 17, 
	 "gaussian": { 
		 "optdone": 1, 
		 "sigma_profile": "yes", 
		 "theory": "DFT", 
		 "functional": "B3LYP", 
		 "basiset": "6-31G**", 
		 "properties": { 
			 "R2extent": 2123.8311, 
			 "electric_dipole_moment_norm": 2.16445310876, 
			 "electric_quadrupole_moment_norm": 3.45598883534, 
			 "total_energy": -661.736166004, 
			 "HOMO_LUMO_gap": 0.23837, 
			 "cosmo_polarized_energy": -9.16, 
			 "cosmo_cavitation_energy": 22.13, 
			 "cosmo_dispersion_energy": -15.98, 
			 "cosmo_repulsion_energy": 1.23, 
			 "cosmo_total_nonelectrostatic_energy": 7.38, 
			 "SMD_solvation_energy": 5.12 
		},
		"coords": [
			{
				"x": 2.2660449102,
				"y": 0.7299736525,
				"z": 0.2582089034,
				"element": "O" 
			},
			{
				"x": 1.0917087006,
				"y": 1.3066116137,
				"z": -0.2999818056,
				"element": "C" 
			},
			{
				"x": -0.0763677446,
				"y": 0.3617722687,
				"z": -0.2119704897,
				"element": "C" 
			},
			{
				"x": -1.2481685619,
				"y": 0.1995839875,
				"z": -0.9281448466,
				"element": "C" 
			},
			{
				"x": -1.9941489997,
				"y": -0.8334821042,
				"z": -0.2940963714,
				"element": "C" 
			},
			{
				"x": -1.2625531473,
				"y": -1.268870706,
				"z": 0.7908633975,
				"element": "C" 
			},
			{
				"x": -0.1046495026,
				"y": -0.5342649184,
				"z": 0.8333905094,
				"element": "N" 
			},
			{
				"x": 1.3901302811,
				"y": 1.7615701378,
				"z": -1.7309534328,
				"element": "C" 
			},
			{
				"x": 2.3721690293,
				"y": 2.6797381421,
				"z": -1.745947797,
				"element": "F" 
			},
			{
				"x": 1.7994981116,
				"y": 0.7160290282,
				"z": -2.4866786423,
				"element": "F" 
			},
			{
				"x": 0.3100591373,
				"y": 2.3094949919,
				"z": -2.3239992982,
				"element": "F" 
			},
			{
				"x": 2.5035998453,
				"y": -0.0214160247,
				"z": -0.3063082348,
				"element": "H" 
			},
			{
				"x": 0.9174746235,
				"y": 2.2202972347,
				"z": 0.2820579148,
				"element": "H" 
			},
			{
				"x": -1.5351137456,
				"y": 0.7591948747,
				"z": -1.8050352364,
				"element": "H" 
			},
			{
				"x": -2.956129882,
				"y": -1.2164221328,
				"z": -0.6043814546,
				"element": "H" 
			},
			{
				"x": -1.4639448035,
				"y": -2.0382139999,
				"z": 1.5213089479,
				"element": "H" 
			},
			{
				"x": 0.6480917484,
				"y": -0.6259960457,
				"z": 1.4978679364,
				"element": "H" 
			}
		],
		 "valence_orbital": [ 
			{
				"type": "occ",
				"energy": -0.38032,
				"method": "rhf"
			},
			{
				"type": "occ",
				"energy": -0.35485,
				"method": "rhf"
			},
			{
				"type": "occ",
				"energy": -0.30769,
				"method": "rhf"
			},
			{
				"type": "occ",
				"energy": -0.24538,
				"method": "rhf"
			},
			{
				"type": "occ",
				"energy": -0.21292,
				"method": "rhf"
			},
			{
				"type": "unocc",
				"energy": 0.02545,
				"method": "rhf"
			},
			{
				"type": "unocc",
				"energy": 0.06343,
				"method": "rhf"
			},
			{
				"type": "unocc",
				"energy": 0.07921,
				"method": "rhf"
			},
			{
				"type": "unocc",
				"energy": 0.09807,
				"method": "rhf"
			},
			{
				"type": "unocc",
				"energy": 0.12282,
				"method": "rhf"
			}
		],
		"cosmo_sigma_profile": { 
			"-0.025": 0.0,
			"-0.024": 0.0,
			"-0.023": 0.0,
			"-0.022": 0.0,
			"-0.021": 0.0,
			"-0.02": 0.0,
			"-0.019": 0.0,
			"-0.018": 0.0,
			"-0.017": 0.0,
			"-0.016": 0.495884910194,
			"-0.015": 0.866401103583,
			"-0.014": 1.88037786639,
			"-0.013": 1.37714729004,
			"-0.012": 1.46571289642,
			"-0.011": 2.08435854657,
			"-0.01": 1.64297434191,
			"-0.009": 2.81528127389,
			"-0.008": 5.17920216642,
			"-0.007": 5.87552499872,
			"-0.006": 5.9442007358,
			"-0.005": 6.95302699865,
			"-0.004": 7.9393823864,
			"-0.003": 6.63696644532,
			"-0.002": 8.45304493428,
			"-0.001": 9.31716284334,
			"0.0": 9.76596753485,
			"0.001": 12.5575442142,
			"0.002": 25.2664455329,
			"0.003": 22.1804324424,
			"0.004": 6.76865191381,
			"0.005": 7.4070706719,
			"0.006": 6.03356846378,
			"0.007": 5.98612119374,
			"0.008": 5.14865176091,
			"0.009": 2.39366856893,
			"0.01": 0.965861056254,
			"0.011": 1.6338150871,
			"0.012": 1.11819587113,
			"0.013": 0.0693155582085,
			"0.014": 0.0,
			"0.015": 0.0,
			"0.016": 0.0,
			"0.017": 0.0,
			"0.018": 0.0,
			"0.019": 0.0,
			"0.02": 0.0,
			"0.021": 0.0,
			"0.022": 0.0,
			"0.023": 0.0,
			"0.024": 0.0,
			"0.025": 0.0
		}
	}
}
