{
	 "smiles": "COC(=O)C1=C(N)C=CC(=C1)C1=CC=CS1", 
	 "Tm": 363.15, 
	 "num_atms": 27, 
	 "gaussian": { 
		 "optdone": 1, 
		 "sigma_profile": "yes", 
		 "theory": "DFT", 
		 "functional": "B3LYP", 
		 "basiset": "6-31G**", 
		 "properties": { 
			 "R2extent": 4865.0703, 
			 "electric_dipole_moment_norm": 0.944196594995, 
			 "electric_quadrupole_moment_norm": 12.3952880382, 
			 "total_energy": -1067.30649989, 
			 "HOMO_LUMO_gap": 0.14861, 
			 "cosmo_polarized_energy": -10.72, 
			 "cosmo_cavitation_energy": 32.67, 
			 "cosmo_dispersion_energy": -24.6, 
			 "cosmo_repulsion_energy": 1.86, 
			 "cosmo_total_nonelectrostatic_energy": 9.92, 
			 "SMD_solvation_energy": 6.76 
		},
		"coords": [
			{
				"x": -1.417250018,
				"y": -4.1648740208,
				"z": 0.1282384167,
				"element": "C" 
			},
			{
				"x": -0.9126114402,
				"y": -2.8270941071,
				"z": 0.01257905,
				"element": "O" 
			},
			{
				"x": -0.3283056992,
				"y": -2.5248710422,
				"z": -1.1689281115,
				"element": "C" 
			},
			{
				"x": -0.2436859268,
				"y": -3.3543317541,
				"z": -2.070671901,
				"element": "O" 
			},
			{
				"x": 0.1647536756,
				"y": -1.1368866729,
				"z": -1.2358518855,
				"element": "C" 
			},
			{
				"x": 0.8277576129,
				"y": -0.6718480082,
				"z": -2.4102927358,
				"element": "C" 
			},
			{
				"x": 1.0653796615,
				"y": -1.4799654334,
				"z": -3.4799396827,
				"element": "N" 
			},
			{
				"x": 1.2585857183,
				"y": 0.6766314456,
				"z": -2.427462323,
				"element": "C" 
			},
			{
				"x": 1.051514049,
				"y": 1.5135957239,
				"z": -1.3501149128,
				"element": "C" 
			},
			{
				"x": 0.411946167,
				"y": 1.0628823276,
				"z": -0.1718226375,
				"element": "C" 
			},
			{
				"x": -0.0179493839,
				"y": -0.2638977599,
				"z": -0.1497019821,
				"element": "C" 
			},
			{
				"x": 0.2224783204,
				"y": 1.9684188027,
				"z": 0.9666446107,
				"element": "C" 
			},
			{
				"x": 0.9766664435,
				"y": 3.0620698829,
				"z": 1.3292515224,
				"element": "C" 
			},
			{
				"x": 0.5017545411,
				"y": 3.7259477774,
				"z": 2.4983717224,
				"element": "C" 
			},
			{
				"x": -0.6135857024,
				"y": 3.1384283579,
				"z": 3.0273690853,
				"element": "C" 
			},
			{
				"x": -1.1102265634,
				"y": 1.7646515635,
				"z": 2.0906316467,
				"element": "S" 
			},
			{
				"x": -0.6123564405,
				"y": -4.8940447554,
				"z": 0.0060549739,
				"element": "H" 
			},
			{
				"x": -1.8439437366,
				"y": -4.2300807179,
				"z": 1.1291375505,
				"element": "H" 
			},
			{
				"x": -2.1826313673,
				"y": -4.3566500665,
				"z": -0.6280684469,
				"element": "H" 
			},
			{
				"x": 1.4108732634,
				"y": -1.0800692351,
				"z": -4.3359687924,
				"element": "H" 
			},
			{
				"x": 0.6567585726,
				"y": -2.4059363385,
				"z": -3.4725517753,
				"element": "H" 
			},
			{
				"x": 1.75303667,
				"y": 1.0542809654,
				"z": -3.3188660464,
				"element": "H" 
			},
			{
				"x": 1.372657521,
				"y": 2.5487542085,
				"z": -1.4175977226,
				"element": "H" 
			},
			{
				"x": -0.5034229406,
				"y": -0.6574774518,
				"z": 0.735808363,
				"element": "H" 
			},
			{
				"x": 1.8675824376,
				"y": 3.3646560626,
				"z": 0.790505908,
				"element": "H" 
			},
			{
				"x": 0.9795147287,
				"y": 4.5975043035,
				"z": 2.9318678326,
				"element": "H" 
			},
			{
				"x": -1.1739901638,
				"y": 3.4244059424,
				"z": 3.9064782734,
				"element": "H" 
			}
		],
		 "valence_orbital": [ 
			{
				"type": "occ",
				"energy": -0.27492,
				"method": "rhf"
			},
			{
				"type": "occ",
				"energy": -0.25764,
				"method": "rhf"
			},
			{
				"type": "occ",
				"energy": -0.24416,
				"method": "rhf"
			},
			{
				"type": "occ",
				"energy": -0.24144,
				"method": "rhf"
			},
			{
				"type": "occ",
				"energy": -0.18861,
				"method": "rhf"
			},
			{
				"type": "unocc",
				"energy": -0.04,
				"method": "rhf"
			},
			{
				"type": "unocc",
				"energy": -0.02441,
				"method": "rhf"
			},
			{
				"type": "unocc",
				"energy": 0.02626,
				"method": "rhf"
			},
			{
				"type": "unocc",
				"energy": 0.04208,
				"method": "rhf"
			},
			{
				"type": "unocc",
				"energy": 0.05459,
				"method": "rhf"
			}
		],
		"cosmo_sigma_profile": { 
			"-0.025": 0.0,
			"-0.024": 0.0,
			"-0.023": 0.0,
			"-0.022": 0.0,
			"-0.021": 0.0,
			"-0.02": 0.0,
			"-0.019": 0.0,
			"-0.018": 0.0,
			"-0.017": 0.0,
			"-0.016": 0.0,
			"-0.015": 0.0,
			"-0.014": 0.345914353871,
			"-0.013": 1.59446504793,
			"-0.012": 1.1550457247,
			"-0.011": 1.4287517797,
			"-0.01": 1.46695105784,
			"-0.009": 1.53887060685,
			"-0.008": 4.35390336251,
			"-0.007": 6.39821012763,
			"-0.006": 15.2643361145,
			"-0.005": 15.9035186023,
			"-0.004": 16.84277907,
			"-0.003": 21.0792985139,
			"-0.002": 14.9405179891,
			"-0.001": 14.5957751466,
			"0.0": 15.1414106022,
			"0.001": 17.589768069,
			"0.002": 20.3959852118,
			"0.003": 24.0404560298,
			"0.004": 29.2961511895,
			"0.005": 20.8264055302,
			"0.006": 8.05682236948,
			"0.007": 2.0579657957,
			"0.008": 2.6009693967,
			"0.009": 1.3767383422,
			"0.01": 1.9226753665,
			"0.011": 1.82636413732,
			"0.012": 1.46511071947,
			"0.013": 0.0942566908667,
			"0.014": 0.0,
			"0.015": 0.0,
			"0.016": 0.0,
			"0.017": 0.0,
			"0.018": 0.0,
			"0.019": 0.0,
			"0.02": 0.0,
			"0.021": 0.0,
			"0.022": 0.0,
			"0.023": 0.0,
			"0.024": 0.0,
			"0.025": 0.0
		}
	}
}
