{
	 "smiles": "OC(=O)C(=O)CBr", 
	 "Tm": 353.65, 
	 "num_atms": 10, 
	 "gaussian": { 
		 "optdone": 1, 
		 "sigma_profile": "yes", 
		 "theory": "DFT", 
		 "functional": "B3LYP", 
		 "basiset": "6-31G**", 
		 "properties": { 
			 "R2extent": 2398.4164, 
			 "electric_dipole_moment_norm": 2.34779360251, 
			 "electric_quadrupole_moment_norm": 7.55027946768, 
			 "total_energy": -2913.19485799, 
			 "HOMO_LUMO_gap": 0.16736, 
			 "cosmo_polarized_energy": -10.59, 
			 "cosmo_cavitation_energy": 17.52, 
			 "cosmo_dispersion_energy": -13.19, 
			 "cosmo_repulsion_energy": 1.14, 
			 "cosmo_total_nonelectrostatic_energy": 5.48, 
			 "SMD_solvation_energy": 4.11 
		},
		"coords": [
			{
				"x": -1.5609319608,
				"y": 1.5942743579,
				"z": 1.8400489551,
				"element": "O" 
			},
			{
				"x": -0.8417608567,
				"y": 0.4926725248,
				"z": 1.611356882,
				"element": "C" 
			},
			{
				"x": 0.071129467,
				"y": 0.1104535284,
				"z": 2.300808628,
				"element": "O" 
			},
			{
				"x": -1.2785390314,
				"y": -0.2357282692,
				"z": 0.3194777498,
				"element": "C" 
			},
			{
				"x": -2.1212835909,
				"y": 0.2824286937,
				"z": -0.3891489849,
				"element": "O" 
			},
			{
				"x": -0.6115882801,
				"y": -1.5504685775,
				"z": 0.017214717,
				"element": "C" 
			},
			{
				"x": -1.5726865828,
				"y": -2.9243941855,
				"z": 1.0632288545,
				"element": "Br" 
			},
			{
				"x": -2.2005054581,
				"y": 1.6728938682,
				"z": 1.1047690176,
				"element": "H" 
			},
			{
				"x": 0.4197455693,
				"y": -1.5734728242,
				"z": 0.3615600805,
				"element": "H" 
			},
			{
				"x": -0.7192792755,
				"y": -1.8114591166,
				"z": -1.0327158994,
				"element": "H" 
			}
		],
		 "valence_orbital": [ 
			{
				"type": "occ",
				"energy": -0.35432,
				"method": "rhf"
			},
			{
				"type": "occ",
				"energy": -0.34076,
				"method": "rhf"
			},
			{
				"type": "occ",
				"energy": -0.30696,
				"method": "rhf"
			},
			{
				"type": "occ",
				"energy": -0.29847,
				"method": "rhf"
			},
			{
				"type": "occ",
				"energy": -0.2796,
				"method": "rhf"
			},
			{
				"type": "unocc",
				"energy": -0.11224,
				"method": "rhf"
			},
			{
				"type": "unocc",
				"energy": -0.02544,
				"method": "rhf"
			},
			{
				"type": "unocc",
				"energy": 0.05358,
				"method": "rhf"
			},
			{
				"type": "unocc",
				"energy": 0.08187,
				"method": "rhf"
			},
			{
				"type": "unocc",
				"energy": 0.10999,
				"method": "rhf"
			}
		],
		"cosmo_sigma_profile": { 
			"-0.025": 0.0,
			"-0.024": 0.0,
			"-0.023": 0.0,
			"-0.022": 0.0,
			"-0.021": 0.0,
			"-0.02": 0.0,
			"-0.019": 0.0,
			"-0.018": 0.0,
			"-0.017": 0.210259883727,
			"-0.016": 0.324553063304,
			"-0.015": 0.677437951147,
			"-0.014": 0.628229829398,
			"-0.013": 0.84802789447,
			"-0.012": 1.2678079636,
			"-0.011": 1.34202400029,
			"-0.01": 4.56143698702,
			"-0.009": 7.20230084731,
			"-0.008": 6.34803018104,
			"-0.007": 5.09419407966,
			"-0.006": 6.20969215265,
			"-0.005": 5.15125114258,
			"-0.004": 5.5218761123,
			"-0.003": 5.43021030307,
			"-0.002": 5.3770546819,
			"-0.001": 5.49989045352,
			"0.0": 7.0753789001,
			"0.001": 7.32273604173,
			"0.002": 8.18959694818,
			"0.003": 9.97704995505,
			"0.004": 13.2078662289,
			"0.005": 6.33381785132,
			"0.006": 4.90179761063,
			"0.007": 6.01916595155,
			"0.008": 6.63995756875,
			"0.009": 5.5772832028,
			"0.01": 4.52657276528,
			"0.011": 1.87167606522,
			"0.012": 0.131358535487,
			"0.013": 0.0,
			"0.014": 0.0,
			"0.015": 0.0,
			"0.016": 0.0,
			"0.017": 0.0,
			"0.018": 0.0,
			"0.019": 0.0,
			"0.02": 0.0,
			"0.021": 0.0,
			"0.022": 0.0,
			"0.023": 0.0,
			"0.024": 0.0,
			"0.025": 0.0
		}
	}
}
