{
	 "smiles": "BrC1=CN=C(N=C1)N1CCNCC1", 
	 "Tm": 351.15, 
	 "num_atms": 24, 
	 "gaussian": { 
		 "optdone": 1, 
		 "sigma_profile": "yes", 
		 "theory": "DFT", 
		 "functional": "B3LYP", 
		 "basiset": "6-31G**", 
		 "properties": { 
			 "R2extent": 6637.2342, 
			 "electric_dipole_moment_norm": 1.21561495137, 
			 "electric_quadrupole_moment_norm": 7.09759392682, 
			 "total_energy": -3101.87669381, 
			 "HOMO_LUMO_gap": 0.16913, 
			 "cosmo_polarized_energy": -8.41, 
			 "cosmo_cavitation_energy": 28.66, 
			 "cosmo_dispersion_energy": -22.09, 
			 "cosmo_repulsion_energy": 1.75, 
			 "cosmo_total_nonelectrostatic_energy": 8.33, 
			 "SMD_solvation_energy": -1.64 
		},
		"coords": [
			{
				"x": 2.7453835498,
				"y": -0.6152503801,
				"z": -5.0704149297,
				"element": "Br" 
			},
			{
				"x": 1.9604847935,
				"y": -0.2141259137,
				"z": -3.384990314,
				"element": "C" 
			},
			{
				"x": 0.9109974034,
				"y": -0.9715912559,
				"z": -2.8681965123,
				"element": "C" 
			},
			{
				"x": 0.357959599,
				"y": -0.7065196111,
				"z": -1.6882173149,
				"element": "N" 
			},
			{
				"x": 0.8594831202,
				"y": 0.3506339696,
				"z": -1.0045761547,
				"element": "C" 
			},
			{
				"x": 1.8791782023,
				"y": 1.1392120785,
				"z": -1.4229343456,
				"element": "N" 
			},
			{
				"x": 2.4145565206,
				"y": 0.8485198484,
				"z": -2.6027665975,
				"element": "C" 
			},
			{
				"x": 0.2786922208,
				"y": 0.6357866256,
				"z": 0.1949405933,
				"element": "N" 
			},
			{
				"x": -0.8100901302,
				"y": -0.2027260437,
				"z": 0.7091789024,
				"element": "C" 
			},
			{
				"x": -1.4963631363,
				"y": 0.5123837459,
				"z": 1.8902415072,
				"element": "C" 
			},
			{
				"x": -1.664970625,
				"y": 1.9455791337,
				"z": 1.6646751989,
				"element": "N" 
			},
			{
				"x": -0.3693147864,
				"y": 2.6295705947,
				"z": 1.5000802258,
				"element": "C" 
			},
			{
				"x": 0.778392156,
				"y": 1.6807697448,
				"z": 1.0826543255,
				"element": "C" 
			},
			{
				"x": 0.5102152476,
				"y": -1.8179791011,
				"z": -3.4225836323,
				"element": "H" 
			},
			{
				"x": 3.2338507203,
				"y": 1.4787703424,
				"z": -2.9431066725,
				"element": "H" 
			},
			{
				"x": -1.5272806907,
				"y": -0.3712471442,
				"z": -0.1000454076,
				"element": "H" 
			},
			{
				"x": -0.4369535028,
				"y": -1.1943529608,
				"z": 1.0068454449,
				"element": "H" 
			},
			{
				"x": -0.9207859011,
				"y": 0.3760188105,
				"z": 2.813595098,
				"element": "H" 
			},
			{
				"x": -2.4739681959,
				"y": 0.0518436113,
				"z": 2.0655548678,
				"element": "H" 
			},
			{
				"x": -2.2188613013,
				"y": 2.0767639213,
				"z": 0.8229247638,
				"element": "H" 
			},
			{
				"x": -0.489541317,
				"y": 3.4208925095,
				"z": 0.7532755954,
				"element": "H" 
			},
			{
				"x": -0.0847251936,
				"y": 3.1195625578,
				"z": 2.4418014844,
				"element": "H" 
			},
			{
				"x": 1.5695277034,
				"y": 2.2215158665,
				"z": 0.5659425531,
				"element": "H" 
			},
			{
				"x": 1.2255335431,
				"y": 1.2149690502,
				"z": 1.9725213207,
				"element": "H" 
			}
		],
		 "valence_orbital": [ 
			{
				"type": "occ",
				"energy": -0.29667,
				"method": "rhf"
			},
			{
				"type": "occ",
				"energy": -0.28009,
				"method": "rhf"
			},
			{
				"type": "occ",
				"energy": -0.24906,
				"method": "rhf"
			},
			{
				"type": "occ",
				"energy": -0.22718,
				"method": "rhf"
			},
			{
				"type": "occ",
				"energy": -0.21011,
				"method": "rhf"
			},
			{
				"type": "unocc",
				"energy": -0.04098,
				"method": "rhf"
			},
			{
				"type": "unocc",
				"energy": -0.00726,
				"method": "rhf"
			},
			{
				"type": "unocc",
				"energy": 0.00765,
				"method": "rhf"
			},
			{
				"type": "unocc",
				"energy": 0.07389,
				"method": "rhf"
			},
			{
				"type": "unocc",
				"energy": 0.10091,
				"method": "rhf"
			}
		],
		"cosmo_sigma_profile": { 
			"-0.025": 0.0,
			"-0.024": 0.0,
			"-0.023": 0.0,
			"-0.022": 0.0,
			"-0.021": 0.0,
			"-0.02": 0.0,
			"-0.019": 0.0,
			"-0.018": 0.0,
			"-0.017": 0.0,
			"-0.016": 0.0,
			"-0.015": 0.0,
			"-0.014": 0.0,
			"-0.013": 0.0,
			"-0.012": 0.0,
			"-0.011": 0.0175911674226,
			"-0.01": 0.975028906784,
			"-0.009": 1.66266773087,
			"-0.008": 3.31053501113,
			"-0.007": 5.0902327723,
			"-0.006": 5.67309494089,
			"-0.005": 10.2852123646,
			"-0.004": 23.2483298501,
			"-0.003": 25.2997913571,
			"-0.002": 23.2295625328,
			"-0.001": 19.8743111761,
			"0.0": 21.9334021385,
			"0.001": 17.478893626,
			"0.002": 12.0712977233,
			"0.003": 12.8634657695,
			"0.004": 15.9021294934,
			"0.005": 7.56731766634,
			"0.006": 2.80709117282,
			"0.007": 4.24283032828,
			"0.008": 3.57773128716,
			"0.009": 2.75235544893,
			"0.01": 2.84548884651,
			"0.011": 2.226766316,
			"0.012": 1.24299975097,
			"0.013": 1.30805640782,
			"0.014": 0.140879385701,
			"0.015": 0.378734670176,
			"0.016": 0.9051412742,
			"0.017": 0.469955334932,
			"0.018": 0.524696596219,
			"0.019": 0.0899964461397,
			"0.02": 0.0,
			"0.021": 0.0,
			"0.022": 0.0,
			"0.023": 0.0,
			"0.024": 0.0,
			"0.025": 0.0
		}
	}
}
