{
	 "smiles": "COC1=CC=C(C=C1)C1CC(=NN1C(N)=O)C1=CC2=C(C=CC=C2)C=C1", 
	 "Tm": 447.15, 
	 "num_atms": 45, 
	 "gaussian": { 
		 "optdone": 1, 
		 "sigma_profile": "yes", 
		 "theory": "DFT", 
		 "functional": "B3LYP", 
		 "basiset": "6-31G**", 
		 "properties": { 
			 "R2extent": 13741.4666, 
			 "electric_dipole_moment_norm": 5.75899254558, 
			 "electric_quadrupole_moment_norm": 27.4587584393, 
			 "total_energy": -1126.38756618, 
			 "HOMO_LUMO_gap": 0.15157, 
			 "cosmo_polarized_energy": -23.5, 
			 "cosmo_cavitation_energy": 48.91, 
			 "cosmo_dispersion_energy": -34.42, 
			 "cosmo_repulsion_energy": 2.58, 
			 "cosmo_total_nonelectrostatic_energy": 17.07, 
			 "SMD_solvation_energy": 8.46 
		},
		"coords": [
			{
				"x": -4.6734392645,
				"y": 3.6491498476,
				"z": -3.8403215977,
				"element": "C" 
			},
			{
				"x": -3.3263083371,
				"y": 3.4366053006,
				"z": -4.2363809532,
				"element": "O" 
			},
			{
				"x": -2.5853218003,
				"y": 2.5239811488,
				"z": -3.5479331984,
				"element": "C" 
			},
			{
				"x": -3.0567191294,
				"y": 1.76331566,
				"z": -2.4690153412,
				"element": "C" 
			},
			{
				"x": -2.2051777342,
				"y": 0.8544967184,
				"z": -1.8386338701,
				"element": "C" 
			},
			{
				"x": -0.8823327047,
				"y": 0.682677673,
				"z": -2.2607093925,
				"element": "C" 
			},
			{
				"x": -0.4288625229,
				"y": 1.445682632,
				"z": -3.3480274384,
				"element": "C" 
			},
			{
				"x": -1.2632462173,
				"y": 2.3563919514,
				"z": -3.9856355485,
				"element": "C" 
			},
			{
				"x": 0.0595958141,
				"y": -0.2670506182,
				"z": -1.5387570331,
				"element": "C" 
			},
			{
				"x": 0.5538282204,
				"y": 0.2629659657,
				"z": -0.1625863572,
				"element": "C" 
			},
			{
				"x": 0.0431403602,
				"y": -0.7952992967,
				"z": 0.7982666048,
				"element": "C" 
			},
			{
				"x": -0.5607450283,
				"y": -1.7729073954,
				"z": 0.210007643,
				"element": "N" 
			},
			{
				"x": -0.5923133825,
				"y": -1.5449070806,
				"z": -1.1423397859,
				"element": "N" 
			},
			{
				"x": -0.9197710831,
				"y": -2.6061946967,
				"z": -1.9947230603,
				"element": "C" 
			},
			{
				"x": -0.8291940579,
				"y": -2.2693215293,
				"z": -3.3403159988,
				"element": "N" 
			},
			{
				"x": -1.2134871921,
				"y": -3.7206251463,
				"z": -1.6032688875,
				"element": "O" 
			},
			{
				"x": 0.2025220118,
				"y": -0.7536299658,
				"z": 2.252023188,
				"element": "C" 
			},
			{
				"x": 0.844615278,
				"y": 0.3074308322,
				"z": 2.8695381946,
				"element": "C" 
			},
			{
				"x": 1.009575437,
				"y": 0.3565799615,
				"z": 4.2785566581,
				"element": "C" 
			},
			{
				"x": 0.4980827978,
				"y": -0.7183613339,
				"z": 5.0751993845,
				"element": "C" 
			},
			{
				"x": 0.6625738455,
				"y": -0.6687131351,
				"z": 6.4831319243,
				"element": "C" 
			},
			{
				"x": 1.3036760727,
				"y": 0.394414395,
				"z": 7.0824442016,
				"element": "C" 
			},
			{
				"x": 1.8095889335,
				"y": 1.4574982735,
				"z": 6.2961156944,
				"element": "C" 
			},
			{
				"x": 1.6654007075,
				"y": 1.4381519838,
				"z": 4.9262478376,
				"element": "C" 
			},
			{
				"x": -0.1580102892,
				"y": -1.7989056857,
				"z": 4.4182252978,
				"element": "C" 
			},
			{
				"x": -0.3039627999,
				"y": -1.8214449642,
				"z": 3.0558865522,
				"element": "C" 
			},
			{
				"x": -4.7387782998,
				"y": 4.0134766502,
				"z": -2.8072303544,
				"element": "H" 
			},
			{
				"x": -5.068253629,
				"y": 4.4102440166,
				"z": -4.5147198894,
				"element": "H" 
			},
			{
				"x": -5.2729399065,
				"y": 2.7350894483,
				"z": -3.9375351863,
				"element": "H" 
			},
			{
				"x": -4.0762123689,
				"y": 1.8661900185,
				"z": -2.1169725716,
				"element": "H" 
			},
			{
				"x": -2.5826626168,
				"y": 0.2607042991,
				"z": -1.010716515,
				"element": "H" 
			},
			{
				"x": 0.5932890235,
				"y": 1.3252324624,
				"z": -3.6996541166,
				"element": "H" 
			},
			{
				"x": -0.9167886251,
				"y": 2.94642554,
				"z": -4.827696037,
				"element": "H" 
			},
			{
				"x": 0.9065289885,
				"y": -0.4909404117,
				"z": -2.1965335429,
				"element": "H" 
			},
			{
				"x": 0.1406103914,
				"y": 1.2522965965,
				"z": 0.0572980466,
				"element": "H" 
			},
			{
				"x": 1.64519788,
				"y": 0.3479537724,
				"z": -0.1188806957,
				"element": "H" 
			},
			{
				"x": -1.2267992344,
				"y": -2.9882694003,
				"z": -3.9283520255,
				"element": "H" 
			},
			{
				"x": -1.0604878822,
				"y": -1.323272931,
				"z": -3.6151180125,
				"element": "H" 
			},
			{
				"x": 1.2375251875,
				"y": 1.1307906703,
				"z": 2.2789857688,
				"element": "H" 
			},
			{
				"x": 0.2733166918,
				"y": -1.4866031686,
				"z": 7.0842159337,
				"element": "H" 
			},
			{
				"x": 1.4233489944,
				"y": 0.4201863542,
				"z": 8.1616882695,
				"element": "H" 
			},
			{
				"x": 2.3132271287,
				"y": 2.2901698022,
				"z": 6.7786848131,
				"element": "H" 
			},
			{
				"x": 2.053415759,
				"y": 2.25352891,
				"z": 4.3206642499,
				"element": "H" 
			},
			{
				"x": -0.5458595119,
				"y": -2.6167192533,
				"z": 5.0203806034,
				"element": "H" 
			},
			{
				"x": -0.8022859051,
				"y": -2.6465648714,
				"z": 2.5591965437,
				"element": "H" 
			}
		],
		 "valence_orbital": [ 
			{
				"type": "occ",
				"energy": -0.25486,
				"method": "rhf"
			},
			{
				"type": "occ",
				"energy": -0.2444,
				"method": "rhf"
			},
			{
				"type": "occ",
				"energy": -0.2299,
				"method": "rhf"
			},
			{
				"type": "occ",
				"energy": -0.22125,
				"method": "rhf"
			},
			{
				"type": "occ",
				"energy": -0.20037,
				"method": "rhf"
			},
			{
				"type": "unocc",
				"energy": -0.0488,
				"method": "rhf"
			},
			{
				"type": "unocc",
				"energy": -0.02411,
				"method": "rhf"
			},
			{
				"type": "unocc",
				"energy": -0.01848,
				"method": "rhf"
			},
			{
				"type": "unocc",
				"energy": -0.00626,
				"method": "rhf"
			},
			{
				"type": "unocc",
				"energy": 0.02213,
				"method": "rhf"
			}
		],
		"cosmo_sigma_profile": { 
			"-0.025": 0.0,
			"-0.024": 0.0,
			"-0.023": 0.0,
			"-0.022": 0.0,
			"-0.021": 0.0,
			"-0.02": 0.0,
			"-0.019": 0.0,
			"-0.018": 0.0,
			"-0.017": 0.0,
			"-0.016": 0.0,
			"-0.015": 0.0,
			"-0.014": 0.110023204407,
			"-0.013": 0.989355558273,
			"-0.012": 1.29605855094,
			"-0.011": 1.38670686764,
			"-0.01": 1.62777029999,
			"-0.009": 1.28837800663,
			"-0.008": 1.91602150499,
			"-0.007": 6.10778015589,
			"-0.006": 33.8774286127,
			"-0.005": 37.9988337472,
			"-0.004": 37.9290234489,
			"-0.003": 32.1788263253,
			"-0.002": 22.3527726158,
			"-0.001": 21.1738228979,
			"0.0": 20.1717505635,
			"0.001": 19.2613307382,
			"0.002": 22.4917130113,
			"0.003": 32.1158264467,
			"0.004": 36.9092650077,
			"0.005": 19.0988197823,
			"0.006": 4.09227968896,
			"0.007": 3.60791789513,
			"0.008": 4.91668513352,
			"0.009": 4.17841787208,
			"0.01": 3.15264807533,
			"0.011": 2.36659197019,
			"0.012": 2.22726404246,
			"0.013": 3.60325037052,
			"0.014": 5.66879481851,
			"0.015": 2.71467386747,
			"0.016": 1.48510279859,
			"0.017": 1.04019962363,
			"0.018": 0.735904971786,
			"0.019": 0.0124960405108,
			"0.02": 0.0,
			"0.021": 0.0,
			"0.022": 0.0,
			"0.023": 0.0,
			"0.024": 0.0,
			"0.025": 0.0
		}
	}
}
