{
	 "smiles": "CC(NC(=O)OCC(F)(F)F)C1=NN=CN1C", 
	 "Tm": 377.15, 
	 "num_atms": 28, 
	 "gaussian": { 
		 "optdone": 1, 
		 "sigma_profile": "yes", 
		 "theory": "DFT", 
		 "functional": "B3LYP", 
		 "basiset": "6-31G**", 
		 "properties": { 
			 "R2extent": 6205.9266, 
			 "electric_dipole_moment_norm": 7.64882223156, 
			 "electric_quadrupole_moment_norm": 7.08238014159, 
			 "total_energy": -980.450272981, 
			 "HOMO_LUMO_gap": 0.26159, 
			 "cosmo_polarized_energy": -25.03, 
			 "cosmo_cavitation_energy": 33.87, 
			 "cosmo_dispersion_energy": -22.54, 
			 "cosmo_repulsion_energy": 1.7, 
			 "cosmo_total_nonelectrostatic_energy": 13.03, 
			 "SMD_solvation_energy": 6.35 
		},
		"coords": [
			{
				"x": -1.5908905282,
				"y": 1.0653853119,
				"z": -1.2483925601,
				"element": "C" 
			},
			{
				"x": -0.7171591491,
				"y": -0.087908291,
				"z": -0.7169318712,
				"element": "C" 
			},
			{
				"x": -1.4863054777,
				"y": -1.0796533991,
				"z": 0.0369542637,
				"element": "N" 
			},
			{
				"x": -2.0946921305,
				"y": -0.8942454286,
				"z": 1.2551693666,
				"element": "C" 
			},
			{
				"x": -2.4383574786,
				"y": -1.7999318129,
				"z": 1.9857184884,
				"element": "O" 
			},
			{
				"x": -2.3203045611,
				"y": 0.4274543219,
				"z": 1.4991616446,
				"element": "O" 
			},
			{
				"x": -2.8664385388,
				"y": 0.752545585,
				"z": 2.768523512,
				"element": "C" 
			},
			{
				"x": -4.0135589489,
				"y": 1.7175756235,
				"z": 2.5477487991,
				"element": "C" 
			},
			{
				"x": -5.022832425,
				"y": 1.1486315571,
				"z": 1.8629435685,
				"element": "F" 
			},
			{
				"x": -3.6209654307,
				"y": 2.8111037489,
				"z": 1.860089368,
				"element": "F" 
			},
			{
				"x": -4.4942392277,
				"y": 2.1286298144,
				"z": 3.7399573458,
				"element": "F" 
			},
			{
				"x": 0.4973908188,
				"y": 0.3860310119,
				"z": 0.0574315286,
				"element": "C" 
			},
			{
				"x": 0.6935212819,
				"y": 0.2229459399,
				"z": 1.3461922148,
				"element": "N" 
			},
			{
				"x": 1.9165919949,
				"y": 0.7776426733,
				"z": 1.6654518294,
				"element": "N" 
			},
			{
				"x": 2.4195751962,
				"y": 1.2527730102,
				"z": 0.5556031608,
				"element": "C" 
			},
			{
				"x": 1.5750838281,
				"y": 1.0352108099,
				"z": -0.5035070454,
				"element": "N" 
			},
			{
				"x": 1.8074722977,
				"y": 1.4151807497,
				"z": -1.8888121493,
				"element": "C" 
			},
			{
				"x": -1.0204468531,
				"y": 1.688751387,
				"z": -1.9431530424,
				"element": "H" 
			},
			{
				"x": -1.9592279932,
				"y": 1.6899572909,
				"z": -0.4357009119,
				"element": "H" 
			},
			{
				"x": -2.4461383353,
				"y": 0.6497391949,
				"z": -1.7878687271,
				"element": "H" 
			},
			{
				"x": -0.3521627072,
				"y": -0.6388825068,
				"z": -1.5941627715,
				"element": "H" 
			},
			{
				"x": -1.1774792954,
				"y": -2.0369945935,
				"z": -0.05632073,
				"element": "H" 
			},
			{
				"x": -3.2299967341,
				"y": -0.1444339508,
				"z": 3.2728285947,
				"element": "H" 
			},
			{
				"x": -2.0990540688,
				"y": 1.2405611415,
				"z": 3.3756444604,
				"element": "H" 
			},
			{
				"x": 3.3743531906,
				"y": 1.7497369372,
				"z": 0.451761946,
				"element": "H" 
			},
			{
				"x": 1.2677083925,
				"y": 2.3301595831,
				"z": -2.1503177658,
				"element": "H" 
			},
			{
				"x": 1.4938656719,
				"y": 0.6130373053,
				"z": -2.5615898084,
				"element": "H" 
			},
			{
				"x": 2.8759872108,
				"y": 1.583896985,
				"z": -2.0340227083,
				"element": "H" 
			}
		],
		 "valence_orbital": [ 
			{
				"type": "occ",
				"energy": -0.2944,
				"method": "rhf"
			},
			{
				"type": "occ",
				"energy": -0.28201,
				"method": "rhf"
			},
			{
				"type": "occ",
				"energy": -0.26919,
				"method": "rhf"
			},
			{
				"type": "occ",
				"energy": -0.25962,
				"method": "rhf"
			},
			{
				"type": "occ",
				"energy": -0.25415,
				"method": "rhf"
			},
			{
				"type": "unocc",
				"energy": 0.00744,
				"method": "rhf"
			},
			{
				"type": "unocc",
				"energy": 0.03621,
				"method": "rhf"
			},
			{
				"type": "unocc",
				"energy": 0.04642,
				"method": "rhf"
			},
			{
				"type": "unocc",
				"energy": 0.04884,
				"method": "rhf"
			},
			{
				"type": "unocc",
				"energy": 0.08014,
				"method": "rhf"
			}
		],
		"cosmo_sigma_profile": { 
			"-0.025": 0.0,
			"-0.024": 0.0,
			"-0.023": 0.0,
			"-0.022": 0.0,
			"-0.021": 0.0,
			"-0.02": 0.0,
			"-0.019": 0.0,
			"-0.018": 0.0,
			"-0.017": 0.0,
			"-0.016": 0.0,
			"-0.015": 0.686339068871,
			"-0.014": 1.20073394981,
			"-0.013": 1.0193433372,
			"-0.012": 1.16935443021,
			"-0.011": 1.28897750553,
			"-0.01": 4.7841714637,
			"-0.009": 9.21862202701,
			"-0.008": 10.8809823995,
			"-0.007": 13.4655131518,
			"-0.006": 13.9424231537,
			"-0.005": 14.9821527605,
			"-0.004": 15.825059337,
			"-0.003": 11.9535061317,
			"-0.002": 11.6000161124,
			"-0.001": 15.3562832616,
			"0.0": 15.4949293318,
			"0.001": 15.966420783,
			"0.002": 29.8366215787,
			"0.003": 26.7847509387,
			"0.004": 4.36990715233,
			"0.005": 3.64060141649,
			"0.006": 4.44384244129,
			"0.007": 4.33096142923,
			"0.008": 4.35157844215,
			"0.009": 3.79074771634,
			"0.01": 4.18066639775,
			"0.011": 4.87384479825,
			"0.012": 6.90414309296,
			"0.013": 4.51420080229,
			"0.014": 3.54989760175,
			"0.015": 2.07724123373,
			"0.016": 1.22466871248,
			"0.017": 1.02689966437,
			"0.018": 0.0309658928916,
			"0.019": 0.0,
			"0.02": 0.0,
			"0.021": 0.0,
			"0.022": 0.0,
			"0.023": 0.0,
			"0.024": 0.0,
			"0.025": 0.0
		}
	}
}
