{
	 "smiles": "ClC1=C2C=CC=C(Br)C2=NC=C1", 
	 "Tm": 422.15, 
	 "num_atms": 17, 
	 "gaussian": { 
		 "optdone": 1, 
		 "sigma_profile": "yes", 
		 "theory": "DFT", 
		 "functional": "B3LYP", 
		 "basiset": "6-31G**", 
		 "properties": { 
			 "R2extent": 4079.5198, 
			 "electric_dipole_moment_norm": 1.93851331179, 
			 "electric_quadrupole_moment_norm": 14.9002051483, 
			 "total_energy": -3432.32046449, 
			 "HOMO_LUMO_gap": 0.16399, 
			 "cosmo_polarized_energy": -7.17, 
			 "cosmo_cavitation_energy": 25.19, 
			 "cosmo_dispersion_energy": -19.51, 
			 "cosmo_repulsion_energy": 1.53, 
			 "cosmo_total_nonelectrostatic_energy": 7.21, 
			 "SMD_solvation_energy": 1.69 
		},
		"coords": [
			{
				"x": 1.2970410899,
				"y": 0.2449641574,
				"z": 2.4225736713,
				"element": "Cl" 
			},
			{
				"x": 0.7406840755,
				"y": 0.5500235413,
				"z": 0.7880767605,
				"element": "C" 
			},
			{
				"x": 0.2131953759,
				"y": -0.5133862128,
				"z": 0.0013583669,
				"element": "C" 
			},
			{
				"x": 0.0962285282,
				"y": -1.8531794389,
				"z": 0.4494573754,
				"element": "C" 
			},
			{
				"x": -0.4267748055,
				"y": -2.8157349601,
				"z": -0.3822580161,
				"element": "C" 
			},
			{
				"x": -0.8539309444,
				"y": -2.4888373499,
				"z": -1.6890540931,
				"element": "C" 
			},
			{
				"x": -0.7506287944,
				"y": -1.1954362024,
				"z": -2.1469177025,
				"element": "C" 
			},
			{
				"x": -1.3346147732,
				"y": -0.7892457223,
				"z": -3.9102272956,
				"element": "Br" 
			},
			{
				"x": -0.215155898,
				"y": -0.1559915136,
				"z": -1.3259595076,
				"element": "C" 
			},
			{
				"x": -0.1311565411,
				"y": 1.1070581025,
				"z": -1.8176081004,
				"element": "N" 
			},
			{
				"x": 0.3661179323,
				"y": 2.0435777934,
				"z": -1.0388488076,
				"element": "C" 
			},
			{
				"x": 0.8216640685,
				"y": 1.8242145633,
				"z": 0.2822460064,
				"element": "C" 
			},
			{
				"x": 0.4231460463,
				"y": -2.1058060587,
				"z": 1.4510980532,
				"element": "H" 
			},
			{
				"x": -0.5163085466,
				"y": -3.8417090105,
				"z": -0.039020891,
				"element": "H" 
			},
			{
				"x": -1.2645066288,
				"y": -3.2562224688,
				"z": -2.3351903413,
				"element": "H" 
			},
			{
				"x": 0.421946621,
				"y": 3.0470774355,
				"z": -1.4581731058,
				"element": "H" 
			},
			{
				"x": 1.2216531943,
				"y": 2.6391333444,
				"z": 0.8739476275,
				"element": "H" 
			}
		],
		 "valence_orbital": [ 
			{
				"type": "occ",
				"energy": -0.28871,
				"method": "rhf"
			},
			{
				"type": "occ",
				"energy": -0.28215,
				"method": "rhf"
			},
			{
				"type": "occ",
				"energy": -0.271,
				"method": "rhf"
			},
			{
				"type": "occ",
				"energy": -0.26279,
				"method": "rhf"
			},
			{
				"type": "occ",
				"energy": -0.2361,
				"method": "rhf"
			},
			{
				"type": "unocc",
				"energy": -0.07211,
				"method": "rhf"
			},
			{
				"type": "unocc",
				"energy": -0.03572,
				"method": "rhf"
			},
			{
				"type": "unocc",
				"energy": 0.00348,
				"method": "rhf"
			},
			{
				"type": "unocc",
				"energy": 0.00502,
				"method": "rhf"
			},
			{
				"type": "unocc",
				"energy": 0.02444,
				"method": "rhf"
			}
		],
		"cosmo_sigma_profile": { 
			"-0.025": 0.0,
			"-0.024": 0.0,
			"-0.023": 0.0,
			"-0.022": 0.0,
			"-0.021": 0.0,
			"-0.02": 0.0,
			"-0.019": 0.0,
			"-0.018": 0.0,
			"-0.017": 0.0,
			"-0.016": 0.0,
			"-0.015": 0.0,
			"-0.014": 0.0,
			"-0.013": 0.0,
			"-0.012": 0.0,
			"-0.011": 0.0,
			"-0.01": 0.0,
			"-0.009": 0.763244219396,
			"-0.008": 3.69437870195,
			"-0.007": 9.86369223304,
			"-0.006": 10.8385113353,
			"-0.005": 8.38973676924,
			"-0.004": 8.37651791394,
			"-0.003": 10.4104603408,
			"-0.002": 11.8862996699,
			"-0.001": 22.6771577575,
			"0.0": 28.0705504356,
			"0.001": 23.2245111578,
			"0.002": 21.7756099869,
			"0.003": 16.4901155216,
			"0.004": 13.5508505992,
			"0.005": 6.55750221754,
			"0.006": 2.17042424988,
			"0.007": 1.35638517793,
			"0.008": 2.1254478773,
			"0.009": 1.46400861014,
			"0.01": 1.56665160758,
			"0.011": 0.497681750423,
			"0.012": 1.22515046082,
			"0.013": 1.09132964735,
			"0.014": 1.09972848599,
			"0.015": 0.148640900767,
			"0.016": 0.0,
			"0.017": 0.0,
			"0.018": 0.0,
			"0.019": 0.0,
			"0.02": 0.0,
			"0.021": 0.0,
			"0.022": 0.0,
			"0.023": 0.0,
			"0.024": 0.0,
			"0.025": 0.0
		}
	}
}
