{
	 "smiles": "CCC1=NNC2=C1C(C1=CC=CC=C1)C(C#N)=C(N)O2", 
	 "Tm": 467.15, 
	 "num_atms": 34, 
	 "gaussian": { 
		 "optdone": 1, 
		 "sigma_profile": "yes", 
		 "theory": "DFT", 
		 "functional": "B3LYP", 
		 "basiset": "6-31G**", 
		 "properties": { 
			 "R2extent": 5487.9157, 
			 "electric_dipole_moment_norm": 3.6794126284, 
			 "electric_quadrupole_moment_norm": 31.7626323413, 
			 "total_energy": -874.218121847, 
			 "HOMO_LUMO_gap": 0.19836, 
			 "cosmo_polarized_energy": -20.6, 
			 "cosmo_cavitation_energy": 38.84, 
			 "cosmo_dispersion_energy": -25.85, 
			 "cosmo_repulsion_energy": 2.03, 
			 "cosmo_total_nonelectrostatic_energy": 15.02, 
			 "SMD_solvation_energy": 7.02 
		},
		"coords": [
			{
				"x": 1.7136750577,
				"y": 2.1758409468,
				"z": -1.7412459851,
				"element": "C" 
			},
			{
				"x": 1.5546249634,
				"y": 1.7855284404,
				"z": -0.2611994723,
				"element": "C" 
			},
			{
				"x": 1.7083536059,
				"y": 0.3123386858,
				"z": -0.0147266279,
				"element": "C" 
			},
			{
				"x": 2.8247395606,
				"y": -0.1617882758,
				"z": 0.5412810594,
				"element": "N" 
			},
			{
				"x": 2.6500923314,
				"y": -1.5135867991,
				"z": 0.600927773,
				"element": "N" 
			},
			{
				"x": 1.4486314478,
				"y": -1.8652807769,
				"z": 0.0983878379,
				"element": "C" 
			},
			{
				"x": 0.7915593936,
				"y": -0.737917104,
				"z": -0.319489871,
				"element": "C" 
			},
			{
				"x": -0.5854701787,
				"y": -0.80569596,
				"z": -0.9211275882,
				"element": "C" 
			},
			{
				"x": -1.641112807,
				"y": -0.0175116437,
				"z": -0.1388925309,
				"element": "C" 
			},
			{
				"x": -2.4820687558,
				"y": 0.8809830175,
				"z": -0.8032694144,
				"element": "C" 
			},
			{
				"x": -3.4603714986,
				"y": 1.5934548153,
				"z": -0.1051363372,
				"element": "C" 
			},
			{
				"x": -3.6069260112,
				"y": 1.4132945941,
				"z": 1.2697635947,
				"element": "C" 
			},
			{
				"x": -2.7713962036,
				"y": 0.5167720648,
				"z": 1.9422271381,
				"element": "C" 
			},
			{
				"x": -1.7973779961,
				"y": -0.1929608276,
				"z": 1.242517674,
				"element": "C" 
			},
			{
				"x": -0.9476539097,
				"y": -2.2953389924,
				"z": -1.0410358593,
				"element": "C" 
			},
			{
				"x": -2.1494682681,
				"y": -2.6526011945,
				"z": -1.7060930458,
				"element": "C" 
			},
			{
				"x": -3.1213181832,
				"y": -2.9815863758,
				"z": -2.2630167661,
				"element": "N" 
			},
			{
				"x": -0.1960962848,
				"y": -3.327037027,
				"z": -0.5471962019,
				"element": "C" 
			},
			{
				"x": -0.5473901214,
				"y": -4.6480787054,
				"z": -0.5306534074,
				"element": "N" 
			},
			{
				"x": 1.0280527887,
				"y": -3.1606870407,
				"z": 0.0508754246,
				"element": "O" 
			},
			{
				"x": 2.7005720802,
				"y": 1.8873261848,
				"z": -2.1158773712,
				"element": "H" 
			},
			{
				"x": 1.6023251288,
				"y": 3.257267513,
				"z": -1.869871934,
				"element": "H" 
			},
			{
				"x": 0.9610770026,
				"y": 1.6871364073,
				"z": -2.3690077627,
				"element": "H" 
			},
			{
				"x": 0.5708314864,
				"y": 2.1099641185,
				"z": 0.0980677056,
				"element": "H" 
			},
			{
				"x": 2.3074455915,
				"y": 2.3040762154,
				"z": 0.3406213885,
				"element": "H" 
			},
			{
				"x": 3.3596975105,
				"y": -2.1024964661,
				"z": 1.0063517964,
				"element": "H" 
			},
			{
				"x": -0.5680674913,
				"y": -0.3863638141,
				"z": -1.9369144959,
				"element": "H" 
			},
			{
				"x": -2.3744557929,
				"y": 1.0214493017,
				"z": -1.8761820618,
				"element": "H" 
			},
			{
				"x": -4.1059103086,
				"y": 2.2862902908,
				"z": -0.6373775204,
				"element": "H" 
			},
			{
				"x": -4.3663090511,
				"y": 1.9658172603,
				"z": 1.8155468371,
				"element": "H" 
			},
			{
				"x": -2.879856455,
				"y": 0.3711237656,
				"z": 3.0133961686,
				"element": "H" 
			},
			{
				"x": -1.1490130296,
				"y": -0.8871696005,
				"z": 1.7702295858,
				"element": "H" 
			},
			{
				"x": -1.3527763208,
				"y": -4.9012749805,
				"z": -1.0860380962,
				"element": "H" 
			},
			{
				"x": 0.2161607185,
				"y": -5.309288038,
				"z": -0.5368416341,
				"element": "H" 
			}
		],
		 "valence_orbital": [ 
			{
				"type": "occ",
				"energy": -0.25705,
				"method": "rhf"
			},
			{
				"type": "occ",
				"energy": -0.24843,
				"method": "rhf"
			},
			{
				"type": "occ",
				"energy": -0.24735,
				"method": "rhf"
			},
			{
				"type": "occ",
				"energy": -0.23425,
				"method": "rhf"
			},
			{
				"type": "occ",
				"energy": -0.21943,
				"method": "rhf"
			},
			{
				"type": "unocc",
				"energy": -0.02107,
				"method": "rhf"
			},
			{
				"type": "unocc",
				"energy": -0.00298,
				"method": "rhf"
			},
			{
				"type": "unocc",
				"energy": 0.00557,
				"method": "rhf"
			},
			{
				"type": "unocc",
				"energy": 0.02499,
				"method": "rhf"
			},
			{
				"type": "unocc",
				"energy": 0.0325,
				"method": "rhf"
			}
		],
		"cosmo_sigma_profile": { 
			"-0.025": 0.0,
			"-0.024": 0.0,
			"-0.023": 0.0,
			"-0.022": 0.0,
			"-0.021": 0.0,
			"-0.02": 0.0,
			"-0.019": 0.0,
			"-0.018": 0.0293329224387,
			"-0.017": 1.45879635963,
			"-0.016": 1.51658675994,
			"-0.015": 2.08902435125,
			"-0.014": 3.01337636681,
			"-0.013": 2.85458260783,
			"-0.012": 3.2132576874,
			"-0.011": 3.40254472452,
			"-0.01": 2.57860389734,
			"-0.009": 1.46151637486,
			"-0.008": 3.04461460662,
			"-0.007": 2.69385840519,
			"-0.006": 8.46541757927,
			"-0.005": 16.9383966863,
			"-0.004": 19.2988034517,
			"-0.003": 25.0671185309,
			"-0.002": 22.5613491423,
			"-0.001": 26.364546151,
			"0.0": 27.7689169637,
			"0.001": 24.9776024347,
			"0.002": 18.7250405398,
			"0.003": 18.1396230603,
			"0.004": 16.1021157757,
			"0.005": 13.9120070643,
			"0.006": 9.13438384828,
			"0.007": 4.53178850553,
			"0.008": 4.96361211111,
			"0.009": 3.916808604,
			"0.01": 4.83464947176,
			"0.011": 3.76213962796,
			"0.012": 4.14848669281,
			"0.013": 3.86129147002,
			"0.014": 2.91943172122,
			"0.015": 1.04377434988,
			"0.016": 0.728502753,
			"0.017": 0.0888295644913,
			"0.018": 0.0,
			"0.019": 0.0,
			"0.02": 0.0,
			"0.021": 0.0,
			"0.022": 0.0,
			"0.023": 0.0,
			"0.024": 0.0,
			"0.025": 0.0
		}
	}
}
