{
	 "smiles": "NC(=O)CC1=CSC(=N1)C1=CC=CO1", 
	 "Tm": 399.15, 
	 "num_atms": 22, 
	 "gaussian": { 
		 "optdone": 1, 
		 "sigma_profile": "yes", 
		 "theory": "DFT", 
		 "functional": "B3LYP", 
		 "basiset": "6-31G**", 
		 "properties": { 
			 "R2extent": 4347.3715, 
			 "electric_dipole_moment_norm": 4.83028575345, 
			 "electric_quadrupole_moment_norm": 13.2099212272, 
			 "total_energy": -1005.90843359, 
			 "HOMO_LUMO_gap": 0.15632, 
			 "cosmo_polarized_energy": -13.45, 
			 "cosmo_cavitation_energy": 28.9, 
			 "cosmo_dispersion_energy": -21.52, 
			 "cosmo_repulsion_energy": 1.66, 
			 "cosmo_total_nonelectrostatic_energy": 9.05, 
			 "SMD_solvation_energy": 5.69 
		},
		"coords": [
			{
				"x": 0.9813843815,
				"y": 0.5309219781,
				"z": 1.8252238393,
				"element": "N" 
			},
			{
				"x": -0.2847970367,
				"y": 0.4284837004,
				"z": 2.3158287217,
				"element": "C" 
			},
			{
				"x": -0.6280305041,
				"y": 0.8633162985,
				"z": 3.4051814918,
				"element": "O" 
			},
			{
				"x": -1.26412854,
				"y": -0.3580614145,
				"z": 1.4216100791,
				"element": "C" 
			},
			{
				"x": -1.2729219731,
				"y": 0.0197576792,
				"z": -0.0352228741,
				"element": "C" 
			},
			{
				"x": -2.3476753469,
				"y": 0.5166028312,
				"z": -0.7221659419,
				"element": "C" 
			},
			{
				"x": -1.9372631396,
				"y": 0.8031304241,
				"z": -2.3823135401,
				"element": "S" 
			},
			{
				"x": -0.31194586,
				"y": 0.2311646754,
				"z": -2.033428943,
				"element": "C" 
			},
			{
				"x": -0.1274556437,
				"y": -0.1357908802,
				"z": -0.7880396136,
				"element": "N" 
			},
			{
				"x": 0.7099398027,
				"y": 0.173211296,
				"z": -3.0496861611,
				"element": "C" 
			},
			{
				"x": 2.0090162672,
				"y": -0.267568615,
				"z": -3.0401986467,
				"element": "C" 
			},
			{
				"x": 2.5090382246,
				"y": -0.0683615507,
				"z": -4.3621780314,
				"element": "C" 
			},
			{
				"x": 1.4852211637,
				"y": 0.4761500525,
				"z": -5.0806039625,
				"element": "C" 
			},
			{
				"x": 0.3825005186,
				"y": 0.6301126885,
				"z": -4.2978322866,
				"element": "O" 
			},
			{
				"x": 1.6386417699,
				"y": 1.0912303336,
				"z": 2.3464624439,
				"element": "H" 
			},
			{
				"x": 1.1728012616,
				"y": 0.2807360035,
				"z": 0.8626959541,
				"element": "H" 
			},
			{
				"x": -2.2539389338,
				"y": -0.2212542362,
				"z": 1.8582135095,
				"element": "H" 
			},
			{
				"x": -1.003369735,
				"y": -1.4209938221,
				"z": 1.5127717073,
				"element": "H" 
			},
			{
				"x": -3.3399537595,
				"y": 0.7258826162,
				"z": -0.3494474442,
				"element": "H" 
			},
			{
				"x": 2.5267469512,
				"y": -0.6854744724,
				"z": -2.1901846231,
				"element": "H" 
			},
			{
				"x": 3.4981733679,
				"y": -0.3006809584,
				"z": -4.7291526501,
				"element": "H" 
			},
			{
				"x": 1.3813167634,
				"y": 0.7960853722,
				"z": -6.1055330282,
				"element": "H" 
			}
		],
		 "valence_orbital": [ 
			{
				"type": "occ",
				"energy": -0.29247,
				"method": "rhf"
			},
			{
				"type": "occ",
				"energy": -0.28369,
				"method": "rhf"
			},
			{
				"type": "occ",
				"energy": -0.25571,
				"method": "rhf"
			},
			{
				"type": "occ",
				"energy": -0.23916,
				"method": "rhf"
			},
			{
				"type": "occ",
				"energy": -0.21739,
				"method": "rhf"
			},
			{
				"type": "unocc",
				"energy": -0.06107,
				"method": "rhf"
			},
			{
				"type": "unocc",
				"energy": 0.01261,
				"method": "rhf"
			},
			{
				"type": "unocc",
				"energy": 0.01652,
				"method": "rhf"
			},
			{
				"type": "unocc",
				"energy": 0.03123,
				"method": "rhf"
			},
			{
				"type": "unocc",
				"energy": 0.04681,
				"method": "rhf"
			}
		],
		"cosmo_sigma_profile": { 
			"-0.025": 0.0,
			"-0.024": 0.0,
			"-0.023": 0.0,
			"-0.022": 0.0,
			"-0.021": 0.0,
			"-0.02": 0.0,
			"-0.019": 0.0,
			"-0.018": 0.0,
			"-0.017": 0.0,
			"-0.016": 0.0,
			"-0.015": 0.0,
			"-0.014": 0.30159645664,
			"-0.013": 1.14480851781,
			"-0.012": 0.978651452973,
			"-0.011": 1.14642838394,
			"-0.01": 2.14233602296,
			"-0.009": 5.21249229983,
			"-0.008": 7.24086514721,
			"-0.007": 10.2141070165,
			"-0.006": 11.1396477107,
			"-0.005": 11.9935357647,
			"-0.004": 10.9927276436,
			"-0.003": 11.4353730057,
			"-0.002": 11.2462558004,
			"-0.001": 15.0106708086,
			"0.0": 19.5582957798,
			"0.001": 27.5299798747,
			"0.002": 26.8209394839,
			"0.003": 17.827423981,
			"0.004": 11.3236864312,
			"0.005": 6.01126061848,
			"0.006": 2.61016335422,
			"0.007": 3.01289098266,
			"0.008": 1.94156445574,
			"0.009": 1.29135837867,
			"0.01": 1.53787380586,
			"0.011": 1.28266427693,
			"0.012": 1.93641011249,
			"0.013": 3.67440509814,
			"0.014": 5.70449909924,
			"0.015": 1.9311685863,
			"0.016": 0.0,
			"0.017": 0.0,
			"0.018": 0.0,
			"0.019": 0.0,
			"0.02": 0.0,
			"0.021": 0.0,
			"0.022": 0.0,
			"0.023": 0.0,
			"0.024": 0.0,
			"0.025": 0.0
		}
	}
}
