{
	 "smiles": "OC(=O)C1=CN(CCOC2=C(Cl)C=CC=C2)C2=C1C=CC=C2", 
	 "Tm": 460.15, 
	 "num_atms": 36, 
	 "gaussian": { 
		 "optdone": 1, 
		 "sigma_profile": "yes", 
		 "theory": "DFT", 
		 "functional": "B3LYP", 
		 "basiset": "6-31G**", 
		 "properties": { 
			 "R2extent": 9368.727, 
			 "electric_dipole_moment_norm": 5.15179977678, 
			 "electric_quadrupole_moment_norm": 39.3201162235, 
			 "total_energy": -1396.86506218, 
			 "HOMO_LUMO_gap": 0.18598, 
			 "cosmo_polarized_energy": -19.73, 
			 "cosmo_cavitation_energy": 42.5, 
			 "cosmo_dispersion_energy": -29.17, 
			 "cosmo_repulsion_energy": 2.22, 
			 "cosmo_total_nonelectrostatic_energy": 15.55, 
			 "SMD_solvation_energy": 7.8 
		},
		"coords": [
			{
				"x": -4.7355566395,
				"y": 0.3164349396,
				"z": -3.3140215503,
				"element": "O" 
			},
			{
				"x": -4.088972077,
				"y": 1.3012439949,
				"z": -2.6221438917,
				"element": "C" 
			},
			{
				"x": -4.6279906474,
				"y": 2.37302366,
				"z": -2.4531361924,
				"element": "O" 
			},
			{
				"x": -2.7398299238,
				"y": 0.9685529811,
				"z": -2.1352494316,
				"element": "C" 
			},
			{
				"x": -1.83028797,
				"y": 1.9379394937,
				"z": -1.7727790563,
				"element": "C" 
			},
			{
				"x": -0.6411505813,
				"y": 1.3690553344,
				"z": -1.3998566464,
				"element": "N" 
			},
			{
				"x": 0.5403227646,
				"y": 2.1161657689,
				"z": -0.9909286948,
				"element": "C" 
			},
			{
				"x": 0.6714714337,
				"y": 2.3100023831,
				"z": 0.5154176308,
				"element": "C" 
			},
			{
				"x": 0.9847871548,
				"y": 1.0419685361,
				"z": 1.0993376178,
				"element": "O" 
			},
			{
				"x": 0.9973334586,
				"y": 1.0079722004,
				"z": 2.4741733627,
				"element": "C" 
			},
			{
				"x": 2.1558680242,
				"y": 1.3194480551,
				"z": 3.2008092351,
				"element": "C" 
			},
			{
				"x": 3.6122599652,
				"y": 1.8074903544,
				"z": 2.35144008,
				"element": "Cl" 
			},
			{
				"x": 2.1683778781,
				"y": 1.2287720642,
				"z": 4.5924707703,
				"element": "C" 
			},
			{
				"x": 1.0160855376,
				"y": 0.8266720025,
				"z": 5.2685099848,
				"element": "C" 
			},
			{
				"x": -0.1415018278,
				"y": 0.511182068,
				"z": 4.5547806294,
				"element": "C" 
			},
			{
				"x": -0.1485924115,
				"y": 0.6030913528,
				"z": 3.1637026676,
				"element": "C" 
			},
			{
				"x": -0.7623008176,
				"y": -0.0162131575,
				"z": -1.4970524405,
				"element": "C" 
			},
			{
				"x": -2.0767416623,
				"y": -0.3048955094,
				"z": -1.9580760161,
				"element": "C" 
			},
			{
				"x": -2.4578796481,
				"y": -1.651004279,
				"z": -2.1107871843,
				"element": "C" 
			},
			{
				"x": -1.5306383966,
				"y": -2.650974077,
				"z": -1.8458466158,
				"element": "C" 
			},
			{
				"x": -0.2287459345,
				"y": -2.3384114424,
				"z": -1.4095440081,
				"element": "C" 
			},
			{
				"x": 0.1699813084,
				"y": -1.0204408268,
				"z": -1.2174221567,
				"element": "C" 
			},
			{
				"x": -4.1123821286,
				"y": -0.3923903501,
				"z": -3.5273051889,
				"element": "H" 
			},
			{
				"x": -1.9627664413,
				"y": 3.0105871881,
				"z": -1.7847655023,
				"element": "H" 
			},
			{
				"x": 1.4313204209,
				"y": 1.6065250427,
				"z": -1.3694529091,
				"element": "H" 
			},
			{
				"x": 0.4964577626,
				"y": 3.1000066859,
				"z": -1.4677094497,
				"element": "H" 
			},
			{
				"x": 1.4740901135,
				"y": 3.0314390855,
				"z": 0.7182355712,
				"element": "H" 
			},
			{
				"x": -0.2655542725,
				"y": 2.6994484473,
				"z": 0.9350392552,
				"element": "H" 
			},
			{
				"x": 3.0770460578,
				"y": 1.4701400506,
				"z": 5.1330793273,
				"element": "H" 
			},
			{
				"x": 1.0293940554,
				"y": 0.7558972955,
				"z": 6.3516146086,
				"element": "H" 
			},
			{
				"x": -1.0370823419,
				"y": 0.1914296374,
				"z": 5.0782484205,
				"element": "H" 
			},
			{
				"x": -1.0308019401,
				"y": 0.350651043,
				"z": 2.5839293891,
				"element": "H" 
			},
			{
				"x": -3.4726156274,
				"y": -1.9188953884,
				"z": -2.3937476385,
				"element": "H" 
			},
			{
				"x": -1.818600542,
				"y": -3.6915465885,
				"z": -1.9613476303,
				"element": "H" 
			},
			{
				"x": 0.4712821585,
				"y": -3.1413878253,
				"z": -1.1998290312,
				"element": "H" 
			},
			{
				"x": 1.154213737,
				"y": -0.7828802208,
				"z": -0.8306873153,
				"element": "H" 
			}
		],
		 "valence_orbital": [ 
			{
				"type": "occ",
				"energy": -0.26594,
				"method": "rhf"
			},
			{
				"type": "occ",
				"energy": -0.25901,
				"method": "rhf"
			},
			{
				"type": "occ",
				"energy": -0.2532,
				"method": "rhf"
			},
			{
				"type": "occ",
				"energy": -0.2355,
				"method": "rhf"
			},
			{
				"type": "occ",
				"energy": -0.21746,
				"method": "rhf"
			},
			{
				"type": "unocc",
				"energy": -0.03148,
				"method": "rhf"
			},
			{
				"type": "unocc",
				"energy": -0.02342,
				"method": "rhf"
			},
			{
				"type": "unocc",
				"energy": -0.01935,
				"method": "rhf"
			},
			{
				"type": "unocc",
				"energy": -8e-05,
				"method": "rhf"
			},
			{
				"type": "unocc",
				"energy": 0.0107,
				"method": "rhf"
			}
		],
		"cosmo_sigma_profile": { 
			"-0.025": 0.0,
			"-0.024": 0.0,
			"-0.023": 0.0,
			"-0.022": 0.0,
			"-0.021": 0.0,
			"-0.02": 0.0,
			"-0.019": 0.0,
			"-0.018": 0.0,
			"-0.017": 0.0,
			"-0.016": 0.349815928286,
			"-0.015": 0.734605831116,
			"-0.014": 1.20753926012,
			"-0.013": 0.579361361446,
			"-0.012": 1.29848771662,
			"-0.011": 1.10450349762,
			"-0.01": 2.33506510828,
			"-0.009": 3.80360607406,
			"-0.008": 5.57178732688,
			"-0.007": 12.9796114725,
			"-0.006": 20.5701958184,
			"-0.005": 26.7899655564,
			"-0.004": 25.6392137498,
			"-0.003": 21.9633641158,
			"-0.002": 16.9440854964,
			"-0.001": 18.0958316545,
			"0.0": 18.138758432,
			"0.001": 23.5461053613,
			"0.002": 27.7643016235,
			"0.003": 26.5354000323,
			"0.004": 28.0798957082,
			"0.005": 18.2514907594,
			"0.006": 10.1689380665,
			"0.007": 4.12263889801,
			"0.008": 3.15616282573,
			"0.009": 2.80614954315,
			"0.01": 3.80086204871,
			"0.011": 4.27775920048,
			"0.012": 6.06437711999,
			"0.013": 4.49757154358,
			"0.014": 1.28485224829,
			"0.015": 0.00248135946677,
			"0.016": 0.0,
			"0.017": 0.0,
			"0.018": 0.0,
			"0.019": 0.0,
			"0.02": 0.0,
			"0.021": 0.0,
			"0.022": 0.0,
			"0.023": 0.0,
			"0.024": 0.0,
			"0.025": 0.0
		}
	}
}
