{
	 "smiles": "OC(=O)C1=C(C=NC=C1)N1CCCC1", 
	 "Tm": 533.15, 
	 "num_atms": 26, 
	 "gaussian": { 
		 "optdone": 1, 
		 "sigma_profile": "yes", 
		 "theory": "DFT", 
		 "functional": "B3LYP", 
		 "basiset": "6-31G**", 
		 "properties": { 
			 "R2extent": 2814.5642, 
			 "electric_dipole_moment_norm": 4.22483907504, 
			 "electric_quadrupole_moment_norm": 6.99995671058, 
			 "total_energy": -648.247839493, 
			 "HOMO_LUMO_gap": 0.15804, 
			 "cosmo_polarized_energy": -12.93, 
			 "cosmo_cavitation_energy": 28.2, 
			 "cosmo_dispersion_energy": -21.0, 
			 "cosmo_repulsion_energy": 1.65, 
			 "cosmo_total_nonelectrostatic_energy": 8.84, 
			 "SMD_solvation_energy": 3.15 
		},
		"coords": [
			{
				"x": 2.0182920182,
				"y": -0.4145119131,
				"z": -1.1231398445,
				"element": "O" 
			},
			{
				"x": 2.0668491685,
				"y": 0.6660988417,
				"z": -0.2995568268,
				"element": "C" 
			},
			{
				"x": 2.9913025719,
				"y": 1.4544147241,
				"z": -0.3441932291,
				"element": "O" 
			},
			{
				"x": 0.9743942289,
				"y": 0.6949595812,
				"z": 0.7112795318,
				"element": "C" 
			},
			{
				"x": -0.360484189,
				"y": 0.2272519855,
				"z": 0.5500115506,
				"element": "C" 
			},
			{
				"x": -1.108410571,
				"y": 0.0906395526,
				"z": 1.7565914695,
				"element": "C" 
			},
			{
				"x": -0.6934730222,
				"y": 0.4655450668,
				"z": 2.9594636312,
				"element": "N" 
			},
			{
				"x": 0.5237286997,
				"y": 1.0219032267,
				"z": 3.0670345862,
				"element": "C" 
			},
			{
				"x": 1.3758063022,
				"y": 1.1398931307,
				"z": 1.98083277,
				"element": "C" 
			},
			{
				"x": -0.954475933,
				"y": -0.057366419,
				"z": -0.6584472391,
				"element": "N" 
			},
			{
				"x": -0.5576293923,
				"y": 0.5576691853,
				"z": -1.9387453114,
				"element": "C" 
			},
			{
				"x": -1.8685882482,
				"y": 0.6620209344,
				"z": -2.7285722075,
				"element": "C" 
			},
			{
				"x": -2.6611491439,
				"y": -0.5508498456,
				"z": -2.221640628,
				"element": "C" 
			},
			{
				"x": -2.3389709545,
				"y": -0.5519111836,
				"z": -0.7242092122,
				"element": "C" 
			},
			{
				"x": 2.8128397888,
				"y": -0.345234994,
				"z": -1.679467487,
				"element": "H" 
			},
			{
				"x": -2.0993832805,
				"y": -0.3507662829,
				"z": 1.7229395934,
				"element": "H" 
			},
			{
				"x": 0.8249472042,
				"y": 1.3546206678,
				"z": 4.0570223768,
				"element": "H" 
			},
			{
				"x": 2.3791577965,
				"y": 1.535533265,
				"z": 2.0943263589,
				"element": "H" 
			},
			{
				"x": -0.0853659652,
				"y": 1.5315749381,
				"z": -1.7616554704,
				"element": "H" 
			},
			{
				"x": 0.1673153842,
				"y": -0.0710788368,
				"z": -2.4639737566,
				"element": "H" 
			},
			{
				"x": -2.396107443,
				"y": 1.588816272,
				"z": -2.4754311706,
				"element": "H" 
			},
			{
				"x": -1.701832745,
				"y": 0.6532305696,
				"z": -3.809071595,
				"element": "H" 
			},
			{
				"x": -2.2919087409,
				"y": -1.4696642406,
				"z": -2.6908225828,
				"element": "H" 
			},
			{
				"x": -3.7354198365,
				"y": -0.4822717149,
				"z": -2.4114300231,
				"element": "H" 
			},
			{
				"x": -3.0243319728,
				"y": 0.1212615087,
				"z": -0.1863734278,
				"element": "H" 
			},
			{
				"x": -2.423201725,
				"y": -1.5447780197,
				"z": -0.2682718563,
				"element": "H" 
			}
		],
		 "valence_orbital": [ 
			{
				"type": "occ",
				"energy": -0.30503,
				"method": "rhf"
			},
			{
				"type": "occ",
				"energy": -0.28488,
				"method": "rhf"
			},
			{
				"type": "occ",
				"energy": -0.26774,
				"method": "rhf"
			},
			{
				"type": "occ",
				"energy": -0.249,
				"method": "rhf"
			},
			{
				"type": "occ",
				"energy": -0.20378,
				"method": "rhf"
			},
			{
				"type": "unocc",
				"energy": -0.04574,
				"method": "rhf"
			},
			{
				"type": "unocc",
				"energy": 0.00188,
				"method": "rhf"
			},
			{
				"type": "unocc",
				"energy": 0.03734,
				"method": "rhf"
			},
			{
				"type": "unocc",
				"energy": 0.07187,
				"method": "rhf"
			},
			{
				"type": "unocc",
				"energy": 0.07915,
				"method": "rhf"
			}
		],
		"cosmo_sigma_profile": { 
			"-0.025": 0.0,
			"-0.024": 0.0,
			"-0.023": 0.0,
			"-0.022": 0.0,
			"-0.021": 0.0,
			"-0.02": 0.0,
			"-0.019": 0.0,
			"-0.018": 0.503778816904,
			"-0.017": 1.09679248775,
			"-0.016": 0.94603143381,
			"-0.015": 0.7889269991,
			"-0.014": 0.323762883816,
			"-0.013": 0.649880377043,
			"-0.012": 0.726123147535,
			"-0.011": 0.942592491864,
			"-0.01": 0.709618547422,
			"-0.009": 0.653941051937,
			"-0.008": 0.775838069836,
			"-0.007": 1.46761297156,
			"-0.006": 6.18916959658,
			"-0.005": 11.7279282619,
			"-0.004": 22.2739482516,
			"-0.003": 30.2118235835,
			"-0.002": 27.7392190214,
			"-0.001": 18.4551374121,
			"0.0": 15.8679356895,
			"0.001": 9.80266821323,
			"0.002": 12.3137189823,
			"0.003": 11.9715196289,
			"0.004": 5.68375834062,
			"0.005": 5.79503470849,
			"0.006": 4.84408050175,
			"0.007": 3.91521769826,
			"0.008": 3.87226771915,
			"0.009": 4.74241094922,
			"0.01": 3.65655069154,
			"0.011": 4.39606707089,
			"0.012": 5.10130773183,
			"0.013": 1.80232092481,
			"0.014": 0.857620888881,
			"0.015": 0.830477388916,
			"0.016": 0.828542379157,
			"0.017": 0.296879497887,
			"0.018": 0.0,
			"0.019": 0.0,
			"0.02": 0.0,
			"0.021": 0.0,
			"0.022": 0.0,
			"0.023": 0.0,
			"0.024": 0.0,
			"0.025": 0.0
		}
	}
}
