{
	 "smiles": "CC1=CC=C(O1)C(=O)C=CC1=CC=C(O1)C1=CC=CC=C1", 
	 "Tm": 395.15, 
	 "num_atms": 35, 
	 "gaussian": { 
		 "optdone": 1, 
		 "sigma_profile": "yes", 
		 "theory": "DFT", 
		 "functional": "B3LYP", 
		 "basiset": "6-31G**", 
		 "properties": { 
			 "R2extent": 10306.7988, 
			 "electric_dipole_moment_norm": 3.84394431541, 
			 "electric_quadrupole_moment_norm": 21.5942953624, 
			 "total_energy": -919.99166444, 
			 "HOMO_LUMO_gap": 0.12477, 
			 "cosmo_polarized_energy": -13.41, 
			 "cosmo_cavitation_energy": 41.61, 
			 "cosmo_dispersion_energy": -29.4, 
			 "cosmo_repulsion_energy": 2.24, 
			 "cosmo_total_nonelectrostatic_energy": 14.45, 
			 "SMD_solvation_energy": 8.51 
		},
		"coords": [
			{
				"x": 2.8283656137,
				"y": -2.2573610305,
				"z": -2.1567367746,
				"element": "C" 
			},
			{
				"x": 1.7412420251,
				"y": -1.5778791875,
				"z": -2.9121103597,
				"element": "C" 
			},
			{
				"x": 1.332434241,
				"y": -1.6263874894,
				"z": -4.2203667969,
				"element": "C" 
			},
			{
				"x": 0.2247614915,
				"y": -0.7406804093,
				"z": -4.3353038627,
				"element": "C" 
			},
			{
				"x": 0.0214576485,
				"y": -0.2027869564,
				"z": -3.0908079868,
				"element": "C" 
			},
			{
				"x": 0.9527263233,
				"y": -0.7161792946,
				"z": -2.2143710621,
				"element": "O" 
			},
			{
				"x": -0.9738050259,
				"y": 0.7651513494,
				"z": -2.6143706335,
				"element": "C" 
			},
			{
				"x": -1.8039075186,
				"y": 1.2199507116,
				"z": -3.4063949517,
				"element": "O" 
			},
			{
				"x": -0.9269526437,
				"y": 1.1484652396,
				"z": -1.1897470837,
				"element": "C" 
			},
			{
				"x": -1.8237989354,
				"y": 2.0373013668,
				"z": -0.7053693741,
				"element": "C" 
			},
			{
				"x": -1.9127665784,
				"y": 2.5099353551,
				"z": 0.6400974563,
				"element": "C" 
			},
			{
				"x": -2.77312481,
				"y": 3.4034226453,
				"z": 1.2426869054,
				"element": "C" 
			},
			{
				"x": -2.392482964,
				"y": 3.4905552883,
				"z": 2.6043066856,
				"element": "C" 
			},
			{
				"x": -1.3159564693,
				"y": 2.6452478382,
				"z": 2.7709364736,
				"element": "C" 
			},
			{
				"x": -1.022700223,
				"y": 2.048120698,
				"z": 1.5781537729,
				"element": "O" 
			},
			{
				"x": -0.4886669052,
				"y": 2.2975318865,
				"z": 3.9173993292,
				"element": "C" 
			},
			{
				"x": 0.5705527654,
				"y": 1.3801019898,
				"z": 3.7911997102,
				"element": "C" 
			},
			{
				"x": 1.356327648,
				"y": 1.0540062354,
				"z": 4.8938142641,
				"element": "C" 
			},
			{
				"x": 1.1032984877,
				"y": 1.6332056747,
				"z": 6.1390730425,
				"element": "C" 
			},
			{
				"x": 0.0531521735,
				"y": 2.5456147913,
				"z": 6.2739634173,
				"element": "C" 
			},
			{
				"x": -0.7358400413,
				"y": 2.8759843198,
				"z": 5.1766212394,
				"element": "C" 
			},
			{
				"x": 2.4255628909,
				"y": -2.8607435895,
				"z": -1.3351938554,
				"element": "H" 
			},
			{
				"x": 3.3903133419,
				"y": -2.9152585377,
				"z": -2.823140486,
				"element": "H" 
			},
			{
				"x": 3.5241654256,
				"y": -1.5313585226,
				"z": -1.720927847,
				"element": "H" 
			},
			{
				"x": 1.7775400126,
				"y": -2.2272990671,
				"z": -5.0006403944,
				"element": "H" 
			},
			{
				"x": -0.3633173342,
				"y": -0.5120966772,
				"z": -5.2115032372,
				"element": "H" 
			},
			{
				"x": -0.1683637936,
				"y": 0.7066287324,
				"z": -0.5535305359,
				"element": "H" 
			},
			{
				"x": -2.5567538621,
				"y": 2.4401827917,
				"z": -1.4011383316,
				"element": "H" 
			},
			{
				"x": -3.5800690559,
				"y": 3.9284170393,
				"z": 0.7514473836,
				"element": "H" 
			},
			{
				"x": -2.8526785985,
				"y": 4.0994785814,
				"z": 3.3682914533,
				"element": "H" 
			},
			{
				"x": 0.769276944,
				"y": 0.9288444177,
				"z": 2.8255508244,
				"element": "H" 
			},
			{
				"x": 2.1703380451,
				"y": 0.3439152688,
				"z": 4.7796441202,
				"element": "H" 
			},
			{
				"x": 1.7177628485,
				"y": 1.3769159501,
				"z": 6.9969616144,
				"element": "H" 
			},
			{
				"x": -0.151658709,
				"y": 3.001488401,
				"z": 7.238300688,
				"element": "H" 
			},
			{
				"x": -1.5484344582,
				"y": 3.5861641895,
				"z": 5.2950051929,
				"element": "H" 
			}
		],
		 "valence_orbital": [ 
			{
				"type": "occ",
				"energy": -0.26318,
				"method": "rhf"
			},
			{
				"type": "occ",
				"energy": -0.25815,
				"method": "rhf"
			},
			{
				"type": "occ",
				"energy": -0.23977,
				"method": "rhf"
			},
			{
				"type": "occ",
				"energy": -0.22387,
				"method": "rhf"
			},
			{
				"type": "occ",
				"energy": -0.20076,
				"method": "rhf"
			},
			{
				"type": "unocc",
				"energy": -0.07599,
				"method": "rhf"
			},
			{
				"type": "unocc",
				"energy": -0.03123,
				"method": "rhf"
			},
			{
				"type": "unocc",
				"energy": -0.00779,
				"method": "rhf"
			},
			{
				"type": "unocc",
				"energy": 0.0033,
				"method": "rhf"
			},
			{
				"type": "unocc",
				"energy": 0.05055,
				"method": "rhf"
			}
		],
		"cosmo_sigma_profile": { 
			"-0.025": 0.0,
			"-0.024": 0.0,
			"-0.023": 0.0,
			"-0.022": 0.0,
			"-0.021": 0.0,
			"-0.02": 0.0,
			"-0.019": 0.0,
			"-0.018": 0.0,
			"-0.017": 0.0,
			"-0.016": 0.0,
			"-0.015": 0.0,
			"-0.014": 0.0,
			"-0.013": 0.0,
			"-0.012": 0.0,
			"-0.011": 0.0,
			"-0.01": 0.0,
			"-0.009": 0.52379836403,
			"-0.008": 5.30172934567,
			"-0.007": 9.72280071295,
			"-0.006": 18.4986347533,
			"-0.005": 23.5646662918,
			"-0.004": 24.5102867619,
			"-0.003": 21.9366029689,
			"-0.002": 22.4359893885,
			"-0.001": 23.4745579409,
			"0.0": 22.9024595326,
			"0.001": 35.2055101611,
			"0.002": 36.3996442822,
			"0.003": 33.7220211655,
			"0.004": 23.6494260937,
			"0.005": 13.1476788786,
			"0.006": 2.21142779194,
			"0.007": 2.32289887125,
			"0.008": 1.60089934072,
			"0.009": 0.647023568689,
			"0.01": 2.11389158004,
			"0.011": 1.9106571185,
			"0.012": 2.55510512081,
			"0.013": 4.7872604547,
			"0.014": 1.66852987788,
			"0.015": 0.0,
			"0.016": 0.0,
			"0.017": 0.0,
			"0.018": 0.0,
			"0.019": 0.0,
			"0.02": 0.0,
			"0.021": 0.0,
			"0.022": 0.0,
			"0.023": 0.0,
			"0.024": 0.0,
			"0.025": 0.0
		}
	}
}
