{
	 "smiles": "NC1=C(NC2=CC=CC=C2)N=CC=C1", 
	 "Tm": 409.15, 
	 "num_atms": 25, 
	 "gaussian": { 
		 "optdone": 1, 
		 "sigma_profile": "yes", 
		 "theory": "DFT", 
		 "functional": "B3LYP", 
		 "basiset": "6-31G**", 
		 "properties": { 
			 "R2extent": 3324.8691, 
			 "electric_dipole_moment_norm": 2.40436446073, 
			 "electric_quadrupole_moment_norm": 7.40235718673, 
			 "total_energy": -590.058504, 
			 "HOMO_LUMO_gap": 0.17677, 
			 "cosmo_polarized_energy": -11.47, 
			 "cosmo_cavitation_energy": 28.44, 
			 "cosmo_dispersion_energy": -21.02, 
			 "cosmo_repulsion_energy": 1.65, 
			 "cosmo_total_nonelectrostatic_energy": 9.07, 
			 "SMD_solvation_energy": 3.32 
		},
		"coords": [
			{
				"x": -0.4594994358,
				"y": -1.311532959,
				"z": -1.370421771,
				"element": "N" 
			},
			{
				"x": -1.7082044468,
				"y": -0.7171840258,
				"z": -1.2162410619,
				"element": "C" 
			},
			{
				"x": -1.8309792894,
				"y": 0.659767853,
				"z": -0.8910472513,
				"element": "C" 
			},
			{
				"x": -0.6879342444,
				"y": 1.4829226002,
				"z": -0.7959122236,
				"element": "N" 
			},
			{
				"x": 0.3321028289,
				"y": 1.3543025766,
				"z": 0.1769593088,
				"element": "C" 
			},
			{
				"x": 0.3542249329,
				"y": 0.3323650724,
				"z": 1.1380231418,
				"element": "C" 
			},
			{
				"x": 1.4068466044,
				"y": 0.2579377596,
				"z": 2.0515667875,
				"element": "C" 
			},
			{
				"x": 2.4381532861,
				"y": 1.1969501744,
				"z": 2.0391041445,
				"element": "C" 
			},
			{
				"x": 2.4094187506,
				"y": 2.2229026174,
				"z": 1.0904299671,
				"element": "C" 
			},
			{
				"x": 1.374253318,
				"y": 2.2982921358,
				"z": 0.1634321669,
				"element": "C" 
			},
			{
				"x": -3.0073885989,
				"y": 1.2789278104,
				"z": -0.7878947031,
				"element": "N" 
			},
			{
				"x": -4.1317529141,
				"y": 0.5700537707,
				"z": -0.949951457,
				"element": "C" 
			},
			{
				"x": -4.1251118185,
				"y": -0.7985606103,
				"z": -1.2053473328,
				"element": "C" 
			},
			{
				"x": -2.8971795298,
				"y": -1.4433785302,
				"z": -1.3440908548,
				"element": "C" 
			},
			{
				"x": 0.281678433,
				"y": -0.667870133,
				"z": -1.6162380042,
				"element": "H" 
			},
			{
				"x": -0.4541636371,
				"y": -2.1451771601,
				"z": -1.9423962381,
				"element": "H" 
			},
			{
				"x": -0.9511619353,
				"y": 2.4481243048,
				"z": -0.9592473483,
				"element": "H" 
			},
			{
				"x": -0.4494370741,
				"y": -0.3928101922,
				"z": 1.177079556,
				"element": "H" 
			},
			{
				"x": 1.4077680944,
				"y": -0.5400155018,
				"z": 2.7891379497,
				"element": "H" 
			},
			{
				"x": 3.2494581438,
				"y": 1.134168454,
				"z": 2.7577277636,
				"element": "H" 
			},
			{
				"x": 3.2008082739,
				"y": 2.9670409337,
				"z": 1.0666896751,
				"element": "H" 
			},
			{
				"x": 1.3638733532,
				"y": 3.0885023525,
				"z": -0.5833872859,
				"element": "H" 
			},
			{
				"x": -5.0652186066,
				"y": 1.12189808,
				"z": -0.8666577869,
				"element": "H" 
			},
			{
				"x": -5.0553158538,
				"y": -1.3470780525,
				"z": -1.3132888837,
				"element": "H" 
			},
			{
				"x": -2.8511386345,
				"y": -2.5039493306,
				"z": -1.5801282583,
				"element": "H" 
			}
		],
		 "valence_orbital": [ 
			{
				"type": "occ",
				"energy": -0.26615,
				"method": "rhf"
			},
			{
				"type": "occ",
				"energy": -0.25596,
				"method": "rhf"
			},
			{
				"type": "occ",
				"energy": -0.24408,
				"method": "rhf"
			},
			{
				"type": "occ",
				"energy": -0.21917,
				"method": "rhf"
			},
			{
				"type": "occ",
				"energy": -0.19294,
				"method": "rhf"
			},
			{
				"type": "unocc",
				"energy": -0.01617,
				"method": "rhf"
			},
			{
				"type": "unocc",
				"energy": 0.00492,
				"method": "rhf"
			},
			{
				"type": "unocc",
				"energy": 0.008,
				"method": "rhf"
			},
			{
				"type": "unocc",
				"energy": 0.02399,
				"method": "rhf"
			},
			{
				"type": "unocc",
				"energy": 0.08577,
				"method": "rhf"
			}
		],
		"cosmo_sigma_profile": { 
			"-0.025": 0.0,
			"-0.024": 0.0,
			"-0.023": 0.0,
			"-0.022": 0.0,
			"-0.021": 0.0,
			"-0.02": 0.0,
			"-0.019": 0.0,
			"-0.018": 0.0,
			"-0.017": 0.0,
			"-0.016": 0.0,
			"-0.015": 0.0,
			"-0.014": 0.0,
			"-0.013": 0.803407542527,
			"-0.012": 2.28809346476,
			"-0.011": 3.59497925002,
			"-0.01": 2.9577431558,
			"-0.009": 3.56170493515,
			"-0.008": 4.14404892656,
			"-0.007": 4.34662018717,
			"-0.006": 8.16798441755,
			"-0.005": 16.0630591455,
			"-0.004": 17.5987741301,
			"-0.003": 17.0211638017,
			"-0.002": 13.3845879784,
			"-0.001": 12.8805002656,
			"0.0": 10.2502268708,
			"0.001": 13.4708499139,
			"0.002": 14.9705696108,
			"0.003": 17.7951604582,
			"0.004": 17.7452280712,
			"0.005": 15.2744574516,
			"0.006": 12.0135870481,
			"0.007": 6.35403876765,
			"0.008": 3.03614539918,
			"0.009": 2.1011832705,
			"0.01": 1.67139306297,
			"0.011": 1.55224952914,
			"0.012": 1.29631993222,
			"0.013": 0.98121458708,
			"0.014": 0.676664828122,
			"0.015": 0.623088738279,
			"0.016": 0.372488874435,
			"0.017": 0.0,
			"0.018": 0.0,
			"0.019": 0.0,
			"0.02": 0.0,
			"0.021": 0.0,
			"0.022": 0.0,
			"0.023": 0.0,
			"0.024": 0.0,
			"0.025": 0.0
		}
	}
}
