{
	 "smiles": "OC(=O)C1=CC2=C(CCC2)NC1=O", 
	 "Tm": 547.15, 
	 "num_atms": 22, 
	 "gaussian": { 
		 "optdone": 1, 
		 "sigma_profile": "yes", 
		 "theory": "DFT", 
		 "functional": "B3LYP", 
		 "basiset": "6-31G**", 
		 "properties": { 
			 "R2extent": 3107.3481, 
			 "electric_dipole_moment_norm": 8.97368025004, 
			 "electric_quadrupole_moment_norm": 19.907844327, 
			 "total_energy": -628.846227879, 
			 "HOMO_LUMO_gap": 0.16166, 
			 "cosmo_polarized_energy": -19.82, 
			 "cosmo_cavitation_energy": 25.39, 
			 "cosmo_dispersion_energy": -19.48, 
			 "cosmo_repulsion_energy": 1.54, 
			 "cosmo_total_nonelectrostatic_energy": 7.45, 
			 "SMD_solvation_energy": 5.44 
		},
		"coords": [
			{
				"x": -0.5809737733,
				"y": -3.2165911443,
				"z": -3.2782997412,
				"element": "O" 
			},
			{
				"x": -0.7693836968,
				"y": -1.9273967759,
				"z": -2.9796470988,
				"element": "C" 
			},
			{
				"x": -1.4372473071,
				"y": -1.1877244076,
				"z": -3.6746024343,
				"element": "O" 
			},
			{
				"x": -0.1022097908,
				"y": -1.436982394,
				"z": -1.7230583216,
				"element": "C" 
			},
			{
				"x": -0.2572004304,
				"y": -0.1158865375,
				"z": -1.357965954,
				"element": "C" 
			},
			{
				"x": 0.3415132326,
				"y": 0.3866912308,
				"z": -0.1823829134,
				"element": "C" 
			},
			{
				"x": 1.0926070222,
				"y": -0.4667170092,
				"z": 0.5875165163,
				"element": "C" 
			},
			{
				"x": 1.708642789,
				"y": 0.2067277219,
				"z": 1.782466876,
				"element": "C" 
			},
			{
				"x": 0.9138639208,
				"y": 1.5406878568,
				"z": 1.8449761208,
				"element": "C" 
			},
			{
				"x": 0.3573599542,
				"y": 1.7778244425,
				"z": 0.4121040258,
				"element": "C" 
			},
			{
				"x": 1.2572542599,
				"y": -1.7668573694,
				"z": 0.2298366275,
				"element": "N" 
			},
			{
				"x": 0.6888931453,
				"y": -2.3419952435,
				"z": -0.9119433273,
				"element": "C" 
			},
			{
				"x": 0.8931528833,
				"y": -3.5482188464,
				"z": -1.1450005701,
				"element": "O" 
			},
			{
				"x": -0.0075714426,
				"y": -3.6251051357,
				"z": -2.577352851,
				"element": "H" 
			},
			{
				"x": -0.8596861812,
				"y": 0.5116922339,
				"z": -2.0093386992,
				"element": "H" 
			},
			{
				"x": 2.7804957625,
				"y": 0.3756177467,
				"z": 1.6070443692,
				"element": "H" 
			},
			{
				"x": 1.6251985508,
				"y": -0.384867644,
				"z": 2.7010999908,
				"element": "H" 
			},
			{
				"x": 1.5269444531,
				"y": 2.3709351586,
				"z": 2.203138087,
				"element": "H" 
			},
			{
				"x": 0.0790328245,
				"y": 1.4246959879,
				"z": 2.5430883937,
				"element": "H" 
			},
			{
				"x": -0.6306074967,
				"y": 2.2490863606,
				"z": 0.4272146392,
				"element": "H" 
			},
			{
				"x": 1.0145546218,
				"y": 2.4403681372,
				"z": -0.1671287864,
				"element": "H" 
			},
			{
				"x": 1.8050666987,
				"y": -2.4046843692,
				"z": 0.7966350512,
				"element": "H" 
			}
		],
		 "valence_orbital": [ 
			{
				"type": "occ",
				"energy": -0.3178,
				"method": "rhf"
			},
			{
				"type": "occ",
				"energy": -0.28593,
				"method": "rhf"
			},
			{
				"type": "occ",
				"energy": -0.28084,
				"method": "rhf"
			},
			{
				"type": "occ",
				"energy": -0.25555,
				"method": "rhf"
			},
			{
				"type": "occ",
				"energy": -0.23319,
				"method": "rhf"
			},
			{
				"type": "unocc",
				"energy": -0.07153,
				"method": "rhf"
			},
			{
				"type": "unocc",
				"energy": -0.01117,
				"method": "rhf"
			},
			{
				"type": "unocc",
				"energy": 0.04603,
				"method": "rhf"
			},
			{
				"type": "unocc",
				"energy": 0.05929,
				"method": "rhf"
			},
			{
				"type": "unocc",
				"energy": 0.0705,
				"method": "rhf"
			}
		],
		"cosmo_sigma_profile": { 
			"-0.025": 0.0,
			"-0.024": 0.0,
			"-0.023": 0.0,
			"-0.022": 0.0,
			"-0.021": 0.0,
			"-0.02": 0.0,
			"-0.019": 0.0,
			"-0.018": 0.0,
			"-0.017": 0.285944858312,
			"-0.016": 1.37991173346,
			"-0.015": 1.18598030831,
			"-0.014": 1.52515859675,
			"-0.013": 0.826021628164,
			"-0.012": 1.11200025041,
			"-0.011": 1.24064093112,
			"-0.01": 0.959316960394,
			"-0.009": 1.04841223983,
			"-0.008": 1.13833761081,
			"-0.007": 3.12614045078,
			"-0.006": 7.46256447856,
			"-0.005": 10.3002090815,
			"-0.004": 20.3265151663,
			"-0.003": 27.0431374224,
			"-0.002": 26.6158728225,
			"-0.001": 18.2662219104,
			"0.0": 14.4630328132,
			"0.001": 9.11064990628,
			"0.002": 3.38394859187,
			"0.003": 3.04565591724,
			"0.004": 2.58384915401,
			"0.005": 4.06433978226,
			"0.006": 2.88147723651,
			"0.007": 3.68834716793,
			"0.008": 3.44490864334,
			"0.009": 4.199182609,
			"0.01": 4.43325825751,
			"0.011": 5.81018441969,
			"0.012": 8.92431511772,
			"0.013": 5.85334943339,
			"0.014": 1.83811843472,
			"0.015": 0.0987004913914,
			"0.016": 0.0,
			"0.017": 0.0,
			"0.018": 0.0,
			"0.019": 0.0,
			"0.02": 0.0,
			"0.021": 0.0,
			"0.022": 0.0,
			"0.023": 0.0,
			"0.024": 0.0,
			"0.025": 0.0
		}
	}
}
