{
	 "smiles": "CC1=CC=CC=C1C(=O)CC1=CC=CC=C1C(O)=O", 
	 "Tm": 411.15, 
	 "num_atms": 33, 
	 "gaussian": { 
		 "optdone": 1, 
		 "sigma_profile": "yes", 
		 "theory": "DFT", 
		 "functional": "B3LYP", 
		 "basiset": "6-31G**", 
		 "properties": { 
			 "R2extent": 5427.7331, 
			 "electric_dipole_moment_norm": 3.81860426072, 
			 "electric_quadrupole_moment_norm": 19.1260217936, 
			 "total_energy": -843.826830014, 
			 "HOMO_LUMO_gap": 0.17932, 
			 "cosmo_polarized_energy": -15.31, 
			 "cosmo_cavitation_energy": 36.25, 
			 "cosmo_dispersion_energy": -25.27, 
			 "cosmo_repulsion_energy": 1.92, 
			 "cosmo_total_nonelectrostatic_energy": 12.91, 
			 "SMD_solvation_energy": 7.22 
		},
		"coords": [
			{
				"x": -2.1615070714,
				"y": 3.107248949,
				"z": -1.6084729389,
				"element": "C" 
			},
			{
				"x": -1.694069549,
				"y": 1.7289469286,
				"z": -2.0116282261,
				"element": "C" 
			},
			{
				"x": -1.0702739405,
				"y": 1.5834512825,
				"z": -3.2570223217,
				"element": "C" 
			},
			{
				"x": -0.6092571961,
				"y": 0.3509082608,
				"z": -3.7181189523,
				"element": "C" 
			},
			{
				"x": -0.7602174737,
				"y": -0.7842054081,
				"z": -2.9245262566,
				"element": "C" 
			},
			{
				"x": -1.3669953183,
				"y": -0.6680221887,
				"z": -1.6772786788,
				"element": "C" 
			},
			{
				"x": -1.8405937013,
				"y": 0.5687454119,
				"z": -1.198900331,
				"element": "C" 
			},
			{
				"x": -2.4974743341,
				"y": 0.6502294509,
				"z": 0.1420300198,
				"element": "C" 
			},
			{
				"x": -3.1075479337,
				"y": 1.6487779628,
				"z": 0.5050689366,
				"element": "O" 
			},
			{
				"x": -2.3800426221,
				"y": -0.5174825505,
				"z": 1.1419708085,
				"element": "C" 
			},
			{
				"x": -1.181179718,
				"y": -0.3173032364,
				"z": 2.059682984,
				"element": "C" 
			},
			{
				"x": -1.2135552292,
				"y": 0.7715698828,
				"z": 2.9441550371,
				"element": "C" 
			},
			{
				"x": -0.1676476427,
				"y": 1.0323510874,
				"z": 3.8258210468,
				"element": "C" 
			},
			{
				"x": 0.9531663089,
				"y": 0.2010911634,
				"z": 3.8425263526,
				"element": "C" 
			},
			{
				"x": 1.0173995007,
				"y": -0.8690707168,
				"z": 2.956758393,
				"element": "C" 
			},
			{
				"x": -0.0306687647,
				"y": -1.1378270303,
				"z": 2.0559095087,
				"element": "C" 
			},
			{
				"x": 0.1043273553,
				"y": -2.3281347783,
				"z": 1.1505607288,
				"element": "C" 
			},
			{
				"x": 1.3644717941,
				"y": -2.5901939572,
				"z": 0.7104078496,
				"element": "O" 
			},
			{
				"x": -0.8019532621,
				"y": -3.0563623285,
				"z": 0.8096178271,
				"element": "O" 
			},
			{
				"x": -1.842907634,
				"y": 3.8414401429,
				"z": -2.3543437463,
				"element": "H" 
			},
			{
				"x": -1.7687890879,
				"y": 3.4021550996,
				"z": -0.6317991392,
				"element": "H" 
			},
			{
				"x": -3.2496329762,
				"y": 3.1493602042,
				"z": -1.513381692,
				"element": "H" 
			},
			{
				"x": -0.9468356743,
				"y": 2.4649457986,
				"z": -3.8806581166,
				"element": "H" 
			},
			{
				"x": -0.1353241614,
				"y": 0.2812756687,
				"z": -4.6933446594,
				"element": "H" 
			},
			{
				"x": -0.4103091263,
				"y": -1.7528722682,
				"z": -3.2676627586,
				"element": "H" 
			},
			{
				"x": -1.4759901145,
				"y": -1.5627963295,
				"z": -1.0774168708,
				"element": "H" 
			},
			{
				"x": -2.3479008769,
				"y": -1.4977991539,
				"z": 0.6773650484,
				"element": "H" 
			},
			{
				"x": -3.2879230615,
				"y": -0.462563962,
				"z": 1.7487229123,
				"element": "H" 
			},
			{
				"x": -2.0819058421,
				"y": 1.4228551801,
				"z": 2.9223094022,
				"element": "H" 
			},
			{
				"x": -0.2319555712,
				"y": 1.8781627857,
				"z": 4.504089574,
				"element": "H" 
			},
			{
				"x": 1.76521079,
				"y": 0.3796480288,
				"z": 4.5405195939,
				"element": "H" 
			},
			{
				"x": 1.8752027442,
				"y": -1.5357021526,
				"z": 2.994370348,
				"element": "H" 
			},
			{
				"x": 1.9481793898,
				"y": -1.8506272278,
				"z": 0.931568317,
				"element": "H" 
			}
		],
		 "valence_orbital": [ 
			{
				"type": "occ",
				"energy": -0.27006,
				"method": "rhf"
			},
			{
				"type": "occ",
				"energy": -0.26669,
				"method": "rhf"
			},
			{
				"type": "occ",
				"energy": -0.25832,
				"method": "rhf"
			},
			{
				"type": "occ",
				"energy": -0.24744,
				"method": "rhf"
			},
			{
				"type": "occ",
				"energy": -0.23957,
				"method": "rhf"
			},
			{
				"type": "unocc",
				"energy": -0.06025,
				"method": "rhf"
			},
			{
				"type": "unocc",
				"energy": -0.04759,
				"method": "rhf"
			},
			{
				"type": "unocc",
				"energy": -0.02381,
				"method": "rhf"
			},
			{
				"type": "unocc",
				"energy": -0.00423,
				"method": "rhf"
			},
			{
				"type": "unocc",
				"energy": 0.03368,
				"method": "rhf"
			}
		],
		"cosmo_sigma_profile": { 
			"-0.025": 0.0,
			"-0.024": 0.0,
			"-0.023": 0.0,
			"-0.022": 0.0,
			"-0.021": 0.0,
			"-0.02": 0.0,
			"-0.019": 0.0342430531229,
			"-0.018": 0.610485211388,
			"-0.017": 0.853057011348,
			"-0.016": 0.863552409262,
			"-0.015": 1.22335796728,
			"-0.014": 0.856626996455,
			"-0.013": 0.76934341435,
			"-0.012": 1.03488144584,
			"-0.011": 1.34997288498,
			"-0.01": 1.02135581726,
			"-0.009": 0.941128105361,
			"-0.008": 1.87266400517,
			"-0.007": 5.39344576127,
			"-0.006": 14.1179919246,
			"-0.005": 19.3373958727,
			"-0.004": 22.6295542288,
			"-0.003": 21.8577990692,
			"-0.002": 20.2813018756,
			"-0.001": 21.9637085577,
			"0.0": 23.3205634187,
			"0.001": 23.5769365674,
			"0.002": 21.7395081845,
			"0.003": 22.602018416,
			"0.004": 19.1433203751,
			"0.005": 7.58154830936,
			"0.006": 3.36014625983,
			"0.007": 4.12021056574,
			"0.008": 3.93788402523,
			"0.009": 4.88574948334,
			"0.01": 6.23053455648,
			"0.011": 6.59568121907,
			"0.012": 4.48183214474,
			"0.013": 1.23016568579,
			"0.014": 0.0,
			"0.015": 0.0,
			"0.016": 0.0,
			"0.017": 0.0,
			"0.018": 0.0,
			"0.019": 0.0,
			"0.02": 0.0,
			"0.021": 0.0,
			"0.022": 0.0,
			"0.023": 0.0,
			"0.024": 0.0,
			"0.025": 0.0
		}
	}
}
