{
	 "smiles": "CC1=CN(C2CCC(CO)O2)C(=O)NC1=O", 
	 "Tm": 429.15, 
	 "num_atms": 30, 
	 "gaussian": { 
		 "optdone": 1, 
		 "sigma_profile": "yes", 
		 "theory": "DFT", 
		 "functional": "B3LYP", 
		 "basiset": "6-31G**", 
		 "properties": { 
			 "R2extent": 4776.9351, 
			 "electric_dipole_moment_norm": 4.69963488901, 
			 "electric_quadrupole_moment_norm": 13.1752570404, 
			 "total_energy": -799.923413134, 
			 "HOMO_LUMO_gap": 0.20019, 
			 "cosmo_polarized_energy": -19.97, 
			 "cosmo_cavitation_energy": 32.61, 
			 "cosmo_dispersion_energy": -24.0, 
			 "cosmo_repulsion_energy": 1.89, 
			 "cosmo_total_nonelectrostatic_energy": 10.51, 
			 "SMD_solvation_energy": 6.56 
		},
		"coords": [
			{
				"x": 1.3072896246,
				"y": 3.3403564369,
				"z": -2.9057456863,
				"element": "C" 
			},
			{
				"x": 1.2690281867,
				"y": 2.5090437235,
				"z": -1.6564445756,
				"element": "C" 
			},
			{
				"x": 0.3528274132,
				"y": 1.5418576291,
				"z": -1.4226784653,
				"element": "C" 
			},
			{
				"x": 0.307939,
				"y": 0.7567059165,
				"z": -0.2821902383,
				"element": "N" 
			},
			{
				"x": -0.7944318095,
				"y": -0.2187570089,
				"z": -0.1108218169,
				"element": "C" 
			},
			{
				"x": -0.3390489903,
				"y": -1.6613354673,
				"z": 0.2067352588,
				"element": "C" 
			},
			{
				"x": -1.3674140446,
				"y": -2.1218110144,
				"z": 1.2518297355,
				"element": "C" 
			},
			{
				"x": -1.7267733161,
				"y": -0.8099467765,
				"z": 1.9548993964,
				"element": "C" 
			},
			{
				"x": -3.1208387264,
				"y": -0.7569018162,
				"z": 2.5603885945,
				"element": "C" 
			},
			{
				"x": -3.1636454337,
				"y": -1.7410512719,
				"z": 3.5843443095,
				"element": "O" 
			},
			{
				"x": -1.6768422338,
				"y": 0.1859556335,
				"z": 0.9102679707,
				"element": "O" 
			},
			{
				"x": 1.2098898139,
				"y": 0.9658306617,
				"z": 0.7649683406,
				"element": "C" 
			},
			{
				"x": 1.1964269763,
				"y": 0.3372850548,
				"z": 1.8128615996,
				"element": "O" 
			},
			{
				"x": 2.1480619055,
				"y": 1.9508194461,
				"z": 0.5062990729,
				"element": "N" 
			},
			{
				"x": 2.2771447801,
				"y": 2.7684544983,
				"z": -0.6292115031,
				"element": "C" 
			},
			{
				"x": 3.1654343297,
				"y": 3.6057429048,
				"z": -0.6965330767,
				"element": "O" 
			},
			{
				"x": 0.5046317028,
				"y": 3.0618355009,
				"z": -3.5940384056,
				"element": "H" 
			},
			{
				"x": 2.2662336971,
				"y": 3.2235917901,
				"z": -3.4216011731,
				"element": "H" 
			},
			{
				"x": 1.2098316757,
				"y": 4.4047306006,
				"z": -2.667646802,
				"element": "H" 
			},
			{
				"x": -0.4216153283,
				"y": 1.3182061358,
				"z": -2.1493578706,
				"element": "H" 
			},
			{
				"x": -1.3337232635,
				"y": -0.1769621542,
				"z": -1.064186875,
				"element": "H" 
			},
			{
				"x": -0.3307073369,
				"y": -2.2788022486,
				"z": -0.6954789685,
				"element": "H" 
			},
			{
				"x": 0.6637303829,
				"y": -1.6529368747,
				"z": 0.6329502469,
				"element": "H" 
			},
			{
				"x": -2.2588599373,
				"y": -2.5407459435,
				"z": 0.7695677222,
				"element": "H" 
			},
			{
				"x": -0.973049478,
				"y": -2.8696751325,
				"z": 1.9422274668,
				"element": "H" 
			},
			{
				"x": -0.9787846436,
				"y": -0.5668580791,
				"z": 2.717426541,
				"element": "H" 
			},
			{
				"x": -3.8613538494,
				"y": -0.9513938296,
				"z": 1.7676318425,
				"element": "H" 
			},
			{
				"x": -3.3071053139,
				"y": 0.2542907573,
				"z": 2.9519125662,
				"element": "H" 
			},
			{
				"x": -4.0212250432,
				"y": -1.684215322,
				"z": 4.0217697137,
				"element": "H" 
			},
			{
				"x": 2.8158492598,
				"y": 2.1094862494,
				"z": 1.251455079,
				"element": "H" 
			}
		],
		 "valence_orbital": [ 
			{
				"type": "occ",
				"energy": -0.28049,
				"method": "rhf"
			},
			{
				"type": "occ",
				"energy": -0.27263,
				"method": "rhf"
			},
			{
				"type": "occ",
				"energy": -0.27224,
				"method": "rhf"
			},
			{
				"type": "occ",
				"energy": -0.25792,
				"method": "rhf"
			},
			{
				"type": "occ",
				"energy": -0.23297,
				"method": "rhf"
			},
			{
				"type": "unocc",
				"energy": -0.03278,
				"method": "rhf"
			},
			{
				"type": "unocc",
				"energy": 0.01076,
				"method": "rhf"
			},
			{
				"type": "unocc",
				"energy": 0.06484,
				"method": "rhf"
			},
			{
				"type": "unocc",
				"energy": 0.07066,
				"method": "rhf"
			},
			{
				"type": "unocc",
				"energy": 0.09135,
				"method": "rhf"
			}
		],
		"cosmo_sigma_profile": { 
			"-0.025": 0.0,
			"-0.024": 0.0,
			"-0.023": 0.0,
			"-0.022": 0.0,
			"-0.021": 0.0,
			"-0.02": 0.0,
			"-0.019": 0.0,
			"-0.018": 0.0,
			"-0.017": 0.0329709207936,
			"-0.016": 0.906952732553,
			"-0.015": 2.00019774915,
			"-0.014": 2.44245244225,
			"-0.013": 1.18800378624,
			"-0.012": 1.30447559974,
			"-0.011": 2.19362876033,
			"-0.01": 4.60890102161,
			"-0.009": 3.52613768684,
			"-0.008": 4.52553943506,
			"-0.007": 5.50062573196,
			"-0.006": 6.65261629435,
			"-0.005": 9.37972709942,
			"-0.004": 20.9549056146,
			"-0.003": 26.3349029081,
			"-0.002": 28.3114828434,
			"-0.001": 27.5963324233,
			"0.0": 21.8639327144,
			"0.001": 11.376972434,
			"0.002": 5.82078674437,
			"0.003": 5.77530875331,
			"0.004": 5.31929691151,
			"0.005": 5.07106737181,
			"0.006": 4.90669020773,
			"0.007": 6.41331377934,
			"0.008": 6.21716336903,
			"0.009": 5.15009046059,
			"0.01": 5.41582589406,
			"0.011": 5.40565676784,
			"0.012": 8.22548659859,
			"0.013": 9.39717330282,
			"0.014": 1.94970211293,
			"0.015": 0.0,
			"0.016": 0.0,
			"0.017": 0.0,
			"0.018": 0.0,
			"0.019": 0.0,
			"0.02": 0.0,
			"0.021": 0.0,
			"0.022": 0.0,
			"0.023": 0.0,
			"0.024": 0.0,
			"0.025": 0.0
		}
	}
}
