{
	 "smiles": "CCOC(N)=O", 
	 "Tm": 321.65, 
	 "num_atms": 13, 
	 "gaussian": { 
		 "optdone": 1, 
		 "sigma_profile": "yes", 
		 "theory": "DFT", 
		 "functional": "B3LYP", 
		 "basiset": "6-31G**", 
		 "properties": { 
			 "R2extent": 949.166, 
			 "electric_dipole_moment_norm": 2.25550355575, 
			 "electric_quadrupole_moment_norm": 9.53595742597, 
			 "total_energy": -323.764397089, 
			 "HOMO_LUMO_gap": 0.32339, 
			 "cosmo_polarized_energy": -9.95, 
			 "cosmo_cavitation_energy": 16.67, 
			 "cosmo_dispersion_energy": -12.53, 
			 "cosmo_repulsion_energy": 1.12, 
			 "cosmo_total_nonelectrostatic_energy": 5.27, 
			 "SMD_solvation_energy": 4.53 
		},
		"coords": [
			{
				"x": -1.9979160331,
				"y": -0.5175102986,
				"z": 1.557854558,
				"element": "C" 
			},
			{
				"x": -0.7178758172,
				"y": -0.4439371437,
				"z": 0.7390010488,
				"element": "C" 
			},
			{
				"x": -0.8066040916,
				"y": 0.5622837598,
				"z": -0.2929195199,
				"element": "O" 
			},
			{
				"x": -0.5054796021,
				"y": 1.830244571,
				"z": 0.0954211414,
				"element": "C" 
			},
			{
				"x": -0.6955348983,
				"y": 2.6934255529,
				"z": -0.9488996325,
				"element": "N" 
			},
			{
				"x": -0.1440778853,
				"y": 2.1538164903,
				"z": 1.2112006608,
				"element": "O" 
			},
			{
				"x": -2.1517206825,
				"y": 0.4150283304,
				"z": 2.1062999485,
				"element": "H" 
			},
			{
				"x": -1.9310499043,
				"y": -1.3358358384,
				"z": 2.2828558638,
				"element": "H" 
			},
			{
				"x": -2.8637733572,
				"y": -0.6983061847,
				"z": 0.913813642,
				"element": "H" 
			},
			{
				"x": -0.536098907,
				"y": -1.3748547108,
				"z": 0.1956854658,
				"element": "H" 
			},
			{
				"x": 0.1420322222,
				"y": -0.2224323577,
				"z": 1.3757630706,
				"element": "H" 
			},
			{
				"x": -0.7896299278,
				"y": 2.3213614811,
				"z": -1.8804949739,
				"element": "H" 
			},
			{
				"x": -0.3184711158,
				"y": 3.6201163484,
				"z": -0.8362812736,
				"element": "H" 
			}
		],
		 "valence_orbital": [ 
			{
				"type": "occ",
				"energy": -0.37024,
				"method": "rhf"
			},
			{
				"type": "occ",
				"energy": -0.33606,
				"method": "rhf"
			},
			{
				"type": "occ",
				"energy": -0.2888,
				"method": "rhf"
			},
			{
				"type": "occ",
				"energy": -0.27312,
				"method": "rhf"
			},
			{
				"type": "occ",
				"energy": -0.26606,
				"method": "rhf"
			},
			{
				"type": "unocc",
				"energy": 0.05733,
				"method": "rhf"
			},
			{
				"type": "unocc",
				"energy": 0.08423,
				"method": "rhf"
			},
			{
				"type": "unocc",
				"energy": 0.11513,
				"method": "rhf"
			},
			{
				"type": "unocc",
				"energy": 0.13053,
				"method": "rhf"
			},
			{
				"type": "unocc",
				"energy": 0.14413,
				"method": "rhf"
			}
		],
		"cosmo_sigma_profile": { 
			"-0.025": 0.0,
			"-0.024": 0.0,
			"-0.023": 0.0,
			"-0.022": 0.0,
			"-0.021": 0.0,
			"-0.02": 0.0,
			"-0.019": 0.0,
			"-0.018": 0.0,
			"-0.017": 0.0,
			"-0.016": 0.0,
			"-0.015": 0.212106936258,
			"-0.014": 1.85729696166,
			"-0.013": 2.36398104535,
			"-0.012": 1.81950228067,
			"-0.011": 2.62011880802,
			"-0.01": 1.69915435247,
			"-0.009": 1.61281107881,
			"-0.008": 1.97098148976,
			"-0.007": 1.90894344609,
			"-0.006": 1.72926560528,
			"-0.005": 4.76693344405,
			"-0.004": 9.06658521686,
			"-0.003": 13.1941580819,
			"-0.002": 11.5003124123,
			"-0.001": 11.0745449638,
			"0.0": 13.4007388963,
			"0.001": 7.18566669623,
			"0.002": 4.84580767737,
			"0.003": 3.85074637794,
			"0.004": 4.93153719444,
			"0.005": 3.37917151111,
			"0.006": 3.62493281538,
			"0.007": 3.5015387237,
			"0.008": 3.44454383323,
			"0.009": 2.75217699793,
			"0.01": 1.03689470156,
			"0.011": 1.4114279101,
			"0.012": 2.25510922355,
			"0.013": 4.82623700638,
			"0.014": 2.5012550501,
			"0.015": 0.00115382446706,
			"0.016": 0.0,
			"0.017": 0.0,
			"0.018": 0.0,
			"0.019": 0.0,
			"0.02": 0.0,
			"0.021": 0.0,
			"0.022": 0.0,
			"0.023": 0.0,
			"0.024": 0.0,
			"0.025": 0.0
		}
	}
}
