{
	 "smiles": "C[C@]12CCC(=O)C1(C)CCC1C2CC[C@@]2(C)CC(=O)CCC12C", 
	 "Tm": 458.15, 
	 "num_atms": 55, 
	 "gaussian": { 
		 "optdone": 1, 
		 "sigma_profile": "yes", 
		 "theory": "DFT", 
		 "functional": "B3LYP", 
		 "basiset": "6-31G**", 
		 "properties": { 
			 "R2extent": 8171.1571, 
			 "electric_dipole_moment_norm": 0.81402527602, 
			 "electric_quadrupole_moment_norm": 36.2178124881, 
			 "total_energy": -969.97619167, 
			 "HOMO_LUMO_gap": 0.21884, 
			 "cosmo_polarized_energy": -13.9, 
			 "cosmo_cavitation_energy": 45.21, 
			 "cosmo_dispersion_energy": -31.78, 
			 "cosmo_repulsion_energy": 2.29, 
			 "cosmo_total_nonelectrostatic_energy": 15.72, 
			 "SMD_solvation_energy": 7.5 
		},
		"coords": [
			{
				"x": -2.6886656874,
				"y": -0.1598640682,
				"z": -1.4717251418,
				"element": "C" 
			},
			{
				"x": -1.4777866388,
				"y": -0.5832596203,
				"z": -0.6121133236,
				"element": "C" 
			},
			{
				"x": -0.878149546,
				"y": -1.8698931833,
				"z": -1.2809259811,
				"element": "C" 
			},
			{
				"x": -1.7590510665,
				"y": -3.041840714,
				"z": -0.8192561727,
				"element": "C" 
			},
			{
				"x": -2.4475686629,
				"y": -2.5436160489,
				"z": 0.455219697,
				"element": "C" 
			},
			{
				"x": -3.2454425451,
				"y": -3.1746778486,
				"z": 1.1152860488,
				"element": "O" 
			},
			{
				"x": -1.9492507446,
				"y": -1.1251920979,
				"z": 0.7815897308,
				"element": "C" 
			},
			{
				"x": -3.0328187319,
				"y": -0.3271987327,
				"z": 1.5168585363,
				"element": "C" 
			},
			{
				"x": -0.7156593313,
				"y": -1.3448081073,
				"z": 1.7065326327,
				"element": "C" 
			},
			{
				"x": 0.1336108982,
				"y": -0.0825387324,
				"z": 1.8347774939,
				"element": "C" 
			},
			{
				"x": 0.7252044587,
				"y": 0.3741934831,
				"z": 0.4857584018,
				"element": "C" 
			},
			{
				"x": -0.3901293535,
				"y": 0.5505325183,
				"z": -0.6011893917,
				"element": "C" 
			},
			{
				"x": -0.8767277177,
				"y": 2.0106504069,
				"z": -0.6039243649,
				"element": "C" 
			},
			{
				"x": 0.2726423017,
				"y": 2.9703211212,
				"z": -1.014679781,
				"element": "C" 
			},
			{
				"x": 1.7129915774,
				"y": 2.4671458443,
				"z": -0.6899512745,
				"element": "C" 
			},
			{
				"x": 2.3078397036,
				"y": 1.6483144553,
				"z": -1.8735090595,
				"element": "C" 
			},
			{
				"x": 2.6661809396,
				"y": 3.6883609403,
				"z": -0.5486920541,
				"element": "C" 
			},
			{
				"x": 4.0683156363,
				"y": 3.2926831473,
				"z": -0.0960296754,
				"element": "C" 
			},
			{
				"x": 5.0681114294,
				"y": 3.7618823379,
				"z": -0.6076241349,
				"element": "O" 
			},
			{
				"x": 4.1483609227,
				"y": 2.29691893,
				"z": 1.0571658657,
				"element": "C" 
			},
			{
				"x": 3.1133926962,
				"y": 1.154290228,
				"z": 0.9747546405,
				"element": "C" 
			},
			{
				"x": 1.6766990361,
				"y": 1.6406081648,
				"z": 0.6478723938,
				"element": "C" 
			},
			{
				"x": 1.2145488483,
				"y": 2.5475094363,
				"z": 1.8226034061,
				"element": "C" 
			},
			{
				"x": -2.3594029602,
				"y": 0.1402712385,
				"z": -2.4730043127,
				"element": "H" 
			},
			{
				"x": -3.3952458096,
				"y": -0.9877411418,
				"z": -1.5972576693,
				"element": "H" 
			},
			{
				"x": -3.2463125541,
				"y": 0.6737399446,
				"z": -1.0406208786,
				"element": "H" 
			},
			{
				"x": -0.8558440873,
				"y": -1.7617153902,
				"z": -2.3699782341,
				"element": "H" 
			},
			{
				"x": 0.1564125759,
				"y": -2.0231188611,
				"z": -0.9594363352,
				"element": "H" 
			},
			{
				"x": -1.20920222,
				"y": -3.9659048431,
				"z": -0.6142516756,
				"element": "H" 
			},
			{
				"x": -2.5372589562,
				"y": -3.3026952218,
				"z": -1.5450273908,
				"element": "H" 
			},
			{
				"x": -3.9287302909,
				"y": -0.1994249037,
				"z": 0.904815969,
				"element": "H" 
			},
			{
				"x": -2.6845113615,
				"y": 0.6661374942,
				"z": 1.814273789,
				"element": "H" 
			},
			{
				"x": -3.3347698807,
				"y": -0.8730616916,
				"z": 2.4150323304,
				"element": "H" 
			},
			{
				"x": -0.0903241955,
				"y": -2.1633333811,
				"z": 1.3268472132,
				"element": "H" 
			},
			{
				"x": -1.0748785663,
				"y": -1.6694538266,
				"z": 2.6893623912,
				"element": "H" 
			},
			{
				"x": 0.9444066767,
				"y": -0.2687159965,
				"z": 2.5495192092,
				"element": "H" 
			},
			{
				"x": -0.4818679253,
				"y": 0.7092523152,
				"z": 2.2720895782,
				"element": "H" 
			},
			{
				"x": 1.3706689686,
				"y": -0.447077808,
				"z": 0.1455116729,
				"element": "H" 
			},
			{
				"x": 0.0856690629,
				"y": 0.4211645226,
				"z": -1.5791090042,
				"element": "H" 
			},
			{
				"x": -1.7023550321,
				"y": 2.1497518853,
				"z": -1.3050075576,
				"element": "H" 
			},
			{
				"x": -1.2745742165,
				"y": 2.2818195701,
				"z": 0.3806970224,
				"element": "H" 
			},
			{
				"x": 0.111778565,
				"y": 3.9399779111,
				"z": -0.5297324238,
				"element": "H" 
			},
			{
				"x": 0.2119377554,
				"y": 3.1653427141,
				"z": -2.0920422884,
				"element": "H" 
			},
			{
				"x": 3.3941071992,
				"y": 1.546880306,
				"z": -1.7882838513,
				"element": "H" 
			},
			{
				"x": 1.903042608,
				"y": 0.6409493124,
				"z": -1.9722276623,
				"element": "H" 
			},
			{
				"x": 2.1179993455,
				"y": 2.1749474958,
				"z": -2.8147271854,
				"element": "H" 
			},
			{
				"x": 2.7603035381,
				"y": 4.2179311072,
				"z": -1.5021527388,
				"element": "H" 
			},
			{
				"x": 2.2699941343,
				"y": 4.4121126029,
				"z": 0.1742937704,
				"element": "H" 
			},
			{
				"x": 3.9928171395,
				"y": 2.873163824,
				"z": 1.980012717,
				"element": "H" 
			},
			{
				"x": 5.1711062689,
				"y": 1.9121851387,
				"z": 1.0996723294,
				"element": "H" 
			},
			{
				"x": 3.4371145379,
				"y": 0.4381614818,
				"z": 0.2118540459,
				"element": "H" 
			},
			{
				"x": 3.1112487456,
				"y": 0.6045102575,
				"z": 1.9238219397,
				"element": "H" 
			},
			{
				"x": 0.1827114949,
				"y": 2.8878742513,
				"z": 1.7209745199,
				"element": "H" 
			},
			{
				"x": 1.2932985815,
				"y": 2.0182763809,
				"z": 2.7752026656,
				"element": "H" 
			},
			{
				"x": 1.8336124357,
				"y": 3.440871451,
				"z": 1.9160795524,
				"element": "H" 
			}
		],
		 "valence_orbital": [ 
			{
				"type": "occ",
				"energy": -0.29293,
				"method": "rhf"
			},
			{
				"type": "occ",
				"energy": -0.28905,
				"method": "rhf"
			},
			{
				"type": "occ",
				"energy": -0.2812,
				"method": "rhf"
			},
			{
				"type": "occ",
				"energy": -0.23528,
				"method": "rhf"
			},
			{
				"type": "occ",
				"energy": -0.23305,
				"method": "rhf"
			},
			{
				"type": "unocc",
				"energy": -0.01421,
				"method": "rhf"
			},
			{
				"type": "unocc",
				"energy": -0.01293,
				"method": "rhf"
			},
			{
				"type": "unocc",
				"energy": 0.05804,
				"method": "rhf"
			},
			{
				"type": "unocc",
				"energy": 0.06899,
				"method": "rhf"
			},
			{
				"type": "unocc",
				"energy": 0.08072,
				"method": "rhf"
			}
		],
		"cosmo_sigma_profile": { 
			"-0.025": 0.0,
			"-0.024": 0.0,
			"-0.023": 0.0,
			"-0.022": 0.0,
			"-0.021": 0.0,
			"-0.02": 0.0,
			"-0.019": 0.0,
			"-0.018": 0.0,
			"-0.017": 0.0,
			"-0.016": 0.0,
			"-0.015": 0.0,
			"-0.014": 0.0,
			"-0.013": 0.0,
			"-0.012": 0.0,
			"-0.011": 0.0,
			"-0.01": 0.0,
			"-0.009": 0.0,
			"-0.008": 0.140264889124,
			"-0.007": 1.42392792556,
			"-0.006": 3.02671720405,
			"-0.005": 10.2265243918,
			"-0.004": 20.0987131778,
			"-0.003": 51.1808350509,
			"-0.002": 65.503608516,
			"-0.001": 58.7331801914,
			"0.0": 45.0437524789,
			"0.001": 31.1589506246,
			"0.002": 10.4929634715,
			"0.003": 4.33212662108,
			"0.004": 2.93057015362,
			"0.005": 3.02130598603,
			"0.006": 3.02014933162,
			"0.007": 3.16370696124,
			"0.008": 3.02820056953,
			"0.009": 3.16265968591,
			"0.01": 4.32033064154,
			"0.011": 5.02788237753,
			"0.012": 8.97887148661,
			"0.013": 7.03767217272,
			"0.014": 1.48323942213,
			"0.015": 0.0,
			"0.016": 0.0,
			"0.017": 0.0,
			"0.018": 0.0,
			"0.019": 0.0,
			"0.02": 0.0,
			"0.021": 0.0,
			"0.022": 0.0,
			"0.023": 0.0,
			"0.024": 0.0,
			"0.025": 0.0
		}
	}
}
