{
	 "smiles": "CC1=CC(C=O)=C(C)N1C1=CC2=C(OCCO2)C=C1", 
	 "Tm": 386.15, 
	 "num_atms": 34, 
	 "gaussian": { 
		 "optdone": 1, 
		 "sigma_profile": "yes", 
		 "theory": "DFT", 
		 "functional": "B3LYP", 
		 "basiset": "6-31G**", 
		 "properties": { 
			 "R2extent": 6255.5063, 
			 "electric_dipole_moment_norm": 7.17604161708, 
			 "electric_quadrupole_moment_norm": 21.1189537392, 
			 "total_energy": -861.039136274, 
			 "HOMO_LUMO_gap": 0.18098, 
			 "cosmo_polarized_energy": -13.56, 
			 "cosmo_cavitation_energy": 37.57, 
			 "cosmo_dispersion_energy": -26.26, 
			 "cosmo_repulsion_energy": 2.03, 
			 "cosmo_total_nonelectrostatic_energy": 13.34, 
			 "SMD_solvation_energy": 7.9 
		},
		"coords": [
			{
				"x": -0.0431635073,
				"y": 2.8760923957,
				"z": 1.8567469282,
				"element": "C" 
			},
			{
				"x": 0.0831685137,
				"y": 2.7475212936,
				"z": 0.373216196,
				"element": "C" 
			},
			{
				"x": 0.4985525445,
				"y": 3.646159702,
				"z": -0.5727931312,
				"element": "C" 
			},
			{
				"x": 0.4358697007,
				"y": 3.0078377872,
				"z": -1.8559723715,
				"element": "C" 
			},
			{
				"x": 0.79253293,
				"y": 3.6308709529,
				"z": -3.1203507376,
				"element": "C" 
			},
			{
				"x": 0.7487420106,
				"y": 3.1139193744,
				"z": -4.2302902337,
				"element": "O" 
			},
			{
				"x": -0.0262991701,
				"y": 1.7067031507,
				"z": -1.6523384381,
				"element": "C" 
			},
			{
				"x": -0.2838651871,
				"y": 0.6127709994,
				"z": -2.6359712169,
				"element": "C" 
			},
			{
				"x": -0.2366186441,
				"y": 1.5591826092,
				"z": -0.3000418817,
				"element": "N" 
			},
			{
				"x": -0.7179070037,
				"y": 0.3659217552,
				"z": 0.3310262999,
				"element": "C" 
			},
			{
				"x": 0.1873748516,
				"y": -0.6251775302,
				"z": 0.7146995314,
				"element": "C" 
			},
			{
				"x": -0.2728283765,
				"y": -1.7889819429,
				"z": 1.330070524,
				"element": "C" 
			},
			{
				"x": -1.6510719952,
				"y": -1.9655214786,
				"z": 1.5533106017,
				"element": "C" 
			},
			{
				"x": -2.1484890178,
				"y": -3.1012030185,
				"z": 2.1376601411,
				"element": "O" 
			},
			{
				"x": -1.2257524522,
				"y": -4.1924225406,
				"z": 2.1636664043,
				"element": "C" 
			},
			{
				"x": 0.1427715743,
				"y": -3.7096474256,
				"z": 2.6147139371,
				"element": "C" 
			},
			{
				"x": 0.6477254767,
				"y": -2.7357246576,
				"z": 1.6987210122,
				"element": "O" 
			},
			{
				"x": -2.5467913418,
				"y": -0.9631400316,
				"z": 1.1787158029,
				"element": "C" 
			},
			{
				"x": -2.086339005,
				"y": 0.2027833155,
				"z": 0.5716442324,
				"element": "C" 
			},
			{
				"x": -1.0723126535,
				"y": 2.7220151539,
				"z": 2.2022935649,
				"element": "H" 
			},
			{
				"x": 0.2661249238,
				"y": 3.8790310079,
				"z": 2.1601785289,
				"element": "H" 
			},
			{
				"x": 0.5858069245,
				"y": 2.1536108578,
				"z": 2.3905962765,
				"element": "H" 
			},
			{
				"x": 0.8191915456,
				"y": 4.6614953063,
				"z": -0.3798209952,
				"element": "H" 
			},
			{
				"x": 1.1338783436,
				"y": 4.6863944671,
				"z": -3.0148637004,
				"element": "H" 
			},
			{
				"x": 0.3422268464,
				"y": -0.2656142922,
				"z": -2.4387738605,
				"element": "H" 
			},
			{
				"x": -1.3272881982,
				"y": 0.2773736842,
				"z": -2.6023141731,
				"element": "H" 
			},
			{
				"x": -0.0614847143,
				"y": 0.9883033077,
				"z": -3.6345976326,
				"element": "H" 
			},
			{
				"x": 1.2520184711,
				"y": -0.5030473928,
				"z": 0.5474064756,
				"element": "H" 
			},
			{
				"x": -1.6370303222,
				"y": -4.9286070835,
				"z": 2.8584650097,
				"element": "H" 
			},
			{
				"x": -1.1542375315,
				"y": -4.6429191209,
				"z": 1.164607839,
				"element": "H" 
			},
			{
				"x": 0.0742042367,
				"y": -3.2741277835,
				"z": 3.6206819881,
				"element": "H" 
			},
			{
				"x": 0.8684198464,
				"y": -4.5263872839,
				"z": 2.628247363,
				"element": "H" 
			},
			{
				"x": -3.6036952805,
				"y": -1.1229706307,
				"z": 1.3645187697,
				"element": "H" 
			},
			{
				"x": -2.7804343393,
				"y": 0.9807050926,
				"z": 0.2721409458,
				"element": "H" 
			}
		],
		 "valence_orbital": [ 
			{
				"type": "occ",
				"energy": -0.25258,
				"method": "rhf"
			},
			{
				"type": "occ",
				"energy": -0.24103,
				"method": "rhf"
			},
			{
				"type": "occ",
				"energy": -0.2282,
				"method": "rhf"
			},
			{
				"type": "occ",
				"energy": -0.22603,
				"method": "rhf"
			},
			{
				"type": "occ",
				"energy": -0.20143,
				"method": "rhf"
			},
			{
				"type": "unocc",
				"energy": -0.02045,
				"method": "rhf"
			},
			{
				"type": "unocc",
				"energy": -0.01779,
				"method": "rhf"
			},
			{
				"type": "unocc",
				"energy": -0.00627,
				"method": "rhf"
			},
			{
				"type": "unocc",
				"energy": 0.044,
				"method": "rhf"
			},
			{
				"type": "unocc",
				"energy": 0.06926,
				"method": "rhf"
			}
		],
		"cosmo_sigma_profile": { 
			"-0.025": 0.0,
			"-0.024": 0.0,
			"-0.023": 0.0,
			"-0.022": 0.0,
			"-0.021": 0.0,
			"-0.02": 0.0,
			"-0.019": 0.0,
			"-0.018": 0.0,
			"-0.017": 0.0,
			"-0.016": 0.0,
			"-0.015": 0.0,
			"-0.014": 0.0,
			"-0.013": 0.0,
			"-0.012": 0.0,
			"-0.011": 0.0,
			"-0.01": 0.0,
			"-0.009": 0.0,
			"-0.008": 0.837066056139,
			"-0.007": 10.5755221197,
			"-0.006": 17.7612086758,
			"-0.005": 21.940844069,
			"-0.004": 27.0137866646,
			"-0.003": 25.3919355737,
			"-0.002": 26.1688833208,
			"-0.001": 25.6858028896,
			"0.0": 25.5308285339,
			"0.001": 17.7228661249,
			"0.002": 19.8587333534,
			"0.003": 18.4547489568,
			"0.004": 13.9939560317,
			"0.005": 9.46766679768,
			"0.006": 8.46759442782,
			"0.007": 5.71101707104,
			"0.008": 4.48521747512,
			"0.009": 4.08307381948,
			"0.01": 4.94117741507,
			"0.011": 2.50613338084,
			"0.012": 2.80137275951,
			"0.013": 3.36588816542,
			"0.014": 1.51569004086,
			"0.015": 0.224699617983,
			"0.016": 0.0,
			"0.017": 0.0,
			"0.018": 0.0,
			"0.019": 0.0,
			"0.02": 0.0,
			"0.021": 0.0,
			"0.022": 0.0,
			"0.023": 0.0,
			"0.024": 0.0,
			"0.025": 0.0
		}
	}
}
