{
	 "smiles": "FC1=CC=CC(F)=C1CCl", 
	 "Tm": 307.15, 
	 "num_atms": 15, 
	 "gaussian": { 
		 "optdone": 1, 
		 "sigma_profile": "yes", 
		 "theory": "DFT", 
		 "functional": "B3LYP", 
		 "basiset": "6-31G**", 
		 "properties": { 
			 "R2extent": 1943.4199, 
			 "electric_dipole_moment_norm": 3.14409463916, 
			 "electric_quadrupole_moment_norm": 8.99847782628, 
			 "total_energy": -929.623139965, 
			 "HOMO_LUMO_gap": 0.21806, 
			 "cosmo_polarized_energy": -5.69, 
			 "cosmo_cavitation_energy": 21.92, 
			 "cosmo_dispersion_energy": -15.81, 
			 "cosmo_repulsion_energy": 1.25, 
			 "cosmo_total_nonelectrostatic_energy": 7.36, 
			 "SMD_solvation_energy": 4.35 
		},
		"coords": [
			{
				"x": 1.2693871243,
				"y": 0.8210901268,
				"z": -2.0741987652,
				"element": "F" 
			},
			{
				"x": 0.7086269091,
				"y": 0.1802240537,
				"z": -1.0298599517,
				"element": "C" 
			},
			{
				"x": 1.3760617075,
				"y": -0.9001819149,
				"z": -0.4673662496,
				"element": "C" 
			},
			{
				"x": 0.7878558688,
				"y": -1.5538286956,
				"z": 0.6166119076,
				"element": "C" 
			},
			{
				"x": -0.4397001233,
				"y": -1.1291255287,
				"z": 1.1274821904,
				"element": "C" 
			},
			{
				"x": -1.0655788306,
				"y": -0.0434968979,
				"z": 0.5284559123,
				"element": "C" 
			},
			{
				"x": -2.2491178838,
				"y": 0.3774568306,
				"z": 1.0161787334,
				"element": "F" 
			},
			{
				"x": -0.5214355713,
				"y": 0.6488036211,
				"z": -0.5578514285,
				"element": "C" 
			},
			{
				"x": -1.2171648318,
				"y": 1.8118536313,
				"z": -1.182996069,
				"element": "C" 
			},
			{
				"x": -2.3423319619,
				"y": 1.3006396831,
				"z": -2.5399719843,
				"element": "Cl" 
			},
			{
				"x": 2.3290959794,
				"y": -1.2113495212,
				"z": -0.8789954264,
				"element": "H" 
			},
			{
				"x": 1.2921997218,
				"y": -2.4015676346,
				"z": 1.0691173348,
				"element": "H" 
			},
			{
				"x": -0.9137127773,
				"y": -1.6202207695,
				"z": 1.9693141202,
				"element": "H" 
			},
			{
				"x": -0.5078206405,
				"y": 2.5011454411,
				"z": -1.63627293,
				"element": "H" 
			},
			{
				"x": -1.8457646903,
				"y": 2.3314575747,
				"z": -0.4628473941,
				"element": "H" 
			}
		],
		 "valence_orbital": [ 
			{
				"type": "occ",
				"energy": -0.36278,
				"method": "rhf"
			},
			{
				"type": "occ",
				"energy": -0.29908,
				"method": "rhf"
			},
			{
				"type": "occ",
				"energy": -0.29408,
				"method": "rhf"
			},
			{
				"type": "occ",
				"energy": -0.26557,
				"method": "rhf"
			},
			{
				"type": "occ",
				"energy": -0.25823,
				"method": "rhf"
			},
			{
				"type": "unocc",
				"energy": -0.04017,
				"method": "rhf"
			},
			{
				"type": "unocc",
				"energy": -0.01124,
				"method": "rhf"
			},
			{
				"type": "unocc",
				"energy": 0.03388,
				"method": "rhf"
			},
			{
				"type": "unocc",
				"energy": 0.07003,
				"method": "rhf"
			},
			{
				"type": "unocc",
				"energy": 0.11266,
				"method": "rhf"
			}
		],
		"cosmo_sigma_profile": { 
			"-0.025": 0.0,
			"-0.024": 0.0,
			"-0.023": 0.0,
			"-0.022": 0.0,
			"-0.021": 0.0,
			"-0.02": 0.0,
			"-0.019": 0.0,
			"-0.018": 0.0,
			"-0.017": 0.0,
			"-0.016": 0.0,
			"-0.015": 0.0,
			"-0.014": 0.0,
			"-0.013": 0.0,
			"-0.012": 0.0,
			"-0.011": 0.0,
			"-0.01": 0.0,
			"-0.009": 0.0,
			"-0.008": 3.92765371706,
			"-0.007": 9.32785362142,
			"-0.006": 9.94027439709,
			"-0.005": 11.5708921776,
			"-0.004": 8.63710058027,
			"-0.003": 7.55806203028,
			"-0.002": 6.7627241312,
			"-0.001": 10.408305665,
			"0.0": 16.4441328242,
			"0.001": 19.7682860969,
			"0.002": 16.722225068,
			"0.003": 22.8232166053,
			"0.004": 15.6063787192,
			"0.005": 6.45780505186,
			"0.006": 9.71032803363,
			"0.007": 2.77897064822,
			"0.008": 0.0,
			"0.009": 0.0,
			"0.01": 0.0,
			"0.011": 0.0,
			"0.012": 0.0,
			"0.013": 0.0,
			"0.014": 0.0,
			"0.015": 0.0,
			"0.016": 0.0,
			"0.017": 0.0,
			"0.018": 0.0,
			"0.019": 0.0,
			"0.02": 0.0,
			"0.021": 0.0,
			"0.022": 0.0,
			"0.023": 0.0,
			"0.024": 0.0,
			"0.025": 0.0
		}
	}
}
