{
	 "smiles": "CCC(C)C(C)(C)CC", 
	 "Tm": 172.15, 
	 "num_atms": 29, 
	 "gaussian": { 
		 "optdone": 1, 
		 "sigma_profile": "yes", 
		 "theory": "DFT", 
		 "functional": "B3LYP", 
		 "basiset": "6-31G**", 
		 "properties": { 
			 "R2extent": 1990.3297, 
			 "electric_dipole_moment_norm": 0.024346046907, 
			 "electric_quadrupole_moment_norm": 0.28957277151, 
			 "total_energy": -355.036529643, 
			 "HOMO_LUMO_gap": 0.3648, 
			 "cosmo_polarized_energy": -0.86, 
			 "cosmo_cavitation_energy": 27.15, 
			 "cosmo_dispersion_energy": -19.31, 
			 "cosmo_repulsion_energy": 1.55, 
			 "cosmo_total_nonelectrostatic_energy": 9.39, 
			 "SMD_solvation_energy": 4.87 
		},
		"coords": [
			{
				"x": -2.4197912451,
				"y": -1.0372544446,
				"z": -1.2592913546,
				"element": "C" 
			},
			{
				"x": -1.9159025948,
				"y": 0.1765715786,
				"z": -0.4668297554,
				"element": "C" 
			},
			{
				"x": -1.1377654645,
				"y": -0.1891779856,
				"z": 0.8217518472,
				"element": "C" 
			},
			{
				"x": -2.1139805187,
				"y": -0.722217986,
				"z": 1.8876953087,
				"element": "C" 
			},
			{
				"x": -0.2125927432,
				"y": 0.9692824864,
				"z": 1.3443861108,
				"element": "C" 
			},
			{
				"x": -1.0164330919,
				"y": 2.2624953003,
				"z": 1.5989982201,
				"element": "C" 
			},
			{
				"x": 0.8853571606,
				"y": 1.2801665585,
				"z": 0.301505231,
				"element": "C" 
			},
			{
				"x": 0.4772902048,
				"y": 0.5817011218,
				"z": 2.6849797057,
				"element": "C" 
			},
			{
				"x": 1.3429069803,
				"y": -0.685217122,
				"z": 2.6837943339,
				"element": "C" 
			},
			{
				"x": -2.9446635156,
				"y": -0.7204142195,
				"z": -2.1668144626,
				"element": "H" 
			},
			{
				"x": -1.5867757632,
				"y": -1.6803288944,
				"z": -1.566271075,
				"element": "H" 
			},
			{
				"x": -3.1155989943,
				"y": -1.6529074728,
				"z": -0.6803828048,
				"element": "H" 
			},
			{
				"x": -2.7693169795,
				"y": 0.8167346771,
				"z": -0.2073520629,
				"element": "H" 
			},
			{
				"x": -1.2823768324,
				"y": 0.7727254435,
				"z": -1.1316569272,
				"element": "H" 
			},
			{
				"x": -0.4637251757,
				"y": -1.0169299032,
				"z": 0.5557673776,
				"element": "H" 
			},
			{
				"x": -2.7836098363,
				"y": 0.0661628599,
				"z": 2.2492865855,
				"element": "H" 
			},
			{
				"x": -1.5979186367,
				"y": -1.1442599656,
				"z": 2.7538810936,
				"element": "H" 
			},
			{
				"x": -2.7437907709,
				"y": -1.5158446797,
				"z": 1.4748759256,
				"element": "H" 
			},
			{
				"x": -1.7990400217,
				"y": 2.1170410482,
				"z": 2.3510839765,
				"element": "H" 
			},
			{
				"x": -0.3549814957,
				"y": 3.0551577127,
				"z": 1.9669982271,
				"element": "H" 
			},
			{
				"x": -1.4924048046,
				"y": 2.6325654671,
				"z": 0.6857127685,
				"element": "H" 
			},
			{
				"x": 1.4301759325,
				"y": 0.3793623265,
				"z": 0.0001449607,
				"element": "H" 
			},
			{
				"x": 0.4760942046,
				"y": 1.7349306968,
				"z": -0.6051229584,
				"element": "H" 
			},
			{
				"x": 1.6137089086,
				"y": 1.9877460705,
				"z": 0.7140875938,
				"element": "H" 
			},
			{
				"x": -0.2847547294,
				"y": 0.4923106198,
				"z": 3.4683180447,
				"element": "H" 
			},
			{
				"x": 1.1053693939,
				"y": 1.4313991815,
				"z": 2.9849849797,
				"element": "H" 
			},
			{
				"x": 2.1590652758,
				"y": -0.6230956146,
				"z": 1.9571100624,
				"element": "H" 
			},
			{
				"x": 1.7963655829,
				"y": -0.8352411401,
				"z": 3.6693819387,
				"element": "H" 
			},
			{
				"x": 0.7625895703,
				"y": -1.5843637211,
				"z": 2.4531771091,
				"element": "H" 
			}
		],
		 "valence_orbital": [ 
			{
				"type": "occ",
				"energy": -0.32816,
				"method": "rhf"
			},
			{
				"type": "occ",
				"energy": -0.32208,
				"method": "rhf"
			},
			{
				"type": "occ",
				"energy": -0.30173,
				"method": "rhf"
			},
			{
				"type": "occ",
				"energy": -0.29379,
				"method": "rhf"
			},
			{
				"type": "occ",
				"energy": -0.2881,
				"method": "rhf"
			},
			{
				"type": "unocc",
				"energy": 0.0767,
				"method": "rhf"
			},
			{
				"type": "unocc",
				"energy": 0.11,
				"method": "rhf"
			},
			{
				"type": "unocc",
				"energy": 0.11155,
				"method": "rhf"
			},
			{
				"type": "unocc",
				"energy": 0.11917,
				"method": "rhf"
			},
			{
				"type": "unocc",
				"energy": 0.12831,
				"method": "rhf"
			}
		],
		"cosmo_sigma_profile": { 
			"-0.025": 0.0,
			"-0.024": 0.0,
			"-0.023": 0.0,
			"-0.022": 0.0,
			"-0.021": 0.0,
			"-0.02": 0.0,
			"-0.019": 0.0,
			"-0.018": 0.0,
			"-0.017": 0.0,
			"-0.016": 0.0,
			"-0.015": 0.0,
			"-0.014": 0.0,
			"-0.013": 0.0,
			"-0.012": 0.0,
			"-0.011": 0.0,
			"-0.01": 0.0,
			"-0.009": 0.0,
			"-0.008": 0.0,
			"-0.007": 0.0,
			"-0.006": 0.0,
			"-0.005": 0.0,
			"-0.004": 0.037282971837,
			"-0.003": 6.5428079299,
			"-0.002": 29.3494263059,
			"-0.001": 45.5035135162,
			"0.0": 43.8349563875,
			"0.001": 45.2679290709,
			"0.002": 33.2849435786,
			"0.003": 3.53875993721,
			"0.004": 0.0,
			"0.005": 0.0,
			"0.006": 0.0,
			"0.007": 0.0,
			"0.008": 0.0,
			"0.009": 0.0,
			"0.01": 0.0,
			"0.011": 0.0,
			"0.012": 0.0,
			"0.013": 0.0,
			"0.014": 0.0,
			"0.015": 0.0,
			"0.016": 0.0,
			"0.017": 0.0,
			"0.018": 0.0,
			"0.019": 0.0,
			"0.02": 0.0,
			"0.021": 0.0,
			"0.022": 0.0,
			"0.023": 0.0,
			"0.024": 0.0,
			"0.025": 0.0
		}
	}
}
