{
	 "smiles": "CC(C)(C)OC(=O)NC(C)(C)C1=NOC(CCl)=N1", 
	 "Tm": 353.15, 
	 "num_atms": 36, 
	 "gaussian": { 
		 "optdone": 1, 
		 "sigma_profile": "yes", 
		 "theory": "DFT", 
		 "functional": "B3LYP", 
		 "basiset": "6-31G**", 
		 "properties": { 
			 "R2extent": 8009.6436, 
			 "electric_dipole_moment_norm": 1.04690370617, 
			 "electric_quadrupole_moment_norm": 23.7146438742, 
			 "total_energy": -1280.1397264, 
			 "HOMO_LUMO_gap": 0.1856, 
			 "cosmo_polarized_energy": -12.82, 
			 "cosmo_cavitation_energy": 40.45, 
			 "cosmo_dispersion_energy": -27.46, 
			 "cosmo_repulsion_energy": 2.16, 
			 "cosmo_total_nonelectrostatic_energy": 15.14, 
			 "SMD_solvation_energy": 6.16 
		},
		"coords": [
			{
				"x": -2.8892544709,
				"y": -0.1842972075,
				"z": -2.8854371201,
				"element": "C" 
			},
			{
				"x": -2.5233327399,
				"y": -1.3139357682,
				"z": -1.9167802364,
				"element": "C" 
			},
			{
				"x": -3.7105789956,
				"y": -1.6571247283,
				"z": -1.0129447001,
				"element": "C" 
			},
			{
				"x": -2.0185318545,
				"y": -2.564169546,
				"z": -2.6449210225,
				"element": "C" 
			},
			{
				"x": -1.509012134,
				"y": -0.8464263701,
				"z": -0.9542695553,
				"element": "O" 
			},
			{
				"x": -0.282944459,
				"y": -0.4542744187,
				"z": -1.380903921,
				"element": "C" 
			},
			{
				"x": 0.0893442537,
				"y": -0.4199064763,
				"z": -2.5432943104,
				"element": "O" 
			},
			{
				"x": 0.5411460688,
				"y": -0.1037629332,
				"z": -0.3422165539,
				"element": "N" 
			},
			{
				"x": 0.2189505066,
				"y": 0.1014911752,
				"z": 1.0801893722,
				"element": "C" 
			},
			{
				"x": -0.2442579424,
				"y": -1.2021998519,
				"z": 1.7579603237,
				"element": "C" 
			},
			{
				"x": -0.8277636212,
				"y": 1.2274949455,
				"z": 1.269488441,
				"element": "C" 
			},
			{
				"x": 1.5182384796,
				"y": 0.5673899617,
				"z": 1.7177449286,
				"element": "C" 
			},
			{
				"x": 1.7802638437,
				"y": 0.4111596884,
				"z": 2.9920426729,
				"element": "N" 
			},
			{
				"x": 3.0294373095,
				"y": 1.0323096118,
				"z": 3.147639232,
				"element": "O" 
			},
			{
				"x": 3.3802147201,
				"y": 1.4908518851,
				"z": 1.9389050037,
				"element": "C" 
			},
			{
				"x": 4.6790852344,
				"y": 2.1987922438,
				"z": 1.7919922534,
				"element": "C" 
			},
			{
				"x": 4.5661789151,
				"y": 3.9207015247,
				"z": 2.3553556001,
				"element": "Cl" 
			},
			{
				"x": 2.4978897746,
				"y": 1.2401505768,
				"z": 1.0165380573,
				"element": "N" 
			},
			{
				"x": -3.7210354097,
				"y": -0.5030403933,
				"z": -3.5221606101,
				"element": "H" 
			},
			{
				"x": -2.0404074324,
				"y": 0.0783386362,
				"z": -3.5164797083,
				"element": "H" 
			},
			{
				"x": -3.2087655679,
				"y": 0.703928744,
				"z": -2.3308396704,
				"element": "H" 
			},
			{
				"x": -4.5479989454,
				"y": -2.0186874626,
				"z": -1.6170347025,
				"element": "H" 
			},
			{
				"x": -4.0433006744,
				"y": -0.7759415261,
				"z": -0.4562870399,
				"element": "H" 
			},
			{
				"x": -3.4409920626,
				"y": -2.438560653,
				"z": -0.2962250926,
				"element": "H" 
			},
			{
				"x": -2.8195393327,
				"y": -2.9721487063,
				"z": -3.2700355588,
				"element": "H" 
			},
			{
				"x": -1.7273419212,
				"y": -3.3330913597,
				"z": -1.9221874834,
				"element": "H" 
			},
			{
				"x": -1.1619423036,
				"y": -2.3285482318,
				"z": -3.2762799525,
				"element": "H" 
			},
			{
				"x": 1.3977532663,
				"y": 0.3260700823,
				"z": -0.6665384917,
				"element": "H" 
			},
			{
				"x": -1.1947488314,
				"y": -1.5218649454,
				"z": 1.33243527,
				"element": "H" 
			},
			{
				"x": 0.4952183321,
				"y": -1.9923843072,
				"z": 1.6041047792,
				"element": "H" 
			},
			{
				"x": -0.3643545259,
				"y": -1.0450481558,
				"z": 2.8323542871,
				"element": "H" 
			},
			{
				"x": -1.7597577631,
				"y": 0.9414582698,
				"z": 0.7789254088,
				"element": "H" 
			},
			{
				"x": -1.020638805,
				"y": 1.3938250254,
				"z": 2.3331486017,
				"element": "H" 
			},
			{
				"x": -0.4693662687,
				"y": 2.1618964422,
				"z": 0.8279024808,
				"element": "H" 
			},
			{
				"x": 5.4539903858,
				"y": 1.7207221608,
				"z": 2.3909504332,
				"element": "H" 
			},
			{
				"x": 4.9616549711,
				"y": 2.2168320674,
				"z": 0.7411585841,
				"element": "H" 
			}
		],
		 "valence_orbital": [ 
			{
				"type": "occ",
				"energy": -0.31628,
				"method": "rhf"
			},
			{
				"type": "occ",
				"energy": -0.3042,
				"method": "rhf"
			},
			{
				"type": "occ",
				"energy": -0.28832,
				"method": "rhf"
			},
			{
				"type": "occ",
				"energy": -0.26105,
				"method": "rhf"
			},
			{
				"type": "occ",
				"energy": -0.25032,
				"method": "rhf"
			},
			{
				"type": "unocc",
				"energy": -0.06472,
				"method": "rhf"
			},
			{
				"type": "unocc",
				"energy": 0.00208,
				"method": "rhf"
			},
			{
				"type": "unocc",
				"energy": 0.03806,
				"method": "rhf"
			},
			{
				"type": "unocc",
				"energy": 0.05478,
				"method": "rhf"
			},
			{
				"type": "unocc",
				"energy": 0.0643,
				"method": "rhf"
			}
		],
		"cosmo_sigma_profile": { 
			"-0.025": 0.0,
			"-0.024": 0.0,
			"-0.023": 0.0,
			"-0.022": 0.0,
			"-0.021": 0.0,
			"-0.02": 0.0,
			"-0.019": 0.0,
			"-0.018": 0.0,
			"-0.017": 0.0,
			"-0.016": 0.0,
			"-0.015": 0.0,
			"-0.014": 0.0,
			"-0.013": 0.0,
			"-0.012": 0.0,
			"-0.011": 0.52518704945,
			"-0.01": 4.69857542147,
			"-0.009": 4.26262028452,
			"-0.008": 4.98690842227,
			"-0.007": 5.40141577482,
			"-0.006": 4.21907384463,
			"-0.005": 6.01013921256,
			"-0.004": 22.0894928535,
			"-0.003": 30.3397696574,
			"-0.002": 33.8581726042,
			"-0.001": 37.7851205055,
			"0.0": 46.5867207907,
			"0.001": 32.5767303561,
			"0.002": 14.4142915039,
			"0.003": 12.6381292574,
			"0.004": 13.8366730874,
			"0.005": 16.7951930728,
			"0.006": 6.24284797001,
			"0.007": 3.01806306225,
			"0.008": 3.30171344598,
			"0.009": 3.77874784117,
			"0.01": 2.63799758968,
			"0.011": 2.11153975068,
			"0.012": 2.25013621213,
			"0.013": 3.11947099139,
			"0.014": 2.27357145041,
			"0.015": 0.00958094578309,
			"0.016": 0.0,
			"0.017": 0.0,
			"0.018": 0.0,
			"0.019": 0.0,
			"0.02": 0.0,
			"0.021": 0.0,
			"0.022": 0.0,
			"0.023": 0.0,
			"0.024": 0.0,
			"0.025": 0.0
		}
	}
}
