{
	 "smiles": "FC1=C(F)C(F)=C(F)C2=C1C(=O)OC2=O", 
	 "Tm": 368.15, 
	 "num_atms": 15, 
	 "gaussian": { 
		 "optdone": 1, 
		 "sigma_profile": "yes", 
		 "theory": "DFT", 
		 "functional": "B3LYP", 
		 "basiset": "6-31G**", 
		 "properties": { 
			 "R2extent": 3087.3604, 
			 "electric_dipole_moment_norm": 3.3547056473, 
			 "electric_quadrupole_moment_norm": 13.0576191471, 
			 "total_energy": -929.835767435, 
			 "HOMO_LUMO_gap": 0.18059, 
			 "cosmo_polarized_energy": -10.2, 
			 "cosmo_cavitation_energy": 23.95, 
			 "cosmo_dispersion_energy": -16.95, 
			 "cosmo_repulsion_energy": 1.22, 
			 "cosmo_total_nonelectrostatic_energy": 8.22, 
			 "SMD_solvation_energy": 8.03 
		},
		"coords": [
			{
				"x": -2.6815715032,
				"y": -0.4644233904,
				"z": 1.6823675802,
				"element": "F" 
			},
			{
				"x": -1.4970560488,
				"y": -0.3159704009,
				"z": 1.0997116401,
				"element": "C" 
			},
			{
				"x": -1.2693704883,
				"y": -0.9137869963,
				"z": -0.1471676042,
				"element": "C" 
			},
			{
				"x": -2.233230453,
				"y": -1.6192930375,
				"z": -0.7325537277,
				"element": "F" 
			},
			{
				"x": -0.0362895728,
				"y": -0.7806804357,
				"z": -0.7923549688,
				"element": "C" 
			},
			{
				"x": 0.1414855253,
				"y": -1.3630122605,
				"z": -1.9750352242,
				"element": "F" 
			},
			{
				"x": 1.0049057495,
				"y": -0.0457943921,
				"z": -0.2094528626,
				"element": "C" 
			},
			{
				"x": 2.1626328168,
				"y": 0.0586932656,
				"z": -0.8523783491,
				"element": "F" 
			},
			{
				"x": 0.7708439853,
				"y": 0.5414942321,
				"z": 1.0227542019,
				"element": "C" 
			},
			{
				"x": -0.4624599179,
				"y": 0.4082894365,
				"z": 1.6681066889,
				"element": "C" 
			},
			{
				"x": -0.3833867691,
				"y": 1.1485451792,
				"z": 2.9526224136,
				"element": "C" 
			},
			{
				"x": -1.1973906507,
				"y": 1.3011810704,
				"z": 3.8158466656,
				"element": "O" 
			},
			{
				"x": 0.9000482885,
				"y": 1.6960295891,
				"z": 3.0229165395,
				"element": "O" 
			},
			{
				"x": 1.6481983543,
				"y": 1.368074623,
				"z": 1.8895112482,
				"element": "C" 
			},
			{
				"x": 2.7777406841,
				"y": 1.7307535176,
				"z": 1.7357057587,
				"element": "O" 
			}
		],
		 "valence_orbital": [ 
			{
				"type": "occ",
				"energy": -0.35004,
				"method": "rhf"
			},
			{
				"type": "occ",
				"energy": -0.3347,
				"method": "rhf"
			},
			{
				"type": "occ",
				"energy": -0.30742,
				"method": "rhf"
			},
			{
				"type": "occ",
				"energy": -0.30711,
				"method": "rhf"
			},
			{
				"type": "occ",
				"energy": -0.29718,
				"method": "rhf"
			},
			{
				"type": "unocc",
				"energy": -0.11659,
				"method": "rhf"
			},
			{
				"type": "unocc",
				"energy": -0.07297,
				"method": "rhf"
			},
			{
				"type": "unocc",
				"energy": -0.00084,
				"method": "rhf"
			},
			{
				"type": "unocc",
				"energy": 0.00093,
				"method": "rhf"
			},
			{
				"type": "unocc",
				"energy": 0.03645,
				"method": "rhf"
			}
		],
		"cosmo_sigma_profile": { 
			"-0.025": 0.0,
			"-0.024": 0.0,
			"-0.023": 0.0,
			"-0.022": 0.0,
			"-0.021": 0.0,
			"-0.02": 0.0,
			"-0.019": 0.0,
			"-0.018": 0.0,
			"-0.017": 0.0,
			"-0.016": 0.0,
			"-0.015": 0.0,
			"-0.014": 0.0,
			"-0.013": 0.0,
			"-0.012": 0.0,
			"-0.011": 0.716892783961,
			"-0.01": 1.3365028584,
			"-0.009": 2.04193013244,
			"-0.008": 4.29299834237,
			"-0.007": 10.0502996232,
			"-0.006": 19.4317856459,
			"-0.005": 12.8241818132,
			"-0.004": 6.61548770957,
			"-0.003": 7.75742080289,
			"-0.002": 8.57905831607,
			"-0.001": 7.35589987242,
			"0.0": 9.74899160555,
			"0.001": 33.3987098634,
			"0.002": 22.3038801725,
			"0.003": 5.57771137141,
			"0.004": 4.54235410422,
			"0.005": 7.32913821679,
			"0.006": 7.36283622844,
			"0.007": 6.06882572284,
			"0.008": 8.87589604572,
			"0.009": 8.70746834144,
			"0.01": 1.41905978436,
			"0.011": 0.0,
			"0.012": 0.0,
			"0.013": 0.0,
			"0.014": 0.0,
			"0.015": 0.0,
			"0.016": 0.0,
			"0.017": 0.0,
			"0.018": 0.0,
			"0.019": 0.0,
			"0.02": 0.0,
			"0.021": 0.0,
			"0.022": 0.0,
			"0.023": 0.0,
			"0.024": 0.0,
			"0.025": 0.0
		}
	}
}
