{
	 "smiles": "COC1=CC(C=O)=CC(OC)=C1OC(C)=O", 
	 "Tm": 389.15, 
	 "num_atms": 28, 
	 "gaussian": { 
		 "optdone": 1, 
		 "sigma_profile": "yes", 
		 "theory": "DFT", 
		 "functional": "B3LYP", 
		 "basiset": "6-31G**", 
		 "properties": { 
			 "R2extent": 4216.476, 
			 "electric_dipole_moment_norm": 2.91205946711, 
			 "electric_quadrupole_moment_norm": 22.7722549775, 
			 "total_energy": -802.492578367, 
			 "HOMO_LUMO_gap": 0.17067, 
			 "cosmo_polarized_energy": -15.84, 
			 "cosmo_cavitation_energy": 33.49, 
			 "cosmo_dispersion_energy": -22.94, 
			 "cosmo_repulsion_energy": 1.83, 
			 "cosmo_total_nonelectrostatic_energy": 12.38, 
			 "SMD_solvation_energy": 9.7 
		},
		"coords": [
			{
				"x": -3.9422086983,
				"y": -1.1126465476,
				"z": -1.3855868918,
				"element": "C" 
			},
			{
				"x": -2.8173400354,
				"y": -0.2607681392,
				"z": -1.2204364778,
				"element": "O" 
			},
			{
				"x": -2.0340151941,
				"y": -0.4440388743,
				"z": -0.1254670247,
				"element": "C" 
			},
			{
				"x": -2.2649236218,
				"y": -1.3809258393,
				"z": 0.8875651972,
				"element": "C" 
			},
			{
				"x": -1.3696441716,
				"y": -1.4664185476,
				"z": 1.9596989402,
				"element": "C" 
			},
			{
				"x": -1.6209050592,
				"y": -2.4596075526,
				"z": 3.0273625282,
				"element": "C" 
			},
			{
				"x": -0.9164512991,
				"y": -2.6177577514,
				"z": 4.0068116081,
				"element": "O" 
			},
			{
				"x": -0.2456896536,
				"y": -0.6365333896,
				"z": 2.0454567199,
				"element": "C" 
			},
			{
				"x": -0.0105529054,
				"y": 0.2984485546,
				"z": 1.0368843254,
				"element": "C" 
			},
			{
				"x": 1.0407253731,
				"y": 1.1556204634,
				"z": 0.990949892,
				"element": "O" 
			},
			{
				"x": 2.0071222418,
				"y": 1.0755510175,
				"z": 2.0317114675,
				"element": "C" 
			},
			{
				"x": -0.9151367998,
				"y": 0.3960732679,
				"z": -0.0348450818,
				"element": "C" 
			},
			{
				"x": -0.7227712425,
				"y": 1.3740497027,
				"z": -0.994720999,
				"element": "O" 
			},
			{
				"x": 0.0242310968,
				"y": 1.0367444448,
				"z": -2.1017953874,
				"element": "C" 
			},
			{
				"x": 0.12839785,
				"y": 2.2246158484,
				"z": -3.0224326444,
				"element": "C" 
			},
			{
				"x": 0.5054887195,
				"y": -0.0530524889,
				"z": -2.2732542778,
				"element": "O" 
			},
			{
				"x": -4.6632058494,
				"y": -0.9919739539,
				"z": -0.5672021439,
				"element": "H" 
			},
			{
				"x": -4.4102050403,
				"y": -0.8106969411,
				"z": -2.3233215024,
				"element": "H" 
			},
			{
				"x": -3.6429119303,
				"y": -2.1658632815,
				"z": -1.4530103681,
				"element": "H" 
			},
			{
				"x": -3.1211515181,
				"y": -2.0449848463,
				"z": 0.8530096494,
				"element": "H" 
			},
			{
				"x": -2.5324092371,
				"y": -3.0801470295,
				"z": 2.874953816,
				"element": "H" 
			},
			{
				"x": 0.4130406929,
				"y": -0.7538845606,
				"z": 2.8964114558,
				"element": "H" 
			},
			{
				"x": 2.4765666385,
				"y": 0.0852488512,
				"z": 2.0673655298,
				"element": "H" 
			},
			{
				"x": 1.5641164293,
				"y": 1.3012335116,
				"z": 3.009356778,
				"element": "H" 
			},
			{
				"x": 2.7620344597,
				"y": 1.8262589005,
				"z": 1.7950808749,
				"element": "H" 
			},
			{
				"x": -0.8713275204,
				"y": 2.5506950547,
				"z": -3.3234300037,
				"element": "H" 
			},
			{
				"x": 0.7143637282,
				"y": 1.9529376945,
				"z": -3.899644043,
				"element": "H" 
			},
			{
				"x": 0.6014625463,
				"y": 3.0599224313,
				"z": -2.4980719364,
				"element": "H" 
			}
		],
		 "valence_orbital": [ 
			{
				"type": "occ",
				"energy": -0.30982,
				"method": "rhf"
			},
			{
				"type": "occ",
				"energy": -0.27558,
				"method": "rhf"
			},
			{
				"type": "occ",
				"energy": -0.25472,
				"method": "rhf"
			},
			{
				"type": "occ",
				"energy": -0.23354,
				"method": "rhf"
			},
			{
				"type": "occ",
				"energy": -0.23142,
				"method": "rhf"
			},
			{
				"type": "unocc",
				"energy": -0.06075,
				"method": "rhf"
			},
			{
				"type": "unocc",
				"energy": 0.00743,
				"method": "rhf"
			},
			{
				"type": "unocc",
				"energy": 0.01072,
				"method": "rhf"
			},
			{
				"type": "unocc",
				"energy": 0.04537,
				"method": "rhf"
			},
			{
				"type": "unocc",
				"energy": 0.07709,
				"method": "rhf"
			}
		],
		"cosmo_sigma_profile": { 
			"-0.025": 0.0,
			"-0.024": 0.0,
			"-0.023": 0.0,
			"-0.022": 0.0,
			"-0.021": 0.0,
			"-0.02": 0.0,
			"-0.019": 0.0,
			"-0.018": 0.0,
			"-0.017": 0.0,
			"-0.016": 0.0,
			"-0.015": 0.0,
			"-0.014": 0.0,
			"-0.013": 0.0,
			"-0.012": 0.0,
			"-0.011": 0.0,
			"-0.01": 0.0,
			"-0.009": 0.221420999667,
			"-0.008": 2.96385259424,
			"-0.007": 9.94120147727,
			"-0.006": 25.0100452582,
			"-0.005": 27.2604681861,
			"-0.004": 26.0501587551,
			"-0.003": 24.5858406291,
			"-0.002": 18.2691675753,
			"-0.001": 11.2219631949,
			"0.0": 10.2504686769,
			"0.001": 14.5828062929,
			"0.002": 16.2297606461,
			"0.003": 11.7698493556,
			"0.004": 7.29504880498,
			"0.005": 9.92314432653,
			"0.006": 9.07062978347,
			"0.007": 7.84978249345,
			"0.008": 7.17644204422,
			"0.009": 5.99631817673,
			"0.01": 6.33949463793,
			"0.011": 9.48179678291,
			"0.012": 4.22093460569,
			"0.013": 0.607046820654,
			"0.014": 0.0,
			"0.015": 0.0,
			"0.016": 0.0,
			"0.017": 0.0,
			"0.018": 0.0,
			"0.019": 0.0,
			"0.02": 0.0,
			"0.021": 0.0,
			"0.022": 0.0,
			"0.023": 0.0,
			"0.024": 0.0,
			"0.025": 0.0
		}
	}
}
