{
	 "smiles": "CC1=C(N)C=C(Br)C=C1", 
	 "Tm": 305.15, 
	 "num_atms": 17, 
	 "gaussian": { 
		 "optdone": 1, 
		 "sigma_profile": "yes", 
		 "theory": "DFT", 
		 "functional": "B3LYP", 
		 "basiset": "6-31G**", 
		 "properties": { 
			 "R2extent": 4542.8511, 
			 "electric_dipole_moment_norm": 3.30333080844, 
			 "electric_quadrupole_moment_norm": 11.4111388008, 
			 "total_energy": -2897.73309301, 
			 "HOMO_LUMO_gap": 0.20487, 
			 "cosmo_polarized_energy": -8.38, 
			 "cosmo_cavitation_energy": 22.58, 
			 "cosmo_dispersion_energy": -17.31, 
			 "cosmo_repulsion_energy": 1.42, 
			 "cosmo_total_nonelectrostatic_energy": 6.69, 
			 "SMD_solvation_energy": 2.66 
		},
		"coords": [
			{
				"x": 0.2454415542,
				"y": -0.632278347,
				"z": -1.0517271711,
				"element": "C" 
			},
			{
				"x": 0.4223520491,
				"y": 0.5399981082,
				"z": -0.1196955652,
				"element": "C" 
			},
			{
				"x": -0.6459850926,
				"y": 1.4410888324,
				"z": 0.101809478,
				"element": "C" 
			},
			{
				"x": -1.884198442,
				"y": 1.2268866656,
				"z": -0.5058987672,
				"element": "N" 
			},
			{
				"x": -0.4748760588,
				"y": 2.5209091385,
				"z": 0.9829464755,
				"element": "C" 
			},
			{
				"x": 0.7413283868,
				"y": 2.6957567581,
				"z": 1.6332470467,
				"element": "C" 
			},
			{
				"x": 0.9440797865,
				"y": 4.177538622,
				"z": 2.8303284075,
				"element": "Br" 
			},
			{
				"x": 1.8100609363,
				"y": 1.8286060918,
				"z": 1.4315693073,
				"element": "C" 
			},
			{
				"x": 1.6261708806,
				"y": 0.7601245221,
				"z": 0.5513405478,
				"element": "C" 
			},
			{
				"x": -0.6008604053,
				"y": -1.2616411816,
				"z": -0.749344008,
				"element": "H" 
			},
			{
				"x": 1.1407549397,
				"y": -1.2584970099,
				"z": -1.0688113261,
				"element": "H" 
			},
			{
				"x": 0.0551775158,
				"y": -0.313130631,
				"z": -2.0867383663,
				"element": "H" 
			},
			{
				"x": -1.8580078876,
				"y": 0.7581679888,
				"z": -1.4004349649,
				"element": "H" 
			},
			{
				"x": -2.4992435692,
				"y": 2.0287070803,
				"z": -0.517858951,
				"element": "H" 
			},
			{
				"x": -1.2909921374,
				"y": 3.2143152428,
				"z": 1.1579182031,
				"element": "H" 
			},
			{
				"x": 2.7527217189,
				"y": 1.9782186439,
				"z": 1.9434411661,
				"element": "H" 
			},
			{
				"x": 2.4498758251,
				"y": 0.0706294751,
				"z": 0.3833084878,
				"element": "H" 
			}
		],
		 "valence_orbital": [ 
			{
				"type": "occ",
				"energy": -0.32925,
				"method": "rhf"
			},
			{
				"type": "occ",
				"energy": -0.2876,
				"method": "rhf"
			},
			{
				"type": "occ",
				"energy": -0.27815,
				"method": "rhf"
			},
			{
				"type": "occ",
				"energy": -0.23493,
				"method": "rhf"
			},
			{
				"type": "occ",
				"energy": -0.20702,
				"method": "rhf"
			},
			{
				"type": "unocc",
				"energy": -0.00215,
				"method": "rhf"
			},
			{
				"type": "unocc",
				"energy": 0.00982,
				"method": "rhf"
			},
			{
				"type": "unocc",
				"energy": 0.01553,
				"method": "rhf"
			},
			{
				"type": "unocc",
				"energy": 0.07059,
				"method": "rhf"
			},
			{
				"type": "unocc",
				"energy": 0.10743,
				"method": "rhf"
			}
		],
		"cosmo_sigma_profile": { 
			"-0.025": 0.0,
			"-0.024": 0.0,
			"-0.023": 0.0,
			"-0.022": 0.0,
			"-0.021": 0.0,
			"-0.02": 0.0,
			"-0.019": 0.0,
			"-0.018": 0.0,
			"-0.017": 0.0,
			"-0.016": 0.0,
			"-0.015": 0.0,
			"-0.014": 0.0,
			"-0.013": 0.425679022824,
			"-0.012": 2.06357435444,
			"-0.011": 3.03293725245,
			"-0.01": 2.81724535277,
			"-0.009": 3.63597893736,
			"-0.008": 2.43608083814,
			"-0.007": 3.56728539028,
			"-0.006": 5.11525779782,
			"-0.005": 9.30744500741,
			"-0.004": 11.7445129383,
			"-0.003": 11.8434859141,
			"-0.002": 10.5008340622,
			"-0.001": 12.0668130632,
			"0.0": 13.77897664,
			"0.001": 11.3161227347,
			"0.002": 10.2013405001,
			"0.003": 15.5353981201,
			"0.004": 18.3057727386,
			"0.005": 23.0262462023,
			"0.006": 6.47207365143,
			"0.007": 0.46661682875,
			"0.008": 1.02142956847,
			"0.009": 0.790507171226,
			"0.01": 0.528433771572,
			"0.011": 0.848300900525,
			"0.012": 0.654192794685,
			"0.013": 0.359553868167,
			"0.014": 0.441794000359,
			"0.015": 0.0295751626931,
			"0.016": 0.0,
			"0.017": 0.0,
			"0.018": 0.0,
			"0.019": 0.0,
			"0.02": 0.0,
			"0.021": 0.0,
			"0.022": 0.0,
			"0.023": 0.0,
			"0.024": 0.0,
			"0.025": 0.0
		}
	}
}
