{
	 "smiles": "NNC1=CC=CC2=CC=CC=C12", 
	 "Tm": 390.15, 
	 "num_atms": 22, 
	 "gaussian": { 
		 "optdone": 1, 
		 "sigma_profile": "yes", 
		 "theory": "DFT", 
		 "functional": "B3LYP", 
		 "basiset": "6-31G**", 
		 "properties": { 
			 "R2extent": 2181.8483, 
			 "electric_dipole_moment_norm": 1.20967334847, 
			 "electric_quadrupole_moment_norm": 9.33731023743, 
			 "total_energy": -496.563986257, 
			 "HOMO_LUMO_gap": 0.16529, 
			 "cosmo_polarized_energy": -9.66, 
			 "cosmo_cavitation_energy": 25.0, 
			 "cosmo_dispersion_energy": -18.64, 
			 "cosmo_repulsion_energy": 1.46, 
			 "cosmo_total_nonelectrostatic_energy": 7.82, 
			 "SMD_solvation_energy": 4.24 
		},
		"coords": [
			{
				"x": -2.8169894435,
				"y": -2.7207445461,
				"z": -0.8765133612,
				"element": "N" 
			},
			{
				"x": -2.6888489992,
				"y": -1.4090969557,
				"z": -1.4534249359,
				"element": "N" 
			},
			{
				"x": -1.4247642983,
				"y": -0.7749910542,
				"z": -1.3155356036,
				"element": "C" 
			},
			{
				"x": -0.5871558444,
				"y": -0.612905717,
				"z": -2.4048792028,
				"element": "C" 
			},
			{
				"x": 0.6724112386,
				"y": 0.0165501858,
				"z": -2.27346078,
				"element": "C" 
			},
			{
				"x": 1.1078056114,
				"y": 0.4523783079,
				"z": -1.0440773399,
				"element": "C" 
			},
			{
				"x": 0.274416641,
				"y": 0.3229426747,
				"z": 0.1007378805,
				"element": "C" 
			},
			{
				"x": 0.6833490807,
				"y": 0.7944406344,
				"z": 1.3779223423,
				"element": "C" 
			},
			{
				"x": -0.1560020669,
				"y": 0.7178347174,
				"z": 2.4662214222,
				"element": "C" 
			},
			{
				"x": -1.4579113844,
				"y": 0.1825232208,
				"z": 2.3202698725,
				"element": "C" 
			},
			{
				"x": -1.8805337619,
				"y": -0.2971974112,
				"z": 1.0998986823,
				"element": "C" 
			},
			{
				"x": -1.0247747404,
				"y": -0.2676948609,
				"z": -0.0336750472,
				"element": "C" 
			},
			{
				"x": -3.1144808434,
				"y": -2.613127908,
				"z": 0.0887448856,
				"element": "H" 
			},
			{
				"x": -1.9053573651,
				"y": -3.1817288578,
				"z": -0.8562342798,
				"element": "H" 
			},
			{
				"x": -2.9375600669,
				"y": -1.4953727071,
				"z": -2.433018974,
				"element": "H" 
			},
			{
				"x": -0.897711945,
				"y": -0.9943781024,
				"z": -3.3749425423,
				"element": "H" 
			},
			{
				"x": 1.305193752,
				"y": 0.1268822588,
				"z": -3.1494274292,
				"element": "H" 
			},
			{
				"x": 2.0861820443,
				"y": 0.9117287951,
				"z": -0.9326559537,
				"element": "H" 
			},
			{
				"x": 1.6745046516,
				"y": 1.2297374072,
				"z": 1.4773588033,
				"element": "H" 
			},
			{
				"x": 0.1707784439,
				"y": 1.0855254545,
				"z": 3.4346764897,
				"element": "H" 
			},
			{
				"x": -2.1302805316,
				"y": 0.1622813146,
				"z": 3.173191338,
				"element": "H" 
			},
			{
				"x": -2.8945701724,
				"y": -0.6627868509,
				"z": 0.9796237331,
				"element": "H" 
			}
		],
		 "valence_orbital": [ 
			{
				"type": "occ",
				"energy": -0.2963,
				"method": "rhf"
			},
			{
				"type": "occ",
				"energy": -0.25948,
				"method": "rhf"
			},
			{
				"type": "occ",
				"energy": -0.24632,
				"method": "rhf"
			},
			{
				"type": "occ",
				"energy": -0.24211,
				"method": "rhf"
			},
			{
				"type": "occ",
				"energy": -0.20244,
				"method": "rhf"
			},
			{
				"type": "unocc",
				"energy": -0.03715,
				"method": "rhf"
			},
			{
				"type": "unocc",
				"energy": -0.0087,
				"method": "rhf"
			},
			{
				"type": "unocc",
				"energy": 0.03071,
				"method": "rhf"
			},
			{
				"type": "unocc",
				"energy": 0.08705,
				"method": "rhf"
			},
			{
				"type": "unocc",
				"energy": 0.09531,
				"method": "rhf"
			}
		],
		"cosmo_sigma_profile": { 
			"-0.025": 0.0,
			"-0.024": 0.0,
			"-0.023": 0.0,
			"-0.022": 0.0,
			"-0.021": 0.0,
			"-0.02": 0.0,
			"-0.019": 0.0,
			"-0.018": 0.0,
			"-0.017": 0.0,
			"-0.016": 0.0,
			"-0.015": 0.0,
			"-0.014": 0.0,
			"-0.013": 0.0,
			"-0.012": 0.579292722549,
			"-0.011": 1.48422675646,
			"-0.01": 3.45564570573,
			"-0.009": 4.32075979576,
			"-0.008": 4.84477882884,
			"-0.007": 4.36619444711,
			"-0.006": 9.62734430638,
			"-0.005": 15.5421594486,
			"-0.004": 16.1813720564,
			"-0.003": 16.5308002391,
			"-0.002": 9.83826324146,
			"-0.001": 10.5741679646,
			"0.0": 9.19244406586,
			"0.001": 9.20818808741,
			"0.002": 10.4207703078,
			"0.003": 12.1835308875,
			"0.004": 19.2493500059,
			"0.005": 20.6587732136,
			"0.006": 7.46281012503,
			"0.007": 1.3621346579,
			"0.008": 1.78186264841,
			"0.009": 2.18318030048,
			"0.01": 1.28752476063,
			"0.011": 1.34704385946,
			"0.012": 1.29010380589,
			"0.013": 0.872755869989,
			"0.014": 0.840104868856,
			"0.015": 0.865484292163,
			"0.016": 0.523870630411,
			"0.017": 0.605680978152,
			"0.018": 0.34395863751,
			"0.019": 0.0,
			"0.02": 0.0,
			"0.021": 0.0,
			"0.022": 0.0,
			"0.023": 0.0,
			"0.024": 0.0,
			"0.025": 0.0
		}
	}
}
