{
	 "smiles": "COCCN(C)S(N)(=O)=O", 
	 "Tm": 308.15, 
	 "num_atms": 22, 
	 "gaussian": { 
		 "optdone": 1, 
		 "sigma_profile": "yes", 
		 "theory": "DFT", 
		 "functional": "B3LYP", 
		 "basiset": "6-31G**", 
		 "properties": { 
			 "R2extent": 2873.6297, 
			 "electric_dipole_moment_norm": 5.18299271174, 
			 "electric_quadrupole_moment_norm": 17.756696195, 
			 "total_energy": -892.920748334, 
			 "HOMO_LUMO_gap": 0.29486, 
			 "cosmo_polarized_energy": -18.59, 
			 "cosmo_cavitation_energy": 26.2, 
			 "cosmo_dispersion_energy": -19.42, 
			 "cosmo_repulsion_energy": 1.55, 
			 "cosmo_total_nonelectrostatic_energy": 8.34, 
			 "SMD_solvation_energy": 4.07 
		},
		"coords": [
			{
				"x": -0.959099212,
				"y": 3.2901604333,
				"z": -0.675707351,
				"element": "C" 
			},
			{
				"x": -0.5791348252,
				"y": 2.0903415455,
				"z": -0.0368808166,
				"element": "O" 
			},
			{
				"x": -0.3988825044,
				"y": 1.0185345013,
				"z": -0.9408588624,
				"element": "C" 
			},
			{
				"x": -0.0804459645,
				"y": -0.2186419526,
				"z": -0.1068447679,
				"element": "C" 
			},
			{
				"x": 0.281130614,
				"y": -1.3704372372,
				"z": -0.9695375524,
				"element": "N" 
			},
			{
				"x": 1.5348583494,
				"y": -2.0471278501,
				"z": -0.6094552142,
				"element": "C" 
			},
			{
				"x": -1.0047139588,
				"y": -2.4437893446,
				"z": -1.2865974313,
				"element": "S" 
			},
			{
				"x": -0.6519652423,
				"y": -3.0580661847,
				"z": -2.8006877947,
				"element": "N" 
			},
			{
				"x": -0.9637837501,
				"y": -3.5959451294,
				"z": -0.3865687077,
				"element": "O" 
			},
			{
				"x": -2.1884480587,
				"y": -1.6032847501,
				"z": -1.4119357751,
				"element": "O" 
			},
			{
				"x": -1.0803579007,
				"y": 4.048558298,
				"z": 0.1015761661,
				"element": "H" 
			},
			{
				"x": -1.9111216821,
				"y": 3.18058812,
				"z": -1.2179643715,
				"element": "H" 
			},
			{
				"x": -0.1939655051,
				"y": 3.6339203348,
				"z": -1.3903501599,
				"element": "H" 
			},
			{
				"x": -1.3050565905,
				"y": 0.8423780399,
				"z": -1.5380679389,
				"element": "H" 
			},
			{
				"x": 0.4330637429,
				"y": 1.2214988776,
				"z": -1.6372310146,
				"element": "H" 
			},
			{
				"x": 0.7788785163,
				"y": -0.0005101594,
				"z": 0.5334475345,
				"element": "H" 
			},
			{
				"x": -0.9238350872,
				"y": -0.4443285957,
				"z": 0.5524145054,
				"element": "H" 
			},
			{
				"x": 1.7782374094,
				"y": -2.8010756399,
				"z": -1.362784006,
				"element": "H" 
			},
			{
				"x": 2.3360182056,
				"y": -1.3043811855,
				"z": -0.6151302804,
				"element": "H" 
			},
			{
				"x": 1.493100322,
				"y": -2.5348608637,
				"z": 0.3723180457,
				"element": "H" 
			},
			{
				"x": -0.4235582089,
				"y": -2.3400742425,
				"z": -3.4797177682,
				"element": "H" 
			},
			{
				"x": 0.0113813309,
				"y": -3.8237570147,
				"z": -2.7728364389,
				"element": "H" 
			}
		],
		 "valence_orbital": [ 
			{
				"type": "occ",
				"energy": -0.32139,
				"method": "rhf"
			},
			{
				"type": "occ",
				"energy": -0.31112,
				"method": "rhf"
			},
			{
				"type": "occ",
				"energy": -0.303,
				"method": "rhf"
			},
			{
				"type": "occ",
				"energy": -0.2575,
				"method": "rhf"
			},
			{
				"type": "occ",
				"energy": -0.25424,
				"method": "rhf"
			},
			{
				"type": "unocc",
				"energy": 0.04062,
				"method": "rhf"
			},
			{
				"type": "unocc",
				"energy": 0.07351,
				"method": "rhf"
			},
			{
				"type": "unocc",
				"energy": 0.08195,
				"method": "rhf"
			},
			{
				"type": "unocc",
				"energy": 0.08827,
				"method": "rhf"
			},
			{
				"type": "unocc",
				"energy": 0.09304,
				"method": "rhf"
			}
		],
		"cosmo_sigma_profile": { 
			"-0.025": 0.0,
			"-0.024": 0.0,
			"-0.023": 0.0,
			"-0.022": 0.0,
			"-0.021": 0.0,
			"-0.02": 0.0,
			"-0.019": 0.0,
			"-0.018": 0.0,
			"-0.017": 0.0,
			"-0.016": 0.0650527504507,
			"-0.015": 2.13324797854,
			"-0.014": 2.40935367996,
			"-0.013": 2.40793250729,
			"-0.012": 3.11936095359,
			"-0.011": 2.28228387054,
			"-0.01": 2.67783736824,
			"-0.009": 1.6389235682,
			"-0.008": 1.75096109811,
			"-0.007": 3.31818851684,
			"-0.006": 6.755533768,
			"-0.005": 10.5344881175,
			"-0.004": 17.7306028395,
			"-0.003": 26.7736873619,
			"-0.002": 23.3533021269,
			"-0.001": 11.8333157784,
			"0.0": 8.14935273157,
			"0.001": 6.8145871444,
			"0.002": 4.87545651737,
			"0.003": 5.71455851081,
			"0.004": 5.31154359612,
			"0.005": 5.86460695456,
			"0.006": 6.02592422138,
			"0.007": 4.83330078231,
			"0.008": 6.08464014286,
			"0.009": 4.89499146697,
			"0.01": 8.52605489139,
			"0.011": 11.9280810714,
			"0.012": 5.83491918489,
			"0.013": 0.579838317972,
			"0.014": 0.0,
			"0.015": 0.0,
			"0.016": 0.0,
			"0.017": 0.0,
			"0.018": 0.0,
			"0.019": 0.0,
			"0.02": 0.0,
			"0.021": 0.0,
			"0.022": 0.0,
			"0.023": 0.0,
			"0.024": 0.0,
			"0.025": 0.0
		}
	}
}
