{
	 "smiles": "NNC(=O)COC1=CC=CC=C1CSC1=CC=C(Cl)C=C1", 
	 "Tm": 393.15, 
	 "num_atms": 36, 
	 "gaussian": { 
		 "optdone": 1, 
		 "sigma_profile": "yes", 
		 "theory": "DFT", 
		 "functional": "B3LYP", 
		 "basiset": "6-31G**", 
		 "properties": { 
			 "R2extent": 8384.1338, 
			 "electric_dipole_moment_norm": 7.18179042927, 
			 "electric_quadrupole_moment_norm": 32.5714195389, 
			 "total_energy": -1698.9317301, 
			 "HOMO_LUMO_gap": 0.19403, 
			 "cosmo_polarized_energy": -22.32, 
			 "cosmo_cavitation_energy": 43.41, 
			 "cosmo_dispersion_energy": -29.6, 
			 "cosmo_repulsion_energy": 2.3, 
			 "cosmo_total_nonelectrostatic_energy": 16.1, 
			 "SMD_solvation_energy": 7.79 
		},
		"coords": [
			{
				"x": 3.2899719575,
				"y": 1.4092444634,
				"z": 4.4355520037,
				"element": "N" 
			},
			{
				"x": 3.0369458177,
				"y": 0.573670281,
				"z": 3.341222894,
				"element": "N" 
			},
			{
				"x": 2.0385536647,
				"y": 0.8401067348,
				"z": 2.4388088439,
				"element": "C" 
			},
			{
				"x": 1.8786164237,
				"y": 0.1392526555,
				"z": 1.453610413,
				"element": "O" 
			},
			{
				"x": 1.1629723343,
				"y": 2.0581364343,
				"z": 2.7751807105,
				"element": "C" 
			},
			{
				"x": 0.2016070186,
				"y": 2.3057178549,
				"z": 1.7775483027,
				"element": "O" 
			},
			{
				"x": -0.8889662631,
				"y": 1.4865187339,
				"z": 1.6549385394,
				"element": "C" 
			},
			{
				"x": -1.2159392722,
				"y": 0.4669684002,
				"z": 2.5526308445,
				"element": "C" 
			},
			{
				"x": -2.3722893669,
				"y": -0.2910841631,
				"z": 2.3538756631,
				"element": "C" 
			},
			{
				"x": -3.2017502797,
				"y": -0.0414431319,
				"z": 1.2638488243,
				"element": "C" 
			},
			{
				"x": -2.8628990384,
				"y": 0.9762422607,
				"z": 0.3701491457,
				"element": "C" 
			},
			{
				"x": -1.7166364679,
				"y": 1.7565712389,
				"z": 0.5445003492,
				"element": "C" 
			},
			{
				"x": -1.388436128,
				"y": 2.8553014401,
				"z": -0.4248863394,
				"element": "C" 
			},
			{
				"x": 0.0600788465,
				"y": 2.552575587,
				"z": -1.5649348865,
				"element": "S" 
			},
			{
				"x": -0.3067082848,
				"y": 0.9332659758,
				"z": -2.2384120269,
				"element": "C" 
			},
			{
				"x": 0.1543221191,
				"y": -0.2173295577,
				"z": -1.5817939847,
				"element": "C" 
			},
			{
				"x": -0.0906895741,
				"y": -1.4806294188,
				"z": -2.121945828,
				"element": "C" 
			},
			{
				"x": -0.7921262189,
				"y": -1.5850497366,
				"z": -3.3222124802,
				"element": "C" 
			},
			{
				"x": -1.0991187305,
				"y": -3.17793931,
				"z": -4.0081535471,
				"element": "Cl" 
			},
			{
				"x": -1.2529521008,
				"y": -0.4538536957,
				"z": -3.9950664697,
				"element": "C" 
			},
			{
				"x": -1.0055153422,
				"y": 0.8046205177,
				"z": -3.4463409395,
				"element": "C" 
			},
			{
				"x": 4.2102500177,
				"y": 1.8355011206,
				"z": 4.3551123485,
				"element": "H" 
			},
			{
				"x": 3.2490839074,
				"y": 0.8770719586,
				"z": 5.3008638441,
				"element": "H" 
			},
			{
				"x": 3.6528594343,
				"y": -0.1981713631,
				"z": 3.1034634211,
				"element": "H" 
			},
			{
				"x": 0.7160504039,
				"y": 1.9427581161,
				"z": 3.7700166115,
				"element": "H" 
			},
			{
				"x": 1.7909567357,
				"y": 2.9511687906,
				"z": 2.8165520601,
				"element": "H" 
			},
			{
				"x": -0.5748483378,
				"y": 0.2442287389,
				"z": 3.397217304,
				"element": "H" 
			},
			{
				"x": -2.6141497504,
				"y": -1.0830429213,
				"z": 3.0570169854,
				"element": "H" 
			},
			{
				"x": -4.09799162,
				"y": -0.6326687358,
				"z": 1.1047665476,
				"element": "H" 
			},
			{
				"x": -3.5005403102,
				"y": 1.1761924337,
				"z": -0.4871087328,
				"element": "H" 
			},
			{
				"x": -2.2622672574,
				"y": 3.0839365109,
				"z": -1.0394120839,
				"element": "H" 
			},
			{
				"x": -1.084564611,
				"y": 3.7672991616,
				"z": 0.0965063187,
				"element": "H" 
			},
			{
				"x": 0.703851557,
				"y": -0.1225224453,
				"z": -0.6500548845,
				"element": "H" 
			},
			{
				"x": 0.2614435952,
				"y": -2.3736461548,
				"z": -1.6173780838,
				"element": "H" 
			},
			{
				"x": -1.791665943,
				"y": -0.5571003385,
				"z": -4.9306470107,
				"element": "H" 
			},
			{
				"x": -1.351708936,
				"y": 1.6948315633,
				"z": -3.9622346774,
				"element": "H" 
			}
		],
		 "valence_orbital": [ 
			{
				"type": "occ",
				"energy": -0.25056,
				"method": "rhf"
			},
			{
				"type": "occ",
				"energy": -0.24085,
				"method": "rhf"
			},
			{
				"type": "occ",
				"energy": -0.23152,
				"method": "rhf"
			},
			{
				"type": "occ",
				"energy": -0.21287,
				"method": "rhf"
			},
			{
				"type": "occ",
				"energy": -0.20984,
				"method": "rhf"
			},
			{
				"type": "unocc",
				"energy": -0.01581,
				"method": "rhf"
			},
			{
				"type": "unocc",
				"energy": -0.00181,
				"method": "rhf"
			},
			{
				"type": "unocc",
				"energy": 0.00388,
				"method": "rhf"
			},
			{
				"type": "unocc",
				"energy": 0.01537,
				"method": "rhf"
			},
			{
				"type": "unocc",
				"energy": 0.01726,
				"method": "rhf"
			}
		],
		"cosmo_sigma_profile": { 
			"-0.025": 0.0,
			"-0.024": 0.0,
			"-0.023": 0.0,
			"-0.022": 0.0,
			"-0.021": 0.0,
			"-0.02": 0.0,
			"-0.019": 0.0,
			"-0.018": 0.0,
			"-0.017": 0.0,
			"-0.016": 0.0,
			"-0.015": 0.0,
			"-0.014": 0.756166067058,
			"-0.013": 1.65667286624,
			"-0.012": 4.68448983025,
			"-0.011": 4.81182783965,
			"-0.01": 5.02113926973,
			"-0.009": 4.74433357618,
			"-0.008": 5.00721421172,
			"-0.007": 10.2323882205,
			"-0.006": 17.8293627975,
			"-0.005": 21.0050992381,
			"-0.004": 20.5261167627,
			"-0.003": 20.6320904872,
			"-0.002": 20.5684687554,
			"-0.001": 18.4431905738,
			"0.0": 18.1215295222,
			"0.001": 25.1803823789,
			"0.002": 26.8578496701,
			"0.003": 29.8496914017,
			"0.004": 26.4458340781,
			"0.005": 21.8246041857,
			"0.006": 12.3339136928,
			"0.007": 6.50411538057,
			"0.008": 6.35157597159,
			"0.009": 5.14515313523,
			"0.01": 5.81683311473,
			"0.011": 3.51818008422,
			"0.012": 2.96228685467,
			"0.013": 2.14999959263,
			"0.014": 0.272828144005,
			"0.015": 0.0,
			"0.016": 0.0,
			"0.017": 0.0,
			"0.018": 0.0,
			"0.019": 0.0,
			"0.02": 0.0,
			"0.021": 0.0,
			"0.022": 0.0,
			"0.023": 0.0,
			"0.024": 0.0,
			"0.025": 0.0
		}
	}
}
