{
	 "smiles": "OC1CCC(CC1)C1=CC=CC=C1", 
	 "Tm": 391.15, 
	 "num_atms": 29, 
	 "gaussian": { 
		 "optdone": 1, 
		 "sigma_profile": "yes", 
		 "theory": "DFT", 
		 "functional": "B3LYP", 
		 "basiset": "6-31G**", 
		 "properties": { 
			 "R2extent": 3562.8305, 
			 "electric_dipole_moment_norm": 1.54836103348, 
			 "electric_quadrupole_moment_norm": 5.41667333333, 
			 "total_energy": -542.156624162, 
			 "HOMO_LUMO_gap": 0.23844, 
			 "cosmo_polarized_energy": -7.89, 
			 "cosmo_cavitation_energy": 29.65, 
			 "cosmo_dispersion_energy": -21.62, 
			 "cosmo_repulsion_energy": 1.72, 
			 "cosmo_total_nonelectrostatic_energy": 9.75, 
			 "SMD_solvation_energy": 4.22 
		},
		"coords": [
			{
				"x": 0.0425396123,
				"y": 0.714232253,
				"z": -2.3588456581,
				"element": "O" 
			},
			{
				"x": 1.0821277504,
				"y": 0.7983081993,
				"z": -1.3787788586,
				"element": "C" 
			},
			{
				"x": 1.5400072799,
				"y": -0.6366743379,
				"z": -1.101804694,
				"element": "C" 
			},
			{
				"x": 0.4539115492,
				"y": -1.4651971429,
				"z": -0.399270235,
				"element": "C" 
			},
			{
				"x": -0.0336758294,
				"y": -0.7895283503,
				"z": 0.9029698015,
				"element": "C" 
			},
			{
				"x": -0.5080415996,
				"y": 0.6515045592,
				"z": 0.6050610259,
				"element": "C" 
			},
			{
				"x": 0.5864899461,
				"y": 1.4736797914,
				"z": -0.0902147669,
				"element": "C" 
			},
			{
				"x": -1.0932191645,
				"y": -1.6082062279,
				"z": 1.6215157987,
				"element": "C" 
			},
			{
				"x": -0.8633912941,
				"y": -2.0946569973,
				"z": 2.9152771651,
				"element": "C" 
			},
			{
				"x": -1.8287419338,
				"y": -2.8464246032,
				"z": 3.5882984859,
				"element": "C" 
			},
			{
				"x": -3.0497645943,
				"y": -3.1267269897,
				"z": 2.9746961794,
				"element": "C" 
			},
			{
				"x": -3.2945848236,
				"y": -2.6492966038,
				"z": 1.6850951915,
				"element": "C" 
			},
			{
				"x": -2.3266741908,
				"y": -1.8989730999,
				"z": 1.0174965991,
				"element": "C" 
			},
			{
				"x": -0.292791826,
				"y": 1.6070733599,
				"z": -2.5122263058,
				"element": "H" 
			},
			{
				"x": 1.9304495939,
				"y": 1.3734887505,
				"z": -1.7850586978,
				"element": "H" 
			},
			{
				"x": 2.4426735164,
				"y": -0.594996559,
				"z": -0.4777253196,
				"element": "H" 
			},
			{
				"x": 1.8249938947,
				"y": -1.1073333893,
				"z": -2.0491062369,
				"element": "H" 
			},
			{
				"x": -0.3930916767,
				"y": -1.5907550351,
				"z": -1.0825828469,
				"element": "H" 
			},
			{
				"x": 0.8330235074,
				"y": -2.468862298,
				"z": -0.1749449752,
				"element": "H" 
			},
			{
				"x": 0.8328014281,
				"y": -0.7138761116,
				"z": 1.5773257431,
				"element": "H" 
			},
			{
				"x": -1.3910076228,
				"y": 0.6124932812,
				"z": -0.0434159775,
				"element": "H" 
			},
			{
				"x": -0.8179093228,
				"y": 1.1413841092,
				"z": 1.5352194536,
				"element": "H" 
			},
			{
				"x": 0.2181415901,
				"y": 2.4835802241,
				"z": -0.3200242526,
				"element": "H" 
			},
			{
				"x": 1.4423712583,
				"y": 1.6074825529,
				"z": 0.5857784964,
				"element": "H" 
			},
			{
				"x": 0.0858826007,
				"y": -1.8812696129,
				"z": 3.4015330499,
				"element": "H" 
			},
			{
				"x": -1.6252332974,
				"y": -3.2122813269,
				"z": 4.5910968928,
				"element": "H" 
			},
			{
				"x": -3.8034707506,
				"y": -3.7113874054,
				"z": 3.494495737,
				"element": "H" 
			},
			{
				"x": -4.2419651663,
				"y": -2.8623120471,
				"z": 1.19721032,
				"element": "H" 
			},
			{
				"x": -2.5338504347,
				"y": -1.5369689426,
				"z": 0.0139288851,
				"element": "H" 
			}
		],
		 "valence_orbital": [ 
			{
				"type": "occ",
				"energy": -0.30159,
				"method": "rhf"
			},
			{
				"type": "occ",
				"energy": -0.29496,
				"method": "rhf"
			},
			{
				"type": "occ",
				"energy": -0.26128,
				"method": "rhf"
			},
			{
				"type": "occ",
				"energy": -0.24228,
				"method": "rhf"
			},
			{
				"type": "occ",
				"energy": -0.23329,
				"method": "rhf"
			},
			{
				"type": "unocc",
				"energy": 0.00515,
				"method": "rhf"
			},
			{
				"type": "unocc",
				"energy": 0.00772,
				"method": "rhf"
			},
			{
				"type": "unocc",
				"energy": 0.06808,
				"method": "rhf"
			},
			{
				"type": "unocc",
				"energy": 0.09732,
				"method": "rhf"
			},
			{
				"type": "unocc",
				"energy": 0.10286,
				"method": "rhf"
			}
		],
		"cosmo_sigma_profile": { 
			"-0.025": 0.0,
			"-0.024": 0.0,
			"-0.023": 0.0,
			"-0.022": 0.0,
			"-0.021": 0.0,
			"-0.02": 0.0,
			"-0.019": 0.0,
			"-0.018": 0.0,
			"-0.017": 0.0,
			"-0.016": 0.0,
			"-0.015": 0.422161299568,
			"-0.014": 1.02917993952,
			"-0.013": 0.72510244795,
			"-0.012": 1.06271647573,
			"-0.011": 0.874676974137,
			"-0.01": 0.870545886289,
			"-0.009": 1.09772260379,
			"-0.008": 0.876481107997,
			"-0.007": 1.01694030586,
			"-0.006": 1.95485393793,
			"-0.005": 9.48834936544,
			"-0.004": 13.0266381561,
			"-0.003": 25.456398246,
			"-0.002": 34.9038959696,
			"-0.001": 26.1625187558,
			"0.0": 26.7226863404,
			"0.001": 19.151798083,
			"0.002": 11.141635192,
			"0.003": 9.69158049687,
			"0.004": 10.1922550517,
			"0.005": 9.00156866125,
			"0.006": 9.40817382883,
			"0.007": 7.22979742364,
			"0.008": 1.41680851574,
			"0.009": 0.950491166056,
			"0.01": 1.14290052349,
			"0.011": 1.29740457649,
			"0.012": 1.47260377336,
			"0.013": 1.18722323819,
			"0.014": 1.1709562162,
			"0.015": 0.707239091139,
			"0.016": 0.0,
			"0.017": 0.0,
			"0.018": 0.0,
			"0.019": 0.0,
			"0.02": 0.0,
			"0.021": 0.0,
			"0.022": 0.0,
			"0.023": 0.0,
			"0.024": 0.0,
			"0.025": 0.0
		}
	}
}
