{
	 "smiles": "CN(C)S(=O)(=O)C1=C(C)C=CC(N)=C1", 
	 "Tm": 355.15, 
	 "num_atms": 28, 
	 "gaussian": { 
		 "optdone": 1, 
		 "sigma_profile": "yes", 
		 "theory": "DFT", 
		 "functional": "B3LYP", 
		 "basiset": "6-31G**", 
		 "properties": { 
			 "R2extent": 4475.2415, 
			 "electric_dipole_moment_norm": 5.438754943, 
			 "electric_quadrupole_moment_norm": 15.0357668271, 
			 "total_energy": -1009.46380204, 
			 "HOMO_LUMO_gap": 0.18633, 
			 "cosmo_polarized_energy": -17.24, 
			 "cosmo_cavitation_energy": 31.49, 
			 "cosmo_dispersion_energy": -22.79, 
			 "cosmo_repulsion_energy": 1.74, 
			 "cosmo_total_nonelectrostatic_energy": 10.45, 
			 "SMD_solvation_energy": 5.16 
		},
		"coords": [
			{
				"x": 0.7966837791,
				"y": -2.3857992769,
				"z": 0.2633953108,
				"element": "C" 
			},
			{
				"x": 1.7807811682,
				"y": -1.3859499241,
				"z": -0.1680839563,
				"element": "N" 
			},
			{
				"x": 3.1089003011,
				"y": -1.5419436332,
				"z": 0.4389644241,
				"element": "C" 
			},
			{
				"x": 1.7758387106,
				"y": -1.0811890433,
				"z": -1.8434763385,
				"element": "S" 
			},
			{
				"x": 1.2655544923,
				"y": -2.2651464068,
				"z": -2.5514803119,
				"element": "O" 
			},
			{
				"x": 3.0991669832,
				"y": -0.5437609497,
				"z": -2.1860012913,
				"element": "O" 
			},
			{
				"x": 0.5542008734,
				"y": 0.2373532053,
				"z": -2.0182105003,
				"element": "C" 
			},
			{
				"x": 0.1412966976,
				"y": 0.59576008,
				"z": -3.3175226233,
				"element": "C" 
			},
			{
				"x": 0.6461500094,
				"y": -0.0683391995,
				"z": -4.5773188499,
				"element": "C" 
			},
			{
				"x": -0.7846497853,
				"y": 1.6435299981,
				"z": -3.3947180777,
				"element": "C" 
			},
			{
				"x": -1.2759068597,
				"y": 2.3003618811,
				"z": -2.2703855141,
				"element": "C" 
			},
			{
				"x": -0.8427880221,
				"y": 1.9354859735,
				"z": -0.987687749,
				"element": "C" 
			},
			{
				"x": -1.2714435806,
				"y": 2.6273402572,
				"z": 0.1458233486,
				"element": "N" 
			},
			{
				"x": 0.0883600698,
				"y": 0.8903367012,
				"z": -0.8781845106,
				"element": "C" 
			},
			{
				"x": 1.078471104,
				"y": -3.4070377461,
				"z": -0.0227761777,
				"element": "H" 
			},
			{
				"x": 0.7129448782,
				"y": -2.3275055163,
				"z": 1.3529808909,
				"element": "H" 
			},
			{
				"x": -0.1802456282,
				"y": -2.1623398953,
				"z": -0.1687428582,
				"element": "H" 
			},
			{
				"x": 3.551646994,
				"y": -2.5278160125,
				"z": 0.238614739,
				"element": "H" 
			},
			{
				"x": 2.9979364503,
				"y": -1.4210657627,
				"z": 1.5210049653,
				"element": "H" 
			},
			{
				"x": 3.7782091328,
				"y": -0.7716719894,
				"z": 0.0597488859,
				"element": "H" 
			},
			{
				"x": 0.3327738682,
				"y": -1.1144488317,
				"z": -4.6331551183,
				"element": "H" 
			},
			{
				"x": 0.267301513,
				"y": 0.4588531452,
				"z": -5.4567449609,
				"element": "H" 
			},
			{
				"x": 1.739833341,
				"y": -0.0619299296,
				"z": -4.6217817967,
				"element": "H" 
			},
			{
				"x": -1.1322557013,
				"y": 1.9546544541,
				"z": -4.376363934,
				"element": "H" 
			},
			{
				"x": -1.9924016255,
				"y": 3.1096587111,
				"z": -2.3871432978,
				"element": "H" 
			},
			{
				"x": -1.2040183961,
				"y": 2.1173161083,
				"z": 1.0154794141,
				"element": "H" 
			},
			{
				"x": -2.1598359645,
				"y": 3.0997785205,
				"z": 0.0522161996,
				"element": "H" 
			},
			{
				"x": 0.4628951968,
				"y": 0.5893150814,
				"z": 0.0936496879,
				"element": "H" 
			}
		],
		 "valence_orbital": [ 
			{
				"type": "occ",
				"energy": -0.29546,
				"method": "rhf"
			},
			{
				"type": "occ",
				"energy": -0.28961,
				"method": "rhf"
			},
			{
				"type": "occ",
				"energy": -0.25683,
				"method": "rhf"
			},
			{
				"type": "occ",
				"energy": -0.2505,
				"method": "rhf"
			},
			{
				"type": "occ",
				"energy": -0.20868,
				"method": "rhf"
			},
			{
				"type": "unocc",
				"energy": -0.02235,
				"method": "rhf"
			},
			{
				"type": "unocc",
				"energy": 0.00486,
				"method": "rhf"
			},
			{
				"type": "unocc",
				"energy": 0.06375,
				"method": "rhf"
			},
			{
				"type": "unocc",
				"energy": 0.0697,
				"method": "rhf"
			},
			{
				"type": "unocc",
				"energy": 0.0753,
				"method": "rhf"
			}
		],
		"cosmo_sigma_profile": { 
			"-0.025": 0.0,
			"-0.024": 0.0,
			"-0.023": 0.0,
			"-0.022": 0.0,
			"-0.021": 0.0,
			"-0.02": 0.0,
			"-0.019": 0.0,
			"-0.018": 0.0,
			"-0.017": 0.0,
			"-0.016": 0.0,
			"-0.015": 0.0,
			"-0.014": 0.0,
			"-0.013": 0.886788294697,
			"-0.012": 2.87543376764,
			"-0.011": 3.4574772738,
			"-0.01": 2.74568028971,
			"-0.009": 3.52759272245,
			"-0.008": 3.34407156404,
			"-0.007": 2.71662187844,
			"-0.006": 10.6088779389,
			"-0.005": 15.5528442952,
			"-0.004": 21.5681724702,
			"-0.003": 22.0329330045,
			"-0.002": 27.7448213603,
			"-0.001": 15.683671125,
			"0.0": 16.0867577454,
			"0.001": 11.8974221988,
			"0.002": 11.1325315834,
			"0.003": 11.7236970126,
			"0.004": 14.8544360693,
			"0.005": 11.1769068909,
			"0.006": 4.30200943439,
			"0.007": 2.77395357717,
			"0.008": 4.48534723154,
			"0.009": 5.20537615806,
			"0.01": 5.70439886488,
			"0.011": 9.30648761494,
			"0.012": 5.05637207633,
			"0.013": 1.00678813074,
			"0.014": 0.419802869036,
			"0.015": 0.0409560337631,
			"0.016": 0.0,
			"0.017": 0.0,
			"0.018": 0.0,
			"0.019": 0.0,
			"0.02": 0.0,
			"0.021": 0.0,
			"0.022": 0.0,
			"0.023": 0.0,
			"0.024": 0.0,
			"0.025": 0.0
		}
	}
}
