{
	 "smiles": "OC1=C(NC(=O)C2CC2)C=CC=C1", 
	 "Tm": 410.15, 
	 "num_atms": 24, 
	 "gaussian": { 
		 "optdone": 1, 
		 "sigma_profile": "yes", 
		 "theory": "DFT", 
		 "functional": "B3LYP", 
		 "basiset": "6-31G**", 
		 "properties": { 
			 "R2extent": 3628.154, 
			 "electric_dipole_moment_norm": 3.99200593937, 
			 "electric_quadrupole_moment_norm": 11.1895763222, 
			 "total_energy": -592.882660519, 
			 "HOMO_LUMO_gap": 0.19823, 
			 "cosmo_polarized_energy": -14.15, 
			 "cosmo_cavitation_energy": 27.7, 
			 "cosmo_dispersion_energy": -20.65, 
			 "cosmo_repulsion_energy": 1.63, 
			 "cosmo_total_nonelectrostatic_energy": 8.69, 
			 "SMD_solvation_energy": 5.02 
		},
		"coords": [
			{
				"x": 1.7832064691,
				"y": 2.2125564289,
				"z": -1.518789363,
				"element": "O" 
			},
			{
				"x": 0.477180315,
				"y": 2.4599985459,
				"z": -1.8780985101,
				"element": "C" 
			},
			{
				"x": -0.4552054649,
				"y": 1.4507148836,
				"z": -1.5570057116,
				"element": "C" 
			},
			{
				"x": 0.0595166215,
				"y": 0.3131316192,
				"z": -0.908924263,
				"element": "N" 
			},
			{
				"x": -0.6137226173,
				"y": -0.8083902107,
				"z": -0.4843745422,
				"element": "C" 
			},
			{
				"x": -1.8220025613,
				"y": -0.9788508149,
				"z": -0.6217630591,
				"element": "O" 
			},
			{
				"x": 0.2607705089,
				"y": -1.8318061172,
				"z": 0.1747864566,
				"element": "C" 
			},
			{
				"x": -0.1180425951,
				"y": -3.2891272606,
				"z": -0.0249788037,
				"element": "C" 
			},
			{
				"x": -0.359557749,
				"y": -2.6422631952,
				"z": 1.2998181153,
				"element": "C" 
			},
			{
				"x": -1.8001564735,
				"y": 1.6406772415,
				"z": -1.8954385838,
				"element": "C" 
			},
			{
				"x": -2.1997092017,
				"y": 2.8143637536,
				"z": -2.5401115026,
				"element": "C" 
			},
			{
				"x": -1.2730636553,
				"y": 3.8059848484,
				"z": -2.8536443714,
				"element": "C" 
			},
			{
				"x": 0.0719694667,
				"y": 3.6252834395,
				"z": -2.5197052393,
				"element": "C" 
			},
			{
				"x": 2.3342645537,
				"y": 2.9596287898,
				"z": -1.7821399151,
				"element": "H" 
			},
			{
				"x": 1.0555648612,
				"y": 0.3485098401,
				"z": -0.743819418,
				"element": "H" 
			},
			{
				"x": 1.3198025425,
				"y": -1.6001297859,
				"z": 0.254876831,
				"element": "H" 
			},
			{
				"x": -0.9816972162,
				"y": -3.4673878947,
				"z": -0.6568921514,
				"element": "H" 
			},
			{
				"x": 0.6922741924,
				"y": -4.004685947,
				"z": -0.1224002955,
				"element": "H" 
			},
			{
				"x": 0.2806795681,
				"y": -2.9011641104,
				"z": 2.1371925191,
				"element": "H" 
			},
			{
				"x": -1.3841466918,
				"y": -2.3894333268,
				"z": 1.5513307161,
				"element": "H" 
			},
			{
				"x": -2.5092770536,
				"y": 0.8639223401,
				"z": -1.6466911465,
				"element": "H" 
			},
			{
				"x": -3.2465282863,
				"y": 2.9462578774,
				"z": -2.7957444942,
				"element": "H" 
			},
			{
				"x": -1.5850070036,
				"y": 4.7171932301,
				"z": -3.3544636379,
				"element": "H" 
			},
			{
				"x": 0.8091874704,
				"y": 4.3897158251,
				"z": -2.7572196297,
				"element": "H" 
			}
		],
		 "valence_orbital": [ 
			{
				"type": "occ",
				"energy": -0.30518,
				"method": "rhf"
			},
			{
				"type": "occ",
				"energy": -0.28574,
				"method": "rhf"
			},
			{
				"type": "occ",
				"energy": -0.24867,
				"method": "rhf"
			},
			{
				"type": "occ",
				"energy": -0.2356,
				"method": "rhf"
			},
			{
				"type": "occ",
				"energy": -0.20656,
				"method": "rhf"
			},
			{
				"type": "unocc",
				"energy": -0.00833,
				"method": "rhf"
			},
			{
				"type": "unocc",
				"energy": 0.01263,
				"method": "rhf"
			},
			{
				"type": "unocc",
				"energy": 0.04935,
				"method": "rhf"
			},
			{
				"type": "unocc",
				"energy": 0.05708,
				"method": "rhf"
			},
			{
				"type": "unocc",
				"energy": 0.08397,
				"method": "rhf"
			}
		],
		"cosmo_sigma_profile": { 
			"-0.025": 0.0,
			"-0.024": 0.0,
			"-0.023": 0.0,
			"-0.022": 0.0,
			"-0.021": 0.0,
			"-0.02": 0.0,
			"-0.019": 0.00169014582031,
			"-0.018": 0.682456024428,
			"-0.017": 1.40823160191,
			"-0.016": 0.709583618959,
			"-0.015": 1.17271806386,
			"-0.014": 0.981025240269,
			"-0.013": 1.61099411246,
			"-0.012": 2.09328308442,
			"-0.011": 1.81660527301,
			"-0.01": 1.67358103601,
			"-0.009": 2.03204162872,
			"-0.008": 2.83670882006,
			"-0.007": 2.23420113547,
			"-0.006": 6.41064442728,
			"-0.005": 13.2005951713,
			"-0.004": 15.1624505833,
			"-0.003": 15.3767040653,
			"-0.002": 14.0719272324,
			"-0.001": 13.4344682475,
			"0.0": 16.1473679742,
			"0.001": 15.0306836326,
			"0.002": 18.4913839532,
			"0.003": 16.3261960829,
			"0.004": 15.9507617652,
			"0.005": 13.5278817606,
			"0.006": 10.6544873163,
			"0.007": 3.99487652967,
			"0.008": 3.00496615963,
			"0.009": 0.916963239393,
			"0.01": 1.71884650219,
			"0.011": 1.736013135,
			"0.012": 2.25396310624,
			"0.013": 2.61658208589,
			"0.014": 1.02761433553,
			"0.015": 0.0,
			"0.016": 0.0,
			"0.017": 0.0,
			"0.018": 0.0,
			"0.019": 0.0,
			"0.02": 0.0,
			"0.021": 0.0,
			"0.022": 0.0,
			"0.023": 0.0,
			"0.024": 0.0,
			"0.025": 0.0
		}
	}
}
