{
	 "smiles": "CCOC1=C(C=CC(Cl)=C1)C#N", 
	 "Tm": 355.15, 
	 "num_atms": 20, 
	 "gaussian": { 
		 "optdone": 1, 
		 "sigma_profile": "yes", 
		 "theory": "DFT", 
		 "functional": "B3LYP", 
		 "basiset": "6-31G**", 
		 "properties": { 
			 "R2extent": 3652.6476, 
			 "electric_dipole_moment_norm": 3.7743269135, 
			 "electric_quadrupole_moment_norm": 20.890925945, 
			 "total_energy": -937.927239351, 
			 "HOMO_LUMO_gap": 0.18959, 
			 "cosmo_polarized_energy": -10.81, 
			 "cosmo_cavitation_energy": 27.18, 
			 "cosmo_dispersion_energy": -19.25, 
			 "cosmo_repulsion_energy": 1.57, 
			 "cosmo_total_nonelectrostatic_energy": 9.5, 
			 "SMD_solvation_energy": 6.15 
		},
		"coords": [
			{
				"x": -0.6423456211,
				"y": -2.3158958637,
				"z": 1.0048975551,
				"element": "C" 
			},
			{
				"x": 0.2805773127,
				"y": -1.1743822714,
				"z": 0.6204638117,
				"element": "C" 
			},
			{
				"x": -0.5240275332,
				"y": 0.0088415991,
				"z": 0.5179117638,
				"element": "O" 
			},
			{
				"x": 0.0545687722,
				"y": 1.1806045911,
				"z": 0.1847186408,
				"element": "C" 
			},
			{
				"x": -0.8094673696,
				"y": 2.3011839903,
				"z": 0.1045603764,
				"element": "C" 
			},
			{
				"x": -0.2868955612,
				"y": 3.5560719213,
				"z": -0.2360202597,
				"element": "C" 
			},
			{
				"x": 1.069529137,
				"y": 3.7243107456,
				"z": -0.4981925798,
				"element": "C" 
			},
			{
				"x": 1.9016809255,
				"y": 2.6093360132,
				"z": -0.4138034825,
				"element": "C" 
			},
			{
				"x": 3.6154041472,
				"y": 2.7925132627,
				"z": -0.7391689994,
				"element": "Cl" 
			},
			{
				"x": 1.4197633604,
				"y": 1.3439570153,
				"z": -0.0779395258,
				"element": "C" 
			},
			{
				"x": -2.2064995728,
				"y": 2.1493226346,
				"z": 0.3701830464,
				"element": "C" 
			},
			{
				"x": -3.3469125708,
				"y": 2.0563916302,
				"z": 0.5807117541,
				"element": "N" 
			},
			{
				"x": -1.1289019259,
				"y": -2.1125555711,
				"z": 1.962355824,
				"element": "H" 
			},
			{
				"x": -0.0684064894,
				"y": -3.2430278136,
				"z": 1.094780932,
				"element": "H" 
			},
			{
				"x": -1.417072957,
				"y": -2.4572552544,
				"z": 0.2468560588,
				"element": "H" 
			},
			{
				"x": 0.7711081815,
				"y": -1.3675022597,
				"z": -0.3429037702,
				"element": "H" 
			},
			{
				"x": 1.0603855323,
				"y": -1.0216115356,
				"z": 1.3784620365,
				"element": "H" 
			},
			{
				"x": -0.9604198716,
				"y": 4.4044687623,
				"z": -0.2934944456,
				"element": "H" 
			},
			{
				"x": 1.4727940362,
				"y": 4.6944159054,
				"z": -0.7613706019,
				"element": "H" 
			},
			{
				"x": 2.1049380673,
				"y": 0.5091124985,
				"z": -0.0252081347,
				"element": "H" 
			}
		],
		 "valence_orbital": [ 
			{
				"type": "occ",
				"energy": -0.32814,
				"method": "rhf"
			},
			{
				"type": "occ",
				"energy": -0.32653,
				"method": "rhf"
			},
			{
				"type": "occ",
				"energy": -0.32189,
				"method": "rhf"
			},
			{
				"type": "occ",
				"energy": -0.26949,
				"method": "rhf"
			},
			{
				"type": "occ",
				"energy": -0.24492,
				"method": "rhf"
			},
			{
				"type": "unocc",
				"energy": -0.05533,
				"method": "rhf"
			},
			{
				"type": "unocc",
				"energy": -0.02024,
				"method": "rhf"
			},
			{
				"type": "unocc",
				"energy": 0.01315,
				"method": "rhf"
			},
			{
				"type": "unocc",
				"energy": 0.03799,
				"method": "rhf"
			},
			{
				"type": "unocc",
				"energy": 0.07145,
				"method": "rhf"
			}
		],
		"cosmo_sigma_profile": { 
			"-0.025": 0.0,
			"-0.024": 0.0,
			"-0.023": 0.0,
			"-0.022": 0.0,
			"-0.021": 0.0,
			"-0.02": 0.0,
			"-0.019": 0.0,
			"-0.018": 0.0,
			"-0.017": 0.0,
			"-0.016": 0.0,
			"-0.015": 0.0,
			"-0.014": 0.0,
			"-0.013": 0.0,
			"-0.012": 0.0,
			"-0.011": 0.0,
			"-0.01": 0.0,
			"-0.009": 0.987025953406,
			"-0.008": 6.32889971803,
			"-0.007": 7.55984346757,
			"-0.006": 10.388368174,
			"-0.005": 12.8794129145,
			"-0.004": 15.8419743976,
			"-0.003": 14.6750763201,
			"-0.002": 16.1035060255,
			"-0.001": 21.1007248166,
			"0.0": 24.5068519137,
			"0.001": 21.9401137947,
			"0.002": 13.4553302591,
			"0.003": 9.7064349657,
			"0.004": 12.9060439177,
			"0.005": 3.96126853906,
			"0.006": 4.43401022254,
			"0.007": 4.93450121469,
			"0.008": 4.55609475867,
			"0.009": 3.70105130276,
			"0.01": 3.2241783931,
			"0.011": 2.80068148587,
			"0.012": 2.62965796547,
			"0.013": 1.71568671374,
			"0.014": 0.069756977799,
			"0.015": 0.0,
			"0.016": 0.0,
			"0.017": 0.0,
			"0.018": 0.0,
			"0.019": 0.0,
			"0.02": 0.0,
			"0.021": 0.0,
			"0.022": 0.0,
			"0.023": 0.0,
			"0.024": 0.0,
			"0.025": 0.0
		}
	}
}
