{
	 "smiles": "CC(N)C1=CC=C(NS(C)(=O)=O)C=C1", 
	 "Tm": 416.15, 
	 "num_atms": 28, 
	 "gaussian": { 
		 "optdone": 1, 
		 "sigma_profile": "yes", 
		 "theory": "DFT", 
		 "functional": "B3LYP", 
		 "basiset": "6-31G**", 
		 "properties": { 
			 "R2extent": 4902.2713, 
			 "electric_dipole_moment_norm": 4.42781299289, 
			 "electric_quadrupole_moment_norm": 29.7514492645, 
			 "total_energy": -1009.47074501, 
			 "HOMO_LUMO_gap": 0.20925, 
			 "cosmo_polarized_energy": -19.81, 
			 "cosmo_cavitation_energy": 32.37, 
			 "cosmo_dispersion_energy": -23.46, 
			 "cosmo_repulsion_energy": 1.82, 
			 "cosmo_total_nonelectrostatic_energy": 10.73, 
			 "SMD_solvation_energy": 4.02 
		},
		"coords": [
			{
				"x": -0.7539161485,
				"y": -1.131730493,
				"z": -3.3988243619,
				"element": "C" 
			},
			{
				"x": -0.0381808459,
				"y": -1.7884198213,
				"z": -2.209518037,
				"element": "C" 
			},
			{
				"x": 1.2597280698,
				"y": -2.3031314226,
				"z": -2.6681589589,
				"element": "N" 
			},
			{
				"x": 0.0183549905,
				"y": -0.8504255814,
				"z": -1.0030367791,
				"element": "C" 
			},
			{
				"x": 0.8870096239,
				"y": 0.2488817963,
				"z": -0.9680045022,
				"element": "C" 
			},
			{
				"x": 0.9136874163,
				"y": 1.115132582,
				"z": 0.1210528209,
				"element": "C" 
			},
			{
				"x": 0.084454506,
				"y": 0.8847976294,
				"z": 1.2286914274,
				"element": "C" 
			},
			{
				"x": 0.1722556303,
				"y": 1.7520690466,
				"z": 2.3509254372,
				"element": "N" 
			},
			{
				"x": -1.1631288634,
				"y": 2.392022392,
				"z": 3.1692709869,
				"element": "S" 
			},
			{
				"x": -2.1443022884,
				"y": 3.223660663,
				"z": 1.9012341956,
				"element": "C" 
			},
			{
				"x": -1.9688571459,
				"y": 1.2833973913,
				"z": 3.6772438046,
				"element": "O" 
			},
			{
				"x": -0.5904626219,
				"y": 3.4029916882,
				"z": 4.0572998036,
				"element": "O" 
			},
			{
				"x": -0.7759786763,
				"y": -0.2207688676,
				"z": 1.2218397717,
				"element": "C" 
			},
			{
				"x": -0.8076591752,
				"y": -1.0591901012,
				"z": 0.107534944,
				"element": "C" 
			},
			{
				"x": -0.8135867686,
				"y": -1.8347908474,
				"z": -4.2343117436,
				"element": "H" 
			},
			{
				"x": -0.208857386,
				"y": -0.2420750008,
				"z": -3.7371834851,
				"element": "H" 
			},
			{
				"x": -1.7643207628,
				"y": -0.8160189538,
				"z": -3.1239887382,
				"element": "H" 
			},
			{
				"x": -0.62893769,
				"y": -2.6631603362,
				"z": -1.9071425593,
				"element": "H" 
			},
			{
				"x": 1.785456301,
				"y": -2.6730009391,
				"z": -1.879330092,
				"element": "H" 
			},
			{
				"x": 1.8196386293,
				"y": -1.5468488881,
				"z": -3.0565307339,
				"element": "H" 
			},
			{
				"x": 1.5531465486,
				"y": 0.4410716197,
				"z": -1.805625644,
				"element": "H" 
			},
			{
				"x": 1.5854950337,
				"y": 1.9705192843,
				"z": 0.1187765071,
				"element": "H" 
			},
			{
				"x": 0.9226128499,
				"y": 2.4340236767,
				"z": 2.3281057209,
				"element": "H" 
			},
			{
				"x": -2.3937507889,
				"y": 2.5038368481,
				"z": 1.1203886513,
				"element": "H" 
			},
			{
				"x": -3.0520069294,
				"y": 3.582763705,
				"z": 2.3889619128,
				"element": "H" 
			},
			{
				"x": -1.5703875281,
				"y": 4.0593422935,
				"z": 1.4990616398,
				"element": "H" 
			},
			{
				"x": -1.3981871978,
				"y": -0.4217178215,
				"z": 2.0858513544,
				"element": "H" 
			},
			{
				"x": -1.4819187823,
				"y": -1.912631542,
				"z": 0.1149166571,
				"element": "H" 
			}
		],
		 "valence_orbital": [ 
			{
				"type": "occ",
				"energy": -0.30936,
				"method": "rhf"
			},
			{
				"type": "occ",
				"energy": -0.30442,
				"method": "rhf"
			},
			{
				"type": "occ",
				"energy": -0.26344,
				"method": "rhf"
			},
			{
				"type": "occ",
				"energy": -0.24873,
				"method": "rhf"
			},
			{
				"type": "occ",
				"energy": -0.22537,
				"method": "rhf"
			},
			{
				"type": "unocc",
				"energy": -0.01612,
				"method": "rhf"
			},
			{
				"type": "unocc",
				"energy": -0.01273,
				"method": "rhf"
			},
			{
				"type": "unocc",
				"energy": 0.05747,
				"method": "rhf"
			},
			{
				"type": "unocc",
				"energy": 0.06702,
				"method": "rhf"
			},
			{
				"type": "unocc",
				"energy": 0.07206,
				"method": "rhf"
			}
		],
		"cosmo_sigma_profile": { 
			"-0.025": 0.0,
			"-0.024": 0.0,
			"-0.023": 0.0,
			"-0.022": 0.0,
			"-0.021": 0.0,
			"-0.02": 0.0,
			"-0.019": 0.0,
			"-0.018": 0.0,
			"-0.017": 0.0,
			"-0.016": 0.0758177787989,
			"-0.015": 0.869748489166,
			"-0.014": 1.3709017425,
			"-0.013": 1.34230187996,
			"-0.012": 1.10356892763,
			"-0.011": 1.92686234213,
			"-0.01": 1.64217940867,
			"-0.009": 7.67623355506,
			"-0.008": 9.6117558377,
			"-0.007": 8.66412662128,
			"-0.006": 12.4364613959,
			"-0.005": 15.266269338,
			"-0.004": 19.446208601,
			"-0.003": 18.6624895437,
			"-0.002": 16.1176076865,
			"-0.001": 15.2610986597,
			"0.0": 15.0406720681,
			"0.001": 16.1688381381,
			"0.002": 9.87699388507,
			"0.003": 11.6195997991,
			"0.004": 11.7307806719,
			"0.005": 12.7184897016,
			"0.006": 5.70781388088,
			"0.007": 4.34217245747,
			"0.008": 4.89686324349,
			"0.009": 4.34384151718,
			"0.01": 7.88115582167,
			"0.011": 10.5538967181,
			"0.012": 3.9026469102,
			"0.013": 1.15815628932,
			"0.014": 0.83604690411,
			"0.015": 0.22647130291,
			"0.016": 0.283378758778,
			"0.017": 0.838634406047,
			"0.018": 0.609515292132,
			"0.019": 0.515465663441,
			"0.02": 0.106460276667,
			"0.021": 0.0,
			"0.022": 0.0,
			"0.023": 0.0,
			"0.024": 0.0,
			"0.025": 0.0
		}
	}
}
