{
	 "smiles": "CC1=NN(C(Cl)=C1CCl)C1=CC=CC=C1", 
	 "Tm": 311.15, 
	 "num_atms": 25, 
	 "gaussian": { 
		 "optdone": 1, 
		 "sigma_profile": "yes", 
		 "theory": "DFT", 
		 "functional": "B3LYP", 
		 "basiset": "6-31G**", 
		 "properties": { 
			 "R2extent": 4836.4998, 
			 "electric_dipole_moment_norm": 2.69490559389, 
			 "electric_quadrupole_moment_norm": 13.2373501363, 
			 "total_energy": -1455.07177682, 
			 "HOMO_LUMO_gap": 0.20461, 
			 "cosmo_polarized_energy": -8.71, 
			 "cosmo_cavitation_energy": 32.78, 
			 "cosmo_dispersion_energy": -23.36, 
			 "cosmo_repulsion_energy": 1.85, 
			 "cosmo_total_nonelectrostatic_energy": 11.27, 
			 "SMD_solvation_energy": 4.28 
		},
		"coords": [
			{
				"x": -1.1171177923,
				"y": 1.6332795747,
				"z": -3.0924218405,
				"element": "C" 
			},
			{
				"x": -0.5234410793,
				"y": 0.8250344443,
				"z": -1.9816012626,
				"element": "C" 
			},
			{
				"x": -1.3005024135,
				"y": 0.1195726961,
				"z": -1.1681848325,
				"element": "N" 
			},
			{
				"x": -0.458333968,
				"y": -0.5125598948,
				"z": -0.2960193509,
				"element": "N" 
			},
			{
				"x": 0.8386689023,
				"y": -0.186803296,
				"z": -0.5657052177,
				"element": "C" 
			},
			{
				"x": 2.1807419985,
				"y": -0.7156825809,
				"z": 0.3818982436,
				"element": "Cl" 
			},
			{
				"x": 0.8523050205,
				"y": 0.6764743152,
				"z": -1.6482353886,
				"element": "C" 
			},
			{
				"x": 2.0286135312,
				"y": 1.2966188806,
				"z": -2.2937591575,
				"element": "C" 
			},
			{
				"x": 2.5671597297,
				"y": 0.4043865117,
				"z": -3.8207028306,
				"element": "Cl" 
			},
			{
				"x": -1.0130854074,
				"y": -1.3299004366,
				"z": 0.732749365,
				"element": "C" 
			},
			{
				"x": -0.4600840566,
				"y": -2.5773399506,
				"z": 1.0349972288,
				"element": "C" 
			},
			{
				"x": -1.0351485076,
				"y": -3.3536701772,
				"z": 2.0414532153,
				"element": "C" 
			},
			{
				"x": -2.1642693905,
				"y": -2.9013757631,
				"z": 2.7255351689,
				"element": "C" 
			},
			{
				"x": -2.7227663067,
				"y": -1.6631901417,
				"z": 2.3992794001,
				"element": "C" 
			},
			{
				"x": -2.1491333487,
				"y": -0.8712665131,
				"z": 1.4070107991,
				"element": "C" 
			},
			{
				"x": -2.2050476434,
				"y": 1.5432323413,
				"z": -3.0710662833,
				"element": "H" 
			},
			{
				"x": -0.8555194959,
				"y": 2.69385549,
				"z": -3.0006783481,
				"element": "H" 
			},
			{
				"x": -0.7544636611,
				"y": 1.2897101529,
				"z": -4.0669314854,
				"element": "H" 
			},
			{
				"x": 1.8236463151,
				"y": 2.3135723033,
				"z": -2.6278220611,
				"element": "H" 
			},
			{
				"x": 2.9002431195,
				"y": 1.2969383845,
				"z": -1.6404447007,
				"element": "H" 
			},
			{
				"x": 0.3967713863,
				"y": -2.9432096026,
				"z": 0.481940128,
				"element": "H" 
			},
			{
				"x": -0.6048999832,
				"y": -4.3221315726,
				"z": 2.2778952518,
				"element": "H" 
			},
			{
				"x": -2.6110178654,
				"y": -3.5129819246,
				"z": 3.5035613233,
				"element": "H" 
			},
			{
				"x": -3.6055040143,
				"y": -1.3079837808,
				"z": 2.9224414698,
				"element": "H" 
			},
			{
				"x": -2.5702150691,
				"y": 0.0902205399,
				"z": 1.1378111658,
				"element": "H" 
			}
		],
		 "valence_orbital": [ 
			{
				"type": "occ",
				"energy": -0.29024,
				"method": "rhf"
			},
			{
				"type": "occ",
				"energy": -0.28524,
				"method": "rhf"
			},
			{
				"type": "occ",
				"energy": -0.26273,
				"method": "rhf"
			},
			{
				"type": "occ",
				"energy": -0.2489,
				"method": "rhf"
			},
			{
				"type": "occ",
				"energy": -0.23711,
				"method": "rhf"
			},
			{
				"type": "unocc",
				"energy": -0.0325,
				"method": "rhf"
			},
			{
				"type": "unocc",
				"energy": -0.01322,
				"method": "rhf"
			},
			{
				"type": "unocc",
				"energy": -0.00184,
				"method": "rhf"
			},
			{
				"type": "unocc",
				"energy": 0.01979,
				"method": "rhf"
			},
			{
				"type": "unocc",
				"energy": 0.02466,
				"method": "rhf"
			}
		],
		"cosmo_sigma_profile": { 
			"-0.025": 0.0,
			"-0.024": 0.0,
			"-0.023": 0.0,
			"-0.022": 0.0,
			"-0.021": 0.0,
			"-0.02": 0.0,
			"-0.019": 0.0,
			"-0.018": 0.0,
			"-0.017": 0.0,
			"-0.016": 0.0,
			"-0.015": 0.0,
			"-0.014": 0.0,
			"-0.013": 0.0,
			"-0.012": 0.0,
			"-0.011": 0.0,
			"-0.01": 0.0,
			"-0.009": 0.00182653197003,
			"-0.008": 1.42037223779,
			"-0.007": 6.21498698452,
			"-0.006": 15.3752550737,
			"-0.005": 19.8166462387,
			"-0.004": 19.8878886557,
			"-0.003": 18.556590469,
			"-0.002": 20.0030009113,
			"-0.001": 23.1191037712,
			"0.0": 22.7694106281,
			"0.001": 24.0170104617,
			"0.002": 19.9290256299,
			"0.003": 20.5004925748,
			"0.004": 19.36919428,
			"0.005": 10.9021308468,
			"0.006": 9.9802069357,
			"0.007": 8.26364836032,
			"0.008": 1.37890758086,
			"0.009": 1.03812342645,
			"0.01": 0.849288855697,
			"0.011": 1.47701170479,
			"0.012": 0.506510190155,
			"0.013": 0.836944599521,
			"0.014": 0.487701220423,
			"0.015": 0.0,
			"0.016": 0.0,
			"0.017": 0.0,
			"0.018": 0.0,
			"0.019": 0.0,
			"0.02": 0.0,
			"0.021": 0.0,
			"0.022": 0.0,
			"0.023": 0.0,
			"0.024": 0.0,
			"0.025": 0.0
		}
	}
}
