{
	 "smiles": "OC(=O)C1=C(C=CC(=C1)N1CCOCC1)[N+]([O-])=O", 
	 "Tm": 463.15, 
	 "num_atms": 30, 
	 "gaussian": { 
		 "optdone": 1, 
		 "sigma_profile": "yes", 
		 "theory": "DFT", 
		 "functional": "B3LYP", 
		 "basiset": "6-31G**", 
		 "properties": { 
			 "R2extent": 7453.248, 
			 "electric_dipole_moment_norm": 6.23443229813, 
			 "electric_quadrupole_moment_norm": 30.4786279074, 
			 "total_energy": -911.90700425, 
			 "HOMO_LUMO_gap": 0.14516, 
			 "cosmo_polarized_energy": -21.16, 
			 "cosmo_cavitation_energy": 33.8, 
			 "cosmo_dispersion_energy": -24.72, 
			 "cosmo_repulsion_energy": 1.91, 
			 "cosmo_total_nonelectrostatic_energy": 10.99, 
			 "SMD_solvation_energy": 7.89 
		},
		"coords": [
			{
				"x": 1.1865067368,
				"y": 0.1280586425,
				"z": -4.8929495715,
				"element": "O" 
			},
			{
				"x": 1.3669275591,
				"y": 0.8866893869,
				"z": -3.7935109305,
				"element": "C" 
			},
			{
				"x": 1.0520771483,
				"y": 2.0532448313,
				"z": -3.7223965315,
				"element": "O" 
			},
			{
				"x": 1.8615158508,
				"y": 0.0786353794,
				"z": -2.625089919,
				"element": "C" 
			},
			{
				"x": 3.0510079514,
				"y": -0.6664736775,
				"z": -2.6134517689,
				"element": "C" 
			},
			{
				"x": 3.3777323352,
				"y": -1.4458705316,
				"z": -1.5026014773,
				"element": "C" 
			},
			{
				"x": 2.5485591997,
				"y": -1.4782234683,
				"z": -0.394884188,
				"element": "C" 
			},
			{
				"x": 1.3580985346,
				"y": -0.709115332,
				"z": -0.3572730324,
				"element": "C" 
			},
			{
				"x": 1.0433685624,
				"y": 0.0646820344,
				"z": -1.5021373537,
				"element": "C" 
			},
			{
				"x": 0.5371159296,
				"y": -0.7134571211,
				"z": 0.7444672494,
				"element": "N" 
			},
			{
				"x": -0.8023073567,
				"y": -0.1230298686,
				"z": 0.7193970877,
				"element": "C" 
			},
			{
				"x": -1.6888131122,
				"y": -0.8094467521,
				"z": 1.7570500478,
				"element": "C" 
			},
			{
				"x": -1.1862546103,
				"y": -0.7129009996,
				"z": 3.0846709623,
				"element": "O" 
			},
			{
				"x": 0.227859697,
				"y": -0.5919922249,
				"z": 3.1694502725,
				"element": "C" 
			},
			{
				"x": 0.9643153087,
				"y": -1.2834828959,
				"z": 2.0234090189,
				"element": "C" 
			},
			{
				"x": 4.0135605437,
				"y": -0.5793595326,
				"z": -3.7014094681,
				"element": "N" 
			},
			{
				"x": 4.8843446333,
				"y": -1.4504521381,
				"z": -3.7707827066,
				"element": "O" 
			},
			{
				"x": 3.9228261877,
				"y": 0.3783853837,
				"z": -4.4739229358,
				"element": "O" 
			},
			{
				"x": 0.8906229076,
				"y": 0.7311263967,
				"z": -5.5957215167,
				"element": "H" 
			},
			{
				"x": 4.2966417127,
				"y": -2.0188116226,
				"z": -1.5266047903,
				"element": "H" 
			},
			{
				"x": 2.8204424802,
				"y": -2.1118637808,
				"z": 0.4399138449,
				"element": "H" 
			},
			{
				"x": 0.1569260449,
				"y": 0.6852525675,
				"z": -1.5229477566,
				"element": "H" 
			},
			{
				"x": -1.2533270426,
				"y": -0.2787845986,
				"z": -0.2656631456,
				"element": "H" 
			},
			{
				"x": -0.7709078036,
				"y": 0.9616591294,
				"z": 0.9012344073,
				"element": "H" 
			},
			{
				"x": -1.8115398324,
				"y": -1.8669085709,
				"z": 1.4765578163,
				"element": "H" 
			},
			{
				"x": -2.68066609,
				"y": -0.3460697739,
				"z": 1.7536558983,
				"element": "H" 
			},
			{
				"x": 0.5182732693,
				"y": 0.4697499659,
				"z": 3.1904821535,
				"element": "H" 
			},
			{
				"x": 0.5307348696,
				"y": -1.0392549615,
				"z": 4.1215218815,
				"element": "H" 
			},
			{
				"x": 2.0376803677,
				"y": -1.1158725291,
				"z": 2.1594946923,
				"element": "H" 
			},
			{
				"x": 0.7902780174,
				"y": -2.3695133382,
				"z": 2.0610417597,
				"element": "H" 
			}
		],
		 "valence_orbital": [ 
			{
				"type": "occ",
				"energy": -0.2903,
				"method": "rhf"
			},
			{
				"type": "occ",
				"energy": -0.28008,
				"method": "rhf"
			},
			{
				"type": "occ",
				"energy": -0.27085,
				"method": "rhf"
			},
			{
				"type": "occ",
				"energy": -0.26881,
				"method": "rhf"
			},
			{
				"type": "occ",
				"energy": -0.22345,
				"method": "rhf"
			},
			{
				"type": "unocc",
				"energy": -0.07829,
				"method": "rhf"
			},
			{
				"type": "unocc",
				"energy": -0.03744,
				"method": "rhf"
			},
			{
				"type": "unocc",
				"energy": 0.0029,
				"method": "rhf"
			},
			{
				"type": "unocc",
				"energy": 0.02681,
				"method": "rhf"
			},
			{
				"type": "unocc",
				"energy": 0.05949,
				"method": "rhf"
			}
		],
		"cosmo_sigma_profile": { 
			"-0.025": 0.0,
			"-0.024": 0.0,
			"-0.023": 0.0,
			"-0.022": 0.0,
			"-0.021": 0.0,
			"-0.02": 0.0,
			"-0.019": 0.136701235783,
			"-0.018": 1.35832137177,
			"-0.017": 0.515543152275,
			"-0.016": 0.688072425157,
			"-0.015": 0.761583477674,
			"-0.014": 1.24707994321,
			"-0.013": 0.680108149575,
			"-0.012": 0.425499612916,
			"-0.011": 0.526380487689,
			"-0.01": 0.899106228286,
			"-0.009": 0.792206295284,
			"-0.008": 4.36357786755,
			"-0.007": 10.0221996255,
			"-0.006": 18.182184438,
			"-0.005": 29.8930294834,
			"-0.004": 26.0787493881,
			"-0.003": 16.4445770946,
			"-0.002": 14.7072165134,
			"-0.001": 11.4189314658,
			"0.0": 13.2952009359,
			"0.001": 20.0791677731,
			"0.002": 12.4356514272,
			"0.003": 9.42151849057,
			"0.004": 5.59583729499,
			"0.005": 6.34058282719,
			"0.006": 8.08104123214,
			"0.007": 9.96544077653,
			"0.008": 11.4580790981,
			"0.009": 9.71299880499,
			"0.01": 8.62163933636,
			"0.011": 7.89821124314,
			"0.012": 3.66517221293,
			"0.013": 1.80334575548,
			"0.014": 0.0835099293662,
			"0.015": 0.0,
			"0.016": 0.0,
			"0.017": 0.0,
			"0.018": 0.0,
			"0.019": 0.0,
			"0.02": 0.0,
			"0.021": 0.0,
			"0.022": 0.0,
			"0.023": 0.0,
			"0.024": 0.0,
			"0.025": 0.0
		}
	}
}
