{
	 "smiles": "C1=CC=C(C=C1)C1=CC=NC=N1", 
	 "Tm": 329.15, 
	 "num_atms": 20, 
	 "gaussian": { 
		 "optdone": 1, 
		 "sigma_profile": "yes", 
		 "theory": "DFT", 
		 "functional": "B3LYP", 
		 "basiset": "6-31G**", 
		 "properties": { 
			 "R2extent": 2270.672, 
			 "electric_dipole_moment_norm": 2.62322787992, 
			 "electric_quadrupole_moment_norm": 6.07370464461, 
			 "total_energy": -495.387012189, 
			 "HOMO_LUMO_gap": 0.18496, 
			 "cosmo_polarized_energy": -8.08, 
			 "cosmo_cavitation_energy": 24.16, 
			 "cosmo_dispersion_energy": -18.2, 
			 "cosmo_repulsion_energy": 1.41, 
			 "cosmo_total_nonelectrostatic_energy": 7.37, 
			 "SMD_solvation_energy": 1.76 
		},
		"coords": [
			{
				"x": 1.8139059412,
				"y": -1.591138918,
				"z": -2.9810127778,
				"element": "C" 
			},
			{
				"x": 1.6851431411,
				"y": -0.200162904,
				"z": -2.971890508,
				"element": "C" 
			},
			{
				"x": 1.0201259361,
				"y": 0.436093226,
				"z": -1.9270692419,
				"element": "C" 
			},
			{
				"x": 0.47681324,
				"y": -0.3079472114,
				"z": -0.866026352,
				"element": "C" 
			},
			{
				"x": 0.6067729689,
				"y": -1.706502161,
				"z": -0.8888679456,
				"element": "C" 
			},
			{
				"x": 1.2691226433,
				"y": -2.3419550706,
				"z": -1.9374568565,
				"element": "C" 
			},
			{
				"x": -0.2187965071,
				"y": 0.3979761875,
				"z": 0.2398100401,
				"element": "C" 
			},
			{
				"x": -0.5411737152,
				"y": -0.2151380028,
				"z": 1.4610201109,
				"element": "C" 
			},
			{
				"x": -1.2008260284,
				"y": 0.5547564442,
				"z": 2.4119678955,
				"element": "C" 
			},
			{
				"x": -1.5258897282,
				"y": 1.8390472315,
				"z": 2.2125381242,
				"element": "N" 
			},
			{
				"x": -1.1603664786,
				"y": 2.3334456448,
				"z": 1.0244744886,
				"element": "C" 
			},
			{
				"x": -0.5337600654,
				"y": 1.6936249968,
				"z": 0.0377943822,
				"element": "N" 
			},
			{
				"x": 2.3312918518,
				"y": -2.0871636546,
				"z": -3.7971826474,
				"element": "H" 
			},
			{
				"x": 2.1041860149,
				"y": 0.3903049843,
				"z": -3.781574579,
				"element": "H" 
			},
			{
				"x": 0.9084493821,
				"y": 1.5140882099,
				"z": -1.9110346936,
				"element": "H" 
			},
			{
				"x": 0.1735919668,
				"y": -2.3109898074,
				"z": -0.0984495211,
				"element": "H" 
			},
			{
				"x": 1.3549897686,
				"y": -3.4246417155,
				"z": -1.9418333232,
				"element": "H" 
			},
			{
				"x": -0.2785508715,
				"y": -1.2437784153,
				"z": 1.6771034518,
				"element": "H" 
			},
			{
				"x": -1.4768938159,
				"y": 0.1282758358,
				"z": 3.3750880011,
				"element": "H" 
			},
			{
				"x": -1.4043356446,
				"y": 3.3786050998,
				"z": 0.840601952,
				"element": "H" 
			}
		],
		 "valence_orbital": [ 
			{
				"type": "occ",
				"energy": -0.29657,
				"method": "rhf"
			},
			{
				"type": "occ",
				"energy": -0.2918,
				"method": "rhf"
			},
			{
				"type": "occ",
				"energy": -0.25813,
				"method": "rhf"
			},
			{
				"type": "occ",
				"energy": -0.25148,
				"method": "rhf"
			},
			{
				"type": "occ",
				"energy": -0.24457,
				"method": "rhf"
			},
			{
				"type": "unocc",
				"energy": -0.05961,
				"method": "rhf"
			},
			{
				"type": "unocc",
				"energy": -0.03031,
				"method": "rhf"
			},
			{
				"type": "unocc",
				"energy": -0.0046,
				"method": "rhf"
			},
			{
				"type": "unocc",
				"energy": 0.02083,
				"method": "rhf"
			},
			{
				"type": "unocc",
				"energy": 0.08734,
				"method": "rhf"
			}
		],
		"cosmo_sigma_profile": { 
			"-0.025": 0.0,
			"-0.024": 0.0,
			"-0.023": 0.0,
			"-0.022": 0.0,
			"-0.021": 0.0,
			"-0.02": 0.0,
			"-0.019": 0.0,
			"-0.018": 0.0,
			"-0.017": 0.0,
			"-0.016": 0.0,
			"-0.015": 0.0,
			"-0.014": 0.0,
			"-0.013": 0.0,
			"-0.012": 0.0,
			"-0.011": 0.0,
			"-0.01": 0.0891239767613,
			"-0.009": 1.3789753657,
			"-0.008": 3.71603839707,
			"-0.007": 6.90795729385,
			"-0.006": 12.4722689831,
			"-0.005": 13.9131467348,
			"-0.004": 14.1687320108,
			"-0.003": 11.4618457848,
			"-0.002": 11.5009011683,
			"-0.001": 14.9034073934,
			"0.0": 19.663156006,
			"0.001": 16.1733012751,
			"0.002": 12.6500619537,
			"0.003": 13.0406771999,
			"0.004": 15.0392253882,
			"0.005": 9.63016709919,
			"0.006": 2.93137206905,
			"0.007": 2.99434544436,
			"0.008": 2.91938203775,
			"0.009": 1.70662571281,
			"0.01": 1.40219855426,
			"0.011": 1.6536896351,
			"0.012": 1.8958299623,
			"0.013": 0.751846456275,
			"0.014": 0.999088509828,
			"0.015": 0.771671178951,
			"0.016": 0.473519579744,
			"0.017": 0.0,
			"0.018": 0.0,
			"0.019": 0.0,
			"0.02": 0.0,
			"0.021": 0.0,
			"0.022": 0.0,
			"0.023": 0.0,
			"0.024": 0.0,
			"0.025": 0.0
		}
	}
}
