{
	 "smiles": "ClCC(=O)C1=CNC2=C1C=CC=C2", 
	 "Tm": 457.15, 
	 "num_atms": 21, 
	 "gaussian": { 
		 "optdone": 1, 
		 "sigma_profile": "yes", 
		 "theory": "DFT", 
		 "functional": "B3LYP", 
		 "basiset": "6-31G**", 
		 "properties": { 
			 "R2extent": 3458.3368, 
			 "electric_dipole_moment_norm": 6.04052019366, 
			 "electric_quadrupole_moment_norm": 20.0891596248, 
			 "total_energy": -976.05702185, 
			 "HOMO_LUMO_gap": 0.17811, 
			 "cosmo_polarized_energy": -17.14, 
			 "cosmo_cavitation_energy": 26.93, 
			 "cosmo_dispersion_energy": -20.12, 
			 "cosmo_repulsion_energy": 1.58, 
			 "cosmo_total_nonelectrostatic_energy": 8.39, 
			 "SMD_solvation_energy": 4.63 
		},
		"coords": [
			{
				"x": 0.9275667656,
				"y": 4.081421533,
				"z": -1.6905374039,
				"element": "Cl" 
			},
			{
				"x": 0.9339516072,
				"y": 2.4638956872,
				"z": -0.9219275959,
				"element": "C" 
			},
			{
				"x": -0.1813940396,
				"y": 2.2745196657,
				"z": 0.1118203527,
				"element": "C" 
			},
			{
				"x": -0.9837444678,
				"y": 3.1571553596,
				"z": 0.367787678,
				"element": "O" 
			},
			{
				"x": -0.2296437637,
				"y": 0.9632064411,
				"z": 0.779827819,
				"element": "C" 
			},
			{
				"x": -1.2006316904,
				"y": 0.6966246771,
				"z": 1.7288785877,
				"element": "C" 
			},
			{
				"x": -1.0496629007,
				"y": -0.5697996252,
				"z": 2.2071315635,
				"element": "N" 
			},
			{
				"x": 0.0306042798,
				"y": -1.1788028924,
				"z": 1.584569652,
				"element": "C" 
			},
			{
				"x": 0.5806230177,
				"y": -0.2387471062,
				"z": 0.669321395,
				"element": "C" 
			},
			{
				"x": 1.6991894682,
				"y": -0.6370133935,
				"z": -0.0867029733,
				"element": "C" 
			},
			{
				"x": 2.2190486574,
				"y": -1.9150112927,
				"z": 0.0850359945,
				"element": "C" 
			},
			{
				"x": 1.6513804867,
				"y": -2.8219520066,
				"z": 0.999493169,
				"element": "C" 
			},
			{
				"x": 0.5466324423,
				"y": -2.464085562,
				"z": 1.7630392397,
				"element": "C" 
			},
			{
				"x": 1.9074931963,
				"y": 2.3250210034,
				"z": -0.4442816603,
				"element": "H" 
			},
			{
				"x": 0.8336365003,
				"y": 1.7172725686,
				"z": -1.7142014152,
				"element": "H" 
			},
			{
				"x": -1.9834491105,
				"y": 1.3543105398,
				"z": 2.0765841302,
				"element": "H" 
			},
			{
				"x": -1.6342067532,
				"y": -0.9990447196,
				"z": 2.9072132574,
				"element": "H" 
			},
			{
				"x": 2.1629535728,
				"y": 0.0345537281,
				"z": -0.8006588935,
				"element": "H" 
			},
			{
				"x": 3.0819598814,
				"y": -2.2205382149,
				"z": -0.4989888072,
				"element": "H" 
			},
			{
				"x": 2.0813196853,
				"y": -3.8126642286,
				"z": 1.1098397916,
				"element": "H" 
			},
			{
				"x": 0.1013731647,
				"y": -3.1569221621,
				"z": 2.4713561192,
				"element": "H" 
			}
		],
		 "valence_orbital": [ 
			{
				"type": "occ",
				"energy": -0.29132,
				"method": "rhf"
			},
			{
				"type": "occ",
				"energy": -0.28722,
				"method": "rhf"
			},
			{
				"type": "occ",
				"energy": -0.25202,
				"method": "rhf"
			},
			{
				"type": "occ",
				"energy": -0.24195,
				"method": "rhf"
			},
			{
				"type": "occ",
				"energy": -0.22407,
				"method": "rhf"
			},
			{
				"type": "unocc",
				"energy": -0.04596,
				"method": "rhf"
			},
			{
				"type": "unocc",
				"energy": -0.01408,
				"method": "rhf"
			},
			{
				"type": "unocc",
				"energy": 0.01041,
				"method": "rhf"
			},
			{
				"type": "unocc",
				"energy": 0.03349,
				"method": "rhf"
			},
			{
				"type": "unocc",
				"energy": 0.06274,
				"method": "rhf"
			}
		],
		"cosmo_sigma_profile": { 
			"-0.025": 0.0,
			"-0.024": 0.0,
			"-0.023": 0.0,
			"-0.022": 0.0,
			"-0.021": 0.0,
			"-0.02": 0.0,
			"-0.019": 0.0,
			"-0.018": 0.0,
			"-0.017": 0.699672790809,
			"-0.016": 2.03704000885,
			"-0.015": 1.52037951365,
			"-0.014": 0.998107133354,
			"-0.013": 1.48675325766,
			"-0.012": 1.35781883146,
			"-0.011": 1.49302481598,
			"-0.01": 1.59209463993,
			"-0.009": 4.66944128775,
			"-0.008": 8.18174654166,
			"-0.007": 9.16511064245,
			"-0.006": 10.2389468653,
			"-0.005": 10.6603605662,
			"-0.004": 11.6303463627,
			"-0.003": 11.2824579984,
			"-0.002": 9.51557495989,
			"-0.001": 9.7670610147,
			"0.0": 9.59234186122,
			"0.001": 13.2823783216,
			"0.002": 16.2935748174,
			"0.003": 15.2586090483,
			"0.004": 14.9997721565,
			"0.005": 15.3405822643,
			"0.006": 16.0376045799,
			"0.007": 3.00582170765,
			"0.008": 2.06381474052,
			"0.009": 2.74187033831,
			"0.01": 1.71090639281,
			"0.011": 2.85204697514,
			"0.012": 4.66150605743,
			"0.013": 2.66141316417,
			"0.014": 1.23849875617,
			"0.015": 0.0296845387546,
			"0.016": 0.0,
			"0.017": 0.0,
			"0.018": 0.0,
			"0.019": 0.0,
			"0.02": 0.0,
			"0.021": 0.0,
			"0.022": 0.0,
			"0.023": 0.0,
			"0.024": 0.0,
			"0.025": 0.0
		}
	}
}
