{
	 "smiles": "O=C(OC1CCCCC1)C(=O)OC1CCCCC1", 
	 "Tm": 316.65, 
	 "num_atms": 40, 
	 "gaussian": { 
		 "optdone": 1, 
		 "sigma_profile": "yes", 
		 "theory": "DFT", 
		 "functional": "B3LYP", 
		 "basiset": "6-31G**", 
		 "properties": { 
			 "R2extent": 6611.729, 
			 "electric_dipole_moment_norm": 3.62793593246, 
			 "electric_quadrupole_moment_norm": 19.4652592117, 
			 "total_energy": -847.669607372, 
			 "HOMO_LUMO_gap": 0.22422, 
			 "cosmo_polarized_energy": -10.0, 
			 "cosmo_cavitation_energy": 39.59, 
			 "cosmo_dispersion_energy": -28.07, 
			 "cosmo_repulsion_energy": 2.23, 
			 "cosmo_total_nonelectrostatic_energy": 13.75, 
			 "SMD_solvation_energy": 6.91 
		},
		"coords": [
			{
				"x": -0.0601467977,
				"y": 3.0469886107,
				"z": -0.8378560746,
				"element": "O" 
			},
			{
				"x": -0.1158341202,
				"y": 1.9526637401,
				"z": -0.3257334037,
				"element": "C" 
			},
			{
				"x": -0.4646702484,
				"y": 0.8023063015,
				"z": -0.9061852448,
				"element": "O" 
			},
			{
				"x": -0.8620763781,
				"y": 0.7762206512,
				"z": -2.3199278189,
				"element": "C" 
			},
			{
				"x": -2.1908455221,
				"y": 1.5070052703,
				"z": -2.5473475002,
				"element": "C" 
			},
			{
				"x": -2.4750519642,
				"y": 1.5624506003,
				"z": -4.0572648324,
				"element": "C" 
			},
			{
				"x": -1.413388706,
				"y": 2.403179082,
				"z": -4.8161819574,
				"element": "C" 
			},
			{
				"x": -0.0925434281,
				"y": 2.536388502,
				"z": -4.0272794975,
				"element": "C" 
			},
			{
				"x": 0.2605610776,
				"y": 1.2413495105,
				"z": -3.283141793,
				"element": "C" 
			},
			{
				"x": 0.198724424,
				"y": 1.7511090152,
				"z": 1.1698297384,
				"element": "C" 
			},
			{
				"x": -0.0568126426,
				"y": 2.5982153687,
				"z": 1.9934598053,
				"element": "O" 
			},
			{
				"x": 0.7971903746,
				"y": 0.5767847615,
				"z": 1.3970190521,
				"element": "O" 
			},
			{
				"x": 1.1620367924,
				"y": 0.2728521287,
				"z": 2.788325209,
				"element": "C" 
			},
			{
				"x": 2.3167910951,
				"y": -0.7413605809,
				"z": 2.7287976971,
				"element": "C" 
			},
			{
				"x": 1.8378088301,
				"y": -2.2098093285,
				"z": 2.7842183866,
				"element": "C" 
			},
			{
				"x": 0.4759642874,
				"y": -2.3754521228,
				"z": 2.0957430764,
				"element": "C" 
			},
			{
				"x": -0.6197555645,
				"y": -1.5560835167,
				"z": 2.8194084521,
				"element": "C" 
			},
			{
				"x": -0.0581198903,
				"y": -0.292069395,
				"z": 3.5140267887,
				"element": "C" 
			},
			{
				"x": -1.0273764477,
				"y": -0.2953298386,
				"z": -2.4601376364,
				"element": "H" 
			},
			{
				"x": -2.1335406809,
				"y": 2.5197672748,
				"z": -2.1393038189,
				"element": "H" 
			},
			{
				"x": -2.9909345719,
				"y": 0.9822488195,
				"z": -2.0145717769,
				"element": "H" 
			},
			{
				"x": -3.478773652,
				"y": 1.9632801414,
				"z": -4.2312931795,
				"element": "H" 
			},
			{
				"x": -2.4893356444,
				"y": 0.5362121745,
				"z": -4.4486317205,
				"element": "H" 
			},
			{
				"x": -1.2214810626,
				"y": 1.9443516989,
				"z": -5.7934571063,
				"element": "H" 
			},
			{
				"x": -1.8061530974,
				"y": 3.405368003,
				"z": -5.0214722447,
				"element": "H" 
			},
			{
				"x": -0.1719563445,
				"y": 3.3429453863,
				"z": -3.2937819025,
				"element": "H" 
			},
			{
				"x": 0.7240847296,
				"y": 2.8069596741,
				"z": -4.7059223838,
				"element": "H" 
			},
			{
				"x": 1.1950749962,
				"y": 1.3555253641,
				"z": -2.7263629244,
				"element": "H" 
			},
			{
				"x": 0.4346722296,
				"y": 0.438369788,
				"z": -4.0105368345,
				"element": "H" 
			},
			{
				"x": 1.4795038523,
				"y": 1.2144980895,
				"z": 3.2424031028,
				"element": "H" 
			},
			{
				"x": 3.0013541586,
				"y": -0.5390078945,
				"z": 3.5603622982,
				"element": "H" 
			},
			{
				"x": 2.8793198723,
				"y": -0.5538445749,
				"z": 1.8082091817,
				"element": "H" 
			},
			{
				"x": 2.5889869855,
				"y": -2.8603781441,
				"z": 2.3235016846,
				"element": "H" 
			},
			{
				"x": 1.7539039956,
				"y": -2.5336400526,
				"z": 3.8301999487,
				"element": "H" 
			},
			{
				"x": 0.1915643768,
				"y": -3.4327314369,
				"z": 2.0561305236,
				"element": "H" 
			},
			{
				"x": 0.5612657904,
				"y": -2.0315621196,
				"z": 1.0587216119,
				"element": "H" 
			},
			{
				"x": -1.1165950291,
				"y": -2.1758466156,
				"z": 3.5747628582,
				"element": "H" 
			},
			{
				"x": -1.3924631882,
				"y": -1.2695765505,
				"z": 2.0988683648,
				"element": "H" 
			},
			{
				"x": -0.825768426,
				"y": 0.4808252978,
				"z": 3.6097913172,
				"element": "H" 
			},
			{
				"x": 0.2689155389,
				"y": -0.5330730837,
				"z": 4.5336105536,
				"element": "H" 
			}
		],
		 "valence_orbital": [ 
			{
				"type": "occ",
				"energy": -0.30591,
				"method": "rhf"
			},
			{
				"type": "occ",
				"energy": -0.29323,
				"method": "rhf"
			},
			{
				"type": "occ",
				"energy": -0.29196,
				"method": "rhf"
			},
			{
				"type": "occ",
				"energy": -0.29008,
				"method": "rhf"
			},
			{
				"type": "occ",
				"energy": -0.26645,
				"method": "rhf"
			},
			{
				"type": "unocc",
				"energy": -0.04223,
				"method": "rhf"
			},
			{
				"type": "unocc",
				"energy": 0.06075,
				"method": "rhf"
			},
			{
				"type": "unocc",
				"energy": 0.0745,
				"method": "rhf"
			},
			{
				"type": "unocc",
				"energy": 0.07582,
				"method": "rhf"
			},
			{
				"type": "unocc",
				"energy": 0.08759,
				"method": "rhf"
			}
		],
		"cosmo_sigma_profile": { 
			"-0.025": 0.0,
			"-0.024": 0.0,
			"-0.023": 0.0,
			"-0.022": 0.0,
			"-0.021": 0.0,
			"-0.02": 0.0,
			"-0.019": 0.0,
			"-0.018": 0.0,
			"-0.017": 0.0,
			"-0.016": 0.0,
			"-0.015": 0.0,
			"-0.014": 0.0,
			"-0.013": 0.0,
			"-0.012": 0.0,
			"-0.011": 0.0,
			"-0.01": 0.0,
			"-0.009": 0.0,
			"-0.008": 0.0,
			"-0.007": 0.0161050920239,
			"-0.006": 2.46398691098,
			"-0.005": 10.0944164212,
			"-0.004": 20.7458389548,
			"-0.003": 35.2616617956,
			"-0.002": 49.1808359331,
			"-0.001": 53.9825079416,
			"0.0": 47.8958138016,
			"0.001": 27.8887359821,
			"0.002": 9.0701007475,
			"0.003": 6.30805270311,
			"0.004": 5.75408075737,
			"0.005": 4.57286327196,
			"0.006": 4.8735801523,
			"0.007": 4.66964214385,
			"0.008": 4.27441184869,
			"0.009": 4.48861691461,
			"0.01": 5.54824903705,
			"0.011": 6.77653835761,
			"0.012": 2.71941272996,
			"0.013": 0.0179802300626,
			"0.014": 0.0,
			"0.015": 0.0,
			"0.016": 0.0,
			"0.017": 0.0,
			"0.018": 0.0,
			"0.019": 0.0,
			"0.02": 0.0,
			"0.021": 0.0,
			"0.022": 0.0,
			"0.023": 0.0,
			"0.024": 0.0,
			"0.025": 0.0
		}
	}
}
