{
	 "smiles": "CNC1=NNC(N)=C1S(C)(=O)=O", 
	 "Tm": 445.15, 
	 "num_atms": 22, 
	 "gaussian": { 
		 "optdone": 1, 
		 "sigma_profile": "yes", 
		 "theory": "DFT", 
		 "functional": "B3LYP", 
		 "basiset": "6-31G**", 
		 "properties": { 
			 "R2extent": 2352.8051, 
			 "electric_dipole_moment_norm": 4.53593234187, 
			 "electric_quadrupole_moment_norm": 17.8502043249, 
			 "total_energy": -964.117196296, 
			 "HOMO_LUMO_gap": 0.23378, 
			 "cosmo_polarized_energy": -20.88, 
			 "cosmo_cavitation_energy": 26.13, 
			 "cosmo_dispersion_energy": -19.95, 
			 "cosmo_repulsion_energy": 1.56, 
			 "cosmo_total_nonelectrostatic_energy": 7.74, 
			 "SMD_solvation_energy": 3.04 
		},
		"coords": [
			{
				"x": 0.2169589256,
				"y": -0.9836676347,
				"z": 3.5198048668,
				"element": "C" 
			},
			{
				"x": -0.849876352,
				"y": -0.7392957426,
				"z": 2.5301852811,
				"element": "N" 
			},
			{
				"x": -0.5638348657,
				"y": 0.1414061659,
				"z": 1.4831416817,
				"element": "C" 
			},
			{
				"x": -1.225981994,
				"y": 1.278478936,
				"z": 1.3522830396,
				"element": "N" 
			},
			{
				"x": -0.7736766469,
				"y": 1.8062972494,
				"z": 0.1595122979,
				"element": "N" 
			},
			{
				"x": 0.1763377602,
				"y": 1.0522055095,
				"z": -0.438565415,
				"element": "C" 
			},
			{
				"x": 0.8290764338,
				"y": 1.4188375798,
				"z": -1.5866078584,
				"element": "N" 
			},
			{
				"x": 0.3426425051,
				"y": -0.0668738989,
				"z": 0.389221141,
				"element": "C" 
			},
			{
				"x": 1.2674384371,
				"y": -1.4854234773,
				"z": -0.0429861079,
				"element": "S" 
			},
			{
				"x": 0.0241358512,
				"y": -2.7869391799,
				"z": -0.1734251633,
				"element": "C" 
			},
			{
				"x": 2.1865079372,
				"y": -1.8781545454,
				"z": 1.0383157597,
				"element": "O" 
			},
			{
				"x": 1.8170484212,
				"y": -1.2332117974,
				"z": -1.3973733426,
				"element": "O" 
			},
			{
				"x": 1.1025809511,
				"y": -1.3720047924,
				"z": 3.0161183779,
				"element": "H" 
			},
			{
				"x": -0.1366290291,
				"y": -1.7365088216,
				"z": 4.2293404649,
				"element": "H" 
			},
			{
				"x": 0.4956841773,
				"y": -0.0769476689,
				"z": 4.0757447641,
				"element": "H" 
			},
			{
				"x": -1.693572342,
				"y": -0.4082788305,
				"z": 2.9896120023,
				"element": "H" 
			},
			{
				"x": -1.047410564,
				"y": 2.7443595924,
				"z": -0.0861732331,
				"element": "H" 
			},
			{
				"x": 1.3786737436,
				"y": 0.6532992778,
				"z": -1.9705192599,
				"element": "H" 
			},
			{
				"x": 0.2800213356,
				"y": 1.9245325836,
				"z": -2.2684531636,
				"element": "H" 
			},
			{
				"x": 0.5616929678,
				"y": -3.7252534223,
				"z": -0.322623087,
				"element": "H" 
			},
			{
				"x": -0.6249418933,
				"y": -2.5704008963,
				"z": -1.0226305842,
				"element": "H" 
			},
			{
				"x": -0.5419757597,
				"y": -2.8039561864,
				"z": 0.7602775381,
				"element": "H" 
			}
		],
		 "valence_orbital": [ 
			{
				"type": "occ",
				"energy": -0.29974,
				"method": "rhf"
			},
			{
				"type": "occ",
				"energy": -0.2854,
				"method": "rhf"
			},
			{
				"type": "occ",
				"energy": -0.28282,
				"method": "rhf"
			},
			{
				"type": "occ",
				"energy": -0.23773,
				"method": "rhf"
			},
			{
				"type": "occ",
				"energy": -0.21518,
				"method": "rhf"
			},
			{
				"type": "unocc",
				"energy": 0.0186,
				"method": "rhf"
			},
			{
				"type": "unocc",
				"energy": 0.03056,
				"method": "rhf"
			},
			{
				"type": "unocc",
				"energy": 0.06225,
				"method": "rhf"
			},
			{
				"type": "unocc",
				"energy": 0.06942,
				"method": "rhf"
			},
			{
				"type": "unocc",
				"energy": 0.08188,
				"method": "rhf"
			}
		],
		"cosmo_sigma_profile": { 
			"-0.025": 0.0,
			"-0.024": 0.0,
			"-0.023": 0.0,
			"-0.022": 0.0,
			"-0.021": 0.0,
			"-0.02": 0.0,
			"-0.019": 0.0,
			"-0.018": 0.0,
			"-0.017": 1.04684754371,
			"-0.016": 2.34586012458,
			"-0.015": 2.34336095751,
			"-0.014": 2.99490169684,
			"-0.013": 1.98317990319,
			"-0.012": 2.5976719989,
			"-0.011": 3.24417320703,
			"-0.01": 2.94991819569,
			"-0.009": 3.24094727582,
			"-0.008": 6.57050653055,
			"-0.007": 6.06894734405,
			"-0.006": 7.10523840278,
			"-0.005": 7.6666137221,
			"-0.004": 12.91873867,
			"-0.003": 14.9600387198,
			"-0.002": 12.2896756607,
			"-0.001": 14.5492310661,
			"0.0": 10.5488622434,
			"0.001": 10.2838416048,
			"0.002": 10.1330096699,
			"0.003": 9.5236949739,
			"0.004": 7.23140262247,
			"0.005": 5.53374794391,
			"0.006": 6.17655829188,
			"0.007": 4.87816053428,
			"0.008": 4.90254698779,
			"0.009": 5.10614224737,
			"0.01": 6.40755698523,
			"0.011": 7.10537749039,
			"0.012": 8.52371540852,
			"0.013": 3.03979704408,
			"0.014": 1.36594120272,
			"0.015": 0.80018046478,
			"0.016": 0.294699880317,
			"0.017": 0.0,
			"0.018": 0.0,
			"0.019": 0.0,
			"0.02": 0.0,
			"0.021": 0.0,
			"0.022": 0.0,
			"0.023": 0.0,
			"0.024": 0.0,
			"0.025": 0.0
		}
	}
}
