{
	 "smiles": "NC1=CC2=C(NC(=N2)C(F)(F)F)C=C1", 
	 "Tm": 461.15, 
	 "num_atms": 20, 
	 "gaussian": { 
		 "optdone": 1, 
		 "sigma_profile": "yes", 
		 "theory": "DFT", 
		 "functional": "B3LYP", 
		 "basiset": "6-31G**", 
		 "properties": { 
			 "R2extent": 4066.2731, 
			 "electric_dipole_moment_norm": 4.25691883174, 
			 "electric_quadrupole_moment_norm": 16.1081792084, 
			 "total_energy": -772.253682221, 
			 "HOMO_LUMO_gap": 0.16912, 
			 "cosmo_polarized_energy": -15.06, 
			 "cosmo_cavitation_energy": 26.18, 
			 "cosmo_dispersion_energy": -19.22, 
			 "cosmo_repulsion_energy": 1.45, 
			 "cosmo_total_nonelectrostatic_energy": 8.41, 
			 "SMD_solvation_energy": 3.28 
		},
		"coords": [
			{
				"x": -0.5065120025,
				"y": 2.5344645435,
				"z": 2.4592930424,
				"element": "N" 
			},
			{
				"x": -0.3827701977,
				"y": 1.561350885,
				"z": 1.4583740578,
				"element": "C" 
			},
			{
				"x": -0.6250349202,
				"y": 1.8748694225,
				"z": 0.1192244153,
				"element": "C" 
			},
			{
				"x": -0.5505515194,
				"y": 0.8478095758,
				"z": -0.830339255,
				"element": "C" 
			},
			{
				"x": -0.2312428284,
				"y": -0.4736688126,
				"z": -0.4346891142,
				"element": "C" 
			},
			{
				"x": -0.2403525116,
				"y": -1.2063669804,
				"z": -1.6105908802,
				"element": "N" 
			},
			{
				"x": -0.552633689,
				"y": -0.3211138448,
				"z": -2.6112922785,
				"element": "C" 
			},
			{
				"x": -0.7446863534,
				"y": 0.9070416675,
				"z": -2.2023019595,
				"element": "N" 
			},
			{
				"x": -0.6499239761,
				"y": -0.7749077241,
				"z": -4.0382894016,
				"element": "C" 
			},
			{
				"x": -1.8703526779,
				"y": -0.5580993828,
				"z": -4.554391387,
				"element": "F" 
			},
			{
				"x": -0.402475193,
				"y": -2.1102497894,
				"z": -4.1085242041,
				"element": "F" 
			},
			{
				"x": 0.2422385148,
				"y": -0.1532379868,
				"z": -4.8268236878,
				"element": "F" 
			},
			{
				"x": 0.0162806325,
				"y": -0.8013855371,
				"z": 0.9000701189,
				"element": "C" 
			},
			{
				"x": -0.0657661256,
				"y": 0.2260867029,
				"z": 1.8294035915,
				"element": "C" 
			},
			{
				"x": -0.4147308275,
				"y": 3.4865761372,
				"z": 2.1315266444,
				"element": "H" 
			},
			{
				"x": 0.0638785837,
				"y": 2.3729159563,
				"z": 3.278373471,
				"element": "H" 
			},
			{
				"x": -0.8701469155,
				"y": 2.8862306332,
				"z": -0.1900561819,
				"element": "H" 
			},
			{
				"x": -0.0626162335,
				"y": -2.1907914037,
				"z": -1.7336708369,
				"element": "H" 
			},
			{
				"x": 0.2628171545,
				"y": -1.8118914247,
				"z": 1.210918312,
				"element": "H" 
			},
			{
				"x": 0.109781086,
				"y": 0.0066673626,
				"z": 2.8792855332,
				"element": "H" 
			}
		],
		 "valence_orbital": [ 
			{
				"type": "occ",
				"energy": -0.31374,
				"method": "rhf"
			},
			{
				"type": "occ",
				"energy": -0.29687,
				"method": "rhf"
			},
			{
				"type": "occ",
				"energy": -0.2821,
				"method": "rhf"
			},
			{
				"type": "occ",
				"energy": -0.23329,
				"method": "rhf"
			},
			{
				"type": "occ",
				"energy": -0.19974,
				"method": "rhf"
			},
			{
				"type": "unocc",
				"energy": -0.03062,
				"method": "rhf"
			},
			{
				"type": "unocc",
				"energy": 0.02654,
				"method": "rhf"
			},
			{
				"type": "unocc",
				"energy": 0.03689,
				"method": "rhf"
			},
			{
				"type": "unocc",
				"energy": 0.07609,
				"method": "rhf"
			},
			{
				"type": "unocc",
				"energy": 0.08311,
				"method": "rhf"
			}
		],
		"cosmo_sigma_profile": { 
			"-0.025": 0.0,
			"-0.024": 0.0,
			"-0.023": 0.0,
			"-0.022": 0.0,
			"-0.021": 0.0,
			"-0.02": 0.0,
			"-0.019": 0.0,
			"-0.018": 0.0,
			"-0.017": 0.768648823701,
			"-0.016": 0.998500070479,
			"-0.015": 0.711208539752,
			"-0.014": 1.19584434913,
			"-0.013": 1.28551561315,
			"-0.012": 2.9309803235,
			"-0.011": 4.15990526353,
			"-0.01": 4.4948886749,
			"-0.009": 4.43703331945,
			"-0.008": 4.78789321031,
			"-0.007": 6.63575898829,
			"-0.006": 8.6286650261,
			"-0.005": 8.26936815875,
			"-0.004": 7.57865201354,
			"-0.003": 6.50925637023,
			"-0.002": 8.06700957851,
			"-0.001": 8.81806966374,
			"0.0": 10.726708355,
			"0.001": 16.0489463948,
			"0.002": 33.9554045421,
			"0.003": 18.5705371702,
			"0.004": 11.4186861081,
			"0.005": 14.3843649902,
			"0.006": 7.18033358349,
			"0.007": 2.74646828173,
			"0.008": 1.94615757231,
			"0.009": 2.33378779383,
			"0.01": 1.61155938769,
			"0.011": 1.58218093304,
			"0.012": 1.81123801514,
			"0.013": 1.59286156916,
			"0.014": 1.71026487427,
			"0.015": 1.2348215554,
			"0.016": 0.622469378903,
			"0.017": 0.0857978615519,
			"0.018": 0.0,
			"0.019": 0.0,
			"0.02": 0.0,
			"0.021": 0.0,
			"0.022": 0.0,
			"0.023": 0.0,
			"0.024": 0.0,
			"0.025": 0.0
		}
	}
}
