{
	 "smiles": "[O-][N+](=O)C1=C(C=CC=C1)C1=NC(=C(N1)C1=CC=CC=C1)C1=CC=CC=C1", 
	 "Tm": 509.15, 
	 "num_atms": 41, 
	 "gaussian": { 
		 "optdone": 1, 
		 "sigma_profile": "yes", 
		 "theory": "DFT", 
		 "functional": "B3LYP", 
		 "basiset": "6-31G**", 
		 "properties": { 
			 "R2extent": 10307.518, 
			 "electric_dipole_moment_norm": 6.23488616897, 
			 "electric_quadrupole_moment_norm": 25.1415317419, 
			 "total_energy": -1123.88883121, 
			 "HOMO_LUMO_gap": 0.12159, 
			 "cosmo_polarized_energy": -21.44, 
			 "cosmo_cavitation_energy": 46.62, 
			 "cosmo_dispersion_energy": -31.86, 
			 "cosmo_repulsion_energy": 2.39, 
			 "cosmo_total_nonelectrostatic_energy": 17.15, 
			 "SMD_solvation_energy": 8.49 
		},
		"coords": [
			{
				"x": -2.6745918085,
				"y": 1.1140061045,
				"z": -1.3174211437,
				"element": "O" 
			},
			{
				"x": -2.9772945654,
				"y": 1.6844277937,
				"z": -0.2745727983,
				"element": "N" 
			},
			{
				"x": -4.0723321419,
				"y": 1.6204149422,
				"z": 0.2814882607,
				"element": "O" 
			},
			{
				"x": -1.9765245531,
				"y": 2.5886906488,
				"z": 0.3243025326,
				"element": "C" 
			},
			{
				"x": -0.6134067416,
				"y": 2.2466733845,
				"z": 0.3844228786,
				"element": "C" 
			},
			{
				"x": 0.2681886129,
				"y": 3.2348123644,
				"z": 0.8551869394,
				"element": "C" 
			},
			{
				"x": -0.1866250091,
				"y": 4.4929919473,
				"z": 1.2446401223,
				"element": "C" 
			},
			{
				"x": -1.5502314425,
				"y": 4.7885976758,
				"z": 1.2069567879,
				"element": "C" 
			},
			{
				"x": -2.4494363672,
				"y": 3.8252612427,
				"z": 0.7546476131,
				"element": "C" 
			},
			{
				"x": -0.1073040409,
				"y": 0.9084413437,
				"z": 0.0641778957,
				"element": "C" 
			},
			{
				"x": -0.6835801362,
				"y": -0.236021926,
				"z": 0.3711655351,
				"element": "N" 
			},
			{
				"x": 0.1620489959,
				"y": -1.2318329473,
				"z": -0.0616195871,
				"element": "C" 
			},
			{
				"x": 1.2913164066,
				"y": -0.6697261541,
				"z": -0.6619243235,
				"element": "C" 
			},
			{
				"x": 1.1076709271,
				"y": 0.696663979,
				"z": -0.5346994494,
				"element": "N" 
			},
			{
				"x": 2.4641461266,
				"y": -1.2014514808,
				"z": -1.3666090811,
				"element": "C" 
			},
			{
				"x": 2.3522792978,
				"y": -2.3022930583,
				"z": -2.2353862983,
				"element": "C" 
			},
			{
				"x": 3.4647068279,
				"y": -2.7726766002,
				"z": -2.9288343407,
				"element": "C" 
			},
			{
				"x": 4.7071822399,
				"y": -2.1499813199,
				"z": -2.7816269618,
				"element": "C" 
			},
			{
				"x": 4.8302348286,
				"y": -1.053233553,
				"z": -1.9273550496,
				"element": "C" 
			},
			{
				"x": 3.7213101111,
				"y": -0.5855171253,
				"z": -1.2232472636,
				"element": "C" 
			},
			{
				"x": -0.1908268608,
				"y": -2.6428314037,
				"z": 0.1763451838,
				"element": "C" 
			},
			{
				"x": -1.5482159514,
				"y": -3.0040216072,
				"z": 0.2285770945,
				"element": "C" 
			},
			{
				"x": -1.9214696582,
				"y": -4.3242658551,
				"z": 0.4706069021,
				"element": "C" 
			},
			{
				"x": -0.9488343151,
				"y": -5.3070270587,
				"z": 0.6698591409,
				"element": "C" 
			},
			{
				"x": 0.4021645698,
				"y": -4.9557768183,
				"z": 0.6331222161,
				"element": "C" 
			},
			{
				"x": 0.7796799633,
				"y": -3.6350550396,
				"z": 0.393716624,
				"element": "C" 
			},
			{
				"x": 1.3211856153,
				"y": 2.988988788,
				"z": 0.9546438472,
				"element": "H" 
			},
			{
				"x": 0.5226289993,
				"y": 5.2329551674,
				"z": 1.602693461,
				"element": "H" 
			},
			{
				"x": -1.9137811829,
				"y": 5.7596294079,
				"z": 1.5269186563,
				"element": "H" 
			},
			{
				"x": -3.5143374018,
				"y": 4.0203702345,
				"z": 0.7086312356,
				"element": "H" 
			},
			{
				"x": 1.6667811589,
				"y": 1.3933273885,
				"z": -1.0047840509,
				"element": "H" 
			},
			{
				"x": 1.3866263444,
				"y": -2.7779764661,
				"z": -2.3681953711,
				"element": "H" 
			},
			{
				"x": 3.3581197355,
				"y": -3.622248844,
				"z": -3.5971739176,
				"element": "H" 
			},
			{
				"x": 5.5710720527,
				"y": -2.5172758576,
				"z": -3.327579693,
				"element": "H" 
			},
			{
				"x": 5.7928759011,
				"y": -0.5664277855,
				"z": -1.7993345207,
				"element": "H" 
			},
			{
				"x": 3.8347065675,
				"y": 0.2483916416,
				"z": -0.5352599609,
				"element": "H" 
			},
			{
				"x": -2.2977054228,
				"y": -2.2342944809,
				"z": 0.0781538519,
				"element": "H" 
			},
			{
				"x": -2.9752433707,
				"y": -4.5867151155,
				"z": 0.5029964635,
				"element": "H" 
			},
			{
				"x": -1.2410653816,
				"y": -6.3361837474,
				"z": 0.8584205955,
				"element": "H" 
			},
			{
				"x": 1.1660265164,
				"y": -5.7095594602,
				"z": 0.8031698117,
				"element": "H" 
			},
			{
				"x": 1.8316545531,
				"y": -3.3693503499,
				"z": 0.3901801617,
				"element": "H" 
			}
		],
		 "valence_orbital": [ 
			{
				"type": "occ",
				"energy": -0.26547,
				"method": "rhf"
			},
			{
				"type": "occ",
				"energy": -0.26079,
				"method": "rhf"
			},
			{
				"type": "occ",
				"energy": -0.24419,
				"method": "rhf"
			},
			{
				"type": "occ",
				"energy": -0.2392,
				"method": "rhf"
			},
			{
				"type": "occ",
				"energy": -0.19951,
				"method": "rhf"
			},
			{
				"type": "unocc",
				"energy": -0.07792,
				"method": "rhf"
			},
			{
				"type": "unocc",
				"energy": -0.04459,
				"method": "rhf"
			},
			{
				"type": "unocc",
				"energy": -0.03001,
				"method": "rhf"
			},
			{
				"type": "unocc",
				"energy": -0.01519,
				"method": "rhf"
			},
			{
				"type": "unocc",
				"energy": -0.01271,
				"method": "rhf"
			}
		],
		"cosmo_sigma_profile": { 
			"-0.025": 0.0,
			"-0.024": 0.0,
			"-0.023": 0.0,
			"-0.022": 0.0,
			"-0.021": 0.0,
			"-0.02": 0.0,
			"-0.019": 0.0,
			"-0.018": 0.0,
			"-0.017": 0.00703693679006,
			"-0.016": 0.726636551348,
			"-0.015": 1.01194793305,
			"-0.014": 1.39312909678,
			"-0.013": 0.896987782375,
			"-0.012": 1.97944052914,
			"-0.011": 1.86000528952,
			"-0.01": 1.51628227796,
			"-0.009": 1.73062930842,
			"-0.008": 4.84304398324,
			"-0.007": 11.7355307634,
			"-0.006": 19.7178735639,
			"-0.005": 25.6196426401,
			"-0.004": 27.7798581482,
			"-0.003": 25.4116339599,
			"-0.002": 20.3266902945,
			"-0.001": 23.2660028372,
			"0.0": 24.0402526291,
			"0.001": 30.8361311158,
			"0.002": 32.4156338379,
			"0.003": 24.6036221378,
			"0.004": 20.863223102,
			"0.005": 23.1568946734,
			"0.006": 14.8265302179,
			"0.007": 10.4775386766,
			"0.008": 12.3598451991,
			"0.009": 5.84130785741,
			"0.01": 2.78561325318,
			"0.011": 1.12947247161,
			"0.012": 0.735085040452,
			"0.013": 0.600935228067,
			"0.014": 0.379905206157,
			"0.015": 0.295753901652,
			"0.016": 0.0,
			"0.017": 0.0,
			"0.018": 0.0,
			"0.019": 0.0,
			"0.02": 0.0,
			"0.021": 0.0,
			"0.022": 0.0,
			"0.023": 0.0,
			"0.024": 0.0,
			"0.025": 0.0
		}
	}
}
