{
	 "smiles": "ClC1=C2NC(=O)C=CC2=C(Cl)C=C1", 
	 "Tm": 468.15, 
	 "num_atms": 18, 
	 "gaussian": { 
		 "optdone": 1, 
		 "sigma_profile": "yes", 
		 "theory": "DFT", 
		 "functional": "B3LYP", 
		 "basiset": "6-31G**", 
		 "properties": { 
			 "R2extent": 3212.9405, 
			 "electric_dipole_moment_norm": 3.38739990406, 
			 "electric_quadrupole_moment_norm": 9.65071195975, 
			 "total_energy": -1396.35238182, 
			 "HOMO_LUMO_gap": 0.16313, 
			 "cosmo_polarized_energy": -10.17, 
			 "cosmo_cavitation_energy": 25.89, 
			 "cosmo_dispersion_energy": -19.75, 
			 "cosmo_repulsion_energy": 1.54, 
			 "cosmo_total_nonelectrostatic_energy": 7.67, 
			 "SMD_solvation_energy": 4.37 
		},
		"coords": [
			{
				"x": -2.1784411487,
				"y": -2.3960866021,
				"z": -0.9781693116,
				"element": "Cl" 
			},
			{
				"x": -1.1869383068,
				"y": -0.9624230889,
				"z": -1.1894772603,
				"element": "C" 
			},
			{
				"x": -0.824969016,
				"y": -0.1994503888,
				"z": -0.0608086113,
				"element": "C" 
			},
			{
				"x": -1.2272483431,
				"y": -0.546356837,
				"z": 1.2058404341,
				"element": "N" 
			},
			{
				"x": -0.9251639986,
				"y": 0.1389870266,
				"z": 2.3906556462,
				"element": "C" 
			},
			{
				"x": -1.3410588554,
				"y": -0.2670291165,
				"z": 3.4673204517,
				"element": "O" 
			},
			{
				"x": -0.0984752566,
				"y": 1.3280545963,
				"z": 2.1872586294,
				"element": "C" 
			},
			{
				"x": 0.3212847944,
				"y": 1.7084185819,
				"z": 0.9577981471,
				"element": "C" 
			},
			{
				"x": -0.0220251162,
				"y": 0.9620377063,
				"z": -0.2288549186,
				"element": "C" 
			},
			{
				"x": 0.3828639121,
				"y": 1.3048569082,
				"z": -1.5363564716,
				"element": "C" 
			},
			{
				"x": 1.3750810341,
				"y": 2.7291972352,
				"z": -1.7995082797,
				"element": "Cl" 
			},
			{
				"x": 0.020363849,
				"y": 0.5464107317,
				"z": -2.6386752915,
				"element": "C" 
			},
			{
				"x": -0.770247139,
				"y": -0.5943209852,
				"z": -2.4580458686,
				"element": "C" 
			},
			{
				"x": -1.7994441047,
				"y": -1.3743186434,
				"z": 1.3255224409,
				"element": "H" 
			},
			{
				"x": 0.1577930561,
				"y": 1.886419818,
				"z": 3.0799640939,
				"element": "H" 
			},
			{
				"x": 0.9334802094,
				"y": 2.5958014671,
				"z": 0.8403713291,
				"element": "H" 
			},
			{
				"x": 0.3468782443,
				"y": 0.8353207827,
				"z": -3.6302424853,
				"element": "H" 
			},
			{
				"x": -1.0610338143,
				"y": -1.1966191924,
				"z": -3.3112926739,
				"element": "H" 
			}
		],
		 "valence_orbital": [ 
			{
				"type": "occ",
				"energy": -0.32414,
				"method": "rhf"
			},
			{
				"type": "occ",
				"energy": -0.3211,
				"method": "rhf"
			},
			{
				"type": "occ",
				"energy": -0.26353,
				"method": "rhf"
			},
			{
				"type": "occ",
				"energy": -0.25297,
				"method": "rhf"
			},
			{
				"type": "occ",
				"energy": -0.2377,
				"method": "rhf"
			},
			{
				"type": "unocc",
				"energy": -0.07457,
				"method": "rhf"
			},
			{
				"type": "unocc",
				"energy": -0.03047,
				"method": "rhf"
			},
			{
				"type": "unocc",
				"energy": -0.00456,
				"method": "rhf"
			},
			{
				"type": "unocc",
				"energy": 0.00338,
				"method": "rhf"
			},
			{
				"type": "unocc",
				"energy": 0.01926,
				"method": "rhf"
			}
		],
		"cosmo_sigma_profile": { 
			"-0.025": 0.0,
			"-0.024": 0.0,
			"-0.023": 0.0,
			"-0.022": 0.0,
			"-0.021": 0.0,
			"-0.02": 0.0,
			"-0.019": 0.0,
			"-0.018": 0.0,
			"-0.017": 0.0,
			"-0.016": 0.0,
			"-0.015": 0.0,
			"-0.014": 0.0,
			"-0.013": 0.325785952247,
			"-0.012": 0.883266040847,
			"-0.011": 1.19250811036,
			"-0.01": 0.257305574762,
			"-0.009": 2.01410026858,
			"-0.008": 5.78086734622,
			"-0.007": 8.9923941923,
			"-0.006": 7.78095546563,
			"-0.005": 6.90659193733,
			"-0.004": 8.40413908064,
			"-0.003": 13.0584111337,
			"-0.002": 18.1347051428,
			"-0.001": 25.2186089383,
			"0.0": 28.4570255849,
			"0.001": 23.7046244093,
			"0.002": 16.5540243442,
			"0.003": 14.5265565891,
			"0.004": 10.8429486026,
			"0.005": 1.57112673319,
			"0.006": 0.925551449757,
			"0.007": 0.889663050634,
			"0.008": 1.14535716387,
			"0.009": 1.12020668815,
			"0.01": 1.4180270435,
			"0.011": 1.63634667551,
			"0.012": 2.67859183774,
			"0.013": 5.07256488424,
			"0.014": 3.78890660569,
			"0.015": 0.282119047817,
			"0.016": 0.0,
			"0.017": 0.0,
			"0.018": 0.0,
			"0.019": 0.0,
			"0.02": 0.0,
			"0.021": 0.0,
			"0.022": 0.0,
			"0.023": 0.0,
			"0.024": 0.0,
			"0.025": 0.0
		}
	}
}
