{
	 "smiles": "NC(=O)C1=CC(=C(NCCO)C=C1)[N+]([O-])=O", 
	 "Tm": 492.15, 
	 "num_atms": 27, 
	 "gaussian": { 
		 "optdone": 1, 
		 "sigma_profile": "yes", 
		 "theory": "DFT", 
		 "functional": "B3LYP", 
		 "basiset": "6-31G**", 
		 "properties": { 
			 "R2extent": 5325.8413, 
			 "electric_dipole_moment_norm": 7.42620361288, 
			 "electric_quadrupole_moment_norm": 18.3195608662, 
			 "total_energy": -814.649029297, 
			 "HOMO_LUMO_gap": 0.13846, 
			 "cosmo_polarized_energy": -24.98, 
			 "cosmo_cavitation_energy": 31.97, 
			 "cosmo_dispersion_energy": -23.35, 
			 "cosmo_repulsion_energy": 1.84, 
			 "cosmo_total_nonelectrostatic_energy": 10.46, 
			 "SMD_solvation_energy": 7.32 
		},
		"coords": [
			{
				"x": -0.551439849,
				"y": 0.3717541206,
				"z": -4.7779086146,
				"element": "N" 
			},
			{
				"x": -0.9145808648,
				"y": -0.7308159625,
				"z": -4.0337265365,
				"element": "C" 
			},
			{
				"x": -1.4096969055,
				"y": -1.7225033327,
				"z": -4.5542071371,
				"element": "O" 
			},
			{
				"x": -0.6386389922,
				"y": -0.6597467002,
				"z": -2.5642824335,
				"element": "C" 
			},
			{
				"x": -1.241255478,
				"y": -1.6093242625,
				"z": -1.74864079,
				"element": "C" 
			},
			{
				"x": -1.0392800572,
				"y": -1.6154727056,
				"z": -0.3676710416,
				"element": "C" 
			},
			{
				"x": -0.1863430181,
				"y": -0.6539794009,
				"z": 0.2664537718,
				"element": "C" 
			},
			{
				"x": 0.0380643737,
				"y": -0.6279786098,
				"z": 1.6014087454,
				"element": "N" 
			},
			{
				"x": 0.8868196642,
				"y": 0.330357495,
				"z": 2.2822491712,
				"element": "C" 
			},
			{
				"x": 0.9163217282,
				"y": 0.0312876486,
				"z": 3.7855713883,
				"element": "C" 
			},
			{
				"x": 1.7548356436,
				"y": 0.9361510282,
				"z": 4.4777142712,
				"element": "O" 
			},
			{
				"x": 0.432376305,
				"y": 0.2921534346,
				"z": -0.5953137675,
				"element": "C" 
			},
			{
				"x": 0.212369572,
				"y": 0.2864371894,
				"z": -1.9585360316,
				"element": "C" 
			},
			{
				"x": -1.7348458163,
				"y": -2.6443702061,
				"z": 0.3864384058,
				"element": "N" 
			},
			{
				"x": -2.4570742241,
				"y": -3.4334132716,
				"z": -0.2173101199,
				"element": "O" 
			},
			{
				"x": -1.5781071541,
				"y": -2.6921820295,
				"z": 1.6244151256,
				"element": "O" 
			},
			{
				"x": -0.5115213643,
				"y": 1.2821262218,
				"z": -4.3459033278,
				"element": "H" 
			},
			{
				"x": -0.8627135412,
				"y": 0.3488501475,
				"z": -5.738909945,
				"element": "H" 
			},
			{
				"x": -1.8812114993,
				"y": -2.3612726824,
				"z": -2.1924335261,
				"element": "H" 
			},
			{
				"x": -0.4460890125,
				"y": -1.3507078607,
				"z": 2.1246261233,
				"element": "H" 
			},
			{
				"x": 0.5173916094,
				"y": 1.3559428042,
				"z": 2.1241833455,
				"element": "H" 
			},
			{
				"x": 1.915219887,
				"y": 0.2945156477,
				"z": 1.8990133763,
				"element": "H" 
			},
			{
				"x": 1.3345509793,
				"y": -0.9667902235,
				"z": 3.9522808008,
				"element": "H" 
			},
			{
				"x": -0.1103203884,
				"y": 0.0286668356,
				"z": 4.1842029203,
				"element": "H" 
			},
			{
				"x": 1.3110393743,
				"y": 1.793116227,
				"z": 4.5141267782,
				"element": "H" 
			},
			{
				"x": 1.1037924377,
				"y": 1.0268189273,
				"z": -0.1681602707,
				"element": "H" 
			},
			{
				"x": 0.7410365902,
				"y": 1.0140795205,
				"z": -2.5676806819,
				"element": "H" 
			}
		],
		 "valence_orbital": [ 
			{
				"type": "occ",
				"energy": -0.28955,
				"method": "rhf"
			},
			{
				"type": "occ",
				"energy": -0.28443,
				"method": "rhf"
			},
			{
				"type": "occ",
				"energy": -0.27622,
				"method": "rhf"
			},
			{
				"type": "occ",
				"energy": -0.25476,
				"method": "rhf"
			},
			{
				"type": "occ",
				"energy": -0.22633,
				"method": "rhf"
			},
			{
				"type": "unocc",
				"energy": -0.08787,
				"method": "rhf"
			},
			{
				"type": "unocc",
				"energy": -0.03721,
				"method": "rhf"
			},
			{
				"type": "unocc",
				"energy": -0.00558,
				"method": "rhf"
			},
			{
				"type": "unocc",
				"energy": 0.05119,
				"method": "rhf"
			},
			{
				"type": "unocc",
				"energy": 0.05721,
				"method": "rhf"
			}
		],
		"cosmo_sigma_profile": { 
			"-0.025": 0.0,
			"-0.024": 0.0,
			"-0.023": 0.0,
			"-0.022": 0.0,
			"-0.021": 0.0,
			"-0.02": 0.0,
			"-0.019": 0.0,
			"-0.018": 0.0,
			"-0.017": 0.0252013480267,
			"-0.016": 0.830050846133,
			"-0.015": 1.43591108396,
			"-0.014": 2.48661147538,
			"-0.013": 3.93576030735,
			"-0.012": 3.27561663362,
			"-0.011": 3.01460747165,
			"-0.01": 3.46822886045,
			"-0.009": 5.16865177759,
			"-0.008": 6.07743756591,
			"-0.007": 8.72604216447,
			"-0.006": 11.5130829684,
			"-0.005": 18.4803737101,
			"-0.004": 14.2218256735,
			"-0.003": 13.3229140638,
			"-0.002": 13.6571260166,
			"-0.001": 14.512044797,
			"0.0": 20.8347963443,
			"0.001": 15.9891586254,
			"0.002": 13.5363425901,
			"0.003": 9.78812924563,
			"0.004": 6.38501673386,
			"0.005": 5.33187283934,
			"0.006": 5.28222003212,
			"0.007": 7.88501180548,
			"0.008": 10.622658466,
			"0.009": 6.7796303662,
			"0.01": 6.61103409718,
			"0.011": 4.07824925662,
			"0.012": 3.82143401253,
			"0.013": 6.54406581797,
			"0.014": 5.40374019041,
			"0.015": 0.21611313578,
			"0.016": 0.0,
			"0.017": 0.0,
			"0.018": 0.0,
			"0.019": 0.0,
			"0.02": 0.0,
			"0.021": 0.0,
			"0.022": 0.0,
			"0.023": 0.0,
			"0.024": 0.0,
			"0.025": 0.0
		}
	}
}
