{
	 "smiles": "NC1=C(OC2=CC=C(F)C=C2F)N=CC=C1", 
	 "Tm": 369.65, 
	 "num_atms": 24, 
	 "gaussian": { 
		 "optdone": 1, 
		 "sigma_profile": "yes", 
		 "theory": "DFT", 
		 "functional": "B3LYP", 
		 "basiset": "6-31G**", 
		 "properties": { 
			 "R2extent": 4812.7294, 
			 "electric_dipole_moment_norm": 2.60093145046, 
			 "electric_quadrupole_moment_norm": 14.8058139162, 
			 "total_energy": -808.374839002, 
			 "HOMO_LUMO_gap": 0.18572, 
			 "cosmo_polarized_energy": -8.82, 
			 "cosmo_cavitation_energy": 29.94, 
			 "cosmo_dispersion_energy": -21.66, 
			 "cosmo_repulsion_energy": 1.63, 
			 "cosmo_total_nonelectrostatic_energy": 9.91, 
			 "SMD_solvation_energy": 5.68 
		},
		"coords": [
			{
				"x": -0.5501529841,
				"y": 0.8682532124,
				"z": 4.3771398089,
				"element": "N" 
			},
			{
				"x": 0.4757495125,
				"y": 0.2618318634,
				"z": 3.6711771567,
				"element": "C" 
			},
			{
				"x": 0.4568405442,
				"y": 0.2608208201,
				"z": 2.252453005,
				"element": "C" 
			},
			{
				"x": -0.6503973559,
				"y": 0.8900719241,
				"z": 1.7234791601,
				"element": "O" 
			},
			{
				"x": -1.1793440694,
				"y": 0.6172618039,
				"z": 0.482238677,
				"element": "C" 
			},
			{
				"x": -0.4617863071,
				"y": 0.4970095149,
				"z": -0.7095178028,
				"element": "C" 
			},
			{
				"x": -1.1385448437,
				"y": 0.2900430141,
				"z": -1.914544987,
				"element": "C" 
			},
			{
				"x": -2.5253760974,
				"y": 0.2205206373,
				"z": -1.913229273,
				"element": "C" 
			},
			{
				"x": -3.1798912896,
				"y": 0.0264114403,
				"z": -3.0763212223,
				"element": "F" 
			},
			{
				"x": -3.2705392064,
				"y": 0.3461896187,
				"z": -0.7443307877,
				"element": "C" 
			},
			{
				"x": -2.577905659,
				"y": 0.5408387798,
				"z": 0.4407261971,
				"element": "C" 
			},
			{
				"x": -3.2649181863,
				"y": 0.6612016138,
				"z": 1.5948505152,
				"element": "F" 
			},
			{
				"x": 1.3886280195,
				"y": -0.2544369439,
				"z": 1.4846411394,
				"element": "N" 
			},
			{
				"x": 2.449319093,
				"y": -0.8360183346,
				"z": 2.077584979,
				"element": "C" 
			},
			{
				"x": 2.5861919884,
				"y": -0.8958393532,
				"z": 3.4575868631,
				"element": "C" 
			},
			{
				"x": 1.5867527427,
				"y": -0.3410830292,
				"z": 4.2638730857,
				"element": "C" 
			},
			{
				"x": -0.6960943145,
				"y": 0.5355603523,
				"z": 5.3192710492,
				"element": "H" 
			},
			{
				"x": -1.4021236617,
				"y": 0.9967596388,
				"z": 3.8479784979,
				"element": "H" 
			},
			{
				"x": 0.6170004318,
				"y": 0.5470768919,
				"z": -0.6788238475,
				"element": "H" 
			},
			{
				"x": -0.5979697453,
				"y": 0.1889133307,
				"z": -2.8486643443,
				"element": "H" 
			},
			{
				"x": -4.3520973014,
				"y": 0.2891876644,
				"z": -0.7531659434,
				"element": "H" 
			},
			{
				"x": 3.1997818997,
				"y": -1.2570767206,
				"z": 1.4141493106,
				"element": "H" 
			},
			{
				"x": 3.4547906939,
				"y": -1.3688222981,
				"z": 3.9040293956,
				"element": "H" 
			},
			{
				"x": 1.6625860961,
				"y": -0.3794754412,
				"z": 5.3474193676,
				"element": "H" 
			}
		],
		 "valence_orbital": [ 
			{
				"type": "occ",
				"energy": -0.27209,
				"method": "rhf"
			},
			{
				"type": "occ",
				"energy": -0.27006,
				"method": "rhf"
			},
			{
				"type": "occ",
				"energy": -0.25792,
				"method": "rhf"
			},
			{
				"type": "occ",
				"energy": -0.23697,
				"method": "rhf"
			},
			{
				"type": "occ",
				"energy": -0.20468,
				"method": "rhf"
			},
			{
				"type": "unocc",
				"energy": -0.01896,
				"method": "rhf"
			},
			{
				"type": "unocc",
				"energy": -0.01143,
				"method": "rhf"
			},
			{
				"type": "unocc",
				"energy": 0.00324,
				"method": "rhf"
			},
			{
				"type": "unocc",
				"energy": 0.01278,
				"method": "rhf"
			},
			{
				"type": "unocc",
				"energy": 0.06814,
				"method": "rhf"
			}
		],
		"cosmo_sigma_profile": { 
			"-0.025": 0.0,
			"-0.024": 0.0,
			"-0.023": 0.0,
			"-0.022": 0.0,
			"-0.021": 0.0,
			"-0.02": 0.0,
			"-0.019": 0.0,
			"-0.018": 0.0,
			"-0.017": 0.0,
			"-0.016": 0.0,
			"-0.015": 0.0,
			"-0.014": 0.142883058743,
			"-0.013": 1.0708151954,
			"-0.012": 1.39939258088,
			"-0.011": 1.37992898767,
			"-0.01": 1.90327673476,
			"-0.009": 3.51804042695,
			"-0.008": 3.95076362896,
			"-0.007": 7.23975552424,
			"-0.006": 10.8241384041,
			"-0.005": 11.9543397074,
			"-0.004": 11.2509957868,
			"-0.003": 10.07150421,
			"-0.002": 13.6642863385,
			"-0.001": 13.9650523151,
			"0.0": 22.1873503038,
			"0.001": 27.5023739723,
			"0.002": 23.1448973409,
			"0.003": 24.5435794395,
			"0.004": 28.7542448228,
			"0.005": 7.84704361076,
			"0.006": 3.95700902449,
			"0.007": 4.14657313725,
			"0.008": 2.31674505334,
			"0.009": 1.43020584905,
			"0.01": 1.00068760282,
			"0.011": 0.885513367139,
			"0.012": 0.628272566469,
			"0.013": 0.469754565984,
			"0.014": 0.0602803949634,
			"0.015": 0.0,
			"0.016": 0.0,
			"0.017": 0.0,
			"0.018": 0.0,
			"0.019": 0.0,
			"0.02": 0.0,
			"0.021": 0.0,
			"0.022": 0.0,
			"0.023": 0.0,
			"0.024": 0.0,
			"0.025": 0.0
		}
	}
}
