{
	 "smiles": "C1CN(CCN1)C1=CC=NC=C1", 
	 "Tm": 416.15, 
	 "num_atms": 25, 
	 "gaussian": { 
		 "optdone": 1, 
		 "sigma_profile": "yes", 
		 "theory": "DFT", 
		 "functional": "B3LYP", 
		 "basiset": "6-31G**", 
		 "properties": { 
			 "R2extent": 2474.3121, 
			 "electric_dipole_moment_norm": 4.39478224261, 
			 "electric_quadrupole_moment_norm": 14.2731789049, 
			 "total_energy": -515.022859244, 
			 "HOMO_LUMO_gap": 0.2078, 
			 "cosmo_polarized_energy": -11.88, 
			 "cosmo_cavitation_energy": 26.26, 
			 "cosmo_dispersion_energy": -19.97, 
			 "cosmo_repulsion_energy": 1.57, 
			 "cosmo_total_nonelectrostatic_energy": 7.86, 
			 "SMD_solvation_energy": -0.59 
		},
		"coords": [
			{
				"x": 0.9736251743,
				"y": -2.0099843587,
				"z": -1.7173658521,
				"element": "C" 
			},
			{
				"x": 0.6121263142,
				"y": -0.5682922671,
				"z": -1.337296575,
				"element": "C" 
			},
			{
				"x": 0.1829255897,
				"y": -0.5249320283,
				"z": 0.0608992966,
				"element": "N" 
			},
			{
				"x": -0.344735248,
				"y": -1.7647071126,
				"z": 0.6308613084,
				"element": "C" 
			},
			{
				"x": -1.0483554103,
				"y": -2.5909587895,
				"z": -0.4461787242,
				"element": "C" 
			},
			{
				"x": -0.1122925482,
				"y": -2.9757375397,
				"z": -1.5117483188,
				"element": "N" 
			},
			{
				"x": 0.301272173,
				"y": 0.6238480325,
				"z": 0.8114479644,
				"element": "C" 
			},
			{
				"x": 0.5824030983,
				"y": 1.877619081,
				"z": 0.2204634804,
				"element": "C" 
			},
			{
				"x": 0.689688276,
				"y": 3.004410248,
				"z": 1.0272062098,
				"element": "C" 
			},
			{
				"x": 0.5438301587,
				"y": 3.0144288855,
				"z": 2.3595845764,
				"element": "N" 
			},
			{
				"x": 0.2779940619,
				"y": 1.8235718454,
				"z": 2.9145693619,
				"element": "C" 
			},
			{
				"x": 0.1509520973,
				"y": 0.6276462967,
				"z": 2.217669289,
				"element": "C" 
			},
			{
				"x": 1.8460420405,
				"y": -2.309737098,
				"z": -1.1210381052,
				"element": "H" 
			},
			{
				"x": 1.2873102896,
				"y": -2.0424139407,
				"z": -2.7652549914,
				"element": "H" 
			},
			{
				"x": 1.497271348,
				"y": 0.0652216797,
				"z": -1.4631588098,
				"element": "H" 
			},
			{
				"x": -0.1667447992,
				"y": -0.1782759146,
				"z": -2.0131266491,
				"element": "H" 
			},
			{
				"x": 0.445368188,
				"y": -2.3655060301,
				"z": 1.1079194985,
				"element": "H" 
			},
			{
				"x": -1.0776885433,
				"y": -1.5179715949,
				"z": 1.4036605773,
				"element": "H" 
			},
			{
				"x": -1.4668578235,
				"y": -3.4920532763,
				"z": 0.0197776521,
				"element": "H" 
			},
			{
				"x": -1.8988751763,
				"y": -1.996699517,
				"z": -0.819431138,
				"element": "H" 
			},
			{
				"x": -0.6227150712,
				"y": -3.1154026699,
				"z": -2.3766560114,
				"element": "H" 
			},
			{
				"x": 0.6901569331,
				"y": 1.9840947737,
				"z": -0.8522397275,
				"element": "H" 
			},
			{
				"x": 0.9012400464,
				"y": 3.9672976842,
				"z": 0.5631078473,
				"element": "H" 
			},
			{
				"x": 0.1651669337,
				"y": 1.8167756061,
				"z": 3.9983000866,
				"element": "H" 
			},
			{
				"x": -0.0328081026,
				"y": -0.2862419953,
				"z": 2.7696277536,
				"element": "H" 
			}
		],
		 "valence_orbital": [ 
			{
				"type": "occ",
				"energy": -0.30309,
				"method": "rhf"
			},
			{
				"type": "occ",
				"energy": -0.24782,
				"method": "rhf"
			},
			{
				"type": "occ",
				"energy": -0.23782,
				"method": "rhf"
			},
			{
				"type": "occ",
				"energy": -0.22686,
				"method": "rhf"
			},
			{
				"type": "occ",
				"energy": -0.20421,
				"method": "rhf"
			},
			{
				"type": "unocc",
				"energy": 0.00359,
				"method": "rhf"
			},
			{
				"type": "unocc",
				"energy": 0.00834,
				"method": "rhf"
			},
			{
				"type": "unocc",
				"energy": 0.06354,
				"method": "rhf"
			},
			{
				"type": "unocc",
				"energy": 0.09396,
				"method": "rhf"
			},
			{
				"type": "unocc",
				"energy": 0.11224,
				"method": "rhf"
			}
		],
		"cosmo_sigma_profile": { 
			"-0.025": 0.0,
			"-0.024": 0.0,
			"-0.023": 0.0,
			"-0.022": 0.0,
			"-0.021": 0.0,
			"-0.02": 0.0,
			"-0.019": 0.0,
			"-0.018": 0.0,
			"-0.017": 0.0,
			"-0.016": 0.0,
			"-0.015": 0.0,
			"-0.014": 0.0,
			"-0.013": 0.0,
			"-0.012": 0.0,
			"-0.011": 0.139689054692,
			"-0.01": 1.2689523251,
			"-0.009": 1.39072799756,
			"-0.008": 1.8267689807,
			"-0.007": 1.34281818087,
			"-0.006": 7.91659374612,
			"-0.005": 16.1141097636,
			"-0.004": 23.1779572703,
			"-0.003": 34.6469925793,
			"-0.002": 21.4728248972,
			"-0.001": 13.6476461032,
			"0.0": 9.32414707644,
			"0.001": 8.65692847715,
			"0.002": 7.37642421351,
			"0.003": 10.6610275733,
			"0.004": 12.2825576918,
			"0.005": 10.8248472057,
			"0.006": 2.96447053129,
			"0.007": 2.62646322333,
			"0.008": 2.07720234294,
			"0.009": 2.18641248153,
			"0.01": 2.023638476,
			"0.011": 1.81694326473,
			"0.012": 1.2524344317,
			"0.013": 1.64299971,
			"0.014": 1.35500564052,
			"0.015": 2.1558903493,
			"0.016": 1.57411160552,
			"0.017": 1.09142588539,
			"0.018": 1.35950528201,
			"0.019": 0.133687105225,
			"0.02": 0.0,
			"0.021": 0.0,
			"0.022": 0.0,
			"0.023": 0.0,
			"0.024": 0.0,
			"0.025": 0.0
		}
	}
}
