{
	 "smiles": "CNC(=O)OC1=C(C=CC=C1)C1OCCO1", 
	 "Tm": 387.15, 
	 "num_atms": 29, 
	 "gaussian": { 
		 "optdone": 1, 
		 "sigma_profile": "yes", 
		 "theory": "DFT", 
		 "functional": "B3LYP", 
		 "basiset": "6-31G**", 
		 "properties": { 
			 "R2extent": 3688.0874, 
			 "electric_dipole_moment_norm": 3.56575325142, 
			 "electric_quadrupole_moment_norm": 15.4734869192, 
			 "total_energy": -782.641014772, 
			 "HOMO_LUMO_gap": 0.23247, 
			 "cosmo_polarized_energy": -14.25, 
			 "cosmo_cavitation_energy": 32.21, 
			 "cosmo_dispersion_energy": -22.92, 
			 "cosmo_repulsion_energy": 1.82, 
			 "cosmo_total_nonelectrostatic_energy": 11.1, 
			 "SMD_solvation_energy": 5.94 
		},
		"coords": [
			{
				"x": 2.6813551829,
				"y": 1.3190980767,
				"z": -2.0756344954,
				"element": "C" 
			},
			{
				"x": 1.8760645545,
				"y": 2.386986843,
				"z": -1.4997476812,
				"element": "N" 
			},
			{
				"x": 1.0914948263,
				"y": 2.2554914685,
				"z": -0.3947595577,
				"element": "C" 
			},
			{
				"x": 0.2466735004,
				"y": 3.0526503914,
				"z": -0.0349826637,
				"element": "O" 
			},
			{
				"x": 1.4218290567,
				"y": 1.1084403486,
				"z": 0.2824256628,
				"element": "O" 
			},
			{
				"x": 0.678921148,
				"y": 0.7433071713,
				"z": 1.4025127707,
				"element": "C" 
			},
			{
				"x": -0.6886068358,
				"y": 0.4324308006,
				"z": 1.3400798502,
				"element": "C" 
			},
			{
				"x": -1.3113775534,
				"y": 0.0057659157,
				"z": 2.5181097548,
				"element": "C" 
			},
			{
				"x": -0.6007569493,
				"y": -0.1358207188,
				"z": 3.7104718421,
				"element": "C" 
			},
			{
				"x": 0.7611446312,
				"y": 0.1600846109,
				"z": 3.7445926182,
				"element": "C" 
			},
			{
				"x": 1.3987462773,
				"y": 0.6038286722,
				"z": 2.5868843673,
				"element": "C" 
			},
			{
				"x": -1.5136858192,
				"y": 0.5872051746,
				"z": 0.0668802162,
				"element": "C" 
			},
			{
				"x": -2.7742213169,
				"y": -0.058092157,
				"z": 0.1534635197,
				"element": "O" 
			},
			{
				"x": -2.6446387574,
				"y": -1.3056431769,
				"z": -0.5269617353,
				"element": "C" 
			},
			{
				"x": -1.6914501017,
				"y": -0.9416350886,
				"z": -1.660052008,
				"element": "C" 
			},
			{
				"x": -0.8191371682,
				"y": 0.0017237079,
				"z": -1.0434064089,
				"element": "O" 
			},
			{
				"x": 3.2460237354,
				"y": 1.7280958719,
				"z": -2.9163582669,
				"element": "H" 
			},
			{
				"x": 3.3893231604,
				"y": 0.9382015792,
				"z": -1.3367905433,
				"element": "H" 
			},
			{
				"x": 2.0667823479,
				"y": 0.4830996846,
				"z": -2.4292144898,
				"element": "H" 
			},
			{
				"x": 1.5949859262,
				"y": 3.1553843534,
				"z": -2.0892569646,
				"element": "H" 
			},
			{
				"x": -2.3714816291,
				"y": -0.2192072499,
				"z": 2.4793081009,
				"element": "H" 
			},
			{
				"x": -1.1111072074,
				"y": -0.4760743977,
				"z": 4.606579781,
				"element": "H" 
			},
			{
				"x": 1.3268756093,
				"y": 0.0541229781,
				"z": 4.6654902613,
				"element": "H" 
			},
			{
				"x": 2.4562961242,
				"y": 0.8465222242,
				"z": 2.5803130356,
				"element": "H" 
			},
			{
				"x": -1.7011516247,
				"y": 1.6481307189,
				"z": -0.1308913001,
				"element": "H" 
			},
			{
				"x": -3.6379076682,
				"y": -1.6202530095,
				"z": -0.8553114371,
				"element": "H" 
			},
			{
				"x": -2.2126370804,
				"y": -2.0743240618,
				"z": 0.1296059734,
				"element": "H" 
			},
			{
				"x": -2.2316859737,
				"y": -0.485241452,
				"z": -2.5022362751,
				"element": "H" 
			},
			{
				"x": -1.0955703953,
				"y": -1.7827792792,
				"z": -2.026313927,
				"element": "H" 
			}
		],
		 "valence_orbital": [ 
			{
				"type": "occ",
				"energy": -0.27089,
				"method": "rhf"
			},
			{
				"type": "occ",
				"energy": -0.25648,
				"method": "rhf"
			},
			{
				"type": "occ",
				"energy": -0.24999,
				"method": "rhf"
			},
			{
				"type": "occ",
				"energy": -0.24622,
				"method": "rhf"
			},
			{
				"type": "occ",
				"energy": -0.2348,
				"method": "rhf"
			},
			{
				"type": "unocc",
				"energy": -0.00233,
				"method": "rhf"
			},
			{
				"type": "unocc",
				"energy": 0.0029,
				"method": "rhf"
			},
			{
				"type": "unocc",
				"energy": 0.05431,
				"method": "rhf"
			},
			{
				"type": "unocc",
				"energy": 0.08292,
				"method": "rhf"
			},
			{
				"type": "unocc",
				"energy": 0.09993,
				"method": "rhf"
			}
		],
		"cosmo_sigma_profile": { 
			"-0.025": 0.0,
			"-0.024": 0.0,
			"-0.023": 0.0,
			"-0.022": 0.0,
			"-0.021": 0.0,
			"-0.02": 0.0,
			"-0.019": 0.0,
			"-0.018": 0.0,
			"-0.017": 0.0,
			"-0.016": 0.0,
			"-0.015": 0.189597808956,
			"-0.014": 1.23649768583,
			"-0.013": 1.03030683206,
			"-0.012": 1.09217763825,
			"-0.011": 1.10922355087,
			"-0.01": 0.887655206922,
			"-0.009": 1.11326428062,
			"-0.008": 0.775538337953,
			"-0.007": 3.54432495184,
			"-0.006": 14.0242604517,
			"-0.005": 21.9993210102,
			"-0.004": 26.1051492933,
			"-0.003": 23.2011439362,
			"-0.002": 20.7710387584,
			"-0.001": 17.353335943,
			"0.0": 11.9517200715,
			"0.001": 14.0055605768,
			"0.002": 13.7560881865,
			"0.003": 15.8650198304,
			"0.004": 17.3143473735,
			"0.005": 13.5444164249,
			"0.006": 7.06127245,
			"0.007": 4.44947533221,
			"0.008": 4.34425283634,
			"0.009": 3.21814272426,
			"0.01": 3.22219808549,
			"0.011": 3.38071129096,
			"0.012": 3.63086265362,
			"0.013": 4.12475664655,
			"0.014": 0.625536260863,
			"0.015": 0.0,
			"0.016": 0.0,
			"0.017": 0.0,
			"0.018": 0.0,
			"0.019": 0.0,
			"0.02": 0.0,
			"0.021": 0.0,
			"0.022": 0.0,
			"0.023": 0.0,
			"0.024": 0.0,
			"0.025": 0.0
		}
	}
}
