{
	 "smiles": "OC(=O)C1(CC1)C(=O)NC1=CC=C(F)C=C1", 
	 "Tm": 453.15, 
	 "num_atms": 26, 
	 "gaussian": { 
		 "optdone": 1, 
		 "sigma_profile": "yes", 
		 "theory": "DFT", 
		 "functional": "B3LYP", 
		 "basiset": "6-31G**", 
		 "properties": { 
			 "R2extent": 5403.5882, 
			 "electric_dipole_moment_norm": 3.01656969752, 
			 "electric_quadrupole_moment_norm": 14.8373280229, 
			 "total_energy": -805.461598367, 
			 "HOMO_LUMO_gap": 0.20237, 
			 "cosmo_polarized_energy": -13.76, 
			 "cosmo_cavitation_energy": 30.88, 
			 "cosmo_dispersion_energy": -22.43, 
			 "cosmo_repulsion_energy": 1.68, 
			 "cosmo_total_nonelectrostatic_energy": 10.13, 
			 "SMD_solvation_energy": 7.06 
		},
		"coords": [
			{
				"x": -0.3919641859,
				"y": 1.8152617655,
				"z": 1.4466955286,
				"element": "O" 
			},
			{
				"x": -1.539425079,
				"y": 1.5568878498,
				"z": 0.7544895268,
				"element": "C" 
			},
			{
				"x": -2.5945602711,
				"y": 2.0327819582,
				"z": 1.1172052331,
				"element": "O" 
			},
			{
				"x": -1.3797693427,
				"y": 0.6725749139,
				"z": -0.4378089593,
				"element": "C" 
			},
			{
				"x": -2.3920030988,
				"y": 0.9972003337,
				"z": -1.5595874551,
				"element": "C" 
			},
			{
				"x": -2.6346528951,
				"y": -0.1858495565,
				"z": -0.7145203654,
				"element": "C" 
			},
			{
				"x": -0.0920794201,
				"y": 0.0403285434,
				"z": -0.9536460046,
				"element": "C" 
			},
			{
				"x": -0.1490749505,
				"y": -0.6667888963,
				"z": -1.9578914343,
				"element": "O" 
			},
			{
				"x": 1.0620605912,
				"y": 0.2949598002,
				"z": -0.2692727504,
				"element": "N" 
			},
			{
				"x": 2.3654412779,
				"y": -0.171703235,
				"z": -0.5514600775,
				"element": "C" 
			},
			{
				"x": 2.6821027151,
				"y": -1.0096457465,
				"z": -1.6331155799,
				"element": "C" 
			},
			{
				"x": 4.0012177133,
				"y": -1.4181700769,
				"z": -1.8298516313,
				"element": "C" 
			},
			{
				"x": 4.993324112,
				"y": -0.9942719454,
				"z": -0.9555807155,
				"element": "C" 
			},
			{
				"x": 6.2683930832,
				"y": -1.3949062368,
				"z": -1.1538175051,
				"element": "F" 
			},
			{
				"x": 4.7040077081,
				"y": -0.1650467486,
				"z": 0.1216923715,
				"element": "C" 
			},
			{
				"x": 3.3879761499,
				"y": 0.2427010639,
				"z": 0.3182250382,
				"element": "C" 
			},
			{
				"x": -0.6497270864,
				"y": 2.3945018165,
				"z": 2.1835733674,
				"element": "H" 
			},
			{
				"x": -2.008698505,
				"y": 0.8347997834,
				"z": -2.5600598495,
				"element": "H" 
			},
			{
				"x": -2.9954774942,
				"y": 1.8822595063,
				"z": -1.3942253979,
				"element": "H" 
			},
			{
				"x": -2.4180004605,
				"y": -1.1610613279,
				"z": -1.1343779974,
				"element": "H" 
			},
			{
				"x": -3.40814582,
				"y": -0.1295137863,
				"z": 0.0427077269,
				"element": "H" 
			},
			{
				"x": 0.9772176653,
				"y": 0.8925491558,
				"z": 0.5420242553,
				"element": "H" 
			},
			{
				"x": 1.8978762495,
				"y": -1.3296580279,
				"z": -2.3031870486,
				"element": "H" 
			},
			{
				"x": 4.2626962801,
				"y": -2.0652222325,
				"z": -2.6603070325,
				"element": "H" 
			},
			{
				"x": 5.4984823738,
				"y": 0.1508196404,
				"z": 0.7888357405,
				"element": "H" 
			},
			{
				"x": 3.1514826898,
				"y": 0.8914116856,
				"z": 1.1580610161,
				"element": "H" 
			}
		],
		 "valence_orbital": [ 
			{
				"type": "occ",
				"energy": -0.30583,
				"method": "rhf"
			},
			{
				"type": "occ",
				"energy": -0.29742,
				"method": "rhf"
			},
			{
				"type": "occ",
				"energy": -0.26084,
				"method": "rhf"
			},
			{
				"type": "occ",
				"energy": -0.2606,
				"method": "rhf"
			},
			{
				"type": "occ",
				"energy": -0.21823,
				"method": "rhf"
			},
			{
				"type": "unocc",
				"energy": -0.01586,
				"method": "rhf"
			},
			{
				"type": "unocc",
				"energy": -0.01266,
				"method": "rhf"
			},
			{
				"type": "unocc",
				"energy": -0.01096,
				"method": "rhf"
			},
			{
				"type": "unocc",
				"energy": 0.04175,
				"method": "rhf"
			},
			{
				"type": "unocc",
				"energy": 0.05246,
				"method": "rhf"
			}
		],
		"cosmo_sigma_profile": { 
			"-0.025": 0.0,
			"-0.024": 0.0,
			"-0.023": 0.0,
			"-0.022": 0.0,
			"-0.021": 0.0,
			"-0.02": 0.0,
			"-0.019": 0.6458928503,
			"-0.018": 0.931690011122,
			"-0.017": 0.96898443592,
			"-0.016": 0.629460696514,
			"-0.015": 0.66413341863,
			"-0.014": 0.880582685865,
			"-0.013": 0.509940416941,
			"-0.012": 0.783238785976,
			"-0.011": 1.0946865384,
			"-0.01": 1.8642080026,
			"-0.009": 1.7648995239,
			"-0.008": 2.74960518407,
			"-0.007": 7.16820377223,
			"-0.006": 8.00701488314,
			"-0.005": 12.3663733177,
			"-0.004": 17.4326243071,
			"-0.003": 18.221361298,
			"-0.002": 18.6649930474,
			"-0.001": 18.2538464831,
			"0.0": 15.8876714795,
			"0.001": 21.4518661348,
			"0.002": 19.5899492941,
			"0.003": 18.9334446142,
			"0.004": 21.7948307528,
			"0.005": 10.0349999498,
			"0.006": 3.2588542085,
			"0.007": 2.98668628379,
			"0.008": 2.20936513681,
			"0.009": 3.15387054379,
			"0.01": 3.88569392947,
			"0.011": 6.32106102961,
			"0.012": 3.11991130258,
			"0.013": 0.991166601301,
			"0.014": 0.0,
			"0.015": 0.0,
			"0.016": 0.0,
			"0.017": 0.0,
			"0.018": 0.0,
			"0.019": 0.0,
			"0.02": 0.0,
			"0.021": 0.0,
			"0.022": 0.0,
			"0.023": 0.0,
			"0.024": 0.0,
			"0.025": 0.0
		}
	}
}
