{
	 "smiles": "NCC(=O)NC1=CC(F)=CC=C1", 
	 "Tm": 356.15, 
	 "num_atms": 21, 
	 "gaussian": { 
		 "optdone": 1, 
		 "sigma_profile": "yes", 
		 "theory": "DFT", 
		 "functional": "B3LYP", 
		 "basiset": "6-31G**", 
		 "properties": { 
			 "R2extent": 3195.378, 
			 "electric_dipole_moment_norm": 2.08076657989, 
			 "electric_quadrupole_moment_norm": 12.4198048322, 
			 "total_energy": -594.843284778, 
			 "HOMO_LUMO_gap": 0.20639, 
			 "cosmo_polarized_energy": -13.15, 
			 "cosmo_cavitation_energy": 25.63, 
			 "cosmo_dispersion_energy": -18.68, 
			 "cosmo_repulsion_energy": 1.48, 
			 "cosmo_total_nonelectrostatic_energy": 8.43, 
			 "SMD_solvation_energy": 4.11 
		},
		"coords": [
			{
				"x": -0.4953461588,
				"y": 4.1162943,
				"z": -1.5976740556,
				"element": "N" 
			},
			{
				"x": 0.3466702346,
				"y": 2.981707339,
				"z": -1.2537721624,
				"element": "C" 
			},
			{
				"x": 0.5391193415,
				"y": 1.9901750826,
				"z": -2.4114136327,
				"element": "C" 
			},
			{
				"x": 0.2995830318,
				"y": 2.3193811327,
				"z": -3.5656148986,
				"element": "O" 
			},
			{
				"x": 0.9825248885,
				"y": 0.7036383112,
				"z": -2.154468192,
				"element": "N" 
			},
			{
				"x": 1.2497108301,
				"y": 0.0155070693,
				"z": -0.9517212752,
				"element": "C" 
			},
			{
				"x": 0.9045181848,
				"y": -1.3440512267,
				"z": -0.8891761357,
				"element": "C" 
			},
			{
				"x": 1.188757374,
				"y": -2.0623534024,
				"z": 0.2632037546,
				"element": "C" 
			},
			{
				"x": 0.8508930186,
				"y": -3.3666858323,
				"z": 0.3049413978,
				"element": "F" 
			},
			{
				"x": 1.7927110588,
				"y": -1.4848846334,
				"z": 1.3748003019,
				"element": "C" 
			},
			{
				"x": 2.1344992058,
				"y": -0.1353695679,
				"z": 1.2986990327,
				"element": "C" 
			},
			{
				"x": 1.8847441078,
				"y": 0.6132707359,
				"z": 0.1477472484,
				"element": "C" 
			},
			{
				"x": -1.4471360915,
				"y": 3.7869101861,
				"z": -1.7457190615,
				"element": "H" 
			},
			{
				"x": -0.1977508153,
				"y": 4.4572852125,
				"z": -2.5104356979,
				"element": "H" 
			},
			{
				"x": 1.3380495617,
				"y": 3.3550546226,
				"z": -0.9635916694,
				"element": "H" 
			},
			{
				"x": -0.0565661966,
				"y": 2.4708062807,
				"z": -0.3736830331,
				"element": "H" 
			},
			{
				"x": 0.9656096676,
				"y": 0.1395537631,
				"z": -2.9963901097,
				"element": "H" 
			},
			{
				"x": 0.4084884481,
				"y": -1.8378915691,
				"z": -1.7181553853,
				"element": "H" 
			},
			{
				"x": 1.9901591031,
				"y": -2.0833235277,
				"z": 2.256579672,
				"element": "H" 
			},
			{
				"x": 2.6236959825,
				"y": 0.3401792798,
				"z": 2.1432379373,
				"element": "H" 
			},
			{
				"x": 2.2094652231,
				"y": 1.644396444,
				"z": 0.0990059642,
				"element": "H" 
			}
		],
		 "valence_orbital": [ 
			{
				"type": "occ",
				"energy": -0.30874,
				"method": "rhf"
			},
			{
				"type": "occ",
				"energy": -0.26862,
				"method": "rhf"
			},
			{
				"type": "occ",
				"energy": -0.26195,
				"method": "rhf"
			},
			{
				"type": "occ",
				"energy": -0.24648,
				"method": "rhf"
			},
			{
				"type": "occ",
				"energy": -0.23427,
				"method": "rhf"
			},
			{
				"type": "unocc",
				"energy": -0.02788,
				"method": "rhf"
			},
			{
				"type": "unocc",
				"energy": -0.01312,
				"method": "rhf"
			},
			{
				"type": "unocc",
				"energy": 0.02558,
				"method": "rhf"
			},
			{
				"type": "unocc",
				"energy": 0.07133,
				"method": "rhf"
			},
			{
				"type": "unocc",
				"energy": 0.09084,
				"method": "rhf"
			}
		],
		"cosmo_sigma_profile": { 
			"-0.025": 0.0,
			"-0.024": 0.0,
			"-0.023": 0.0,
			"-0.022": 0.0,
			"-0.021": 0.0,
			"-0.02": 0.0,
			"-0.019": 0.0,
			"-0.018": 0.0,
			"-0.017": 0.0,
			"-0.016": 0.0,
			"-0.015": 0.0635092304794,
			"-0.014": 1.11630495686,
			"-0.013": 0.954696592814,
			"-0.012": 1.48911162979,
			"-0.011": 1.30632211399,
			"-0.01": 2.09988071272,
			"-0.009": 3.32501237596,
			"-0.008": 6.7863309545,
			"-0.007": 9.9861782861,
			"-0.006": 13.0465331368,
			"-0.005": 13.0619770395,
			"-0.004": 13.0854286604,
			"-0.003": 9.53187871723,
			"-0.002": 10.1388855873,
			"-0.001": 10.1039613593,
			"0.0": 11.0492255313,
			"0.001": 16.0764665464,
			"0.002": 15.2243886312,
			"0.003": 16.061841975,
			"0.004": 17.5039312473,
			"0.005": 5.28861854571,
			"0.006": 2.18505245449,
			"0.007": 1.89085741408,
			"0.008": 2.07309710259,
			"0.009": 1.99930424323,
			"0.01": 1.7987671351,
			"0.011": 1.91153215538,
			"0.012": 3.87167712624,
			"0.013": 6.04631923752,
			"0.014": 1.32030113327,
			"0.015": 0.920889988,
			"0.016": 0.258275049938,
			"0.017": 0.645739565597,
			"0.018": 0.904466634541,
			"0.019": 0.417697407569,
			"0.02": 0.00288867760439,
			"0.021": 0.0,
			"0.022": 0.0,
			"0.023": 0.0,
			"0.024": 0.0,
			"0.025": 0.0
		}
	}
}
