{
	 "smiles": "CC(C)N1C2CCC1CC(O)C2", 
	 "Tm": 364.15, 
	 "num_atms": 31, 
	 "gaussian": { 
		 "optdone": 1, 
		 "sigma_profile": "yes", 
		 "theory": "DFT", 
		 "functional": "B3LYP", 
		 "basiset": "6-31G**", 
		 "properties": { 
			 "R2extent": 2422.111, 
			 "electric_dipole_moment_norm": 1.91919071746, 
			 "electric_quadrupole_moment_norm": 9.81130259089, 
			 "total_energy": -522.483438984, 
			 "HOMO_LUMO_gap": 0.26579, 
			 "cosmo_polarized_energy": -7.8, 
			 "cosmo_cavitation_energy": 28.87, 
			 "cosmo_dispersion_energy": -21.15, 
			 "cosmo_repulsion_energy": 1.66, 
			 "cosmo_total_nonelectrostatic_energy": 9.39, 
			 "SMD_solvation_energy": 3.08 
		},
		"coords": [
			{
				"x": 1.1783172756,
				"y": 0.029769441,
				"z": -2.8757119715,
				"element": "C" 
			},
			{
				"x": 0.9406869516,
				"y": 1.319092388,
				"z": -2.0592042509,
				"element": "C" 
			},
			{
				"x": 2.2785622173,
				"y": 2.0070540435,
				"z": -1.7475390457,
				"element": "C" 
			},
			{
				"x": 0.1512045324,
				"y": 1.2039803994,
				"z": -0.8235108415,
				"element": "N" 
			},
			{
				"x": 0.5034110161,
				"y": 0.1804967518,
				"z": 0.1740566414,
				"element": "C" 
			},
			{
				"x": -0.3490507986,
				"y": -1.0762936608,
				"z": -0.1929827945,
				"element": "C" 
			},
			{
				"x": -1.5772192742,
				"y": -0.4849784645,
				"z": -0.9390545068,
				"element": "C" 
			},
			{
				"x": -1.3087851347,
				"y": 1.0527264728,
				"z": -0.925220365,
				"element": "C" 
			},
			{
				"x": -1.9134777541,
				"y": 1.7221910063,
				"z": 0.3264441268,
				"element": "C" 
			},
			{
				"x": -1.4119292607,
				"y": 1.0474145495,
				"z": 1.6105355181,
				"element": "C" 
			},
			{
				"x": -1.7504998898,
				"y": 1.9056084354,
				"z": 2.6989224001,
				"element": "O" 
			},
			{
				"x": 0.1006973363,
				"y": 0.7561269612,
				"z": 1.5488234432,
				"element": "C" 
			},
			{
				"x": 1.7805923769,
				"y": -0.6943494361,
				"z": -2.3160674614,
				"element": "H" 
			},
			{
				"x": 1.7247778367,
				"y": 0.2641620372,
				"z": -3.7960913692,
				"element": "H" 
			},
			{
				"x": 0.2406330411,
				"y": -0.4536196222,
				"z": -3.1637653451,
				"element": "H" 
			},
			{
				"x": 0.3641143529,
				"y": 2.0044918002,
				"z": -2.6947639849,
				"element": "H" 
			},
			{
				"x": 2.8317201556,
				"y": 2.2198415143,
				"z": -2.668611471,
				"element": "H" 
			},
			{
				"x": 2.9170428311,
				"y": 1.37244806,
				"z": -1.1220423106,
				"element": "H" 
			},
			{
				"x": 2.1075405834,
				"y": 2.945067669,
				"z": -1.2132014067,
				"element": "H" 
			},
			{
				"x": 1.5772274197,
				"y": -0.0270220067,
				"z": 0.1601643131,
				"element": "H" 
			},
			{
				"x": 0.2174913818,
				"y": -1.7491885586,
				"z": -0.8420187353,
				"element": "H" 
			},
			{
				"x": -0.6331550473,
				"y": -1.652142137,
				"z": 0.6940938719,
				"element": "H" 
			},
			{
				"x": -1.6329788879,
				"y": -0.858690066,
				"z": -1.96549696,
				"element": "H" 
			},
			{
				"x": -2.5261127577,
				"y": -0.7406510547,
				"z": -0.4561301748,
				"element": "H" 
			},
			{
				"x": -1.6800573299,
				"y": 1.551064268,
				"z": -1.8264132495,
				"element": "H" 
			},
			{
				"x": -1.606721714,
				"y": 2.772795182,
				"z": 0.3459453631,
				"element": "H" 
			},
			{
				"x": -3.009404677,
				"y": 1.6921007373,
				"z": 0.3031498194,
				"element": "H" 
			},
			{
				"x": -1.944465833,
				"y": 0.0890976395,
				"z": 1.7270100394,
				"element": "H" 
			},
			{
				"x": -1.4710191859,
				"y": 1.4700742859,
				"z": 3.514850478,
				"element": "H" 
			},
			{
				"x": 0.378903482,
				"y": 0.0639625828,
				"z": 2.3567136895,
				"element": "H" 
			},
			{
				"x": 0.6408547544,
				"y": 1.6951687812,
				"z": 1.7070165401,
				"element": "H" 
			}
		],
		 "valence_orbital": [ 
			{
				"type": "occ",
				"energy": -0.31134,
				"method": "rhf"
			},
			{
				"type": "occ",
				"energy": -0.30241,
				"method": "rhf"
			},
			{
				"type": "occ",
				"energy": -0.29634,
				"method": "rhf"
			},
			{
				"type": "occ",
				"energy": -0.25445,
				"method": "rhf"
			},
			{
				"type": "occ",
				"energy": -0.1986,
				"method": "rhf"
			},
			{
				"type": "unocc",
				"energy": 0.06719,
				"method": "rhf"
			},
			{
				"type": "unocc",
				"energy": 0.08101,
				"method": "rhf"
			},
			{
				"type": "unocc",
				"energy": 0.0965,
				"method": "rhf"
			},
			{
				"type": "unocc",
				"energy": 0.10946,
				"method": "rhf"
			},
			{
				"type": "unocc",
				"energy": 0.11723,
				"method": "rhf"
			}
		],
		"cosmo_sigma_profile": { 
			"-0.025": 0.0,
			"-0.024": 0.0,
			"-0.023": 0.0,
			"-0.022": 0.0,
			"-0.021": 0.0,
			"-0.02": 0.0,
			"-0.019": 0.0,
			"-0.018": 0.0,
			"-0.017": 0.0,
			"-0.016": 0.0,
			"-0.015": 0.45958519647,
			"-0.014": 1.07794277096,
			"-0.013": 1.05699628057,
			"-0.012": 0.356237081788,
			"-0.011": 1.0663963618,
			"-0.01": 1.12862959146,
			"-0.009": 0.821114239967,
			"-0.008": 0.548515739985,
			"-0.007": 0.857141800289,
			"-0.006": 1.63082955438,
			"-0.005": 1.0422306534,
			"-0.004": 4.06434781351,
			"-0.003": 26.5076280562,
			"-0.002": 39.9699117501,
			"-0.001": 33.4614489425,
			"0.0": 30.4404598029,
			"0.001": 29.6848442428,
			"0.002": 16.303835605,
			"0.003": 4.27689709732,
			"0.004": 3.24260376742,
			"0.005": 3.02537198254,
			"0.006": 2.47607667477,
			"0.007": 1.76104088702,
			"0.008": 2.39012450672,
			"0.009": 2.10081398098,
			"0.01": 2.00247939277,
			"0.011": 1.49457765629,
			"0.012": 2.03586407041,
			"0.013": 2.43645304512,
			"0.014": 1.6679990082,
			"0.015": 1.42558683732,
			"0.016": 0.0,
			"0.017": 0.0,
			"0.018": 0.0,
			"0.019": 0.0,
			"0.02": 0.0,
			"0.021": 0.0,
			"0.022": 0.0,
			"0.023": 0.0,
			"0.024": 0.0,
			"0.025": 0.0
		}
	}
}
