{
	 "smiles": "CC1=C(N=C(O1)C(=O)NN)C1=CC=CC=C1", 
	 "Tm": 398.15, 
	 "num_atms": 27, 
	 "gaussian": { 
		 "optdone": 1, 
		 "sigma_profile": "yes", 
		 "theory": "DFT", 
		 "functional": "B3LYP", 
		 "basiset": "6-31G**", 
		 "properties": { 
			 "R2extent": 4720.2945, 
			 "electric_dipole_moment_norm": 3.91020516725, 
			 "electric_quadrupole_moment_norm": 10.7821991449, 
			 "total_energy": -740.476153852, 
			 "HOMO_LUMO_gap": 0.18106, 
			 "cosmo_polarized_energy": -14.95, 
			 "cosmo_cavitation_energy": 31.9, 
			 "cosmo_dispersion_energy": -23.03, 
			 "cosmo_repulsion_energy": 1.8, 
			 "cosmo_total_nonelectrostatic_energy": 10.67, 
			 "SMD_solvation_energy": 6.49 
		},
		"coords": [
			{
				"x": -0.1330237519,
				"y": -3.4515613151,
				"z": 0.2490764133,
				"element": "C" 
			},
			{
				"x": -0.1122636762,
				"y": -1.9649203082,
				"z": 0.2118638117,
				"element": "C" 
			},
			{
				"x": -1.0476359627,
				"y": -0.9625467582,
				"z": 0.3261206594,
				"element": "C" 
			},
			{
				"x": -0.3831680194,
				"y": 0.2587366812,
				"z": 0.2718204335,
				"element": "N" 
			},
			{
				"x": 0.875884544,
				"y": -0.037623746,
				"z": 0.1145635927,
				"element": "C" 
			},
			{
				"x": 1.1101126525,
				"y": -1.3737678406,
				"z": 0.0682628104,
				"element": "O" 
			},
			{
				"x": 2.0798335724,
				"y": 0.8301341147,
				"z": -0.0582164789,
				"element": "C" 
			},
			{
				"x": 3.1711924758,
				"y": 0.3394251932,
				"z": -0.3189590343,
				"element": "O" 
			},
			{
				"x": 1.9024637561,
				"y": 2.1809381475,
				"z": 0.0681615146,
				"element": "N" 
			},
			{
				"x": 0.7405684016,
				"y": 2.9088308768,
				"z": 0.3876147884,
				"element": "N" 
			},
			{
				"x": -2.5047359344,
				"y": -1.0334900263,
				"z": 0.506498767,
				"element": "C" 
			},
			{
				"x": -3.1786201159,
				"y": 0.0321807343,
				"z": 1.1274587083,
				"element": "C" 
			},
			{
				"x": -4.5571705695,
				"y": -0.0146331798,
				"z": 1.3192257299,
				"element": "C" 
			},
			{
				"x": -5.291086028,
				"y": -1.124752209,
				"z": 0.8938497157,
				"element": "C" 
			},
			{
				"x": -4.6345516132,
				"y": -2.1831131285,
				"z": 0.2641654214,
				"element": "C" 
			},
			{
				"x": -3.2549028152,
				"y": -2.1370028445,
				"z": 0.0657422913,
				"element": "C" 
			},
			{
				"x": -0.1661200807,
				"y": -3.8859819637,
				"z": -0.7576557868,
				"element": "H" 
			},
			{
				"x": -1.0063557831,
				"y": -3.8062635282,
				"z": 0.8007195219,
				"element": "H" 
			},
			{
				"x": 0.7695377104,
				"y": -3.8252179353,
				"z": 0.7406031507,
				"element": "H" 
			},
			{
				"x": 2.7350187967,
				"y": 2.7314022635,
				"z": -0.0951070936,
				"element": "H" 
			},
			{
				"x": -0.010287255,
				"y": 2.6050350964,
				"z": -0.2281547994,
				"element": "H" 
			},
			{
				"x": 0.4411839421,
				"y": 2.6511347606,
				"z": 1.3267753631,
				"element": "H" 
			},
			{
				"x": -2.6062082485,
				"y": 0.8925189815,
				"z": 1.4571961145,
				"element": "H" 
			},
			{
				"x": -5.0606107668,
				"y": 0.8168451937,
				"z": 1.8042506637,
				"element": "H" 
			},
			{
				"x": -6.3659729627,
				"y": -1.1605713456,
				"z": 1.044805395,
				"element": "H" 
			},
			{
				"x": -5.1982993405,
				"y": -3.0428946861,
				"z": -0.0864081709,
				"element": "H" 
			},
			{
				"x": -2.7659829277,
				"y": -2.9500412282,
				"z": -0.4607735026,
				"element": "H" 
			}
		],
		 "valence_orbital": [ 
			{
				"type": "occ",
				"energy": -0.27863,
				"method": "rhf"
			},
			{
				"type": "occ",
				"energy": -0.25887,
				"method": "rhf"
			},
			{
				"type": "occ",
				"energy": -0.25817,
				"method": "rhf"
			},
			{
				"type": "occ",
				"energy": -0.24866,
				"method": "rhf"
			},
			{
				"type": "occ",
				"energy": -0.22765,
				"method": "rhf"
			},
			{
				"type": "unocc",
				"energy": -0.04659,
				"method": "rhf"
			},
			{
				"type": "unocc",
				"energy": -0.02912,
				"method": "rhf"
			},
			{
				"type": "unocc",
				"energy": -0.0089,
				"method": "rhf"
			},
			{
				"type": "unocc",
				"energy": 0.05763,
				"method": "rhf"
			},
			{
				"type": "unocc",
				"energy": 0.07933,
				"method": "rhf"
			}
		],
		"cosmo_sigma_profile": { 
			"-0.025": 0.0,
			"-0.024": 0.0,
			"-0.023": 0.0,
			"-0.022": 0.0,
			"-0.021": 0.0,
			"-0.02": 0.0,
			"-0.019": 0.0,
			"-0.018": 0.0,
			"-0.017": 0.0,
			"-0.016": 0.0,
			"-0.015": 0.0383393799839,
			"-0.014": 0.920997600575,
			"-0.013": 0.852543515459,
			"-0.012": 1.20959293499,
			"-0.011": 1.57034101551,
			"-0.01": 1.93031176254,
			"-0.009": 2.6512988152,
			"-0.008": 2.91827592124,
			"-0.007": 3.81864877491,
			"-0.006": 14.2159788062,
			"-0.005": 21.2043273155,
			"-0.004": 21.9960116279,
			"-0.003": 22.136572015,
			"-0.002": 23.0090615198,
			"-0.001": 17.4417697022,
			"0.0": 13.6873700055,
			"0.001": 15.6946740067,
			"0.002": 13.6193132857,
			"0.003": 13.2606886802,
			"0.004": 13.786927274,
			"0.005": 14.4339667172,
			"0.006": 6.25665279726,
			"0.007": 2.78170862928,
			"0.008": 2.16409150251,
			"0.009": 2.47109343149,
			"0.01": 2.72140519231,
			"0.011": 2.66726156176,
			"0.012": 4.22197640816,
			"0.013": 6.94934855094,
			"0.014": 2.874658045,
			"0.015": 0.695346534117,
			"0.016": 0.364652440908,
			"0.017": 0.00116507198572,
			"0.018": 0.0,
			"0.019": 0.0,
			"0.02": 0.0,
			"0.021": 0.0,
			"0.022": 0.0,
			"0.023": 0.0,
			"0.024": 0.0,
			"0.025": 0.0
		}
	}
}
