{
	 "smiles": "CCCCCCCC(O)CC", 
	 "Tm": 268.15, 
	 "num_atms": 33, 
	 "gaussian": { 
		 "optdone": 1, 
		 "sigma_profile": "yes", 
		 "theory": "DFT", 
		 "functional": "B3LYP", 
		 "basiset": "6-31G**", 
		 "properties": { 
			 "R2extent": 3801.852, 
			 "electric_dipole_moment_norm": 1.4830350569, 
			 "electric_quadrupole_moment_norm": 6.67263934811, 
			 "total_energy": -469.566059512, 
			 "HOMO_LUMO_gap": 0.326, 
			 "cosmo_polarized_energy": -5.53, 
			 "cosmo_cavitation_energy": 32.49, 
			 "cosmo_dispersion_energy": -23.16, 
			 "cosmo_repulsion_energy": 1.92, 
			 "cosmo_total_nonelectrostatic_energy": 11.25, 
			 "SMD_solvation_energy": 4.81 
		},
		"coords": [
			{
				"x": -0.8411082517,
				"y": 2.4565895082,
				"z": 4.8220777916,
				"element": "C" 
			},
			{
				"x": -1.3664341936,
				"y": 1.2176691604,
				"z": 4.0865069819,
				"element": "C" 
			},
			{
				"x": -0.3391248313,
				"y": 0.5346144177,
				"z": 3.1672342665,
				"element": "C" 
			},
			{
				"x": 0.0937418292,
				"y": 1.3782661391,
				"z": 1.9587388429,
				"element": "C" 
			},
			{
				"x": 1.1211158532,
				"y": 0.6928470043,
				"z": 1.0376658562,
				"element": "C" 
			},
			{
				"x": 0.6058751539,
				"y": -0.5321084279,
				"z": 0.2563594908,
				"element": "C" 
			},
			{
				"x": -0.4317364321,
				"y": -0.2343189634,
				"z": -0.8508382901,
				"element": "C" 
			},
			{
				"x": 0.133108327,
				"y": -0.1155261073,
				"z": -2.2737569861,
				"element": "C" 
			},
			{
				"x": 0.7198422456,
				"y": -1.3838131557,
				"z": -2.5806753461,
				"element": "O" 
			},
			{
				"x": 1.1337868906,
				"y": 1.0328885897,
				"z": -2.4770753031,
				"element": "C" 
			},
			{
				"x": 1.6071627993,
				"y": 1.1799747101,
				"z": -3.9282564231,
				"element": "C" 
			},
			{
				"x": -0.5589424387,
				"y": 3.2562289899,
				"z": 4.1296334945,
				"element": "H" 
			},
			{
				"x": -1.5995232533,
				"y": 2.8634851782,
				"z": 5.499259184,
				"element": "H" 
			},
			{
				"x": 0.0429481517,
				"y": 2.2122537362,
				"z": 5.422865268,
				"element": "H" 
			},
			{
				"x": -1.7130524575,
				"y": 0.4865346947,
				"z": 4.828183727,
				"element": "H" 
			},
			{
				"x": -2.2521007617,
				"y": 1.4915041306,
				"z": 3.4963923287,
				"element": "H" 
			},
			{
				"x": -0.7661230625,
				"y": -0.4133392145,
				"z": 2.8169248784,
				"element": "H" 
			},
			{
				"x": 0.5503915905,
				"y": 0.2667681391,
				"z": 3.7563315144,
				"element": "H" 
			},
			{
				"x": -0.7981382375,
				"y": 1.6618666061,
				"z": 1.3817806735,
				"element": "H" 
			},
			{
				"x": 0.5298970373,
				"y": 2.3206462577,
				"z": 2.3127235112,
				"element": "H" 
			},
			{
				"x": 1.5104538528,
				"y": 1.4382969487,
				"z": 0.3337155485,
				"element": "H" 
			},
			{
				"x": 1.9801440317,
				"y": 0.381604397,
				"z": 1.6483575692,
				"element": "H" 
			},
			{
				"x": 1.4525053936,
				"y": -1.0590969113,
				"z": -0.1969470201,
				"element": "H" 
			},
			{
				"x": 0.1699028688,
				"y": -1.2442660894,
				"z": 0.966302193,
				"element": "H" 
			},
			{
				"x": -1.169114272,
				"y": -1.0440675435,
				"z": -0.8823551466,
				"element": "H" 
			},
			{
				"x": -0.9924361241,
				"y": 0.6814554671,
				"z": -0.6251680149,
				"element": "H" 
			},
			{
				"x": -0.7230084895,
				"y": 0.0649417781,
				"z": -2.9490112573,
				"element": "H" 
			},
			{
				"x": 1.0157055071,
				"y": -1.3632087037,
				"z": -3.498893282,
				"element": "H" 
			},
			{
				"x": 0.6594777158,
				"y": 1.9688485921,
				"z": -2.154864191,
				"element": "H" 
			},
			{
				"x": 2.0006153904,
				"y": 0.8722476345,
				"z": -1.8262384639,
				"element": "H" 
			},
			{
				"x": 0.7629498269,
				"y": 1.3286772651,
				"z": -4.6121950758,
				"element": "H" 
			},
			{
				"x": 2.1631414373,
				"y": 0.2965628069,
				"z": -4.264672426,
				"element": "H" 
			},
			{
				"x": 2.2790769027,
				"y": 2.0362729653,
				"z": -4.0408058941,
				"element": "H" 
			}
		],
		 "valence_orbital": [ 
			{
				"type": "occ",
				"energy": -0.31036,
				"method": "rhf"
			},
			{
				"type": "occ",
				"energy": -0.30557,
				"method": "rhf"
			},
			{
				"type": "occ",
				"energy": -0.30405,
				"method": "rhf"
			},
			{
				"type": "occ",
				"energy": -0.29236,
				"method": "rhf"
			},
			{
				"type": "occ",
				"energy": -0.25765,
				"method": "rhf"
			},
			{
				"type": "unocc",
				"energy": 0.06835,
				"method": "rhf"
			},
			{
				"type": "unocc",
				"energy": 0.09202,
				"method": "rhf"
			},
			{
				"type": "unocc",
				"energy": 0.10691,
				"method": "rhf"
			},
			{
				"type": "unocc",
				"energy": 0.11195,
				"method": "rhf"
			},
			{
				"type": "unocc",
				"energy": 0.11305,
				"method": "rhf"
			}
		],
		"cosmo_sigma_profile": { 
			"-0.025": 0.0,
			"-0.024": 0.0,
			"-0.023": 0.0,
			"-0.022": 0.0,
			"-0.021": 0.0,
			"-0.02": 0.0,
			"-0.019": 0.0,
			"-0.018": 0.0,
			"-0.017": 0.0,
			"-0.016": 0.0,
			"-0.015": 0.0,
			"-0.014": 0.452067579251,
			"-0.013": 0.769918729395,
			"-0.012": 1.23366460917,
			"-0.011": 0.611034850944,
			"-0.01": 0.720524448002,
			"-0.009": 0.840162490029,
			"-0.008": 1.07576266223,
			"-0.007": 1.14496798513,
			"-0.006": 1.74004376865,
			"-0.005": 0.907204168366,
			"-0.004": 1.57502105085,
			"-0.003": 10.9208937873,
			"-0.002": 38.8474451045,
			"-0.001": 47.7551908154,
			"0.0": 52.6230224214,
			"0.001": 48.7979540148,
			"0.002": 19.4337700162,
			"0.003": 1.89807286271,
			"0.004": 2.00969478242,
			"0.005": 1.7052449909,
			"0.006": 1.34950854788,
			"0.007": 1.57411902521,
			"0.008": 1.38322878508,
			"0.009": 1.33931705295,
			"0.01": 1.96815443236,
			"0.011": 1.04017957652,
			"0.012": 1.42547415855,
			"0.013": 1.50568296509,
			"0.014": 1.30747635442,
			"0.015": 0.637081325275,
			"0.016": 0.0,
			"0.017": 0.0,
			"0.018": 0.0,
			"0.019": 0.0,
			"0.02": 0.0,
			"0.021": 0.0,
			"0.022": 0.0,
			"0.023": 0.0,
			"0.024": 0.0,
			"0.025": 0.0
		}
	}
}
