{
	 "smiles": "CN(C)C1=CC=C(C=C(C#N)C2=NC3=C(C=CC=C3)N2C)C=C1", 
	 "Tm": 424.15, 
	 "num_atms": 41, 
	 "gaussian": { 
		 "optdone": 1, 
		 "sigma_profile": "yes", 
		 "theory": "DFT", 
		 "functional": "B3LYP", 
		 "basiset": "6-31G**", 
		 "properties": { 
			 "R2extent": 9654.282, 
			 "electric_dipole_moment_norm": 10.6947541332, 
			 "electric_quadrupole_moment_norm": 32.1832638264, 
			 "total_energy": -953.852917613, 
			 "HOMO_LUMO_gap": 0.13704, 
			 "cosmo_polarized_energy": -21.67, 
			 "cosmo_cavitation_energy": 45.14, 
			 "cosmo_dispersion_energy": -30.38, 
			 "cosmo_repulsion_energy": 2.3, 
			 "cosmo_total_nonelectrostatic_energy": 17.06, 
			 "SMD_solvation_energy": 6.7 
		},
		"coords": [
			{
				"x": 0.7425909473,
				"y": 2.5937553568,
				"z": 4.2611362898,
				"element": "C" 
			},
			{
				"x": 0.1639175788,
				"y": 1.650199582,
				"z": 3.3175546696,
				"element": "N" 
			},
			{
				"x": -1.1165126939,
				"y": 1.0325403407,
				"z": 3.6273667637,
				"element": "C" 
			},
			{
				"x": 0.9101139181,
				"y": 1.1964518141,
				"z": 2.2523626226,
				"element": "C" 
			},
			{
				"x": 0.4157072363,
				"y": 0.1938699007,
				"z": 1.3777372561,
				"element": "C" 
			},
			{
				"x": 1.1549593687,
				"y": -0.2440185037,
				"z": 0.2924530507,
				"element": "C" 
			},
			{
				"x": 2.4354704115,
				"y": 0.2801906639,
				"z": 0.0088768449,
				"element": "C" 
			},
			{
				"x": 3.2750682415,
				"y": -0.1398249544,
				"z": -1.09957351,
				"element": "C" 
			},
			{
				"x": 2.9500007188,
				"y": -0.8087357524,
				"z": -2.2430435168,
				"element": "C" 
			},
			{
				"x": 4.0032868828,
				"y": -1.1803223571,
				"z": -3.1400152429,
				"element": "C" 
			},
			{
				"x": 4.8583421802,
				"y": -1.466597424,
				"z": -3.8777234055,
				"element": "N" 
			},
			{
				"x": 1.5802023813,
				"y": -1.1919362471,
				"z": -2.6648454025,
				"element": "C" 
			},
			{
				"x": 1.1573423912,
				"y": -2.4309534544,
				"z": -2.7860972945,
				"element": "N" 
			},
			{
				"x": -0.1569681669,
				"y": -2.3225880203,
				"z": -3.206781536,
				"element": "C" 
			},
			{
				"x": -0.5171304355,
				"y": -0.9600322389,
				"z": -3.3412708307,
				"element": "C" 
			},
			{
				"x": -1.7913682987,
				"y": -0.5573260628,
				"z": -3.7520448867,
				"element": "C" 
			},
			{
				"x": -2.7075843674,
				"y": -1.5686187007,
				"z": -4.0292410834,
				"element": "C" 
			},
			{
				"x": -2.3653027378,
				"y": -2.9310543517,
				"z": -3.900224176,
				"element": "C" 
			},
			{
				"x": -1.095690037,
				"y": -3.3237189803,
				"z": -3.4906567198,
				"element": "C" 
			},
			{
				"x": 0.6176283309,
				"y": -0.2465115758,
				"z": -2.9973815469,
				"element": "N" 
			},
			{
				"x": 0.7398358325,
				"y": 1.1995337307,
				"z": -3.0125298759,
				"element": "C" 
			},
			{
				"x": 2.9386386542,
				"y": 1.2463318925,
				"z": 0.9048989684,
				"element": "C" 
			},
			{
				"x": 2.2075477833,
				"y": 1.702630977,
				"z": 1.9888107536,
				"element": "C" 
			},
			{
				"x": 1.6197411604,
				"y": 2.181768056,
				"z": 4.780377878,
				"element": "H" 
			},
			{
				"x": 1.0485559078,
				"y": 3.5206898904,
				"z": 3.7611221717,
				"element": "H" 
			},
			{
				"x": -0.0043722017,
				"y": 2.853381054,
				"z": 5.0117757541,
				"element": "H" 
			},
			{
				"x": -1.567624054,
				"y": 1.5503834933,
				"z": 4.4742651024,
				"element": "H" 
			},
			{
				"x": -1.0163921807,
				"y": -0.0300944011,
				"z": 3.8905658855,
				"element": "H" 
			},
			{
				"x": -1.8106165977,
				"y": 1.1091073841,
				"z": 2.7820479476,
				"element": "H" 
			},
			{
				"x": -0.5503417263,
				"y": -0.2600774861,
				"z": 1.5593478848,
				"element": "H" 
			},
			{
				"x": 0.7480454434,
				"y": -1.0385584836,
				"z": -0.3224520317,
				"element": "H" 
			},
			{
				"x": 4.3268444646,
				"y": 0.1215855494,
				"z": -0.9945529165,
				"element": "H" 
			},
			{
				"x": -2.0611781604,
				"y": 0.4896733576,
				"z": -3.8509372498,
				"element": "H" 
			},
			{
				"x": -3.7098225561,
				"y": -1.3020250982,
				"z": -4.3518496848,
				"element": "H" 
			},
			{
				"x": -3.1121148945,
				"y": -3.6858664944,
				"z": -4.1281751142,
				"element": "H" 
			},
			{
				"x": -0.824108633,
				"y": -4.3697024741,
				"z": -3.3918970356,
				"element": "H" 
			},
			{
				"x": 1.7921782901,
				"y": 1.4711447714,
				"z": -2.9342441613,
				"element": "H" 
			},
			{
				"x": 0.1961932943,
				"y": 1.6501099651,
				"z": -2.1752556564,
				"element": "H" 
			},
			{
				"x": 0.3425294418,
				"y": 1.5935066933,
				"z": -3.9525671133,
				"element": "H" 
			},
			{
				"x": 3.9330779657,
				"y": 1.6530729842,
				"z": 0.7375920307,
				"element": "H" 
			},
			{
				"x": 2.6487089161,
				"y": 2.4474356039,
				"z": 2.6390681168,
				"element": "H" 
			}
		],
		 "valence_orbital": [ 
			{
				"type": "occ",
				"energy": -0.26511,
				"method": "rhf"
			},
			{
				"type": "occ",
				"energy": -0.26506,
				"method": "rhf"
			},
			{
				"type": "occ",
				"energy": -0.22525,
				"method": "rhf"
			},
			{
				"type": "occ",
				"energy": -0.22043,
				"method": "rhf"
			},
			{
				"type": "occ",
				"energy": -0.20099,
				"method": "rhf"
			},
			{
				"type": "unocc",
				"energy": -0.06395,
				"method": "rhf"
			},
			{
				"type": "unocc",
				"energy": -0.01637,
				"method": "rhf"
			},
			{
				"type": "unocc",
				"energy": -0.01171,
				"method": "rhf"
			},
			{
				"type": "unocc",
				"energy": 0.02211,
				"method": "rhf"
			},
			{
				"type": "unocc",
				"energy": 0.03151,
				"method": "rhf"
			}
		],
		"cosmo_sigma_profile": { 
			"-0.025": 0.0,
			"-0.024": 0.0,
			"-0.023": 0.0,
			"-0.022": 0.0,
			"-0.021": 0.0,
			"-0.02": 0.0,
			"-0.019": 0.0,
			"-0.018": 0.0,
			"-0.017": 0.0,
			"-0.016": 0.0,
			"-0.015": 0.0,
			"-0.014": 0.0,
			"-0.013": 0.0,
			"-0.012": 0.0,
			"-0.011": 0.0,
			"-0.01": 0.0,
			"-0.009": 0.120157672704,
			"-0.008": 3.04556378322,
			"-0.007": 7.01950941375,
			"-0.006": 21.1993522574,
			"-0.005": 33.2825496371,
			"-0.004": 38.7470976716,
			"-0.003": 38.9090478457,
			"-0.002": 33.4136148021,
			"-0.001": 23.0869280775,
			"0.0": 19.2086199455,
			"0.001": 18.0667241877,
			"0.002": 18.8842005293,
			"0.003": 18.7596074025,
			"0.004": 22.8983325605,
			"0.005": 19.2117648922,
			"0.006": 11.2711650504,
			"0.007": 4.98383066601,
			"0.008": 4.36521731877,
			"0.009": 4.29538284226,
			"0.01": 4.79363537308,
			"0.011": 4.23699269513,
			"0.012": 3.93555345941,
			"0.013": 3.34265636217,
			"0.014": 1.67978842284,
			"0.015": 0.928645437912,
			"0.016": 0.929882182838,
			"0.017": 0.602115745381,
			"0.018": 0.0104160488991,
			"0.019": 0.0,
			"0.02": 0.0,
			"0.021": 0.0,
			"0.022": 0.0,
			"0.023": 0.0,
			"0.024": 0.0,
			"0.025": 0.0
		}
	}
}
