{
	 "smiles": "C(OC1=CC=CC2=C1C=CN2)C1=CC=CC=C1", 
	 "Tm": 333.15, 
	 "num_atms": 30, 
	 "gaussian": { 
		 "optdone": 1, 
		 "sigma_profile": "yes", 
		 "theory": "DFT", 
		 "functional": "B3LYP", 
		 "basiset": "6-31G**", 
		 "properties": { 
			 "R2extent": 5406.7169, 
			 "electric_dipole_moment_norm": 3.03791387139, 
			 "electric_quadrupole_moment_norm": 12.7245546044, 
			 "total_energy": -709.39540672, 
			 "HOMO_LUMO_gap": 0.19225, 
			 "cosmo_polarized_energy": -12.05, 
			 "cosmo_cavitation_energy": 34.02, 
			 "cosmo_dispersion_energy": -24.57, 
			 "cosmo_repulsion_energy": 1.89, 
			 "cosmo_total_nonelectrostatic_energy": 11.34, 
			 "SMD_solvation_energy": 5.66 
		},
		"coords": [
			{
				"x": -0.0044257423,
				"y": 1.4793499472,
				"z": -0.0437814582,
				"element": "C" 
			},
			{
				"x": -0.1065884771,
				"y": 0.098659058,
				"z": 0.3146117002,
				"element": "O" 
			},
			{
				"x": -0.2277998436,
				"y": -0.7705717844,
				"z": -0.7523362793,
				"element": "C" 
			},
			{
				"x": -1.4605425883,
				"y": -1.3379690454,
				"z": -1.0444687254,
				"element": "C" 
			},
			{
				"x": -1.5989324962,
				"y": -2.2607389648,
				"z": -2.1017839232,
				"element": "C" 
			},
			{
				"x": -0.5158141067,
				"y": -2.6271625725,
				"z": -2.8907478147,
				"element": "C" 
			},
			{
				"x": 0.72408657,
				"y": -2.0511455585,
				"z": -2.5853751527,
				"element": "C" 
			},
			{
				"x": 0.8995744246,
				"y": -1.1251658032,
				"z": -1.5206994225,
				"element": "C" 
			},
			{
				"x": 2.2912552704,
				"y": -0.7706225271,
				"z": -1.4889148642,
				"element": "C" 
			},
			{
				"x": 2.9006674734,
				"y": -1.4621973237,
				"z": -2.5026286733,
				"element": "C" 
			},
			{
				"x": 1.9630196034,
				"y": -2.2312098737,
				"z": -3.1678947389,
				"element": "N" 
			},
			{
				"x": 0.3929761795,
				"y": 2.2962918843,
				"z": 1.1637243569,
				"element": "C" 
			},
			{
				"x": 1.0706613241,
				"y": 1.7179140661,
				"z": 2.2423332607,
				"element": "C" 
			},
			{
				"x": 1.4676289909,
				"y": 2.5019814729,
				"z": 3.3272641019,
				"element": "C" 
			},
			{
				"x": 1.1983202702,
				"y": 3.8713849511,
				"z": 3.3442332259,
				"element": "C" 
			},
			{
				"x": 0.5212755508,
				"y": 4.453915469,
				"z": 2.2705521544,
				"element": "C" 
			},
			{
				"x": 0.1174313957,
				"y": 3.6690646269,
				"z": 1.1905154064,
				"element": "C" 
			},
			{
				"x": -0.9660223426,
				"y": 1.8324935036,
				"z": -0.4450575839,
				"element": "H" 
			},
			{
				"x": 0.7410003999,
				"y": 1.5992984197,
				"z": -0.8440923063,
				"element": "H" 
			},
			{
				"x": -2.3155724579,
				"y": -1.0625110202,
				"z": -0.4356436261,
				"element": "H" 
			},
			{
				"x": -2.575999244,
				"y": -2.6897853004,
				"z": -2.3030983234,
				"element": "H" 
			},
			{
				"x": -0.6262989486,
				"y": -3.3364563326,
				"z": -3.705703319,
				"element": "H" 
			},
			{
				"x": 2.7762399727,
				"y": -0.1017172018,
				"z": -0.7935598365,
				"element": "H" 
			},
			{
				"x": 3.9366981247,
				"y": -1.4752516936,
				"z": -2.8096020696,
				"element": "H" 
			},
			{
				"x": 2.1579212373,
				"y": -2.8452494688,
				"z": -3.9413960228,
				"element": "H" 
			},
			{
				"x": 1.2688959931,
				"y": 0.6518547639,
				"z": 2.2284342906,
				"element": "H" 
			},
			{
				"x": 1.9877483752,
				"y": 2.0400748098,
				"z": 4.1620499812,
				"element": "H" 
			},
			{
				"x": 1.5079061434,
				"y": 4.4796301074,
				"z": 4.1893965486,
				"element": "H" 
			},
			{
				"x": 0.2996251973,
				"y": 5.5175363621,
				"z": 2.2776330132,
				"element": "H" 
			},
			{
				"x": -0.4193362494,
				"y": 4.1267050286,
				"z": 0.3622361001,
				"element": "H" 
			}
		],
		 "valence_orbital": [ 
			{
				"type": "occ",
				"energy": -0.26176,
				"method": "rhf"
			},
			{
				"type": "occ",
				"energy": -0.24294,
				"method": "rhf"
			},
			{
				"type": "occ",
				"energy": -0.2345,
				"method": "rhf"
			},
			{
				"type": "occ",
				"energy": -0.21966,
				"method": "rhf"
			},
			{
				"type": "occ",
				"energy": -0.19824,
				"method": "rhf"
			},
			{
				"type": "unocc",
				"energy": -0.00599,
				"method": "rhf"
			},
			{
				"type": "unocc",
				"energy": 0.00392,
				"method": "rhf"
			},
			{
				"type": "unocc",
				"energy": 0.00702,
				"method": "rhf"
			},
			{
				"type": "unocc",
				"energy": 0.03054,
				"method": "rhf"
			},
			{
				"type": "unocc",
				"energy": 0.0694,
				"method": "rhf"
			}
		],
		"cosmo_sigma_profile": { 
			"-0.025": 0.0,
			"-0.024": 0.0,
			"-0.023": 0.0,
			"-0.022": 0.0,
			"-0.021": 0.0,
			"-0.02": 0.0,
			"-0.019": 0.0,
			"-0.018": 0.0,
			"-0.017": 0.0,
			"-0.016": 0.403755980278,
			"-0.015": 1.79595393261,
			"-0.014": 0.909911613543,
			"-0.013": 1.62087554832,
			"-0.012": 1.21351269417,
			"-0.011": 0.899323903915,
			"-0.01": 1.40526925519,
			"-0.009": 1.32633308313,
			"-0.008": 3.45161889094,
			"-0.007": 3.62962900802,
			"-0.006": 8.86176931645,
			"-0.005": 20.1348517975,
			"-0.004": 22.7900028898,
			"-0.003": 25.8988773786,
			"-0.002": 18.0580889215,
			"-0.001": 16.5272588546,
			"0.0": 15.820928715,
			"0.001": 14.5487416954,
			"0.002": 13.6936918434,
			"0.003": 16.7294785604,
			"0.004": 19.4025503469,
			"0.005": 26.294137109,
			"0.006": 23.9399493652,
			"0.007": 8.56066302318,
			"0.008": 1.3725230856,
			"0.009": 1.19752103508,
			"0.01": 0.682503223108,
			"0.011": 0.948078211897,
			"0.012": 0.098382880119,
			"0.013": 0.0,
			"0.014": 0.0,
			"0.015": 0.0,
			"0.016": 0.0,
			"0.017": 0.0,
			"0.018": 0.0,
			"0.019": 0.0,
			"0.02": 0.0,
			"0.021": 0.0,
			"0.022": 0.0,
			"0.023": 0.0,
			"0.024": 0.0,
			"0.025": 0.0
		}
	}
}
