{
	 "smiles": "CS(=O)(=O)C1=CC(=C(F)C=C1)S(Cl)(=O)=O", 
	 "Tm": 396.15, 
	 "num_atms": 21, 
	 "gaussian": { 
		 "optdone": 1, 
		 "sigma_profile": "yes", 
		 "theory": "DFT", 
		 "functional": "B3LYP", 
		 "basiset": "6-31G**", 
		 "properties": { 
			 "R2extent": 4958.5182, 
			 "electric_dipole_moment_norm": 5.62021639263, 
			 "electric_quadrupole_moment_norm": 18.9198245203, 
			 "total_energy": -1927.51141962, 
			 "HOMO_LUMO_gap": 0.19786, 
			 "cosmo_polarized_energy": -19.03, 
			 "cosmo_cavitation_energy": 31.16, 
			 "cosmo_dispersion_energy": -23.1, 
			 "cosmo_repulsion_energy": 1.71, 
			 "cosmo_total_nonelectrostatic_energy": 9.77, 
			 "SMD_solvation_energy": 4.27 
		},
		"coords": [
			{
				"x": -2.5879354579,
				"y": -0.3266304707,
				"z": 2.9436357969,
				"element": "C" 
			},
			{
				"x": -1.6574672251,
				"y": -1.5658720406,
				"z": 2.0134230471,
				"element": "S" 
			},
			{
				"x": -2.5863451549,
				"y": -2.2179221008,
				"z": 1.0817412215,
				"element": "O" 
			},
			{
				"x": -0.8519922493,
				"y": -2.3357717555,
				"z": 2.9716864599,
				"element": "O" 
			},
			{
				"x": -0.5058222393,
				"y": -0.5827328092,
				"z": 1.0273857007,
				"element": "C" 
			},
			{
				"x": -0.9146494573,
				"y": -0.0968730057,
				"z": -0.2129515029,
				"element": "C" 
			},
			{
				"x": -0.009641993,
				"y": 0.6499111487,
				"z": -0.9667353224,
				"element": "C" 
			},
			{
				"x": 1.2816333798,
				"y": 0.8910244705,
				"z": -0.4822894048,
				"element": "C" 
			},
			{
				"x": 2.1357428825,
				"y": 1.6182721666,
				"z": -1.2011587363,
				"element": "F" 
			},
			{
				"x": 1.6870874205,
				"y": 0.3888247462,
				"z": 0.7495659113,
				"element": "C" 
			},
			{
				"x": 0.7866054987,
				"y": -0.3562138738,
				"z": 1.5077948859,
				"element": "C" 
			},
			{
				"x": -0.5193613155,
				"y": 1.2268230785,
				"z": -2.5844350756,
				"element": "S" 
			},
			{
				"x": -0.5964171478,
				"y": 3.3201294906,
				"z": -2.2509116802,
				"element": "Cl" 
			},
			{
				"x": 0.5380095394,
				"y": 0.9910950519,
				"z": -3.5539121124,
				"element": "O" 
			},
			{
				"x": -1.8912514291,
				"y": 0.7897868915,
				"z": -2.8025205258,
				"element": "O" 
			},
			{
				"x": -3.2981099928,
				"y": -0.8831094679,
				"z": 3.5589883579,
				"element": "H" 
			},
			{
				"x": -3.1192630363,
				"y": 0.3238888222,
				"z": 2.2476065557,
				"element": "H" 
			},
			{
				"x": -1.9026043475,
				"y": 0.2406331508,
				"z": 3.5748810244,
				"element": "H" 
			},
			{
				"x": -1.9048829006,
				"y": -0.3081217532,
				"z": -0.6020537375,
				"element": "H" 
			},
			{
				"x": 2.6983807777,
				"y": 0.5836743958,
				"z": 1.088588698,
				"element": "H" 
			},
			{
				"x": 1.0823844478,
				"y": -0.7793161359,
				"z": 2.4619704386,
				"element": "H" 
			}
		],
		 "valence_orbital": [ 
			{
				"type": "occ",
				"energy": -0.32667,
				"method": "rhf"
			},
			{
				"type": "occ",
				"energy": -0.3176,
				"method": "rhf"
			},
			{
				"type": "occ",
				"energy": -0.31664,
				"method": "rhf"
			},
			{
				"type": "occ",
				"energy": -0.31292,
				"method": "rhf"
			},
			{
				"type": "occ",
				"energy": -0.30145,
				"method": "rhf"
			},
			{
				"type": "unocc",
				"energy": -0.10359,
				"method": "rhf"
			},
			{
				"type": "unocc",
				"energy": -0.07231,
				"method": "rhf"
			},
			{
				"type": "unocc",
				"energy": -0.06865,
				"method": "rhf"
			},
			{
				"type": "unocc",
				"energy": 0.01953,
				"method": "rhf"
			},
			{
				"type": "unocc",
				"energy": 0.03799,
				"method": "rhf"
			}
		],
		"cosmo_sigma_profile": { 
			"-0.025": 0.0,
			"-0.024": 0.0,
			"-0.023": 0.0,
			"-0.022": 0.0,
			"-0.021": 0.0,
			"-0.02": 0.0,
			"-0.019": 0.0,
			"-0.018": 0.0,
			"-0.017": 0.0,
			"-0.016": 0.0,
			"-0.015": 0.0,
			"-0.014": 0.0,
			"-0.013": 0.0,
			"-0.012": 0.0,
			"-0.011": 0.142847056817,
			"-0.01": 3.28306817868,
			"-0.009": 10.5334153,
			"-0.008": 11.8386933511,
			"-0.007": 10.2298830807,
			"-0.006": 11.2292742214,
			"-0.005": 14.8524965295,
			"-0.004": 18.9710607064,
			"-0.003": 19.0448324602,
			"-0.002": 14.5587116058,
			"-0.001": 14.0063591908,
			"0.0": 10.8852196093,
			"0.001": 12.5288286985,
			"0.002": 22.3787261034,
			"0.003": 13.9765176029,
			"0.004": 5.89425005314,
			"0.005": 5.43044253346,
			"0.006": 6.62579761266,
			"0.007": 12.5260200137,
			"0.008": 10.9352403116,
			"0.009": 3.33183932459,
			"0.01": 7.30115298653,
			"0.011": 9.35103628256,
			"0.012": 3.37526981527,
			"0.013": 0.0,
			"0.014": 0.0,
			"0.015": 0.0,
			"0.016": 0.0,
			"0.017": 0.0,
			"0.018": 0.0,
			"0.019": 0.0,
			"0.02": 0.0,
			"0.021": 0.0,
			"0.022": 0.0,
			"0.023": 0.0,
			"0.024": 0.0,
			"0.025": 0.0
		}
	}
}
