{
	 "smiles": "C[Si](C)(C)C#CC1=NC=CC=C1", 
	 "Tm": 316.65, 
	 "num_atms": 25, 
	 "gaussian": { 
		 "optdone": 1, 
		 "sigma_profile": "yes", 
		 "theory": "DFT", 
		 "functional": "B3LYP", 
		 "basiset": "6-31G**", 
		 "properties": { 
			 "R2extent": 4790.4386, 
			 "electric_dipole_moment_norm": 1.97584627692, 
			 "electric_quadrupole_moment_norm": 15.9614088357, 
			 "total_energy": -733.136515235, 
			 "HOMO_LUMO_gap": 0.19068, 
			 "cosmo_polarized_energy": -8.34, 
			 "cosmo_cavitation_energy": 31.54, 
			 "cosmo_dispersion_energy": -20.08, 
			 "cosmo_repulsion_energy": 1.78, 
			 "cosmo_total_nonelectrostatic_energy": 13.24, 
			 "SMD_solvation_energy": 6.33 
		},
		"coords": [
			{
				"x": 2.9937082092,
				"y": -2.1447942208,
				"z": -1.7857205604,
				"element": "C" 
			},
			{
				"x": 2.4438559974,
				"y": -0.3385605719,
				"z": -1.8573567452,
				"element": "Si" 
			},
			{
				"x": 1.0574310703,
				"y": -0.1246322105,
				"z": -3.1217409716,
				"element": "C" 
			},
			{
				"x": 3.9067974802,
				"y": 0.7749205299,
				"z": -2.2902573664,
				"element": "C" 
			},
			{
				"x": 1.80571072,
				"y": 0.1498804019,
				"z": -0.1989273178,
				"element": "C" 
			},
			{
				"x": 1.3762710275,
				"y": 0.4972021258,
				"z": 0.8891870961,
				"element": "C" 
			},
			{
				"x": 0.8812829629,
				"y": 0.8727721657,
				"z": 2.1810799658,
				"element": "C" 
			},
			{
				"x": 0.3474587946,
				"y": 2.10644111,
				"z": 2.3083792867,
				"element": "N" 
			},
			{
				"x": -0.1134015499,
				"y": 2.4558412997,
				"z": 3.5114266467,
				"element": "C" 
			},
			{
				"x": -0.0757807027,
				"y": 1.626962964,
				"z": 4.6357525008,
				"element": "C" 
			},
			{
				"x": 0.4767083215,
				"y": 0.3540058077,
				"z": 4.4980718625,
				"element": "C" 
			},
			{
				"x": 0.9641035848,
				"y": -0.0340861768,
				"z": 3.2541442717,
				"element": "C" 
			},
			{
				"x": 3.3803212666,
				"y": -2.4704980286,
				"z": -2.7582376683,
				"element": "H" 
			},
			{
				"x": 3.7867771094,
				"y": -2.2905879927,
				"z": -1.0450797105,
				"element": "H" 
			},
			{
				"x": 2.1612252289,
				"y": -2.8041256608,
				"z": -1.5192725816,
				"element": "H" 
			},
			{
				"x": 0.712521724,
				"y": 0.9136365258,
				"z": -3.1582702644,
				"element": "H" 
			},
			{
				"x": 1.4018747159,
				"y": -0.4005493543,
				"z": -4.1250793153,
				"element": "H" 
			},
			{
				"x": 0.1958054964,
				"y": -0.754315099,
				"z": -2.8776681525,
				"element": "H" 
			},
			{
				"x": 4.7148014973,
				"y": 0.6729008593,
				"z": -1.5586681592,
				"element": "H" 
			},
			{
				"x": 3.6088200477,
				"y": 1.8279838096,
				"z": -2.3141672653,
				"element": "H" 
			},
			{
				"x": 4.3114381529,
				"y": 0.5171301476,
				"z": -3.2757943701,
				"element": "H" 
			},
			{
				"x": -0.5378664276,
				"y": 3.4560362127,
				"z": 3.583285969,
				"element": "H" 
			},
			{
				"x": -0.4684749243,
				"y": 1.9734160447,
				"z": 5.5863763315,
				"element": "H" 
			},
			{
				"x": 0.5274972964,
				"y": -0.3252175972,
				"z": 5.3441669361,
				"element": "H" 
			},
			{
				"x": 1.4027129006,
				"y": -1.0135630917,
				"z": 3.0972695818,
				"element": "H" 
			}
		],
		 "valence_orbital": [ 
			{
				"type": "occ",
				"energy": -0.29787,
				"method": "rhf"
			},
			{
				"type": "occ",
				"energy": -0.28636,
				"method": "rhf"
			},
			{
				"type": "occ",
				"energy": -0.26269,
				"method": "rhf"
			},
			{
				"type": "occ",
				"energy": -0.2581,
				"method": "rhf"
			},
			{
				"type": "occ",
				"energy": -0.23611,
				"method": "rhf"
			},
			{
				"type": "unocc",
				"energy": -0.04543,
				"method": "rhf"
			},
			{
				"type": "unocc",
				"energy": -0.02159,
				"method": "rhf"
			},
			{
				"type": "unocc",
				"energy": 0.02488,
				"method": "rhf"
			},
			{
				"type": "unocc",
				"energy": 0.06105,
				"method": "rhf"
			},
			{
				"type": "unocc",
				"energy": 0.07969,
				"method": "rhf"
			}
		],
		"cosmo_sigma_profile": { 
			"-0.025": 0.0,
			"-0.024": 0.0,
			"-0.023": 0.0,
			"-0.022": 0.0,
			"-0.021": 0.0,
			"-0.02": 0.0,
			"-0.019": 0.0,
			"-0.018": 0.0,
			"-0.017": 0.0,
			"-0.016": 0.0,
			"-0.015": 0.0,
			"-0.014": 0.0,
			"-0.013": 0.0,
			"-0.012": 0.0,
			"-0.011": 0.0,
			"-0.01": 0.0,
			"-0.009": 0.0,
			"-0.008": 1.03996249908,
			"-0.007": 7.22068820715,
			"-0.006": 9.82915894576,
			"-0.005": 9.18159247948,
			"-0.004": 16.5297656237,
			"-0.003": 24.0026235724,
			"-0.002": 24.4802692408,
			"-0.001": 23.6022061031,
			"0.0": 22.6324135164,
			"0.001": 37.7298748237,
			"0.002": 25.7289423665,
			"0.003": 9.96547591353,
			"0.004": 6.67326580256,
			"0.005": 6.4527434316,
			"0.006": 7.45194518862,
			"0.007": 4.71009473236,
			"0.008": 2.1438224069,
			"0.009": 1.45910454112,
			"0.01": 1.20047028659,
			"0.011": 1.21138947132,
			"0.012": 1.02621089222,
			"0.013": 1.33265498477,
			"0.014": 0.683353295251,
			"0.015": 0.873060265002,
			"0.016": 0.64892869005,
			"0.017": 0.00543901217376,
			"0.018": 0.0,
			"0.019": 0.0,
			"0.02": 0.0,
			"0.021": 0.0,
			"0.022": 0.0,
			"0.023": 0.0,
			"0.024": 0.0,
			"0.025": 0.0
		}
	}
}
