{
	 "smiles": "CC(=O)NC1=CC(F)=C(C=C1)C(=O)CCl", 
	 "Tm": 402.15, 
	 "num_atms": 24, 
	 "gaussian": { 
		 "optdone": 1, 
		 "sigma_profile": "yes", 
		 "theory": "DFT", 
		 "functional": "B3LYP", 
		 "basiset": "6-31G**", 
		 "properties": { 
			 "R2extent": 5131.3217, 
			 "electric_dipole_moment_norm": 1.57918491318, 
			 "electric_quadrupole_moment_norm": 21.4063435124, 
			 "total_energy": -1151.72767814, 
			 "HOMO_LUMO_gap": 0.1675, 
			 "cosmo_polarized_energy": -15.71, 
			 "cosmo_cavitation_energy": 30.76, 
			 "cosmo_dispersion_energy": -22.21, 
			 "cosmo_repulsion_energy": 1.73, 
			 "cosmo_total_nonelectrostatic_energy": 10.28, 
			 "SMD_solvation_energy": 6.77 
		},
		"coords": [
			{
				"x": 1.4063668649,
				"y": -2.867919437,
				"z": -0.9091196338,
				"element": "C" 
			},
			{
				"x": -0.0648068564,
				"y": -3.1833518406,
				"z": -1.0709862299,
				"element": "C" 
			},
			{
				"x": -0.4564515789,
				"y": -4.1695337332,
				"z": -1.6725179225,
				"element": "O" 
			},
			{
				"x": -1.0202895266,
				"y": -2.3135819615,
				"z": -0.5415602501,
				"element": "N" 
			},
			{
				"x": -0.9585405907,
				"y": -1.1154058339,
				"z": 0.1735691972,
				"element": "C" 
			},
			{
				"x": 0.1266424496,
				"y": -0.7364395254,
				"z": 0.9769074788,
				"element": "C" 
			},
			{
				"x": 0.0827747679,
				"y": 0.4747232313,
				"z": 1.6532637187,
				"element": "C" 
			},
			{
				"x": 1.1536682814,
				"y": 0.7667430361,
				"z": 2.4213102807,
				"element": "F" 
			},
			{
				"x": -1.0077396376,
				"y": 1.3505708964,
				"z": 1.5998961483,
				"element": "C" 
			},
			{
				"x": -2.0999847684,
				"y": 0.9268041552,
				"z": 0.8168140615,
				"element": "C" 
			},
			{
				"x": -2.0837028417,
				"y": -0.2636441553,
				"z": 0.1162017612,
				"element": "C" 
			},
			{
				"x": -1.1330556377,
				"y": 2.6545482863,
				"z": 2.3094810028,
				"element": "C" 
			},
			{
				"x": -2.2069437182,
				"y": 3.234475584,
				"z": 2.3588469297,
				"element": "O" 
			},
			{
				"x": 0.075222334,
				"y": 3.3056651317,
				"z": 2.9810101375,
				"element": "C" 
			},
			{
				"x": 1.2742165851,
				"y": 3.8680152916,
				"z": 1.7392833464,
				"element": "Cl" 
			},
			{
				"x": 1.9456489304,
				"y": -3.4682350013,
				"z": -1.6417584306,
				"element": "H" 
			},
			{
				"x": 1.6280459227,
				"y": -1.8083556582,
				"z": -1.0583791163,
				"element": "H" 
			},
			{
				"x": 1.7548914014,
				"y": -3.1550066413,
				"z": 0.0888042613,
				"element": "H" 
			},
			{
				"x": -1.9481322202,
				"y": -2.6007077593,
				"z": -0.8314765992,
				"element": "H" 
			},
			{
				"x": 0.9936361085,
				"y": -1.3636611226,
				"z": 1.1222528594,
				"element": "H" 
			},
			{
				"x": -2.9617673418,
				"y": 1.5838869225,
				"z": 0.7725933097,
				"element": "H" 
			},
			{
				"x": -2.9346019202,
				"y": -0.5457483084,
				"z": -0.4969589259,
				"element": "H" 
			},
			{
				"x": -0.2744866732,
				"y": 4.1868713837,
				"z": 3.5152767638,
				"element": "H" 
			},
			{
				"x": 0.6046896657,
				"y": 2.6223870594,
				"z": 3.6431458512,
				"element": "H" 
			}
		],
		 "valence_orbital": [ 
			{
				"type": "occ",
				"energy": -0.30396,
				"method": "rhf"
			},
			{
				"type": "occ",
				"energy": -0.27585,
				"method": "rhf"
			},
			{
				"type": "occ",
				"energy": -0.27407,
				"method": "rhf"
			},
			{
				"type": "occ",
				"energy": -0.26713,
				"method": "rhf"
			},
			{
				"type": "occ",
				"energy": -0.24589,
				"method": "rhf"
			},
			{
				"type": "unocc",
				"energy": -0.07839,
				"method": "rhf"
			},
			{
				"type": "unocc",
				"energy": -0.02628,
				"method": "rhf"
			},
			{
				"type": "unocc",
				"energy": -0.01622,
				"method": "rhf"
			},
			{
				"type": "unocc",
				"energy": 0.01608,
				"method": "rhf"
			},
			{
				"type": "unocc",
				"energy": 0.05229,
				"method": "rhf"
			}
		],
		"cosmo_sigma_profile": { 
			"-0.025": 0.0,
			"-0.024": 0.0,
			"-0.023": 0.0,
			"-0.022": 0.0,
			"-0.021": 0.0,
			"-0.02": 0.0,
			"-0.019": 0.0,
			"-0.018": 0.0,
			"-0.017": 0.0,
			"-0.016": 0.0,
			"-0.015": 0.949389997098,
			"-0.014": 0.959980818597,
			"-0.013": 1.10496937786,
			"-0.012": 1.0445207365,
			"-0.011": 1.49679058998,
			"-0.01": 1.85225553601,
			"-0.009": 3.50891350303,
			"-0.008": 7.93049188876,
			"-0.007": 10.3006706255,
			"-0.006": 13.7852659193,
			"-0.005": 15.7870961296,
			"-0.004": 12.1292640153,
			"-0.003": 12.9768672059,
			"-0.002": 15.2729617937,
			"-0.001": 17.3059259188,
			"0.0": 20.9541572601,
			"0.001": 21.0238543827,
			"0.002": 16.2914909273,
			"0.003": 13.4724802806,
			"0.004": 11.806233471,
			"0.005": 11.6507372488,
			"0.006": 6.78541029108,
			"0.007": 2.96316858589,
			"0.008": 3.28332756355,
			"0.009": 2.92164177153,
			"0.01": 4.02030749291,
			"0.011": 6.12959076435,
			"0.012": 5.53121106829,
			"0.013": 4.1094265305,
			"0.014": 0.735108230607,
			"0.015": 0.0,
			"0.016": 0.0,
			"0.017": 0.0,
			"0.018": 0.0,
			"0.019": 0.0,
			"0.02": 0.0,
			"0.021": 0.0,
			"0.022": 0.0,
			"0.023": 0.0,
			"0.024": 0.0,
			"0.025": 0.0
		}
	}
}
