{
	 "smiles": "CN1C=C(C=N1)C1C(CCC(=O)N1C)C(N)=O", 
	 "Tm": 459.15, 
	 "num_atms": 33, 
	 "gaussian": { 
		 "optdone": 1, 
		 "sigma_profile": "yes", 
		 "theory": "DFT", 
		 "functional": "B3LYP", 
		 "basiset": "6-31G**", 
		 "properties": { 
			 "R2extent": 4408.4104, 
			 "electric_dipole_moment_norm": 1.73893706327, 
			 "electric_quadrupole_moment_norm": 26.2808381457, 
			 "total_energy": -798.273869667, 
			 "HOMO_LUMO_gap": 0.2442, 
			 "cosmo_polarized_energy": -25.94, 
			 "cosmo_cavitation_energy": 35.58, 
			 "cosmo_dispersion_energy": -24.15, 
			 "cosmo_repulsion_energy": 1.91, 
			 "cosmo_total_nonelectrostatic_energy": 13.34, 
			 "SMD_solvation_energy": 6.35 
		},
		"coords": [
			{
				"x": -3.646411369,
				"y": -2.4320314801,
				"z": 1.2886463991,
				"element": "C" 
			},
			{
				"x": -2.2805520432,
				"y": -2.2006974266,
				"z": 0.8551208782,
				"element": "N" 
			},
			{
				"x": -1.4578226934,
				"y": -1.1793967568,
				"z": 1.2037316677,
				"element": "C" 
			},
			{
				"x": -0.2869998184,
				"y": -1.3358475375,
				"z": 0.4750182553,
				"element": "C" 
			},
			{
				"x": -0.5239066424,
				"y": -2.4972904879,
				"z": -0.2952448244,
				"element": "C" 
			},
			{
				"x": -1.7296617411,
				"y": -3.0168650138,
				"z": -0.0687134625,
				"element": "N" 
			},
			{
				"x": 0.943483467,
				"y": -0.4627824035,
				"z": 0.4703849633,
				"element": "C" 
			},
			{
				"x": 0.6010695578,
				"y": 0.9775914183,
				"z": 0.0233926124,
				"element": "C" 
			},
			{
				"x": 1.809914472,
				"y": 1.9016682486,
				"z": 0.2209009497,
				"element": "C" 
			},
			{
				"x": 2.1340107319,
				"y": 1.9581065047,
				"z": 1.7112917055,
				"element": "C" 
			},
			{
				"x": 2.2697482127,
				"y": 0.5920687454,
				"z": 2.3746099665,
				"element": "C" 
			},
			{
				"x": 2.9047424467,
				"y": 0.4809717847,
				"z": 3.4189566945,
				"element": "O" 
			},
			{
				"x": 1.6410137833,
				"y": -0.4819588021,
				"z": 1.7773341166,
				"element": "N" 
			},
			{
				"x": 1.8955974689,
				"y": -1.8081066116,
				"z": 2.3377706501,
				"element": "C" 
			},
			{
				"x": 0.0357927212,
				"y": 1.0257773199,
				"z": -1.401678403,
				"element": "C" 
			},
			{
				"x": 0.8656621831,
				"y": 0.5729033085,
				"z": -2.3927738945,
				"element": "N" 
			},
			{
				"x": -1.082619152,
				"y": 1.4552481222,
				"z": -1.6388475504,
				"element": "O" 
			},
			{
				"x": -3.7883951029,
				"y": -3.50079503,
				"z": 1.4567737533,
				"element": "H" 
			},
			{
				"x": -4.3577769886,
				"y": -2.0918515749,
				"z": 0.5298337408,
				"element": "H" 
			},
			{
				"x": -3.8241061826,
				"y": -1.889557367,
				"z": 2.2189536857,
				"element": "H" 
			},
			{
				"x": -1.7551871689,
				"y": -0.4375520998,
				"z": 1.9307474506,
				"element": "H" 
			},
			{
				"x": 0.1419128928,
				"y": -2.9729747612,
				"z": -1.0042088642,
				"element": "H" 
			},
			{
				"x": 1.6337084396,
				"y": -0.8989589125,
				"z": -0.2711684456,
				"element": "H" 
			},
			{
				"x": -0.2198084925,
				"y": 1.3465974205,
				"z": 0.6461890065,
				"element": "H" 
			},
			{
				"x": 1.5962031112,
				"y": 2.9027744626,
				"z": -0.1682764455,
				"element": "H" 
			},
			{
				"x": 2.6775313167,
				"y": 1.5220653281,
				"z": -0.3364199774,
				"element": "H" 
			},
			{
				"x": 3.0674927956,
				"y": 2.4886375144,
				"z": 1.9147612201,
				"element": "H" 
			},
			{
				"x": 1.3449860822,
				"y": 2.50336278,
				"z": 2.2457237456,
				"element": "H" 
			},
			{
				"x": 2.3899312292,
				"y": -2.4476346571,
				"z": 1.5949386972,
				"element": "H" 
			},
			{
				"x": 2.543711447,
				"y": -1.6837986844,
				"z": 3.2030248255,
				"element": "H" 
			},
			{
				"x": 0.9634118247,
				"y": -2.2932237546,
				"z": 2.6382813868,
				"element": "H" 
			},
			{
				"x": 1.8314362063,
				"y": 0.3392377498,
				"z": -2.2302424667,
				"element": "H" 
			},
			{
				"x": 0.5458870051,
				"y": 0.6651126537,
				"z": -3.3453120369,
				"element": "H" 
			}
		],
		 "valence_orbital": [ 
			{
				"type": "occ",
				"energy": -0.25389,
				"method": "rhf"
			},
			{
				"type": "occ",
				"energy": -0.25174,
				"method": "rhf"
			},
			{
				"type": "occ",
				"energy": -0.24676,
				"method": "rhf"
			},
			{
				"type": "occ",
				"energy": -0.23974,
				"method": "rhf"
			},
			{
				"type": "occ",
				"energy": -0.23437,
				"method": "rhf"
			},
			{
				"type": "unocc",
				"energy": 0.00983,
				"method": "rhf"
			},
			{
				"type": "unocc",
				"energy": 0.01844,
				"method": "rhf"
			},
			{
				"type": "unocc",
				"energy": 0.0271,
				"method": "rhf"
			},
			{
				"type": "unocc",
				"energy": 0.05575,
				"method": "rhf"
			},
			{
				"type": "unocc",
				"energy": 0.05663,
				"method": "rhf"
			}
		],
		"cosmo_sigma_profile": { 
			"-0.025": 0.0,
			"-0.024": 0.0,
			"-0.023": 0.0,
			"-0.022": 0.0,
			"-0.021": 0.0,
			"-0.02": 0.0,
			"-0.019": 0.0,
			"-0.018": 0.0,
			"-0.017": 0.0,
			"-0.016": 0.0,
			"-0.015": 0.0322841155896,
			"-0.014": 1.48045876833,
			"-0.013": 2.88709972924,
			"-0.012": 2.88049146345,
			"-0.011": 2.85624252614,
			"-0.01": 2.61576082246,
			"-0.009": 3.62930115135,
			"-0.008": 6.84077501836,
			"-0.007": 8.21985596184,
			"-0.006": 15.8123648034,
			"-0.005": 22.6633300333,
			"-0.004": 25.6430285522,
			"-0.003": 28.4293144567,
			"-0.002": 21.1094717591,
			"-0.001": 20.4135554856,
			"0.0": 11.1398781148,
			"0.001": 10.6390673906,
			"0.002": 10.3091846085,
			"0.003": 8.56911355078,
			"0.004": 8.61946124597,
			"0.005": 7.39196590846,
			"0.006": 5.96945605663,
			"0.007": 4.52971730336,
			"0.008": 5.17418049477,
			"0.009": 4.30456935332,
			"0.01": 4.08629542559,
			"0.011": 3.91124322451,
			"0.012": 5.13809694675,
			"0.013": 7.31214464813,
			"0.014": 11.26390406,
			"0.015": 4.62927123683,
			"0.016": 0.703675654964,
			"0.017": 0.029811488995,
			"0.018": 0.0,
			"0.019": 0.0,
			"0.02": 0.0,
			"0.021": 0.0,
			"0.022": 0.0,
			"0.023": 0.0,
			"0.024": 0.0,
			"0.025": 0.0
		}
	}
}
