{
	 "smiles": "COC1=C(Cl)C(Cl)=C(C(Cl)=C1Cl)[N+]([O-])=O", 
	 "Tm": 376.15, 
	 "num_atms": 18, 
	 "gaussian": { 
		 "optdone": 1, 
		 "sigma_profile": "yes", 
		 "theory": "DFT", 
		 "functional": "B3LYP", 
		 "basiset": "6-31G**", 
		 "properties": { 
			 "R2extent": 5041.8721, 
			 "electric_dipole_moment_norm": 4.19731381958, 
			 "electric_quadrupole_moment_norm": 11.0745919541, 
			 "total_energy": -2389.5865966, 
			 "HOMO_LUMO_gap": 0.1812, 
			 "cosmo_polarized_energy": -7.2, 
			 "cosmo_cavitation_energy": 30.71, 
			 "cosmo_dispersion_energy": -21.98, 
			 "cosmo_repulsion_energy": 1.72, 
			 "cosmo_total_nonelectrostatic_energy": 10.44, 
			 "SMD_solvation_energy": 7.81 
		},
		"coords": [
			{
				"x": 2.889442802,
				"y": -0.6500698991,
				"z": -1.1398454527,
				"element": "C" 
			},
			{
				"x": 1.4601204898,
				"y": -0.8083330616,
				"z": -1.2184455843,
				"element": "O" 
			},
			{
				"x": 0.7451053888,
				"y": -0.2618600149,
				"z": -0.2049807295,
				"element": "C" 
			},
			{
				"x": 0.2613387229,
				"y": 1.0551731671,
				"z": -0.3107893399,
				"element": "C" 
			},
			{
				"x": 0.6555168842,
				"y": 1.9744967707,
				"z": -1.727535373,
				"element": "Cl" 
			},
			{
				"x": -0.5367318887,
				"y": 1.6003023645,
				"z": 0.704237563,
				"element": "C" 
			},
			{
				"x": -1.1516397093,
				"y": 3.2183944138,
				"z": 0.60096629,
				"element": "Cl" 
			},
			{
				"x": -0.8376779569,
				"y": 0.8167658507,
				"z": 1.8180877438,
				"element": "C" 
			},
			{
				"x": -0.3744697685,
				"y": -0.4924327632,
				"z": 1.9469621917,
				"element": "C" 
			},
			{
				"x": -0.7923236184,
				"y": -1.416756273,
				"z": 3.3533798516,
				"element": "Cl" 
			},
			{
				"x": 0.4231719461,
				"y": -1.0312585875,
				"z": 0.9282403265,
				"element": "C" 
			},
			{
				"x": 1.0150399097,
				"y": -2.6585929841,
				"z": 1.0238909487,
				"element": "Cl" 
			},
			{
				"x": -1.6770834991,
				"y": 1.3910050386,
				"z": 2.894680758,
				"element": "N" 
			},
			{
				"x": -1.0855151473,
				"y": 1.9713145086,
				"z": 3.794788101,
				"element": "O" 
			},
			{
				"x": -2.8853404455,
				"y": 1.2340831319,
				"z": 2.7880278124,
				"element": "O" 
			},
			{
				"x": 3.2892710972,
				"y": -1.1451277068,
				"z": -2.0248816164,
				"element": "H" 
			},
			{
				"x": 3.1652545276,
				"y": 0.4090162282,
				"z": -1.1543805468,
				"element": "H" 
			},
			{
				"x": 3.2853202652,
				"y": -1.1299201839,
				"z": -0.2393029441,
				"element": "H" 
			}
		],
		 "valence_orbital": [ 
			{
				"type": "occ",
				"energy": -0.3242,
				"method": "rhf"
			},
			{
				"type": "occ",
				"energy": -0.31936,
				"method": "rhf"
			},
			{
				"type": "occ",
				"energy": -0.31219,
				"method": "rhf"
			},
			{
				"type": "occ",
				"energy": -0.27497,
				"method": "rhf"
			},
			{
				"type": "occ",
				"energy": -0.27193,
				"method": "rhf"
			},
			{
				"type": "unocc",
				"energy": -0.09073,
				"method": "rhf"
			},
			{
				"type": "unocc",
				"energy": -0.06307,
				"method": "rhf"
			},
			{
				"type": "unocc",
				"energy": -0.06015,
				"method": "rhf"
			},
			{
				"type": "unocc",
				"energy": -0.0482,
				"method": "rhf"
			},
			{
				"type": "unocc",
				"energy": 0.00061,
				"method": "rhf"
			}
		],
		"cosmo_sigma_profile": { 
			"-0.025": 0.0,
			"-0.024": 0.0,
			"-0.023": 0.0,
			"-0.022": 0.0,
			"-0.021": 0.0,
			"-0.02": 0.0,
			"-0.019": 0.0,
			"-0.018": 0.0,
			"-0.017": 0.0,
			"-0.016": 0.0,
			"-0.015": 0.0,
			"-0.014": 0.0,
			"-0.013": 0.0,
			"-0.012": 0.0,
			"-0.011": 0.0,
			"-0.01": 0.0,
			"-0.009": 0.0,
			"-0.008": 0.0,
			"-0.007": 1.7675669048,
			"-0.006": 7.02214535725,
			"-0.005": 15.9876969466,
			"-0.004": 24.7175522827,
			"-0.003": 27.6376067385,
			"-0.002": 21.4149813213,
			"-0.001": 20.158423231,
			"0.0": 22.7621057481,
			"0.001": 26.6316067998,
			"0.002": 26.9404620632,
			"0.003": 20.0283193539,
			"0.004": 7.47662195487,
			"0.005": 8.28350174433,
			"0.006": 12.6927558313,
			"0.007": 7.33287943737,
			"0.008": 3.31880691848,
			"0.009": 1.52327502982,
			"0.01": 0.167292659522,
			"0.011": 0.0,
			"0.012": 0.0,
			"0.013": 0.0,
			"0.014": 0.0,
			"0.015": 0.0,
			"0.016": 0.0,
			"0.017": 0.0,
			"0.018": 0.0,
			"0.019": 0.0,
			"0.02": 0.0,
			"0.021": 0.0,
			"0.022": 0.0,
			"0.023": 0.0,
			"0.024": 0.0,
			"0.025": 0.0
		}
	}
}
