{
	 "smiles": "[O-][N+](=O)C1=CC(=CC(=C1)C(=O)NCCC1=NC=CC=C1)[N+]([O-])=O", 
	 "Tm": 393.15, 
	 "num_atms": 35, 
	 "gaussian": { 
		 "optdone": 1, 
		 "sigma_profile": "yes", 
		 "theory": "DFT", 
		 "functional": "B3LYP", 
		 "basiset": "6-31G**", 
		 "properties": { 
			 "R2extent": 9868.2048, 
			 "electric_dipole_moment_norm": 8.73179230914, 
			 "electric_quadrupole_moment_norm": 16.5783212187, 
			 "total_energy": -1135.66781889, 
			 "HOMO_LUMO_gap": 0.14942, 
			 "cosmo_polarized_energy": -17.74, 
			 "cosmo_cavitation_energy": 41.99, 
			 "cosmo_dispersion_energy": -29.01, 
			 "cosmo_repulsion_energy": 2.17, 
			 "cosmo_total_nonelectrostatic_energy": 15.15, 
			 "SMD_solvation_energy": 10.96 
		},
		"coords": [
			{
				"x": -3.2150414574,
				"y": -0.7399837427,
				"z": -3.5046607432,
				"element": "O" 
			},
			{
				"x": -2.5641560273,
				"y": -0.4897182117,
				"z": -2.4941393602,
				"element": "N" 
			},
			{
				"x": -3.0305353665,
				"y": -0.0539468587,
				"z": -1.4419652995,
				"element": "O" 
			},
			{
				"x": -1.1095979016,
				"y": -0.7344496112,
				"z": -2.5423663692,
				"element": "C" 
			},
			{
				"x": -0.5590845866,
				"y": -1.2569720578,
				"z": -3.7062232461,
				"element": "C" 
			},
			{
				"x": 0.8151897228,
				"y": -1.4720101642,
				"z": -3.7073398523,
				"element": "C" 
			},
			{
				"x": 1.6182422126,
				"y": -1.1872890105,
				"z": -2.6080942741,
				"element": "C" 
			},
			{
				"x": 1.0348321299,
				"y": -0.6699847272,
				"z": -1.4458230292,
				"element": "C" 
			},
			{
				"x": -0.3433109136,
				"y": -0.4333518047,
				"z": -1.4180728896,
				"element": "C" 
			},
			{
				"x": 1.9676090059,
				"y": -0.3818029423,
				"z": -0.2864841017,
				"element": "C" 
			},
			{
				"x": 3.185645783,
				"y": -0.4285753021,
				"z": -0.4473259225,
				"element": "O" 
			},
			{
				"x": 1.3666788233,
				"y": -0.0869824932,
				"z": 0.8899045485,
				"element": "N" 
			},
			{
				"x": 2.1039521951,
				"y": 0.2725961149,
				"z": 2.090229309,
				"element": "C" 
			},
			{
				"x": 1.4301135998,
				"y": 1.4482933086,
				"z": 2.8216123878,
				"element": "C" 
			},
			{
				"x": 0.0288776694,
				"y": 1.1670700495,
				"z": 3.3335119672,
				"element": "C" 
			},
			{
				"x": -0.8565177964,
				"y": 0.6484392165,
				"z": 2.458101402,
				"element": "N" 
			},
			{
				"x": -2.1110797306,
				"y": 0.4195728844,
				"z": 2.8662801454,
				"element": "C" 
			},
			{
				"x": -2.5584144574,
				"y": 0.6942171323,
				"z": 4.1574975987,
				"element": "C" 
			},
			{
				"x": -1.6457635782,
				"y": 1.2227173211,
				"z": 5.0687593944,
				"element": "C" 
			},
			{
				"x": -0.3367438708,
				"y": 1.4598535318,
				"z": 4.6529754297,
				"element": "C" 
			},
			{
				"x": 1.4378702035,
				"y": -2.0243640404,
				"z": -4.9286345892,
				"element": "N" 
			},
			{
				"x": 0.6971471693,
				"y": -2.2615043172,
				"z": -5.8803387703,
				"element": "O" 
			},
			{
				"x": 2.6512926548,
				"y": -2.2090985658,
				"z": -4.9097619102,
				"element": "O" 
			},
			{
				"x": -1.1684204779,
				"y": -1.4840495418,
				"z": -4.5699882283,
				"element": "H" 
			},
			{
				"x": 2.6877236733,
				"y": -1.3551601524,
				"z": -2.6361618166,
				"element": "H" 
			},
			{
				"x": -0.8489287055,
				"y": -0.0083167141,
				"z": -0.5593000637,
				"element": "H" 
			},
			{
				"x": 0.3574977191,
				"y": -0.0700626469,
				"z": 1.0042938655,
				"element": "H" 
			},
			{
				"x": 3.1190107083,
				"y": 0.5406017251,
				"z": 1.7888238797,
				"element": "H" 
			},
			{
				"x": 2.1791121339,
				"y": -0.5914361796,
				"z": 2.7650657834,
				"element": "H" 
			},
			{
				"x": 1.3880484606,
				"y": 2.3036446102,
				"z": 2.1348756314,
				"element": "H" 
			},
			{
				"x": 2.0655194348,
				"y": 1.7464284653,
				"z": 3.6618128373,
				"element": "H" 
			},
			{
				"x": -2.7858683977,
				"y": 0.0027256382,
				"z": 2.1216071244,
				"element": "H" 
			},
			{
				"x": -3.5882366552,
				"y": 0.4958394647,
				"z": 4.4349659206,
				"element": "H" 
			},
			{
				"x": -1.9467909589,
				"y": 1.4467287704,
				"z": 6.0880615737,
				"element": "H" 
			},
			{
				"x": 0.3971275821,
				"y": 1.8704308518,
				"z": 5.3395016671,
				"element": "H" 
			}
		],
		 "valence_orbital": [ 
			{
				"type": "occ",
				"energy": -0.29668,
				"method": "rhf"
			},
			{
				"type": "occ",
				"energy": -0.28625,
				"method": "rhf"
			},
			{
				"type": "occ",
				"energy": -0.27926,
				"method": "rhf"
			},
			{
				"type": "occ",
				"energy": -0.26546,
				"method": "rhf"
			},
			{
				"type": "occ",
				"energy": -0.25868,
				"method": "rhf"
			},
			{
				"type": "unocc",
				"energy": -0.10926,
				"method": "rhf"
			},
			{
				"type": "unocc",
				"energy": -0.10063,
				"method": "rhf"
			},
			{
				"type": "unocc",
				"energy": -0.05476,
				"method": "rhf"
			},
			{
				"type": "unocc",
				"energy": -0.05004,
				"method": "rhf"
			},
			{
				"type": "unocc",
				"energy": -0.03236,
				"method": "rhf"
			}
		],
		"cosmo_sigma_profile": { 
			"-0.025": 0.0,
			"-0.024": 0.0,
			"-0.023": 0.0,
			"-0.022": 0.0,
			"-0.021": 0.0,
			"-0.02": 0.0,
			"-0.019": 0.0,
			"-0.018": 0.0,
			"-0.017": 0.0,
			"-0.016": 0.0,
			"-0.015": 0.0,
			"-0.014": 0.0,
			"-0.013": 0.0,
			"-0.012": 0.0,
			"-0.011": 0.0,
			"-0.01": 0.0,
			"-0.009": 0.521932407053,
			"-0.008": 3.79207827133,
			"-0.007": 10.8020780768,
			"-0.006": 18.3781117581,
			"-0.005": 26.9145863209,
			"-0.004": 35.8627244163,
			"-0.003": 38.6765700237,
			"-0.002": 28.8531923079,
			"-0.001": 20.8395762057,
			"0.0": 17.3438564407,
			"0.001": 17.7321976097,
			"0.002": 20.3499324072,
			"0.003": 18.4818871461,
			"0.004": 8.50350245107,
			"0.005": 9.62963355985,
			"0.006": 13.9647121752,
			"0.007": 17.6105849578,
			"0.008": 9.94303480315,
			"0.009": 7.3217042243,
			"0.01": 2.2711176138,
			"0.011": 1.2168916916,
			"0.012": 2.46185578432,
			"0.013": 4.658537901,
			"0.014": 1.21012887251,
			"0.015": 0.0,
			"0.016": 0.0,
			"0.017": 0.0,
			"0.018": 0.0,
			"0.019": 0.0,
			"0.02": 0.0,
			"0.021": 0.0,
			"0.022": 0.0,
			"0.023": 0.0,
			"0.024": 0.0,
			"0.025": 0.0
		}
	}
}
