{
	 "smiles": "OC(=O)C1=C2C=C(Br)C=CC2=NC2=C1CCCC2", 
	 "Tm": 565.15, 
	 "num_atms": 30, 
	 "gaussian": { 
		 "optdone": 1, 
		 "sigma_profile": "yes", 
		 "theory": "DFT", 
		 "functional": "B3LYP", 
		 "basiset": "6-31G**", 
		 "properties": { 
			 "R2extent": 7546.8668, 
			 "electric_dipole_moment_norm": 3.39864817979, 
			 "electric_quadrupole_moment_norm": 10.8771999628, 
			 "total_energy": -3317.35575692, 
			 "HOMO_LUMO_gap": 0.16282, 
			 "cosmo_polarized_energy": -13.36, 
			 "cosmo_cavitation_energy": 34.78, 
			 "cosmo_dispersion_energy": -26.07, 
			 "cosmo_repulsion_energy": 2.01, 
			 "cosmo_total_nonelectrostatic_energy": 10.72, 
			 "SMD_solvation_energy": 3.15 
		},
		"coords": [
			{
				"x": -1.5012355796,
				"y": -2.2607130535,
				"z": 1.2991004521,
				"element": "O" 
			},
			{
				"x": -1.824676424,
				"y": -0.9455911451,
				"z": 1.1700020623,
				"element": "C" 
			},
			{
				"x": -2.9012132225,
				"y": -0.5499123126,
				"z": 1.5431717083,
				"element": "O" 
			},
			{
				"x": -0.7758911758,
				"y": -0.0692288863,
				"z": 0.5324966666,
				"element": "C" 
			},
			{
				"x": 0.560185881,
				"y": -0.0465810961,
				"z": 1.0452500386,
				"element": "C" 
			},
			{
				"x": 1.0025518775,
				"y": -0.7935774506,
				"z": 2.1743224352,
				"element": "C" 
			},
			{
				"x": 2.3096240075,
				"y": -0.6890409544,
				"z": 2.5914450926,
				"element": "C" 
			},
			{
				"x": 2.8957629965,
				"y": -1.6904966115,
				"z": 4.1077853706,
				"element": "Br" 
			},
			{
				"x": 3.2414922148,
				"y": 0.1466691752,
				"z": 1.9336271247,
				"element": "C" 
			},
			{
				"x": 2.8283190247,
				"y": 0.8869245451,
				"z": 0.8516907341,
				"element": "C" 
			},
			{
				"x": 1.4885434466,
				"y": 0.8166553162,
				"z": 0.384737783,
				"element": "C" 
			},
			{
				"x": 1.1423718793,
				"y": 1.5865549071,
				"z": -0.6786363515,
				"element": "N" 
			},
			{
				"x": -0.1015360505,
				"y": 1.5601043864,
				"z": -1.1210403856,
				"element": "C" 
			},
			{
				"x": -1.1277430125,
				"y": 0.7425849962,
				"z": -0.5387600087,
				"element": "C" 
			},
			{
				"x": -2.5492475136,
				"y": 0.7925402406,
				"z": -1.076435644,
				"element": "C" 
			},
			{
				"x": -2.6638909257,
				"y": 1.4116701582,
				"z": -2.4748397932,
				"element": "C" 
			},
			{
				"x": -1.8718408426,
				"y": 2.7187923033,
				"z": -2.5539048246,
				"element": "C" 
			},
			{
				"x": -0.3841604583,
				"y": 2.4357895897,
				"z": -2.3277501464,
				"element": "C" 
			},
			{
				"x": -0.6333340213,
				"y": -2.4296580409,
				"z": 0.9029738313,
				"element": "H" 
			},
			{
				"x": 0.3157378709,
				"y": -1.4281574062,
				"z": 2.7213010798,
				"element": "H" 
			},
			{
				"x": 4.2628884872,
				"y": 0.2001730389,
				"z": 2.292046522,
				"element": "H" 
			},
			{
				"x": 3.5077728335,
				"y": 1.549266726,
				"z": 0.3257650417,
				"element": "H" 
			},
			{
				"x": -3.1527352294,
				"y": 1.3739800604,
				"z": -0.3678049988,
				"element": "H" 
			},
			{
				"x": -2.9910396908,
				"y": -0.2086042228,
				"z": -1.0666672667,
				"element": "H" 
			},
			{
				"x": -2.2814931765,
				"y": 0.7099966916,
				"z": -3.2287522216,
				"element": "H" 
			},
			{
				"x": -3.7212760017,
				"y": 1.5767518759,
				"z": -2.7075961059,
				"element": "H" 
			},
			{
				"x": -2.0137684318,
				"y": 3.2068179097,
				"z": -3.5241159472,
				"element": "H" 
			},
			{
				"x": -2.24191497,
				"y": 3.4174425486,
				"z": -1.7915547162,
				"element": "H" 
			},
			{
				"x": 0.0256008605,
				"y": 1.9239796876,
				"z": -3.2107354058,
				"element": "H" 
			},
			{
				"x": 0.1980453464,
				"y": 3.3557670233,
				"z": -2.2190221267,
				"element": "H" 
			}
		],
		 "valence_orbital": [ 
			{
				"type": "occ",
				"energy": -0.29603,
				"method": "rhf"
			},
			{
				"type": "occ",
				"energy": -0.28753,
				"method": "rhf"
			},
			{
				"type": "occ",
				"energy": -0.26325,
				"method": "rhf"
			},
			{
				"type": "occ",
				"energy": -0.25461,
				"method": "rhf"
			},
			{
				"type": "occ",
				"energy": -0.24158,
				"method": "rhf"
			},
			{
				"type": "unocc",
				"energy": -0.07876,
				"method": "rhf"
			},
			{
				"type": "unocc",
				"energy": -0.03397,
				"method": "rhf"
			},
			{
				"type": "unocc",
				"energy": -0.02163,
				"method": "rhf"
			},
			{
				"type": "unocc",
				"energy": -0.00168,
				"method": "rhf"
			},
			{
				"type": "unocc",
				"energy": 0.02092,
				"method": "rhf"
			}
		],
		"cosmo_sigma_profile": { 
			"-0.025": 0.0,
			"-0.024": 0.0,
			"-0.023": 0.0,
			"-0.022": 0.0,
			"-0.021": 0.0,
			"-0.02": 0.0,
			"-0.019": 0.290993625086,
			"-0.018": 0.653513770374,
			"-0.017": 0.638668335212,
			"-0.016": 1.18102052541,
			"-0.015": 0.839450950204,
			"-0.014": 0.665475259059,
			"-0.013": 0.842620184813,
			"-0.012": 1.17858899459,
			"-0.011": 1.07543217613,
			"-0.01": 0.544278733235,
			"-0.009": 1.17184959629,
			"-0.008": 1.65020495894,
			"-0.007": 5.33380658158,
			"-0.006": 7.60348398309,
			"-0.005": 9.49389341099,
			"-0.004": 16.6212581905,
			"-0.003": 29.612207719,
			"-0.002": 29.2485580485,
			"-0.001": 30.4565839088,
			"0.0": 28.5204268261,
			"0.001": 23.1379409799,
			"0.002": 20.6675493198,
			"0.003": 13.912367023,
			"0.004": 14.6032295429,
			"0.005": 6.16789055113,
			"0.006": 4.75432293982,
			"0.007": 3.62833751083,
			"0.008": 3.90159615561,
			"0.009": 5.67063991553,
			"0.01": 5.99306426534,
			"0.011": 5.11255100506,
			"0.012": 2.62711856911,
			"0.013": 1.12867993236,
			"0.014": 0.684711587891,
			"0.015": 0.203790428828,
			"0.016": 0.0,
			"0.017": 0.0,
			"0.018": 0.0,
			"0.019": 0.0,
			"0.02": 0.0,
			"0.021": 0.0,
			"0.022": 0.0,
			"0.023": 0.0,
			"0.024": 0.0,
			"0.025": 0.0
		}
	}
}
