{
	 "smiles": "CCOCCOC1=C(Cl)C=CC=C1N", 
	 "Tm": 339.15, 
	 "num_atms": 28, 
	 "gaussian": { 
		 "optdone": 1, 
		 "sigma_profile": "yes", 
		 "theory": "DFT", 
		 "functional": "B3LYP", 
		 "basiset": "6-31G**", 
		 "properties": { 
			 "R2extent": 3682.0396, 
			 "electric_dipole_moment_norm": 2.25263910336, 
			 "electric_quadrupole_moment_norm": 15.4214346745, 
			 "total_energy": -1054.87272623, 
			 "HOMO_LUMO_gap": 0.20691, 
			 "cosmo_polarized_energy": -11.69, 
			 "cosmo_cavitation_energy": 32.23, 
			 "cosmo_dispersion_energy": -22.42, 
			 "cosmo_repulsion_energy": 1.8, 
			 "cosmo_total_nonelectrostatic_energy": 11.61, 
			 "SMD_solvation_energy": 5.45 
		},
		"coords": [
			{
				"x": -2.7497710779,
				"y": 0.386603126,
				"z": 1.1990369244,
				"element": "C" 
			},
			{
				"x": -2.9073288125,
				"y": -0.2868542034,
				"z": -0.1539907396,
				"element": "C" 
			},
			{
				"x": -1.6412589312,
				"y": -0.7880615627,
				"z": -0.5531188597,
				"element": "O" 
			},
			{
				"x": -1.6642100153,
				"y": -1.4422838179,
				"z": -1.8027313317,
				"element": "C" 
			},
			{
				"x": -0.2463067892,
				"y": -1.8198819236,
				"z": -2.1922513932,
				"element": "C" 
			},
			{
				"x": 0.5382515557,
				"y": -0.7094258963,
				"z": -2.6754767062,
				"element": "O" 
			},
			{
				"x": 1.1212629162,
				"y": 0.105638405,
				"z": -1.7306765689,
				"element": "C" 
			},
			{
				"x": 0.6608804021,
				"y": 1.4040939468,
				"z": -1.4974084061,
				"element": "C" 
			},
			{
				"x": -0.7312538517,
				"y": 2.001120803,
				"z": -2.3839105862,
				"element": "Cl" 
			},
			{
				"x": 1.2932628144,
				"y": 2.2500908274,
				"z": -0.5849107247,
				"element": "C" 
			},
			{
				"x": 2.4125426093,
				"y": 1.7812519067,
				"z": 0.1006158435,
				"element": "C" 
			},
			{
				"x": 2.9117440084,
				"y": 0.5031554688,
				"z": -0.139655076,
				"element": "C" 
			},
			{
				"x": 2.2853570069,
				"y": -0.3411785884,
				"z": -1.0659532123,
				"element": "C" 
			},
			{
				"x": 2.7561834538,
				"y": -1.6302262291,
				"z": -1.3340624404,
				"element": "N" 
			},
			{
				"x": -3.7085959814,
				"y": 0.7912163043,
				"z": 1.5384059362,
				"element": "H" 
			},
			{
				"x": -2.3901704944,
				"y": -0.3282035939,
				"z": 1.9450163466,
				"element": "H" 
			},
			{
				"x": -2.0284193529,
				"y": 1.2057873117,
				"z": 1.1334384868,
				"element": "H" 
			},
			{
				"x": -3.2811238921,
				"y": 0.4298158328,
				"z": -0.9028341207,
				"element": "H" 
			},
			{
				"x": -3.6392901119,
				"y": -1.1112017786,
				"z": -0.0950253707,
				"element": "H" 
			},
			{
				"x": -2.26908293,
				"y": -2.3665525851,
				"z": -1.7489167657,
				"element": "H" 
			},
			{
				"x": -2.1016620718,
				"y": -0.8000282829,
				"z": -2.582401857,
				"element": "H" 
			},
			{
				"x": 0.255703448,
				"y": -2.3017676646,
				"z": -1.3463248698,
				"element": "H" 
			},
			{
				"x": -0.2814955103,
				"y": -2.5219238737,
				"z": -3.0313169827,
				"element": "H" 
			},
			{
				"x": 0.9093384732,
				"y": 3.2503913128,
				"z": -0.4230746839,
				"element": "H" 
			},
			{
				"x": 2.9114961087,
				"y": 2.4268524779,
				"z": 0.8170766901,
				"element": "H" 
			},
			{
				"x": 3.7996927404,
				"y": 0.1538207737,
				"z": 0.3808836156,
				"element": "H" 
			},
			{
				"x": 3.729356033,
				"y": -1.7698829728,
				"z": -1.0966561881,
				"element": "H" 
			},
			{
				"x": 2.5532982523,
				"y": -1.931665524,
				"z": -2.2796769599,
				"element": "H" 
			}
		],
		 "valence_orbital": [ 
			{
				"type": "occ",
				"energy": -0.29623,
				"method": "rhf"
			},
			{
				"type": "occ",
				"energy": -0.27685,
				"method": "rhf"
			},
			{
				"type": "occ",
				"energy": -0.25166,
				"method": "rhf"
			},
			{
				"type": "occ",
				"energy": -0.22728,
				"method": "rhf"
			},
			{
				"type": "occ",
				"energy": -0.2041,
				"method": "rhf"
			},
			{
				"type": "unocc",
				"energy": 0.00281,
				"method": "rhf"
			},
			{
				"type": "unocc",
				"energy": 0.01363,
				"method": "rhf"
			},
			{
				"type": "unocc",
				"energy": 0.03985,
				"method": "rhf"
			},
			{
				"type": "unocc",
				"energy": 0.0823,
				"method": "rhf"
			},
			{
				"type": "unocc",
				"energy": 0.09584,
				"method": "rhf"
			}
		],
		"cosmo_sigma_profile": { 
			"-0.025": 0.0,
			"-0.024": 0.0,
			"-0.023": 0.0,
			"-0.022": 0.0,
			"-0.021": 0.0,
			"-0.02": 0.0,
			"-0.019": 0.0,
			"-0.018": 0.0,
			"-0.017": 0.0,
			"-0.016": 0.0,
			"-0.015": 0.0,
			"-0.014": 0.0,
			"-0.013": 0.702648519519,
			"-0.012": 1.16097534929,
			"-0.011": 2.43529684232,
			"-0.01": 2.91531774733,
			"-0.009": 2.66587324199,
			"-0.008": 2.16642650944,
			"-0.007": 3.44838812609,
			"-0.006": 8.89122818943,
			"-0.005": 11.8379595011,
			"-0.004": 18.4044367222,
			"-0.003": 25.6078923163,
			"-0.002": 26.5272023413,
			"-0.001": 20.423696269,
			"0.0": 15.8502686936,
			"0.001": 18.5845559648,
			"0.002": 17.4359686621,
			"0.003": 14.9103537524,
			"0.004": 17.1086619698,
			"0.005": 16.3518502727,
			"0.006": 8.74019408065,
			"0.007": 4.31456401061,
			"0.008": 3.19707923706,
			"0.009": 2.70071304143,
			"0.01": 3.68677837778,
			"0.011": 2.79437863687,
			"0.012": 1.96412011974,
			"0.013": 0.436127241178,
			"0.014": 0.0,
			"0.015": 0.0,
			"0.016": 0.0,
			"0.017": 0.0,
			"0.018": 0.0,
			"0.019": 0.0,
			"0.02": 0.0,
			"0.021": 0.0,
			"0.022": 0.0,
			"0.023": 0.0,
			"0.024": 0.0,
			"0.025": 0.0
		}
	}
}
