{
	 "smiles": "CC(C)C(Br)C(O)=O", 
	 "Tm": 314.65, 
	 "num_atms": 17, 
	 "gaussian": { 
		 "optdone": 1, 
		 "sigma_profile": "yes", 
		 "theory": "DFT", 
		 "functional": "B3LYP", 
		 "basiset": "6-31G**", 
		 "properties": { 
			 "R2extent": 1625.1017, 
			 "electric_dipole_moment_norm": 2.90902364549, 
			 "electric_quadrupole_moment_norm": 6.79468078058, 
			 "total_energy": -2917.82862545, 
			 "HOMO_LUMO_gap": 0.24106, 
			 "cosmo_polarized_energy": -8.96, 
			 "cosmo_cavitation_energy": 21.64, 
			 "cosmo_dispersion_energy": -16.1, 
			 "cosmo_repulsion_energy": 1.33, 
			 "cosmo_total_nonelectrostatic_energy": 6.87, 
			 "SMD_solvation_energy": 3.88 
		},
		"coords": [
			{
				"x": 1.2637491392,
				"y": -1.8545901703,
				"z": -1.3109726922,
				"element": "C" 
			},
			{
				"x": 1.1551398989,
				"y": -1.187230631,
				"z": 0.0723838017,
				"element": "C" 
			},
			{
				"x": 2.1907972947,
				"y": -0.0677789739,
				"z": 0.2423118238,
				"element": "C" 
			},
			{
				"x": -0.296467011,
				"y": -0.713417168,
				"z": 0.3245421557,
				"element": "C" 
			},
			{
				"x": -0.573843774,
				"y": -0.3300802988,
				"z": 2.2792525207,
				"element": "Br" 
			},
			{
				"x": -0.6999746257,
				"y": 0.4831564692,
				"z": -0.5463727759,
				"element": "C" 
			},
			{
				"x": -0.6692158644,
				"y": 1.7131874367,
				"z": -0.0138352016,
				"element": "O" 
			},
			{
				"x": -0.9745005605,
				"y": 0.2990592679,
				"z": -1.7087347829,
				"element": "O" 
			},
			{
				"x": 0.5607759374,
				"y": -2.6879120277,
				"z": -1.4101587519,
				"element": "H" 
			},
			{
				"x": 1.0567752736,
				"y": -1.1453706451,
				"z": -2.1156019684,
				"element": "H" 
			},
			{
				"x": 2.2757750691,
				"y": -2.2491911766,
				"z": -1.4457920322,
				"element": "H" 
			},
			{
				"x": 1.3475488156,
				"y": -1.9543900847,
				"z": 0.8315594227,
				"element": "H" 
			},
			{
				"x": 2.1300460052,
				"y": 0.38991155,
				"z": 1.2339994556,
				"element": "H" 
			},
			{
				"x": 2.0595552451,
				"y": 0.71761337,
				"z": -0.5100164249,
				"element": "H" 
			},
			{
				"x": 3.2000261247,
				"y": -0.4725996946,
				"z": 0.1233075487,
				"element": "H" 
			},
			{
				"x": -1.0007337944,
				"y": -1.5184336331,
				"z": 0.1203700187,
				"element": "H" 
			},
			{
				"x": -0.5109531736,
				"y": 1.64836641,
				"z": 0.9450578824,
				"element": "H" 
			}
		],
		 "valence_orbital": [ 
			{
				"type": "occ",
				"energy": -0.35029,
				"method": "rhf"
			},
			{
				"type": "occ",
				"energy": -0.32624,
				"method": "rhf"
			},
			{
				"type": "occ",
				"energy": -0.31162,
				"method": "rhf"
			},
			{
				"type": "occ",
				"energy": -0.29838,
				"method": "rhf"
			},
			{
				"type": "occ",
				"energy": -0.27698,
				"method": "rhf"
			},
			{
				"type": "unocc",
				"energy": -0.03592,
				"method": "rhf"
			},
			{
				"type": "unocc",
				"energy": 0.00259,
				"method": "rhf"
			},
			{
				"type": "unocc",
				"energy": 0.07069,
				"method": "rhf"
			},
			{
				"type": "unocc",
				"energy": 0.10245,
				"method": "rhf"
			},
			{
				"type": "unocc",
				"energy": 0.12262,
				"method": "rhf"
			}
		],
		"cosmo_sigma_profile": { 
			"-0.025": 0.0,
			"-0.024": 0.0,
			"-0.023": 0.0,
			"-0.022": 0.0,
			"-0.021": 0.0,
			"-0.02": 0.0,
			"-0.019": 0.0,
			"-0.018": 0.0,
			"-0.017": 0.0,
			"-0.016": 0.0,
			"-0.015": 0.180730209311,
			"-0.014": 0.559774222046,
			"-0.013": 0.306846220787,
			"-0.012": 0.7207955887,
			"-0.011": 0.974558345991,
			"-0.01": 1.13208463477,
			"-0.009": 2.44679438345,
			"-0.008": 2.82619300078,
			"-0.007": 3.91139963511,
			"-0.006": 3.84950014725,
			"-0.005": 6.39805044093,
			"-0.004": 13.1773990079,
			"-0.003": 18.4732150299,
			"-0.002": 16.0590097599,
			"-0.001": 16.7725958338,
			"0.0": 19.8873708125,
			"0.001": 13.4009372044,
			"0.002": 6.92565342864,
			"0.003": 7.22332755029,
			"0.004": 9.02312213453,
			"0.005": 3.64350843664,
			"0.006": 2.16682235721,
			"0.007": 3.25088702184,
			"0.008": 3.2277289818,
			"0.009": 4.27762274293,
			"0.01": 4.29627726294,
			"0.011": 4.77731677457,
			"0.012": 2.35124436884,
			"0.013": 0.154663369228,
			"0.014": 0.0,
			"0.015": 0.0,
			"0.016": 0.0,
			"0.017": 0.0,
			"0.018": 0.0,
			"0.019": 0.0,
			"0.02": 0.0,
			"0.021": 0.0,
			"0.022": 0.0,
			"0.023": 0.0,
			"0.024": 0.0,
			"0.025": 0.0
		}
	}
}
