{
	 "smiles": "O=C1NC(=NC=C1)C1=CC=CC=C1", 
	 "Tm": 478.15, 
	 "num_atms": 21, 
	 "gaussian": { 
		 "optdone": 1, 
		 "sigma_profile": "yes", 
		 "theory": "DFT", 
		 "functional": "B3LYP", 
		 "basiset": "6-31G**", 
		 "properties": { 
			 "R2extent": 3561.4582, 
			 "electric_dipole_moment_norm": 3.74449471625, 
			 "electric_quadrupole_moment_norm": 11.282870773, 
			 "total_energy": -570.627094688, 
			 "HOMO_LUMO_gap": 0.16609, 
			 "cosmo_polarized_energy": -13.33, 
			 "cosmo_cavitation_energy": 25.56, 
			 "cosmo_dispersion_energy": -19.17, 
			 "cosmo_repulsion_energy": 1.49, 
			 "cosmo_total_nonelectrostatic_energy": 7.88, 
			 "SMD_solvation_energy": 4.0 
		},
		"coords": [
			{
				"x": 0.6227957558,
				"y": -3.3382588203,
				"z": 2.7225975824,
				"element": "O" 
			},
			{
				"x": 0.9013799482,
				"y": -2.1613371882,
				"z": 2.9045707313,
				"element": "C" 
			},
			{
				"x": 0.6649446589,
				"y": -1.2109506188,
				"z": 1.8778185407,
				"element": "N" 
			},
			{
				"x": 0.9339197065,
				"y": 0.1253441114,
				"z": 1.9667036353,
				"element": "C" 
			},
			{
				"x": 1.4299621389,
				"y": 0.6583116271,
				"z": 3.057834708,
				"element": "N" 
			},
			{
				"x": 1.6768077341,
				"y": -0.1918443128,
				"z": 4.1032049537,
				"element": "C" 
			},
			{
				"x": 1.459751524,
				"y": -1.5388840033,
				"z": 4.0861951903,
				"element": "C" 
			},
			{
				"x": 0.6481273258,
				"y": 0.9857979013,
				"z": 0.7937128589,
				"element": "C" 
			},
			{
				"x": 0.5025475904,
				"y": 0.4650267414,
				"z": -0.5020324116,
				"element": "C" 
			},
			{
				"x": 0.2293729079,
				"y": 1.3107789872,
				"z": -1.5760356911,
				"element": "C" 
			},
			{
				"x": 0.0994469538,
				"y": 2.6851004366,
				"z": -1.3700239913,
				"element": "C" 
			},
			{
				"x": 0.2540785062,
				"y": 3.212160641,
				"z": -0.0849777869,
				"element": "C" 
			},
			{
				"x": 0.5300634835,
				"y": 2.3714565684,
				"z": 0.9892462574,
				"element": "C" 
			},
			{
				"x": 0.2259413585,
				"y": -1.5958300562,
				"z": 1.0502943734,
				"element": "H" 
			},
			{
				"x": 2.0820506352,
				"y": 0.2855362925,
				"z": 4.9928417721,
				"element": "H" 
			},
			{
				"x": 1.6767187179,
				"y": -2.1705804417,
				"z": 4.9387143215,
				"element": "H" 
			},
			{
				"x": 0.6357642806,
				"y": -0.5958698249,
				"z": -0.6950240701,
				"element": "H" 
			},
			{
				"x": 0.1268912907,
				"y": 0.8957568248,
				"z": -2.5740956297,
				"element": "H" 
			},
			{
				"x": -0.1153795041,
				"y": 3.3425145757,
				"z": -2.2073238981,
				"element": "H" 
			},
			{
				"x": 0.1578792633,
				"y": 4.2811940186,
				"z": 0.0798128442,
				"element": "H" 
			},
			{
				"x": 0.6579357238,
				"y": 2.7633765402,
				"z": 1.9916657094,
				"element": "H" 
			}
		],
		 "valence_orbital": [ 
			{
				"type": "occ",
				"energy": -0.28146,
				"method": "rhf"
			},
			{
				"type": "occ",
				"energy": -0.27264,
				"method": "rhf"
			},
			{
				"type": "occ",
				"energy": -0.26934,
				"method": "rhf"
			},
			{
				"type": "occ",
				"energy": -0.25682,
				"method": "rhf"
			},
			{
				"type": "occ",
				"energy": -0.23314,
				"method": "rhf"
			},
			{
				"type": "unocc",
				"energy": -0.06705,
				"method": "rhf"
			},
			{
				"type": "unocc",
				"energy": -0.02178,
				"method": "rhf"
			},
			{
				"type": "unocc",
				"energy": -0.01364,
				"method": "rhf"
			},
			{
				"type": "unocc",
				"energy": 0.02684,
				"method": "rhf"
			},
			{
				"type": "unocc",
				"energy": 0.06743,
				"method": "rhf"
			}
		],
		"cosmo_sigma_profile": { 
			"-0.025": 0.0,
			"-0.024": 0.0,
			"-0.023": 0.0,
			"-0.022": 0.0,
			"-0.021": 0.0,
			"-0.02": 0.0,
			"-0.019": 0.0,
			"-0.018": 0.0,
			"-0.017": 0.0,
			"-0.016": 0.600248829935,
			"-0.015": 1.05051331745,
			"-0.014": 1.27891737476,
			"-0.013": 1.05192600638,
			"-0.012": 0.840964664809,
			"-0.011": 1.22621506201,
			"-0.01": 1.36648842909,
			"-0.009": 1.72244090529,
			"-0.008": 1.93268072838,
			"-0.007": 7.47215455328,
			"-0.006": 12.8253200046,
			"-0.005": 14.007748389,
			"-0.004": 14.7226628478,
			"-0.003": 13.2362299976,
			"-0.002": 14.8938040554,
			"-0.001": 13.0810996395,
			"0.0": 13.8858883005,
			"0.001": 15.3984686944,
			"0.002": 14.6566338136,
			"0.003": 14.560819628,
			"0.004": 14.3508667147,
			"0.005": 3.55165332529,
			"0.006": 2.76669449021,
			"0.007": 2.84604164315,
			"0.008": 2.58530839455,
			"0.009": 2.33435743661,
			"0.01": 1.55600772095,
			"0.011": 2.7925076274,
			"0.012": 2.96311328749,
			"0.013": 5.61234078713,
			"0.014": 4.18831537449,
			"0.015": 0.618823767341,
			"0.016": 0.0,
			"0.017": 0.0,
			"0.018": 0.0,
			"0.019": 0.0,
			"0.02": 0.0,
			"0.021": 0.0,
			"0.022": 0.0,
			"0.023": 0.0,
			"0.024": 0.0,
			"0.025": 0.0
		}
	}
}
