{
	 "smiles": "O=C(NC1CC2=CC=CC=C12)C1=CC=CC=C1", 
	 "Tm": 430.15, 
	 "num_atms": 30, 
	 "gaussian": { 
		 "optdone": 1, 
		 "sigma_profile": "yes", 
		 "theory": "DFT", 
		 "functional": "B3LYP", 
		 "basiset": "6-31G**", 
		 "properties": { 
			 "R2extent": 4370.5893, 
			 "electric_dipole_moment_norm": 3.59815267186, 
			 "electric_quadrupole_moment_norm": 11.0365145807, 
			 "total_energy": -709.375313426, 
			 "HOMO_LUMO_gap": 0.20603, 
			 "cosmo_polarized_energy": -12.2, 
			 "cosmo_cavitation_energy": 33.23, 
			 "cosmo_dispersion_energy": -23.15, 
			 "cosmo_repulsion_energy": 1.82, 
			 "cosmo_total_nonelectrostatic_energy": 11.9, 
			 "SMD_solvation_energy": 5.18 
		},
		"coords": [
			{
				"x": 2.410710949,
				"y": 2.5484854092,
				"z": 0.12955644,
				"element": "O" 
			},
			{
				"x": 1.8086746982,
				"y": 1.5036364935,
				"z": 0.3608779433,
				"element": "C" 
			},
			{
				"x": 0.9812848857,
				"y": 1.4306810397,
				"z": 1.4693190521,
				"element": "N" 
			},
			{
				"x": 0.6014518125,
				"y": 0.3064590083,
				"z": 2.3184799781,
				"element": "C" 
			},
			{
				"x": 1.5253518677,
				"y": -0.9779546762,
				"z": 2.4736405739,
				"element": "C" 
			},
			{
				"x": 0.2627579134,
				"y": -1.7867889504,
				"z": 2.2228392103,
				"element": "C" 
			},
			{
				"x": -0.2541420122,
				"y": -3.0745008558,
				"z": 2.1829222725,
				"element": "C" 
			},
			{
				"x": -1.6129331756,
				"y": -3.1828151984,
				"z": 1.8461172104,
				"element": "C" 
			},
			{
				"x": -2.4025268995,
				"y": -2.0532805934,
				"z": 1.5811992624,
				"element": "C" 
			},
			{
				"x": -1.8747854963,
				"y": -0.7540896849,
				"z": 1.6487345344,
				"element": "C" 
			},
			{
				"x": -0.5277128328,
				"y": -0.6656964331,
				"z": 1.9730129515,
				"element": "C" 
			},
			{
				"x": 1.940002286,
				"y": 0.3346161389,
				"z": -0.5703355756,
				"element": "C" 
			},
			{
				"x": 3.2011009825,
				"y": 0.1128719128,
				"z": -1.1456789252,
				"element": "C" 
			},
			{
				"x": 3.3832091961,
				"y": -0.9131890394,
				"z": -2.0689316255,
				"element": "C" 
			},
			{
				"x": 2.2992253752,
				"y": -1.708265325,
				"z": -2.4534548164,
				"element": "C" 
			},
			{
				"x": 1.0358498409,
				"y": -1.4706465604,
				"z": -1.9112301076,
				"element": "C" 
			},
			{
				"x": 0.8548064072,
				"y": -0.4559274703,
				"z": -0.9693703956,
				"element": "C" 
			},
			{
				"x": 1.0159294726,
				"y": 2.3212962561,
				"z": 1.9502812672,
				"element": "H" 
			},
			{
				"x": 0.4194549613,
				"y": 0.7480367762,
				"z": 3.3040782605,
				"element": "H" 
			},
			{
				"x": 2.010234573,
				"y": -1.0874666359,
				"z": 3.4498368205,
				"element": "H" 
			},
			{
				"x": 2.2815600981,
				"y": -1.0662206567,
				"z": 1.6896404462,
				"element": "H" 
			},
			{
				"x": 0.3421654138,
				"y": -3.9600183859,
				"z": 2.3843405241,
				"element": "H" 
			},
			{
				"x": -2.0696917121,
				"y": -4.1670402411,
				"z": 1.786790864,
				"element": "H" 
			},
			{
				"x": -3.4493716308,
				"y": -2.1920981679,
				"z": 1.3252070702,
				"element": "H" 
			},
			{
				"x": -2.4968696088,
				"y": 0.1150585482,
				"z": 1.4534689287,
				"element": "H" 
			},
			{
				"x": 4.0234555963,
				"y": 0.761028543,
				"z": -0.8613997712,
				"element": "H" 
			},
			{
				"x": 4.3658738452,
				"y": -1.0869986246,
				"z": -2.4978881106,
				"element": "H" 
			},
			{
				"x": 2.4385035531,
				"y": -2.503172408,
				"z": -3.1807889533,
				"element": "H" 
			},
			{
				"x": 0.1866568378,
				"y": -2.0722473307,
				"z": -2.221857579,
				"element": "H" 
			},
			{
				"x": -0.1315271978,
				"y": -0.269552888,
				"z": -0.5623077504,
				"element": "H" 
			}
		],
		 "valence_orbital": [ 
			{
				"type": "occ",
				"energy": -0.25603,
				"method": "rhf"
			},
			{
				"type": "occ",
				"energy": -0.25431,
				"method": "rhf"
			},
			{
				"type": "occ",
				"energy": -0.25026,
				"method": "rhf"
			},
			{
				"type": "occ",
				"energy": -0.24443,
				"method": "rhf"
			},
			{
				"type": "occ",
				"energy": -0.23548,
				"method": "rhf"
			},
			{
				"type": "unocc",
				"energy": -0.02945,
				"method": "rhf"
			},
			{
				"type": "unocc",
				"energy": -0.01687,
				"method": "rhf"
			},
			{
				"type": "unocc",
				"energy": -0.00221,
				"method": "rhf"
			},
			{
				"type": "unocc",
				"energy": 0.00013,
				"method": "rhf"
			},
			{
				"type": "unocc",
				"energy": 0.05112,
				"method": "rhf"
			}
		],
		"cosmo_sigma_profile": { 
			"-0.025": 0.0,
			"-0.024": 0.0,
			"-0.023": 0.0,
			"-0.022": 0.0,
			"-0.021": 0.0,
			"-0.02": 0.0,
			"-0.019": 0.0,
			"-0.018": 0.0,
			"-0.017": 0.0,
			"-0.016": 0.0,
			"-0.015": 0.0,
			"-0.014": 0.0567914578055,
			"-0.013": 1.15513595871,
			"-0.012": 1.33712973528,
			"-0.011": 0.994541830425,
			"-0.01": 1.32380734771,
			"-0.009": 1.01351489638,
			"-0.008": 1.02377552009,
			"-0.007": 2.42334192898,
			"-0.006": 13.4299278322,
			"-0.005": 19.398314631,
			"-0.004": 23.7878071384,
			"-0.003": 25.4345293446,
			"-0.002": 21.4655264141,
			"-0.001": 24.7606704689,
			"0.0": 18.9156138623,
			"0.001": 14.492452669,
			"0.002": 16.9172583565,
			"0.003": 16.9592590499,
			"0.004": 19.8305836702,
			"0.005": 16.810862488,
			"0.006": 5.58323016942,
			"0.007": 1.45992233954,
			"0.008": 1.53683489915,
			"0.009": 1.38334415253,
			"0.01": 1.5248934216,
			"0.011": 1.75824523949,
			"0.012": 1.78163493677,
			"0.013": 5.17485153494,
			"0.014": 3.48704103947,
			"0.015": 0.292162540612,
			"0.016": 0.0,
			"0.017": 0.0,
			"0.018": 0.0,
			"0.019": 0.0,
			"0.02": 0.0,
			"0.021": 0.0,
			"0.022": 0.0,
			"0.023": 0.0,
			"0.024": 0.0,
			"0.025": 0.0
		}
	}
}
