{
	 "smiles": "NC1=C(Cl)C(=O)N(N=C1)C1=CC=CC=C1", 
	 "Tm": 479.15, 
	 "num_atms": 23, 
	 "gaussian": { 
		 "optdone": 1, 
		 "sigma_profile": "yes", 
		 "theory": "DFT", 
		 "functional": "B3LYP", 
		 "basiset": "6-31G**", 
		 "properties": { 
			 "R2extent": 4397.5982, 
			 "electric_dipole_moment_norm": 4.85082613686, 
			 "electric_quadrupole_moment_norm": 26.1861757401, 
			 "total_energy": -1085.53255581, 
			 "HOMO_LUMO_gap": 0.16468, 
			 "cosmo_polarized_energy": -17.83, 
			 "cosmo_cavitation_energy": 29.22, 
			 "cosmo_dispersion_energy": -21.96, 
			 "cosmo_repulsion_energy": 1.71, 
			 "cosmo_total_nonelectrostatic_energy": 8.97, 
			 "SMD_solvation_energy": 4.91 
		},
		"coords": [
			{
				"x": 2.242319927,
				"y": -0.1554573665,
				"z": 4.4724511564,
				"element": "N" 
			},
			{
				"x": 1.5643587136,
				"y": -0.0421744238,
				"z": 3.2915149339,
				"element": "C" 
			},
			{
				"x": 0.978877576,
				"y": -1.0967531748,
				"z": 2.629248124,
				"element": "C" 
			},
			{
				"x": 1.1374575429,
				"y": -2.718969423,
				"z": 3.2439266972,
				"element": "Cl" 
			},
			{
				"x": 0.2266005492,
				"y": -0.9355857006,
				"z": 1.4008241338,
				"element": "C" 
			},
			{
				"x": -0.294557488,
				"y": -1.8425251534,
				"z": 0.7676706026,
				"element": "O" 
			},
			{
				"x": 0.1446570704,
				"y": 0.427548567,
				"z": 0.9675708153,
				"element": "N" 
			},
			{
				"x": 0.7243357378,
				"y": 1.4646012673,
				"z": 1.5951339061,
				"element": "N" 
			},
			{
				"x": 1.392149399,
				"y": 1.2515218714,
				"z": 2.6887134282,
				"element": "C" 
			},
			{
				"x": -0.5241530667,
				"y": 0.7722379072,
				"z": -0.261917296,
				"element": "C" 
			},
			{
				"x": 0.0412570169,
				"y": 1.7595868254,
				"z": -1.0753593316,
				"element": "C" 
			},
			{
				"x": -0.6024134835,
				"y": 2.1392154622,
				"z": -2.2514030338,
				"element": "C" 
			},
			{
				"x": -1.8038989055,
				"y": 1.5338261534,
				"z": -2.6236595033,
				"element": "C" 
			},
			{
				"x": -2.3599743465,
				"y": 0.5480771783,
				"z": -1.8071113471,
				"element": "C" 
			},
			{
				"x": -1.7292573132,
				"y": 0.1617168285,
				"z": -0.6246907689,
				"element": "C" 
			},
			{
				"x": 2.8560716582,
				"y": 0.595217281,
				"z": 4.7471485834,
				"element": "H" 
			},
			{
				"x": 2.5073292994,
				"y": -1.0817641254,
				"z": 4.7730631828,
				"element": "H" 
			},
			{
				"x": 1.8235106727,
				"y": 2.1329777046,
				"z": 3.1563591266,
				"element": "H" 
			},
			{
				"x": 0.9714656049,
				"y": 2.2269946259,
				"z": -0.7749855004,
				"element": "H" 
			},
			{
				"x": -0.1584244263,
				"y": 2.9062622982,
				"z": -2.8791246272,
				"element": "H" 
			},
			{
				"x": -2.3017246059,
				"y": 1.8268687317,
				"z": -3.5432477978,
				"element": "H" 
			},
			{
				"x": -3.2955170667,
				"y": 0.0727892294,
				"z": -2.0867353762,
				"element": "H" 
			},
			{
				"x": -2.1562700657,
				"y": -0.6099125642,
				"z": 0.0002098921,
				"element": "H" 
			}
		],
		 "valence_orbital": [ 
			{
				"type": "occ",
				"energy": -0.28118,
				"method": "rhf"
			},
			{
				"type": "occ",
				"energy": -0.25611,
				"method": "rhf"
			},
			{
				"type": "occ",
				"energy": -0.24725,
				"method": "rhf"
			},
			{
				"type": "occ",
				"energy": -0.23508,
				"method": "rhf"
			},
			{
				"type": "occ",
				"energy": -0.2231,
				"method": "rhf"
			},
			{
				"type": "unocc",
				"energy": -0.05842,
				"method": "rhf"
			},
			{
				"type": "unocc",
				"energy": -0.0051,
				"method": "rhf"
			},
			{
				"type": "unocc",
				"energy": 0.00074,
				"method": "rhf"
			},
			{
				"type": "unocc",
				"energy": 0.01143,
				"method": "rhf"
			},
			{
				"type": "unocc",
				"energy": 0.03025,
				"method": "rhf"
			}
		],
		"cosmo_sigma_profile": { 
			"-0.025": 0.0,
			"-0.024": 0.0,
			"-0.023": 0.0,
			"-0.022": 0.0,
			"-0.021": 0.0,
			"-0.02": 0.0,
			"-0.019": 0.0,
			"-0.018": 0.0,
			"-0.017": 0.0,
			"-0.016": 0.186968906076,
			"-0.015": 1.60732793421,
			"-0.014": 2.35866437698,
			"-0.013": 2.6839799306,
			"-0.012": 2.51126935468,
			"-0.011": 3.0815018342,
			"-0.01": 2.77870206867,
			"-0.009": 3.24455741732,
			"-0.008": 2.45837451989,
			"-0.007": 2.74726647471,
			"-0.006": 9.77990107035,
			"-0.005": 11.9950154721,
			"-0.004": 15.0541673553,
			"-0.003": 15.2861960738,
			"-0.002": 17.715427189,
			"-0.001": 17.7338383072,
			"0.0": 16.467775378,
			"0.001": 15.5709004841,
			"0.002": 15.2697218775,
			"0.003": 13.9617612161,
			"0.004": 18.498407393,
			"0.005": 15.8446296071,
			"0.006": 5.39209124684,
			"0.007": 3.30160671222,
			"0.008": 3.93555959567,
			"0.009": 2.9598858761,
			"0.01": 2.70031423328,
			"0.011": 2.44776490131,
			"0.012": 2.64287453741,
			"0.013": 4.43133722231,
			"0.014": 2.28526419777,
			"0.015": 0.134290207073,
			"0.016": 0.0,
			"0.017": 0.0,
			"0.018": 0.0,
			"0.019": 0.0,
			"0.02": 0.0,
			"0.021": 0.0,
			"0.022": 0.0,
			"0.023": 0.0,
			"0.024": 0.0,
			"0.025": 0.0
		}
	}
}
