{
	 "smiles": "OC(=O)C(CC1=CC(F)=CC=C1)NC(=O)OCC1C2=C(C=CC=C2)C2=C1C=CC=C2", 
	 "Tm": 429.15, 
	 "num_atms": 50, 
	 "gaussian": { 
		 "optdone": 1, 
		 "sigma_profile": "yes", 
		 "theory": "DFT", 
		 "functional": "B3LYP", 
		 "basiset": "6-31G**", 
		 "properties": { 
			 "R2extent": 11626.65, 
			 "electric_dipole_moment_norm": 1.78820242982, 
			 "electric_quadrupole_moment_norm": 18.5353195451, 
			 "total_energy": -1382.13909526, 
			 "HOMO_LUMO_gap": 0.18405, 
			 "cosmo_polarized_energy": -22.33, 
			 "cosmo_cavitation_energy": 54.89, 
			 "cosmo_dispersion_energy": -33.44, 
			 "cosmo_repulsion_energy": 2.51, 
			 "cosmo_total_nonelectrostatic_energy": 23.96, 
			 "SMD_solvation_energy": 10.38 
		},
		"coords": [
			{
				"x": -0.8381501189,
				"y": 2.6453000894,
				"z": 2.9000222045,
				"element": "O" 
			},
			{
				"x": -1.2041749739,
				"y": 2.9739471371,
				"z": 1.6429432591,
				"element": "C" 
			},
			{
				"x": -1.2039200382,
				"y": 4.1114782394,
				"z": 1.2336016565,
				"element": "O" 
			},
			{
				"x": -1.6720866609,
				"y": 1.750727495,
				"z": 0.8360559449,
				"element": "C" 
			},
			{
				"x": -0.8963582528,
				"y": 0.4355699846,
				"z": 1.135343361,
				"element": "C" 
			},
			{
				"x": -1.3285869313,
				"y": -0.2937995184,
				"z": 2.3918797035,
				"element": "C" 
			},
			{
				"x": -0.4289123677,
				"y": -0.4849780753,
				"z": 3.4461846187,
				"element": "C" 
			},
			{
				"x": -0.8376610298,
				"y": -1.1849015631,
				"z": 4.5749961113,
				"element": "C" 
			},
			{
				"x": 0.0449923388,
				"y": -1.3600903924,
				"z": 5.5837435159,
				"element": "F" 
			},
			{
				"x": -2.1176582141,
				"y": -1.7094402054,
				"z": 4.7048775332,
				"element": "C" 
			},
			{
				"x": -3.0119711401,
				"y": -1.5223927921,
				"z": 3.6493957137,
				"element": "C" 
			},
			{
				"x": -2.6218462308,
				"y": -0.8268431546,
				"z": 2.5047341713,
				"element": "C" 
			},
			{
				"x": -1.7234236354,
				"y": 2.0651135704,
				"z": -0.5841855919,
				"element": "N" 
			},
			{
				"x": -0.6653973819,
				"y": 2.5090200351,
				"z": -1.3369613093,
				"element": "C" 
			},
			{
				"x": -0.7727472308,
				"y": 2.9553636096,
				"z": -2.4628089914,
				"element": "O" 
			},
			{
				"x": 0.5061144879,
				"y": 2.3475239356,
				"z": -0.6641200994,
				"element": "O" 
			},
			{
				"x": 1.7092078823,
				"y": 2.7262400407,
				"z": -1.3510522277,
				"element": "C" 
			},
			{
				"x": 2.6470350709,
				"y": 1.5209648776,
				"z": -1.4869329197,
				"element": "C" 
			},
			{
				"x": 3.0758900919,
				"y": 0.8941171692,
				"z": -0.1676058398,
				"element": "C" 
			},
			{
				"x": 2.7833731507,
				"y": -0.4853277566,
				"z": -0.1649281578,
				"element": "C" 
			},
			{
				"x": 3.0942969352,
				"y": -1.2720802413,
				"z": 0.946502963,
				"element": "C" 
			},
			{
				"x": 3.6958877409,
				"y": -0.6684634632,
				"z": 2.054067259,
				"element": "C" 
			},
			{
				"x": 3.9862895279,
				"y": 0.7005073205,
				"z": 2.050281764,
				"element": "C" 
			},
			{
				"x": 3.678551339,
				"y": 1.4893060033,
				"z": 0.9347999555,
				"element": "C" 
			},
			{
				"x": 2.1498113148,
				"y": -0.8326159212,
				"z": -1.4448080613,
				"element": "C" 
			},
			{
				"x": 2.0482657558,
				"y": 0.3345410591,
				"z": -2.2291717731,
				"element": "C" 
			},
			{
				"x": 1.463802689,
				"y": 0.2900587423,
				"z": -3.4899131934,
				"element": "C" 
			},
			{
				"x": 0.9872224545,
				"y": -0.935018389,
				"z": -3.9716223361,
				"element": "C" 
			},
			{
				"x": 1.0966724434,
				"y": -2.0959682367,
				"z": -3.1986664179,
				"element": "C" 
			},
			{
				"x": 1.6768934816,
				"y": -2.0543247586,
				"z": -1.9286790013,
				"element": "C" 
			},
			{
				"x": -0.5986462117,
				"y": 3.4789931599,
				"z": 3.3393660806,
				"element": "H" 
			},
			{
				"x": -2.7131953377,
				"y": 1.5910083498,
				"z": 1.1419796827,
				"element": "H" 
			},
			{
				"x": 0.1741998671,
				"y": 0.6398854162,
				"z": 1.16342638,
				"element": "H" 
			},
			{
				"x": -1.0692047329,
				"y": -0.2116608515,
				"z": 0.2689118047,
				"element": "H" 
			},
			{
				"x": 0.5821469504,
				"y": -0.095071584,
				"z": 3.3970702572,
				"element": "H" 
			},
			{
				"x": -2.391986451,
				"y": -2.2483568622,
				"z": 5.605063623,
				"element": "H" 
			},
			{
				"x": -4.0162548961,
				"y": -1.9298631273,
				"z": 3.7200060003,
				"element": "H" 
			},
			{
				"x": -3.3271738204,
				"y": -0.7091604033,
				"z": 1.6855115572,
				"element": "H" 
			},
			{
				"x": -2.6088703541,
				"y": 2.3590745271,
				"z": -0.9677811848,
				"element": "H" 
			},
			{
				"x": 1.4431114863,
				"y": 3.1338026242,
				"z": -2.3280148792,
				"element": "H" 
			},
			{
				"x": 2.1812022613,
				"y": 3.5131983296,
				"z": -0.7542263595,
				"element": "H" 
			},
			{
				"x": 3.5334954239,
				"y": 1.8908126277,
				"z": -2.0259381921,
				"element": "H" 
			},
			{
				"x": 2.8721734859,
				"y": -2.3355296728,
				"z": 0.956096382,
				"element": "H" 
			},
			{
				"x": 3.9429573382,
				"y": -1.2680998972,
				"z": 2.9254768115,
				"element": "H" 
			},
			{
				"x": 4.4564293176,
				"y": 1.1539316857,
				"z": 2.9181087887,
				"element": "H" 
			},
			{
				"x": 3.9099507783,
				"y": 2.5516818559,
				"z": 0.9395845035,
				"element": "H" 
			},
			{
				"x": 1.3595911487,
				"y": 1.1894917448,
				"z": -4.0899678289,
				"element": "H" 
			},
			{
				"x": 0.5255556976,
				"y": -0.9830623747,
				"z": -4.9534919319,
				"element": "H" 
			},
			{
				"x": 0.7231937707,
				"y": -3.0385832041,
				"z": -3.5887219741,
				"element": "H" 
			},
			{
				"x": 1.7548117799,
				"y": -2.9584271848,
				"z": -1.3310333364,
				"element": "H" 
			}
		],
		 "valence_orbital": [ 
			{
				"type": "occ",
				"energy": -0.25249,
				"method": "rhf"
			},
			{
				"type": "occ",
				"energy": -0.24965,
				"method": "rhf"
			},
			{
				"type": "occ",
				"energy": -0.24508,
				"method": "rhf"
			},
			{
				"type": "occ",
				"energy": -0.23967,
				"method": "rhf"
			},
			{
				"type": "occ",
				"energy": -0.21673,
				"method": "rhf"
			},
			{
				"type": "unocc",
				"energy": -0.03268,
				"method": "rhf"
			},
			{
				"type": "unocc",
				"energy": -0.01471,
				"method": "rhf"
			},
			{
				"type": "unocc",
				"energy": -0.01035,
				"method": "rhf"
			},
			{
				"type": "unocc",
				"energy": -0.00261,
				"method": "rhf"
			},
			{
				"type": "unocc",
				"energy": 0.00683,
				"method": "rhf"
			}
		],
		"cosmo_sigma_profile": { 
			"-0.025": 0.0,
			"-0.024": 0.0,
			"-0.023": 0.0,
			"-0.022": 0.0,
			"-0.021": 0.0,
			"-0.02": 0.0,
			"-0.019": 0.109437731239,
			"-0.018": 0.909987001819,
			"-0.017": 1.00241989529,
			"-0.016": 0.712922186138,
			"-0.015": 1.65611061873,
			"-0.014": 1.83116407364,
			"-0.013": 2.38568889498,
			"-0.012": 1.83965860013,
			"-0.011": 1.46462249505,
			"-0.01": 2.62014043456,
			"-0.009": 2.61243580974,
			"-0.008": 3.72834763194,
			"-0.007": 7.06127337279,
			"-0.006": 27.5058980115,
			"-0.005": 32.7103638324,
			"-0.004": 32.8052305113,
			"-0.003": 27.6782823328,
			"-0.002": 23.7829136383,
			"-0.001": 22.2029541567,
			"0.0": 26.1497101468,
			"0.001": 32.4259222428,
			"0.002": 37.6494942483,
			"0.003": 36.0668480637,
			"0.004": 36.1257681866,
			"0.005": 30.3158586774,
			"0.006": 12.2137095968,
			"0.007": 5.03125728977,
			"0.008": 4.18002050702,
			"0.009": 2.90773395252,
			"0.01": 4.17075768189,
			"0.011": 5.94347491433,
			"0.012": 5.17681459944,
			"0.013": 3.95092939756,
			"0.014": 0.318792940006,
			"0.015": 0.0,
			"0.016": 0.0,
			"0.017": 0.0,
			"0.018": 0.0,
			"0.019": 0.0,
			"0.02": 0.0,
			"0.021": 0.0,
			"0.022": 0.0,
			"0.023": 0.0,
			"0.024": 0.0,
			"0.025": 0.0
		}
	}
}
