{
	 "smiles": "OC(=O)C1=CC(OC2=CC=CC=C2)=CC=C1", 
	 "Tm": 422.15, 
	 "num_atms": 26, 
	 "gaussian": { 
		 "optdone": 1, 
		 "sigma_profile": "yes", 
		 "theory": "DFT", 
		 "functional": "B3LYP", 
		 "basiset": "6-31G**", 
		 "properties": { 
			 "R2extent": 4873.7031, 
			 "electric_dipole_moment_norm": 2.76741383064, 
			 "electric_quadrupole_moment_norm": 13.4287624769, 
			 "total_energy": -727.090999774, 
			 "HOMO_LUMO_gap": 0.1751, 
			 "cosmo_polarized_energy": -11.03, 
			 "cosmo_cavitation_energy": 31.28, 
			 "cosmo_dispersion_energy": -22.7, 
			 "cosmo_repulsion_energy": 1.76, 
			 "cosmo_total_nonelectrostatic_energy": 10.35, 
			 "SMD_solvation_energy": 6.79 
		},
		"coords": [
			{
				"x": 1.6648357795,
				"y": -4.9526489442,
				"z": -0.69533639,
				"element": "O" 
			},
			{
				"x": 1.9039095846,
				"y": -3.8063881064,
				"z": -0.0096464756,
				"element": "C" 
			},
			{
				"x": 2.9056076927,
				"y": -3.6541824774,
				"z": 0.6609493827,
				"element": "O" 
			},
			{
				"x": 0.8258461154,
				"y": -2.7935135968,
				"z": -0.1744525717,
				"element": "C" 
			},
			{
				"x": 0.9808816688,
				"y": -1.5733276782,
				"z": 0.4918647802,
				"element": "C" 
			},
			{
				"x": -0.0006459404,
				"y": -0.5914597314,
				"z": 0.3710004766,
				"element": "C" 
			},
			{
				"x": 0.1817043158,
				"y": 0.5544237588,
				"z": 1.1136832989,
				"element": "O" 
			},
			{
				"x": -0.2905453989,
				"y": 1.7748218026,
				"z": 0.6625546317,
				"element": "C" 
			},
			{
				"x": -0.1013387532,
				"y": 2.2073351109,
				"z": -0.6533637726,
				"element": "C" 
			},
			{
				"x": -0.5350795427,
				"y": 3.4821121101,
				"z": -1.0190635941,
				"element": "C" 
			},
			{
				"x": -1.1415109153,
				"y": 4.322982657,
				"z": -0.0830818033,
				"element": "C" 
			},
			{
				"x": -1.3142494432,
				"y": 3.8814313499,
				"z": 1.2304752571,
				"element": "C" 
			},
			{
				"x": -0.893879431,
				"y": 2.6058892969,
				"z": 1.6077497813,
				"element": "C" 
			},
			{
				"x": -1.1393039335,
				"y": -0.8209058184,
				"z": -0.410982047,
				"element": "C" 
			},
			{
				"x": -1.2792989797,
				"y": -2.0389523488,
				"z": -1.0777832877,
				"element": "C" 
			},
			{
				"x": -0.3058868455,
				"y": -3.0303362285,
				"z": -0.9671421971,
				"element": "C" 
			},
			{
				"x": 2.4244475432,
				"y": -5.5298268094,
				"z": -0.513628025,
				"element": "H" 
			},
			{
				"x": 1.8588595271,
				"y": -1.3963480213,
				"z": 1.1021111588,
				"element": "H" 
			},
			{
				"x": 0.3827350055,
				"y": 1.5566622535,
				"z": -1.3739173701,
				"element": "H" 
			},
			{
				"x": -0.3879433071,
				"y": 3.8207909607,
				"z": -2.0406269995,
				"element": "H" 
			},
			{
				"x": -1.4731218923,
				"y": 5.3148073059,
				"z": -0.3744188545,
				"element": "H" 
			},
			{
				"x": -1.7821432463,
				"y": 4.5288054277,
				"z": 1.9664662644,
				"element": "H" 
			},
			{
				"x": -1.0184307622,
				"y": 2.2425081094,
				"z": 2.6224259228,
				"element": "H" 
			},
			{
				"x": -1.9036882952,
				"y": -0.0560024416,
				"z": -0.4919833868,
				"element": "H" 
			},
			{
				"x": -2.1637812322,
				"y": -2.2144337208,
				"z": -1.6828898994,
				"element": "H" 
			},
			{
				"x": -0.4157793141,
				"y": -3.9766442203,
				"z": -1.4827642802,
				"element": "H" 
			}
		],
		 "valence_orbital": [ 
			{
				"type": "occ",
				"energy": -0.27722,
				"method": "rhf"
			},
			{
				"type": "occ",
				"energy": -0.26614,
				"method": "rhf"
			},
			{
				"type": "occ",
				"energy": -0.2582,
				"method": "rhf"
			},
			{
				"type": "occ",
				"energy": -0.25554,
				"method": "rhf"
			},
			{
				"type": "occ",
				"energy": -0.22534,
				"method": "rhf"
			},
			{
				"type": "unocc",
				"energy": -0.05024,
				"method": "rhf"
			},
			{
				"type": "unocc",
				"energy": -0.01209,
				"method": "rhf"
			},
			{
				"type": "unocc",
				"energy": -0.00737,
				"method": "rhf"
			},
			{
				"type": "unocc",
				"energy": 0.00452,
				"method": "rhf"
			},
			{
				"type": "unocc",
				"energy": 0.05829,
				"method": "rhf"
			}
		],
		"cosmo_sigma_profile": { 
			"-0.025": 0.0,
			"-0.024": 0.0,
			"-0.023": 0.0,
			"-0.022": 0.0,
			"-0.021": 0.0,
			"-0.02": 0.0,
			"-0.019": 0.0,
			"-0.018": 0.910523916055,
			"-0.017": 0.789678341492,
			"-0.016": 0.888907306422,
			"-0.015": 1.1309624355,
			"-0.014": 0.595720452533,
			"-0.013": 0.27721410764,
			"-0.012": 0.508210850007,
			"-0.011": 1.17582794424,
			"-0.01": 0.556984934124,
			"-0.009": 0.397931293049,
			"-0.008": 0.613132274746,
			"-0.007": 4.67379823751,
			"-0.006": 15.309266057,
			"-0.005": 16.4266273205,
			"-0.004": 18.0763589228,
			"-0.003": 16.8254636156,
			"-0.002": 16.2985108952,
			"-0.001": 16.3226866516,
			"0.0": 17.1510313588,
			"0.001": 22.1049468751,
			"0.002": 23.2198467234,
			"0.003": 22.5761903294,
			"0.004": 16.1034489543,
			"0.005": 12.7733840587,
			"0.006": 5.68568097361,
			"0.007": 5.04024724666,
			"0.008": 2.9409983372,
			"0.009": 2.06827522962,
			"0.01": 2.24291539756,
			"0.011": 3.77121601738,
			"0.012": 3.61296333985,
			"0.013": 0.0443928952508,
			"0.014": 0.0,
			"0.015": 0.0,
			"0.016": 0.0,
			"0.017": 0.0,
			"0.018": 0.0,
			"0.019": 0.0,
			"0.02": 0.0,
			"0.021": 0.0,
			"0.022": 0.0,
			"0.023": 0.0,
			"0.024": 0.0,
			"0.025": 0.0
		}
	}
}
