{
	 "smiles": "CCCCC1=NN=C(N)O1", 
	 "Tm": 413.15, 
	 "num_atms": 21, 
	 "gaussian": { 
		 "optdone": 1, 
		 "sigma_profile": "yes", 
		 "theory": "DFT", 
		 "functional": "B3LYP", 
		 "basiset": "6-31G**", 
		 "properties": { 
			 "R2extent": 1700.0841, 
			 "electric_dipole_moment_norm": 3.97794194653, 
			 "electric_quadrupole_moment_norm": 12.5068178859, 
			 "total_energy": -474.730116003, 
			 "HOMO_LUMO_gap": 0.24037, 
			 "cosmo_polarized_energy": -14.98, 
			 "cosmo_cavitation_energy": 24.3, 
			 "cosmo_dispersion_energy": -17.51, 
			 "cosmo_repulsion_energy": 1.46, 
			 "cosmo_total_nonelectrostatic_energy": 8.25, 
			 "SMD_solvation_energy": 2.31 
		},
		"coords": [
			{
				"x": -1.4704193889,
				"y": 1.5578440308,
				"z": -0.0289615363,
				"element": "C" 
			},
			{
				"x": -2.432657046,
				"y": 0.5372167986,
				"z": 0.592437985,
				"element": "C" 
			},
			{
				"x": -2.0487675268,
				"y": -0.940194911,
				"z": 0.4029629075,
				"element": "C" 
			},
			{
				"x": -0.8139178462,
				"y": -1.426856596,
				"z": 1.1952208361,
				"element": "C" 
			},
			{
				"x": 0.5027876576,
				"y": -0.9363273393,
				"z": 0.7032410817,
				"element": "C" 
			},
			{
				"x": 1.4195867586,
				"y": -0.2758287607,
				"z": 1.3257562597,
				"element": "N" 
			},
			{
				"x": 2.4683949283,
				"y": -0.058145611,
				"z": 0.4141040174,
				"element": "N" 
			},
			{
				"x": 2.0872850906,
				"y": -0.6293388411,
				"z": -0.6874490031,
				"element": "C" 
			},
			{
				"x": 2.7796376272,
				"y": -0.7723654683,
				"z": -1.8614971675,
				"element": "N" 
			},
			{
				"x": 0.8607200651,
				"y": -1.209597144,
				"z": -0.6051576004,
				"element": "O" 
			},
			{
				"x": -0.4933292581,
				"y": 1.5523188448,
				"z": 0.4609854584,
				"element": "H" 
			},
			{
				"x": -1.8756649046,
				"y": 2.5714469465,
				"z": 0.0575807458,
				"element": "H" 
			},
			{
				"x": -1.3161975517,
				"y": 1.3546370213,
				"z": -1.0954602119,
				"element": "H" 
			},
			{
				"x": -3.4294814045,
				"y": 0.680130802,
				"z": 0.1557444157,
				"element": "H" 
			},
			{
				"x": -2.5421402329,
				"y": 0.7436368278,
				"z": 1.6657665141,
				"element": "H" 
			},
			{
				"x": -1.897223076,
				"y": -1.1516142745,
				"z": -0.6633627975,
				"element": "H" 
			},
			{
				"x": -2.8951584998,
				"y": -1.5616312617,
				"z": 0.7191751526,
				"element": "H" 
			},
			{
				"x": -0.8860109384,
				"y": -1.1264625257,
				"z": 2.2450413462,
				"element": "H" 
			},
			{
				"x": -0.798712686,
				"y": -2.524668574,
				"z": 1.1764439985,
				"element": "H" 
			},
			{
				"x": 3.5824816648,
				"y": -0.1607193157,
				"z": -1.9182431875,
				"element": "H" 
			},
			{
				"x": 2.2123865677,
				"y": -0.7808806488,
				"z": -2.6982292146,
				"element": "H" 
			}
		],
		 "valence_orbital": [ 
			{
				"type": "occ",
				"energy": -0.32915,
				"method": "rhf"
			},
			{
				"type": "occ",
				"energy": -0.31989,
				"method": "rhf"
			},
			{
				"type": "occ",
				"energy": -0.30447,
				"method": "rhf"
			},
			{
				"type": "occ",
				"energy": -0.26541,
				"method": "rhf"
			},
			{
				"type": "occ",
				"energy": -0.22798,
				"method": "rhf"
			},
			{
				"type": "unocc",
				"energy": 0.01239,
				"method": "rhf"
			},
			{
				"type": "unocc",
				"energy": 0.05331,
				"method": "rhf"
			},
			{
				"type": "unocc",
				"energy": 0.07082,
				"method": "rhf"
			},
			{
				"type": "unocc",
				"energy": 0.08885,
				"method": "rhf"
			},
			{
				"type": "unocc",
				"energy": 0.11533,
				"method": "rhf"
			}
		],
		"cosmo_sigma_profile": { 
			"-0.025": 0.0,
			"-0.024": 0.0,
			"-0.023": 0.0,
			"-0.022": 0.0,
			"-0.021": 0.0,
			"-0.02": 0.0,
			"-0.019": 0.0,
			"-0.018": 0.0,
			"-0.017": 0.0,
			"-0.016": 0.0106693470712,
			"-0.015": 1.29748436098,
			"-0.014": 2.98057739909,
			"-0.013": 2.17626244829,
			"-0.012": 2.965902372,
			"-0.011": 2.17445357969,
			"-0.01": 2.1225125888,
			"-0.009": 1.32402409042,
			"-0.008": 2.52953904439,
			"-0.007": 1.50338835512,
			"-0.006": 3.28922254977,
			"-0.005": 5.495704032,
			"-0.004": 8.22142955966,
			"-0.003": 17.3038274879,
			"-0.002": 24.6326651261,
			"-0.001": 22.5699941417,
			"0.0": 21.9041540973,
			"0.001": 17.1435965535,
			"0.002": 8.23606077629,
			"0.003": 4.83606220693,
			"0.004": 4.03651238618,
			"0.005": 3.3584347966,
			"0.006": 3.26581001262,
			"0.007": 2.44030827701,
			"0.008": 1.89739500193,
			"0.009": 2.12038061209,
			"0.01": 3.3400286223,
			"0.011": 2.52001908714,
			"0.012": 2.86092979988,
			"0.013": 3.65265077086,
			"0.014": 2.98454171008,
			"0.015": 2.40265245204,
			"0.016": 2.23586672112,
			"0.017": 0.333591458112,
			"0.018": 0.0,
			"0.019": 0.0,
			"0.02": 0.0,
			"0.021": 0.0,
			"0.022": 0.0,
			"0.023": 0.0,
			"0.024": 0.0,
			"0.025": 0.0
		}
	}
}
