{
	 "smiles": "ClC1=NN=C(C=C1)N1CCOCC1", 
	 "Tm": 405.15, 
	 "num_atms": 23, 
	 "gaussian": { 
		 "optdone": 1, 
		 "sigma_profile": "yes", 
		 "theory": "DFT", 
		 "functional": "B3LYP", 
		 "basiset": "6-31G**", 
		 "properties": { 
			 "R2extent": 4594.0866, 
			 "electric_dipole_moment_norm": 4.65705815081, 
			 "electric_quadrupole_moment_norm": 17.1208056934, 
			 "total_energy": -1010.49036785, 
			 "HOMO_LUMO_gap": 0.16602, 
			 "cosmo_polarized_energy": -14.01, 
			 "cosmo_cavitation_energy": 27.4, 
			 "cosmo_dispersion_energy": -21.12, 
			 "cosmo_repulsion_energy": 1.67, 
			 "cosmo_total_nonelectrostatic_energy": 7.95, 
			 "SMD_solvation_energy": 1.82 
		},
		"coords": [
			{
				"x": 3.6960079726,
				"y": 3.1179834505,
				"z": 2.9292321949,
				"element": "Cl" 
			},
			{
				"x": 2.5174865819,
				"y": 2.35029686,
				"z": 1.8798989286,
				"element": "C" 
			},
			{
				"x": 2.176126674,
				"y": 3.0069063972,
				"z": 0.7896643942,
				"element": "N" 
			},
			{
				"x": 1.287215237,
				"y": 2.4786634943,
				"z": -0.0483466597,
				"element": "N" 
			},
			{
				"x": 0.7406204407,
				"y": 1.2693312147,
				"z": 0.1937076431,
				"element": "C" 
			},
			{
				"x": 1.0660414114,
				"y": 0.5465130941,
				"z": 1.3725281589,
				"element": "C" 
			},
			{
				"x": 1.9819477317,
				"y": 1.1027731212,
				"z": 2.2340439639,
				"element": "C" 
			},
			{
				"x": -0.1173885192,
				"y": 0.785417698,
				"z": -0.774744448,
				"element": "N" 
			},
			{
				"x": -0.9942249282,
				"y": -0.3557028008,
				"z": -0.5187862894,
				"element": "C" 
			},
			{
				"x": -1.3806832435,
				"y": -1.0260275612,
				"z": -1.8399362586,
				"element": "C" 
			},
			{
				"x": -1.9510033735,
				"y": -0.1056545986,
				"z": -2.7514791218,
				"element": "O" 
			},
			{
				"x": -1.0233873937,
				"y": 0.9314800513,
				"z": -3.0497403802,
				"element": "C" 
			},
			{
				"x": -0.6305210978,
				"y": 1.7078440128,
				"z": -1.798340954,
				"element": "C" 
			},
			{
				"x": 0.6141246349,
				"y": -0.4087779284,
				"z": 1.6072477586,
				"element": "H" 
			},
			{
				"x": 2.2771242572,
				"y": 0.6086485807,
				"z": 3.1526258951,
				"element": "H" 
			},
			{
				"x": -1.9053200961,
				"y": -0.0381151015,
				"z": 0.0144395984,
				"element": "H" 
			},
			{
				"x": -0.4822277592,
				"y": -1.0977948582,
				"z": 0.0973928619,
				"element": "H" 
			},
			{
				"x": -0.4867817795,
				"y": -1.4974213311,
				"z": -2.2812597367,
				"element": "H" 
			},
			{
				"x": -2.1301878341,
				"y": -1.8016171715,
				"z": -1.6574528074,
				"element": "H" 
			},
			{
				"x": -0.1236355967,
				"y": 0.5076044183,
				"z": -3.5245189204,
				"element": "H" 
			},
			{
				"x": -1.5150736807,
				"y": 1.5966081703,
				"z": -3.7648047709,
				"element": "H" 
			},
			{
				"x": -1.5080097426,
				"y": 2.2482709995,
				"z": -1.4096244353,
				"element": "H" 
			},
			{
				"x": 0.1418501034,
				"y": 2.4423697883,
				"z": -2.0222466153,
				"element": "H" 
			}
		],
		 "valence_orbital": [ 
			{
				"type": "occ",
				"energy": -0.3137,
				"method": "rhf"
			},
			{
				"type": "occ",
				"energy": -0.29892,
				"method": "rhf"
			},
			{
				"type": "occ",
				"energy": -0.26876,
				"method": "rhf"
			},
			{
				"type": "occ",
				"energy": -0.23708,
				"method": "rhf"
			},
			{
				"type": "occ",
				"energy": -0.22118,
				"method": "rhf"
			},
			{
				"type": "unocc",
				"energy": -0.05516,
				"method": "rhf"
			},
			{
				"type": "unocc",
				"energy": -0.01622,
				"method": "rhf"
			},
			{
				"type": "unocc",
				"energy": 0.03164,
				"method": "rhf"
			},
			{
				"type": "unocc",
				"energy": 0.07746,
				"method": "rhf"
			},
			{
				"type": "unocc",
				"energy": 0.09679,
				"method": "rhf"
			}
		],
		"cosmo_sigma_profile": { 
			"-0.025": 0.0,
			"-0.024": 0.0,
			"-0.023": 0.0,
			"-0.022": 0.0,
			"-0.021": 0.0,
			"-0.02": 0.0,
			"-0.019": 0.0,
			"-0.018": 0.0,
			"-0.017": 0.0,
			"-0.016": 0.0,
			"-0.015": 0.0,
			"-0.014": 0.0,
			"-0.013": 0.0,
			"-0.012": 0.0,
			"-0.011": 0.0949159045176,
			"-0.01": 1.42808640792,
			"-0.009": 4.08382705406,
			"-0.008": 4.46882005355,
			"-0.007": 5.472599434,
			"-0.006": 7.24136855747,
			"-0.005": 14.4358421735,
			"-0.004": 28.7647460626,
			"-0.003": 20.8088032633,
			"-0.002": 17.4225907819,
			"-0.001": 17.9384144298,
			"0.0": 14.6933947398,
			"0.001": 10.0791959798,
			"0.002": 8.59203831815,
			"0.003": 11.4213626986,
			"0.004": 12.45267926,
			"0.005": 8.28512180579,
			"0.006": 4.70269549546,
			"0.007": 3.38406918856,
			"0.008": 3.35330778653,
			"0.009": 3.64270992159,
			"0.01": 2.62306596018,
			"0.011": 3.5380582107,
			"0.012": 4.25753534925,
			"0.013": 4.41006610029,
			"0.014": 1.33294014028,
			"0.015": 0.903436884182,
			"0.016": 0.00473471029554,
			"0.017": 0.0,
			"0.018": 0.0,
			"0.019": 0.0,
			"0.02": 0.0,
			"0.021": 0.0,
			"0.022": 0.0,
			"0.023": 0.0,
			"0.024": 0.0,
			"0.025": 0.0
		}
	}
}
