{
	 "smiles": "CCOC(=O)C1=C(C)C(C(=O)C2=CC=CC=C2)=C(N)S1", 
	 "Tm": 393.15, 
	 "num_atms": 35, 
	 "gaussian": { 
		 "optdone": 1, 
		 "sigma_profile": "yes", 
		 "theory": "DFT", 
		 "functional": "B3LYP", 
		 "basiset": "6-31G**", 
		 "properties": { 
			 "R2extent": 8064.1278, 
			 "electric_dipole_moment_norm": 3.30203155648, 
			 "electric_quadrupole_moment_norm": 23.1515023132, 
			 "total_energy": -1259.26060203, 
			 "HOMO_LUMO_gap": 0.14922, 
			 "cosmo_polarized_energy": -17.08, 
			 "cosmo_cavitation_energy": 40.14, 
			 "cosmo_dispersion_energy": -28.88, 
			 "cosmo_repulsion_energy": 2.19, 
			 "cosmo_total_nonelectrostatic_energy": 13.46, 
			 "SMD_solvation_energy": 7.99 
		},
		"coords": [
			{
				"x": -0.5033329421,
				"y": 1.0799482925,
				"z": -6.4013454429,
				"element": "C" 
			},
			{
				"x": -0.8440639343,
				"y": 2.1465265001,
				"z": -5.3713996218,
				"element": "C" 
			},
			{
				"x": -0.4930153308,
				"y": 1.7226146256,
				"z": -4.0320513644,
				"element": "O" 
			},
			{
				"x": -1.4083169223,
				"y": 0.960593252,
				"z": -3.3875611277,
				"element": "C" 
			},
			{
				"x": -2.4823559861,
				"y": 0.6441892349,
				"z": -3.8788545669,
				"element": "O" 
			},
			{
				"x": -1.0124340139,
				"y": 0.5524306029,
				"z": -2.0386352876,
				"element": "C" 
			},
			{
				"x": 0.1051322477,
				"y": 0.7483610743,
				"z": -1.2553735219,
				"element": "C" 
			},
			{
				"x": 1.3260299273,
				"y": 1.5252259787,
				"z": -1.6680051119,
				"element": "C" 
			},
			{
				"x": -0.0021146058,
				"y": 0.099310267,
				"z": 0.0329410253,
				"element": "C" 
			},
			{
				"x": 1.019416174,
				"y": 0.2686987859,
				"z": 1.095691276,
				"element": "C" 
			},
			{
				"x": 1.6663798738,
				"y": 1.3096153355,
				"z": 1.1905043451,
				"element": "O" 
			},
			{
				"x": 1.2984243827,
				"y": -0.8449951701,
				"z": 2.0697414272,
				"element": "C" 
			},
			{
				"x": 1.7846517564,
				"y": -0.5065969792,
				"z": 3.3432323276,
				"element": "C" 
			},
			{
				"x": 2.1263153954,
				"y": -1.502247604,
				"z": 4.2543751667,
				"element": "C" 
			},
			{
				"x": 2.0130532802,
				"y": -2.8488606942,
				"z": 3.8935818869,
				"element": "C" 
			},
			{
				"x": 1.552637353,
				"y": -3.1951540477,
				"z": 2.6216975347,
				"element": "C" 
			},
			{
				"x": 1.1897965459,
				"y": -2.1987981265,
				"z": 1.7143278177,
				"element": "C" 
			},
			{
				"x": -1.230010232,
				"y": -0.5520361828,
				"z": 0.1955938582,
				"element": "C" 
			},
			{
				"x": -1.7035317704,
				"y": -1.2547417136,
				"z": 1.2699362803,
				"element": "N" 
			},
			{
				"x": -2.241100992,
				"y": -0.4112362982,
				"z": -1.2129627238,
				"element": "S" 
			},
			{
				"x": 0.554581318,
				"y": 0.8066408372,
				"z": -6.3449078297,
				"element": "H" 
			},
			{
				"x": -0.7070740822,
				"y": 1.4585780198,
				"z": -7.4087074875,
				"element": "H" 
			},
			{
				"x": -1.1104615923,
				"y": 0.1859492789,
				"z": -6.2412138883,
				"element": "H" 
			},
			{
				"x": -0.2575161351,
				"y": 3.0553391209,
				"z": -5.5263442163,
				"element": "H" 
			},
			{
				"x": -1.9081999012,
				"y": 2.3914320249,
				"z": -5.3953286983,
				"element": "H" 
			},
			{
				"x": 1.3589615278,
				"y": 2.4817984307,
				"z": -1.1386395645,
				"element": "H" 
			},
			{
				"x": 1.3318762885,
				"y": 1.7081415915,
				"z": -2.7396359875,
				"element": "H" 
			},
			{
				"x": 2.2352162862,
				"y": 0.9898459553,
				"z": -1.3809759045,
				"element": "H" 
			},
			{
				"x": 1.8946557555,
				"y": 0.5441201731,
				"z": 3.5910001931,
				"element": "H" 
			},
			{
				"x": 2.4898306721,
				"y": -1.2325031532,
				"z": 5.2417064281,
				"element": "H" 
			},
			{
				"x": 2.2886905821,
				"y": -3.6257499306,
				"z": 4.6011265184,
				"element": "H" 
			},
			{
				"x": 1.4796192608,
				"y": -4.2398768105,
				"z": 2.3340447658,
				"element": "H" 
			},
			{
				"x": 0.8373834,
				"y": -2.4671496596,
				"z": 0.7233722272,
				"element": "H" 
			},
			{
				"x": -1.1847464291,
				"y": -1.2040252691,
				"z": 2.1335861979,
				"element": "H" 
			},
			{
				"x": -2.7022771576,
				"y": -1.3565877425,
				"z": 1.3670830696,
				"element": "H" 
			}
		],
		 "valence_orbital": [ 
			{
				"type": "occ",
				"energy": -0.26475,
				"method": "rhf"
			},
			{
				"type": "occ",
				"energy": -0.26398,
				"method": "rhf"
			},
			{
				"type": "occ",
				"energy": -0.25162,
				"method": "rhf"
			},
			{
				"type": "occ",
				"energy": -0.24304,
				"method": "rhf"
			},
			{
				"type": "occ",
				"energy": -0.20924,
				"method": "rhf"
			},
			{
				"type": "unocc",
				"energy": -0.06002,
				"method": "rhf"
			},
			{
				"type": "unocc",
				"energy": -0.03664,
				"method": "rhf"
			},
			{
				"type": "unocc",
				"energy": -0.01418,
				"method": "rhf"
			},
			{
				"type": "unocc",
				"energy": 0.00582,
				"method": "rhf"
			},
			{
				"type": "unocc",
				"energy": 0.01611,
				"method": "rhf"
			}
		],
		"cosmo_sigma_profile": { 
			"-0.025": 0.0,
			"-0.024": 0.0,
			"-0.023": 0.0,
			"-0.022": 0.0,
			"-0.021": 0.0,
			"-0.02": 0.0,
			"-0.019": 0.0,
			"-0.018": 0.0,
			"-0.017": 0.0,
			"-0.016": 0.237878971088,
			"-0.015": 1.30505482865,
			"-0.014": 1.27099676392,
			"-0.013": 1.81436632571,
			"-0.012": 2.65285042567,
			"-0.011": 2.01404228152,
			"-0.01": 2.65590845073,
			"-0.009": 2.28844403855,
			"-0.008": 1.35488315237,
			"-0.007": 3.43245674895,
			"-0.006": 11.4558452845,
			"-0.005": 16.5479783922,
			"-0.004": 25.6357183446,
			"-0.003": 25.3367350241,
			"-0.002": 24.8857698204,
			"-0.001": 26.3643518341,
			"0.0": 30.7347231786,
			"0.001": 27.0230368694,
			"0.002": 25.6189631761,
			"0.003": 24.9676069362,
			"0.004": 19.8483123264,
			"0.005": 9.45252710393,
			"0.006": 5.56777723581,
			"0.007": 3.6002695544,
			"0.008": 3.73538372323,
			"0.009": 3.97202549038,
			"0.01": 3.75660690772,
			"0.011": 4.0875455542,
			"0.012": 7.63538416336,
			"0.013": 2.22762709913,
			"0.014": 0.0287959469387,
			"0.015": 0.0,
			"0.016": 0.0,
			"0.017": 0.0,
			"0.018": 0.0,
			"0.019": 0.0,
			"0.02": 0.0,
			"0.021": 0.0,
			"0.022": 0.0,
			"0.023": 0.0,
			"0.024": 0.0,
			"0.025": 0.0
		}
	}
}
