{
	 "smiles": "CCN1C2=NN=C(CCl)N2C2=C(C=CC=C2)C1=O", 
	 "Tm": 469.15, 
	 "num_atms": 29, 
	 "gaussian": { 
		 "optdone": 1, 
		 "sigma_profile": "yes", 
		 "theory": "DFT", 
		 "functional": "B3LYP", 
		 "basiset": "6-31G**", 
		 "properties": { 
			 "R2extent": 5533.8139, 
			 "electric_dipole_moment_norm": 5.3064419765, 
			 "electric_quadrupole_moment_norm": 25.8490952337, 
			 "total_energy": -1218.33372055, 
			 "HOMO_LUMO_gap": 0.17263, 
			 "cosmo_polarized_energy": -20.79, 
			 "cosmo_cavitation_energy": 34.2, 
			 "cosmo_dispersion_energy": -25.13, 
			 "cosmo_repulsion_energy": 1.9, 
			 "cosmo_total_nonelectrostatic_energy": 10.97, 
			 "SMD_solvation_energy": 4.02 
		},
		"coords": [
			{
				"x": -0.9244723447,
				"y": 0.9741741935,
				"z": -4.0031539567,
				"element": "C" 
			},
			{
				"x": -1.6227689794,
				"y": 0.8965079919,
				"z": -2.6461438169,
				"element": "C" 
			},
			{
				"x": -0.6872666611,
				"y": 0.5710803257,
				"z": -1.5505057956,
				"element": "N" 
			},
			{
				"x": -0.4069465779,
				"y": -0.7539492028,
				"z": -1.3022951455,
				"element": "C" 
			},
			{
				"x": -0.898615156,
				"y": -1.786132817,
				"z": -1.9391998132,
				"element": "N" 
			},
			{
				"x": -0.3475057654,
				"y": -2.9089285716,
				"z": -1.3487985029,
				"element": "N" 
			},
			{
				"x": 0.4516223505,
				"y": -2.5349428168,
				"z": -0.3898234687,
				"element": "C" 
			},
			{
				"x": 1.2491754421,
				"y": -3.444187862,
				"z": 0.4965357451,
				"element": "C" 
			},
			{
				"x": 1.0064207062,
				"y": -5.1764916341,
				"z": 0.0959818285,
				"element": "Cl" 
			},
			{
				"x": 0.4650921665,
				"y": -1.1354313004,
				"z": -0.2987698558,
				"element": "N" 
			},
			{
				"x": 1.1196434232,
				"y": -0.1883099063,
				"z": 0.5139635336,
				"element": "C" 
			},
			{
				"x": 0.8484534607,
				"y": 1.1686798037,
				"z": 0.2431030596,
				"element": "C" 
			},
			{
				"x": 1.467253365,
				"y": 2.1639293248,
				"z": 1.0093165191,
				"element": "C" 
			},
			{
				"x": 2.3424205212,
				"y": 1.8283465963,
				"z": 2.0338985194,
				"element": "C" 
			},
			{
				"x": 2.6048162994,
				"y": 0.4803748715,
				"z": 2.2973417008,
				"element": "C" 
			},
			{
				"x": 2.0024743729,
				"y": -0.5268264728,
				"z": 1.5479526156,
				"element": "C" 
			},
			{
				"x": -0.0791917385,
				"y": 1.5989661744,
				"z": -0.8363795324,
				"element": "C" 
			},
			{
				"x": -0.309106247,
				"y": 2.7754072249,
				"z": -1.0874716808,
				"element": "O" 
			},
			{
				"x": -0.4665288979,
				"y": 0.0153638302,
				"z": -4.2599151363,
				"element": "H" 
			},
			{
				"x": -1.6564338457,
				"y": 1.2206856492,
				"z": -4.7786684819,
				"element": "H" 
			},
			{
				"x": -0.1560615109,
				"y": 1.7522256811,
				"z": -3.9996448441,
				"element": "H" 
			},
			{
				"x": -2.0703960971,
				"y": 1.8549664693,
				"z": -2.3819272019,
				"element": "H" 
			},
			{
				"x": -2.3908598633,
				"y": 0.1211017243,
				"z": -2.6473113656,
				"element": "H" 
			},
			{
				"x": 2.3202975595,
				"y": -3.2472639492,
				"z": 0.4013406314,
				"element": "H" 
			},
			{
				"x": 0.9649151112,
				"y": -3.3223112683,
				"z": 1.5451606196,
				"element": "H" 
			},
			{
				"x": 1.2333021271,
				"y": 3.19512388,
				"z": 0.7684710289,
				"element": "H" 
			},
			{
				"x": 2.8181504672,
				"y": 2.604163347,
				"z": 2.624717633,
				"element": "H" 
			},
			{
				"x": 3.2866373067,
				"y": 0.2043616927,
				"z": 3.0959675946,
				"element": "H" 
			},
			{
				"x": 2.2255790055,
				"y": -1.5588829792,
				"z": 1.7774575692,
				"element": "H" 
			}
		],
		 "valence_orbital": [ 
			{
				"type": "occ",
				"energy": -0.28508,
				"method": "rhf"
			},
			{
				"type": "occ",
				"energy": -0.27967,
				"method": "rhf"
			},
			{
				"type": "occ",
				"energy": -0.26444,
				"method": "rhf"
			},
			{
				"type": "occ",
				"energy": -0.26305,
				"method": "rhf"
			},
			{
				"type": "occ",
				"energy": -0.23735,
				"method": "rhf"
			},
			{
				"type": "unocc",
				"energy": -0.06472,
				"method": "rhf"
			},
			{
				"type": "unocc",
				"energy": -0.04482,
				"method": "rhf"
			},
			{
				"type": "unocc",
				"energy": 0.00639,
				"method": "rhf"
			},
			{
				"type": "unocc",
				"energy": 0.01038,
				"method": "rhf"
			},
			{
				"type": "unocc",
				"energy": 0.0281,
				"method": "rhf"
			}
		],
		"cosmo_sigma_profile": { 
			"-0.025": 0.0,
			"-0.024": 0.0,
			"-0.023": 0.0,
			"-0.022": 0.0,
			"-0.021": 0.0,
			"-0.02": 0.0,
			"-0.019": 0.0,
			"-0.018": 0.0,
			"-0.017": 0.0,
			"-0.016": 0.0,
			"-0.015": 0.0,
			"-0.014": 0.0,
			"-0.013": 0.0,
			"-0.012": 0.0,
			"-0.011": 0.757799224829,
			"-0.01": 6.60602103603,
			"-0.009": 6.25200702177,
			"-0.008": 6.10485417781,
			"-0.007": 10.9213098595,
			"-0.006": 12.8821218477,
			"-0.005": 16.6360885724,
			"-0.004": 20.108092388,
			"-0.003": 24.0097077089,
			"-0.002": 20.3987339909,
			"-0.001": 19.4614351124,
			"0.0": 20.7241349294,
			"0.001": 18.5375688793,
			"0.002": 17.7093485479,
			"0.003": 11.0170872088,
			"0.004": 8.54996720183,
			"0.005": 11.2537193501,
			"0.006": 6.90914261672,
			"0.007": 3.35860765857,
			"0.008": 3.97690194457,
			"0.009": 3.97740136813,
			"0.01": 4.31032126103,
			"0.011": 4.95508617609,
			"0.012": 7.05654500341,
			"0.013": 4.43955921411,
			"0.014": 2.93759005625,
			"0.015": 1.79419508297,
			"0.016": 0.698843818537,
			"0.017": 0.0,
			"0.018": 0.0,
			"0.019": 0.0,
			"0.02": 0.0,
			"0.021": 0.0,
			"0.022": 0.0,
			"0.023": 0.0,
			"0.024": 0.0,
			"0.025": 0.0
		}
	}
}
