{
	 "smiles": "ClCCOCCCl", 
	 "Tm": 223.65, 
	 "num_atms": 15, 
	 "gaussian": { 
		 "optdone": 1, 
		 "sigma_profile": "yes", 
		 "theory": "DFT", 
		 "functional": "B3LYP", 
		 "basiset": "6-31G**", 
		 "properties": { 
			 "R2extent": 2427.4465, 
			 "electric_dipole_moment_norm": 0.741867717319, 
			 "electric_quadrupole_moment_norm": 9.86005900743, 
			 "total_energy": -1152.84797414, 
			 "HOMO_LUMO_gap": 0.28398, 
			 "cosmo_polarized_energy": -7.24, 
			 "cosmo_cavitation_energy": 21.9, 
			 "cosmo_dispersion_energy": -16.51, 
			 "cosmo_repulsion_energy": 1.45, 
			 "cosmo_total_nonelectrostatic_energy": 6.83, 
			 "SMD_solvation_energy": 3.11 
		},
		"coords": [
			{
				"x": 2.6838445731,
				"y": -2.6613078006,
				"z": 1.9347695053,
				"element": "Cl" 
			},
			{
				"x": 1.7148149939,
				"y": -1.9186357191,
				"z": 0.5954571838,
				"element": "C" 
			},
			{
				"x": 2.0850472688,
				"y": -0.4437458004,
				"z": 0.4339039314,
				"element": "C" 
			},
			{
				"x": 1.3795559148,
				"y": 0.1433559719,
				"z": -0.6474976501,
				"element": "O" 
			},
			{
				"x": 0.0645934249,
				"y": 0.5815565868,
				"z": -0.3404313496,
				"element": "C" 
			},
			{
				"x": -0.4134854969,
				"y": 1.3640416258,
				"z": -1.5554155084,
				"element": "C" 
			},
			{
				"x": -2.1003686786,
				"y": 1.961591373,
				"z": -1.2902235295,
				"element": "Cl" 
			},
			{
				"x": 0.6642663285,
				"y": -2.0546818243,
				"z": 0.8558746568,
				"element": "H" 
			},
			{
				"x": 1.936512067,
				"y": -2.4760057317,
				"z": -0.3153095036,
				"element": "H" 
			},
			{
				"x": 1.8998321185,
				"y": 0.0980705395,
				"z": 1.3722594219,
				"element": "H" 
			},
			{
				"x": 3.1492662851,
				"y": -0.3588050524,
				"z": 0.1967418045,
				"element": "H" 
			},
			{
				"x": -0.617981256,
				"y": -0.2585110643,
				"z": -0.1483329163,
				"element": "H" 
			},
			{
				"x": 0.0641159429,
				"y": 1.2273542725,
				"z": 0.550100112,
				"element": "H" 
			},
			{
				"x": -0.4250331594,
				"y": 0.734727064,
				"z": -2.4457764227,
				"element": "H" 
			},
			{
				"x": 0.2197196735,
				"y": 2.2333955593,
				"z": -1.7339197354,
				"element": "H" 
			}
		],
		 "valence_orbital": [ 
			{
				"type": "occ",
				"energy": -0.31191,
				"method": "rhf"
			},
			{
				"type": "occ",
				"energy": -0.30629,
				"method": "rhf"
			},
			{
				"type": "occ",
				"energy": -0.30403,
				"method": "rhf"
			},
			{
				"type": "occ",
				"energy": -0.30321,
				"method": "rhf"
			},
			{
				"type": "occ",
				"energy": -0.2777,
				"method": "rhf"
			},
			{
				"type": "unocc",
				"energy": 0.00628,
				"method": "rhf"
			},
			{
				"type": "unocc",
				"energy": 0.02548,
				"method": "rhf"
			},
			{
				"type": "unocc",
				"energy": 0.08625,
				"method": "rhf"
			},
			{
				"type": "unocc",
				"energy": 0.0973,
				"method": "rhf"
			},
			{
				"type": "unocc",
				"energy": 0.10187,
				"method": "rhf"
			}
		],
		"cosmo_sigma_profile": { 
			"-0.025": 0.0,
			"-0.024": 0.0,
			"-0.023": 0.0,
			"-0.022": 0.0,
			"-0.021": 0.0,
			"-0.02": 0.0,
			"-0.019": 0.0,
			"-0.018": 0.0,
			"-0.017": 0.0,
			"-0.016": 0.0,
			"-0.015": 0.0,
			"-0.014": 0.0,
			"-0.013": 0.0,
			"-0.012": 0.0,
			"-0.011": 0.0,
			"-0.01": 0.0,
			"-0.009": 0.0,
			"-0.008": 1.37423062771,
			"-0.007": 8.65970194367,
			"-0.006": 12.557668554,
			"-0.005": 18.3258572211,
			"-0.004": 16.3276794603,
			"-0.003": 12.5946291337,
			"-0.002": 9.77275386539,
			"-0.001": 7.42851239395,
			"0.0": 8.9923483624,
			"0.001": 9.66751177714,
			"0.002": 7.18687610539,
			"0.003": 9.10055723318,
			"0.004": 10.0950487972,
			"0.005": 13.1290901368,
			"0.006": 20.7163363685,
			"0.007": 5.88417177423,
			"0.008": 1.10320414169,
			"0.009": 0.769733662698,
			"0.01": 1.12724073045,
			"0.011": 1.2991974431,
			"0.012": 0.14296936434,
			"0.013": 0.0,
			"0.014": 0.0,
			"0.015": 0.0,
			"0.016": 0.0,
			"0.017": 0.0,
			"0.018": 0.0,
			"0.019": 0.0,
			"0.02": 0.0,
			"0.021": 0.0,
			"0.022": 0.0,
			"0.023": 0.0,
			"0.024": 0.0,
			"0.025": 0.0
		}
	}
}
