{
	 "smiles": "COC1=C(C=CC=C1)C1=NN=C(SCC(O)=O)N1N", 
	 "Tm": 455.15, 
	 "num_atms": 31, 
	 "gaussian": { 
		 "optdone": 1, 
		 "sigma_profile": "yes", 
		 "theory": "DFT", 
		 "functional": "B3LYP", 
		 "basiset": "6-31G**", 
		 "properties": { 
			 "R2extent": 7422.4211, 
			 "electric_dipole_moment_norm": 11.2626593654, 
			 "electric_quadrupole_moment_norm": 40.9413439847, 
			 "total_energy": -1269.21807547, 
			 "HOMO_LUMO_gap": 0.1824, 
			 "cosmo_polarized_energy": -24.2, 
			 "cosmo_cavitation_energy": 36.94, 
			 "cosmo_dispersion_energy": -27.01, 
			 "cosmo_repulsion_energy": 2.04, 
			 "cosmo_total_nonelectrostatic_energy": 11.98, 
			 "SMD_solvation_energy": 6.79 
		},
		"coords": [
			{
				"x": -1.363762318,
				"y": -4.3606214896,
				"z": -0.8692746152,
				"element": "C" 
			},
			{
				"x": -1.0529476577,
				"y": -2.9969061672,
				"z": -0.5878982751,
				"element": "O" 
			},
			{
				"x": -1.3270265124,
				"y": -2.5042468801,
				"z": 0.6638214502,
				"element": "C" 
			},
			{
				"x": -0.768467593,
				"y": -1.2463621649,
				"z": 0.9852326032,
				"element": "C" 
			},
			{
				"x": -0.9786904038,
				"y": -0.7262551246,
				"z": 2.2699998966,
				"element": "C" 
			},
			{
				"x": -1.740867938,
				"y": -1.4125358076,
				"z": 3.212886593,
				"element": "C" 
			},
			{
				"x": -2.303812793,
				"y": -2.6411999094,
				"z": 2.8733404564,
				"element": "C" 
			},
			{
				"x": -2.0988620692,
				"y": -3.1903046676,
				"z": 1.6058572344,
				"element": "C" 
			},
			{
				"x": 0.0973513844,
				"y": -0.4927710122,
				"z": 0.0660502532,
				"element": "C" 
			},
			{
				"x": 1.2329432522,
				"y": 0.074286993,
				"z": 0.4075709672,
				"element": "N" 
			},
			{
				"x": 1.7282731629,
				"y": 0.7215181564,
				"z": -0.7062259028,
				"element": "N" 
			},
			{
				"x": 0.8809381917,
				"y": 0.5393639176,
				"z": -1.6988414966,
				"element": "C" 
			},
			{
				"x": 1.0126967221,
				"y": 1.1503000158,
				"z": -3.3376799925,
				"element": "S" 
			},
			{
				"x": 2.3475118892,
				"y": 2.3988485779,
				"z": -3.0770879471,
				"element": "C" 
			},
			{
				"x": 3.7820101856,
				"y": 1.8492287481,
				"z": -3.015136076,
				"element": "C" 
			},
			{
				"x": 4.1122703005,
				"y": 1.1712697213,
				"z": -1.9162322717,
				"element": "O" 
			},
			{
				"x": 4.5657703878,
				"y": 2.0612690434,
				"z": -3.9129211331,
				"element": "O" 
			},
			{
				"x": -0.1688982416,
				"y": -0.2185949641,
				"z": -1.2683861517,
				"element": "N" 
			},
			{
				"x": -1.2743657291,
				"y": -0.5354902323,
				"z": -2.0662177737,
				"element": "N" 
			},
			{
				"x": -2.4465238372,
				"y": -4.5330364904,
				"z": -0.8877817128,
				"element": "H" 
			},
			{
				"x": -0.8996299274,
				"y": -5.0278245831,
				"z": -0.1350872051,
				"element": "H" 
			},
			{
				"x": -0.9493585709,
				"y": -4.5624779485,
				"z": -1.85761865,
				"element": "H" 
			},
			{
				"x": -0.5218108989,
				"y": 0.2268542569,
				"z": 2.5137232906,
				"element": "H" 
			},
			{
				"x": -1.8927684634,
				"y": -0.9905151006,
				"z": 4.2008123756,
				"element": "H" 
			},
			{
				"x": -2.9049362669,
				"y": -3.1864312965,
				"z": 3.5948959725,
				"element": "H" 
			},
			{
				"x": -2.5324817367,
				"y": -4.1530629686,
				"z": 1.3644991121,
				"element": "H" 
			},
			{
				"x": 2.1015561358,
				"y": 2.9700429161,
				"z": -2.1775960309,
				"element": "H" 
			},
			{
				"x": 2.2823332904,
				"y": 3.0453909696,
				"z": -3.9522862261,
				"element": "H" 
			},
			{
				"x": 3.3340949,
				"y": 1.0659263932,
				"z": -1.301522327,
				"element": "H" 
			},
			{
				"x": -1.4196146133,
				"y": -1.5401114068,
				"z": -1.9838023262,
				"element": "H" 
			},
			{
				"x": -2.0911242321,
				"y": -0.0540514954,
				"z": -1.6946940913,
				"element": "H" 
			}
		],
		 "valence_orbital": [ 
			{
				"type": "occ",
				"energy": -0.27952,
				"method": "rhf"
			},
			{
				"type": "occ",
				"energy": -0.27103,
				"method": "rhf"
			},
			{
				"type": "occ",
				"energy": -0.25593,
				"method": "rhf"
			},
			{
				"type": "occ",
				"energy": -0.24745,
				"method": "rhf"
			},
			{
				"type": "occ",
				"energy": -0.22808,
				"method": "rhf"
			},
			{
				"type": "unocc",
				"energy": -0.04568,
				"method": "rhf"
			},
			{
				"type": "unocc",
				"energy": -0.01666,
				"method": "rhf"
			},
			{
				"type": "unocc",
				"energy": -0.00534,
				"method": "rhf"
			},
			{
				"type": "unocc",
				"energy": 0.01245,
				"method": "rhf"
			},
			{
				"type": "unocc",
				"energy": 0.02921,
				"method": "rhf"
			}
		],
		"cosmo_sigma_profile": { 
			"-0.025": 0.0,
			"-0.024": 0.0,
			"-0.023": 0.0,
			"-0.022": 0.0,
			"-0.021": 0.0,
			"-0.02": 0.0,
			"-0.019": 0.0,
			"-0.018": 0.0,
			"-0.017": 0.0,
			"-0.016": 0.0,
			"-0.015": 0.0,
			"-0.014": 1.21524844006,
			"-0.013": 1.50200303994,
			"-0.012": 1.8379337935,
			"-0.011": 1.72212062299,
			"-0.01": 2.04547556577,
			"-0.009": 4.34921598327,
			"-0.008": 6.70501661387,
			"-0.007": 11.31777109,
			"-0.006": 21.6983482144,
			"-0.005": 24.1341701174,
			"-0.004": 23.9030636944,
			"-0.003": 20.1333800792,
			"-0.002": 18.1440818279,
			"-0.001": 16.0244645575,
			"0.0": 13.5698500978,
			"0.001": 15.5376844916,
			"0.002": 16.9894348205,
			"0.003": 16.9637139525,
			"0.004": 17.5250057855,
			"0.005": 10.0839043666,
			"0.006": 7.00142005372,
			"0.007": 6.27019311735,
			"0.008": 4.75200041585,
			"0.009": 5.236877897,
			"0.01": 5.8935049785,
			"0.011": 8.32959029828,
			"0.012": 7.70547534672,
			"0.013": 4.41485661603,
			"0.014": 1.02413636358,
			"0.015": 1.09156062584,
			"0.016": 0.185782702196,
			"0.017": 0.0,
			"0.018": 0.0,
			"0.019": 0.0,
			"0.02": 0.0,
			"0.021": 0.0,
			"0.022": 0.0,
			"0.023": 0.0,
			"0.024": 0.0,
			"0.025": 0.0
		}
	}
}
