{
	 "smiles": "COC1=CC=C(C=C1)C1=NOC(CCCC(O)=O)=N1", 
	 "Tm": 383.15, 
	 "num_atms": 33, 
	 "gaussian": { 
		 "optdone": 1, 
		 "sigma_profile": "yes", 
		 "theory": "DFT", 
		 "functional": "B3LYP", 
		 "basiset": "6-31G**", 
		 "properties": { 
			 "R2extent": 7266.5122, 
			 "electric_dipole_moment_norm": 1.8165086127, 
			 "electric_quadrupole_moment_norm": 23.7606955923, 
			 "total_energy": -914.198306101, 
			 "HOMO_LUMO_gap": 0.18215, 
			 "cosmo_polarized_energy": -17.78, 
			 "cosmo_cavitation_energy": 37.98, 
			 "cosmo_dispersion_energy": -26.39, 
			 "cosmo_repulsion_energy": 2.04, 
			 "cosmo_total_nonelectrostatic_energy": 13.63, 
			 "SMD_solvation_energy": 6.48 
		},
		"coords": [
			{
				"x": -2.3016532681,
				"y": -4.8350050077,
				"z": -2.1881463556,
				"element": "C" 
			},
			{
				"x": -0.975156667,
				"y": -4.928898122,
				"z": -1.6900082209,
				"element": "O" 
			},
			{
				"x": -0.3632187398,
				"y": -3.7916400395,
				"z": -1.2592328095,
				"element": "C" 
			},
			{
				"x": -0.9471895113,
				"y": -2.5186301517,
				"z": -1.2710069184,
				"element": "C" 
			},
			{
				"x": -0.2219296994,
				"y": -1.4228750917,
				"z": -0.8029978593,
				"element": "C" 
			},
			{
				"x": 1.0823097829,
				"y": -1.5755827584,
				"z": -0.3206043059,
				"element": "C" 
			},
			{
				"x": 1.6593678444,
				"y": -2.8597072291,
				"z": -0.3133103544,
				"element": "C" 
			},
			{
				"x": 0.9473702657,
				"y": -3.95319266,
				"z": -0.7761918434,
				"element": "C" 
			},
			{
				"x": 1.8219117478,
				"y": -0.4106192388,
				"z": 0.1719166276,
				"element": "C" 
			},
			{
				"x": 3.0216329391,
				"y": -0.4945986414,
				"z": 0.7075597766,
				"element": "N" 
			},
			{
				"x": 3.3285455566,
				"y": 0.8395829193,
				"z": 1.0287312349,
				"element": "O" 
			},
			{
				"x": 2.2705945606,
				"y": 1.5787938436,
				"z": 0.6552564846,
				"element": "C" 
			},
			{
				"x": 2.308058653,
				"y": 3.0474061008,
				"z": 0.9188981611,
				"element": "C" 
			},
			{
				"x": 1.9768160538,
				"y": 3.4404925191,
				"z": 2.3778272267,
				"element": "C" 
			},
			{
				"x": 0.5201106008,
				"y": 3.1990279301,
				"z": 2.8022308621,
				"element": "C" 
			},
			{
				"x": 0.0851661387,
				"y": 1.7621518998,
				"z": 3.0285786656,
				"element": "C" 
			},
			{
				"x": 1.1010711243,
				"y": 0.9766903548,
				"z": 3.4653851789,
				"element": "O" 
			},
			{
				"x": -1.0462226217,
				"y": 1.354866998,
				"z": 2.8985214405,
				"element": "O" 
			},
			{
				"x": 1.3172821437,
				"y": 0.8777277603,
				"z": 0.1172317212,
				"element": "N" 
			},
			{
				"x": -2.357034516,
				"y": -4.1844511308,
				"z": -3.0701334174,
				"element": "H" 
			},
			{
				"x": -2.5888578161,
				"y": -5.8487311057,
				"z": -2.4709781771,
				"element": "H" 
			},
			{
				"x": -2.9950968687,
				"y": -4.4629646602,
				"z": -1.4234002433,
				"element": "H" 
			},
			{
				"x": -1.9561589779,
				"y": -2.369748003,
				"z": -1.6361286036,
				"element": "H" 
			},
			{
				"x": -0.6696782101,
				"y": -0.4350172991,
				"z": -0.8048500685,
				"element": "H" 
			},
			{
				"x": 2.6712115478,
				"y": -2.9866528475,
				"z": 0.0574613929,
				"element": "H" 
			},
			{
				"x": 1.3796443274,
				"y": -4.9482883929,
				"z": -0.7780931697,
				"element": "H" 
			},
			{
				"x": 1.6009450548,
				"y": 3.5214235953,
				"z": 0.2320003658,
				"element": "H" 
			},
			{
				"x": 3.3104090978,
				"y": 3.4148397417,
				"z": 0.6751484885,
				"element": "H" 
			},
			{
				"x": 2.1848918552,
				"y": 4.511435867,
				"z": 2.4782034006,
				"element": "H" 
			},
			{
				"x": 2.6541815862,
				"y": 2.9195830742,
				"z": 3.0604849555,
				"element": "H" 
			},
			{
				"x": 0.3439852851,
				"y": 3.7122219712,
				"z": 3.7572359989,
				"element": "H" 
			},
			{
				"x": -0.1859786048,
				"y": 3.6305928378,
				"z": 2.0869970485,
				"element": "H" 
			},
			{
				"x": 0.7257693352,
				"y": 0.0888649664,
				"z": 3.5909133166,
				"element": "H" 
			}
		],
		 "valence_orbital": [ 
			{
				"type": "occ",
				"energy": -0.28828,
				"method": "rhf"
			},
			{
				"type": "occ",
				"energy": -0.28095,
				"method": "rhf"
			},
			{
				"type": "occ",
				"energy": -0.27112,
				"method": "rhf"
			},
			{
				"type": "occ",
				"energy": -0.25428,
				"method": "rhf"
			},
			{
				"type": "occ",
				"energy": -0.21654,
				"method": "rhf"
			},
			{
				"type": "unocc",
				"energy": -0.03439,
				"method": "rhf"
			},
			{
				"type": "unocc",
				"energy": -0.00606,
				"method": "rhf"
			},
			{
				"type": "unocc",
				"energy": 0.00467,
				"method": "rhf"
			},
			{
				"type": "unocc",
				"energy": 0.01306,
				"method": "rhf"
			},
			{
				"type": "unocc",
				"energy": 0.06996,
				"method": "rhf"
			}
		],
		"cosmo_sigma_profile": { 
			"-0.025": 0.0,
			"-0.024": 0.0,
			"-0.023": 0.0,
			"-0.022": 0.0,
			"-0.021": 0.0,
			"-0.02": 0.0,
			"-0.019": 0.0461850210162,
			"-0.018": 0.562032445914,
			"-0.017": 0.793424454303,
			"-0.016": 0.67908524112,
			"-0.015": 1.05010133913,
			"-0.014": 0.426499261925,
			"-0.013": 0.440515216418,
			"-0.012": 0.797436277901,
			"-0.011": 0.64134350929,
			"-0.01": 0.363540944899,
			"-0.009": 0.542422007176,
			"-0.008": 1.252574685,
			"-0.007": 7.37326465738,
			"-0.006": 21.7123492274,
			"-0.005": 29.474962153,
			"-0.004": 30.8760591883,
			"-0.003": 28.2530153661,
			"-0.002": 17.3454536728,
			"-0.001": 13.1190764795,
			"0.0": 14.5689855356,
			"0.001": 14.1163057094,
			"0.002": 18.189694186,
			"0.003": 19.1669447709,
			"0.004": 19.0104325475,
			"0.005": 9.50659086238,
			"0.006": 8.94473993928,
			"0.007": 10.2752433767,
			"0.008": 6.69140952411,
			"0.009": 5.2914200006,
			"0.01": 5.61223668736,
			"0.011": 5.05538618941,
			"0.012": 6.9702959185,
			"0.013": 2.12726255644,
			"0.014": 0.0287703703301,
			"0.015": 0.0,
			"0.016": 0.0,
			"0.017": 0.0,
			"0.018": 0.0,
			"0.019": 0.0,
			"0.02": 0.0,
			"0.021": 0.0,
			"0.022": 0.0,
			"0.023": 0.0,
			"0.024": 0.0,
			"0.025": 0.0
		}
	}
}
