{
	 "smiles": "O=CC=CC1=CC=CC=C1", 
	 "Tm": 265.65, 
	 "num_atms": 18, 
	 "gaussian": { 
		 "optdone": 1, 
		 "sigma_profile": "yes", 
		 "theory": "DFT", 
		 "functional": "B3LYP", 
		 "basiset": "6-31G**", 
		 "properties": { 
			 "R2extent": 2659.3397, 
			 "electric_dipole_moment_norm": 4.52428972768, 
			 "electric_quadrupole_moment_norm": 23.6548365849, 
			 "total_energy": -422.979377351, 
			 "HOMO_LUMO_gap": 0.1648, 
			 "cosmo_polarized_energy": -9.5, 
			 "cosmo_cavitation_energy": 22.87, 
			 "cosmo_dispersion_energy": -16.57, 
			 "cosmo_repulsion_energy": 1.33, 
			 "cosmo_total_nonelectrostatic_energy": 7.63, 
			 "SMD_solvation_energy": 5.18 
		},
		"coords": [
			{
				"x": 1.4371843378,
				"y": -5.7185739025,
				"z": -0.7772984939,
				"element": "O" 
			},
			{
				"x": 0.6840764741,
				"y": -4.7836347299,
				"z": -0.9855526935,
				"element": "C" 
			},
			{
				"x": 0.9108260392,
				"y": -3.4139705393,
				"z": -0.5164122876,
				"element": "C" 
			},
			{
				"x": 0.021375004,
				"y": -2.4377831439,
				"z": -0.7939458115,
				"element": "C" 
			},
			{
				"x": 0.0766138634,
				"y": -1.0269773224,
				"z": -0.4144284932,
				"element": "C" 
			},
			{
				"x": 1.1336843837,
				"y": -0.4768257133,
				"z": 0.3374403445,
				"element": "C" 
			},
			{
				"x": 1.1381807658,
				"y": 0.8727969299,
				"z": 0.6722202295,
				"element": "C" 
			},
			{
				"x": 0.0896351917,
				"y": 1.705128753,
				"z": 0.2656139308,
				"element": "C" 
			},
			{
				"x": -0.9652118382,
				"y": 1.1763576652,
				"z": -0.4796254866,
				"element": "C" 
			},
			{
				"x": -0.9699690327,
				"y": -0.1758469103,
				"z": -0.8151648069,
				"element": "C" 
			},
			{
				"x": -0.2565063673,
				"y": -4.9232530736,
				"z": -1.5675829243,
				"element": "H" 
			},
			{
				"x": 1.8199700739,
				"y": -3.2454814918,
				"z": 0.0543157739,
				"element": "H" 
			},
			{
				"x": -0.8575084503,
				"y": -2.721711117,
				"z": -1.3755660537,
				"element": "H" 
			},
			{
				"x": 1.9541949244,
				"y": -1.109746105,
				"z": 0.6602239565,
				"element": "H" 
			},
			{
				"x": 1.960866088,
				"y": 1.280447705,
				"z": 1.2523091038,
				"element": "H" 
			},
			{
				"x": 0.0974014322,
				"y": 2.758582355,
				"z": 0.5294251318,
				"element": "H" 
			},
			{
				"x": -1.7827853572,
				"y": 1.8158132099,
				"z": -0.7989733755,
				"element": "H" 
			},
			{
				"x": -1.7925275324,
				"y": -0.5858225692,
				"z": -1.3956980443,
				"element": "H" 
			}
		],
		 "valence_orbital": [ 
			{
				"type": "occ",
				"energy": -0.35386,
				"method": "rhf"
			},
			{
				"type": "occ",
				"energy": -0.31296,
				"method": "rhf"
			},
			{
				"type": "occ",
				"energy": -0.26697,
				"method": "rhf"
			},
			{
				"type": "occ",
				"energy": -0.2472,
				"method": "rhf"
			},
			{
				"type": "occ",
				"energy": -0.24188,
				"method": "rhf"
			},
			{
				"type": "unocc",
				"energy": -0.07708,
				"method": "rhf"
			},
			{
				"type": "unocc",
				"energy": -0.01595,
				"method": "rhf"
			},
			{
				"type": "unocc",
				"energy": 0.0079,
				"method": "rhf"
			},
			{
				"type": "unocc",
				"energy": 0.07286,
				"method": "rhf"
			},
			{
				"type": "unocc",
				"energy": 0.08209,
				"method": "rhf"
			}
		],
		"cosmo_sigma_profile": { 
			"-0.025": 0.0,
			"-0.024": 0.0,
			"-0.023": 0.0,
			"-0.022": 0.0,
			"-0.021": 0.0,
			"-0.02": 0.0,
			"-0.019": 0.0,
			"-0.018": 0.0,
			"-0.017": 0.0,
			"-0.016": 0.0,
			"-0.015": 0.0,
			"-0.014": 0.0,
			"-0.013": 0.0,
			"-0.012": 0.0,
			"-0.011": 0.0,
			"-0.01": 0.0,
			"-0.009": 0.0,
			"-0.008": 2.47352512295,
			"-0.007": 9.25689404135,
			"-0.006": 15.1758941254,
			"-0.005": 15.333266487,
			"-0.004": 15.2625656777,
			"-0.003": 10.510998468,
			"-0.002": 11.7012873498,
			"-0.001": 11.1009856322,
			"0.0": 11.3443359536,
			"0.001": 13.7365985238,
			"0.002": 15.0301156739,
			"0.003": 12.9566727754,
			"0.004": 14.230310449,
			"0.005": 5.29573347873,
			"0.006": 1.56535626128,
			"0.007": 1.32113041228,
			"0.008": 1.59963653488,
			"0.009": 1.75995954032,
			"0.01": 2.1128011917,
			"0.011": 3.17224028318,
			"0.012": 4.67800001338,
			"0.013": 3.40481520765,
			"0.014": 0.508023675578,
			"0.015": 0.0,
			"0.016": 0.0,
			"0.017": 0.0,
			"0.018": 0.0,
			"0.019": 0.0,
			"0.02": 0.0,
			"0.021": 0.0,
			"0.022": 0.0,
			"0.023": 0.0,
			"0.024": 0.0,
			"0.025": 0.0
		}
	}
}
