{
	 "smiles": "O=C(CC#N)C1=CC=CS1", 
	 "Tm": 385.15, 
	 "num_atms": 15, 
	 "gaussian": { 
		 "optdone": 1, 
		 "sigma_profile": "yes", 
		 "theory": "DFT", 
		 "functional": "B3LYP", 
		 "basiset": "6-31G**", 
		 "properties": { 
			 "R2extent": 2652.8905, 
			 "electric_dipole_moment_norm": 4.1396143516, 
			 "electric_quadrupole_moment_norm": 17.8266176248, 
			 "total_energy": -797.878994752, 
			 "HOMO_LUMO_gap": 0.17929, 
			 "cosmo_polarized_energy": -12.77, 
			 "cosmo_cavitation_energy": 22.41, 
			 "cosmo_dispersion_energy": -16.17, 
			 "cosmo_repulsion_energy": 1.27, 
			 "cosmo_total_nonelectrostatic_energy": 7.52, 
			 "SMD_solvation_energy": 5.96 
		},
		"coords": [
			{
				"x": 0.9851814363,
				"y": 0.9064408775,
				"z": 2.2878373811,
				"element": "O" 
			},
			{
				"x": 1.0646169601,
				"y": 0.9347137371,
				"z": 1.0719550975,
				"element": "C" 
			},
			{
				"x": -0.1980178006,
				"y": 1.2763144416,
				"z": 0.2413090444,
				"element": "C" 
			},
			{
				"x": -0.6584356868,
				"y": 0.1717998693,
				"z": -0.6001655957,
				"element": "C" 
			},
			{
				"x": -1.0199177356,
				"y": -0.7124425646,
				"z": -1.2596233992,
				"element": "N" 
			},
			{
				"x": 2.3351370071,
				"y": 0.6898261528,
				"z": 0.3764891517,
				"element": "C" 
			},
			{
				"x": 3.5267306842,
				"y": 0.391699546,
				"z": 1.0088288918,
				"element": "C" 
			},
			{
				"x": 4.6100032594,
				"y": 0.229900859,
				"z": 0.1117799707,
				"element": "C" 
			},
			{
				"x": 4.2373752862,
				"y": 0.408830357,
				"z": -1.1991577072,
				"element": "C" 
			},
			{
				"x": 2.5591006726,
				"y": 0.7673824715,
				"z": -1.3580267547,
				"element": "S" 
			},
			{
				"x": -0.0023976322,
				"y": 2.1489400259,
				"z": -0.3944227086,
				"element": "H" 
			},
			{
				"x": -0.9807063486,
				"y": 1.5415646896,
				"z": 0.9567654586,
				"element": "H" 
			},
			{
				"x": 3.5885118248,
				"y": 0.3014622642,
				"z": 2.0864744371,
				"element": "H" 
			},
			{
				"x": 5.6223935756,
				"y": -0.008336752,
				"z": 0.4157899253,
				"element": "H" 
			},
			{
				"x": 4.8566244975,
				"y": 0.3400040253,
				"z": -2.0834331927,
				"element": "H" 
			}
		],
		 "valence_orbital": [ 
			{
				"type": "occ",
				"energy": -0.34147,
				"method": "rhf"
			},
			{
				"type": "occ",
				"energy": -0.33248,
				"method": "rhf"
			},
			{
				"type": "occ",
				"energy": -0.27623,
				"method": "rhf"
			},
			{
				"type": "occ",
				"energy": -0.27375,
				"method": "rhf"
			},
			{
				"type": "occ",
				"energy": -0.26111,
				"method": "rhf"
			},
			{
				"type": "unocc",
				"energy": -0.08182,
				"method": "rhf"
			},
			{
				"type": "unocc",
				"energy": -0.00239,
				"method": "rhf"
			},
			{
				"type": "unocc",
				"energy": 0.00657,
				"method": "rhf"
			},
			{
				"type": "unocc",
				"energy": 0.02907,
				"method": "rhf"
			},
			{
				"type": "unocc",
				"energy": 0.03942,
				"method": "rhf"
			}
		],
		"cosmo_sigma_profile": { 
			"-0.025": 0.0,
			"-0.024": 0.0,
			"-0.023": 0.0,
			"-0.022": 0.0,
			"-0.021": 0.0,
			"-0.02": 0.0,
			"-0.019": 0.0,
			"-0.018": 0.0,
			"-0.017": 0.0,
			"-0.016": 0.0,
			"-0.015": 0.0,
			"-0.014": 0.0,
			"-0.013": 0.0,
			"-0.012": 0.0,
			"-0.011": 0.686129245061,
			"-0.01": 4.60456909707,
			"-0.009": 7.68676372422,
			"-0.008": 8.35965811332,
			"-0.007": 9.62852771986,
			"-0.006": 10.2675965474,
			"-0.005": 8.96456865524,
			"-0.004": 8.25236282599,
			"-0.003": 7.34557954704,
			"-0.002": 8.96504033265,
			"-0.001": 9.654778981,
			"0.0": 10.8528578093,
			"0.001": 15.9089177126,
			"0.002": 17.1194389634,
			"0.003": 11.5503869232,
			"0.004": 5.01165480799,
			"0.005": 3.71202841548,
			"0.006": 2.59058479624,
			"0.007": 4.87239098424,
			"0.008": 5.27686460428,
			"0.009": 5.51902931687,
			"0.01": 5.86660556588,
			"0.011": 6.64088384154,
			"0.012": 2.87453200312,
			"0.013": 1.00405205201,
			"0.014": 0.0,
			"0.015": 0.0,
			"0.016": 0.0,
			"0.017": 0.0,
			"0.018": 0.0,
			"0.019": 0.0,
			"0.02": 0.0,
			"0.021": 0.0,
			"0.022": 0.0,
			"0.023": 0.0,
			"0.024": 0.0,
			"0.025": 0.0
		}
	}
}
