{
	 "smiles": "COC1=CC=C(C=C1)N(C(C)=O)C1=NC(C=O)=CS1", 
	 "Tm": 455.15, 
	 "num_atms": 31, 
	 "gaussian": { 
		 "optdone": 1, 
		 "sigma_profile": "yes", 
		 "theory": "DFT", 
		 "functional": "B3LYP", 
		 "basiset": "6-31G**", 
		 "properties": { 
			 "R2extent": 7724.135, 
			 "electric_dipole_moment_norm": 6.49863297394, 
			 "electric_quadrupole_moment_norm": 21.9183417473, 
			 "total_energy": -1235.95795861, 
			 "HOMO_LUMO_gap": 0.17579, 
			 "cosmo_polarized_energy": -16.12, 
			 "cosmo_cavitation_energy": 37.92, 
			 "cosmo_dispersion_energy": -26.78, 
			 "cosmo_repulsion_energy": 2.04, 
			 "cosmo_total_nonelectrostatic_energy": 13.19, 
			 "SMD_solvation_energy": 8.22 
		},
		"coords": [
			{
				"x": -2.7384596323,
				"y": -3.5204102724,
				"z": 0.1803330622,
				"element": "C" 
			},
			{
				"x": -1.4866939336,
				"y": -3.3281606776,
				"z": -0.4636623006,
				"element": "O" 
			},
			{
				"x": -0.8926288661,
				"y": -2.1077488337,
				"z": -0.3752038078,
				"element": "C" 
			},
			{
				"x": 0.3305164846,
				"y": -1.9775757912,
				"z": -1.0535851454,
				"element": "C" 
			},
			{
				"x": 1.0188738551,
				"y": -0.7731752397,
				"z": -1.0257194624,
				"element": "C" 
			},
			{
				"x": 0.501885826,
				"y": 0.3142063319,
				"z": -0.3127059544,
				"element": "C" 
			},
			{
				"x": -0.7153092646,
				"y": 0.1913140235,
				"z": 0.3517006435,
				"element": "C" 
			},
			{
				"x": -1.4167056341,
				"y": -1.0158418139,
				"z": 0.3293571337,
				"element": "C" 
			},
			{
				"x": 1.2274857774,
				"y": 1.5639853613,
				"z": -0.2719769187,
				"element": "N" 
			},
			{
				"x": 2.1729608632,
				"y": 1.8352691444,
				"z": 0.7190982722,
				"element": "C" 
			},
			{
				"x": 2.4076585815,
				"y": 0.7607648253,
				"z": 1.759482203,
				"element": "C" 
			},
			{
				"x": 2.7768644719,
				"y": 2.8996081464,
				"z": 0.7327423513,
				"element": "O" 
			},
			{
				"x": 0.946277837,
				"y": 2.5001061593,
				"z": -1.2782615796,
				"element": "C" 
			},
			{
				"x": 0.0697920911,
				"y": 2.2639449344,
				"z": -2.2095503183,
				"element": "N" 
			},
			{
				"x": -0.0213830515,
				"y": 3.3370006964,
				"z": -3.0740720816,
				"element": "C" 
			},
			{
				"x": -0.963377646,
				"y": 3.2709350112,
				"z": -4.2062659264,
				"element": "C" 
			},
			{
				"x": -1.1190493027,
				"y": 4.1622445761,
				"z": -5.0207175717,
				"element": "O" 
			},
			{
				"x": 0.7965724235,
				"y": 4.3990136927,
				"z": -2.7932719799,
				"element": "C" 
			},
			{
				"x": 1.7447622742,
				"y": 4.0792109903,
				"z": -1.3835161769,
				"element": "S" 
			},
			{
				"x": -2.6601799488,
				"y": -3.3790112171,
				"z": 1.2657552965,
				"element": "H" 
			},
			{
				"x": -3.5047635231,
				"y": -2.8434642812,
				"z": -0.2174956495,
				"element": "H" 
			},
			{
				"x": -3.0270821624,
				"y": -4.5515455219,
				"z": -0.027151099,
				"element": "H" 
			},
			{
				"x": 0.7139785797,
				"y": -2.8333344717,
				"z": -1.5986911727,
				"element": "H" 
			},
			{
				"x": 1.9580123556,
				"y": -0.6667668189,
				"z": -1.5597334454,
				"element": "H" 
			},
			{
				"x": -1.1222048286,
				"y": 1.0442398371,
				"z": 0.886109896,
				"element": "H" 
			},
			{
				"x": -2.3613542195,
				"y": -1.0899278785,
				"z": 0.8539337853,
				"element": "H" 
			},
			{
				"x": 1.4915927326,
				"y": 0.5339627247,
				"z": 2.3118497292,
				"element": "H" 
			},
			{
				"x": 3.1689025551,
				"y": 1.1312238799,
				"z": 2.4453602642,
				"element": "H" 
			},
			{
				"x": 2.7463493033,
				"y": -0.1721776382,
				"z": 1.3005042937,
				"element": "H" 
			},
			{
				"x": -1.5331938121,
				"y": 2.3195851673,
				"z": -4.2572455167,
				"element": "H" 
			},
			{
				"x": 0.8726998137,
				"y": 5.325224954,
				"z": -3.3453008239,
				"element": "H" 
			}
		],
		 "valence_orbital": [ 
			{
				"type": "occ",
				"energy": -0.27489,
				"method": "rhf"
			},
			{
				"type": "occ",
				"energy": -0.27133,
				"method": "rhf"
			},
			{
				"type": "occ",
				"energy": -0.24775,
				"method": "rhf"
			},
			{
				"type": "occ",
				"energy": -0.23689,
				"method": "rhf"
			},
			{
				"type": "occ",
				"energy": -0.22965,
				"method": "rhf"
			},
			{
				"type": "unocc",
				"energy": -0.05386,
				"method": "rhf"
			},
			{
				"type": "unocc",
				"energy": -0.02333,
				"method": "rhf"
			},
			{
				"type": "unocc",
				"energy": -0.02215,
				"method": "rhf"
			},
			{
				"type": "unocc",
				"energy": -0.01468,
				"method": "rhf"
			},
			{
				"type": "unocc",
				"energy": 0.03044,
				"method": "rhf"
			}
		],
		"cosmo_sigma_profile": { 
			"-0.025": 0.0,
			"-0.024": 0.0,
			"-0.023": 0.0,
			"-0.022": 0.0,
			"-0.021": 0.0,
			"-0.02": 0.0,
			"-0.019": 0.0,
			"-0.018": 0.0,
			"-0.017": 0.0,
			"-0.016": 0.0,
			"-0.015": 0.0,
			"-0.014": 0.0,
			"-0.013": 0.0,
			"-0.012": 0.0,
			"-0.011": 0.0,
			"-0.01": 0.752216171397,
			"-0.009": 1.70601557619,
			"-0.008": 1.76841124813,
			"-0.007": 8.43813455065,
			"-0.006": 25.6752737437,
			"-0.005": 28.4521937765,
			"-0.004": 25.6109047846,
			"-0.003": 27.0128699379,
			"-0.002": 23.26834981,
			"-0.001": 19.5057386608,
			"0.0": 19.326312618,
			"0.001": 20.7652541837,
			"0.002": 17.4697061647,
			"0.003": 16.7180740568,
			"0.004": 11.4302455033,
			"0.005": 9.51306343743,
			"0.006": 6.4255348348,
			"0.007": 5.69977647329,
			"0.008": 6.21460809529,
			"0.009": 7.42068367119,
			"0.01": 6.16627279575,
			"0.011": 8.41135329975,
			"0.012": 5.94388341302,
			"0.013": 1.78342130993,
			"0.014": 0.0,
			"0.015": 0.0,
			"0.016": 0.0,
			"0.017": 0.0,
			"0.018": 0.0,
			"0.019": 0.0,
			"0.02": 0.0,
			"0.021": 0.0,
			"0.022": 0.0,
			"0.023": 0.0,
			"0.024": 0.0,
			"0.025": 0.0
		}
	}
}
