{
	 "smiles": "NC(=S)CC1CC1", 
	 "Tm": 342.15, 
	 "num_atms": 16, 
	 "gaussian": { 
		 "optdone": 1, 
		 "sigma_profile": "yes", 
		 "theory": "DFT", 
		 "functional": "B3LYP", 
		 "basiset": "6-31G**", 
		 "properties": { 
			 "R2extent": 1231.1126, 
			 "electric_dipole_moment_norm": 4.67230223873, 
			 "electric_quadrupole_moment_norm": 9.98608551285, 
			 "total_energy": -648.872626224, 
			 "HOMO_LUMO_gap": 0.17501, 
			 "cosmo_polarized_energy": -15.29, 
			 "cosmo_cavitation_energy": 20.94, 
			 "cosmo_dispersion_energy": -15.44, 
			 "cosmo_repulsion_energy": 1.28, 
			 "cosmo_total_nonelectrostatic_energy": 6.78, 
			 "SMD_solvation_energy": 2.29 
		},
		"coords": [
			{
				"x": -0.2496907235,
				"y": -1.3838709698,
				"z": -1.2560195174,
				"element": "N" 
			},
			{
				"x": -0.8661031989,
				"y": -0.7398559493,
				"z": -0.2441977036,
				"element": "C" 
			},
			{
				"x": -2.175394476,
				"y": -1.385318736,
				"z": 0.553923927,
				"element": "S" 
			},
			{
				"x": -0.2389556264,
				"y": 0.5950584425,
				"z": 0.12474675,
				"element": "C" 
			},
			{
				"x": 1.0325034349,
				"y": 0.4274926791,
				"z": 0.9491607557,
				"element": "C" 
			},
			{
				"x": 1.4225816843,
				"y": 1.4929060656,
				"z": 1.9461623513,
				"element": "C" 
			},
			{
				"x": 0.9399571468,
				"y": 0.1457636404,
				"z": 2.4270686552,
				"element": "C" 
			},
			{
				"x": 0.5347018895,
				"y": -0.9807158509,
				"z": -1.7469828399,
				"element": "H" 
			},
			{
				"x": -0.5823718153,
				"y": -2.2948674898,
				"z": -1.5364919698,
				"element": "H" 
			},
			{
				"x": -0.013316739,
				"y": 1.1603575294,
				"z": -0.791484559,
				"element": "H" 
			},
			{
				"x": -0.973852466,
				"y": 1.1682306264,
				"z": 0.6922183395,
				"element": "H" 
			},
			{
				"x": 1.8534437205,
				"y": -0.0550868349,
				"z": 0.4211826193,
				"element": "H" 
			},
			{
				"x": 0.7575772506,
				"y": 2.3440276694,
				"z": 2.0644136884,
				"element": "H" 
			},
			{
				"x": 2.4756685795,
				"y": 1.7360734614,
				"z": 2.0517931963,
				"element": "H" 
			},
			{
				"x": 1.662441037,
				"y": -0.5356853105,
				"z": 2.8654590981,
				"element": "H" 
			},
			{
				"x": -0.0533896979,
				"y": 0.080191027,
				"z": 2.860347209,
				"element": "H" 
			}
		],
		 "valence_orbital": [ 
			{
				"type": "occ",
				"energy": -0.34859,
				"method": "rhf"
			},
			{
				"type": "occ",
				"energy": -0.29454,
				"method": "rhf"
			},
			{
				"type": "occ",
				"energy": -0.28953,
				"method": "rhf"
			},
			{
				"type": "occ",
				"energy": -0.22846,
				"method": "rhf"
			},
			{
				"type": "occ",
				"energy": -0.20291,
				"method": "rhf"
			},
			{
				"type": "unocc",
				"energy": -0.0279,
				"method": "rhf"
			},
			{
				"type": "unocc",
				"energy": 0.05611,
				"method": "rhf"
			},
			{
				"type": "unocc",
				"energy": 0.0866,
				"method": "rhf"
			},
			{
				"type": "unocc",
				"energy": 0.10481,
				"method": "rhf"
			},
			{
				"type": "unocc",
				"energy": 0.11567,
				"method": "rhf"
			}
		],
		"cosmo_sigma_profile": { 
			"-0.025": 0.0,
			"-0.024": 0.0,
			"-0.023": 0.0,
			"-0.022": 0.0,
			"-0.021": 0.0,
			"-0.02": 0.0,
			"-0.019": 0.0,
			"-0.018": 0.0,
			"-0.017": 0.0,
			"-0.016": 0.358391754881,
			"-0.015": 2.14483009391,
			"-0.014": 2.12454820979,
			"-0.013": 2.75317530948,
			"-0.012": 2.99108913316,
			"-0.011": 2.51815084879,
			"-0.01": 1.93305437788,
			"-0.009": 2.25970011667,
			"-0.008": 2.18175380119,
			"-0.007": 1.61978024271,
			"-0.006": 3.79665236336,
			"-0.005": 7.17690755657,
			"-0.004": 12.4968321754,
			"-0.003": 15.3077542904,
			"-0.002": 12.3056957151,
			"-0.001": 10.3918208232,
			"0.0": 10.1386332956,
			"0.001": 7.84012198651,
			"0.002": 9.28067643102,
			"0.003": 7.28324450967,
			"0.004": 8.48084573839,
			"0.005": 6.53383421499,
			"0.006": 5.9185624304,
			"0.007": 4.19804024395,
			"0.008": 5.06640284185,
			"0.009": 6.65039434593,
			"0.01": 5.45995702708,
			"0.011": 3.40431215373,
			"0.012": 3.2218520018,
			"0.013": 0.975949527559,
			"0.014": 0.0,
			"0.015": 0.0,
			"0.016": 0.0,
			"0.017": 0.0,
			"0.018": 0.0,
			"0.019": 0.0,
			"0.02": 0.0,
			"0.021": 0.0,
			"0.022": 0.0,
			"0.023": 0.0,
			"0.024": 0.0,
			"0.025": 0.0
		}
	}
}
