{
	 "smiles": "OCC1CSC2=C(O1)C=CC=C2", 
	 "Tm": 363.15, 
	 "num_atms": 22, 
	 "gaussian": { 
		 "optdone": 1, 
		 "sigma_profile": "yes", 
		 "theory": "DFT", 
		 "functional": "B3LYP", 
		 "basiset": "6-31G**", 
		 "properties": { 
			 "R2extent": 2370.2323, 
			 "electric_dipole_moment_norm": 1.45307278551, 
			 "electric_quadrupole_moment_norm": 8.19181891585, 
			 "total_energy": -897.597009932, 
			 "HOMO_LUMO_gap": 0.2029, 
			 "cosmo_polarized_energy": -11.43, 
			 "cosmo_cavitation_energy": 25.99, 
			 "cosmo_dispersion_energy": -19.9, 
			 "cosmo_repulsion_energy": 1.54, 
			 "cosmo_total_nonelectrostatic_energy": 7.64, 
			 "SMD_solvation_energy": 3.94 
		},
		"coords": [
			{
				"x": 0.2273778783,
				"y": 1.1080599834,
				"z": -3.2983806189,
				"element": "O" 
			},
			{
				"x": 0.687408826,
				"y": -0.0806662267,
				"z": -2.6770025345,
				"element": "C" 
			},
			{
				"x": -0.5118691846,
				"y": -0.7316481127,
				"z": -1.9879750816,
				"element": "C" 
			},
			{
				"x": -0.2877693134,
				"y": -2.1909757287,
				"z": -1.5899737053,
				"element": "C" 
			},
			{
				"x": 1.0816799792,
				"y": -2.3607503317,
				"z": -0.3885966956,
				"element": "S" 
			},
			{
				"x": 0.6731658144,
				"y": -0.9824110258,
				"z": 0.6672465104,
				"element": "C" 
			},
			{
				"x": -0.2472632498,
				"y": 0.0167711963,
				"z": 0.2994941588,
				"element": "C" 
			},
			{
				"x": -0.9616991648,
				"y": 0.0405550936,
				"z": -0.8710527086,
				"element": "O" 
			},
			{
				"x": -0.5187070854,
				"y": 1.066936007,
				"z": 1.1867677134,
				"element": "C" 
			},
			{
				"x": 0.1189250019,
				"y": 1.1405191893,
				"z": 2.4196559983,
				"element": "C" 
			},
			{
				"x": 1.0455181356,
				"y": 0.158792826,
				"z": 2.7848782219,
				"element": "C" 
			},
			{
				"x": 1.3102529923,
				"y": -0.893209037,
				"z": 1.9143561059,
				"element": "C" 
			},
			{
				"x": 0.9940682892,
				"y": 1.6498103684,
				"z": -3.5187714244,
				"element": "H" 
			},
			{
				"x": 1.4741241062,
				"y": 0.1184418764,
				"z": -1.9382069866,
				"element": "H" 
			},
			{
				"x": 1.0965462558,
				"y": -0.7925856585,
				"z": -3.4134457965,
				"element": "H" 
			},
			{
				"x": -1.352450553,
				"y": -0.6862104019,
				"z": -2.6892347072,
				"element": "H" 
			},
			{
				"x": -0.0147678273,
				"y": -2.7944423902,
				"z": -2.4591312047,
				"element": "H" 
			},
			{
				"x": -1.2072146061,
				"y": -2.5962928066,
				"z": -1.1603271903,
				"element": "H" 
			},
			{
				"x": -1.2379521045,
				"y": 1.8162745039,
				"z": 0.8720605947,
				"element": "H" 
			},
			{
				"x": -0.103834271,
				"y": 1.9635246467,
				"z": 3.092016081,
				"element": "H" 
			},
			{
				"x": 1.551475359,
				"y": 0.2065718859,
				"z": 3.7441163625,
				"element": "H" 
			},
			{
				"x": 2.0151847218,
				"y": -1.6701658572,
				"z": 2.1981069074,
				"element": "H" 
			}
		],
		 "valence_orbital": [ 
			{
				"type": "occ",
				"energy": -0.30407,
				"method": "rhf"
			},
			{
				"type": "occ",
				"energy": -0.28445,
				"method": "rhf"
			},
			{
				"type": "occ",
				"energy": -0.27204,
				"method": "rhf"
			},
			{
				"type": "occ",
				"energy": -0.22812,
				"method": "rhf"
			},
			{
				"type": "occ",
				"energy": -0.20477,
				"method": "rhf"
			},
			{
				"type": "unocc",
				"energy": -0.00187,
				"method": "rhf"
			},
			{
				"type": "unocc",
				"energy": 0.0085,
				"method": "rhf"
			},
			{
				"type": "unocc",
				"energy": 0.02904,
				"method": "rhf"
			},
			{
				"type": "unocc",
				"energy": 0.06731,
				"method": "rhf"
			},
			{
				"type": "unocc",
				"energy": 0.07536,
				"method": "rhf"
			}
		],
		"cosmo_sigma_profile": { 
			"-0.025": 0.0,
			"-0.024": 0.0,
			"-0.023": 0.0,
			"-0.022": 0.0,
			"-0.021": 0.0,
			"-0.02": 0.0,
			"-0.019": 0.0,
			"-0.018": 0.0,
			"-0.017": 0.00113026413782,
			"-0.016": 0.648083587533,
			"-0.015": 1.31343075825,
			"-0.014": 1.11924980932,
			"-0.013": 0.478234512186,
			"-0.012": 1.38112893992,
			"-0.011": 0.689574718963,
			"-0.01": 0.914415477521,
			"-0.009": 0.925445802645,
			"-0.008": 1.79362803885,
			"-0.007": 6.54617032084,
			"-0.006": 15.0783146265,
			"-0.005": 17.4712761888,
			"-0.004": 16.8869579741,
			"-0.003": 16.4707790916,
			"-0.002": 10.3126590432,
			"-0.001": 10.463697226,
			"0.0": 9.45422858931,
			"0.001": 11.4730293675,
			"0.002": 9.44627110955,
			"0.003": 13.2259889254,
			"0.004": 14.9354801329,
			"0.005": 14.9429817809,
			"0.006": 10.2071394823,
			"0.007": 3.91332452941,
			"0.008": 4.06862773462,
			"0.009": 2.14422425475,
			"0.01": 2.29603601894,
			"0.011": 3.04519630141,
			"0.012": 1.60633640504,
			"0.013": 2.1942995996,
			"0.014": 1.93664945851,
			"0.015": 0.04659156452,
			"0.016": 0.0,
			"0.017": 0.0,
			"0.018": 0.0,
			"0.019": 0.0,
			"0.02": 0.0,
			"0.021": 0.0,
			"0.022": 0.0,
			"0.023": 0.0,
			"0.024": 0.0,
			"0.025": 0.0
		}
	}
}
