{
	 "smiles": "C[C@]12CCC3C(CC[C@H]4CC(CC[C@]34C)=NO)C1CC[C@@H]2O", 
	 "Tm": 471.15, 
	 "num_atms": 53, 
	 "gaussian": { 
		 "optdone": 1, 
		 "sigma_profile": "yes", 
		 "theory": "DFT", 
		 "functional": "B3LYP", 
		 "basiset": "6-31G**", 
		 "properties": { 
			 "R2extent": 8860.1695, 
			 "electric_dipole_moment_norm": 1.35273809734, 
			 "electric_quadrupole_moment_norm": 14.4931545521, 
			 "total_energy": -947.858957779, 
			 "HOMO_LUMO_gap": 0.25042, 
			 "cosmo_polarized_energy": -12.65, 
			 "cosmo_cavitation_energy": 44.94, 
			 "cosmo_dispersion_energy": -32.29, 
			 "cosmo_repulsion_energy": 2.38, 
			 "cosmo_total_nonelectrostatic_energy": 15.03, 
			 "SMD_solvation_energy": 5.74 
		},
		"coords": [
			{
				"x": 1.9113129797,
				"y": 3.7944207219,
				"z": -0.4636004625,
				"element": "C" 
			},
			{
				"x": 0.7135009589,
				"y": 3.655020662,
				"z": 0.4978855809,
				"element": "C" 
			},
			{
				"x": 1.109905353,
				"y": 2.8593953164,
				"z": 1.7508154922,
				"element": "C" 
			},
			{
				"x": 1.3343610459,
				"y": 1.3725785635,
				"z": 1.4135843919,
				"element": "C" 
			},
			{
				"x": 0.1209210285,
				"y": 0.6837846309,
				"z": 0.7387916041,
				"element": "C" 
			},
			{
				"x": -0.4457568751,
				"y": 1.4931064012,
				"z": -0.4764962966,
				"element": "C" 
			},
			{
				"x": 0.2624908488,
				"y": 1.0945422959,
				"z": -1.7808105195,
				"element": "C" 
			},
			{
				"x": -0.0599173556,
				"y": -0.3857017256,
				"z": -2.1142835611,
				"element": "C" 
			},
			{
				"x": -0.4659076603,
				"y": -1.2096821321,
				"z": -0.8717044558,
				"element": "C" 
			},
			{
				"x": -0.4690266738,
				"y": -2.722370053,
				"z": -1.1822127432,
				"element": "C" 
			},
			{
				"x": -0.8466410309,
				"y": -3.5447131882,
				"z": 0.0249532462,
				"element": "C" 
			},
			{
				"x": -0.1215031907,
				"y": -3.2303686,
				"z": 1.3095239963,
				"element": "C" 
			},
			{
				"x": -0.1252826118,
				"y": -1.7095678967,
				"z": 1.5725833822,
				"element": "C" 
			},
			{
				"x": 0.3781014374,
				"y": -0.8442176434,
				"z": 0.3867122422,
				"element": "C" 
			},
			{
				"x": 1.8736168806,
				"y": -1.1540776625,
				"z": 0.1357169131,
				"element": "C" 
			},
			{
				"x": -1.770013657,
				"y": -4.418221623,
				"z": -0.1401925434,
				"element": "N" 
			},
			{
				"x": -2.0441943433,
				"y": -5.1436393512,
				"z": 1.0431094826,
				"element": "O" 
			},
			{
				"x": -0.5419495478,
				"y": 2.9836786394,
				"z": -0.1058616979,
				"element": "C" 
			},
			{
				"x": -1.0840860901,
				"y": 4.0060741921,
				"z": -1.126050323,
				"element": "C" 
			},
			{
				"x": -0.7344382045,
				"y": 5.3818203046,
				"z": -0.4870266341,
				"element": "C" 
			},
			{
				"x": 0.1246358888,
				"y": 5.0693423001,
				"z": 0.7736675821,
				"element": "C" 
			},
			{
				"x": 1.0526372628,
				"y": 6.0840927847,
				"z": 1.119555496,
				"element": "O" 
			},
			{
				"x": 1.6361243252,
				"y": 4.2662697939,
				"z": -1.4128305647,
				"element": "H" 
			},
			{
				"x": 2.3704510857,
				"y": 2.8350879973,
				"z": -0.7061892463,
				"element": "H" 
			},
			{
				"x": 2.6853500045,
				"y": 4.4107404763,
				"z": 0.007635657,
				"element": "H" 
			},
			{
				"x": 2.0125061183,
				"y": 3.2779807402,
				"z": 2.2128433311,
				"element": "H" 
			},
			{
				"x": 0.3072014028,
				"y": 2.9502435432,
				"z": 2.496457661,
				"element": "H" 
			},
			{
				"x": 2.2193563565,
				"y": 1.2916764125,
				"z": 0.7753487943,
				"element": "H" 
			},
			{
				"x": 1.5837048341,
				"y": 0.8300113541,
				"z": 2.3339709743,
				"element": "H" 
			},
			{
				"x": -0.6823541412,
				"y": 0.6945864266,
				"z": 1.4899731877,
				"element": "H" 
			},
			{
				"x": -1.4903563931,
				"y": 1.17567566,
				"z": -0.6059489555,
				"element": "H" 
			},
			{
				"x": -0.0513233221,
				"y": 1.7387221965,
				"z": -2.6092670701,
				"element": "H" 
			},
			{
				"x": 1.3444934534,
				"y": 1.2304655528,
				"z": -1.6868202752,
				"element": "H" 
			},
			{
				"x": 0.8025136174,
				"y": -0.8546455448,
				"z": -2.6037667767,
				"element": "H" 
			},
			{
				"x": -0.8807056329,
				"y": -0.4360781181,
				"z": -2.8403807434,
				"element": "H" 
			},
			{
				"x": -1.5058122807,
				"y": -0.9551496995,
				"z": -0.624270876,
				"element": "H" 
			},
			{
				"x": 0.5287508928,
				"y": -3.0296793544,
				"z": -1.5268938289,
				"element": "H" 
			},
			{
				"x": -1.1644268237,
				"y": -2.9432748096,
				"z": -1.9981105038,
				"element": "H" 
			},
			{
				"x": -0.583750241,
				"y": -3.7636465462,
				"z": 2.1414200362,
				"element": "H" 
			},
			{
				"x": 0.910234245,
				"y": -3.5985971846,
				"z": 1.2290883288,
				"element": "H" 
			},
			{
				"x": 0.4698711618,
				"y": -1.4942589896,
				"z": 2.4691435511,
				"element": "H" 
			},
			{
				"x": -1.155472894,
				"y": -1.4108777533,
				"z": 1.8054822282,
				"element": "H" 
			},
			{
				"x": 2.3062227896,
				"y": -0.5250998827,
				"z": -0.6467341827,
				"element": "H" 
			},
			{
				"x": 2.4672778805,
				"y": -1.0080845779,
				"z": 1.0423076844,
				"element": "H" 
			},
			{
				"x": 2.0201377436,
				"y": -2.1918053494,
				"z": -0.1743897776,
				"element": "H" 
			},
			{
				"x": -2.7623812688,
				"y": -5.7206486299,
				"z": 0.7537459728,
				"element": "H" 
			},
			{
				"x": -1.2663198872,
				"y": 2.996981002,
				"z": 0.7263242181,
				"element": "H" 
			},
			{
				"x": -0.5969590978,
				"y": 3.8967169859,
				"z": -2.1006939635,
				"element": "H" 
			},
			{
				"x": -2.1584075611,
				"y": 3.8815981301,
				"z": -1.2960496708,
				"element": "H" 
			},
			{
				"x": -1.6222940145,
				"y": 5.9639425727,
				"z": -0.2243203067,
				"element": "H" 
			},
			{
				"x": -0.1529181107,
				"y": 6.003724844,
				"z": -1.1790203138,
				"element": "H" 
			},
			{
				"x": -0.5294256197,
				"y": 4.9935424532,
				"z": 1.6508655671,
				"element": "H" 
			},
			{
				"x": 1.555744934,
				"y": 6.3096833617,
				"z": 0.3263196908,
				"element": "H" 
			}
		],
		 "valence_orbital": [ 
			{
				"type": "occ",
				"energy": -0.28049,
				"method": "rhf"
			},
			{
				"type": "occ",
				"energy": -0.27231,
				"method": "rhf"
			},
			{
				"type": "occ",
				"energy": -0.25727,
				"method": "rhf"
			},
			{
				"type": "occ",
				"energy": -0.24876,
				"method": "rhf"
			},
			{
				"type": "occ",
				"energy": -0.23586,
				"method": "rhf"
			},
			{
				"type": "unocc",
				"energy": 0.01456,
				"method": "rhf"
			},
			{
				"type": "unocc",
				"energy": 0.06272,
				"method": "rhf"
			},
			{
				"type": "unocc",
				"energy": 0.07272,
				"method": "rhf"
			},
			{
				"type": "unocc",
				"energy": 0.08095,
				"method": "rhf"
			},
			{
				"type": "unocc",
				"energy": 0.08544,
				"method": "rhf"
			}
		],
		"cosmo_sigma_profile": { 
			"-0.025": 0.0,
			"-0.024": 0.0,
			"-0.023": 0.0,
			"-0.022": 0.0,
			"-0.021": 0.0,
			"-0.02": 0.0,
			"-0.019": 0.0,
			"-0.018": 0.0,
			"-0.017": 0.143299123421,
			"-0.016": 1.00754213771,
			"-0.015": 0.870420658551,
			"-0.014": 1.15532801128,
			"-0.013": 1.8891111853,
			"-0.012": 1.40208946037,
			"-0.011": 1.84876667414,
			"-0.01": 1.33267230768,
			"-0.009": 1.79205263276,
			"-0.008": 1.6487358483,
			"-0.007": 1.97737832562,
			"-0.006": 1.91050168796,
			"-0.005": 5.2802336962,
			"-0.004": 9.52100392277,
			"-0.003": 24.5541148002,
			"-0.002": 60.9467257535,
			"-0.001": 63.1378223285,
			"0.0": 52.8940138869,
			"0.001": 36.7563986702,
			"0.002": 19.1208319292,
			"0.003": 6.22672250455,
			"0.004": 5.14815243725,
			"0.005": 4.37488770108,
			"0.006": 4.57997342798,
			"0.007": 6.37589134924,
			"0.008": 5.29272198702,
			"0.009": 4.86336353134,
			"0.01": 4.14007525066,
			"0.011": 3.3837275098,
			"0.012": 2.7217504215,
			"0.013": 2.15212605185,
			"0.014": 3.02382996124,
			"0.015": 1.64394351879,
			"0.016": 0.0,
			"0.017": 0.0,
			"0.018": 0.0,
			"0.019": 0.0,
			"0.02": 0.0,
			"0.021": 0.0,
			"0.022": 0.0,
			"0.023": 0.0,
			"0.024": 0.0,
			"0.025": 0.0
		}
	}
}
