{
	 "smiles": "CC1=CC(=C(O)C(Br)=C1)[N+]([O-])=O", 
	 "Tm": 358.15, 
	 "num_atms": 18, 
	 "gaussian": { 
		 "optdone": 1, 
		 "sigma_profile": "yes", 
		 "theory": "DFT", 
		 "functional": "B3LYP", 
		 "basiset": "6-31G**", 
		 "properties": { 
			 "R2extent": 3344.4178, 
			 "electric_dipole_moment_norm": 5.26806162644, 
			 "electric_quadrupole_moment_norm": 16.4155516453, 
			 "total_energy": -3122.08172106, 
			 "HOMO_LUMO_gap": 0.16287, 
			 "cosmo_polarized_energy": -11.67, 
			 "cosmo_cavitation_energy": 25.13, 
			 "cosmo_dispersion_energy": -19.09, 
			 "cosmo_repulsion_energy": 1.52, 
			 "cosmo_total_nonelectrostatic_energy": 7.56, 
			 "SMD_solvation_energy": 5.96 
		},
		"coords": [
			{
				"x": -3.1278254834,
				"y": -2.2208086207,
				"z": 1.5252316352,
				"element": "C" 
			},
			{
				"x": -2.0090231522,
				"y": -1.6591847928,
				"z": 0.680636089,
				"element": "C" 
			},
			{
				"x": -1.2174246307,
				"y": -2.4774454642,
				"z": -0.1198905043,
				"element": "C" 
			},
			{
				"x": -0.1638858349,
				"y": -1.961803141,
				"z": -0.8787274909,
				"element": "C" 
			},
			{
				"x": 0.1389467521,
				"y": -0.5844625296,
				"z": -0.8839419214,
				"element": "C" 
			},
			{
				"x": 1.1285851168,
				"y": -0.0819736198,
				"z": -1.6363174809,
				"element": "O" 
			},
			{
				"x": -0.6864438084,
				"y": 0.2256319617,
				"z": -0.0757242716,
				"element": "C" 
			},
			{
				"x": -0.34098454,
				"y": 2.1113147049,
				"z": -0.0602499296,
				"element": "Br" 
			},
			{
				"x": -1.7243606828,
				"y": -0.2854022406,
				"z": 0.6875024807,
				"element": "C" 
			},
			{
				"x": 0.6177788892,
				"y": -2.9243339874,
				"z": -1.6701944687,
				"element": "N" 
			},
			{
				"x": 0.0983852427,
				"y": -4.0231662537,
				"z": -1.8820903417,
				"element": "O" 
			},
			{
				"x": 1.734482023,
				"y": -2.5940040347,
				"z": -2.0552729092,
				"element": "O" 
			},
			{
				"x": -4.0488440689,
				"y": -1.6411214933,
				"z": 1.4046273785,
				"element": "H" 
			},
			{
				"x": -3.3440750459,
				"y": -3.2568700573,
				"z": 1.2533242409,
				"element": "H" 
			},
			{
				"x": -2.8694935046,
				"y": -2.2037911655,
				"z": 2.5905824471,
				"element": "H" 
			},
			{
				"x": -1.3968764392,
				"y": -3.5438674599,
				"z": -0.1804515417,
				"element": "H" 
			},
			{
				"x": 1.1356284538,
				"y": 0.8842704537,
				"z": -1.5225806156,
				"element": "H" 
			},
			{
				"x": -2.3199692865,
				"y": 0.3928177402,
				"z": 1.2898372044,
				"element": "H" 
			}
		],
		 "valence_orbital": [ 
			{
				"type": "occ",
				"energy": -0.30306,
				"method": "rhf"
			},
			{
				"type": "occ",
				"energy": -0.30126,
				"method": "rhf"
			},
			{
				"type": "occ",
				"energy": -0.28653,
				"method": "rhf"
			},
			{
				"type": "occ",
				"energy": -0.2741,
				"method": "rhf"
			},
			{
				"type": "occ",
				"energy": -0.24779,
				"method": "rhf"
			},
			{
				"type": "unocc",
				"energy": -0.08492,
				"method": "rhf"
			},
			{
				"type": "unocc",
				"energy": -0.02513,
				"method": "rhf"
			},
			{
				"type": "unocc",
				"energy": -0.02383,
				"method": "rhf"
			},
			{
				"type": "unocc",
				"energy": -0.00825,
				"method": "rhf"
			},
			{
				"type": "unocc",
				"energy": 0.07022,
				"method": "rhf"
			}
		],
		"cosmo_sigma_profile": { 
			"-0.025": 0.0,
			"-0.024": 0.0,
			"-0.023": 0.0,
			"-0.022": 0.0,
			"-0.021": 0.0,
			"-0.02": 0.0,
			"-0.019": 0.0,
			"-0.018": 0.0,
			"-0.017": 0.0,
			"-0.016": 0.0,
			"-0.015": 0.431137835699,
			"-0.014": 0.52880314946,
			"-0.013": 0.543527253944,
			"-0.012": 1.17290559203,
			"-0.011": 0.710952149146,
			"-0.01": 1.05500847283,
			"-0.009": 0.964424483721,
			"-0.008": 2.83237010712,
			"-0.007": 5.3765999633,
			"-0.006": 7.82266065518,
			"-0.005": 13.1709701041,
			"-0.004": 14.3229322929,
			"-0.003": 14.498828164,
			"-0.002": 18.4855396552,
			"-0.001": 23.2950509102,
			"0.0": 19.6565601362,
			"0.001": 17.5526332168,
			"0.002": 11.9147454468,
			"0.003": 8.07516401234,
			"0.004": 3.39214290097,
			"0.005": 4.13948061068,
			"0.006": 3.69020457485,
			"0.007": 6.3766789154,
			"0.008": 9.72780798949,
			"0.009": 6.44848165286,
			"0.01": 4.58991284042,
			"0.011": 0.672461527197,
			"0.012": 0.959688353496,
			"0.013": 1.09596953419,
			"0.014": 0.352426395572,
			"0.015": 0.394557512171,
			"0.016": 0.105085271259,
			"0.017": 0.00770472737117,
			"0.018": 0.0,
			"0.019": 0.0,
			"0.02": 0.0,
			"0.021": 0.0,
			"0.022": 0.0,
			"0.023": 0.0,
			"0.024": 0.0,
			"0.025": 0.0
		}
	}
}
