{
	 "smiles": "COC1=CC=C(C=C1)C1=CC(=O)C2=C(O)C(OC)=C(O)C=C2O1", 
	 "Tm": 496.15, 
	 "num_atms": 37, 
	 "gaussian": { 
		 "optdone": 1, 
		 "sigma_profile": "yes", 
		 "theory": "DFT", 
		 "functional": "B3LYP", 
		 "basiset": "6-31G**", 
		 "properties": { 
			 "R2extent": 11658.4447, 
			 "electric_dipole_moment_norm": 4.97954108126, 
			 "electric_quadrupole_moment_norm": 41.5279639644, 
			 "total_energy": -1107.551888, 
			 "HOMO_LUMO_gap": 0.16234, 
			 "cosmo_polarized_energy": -23.28, 
			 "cosmo_cavitation_energy": 41.79, 
			 "cosmo_dispersion_energy": -30.48, 
			 "cosmo_repulsion_energy": 2.26, 
			 "cosmo_total_nonelectrostatic_energy": 13.57, 
			 "SMD_solvation_energy": 9.76 
		},
		"coords": [
			{
				"x": 2.8839366418,
				"y": -2.848310575,
				"z": -4.5325837923,
				"element": "C" 
			},
			{
				"x": 2.5479534401,
				"y": -1.4686719056,
				"z": -4.5737837252,
				"element": "O" 
			},
			{
				"x": 1.8536089241,
				"y": -0.9401481354,
				"z": -3.5305249787,
				"element": "C" 
			},
			{
				"x": 1.4359249003,
				"y": -1.6565642419,
				"z": -2.4024067087,
				"element": "C" 
			},
			{
				"x": 0.7286192791,
				"y": -1.0053970532,
				"z": -1.3923649137,
				"element": "C" 
			},
			{
				"x": 0.4177870589,
				"y": 0.3591357589,
				"z": -1.4788518632,
				"element": "C" 
			},
			{
				"x": 0.8554603391,
				"y": 1.0658044209,
				"z": -2.6172457209,
				"element": "C" 
			},
			{
				"x": 1.5576992662,
				"y": 0.4302310384,
				"z": -3.6266444644,
				"element": "C" 
			},
			{
				"x": -0.3439620941,
				"y": 1.0291085483,
				"z": -0.4132488948,
				"element": "C" 
			},
			{
				"x": -0.9599570726,
				"y": 2.2330729574,
				"z": -0.4901736554,
				"element": "C" 
			},
			{
				"x": -1.6856824815,
				"y": 2.8323298516,
				"z": 0.6291038192,
				"element": "C" 
			},
			{
				"x": -2.2111351774,
				"y": 3.9409075332,
				"z": 0.5434991472,
				"element": "O" 
			},
			{
				"x": -1.7235117343,
				"y": 1.9812639626,
				"z": 1.8415411853,
				"element": "C" 
			},
			{
				"x": -2.3926428623,
				"y": 2.3414060304,
				"z": 3.0375975236,
				"element": "C" 
			},
			{
				"x": -3.0665722371,
				"y": 3.5080368559,
				"z": 3.1364463747,
				"element": "O" 
			},
			{
				"x": -2.3622190925,
				"y": 1.4839704204,
				"z": 4.1385071035,
				"element": "C" 
			},
			{
				"x": -3.0119770739,
				"y": 1.8558811148,
				"z": 5.3144326729,
				"element": "O" 
			},
			{
				"x": -2.1673784437,
				"y": 2.5989742418,
				"z": 6.2193810237,
				"element": "C" 
			},
			{
				"x": -1.7269481356,
				"y": 0.2354772798,
				"z": 4.077744066,
				"element": "C" 
			},
			{
				"x": -1.7574447337,
				"y": -0.5903381007,
				"z": 5.1541213447,
				"element": "O" 
			},
			{
				"x": -1.0683989559,
				"y": -0.150856145,
				"z": 2.9159299037,
				"element": "C" 
			},
			{
				"x": -1.0721323162,
				"y": 0.7304917885,
				"z": 1.8338230915,
				"element": "C" 
			},
			{
				"x": -0.3917529643,
				"y": 0.2832703511,
				"z": 0.7318149042,
				"element": "O" 
			},
			{
				"x": 3.4304597102,
				"y": -3.0518734365,
				"z": -5.454384678,
				"element": "H" 
			},
			{
				"x": 3.5248199688,
				"y": -3.0820483838,
				"z": -3.6731526605,
				"element": "H" 
			},
			{
				"x": 1.9880934709,
				"y": -3.4808457143,
				"z": -4.4963696573,
				"element": "H" 
			},
			{
				"x": 1.6512859468,
				"y": -2.7133521465,
				"z": -2.3000075735,
				"element": "H" 
			},
			{
				"x": 0.4073431551,
				"y": -1.5692811572,
				"z": -0.5245465105,
				"element": "H" 
			},
			{
				"x": 0.6592351989,
				"y": 2.1290507102,
				"z": -2.7051156664,
				"element": "H" 
			},
			{
				"x": 1.9001049679,
				"y": 0.9736637391,
				"z": -4.50088482,
				"element": "H" 
			},
			{
				"x": -0.9421054872,
				"y": 2.803589194,
				"z": -1.4096474979,
				"element": "H" 
			},
			{
				"x": -3.5660293077,
				"y": 3.4637289525,
				"z": 3.9685430258,
				"element": "H" 
			},
			{
				"x": -2.7810592905,
				"y": 2.8367359549,
				"z": 7.0905563737,
				"element": "H" 
			},
			{
				"x": -1.8138078658,
				"y": 3.5239068591,
				"z": 5.7514520722,
				"element": "H" 
			},
			{
				"x": -1.3035749451,
				"y": 1.9994793228,
				"z": 6.5270421036,
				"element": "H" 
			},
			{
				"x": -2.3877676103,
				"y": -0.2048316383,
				"z": 5.783816501,
				"element": "H" 
			},
			{
				"x": -0.5693723865,
				"y": -1.1091982531,
				"z": 2.8487855446,
				"element": "H" 
			}
		],
		 "valence_orbital": [ 
			{
				"type": "occ",
				"energy": -0.25958,
				"method": "rhf"
			},
			{
				"type": "occ",
				"energy": -0.22924,
				"method": "rhf"
			},
			{
				"type": "occ",
				"energy": -0.22459,
				"method": "rhf"
			},
			{
				"type": "occ",
				"energy": -0.22056,
				"method": "rhf"
			},
			{
				"type": "occ",
				"energy": -0.21222,
				"method": "rhf"
			},
			{
				"type": "unocc",
				"energy": -0.04988,
				"method": "rhf"
			},
			{
				"type": "unocc",
				"energy": -0.01571,
				"method": "rhf"
			},
			{
				"type": "unocc",
				"energy": -0.0087,
				"method": "rhf"
			},
			{
				"type": "unocc",
				"energy": 0.00643,
				"method": "rhf"
			},
			{
				"type": "unocc",
				"energy": 0.04203,
				"method": "rhf"
			}
		],
		"cosmo_sigma_profile": { 
			"-0.025": 0.0,
			"-0.024": 0.0,
			"-0.023": 0.0,
			"-0.022": 0.0,
			"-0.021": 0.0,
			"-0.02": 0.0,
			"-0.019": 0.0,
			"-0.018": 0.0,
			"-0.017": 0.0,
			"-0.016": 0.219715277399,
			"-0.015": 1.06374690806,
			"-0.014": 1.26991997695,
			"-0.013": 1.24304922464,
			"-0.012": 1.20014546883,
			"-0.011": 2.10135776678,
			"-0.01": 1.69558405676,
			"-0.009": 2.41177461469,
			"-0.008": 3.90754582485,
			"-0.007": 9.22066312023,
			"-0.006": 22.1823500883,
			"-0.005": 27.1601211309,
			"-0.004": 27.7260991677,
			"-0.003": 25.8637808131,
			"-0.002": 17.1180495011,
			"-0.001": 16.8156926719,
			"0.0": 25.0719206904,
			"0.001": 30.1509428831,
			"0.002": 25.7140976283,
			"0.003": 22.658495602,
			"0.004": 16.9406646121,
			"0.005": 7.48698462577,
			"0.006": 4.53226333269,
			"0.007": 5.10091788406,
			"0.008": 5.35335970459,
			"0.009": 5.72459289582,
			"0.01": 4.43270157451,
			"0.011": 3.15611591195,
			"0.012": 1.58841208015,
			"0.013": 3.48746990994,
			"0.014": 5.51644337926,
			"0.015": 3.04029280344,
			"0.016": 1.47111279765,
			"0.017": 1.50265091396,
			"0.018": 0.214389153063,
			"0.019": 0.0,
			"0.02": 0.0,
			"0.021": 0.0,
			"0.022": 0.0,
			"0.023": 0.0,
			"0.024": 0.0,
			"0.025": 0.0
		}
	}
}
