{
	 "smiles": "OC(=O)CSC1=NN=C(S)S1", 
	 "Tm": 441.15, 
	 "num_atms": 15, 
	 "gaussian": { 
		 "optdone": 1, 
		 "sigma_profile": "yes", 
		 "theory": "DFT", 
		 "functional": "B3LYP", 
		 "basiset": "6-31G**", 
		 "properties": { 
			 "R2extent": 4049.9502, 
			 "electric_dipole_moment_norm": 5.802262563, 
			 "electric_quadrupole_moment_norm": 25.7537610583, 
			 "total_energy": -1609.31360366, 
			 "HOMO_LUMO_gap": 0.18265, 
			 "cosmo_polarized_energy": -14.84, 
			 "cosmo_cavitation_energy": 25.13, 
			 "cosmo_dispersion_energy": -20.19, 
			 "cosmo_repulsion_energy": 1.49, 
			 "cosmo_total_nonelectrostatic_energy": 6.43, 
			 "SMD_solvation_energy": 3.16 
		},
		"coords": [
			{
				"x": -3.1754350103,
				"y": -2.1016864049,
				"z": 1.5073253244,
				"element": "O" 
			},
			{
				"x": -3.8774541764,
				"y": -0.9796998223,
				"z": 1.6827093138,
				"element": "C" 
			},
			{
				"x": -5.0180847728,
				"y": -0.9791830137,
				"z": 2.0815719005,
				"element": "O" 
			},
			{
				"x": -3.1459579328,
				"y": 0.3399289775,
				"z": 1.3877414048,
				"element": "C" 
			},
			{
				"x": -2.7606333253,
				"y": 0.6640399974,
				"z": -0.3890999778,
				"element": "S" 
			},
			{
				"x": -1.2808599964,
				"y": -0.2612094063,
				"z": -0.5782593869,
				"element": "C" 
			},
			{
				"x": -0.8987710789,
				"y": -1.2323701899,
				"z": 0.2082919966,
				"element": "N" 
			},
			{
				"x": 0.2968878592,
				"y": -1.8006086213,
				"z": -0.1434206429,
				"element": "N" 
			},
			{
				"x": 0.8042557062,
				"y": -1.2622480425,
				"z": -1.2129243922,
				"element": "C" 
			},
			{
				"x": 2.3172650791,
				"y": -1.7653446425,
				"z": -1.9631476017,
				"element": "S" 
			},
			{
				"x": -0.1565266093,
				"y": 0.0522796374,
				"z": -1.8911996151,
				"element": "S" 
			},
			{
				"x": -2.2652627681,
				"y": -1.9089768134,
				"z": 1.1699146093,
				"element": "H" 
			},
			{
				"x": -2.2110724173,
				"y": 0.4151694904,
				"z": 1.9501848984,
				"element": "H" 
			},
			{
				"x": -3.8113313003,
				"y": 1.1560121071,
				"z": 1.6703365454,
				"element": "H" 
			},
			{
				"x": 2.5231807433,
				"y": -2.7500032531,
				"z": -1.0654243764,
				"element": "H" 
			}
		],
		 "valence_orbital": [ 
			{
				"type": "occ",
				"energy": -0.31072,
				"method": "rhf"
			},
			{
				"type": "occ",
				"energy": -0.3057,
				"method": "rhf"
			},
			{
				"type": "occ",
				"energy": -0.29865,
				"method": "rhf"
			},
			{
				"type": "occ",
				"energy": -0.26837,
				"method": "rhf"
			},
			{
				"type": "occ",
				"energy": -0.25182,
				"method": "rhf"
			},
			{
				"type": "unocc",
				"energy": -0.06917,
				"method": "rhf"
			},
			{
				"type": "unocc",
				"energy": -0.04407,
				"method": "rhf"
			},
			{
				"type": "unocc",
				"energy": -0.0299,
				"method": "rhf"
			},
			{
				"type": "unocc",
				"energy": -0.01053,
				"method": "rhf"
			},
			{
				"type": "unocc",
				"energy": -0.00671,
				"method": "rhf"
			}
		],
		"cosmo_sigma_profile": { 
			"-0.025": 0.0,
			"-0.024": 0.0,
			"-0.023": 0.0,
			"-0.022": 0.0,
			"-0.021": 0.0,
			"-0.02": 0.0,
			"-0.019": 0.0,
			"-0.018": 0.0,
			"-0.017": 0.0,
			"-0.016": 0.0,
			"-0.015": 0.0,
			"-0.014": 0.0,
			"-0.013": 0.738894974789,
			"-0.012": 2.0011607152,
			"-0.011": 1.18231905109,
			"-0.01": 2.52466593077,
			"-0.009": 5.48690005354,
			"-0.008": 6.32206009152,
			"-0.007": 7.99349415221,
			"-0.006": 9.32901098378,
			"-0.005": 10.3059603454,
			"-0.004": 12.9307624138,
			"-0.003": 17.0739937675,
			"-0.002": 18.0266603773,
			"-0.001": 15.4376070898,
			"0.0": 15.6769763747,
			"0.001": 13.6197835939,
			"0.002": 9.38814587819,
			"0.003": 8.58151697586,
			"0.004": 9.27486379563,
			"0.005": 6.64715002864,
			"0.006": 3.89764097916,
			"0.007": 4.06899814166,
			"0.008": 3.37141073358,
			"0.009": 3.93204705788,
			"0.01": 5.60147283149,
			"0.011": 7.32532049285,
			"0.012": 6.19788190139,
			"0.013": 2.15389696007,
			"0.014": 0.0576088002001,
			"0.015": 0.0,
			"0.016": 0.0,
			"0.017": 0.0,
			"0.018": 0.0,
			"0.019": 0.0,
			"0.02": 0.0,
			"0.021": 0.0,
			"0.022": 0.0,
			"0.023": 0.0,
			"0.024": 0.0,
			"0.025": 0.0
		}
	}
}
