{
	 "smiles": "OC(=O)C=CC1=CC=C(C=CC(O)=O)C=C1", 
	 "Tm": 573.15, 
	 "num_atms": 26, 
	 "gaussian": { 
		 "optdone": 1, 
		 "sigma_profile": "yes", 
		 "theory": "DFT", 
		 "functional": "B3LYP", 
		 "basiset": "6-31G**", 
		 "properties": { 
			 "R2extent": 6703.226, 
			 "electric_dipole_moment_norm": 4.0868963016, 
			 "electric_quadrupole_moment_norm": 40.6361846345, 
			 "total_energy": -764.186946081, 
			 "HOMO_LUMO_gap": 0.14601, 
			 "cosmo_polarized_energy": -23.29, 
			 "cosmo_cavitation_energy": 32.46, 
			 "cosmo_dispersion_energy": -23.23, 
			 "cosmo_repulsion_energy": 1.82, 
			 "cosmo_total_nonelectrostatic_energy": 11.04, 
			 "SMD_solvation_energy": 8.19 
		},
		"coords": [
			{
				"x": 1.6196677571,
				"y": 2.8895764593,
				"z": 0.1867379377,
				"element": "O" 
			},
			{
				"x": 0.77510979,
				"y": 3.9114161199,
				"z": -0.1012372659,
				"element": "C" 
			},
			{
				"x": 1.1469442517,
				"y": 5.0695825547,
				"z": -0.0926071878,
				"element": "O" 
			},
			{
				"x": -0.6013990734,
				"y": 3.5252173436,
				"z": -0.4753272971,
				"element": "C" 
			},
			{
				"x": -1.2606973823,
				"y": 2.3471875329,
				"z": -0.4352258482,
				"element": "C" 
			},
			{
				"x": -0.9285656262,
				"y": 1.0136355496,
				"z": 0.0847734111,
				"element": "C" 
			},
			{
				"x": -0.1061389819,
				"y": 0.7715880323,
				"z": 1.1987080721,
				"element": "C" 
			},
			{
				"x": 0.1096278341,
				"y": -0.5248557621,
				"z": 1.6488069748,
				"element": "C" 
			},
			{
				"x": -0.4765650379,
				"y": -1.6347878858,
				"z": 1.0117036173,
				"element": "C" 
			},
			{
				"x": -0.197188967,
				"y": -2.9698807509,
				"z": 1.5334657094,
				"element": "C" 
			},
			{
				"x": -0.6269590586,
				"y": -4.1538926565,
				"z": 1.0586614834,
				"element": "C" 
			},
			{
				"x": -0.222667984,
				"y": -5.4093824885,
				"z": 1.7427473255,
				"element": "C" 
			},
			{
				"x": -0.6986528108,
				"y": -6.562283659,
				"z": 1.1936334068,
				"element": "O" 
			},
			{
				"x": 0.4814075191,
				"y": -5.4593480877,
				"z": 2.7260423311,
				"element": "O" 
			},
			{
				"x": -1.315947081,
				"y": -1.3900007462,
				"z": -0.0927433913,
				"element": "C" 
			},
			{
				"x": -1.5466787269,
				"y": -0.0956585981,
				"z": -0.5314320792,
				"element": "C" 
			},
			{
				"x": 2.4775978505,
				"y": 3.3083303664,
				"z": 0.3698952028,
				"element": "H" 
			},
			{
				"x": -1.1340982377,
				"y": 4.3779786684,
				"z": -0.8844841337,
				"element": "H" 
			},
			{
				"x": -2.2531932578,
				"y": 2.3824347389,
				"z": -0.8857437369,
				"element": "H" 
			},
			{
				"x": 0.3564412079,
				"y": 1.601181639,
				"z": 1.7158186058,
				"element": "H" 
			},
			{
				"x": 0.7428463125,
				"y": -0.6897880583,
				"z": 2.5162957165,
				"element": "H" 
			},
			{
				"x": 0.4408653571,
				"y": -3.0188085352,
				"z": 2.4146854848,
				"element": "H" 
			},
			{
				"x": -1.2651472552,
				"y": -4.2186459484,
				"z": 0.1796906694,
				"element": "H" 
			},
			{
				"x": -1.2415080233,
				"y": -6.3679057682,
				"z": 0.4172767454,
				"element": "H" 
			},
			{
				"x": -1.8017661239,
				"y": -2.2158406354,
				"z": -0.6028638988,
				"element": "H" 
			},
			{
				"x": -2.209834252,
				"y": 0.0712505752,
				"z": -1.3761778551,
				"element": "H" 
			}
		],
		 "valence_orbital": [ 
			{
				"type": "occ",
				"energy": -0.2898,
				"method": "rhf"
			},
			{
				"type": "occ",
				"energy": -0.28241,
				"method": "rhf"
			},
			{
				"type": "occ",
				"energy": -0.27267,
				"method": "rhf"
			},
			{
				"type": "occ",
				"energy": -0.27236,
				"method": "rhf"
			},
			{
				"type": "occ",
				"energy": -0.23933,
				"method": "rhf"
			},
			{
				"type": "unocc",
				"energy": -0.09332,
				"method": "rhf"
			},
			{
				"type": "unocc",
				"energy": -0.04787,
				"method": "rhf"
			},
			{
				"type": "unocc",
				"energy": -0.02102,
				"method": "rhf"
			},
			{
				"type": "unocc",
				"energy": 0.01919,
				"method": "rhf"
			},
			{
				"type": "unocc",
				"energy": 0.054,
				"method": "rhf"
			}
		],
		"cosmo_sigma_profile": { 
			"-0.025": 0.0,
			"-0.024": 0.0,
			"-0.023": 0.0,
			"-0.022": 0.0,
			"-0.021": 0.0,
			"-0.02": 0.0383173616206,
			"-0.019": 0.88095898865,
			"-0.018": 1.58590955632,
			"-0.017": 2.28714280241,
			"-0.016": 1.83286775415,
			"-0.015": 2.0144377074,
			"-0.014": 1.68830454408,
			"-0.013": 1.15841939353,
			"-0.012": 1.52151766244,
			"-0.011": 2.58948961489,
			"-0.01": 2.41948956202,
			"-0.009": 2.28493862925,
			"-0.008": 4.49870878466,
			"-0.007": 14.0887336836,
			"-0.006": 13.4763247354,
			"-0.005": 14.3196598216,
			"-0.004": 11.8817371138,
			"-0.003": 10.8743830337,
			"-0.002": 14.0984978234,
			"-0.001": 14.3517327335,
			"0.0": 16.9407765092,
			"0.001": 19.6136925534,
			"0.002": 20.5907872446,
			"0.003": 20.3741452311,
			"0.004": 9.27880953403,
			"0.005": 5.05374728378,
			"0.006": 4.5471888339,
			"0.007": 4.56068826134,
			"0.008": 6.19072191707,
			"0.009": 4.49361625984,
			"0.01": 6.00250854481,
			"0.011": 8.57134982725,
			"0.012": 10.9371619217,
			"0.013": 4.19107949167,
			"0.014": 0.494579466697,
			"0.015": 0.0,
			"0.016": 0.0,
			"0.017": 0.0,
			"0.018": 0.0,
			"0.019": 0.0,
			"0.02": 0.0,
			"0.021": 0.0,
			"0.022": 0.0,
			"0.023": 0.0,
			"0.024": 0.0,
			"0.025": 0.0
		}
	}
}
