{
	 "smiles": "NC(=O)CCC(NC(=O)CCC1CCCC1)C(O)=O", 
	 "Tm": 420.15, 
	 "num_atms": 41, 
	 "gaussian": { 
		 "optdone": 1, 
		 "sigma_profile": "yes", 
		 "theory": "DFT", 
		 "functional": "B3LYP", 
		 "basiset": "6-31G**", 
		 "properties": { 
			 "R2extent": 6609.8024, 
			 "electric_dipole_moment_norm": 5.49299373202, 
			 "electric_quadrupole_moment_norm": 19.5458395872, 
			 "total_energy": -919.104494142, 
			 "HOMO_LUMO_gap": 0.2315, 
			 "cosmo_polarized_energy": -26.46, 
			 "cosmo_cavitation_energy": 41.61, 
			 "cosmo_dispersion_energy": -27.86, 
			 "cosmo_repulsion_energy": 2.2, 
			 "cosmo_total_nonelectrostatic_energy": 15.94, 
			 "SMD_solvation_energy": 7.72 
		},
		"coords": [
			{
				"x": -3.3524098481,
				"y": 0.870671366,
				"z": -2.8002961902,
				"element": "N" 
			},
			{
				"x": -2.4528033912,
				"y": -0.0490653637,
				"z": -3.2509987599,
				"element": "C" 
			},
			{
				"x": -1.5424652963,
				"y": 0.2129658551,
				"z": -4.0274091507,
				"element": "O" 
			},
			{
				"x": -2.6516659429,
				"y": -1.4625876811,
				"z": -2.6944142475,
				"element": "C" 
			},
			{
				"x": -1.6891043267,
				"y": -1.7535719456,
				"z": -1.5294263468,
				"element": "C" 
			},
			{
				"x": -1.8691374035,
				"y": -0.8520511825,
				"z": -0.2859014442,
				"element": "C" 
			},
			{
				"x": -0.866623652,
				"y": -1.2085445158,
				"z": 0.7226683791,
				"element": "N" 
			},
			{
				"x": -0.4400366658,
				"y": -0.2423671649,
				"z": 1.6298614414,
				"element": "C" 
			},
			{
				"x": -1.0506407803,
				"y": 0.8066625016,
				"z": 1.7573442795,
				"element": "O" 
			},
			{
				"x": 0.7550315357,
				"y": -0.6316089044,
				"z": 2.4925587054,
				"element": "C" 
			},
			{
				"x": 1.6966778127,
				"y": 0.5449546772,
				"z": 2.8146558457,
				"element": "C" 
			},
			{
				"x": 2.7585835833,
				"y": 0.9042852495,
				"z": 1.7533291295,
				"element": "C" 
			},
			{
				"x": 2.2120267101,
				"y": 1.2627975115,
				"z": 0.3317730258,
				"element": "C" 
			},
			{
				"x": 2.7631298385,
				"y": 0.1818621363,
				"z": -0.6186944627,
				"element": "C" 
			},
			{
				"x": 4.1218770753,
				"y": -0.1771122065,
				"z": 0.0032010322,
				"element": "C" 
			},
			{
				"x": 3.8180792343,
				"y": -0.2128737147,
				"z": 1.5118422387,
				"element": "C" 
			},
			{
				"x": -3.2944065877,
				"y": -0.9597320796,
				"z": 0.2855453804,
				"element": "C" 
			},
			{
				"x": -3.4291668552,
				"y": -1.710122466,
				"z": 1.387335945,
				"element": "O" 
			},
			{
				"x": -4.2539176159,
				"y": -0.442473893,
				"z": -0.2477115583,
				"element": "O" 
			},
			{
				"x": -3.1961766623,
				"y": 1.8351520439,
				"z": -3.0549418499,
				"element": "H" 
			},
			{
				"x": -3.9425283725,
				"y": 0.6550736417,
				"z": -2.0036989425,
				"element": "H" 
			},
			{
				"x": -3.6870461727,
				"y": -1.6259857518,
				"z": -2.3867097876,
				"element": "H" 
			},
			{
				"x": -2.42005906,
				"y": -2.1559039508,
				"z": -3.5070878387,
				"element": "H" 
			},
			{
				"x": -1.7952153771,
				"y": -2.8038755152,
				"z": -1.2276993368,
				"element": "H" 
			},
			{
				"x": -0.6620257154,
				"y": -1.6149362303,
				"z": -1.8872627108,
				"element": "H" 
			},
			{
				"x": -1.7398597326,
				"y": 0.1983749513,
				"z": -0.5615217878,
				"element": "H" 
			},
			{
				"x": -0.1956794286,
				"y": -1.9204388166,
				"z": 0.4626653685,
				"element": "H" 
			},
			{
				"x": 0.327169817,
				"y": -1.002910189,
				"z": 3.4332871202,
				"element": "H" 
			},
			{
				"x": 1.2955569568,
				"y": -1.4772983432,
				"z": 2.0525098697,
				"element": "H" 
			},
			{
				"x": 2.219003916,
				"y": 0.3122800677,
				"z": 3.7505609262,
				"element": "H" 
			},
			{
				"x": 1.0675325047,
				"y": 1.418485261,
				"z": 3.0166254677,
				"element": "H" 
			},
			{
				"x": 3.276781509,
				"y": 1.7854690541,
				"z": 2.1495874011,
				"element": "H" 
			},
			{
				"x": 2.6049416371,
				"y": 2.2401376039,
				"z": 0.0298742289,
				"element": "H" 
			},
			{
				"x": 1.123519666,
				"y": 1.3528141283,
				"z": 0.3021858316,
				"element": "H" 
			},
			{
				"x": 2.1111199166,
				"y": -0.7034071076,
				"z": -0.6125106242,
				"element": "H" 
			},
			{
				"x": 2.8314072385,
				"y": 0.5189517836,
				"z": -1.6575155344,
				"element": "H" 
			},
			{
				"x": 4.8477523245,
				"y": 0.6160016448,
				"z": -0.2178431102,
				"element": "H" 
			},
			{
				"x": 4.5419899445,
				"y": -1.1155458234,
				"z": -0.3734131132,
				"element": "H" 
			},
			{
				"x": 4.7093321539,
				"y": -0.0758952918,
				"z": 2.1326088919,
				"element": "H" 
			},
			{
				"x": 3.4069239732,
				"y": -1.1965844318,
				"z": 1.7737801034,
				"element": "H" 
			},
			{
				"x": -2.5314684609,
				"y": -1.9687469081,
				"z": 1.6673561844,
				"element": "H" 
			}
		],
		 "valence_orbital": [ 
			{
				"type": "occ",
				"energy": -0.30763,
				"method": "rhf"
			},
			{
				"type": "occ",
				"energy": -0.28142,
				"method": "rhf"
			},
			{
				"type": "occ",
				"energy": -0.27277,
				"method": "rhf"
			},
			{
				"type": "occ",
				"energy": -0.25669,
				"method": "rhf"
			},
			{
				"type": "occ",
				"energy": -0.23886,
				"method": "rhf"
			},
			{
				"type": "unocc",
				"energy": -0.00736,
				"method": "rhf"
			},
			{
				"type": "unocc",
				"energy": -0.0053,
				"method": "rhf"
			},
			{
				"type": "unocc",
				"energy": 0.02662,
				"method": "rhf"
			},
			{
				"type": "unocc",
				"energy": 0.03527,
				"method": "rhf"
			},
			{
				"type": "unocc",
				"energy": 0.07534,
				"method": "rhf"
			}
		],
		"cosmo_sigma_profile": { 
			"-0.025": 0.0,
			"-0.024": 0.0,
			"-0.023": 0.0,
			"-0.022": 0.0,
			"-0.021": 0.0,
			"-0.02": 0.0,
			"-0.019": 0.0,
			"-0.018": 0.0,
			"-0.017": 0.0,
			"-0.016": 0.0,
			"-0.015": 0.510275647989,
			"-0.014": 1.70735836359,
			"-0.013": 3.31690739223,
			"-0.012": 2.88881485844,
			"-0.011": 4.34957828503,
			"-0.01": 5.07758886711,
			"-0.009": 4.23624804585,
			"-0.008": 5.27114224784,
			"-0.007": 6.22399370289,
			"-0.006": 10.5164013671,
			"-0.005": 15.9749339355,
			"-0.004": 18.7705538563,
			"-0.003": 22.4358101352,
			"-0.002": 33.7844817527,
			"-0.001": 36.9637295141,
			"0.0": 33.8916672709,
			"0.001": 24.5442366734,
			"0.002": 16.611466858,
			"0.003": 5.73322923714,
			"0.004": 6.2648618345,
			"0.005": 6.66772307888,
			"0.006": 6.94026761571,
			"0.007": 5.00404113541,
			"0.008": 6.15614790882,
			"0.009": 6.15389735012,
			"0.01": 7.06383272135,
			"0.011": 4.38578432638,
			"0.012": 6.42283229104,
			"0.013": 5.5696892767,
			"0.014": 6.12985965892,
			"0.015": 3.29421046071,
			"0.016": 0.129383813174,
			"0.017": 0.0,
			"0.018": 0.0,
			"0.019": 0.0,
			"0.02": 0.0,
			"0.021": 0.0,
			"0.022": 0.0,
			"0.023": 0.0,
			"0.024": 0.0,
			"0.025": 0.0
		}
	}
}
