{
	 "smiles": "CN1CCN(C(C1)C1=CC=CC=C1)S(N)(=O)=O", 
	 "Tm": 383.15, 
	 "num_atms": 34, 
	 "gaussian": { 
		 "optdone": 1, 
		 "sigma_profile": "yes", 
		 "theory": "DFT", 
		 "functional": "B3LYP", 
		 "basiset": "6-31G**", 
		 "properties": { 
			 "R2extent": 4403.4575, 
			 "electric_dipole_moment_norm": 3.30987221808, 
			 "electric_quadrupole_moment_norm": 19.5123710274, 
			 "total_energy": -1142.21280629, 
			 "HOMO_LUMO_gap": 0.20145, 
			 "cosmo_polarized_energy": -17.28, 
			 "cosmo_cavitation_energy": 36.0, 
			 "cosmo_dispersion_energy": -25.43, 
			 "cosmo_repulsion_energy": 1.92, 
			 "cosmo_total_nonelectrostatic_energy": 12.5, 
			 "SMD_solvation_energy": 2.84 
		},
		"coords": [
			{
				"x": 0.9224894024,
				"y": -1.3730462986,
				"z": -2.5073249232,
				"element": "C" 
			},
			{
				"x": -0.0751795544,
				"y": -0.363338933,
				"z": -2.1831808321,
				"element": "N" 
			},
			{
				"x": -1.2623297413,
				"y": -0.94086067,
				"z": -1.5527769377,
				"element": "C" 
			},
			{
				"x": -2.0587989963,
				"y": 0.1226056445,
				"z": -0.8067780987,
				"element": "C" 
			},
			{
				"x": -1.2342935981,
				"y": 0.6494131472,
				"z": 0.3032325383,
				"element": "N" 
			},
			{
				"x": 0.2105927835,
				"y": 0.8702023648,
				"z": 0.0287111377,
				"element": "C" 
			},
			{
				"x": 0.4165168431,
				"y": 0.8371196434,
				"z": -1.5072665015,
				"element": "C" 
			},
			{
				"x": 1.1097336441,
				"y": -0.0968355874,
				"z": 0.799516921,
				"element": "C" 
			},
			{
				"x": 0.6049185615,
				"y": -1.1414985006,
				"z": 1.5790084986,
				"element": "C" 
			},
			{
				"x": 1.4679465531,
				"y": -2.0007219195,
				"z": 2.2635002606,
				"element": "C" 
			},
			{
				"x": 2.8489263957,
				"y": -1.8233762445,
				"z": 2.1855019259,
				"element": "C" 
			},
			{
				"x": 3.363136344,
				"y": -0.7715023279,
				"z": 1.4236339898,
				"element": "C" 
			},
			{
				"x": 2.4997221413,
				"y": 0.0834720582,
				"z": 0.7405660961,
				"element": "C" 
			},
			{
				"x": -1.9820810581,
				"y": 1.7528829196,
				"z": 1.3032733013,
				"element": "S" 
			},
			{
				"x": -2.0821812401,
				"y": 3.1940546406,
				"z": 0.3915970716,
				"element": "N" 
			},
			{
				"x": -1.0615674024,
				"y": 2.0388072786,
				"z": 2.3988057831,
				"element": "O" 
			},
			{
				"x": -3.3469239819,
				"y": 1.2715528959,
				"z": 1.506455398,
				"element": "O" 
			},
			{
				"x": 1.7605810245,
				"y": -0.9104886831,
				"z": -3.0374391972,
				"element": "H" 
			},
			{
				"x": 0.4763848571,
				"y": -2.1135236093,
				"z": -3.181833395,
				"element": "H" 
			},
			{
				"x": 1.320021114,
				"y": -1.9121777267,
				"z": -1.6302347738,
				"element": "H" 
			},
			{
				"x": -0.9992586327,
				"y": -1.7406205635,
				"z": -0.8380872861,
				"element": "H" 
			},
			{
				"x": -1.9057449564,
				"y": -1.3948836197,
				"z": -2.3188895362,
				"element": "H" 
			},
			{
				"x": -2.9611599148,
				"y": -0.3143940158,
				"z": -0.3777287447,
				"element": "H" 
			},
			{
				"x": -2.3581806196,
				"y": 0.9207188104,
				"z": -1.5022677316,
				"element": "H" 
			},
			{
				"x": 0.4713449275,
				"y": 1.8850613683,
				"z": 0.351122701,
				"element": "H" 
			},
			{
				"x": -0.0954272868,
				"y": 1.7211558491,
				"z": -1.91159188,
				"element": "H" 
			},
			{
				"x": 1.4787023254,
				"y": 0.9605296327,
				"z": -1.7314261708,
				"element": "H" 
			},
			{
				"x": -0.4687588939,
				"y": -1.269331246,
				"z": 1.6582434137,
				"element": "H" 
			},
			{
				"x": 1.0556461762,
				"y": -2.8061758834,
				"z": 2.8649072797,
				"element": "H" 
			},
			{
				"x": 3.5191071363,
				"y": -2.4904127821,
				"z": 2.7200267317,
				"element": "H" 
			},
			{
				"x": 4.4364268672,
				"y": -0.6129705354,
				"z": 1.365762187,
				"element": "H" 
			},
			{
				"x": 2.9145193944,
				"y": 0.9067023463,
				"z": 0.1627520928,
				"element": "H" 
			},
			{
				"x": -1.6827141964,
				"y": 3.9504554319,
				"z": 0.9406200684,
				"element": "H" 
			},
			{
				"x": -3.056516418,
				"y": 3.387625115,
				"z": 0.1757886123,
				"element": "H" 
			}
		],
		 "valence_orbital": [ 
			{
				"type": "occ",
				"energy": -0.29563,
				"method": "rhf"
			},
			{
				"type": "occ",
				"energy": -0.25587,
				"method": "rhf"
			},
			{
				"type": "occ",
				"energy": -0.24704,
				"method": "rhf"
			},
			{
				"type": "occ",
				"energy": -0.24423,
				"method": "rhf"
			},
			{
				"type": "occ",
				"energy": -0.20482,
				"method": "rhf"
			},
			{
				"type": "unocc",
				"energy": -0.00337,
				"method": "rhf"
			},
			{
				"type": "unocc",
				"energy": 0.00217,
				"method": "rhf"
			},
			{
				"type": "unocc",
				"energy": 0.04428,
				"method": "rhf"
			},
			{
				"type": "unocc",
				"energy": 0.0817,
				"method": "rhf"
			},
			{
				"type": "unocc",
				"energy": 0.08876,
				"method": "rhf"
			}
		],
		"cosmo_sigma_profile": { 
			"-0.025": 0.0,
			"-0.024": 0.0,
			"-0.023": 0.0,
			"-0.022": 0.0,
			"-0.021": 0.0,
			"-0.02": 0.0,
			"-0.019": 0.0,
			"-0.018": 0.0,
			"-0.017": 0.0,
			"-0.016": 0.0,
			"-0.015": 0.446754169652,
			"-0.014": 2.42958271841,
			"-0.013": 2.54870238744,
			"-0.012": 2.12468764959,
			"-0.011": 2.49427242711,
			"-0.01": 2.37266258773,
			"-0.009": 1.59571967354,
			"-0.008": 1.78625208906,
			"-0.007": 3.07320179586,
			"-0.006": 10.3472292851,
			"-0.005": 17.0788888104,
			"-0.004": 27.070169362,
			"-0.003": 29.5284615723,
			"-0.002": 24.7078327176,
			"-0.001": 22.2686029195,
			"0.0": 19.8731967665,
			"0.001": 14.9457000107,
			"0.002": 12.1618977694,
			"0.003": 12.7571782347,
			"0.004": 11.7165374542,
			"0.005": 12.2685292366,
			"0.006": 10.303817094,
			"0.007": 6.90226589323,
			"0.008": 4.40436495106,
			"0.009": 4.77095822235,
			"0.01": 9.63954386368,
			"0.011": 9.12967828916,
			"0.012": 2.18273873348,
			"0.013": 0.341373317477,
			"0.014": 0.757984809328,
			"0.015": 0.351604885917,
			"0.016": 0.0414749258723,
			"0.017": 0.0,
			"0.018": 0.0,
			"0.019": 0.0,
			"0.02": 0.0,
			"0.021": 0.0,
			"0.022": 0.0,
			"0.023": 0.0,
			"0.024": 0.0,
			"0.025": 0.0
		}
	}
}
