{
	 "smiles": "FC(F)(F)C1=NN(CN2CCN(CN3N=C(N(N=CC4=CC=C5OCOC5=C4)C3=S)C(F)(F)F)CC2)C(=S)N1N=CC1=CC2=C(OCO2)C=C1", 
	 "Tm": 429.15, 
	 "num_atms": 74, 
	 "gaussian": { 
		 "optdone": 1, 
		 "sigma_profile": "yes", 
		 "theory": "DFT", 
		 "functional": "B3LYP", 
		 "basiset": "6-31G**", 
		 "properties": { 
			 "R2extent": 43169.1176, 
			 "electric_dipole_moment_norm": 2.97271862779, 
			 "electric_quadrupole_moment_norm": 35.2156817725, 
			 "total_energy": -3325.09012184, 
			 "HOMO_LUMO_gap": 0.14279, 
			 "cosmo_polarized_energy": -24.82, 
			 "cosmo_cavitation_energy": 85.34, 
			 "cosmo_dispersion_energy": -55.05, 
			 "cosmo_repulsion_energy": 3.85, 
			 "cosmo_total_nonelectrostatic_energy": 34.14, 
			 "SMD_solvation_energy": 11.49 
		},
		"coords": [
			{
				"x": -5.9548678435,
				"y": 0.5387594982,
				"z": 1.6901239578,
				"element": "F" 
			},
			{
				"x": -5.0655987943,
				"y": 1.5483984552,
				"z": 1.6642305403,
				"element": "C" 
			},
			{
				"x": -4.5790917648,
				"y": 1.7005929621,
				"z": 2.909688347,
				"element": "F" 
			},
			{
				"x": -5.7144895464,
				"y": 2.670951762,
				"z": 1.3267538278,
				"element": "F" 
			},
			{
				"x": -3.9627492669,
				"y": 1.2824751125,
				"z": 0.6746300652,
				"element": "C" 
			},
			{
				"x": -3.7072593405,
				"y": 2.0456412223,
				"z": -0.3413356804,
				"element": "N" 
			},
			{
				"x": -2.6457336957,
				"y": 1.4509279589,
				"z": -0.9566830056,
				"element": "N" 
			},
			{
				"x": -2.0739272316,
				"y": 2.0624926531,
				"z": -2.1601622426,
				"element": "C" 
			},
			{
				"x": -2.9912397362,
				"y": 1.9606859305,
				"z": -3.2813115678,
				"element": "N" 
			},
			{
				"x": -3.0733131837,
				"y": 0.6285252634,
				"z": -3.8785273979,
				"element": "C" 
			},
			{
				"x": -1.7732608679,
				"y": 0.2202708904,
				"z": -4.6274146397,
				"element": "C" 
			},
			{
				"x": -0.9762557246,
				"y": 1.4178391941,
				"z": -4.9001281136,
				"element": "N" 
			},
			{
				"x": 0.2854426343,
				"y": 1.1647101643,
				"z": -5.5431445172,
				"element": "C" 
			},
			{
				"x": 1.2904311501,
				"y": 0.7084047225,
				"z": -4.5785190759,
				"element": "N" 
			},
			{
				"x": 1.4449044031,
				"y": -0.6254991431,
				"z": -4.3394816164,
				"element": "N" 
			},
			{
				"x": 2.2720215742,
				"y": -0.6812601098,
				"z": -3.341485885,
				"element": "C" 
			},
			{
				"x": 2.6591532775,
				"y": 0.5743377721,
				"z": -2.9159196869,
				"element": "N" 
			},
			{
				"x": 3.5513400992,
				"y": 0.6577138821,
				"z": -1.8719787932,
				"element": "N" 
			},
			{
				"x": 3.9102984871,
				"y": 1.8050592112,
				"z": -1.4040512879,
				"element": "C" 
			},
			{
				"x": 4.8585939573,
				"y": 1.8578744124,
				"z": -0.296072171,
				"element": "C" 
			},
			{
				"x": 5.2305080275,
				"y": 3.1164761282,
				"z": 0.2004989258,
				"element": "C" 
			},
			{
				"x": 6.1354611253,
				"y": 3.2537785177,
				"z": 1.2645016653,
				"element": "C" 
			},
			{
				"x": 6.6424334356,
				"y": 2.0852094901,
				"z": 1.7992239953,
				"element": "C" 
			},
			{
				"x": 7.5329176623,
				"y": 1.9428636628,
				"z": 2.8255333743,
				"element": "O" 
			},
			{
				"x": 7.7110111908,
				"y": 0.5298611651,
				"z": 3.0111622038,
				"element": "C" 
			},
			{
				"x": 6.9351002443,
				"y": -0.1481369534,
				"z": 2.019728078,
				"element": "O" 
			},
			{
				"x": 6.2775113071,
				"y": 0.8258543465,
				"z": 1.3095208905,
				"element": "C" 
			},
			{
				"x": 5.3945352361,
				"y": 0.6710537984,
				"z": 0.2696253443,
				"element": "C" 
			},
			{
				"x": 2.0056174412,
				"y": 1.5110442422,
				"z": -3.7241383596,
				"element": "C" 
			},
			{
				"x": 2.0537660954,
				"y": 3.1851076192,
				"z": -3.7259991048,
				"element": "S" 
			},
			{
				"x": 2.7144897984,
				"y": -1.9673691433,
				"z": -2.6973327456,
				"element": "C" 
			},
			{
				"x": 4.053384644,
				"y": -2.1016826938,
				"z": -2.7252416453,
				"element": "F" 
			},
			{
				"x": 2.1764040124,
				"y": -3.006781416,
				"z": -3.3504550797,
				"element": "F" 
			},
			{
				"x": 2.3206985137,
				"y": -2.0247325965,
				"z": -1.4123163419,
				"element": "F" 
			},
			{
				"x": -1.7725767137,
				"y": 2.5215518618,
				"z": -5.4228122727,
				"element": "C" 
			},
			{
				"x": -2.7894382757,
				"y": 2.969645574,
				"z": -4.3254726903,
				"element": "C" 
			},
			{
				"x": -2.215936708,
				"y": 0.303605583,
				"z": -0.3327354823,
				"element": "C" 
			},
			{
				"x": -0.944056574,
				"y": -0.6938857187,
				"z": -0.7832800105,
				"element": "S" 
			},
			{
				"x": -3.1005568165,
				"y": 0.2047575862,
				"z": 0.747861237,
				"element": "N" 
			},
			{
				"x": -3.2729689133,
				"y": -0.6922806939,
				"z": 1.7773154625,
				"element": "N" 
			},
			{
				"x": -2.4817795951,
				"y": -1.7018470437,
				"z": 1.9138891492,
				"element": "C" 
			},
			{
				"x": -2.692332193,
				"y": -2.6369837673,
				"z": 3.0170193285,
				"element": "C" 
			},
			{
				"x": -1.8001698404,
				"y": -3.7319843888,
				"z": 3.1339780979,
				"element": "C" 
			},
			{
				"x": -2.0117282971,
				"y": -4.6065125954,
				"z": 4.1764367461,
				"element": "C" 
			},
			{
				"x": -3.0549082822,
				"y": -4.4323579616,
				"z": 5.0847844925,
				"element": "C" 
			},
			{
				"x": -3.030219507,
				"y": -5.432296649,
				"z": 6.0171761895,
				"element": "O" 
			},
			{
				"x": -1.957797036,
				"y": -6.3079477032,
				"z": 5.6354792936,
				"element": "C" 
			},
			{
				"x": -1.2905032731,
				"y": -5.7267663818,
				"z": 4.5103828195,
				"element": "O" 
			},
			{
				"x": -3.9389238942,
				"y": -3.3695047548,
				"z": 4.9921927694,
				"element": "C" 
			},
			{
				"x": -3.741392502,
				"y": -2.4702897712,
				"z": 3.9388236245,
				"element": "C" 
			},
			{
				"x": -1.9134246414,
				"y": 3.1188280576,
				"z": -1.9355624025,
				"element": "H" 
			},
			{
				"x": -1.1040187242,
				"y": 1.578428779,
				"z": -2.3051363046,
				"element": "H" 
			},
			{
				"x": -3.9229337839,
				"y": 0.6404632391,
				"z": -4.5708881193,
				"element": "H" 
			},
			{
				"x": -3.3061131203,
				"y": -0.1075489325,
				"z": -3.1043554178,
				"element": "H" 
			},
			{
				"x": -1.1761866357,
				"y": -0.4591398788,
				"z": -4.0135147088,
				"element": "H" 
			},
			{
				"x": -2.0304904245,
				"y": -0.3198302286,
				"z": -5.5591668241,
				"element": "H" 
			},
			{
				"x": 0.2519068756,
				"y": 0.3792796999,
				"z": -6.3130739759,
				"element": "H" 
			},
			{
				"x": 0.6658307884,
				"y": 2.0901531811,
				"z": -5.9786341033,
				"element": "H" 
			},
			{
				"x": 3.5347439958,
				"y": 2.7438222427,
				"z": -1.8048175333,
				"element": "H" 
			},
			{
				"x": 4.8054709545,
				"y": 4.0078228249,
				"z": -0.2509923589,
				"element": "H" 
			},
			{
				"x": 6.4251173485,
				"y": 4.2240934237,
				"z": 1.6504002653,
				"element": "H" 
			},
			{
				"x": 7.3597666433,
				"y": 0.2490025213,
				"z": 4.0118638448,
				"element": "H" 
			},
			{
				"x": 8.7705389497,
				"y": 0.2790861618,
				"z": 2.8855771707,
				"element": "H" 
			},
			{
				"x": 5.1089710584,
				"y": -0.3005528882,
				"z": -0.114337749,
				"element": "H" 
			},
			{
				"x": -2.3127865188,
				"y": 2.2428235366,
				"z": -6.3472719951,
				"element": "H" 
			},
			{
				"x": -1.1031775591,
				"y": 3.3488150978,
				"z": -5.6758649689,
				"element": "H" 
			},
			{
				"x": -3.7585226336,
				"y": 3.1841999719,
				"z": -4.7943354586,
				"element": "H" 
			},
			{
				"x": -2.4493117796,
				"y": 3.8942125288,
				"z": -3.8511946099,
				"element": "H" 
			},
			{
				"x": -1.6542139652,
				"y": -1.8894053852,
				"z": 1.2333855196,
				"element": "H" 
			},
			{
				"x": -0.9853582379,
				"y": -3.8739758271,
				"z": 2.4323013646,
				"element": "H" 
			},
			{
				"x": -1.2547862901,
				"y": -6.4052403878,
				"z": 6.4700076597,
				"element": "H" 
			},
			{
				"x": -2.3700195055,
				"y": -7.2861484302,
				"z": 5.3561166973,
				"element": "H" 
			},
			{
				"x": -4.7450729197,
				"y": -3.2458795924,
				"z": 5.7061836868,
				"element": "H" 
			},
			{
				"x": -4.4047787738,
				"y": -1.6214608727,
				"z": 3.8170493091,
				"element": "H" 
			}
		],
		 "valence_orbital": [ 
			{
				"type": "occ",
				"energy": -0.22414,
				"method": "rhf"
			},
			{
				"type": "occ",
				"energy": -0.21821,
				"method": "rhf"
			},
			{
				"type": "occ",
				"energy": -0.21098,
				"method": "rhf"
			},
			{
				"type": "occ",
				"energy": -0.20893,
				"method": "rhf"
			},
			{
				"type": "occ",
				"energy": -0.20886,
				"method": "rhf"
			},
			{
				"type": "unocc",
				"energy": -0.06607,
				"method": "rhf"
			},
			{
				"type": "unocc",
				"energy": -0.06464,
				"method": "rhf"
			},
			{
				"type": "unocc",
				"energy": -0.01852,
				"method": "rhf"
			},
			{
				"type": "unocc",
				"energy": -0.01672,
				"method": "rhf"
			},
			{
				"type": "unocc",
				"energy": -0.00898,
				"method": "rhf"
			}
		],
		"cosmo_sigma_profile": { 
			"-0.025": 0.0,
			"-0.024": 0.0,
			"-0.023": 0.0,
			"-0.022": 0.0,
			"-0.021": 0.0,
			"-0.02": 0.0,
			"-0.019": 0.0,
			"-0.018": 0.0,
			"-0.017": 0.0,
			"-0.016": 0.0,
			"-0.015": 0.0,
			"-0.014": 0.0,
			"-0.013": 0.0,
			"-0.012": 0.0,
			"-0.011": 0.0,
			"-0.01": 0.0,
			"-0.009": 0.585404784863,
			"-0.008": 18.6205571324,
			"-0.007": 26.6489431196,
			"-0.006": 32.8851540403,
			"-0.005": 37.9656152717,
			"-0.004": 41.9447682606,
			"-0.003": 51.3406244431,
			"-0.002": 47.5554588201,
			"-0.001": 47.8741756999,
			"0.0": 45.4668795845,
			"0.001": 68.1335443931,
			"0.002": 97.3799412681,
			"0.003": 52.2546748765,
			"0.004": 28.3903219837,
			"0.005": 21.6788268086,
			"0.006": 17.3382322249,
			"0.007": 17.3083317102,
			"0.008": 16.6281032104,
			"0.009": 12.3667092295,
			"0.01": 2.96862330566,
			"0.011": 1.66721697343,
			"0.012": 1.13889622059,
			"0.013": 0.695725186262,
			"0.014": 0.439017747054,
			"0.015": 0.0,
			"0.016": 0.0,
			"0.017": 0.0,
			"0.018": 0.0,
			"0.019": 0.0,
			"0.02": 0.0,
			"0.021": 0.0,
			"0.022": 0.0,
			"0.023": 0.0,
			"0.024": 0.0,
			"0.025": 0.0
		}
	}
}
