{
	 "smiles": "OCCN(CCO)C1=NC(N2CCCCC2)=C2N=C(N=C(N3CCCCC3)C2=N1)N(CCO)CCO", 
	 "Tm": 436.15, 
	 "num_atms": 76, 
	 "gaussian": { 
		 "optdone": 1, 
		 "sigma_profile": "yes", 
		 "theory": "DFT", 
		 "functional": "B3LYP", 
		 "basiset": "6-31G**", 
		 "properties": { 
			 "R2extent": 20036.8543, 
			 "electric_dipole_moment_norm": 4.45838652654, 
			 "electric_quadrupole_moment_norm": 16.3655247203, 
			 "total_energy": -1677.56877706, 
			 "HOMO_LUMO_gap": 0.13303, 
			 "cosmo_polarized_energy": -25.29, 
			 "cosmo_cavitation_energy": 70.19, 
			 "cosmo_dispersion_energy": -45.91, 
			 "cosmo_repulsion_energy": 3.46, 
			 "cosmo_total_nonelectrostatic_energy": 27.74, 
			 "SMD_solvation_energy": 7.39 
		},
		"coords": [
			{
				"x": -3.0704439924,
				"y": 1.5542365021,
				"z": -5.3777668905,
				"element": "O" 
			},
			{
				"x": -1.7140272708,
				"y": 1.6926942442,
				"z": -4.9563645793,
				"element": "C" 
			},
			{
				"x": -1.0850617202,
				"y": 0.3087945083,
				"z": -4.8024120632,
				"element": "C" 
			},
			{
				"x": -1.5148080741,
				"y": -0.4551069474,
				"z": -3.6362191253,
				"element": "N" 
			},
			{
				"x": -2.4453314851,
				"y": -1.564446098,
				"z": -3.8119630224,
				"element": "C" 
			},
			{
				"x": -3.9226611278,
				"y": -1.1784817954,
				"z": -3.8416750443,
				"element": "C" 
			},
			{
				"x": -4.3226839713,
				"y": -0.7497205092,
				"z": -2.5421094702,
				"element": "O" 
			},
			{
				"x": -0.9387739999,
				"y": -0.2070498125,
				"z": -2.404500183,
				"element": "C" 
			},
			{
				"x": -0.05386284,
				"y": 0.8178499319,
				"z": -2.3610716364,
				"element": "N" 
			},
			{
				"x": 0.5906465113,
				"y": 1.0734953159,
				"z": -1.2223437363,
				"element": "C" 
			},
			{
				"x": 1.466476267,
				"y": 2.1242575151,
				"z": -1.2430918764,
				"element": "N" 
			},
			{
				"x": 1.8157632885,
				"y": 2.7111641012,
				"z": -2.545231485,
				"element": "C" 
			},
			{
				"x": 3.0831989418,
				"y": 3.5583751087,
				"z": -2.4138202171,
				"element": "C" 
			},
			{
				"x": 2.8818489954,
				"y": 4.750367466,
				"z": -1.450880996,
				"element": "C" 
			},
			{
				"x": 1.7996507558,
				"y": 4.4259747481,
				"z": -0.4009450245,
				"element": "C" 
			},
			{
				"x": 1.7717290849,
				"y": 2.9348344513,
				"z": -0.0481163897,
				"element": "C" 
			},
			{
				"x": 0.3948874058,
				"y": 0.2167591747,
				"z": -0.0620781192,
				"element": "C" 
			},
			{
				"x": 1.212151594,
				"y": 0.266398696,
				"z": 1.0389858242,
				"element": "N" 
			},
			{
				"x": 1.0138536032,
				"y": -0.6957609513,
				"z": 1.9405756697,
				"element": "C" 
			},
			{
				"x": -0.0417257656,
				"y": -1.5431103027,
				"z": 1.9807587103,
				"element": "N" 
			},
			{
				"x": -0.9165213352,
				"y": -1.5330745908,
				"z": 0.9779766174,
				"element": "C" 
			},
			{
				"x": -2.0106685386,
				"y": -2.3320611046,
				"z": 1.112509784,
				"element": "N" 
			},
			{
				"x": -3.2687203494,
				"y": -2.1963744703,
				"z": 0.3632717962,
				"element": "C" 
			},
			{
				"x": -3.6980677734,
				"y": -3.5523233905,
				"z": -0.2199532971,
				"element": "C" 
			},
			{
				"x": -3.3882158311,
				"y": -4.7136882013,
				"z": 0.7560991117,
				"element": "C" 
			},
			{
				"x": -3.2626104128,
				"y": -4.1856632417,
				"z": 2.1904326488,
				"element": "C" 
			},
			{
				"x": -2.0909251409,
				"y": -3.1963724628,
				"z": 2.3026961716,
				"element": "C" 
			},
			{
				"x": -0.6362968111,
				"y": -0.7325036524,
				"z": -0.2111507228,
				"element": "C" 
			},
			{
				"x": -1.2959479231,
				"y": -0.9612372103,
				"z": -1.3715160662,
				"element": "N" 
			},
			{
				"x": 1.9341380348,
				"y": -0.8409397679,
				"z": 2.9599354697,
				"element": "N" 
			},
			{
				"x": 1.6727690942,
				"y": -1.7351621521,
				"z": 4.0814322743,
				"element": "C" 
			},
			{
				"x": 2.1389509236,
				"y": -3.1776858544,
				"z": 3.8344068384,
				"element": "C" 
			},
			{
				"x": 1.9396067446,
				"y": -3.995002238,
				"z": 4.9810021909,
				"element": "O" 
			},
			{
				"x": 3.241267793,
				"y": -0.1846744248,
				"z": 2.9084779733,
				"element": "C" 
			},
			{
				"x": 3.2660548864,
				"y": 1.196769882,
				"z": 3.5651587819,
				"element": "C" 
			},
			{
				"x": 2.5052695818,
				"y": 2.1524733846,
				"z": 2.8540397241,
				"element": "O" 
			},
			{
				"x": -3.505914965,
				"y": 2.4079897904,
				"z": -5.2693928521,
				"element": "H" 
			},
			{
				"x": -1.6361017155,
				"y": 2.2269496489,
				"z": -4.0022052947,
				"element": "H" 
			},
			{
				"x": -1.1322486018,
				"y": 2.2508675697,
				"z": -5.7085158779,
				"element": "H" 
			},
			{
				"x": -1.3256111871,
				"y": -0.2779147033,
				"z": -5.6954872243,
				"element": "H" 
			},
			{
				"x": 0.0004721711,
				"y": 0.4397371335,
				"z": -4.7672885745,
				"element": "H" 
			},
			{
				"x": -2.2772490762,
				"y": -2.2759887979,
				"z": -3.0020265395,
				"element": "H" 
			},
			{
				"x": -2.2109676628,
				"y": -2.0667803183,
				"z": -4.7599673205,
				"element": "H" 
			},
			{
				"x": -4.0729122945,
				"y": -0.3851609954,
				"z": -4.5824284073,
				"element": "H" 
			},
			{
				"x": -4.4968364472,
				"y": -2.0673787961,
				"z": -4.1559899684,
				"element": "H" 
			},
			{
				"x": -5.1341786436,
				"y": -0.2377876846,
				"z": -2.6359514836,
				"element": "H" 
			},
			{
				"x": 1.9645710124,
				"y": 1.8935892113,
				"z": -3.253651453,
				"element": "H" 
			},
			{
				"x": 0.9862842981,
				"y": 3.315427179,
				"z": -2.9436150762,
				"element": "H" 
			},
			{
				"x": 3.8905541556,
				"y": 2.9120446931,
				"z": -2.0499327633,
				"element": "H" 
			},
			{
				"x": 3.3856018298,
				"y": 3.9050190839,
				"z": -3.40787395,
				"element": "H" 
			},
			{
				"x": 3.830899931,
				"y": 4.9859047851,
				"z": -0.956685552,
				"element": "H" 
			},
			{
				"x": 2.5923029739,
				"y": 5.6479030059,
				"z": -2.0092659039,
				"element": "H" 
			},
			{
				"x": 0.8110077243,
				"y": 4.7163022147,
				"z": -0.7769156276,
				"element": "H" 
			},
			{
				"x": 1.9644412566,
				"y": 4.9948822882,
				"z": 0.519774955,
				"element": "H" 
			},
			{
				"x": 0.9976397807,
				"y": 2.7564610994,
				"z": 0.6974721137,
				"element": "H" 
			},
			{
				"x": 2.7229843395,
				"y": 2.6357871826,
				"z": 0.4015665815,
				"element": "H" 
			},
			{
				"x": -3.1571946893,
				"y": -1.4642294198,
				"z": -0.4294522355,
				"element": "H" 
			},
			{
				"x": -4.0339448426,
				"y": -1.8311238852,
				"z": 1.0640067462,
				"element": "H" 
			},
			{
				"x": -4.7700165291,
				"y": -3.501933319,
				"z": -0.442516372,
				"element": "H" 
			},
			{
				"x": -3.1837394464,
				"y": -3.7142812462,
				"z": -1.1723895775,
				"element": "H" 
			},
			{
				"x": -4.1576924613,
				"y": -5.4907764739,
				"z": 0.6960325401,
				"element": "H" 
			},
			{
				"x": -2.441298658,
				"y": -5.1918633277,
				"z": 0.4764894632,
				"element": "H" 
			},
			{
				"x": -4.2019232661,
				"y": -3.7071148408,
				"z": 2.4934338654,
				"element": "H" 
			},
			{
				"x": -3.0918545328,
				"y": -5.0026204536,
				"z": 2.9002098362,
				"element": "H" 
			},
			{
				"x": -1.1451112911,
				"y": -3.7416905413,
				"z": 2.3807964783,
				"element": "H" 
			},
			{
				"x": -2.1734880247,
				"y": -2.5871670182,
				"z": 3.2141188865,
				"element": "H" 
			},
			{
				"x": 2.1843608935,
				"y": -1.3441718805,
				"z": 4.9678866452,
				"element": "H" 
			},
			{
				"x": 0.5997343167,
				"y": -1.7350087018,
				"z": 4.289119682,
				"element": "H" 
			},
			{
				"x": 3.2154701191,
				"y": -3.1987397435,
				"z": 3.6335384756,
				"element": "H" 
			},
			{
				"x": 1.6273426868,
				"y": -3.5756441687,
				"z": 2.9473090005,
				"element": "H" 
			},
			{
				"x": 0.9868016549,
				"y": -4.0779271049,
				"z": 5.1162728722,
				"element": "H" 
			},
			{
				"x": 3.9658124666,
				"y": -0.8367499113,
				"z": 3.4103665828,
				"element": "H" 
			},
			{
				"x": 3.545711313,
				"y": -0.0923210381,
				"z": 1.8614433696,
				"element": "H" 
			},
			{
				"x": 2.9022204867,
				"y": 1.1088287628,
				"z": 4.6028932229,
				"element": "H" 
			},
			{
				"x": 4.310620469,
				"y": 1.5395167406,
				"z": 3.6212754975,
				"element": "H" 
			},
			{
				"x": 1.9710413119,
				"y": 1.6621581291,
				"z": 2.2000955977,
				"element": "H" 
			}
		],
		 "valence_orbital": [ 
			{
				"type": "occ",
				"energy": -0.23079,
				"method": "rhf"
			},
			{
				"type": "occ",
				"energy": -0.21568,
				"method": "rhf"
			},
			{
				"type": "occ",
				"energy": -0.2131,
				"method": "rhf"
			},
			{
				"type": "occ",
				"energy": -0.2117,
				"method": "rhf"
			},
			{
				"type": "occ",
				"energy": -0.16641,
				"method": "rhf"
			},
			{
				"type": "unocc",
				"energy": -0.03338,
				"method": "rhf"
			},
			{
				"type": "unocc",
				"energy": 0.012,
				"method": "rhf"
			},
			{
				"type": "unocc",
				"energy": 0.03602,
				"method": "rhf"
			},
			{
				"type": "unocc",
				"energy": 0.06639,
				"method": "rhf"
			},
			{
				"type": "unocc",
				"energy": 0.06962,
				"method": "rhf"
			}
		],
		"cosmo_sigma_profile": { 
			"-0.025": 0.0,
			"-0.024": 0.0,
			"-0.023": 0.0,
			"-0.022": 0.0,
			"-0.021": 0.0,
			"-0.02": 0.0,
			"-0.019": 0.0,
			"-0.018": 0.0,
			"-0.017": 0.0,
			"-0.016": 0.562022789474,
			"-0.015": 2.5798063617,
			"-0.014": 3.32377999546,
			"-0.013": 2.44693795622,
			"-0.012": 2.55929442111,
			"-0.011": 2.91326451583,
			"-0.01": 2.48119025256,
			"-0.009": 2.46717786788,
			"-0.008": 1.44108600134,
			"-0.007": 2.57151326118,
			"-0.006": 6.24429731785,
			"-0.005": 14.2254799985,
			"-0.004": 26.7580807396,
			"-0.003": 69.9434843335,
			"-0.002": 83.0044042411,
			"-0.001": 71.136191773,
			"0.0": 54.6919331318,
			"0.001": 42.9531555313,
			"0.002": 30.1763921862,
			"0.003": 23.8560567348,
			"0.004": 19.430279187,
			"0.005": 13.375070267,
			"0.006": 13.0729535629,
			"0.007": 10.3660781932,
			"0.008": 9.60249084456,
			"0.009": 6.87781494756,
			"0.01": 4.73748153073,
			"0.011": 5.23560530891,
			"0.012": 3.016602592,
			"0.013": 4.74378941253,
			"0.014": 4.6705746815,
			"0.015": 2.69719872857,
			"0.016": 0.612995596099,
			"0.017": 0.0,
			"0.018": 0.0,
			"0.019": 0.0,
			"0.02": 0.0,
			"0.021": 0.0,
			"0.022": 0.0,
			"0.023": 0.0,
			"0.024": 0.0,
			"0.025": 0.0
		}
	}
}
