{
	 "smiles": "CCOC(=O)C1=CNN=C1C(F)(F)F", 
	 "Tm": 419.15, 
	 "num_atms": 21, 
	 "gaussian": { 
		 "optdone": 1, 
		 "sigma_profile": "yes", 
		 "theory": "DFT", 
		 "functional": "B3LYP", 
		 "basiset": "6-31G**", 
		 "properties": { 
			 "R2extent": 3785.3134, 
			 "electric_dipole_moment_norm": 6.09544128427, 
			 "electric_quadrupole_moment_norm": 18.6107744135, 
			 "total_energy": -830.428858073, 
			 "HOMO_LUMO_gap": 0.2417, 
			 "cosmo_polarized_energy": -15.55, 
			 "cosmo_cavitation_energy": 27.4, 
			 "cosmo_dispersion_energy": -19.46, 
			 "cosmo_repulsion_energy": 1.52, 
			 "cosmo_total_nonelectrostatic_energy": 9.46, 
			 "SMD_solvation_energy": 6.35 
		},
		"coords": [
			{
				"x": 0.5847733529,
				"y": -3.2200006702,
				"z": 0.058367898,
				"element": "C" 
			},
			{
				"x": 0.5567245572,
				"y": -2.070989866,
				"z": -0.9382839105,
				"element": "C" 
			},
			{
				"x": -0.5739860238,
				"y": -1.1963777781,
				"z": -0.704413216,
				"element": "O" 
			},
			{
				"x": -0.3960217449,
				"y": -0.2227194663,
				"z": 0.2239079715,
				"element": "C" 
			},
			{
				"x": 0.632237337,
				"y": -0.0484465319,
				"z": 0.8440257054,
				"element": "O" 
			},
			{
				"x": -1.6149602687,
				"y": 0.5899653013,
				"z": 0.3686841062,
				"element": "C" 
			},
			{
				"x": -2.8095425781,
				"y": 0.4372488053,
				"z": -0.3173650095,
				"element": "C" 
			},
			{
				"x": -3.6350597919,
				"y": 1.4022674789,
				"z": 0.1430765962,
				"element": "N" 
			},
			{
				"x": -3.0743666319,
				"y": 2.186849018,
				"z": 1.0867142687,
				"element": "N" 
			},
			{
				"x": -1.8482904937,
				"y": 1.7004843837,
				"z": 1.2302971534,
				"element": "C" 
			},
			{
				"x": -0.9097084039,
				"y": 2.3357983687,
				"z": 2.2202825011,
				"element": "C" 
			},
			{
				"x": -0.5179664837,
				"y": 1.450466991,
				"z": 3.157029713,
				"element": "F" 
			},
			{
				"x": 0.195413313,
				"y": 2.8068702777,
				"z": 1.6112612494,
				"element": "F" 
			},
			{
				"x": -1.500302632,
				"y": 3.3661782444,
				"z": 2.8519082374,
				"element": "F" 
			},
			{
				"x": 1.4040542929,
				"y": -3.9037875426,
				"z": -0.1875286097,
				"element": "H" 
			},
			{
				"x": 0.7446935927,
				"y": -2.844814381,
				"z": 1.0719921048,
				"element": "H" 
			},
			{
				"x": -0.3525084744,
				"y": -3.7837287666,
				"z": 0.0317103899,
				"element": "H" 
			},
			{
				"x": 0.4144444796,
				"y": -2.4291177787,
				"z": -1.9607786754,
				"element": "H" 
			},
			{
				"x": 1.4741825384,
				"y": -1.4804331758,
				"z": -0.884567491,
				"element": "H" 
			},
			{
				"x": -3.1007268502,
				"y": -0.2752413287,
				"z": -1.0736574398,
				"element": "H" 
			},
			{
				"x": -4.5869830865,
				"y": 1.5874284171,
				"z": -0.1358635433,
				"element": "H" 
			}
		],
		 "valence_orbital": [ 
			{
				"type": "occ",
				"energy": -0.31853,
				"method": "rhf"
			},
			{
				"type": "occ",
				"energy": -0.30274,
				"method": "rhf"
			},
			{
				"type": "occ",
				"energy": -0.28994,
				"method": "rhf"
			},
			{
				"type": "occ",
				"energy": -0.27899,
				"method": "rhf"
			},
			{
				"type": "occ",
				"energy": -0.27675,
				"method": "rhf"
			},
			{
				"type": "unocc",
				"energy": -0.03505,
				"method": "rhf"
			},
			{
				"type": "unocc",
				"energy": -0.00922,
				"method": "rhf"
			},
			{
				"type": "unocc",
				"energy": 0.05825,
				"method": "rhf"
			},
			{
				"type": "unocc",
				"energy": 0.0968,
				"method": "rhf"
			},
			{
				"type": "unocc",
				"energy": 0.10669,
				"method": "rhf"
			}
		],
		"cosmo_sigma_profile": { 
			"-0.025": 0.0,
			"-0.024": 0.0,
			"-0.023": 0.0,
			"-0.022": 0.0,
			"-0.021": 0.0,
			"-0.02": 0.0,
			"-0.019": 0.179650560211,
			"-0.018": 1.69781201226,
			"-0.017": 2.18022317944,
			"-0.016": 0.779009424299,
			"-0.015": 1.13846799209,
			"-0.014": 1.14883816796,
			"-0.013": 1.43994092804,
			"-0.012": 0.811587972274,
			"-0.011": 2.24673737127,
			"-0.01": 2.63758850875,
			"-0.009": 1.73628036303,
			"-0.008": 1.71588035507,
			"-0.007": 2.03242687002,
			"-0.006": 3.55670819762,
			"-0.005": 6.4546947413,
			"-0.004": 11.8610554368,
			"-0.003": 14.4734076911,
			"-0.002": 16.0460058553,
			"-0.001": 20.5176177891,
			"0.0": 25.8723335193,
			"0.001": 12.4525657287,
			"0.002": 20.4964003568,
			"0.003": 25.9933622004,
			"0.004": 7.38701108637,
			"0.005": 6.40003649766,
			"0.006": 4.85883474792,
			"0.007": 4.03006308961,
			"0.008": 2.9756942331,
			"0.009": 3.34485540923,
			"0.01": 4.54710324726,
			"0.011": 4.27084029482,
			"0.012": 2.41114582186,
			"0.013": 0.783324157314,
			"0.014": 0.156827399717,
			"0.015": 0.0,
			"0.016": 0.0,
			"0.017": 0.0,
			"0.018": 0.0,
			"0.019": 0.0,
			"0.02": 0.0,
			"0.021": 0.0,
			"0.022": 0.0,
			"0.023": 0.0,
			"0.024": 0.0,
			"0.025": 0.0
		}
	}
}
