{
	 "smiles": "CS(=O)(=O)C1=CC=C(C=C1)C(O)C(CO)NC(=O)C(Cl)Cl", 
	 "Tm": 438.15, 
	 "num_atms": 36, 
	 "gaussian": { 
		 "optdone": 1, 
		 "sigma_profile": "yes", 
		 "theory": "DFT", 
		 "functional": "B3LYP", 
		 "basiset": "6-31G**", 
		 "properties": { 
			 "R2extent": 10510.44, 
			 "electric_dipole_moment_norm": 4.49284053356, 
			 "electric_quadrupole_moment_norm": 27.42605733, 
			 "total_energy": -2215.68886336, 
			 "HOMO_LUMO_gap": 0.21335, 
			 "cosmo_polarized_energy": -28.88, 
			 "cosmo_cavitation_energy": 44.71, 
			 "cosmo_dispersion_energy": -30.33, 
			 "cosmo_repulsion_energy": 2.3, 
			 "cosmo_total_nonelectrostatic_energy": 16.69, 
			 "SMD_solvation_energy": 7.01 
		},
		"coords": [
			{
				"x": -0.08446848,
				"y": 2.804998013,
				"z": 4.8335439779,
				"element": "C" 
			},
			{
				"x": -0.3505874904,
				"y": 1.0435710192,
				"z": 4.5185578899,
				"element": "S" 
			},
			{
				"x": 0.7806590695,
				"y": 0.3127833015,
				"z": 5.110233443,
				"element": "O" 
			},
			{
				"x": -1.7396737386,
				"y": 0.7333344265,
				"z": 4.8896551534,
				"element": "O" 
			},
			{
				"x": -0.2158252635,
				"y": 0.9074656845,
				"z": 2.727309836,
				"element": "C" 
			},
			{
				"x": -1.3574552198,
				"y": 1.0610522276,
				"z": 1.9397336529,
				"element": "C" 
			},
			{
				"x": -1.2486958041,
				"y": 0.9560723512,
				"z": 0.5539053885,
				"element": "C" 
			},
			{
				"x": -0.0089573887,
				"y": 0.6942148661,
				"z": -0.0467081651,
				"element": "C" 
			},
			{
				"x": 1.1252652789,
				"y": 0.5448704617,
				"z": 0.7650592142,
				"element": "C" 
			},
			{
				"x": 1.0274760485,
				"y": 0.6426260397,
				"z": 2.1524401606,
				"element": "C" 
			},
			{
				"x": 0.120913969,
				"y": 0.5440740323,
				"z": -1.5500800716,
				"element": "C" 
			},
			{
				"x": -0.9159893787,
				"y": 1.3186012017,
				"z": -2.1672213937,
				"element": "O" 
			},
			{
				"x": 0.0413299502,
				"y": -0.9370250782,
				"z": -2.0467516485,
				"element": "C" 
			},
			{
				"x": -1.294363914,
				"y": -1.6351871964,
				"z": -1.7323365413,
				"element": "C" 
			},
			{
				"x": -2.3833883995,
				"y": -1.0517082847,
				"z": -2.4170928392,
				"element": "O" 
			},
			{
				"x": 1.157452082,
				"y": -1.717123608,
				"z": -1.5295684956,
				"element": "N" 
			},
			{
				"x": 2.2740981934,
				"y": -1.9433729895,
				"z": -2.2653394663,
				"element": "C" 
			},
			{
				"x": 2.4711432689,
				"y": -1.5172665889,
				"z": -3.3931511949,
				"element": "O" 
			},
			{
				"x": 3.3888638573,
				"y": -2.7677668676,
				"z": -1.5912294041,
				"element": "C" 
			},
			{
				"x": 2.7785788145,
				"y": -4.1823649834,
				"z": -0.6570834095,
				"element": "Cl" 
			},
			{
				"x": 4.3902583204,
				"y": -1.6851489255,
				"z": -0.5494586157,
				"element": "Cl" 
			},
			{
				"x": -0.859672611,
				"y": 3.3821957436,
				"z": 4.3278008872,
				"element": "H" 
			},
			{
				"x": -0.1584928799,
				"y": 2.9348887325,
				"z": 5.9152833729,
				"element": "H" 
			},
			{
				"x": 0.9097449315,
				"y": 3.0868276818,
				"z": 4.484276783,
				"element": "H" 
			},
			{
				"x": -2.3179732678,
				"y": 1.2402871302,
				"z": 2.4113524269,
				"element": "H" 
			},
			{
				"x": -2.1298695796,
				"y": 1.0844478411,
				"z": -0.0640240708,
				"element": "H" 
			},
			{
				"x": 2.0931439886,
				"y": 0.351977694,
				"z": 0.311789565,
				"element": "H" 
			},
			{
				"x": 1.8977838922,
				"y": 0.5050577364,
				"z": 2.785375918,
				"element": "H" 
			},
			{
				"x": 1.1050218551,
				"y": 0.926829465,
				"z": -1.8529696325,
				"element": "H" 
			},
			{
				"x": -0.7342221823,
				"y": 1.3578641758,
				"z": -3.1162804039,
				"element": "H" 
			},
			{
				"x": 0.1666311289,
				"y": -0.9140335719,
				"z": -3.1342058201,
				"element": "H" 
			},
			{
				"x": -1.4567746626,
				"y": -1.6500431508,
				"z": -0.6411671876,
				"element": "H" 
			},
			{
				"x": -1.2253814789,
				"y": -2.6759059332,
				"z": -2.0650037108,
				"element": "H" 
			},
			{
				"x": -2.3214776568,
				"y": -0.0944315489,
				"z": -2.2761677193,
				"element": "H" 
			},
			{
				"x": 1.0869045706,
				"y": -2.1248765974,
				"z": -0.606686551,
				"element": "H" 
			},
			{
				"x": 4.0416001766,
				"y": -3.1464845009,
				"z": -2.3728913278,
				"element": "H" 
			}
		],
		 "valence_orbital": [ 
			{
				"type": "occ",
				"energy": -0.28955,
				"method": "rhf"
			},
			{
				"type": "occ",
				"energy": -0.28612,
				"method": "rhf"
			},
			{
				"type": "occ",
				"energy": -0.28245,
				"method": "rhf"
			},
			{
				"type": "occ",
				"energy": -0.28026,
				"method": "rhf"
			},
			{
				"type": "occ",
				"energy": -0.26549,
				"method": "rhf"
			},
			{
				"type": "unocc",
				"energy": -0.05214,
				"method": "rhf"
			},
			{
				"type": "unocc",
				"energy": -0.0464,
				"method": "rhf"
			},
			{
				"type": "unocc",
				"energy": -0.03344,
				"method": "rhf"
			},
			{
				"type": "unocc",
				"energy": -0.02783,
				"method": "rhf"
			},
			{
				"type": "unocc",
				"energy": 0.03633,
				"method": "rhf"
			}
		],
		"cosmo_sigma_profile": { 
			"-0.025": 0.0,
			"-0.024": 0.0,
			"-0.023": 0.0,
			"-0.022": 0.0,
			"-0.021": 0.0,
			"-0.02": 0.0,
			"-0.019": 0.0,
			"-0.018": 0.176845745807,
			"-0.017": 0.86331062246,
			"-0.016": 1.21790097403,
			"-0.015": 1.11579970301,
			"-0.014": 1.13034483341,
			"-0.013": 1.13017157954,
			"-0.012": 2.80547783676,
			"-0.011": 4.10843219402,
			"-0.01": 4.03350641636,
			"-0.009": 5.80878141306,
			"-0.008": 11.162582067,
			"-0.007": 16.5157174515,
			"-0.006": 19.6613033485,
			"-0.005": 21.8999935358,
			"-0.004": 25.7122607684,
			"-0.003": 23.4903838224,
			"-0.002": 19.4711620923,
			"-0.001": 19.7857544605,
			"0.0": 19.0064802768,
			"0.001": 20.5979063902,
			"0.002": 24.5119209887,
			"0.003": 25.4783407555,
			"0.004": 16.8197524683,
			"0.005": 5.65751294001,
			"0.006": 3.94834555227,
			"0.007": 6.35524077812,
			"0.008": 6.42586869536,
			"0.009": 6.08597317444,
			"0.01": 7.55602220933,
			"0.011": 14.1841195372,
			"0.012": 14.8395664629,
			"0.013": 3.54769296457,
			"0.014": 2.34812344821,
			"0.015": 0.761621878083,
			"0.016": 0.0,
			"0.017": 0.0,
			"0.018": 0.0,
			"0.019": 0.0,
			"0.02": 0.0,
			"0.021": 0.0,
			"0.022": 0.0,
			"0.023": 0.0,
			"0.024": 0.0,
			"0.025": 0.0
		}
	}
}
