{
	 "smiles": "CC1=CC=CC(CC2=CNC=N2)=C1C", 
	 "Tm": 387.15, 
	 "num_atms": 28, 
	 "gaussian": { 
		 "optdone": 1, 
		 "sigma_profile": "yes", 
		 "theory": "DFT", 
		 "functional": "B3LYP", 
		 "basiset": "6-31G**", 
		 "properties": { 
			 "R2extent": 3342.3312, 
			 "electric_dipole_moment_norm": 3.37350837705, 
			 "electric_quadrupole_moment_norm": 13.7669258773, 
			 "total_energy": -575.227722239, 
			 "HOMO_LUMO_gap": 0.22271, 
			 "cosmo_polarized_energy": -12.9, 
			 "cosmo_cavitation_energy": 30.6, 
			 "cosmo_dispersion_energy": -21.75, 
			 "cosmo_repulsion_energy": 1.71, 
			 "cosmo_total_nonelectrostatic_energy": 10.56, 
			 "SMD_solvation_energy": 3.81 
		},
		"coords": [
			{
				"x": 3.1827312248,
				"y": -0.5563663175,
				"z": 0.4381993551,
				"element": "C" 
			},
			{
				"x": 1.8675424571,
				"y": -0.8633866784,
				"z": -0.2407733543,
				"element": "C" 
			},
			{
				"x": 1.8376959976,
				"y": -1.0769555695,
				"z": -1.6232157223,
				"element": "C" 
			},
			{
				"x": 0.6425719764,
				"y": -1.369255743,
				"z": -2.2761955074,
				"element": "C" 
			},
			{
				"x": -0.5349725597,
				"y": -1.4553102961,
				"z": -1.5389144105,
				"element": "C" 
			},
			{
				"x": -0.5395709137,
				"y": -1.2478763117,
				"z": -0.1527780837,
				"element": "C" 
			},
			{
				"x": -1.8595016898,
				"y": -1.3578240761,
				"z": 0.5912835531,
				"element": "C" 
			},
			{
				"x": -2.4759635708,
				"y": -0.0338826168,
				"z": 0.9638674162,
				"element": "C" 
			},
			{
				"x": -2.2239728965,
				"y": 1.2142499963,
				"z": 0.4440635627,
				"element": "C" 
			},
			{
				"x": -3.0851106856,
				"y": 2.068757936,
				"z": 1.1054984002,
				"element": "N" 
			},
			{
				"x": -3.8057571694,
				"y": 1.3122765149,
				"z": 1.9847065256,
				"element": "C" 
			},
			{
				"x": -3.4658971276,
				"y": 0.0434059437,
				"z": 1.9262687999,
				"element": "N" 
			},
			{
				"x": 0.6702745103,
				"y": -0.9400183866,
				"z": 0.5057948537,
				"element": "C" 
			},
			{
				"x": 0.7219522285,
				"y": -0.7032587532,
				"z": 1.9998863693,
				"element": "C" 
			},
			{
				"x": 4.0059684063,
				"y": -0.5645269067,
				"z": -0.2810885687,
				"element": "H" 
			},
			{
				"x": 3.4171818419,
				"y": -1.2867380772,
				"z": 1.2219727117,
				"element": "H" 
			},
			{
				"x": 3.1735774758,
				"y": 0.4283705647,
				"z": 0.92188822,
				"element": "H" 
			},
			{
				"x": 2.7641324256,
				"y": -1.0150366544,
				"z": -2.1890331934,
				"element": "H" 
			},
			{
				"x": 0.6306087052,
				"y": -1.5351380257,
				"z": -3.3498261967,
				"element": "H" 
			},
			{
				"x": -1.470706993,
				"y": -1.6930143305,
				"z": -2.0389148945,
				"element": "H" 
			},
			{
				"x": -2.5687867334,
				"y": -1.916048207,
				"z": -0.0331311835,
				"element": "H" 
			},
			{
				"x": -1.7512566764,
				"y": -1.9508099083,
				"z": 1.506068481,
				"element": "H" 
			},
			{
				"x": -1.5328574804,
				"y": 1.5581620596,
				"z": -0.3088387628,
				"element": "H" 
			},
			{
				"x": -3.1535493534,
				"y": 3.0658848452,
				"z": 0.9725610658,
				"element": "H" 
			},
			{
				"x": -4.5546042289,
				"y": 1.7394706982,
				"z": 2.6380997718,
				"element": "H" 
			},
			{
				"x": 1.2329381874,
				"y": 0.2375882078,
				"z": 2.2340689817,
				"element": "H" 
			},
			{
				"x": 1.2834167801,
				"y": -1.4974231493,
				"z": 2.5091631862,
				"element": "H" 
			},
			{
				"x": -0.2684841383,
				"y": -0.6524967585,
				"z": 2.4508186238,
				"element": "H" 
			}
		],
		 "valence_orbital": [ 
			{
				"type": "occ",
				"energy": -0.26989,
				"method": "rhf"
			},
			{
				"type": "occ",
				"energy": -0.26117,
				"method": "rhf"
			},
			{
				"type": "occ",
				"energy": -0.23054,
				"method": "rhf"
			},
			{
				"type": "occ",
				"energy": -0.22826,
				"method": "rhf"
			},
			{
				"type": "occ",
				"energy": -0.21514,
				"method": "rhf"
			},
			{
				"type": "unocc",
				"energy": 0.00757,
				"method": "rhf"
			},
			{
				"type": "unocc",
				"energy": 0.01183,
				"method": "rhf"
			},
			{
				"type": "unocc",
				"energy": 0.03444,
				"method": "rhf"
			},
			{
				"type": "unocc",
				"energy": 0.07048,
				"method": "rhf"
			},
			{
				"type": "unocc",
				"energy": 0.07743,
				"method": "rhf"
			}
		],
		"cosmo_sigma_profile": { 
			"-0.025": 0.0,
			"-0.024": 0.0,
			"-0.023": 0.0,
			"-0.022": 0.0,
			"-0.021": 0.0,
			"-0.02": 0.0,
			"-0.019": 0.0,
			"-0.018": 0.0,
			"-0.017": 0.128623267551,
			"-0.016": 1.5117452434,
			"-0.015": 1.63508651171,
			"-0.014": 1.10890130541,
			"-0.013": 1.25326744981,
			"-0.012": 1.05604240542,
			"-0.011": 1.2160545374,
			"-0.01": 1.42012767934,
			"-0.009": 1.22847602704,
			"-0.008": 4.34869862504,
			"-0.007": 4.99570297067,
			"-0.006": 3.32577998371,
			"-0.005": 7.66371939684,
			"-0.004": 19.3236838489,
			"-0.003": 23.384729878,
			"-0.002": 21.4168202202,
			"-0.001": 20.9945402028,
			"0.0": 24.2243346163,
			"0.001": 19.6003953745,
			"0.002": 13.7035585344,
			"0.003": 13.3424652549,
			"0.004": 13.5023626353,
			"0.005": 12.5472635418,
			"0.006": 9.67100509761,
			"0.007": 6.61465234028,
			"0.008": 1.70248573774,
			"0.009": 0.836918695114,
			"0.01": 2.20036364962,
			"0.011": 0.938381455408,
			"0.012": 1.03189745683,
			"0.013": 1.08769279575,
			"0.014": 1.15895663875,
			"0.015": 0.614610700727,
			"0.016": 1.24506718515,
			"0.017": 0.848606246253,
			"0.018": 1.01812333983,
			"0.019": 0.25233598652,
			"0.02": 0.0,
			"0.021": 0.0,
			"0.022": 0.0,
			"0.023": 0.0,
			"0.024": 0.0,
			"0.025": 0.0
		}
	}
}
