{
	 "smiles": "CN1CCC(CC1)NC1=CC=C(Cl)C=C1", 
	 "Tm": 363.15, 
	 "num_atms": 32, 
	 "gaussian": { 
		 "optdone": 1, 
		 "sigma_profile": "yes", 
		 "theory": "DFT", 
		 "functional": "B3LYP", 
		 "basiset": "6-31G**", 
		 "properties": { 
			 "R2extent": 6556.8704, 
			 "electric_dipole_moment_norm": 3.61706610528, 
			 "electric_quadrupole_moment_norm": 21.4676585335, 
			 "total_energy": -1037.20816668, 
			 "HOMO_LUMO_gap": 0.18962, 
			 "cosmo_polarized_energy": -8.8, 
			 "cosmo_cavitation_energy": 34.57, 
			 "cosmo_dispersion_energy": -25.4, 
			 "cosmo_repulsion_energy": 1.98, 
			 "cosmo_total_nonelectrostatic_energy": 11.15, 
			 "SMD_solvation_energy": 1.77 
		},
		"coords": [
			{
				"x": 1.825004289,
				"y": 1.514309624,
				"z": -3.6639023362,
				"element": "C" 
			},
			{
				"x": 0.9039260108,
				"y": 0.5981216576,
				"z": -3.0119439973,
				"element": "N" 
			},
			{
				"x": -0.4034365662,
				"y": 1.2229019891,
				"z": -2.7904694145,
				"element": "C" 
			},
			{
				"x": -1.227767432,
				"y": 0.4077970599,
				"z": -1.7944830846,
				"element": "C" 
			},
			{
				"x": -0.5930159776,
				"y": 0.4428850957,
				"z": -0.3855111247,
				"element": "C" 
			},
			{
				"x": 0.9509086177,
				"y": 0.5814172704,
				"z": -0.5004306262,
				"element": "C" 
			},
			{
				"x": 1.4515393676,
				"y": -0.0521134626,
				"z": -1.8044372156,
				"element": "C" 
			},
			{
				"x": -0.9837229944,
				"y": -0.7617928785,
				"z": 0.3400572257,
				"element": "N" 
			},
			{
				"x": -1.0498249022,
				"y": -0.8390441301,
				"z": 1.7238730139,
				"element": "C" 
			},
			{
				"x": -1.682518338,
				"y": -1.9475685908,
				"z": 2.3258066346,
				"element": "C" 
			},
			{
				"x": -1.7562850602,
				"y": -2.0752879974,
				"z": 3.7069214967,
				"element": "C" 
			},
			{
				"x": -1.1934999557,
				"y": -1.0922122574,
				"z": 4.5228792019,
				"element": "C" 
			},
			{
				"x": -1.2836075102,
				"y": -1.2515928796,
				"z": 6.2755841212,
				"element": "Cl" 
			},
			{
				"x": -0.5620147821,
				"y": 0.0104023346,
				"z": 3.9562279232,
				"element": "C" 
			},
			{
				"x": -0.4893956305,
				"y": 0.1387613389,
				"z": 2.5688440998,
				"element": "C" 
			},
			{
				"x": 2.7551820248,
				"y": 0.996414453,
				"z": -3.9172780013,
				"element": "H" 
			},
			{
				"x": 2.0806374189,
				"y": 2.405590632,
				"z": -3.0567693794,
				"element": "H" 
			},
			{
				"x": 1.380651412,
				"y": 1.8735221101,
				"z": -4.5991886188,
				"element": "H" 
			},
			{
				"x": -0.9286193562,
				"y": 1.2954052618,
				"z": -3.7513900146,
				"element": "H" 
			},
			{
				"x": -0.3100324185,
				"y": 2.261066222,
				"z": -2.4103537602,
				"element": "H" 
			},
			{
				"x": -1.263385892,
				"y": -0.6293461779,
				"z": -2.1541382922,
				"element": "H" 
			},
			{
				"x": -2.25862709,
				"y": 0.7743073493,
				"z": -1.7583602457,
				"element": "H" 
			},
			{
				"x": -0.9825421978,
				"y": 1.3256817646,
				"z": 0.1443264574,
				"element": "H" 
			},
			{
				"x": 1.4302886172,
				"y": 0.107444281,
				"z": 0.3612217009,
				"element": "H" 
			},
			{
				"x": 1.2260664209,
				"y": 1.6434847447,
				"z": -0.4784234058,
				"element": "H" 
			},
			{
				"x": 2.544113963,
				"y": -0.0168840007,
				"z": -1.8542445247,
				"element": "H" 
			},
			{
				"x": 1.1768705783,
				"y": -1.1163933955,
				"z": -1.8038572676,
				"element": "H" 
			},
			{
				"x": -1.6295745056,
				"y": -1.3670699712,
				"z": -0.1452026722,
				"element": "H" 
			},
			{
				"x": -2.1202887065,
				"y": -2.7179851601,
				"z": 1.6954160394,
				"element": "H" 
			},
			{
				"x": -2.2496336059,
				"y": -2.9334295756,
				"z": 4.1505172941,
				"element": "H" 
			},
			{
				"x": -0.1260735552,
				"y": 0.7724202273,
				"z": 4.5934473006,
				"element": "H" 
			},
			{
				"x": 0.0105777566,
				"y": 1.0048870612,
				"z": 2.1515614721,
				"element": "H" 
			}
		],
		 "valence_orbital": [ 
			{
				"type": "occ",
				"energy": -0.30073,
				"method": "rhf"
			},
			{
				"type": "occ",
				"energy": -0.27779,
				"method": "rhf"
			},
			{
				"type": "occ",
				"energy": -0.25467,
				"method": "rhf"
			},
			{
				"type": "occ",
				"energy": -0.20446,
				"method": "rhf"
			},
			{
				"type": "occ",
				"energy": -0.19546,
				"method": "rhf"
			},
			{
				"type": "unocc",
				"energy": -0.00584,
				"method": "rhf"
			},
			{
				"type": "unocc",
				"energy": 0.01159,
				"method": "rhf"
			},
			{
				"type": "unocc",
				"energy": 0.03992,
				"method": "rhf"
			},
			{
				"type": "unocc",
				"energy": 0.07278,
				"method": "rhf"
			},
			{
				"type": "unocc",
				"energy": 0.08083,
				"method": "rhf"
			}
		],
		"cosmo_sigma_profile": { 
			"-0.025": 0.0,
			"-0.024": 0.0,
			"-0.023": 0.0,
			"-0.022": 0.0,
			"-0.021": 0.0,
			"-0.02": 0.0,
			"-0.019": 0.0,
			"-0.018": 0.0,
			"-0.017": 0.0,
			"-0.016": 0.0,
			"-0.015": 0.0,
			"-0.014": 0.0,
			"-0.013": 0.0431021889983,
			"-0.012": 0.739113715108,
			"-0.011": 1.61637579821,
			"-0.01": 1.10143048604,
			"-0.009": 1.77167290889,
			"-0.008": 1.62710471536,
			"-0.007": 2.91841327145,
			"-0.006": 6.53482443228,
			"-0.005": 8.31415549316,
			"-0.004": 16.1286284637,
			"-0.003": 26.4217447444,
			"-0.002": 37.337005103,
			"-0.001": 34.8428095783,
			"0.0": 30.2074372737,
			"0.001": 15.9862009622,
			"0.002": 13.5092207294,
			"0.003": 14.2916718896,
			"0.004": 17.4352637191,
			"0.005": 23.185033085,
			"0.006": 10.557549962,
			"0.007": 1.82222912618,
			"0.008": 1.49773275906,
			"0.009": 0.968648938687,
			"0.01": 0.925557936979,
			"0.011": 0.323302332126,
			"0.012": 0.329764778322,
			"0.013": 0.640421708906,
			"0.014": 0.636203838332,
			"0.015": 0.295221142677,
			"0.016": 0.475536250315,
			"0.017": 0.250625063236,
			"0.018": 0.0347468722358,
			"0.019": 0.0,
			"0.02": 0.0,
			"0.021": 0.0,
			"0.022": 0.0,
			"0.023": 0.0,
			"0.024": 0.0,
			"0.025": 0.0
		}
	}
}
