{
	 "smiles": "NC1=C(O)C=CC=C1N(=O)=O", 
	 "Tm": 489.15, 
	 "num_atms": 17, 
	 "gaussian": { 
		 "optdone": 1, 
		 "sigma_profile": "yes", 
		 "theory": "DFT", 
		 "functional": "B3LYP", 
		 "basiset": "6-31G**", 
		 "properties": { 
			 "R2extent": 1920.2862, 
			 "electric_dipole_moment_norm": 3.36183812073, 
			 "electric_quadrupole_moment_norm": 10.3300267609, 
			 "total_energy": -567.328995327, 
			 "HOMO_LUMO_gap": 0.13978, 
			 "cosmo_polarized_energy": -12.12, 
			 "cosmo_cavitation_energy": 21.38, 
			 "cosmo_dispersion_energy": -16.45, 
			 "cosmo_repulsion_energy": 1.31, 
			 "cosmo_total_nonelectrostatic_energy": 6.25, 
			 "SMD_solvation_energy": 5.96 
		},
		"coords": [
			{
				"x": 1.0165213807,
				"y": -0.9653597966,
				"z": -0.0573070482,
				"element": "N" 
			},
			{
				"x": 0.5497342518,
				"y": 0.133678848,
				"z": -0.7583263937,
				"element": "C" 
			},
			{
				"x": 1.426988029,
				"y": 0.7021702824,
				"z": -1.7194587456,
				"element": "C" 
			},
			{
				"x": 2.6617300665,
				"y": 0.1324138005,
				"z": -1.8995688711,
				"element": "O" 
			},
			{
				"x": 1.0592343916,
				"y": 1.7961825318,
				"z": -2.4831748898,
				"element": "C" 
			},
			{
				"x": -0.1993009319,
				"y": 2.3900361104,
				"z": -2.3038923359,
				"element": "C" 
			},
			{
				"x": -1.0648865067,
				"y": 1.8944121936,
				"z": -1.3461787428,
				"element": "C" 
			},
			{
				"x": -0.6972360463,
				"y": 0.7754492577,
				"z": -0.5795721339,
				"element": "C" 
			},
			{
				"x": -1.6730375283,
				"y": 0.2844730951,
				"z": 0.3834181802,
				"element": "N" 
			},
			{
				"x": -2.7707325268,
				"y": 0.8358248543,
				"z": 0.4354430121,
				"element": "O" 
			},
			{
				"x": -1.3643199842,
				"y": -0.6719856367,
				"z": 1.1168312919,
				"element": "O" 
			},
			{
				"x": 1.5047178248,
				"y": -1.6410940463,
				"z": -0.633155481,
				"element": "H" 
			},
			{
				"x": 0.3291308587,
				"y": -1.360496733,
				"z": 0.5740756244,
				"element": "H" 
			},
			{
				"x": 2.9758306043,
				"y": -0.1724525183,
				"z": -1.0333434837,
				"element": "H" 
			},
			{
				"x": 1.7727804881,
				"y": 2.185160772,
				"z": -3.2020155503,
				"element": "H" 
			},
			{
				"x": -0.4824342159,
				"y": 3.2510373413,
				"z": -2.8994458606,
				"element": "H" 
			},
			{
				"x": -2.0346201551,
				"y": 2.3387496438,
				"z": -1.166528572,
				"element": "H" 
			}
		],
		 "valence_orbital": [ 
			{
				"type": "occ",
				"energy": -0.30875,
				"method": "rhf"
			},
			{
				"type": "occ",
				"energy": -0.30754,
				"method": "rhf"
			},
			{
				"type": "occ",
				"energy": -0.29068,
				"method": "rhf"
			},
			{
				"type": "occ",
				"energy": -0.26436,
				"method": "rhf"
			},
			{
				"type": "occ",
				"energy": -0.22672,
				"method": "rhf"
			},
			{
				"type": "unocc",
				"energy": -0.08694,
				"method": "rhf"
			},
			{
				"type": "unocc",
				"energy": -0.00706,
				"method": "rhf"
			},
			{
				"type": "unocc",
				"energy": 0.00819,
				"method": "rhf"
			},
			{
				"type": "unocc",
				"energy": 0.05276,
				"method": "rhf"
			},
			{
				"type": "unocc",
				"energy": 0.09374,
				"method": "rhf"
			}
		],
		"cosmo_sigma_profile": { 
			"-0.025": 0.0,
			"-0.024": 0.0,
			"-0.023": 0.0,
			"-0.022": 0.0,
			"-0.021": 0.0,
			"-0.02": 0.0,
			"-0.019": 0.0,
			"-0.018": 0.0,
			"-0.017": 0.0445082892149,
			"-0.016": 0.667120993529,
			"-0.015": 1.24773020067,
			"-0.014": 1.77274913923,
			"-0.013": 2.13101357393,
			"-0.012": 2.15549569383,
			"-0.011": 2.09044566347,
			"-0.01": 2.35021826254,
			"-0.009": 2.54686981379,
			"-0.008": 2.31375925616,
			"-0.007": 4.98227526209,
			"-0.006": 7.13282391065,
			"-0.005": 9.81814829107,
			"-0.004": 10.2511982111,
			"-0.003": 9.82647263979,
			"-0.002": 8.34064645121,
			"-0.001": 7.24314181595,
			"0.0": 11.6341859587,
			"0.001": 13.4936684056,
			"0.002": 12.6983394579,
			"0.003": 11.1267450839,
			"0.004": 7.93503396089,
			"0.005": 5.62422825312,
			"0.006": 3.75012836785,
			"0.007": 6.25102619425,
			"0.008": 8.95515904122,
			"0.009": 5.37801534184,
			"0.01": 6.27146011606,
			"0.011": 2.77642326378,
			"0.012": 0.207746819619,
			"0.013": 0.0,
			"0.014": 0.0,
			"0.015": 0.0,
			"0.016": 0.0,
			"0.017": 0.0,
			"0.018": 0.0,
			"0.019": 0.0,
			"0.02": 0.0,
			"0.021": 0.0,
			"0.022": 0.0,
			"0.023": 0.0,
			"0.024": 0.0,
			"0.025": 0.0
		}
	}
}
