{
	 "smiles": "COC1=CC(CC=C)=CC(C(=O)NCCO)=C1O", 
	 "Tm": 368.15, 
	 "num_atms": 35, 
	 "gaussian": { 
		 "optdone": 1, 
		 "sigma_profile": "yes", 
		 "theory": "DFT", 
		 "functional": "B3LYP", 
		 "basiset": "6-31G**", 
		 "properties": { 
			 "R2extent": 6504.2314, 
			 "electric_dipole_moment_norm": 5.95723625518, 
			 "electric_quadrupole_moment_norm": 12.7971269072, 
			 "total_energy": -861.253224363, 
			 "HOMO_LUMO_gap": 0.18631, 
			 "cosmo_polarized_energy": -18.54, 
			 "cosmo_cavitation_energy": 38.92, 
			 "cosmo_dispersion_energy": -27.59, 
			 "cosmo_repulsion_energy": 2.19, 
			 "cosmo_total_nonelectrostatic_energy": 13.52, 
			 "SMD_solvation_energy": 7.86 
		},
		"coords": [
			{
				"x": 2.8310066813,
				"y": -3.2218490591,
				"z": -1.9748833119,
				"element": "C" 
			},
			{
				"x": 2.5718849398,
				"y": -1.9976955009,
				"z": -1.3031594231,
				"element": "O" 
			},
			{
				"x": 1.26463472,
				"y": -1.673088859,
				"z": -1.0169352952,
				"element": "C" 
			},
			{
				"x": 0.1468575468,
				"y": -2.439878669,
				"z": -1.319694686,
				"element": "C" 
			},
			{
				"x": -1.1344801021,
				"y": -1.9833398084,
				"z": -0.966206163,
				"element": "C" 
			},
			{
				"x": -2.3676457352,
				"y": -2.8049487583,
				"z": -1.3156133122,
				"element": "C" 
			},
			{
				"x": -3.2873175653,
				"y": -3.0390886965,
				"z": -0.1438894709,
				"element": "C" 
			},
			{
				"x": -4.5700720475,
				"y": -2.6791136286,
				"z": -0.0991318672,
				"element": "C" 
			},
			{
				"x": -1.251578744,
				"y": -0.7625838855,
				"z": -0.3087797875,
				"element": "C" 
			},
			{
				"x": -0.1357289759,
				"y": 0.0311054134,
				"z": 0.0084181657,
				"element": "C" 
			},
			{
				"x": -0.4290087744,
				"y": 1.331351502,
				"z": 0.7185993985,
				"element": "C" 
			},
			{
				"x": -1.5893717782,
				"y": 1.6586486562,
				"z": 0.9734631254,
				"element": "O" 
			},
			{
				"x": 0.6305571418,
				"y": 2.1133567648,
				"z": 1.0714373171,
				"element": "N" 
			},
			{
				"x": 0.4270964096,
				"y": 3.3792413276,
				"z": 1.7549938833,
				"element": "C" 
			},
			{
				"x": 0.1148113804,
				"y": 4.5351559893,
				"z": 0.7924491019,
				"element": "C" 
			},
			{
				"x": -0.0723462382,
				"y": 5.7592471849,
				"z": 1.4893195225,
				"element": "O" 
			},
			{
				"x": 1.1337163333,
				"y": -0.4369349335,
				"z": -0.3536379045,
				"element": "C" 
			},
			{
				"x": 2.2764645429,
				"y": 0.2689818202,
				"z": -0.0840137634,
				"element": "O" 
			},
			{
				"x": 2.4897252737,
				"y": -4.0802793599,
				"z": -1.3834807323,
				"element": "H" 
			},
			{
				"x": 2.3479027723,
				"y": -3.24552155,
				"z": -2.9593479369,
				"element": "H" 
			},
			{
				"x": 3.9130687236,
				"y": -3.2771058858,
				"z": -2.1013931059,
				"element": "H" 
			},
			{
				"x": 0.2560319437,
				"y": -3.3906973879,
				"z": -1.8305582613,
				"element": "H" 
			},
			{
				"x": -2.040086129,
				"y": -3.7728447452,
				"z": -1.7195563603,
				"element": "H" 
			},
			{
				"x": -2.9295083616,
				"y": -2.3104772528,
				"z": -2.1188179197,
				"element": "H" 
			},
			{
				"x": -2.8388119426,
				"y": -3.5340302232,
				"z": 0.7176155479,
				"element": "H" 
			},
			{
				"x": -5.187707223,
				"y": -2.8739057982,
				"z": 0.7725083372,
				"element": "H" 
			},
			{
				"x": -5.0500495336,
				"y": -2.1738982917,
				"z": -0.9342253376,
				"element": "H" 
			},
			{
				"x": -2.2220161517,
				"y": -0.3806266389,
				"z": -0.0117249233,
				"element": "H" 
			},
			{
				"x": 1.5618334839,
				"y": 1.8195291949,
				"z": 0.8141319723,
				"element": "H" 
			},
			{
				"x": 1.3237839804,
				"y": 3.618912098,
				"z": 2.33470594,
				"element": "H" 
			},
			{
				"x": -0.409677688,
				"y": 3.2581224637,
				"z": 2.4508036087,
				"element": "H" 
			},
			{
				"x": 0.9591012126,
				"y": 4.6947906418,
				"z": 0.1133628792,
				"element": "H" 
			},
			{
				"x": -0.7598261555,
				"y": 4.2669985857,
				"z": 0.1843323436,
				"element": "H" 
			},
			{
				"x": -0.9042234884,
				"y": 5.6919704712,
				"z": 1.9756817196,
				"element": "H" 
			},
			{
				"x": 3.0188795478,
				"y": -0.2538031814,
				"z": -0.4272733004,
				"element": "H" 
			}
		],
		 "valence_orbital": [ 
			{
				"type": "occ",
				"energy": -0.25589,
				"method": "rhf"
			},
			{
				"type": "occ",
				"energy": -0.24395,
				"method": "rhf"
			},
			{
				"type": "occ",
				"energy": -0.24212,
				"method": "rhf"
			},
			{
				"type": "occ",
				"energy": -0.23205,
				"method": "rhf"
			},
			{
				"type": "occ",
				"energy": -0.21377,
				"method": "rhf"
			},
			{
				"type": "unocc",
				"energy": -0.02746,
				"method": "rhf"
			},
			{
				"type": "unocc",
				"energy": 0.00738,
				"method": "rhf"
			},
			{
				"type": "unocc",
				"energy": 0.02347,
				"method": "rhf"
			},
			{
				"type": "unocc",
				"energy": 0.06348,
				"method": "rhf"
			},
			{
				"type": "unocc",
				"energy": 0.07531,
				"method": "rhf"
			}
		],
		"cosmo_sigma_profile": { 
			"-0.025": 0.0,
			"-0.024": 0.0,
			"-0.023": 0.0,
			"-0.022": 0.0,
			"-0.021": 0.0,
			"-0.02": 0.0,
			"-0.019": 0.0,
			"-0.018": 0.0,
			"-0.017": 0.0,
			"-0.016": 0.293415060686,
			"-0.015": 1.03240489135,
			"-0.014": 1.84254382323,
			"-0.013": 1.76870646395,
			"-0.012": 1.29890797653,
			"-0.011": 1.7362342986,
			"-0.01": 1.76081246235,
			"-0.009": 1.82572405913,
			"-0.008": 2.28453295507,
			"-0.007": 5.20335851218,
			"-0.006": 13.7189264385,
			"-0.005": 19.9724178524,
			"-0.004": 28.2696160639,
			"-0.003": 25.3586023551,
			"-0.002": 22.2676634246,
			"-0.001": 22.4483725931,
			"0.0": 25.0216856507,
			"0.001": 22.5806089867,
			"0.002": 21.1860184646,
			"0.003": 20.1203042566,
			"0.004": 20.3524760115,
			"0.005": 10.2553172911,
			"0.006": 6.16233610233,
			"0.007": 3.89740053777,
			"0.008": 3.52470070451,
			"0.009": 2.55296749474,
			"0.01": 2.06469110386,
			"0.011": 2.78279377164,
			"0.012": 3.14540893103,
			"0.013": 4.32141880281,
			"0.014": 6.31641769337,
			"0.015": 1.43053494732,
			"0.016": 0.0,
			"0.017": 0.0,
			"0.018": 0.0,
			"0.019": 0.0,
			"0.02": 0.0,
			"0.021": 0.0,
			"0.022": 0.0,
			"0.023": 0.0,
			"0.024": 0.0,
			"0.025": 0.0
		}
	}
}
