{
	 "smiles": "CN1N=C(C)C(N)=C1N1C=NC=N1", 
	 "Tm": 370.15, 
	 "num_atms": 23, 
	 "gaussian": { 
		 "optdone": 1, 
		 "sigma_profile": "yes", 
		 "theory": "DFT", 
		 "functional": "B3LYP", 
		 "basiset": "6-31G**", 
		 "properties": { 
			 "R2extent": 2599.7379, 
			 "electric_dipole_moment_norm": 1.60458919665, 
			 "electric_quadrupole_moment_norm": 15.4144991041, 
			 "total_energy": -601.237999849, 
			 "HOMO_LUMO_gap": 0.18935, 
			 "cosmo_polarized_energy": -14.38, 
			 "cosmo_cavitation_energy": 27.32, 
			 "cosmo_dispersion_energy": -19.61, 
			 "cosmo_repulsion_energy": 1.56, 
			 "cosmo_total_nonelectrostatic_energy": 9.26, 
			 "SMD_solvation_energy": 2.21 
		},
		"coords": [
			{
				"x": -0.1530472449,
				"y": -2.4286750127,
				"z": -0.3887740913,
				"element": "C" 
			},
			{
				"x": -0.3924121193,
				"y": -1.0079579041,
				"z": -0.2080947742,
				"element": "N" 
			},
			{
				"x": -1.4489201056,
				"y": -0.4157943694,
				"z": -0.788395245,
				"element": "N" 
			},
			{
				"x": -1.3625662826,
				"y": 0.8850376267,
				"z": -0.4885053494,
				"element": "C" 
			},
			{
				"x": -2.3894541084,
				"y": 1.8617986317,
				"z": -0.9700029235,
				"element": "C" 
			},
			{
				"x": -0.2239765224,
				"y": 1.1469849756,
				"z": 0.3158743745,
				"element": "C" 
			},
			{
				"x": 0.2321975743,
				"y": 2.3867898752,
				"z": 0.7891863653,
				"element": "N" 
			},
			{
				"x": 0.3738784654,
				"y": -0.0949926954,
				"z": 0.468253148,
				"element": "C" 
			},
			{
				"x": 1.5557182086,
				"y": -0.4318246971,
				"z": 1.1479799525,
				"element": "N" 
			},
			{
				"x": 2.7796677741,
				"y": 0.15579797,
				"z": 1.0442561694,
				"element": "C" 
			},
			{
				"x": 3.6337142092,
				"y": -0.4039420878,
				"z": 1.8796522599,
				"element": "N" 
			},
			{
				"x": 2.8735622699,
				"y": -1.362175208,
				"z": 2.4840442526,
				"element": "C" 
			},
			{
				"x": 1.6103685044,
				"y": -1.4221337997,
				"z": 2.0931469224,
				"element": "N" 
			},
			{
				"x": 0.6393846251,
				"y": -2.604886503,
				"z": -1.1251265906,
				"element": "H" 
			},
			{
				"x": -1.0837139872,
				"y": -2.8636845596,
				"z": -0.7516154788,
				"element": "H" 
			},
			{
				"x": 0.1326503702,
				"y": -2.8807368908,
				"z": 0.562160968,
				"element": "H" 
			},
			{
				"x": -1.9503818022,
				"y": 2.6240688037,
				"z": -1.6248298811,
				"element": "H" 
			},
			{
				"x": -3.1609422572,
				"y": 1.3315489805,
				"z": -1.5323851681,
				"element": "H" 
			},
			{
				"x": -2.878290573,
				"y": 2.3858273521,
				"z": -0.1384124211,
				"element": "H" 
			},
			{
				"x": 0.7137858769,
				"y": 2.3183744014,
				"z": 1.6795987079,
				"element": "H" 
			},
			{
				"x": -0.5143986941,
				"y": 3.0677020479,
				"z": 0.8630838387,
				"element": "H" 
			},
			{
				"x": 2.974119938,
				"y": 0.9684915072,
				"z": 0.3583423124,
				"element": "H" 
			},
			{
				"x": 3.2619558809,
				"y": -2.0347184442,
				"z": 3.2367626513,
				"element": "H" 
			}
		],
		 "valence_orbital": [ 
			{
				"type": "occ",
				"energy": -0.28876,
				"method": "rhf"
			},
			{
				"type": "occ",
				"energy": -0.28257,
				"method": "rhf"
			},
			{
				"type": "occ",
				"energy": -0.27723,
				"method": "rhf"
			},
			{
				"type": "occ",
				"energy": -0.23663,
				"method": "rhf"
			},
			{
				"type": "occ",
				"energy": -0.20501,
				"method": "rhf"
			},
			{
				"type": "unocc",
				"energy": -0.01566,
				"method": "rhf"
			},
			{
				"type": "unocc",
				"energy": 0.02516,
				"method": "rhf"
			},
			{
				"type": "unocc",
				"energy": 0.04441,
				"method": "rhf"
			},
			{
				"type": "unocc",
				"energy": 0.0652,
				"method": "rhf"
			},
			{
				"type": "unocc",
				"energy": 0.07859,
				"method": "rhf"
			}
		],
		"cosmo_sigma_profile": { 
			"-0.025": 0.0,
			"-0.024": 0.0,
			"-0.023": 0.0,
			"-0.022": 0.0,
			"-0.021": 0.0,
			"-0.02": 0.0,
			"-0.019": 0.0,
			"-0.018": 0.0,
			"-0.017": 0.0,
			"-0.016": 0.0,
			"-0.015": 0.0,
			"-0.014": 0.0,
			"-0.013": 0.112279875958,
			"-0.012": 1.5691162183,
			"-0.011": 3.02039797157,
			"-0.01": 4.69169265465,
			"-0.009": 5.75492778056,
			"-0.008": 6.29698748282,
			"-0.007": 5.14116133352,
			"-0.006": 9.67888851135,
			"-0.005": 11.4543589411,
			"-0.004": 17.9246849404,
			"-0.003": 18.7850850818,
			"-0.002": 16.8543557934,
			"-0.001": 13.5530393543,
			"0.0": 14.3204694485,
			"0.001": 11.1233818831,
			"0.002": 10.5882403693,
			"0.003": 11.1554309989,
			"0.004": 10.2912023301,
			"0.005": 6.10870019835,
			"0.006": 6.25437363935,
			"0.007": 5.04685197735,
			"0.008": 3.36412789089,
			"0.009": 3.9626862831,
			"0.01": 4.19492089485,
			"0.011": 3.77841315756,
			"0.012": 3.783934932,
			"0.013": 3.0701639848,
			"0.014": 2.0123082397,
			"0.015": 2.90232351868,
			"0.016": 0.749867702673,
			"0.017": 0.0202542401784,
			"0.018": 0.0,
			"0.019": 0.0,
			"0.02": 0.0,
			"0.021": 0.0,
			"0.022": 0.0,
			"0.023": 0.0,
			"0.024": 0.0,
			"0.025": 0.0
		}
	}
}
