{
	 "smiles": "OC(=O)CCC1=NC=C(O1)C1=C(Br)C=CC=C1", 
	 "Tm": 454.15, 
	 "num_atms": 27, 
	 "gaussian": { 
		 "optdone": 1, 
		 "sigma_profile": "yes", 
		 "theory": "DFT", 
		 "functional": "B3LYP", 
		 "basiset": "6-31G**", 
		 "properties": { 
			 "R2extent": 8942.2845, 
			 "electric_dipole_moment_norm": 2.7029287708, 
			 "electric_quadrupole_moment_norm": 25.1321565074, 
			 "total_energy": -3315.13417788, 
			 "HOMO_LUMO_gap": 0.17517, 
			 "cosmo_polarized_energy": -17.2, 
			 "cosmo_cavitation_energy": 34.51, 
			 "cosmo_dispersion_energy": -25.65, 
			 "cosmo_repulsion_energy": 1.99, 
			 "cosmo_total_nonelectrostatic_energy": 10.84, 
			 "SMD_solvation_energy": 4.78 
		},
		"coords": [
			{
				"x": 0.5242075101,
				"y": 1.5266062029,
				"z": 5.2639814336,
				"element": "O" 
			},
			{
				"x": 0.255636903,
				"y": 1.9603183232,
				"z": 4.0037196553,
				"element": "C" 
			},
			{
				"x": 0.1189076666,
				"y": 3.1381419535,
				"z": 3.7847273156,
				"element": "O" 
			},
			{
				"x": 0.1503854759,
				"y": 0.8665733425,
				"z": 2.9516525111,
				"element": "C" 
			},
			{
				"x": -0.1525138005,
				"y": 1.4337567217,
				"z": 1.5657354911,
				"element": "C" 
			},
			{
				"x": -0.2540285111,
				"y": 0.3559428516,
				"z": 0.5394468985,
				"element": "C" 
			},
			{
				"x": -0.1193043931,
				"y": -0.9274111418,
				"z": 0.6912141852,
				"element": "N" 
			},
			{
				"x": -0.3115819303,
				"y": -1.4553993117,
				"z": -0.5757692745,
				"element": "C" 
			},
			{
				"x": -0.56167346,
				"y": -0.4488524624,
				"z": -1.4700581021,
				"element": "C" 
			},
			{
				"x": -0.5226422217,
				"y": 0.7277242931,
				"z": -0.7372436719,
				"element": "O" 
			},
			{
				"x": -0.8383891632,
				"y": -0.2945814506,
				"z": -2.895695074,
				"element": "C" 
			},
			{
				"x": -0.9358213003,
				"y": -1.3470117637,
				"z": -3.8290596315,
				"element": "C" 
			},
			{
				"x": -0.7132379306,
				"y": -3.1861660507,
				"z": -3.3435906222,
				"element": "Br" 
			},
			{
				"x": -1.2040138509,
				"y": -1.1080392385,
				"z": -5.1767663695,
				"element": "C" 
			},
			{
				"x": -1.3844532662,
				"y": 0.1928495026,
				"z": -5.6387533658,
				"element": "C" 
			},
			{
				"x": -1.2944701626,
				"y": 1.2564576404,
				"z": -4.7400485404,
				"element": "C" 
			},
			{
				"x": -1.027154186,
				"y": 1.012668503,
				"z": -3.3994482274,
				"element": "C" 
			},
			{
				"x": 0.6055406786,
				"y": 0.5620907685,
				"z": 5.2778488405,
				"element": "H" 
			},
			{
				"x": -0.6270595465,
				"y": 0.1520817576,
				"z": 3.2493311764,
				"element": "H" 
			},
			{
				"x": 1.0848062096,
				"y": 0.2921083882,
				"z": 2.932500935,
				"element": "H" 
			},
			{
				"x": 0.6242690588,
				"y": 2.1506656328,
				"z": 1.2761375139,
				"element": "H" 
			},
			{
				"x": -1.0840247616,
				"y": 2.0106222627,
				"z": 1.592085087,
				"element": "H" 
			},
			{
				"x": -0.2562376617,
				"y": -2.5149282814,
				"z": -0.7529349402,
				"element": "H" 
			},
			{
				"x": -1.2698385699,
				"y": -1.9489541596,
				"z": -5.8573728717,
				"element": "H" 
			},
			{
				"x": -1.5927612202,
				"y": 0.3676614105,
				"z": -6.6896337595,
				"element": "H" 
			},
			{
				"x": -1.4321501081,
				"y": 2.2777439588,
				"z": -5.0813785431,
				"element": "H" 
			},
			{
				"x": -0.958297458,
				"y": 1.8424303468,
				"z": -2.7067280495,
				"element": "H" 
			}
		],
		 "valence_orbital": [ 
			{
				"type": "occ",
				"energy": -0.29613,
				"method": "rhf"
			},
			{
				"type": "occ",
				"energy": -0.29375,
				"method": "rhf"
			},
			{
				"type": "occ",
				"energy": -0.27637,
				"method": "rhf"
			},
			{
				"type": "occ",
				"energy": -0.25411,
				"method": "rhf"
			},
			{
				"type": "occ",
				"energy": -0.22481,
				"method": "rhf"
			},
			{
				"type": "unocc",
				"energy": -0.04964,
				"method": "rhf"
			},
			{
				"type": "unocc",
				"energy": -0.02004,
				"method": "rhf"
			},
			{
				"type": "unocc",
				"energy": -0.00129,
				"method": "rhf"
			},
			{
				"type": "unocc",
				"energy": 0.00595,
				"method": "rhf"
			},
			{
				"type": "unocc",
				"energy": 0.01888,
				"method": "rhf"
			}
		],
		"cosmo_sigma_profile": { 
			"-0.025": 0.0,
			"-0.024": 0.0,
			"-0.023": 0.0,
			"-0.022": 0.0,
			"-0.021": 0.0,
			"-0.02": 0.0305437367744,
			"-0.019": 1.03739655432,
			"-0.018": 0.681641198772,
			"-0.017": 1.20475753889,
			"-0.016": 1.29406408207,
			"-0.015": 1.04176368387,
			"-0.014": 1.49360048458,
			"-0.013": 0.840643277739,
			"-0.012": 0.853285087758,
			"-0.011": 1.07121976234,
			"-0.01": 1.71344325932,
			"-0.009": 1.62545537219,
			"-0.008": 2.54949296467,
			"-0.007": 8.93509902392,
			"-0.006": 18.4907721194,
			"-0.005": 18.0318971235,
			"-0.004": 16.7421147052,
			"-0.003": 14.2056227538,
			"-0.002": 16.3695062867,
			"-0.001": 12.4660835609,
			"0.0": 22.2449296993,
			"0.001": 25.4141613512,
			"0.002": 26.0873805878,
			"0.003": 25.2305023528,
			"0.004": 17.354201647,
			"0.005": 4.87592175179,
			"0.006": 3.16451028854,
			"0.007": 4.37795944495,
			"0.008": 4.11027324811,
			"0.009": 3.97634765522,
			"0.01": 6.259825617,
			"0.011": 6.53093497239,
			"0.012": 5.18960990637,
			"0.013": 2.31049011599,
			"0.014": 0.913274171601,
			"0.015": 0.462568819728,
			"0.016": 0.0259707553797,
			"0.017": 0.0,
			"0.018": 0.0,
			"0.019": 0.0,
			"0.02": 0.0,
			"0.021": 0.0,
			"0.022": 0.0,
			"0.023": 0.0,
			"0.024": 0.0,
			"0.025": 0.0
		}
	}
}
