{
	 "smiles": "C=CCN1C(=O)C(=O)C2=C1C=CC=C2", 
	 "Tm": 382.15, 
	 "num_atms": 23, 
	 "gaussian": { 
		 "optdone": 1, 
		 "sigma_profile": "yes", 
		 "theory": "DFT", 
		 "functional": "B3LYP", 
		 "basiset": "6-31G**", 
		 "properties": { 
			 "R2extent": 3141.6373, 
			 "electric_dipole_moment_norm": 5.79055512192, 
			 "electric_quadrupole_moment_norm": 13.0290022423, 
			 "total_energy": -629.769472165, 
			 "HOMO_LUMO_gap": 0.13752, 
			 "cosmo_polarized_energy": -13.86, 
			 "cosmo_cavitation_energy": 28.34, 
			 "cosmo_dispersion_energy": -19.73, 
			 "cosmo_repulsion_energy": 1.53, 
			 "cosmo_total_nonelectrostatic_energy": 10.14, 
			 "SMD_solvation_energy": 6.68 
		},
		"coords": [
			{
				"x": -2.1893335259,
				"y": 2.9508088519,
				"z": 1.3620858032,
				"element": "C" 
			},
			{
				"x": -2.1029254296,
				"y": 1.6821966027,
				"z": 0.9657151506,
				"element": "C" 
			},
			{
				"x": -1.1168775918,
				"y": 1.1947322144,
				"z": -0.067605418,
				"element": "C" 
			},
			{
				"x": -0.2106317355,
				"y": 0.1675878392,
				"z": 0.4423250246,
				"element": "N" 
			},
			{
				"x": 1.0846472056,
				"y": 0.447319235,
				"z": 0.8606468544,
				"element": "C" 
			},
			{
				"x": 1.6351906043,
				"y": 1.5266783138,
				"z": 0.8277504353,
				"element": "O" 
			},
			{
				"x": 1.6729229824,
				"y": -0.9158846308,
				"z": 1.3587044707,
				"element": "C" 
			},
			{
				"x": 2.793685944,
				"y": -1.0636421395,
				"z": 1.7953449574,
				"element": "O" 
			},
			{
				"x": 0.5858352312,
				"y": -1.8867386174,
				"z": 1.1646702148,
				"element": "C" 
			},
			{
				"x": -0.515503968,
				"y": -1.1932018494,
				"z": 0.6196909791,
				"element": "C" 
			},
			{
				"x": -1.6987309439,
				"y": -1.8620244712,
				"z": 0.3232823401,
				"element": "C" 
			},
			{
				"x": -1.7501260653,
				"y": -3.2392528284,
				"z": 0.5830958266,
				"element": "C" 
			},
			{
				"x": -0.6623799772,
				"y": -3.9346212484,
				"z": 1.1232406138,
				"element": "C" 
			},
			{
				"x": 0.5212165498,
				"y": -3.2525384253,
				"z": 1.4189104661,
				"element": "C" 
			},
			{
				"x": -2.918586193,
				"y": 3.2682541864,
				"z": 2.1013543525,
				"element": "H" 
			},
			{
				"x": -1.5310642229,
				"y": 3.7184942164,
				"z": 0.9629008138,
				"element": "H" 
			},
			{
				"x": -2.7678393757,
				"y": 0.9323361564,
				"z": 1.3927223243,
				"element": "H" 
			},
			{
				"x": -1.6364054541,
				"y": 0.7839108969,
				"z": -0.9430482902,
				"element": "H" 
			},
			{
				"x": -0.4838472563,
				"y": 2.0188059399,
				"z": -0.4056674517,
				"element": "H" 
			},
			{
				"x": -2.5575871435,
				"y": -1.3472804848,
				"z": -0.0936745706,
				"element": "H" 
			},
			{
				"x": -2.6660859518,
				"y": -3.7779767505,
				"z": 0.3573768019,
				"element": "H" 
			},
			{
				"x": -0.741760862,
				"y": -5.0002515062,
				"z": 1.3112462519,
				"element": "H" 
			},
			{
				"x": 1.3832871791,
				"y": -3.7626115009,
				"z": 1.8381320494,
				"element": "H" 
			}
		],
		 "valence_orbital": [ 
			{
				"type": "occ",
				"energy": -0.30713,
				"method": "rhf"
			},
			{
				"type": "occ",
				"energy": -0.27966,
				"method": "rhf"
			},
			{
				"type": "occ",
				"energy": -0.2769,
				"method": "rhf"
			},
			{
				"type": "occ",
				"energy": -0.24362,
				"method": "rhf"
			},
			{
				"type": "occ",
				"energy": -0.23272,
				"method": "rhf"
			},
			{
				"type": "unocc",
				"energy": -0.0952,
				"method": "rhf"
			},
			{
				"type": "unocc",
				"energy": -0.02133,
				"method": "rhf"
			},
			{
				"type": "unocc",
				"energy": -0.00198,
				"method": "rhf"
			},
			{
				"type": "unocc",
				"energy": 0.01034,
				"method": "rhf"
			},
			{
				"type": "unocc",
				"energy": 0.0751,
				"method": "rhf"
			}
		],
		"cosmo_sigma_profile": { 
			"-0.025": 0.0,
			"-0.024": 0.0,
			"-0.023": 0.0,
			"-0.022": 0.0,
			"-0.021": 0.0,
			"-0.02": 0.0,
			"-0.019": 0.0,
			"-0.018": 0.0,
			"-0.017": 0.0,
			"-0.016": 0.0,
			"-0.015": 0.0,
			"-0.014": 0.0,
			"-0.013": 0.0,
			"-0.012": 0.0,
			"-0.011": 0.0,
			"-0.01": 0.0,
			"-0.009": 0.144379391196,
			"-0.008": 2.98721184135,
			"-0.007": 10.8625666979,
			"-0.006": 17.3122638019,
			"-0.005": 20.7045891171,
			"-0.004": 17.547223745,
			"-0.003": 17.9899100206,
			"-0.002": 16.9582902821,
			"-0.001": 15.2734280314,
			"0.0": 13.7887380954,
			"0.001": 14.2919397236,
			"0.002": 16.3043440566,
			"0.003": 15.4943687201,
			"0.004": 7.43853431741,
			"0.005": 5.22200679501,
			"0.006": 4.20448905489,
			"0.007": 2.77913293964,
			"0.008": 4.02610786341,
			"0.009": 4.15080950628,
			"0.01": 7.51160297311,
			"0.011": 8.7626096984,
			"0.012": 3.49974700942,
			"0.013": 0.359825484256,
			"0.014": 0.0,
			"0.015": 0.0,
			"0.016": 0.0,
			"0.017": 0.0,
			"0.018": 0.0,
			"0.019": 0.0,
			"0.02": 0.0,
			"0.021": 0.0,
			"0.022": 0.0,
			"0.023": 0.0,
			"0.024": 0.0,
			"0.025": 0.0
		}
	}
}
