{
	 "smiles": "OC(=O)COC1=CC(OC2=NC=CC=C2)=CC=C1", 
	 "Tm": 398.15, 
	 "num_atms": 29, 
	 "gaussian": { 
		 "optdone": 1, 
		 "sigma_profile": "yes", 
		 "theory": "DFT", 
		 "functional": "B3LYP", 
		 "basiset": "6-31G**", 
		 "properties": { 
			 "R2extent": 7073.1173, 
			 "electric_dipole_moment_norm": 2.45303102304, 
			 "electric_quadrupole_moment_norm": 18.4659117565, 
			 "total_energy": -857.643192275, 
			 "HOMO_LUMO_gap": 0.19765, 
			 "cosmo_polarized_energy": -18.75, 
			 "cosmo_cavitation_energy": 35.1, 
			 "cosmo_dispersion_energy": -25.3, 
			 "cosmo_repulsion_energy": 1.98, 
			 "cosmo_total_nonelectrostatic_energy": 11.78, 
			 "SMD_solvation_energy": 6.32 
		},
		"coords": [
			{
				"x": -5.1875121365,
				"y": 0.2347591698,
				"z": -3.3957451847,
				"element": "O" 
			},
			{
				"x": -5.0554258362,
				"y": -0.2118218545,
				"z": -2.1234693639,
				"element": "C" 
			},
			{
				"x": -5.9561262122,
				"y": -0.6838603642,
				"z": -1.4779938787,
				"element": "O" 
			},
			{
				"x": -3.6174511345,
				"y": -0.0177289027,
				"z": -1.6732479888,
				"element": "C" 
			},
			{
				"x": -3.5007568146,
				"y": -0.4869465958,
				"z": -0.3528848649,
				"element": "O" 
			},
			{
				"x": -2.2844016165,
				"y": -0.3945248477,
				"z": 0.2629963449,
				"element": "C" 
			},
			{
				"x": -1.1309388909,
				"y": 0.1131169924,
				"z": -0.3436155789,
				"element": "C" 
			},
			{
				"x": 0.0560662138,
				"y": 0.1607975773,
				"z": 0.3933437944,
				"element": "C" 
			},
			{
				"x": 1.1437323341,
				"y": 0.7557554834,
				"z": -0.2226823849,
				"element": "O" 
			},
			{
				"x": 2.3310434929,
				"y": 0.0808606357,
				"z": -0.3622024277,
				"element": "C" 
			},
			{
				"x": 3.3575452587,
				"y": 0.8821814291,
				"z": -0.6216222878,
				"element": "N" 
			},
			{
				"x": 4.5522177635,
				"y": 0.3113802513,
				"z": -0.8194536342,
				"element": "C" 
			},
			{
				"x": 4.7741943546,
				"y": -1.0629524222,
				"z": -0.7643624983,
				"element": "C" 
			},
			{
				"x": 3.678630928,
				"y": -1.8866988632,
				"z": -0.496137788,
				"element": "C" 
			},
			{
				"x": 2.426001404,
				"y": -1.3175458394,
				"z": -0.2917027278,
				"element": "C" 
			},
			{
				"x": 0.1160710124,
				"y": -0.2844766059,
				"z": 1.7123564138,
				"element": "C" 
			},
			{
				"x": -1.0466477241,
				"y": -0.7987274812,
				"z": 2.29466297,
				"element": "C" 
			},
			{
				"x": -2.2412076499,
				"y": -0.8578354947,
				"z": 1.5859919196,
				"element": "C" 
			},
			{
				"x": -6.117119179,
				"y": 0.0934128253,
				"z": -3.6411277777,
				"element": "H" 
			},
			{
				"x": -2.9597797811,
				"y": -0.5626390848,
				"z": -2.3659920714,
				"element": "H" 
			},
			{
				"x": -3.3666874443,
				"y": 1.049606444,
				"z": -1.7563097882,
				"element": "H" 
			},
			{
				"x": -1.1167937084,
				"y": 0.4824699337,
				"z": -1.3610344416,
				"element": "H" 
			},
			{
				"x": 5.3722436415,
				"y": 0.9954621173,
				"z": -1.0309560728,
				"element": "H" 
			},
			{
				"x": 5.7656165529,
				"y": -1.471184832,
				"z": -0.9282842076,
				"element": "H" 
			},
			{
				"x": 3.7942058278,
				"y": -2.9659901468,
				"z": -0.4520505663,
				"element": "H" 
			},
			{
				"x": 1.5540576436,
				"y": -1.9269930637,
				"z": -0.0889559932,
				"element": "H" 
			},
			{
				"x": 1.0445276109,
				"y": -0.2187306146,
				"z": 2.268321248,
				"element": "H" 
			},
			{
				"x": -1.0190570006,
				"y": -1.148647371,
				"z": 3.3222975396,
				"element": "H" 
			},
			{
				"x": -3.1503489099,
				"y": -1.247798475,
				"z": 2.0299612971,
				"element": "H" 
			}
		],
		 "valence_orbital": [ 
			{
				"type": "occ",
				"energy": -0.2873,
				"method": "rhf"
			},
			{
				"type": "occ",
				"energy": -0.26473,
				"method": "rhf"
			},
			{
				"type": "occ",
				"energy": -0.25605,
				"method": "rhf"
			},
			{
				"type": "occ",
				"energy": -0.24364,
				"method": "rhf"
			},
			{
				"type": "occ",
				"energy": -0.2231,
				"method": "rhf"
			},
			{
				"type": "unocc",
				"energy": -0.02545,
				"method": "rhf"
			},
			{
				"type": "unocc",
				"energy": -0.01353,
				"method": "rhf"
			},
			{
				"type": "unocc",
				"energy": -0.00175,
				"method": "rhf"
			},
			{
				"type": "unocc",
				"energy": -0.00018,
				"method": "rhf"
			},
			{
				"type": "unocc",
				"energy": 0.00844,
				"method": "rhf"
			}
		],
		"cosmo_sigma_profile": { 
			"-0.025": 0.0,
			"-0.024": 0.0,
			"-0.023": 0.0,
			"-0.022": 0.0,
			"-0.021": 0.0,
			"-0.02": 0.0,
			"-0.019": 0.344162211011,
			"-0.018": 0.939970999046,
			"-0.017": 0.787940114166,
			"-0.016": 1.34238362715,
			"-0.015": 0.511169086499,
			"-0.014": 0.59382458924,
			"-0.013": 0.37279472526,
			"-0.012": 0.895667083146,
			"-0.011": 1.13323861103,
			"-0.01": 0.677281451242,
			"-0.009": 1.45163573094,
			"-0.008": 10.2113335658,
			"-0.007": 13.2867068052,
			"-0.006": 19.517861271,
			"-0.005": 18.824540624,
			"-0.004": 17.113621966,
			"-0.003": 15.5468208133,
			"-0.002": 16.2224002223,
			"-0.001": 14.9623442659,
			"0.0": 14.6389510277,
			"0.001": 18.7959888001,
			"0.002": 22.1038618139,
			"0.003": 23.9286398593,
			"0.004": 14.4665313194,
			"0.005": 8.78155662891,
			"0.006": 4.50752330774,
			"0.007": 5.03925307681,
			"0.008": 5.6525306143,
			"0.009": 4.86487885506,
			"0.01": 5.07374969659,
			"0.011": 7.82178983201,
			"0.012": 3.80996829509,
			"0.013": 3.19602878214,
			"0.014": 1.91366701481,
			"0.015": 1.00236029702,
			"0.016": 0.852896335513,
			"0.017": 0.0388127554855,
			"0.018": 0.0,
			"0.019": 0.0,
			"0.02": 0.0,
			"0.021": 0.0,
			"0.022": 0.0,
			"0.023": 0.0,
			"0.024": 0.0,
			"0.025": 0.0
		}
	}
}
