{
	 "smiles": "CN1CCN(CC2=CC(N)=CC=C2)CC1", 
	 "Tm": 352.15, 
	 "num_atms": 34, 
	 "gaussian": { 
		 "optdone": 1, 
		 "sigma_profile": "yes", 
		 "theory": "DFT", 
		 "functional": "B3LYP", 
		 "basiset": "6-31G**", 
		 "properties": { 
			 "R2extent": 4006.5598, 
			 "electric_dipole_moment_norm": 2.12466297563, 
			 "electric_quadrupole_moment_norm": 11.5187436133, 
			 "total_energy": -632.954783716, 
			 "HOMO_LUMO_gap": 0.19477, 
			 "cosmo_polarized_energy": -10.89, 
			 "cosmo_cavitation_energy": 34.23, 
			 "cosmo_dispersion_energy": -24.16, 
			 "cosmo_repulsion_energy": 1.91, 
			 "cosmo_total_nonelectrostatic_energy": 11.98, 
			 "SMD_solvation_energy": 0.35 
		},
		"coords": [
			{
				"x": -1.2091956894,
				"y": 3.5038815203,
				"z": -2.6495698631,
				"element": "C" 
			},
			{
				"x": -0.1709612536,
				"y": 2.4869905031,
				"z": -2.6633973786,
				"element": "N" 
			},
			{
				"x": -0.6035194693,
				"y": 1.1914085177,
				"z": -3.2250816401,
				"element": "C" 
			},
			{
				"x": -0.8161153416,
				"y": 0.118628551,
				"z": -2.153675109,
				"element": "C" 
			},
			{
				"x": 0.4565296764,
				"y": -0.1508252462,
				"z": -1.486367298,
				"element": "N" 
			},
			{
				"x": 0.3832756593,
				"y": -1.0912036605,
				"z": -0.3646558429,
				"element": "C" 
			},
			{
				"x": -0.3482659681,
				"y": -0.622733374,
				"z": 0.889370075,
				"element": "C" 
			},
			{
				"x": 0.3599467822,
				"y": -0.0270457579,
				"z": 1.9387947784,
				"element": "C" 
			},
			{
				"x": -0.2916965067,
				"y": 0.4523712316,
				"z": 3.0879136436,
				"element": "C" 
			},
			{
				"x": 0.441998958,
				"y": 0.9884145958,
				"z": 4.1497682397,
				"element": "N" 
			},
			{
				"x": -1.6877515385,
				"y": 0.3193935743,
				"z": 3.1749001795,
				"element": "C" 
			},
			{
				"x": -2.395936332,
				"y": -0.2887462835,
				"z": 2.1416256053,
				"element": "C" 
			},
			{
				"x": -1.7398195806,
				"y": -0.7619189009,
				"z": 1.0043686936,
				"element": "C" 
			},
			{
				"x": 1.2780122837,
				"y": 1.055176079,
				"z": -1.2807709137,
				"element": "C" 
			},
			{
				"x": 0.4613681995,
				"y": 2.3467286402,
				"z": -1.3481418185,
				"element": "C" 
			},
			{
				"x": -0.7828525737,
				"y": 4.4557257961,
				"z": -2.3125672639,
				"element": "H" 
			},
			{
				"x": -1.6004281552,
				"y": 3.6567471229,
				"z": -3.6605035066,
				"element": "H" 
			},
			{
				"x": -2.0615355723,
				"y": 3.2682329635,
				"z": -1.9815493884,
				"element": "H" 
			},
			{
				"x": -1.5312234746,
				"y": 1.3354581091,
				"z": -3.7882452261,
				"element": "H" 
			},
			{
				"x": 0.1511909509,
				"y": 0.8272459746,
				"z": -3.9358059943,
				"element": "H" 
			},
			{
				"x": -1.1746145077,
				"y": -0.8101354733,
				"z": -2.6195231055,
				"element": "H" 
			},
			{
				"x": -1.6089567401,
				"y": 0.4539888103,
				"z": -1.4611515219,
				"element": "H" 
			},
			{
				"x": 1.4099484094,
				"y": -1.3709347304,
				"z": -0.0994448432,
				"element": "H" 
			},
			{
				"x": -0.1025863615,
				"y": -2.0005337152,
				"z": -0.7413295063,
				"element": "H" 
			},
			{
				"x": 1.444495251,
				"y": 0.0470966843,
				"z": 1.8808605636,
				"element": "H" 
			},
			{
				"x": 1.3382539421,
				"y": 1.3809452568,
				"z": 3.8962472809,
				"element": "H" 
			},
			{
				"x": -0.0772226208,
				"y": 1.6046216103,
				"z": 4.759974523,
				"element": "H" 
			},
			{
				"x": -2.2077801955,
				"y": 0.6773473584,
				"z": 4.0602356569,
				"element": "H" 
			},
			{
				"x": -3.4736838501,
				"y": -0.3983338196,
				"z": 2.2291528419,
				"element": "H" 
			},
			{
				"x": -2.3022230035,
				"y": -1.2534313195,
				"z": 0.2158588178,
				"element": "H" 
			},
			{
				"x": 1.7751724652,
				"y": 1.0050326439,
				"z": -0.3078982468,
				"element": "H" 
			},
			{
				"x": 2.0695332013,
				"y": 1.1005120859,
				"z": -2.043772537,
				"element": "H" 
			},
			{
				"x": -0.282031803,
				"y": 2.3397845943,
				"z": -0.528164436,
				"element": "H" 
			},
			{
				"x": 1.1169747588,
				"y": 3.2109100576,
				"z": -1.1739554591,
				"element": "H" 
			}
		],
		 "valence_orbital": [ 
			{
				"type": "occ",
				"energy": -0.30072,
				"method": "rhf"
			},
			{
				"type": "occ",
				"energy": -0.24055,
				"method": "rhf"
			},
			{
				"type": "occ",
				"energy": -0.19996,
				"method": "rhf"
			},
			{
				"type": "occ",
				"energy": -0.19588,
				"method": "rhf"
			},
			{
				"type": "occ",
				"energy": -0.19083,
				"method": "rhf"
			},
			{
				"type": "unocc",
				"energy": 0.00394,
				"method": "rhf"
			},
			{
				"type": "unocc",
				"energy": 0.0179,
				"method": "rhf"
			},
			{
				"type": "unocc",
				"energy": 0.0801,
				"method": "rhf"
			},
			{
				"type": "unocc",
				"energy": 0.08679,
				"method": "rhf"
			},
			{
				"type": "unocc",
				"energy": 0.10078,
				"method": "rhf"
			}
		],
		"cosmo_sigma_profile": { 
			"-0.025": 0.0,
			"-0.024": 0.0,
			"-0.023": 0.0,
			"-0.022": 0.0,
			"-0.021": 0.0,
			"-0.02": 0.0,
			"-0.019": 0.0,
			"-0.018": 0.0,
			"-0.017": 0.0,
			"-0.016": 0.0,
			"-0.015": 0.0,
			"-0.014": 0.0,
			"-0.013": 0.0130241052508,
			"-0.012": 1.52799169314,
			"-0.011": 3.17675376849,
			"-0.01": 2.03516132777,
			"-0.009": 3.66627979973,
			"-0.008": 3.38671468338,
			"-0.007": 2.43056049799,
			"-0.006": 4.32997962744,
			"-0.005": 8.21596429797,
			"-0.004": 15.4612912204,
			"-0.003": 29.3993102282,
			"-0.002": 31.1862360503,
			"-0.001": 36.4060925099,
			"0.0": 33.2247940292,
			"0.001": 15.4039232511,
			"0.002": 11.4439285764,
			"0.003": 10.4708549917,
			"0.004": 9.0458736381,
			"0.005": 9.5141958606,
			"0.006": 9.56603511177,
			"0.007": 9.61338154958,
			"0.008": 3.24697715834,
			"0.009": 2.3362474674,
			"0.01": 2.16684909153,
			"0.011": 1.67678098214,
			"0.012": 2.25574546883,
			"0.013": 1.45972211686,
			"0.014": 1.20882240662,
			"0.015": 1.01602284088,
			"0.016": 1.02535226419,
			"0.017": 0.195150507789,
			"0.018": 0.0,
			"0.019": 0.0,
			"0.02": 0.0,
			"0.021": 0.0,
			"0.022": 0.0,
			"0.023": 0.0,
			"0.024": 0.0,
			"0.025": 0.0
		}
	}
}
