{
	 "smiles": "COC(=O)C1=C(C=CC(OC2=CC=C(Cl)C=C2Cl)=C1)[N+]([O-])=O", 
	 "Tm": 360.15, 
	 "num_atms": 31, 
	 "gaussian": { 
		 "optdone": 1, 
		 "sigma_profile": "yes", 
		 "theory": "DFT", 
		 "functional": "B3LYP", 
		 "basiset": "6-31G**", 
		 "properties": { 
			 "R2extent": 9987.8677, 
			 "electric_dipole_moment_norm": 2.95622649504, 
			 "electric_quadrupole_moment_norm": 20.319722142, 
			 "total_energy": -1890.05435179, 
			 "HOMO_LUMO_gap": 0.16643, 
			 "cosmo_polarized_energy": -14.4, 
			 "cosmo_cavitation_energy": 41.86, 
			 "cosmo_dispersion_energy": -28.79, 
			 "cosmo_repulsion_energy": 2.24, 
			 "cosmo_total_nonelectrostatic_energy": 15.31, 
			 "SMD_solvation_energy": 10.33 
		},
		"coords": [
			{
				"x": -0.8009825709,
				"y": 1.2013734357,
				"z": -4.4816097561,
				"element": "C" 
			},
			{
				"x": -0.8822611602,
				"y": 1.5547192333,
				"z": -3.0883805556,
				"element": "O" 
			},
			{
				"x": -0.9928077466,
				"y": 0.5215987775,
				"z": -2.2401775737,
				"element": "C" 
			},
			{
				"x": -0.894659261,
				"y": -0.6455416082,
				"z": -2.5482980265,
				"element": "O" 
			},
			{
				"x": -1.1314665307,
				"y": 0.9905980029,
				"z": -0.8159671487,
				"element": "C" 
			},
			{
				"x": -2.0947679166,
				"y": 1.9019016946,
				"z": -0.3637887479,
				"element": "C" 
			},
			{
				"x": -2.1018661295,
				"y": 2.3483986554,
				"z": 0.9589223179,
				"element": "C" 
			},
			{
				"x": -1.1619753559,
				"y": 1.8651277546,
				"z": 1.8564316972,
				"element": "C" 
			},
			{
				"x": -0.2163324438,
				"y": 0.926988151,
				"z": 1.4245458118,
				"element": "C" 
			},
			{
				"x": 0.6721040651,
				"y": 0.500362257,
				"z": 2.3769060338,
				"element": "O" 
			},
			{
				"x": 1.5425339876,
				"y": -0.5382029222,
				"z": 2.1109385798,
				"element": "C" 
			},
			{
				"x": 1.0856243351,
				"y": -1.8566960066,
				"z": 2.0822793403,
				"element": "C" 
			},
			{
				"x": 1.977030859,
				"y": -2.9110834254,
				"z": 1.9011763547,
				"element": "C" 
			},
			{
				"x": 3.3368091027,
				"y": -2.6318523584,
				"z": 1.7581463047,
				"element": "C" 
			},
			{
				"x": 4.472106932,
				"y": -3.947858371,
				"z": 1.5370950147,
				"element": "Cl" 
			},
			{
				"x": 3.8149277848,
				"y": -1.3230371649,
				"z": 1.7903389295,
				"element": "C" 
			},
			{
				"x": 2.9100770826,
				"y": -0.2749168611,
				"z": 1.9635329594,
				"element": "C" 
			},
			{
				"x": 3.4946122817,
				"y": 1.3685694962,
				"z": 2.0011743044,
				"element": "Cl" 
			},
			{
				"x": -0.1975138254,
				"y": 0.4949429066,
				"z": 0.0954172856,
				"element": "C" 
			},
			{
				"x": -3.183580926,
				"y": 2.3511174884,
				"z": -1.2363746375,
				"element": "N" 
			},
			{
				"x": -3.4954826689,
				"y": 1.6254923583,
				"z": -2.1806612516,
				"element": "O" 
			},
			{
				"x": -3.7433214089,
				"y": 3.4086429695,
				"z": -0.9474689848,
				"element": "O" 
			},
			{
				"x": -1.7267491186,
				"y": 0.7146307391,
				"z": -4.7974058275,
				"element": "H" 
			},
			{
				"x": 0.0406060456,
				"y": 0.5280461949,
				"z": -4.6585526655,
				"element": "H" 
			},
			{
				"x": -0.663249989,
				"y": 2.142259354,
				"z": -5.0129955311,
				"element": "H" 
			},
			{
				"x": -2.8606774504,
				"y": 3.057350928,
				"z": 1.2662097777,
				"element": "H" 
			},
			{
				"x": -1.151304391,
				"y": 2.1874397316,
				"z": 2.8914811947,
				"element": "H" 
			},
			{
				"x": 0.0248822236,
				"y": -2.0464692837,
				"z": 2.2084479879,
				"element": "H" 
			},
			{
				"x": 1.6236023661,
				"y": -3.9351768629,
				"z": 1.8773012739,
				"element": "H" 
			},
			{
				"x": 4.8720570162,
				"y": -1.1150274326,
				"z": 1.6804096621,
				"element": "H" 
			},
			{
				"x": 0.5411248114,
				"y": -0.2186978313,
				"z": -0.2482741235,
				"element": "H" 
			}
		],
		 "valence_orbital": [ 
			{
				"type": "occ",
				"energy": -0.2952,
				"method": "rhf"
			},
			{
				"type": "occ",
				"energy": -0.28181,
				"method": "rhf"
			},
			{
				"type": "occ",
				"energy": -0.27783,
				"method": "rhf"
			},
			{
				"type": "occ",
				"energy": -0.2687,
				"method": "rhf"
			},
			{
				"type": "occ",
				"energy": -0.25732,
				"method": "rhf"
			},
			{
				"type": "unocc",
				"energy": -0.09089,
				"method": "rhf"
			},
			{
				"type": "unocc",
				"energy": -0.05213,
				"method": "rhf"
			},
			{
				"type": "unocc",
				"energy": -0.04093,
				"method": "rhf"
			},
			{
				"type": "unocc",
				"energy": -0.03964,
				"method": "rhf"
			},
			{
				"type": "unocc",
				"energy": -0.01212,
				"method": "rhf"
			}
		],
		"cosmo_sigma_profile": { 
			"-0.025": 0.0,
			"-0.024": 0.0,
			"-0.023": 0.0,
			"-0.022": 0.0,
			"-0.021": 0.0,
			"-0.02": 0.0,
			"-0.019": 0.0,
			"-0.018": 0.0,
			"-0.017": 0.0,
			"-0.016": 0.0,
			"-0.015": 0.0,
			"-0.014": 0.0,
			"-0.013": 0.0,
			"-0.012": 0.0,
			"-0.011": 0.0,
			"-0.01": 0.0130699366893,
			"-0.009": 3.26278944425,
			"-0.008": 9.82555344296,
			"-0.007": 14.6165513176,
			"-0.006": 16.8528092245,
			"-0.005": 16.7802848438,
			"-0.004": 21.2451395781,
			"-0.003": 21.2886080678,
			"-0.002": 21.9242683146,
			"-0.001": 31.7783181583,
			"0.0": 38.6636729836,
			"0.001": 28.7665984903,
			"0.002": 19.125741522,
			"0.003": 24.098208875,
			"0.004": 21.7013589196,
			"0.005": 8.97796593919,
			"0.006": 8.89046865347,
			"0.007": 10.0820796145,
			"0.008": 7.44746122333,
			"0.009": 6.01477431461,
			"0.01": 3.90203022322,
			"0.011": 4.91498963833,
			"0.012": 1.2604807964,
			"0.013": 0.0,
			"0.014": 0.0,
			"0.015": 0.0,
			"0.016": 0.0,
			"0.017": 0.0,
			"0.018": 0.0,
			"0.019": 0.0,
			"0.02": 0.0,
			"0.021": 0.0,
			"0.022": 0.0,
			"0.023": 0.0,
			"0.024": 0.0,
			"0.025": 0.0
		}
	}
}
