{
	 "smiles": "CCOC(=O)C=CN(C)C", 
	 "Tm": 290.65, 
	 "num_atms": 23, 
	 "gaussian": { 
		 "optdone": 1, 
		 "sigma_profile": "yes", 
		 "theory": "DFT", 
		 "functional": "B3LYP", 
		 "basiset": "6-31G**", 
		 "properties": { 
			 "R2extent": 2680.0167, 
			 "electric_dipole_moment_norm": 4.78565185633, 
			 "electric_quadrupole_moment_norm": 9.11160067881, 
			 "total_energy": -479.778086601, 
			 "HOMO_LUMO_gap": 0.19709, 
			 "cosmo_polarized_energy": -11.56, 
			 "cosmo_cavitation_energy": 26.39, 
			 "cosmo_dispersion_energy": -19.02, 
			 "cosmo_repulsion_energy": 1.58, 
			 "cosmo_total_nonelectrostatic_energy": 8.95, 
			 "SMD_solvation_energy": 5.94 
		},
		"coords": [
			{
				"x": -4.0689884507,
				"y": -2.5964652458,
				"z": -0.366366261,
				"element": "C" 
			},
			{
				"x": -3.7674279826,
				"y": -1.1043528279,
				"z": -0.3991979228,
				"element": "C" 
			},
			{
				"x": -2.4397999975,
				"y": -0.8209682223,
				"z": 0.0820688511,
				"element": "O" 
			},
			{
				"x": -1.4304238351,
				"y": -0.9175115113,
				"z": -0.8406402433,
				"element": "C" 
			},
			{
				"x": -1.6327807779,
				"y": -1.2221332935,
				"z": -2.0053423337,
				"element": "O" 
			},
			{
				"x": -0.1167472799,
				"y": -0.6110834608,
				"z": -0.2876313777,
				"element": "C" 
			},
			{
				"x": 0.0735156682,
				"y": -0.2580794886,
				"z": 1.0112473783,
				"element": "C" 
			},
			{
				"x": 1.2616886512,
				"y": -0.0165985104,
				"z": 1.6339610076,
				"element": "N" 
			},
			{
				"x": 1.2835940707,
				"y": 0.6781890326,
				"z": 2.9111366902,
				"element": "C" 
			},
			{
				"x": 2.4992486774,
				"y": -0.0440129669,
				"z": 0.8743200969,
				"element": "C" 
			},
			{
				"x": -5.1074782923,
				"y": -2.7769871923,
				"z": -0.6651240238,
				"element": "H" 
			},
			{
				"x": -3.4138651042,
				"y": -3.1298639265,
				"z": -1.0591555642,
				"element": "H" 
			},
			{
				"x": -3.9255209679,
				"y": -3.0015016151,
				"z": 0.6401834095,
				"element": "H" 
			},
			{
				"x": -3.8706336027,
				"y": -0.7109072367,
				"z": -1.4135422895,
				"element": "H" 
			},
			{
				"x": -4.4300751825,
				"y": -0.5509501612,
				"z": 0.2724678532,
				"element": "H" 
			},
			{
				"x": 0.6949279561,
				"y": -0.6828832384,
				"z": -1.0005691909,
				"element": "H" 
			},
			{
				"x": -0.7957385697,
				"y": -0.1730203828,
				"z": 1.6566907733,
				"element": "H" 
			},
			{
				"x": 1.4465787562,
				"y": 1.7604559224,
				"z": 2.7966069278,
				"element": "H" 
			},
			{
				"x": 0.3311714723,
				"y": 0.5295786759,
				"z": 3.4248949602,
				"element": "H" 
			},
			{
				"x": 2.082177893,
				"y": 0.2780914,
				"z": 3.5450754088,
				"element": "H" 
			},
			{
				"x": 2.5962411746,
				"y": 0.8212368198,
				"z": 0.2017064752,
				"element": "H" 
			},
			{
				"x": 2.5459175346,
				"y": -0.9548153985,
				"z": 0.2705432933,
				"element": "H" 
			},
			{
				"x": 3.3463181887,
				"y": -0.0452171718,
				"z": 1.5644660816,
				"element": "H" 
			}
		],
		 "valence_orbital": [ 
			{
				"type": "occ",
				"energy": -0.32007,
				"method": "rhf"
			},
			{
				"type": "occ",
				"energy": -0.31565,
				"method": "rhf"
			},
			{
				"type": "occ",
				"energy": -0.27256,
				"method": "rhf"
			},
			{
				"type": "occ",
				"energy": -0.24516,
				"method": "rhf"
			},
			{
				"type": "occ",
				"energy": -0.20447,
				"method": "rhf"
			},
			{
				"type": "unocc",
				"energy": -0.00738,
				"method": "rhf"
			},
			{
				"type": "unocc",
				"energy": 0.07828,
				"method": "rhf"
			},
			{
				"type": "unocc",
				"energy": 0.10623,
				"method": "rhf"
			},
			{
				"type": "unocc",
				"energy": 0.1141,
				"method": "rhf"
			},
			{
				"type": "unocc",
				"energy": 0.12034,
				"method": "rhf"
			}
		],
		"cosmo_sigma_profile": { 
			"-0.025": 0.0,
			"-0.024": 0.0,
			"-0.023": 0.0,
			"-0.022": 0.0,
			"-0.021": 0.0,
			"-0.02": 0.0,
			"-0.019": 0.0,
			"-0.018": 0.0,
			"-0.017": 0.0,
			"-0.016": 0.0,
			"-0.015": 0.0,
			"-0.014": 0.0,
			"-0.013": 0.0,
			"-0.012": 0.0,
			"-0.011": 0.0,
			"-0.01": 0.0,
			"-0.009": 0.0939089129535,
			"-0.008": 1.41141254833,
			"-0.007": 1.88254717037,
			"-0.006": 6.20131326814,
			"-0.005": 15.0860975042,
			"-0.004": 21.9259335899,
			"-0.003": 30.1892710014,
			"-0.002": 29.9888840361,
			"-0.001": 14.4811164886,
			"0.0": 14.2550216288,
			"0.001": 11.8035978065,
			"0.002": 8.27717732666,
			"0.003": 7.35178352414,
			"0.004": 9.97088762392,
			"0.005": 8.30094681296,
			"0.006": 4.9897147982,
			"0.007": 3.63568511285,
			"0.008": 1.85140009561,
			"0.009": 2.21558097087,
			"0.01": 1.32142104816,
			"0.011": 1.47966716308,
			"0.012": 1.38279170631,
			"0.013": 3.46586413822,
			"0.014": 4.40380689258,
			"0.015": 0.97693615529,
			"0.016": 0.0,
			"0.017": 0.0,
			"0.018": 0.0,
			"0.019": 0.0,
			"0.02": 0.0,
			"0.021": 0.0,
			"0.022": 0.0,
			"0.023": 0.0,
			"0.024": 0.0,
			"0.025": 0.0
		}
	}
}
