{
	 "smiles": "NC1=CC=C(F)C=C1", 
	 "Tm": 271.75, 
	 "num_atms": 14, 
	 "gaussian": { 
		 "optdone": 1, 
		 "sigma_profile": "yes", 
		 "theory": "DFT", 
		 "functional": "B3LYP", 
		 "basiset": "6-31G**", 
		 "properties": { 
			 "R2extent": 1356.9821, 
			 "electric_dipole_moment_norm": 2.85080859582, 
			 "electric_quadrupole_moment_norm": 8.93100027209, 
			 "total_energy": -386.839838745, 
			 "HOMO_LUMO_gap": 0.19479, 
			 "cosmo_polarized_energy": -7.99, 
			 "cosmo_cavitation_energy": 18.28, 
			 "cosmo_dispersion_energy": -13.67, 
			 "cosmo_repulsion_energy": 1.12, 
			 "cosmo_total_nonelectrostatic_energy": 5.74, 
			 "SMD_solvation_energy": 3.68 
		},
		"coords": [
			{
				"x": 1.0186064611,
				"y": -1.5349449819,
				"z": 0.9226172934,
				"element": "N" 
			},
			{
				"x": -0.0415282035,
				"y": -1.0588038391,
				"z": 0.1393675806,
				"element": "C" 
			},
			{
				"x": -0.2038342532,
				"y": 0.3182539721,
				"z": -0.0893690682,
				"element": "C" 
			},
			{
				"x": -1.2198726624,
				"y": 0.7916108901,
				"z": -0.9175871944,
				"element": "C" 
			},
			{
				"x": -2.0807828176,
				"y": -0.1156666987,
				"z": -1.5226153252,
				"element": "C" 
			},
			{
				"x": -3.071499459,
				"y": 0.341610168,
				"z": -2.3247931849,
				"element": "F" 
			},
			{
				"x": -1.9466586827,
				"y": -1.4831406784,
				"z": -1.3167088982,
				"element": "C" 
			},
			{
				"x": -0.9286881141,
				"y": -1.9504443732,
				"z": -0.4874307286,
				"element": "C" 
			},
			{
				"x": 1.359790985,
				"y": -0.8773424162,
				"z": 1.6109998736,
				"element": "H" 
			},
			{
				"x": 0.8593076843,
				"y": -2.4440341724,
				"z": 1.3360202521,
				"element": "H" 
			},
			{
				"x": 0.4753714394,
				"y": 1.0239097816,
				"z": 0.3821986845,
				"element": "H" 
			},
			{
				"x": -1.3498621251,
				"y": 1.8540261833,
				"z": -1.0946600787,
				"element": "H" 
			},
			{
				"x": -2.6349657673,
				"y": -2.1681764401,
				"z": -1.8003702912,
				"element": "H" 
			},
			{
				"x": -0.8165844849,
				"y": -3.0197573952,
				"z": -0.3272689146,
				"element": "H" 
			}
		],
		 "valence_orbital": [ 
			{
				"type": "occ",
				"energy": -0.37224,
				"method": "rhf"
			},
			{
				"type": "occ",
				"energy": -0.33673,
				"method": "rhf"
			},
			{
				"type": "occ",
				"energy": -0.29985,
				"method": "rhf"
			},
			{
				"type": "occ",
				"energy": -0.25322,
				"method": "rhf"
			},
			{
				"type": "occ",
				"energy": -0.19914,
				"method": "rhf"
			},
			{
				"type": "unocc",
				"energy": -0.00435,
				"method": "rhf"
			},
			{
				"type": "unocc",
				"energy": 0.0232,
				"method": "rhf"
			},
			{
				"type": "unocc",
				"energy": 0.07734,
				"method": "rhf"
			},
			{
				"type": "unocc",
				"energy": 0.09826,
				"method": "rhf"
			},
			{
				"type": "unocc",
				"energy": 0.11943,
				"method": "rhf"
			}
		],
		"cosmo_sigma_profile": { 
			"-0.025": 0.0,
			"-0.024": 0.0,
			"-0.023": 0.0,
			"-0.022": 0.0,
			"-0.021": 0.0,
			"-0.02": 0.0,
			"-0.019": 0.0,
			"-0.018": 0.0,
			"-0.017": 0.0,
			"-0.016": 0.0,
			"-0.015": 0.0,
			"-0.014": 0.0,
			"-0.013": 0.1319247254,
			"-0.012": 2.18995683859,
			"-0.011": 3.23753927375,
			"-0.01": 1.98769170015,
			"-0.009": 4.27430979268,
			"-0.008": 3.00775353831,
			"-0.007": 4.81254675624,
			"-0.006": 8.36803348505,
			"-0.005": 7.57597950073,
			"-0.004": 8.19201009311,
			"-0.003": 6.91019171999,
			"-0.002": 6.41016484498,
			"-0.001": 4.93666673205,
			"0.0": 6.46177534692,
			"0.001": 6.38050899493,
			"0.002": 11.4801029091,
			"0.003": 10.6509361651,
			"0.004": 12.536938829,
			"0.005": 21.9196007801,
			"0.006": 7.77037149993,
			"0.007": 1.12060811819,
			"0.008": 0.58515311473,
			"0.009": 0.798397051438,
			"0.01": 0.661673200318,
			"0.011": 0.830639128601,
			"0.012": 0.658732189104,
			"0.013": 0.710243925335,
			"0.014": 0.565675043986,
			"0.015": 0.516985900718,
			"0.016": 0.0360942685101,
			"0.017": 0.0,
			"0.018": 0.0,
			"0.019": 0.0,
			"0.02": 0.0,
			"0.021": 0.0,
			"0.022": 0.0,
			"0.023": 0.0,
			"0.024": 0.0,
			"0.025": 0.0
		}
	}
}
