{
	 "smiles": "FC(F)(N(=O)=O)C(F)(F)N(=O)=O", 
	 "Tm": 231.65, 
	 "num_atms": 12, 
	 "gaussian": { 
		 "optdone": 1, 
		 "sigma_profile": "yes", 
		 "theory": "DFT", 
		 "functional": "B3LYP", 
		 "basiset": "6-31G**", 
		 "properties": { 
			 "R2extent": 1640.3597, 
			 "electric_dipole_moment_norm": 2.31745586797, 
			 "electric_quadrupole_moment_norm": 3.17338356805, 
			 "total_energy": -885.712069783, 
			 "HOMO_LUMO_gap": 0.22107, 
			 "cosmo_polarized_energy": -4.85, 
			 "cosmo_cavitation_energy": 20.45, 
			 "cosmo_dispersion_energy": -13.8, 
			 "cosmo_repulsion_energy": 1.04, 
			 "cosmo_total_nonelectrostatic_energy": 7.68, 
			 "SMD_solvation_energy": 9.35 
		},
		"coords": [
			{
				"x": -1.2899006491,
				"y": 0.1426131906,
				"z": -1.822361912,
				"element": "F" 
			},
			{
				"x": -0.8495617578,
				"y": -0.3377803557,
				"z": -0.6712893971,
				"element": "C" 
			},
			{
				"x": -1.7713435524,
				"y": -1.1457978775,
				"z": -0.1270638556,
				"element": "F" 
			},
			{
				"x": -0.6710153457,
				"y": 0.8290251037,
				"z": 0.3234048687,
				"element": "N" 
			},
			{
				"x": -1.3948408834,
				"y": 1.7892420153,
				"z": 0.1659756899,
				"element": "O" 
			},
			{
				"x": 0.1526347891,
				"y": 0.6262077214,
				"z": 1.2060792099,
				"element": "O" 
			},
			{
				"x": 0.4612159778,
				"y": -1.1567900179,
				"z": -0.8655364531,
				"element": "C" 
			},
			{
				"x": 0.6639617727,
				"y": -1.9843452484,
				"z": 0.1462384042,
				"element": "F" 
			},
			{
				"x": 0.3578525945,
				"y": -1.84687049,
				"z": -2.0108959452,
				"element": "F" 
			},
			{
				"x": 1.7007216435,
				"y": -0.251337009,
				"z": -1.0286917143,
				"element": "N" 
			},
			{
				"x": 1.4776846039,
				"y": 0.8292214787,
				"z": -1.5590361424,
				"element": "O" 
			},
			{
				"x": 2.7619908069,
				"y": -0.7184885111,
				"z": -0.6734227529,
				"element": "O" 
			}
		],
		 "valence_orbital": [ 
			{
				"type": "occ",
				"energy": -0.36015,
				"method": "rhf"
			},
			{
				"type": "occ",
				"energy": -0.35265,
				"method": "rhf"
			},
			{
				"type": "occ",
				"energy": -0.35088,
				"method": "rhf"
			},
			{
				"type": "occ",
				"energy": -0.34971,
				"method": "rhf"
			},
			{
				"type": "occ",
				"energy": -0.34343,
				"method": "rhf"
			},
			{
				"type": "unocc",
				"energy": -0.12236,
				"method": "rhf"
			},
			{
				"type": "unocc",
				"energy": -0.11421,
				"method": "rhf"
			},
			{
				"type": "unocc",
				"energy": 0.0205,
				"method": "rhf"
			},
			{
				"type": "unocc",
				"energy": 0.04068,
				"method": "rhf"
			},
			{
				"type": "unocc",
				"energy": 0.11349,
				"method": "rhf"
			}
		],
		"cosmo_sigma_profile": { 
			"-0.025": 0.0,
			"-0.024": 0.0,
			"-0.023": 0.0,
			"-0.022": 0.0,
			"-0.021": 0.0,
			"-0.02": 0.0,
			"-0.019": 0.0,
			"-0.018": 0.0,
			"-0.017": 0.0,
			"-0.016": 0.0,
			"-0.015": 0.0,
			"-0.014": 0.0,
			"-0.013": 0.0,
			"-0.012": 0.0,
			"-0.011": 0.0,
			"-0.01": 0.254621667107,
			"-0.009": 1.36942796432,
			"-0.008": 2.54053248309,
			"-0.007": 3.18229848606,
			"-0.006": 4.89359783548,
			"-0.005": 7.34433304806,
			"-0.004": 9.14769796222,
			"-0.003": 9.10723637191,
			"-0.002": 12.7262143461,
			"-0.001": 25.9027027634,
			"0.0": 23.6883158393,
			"0.001": 8.89172575839,
			"0.002": 8.93827814603,
			"0.003": 9.91865447112,
			"0.004": 15.8383657969,
			"0.005": 13.117136383,
			"0.006": 6.40015713472,
			"0.007": 1.53829697483,
			"0.008": 0.0,
			"0.009": 0.0,
			"0.01": 0.0,
			"0.011": 0.0,
			"0.012": 0.0,
			"0.013": 0.0,
			"0.014": 0.0,
			"0.015": 0.0,
			"0.016": 0.0,
			"0.017": 0.0,
			"0.018": 0.0,
			"0.019": 0.0,
			"0.02": 0.0,
			"0.021": 0.0,
			"0.022": 0.0,
			"0.023": 0.0,
			"0.024": 0.0,
			"0.025": 0.0
		}
	}
}
