{
	 "smiles": "COC1=C2OCCOC2=CC(C=O)=C1", 
	 "Tm": 355.15, 
	 "num_atms": 24, 
	 "gaussian": { 
		 "optdone": 1, 
		 "sigma_profile": "yes", 
		 "theory": "DFT", 
		 "functional": "B3LYP", 
		 "basiset": "6-31G**", 
		 "properties": { 
			 "R2extent": 3432.0602, 
			 "electric_dipole_moment_norm": 6.04687368646, 
			 "electric_quadrupole_moment_norm": 8.89799663014, 
			 "total_energy": -687.938519034, 
			 "HOMO_LUMO_gap": 0.17258, 
			 "cosmo_polarized_energy": -12.85, 
			 "cosmo_cavitation_energy": 27.88, 
			 "cosmo_dispersion_energy": -20.6, 
			 "cosmo_repulsion_energy": 1.63, 
			 "cosmo_total_nonelectrostatic_energy": 8.9, 
			 "SMD_solvation_energy": 6.99 
		},
		"coords": [
			{
				"x": -0.2294982413,
				"y": 0.229819441,
				"z": 2.4784166774,
				"element": "C" 
			},
			{
				"x": 0.7793180865,
				"y": 0.8772976477,
				"z": 1.6975627818,
				"element": "O" 
			},
			{
				"x": 0.8801406822,
				"y": 0.4751395614,
				"z": 0.3914504555,
				"element": "C" 
			},
			{
				"x": 1.3460200752,
				"y": -0.8194320126,
				"z": 0.0678274835,
				"element": "C" 
			},
			{
				"x": 1.6583650009,
				"y": -1.6699521838,
				"z": 1.0931230317,
				"element": "O" 
			},
			{
				"x": 2.4330239402,
				"y": -2.8056000249,
				"z": 0.6966925532,
				"element": "C" 
			},
			{
				"x": 1.8614840554,
				"y": -3.4057423225,
				"z": -0.5764178985,
				"element": "C" 
			},
			{
				"x": 1.9189896727,
				"y": -2.4500803087,
				"z": -1.6343437772,
				"element": "O" 
			},
			{
				"x": 1.4867272514,
				"y": -1.1952546213,
				"z": -1.2799726403,
				"element": "C" 
			},
			{
				"x": 1.2048153076,
				"y": -0.2820526683,
				"z": -2.2927337127,
				"element": "C" 
			},
			{
				"x": 0.768448757,
				"y": 1.0058703745,
				"z": -1.9677513241,
				"element": "C" 
			},
			{
				"x": 0.4727766645,
				"y": 1.967388854,
				"z": -3.0485706709,
				"element": "C" 
			},
			{
				"x": 0.0739453682,
				"y": 3.1048373809,
				"z": -2.8784701624,
				"element": "O" 
			},
			{
				"x": 0.5941258028,
				"y": 1.376017722,
				"z": -0.6246687845,
				"element": "C" 
			},
			{
				"x": -0.1969866575,
				"y": 0.7003592007,
				"z": 3.4628901205,
				"element": "H" 
			},
			{
				"x": -1.2226525593,
				"y": 0.3836756869,
				"z": 2.0375253482,
				"element": "H" 
			},
			{
				"x": -0.0353263311,
				"y": -0.8421788117,
				"z": 2.5802441728,
				"element": "H" 
			},
			{
				"x": 2.3906776244,
				"y": -3.5121924169,
				"z": 1.5288397291,
				"element": "H" 
			},
			{
				"x": 3.4751345911,
				"y": -2.5009327443,
				"z": 0.5352892014,
				"element": "H" 
			},
			{
				"x": 0.8216896045,
				"y": -3.7188809131,
				"z": -0.4093295455,
				"element": "H" 
			},
			{
				"x": 2.4447029716,
				"y": -4.2692355289,
				"z": -0.9054981971,
				"element": "H" 
			},
			{
				"x": 1.3292883762,
				"y": -0.5916831636,
				"z": -3.3263658056,
				"element": "H" 
			},
			{
				"x": 0.6439346346,
				"y": 1.5709302955,
				"z": -4.0749552838,
				"element": "H" 
			},
			{
				"x": 0.2511553223,
				"y": 2.374881556,
				"z": -0.3798837526,
				"element": "H" 
			}
		],
		 "valence_orbital": [ 
			{
				"type": "occ",
				"energy": -0.31086,
				"method": "rhf"
			},
			{
				"type": "occ",
				"energy": -0.28218,
				"method": "rhf"
			},
			{
				"type": "occ",
				"energy": -0.24728,
				"method": "rhf"
			},
			{
				"type": "occ",
				"energy": -0.235,
				"method": "rhf"
			},
			{
				"type": "occ",
				"energy": -0.22506,
				"method": "rhf"
			},
			{
				"type": "unocc",
				"energy": -0.05248,
				"method": "rhf"
			},
			{
				"type": "unocc",
				"energy": -0.00178,
				"method": "rhf"
			},
			{
				"type": "unocc",
				"energy": 0.05018,
				"method": "rhf"
			},
			{
				"type": "unocc",
				"energy": 0.06524,
				"method": "rhf"
			},
			{
				"type": "unocc",
				"energy": 0.09505,
				"method": "rhf"
			}
		],
		"cosmo_sigma_profile": { 
			"-0.025": 0.0,
			"-0.024": 0.0,
			"-0.023": 0.0,
			"-0.022": 0.0,
			"-0.021": 0.0,
			"-0.02": 0.0,
			"-0.019": 0.0,
			"-0.018": 0.0,
			"-0.017": 0.0,
			"-0.016": 0.0,
			"-0.015": 0.0,
			"-0.014": 0.0,
			"-0.013": 0.0,
			"-0.012": 0.0,
			"-0.011": 0.0,
			"-0.01": 0.0,
			"-0.009": 0.0,
			"-0.008": 3.22171655761,
			"-0.007": 12.4933140335,
			"-0.006": 18.6787376006,
			"-0.005": 18.2403847559,
			"-0.004": 15.9446682766,
			"-0.003": 18.7645412317,
			"-0.002": 15.5232411451,
			"-0.001": 13.5239693756,
			"0.0": 12.1704051592,
			"0.001": 11.8489379104,
			"0.002": 18.3818965544,
			"0.003": 13.8791517308,
			"0.004": 7.03028859812,
			"0.005": 6.22877190087,
			"0.006": 4.11120335637,
			"0.007": 4.27668562497,
			"0.008": 5.52827941884,
			"0.009": 6.12283506907,
			"0.01": 5.01149919539,
			"0.011": 5.21759648832,
			"0.012": 4.40405480029,
			"0.013": 1.22544827752,
			"0.014": 0.0883765708612,
			"0.015": 0.0,
			"0.016": 0.0,
			"0.017": 0.0,
			"0.018": 0.0,
			"0.019": 0.0,
			"0.02": 0.0,
			"0.021": 0.0,
			"0.022": 0.0,
			"0.023": 0.0,
			"0.024": 0.0,
			"0.025": 0.0
		}
	}
}
