{
	 "smiles": "FC1=C(C=O)C=CC(Br)=C1", 
	 "Tm": 334.15, 
	 "num_atms": 14, 
	 "gaussian": { 
		 "optdone": 1, 
		 "sigma_profile": "yes", 
		 "theory": "DFT", 
		 "functional": "B3LYP", 
		 "basiset": "6-31G**", 
		 "properties": { 
			 "R2extent": 6927.2164, 
			 "electric_dipole_moment_norm": 1.92457505699, 
			 "electric_quadrupole_moment_norm": 3.48491609512, 
			 "total_energy": -3015.60523374, 
			 "HOMO_LUMO_gap": 0.18445, 
			 "cosmo_polarized_energy": -6.25, 
			 "cosmo_cavitation_energy": 21.89, 
			 "cosmo_dispersion_energy": -16.33, 
			 "cosmo_repulsion_energy": 1.29, 
			 "cosmo_total_nonelectrostatic_energy": 6.85, 
			 "SMD_solvation_energy": 4.2 
		},
		"coords": [
			{
				"x": 3.0612744809,
				"y": 1.1216458198,
				"z": 0.7719961239,
				"element": "F" 
			},
			{
				"x": 2.133824636,
				"y": 1.9039966917,
				"z": 0.1867973005,
				"element": "C" 
			},
			{
				"x": 1.0664866111,
				"y": 1.3071764353,
				"z": -0.4923862256,
				"element": "C" 
			},
			{
				"x": 0.9251016411,
				"y": -0.1643958045,
				"z": -0.5877663768,
				"element": "C" 
			},
			{
				"x": 0.0064030214,
				"y": -0.7094835656,
				"z": -1.1714865171,
				"element": "O" 
			},
			{
				"x": 0.118265451,
				"y": 2.1526920668,
				"z": -1.0904720415,
				"element": "C" 
			},
			{
				"x": 0.232215775,
				"y": 3.5345743014,
				"z": -1.0129560942,
				"element": "C" 
			},
			{
				"x": 1.3183348219,
				"y": 4.0840498299,
				"z": -0.3220956656,
				"element": "C" 
			},
			{
				"x": 1.489473357,
				"y": 5.9766530853,
				"z": -0.2065135094,
				"element": "Br" 
			},
			{
				"x": 2.2819615185,
				"y": 3.2819516685,
				"z": 0.2859893611,
				"element": "C" 
			},
			{
				"x": 1.7171239354,
				"y": -0.7527614952,
				"z": -0.0871808996,
				"element": "H" 
			},
			{
				"x": -0.7088717031,
				"y": 1.6865359562,
				"z": -1.6167863837,
				"element": "H" 
			},
			{
				"x": -0.5017848238,
				"y": 4.1830368877,
				"z": -1.4759799671,
				"element": "H" 
			},
			{
				"x": 3.1240912776,
				"y": 3.7016281227,
				"z": 0.8216408949,
				"element": "H" 
			}
		],
		 "valence_orbital": [ 
			{
				"type": "occ",
				"energy": -0.32585,
				"method": "rhf"
			},
			{
				"type": "occ",
				"energy": -0.30548,
				"method": "rhf"
			},
			{
				"type": "occ",
				"energy": -0.27915,
				"method": "rhf"
			},
			{
				"type": "occ",
				"energy": -0.26543,
				"method": "rhf"
			},
			{
				"type": "occ",
				"energy": -0.2636,
				"method": "rhf"
			},
			{
				"type": "unocc",
				"energy": -0.07915,
				"method": "rhf"
			},
			{
				"type": "unocc",
				"energy": -0.02869,
				"method": "rhf"
			},
			{
				"type": "unocc",
				"energy": -0.01223,
				"method": "rhf"
			},
			{
				"type": "unocc",
				"energy": 0.0184,
				"method": "rhf"
			},
			{
				"type": "unocc",
				"energy": 0.09939,
				"method": "rhf"
			}
		],
		"cosmo_sigma_profile": { 
			"-0.025": 0.0,
			"-0.024": 0.0,
			"-0.023": 0.0,
			"-0.022": 0.0,
			"-0.021": 0.0,
			"-0.02": 0.0,
			"-0.019": 0.0,
			"-0.018": 0.0,
			"-0.017": 0.0,
			"-0.016": 0.0,
			"-0.015": 0.0,
			"-0.014": 0.0,
			"-0.013": 0.0,
			"-0.012": 0.0,
			"-0.011": 0.0,
			"-0.01": 0.0358863060597,
			"-0.009": 1.27218324284,
			"-0.008": 2.97501861944,
			"-0.007": 6.23285462428,
			"-0.006": 8.44118544548,
			"-0.005": 10.4991528925,
			"-0.004": 9.58862856166,
			"-0.003": 11.1737620074,
			"-0.002": 13.5419275351,
			"-0.001": 17.5863308453,
			"0.0": 22.0785888621,
			"0.001": 18.3286202143,
			"0.002": 13.5089362493,
			"0.003": 18.6088195593,
			"0.004": 9.0333968855,
			"0.005": 1.18533202643,
			"0.006": 1.55653679135,
			"0.007": 1.570695444,
			"0.008": 1.8005317793,
			"0.009": 1.91185285921,
			"0.01": 3.2658614251,
			"0.011": 4.14074794602,
			"0.012": 1.6405600146,
			"0.013": 0.308872544234,
			"0.014": 0.0,
			"0.015": 0.0,
			"0.016": 0.0,
			"0.017": 0.0,
			"0.018": 0.0,
			"0.019": 0.0,
			"0.02": 0.0,
			"0.021": 0.0,
			"0.022": 0.0,
			"0.023": 0.0,
			"0.024": 0.0,
			"0.025": 0.0
		}
	}
}
