{
	 "smiles": "NS(=O)(=O)C1=C(F)C=CC(=C1)C(F)(F)F", 
	 "Tm": 401.15, 
	 "num_atms": 20, 
	 "gaussian": { 
		 "optdone": 1, 
		 "sigma_profile": "yes", 
		 "theory": "DFT", 
		 "functional": "B3LYP", 
		 "basiset": "6-31G**", 
		 "properties": { 
			 "R2extent": 4177.5486, 
			 "electric_dipole_moment_norm": 5.69669840697, 
			 "electric_quadrupole_moment_norm": 14.4363787239, 
			 "total_energy": -1272.43111877, 
			 "HOMO_LUMO_gap": 0.22382, 
			 "cosmo_polarized_energy": -17.26, 
			 "cosmo_cavitation_energy": 28.0, 
			 "cosmo_dispersion_energy": -20.4, 
			 "cosmo_repulsion_energy": 1.47, 
			 "cosmo_total_nonelectrostatic_energy": 9.07, 
			 "SMD_solvation_energy": 5.95 
		},
		"coords": [
			{
				"x": 0.0564655374,
				"y": 3.319140723,
				"z": 2.0761162603,
				"element": "N" 
			},
			{
				"x": 1.2182364967,
				"y": 2.6934876128,
				"z": 1.0521361635,
				"element": "S" 
			},
			{
				"x": 1.3015000775,
				"y": 3.6056419648,
				"z": -0.0855595298,
				"element": "O" 
			},
			{
				"x": 2.368942661,
				"y": 2.3556852694,
				"z": 1.880611106,
				"element": "O" 
			},
			{
				"x": 0.5435393603,
				"y": 1.1478531237,
				"z": 0.4082448172,
				"element": "C" 
			},
			{
				"x": 0.1108383455,
				"y": 0.1343120988,
				"z": 1.2636864439,
				"element": "C" 
			},
			{
				"x": 0.1281004974,
				"y": 0.3450006785,
				"z": 2.5956168197,
				"element": "F" 
			},
			{
				"x": -0.3679419858,
				"y": -1.0757371892,
				"z": 0.7806355198,
				"element": "C" 
			},
			{
				"x": -0.404865461,
				"y": -1.2787109002,
				"z": -0.5975354537,
				"element": "C" 
			},
			{
				"x": 0.024859475,
				"y": -0.2743412655,
				"z": -1.4703016391,
				"element": "C" 
			},
			{
				"x": 0.4990956978,
				"y": 0.9392465278,
				"z": -0.9691860553,
				"element": "C" 
			},
			{
				"x": 0.0232635316,
				"y": -0.525733305,
				"z": -2.9562364107,
				"element": "C" 
			},
			{
				"x": -0.0722531474,
				"y": 0.6222314404,
				"z": -3.6567715998,
				"element": "F" 
			},
			{
				"x": -1.0086411706,
				"y": -1.3190629186,
				"z": -3.3200967164,
				"element": "F" 
			},
			{
				"x": 1.1557405612,
				"y": -1.1452144383,
				"z": -3.3541531516,
				"element": "F" 
			},
			{
				"x": -0.1354531044,
				"y": 2.7139873632,
				"z": 2.8683645125,
				"element": "H" 
			},
			{
				"x": -0.774115052,
				"y": 3.6382000904,
				"z": 1.587934206,
				"element": "H" 
			},
			{
				"x": -0.703523876,
				"y": -1.8331517798,
				"z": 1.4800501397,
				"element": "H" 
			},
			{
				"x": -0.7805756074,
				"y": -2.2147862069,
				"z": -0.9956077724,
				"element": "H" 
			},
			{
				"x": 0.8265871633,
				"y": 1.7326511107,
				"z": -1.63124766,
				"element": "H" 
			}
		],
		 "valence_orbital": [ 
			{
				"type": "occ",
				"energy": -0.32988,
				"method": "rhf"
			},
			{
				"type": "occ",
				"energy": -0.31871,
				"method": "rhf"
			},
			{
				"type": "occ",
				"energy": -0.31432,
				"method": "rhf"
			},
			{
				"type": "occ",
				"energy": -0.29596,
				"method": "rhf"
			},
			{
				"type": "occ",
				"energy": -0.2865,
				"method": "rhf"
			},
			{
				"type": "unocc",
				"energy": -0.06268,
				"method": "rhf"
			},
			{
				"type": "unocc",
				"energy": -0.04975,
				"method": "rhf"
			},
			{
				"type": "unocc",
				"energy": 0.0373,
				"method": "rhf"
			},
			{
				"type": "unocc",
				"energy": 0.05053,
				"method": "rhf"
			},
			{
				"type": "unocc",
				"energy": 0.06753,
				"method": "rhf"
			}
		],
		"cosmo_sigma_profile": { 
			"-0.025": 0.0,
			"-0.024": 0.0,
			"-0.023": 0.0,
			"-0.022": 0.0,
			"-0.021": 0.0,
			"-0.02": 0.0,
			"-0.019": 0.0,
			"-0.018": 0.0,
			"-0.017": 0.0,
			"-0.016": 0.835260795059,
			"-0.015": 1.88060462434,
			"-0.014": 1.85324941273,
			"-0.013": 2.29094441714,
			"-0.012": 2.76485578402,
			"-0.011": 2.21342102817,
			"-0.01": 2.63323116645,
			"-0.009": 5.61611636001,
			"-0.008": 5.38662475079,
			"-0.007": 7.41809286008,
			"-0.006": 6.28862905401,
			"-0.005": 6.39361405202,
			"-0.004": 8.4275910764,
			"-0.003": 10.7055233127,
			"-0.002": 16.5110863413,
			"-0.001": 18.4710551155,
			"0.0": 17.1927309137,
			"0.001": 13.0173105481,
			"0.002": 28.0302203769,
			"0.003": 21.6967582309,
			"0.004": 4.68432798377,
			"0.005": 3.40422706695,
			"0.006": 3.85930738286,
			"0.007": 4.26506107012,
			"0.008": 4.494763705,
			"0.009": 6.01852731007,
			"0.01": 10.6298981372,
			"0.011": 7.87986061517,
			"0.012": 0.284949742579,
			"0.013": 0.0,
			"0.014": 0.0,
			"0.015": 0.0,
			"0.016": 0.0,
			"0.017": 0.0,
			"0.018": 0.0,
			"0.019": 0.0,
			"0.02": 0.0,
			"0.021": 0.0,
			"0.022": 0.0,
			"0.023": 0.0,
			"0.024": 0.0,
			"0.025": 0.0
		}
	}
}
