{
	 "smiles": "COC1=CC=CC(C=NO)=C1OC", 
	 "Tm": 372.15, 
	 "num_atms": 24, 
	 "gaussian": { 
		 "optdone": 1, 
		 "sigma_profile": "yes", 
		 "theory": "DFT", 
		 "functional": "B3LYP", 
		 "basiset": "6-31G**", 
		 "properties": { 
			 "R2extent": 2643.6264, 
			 "electric_dipole_moment_norm": 0.359001657378, 
			 "electric_quadrupole_moment_norm": 10.6809609221, 
			 "total_energy": -629.910776885, 
			 "HOMO_LUMO_gap": 0.18437, 
			 "cosmo_polarized_energy": -10.55, 
			 "cosmo_cavitation_energy": 28.06, 
			 "cosmo_dispersion_energy": -20.02, 
			 "cosmo_repulsion_energy": 1.61, 
			 "cosmo_total_nonelectrostatic_energy": 9.66, 
			 "SMD_solvation_energy": 7.07 
		},
		"coords": [
			{
				"x": 0.0037630087,
				"y": -0.2870729999,
				"z": -3.5213749542,
				"element": "C" 
			},
			{
				"x": -0.1844036332,
				"y": 0.8038511804,
				"z": -2.6124076848,
				"element": "O" 
			},
			{
				"x": -0.5920521936,
				"y": 0.4502970827,
				"z": -1.347331844,
				"element": "C" 
			},
			{
				"x": -1.8867870601,
				"y": 0.7781804651,
				"z": -0.9416921958,
				"element": "C" 
			},
			{
				"x": -2.3089344943,
				"y": 0.4734376725,
				"z": 0.3523268601,
				"element": "C" 
			},
			{
				"x": -1.4390698785,
				"y": -0.1611211601,
				"z": 1.2324650144,
				"element": "C" 
			},
			{
				"x": -0.1216858196,
				"y": -0.4854851116,
				"z": 0.8553657361,
				"element": "C" 
			},
			{
				"x": 0.7170471813,
				"y": -1.1358859104,
				"z": 1.8670147573,
				"element": "C" 
			},
			{
				"x": 1.9855168086,
				"y": -1.2991749306,
				"z": 1.7637512278,
				"element": "N" 
			},
			{
				"x": 2.4808263092,
				"y": -1.9417353404,
				"z": 2.909535463,
				"element": "O" 
			},
			{
				"x": 0.2980254921,
				"y": -0.1791302964,
				"z": -0.4577530211,
				"element": "C" 
			},
			{
				"x": 1.5433736126,
				"y": -0.5320839342,
				"z": -0.9099204893,
				"element": "O" 
			},
			{
				"x": 2.5283417919,
				"y": 0.5047562985,
				"z": -0.8301825965,
				"element": "C" 
			},
			{
				"x": -0.9374724617,
				"y": -0.8300775331,
				"z": -3.676547649,
				"element": "H" 
			},
			{
				"x": 0.7709153434,
				"y": -0.9773139531,
				"z": -3.1594819598,
				"element": "H" 
			},
			{
				"x": 0.321836717,
				"y": 0.156613813,
				"z": -4.4671447053,
				"element": "H" 
			},
			{
				"x": -2.5399640096,
				"y": 1.2728373362,
				"z": -1.6534047073,
				"element": "H" 
			},
			{
				"x": -3.3167240479,
				"y": 0.7238876514,
				"z": 0.6688893568,
				"element": "H" 
			},
			{
				"x": -1.7686133985,
				"y": -0.4036514353,
				"z": 2.2389748058,
				"element": "H" 
			},
			{
				"x": 0.2095168957,
				"y": -1.4785410901,
				"z": 2.7731431301,
				"element": "H" 
			},
			{
				"x": 3.4232819919,
				"y": -2.020107454,
				"z": 2.7107113498,
				"element": "H" 
			},
			{
				"x": 2.2103392592,
				"y": 1.3877987729,
				"z": -1.3950465683,
				"element": "H" 
			},
			{
				"x": 2.7264760808,
				"y": 0.7688931321,
				"z": 0.2135286708,
				"element": "H" 
			},
			{
				"x": 3.4376465048,
				"y": 0.0946277444,
				"z": -1.2741179967,
				"element": "H" 
			}
		],
		 "valence_orbital": [ 
			{
				"type": "occ",
				"energy": -0.28285,
				"method": "rhf"
			},
			{
				"type": "occ",
				"energy": -0.2762,
				"method": "rhf"
			},
			{
				"type": "occ",
				"energy": -0.25648,
				"method": "rhf"
			},
			{
				"type": "occ",
				"energy": -0.23262,
				"method": "rhf"
			},
			{
				"type": "occ",
				"energy": -0.224,
				"method": "rhf"
			},
			{
				"type": "unocc",
				"energy": -0.03963,
				"method": "rhf"
			},
			{
				"type": "unocc",
				"energy": 0.00034,
				"method": "rhf"
			},
			{
				"type": "unocc",
				"energy": 0.05126,
				"method": "rhf"
			},
			{
				"type": "unocc",
				"energy": 0.07536,
				"method": "rhf"
			},
			{
				"type": "unocc",
				"energy": 0.09039,
				"method": "rhf"
			}
		],
		"cosmo_sigma_profile": { 
			"-0.025": 0.0,
			"-0.024": 0.0,
			"-0.023": 0.0,
			"-0.022": 0.0,
			"-0.021": 0.0,
			"-0.02": 0.0,
			"-0.019": 0.0,
			"-0.018": 0.0864117487202,
			"-0.017": 0.875716331215,
			"-0.016": 1.07796994173,
			"-0.015": 0.873165184164,
			"-0.014": 0.55816836627,
			"-0.013": 0.738274113565,
			"-0.012": 0.908501323093,
			"-0.011": 0.503586943424,
			"-0.01": 0.595926622389,
			"-0.009": 0.572755110797,
			"-0.008": 2.09303018239,
			"-0.007": 4.69968377427,
			"-0.006": 8.84563953761,
			"-0.005": 12.0172597313,
			"-0.004": 18.9426505717,
			"-0.003": 21.2507408801,
			"-0.002": 22.6487088966,
			"-0.001": 13.5331246786,
			"0.0": 13.6567619706,
			"0.001": 13.8256860406,
			"0.002": 15.5921506946,
			"0.003": 16.2407248078,
			"0.004": 13.8680342345,
			"0.005": 9.44901684658,
			"0.006": 4.70213214277,
			"0.007": 4.89567424916,
			"0.008": 4.14143255107,
			"0.009": 3.60117199958,
			"0.01": 4.34485349164,
			"0.011": 3.75844583621,
			"0.012": 1.84057508786,
			"0.013": 1.07096433957,
			"0.014": 0.62042442362,
			"0.015": 0.0591901798927,
			"0.016": 0.0,
			"0.017": 0.0,
			"0.018": 0.0,
			"0.019": 0.0,
			"0.02": 0.0,
			"0.021": 0.0,
			"0.022": 0.0,
			"0.023": 0.0,
			"0.024": 0.0,
			"0.025": 0.0
		}
	}
}
