{
	 "smiles": "CC1=C(N)C=CC(=C1)C(=O)N1CCCC1", 
	 "Tm": 398.15, 
	 "num_atms": 31, 
	 "gaussian": { 
		 "optdone": 1, 
		 "sigma_profile": "yes", 
		 "theory": "DFT", 
		 "functional": "B3LYP", 
		 "basiset": "6-31G**", 
		 "properties": { 
			 "R2extent": 4283.0216, 
			 "electric_dipole_moment_norm": 4.03101141403, 
			 "electric_quadrupole_moment_norm": 22.1654133431, 
			 "total_energy": -651.675721267, 
			 "HOMO_LUMO_gap": 0.19156, 
			 "cosmo_polarized_energy": -16.01, 
			 "cosmo_cavitation_energy": 32.58, 
			 "cosmo_dispersion_energy": -23.84, 
			 "cosmo_repulsion_energy": 1.88, 
			 "cosmo_total_nonelectrostatic_energy": 10.62, 
			 "SMD_solvation_energy": 4.61 
		},
		"coords": [
			{
				"x": -3.457169992,
				"y": 1.042926898,
				"z": -0.7728987008,
				"element": "C" 
			},
			{
				"x": -2.6414986251,
				"y": 0.6750329078,
				"z": 0.4421203215,
				"element": "C" 
			},
			{
				"x": -3.2796806701,
				"y": 0.4346694647,
				"z": 1.6813450436,
				"element": "C" 
			},
			{
				"x": -4.6695306666,
				"y": 0.472235967,
				"z": 1.7774582385,
				"element": "N" 
			},
			{
				"x": -2.4996354203,
				"y": 0.1101666785,
				"z": 2.805573323,
				"element": "C" 
			},
			{
				"x": -1.1189225556,
				"y": 0.0215127265,
				"z": 2.7113381721,
				"element": "C" 
			},
			{
				"x": -0.4695899901,
				"y": 0.2266635486,
				"z": 1.4856731715,
				"element": "C" 
			},
			{
				"x": -1.252478228,
				"y": 0.5624450537,
				"z": 0.3722234626,
				"element": "C" 
			},
			{
				"x": 1.0274295002,
				"y": 0.1739680073,
				"z": 1.4810767853,
				"element": "C" 
			},
			{
				"x": 1.6709212747,
				"y": 0.5030789757,
				"z": 2.4804817379,
				"element": "O" 
			},
			{
				"x": 1.6805325847,
				"y": -0.2351044289,
				"z": 0.3412463277,
				"element": "N" 
			},
			{
				"x": 1.1402694863,
				"y": -1.0743782955,
				"z": -0.7423558762,
				"element": "C" 
			},
			{
				"x": 2.3227173603,
				"y": -1.9778697621,
				"z": -1.1221195059,
				"element": "C" 
			},
			{
				"x": 3.5345521844,
				"y": -1.0622916799,
				"z": -0.8873699189,
				"element": "C" 
			},
			{
				"x": 3.1534315733,
				"y": -0.2994921782,
				"z": 0.38898017,
				"element": "C" 
			},
			{
				"x": -4.2071862319,
				"y": 0.2754932339,
				"z": -1.0030631731,
				"element": "H" 
			},
			{
				"x": -2.8198100824,
				"y": 1.1619362193,
				"z": -1.6526841594,
				"element": "H" 
			},
			{
				"x": -3.9983192289,
				"y": 1.9905052079,
				"z": -0.6368816551,
				"element": "H" 
			},
			{
				"x": -5.1443407286,
				"y": 1.0751222528,
				"z": 1.1208276007,
				"element": "H" 
			},
			{
				"x": -5.0324215967,
				"y": 0.5689012502,
				"z": 2.7156225282,
				"element": "H" 
			},
			{
				"x": -2.9918916208,
				"y": -0.0647296385,
				"z": 3.7596057405,
				"element": "H" 
			},
			{
				"x": -0.516420877,
				"y": -0.1954955966,
				"z": 3.5869189317,
				"element": "H" 
			},
			{
				"x": -0.7724010205,
				"y": 0.7749310804,
				"z": -0.5784012667,
				"element": "H" 
			},
			{
				"x": 0.260684803,
				"y": -1.6286984566,
				"z": -0.4076196795,
				"element": "H" 
			},
			{
				"x": 0.8414210238,
				"y": -0.4628192811,
				"z": -1.6058983892,
				"element": "H" 
			},
			{
				"x": 2.249264967,
				"y": -2.3536793801,
				"z": -2.1466773622,
				"element": "H" 
			},
			{
				"x": 2.3646666574,
				"y": -2.840668775,
				"z": -0.4472809271,
				"element": "H" 
			},
			{
				"x": 4.4753977397,
				"y": -1.6083730121,
				"z": -0.7778115043,
				"element": "H" 
			},
			{
				"x": 3.6484553472,
				"y": -0.3684498861,
				"z": -1.7286787382,
				"element": "H" 
			},
			{
				"x": 3.5822244872,
				"y": 0.7059637995,
				"z": 0.4396487753,
				"element": "H" 
			},
			{
				"x": 3.4674285454,
				"y": -0.826702901,
				"z": 1.2977005265,
				"element": "H" 
			}
		],
		 "valence_orbital": [ 
			{
				"type": "occ",
				"energy": -0.30141,
				"method": "rhf"
			},
			{
				"type": "occ",
				"energy": -0.24141,
				"method": "rhf"
			},
			{
				"type": "occ",
				"energy": -0.23281,
				"method": "rhf"
			},
			{
				"type": "occ",
				"energy": -0.22272,
				"method": "rhf"
			},
			{
				"type": "occ",
				"energy": -0.20032,
				"method": "rhf"
			},
			{
				"type": "unocc",
				"energy": -0.00876,
				"method": "rhf"
			},
			{
				"type": "unocc",
				"energy": 0.00655,
				"method": "rhf"
			},
			{
				"type": "unocc",
				"energy": 0.06669,
				"method": "rhf"
			},
			{
				"type": "unocc",
				"energy": 0.07621,
				"method": "rhf"
			},
			{
				"type": "unocc",
				"energy": 0.0845,
				"method": "rhf"
			}
		],
		"cosmo_sigma_profile": { 
			"-0.025": 0.0,
			"-0.024": 0.0,
			"-0.023": 0.0,
			"-0.022": 0.0,
			"-0.021": 0.0,
			"-0.02": 0.0,
			"-0.019": 0.0,
			"-0.018": 0.0,
			"-0.017": 0.0,
			"-0.016": 0.0,
			"-0.015": 0.0,
			"-0.014": 0.0,
			"-0.013": 0.443003699191,
			"-0.012": 1.9296154074,
			"-0.011": 3.0411263186,
			"-0.01": 2.5036886369,
			"-0.009": 3.40729147837,
			"-0.008": 2.99195402257,
			"-0.007": 2.61630307451,
			"-0.006": 4.23353706938,
			"-0.005": 9.08419900809,
			"-0.004": 21.6128889748,
			"-0.003": 33.0993021901,
			"-0.002": 32.9742447537,
			"-0.001": 26.5166666493,
			"0.0": 23.6372982274,
			"0.001": 12.9305030624,
			"0.002": 9.30900196976,
			"0.003": 8.98330549891,
			"0.004": 9.64040939606,
			"0.005": 10.3158539227,
			"0.006": 10.2841727475,
			"0.007": 2.66076947042,
			"0.008": 2.82815893865,
			"0.009": 2.40908137205,
			"0.01": 2.50839117922,
			"0.011": 2.1527951931,
			"0.012": 1.89316913337,
			"0.013": 2.67999936737,
			"0.014": 3.89417409947,
			"0.015": 4.50188423855,
			"0.016": 0.339276094154,
			"0.017": 0.0,
			"0.018": 0.0,
			"0.019": 0.0,
			"0.02": 0.0,
			"0.021": 0.0,
			"0.022": 0.0,
			"0.023": 0.0,
			"0.024": 0.0,
			"0.025": 0.0
		}
	}
}
