{
	 "smiles": "CCCCOP(=O)(OCCCC)OCCCC", 
	 "Tm": 193.65, 
	 "num_atms": 44, 
	 "gaussian": { 
		 "optdone": 1, 
		 "sigma_profile": "yes", 
		 "theory": "DFT", 
		 "functional": "B3LYP", 
		 "basiset": "6-31G**", 
		 "properties": { 
			 "R2extent": 7788.6161, 
			 "electric_dipole_moment_norm": 3.77760894085, 
			 "electric_quadrupole_moment_norm": 17.1818354756, 
			 "total_energy": -1115.90643066, 
			 "HOMO_LUMO_gap": 0.3393, 
			 "cosmo_polarized_energy": -12.4, 
			 "cosmo_cavitation_energy": 47.08, 
			 "cosmo_dispersion_energy": -32.06, 
			 "cosmo_repulsion_energy": 2.66, 
			 "cosmo_total_nonelectrostatic_energy": 17.67, 
			 "SMD_solvation_energy": 9.04 
		},
		"coords": [
			{
				"x": 4.6364084536,
				"y": 2.3480240665,
				"z": -0.5405105318,
				"element": "C" 
			},
			{
				"x": 3.7363415859,
				"y": 3.0234450195,
				"z": 0.5023514514,
				"element": "C" 
			},
			{
				"x": 2.9737367715,
				"y": 2.0500748249,
				"z": 1.4164386101,
				"element": "C" 
			},
			{
				"x": 1.9347830363,
				"y": 1.2168099231,
				"z": 0.6795613293,
				"element": "C" 
			},
			{
				"x": 1.2633297666,
				"y": 0.3863432069,
				"z": 1.6580668823,
				"element": "O" 
			},
			{
				"x": 0.0146022657,
				"y": -0.5369868797,
				"z": 1.2630766923,
				"element": "P" 
			},
			{
				"x": -0.5086103371,
				"y": -1.3308725377,
				"z": 2.393352007,
				"element": "O" 
			},
			{
				"x": -1.0674091526,
				"y": 0.4401931202,
				"z": 0.5551201348,
				"element": "O" 
			},
			{
				"x": -2.0857012996,
				"y": 1.0683468352,
				"z": 1.3741696802,
				"element": "C" 
			},
			{
				"x": -3.1602682063,
				"y": 1.6163205221,
				"z": 0.44569428,
				"element": "C" 
			},
			{
				"x": -4.2673921155,
				"y": 2.3887647885,
				"z": 1.1819958511,
				"element": "C" 
			},
			{
				"x": -5.1290935072,
				"y": 1.5304995365,
				"z": 2.1170302616,
				"element": "C" 
			},
			{
				"x": 0.5871115304,
				"y": -1.3267934775,
				"z": -0.0157483243,
				"element": "O" 
			},
			{
				"x": -0.2403894595,
				"y": -2.3377549164,
				"z": -0.6428774708,
				"element": "C" 
			},
			{
				"x": 0.6161956384,
				"y": -3.0771744455,
				"z": -1.6604724624,
				"element": "C" 
			},
			{
				"x": -0.1615680595,
				"y": -4.139274155,
				"z": -2.4551330015,
				"element": "C" 
			},
			{
				"x": -0.6603793518,
				"y": -5.3235487612,
				"z": -1.6170913621,
				"element": "C" 
			},
			{
				"x": 4.0622337457,
				"y": 1.7550752092,
				"z": -1.260018987,
				"element": "H" 
			},
			{
				"x": 5.3589287774,
				"y": 1.6774086806,
				"z": -0.0615330355,
				"element": "H" 
			},
			{
				"x": 5.2016029393,
				"y": 3.0925959237,
				"z": -1.1103051406,
				"element": "H" 
			},
			{
				"x": 3.0206772591,
				"y": 3.6861370607,
				"z": -0.0034562315,
				"element": "H" 
			},
			{
				"x": 4.3511223178,
				"y": 3.6739041427,
				"z": 1.1358276029,
				"element": "H" 
			},
			{
				"x": 2.4618814881,
				"y": 2.6104356008,
				"z": 2.2074521667,
				"element": "H" 
			},
			{
				"x": 3.6777981641,
				"y": 1.3732974329,
				"z": 1.9160834307,
				"element": "H" 
			},
			{
				"x": 1.19553528,
				"y": 1.8574079015,
				"z": 0.1835570462,
				"element": "H" 
			},
			{
				"x": 2.3887968932,
				"y": 0.5664028135,
				"z": -0.0735364851,
				"element": "H" 
			},
			{
				"x": -1.6234861702,
				"y": 1.8777586387,
				"z": 1.9542450388,
				"element": "H" 
			},
			{
				"x": -2.4789049497,
				"y": 0.3267130084,
				"z": 2.0744640514,
				"element": "H" 
			},
			{
				"x": -3.5964341046,
				"y": 0.7822989224,
				"z": -0.1187145979,
				"element": "H" 
			},
			{
				"x": -2.6774264442,
				"y": 2.2738510666,
				"z": -0.2870879201,
				"element": "H" 
			},
			{
				"x": -3.8182892984,
				"y": 3.2146384199,
				"z": 1.7505144686,
				"element": "H" 
			},
			{
				"x": -4.9134008155,
				"y": 2.8583008272,
				"z": 0.4304751355,
				"element": "H" 
			},
			{
				"x": -4.5471538284,
				"y": 1.1070272872,
				"z": 2.9419597316,
				"element": "H" 
			},
			{
				"x": -5.9365262114,
				"y": 2.1234992928,
				"z": 2.5584031733,
				"element": "H" 
			},
			{
				"x": -5.5881011444,
				"y": 0.6962232901,
				"z": 1.5742516092,
				"element": "H" 
			},
			{
				"x": -1.0899932552,
				"y": -1.842727017,
				"z": -1.1291688161,
				"element": "H" 
			},
			{
				"x": -0.6229240046,
				"y": -3.0065211007,
				"z": 0.134081239,
				"element": "H" 
			},
			{
				"x": 1.4607978818,
				"y": -3.542537805,
				"z": -1.1373556369,
				"element": "H" 
			},
			{
				"x": 1.0398702275,
				"y": -2.3377689687,
				"z": -2.3504572841,
				"element": "H" 
			},
			{
				"x": 0.4921571214,
				"y": -4.5152185812,
				"z": -3.2512194334,
				"element": "H" 
			},
			{
				"x": -1.0115008893,
				"y": -3.6638389993,
				"z": -2.9636554554,
				"element": "H" 
			},
			{
				"x": -1.3885064481,
				"y": -5.0161090769,
				"z": -0.8594182467,
				"element": "H" 
			},
			{
				"x": 0.1695851633,
				"y": -5.8148436971,
				"z": -1.096657996,
				"element": "H" 
			},
			{
				"x": -1.1459372542,
				"y": -6.0732269432,
				"z": -2.2500534551,
				"element": "H" 
			}
		],
		 "valence_orbital": [ 
			{
				"type": "occ",
				"energy": -0.30988,
				"method": "rhf"
			},
			{
				"type": "occ",
				"energy": -0.30508,
				"method": "rhf"
			},
			{
				"type": "occ",
				"energy": -0.29599,
				"method": "rhf"
			},
			{
				"type": "occ",
				"energy": -0.28276,
				"method": "rhf"
			},
			{
				"type": "occ",
				"energy": -0.27674,
				"method": "rhf"
			},
			{
				"type": "unocc",
				"energy": 0.06256,
				"method": "rhf"
			},
			{
				"type": "unocc",
				"energy": 0.07943,
				"method": "rhf"
			},
			{
				"type": "unocc",
				"energy": 0.08036,
				"method": "rhf"
			},
			{
				"type": "unocc",
				"energy": 0.08224,
				"method": "rhf"
			},
			{
				"type": "unocc",
				"energy": 0.10508,
				"method": "rhf"
			}
		],
		"cosmo_sigma_profile": { 
			"-0.025": 0.0,
			"-0.024": 0.0,
			"-0.023": 0.0,
			"-0.022": 0.0,
			"-0.021": 0.0,
			"-0.02": 0.0,
			"-0.019": 0.0,
			"-0.018": 0.0,
			"-0.017": 0.0,
			"-0.016": 0.0,
			"-0.015": 0.0,
			"-0.014": 0.0,
			"-0.013": 0.0,
			"-0.012": 0.0,
			"-0.011": 0.0,
			"-0.01": 0.0,
			"-0.009": 0.0,
			"-0.008": 0.0,
			"-0.007": 0.0,
			"-0.006": 0.0,
			"-0.005": 7.94109650172,
			"-0.004": 22.4604791613,
			"-0.003": 52.569141125,
			"-0.002": 64.0074946989,
			"-0.001": 56.304794295,
			"0.0": 51.6589054285,
			"0.001": 38.608447353,
			"0.002": 16.5051804894,
			"0.003": 7.043646876,
			"0.004": 6.67534396911,
			"0.005": 5.7588536617,
			"0.006": 4.56477558701,
			"0.007": 4.17427780658,
			"0.008": 3.25980454425,
			"0.009": 3.46791642586,
			"0.01": 2.93092707142,
			"0.011": 1.46042685759,
			"0.012": 1.74099321066,
			"0.013": 1.54852075893,
			"0.014": 6.07195621538,
			"0.015": 2.6409597747,
			"0.016": 0.0,
			"0.017": 0.0,
			"0.018": 0.0,
			"0.019": 0.0,
			"0.02": 0.0,
			"0.021": 0.0,
			"0.022": 0.0,
			"0.023": 0.0,
			"0.024": 0.0,
			"0.025": 0.0
		}
	}
}
