{
	 "smiles": "NNC(=O)CC1=CC=CC2=CC=CC=C12", 
	 "Tm": 441.15, 
	 "num_atms": 27, 
	 "gaussian": { 
		 "optdone": 1, 
		 "sigma_profile": "yes", 
		 "theory": "DFT", 
		 "functional": "B3LYP", 
		 "basiset": "6-31G**", 
		 "properties": { 
			 "R2extent": 3223.0063, 
			 "electric_dipole_moment_norm": 4.09098724149, 
			 "electric_quadrupole_moment_norm": 20.0406875848, 
			 "total_energy": -649.227696686, 
			 "HOMO_LUMO_gap": 0.17134, 
			 "cosmo_polarized_energy": -15.37, 
			 "cosmo_cavitation_energy": 30.13, 
			 "cosmo_dispersion_energy": -21.91, 
			 "cosmo_repulsion_energy": 1.72, 
			 "cosmo_total_nonelectrostatic_energy": 9.94, 
			 "SMD_solvation_energy": 6.06 
		},
		"coords": [
			{
				"x": -0.2171895418,
				"y": 0.7266186666,
				"z": 3.6278472543,
				"element": "N" 
			},
			{
				"x": 1.0300293051,
				"y": 0.7088153714,
				"z": 2.9963120686,
				"element": "N" 
			},
			{
				"x": 1.3336146836,
				"y": -0.1033174575,
				"z": 1.9309125766,
				"element": "C" 
			},
			{
				"x": 2.4459350781,
				"y": -0.0425770045,
				"z": 1.4214991644,
				"element": "O" 
			},
			{
				"x": 0.2360232111,
				"y": -1.0486589094,
				"z": 1.4411059135,
				"element": "C" 
			},
			{
				"x": -0.7786748233,
				"y": -0.3967048222,
				"z": 0.5122063288,
				"element": "C" 
			},
			{
				"x": -2.0658518974,
				"y": -0.1741896839,
				"z": 0.9651204213,
				"element": "C" 
			},
			{
				"x": -3.0601674739,
				"y": 0.3891709634,
				"z": 0.1318885054,
				"element": "C" 
			},
			{
				"x": -2.7625782739,
				"y": 0.7256627283,
				"z": -1.1669066783,
				"element": "C" 
			},
			{
				"x": -1.4559194156,
				"y": 0.5172355032,
				"z": -1.683635726,
				"element": "C" 
			},
			{
				"x": -1.1342686905,
				"y": 0.8524316876,
				"z": -3.0266194578,
				"element": "C" 
			},
			{
				"x": 0.1327376905,
				"y": 0.6504627659,
				"z": -3.5235362856,
				"element": "C" 
			},
			{
				"x": 1.1383460268,
				"y": 0.1075285619,
				"z": -2.6899003478,
				"element": "C" 
			},
			{
				"x": 0.8633185467,
				"y": -0.2295668239,
				"z": -1.3822275173,
				"element": "C" 
			},
			{
				"x": -0.4389995167,
				"y": -0.0430640605,
				"z": -0.8370709164,
				"element": "C" 
			},
			{
				"x": -0.0998844717,
				"y": 0.6145896499,
				"z": 4.6311522337,
				"element": "H" 
			},
			{
				"x": -0.700780048,
				"y": 1.6026446051,
				"z": 3.4434571228,
				"element": "H" 
			},
			{
				"x": 1.7570685971,
				"y": 1.3727806402,
				"z": 3.2456271273,
				"element": "H" 
			},
			{
				"x": -0.2934304124,
				"y": -1.4593748187,
				"z": 2.3026204477,
				"element": "H" 
			},
			{
				"x": 0.755686967,
				"y": -1.8640390392,
				"z": 0.9311547459,
				"element": "H" 
			},
			{
				"x": -2.3157524576,
				"y": -0.4408977544,
				"z": 1.9875341541,
				"element": "H" 
			},
			{
				"x": -4.0611893101,
				"y": 0.5451022695,
				"z": 0.5243775384,
				"element": "H" 
			},
			{
				"x": -3.5213025713,
				"y": 1.1523767058,
				"z": -1.818107274,
				"element": "H" 
			},
			{
				"x": -1.9138306028,
				"y": 1.273069445,
				"z": -3.6571028863,
				"element": "H" 
			},
			{
				"x": 0.3646898113,
				"y": 0.9101319574,
				"z": -4.5526115865,
				"element": "H" 
			},
			{
				"x": 2.1402299816,
				"y": -0.0398826584,
				"z": -3.0830476067,
				"element": "H" 
			},
			{
				"x": 1.6573396082,
				"y": -0.6074484885,
				"z": -0.74834932,
				"element": "H" 
			}
		],
		 "valence_orbital": [ 
			{
				"type": "occ",
				"energy": -0.27351,
				"method": "rhf"
			},
			{
				"type": "occ",
				"energy": -0.25722,
				"method": "rhf"
			},
			{
				"type": "occ",
				"energy": -0.24741,
				"method": "rhf"
			},
			{
				"type": "occ",
				"energy": -0.23513,
				"method": "rhf"
			},
			{
				"type": "occ",
				"energy": -0.20378,
				"method": "rhf"
			},
			{
				"type": "unocc",
				"energy": -0.03244,
				"method": "rhf"
			},
			{
				"type": "unocc",
				"energy": -0.00184,
				"method": "rhf"
			},
			{
				"type": "unocc",
				"energy": 0.02641,
				"method": "rhf"
			},
			{
				"type": "unocc",
				"energy": 0.04404,
				"method": "rhf"
			},
			{
				"type": "unocc",
				"energy": 0.06273,
				"method": "rhf"
			}
		],
		"cosmo_sigma_profile": { 
			"-0.025": 0.0,
			"-0.024": 0.0,
			"-0.023": 0.0,
			"-0.022": 0.0,
			"-0.021": 0.0,
			"-0.02": 0.0,
			"-0.019": 0.0,
			"-0.018": 0.0,
			"-0.017": 0.0,
			"-0.016": 0.0,
			"-0.015": 0.0,
			"-0.014": 0.244521191324,
			"-0.013": 1.29339328039,
			"-0.012": 3.11635352845,
			"-0.011": 4.53942232842,
			"-0.01": 5.18387237651,
			"-0.009": 4.72709197816,
			"-0.008": 3.39455070169,
			"-0.007": 2.60443927534,
			"-0.006": 7.52436670444,
			"-0.005": 14.033752249,
			"-0.004": 15.8448040685,
			"-0.003": 21.3230059435,
			"-0.002": 15.9378147259,
			"-0.001": 13.5037559947,
			"0.0": 12.6022410768,
			"0.001": 15.1331891703,
			"0.002": 13.749817906,
			"0.003": 13.9521331005,
			"0.004": 22.6077356788,
			"0.005": 20.9364225814,
			"0.006": 8.23996868595,
			"0.007": 1.97903396397,
			"0.008": 2.64958590662,
			"0.009": 1.6221151071,
			"0.01": 1.26448365321,
			"0.011": 1.39006142468,
			"0.012": 1.79729478016,
			"0.013": 3.69003867245,
			"0.014": 4.02182426235,
			"0.015": 0.280721274606,
			"0.016": 0.0,
			"0.017": 0.0,
			"0.018": 0.0,
			"0.019": 0.0,
			"0.02": 0.0,
			"0.021": 0.0,
			"0.022": 0.0,
			"0.023": 0.0,
			"0.024": 0.0,
			"0.025": 0.0
		}
	}
}
