{
	 "smiles": "CCOC(=O)C1=C(C)N(N=C1SC)C(=O)C1=CC=CC(C)=C1", 
	 "Tm": 388.5, 
	 "num_atms": 40, 
	 "gaussian": { 
		 "optdone": 1, 
		 "sigma_profile": "yes", 
		 "theory": "DFT", 
		 "functional": "B3LYP", 
		 "basiset": "6-31G**", 
		 "properties": { 
			 "R2extent": 11217.9831, 
			 "electric_dipole_moment_norm": 6.28107433565, 
			 "electric_quadrupole_moment_norm": 12.0152502454, 
			 "total_energy": -1353.92440681, 
			 "HOMO_LUMO_gap": 0.13886, 
			 "cosmo_polarized_energy": -17.87, 
			 "cosmo_cavitation_energy": 45.5, 
			 "cosmo_dispersion_energy": -31.74, 
			 "cosmo_repulsion_energy": 2.43, 
			 "cosmo_total_nonelectrostatic_energy": 16.18, 
			 "SMD_solvation_energy": 9.06 
		},
		"coords": [
			{
				"x": -4.3523004546,
				"y": -0.1607029379,
				"z": -3.2387556345,
				"element": "C" 
			},
			{
				"x": -4.123299721,
				"y": 0.398923866,
				"z": -1.8427179238,
				"element": "C" 
			},
			{
				"x": -2.7181540473,
				"y": 0.6440859364,
				"z": -1.5918888118,
				"element": "O" 
			},
			{
				"x": -2.2293565205,
				"y": 1.8324361371,
				"z": -2.0335674354,
				"element": "C" 
			},
			{
				"x": -2.9139955631,
				"y": 2.6692062732,
				"z": -2.595634888,
				"element": "O" 
			},
			{
				"x": -0.804024999,
				"y": 2.0125785231,
				"z": -1.7529252509,
				"element": "C" 
			},
			{
				"x": 0.110328218,
				"y": 1.1638500895,
				"z": -1.1374867739,
				"element": "C" 
			},
			{
				"x": -0.0558608374,
				"y": -0.2407681381,
				"z": -0.6431797959,
				"element": "C" 
			},
			{
				"x": 1.3033286098,
				"y": 1.8460952114,
				"z": -1.1368001285,
				"element": "N" 
			},
			{
				"x": 1.2155002748,
				"y": 3.0729442427,
				"z": -1.7566697968,
				"element": "N" 
			},
			{
				"x": -0.0512058204,
				"y": 3.1840090606,
				"z": -2.109421799,
				"element": "C" 
			},
			{
				"x": -0.6760337314,
				"y": 4.6207057147,
				"z": -2.9110934318,
				"element": "S" 
			},
			{
				"x": 0.8689534325,
				"y": 5.5926304233,
				"z": -3.0177681911,
				"element": "C" 
			},
			{
				"x": 2.6203148049,
				"y": 1.4110710045,
				"z": -0.7385517539,
				"element": "C" 
			},
			{
				"x": 3.5692367363,
				"y": 1.6459175032,
				"z": -1.4522303381,
				"element": "O" 
			},
			{
				"x": 2.7376557145,
				"y": 0.7377391855,
				"z": 0.5837335955,
				"element": "C" 
			},
			{
				"x": 1.8689914,
				"y": 1.0171938922,
				"z": 1.6473157625,
				"element": "C" 
			},
			{
				"x": 2.0927553341,
				"y": 0.4223393195,
				"z": 2.8886542063,
				"element": "C" 
			},
			{
				"x": 3.1650200161,
				"y": -0.4512671939,
				"z": 3.0655846698,
				"element": "C" 
			},
			{
				"x": 4.050348879,
				"y": -0.7389901921,
				"z": 2.0135782539,
				"element": "C" 
			},
			{
				"x": 5.2041257698,
				"y": -1.6927677097,
				"z": 2.215349043,
				"element": "C" 
			},
			{
				"x": 3.8290778869,
				"y": -0.1228996147,
				"z": 0.7810521387,
				"element": "C" 
			},
			{
				"x": -4.0719483054,
				"y": 0.5744291427,
				"z": -3.9966333132,
				"element": "H" 
			},
			{
				"x": -5.4117897876,
				"y": -0.4043245002,
				"z": -3.3713841338,
				"element": "H" 
			},
			{
				"x": -3.7687707788,
				"y": -1.0730377855,
				"z": -3.3952122772,
				"element": "H" 
			},
			{
				"x": -4.4134403785,
				"y": -0.3179180505,
				"z": -1.0705214371,
				"element": "H" 
			},
			{
				"x": -4.6733203477,
				"y": 1.3314799549,
				"z": -1.6979942218,
				"element": "H" 
			},
			{
				"x": -0.3607250291,
				"y": -0.2656089144,
				"z": 0.408041369,
				"element": "H" 
			},
			{
				"x": 0.8720367137,
				"y": -0.8088427446,
				"z": -0.7309459292,
				"element": "H" 
			},
			{
				"x": -0.8366031317,
				"y": -0.7314962923,
				"z": -1.2226589324,
				"element": "H" 
			},
			{
				"x": 0.5974804908,
				"y": 6.5208530503,
				"z": -3.5249001879,
				"element": "H" 
			},
			{
				"x": 1.2619408796,
				"y": 5.8115962411,
				"z": -2.024093305,
				"element": "H" 
			},
			{
				"x": 1.6247576191,
				"y": 5.0583949393,
				"z": -3.5948604744,
				"element": "H" 
			},
			{
				"x": 1.0470326692,
				"y": 1.712337354,
				"z": 1.5125575788,
				"element": "H" 
			},
			{
				"x": 1.433757143,
				"y": 0.6464714833,
				"z": 3.7221662519,
				"element": "H" 
			},
			{
				"x": 3.325992055,
				"y": -0.9118844346,
				"z": 4.0373561808,
				"element": "H" 
			},
			{
				"x": 5.9111254808,
				"y": -1.6448205519,
				"z": 1.3831928534,
				"element": "H" 
			},
			{
				"x": 4.8522665707,
				"y": -2.7285259684,
				"z": 2.2931530972,
				"element": "H" 
			},
			{
				"x": 5.7501996671,
				"y": -1.4675131095,
				"z": 3.137298012,
				"element": "H" 
			},
			{
				"x": 4.5051030878,
				"y": -0.2964204103,
				"z": -0.0506368477,
				"element": "H" 
			}
		],
		 "valence_orbital": [ 
			{
				"type": "occ",
				"energy": -0.27015,
				"method": "rhf"
			},
			{
				"type": "occ",
				"energy": -0.2668,
				"method": "rhf"
			},
			{
				"type": "occ",
				"energy": -0.26264,
				"method": "rhf"
			},
			{
				"type": "occ",
				"energy": -0.25342,
				"method": "rhf"
			},
			{
				"type": "occ",
				"energy": -0.2111,
				"method": "rhf"
			},
			{
				"type": "unocc",
				"energy": -0.07224,
				"method": "rhf"
			},
			{
				"type": "unocc",
				"energy": -0.02426,
				"method": "rhf"
			},
			{
				"type": "unocc",
				"energy": -0.0186,
				"method": "rhf"
			},
			{
				"type": "unocc",
				"energy": 0.00932,
				"method": "rhf"
			},
			{
				"type": "unocc",
				"energy": 0.03918,
				"method": "rhf"
			}
		],
		"cosmo_sigma_profile": { 
			"-0.025": 0.0,
			"-0.024": 0.0,
			"-0.023": 0.0,
			"-0.022": 0.0,
			"-0.021": 0.0,
			"-0.02": 0.0,
			"-0.019": 0.0,
			"-0.018": 0.0,
			"-0.017": 0.0,
			"-0.016": 0.0,
			"-0.015": 0.0,
			"-0.014": 0.0,
			"-0.013": 0.0,
			"-0.012": 0.0,
			"-0.011": 0.0,
			"-0.01": 0.0,
			"-0.009": 0.029454581667,
			"-0.008": 0.76489621979,
			"-0.007": 5.69992862211,
			"-0.006": 16.4358913584,
			"-0.005": 26.4295823024,
			"-0.004": 35.0738174088,
			"-0.003": 37.2161859892,
			"-0.002": 41.5615759456,
			"-0.001": 38.2307481505,
			"0.0": 32.696400025,
			"0.001": 22.0602291335,
			"0.002": 19.4605991454,
			"0.003": 19.7061487554,
			"0.004": 10.6392471312,
			"0.005": 8.08152043234,
			"0.006": 7.19144282999,
			"0.007": 6.21772977807,
			"0.008": 6.81910284518,
			"0.009": 5.99383295345,
			"0.01": 7.65819617948,
			"0.011": 6.95514479859,
			"0.012": 5.66250104423,
			"0.013": 1.39807946696,
			"0.014": 1.11436960118,
			"0.015": 0.0115865845576,
			"0.016": 0.0,
			"0.017": 0.0,
			"0.018": 0.0,
			"0.019": 0.0,
			"0.02": 0.0,
			"0.021": 0.0,
			"0.022": 0.0,
			"0.023": 0.0,
			"0.024": 0.0,
			"0.025": 0.0
		}
	}
}
