{
	 "smiles": "CC1=C(C#N)C(=CC=C1)S(Cl)(=O)=O", 
	 "Tm": 348.15, 
	 "num_atms": 19, 
	 "gaussian": { 
		 "optdone": 1, 
		 "sigma_profile": "yes", 
		 "theory": "DFT", 
		 "functional": "B3LYP", 
		 "basiset": "6-31G**", 
		 "properties": { 
			 "R2extent": 2979.8559, 
			 "electric_dipole_moment_norm": 7.35809532488, 
			 "electric_quadrupole_moment_norm": 4.12630937643, 
			 "total_energy": -1371.95663371, 
			 "HOMO_LUMO_gap": 0.18627, 
			 "cosmo_polarized_energy": -14.31, 
			 "cosmo_cavitation_energy": 27.54, 
			 "cosmo_dispersion_energy": -19.85, 
			 "cosmo_repulsion_energy": 1.52, 
			 "cosmo_total_nonelectrostatic_energy": 9.21, 
			 "SMD_solvation_energy": 4.47 
		},
		"coords": [
			{
				"x": 1.1875213369,
				"y": -2.9221283314,
				"z": -0.2803690401,
				"element": "C" 
			},
			{
				"x": 0.0399207478,
				"y": -1.9497241737,
				"z": -0.3802896413,
				"element": "C" 
			},
			{
				"x": 0.2670298941,
				"y": -0.5551072773,
				"z": -0.3082814399,
				"element": "C" 
			},
			{
				"x": 1.620108633,
				"y": -0.1063381971,
				"z": -0.155872856,
				"element": "C" 
			},
			{
				"x": 2.7478364791,
				"y": 0.156021381,
				"z": -0.0496818323,
				"element": "N" 
			},
			{
				"x": -0.8290669861,
				"y": 0.3254569042,
				"z": -0.4068075545,
				"element": "C" 
			},
			{
				"x": -2.1290277145,
				"y": -0.1390200351,
				"z": -0.5773254982,
				"element": "C" 
			},
			{
				"x": -2.3465215171,
				"y": -1.5152582241,
				"z": -0.6447868042,
				"element": "C" 
			},
			{
				"x": -1.2755452671,
				"y": -2.3999392723,
				"z": -0.5470139943,
				"element": "C" 
			},
			{
				"x": -0.63057961,
				"y": 2.1105294742,
				"z": -0.2698516299,
				"element": "S" 
			},
			{
				"x": 0.2540049162,
				"y": 2.5704460899,
				"z": -2.1418746602,
				"element": "Cl" 
			},
			{
				"x": -1.9552079441,
				"y": 2.7181721584,
				"z": -0.2809196474,
				"element": "O" 
			},
			{
				"x": 0.3527181358,
				"y": 2.4201772315,
				"z": 0.7564342201,
				"element": "O" 
			},
			{
				"x": 0.8302713589,
				"y": -3.9517289644,
				"z": -0.3490865473,
				"element": "H" 
			},
			{
				"x": 1.917772791,
				"y": -2.7558674082,
				"z": -1.0791413302,
				"element": "H" 
			},
			{
				"x": 1.7244534919,
				"y": -2.8053616075,
				"z": 0.6666799955,
				"element": "H" 
			},
			{
				"x": -2.9459453799,
				"y": 0.5686312542,
				"z": -0.6487990806,
				"element": "H" 
			},
			{
				"x": -3.3554159487,
				"y": -1.893897882,
				"z": -0.7735309711,
				"element": "H" 
			},
			{
				"x": -1.4566274173,
				"y": -3.4692631204,
				"z": -0.601581688,
				"element": "H" 
			}
		],
		 "valence_orbital": [ 
			{
				"type": "occ",
				"energy": -0.34125,
				"method": "rhf"
			},
			{
				"type": "occ",
				"energy": -0.33484,
				"method": "rhf"
			},
			{
				"type": "occ",
				"energy": -0.31952,
				"method": "rhf"
			},
			{
				"type": "occ",
				"energy": -0.30103,
				"method": "rhf"
			},
			{
				"type": "occ",
				"energy": -0.28837,
				"method": "rhf"
			},
			{
				"type": "unocc",
				"energy": -0.1021,
				"method": "rhf"
			},
			{
				"type": "unocc",
				"energy": -0.07477,
				"method": "rhf"
			},
			{
				"type": "unocc",
				"energy": -0.05404,
				"method": "rhf"
			},
			{
				"type": "unocc",
				"energy": 0.01364,
				"method": "rhf"
			},
			{
				"type": "unocc",
				"energy": 0.04266,
				"method": "rhf"
			}
		],
		"cosmo_sigma_profile": { 
			"-0.025": 0.0,
			"-0.024": 0.0,
			"-0.023": 0.0,
			"-0.022": 0.0,
			"-0.021": 0.0,
			"-0.02": 0.0,
			"-0.019": 0.0,
			"-0.018": 0.0,
			"-0.017": 0.0,
			"-0.016": 0.0,
			"-0.015": 0.0,
			"-0.014": 0.0,
			"-0.013": 0.0,
			"-0.012": 0.0,
			"-0.011": 0.0,
			"-0.01": 0.0,
			"-0.009": 2.11062589595,
			"-0.008": 8.70956578615,
			"-0.007": 7.9052622628,
			"-0.006": 12.2371271807,
			"-0.005": 12.1034056569,
			"-0.004": 14.4820045336,
			"-0.003": 18.1064061625,
			"-0.002": 24.2138122132,
			"-0.001": 19.3050953088,
			"0.0": 15.7788912664,
			"0.001": 9.9774424798,
			"0.002": 14.8577175318,
			"0.003": 13.252339553,
			"0.004": 5.02689793266,
			"0.005": 4.85205649832,
			"0.006": 6.612220305,
			"0.007": 11.7841515247,
			"0.008": 12.0808600481,
			"0.009": 4.36709121953,
			"0.01": 2.70860070763,
			"0.011": 2.53142215867,
			"0.012": 1.54027792348,
			"0.013": 0.0364364013113,
			"0.014": 0.0,
			"0.015": 0.0,
			"0.016": 0.0,
			"0.017": 0.0,
			"0.018": 0.0,
			"0.019": 0.0,
			"0.02": 0.0,
			"0.021": 0.0,
			"0.022": 0.0,
			"0.023": 0.0,
			"0.024": 0.0,
			"0.025": 0.0
		}
	}
}
