{
	 "smiles": "OC(=O)C1=CC=C(C=C1)N1C(=O)C2=CC=CC=C2C1=O", 
	 "Tm": 565.65, 
	 "num_atms": 29, 
	 "gaussian": { 
		 "optdone": 1, 
		 "sigma_profile": "yes", 
		 "theory": "DFT", 
		 "functional": "B3LYP", 
		 "basiset": "6-31G**", 
		 "properties": { 
			 "R2extent": 7474.1747, 
			 "electric_dipole_moment_norm": 7.81594488402, 
			 "electric_quadrupole_moment_norm": 19.755091504, 
			 "total_energy": -932.704873637, 
			 "HOMO_LUMO_gap": 0.15424, 
			 "cosmo_polarized_energy": -20.17, 
			 "cosmo_cavitation_energy": 35.02, 
			 "cosmo_dispersion_energy": -25.48, 
			 "cosmo_repulsion_energy": 1.89, 
			 "cosmo_total_nonelectrostatic_energy": 11.43, 
			 "SMD_solvation_energy": 8.19 
		},
		"coords": [
			{
				"x": 2.5024253676,
				"y": -1.2174457121,
				"z": -4.2437281314,
				"element": "O" 
			},
			{
				"x": 3.0168462039,
				"y": -0.9011663804,
				"z": -3.0239691667,
				"element": "C" 
			},
			{
				"x": 4.2141286784,
				"y": -0.831376211,
				"z": -2.8741067818,
				"element": "O" 
			},
			{
				"x": 2.0332952868,
				"y": -0.6527922382,
				"z": -1.921825074,
				"element": "C" 
			},
			{
				"x": 2.4729532525,
				"y": 0.0634661455,
				"z": -0.8011745439,
				"element": "C" 
			},
			{
				"x": 1.6114096347,
				"y": 0.3368765829,
				"z": 0.25391722,
				"element": "C" 
			},
			{
				"x": 0.2903723056,
				"y": -0.1350560794,
				"z": 0.2144663525,
				"element": "C" 
			},
			{
				"x": -0.1528683266,
				"y": -0.8807564281,
				"z": -0.8863558037,
				"element": "C" 
			},
			{
				"x": 0.71496392,
				"y": -1.1276712249,
				"z": -1.9456490883,
				"element": "C" 
			},
			{
				"x": -0.5985619354,
				"y": 0.1371071497,
				"z": 1.2910640412,
				"element": "N" 
			},
			{
				"x": -1.9919505544,
				"y": 0.3854146361,
				"z": 1.1415846374,
				"element": "C" 
			},
			{
				"x": -2.6047531003,
				"y": 0.395428924,
				"z": 0.0950352392,
				"element": "O" 
			},
			{
				"x": -2.5124627074,
				"y": 0.6235314483,
				"z": 2.5146116811,
				"element": "C" 
			},
			{
				"x": -3.8028915133,
				"y": 0.9131025879,
				"z": 2.936065109,
				"element": "C" 
			},
			{
				"x": -4.0048791466,
				"y": 1.0872059108,
				"z": 4.3111360293,
				"element": "C" 
			},
			{
				"x": -2.943401655,
				"y": 0.9721880984,
				"z": 5.2193890448,
				"element": "C" 
			},
			{
				"x": -1.6450583991,
				"y": 0.6804674827,
				"z": 4.7821337002,
				"element": "C" 
			},
			{
				"x": -1.4568506442,
				"y": 0.5111302738,
				"z": 3.4174138956,
				"element": "C" 
			},
			{
				"x": -0.2138471426,
				"y": 0.2014272678,
				"z": 2.6608228742,
				"element": "C" 
			},
			{
				"x": 0.905462397,
				"y": 0.0326371229,
				"z": 3.0943179226,
				"element": "O" 
			},
			{
				"x": 1.5468545749,
				"y": -1.0687773462,
				"z": -4.2515047775,
				"element": "H" 
			},
			{
				"x": 3.5005227661,
				"y": 0.4093964053,
				"z": -0.7789934606,
				"element": "H" 
			},
			{
				"x": 1.9602409231,
				"y": 0.8968531996,
				"z": 1.1109724676,
				"element": "H" 
			},
			{
				"x": -1.1669457602,
				"y": -1.2553419094,
				"z": -0.9147352601,
				"element": "H" 
			},
			{
				"x": 0.3561327065,
				"y": -1.7377588837,
				"z": -2.7710244536,
				"element": "H" 
			},
			{
				"x": -4.616314124,
				"y": 0.9987196581,
				"z": 2.2231031618,
				"element": "H" 
			},
			{
				"x": -4.9996711382,
				"y": 1.3144690563,
				"z": 4.6821726987,
				"element": "H" 
			},
			{
				"x": -3.1330584746,
				"y": 1.1127336756,
				"z": 6.2791989727,
				"element": "H" 
			},
			{
				"x": -0.8148933951,
				"y": 0.5896867881,
				"z": 5.4748614936,
				"element": "H" 
			}
		],
		 "valence_orbital": [ 
			{
				"type": "occ",
				"energy": -0.28933,
				"method": "rhf"
			},
			{
				"type": "occ",
				"energy": -0.28182,
				"method": "rhf"
			},
			{
				"type": "occ",
				"energy": -0.27273,
				"method": "rhf"
			},
			{
				"type": "occ",
				"energy": -0.26982,
				"method": "rhf"
			},
			{
				"type": "occ",
				"energy": -0.24977,
				"method": "rhf"
			},
			{
				"type": "unocc",
				"energy": -0.09553,
				"method": "rhf"
			},
			{
				"type": "unocc",
				"energy": -0.06479,
				"method": "rhf"
			},
			{
				"type": "unocc",
				"energy": -0.04094,
				"method": "rhf"
			},
			{
				"type": "unocc",
				"energy": -0.02158,
				"method": "rhf"
			},
			{
				"type": "unocc",
				"energy": 0.0162,
				"method": "rhf"
			}
		],
		"cosmo_sigma_profile": { 
			"-0.025": 0.0,
			"-0.024": 0.0,
			"-0.023": 0.0,
			"-0.022": 0.0,
			"-0.021": 0.0,
			"-0.02": 0.0,
			"-0.019": 0.436844795684,
			"-0.018": 0.843228757241,
			"-0.017": 1.14058506068,
			"-0.016": 1.08402036431,
			"-0.015": 0.572631307701,
			"-0.014": 0.523391483717,
			"-0.013": 1.50063006896,
			"-0.012": 1.17583935684,
			"-0.011": 1.09265539266,
			"-0.01": 1.29864366636,
			"-0.009": 1.63771344722,
			"-0.008": 5.02564541869,
			"-0.007": 12.7979392153,
			"-0.006": 20.7216904415,
			"-0.005": 19.5574232785,
			"-0.004": 15.3929600013,
			"-0.003": 15.2571621547,
			"-0.002": 18.4762102833,
			"-0.001": 19.5973772412,
			"0.0": 19.3747055496,
			"0.001": 23.156400252,
			"0.002": 26.1546437008,
			"0.003": 10.4572574291,
			"0.004": 6.89658203924,
			"0.005": 4.73965592837,
			"0.006": 6.15471695455,
			"0.007": 5.1399783631,
			"0.008": 6.31587810745,
			"0.009": 8.60669637038,
			"0.01": 11.6997437261,
			"0.011": 9.87550540336,
			"0.012": 4.95100789129,
			"0.013": 1.47698977725,
			"0.014": 0.0300658244148,
			"0.015": 0.0,
			"0.016": 0.0,
			"0.017": 0.0,
			"0.018": 0.0,
			"0.019": 0.0,
			"0.02": 0.0,
			"0.021": 0.0,
			"0.022": 0.0,
			"0.023": 0.0,
			"0.024": 0.0,
			"0.025": 0.0
		}
	}
}
