{
	 "smiles": "N#CC1=NC(=CC=C1)N1CCCC1", 
	 "Tm": 346.65, 
	 "num_atms": 24, 
	 "gaussian": { 
		 "optdone": 1, 
		 "sigma_profile": "yes", 
		 "theory": "DFT", 
		 "functional": "B3LYP", 
		 "basiset": "6-31G**", 
		 "properties": { 
			 "R2extent": 3149.4135, 
			 "electric_dipole_moment_norm": 6.66975107931, 
			 "electric_quadrupole_moment_norm": 21.4158201856, 
			 "total_energy": -551.934854462, 
			 "HOMO_LUMO_gap": 0.16128, 
			 "cosmo_polarized_energy": -11.19, 
			 "cosmo_cavitation_energy": 27.79, 
			 "cosmo_dispersion_energy": -20.15, 
			 "cosmo_repulsion_energy": 1.61, 
			 "cosmo_total_nonelectrostatic_energy": 9.25, 
			 "SMD_solvation_energy": 3.96 
		},
		"coords": [
			{
				"x": 3.5787205348,
				"y": -2.0830142417,
				"z": -3.4689375533,
				"element": "N" 
			},
			{
				"x": 2.9180397566,
				"y": -1.2883555005,
				"z": -2.9370108025,
				"element": "C" 
			},
			{
				"x": 2.1142129214,
				"y": -0.2722033874,
				"z": -2.2939457337,
				"element": "C" 
			},
			{
				"x": 1.1796625529,
				"y": -0.7160615772,
				"z": -1.4404338347,
				"element": "N" 
			},
			{
				"x": 0.4066721897,
				"y": 0.1979751231,
				"z": -0.8221702365,
				"element": "C" 
			},
			{
				"x": 0.5609946041,
				"y": 1.5923785491,
				"z": -1.0588545776,
				"element": "C" 
			},
			{
				"x": 1.5395418181,
				"y": 2.0117668081,
				"z": -1.9422741884,
				"element": "C" 
			},
			{
				"x": 2.3513156734,
				"y": 1.0718881433,
				"z": -2.5882296495,
				"element": "C" 
			},
			{
				"x": -0.5329889541,
				"y": -0.2855418898,
				"z": 0.0382967231,
				"element": "N" 
			},
			{
				"x": -0.7508217263,
				"y": -1.7229922916,
				"z": 0.2454598717,
				"element": "C" 
			},
			{
				"x": -2.0840251353,
				"y": -1.7666830091,
				"z": 1.0049822808,
				"element": "C" 
			},
			{
				"x": -2.0816660491,
				"y": -0.453686326,
				"z": 1.8057412489,
				"element": "C" 
			},
			{
				"x": -1.4232945251,
				"y": 0.549167275,
				"z": 0.843719373,
				"element": "C" 
			},
			{
				"x": -0.079800778,
				"y": 2.3124583142,
				"z": -0.564514142,
				"element": "H" 
			},
			{
				"x": 1.6732677881,
				"y": 3.0719401904,
				"z": -2.1366643104,
				"element": "H" 
			},
			{
				"x": 3.1274253171,
				"y": 1.3602168073,
				"z": -3.2865226418,
				"element": "H" 
			},
			{
				"x": -0.7746008739,
				"y": -2.2487299632,
				"z": -0.7122250768,
				"element": "H" 
			},
			{
				"x": 0.0701222086,
				"y": -2.1580998248,
				"z": 0.8318954398,
				"element": "H" 
			},
			{
				"x": -2.9191162004,
				"y": -1.7738089449,
				"z": 0.2952494959,
				"element": "H" 
			},
			{
				"x": -2.1748215421,
				"y": -2.6542551184,
				"z": 1.6364267177,
				"element": "H" 
			},
			{
				"x": -3.0782315795,
				"y": -0.1332041786,
				"z": 2.1203898037,
				"element": "H" 
			},
			{
				"x": -1.4653594841,
				"y": -0.5626021695,
				"z": 2.7050717328,
				"element": "H" 
			},
			{
				"x": -2.1726061615,
				"y": 1.0527292169,
				"z": 0.213258777,
				"element": "H" 
			},
			{
				"x": -0.8649423555,
				"y": 1.3280179955,
				"z": 1.3775912826,
				"element": "H" 
			}
		],
		 "valence_orbital": [ 
			{
				"type": "occ",
				"energy": -0.32508,
				"method": "rhf"
			},
			{
				"type": "occ",
				"energy": -0.30393,
				"method": "rhf"
			},
			{
				"type": "occ",
				"energy": -0.28017,
				"method": "rhf"
			},
			{
				"type": "occ",
				"energy": -0.2719,
				"method": "rhf"
			},
			{
				"type": "occ",
				"energy": -0.21049,
				"method": "rhf"
			},
			{
				"type": "unocc",
				"energy": -0.04921,
				"method": "rhf"
			},
			{
				"type": "unocc",
				"energy": -0.00958,
				"method": "rhf"
			},
			{
				"type": "unocc",
				"energy": 0.04553,
				"method": "rhf"
			},
			{
				"type": "unocc",
				"energy": 0.07315,
				"method": "rhf"
			},
			{
				"type": "unocc",
				"energy": 0.08529,
				"method": "rhf"
			}
		],
		"cosmo_sigma_profile": { 
			"-0.025": 0.0,
			"-0.024": 0.0,
			"-0.023": 0.0,
			"-0.022": 0.0,
			"-0.021": 0.0,
			"-0.02": 0.0,
			"-0.019": 0.0,
			"-0.018": 0.0,
			"-0.017": 0.0,
			"-0.016": 0.0,
			"-0.015": 0.0,
			"-0.014": 0.0,
			"-0.013": 0.0,
			"-0.012": 0.0,
			"-0.011": 0.0,
			"-0.01": 0.0,
			"-0.009": 0.0,
			"-0.008": 1.35667751717,
			"-0.007": 5.84893087981,
			"-0.006": 8.17659142524,
			"-0.005": 9.81715234773,
			"-0.004": 18.345786744,
			"-0.003": 28.9780945955,
			"-0.002": 27.8053624427,
			"-0.001": 21.0619840679,
			"0.0": 19.2970050126,
			"0.001": 15.4660437072,
			"0.002": 14.7708854233,
			"0.003": 10.371003169,
			"0.004": 4.87536808289,
			"0.005": 5.59359011962,
			"0.006": 3.93084721413,
			"0.007": 4.88389648238,
			"0.008": 4.73259368361,
			"0.009": 4.92373540626,
			"0.01": 3.70838751386,
			"0.011": 3.56559329472,
			"0.012": 2.69824463107,
			"0.013": 1.17907900418,
			"0.014": 0.0,
			"0.015": 0.0,
			"0.016": 0.0,
			"0.017": 0.0,
			"0.018": 0.0,
			"0.019": 0.0,
			"0.02": 0.0,
			"0.021": 0.0,
			"0.022": 0.0,
			"0.023": 0.0,
			"0.024": 0.0,
			"0.025": 0.0
		}
	}
}
