{
	 "smiles": "NC1(CCCC1)P(O)(O)=O", 
	 "Tm": 548.15, 
	 "num_atms": 22, 
	 "gaussian": { 
		 "optdone": 1, 
		 "sigma_profile": "yes", 
		 "theory": "DFT", 
		 "functional": "B3LYP", 
		 "basiset": "6-31G**", 
		 "properties": { 
			 "R2extent": 1753.8332, 
			 "electric_dipole_moment_norm": 4.03377674766, 
			 "electric_quadrupole_moment_norm": 13.1408176188, 
			 "total_energy": -819.615147231, 
			 "HOMO_LUMO_gap": 0.31111, 
			 "cosmo_polarized_energy": -17.16, 
			 "cosmo_cavitation_energy": 24.57, 
			 "cosmo_dispersion_energy": -18.46, 
			 "cosmo_repulsion_energy": 1.47, 
			 "cosmo_total_nonelectrostatic_energy": 7.57, 
			 "SMD_solvation_energy": 5.4 
		},
		"coords": [
			{
				"x": 0.4910325276,
				"y": -0.0358523837,
				"z": -1.4573305747,
				"element": "N" 
			},
			{
				"x": 0.1272253025,
				"y": 0.0639306397,
				"z": -0.0256583245,
				"element": "C" 
			},
			{
				"x": -1.4080333039,
				"y": 0.1253013092,
				"z": 0.1603104954,
				"element": "C" 
			},
			{
				"x": -1.6869133531,
				"y": -0.3603119936,
				"z": 1.606034854,
				"element": "C" 
			},
			{
				"x": -0.3589464278,
				"y": -0.9923797421,
				"z": 2.1176063147,
				"element": "C" 
			},
			{
				"x": 0.5398914333,
				"y": -1.1194276212,
				"z": 0.8742814,
				"element": "C" 
			},
			{
				"x": 0.9613199563,
				"y": 1.6506170032,
				"z": 0.4703116042,
				"element": "P" 
			},
			{
				"x": 0.1102077997,
				"y": 2.2772324617,
				"z": 1.7071399847,
				"element": "O" 
			},
			{
				"x": 0.5249973675,
				"y": 2.6108589751,
				"z": -0.7510108327,
				"element": "O" 
			},
			{
				"x": 2.4127481079,
				"y": 1.5114199024,
				"z": 0.769542119,
				"element": "O" 
			},
			{
				"x": 1.4622294647,
				"y": -0.3289054661,
				"z": -1.5504409333,
				"element": "H" 
			},
			{
				"x": -0.0810244605,
				"y": -0.7439013165,
				"z": -1.9132461012,
				"element": "H" 
			},
			{
				"x": -1.822709095,
				"y": 1.1138858108,
				"z": -0.0521202201,
				"element": "H" 
			},
			{
				"x": -1.8542127956,
				"y": -0.5686748018,
				"z": -0.5654109788,
				"element": "H" 
			},
			{
				"x": -1.9891524499,
				"y": 0.4723664518,
				"z": 2.2446751678,
				"element": "H" 
			},
			{
				"x": -2.5053549427,
				"y": -1.0863438565,
				"z": 1.6141818743,
				"element": "H" 
			},
			{
				"x": -0.5138621211,
				"y": -1.9554242488,
				"z": 2.6123857084,
				"element": "H" 
			},
			{
				"x": 0.1116975488,
				"y": -0.3310576502,
				"z": 2.8515872176,
				"element": "H" 
			},
			{
				"x": 0.3116335381,
				"y": -2.0468119103,
				"z": 0.3305911175,
				"element": "H" 
			},
			{
				"x": 1.6096770068,
				"y": -1.1184913298,
				"z": 1.1023184388,
				"element": "H" 
			},
			{
				"x": 0.7249061573,
				"y": 2.5244732733,
				"z": 2.4129015142,
				"element": "H" 
			},
			{
				"x": 0.4577427393,
				"y": 2.0147964936,
				"z": -1.5292498453,
				"element": "H" 
			}
		],
		 "valence_orbital": [ 
			{
				"type": "occ",
				"energy": -0.32637,
				"method": "rhf"
			},
			{
				"type": "occ",
				"energy": -0.31346,
				"method": "rhf"
			},
			{
				"type": "occ",
				"energy": -0.28259,
				"method": "rhf"
			},
			{
				"type": "occ",
				"energy": -0.27882,
				"method": "rhf"
			},
			{
				"type": "occ",
				"energy": -0.26354,
				"method": "rhf"
			},
			{
				"type": "unocc",
				"energy": 0.04757,
				"method": "rhf"
			},
			{
				"type": "unocc",
				"energy": 0.05672,
				"method": "rhf"
			},
			{
				"type": "unocc",
				"energy": 0.07106,
				"method": "rhf"
			},
			{
				"type": "unocc",
				"energy": 0.10077,
				"method": "rhf"
			},
			{
				"type": "unocc",
				"energy": 0.11093,
				"method": "rhf"
			}
		],
		"cosmo_sigma_profile": { 
			"-0.025": 0.0,
			"-0.024": 0.0,
			"-0.023": 0.0,
			"-0.022": 0.0,
			"-0.021": 0.0,
			"-0.02": 0.0,
			"-0.019": 0.0923239070636,
			"-0.018": 1.18909390632,
			"-0.017": 0.57150479292,
			"-0.016": 0.405778574653,
			"-0.015": 0.868137440644,
			"-0.014": 0.70650979077,
			"-0.013": 0.807754102266,
			"-0.012": 1.35587751987,
			"-0.011": 3.1032102442,
			"-0.01": 3.9100844011,
			"-0.009": 3.81005431305,
			"-0.008": 4.07790729466,
			"-0.007": 5.29618720851,
			"-0.006": 4.86937107371,
			"-0.005": 5.79279627221,
			"-0.004": 9.72498830288,
			"-0.003": 14.4306507192,
			"-0.002": 20.6027384315,
			"-0.001": 19.765210418,
			"0.0": 19.1260155003,
			"0.001": 14.0608225094,
			"0.002": 5.31388681036,
			"0.003": 3.22714066984,
			"0.004": 3.46464889693,
			"0.005": 4.50562857668,
			"0.006": 4.00199956553,
			"0.007": 3.30262338764,
			"0.008": 3.63420329915,
			"0.009": 2.77722577855,
			"0.01": 4.19625301181,
			"0.011": 4.69235501842,
			"0.012": 2.50594287513,
			"0.013": 1.35408779585,
			"0.014": 2.8787435909,
			"0.015": 5.99701140298,
			"0.016": 1.4919803091,
			"0.017": 0.0,
			"0.018": 0.0,
			"0.019": 0.0,
			"0.02": 0.0,
			"0.021": 0.0,
			"0.022": 0.0,
			"0.023": 0.0,
			"0.024": 0.0,
			"0.025": 0.0
		}
	}
}
