{
	 "smiles": "CC(=O)CC(=O)NC1=CC(Cl)=CC=C1", 
	 "Tm": 379.15, 
	 "num_atms": 24, 
	 "gaussian": { 
		 "optdone": 1, 
		 "sigma_profile": "yes", 
		 "theory": "DFT", 
		 "functional": "B3LYP", 
		 "basiset": "6-31G**", 
		 "properties": { 
			 "R2extent": 4388.0608, 
			 "electric_dipole_moment_norm": 5.26950671126, 
			 "electric_quadrupole_moment_norm": 11.3341506144, 
			 "total_energy": -1052.49345331, 
			 "HOMO_LUMO_gap": 0.20918, 
			 "cosmo_polarized_energy": -15.88, 
			 "cosmo_cavitation_energy": 30.61, 
			 "cosmo_dispersion_energy": -21.77, 
			 "cosmo_repulsion_energy": 1.75, 
			 "cosmo_total_nonelectrostatic_energy": 10.59, 
			 "SMD_solvation_energy": 6.3 
		},
		"coords": [
			{
				"x": -3.749481502,
				"y": -2.2665851646,
				"z": 0.3259030596,
				"element": "C" 
			},
			{
				"x": -2.7649213404,
				"y": -1.6840505216,
				"z": 1.3170914868,
				"element": "C" 
			},
			{
				"x": -2.8943470406,
				"y": -1.8119514885,
				"z": 2.5170853955,
				"element": "O" 
			},
			{
				"x": -1.5947887968,
				"y": -0.8599252962,
				"z": 0.7589555419,
				"element": "C" 
			},
			{
				"x": -0.7615806982,
				"y": -1.627131983,
				"z": -0.2587368663,
				"element": "C" 
			},
			{
				"x": -0.7511890075,
				"y": -2.8501383013,
				"z": -0.2971357686,
				"element": "O" 
			},
			{
				"x": -0.0020238477,
				"y": -0.9158657995,
				"z": -1.171159855,
				"element": "N" 
			},
			{
				"x": 0.1531122702,
				"y": 0.4699045472,
				"z": -1.4003493267,
				"element": "C" 
			},
			{
				"x": 0.3072100991,
				"y": 1.3865511245,
				"z": -0.3510516399,
				"element": "C" 
			},
			{
				"x": 0.4713520265,
				"y": 2.7386702146,
				"z": -0.6485453091,
				"element": "C" 
			},
			{
				"x": 0.6483751374,
				"y": 3.8777833268,
				"z": 0.6765679396,
				"element": "Cl" 
			},
			{
				"x": 0.5234524186,
				"y": 3.2033944779,
				"z": -1.9610623155,
				"element": "C" 
			},
			{
				"x": 0.4020610554,
				"y": 2.2757552271,
				"z": -2.9972210112,
				"element": "C" 
			},
			{
				"x": 0.2104324497,
				"y": 0.9236981365,
				"z": -2.7274213523,
				"element": "C" 
			},
			{
				"x": -4.6184341083,
				"y": -2.651939473,
				"z": 0.8606743275,
				"element": "H" 
			},
			{
				"x": -4.0629312779,
				"y": -1.5152515372,
				"z": -0.4081584884,
				"element": "H" 
			},
			{
				"x": -3.2607473444,
				"y": -3.0780441668,
				"z": -0.2218074581,
				"element": "H" 
			},
			{
				"x": -0.9694407955,
				"y": -0.5881923238,
				"z": 1.6149284646,
				"element": "H" 
			},
			{
				"x": -1.9818947939,
				"y": 0.0700178137,
				"z": 0.3249411438,
				"element": "H" 
			},
			{
				"x": 0.4241808459,
				"y": -1.5352349836,
				"z": -1.8508109089,
				"element": "H" 
			},
			{
				"x": 0.328310941,
				"y": 1.0574511246,
				"z": 0.6792353703,
				"element": "H" 
			},
			{
				"x": 0.660554313,
				"y": 4.2591035709,
				"z": -2.163443184,
				"element": "H" 
			},
			{
				"x": 0.4446226354,
				"y": 2.6162295219,
				"z": -4.0272600209,
				"element": "H" 
			},
			{
				"x": 0.0938163609,
				"y": 0.2129519536,
				"z": -3.5402192247,
				"element": "H" 
			}
		],
		 "valence_orbital": [ 
			{
				"type": "occ",
				"energy": -0.31177,
				"method": "rhf"
			},
			{
				"type": "occ",
				"energy": -0.27368,
				"method": "rhf"
			},
			{
				"type": "occ",
				"energy": -0.26779,
				"method": "rhf"
			},
			{
				"type": "occ",
				"energy": -0.24903,
				"method": "rhf"
			},
			{
				"type": "occ",
				"energy": -0.24601,
				"method": "rhf"
			},
			{
				"type": "unocc",
				"energy": -0.03683,
				"method": "rhf"
			},
			{
				"type": "unocc",
				"energy": -0.03235,
				"method": "rhf"
			},
			{
				"type": "unocc",
				"energy": -0.01662,
				"method": "rhf"
			},
			{
				"type": "unocc",
				"energy": 0.01378,
				"method": "rhf"
			},
			{
				"type": "unocc",
				"energy": 0.0166,
				"method": "rhf"
			}
		],
		"cosmo_sigma_profile": { 
			"-0.025": 0.0,
			"-0.024": 0.0,
			"-0.023": 0.0,
			"-0.022": 0.0,
			"-0.021": 0.0,
			"-0.02": 0.0,
			"-0.019": 0.0,
			"-0.018": 0.0,
			"-0.017": 0.0,
			"-0.016": 0.0,
			"-0.015": 0.343096714181,
			"-0.014": 1.27387139435,
			"-0.013": 0.866733759995,
			"-0.012": 1.28743158537,
			"-0.011": 0.979593221385,
			"-0.01": 1.9850124148,
			"-0.009": 3.73022889325,
			"-0.008": 7.24892526499,
			"-0.007": 12.0907306074,
			"-0.006": 12.8855968152,
			"-0.005": 14.989101965,
			"-0.004": 12.9780407738,
			"-0.003": 13.9821398194,
			"-0.002": 16.0013433045,
			"-0.001": 17.8718205317,
			"0.0": 14.7751228033,
			"0.001": 17.5303068473,
			"0.002": 19.6741313408,
			"0.003": 18.6195926816,
			"0.004": 16.1242703985,
			"0.005": 8.29300562137,
			"0.006": 2.66511178832,
			"0.007": 2.71131992898,
			"0.008": 3.2425102146,
			"0.009": 2.88896317941,
			"0.01": 3.85554573369,
			"0.011": 5.87034660156,
			"0.012": 7.36630806891,
			"0.013": 3.87555032724,
			"0.014": 0.118650516118,
			"0.015": 0.0,
			"0.016": 0.0,
			"0.017": 0.0,
			"0.018": 0.0,
			"0.019": 0.0,
			"0.02": 0.0,
			"0.021": 0.0,
			"0.022": 0.0,
			"0.023": 0.0,
			"0.024": 0.0,
			"0.0": 0.0
		}
	}
}
