{
	 "smiles": "CC(C)OC(=O)C1=C(C)NC(=S)NC1C1=CC=CC(=C1)[N+]([O-])=O", 
	 "Tm": 498.15, 
	 "num_atms": 40, 
	 "gaussian": { 
		 "optdone": 1, 
		 "sigma_profile": "yes", 
		 "theory": "DFT", 
		 "functional": "B3LYP", 
		 "basiset": "6-31G**", 
		 "properties": { 
			 "R2extent": 9231.9182, 
			 "electric_dipole_moment_norm": 5.07775219265, 
			 "electric_quadrupole_moment_norm": 32.4649995056, 
			 "total_energy": -1445.12118114, 
			 "HOMO_LUMO_gap": 0.13764, 
			 "cosmo_polarized_energy": -22.17, 
			 "cosmo_cavitation_energy": 45.57, 
			 "cosmo_dispersion_energy": -31.15, 
			 "cosmo_repulsion_energy": 2.36, 
			 "cosmo_total_nonelectrostatic_energy": 16.78, 
			 "SMD_solvation_energy": 9.05 
		},
		"coords": [
			{
				"x": 1.8942175897,
				"y": -1.7242263586,
				"z": -3.6569603615,
				"element": "C" 
			},
			{
				"x": 2.1176666219,
				"y": -0.417683494,
				"z": -2.9032890889,
				"element": "C" 
			},
			{
				"x": 3.5719230014,
				"y": 0.0303433703,
				"z": -2.8767649617,
				"element": "C" 
			},
			{
				"x": 1.7255570323,
				"y": -0.5906113601,
				"z": -1.5046315412,
				"element": "O" 
			},
			{
				"x": 0.414128533,
				"y": -0.4425991779,
				"z": -1.2139246469,
				"element": "C" 
			},
			{
				"x": -0.4309416771,
				"y": -0.188529721,
				"z": -2.0627956013,
				"element": "O" 
			},
			{
				"x": 0.0742842369,
				"y": -0.6319678322,
				"z": 0.2047577071,
				"element": "C" 
			},
			{
				"x": 0.9302248704,
				"y": -0.9905095337,
				"z": 1.2010902318,
				"element": "C" 
			},
			{
				"x": 2.4280705549,
				"y": -1.1335778064,
				"z": 1.126137579,
				"element": "C" 
			},
			{
				"x": 0.3969918021,
				"y": -1.3003341467,
				"z": 2.44652492,
				"element": "N" 
			},
			{
				"x": -0.929952296,
				"y": -1.6055700647,
				"z": 2.6831727759,
				"element": "C" 
			},
			{
				"x": -1.4202002593,
				"y": -2.2859271352,
				"z": 4.131751526,
				"element": "S" 
			},
			{
				"x": -1.7524415674,
				"y": -1.3276032122,
				"z": 1.6494745936,
				"element": "N" 
			},
			{
				"x": -1.4023304491,
				"y": -0.4387565899,
				"z": 0.5390887384,
				"element": "C" 
			},
			{
				"x": -1.7571208018,
				"y": 1.0295402089,
				"z": 0.8294568911,
				"element": "C" 
			},
			{
				"x": -1.9203925777,
				"y": 1.5096780316,
				"z": 2.1359670237,
				"element": "C" 
			},
			{
				"x": -2.2261163544,
				"y": 2.8530061909,
				"z": 2.3743037821,
				"element": "C" 
			},
			{
				"x": -2.3788884573,
				"y": 3.7417067084,
				"z": 1.314942333,
				"element": "C" 
			},
			{
				"x": -2.2213816287,
				"y": 3.2482727734,
				"z": 0.0207944125,
				"element": "C" 
			},
			{
				"x": -1.9175187555,
				"y": 1.9164307964,
				"z": -0.2429933277,
				"element": "C" 
			},
			{
				"x": -2.3889212849,
				"y": 4.1747703127,
				"z": -1.1143703396,
				"element": "N" 
			},
			{
				"x": -2.2578706033,
				"y": 3.7201875063,
				"z": -2.249321402,
				"element": "O" 
			},
			{
				"x": -2.6487926151,
				"y": 5.3500249084,
				"z": -0.8557164793,
				"element": "O" 
			},
			{
				"x": 2.2032646851,
				"y": -1.6110197957,
				"z": -4.7010571327,
				"element": "H" 
			},
			{
				"x": 0.8374616093,
				"y": -1.9996041657,
				"z": -3.642485476,
				"element": "H" 
			},
			{
				"x": 2.481488872,
				"y": -2.5335765448,
				"z": -3.2107413475,
				"element": "H" 
			},
			{
				"x": 1.4789404829,
				"y": 0.3633319138,
				"z": -3.3238481098,
				"element": "H" 
			},
			{
				"x": 4.2097817235,
				"y": -0.7354677056,
				"z": -2.4234713698,
				"element": "H" 
			},
			{
				"x": 3.9249634372,
				"y": 0.2080542871,
				"z": -3.8970820125,
				"element": "H" 
			},
			{
				"x": 3.6850327067,
				"y": 0.9583967309,
				"z": -2.3092578389,
				"element": "H" 
			},
			{
				"x": 2.8565282848,
				"y": -1.1822838258,
				"z": 2.1316097685,
				"element": "H" 
			},
			{
				"x": 2.8771498597,
				"y": -0.3009766469,
				"z": 0.5875052613,
				"element": "H" 
			},
			{
				"x": 2.7022875039,
				"y": -2.0486733518,
				"z": 0.592495015,
				"element": "H" 
			},
			{
				"x": 1.0185038681,
				"y": -1.5568257123,
				"z": 3.2005177629,
				"element": "H" 
			},
			{
				"x": -2.7280620773,
				"y": -1.5324917531,
				"z": 1.8164768114,
				"element": "H" 
			},
			{
				"x": -1.9799031342,
				"y": -0.7551233009,
				"z": -0.3329600862,
				"element": "H" 
			},
			{
				"x": -1.8260927238,
				"y": 0.835827293,
				"z": 2.9810906985,
				"element": "H" 
			},
			{
				"x": -2.3503045517,
				"y": 3.2032433008,
				"z": 3.3941820958,
				"element": "H" 
			},
			{
				"x": -2.6184250544,
				"y": 4.7865501145,
				"z": 1.4653230866,
				"element": "H" 
			},
			{
				"x": -1.8000104069,
				"y": 1.5818747878,
				"z": -1.2664918906,
				"element": "H" 
			}
		],
		 "valence_orbital": [ 
			{
				"type": "occ",
				"energy": -0.28041,
				"method": "rhf"
			},
			{
				"type": "occ",
				"energy": -0.27166,
				"method": "rhf"
			},
			{
				"type": "occ",
				"energy": -0.25431,
				"method": "rhf"
			},
			{
				"type": "occ",
				"energy": -0.23043,
				"method": "rhf"
			},
			{
				"type": "occ",
				"energy": -0.22392,
				"method": "rhf"
			},
			{
				"type": "unocc",
				"energy": -0.08628,
				"method": "rhf"
			},
			{
				"type": "unocc",
				"energy": -0.06653,
				"method": "rhf"
			},
			{
				"type": "unocc",
				"energy": -0.02789,
				"method": "rhf"
			},
			{
				"type": "unocc",
				"energy": -0.00147,
				"method": "rhf"
			},
			{
				"type": "unocc",
				"energy": 0.00227,
				"method": "rhf"
			}
		],
		"cosmo_sigma_profile": { 
			"-0.025": 0.0,
			"-0.024": 0.0,
			"-0.023": 0.0,
			"-0.022": 0.0,
			"-0.021": 0.0,
			"-0.02": 0.0,
			"-0.019": 0.0,
			"-0.018": 0.0,
			"-0.017": 0.0,
			"-0.016": 0.582650840981,
			"-0.015": 2.09529838349,
			"-0.014": 2.25762421471,
			"-0.013": 2.17942353179,
			"-0.012": 1.86612470738,
			"-0.011": 2.3209505296,
			"-0.01": 2.39109754094,
			"-0.009": 2.23968709318,
			"-0.008": 3.30126749492,
			"-0.007": 6.94202624495,
			"-0.006": 11.7590984586,
			"-0.005": 15.8618107995,
			"-0.004": 27.3360289434,
			"-0.003": 31.642294178,
			"-0.002": 37.1289709473,
			"-0.001": 37.9111337117,
			"0.0": 37.122274363,
			"0.001": 26.8843173797,
			"0.002": 18.5858142783,
			"0.003": 12.8726736295,
			"0.004": 7.25703953353,
			"0.005": 7.69589019396,
			"0.006": 8.94787114499,
			"0.007": 12.4975987786,
			"0.008": 14.2223529538,
			"0.009": 10.790810396,
			"0.01": 11.0390375252,
			"0.011": 6.36706868064,
			"0.012": 2.16597629412,
			"0.013": 0.209198393169,
			"0.014": 0.0,
			"0.015": 0.0,
			"0.016": 0.0,
			"0.017": 0.0,
			"0.018": 0.0,
			"0.019": 0.0,
			"0.02": 0.0,
			"0.021": 0.0,
			"0.022": 0.0,
			"0.023": 0.0,
			"0.024": 0.0,
			"0.025": 0.0
		}
	}
}
