{
	 "smiles": "OC(=O)C1=CC(OCC2=C(C=CC=C2)C#N)=CC=C1", 
	 "Tm": 455.15, 
	 "num_atms": 30, 
	 "gaussian": { 
		 "optdone": 1, 
		 "sigma_profile": "yes", 
		 "theory": "DFT", 
		 "functional": "B3LYP", 
		 "basiset": "6-31G**", 
		 "properties": { 
			 "R2extent": 7574.57, 
			 "electric_dipole_moment_norm": 4.10995404962, 
			 "electric_quadrupole_moment_norm": 16.7017477996, 
			 "total_energy": -858.643247597, 
			 "HOMO_LUMO_gap": 0.1776, 
			 "cosmo_polarized_energy": -15.95, 
			 "cosmo_cavitation_energy": 36.67, 
			 "cosmo_dispersion_energy": -25.74, 
			 "cosmo_repulsion_energy": 1.96, 
			 "cosmo_total_nonelectrostatic_energy": 12.89, 
			 "SMD_solvation_energy": 8.68 
		},
		"coords": [
			{
				"x": 0.3097615616,
				"y": 4.4726420745,
				"z": 3.0057617713,
				"element": "O" 
			},
			{
				"x": -0.9879926493,
				"y": 4.1040812851,
				"z": 3.1516707058,
				"element": "C" 
			},
			{
				"x": -1.7787301574,
				"y": 4.7707375207,
				"z": 3.7893168601,
				"element": "O" 
			},
			{
				"x": -1.3166873374,
				"y": 2.8277253382,
				"z": 2.4602023829,
				"element": "C" 
			},
			{
				"x": -0.3541277823,
				"y": 2.1140008198,
				"z": 1.7447840749,
				"element": "C" 
			},
			{
				"x": -0.7048456122,
				"y": 0.9174007324,
				"z": 1.1087564458,
				"element": "C" 
			},
			{
				"x": 0.3085673905,
				"y": 0.2927938211,
				"z": 0.4335434295,
				"element": "O" 
			},
			{
				"x": 0.024773178,
				"y": -0.9254858684,
				"z": -0.2325955034,
				"element": "C" 
			},
			{
				"x": 1.281084769,
				"y": -1.4329312113,
				"z": -0.9041312131,
				"element": "C" 
			},
			{
				"x": 1.2333961156,
				"y": -2.6418117863,
				"z": -1.6334528404,
				"element": "C" 
			},
			{
				"x": 2.3813008439,
				"y": -3.1410209564,
				"z": -2.2690377558,
				"element": "C" 
			},
			{
				"x": 3.5814355143,
				"y": -2.4412777432,
				"z": -2.1827330412,
				"element": "C" 
			},
			{
				"x": 3.6336618157,
				"y": -1.246569994,
				"z": -1.4632658016,
				"element": "C" 
			},
			{
				"x": 2.4932793044,
				"y": -0.7473423681,
				"z": -0.8297821494,
				"element": "C" 
			},
			{
				"x": -0.0002853606,
				"y": -3.3676475011,
				"z": -1.726078074,
				"element": "C" 
			},
			{
				"x": -1.0132920649,
				"y": -3.9376621427,
				"z": -1.7860242945,
				"element": "N" 
			},
			{
				"x": -2.017772322,
				"y": 0.4384447631,
				"z": 1.1903849988,
				"element": "C" 
			},
			{
				"x": -2.9721006563,
				"y": 1.1653958843,
				"z": 1.9116225265,
				"element": "C" 
			},
			{
				"x": -2.6349408115,
				"y": 2.3538520623,
				"z": 2.5465908746,
				"element": "C" 
			},
			{
				"x": 0.4013414544,
				"y": 5.3074608492,
				"z": 3.4934969721,
				"element": "H" 
			},
			{
				"x": 0.6656655769,
				"y": 2.47183594,
				"z": 1.6725916483,
				"element": "H" 
			},
			{
				"x": -0.3467841791,
				"y": -1.6758928871,
				"z": 0.4809131054,
				"element": "H" 
			},
			{
				"x": -0.7662844244,
				"y": -0.7780008143,
				"z": -0.982751694,
				"element": "H" 
			},
			{
				"x": 2.3182154541,
				"y": -4.0716856098,
				"z": -2.8229370988,
				"element": "H" 
			},
			{
				"x": 4.469099748,
				"y": -2.8267933138,
				"z": -2.674005682,
				"element": "H" 
			},
			{
				"x": 4.5674871363,
				"y": -0.6966809137,
				"z": -1.3927546129,
				"element": "H" 
			},
			{
				"x": 2.5344303861,
				"y": 0.1798186819,
				"z": -0.2716231234,
				"element": "H" 
			},
			{
				"x": -2.3083996522,
				"y": -0.485489035,
				"z": 0.7047877786,
				"element": "H" 
			},
			{
				"x": -3.9883389612,
				"y": 0.7875354908,
				"z": 1.9704325986,
				"element": "H" 
			},
			{
				"x": -3.3631182784,
				"y": 2.9271668818,
				"z": 3.1084167114,
				"element": "H" 
			}
		],
		 "valence_orbital": [ 
			{
				"type": "occ",
				"energy": -0.27852,
				"method": "rhf"
			},
			{
				"type": "occ",
				"energy": -0.27479,
				"method": "rhf"
			},
			{
				"type": "occ",
				"energy": -0.26902,
				"method": "rhf"
			},
			{
				"type": "occ",
				"energy": -0.26617,
				"method": "rhf"
			},
			{
				"type": "occ",
				"energy": -0.23604,
				"method": "rhf"
			},
			{
				"type": "unocc",
				"energy": -0.05844,
				"method": "rhf"
			},
			{
				"type": "unocc",
				"energy": -0.05045,
				"method": "rhf"
			},
			{
				"type": "unocc",
				"energy": -0.02544,
				"method": "rhf"
			},
			{
				"type": "unocc",
				"energy": -0.00535,
				"method": "rhf"
			},
			{
				"type": "unocc",
				"energy": 0.0256,
				"method": "rhf"
			}
		],
		"cosmo_sigma_profile": { 
			"-0.025": 0.0,
			"-0.024": 0.0,
			"-0.023": 0.0,
			"-0.022": 0.0,
			"-0.021": 0.0,
			"-0.02": 0.0,
			"-0.019": 0.0,
			"-0.018": 1.10990297947,
			"-0.017": 0.572474411941,
			"-0.016": 0.855292013515,
			"-0.015": 0.782181564328,
			"-0.014": 0.802366334229,
			"-0.013": 0.769411792924,
			"-0.012": 0.455620540294,
			"-0.011": 0.716320976879,
			"-0.01": 0.719543866144,
			"-0.009": 0.466105552171,
			"-0.008": 4.95807622665,
			"-0.007": 15.0656338634,
			"-0.006": 20.3986541117,
			"-0.005": 18.7873033546,
			"-0.004": 16.2495122569,
			"-0.003": 15.2236801473,
			"-0.002": 17.2865645916,
			"-0.001": 19.0262668647,
			"0.0": 19.5502758622,
			"0.001": 23.9724501333,
			"0.002": 30.3774549082,
			"0.003": 27.1339685083,
			"0.004": 12.0346843141,
			"0.005": 7.10126534337,
			"0.006": 6.17092568066,
			"0.007": 5.78427927408,
			"0.008": 4.77474406568,
			"0.009": 4.47691814828,
			"0.01": 5.22102609231,
			"0.011": 6.79686631897,
			"0.012": 6.20588485639,
			"0.013": 1.37393423566,
			"0.014": 0.00802750175394,
			"0.015": 0.0,
			"0.016": 0.0,
			"0.017": 0.0,
			"0.018": 0.0,
			"0.019": 0.0,
			"0.02": 0.0,
			"0.021": 0.0,
			"0.022": 0.0,
			"0.023": 0.0,
			"0.024": 0.0,
			"0.025": 0.0
		}
	}
}
