{
	 "smiles": "OC(=O)C1=C(C=C(C=C1)[N+]([O-])=O)[N+]([O-])=O", 
	 "Tm": 455.15, 
	 "num_atms": 19, 
	 "gaussian": { 
		 "optdone": 1, 
		 "sigma_profile": "yes", 
		 "theory": "DFT", 
		 "functional": "B3LYP", 
		 "basiset": "6-31G**", 
		 "properties": { 
			 "R2extent": 4073.2026, 
			 "electric_dipole_moment_norm": 3.32675589877, 
			 "electric_quadrupole_moment_norm": 11.1703086264, 
			 "total_energy": -829.796580743, 
			 "HOMO_LUMO_gap": 0.17649, 
			 "cosmo_polarized_energy": -16.03, 
			 "cosmo_cavitation_energy": 26.44, 
			 "cosmo_dispersion_energy": -18.92, 
			 "cosmo_repulsion_energy": 1.48, 
			 "cosmo_total_nonelectrostatic_energy": 8.99, 
			 "SMD_solvation_energy": 10.28 
		},
		"coords": [
			{
				"x": -2.0196648865,
				"y": 1.8827656223,
				"z": 3.2137466179,
				"element": "O" 
			},
			{
				"x": -0.7055008045,
				"y": 1.7321937627,
				"z": 3.4536687394,
				"element": "C" 
			},
			{
				"x": -0.1633134818,
				"y": 2.0059257924,
				"z": 4.4988653203,
				"element": "O" 
			},
			{
				"x": 0.0059611501,
				"y": 1.0594666971,
				"z": 2.3108152702,
				"element": "C" 
			},
			{
				"x": -0.077102455,
				"y": 1.4544402357,
				"z": 0.9677506806,
				"element": "C" 
			},
			{
				"x": 0.5452816093,
				"y": 0.7423885521,
				"z": -0.0497361063,
				"element": "C" 
			},
			{
				"x": 1.290559263,
				"y": -0.3762498166,
				"z": 0.3034445385,
				"element": "C" 
			},
			{
				"x": 1.4289204775,
				"y": -0.7886539954,
				"z": 1.6256638355,
				"element": "C" 
			},
			{
				"x": 0.7823408871,
				"y": -0.0624785213,
				"z": 2.6225612348,
				"element": "C" 
			},
			{
				"x": 1.9669000616,
				"y": -1.1418484912,
				"z": -0.7632624674,
				"element": "N" 
			},
			{
				"x": 2.6124901527,
				"y": -2.129564237,
				"z": -0.4217748973,
				"element": "O" 
			},
			{
				"x": 1.8357830272,
				"y": -0.7393831737,
				"z": -1.9157129597,
				"element": "O" 
			},
			{
				"x": -0.7644741373,
				"y": 2.7034761742,
				"z": 0.5843064851,
				"element": "N" 
			},
			{
				"x": -0.7849359777,
				"y": 3.6063218461,
				"z": 1.4163320204,
				"element": "O" 
			},
			{
				"x": -1.2289560042,
				"y": 2.7626469191,
				"z": -0.5499862749,
				"element": "O" 
			},
			{
				"x": -2.3994689795,
				"y": 2.334686267,
				"z": 3.9866602128,
				"element": "H" 
			},
			{
				"x": 0.4627329353,
				"y": 1.0574266055,
				"z": -1.0813232197,
				"element": "H" 
			},
			{
				"x": 2.0291987162,
				"y": -1.6605489008,
				"z": 1.8531960359,
				"element": "H" 
			},
			{
				"x": 0.8667484464,
				"y": -0.3620113382,
				"z": 3.6611849337,
				"element": "H" 
			}
		],
		 "valence_orbital": [ 
			{
				"type": "occ",
				"energy": -0.32883,
				"method": "rhf"
			},
			{
				"type": "occ",
				"energy": -0.32309,
				"method": "rhf"
			},
			{
				"type": "occ",
				"energy": -0.3161,
				"method": "rhf"
			},
			{
				"type": "occ",
				"energy": -0.30717,
				"method": "rhf"
			},
			{
				"type": "occ",
				"energy": -0.30073,
				"method": "rhf"
			},
			{
				"type": "unocc",
				"energy": -0.12424,
				"method": "rhf"
			},
			{
				"type": "unocc",
				"energy": -0.10701,
				"method": "rhf"
			},
			{
				"type": "unocc",
				"energy": -0.05177,
				"method": "rhf"
			},
			{
				"type": "unocc",
				"energy": -0.03984,
				"method": "rhf"
			},
			{
				"type": "unocc",
				"energy": 0.00601,
				"method": "rhf"
			}
		],
		"cosmo_sigma_profile": { 
			"-0.025": 0.0,
			"-0.024": 0.0,
			"-0.023": 0.0,
			"-0.022": 0.0,
			"-0.021": 0.0,
			"-0.02": 0.0704650501542,
			"-0.019": 0.96283994372,
			"-0.018": 1.21535728417,
			"-0.017": 0.690182751422,
			"-0.016": 0.502938050306,
			"-0.015": 0.884006257106,
			"-0.014": 0.980012436908,
			"-0.013": 0.908882352735,
			"-0.012": 0.417497039055,
			"-0.011": 0.576649719513,
			"-0.01": 1.58358890047,
			"-0.009": 5.76374484599,
			"-0.008": 8.92870433008,
			"-0.007": 8.57326189798,
			"-0.006": 7.4524014511,
			"-0.005": 11.9455970151,
			"-0.004": 16.1620370374,
			"-0.003": 18.7022034946,
			"-0.002": 12.0140009381,
			"-0.001": 8.92366014471,
			"0.0": 6.45104633899,
			"0.001": 5.96868879212,
			"0.002": 8.67628307857,
			"0.003": 7.84477668819,
			"0.004": 9.10880618713,
			"0.005": 9.70022291106,
			"0.006": 18.0282886399,
			"0.007": 16.5818806891,
			"0.008": 9.61081982305,
			"0.009": 6.20380662148,
			"0.01": 4.81603832462,
			"0.011": 2.66830800357,
			"0.012": 0.0322826055689,
			"0.013": 0.0,
			"0.014": 0.0,
			"0.015": 0.0,
			"0.016": 0.0,
			"0.017": 0.0,
			"0.018": 0.0,
			"0.019": 0.0,
			"0.02": 0.0,
			"0.021": 0.0,
			"0.022": 0.0,
			"0.023": 0.0,
			"0.024": 0.0,
			"0.025": 0.0
		}
	}
}
