{
	 "smiles": "NC1=CC(C(O)=O)=C(Br)C=C1", 
	 "Tm": 448.15, 
	 "num_atms": 17, 
	 "gaussian": { 
		 "optdone": 1, 
		 "sigma_profile": "yes", 
		 "theory": "DFT", 
		 "functional": "B3LYP", 
		 "basiset": "6-31G**", 
		 "properties": { 
			 "R2extent": 2892.3103, 
			 "electric_dipole_moment_norm": 2.92540586244, 
			 "electric_quadrupole_moment_norm": 13.2838460146, 
			 "total_energy": -3046.97624261, 
			 "HOMO_LUMO_gap": 0.16221, 
			 "cosmo_polarized_energy": -14.06, 
			 "cosmo_cavitation_energy": 23.86, 
			 "cosmo_dispersion_energy": -18.25, 
			 "cosmo_repulsion_energy": 1.47, 
			 "cosmo_total_nonelectrostatic_energy": 7.08, 
			 "SMD_solvation_energy": 4.31 
		},
		"coords": [
			{
				"x": 0.2310167084,
				"y": -3.145568449,
				"z": 0.0620849951,
				"element": "N" 
			},
			{
				"x": 0.0720888681,
				"y": -1.7677947885,
				"z": -0.0511473237,
				"element": "C" 
			},
			{
				"x": 1.1509878065,
				"y": -0.9437890674,
				"z": -0.3876547324,
				"element": "C" 
			},
			{
				"x": 1.0429293871,
				"y": 0.4540051308,
				"z": -0.4481377686,
				"element": "C" 
			},
			{
				"x": 2.322833527,
				"y": 1.1398322526,
				"z": -0.8169306418,
				"element": "C" 
			},
			{
				"x": 2.3454111793,
				"y": 2.4682843138,
				"z": -0.5984132483,
				"element": "O" 
			},
			{
				"x": 3.2921271408,
				"y": 0.5489931745,
				"z": -1.2563901541,
				"element": "O" 
			},
			{
				"x": -0.2059014405,
				"y": 1.0442900538,
				"z": -0.1755015936,
				"element": "C" 
			},
			{
				"x": -0.5834811619,
				"y": 2.9167729277,
				"z": -0.2668180816,
				"element": "Br" 
			},
			{
				"x": -1.2907271673,
				"y": 0.2277551887,
				"z": 0.1553157372,
				"element": "C" 
			},
			{
				"x": -1.1612607541,
				"y": -1.1530753585,
				"z": 0.2242525169,
				"element": "C" 
			},
			{
				"x": -0.6089031957,
				"y": -3.6953746546,
				"z": -0.050510815,
				"element": "H" 
			},
			{
				"x": 1.0176224298,
				"y": -3.5364741477,
				"z": -0.4370190929,
				"element": "H" 
			},
			{
				"x": 2.1213086296,
				"y": -1.3731365493,
				"z": -0.6142404535,
				"element": "H" 
			},
			{
				"x": 3.2298006002,
				"y": 2.7607356751,
				"z": -0.8769203348,
				"element": "H" 
			},
			{
				"x": -2.2514252485,
				"y": 0.6873388114,
				"z": 0.3568816327,
				"element": "H" 
			},
			{
				"x": -2.0226273088,
				"y": -1.7588945133,
				"z": 0.4935493584,
				"element": "H" 
			}
		],
		 "valence_orbital": [ 
			{
				"type": "occ",
				"energy": -0.2834,
				"method": "rhf"
			},
			{
				"type": "occ",
				"energy": -0.28086,
				"method": "rhf"
			},
			{
				"type": "occ",
				"energy": -0.27213,
				"method": "rhf"
			},
			{
				"type": "occ",
				"energy": -0.2648,
				"method": "rhf"
			},
			{
				"type": "occ",
				"energy": -0.21201,
				"method": "rhf"
			},
			{
				"type": "unocc",
				"energy": -0.0498,
				"method": "rhf"
			},
			{
				"type": "unocc",
				"energy": -0.00479,
				"method": "rhf"
			},
			{
				"type": "unocc",
				"energy": 0.00983,
				"method": "rhf"
			},
			{
				"type": "unocc",
				"energy": 0.0538,
				"method": "rhf"
			},
			{
				"type": "unocc",
				"energy": 0.0762,
				"method": "rhf"
			}
		],
		"cosmo_sigma_profile": { 
			"-0.025": 0.0,
			"-0.024": 0.0,
			"-0.023": 0.0,
			"-0.022": 0.0,
			"-0.021": 0.0,
			"-0.02": 0.0,
			"-0.019": 0.0519532359505,
			"-0.018": 0.75496559801,
			"-0.017": 1.02037912881,
			"-0.016": 0.821762953615,
			"-0.015": 0.810230065663,
			"-0.014": 0.7163508452,
			"-0.013": 2.56011358253,
			"-0.012": 3.65323882159,
			"-0.011": 4.21214303218,
			"-0.01": 4.10268602287,
			"-0.009": 3.10203122971,
			"-0.008": 4.15014310818,
			"-0.007": 6.4246218898,
			"-0.006": 6.45168102827,
			"-0.005": 6.12076851261,
			"-0.004": 6.99514400834,
			"-0.003": 7.10225832292,
			"-0.002": 10.4591086364,
			"-0.001": 9.06585843815,
			"0.0": 10.3842878301,
			"0.001": 11.1634621237,
			"0.002": 16.7870390628,
			"0.003": 22.6705696447,
			"0.004": 13.7943761402,
			"0.005": 10.6397528574,
			"0.006": 5.16325813003,
			"0.007": 4.57648281429,
			"0.008": 3.79487788526,
			"0.009": 3.50243897513,
			"0.01": 3.17062265464,
			"0.011": 4.80543501345,
			"0.012": 3.81316429426,
			"0.013": 0.545052998378,
			"0.014": 0.110269925714,
			"0.015": 0.0,
			"0.016": 0.0,
			"0.017": 0.0,
			"0.018": 0.0,
			"0.019": 0.0,
			"0.02": 0.0,
			"0.021": 0.0,
			"0.022": 0.0,
			"0.023": 0.0,
			"0.024": 0.0,
			"0.025": 0.0
		}
	}
}
