{
	 "smiles": "CC1=CC=CC(=C1)C(N)=O", 
	 "Tm": 368.65, 
	 "num_atms": 19, 
	 "gaussian": { 
		 "optdone": 1, 
		 "sigma_profile": "yes", 
		 "theory": "DFT", 
		 "functional": "B3LYP", 
		 "basiset": "6-31G**", 
		 "properties": { 
			 "R2extent": 2015.13, 
			 "electric_dipole_moment_norm": 3.82460700988, 
			 "electric_quadrupole_moment_norm": 14.4073713695, 
			 "total_energy": -440.27733151, 
			 "HOMO_LUMO_gap": 0.20713, 
			 "cosmo_polarized_energy": -12.67, 
			 "cosmo_cavitation_energy": 22.85, 
			 "cosmo_dispersion_energy": -16.9, 
			 "cosmo_repulsion_energy": 1.38, 
			 "cosmo_total_nonelectrostatic_energy": 7.33, 
			 "SMD_solvation_energy": 4.81 
		},
		"coords": [
			{
				"x": 1.1149216624,
				"y": 1.1322791074,
				"z": -1.3427605999,
				"element": "C" 
			},
			{
				"x": 0.451452736,
				"y": 0.790866286,
				"z": -0.0285913737,
				"element": "C" 
			},
			{
				"x": 0.9883830786,
				"y": 1.2480313764,
				"z": 1.1837509236,
				"element": "C" 
			},
			{
				"x": 0.402030121,
				"y": 0.9055265671,
				"z": 2.4024040417,
				"element": "C" 
			},
			{
				"x": -0.7376995321,
				"y": 0.1047473816,
				"z": 2.4319570152,
				"element": "C" 
			},
			{
				"x": -1.3036961772,
				"y": -0.3446639037,
				"z": 1.2340683132,
				"element": "C" 
			},
			{
				"x": -0.6988565877,
				"y": -0.0035788774,
				"z": 0.0154130828,
				"element": "C" 
			},
			{
				"x": -2.5380445062,
				"y": -1.1964499498,
				"z": 1.3299817893,
				"element": "C" 
			},
			{
				"x": -3.2845193605,
				"y": -1.3212646127,
				"z": 0.1802206414,
				"element": "N" 
			},
			{
				"x": -2.8557981283,
				"y": -1.7666764396,
				"z": 2.3665718743,
				"element": "O" 
			},
			{
				"x": 0.4929907659,
				"y": 0.8405448031,
				"z": -2.1936608495,
				"element": "H" 
			},
			{
				"x": 1.3125243213,
				"y": 2.20670723,
				"z": -1.4231471498,
				"element": "H" 
			},
			{
				"x": 2.0785219609,
				"y": 0.6193475714,
				"z": -1.4466690027,
				"element": "H" 
			},
			{
				"x": 1.8788769963,
				"y": 1.8722313441,
				"z": 1.1706007164,
				"element": "H" 
			},
			{
				"x": 0.8368400742,
				"y": 1.2642378125,
				"z": 3.3310024176,
				"element": "H" 
			},
			{
				"x": -1.2071874986,
				"y": -0.1843801492,
				"z": 3.3658277663,
				"element": "H" 
			},
			{
				"x": -1.102360593,
				"y": -0.3885951452,
				"z": -0.9176836773,
				"element": "H" 
			},
			{
				"x": -4.1722214284,
				"y": -1.7889847455,
				"z": 0.2954851422,
				"element": "H" 
			},
			{
				"x": -3.2328579045,
				"y": -0.6148256563,
				"z": -0.5369710713,
				"element": "H" 
			}
		],
		 "valence_orbital": [ 
			{
				"type": "occ",
				"energy": -0.34369,
				"method": "rhf"
			},
			{
				"type": "occ",
				"energy": -0.26986,
				"method": "rhf"
			},
			{
				"type": "occ",
				"energy": -0.25613,
				"method": "rhf"
			},
			{
				"type": "occ",
				"energy": -0.25023,
				"method": "rhf"
			},
			{
				"type": "occ",
				"energy": -0.24179,
				"method": "rhf"
			},
			{
				"type": "unocc",
				"energy": -0.03466,
				"method": "rhf"
			},
			{
				"type": "unocc",
				"energy": -0.00405,
				"method": "rhf"
			},
			{
				"type": "unocc",
				"energy": 0.0584,
				"method": "rhf"
			},
			{
				"type": "unocc",
				"energy": 0.08018,
				"method": "rhf"
			},
			{
				"type": "unocc",
				"energy": 0.10394,
				"method": "rhf"
			}
		],
		"cosmo_sigma_profile": { 
			"-0.025": 0.0,
			"-0.024": 0.0,
			"-0.023": 0.0,
			"-0.022": 0.0,
			"-0.021": 0.0,
			"-0.02": 0.0,
			"-0.019": 0.0,
			"-0.018": 0.0,
			"-0.017": 0.0,
			"-0.016": 0.0,
			"-0.015": 0.0,
			"-0.014": 0.910373975675,
			"-0.013": 2.51445923764,
			"-0.012": 2.36343511974,
			"-0.011": 2.50116477442,
			"-0.01": 2.41847567816,
			"-0.009": 2.48972107852,
			"-0.008": 2.14742330033,
			"-0.007": 1.97438109216,
			"-0.006": 5.71765579583,
			"-0.005": 9.41274482868,
			"-0.004": 15.742847013,
			"-0.003": 13.0711509656,
			"-0.002": 14.1954341227,
			"-0.001": 12.9684147029,
			"0.0": 16.2791472817,
			"0.001": 12.2170973345,
			"0.002": 10.0150842622,
			"0.003": 9.12087369342,
			"0.004": 12.2884122381,
			"0.005": 10.2294150494,
			"0.006": 2.19540810785,
			"0.007": 2.46196489344,
			"0.008": 2.1136388388,
			"0.009": 1.79972962305,
			"0.01": 1.3250566577,
			"0.011": 1.83876703479,
			"0.012": 1.72039196646,
			"0.013": 4.34376499877,
			"0.014": 4.48831614757,
			"0.015": 0.37035498591,
			"0.016": 0.0,
			"0.017": 0.0,
			"0.018": 0.0,
			"0.019": 0.0,
			"0.02": 0.0,
			"0.021": 0.0,
			"0.022": 0.0,
			"0.023": 0.0,
			"0.024": 0.0,
			"0.025": 0.0
		}
	}
}
