{
	 "smiles": "COC1=CC=C(C=C1)C(=O)NN", 
	 "Tm": 411.15, 
	 "num_atms": 22, 
	 "gaussian": { 
		 "optdone": 1, 
		 "sigma_profile": "yes", 
		 "theory": "DFT", 
		 "functional": "B3LYP", 
		 "basiset": "6-31G**", 
		 "properties": { 
			 "R2extent": 3656.0845, 
			 "electric_dipole_moment_norm": 4.03529014818, 
			 "electric_quadrupole_moment_norm": 16.3059760934, 
			 "total_energy": -570.792076152, 
			 "HOMO_LUMO_gap": 0.1977, 
			 "cosmo_polarized_energy": -15.3, 
			 "cosmo_cavitation_energy": 26.09, 
			 "cosmo_dispersion_energy": -19.2, 
			 "cosmo_repulsion_energy": 1.54, 
			 "cosmo_total_nonelectrostatic_energy": 8.43, 
			 "SMD_solvation_energy": 6.37 
		},
		"coords": [
			{
				"x": -2.8148275983,
				"y": 3.4471971015,
				"z": 2.5909218764,
				"element": "C" 
			},
			{
				"x": -1.7924172815,
				"y": 2.4692680903,
				"z": 2.7227190881,
				"element": "O" 
			},
			{
				"x": -1.010104252,
				"y": 2.199755463,
				"z": 1.6431541108,
				"element": "C" 
			},
			{
				"x": -0.0352188958,
				"y": 1.2064442989,
				"z": 1.8319418182,
				"element": "C" 
			},
			{
				"x": 0.8242386587,
				"y": 0.8679153093,
				"z": 0.7968974962,
				"element": "C" 
			},
			{
				"x": 0.7301832633,
				"y": 1.5007396864,
				"z": -0.4555693593,
				"element": "C" 
			},
			{
				"x": -0.2677636176,
				"y": 2.4646136544,
				"z": -0.6391215639,
				"element": "C" 
			},
			{
				"x": -1.1260044416,
				"y": 2.829682767,
				"z": 0.3961161708,
				"element": "C" 
			},
			{
				"x": 1.5640503194,
				"y": 1.1407657523,
				"z": -1.6459272813,
				"element": "C" 
			},
			{
				"x": 1.1145026745,
				"y": 1.1931648142,
				"z": -2.7862898431,
				"element": "O" 
			},
			{
				"x": 2.8706776985,
				"y": 0.7256331502,
				"z": -1.4420160419,
				"element": "N" 
			},
			{
				"x": 3.7102749019,
				"y": 1.1341001037,
				"z": -0.3791903674,
				"element": "N" 
			},
			{
				"x": -2.400959707,
				"y": 4.4338374915,
				"z": 2.3477002727,
				"element": "H" 
			},
			{
				"x": -3.5467988022,
				"y": 3.1646935762,
				"z": 1.8241078122,
				"element": "H" 
			},
			{
				"x": -3.3107769404,
				"y": 3.4949963106,
				"z": 3.5612718927,
				"element": "H" 
			},
			{
				"x": 0.0189200402,
				"y": 0.7117809278,
				"z": 2.796053332,
				"element": "H" 
			},
			{
				"x": 1.5477366085,
				"y": 0.0749215136,
				"z": 0.9554916597,
				"element": "H" 
			},
			{
				"x": -0.3669305848,
				"y": 2.9233933705,
				"z": -1.6173825393,
				"element": "H" 
			},
			{
				"x": -1.8789464694,
				"y": 3.5888348881,
				"z": 0.2215844731,
				"element": "H" 
			},
			{
				"x": 3.368869995,
				"y": 0.6205021478,
				"z": -2.3185503941,
				"element": "H" 
			},
			{
				"x": 3.6200235417,
				"y": 0.4839441671,
				"z": 0.3958861994,
				"element": "H" 
			},
			{
				"x": 3.4326708889,
				"y": 2.0547154157,
				"z": -0.0465988122,
				"element": "H" 
			}
		],
		 "valence_orbital": [ 
			{
				"type": "occ",
				"energy": -0.29349,
				"method": "rhf"
			},
			{
				"type": "occ",
				"energy": -0.26282,
				"method": "rhf"
			},
			{
				"type": "occ",
				"energy": -0.24858,
				"method": "rhf"
			},
			{
				"type": "occ",
				"energy": -0.2463,
				"method": "rhf"
			},
			{
				"type": "occ",
				"energy": -0.2265,
				"method": "rhf"
			},
			{
				"type": "unocc",
				"energy": -0.0288,
				"method": "rhf"
			},
			{
				"type": "unocc",
				"energy": -0.01137,
				"method": "rhf"
			},
			{
				"type": "unocc",
				"energy": 0.05457,
				"method": "rhf"
			},
			{
				"type": "unocc",
				"energy": 0.06868,
				"method": "rhf"
			},
			{
				"type": "unocc",
				"energy": 0.09248,
				"method": "rhf"
			}
		],
		"cosmo_sigma_profile": { 
			"-0.025": 0.0,
			"-0.024": 0.0,
			"-0.023": 0.0,
			"-0.022": 0.0,
			"-0.021": 0.0,
			"-0.02": 0.0,
			"-0.019": 0.0,
			"-0.018": 0.0,
			"-0.017": 0.0,
			"-0.016": 0.0,
			"-0.015": 0.0,
			"-0.014": 0.0,
			"-0.013": 0.383212541728,
			"-0.012": 2.40355013681,
			"-0.011": 3.67269738809,
			"-0.01": 3.38962092347,
			"-0.009": 3.90273609219,
			"-0.008": 3.70170379964,
			"-0.007": 5.43674662732,
			"-0.006": 15.0792748468,
			"-0.005": 16.3736844644,
			"-0.004": 16.2458238873,
			"-0.003": 15.6419350195,
			"-0.002": 10.1018673286,
			"-0.001": 9.92845797581,
			"0.0": 9.71939690699,
			"0.001": 8.65366007318,
			"0.002": 11.6343601003,
			"0.003": 14.0285597932,
			"0.004": 15.185463054,
			"0.005": 7.23139074718,
			"0.006": 3.99058885266,
			"0.007": 3.79246507249,
			"0.008": 3.67001204104,
			"0.009": 3.15327658611,
			"0.01": 3.0083826497,
			"0.011": 2.52792907869,
			"0.012": 2.78845311504,
			"0.013": 5.04206662973,
			"0.014": 4.66537865768,
			"0.015": 0.843240775734,
			"0.016": 0.511776780519,
			"0.017": 0.0,
			"0.018": 0.0,
			"0.019": 0.0,
			"0.02": 0.0,
			"0.021": 0.0,
			"0.022": 0.0,
			"0.023": 0.0,
			"0.024": 0.0,
			"0.025": 0.0
		}
	}
}
