{
	 "smiles": "NC1=NN(CC2=CN3C=CC=CC3=N2)C=C1", 
	 "Tm": 418.15, 
	 "num_atms": 27, 
	 "gaussian": { 
		 "optdone": 1, 
		 "sigma_profile": "yes", 
		 "theory": "DFT", 
		 "functional": "B3LYP", 
		 "basiset": "6-31G**", 
		 "properties": { 
			 "R2extent": 4650.0205, 
			 "electric_dipole_moment_norm": 1.61186832589, 
			 "electric_quadrupole_moment_norm": 13.203779713, 
			 "total_energy": -699.529337574, 
			 "HOMO_LUMO_gap": 0.16672, 
			 "cosmo_polarized_energy": -16.17, 
			 "cosmo_cavitation_energy": 31.7, 
			 "cosmo_dispersion_energy": -23.11, 
			 "cosmo_repulsion_energy": 1.79, 
			 "cosmo_total_nonelectrostatic_energy": 10.38, 
			 "SMD_solvation_energy": 3.43 
		},
		"coords": [
			{
				"x": 0.0611911286,
				"y": -1.1072913294,
				"z": -3.8989953541,
				"element": "N" 
			},
			{
				"x": 0.6153264354,
				"y": -1.3564668464,
				"z": -2.6401834385,
				"element": "C" 
			},
			{
				"x": 1.0278786103,
				"y": -0.3488103569,
				"z": -1.868420037,
				"element": "N" 
			},
			{
				"x": 1.4470231854,
				"y": -0.9468758961,
				"z": -0.7158243617,
				"element": "N" 
			},
			{
				"x": 1.8633889173,
				"y": -0.1242069056,
				"z": 0.4058692422,
				"element": "C" 
			},
			{
				"x": 0.7177763252,
				"y": 0.4970926335,
				"z": 1.1601430038,
				"element": "C" 
			},
			{
				"x": -0.487782754,
				"y": 0.9381449626,
				"z": 0.647826745,
				"element": "C" 
			},
			{
				"x": -1.1774177632,
				"y": 1.444461004,
				"z": 1.7285181437,
				"element": "N" 
			},
			{
				"x": -2.4258630024,
				"y": 2.0096343463,
				"z": 1.8248645156,
				"element": "C" 
			},
			{
				"x": -2.8750375591,
				"y": 2.4368885513,
				"z": 3.0431064313,
				"element": "C" 
			},
			{
				"x": -2.0591610488,
				"y": 2.2962664188,
				"z": 4.2018955068,
				"element": "C" 
			},
			{
				"x": -0.8106914392,
				"y": 1.7292093488,
				"z": 4.1067710105,
				"element": "C" 
			},
			{
				"x": -0.3376826183,
				"y": 1.2857643462,
				"z": 2.8504850768,
				"element": "C" 
			},
			{
				"x": 0.8117909807,
				"y": 0.7086260678,
				"z": 2.5054051068,
				"element": "N" 
			},
			{
				"x": 1.2986789341,
				"y": -2.2929907156,
				"z": -0.7587007304,
				"element": "C" 
			},
			{
				"x": 0.7662676446,
				"y": -2.6100838349,
				"z": -1.993841263,
				"element": "C" 
			},
			{
				"x": 0.287304833,
				"y": -0.1748753896,
				"z": -4.2250129251,
				"element": "H" 
			},
			{
				"x": 0.3178615126,
				"y": -1.7989919495,
				"z": -4.5920735155,
				"element": "H" 
			},
			{
				"x": 2.5333274604,
				"y": 0.6499498535,
				"z": 0.0153296845,
				"element": "H" 
			},
			{
				"x": 2.4408944204,
				"y": -0.7438637632,
				"z": 1.0961827325,
				"element": "H" 
			},
			{
				"x": -0.8850184314,
				"y": 0.9290074534,
				"z": -0.3540426583,
				"element": "H" 
			},
			{
				"x": -2.9937320797,
				"y": 2.085605178,
				"z": 0.9054438685,
				"element": "H" 
			},
			{
				"x": -3.8604605181,
				"y": 2.8831711845,
				"z": 3.1123614747,
				"element": "H" 
			},
			{
				"x": -2.4306600939,
				"y": 2.6406101705,
				"z": 5.1614144615,
				"element": "H" 
			},
			{
				"x": -0.1616353132,
				"y": 1.6052053465,
				"z": 4.9659562957,
				"element": "H" 
			},
			{
				"x": 1.578923115,
				"y": -2.9176353471,
				"z": 0.0775778509,
				"element": "H" 
			},
			{
				"x": 0.5234091183,
				"y": -3.5910445314,
				"z": -2.373956867,
				"element": "H" 
			}
		],
		 "valence_orbital": [ 
			{
				"type": "occ",
				"energy": -0.26851,
				"method": "rhf"
			},
			{
				"type": "occ",
				"energy": -0.23769,
				"method": "rhf"
			},
			{
				"type": "occ",
				"energy": -0.23386,
				"method": "rhf"
			},
			{
				"type": "occ",
				"energy": -0.20647,
				"method": "rhf"
			},
			{
				"type": "occ",
				"energy": -0.19682,
				"method": "rhf"
			},
			{
				"type": "unocc",
				"energy": -0.0301,
				"method": "rhf"
			},
			{
				"type": "unocc",
				"energy": 0.00689,
				"method": "rhf"
			},
			{
				"type": "unocc",
				"energy": 0.03166,
				"method": "rhf"
			},
			{
				"type": "unocc",
				"energy": 0.06578,
				"method": "rhf"
			},
			{
				"type": "unocc",
				"energy": 0.08209,
				"method": "rhf"
			}
		],
		"cosmo_sigma_profile": { 
			"-0.025": 0.0,
			"-0.024": 0.0,
			"-0.023": 0.0,
			"-0.022": 0.0,
			"-0.021": 0.0,
			"-0.02": 0.0,
			"-0.019": 0.0,
			"-0.018": 0.0,
			"-0.017": 0.0,
			"-0.016": 0.0,
			"-0.015": 0.0,
			"-0.014": 0.0,
			"-0.013": 0.121348728689,
			"-0.012": 1.52013169832,
			"-0.011": 2.69547046288,
			"-0.01": 2.18307401648,
			"-0.009": 6.52979867771,
			"-0.008": 9.53125654467,
			"-0.007": 12.0957275418,
			"-0.006": 18.0690977074,
			"-0.005": 16.390074079,
			"-0.004": 14.1321955823,
			"-0.003": 12.925646621,
			"-0.002": 11.755638321,
			"-0.001": 12.2913277254,
			"0.0": 16.816159332,
			"0.001": 14.8396286457,
			"0.002": 16.5335145114,
			"0.003": 20.2624909882,
			"0.004": 15.850509794,
			"0.005": 8.71574854068,
			"0.006": 9.07453632894,
			"0.007": 6.27740496022,
			"0.008": 4.07632118684,
			"0.009": 2.66437009028,
			"0.01": 3.10353991768,
			"0.011": 3.0150739754,
			"0.012": 2.16384446638,
			"0.013": 2.92991936798,
			"0.014": 2.32442356649,
			"0.015": 1.89385394473,
			"0.016": 1.8364928029,
			"0.017": 0.952570788919,
			"0.018": 0.217298012629,
			"0.019": 0.0,
			"0.02": 0.0,
			"0.021": 0.0,
			"0.022": 0.0,
			"0.023": 0.0,
			"0.024": 0.0,
			"0.025": 0.0
		}
	}
}
