{
	 "smiles": "[H]C1=C([H])C2=C(O1)C(OC([H])([H])[H])=C1OC(=O)C([H])=C([H])C1=C2[H]", 
	 "Tm": 421.15, 
	 "num_atms": 24, 
	 "gaussian": { 
		 "optdone": 1, 
		 "sigma_profile": "yes", 
		 "theory": "DFT", 
		 "functional": "B3LYP", 
		 "basiset": "6-31G**", 
		 "properties": { 
			 "R2extent": 3788.9665, 
			 "electric_dipole_moment_norm": 6.24772106452, 
			 "electric_quadrupole_moment_norm": 19.8030886152, 
			 "total_energy": -762.95572138, 
			 "HOMO_LUMO_gap": 0.15023, 
			 "cosmo_polarized_energy": -14.61, 
			 "cosmo_cavitation_energy": 28.82, 
			 "cosmo_dispersion_energy": -21.54, 
			 "cosmo_repulsion_energy": 1.64, 
			 "cosmo_total_nonelectrostatic_energy": 8.92, 
			 "SMD_solvation_energy": 7.54 
		},
		"coords": [
			{
				"x": -0.6971215941,
				"y": 2.0713736487,
				"z": -2.949071038,
				"element": "C" 
			},
			{
				"x": 0.6420776627,
				"y": 2.2095056798,
				"z": -2.826413273,
				"element": "C" 
			},
			{
				"x": 1.0596078035,
				"y": 1.2601783498,
				"z": -1.8190130151,
				"element": "C" 
			},
			{
				"x": -0.1279599396,
				"y": 0.6072727965,
				"z": -1.4097995443,
				"element": "C" 
			},
			{
				"x": -1.2005279805,
				"y": 1.108181268,
				"z": -2.1052408662,
				"element": "O" 
			},
			{
				"x": -0.1648099183,
				"y": -0.3969576746,
				"z": -0.4361945097,
				"element": "C" 
			},
			{
				"x": -1.2345137579,
				"y": -1.0816777095,
				"z": 0.0268469774,
				"element": "O" 
			},
			{
				"x": -2.5370744677,
				"y": -0.8086195664,
				"z": -0.4905188346,
				"element": "C" 
			},
			{
				"x": 1.0867746431,
				"y": -0.7254339873,
				"z": 0.1252543992,
				"element": "C" 
			},
			{
				"x": 1.0729693219,
				"y": -1.7038328828,
				"z": 1.0780377658,
				"element": "O" 
			},
			{
				"x": 2.2214244938,
				"y": -2.1451880082,
				"z": 1.7298871538,
				"element": "C" 
			},
			{
				"x": 2.1034665687,
				"y": -3.0171053038,
				"z": 2.5588180353,
				"element": "O" 
			},
			{
				"x": 3.468786248,
				"y": -1.4966465128,
				"z": 1.3365003045,
				"element": "C" 
			},
			{
				"x": 3.4952855404,
				"y": -0.5278810609,
				"z": 0.3955695406,
				"element": "C" 
			},
			{
				"x": 2.289135183,
				"y": -0.0892118141,
				"z": -0.264790635,
				"element": "C" 
			},
			{
				"x": 2.2797178069,
				"y": 0.9135002117,
				"z": -1.2457968595,
				"element": "C" 
			},
			{
				"x": -1.4322090732,
				"y": 2.5614982977,
				"z": -3.5690899641,
				"element": "H" 
			},
			{
				"x": 1.2698668767,
				"y": 2.8957636169,
				"z": -3.3758693106,
				"element": "H" 
			},
			{
				"x": -3.2037182091,
				"y": -1.486604471,
				"z": 0.0437646365,
				"element": "H" 
			},
			{
				"x": -2.835733188,
				"y": 0.2267026074,
				"z": -0.3005282944,
				"element": "H" 
			},
			{
				"x": -2.5925450179,
				"y": -1.0087342523,
				"z": -1.5647944584,
				"element": "H" 
			},
			{
				"x": 4.3598239416,
				"y": -1.8430013187,
				"z": 1.8461056019,
				"element": "H" 
			},
			{
				"x": 4.4342854553,
				"y": -0.0563530489,
				"z": 0.1157075233,
				"element": "H" 
			},
			{
				"x": 3.2056916008,
				"y": 1.3968711349,
				"z": -1.539771335,
				"element": "H" 
			}
		],
		 "valence_orbital": [ 
			{
				"type": "occ",
				"energy": -0.31012,
				"method": "rhf"
			},
			{
				"type": "occ",
				"energy": -0.27535,
				"method": "rhf"
			},
			{
				"type": "occ",
				"energy": -0.26602,
				"method": "rhf"
			},
			{
				"type": "occ",
				"energy": -0.23085,
				"method": "rhf"
			},
			{
				"type": "occ",
				"energy": -0.21035,
				"method": "rhf"
			},
			{
				"type": "unocc",
				"energy": -0.06012,
				"method": "rhf"
			},
			{
				"type": "unocc",
				"energy": -0.02219,
				"method": "rhf"
			},
			{
				"type": "unocc",
				"energy": 0.01523,
				"method": "rhf"
			},
			{
				"type": "unocc",
				"energy": 0.04291,
				"method": "rhf"
			},
			{
				"type": "unocc",
				"energy": 0.07037,
				"method": "rhf"
			}
		],
		"cosmo_sigma_profile": { 
			"-0.025": 0.0,
			"-0.024": 0.0,
			"-0.023": 0.0,
			"-0.022": 0.0,
			"-0.021": 0.0,
			"-0.02": 0.0,
			"-0.019": 0.0,
			"-0.018": 0.0,
			"-0.017": 0.0,
			"-0.016": 0.0,
			"-0.015": 0.0,
			"-0.014": 0.0,
			"-0.013": 0.0,
			"-0.012": 0.0,
			"-0.011": 0.0,
			"-0.01": 0.896050786607,
			"-0.009": 2.51161403852,
			"-0.008": 7.72580066359,
			"-0.007": 9.74014293975,
			"-0.006": 12.6674717685,
			"-0.005": 15.3274551445,
			"-0.004": 17.530645325,
			"-0.003": 16.3549199249,
			"-0.002": 13.8506711213,
			"-0.001": 14.9518110335,
			"0.0": 22.431900377,
			"0.001": 23.1826285223,
			"0.002": 15.8846752965,
			"0.003": 15.6544235,
			"0.004": 7.92510760203,
			"0.005": 3.32186782618,
			"0.006": 3.19263341576,
			"0.007": 2.8704642535,
			"0.008": 2.90532392481,
			"0.009": 2.80542157749,
			"0.01": 4.42895018131,
			"0.011": 5.15300025365,
			"0.012": 7.70943427654,
			"0.013": 3.35548670322,
			"0.014": 0.19494866448,
			"0.015": 0.0,
			"0.016": 0.0,
			"0.017": 0.0,
			"0.018": 0.0,
			"0.019": 0.0,
			"0.02": 0.0,
			"0.021": 0.0,
			"0.022": 0.0,
			"0.023": 0.0,
			"0.024": 0.0,
			"0.025": 0.0
		}
	}
}
