{
	 "smiles": "CC(=C)C(=O)OCCO", 
	 "Tm": 261.15, 
	 "num_atms": 19, 
	 "gaussian": { 
		 "optdone": 1, 
		 "sigma_profile": "yes", 
		 "theory": "DFT", 
		 "functional": "B3LYP", 
		 "basiset": "6-31G**", 
		 "properties": { 
			 "R2extent": 2080.3512, 
			 "electric_dipole_moment_norm": 3.4773552105, 
			 "electric_quadrupole_moment_norm": 14.1284933701, 
			 "total_energy": -460.322402163, 
			 "HOMO_LUMO_gap": 0.20074, 
			 "cosmo_polarized_energy": -8.47, 
			 "cosmo_cavitation_energy": 22.48, 
			 "cosmo_dispersion_energy": -16.45, 
			 "cosmo_repulsion_energy": 1.37, 
			 "cosmo_total_nonelectrostatic_energy": 7.41, 
			 "SMD_solvation_energy": 5.53 
		},
		"coords": [
			{
				"x": 0.992392049,
				"y": -0.4659329493,
				"z": 1.6833049413,
				"element": "C" 
			},
			{
				"x": 0.1627274964,
				"y": -0.2555491189,
				"z": 0.444565924,
				"element": "C" 
			},
			{
				"x": -0.4508176395,
				"y": -1.2407426126,
				"z": -0.2240591266,
				"element": "C" 
			},
			{
				"x": 0.0565151625,
				"y": 1.163391656,
				"z": -0.0089179735,
				"element": "C" 
			},
			{
				"x": 0.5698101839,
				"y": 2.0867018863,
				"z": 0.6090280776,
				"element": "O" 
			},
			{
				"x": -0.6429194164,
				"y": 1.3209229516,
				"z": -1.1443915955,
				"element": "O" 
			},
			{
				"x": -0.9484284345,
				"y": 2.6697829954,
				"z": -1.5919833446,
				"element": "C" 
			},
			{
				"x": 0.2538992193,
				"y": 3.457444043,
				"z": -2.1193503597,
				"element": "C" 
			},
			{
				"x": 0.9254694817,
				"y": 4.2176334973,
				"z": -1.1446427867,
				"element": "O" 
			},
			{
				"x": 1.0224293466,
				"y": -1.5233966281,
				"z": 1.9556970528,
				"element": "H" 
			},
			{
				"x": 2.0169864299,
				"y": -0.1104550437,
				"z": 1.5327197438,
				"element": "H" 
			},
			{
				"x": 0.5882087519,
				"y": 0.1055009474,
				"z": 2.5250209229,
				"element": "H" 
			},
			{
				"x": -1.0414187303,
				"y": -1.0429309575,
				"z": -1.1106164025,
				"element": "H" 
			},
			{
				"x": -0.3719751773,
				"y": -2.2723684541,
				"z": 0.1062676107,
				"element": "H" 
			},
			{
				"x": -1.4219598319,
				"y": 3.2225522754,
				"z": -0.7742770234,
				"element": "H" 
			},
			{
				"x": -1.6771958412,
				"y": 2.5008525728,
				"z": -2.3877757626,
				"element": "H" 
			},
			{
				"x": 0.919133341,
				"y": 2.7529388657,
				"z": -2.6490835307,
				"element": "H" 
			},
			{
				"x": -0.1183576261,
				"y": 4.1671322057,
				"z": -2.8685949479,
				"element": "H" 
			},
			{
				"x": 1.031501235,
				"y": 3.6397218675,
				"z": -0.3696114195,
				"element": "H" 
			}
		],
		 "valence_orbital": [ 
			{
				"type": "occ",
				"energy": -0.33953,
				"method": "rhf"
			},
			{
				"type": "occ",
				"energy": -0.30454,
				"method": "rhf"
			},
			{
				"type": "occ",
				"energy": -0.28322,
				"method": "rhf"
			},
			{
				"type": "occ",
				"energy": -0.27816,
				"method": "rhf"
			},
			{
				"type": "occ",
				"energy": -0.25336,
				"method": "rhf"
			},
			{
				"type": "unocc",
				"energy": -0.05262,
				"method": "rhf"
			},
			{
				"type": "unocc",
				"energy": 0.0696,
				"method": "rhf"
			},
			{
				"type": "unocc",
				"energy": 0.09712,
				"method": "rhf"
			},
			{
				"type": "unocc",
				"energy": 0.11205,
				"method": "rhf"
			},
			{
				"type": "unocc",
				"energy": 0.11307,
				"method": "rhf"
			}
		],
		"cosmo_sigma_profile": { 
			"-0.025": 0.0,
			"-0.024": 0.0,
			"-0.023": 0.0,
			"-0.022": 0.0,
			"-0.021": 0.0,
			"-0.02": 0.0,
			"-0.019": 0.0,
			"-0.018": 0.0,
			"-0.017": 0.0,
			"-0.016": 0.0,
			"-0.015": 0.0,
			"-0.014": 0.0,
			"-0.013": 0.0,
			"-0.012": 0.0,
			"-0.011": 0.0,
			"-0.01": 0.0,
			"-0.009": 0.0,
			"-0.008": 0.00105955568054,
			"-0.007": 2.85711374752,
			"-0.006": 9.26737053137,
			"-0.005": 13.5515117543,
			"-0.004": 19.1152720486,
			"-0.003": 20.3452075369,
			"-0.002": 18.4292867383,
			"-0.001": 15.497521901,
			"0.0": 15.4724023783,
			"0.001": 11.5605751322,
			"0.002": 8.83796107073,
			"0.003": 10.0038044795,
			"0.004": 5.10062185215,
			"0.005": 3.7051622231,
			"0.006": 2.89983469521,
			"0.007": 2.15708437382,
			"0.008": 2.89642744564,
			"0.009": 2.37720553318,
			"0.01": 3.02408977631,
			"0.011": 2.22973611014,
			"0.012": 1.85555747113,
			"0.013": 1.61087640883,
			"0.014": 1.76988731638,
			"0.015": 2.20492037398,
			"0.016": 0.0664203446788,
			"0.017": 0.0,
			"0.018": 0.0,
			"0.019": 0.0,
			"0.02": 0.0,
			"0.021": 0.0,
			"0.022": 0.0,
			"0.023": 0.0,
			"0.024": 0.0,
			"0.025": 0.0
		}
	}
}
