{
	 "smiles": "BrC1=NC(Br)=C(Br)C(Br)=C1Br", 
	 "Tm": 480.15, 
	 "num_atms": 11, 
	 "gaussian": { 
		 "optdone": 1, 
		 "sigma_profile": "yes", 
		 "theory": "DFT", 
		 "functional": "B3LYP", 
		 "basiset": "6-31G**", 
		 "properties": { 
			 "R2extent": 7512.6985, 
			 "electric_dipole_moment_norm": 1.60045245165, 
			 "electric_quadrupole_moment_norm": 4.34974914104, 
			 "total_energy": -13102.2688848, 
			 "HOMO_LUMO_gap": 0.18825, 
			 "cosmo_polarized_energy": -4.31, 
			 "cosmo_cavitation_energy": 27.11, 
			 "cosmo_dispersion_energy": -22.09, 
			 "cosmo_repulsion_energy": 1.76, 
			 "cosmo_total_nonelectrostatic_energy": 6.78, 
			 "SMD_solvation_energy": -1.8 
		},
		"coords": [
			{
				"x": -3.6903558971,
				"y": -1.2667305978,
				"z": 1.0718121913,
				"element": "Br" 
			},
			{
				"x": -1.8250862545,
				"y": -0.9831638656,
				"z": 0.8226426728,
				"element": "C" 
			},
			{
				"x": -1.0694735012,
				"y": -1.2113648614,
				"z": 1.8793953558,
				"element": "N" 
			},
			{
				"x": 0.2371279462,
				"y": -1.0442595348,
				"z": 1.8113035916,
				"element": "C" 
			},
			{
				"x": 1.1952406822,
				"y": -1.4114324951,
				"z": 3.4140156847,
				"element": "Br" 
			},
			{
				"x": 0.891105882,
				"y": -0.6239832907,
				"z": 0.6417271809,
				"element": "C" 
			},
			{
				"x": 2.7635909666,
				"y": -0.3998857584,
				"z": 0.596358266,
				"element": "Br" 
			},
			{
				"x": 0.0907324412,
				"y": -0.3787435294,
				"z": -0.4891958669,
				"element": "C" 
			},
			{
				"x": 0.8823171899,
				"y": 0.1898140823,
				"z": -2.1054029549,
				"element": "Br" 
			},
			{
				"x": -1.3024437026,
				"y": -0.5590520606,
				"z": -0.4099025996,
				"element": "C" 
			},
			{
				"x": -2.4267557527,
				"y": -0.2464980885,
				"z": -1.8920535217,
				"element": "Br" 
			}
		],
		 "valence_orbital": [ 
			{
				"type": "occ",
				"energy": -0.30605,
				"method": "rhf"
			},
			{
				"type": "occ",
				"energy": -0.28475,
				"method": "rhf"
			},
			{
				"type": "occ",
				"energy": -0.28309,
				"method": "rhf"
			},
			{
				"type": "occ",
				"energy": -0.27895,
				"method": "rhf"
			},
			{
				"type": "occ",
				"energy": -0.2609,
				"method": "rhf"
			},
			{
				"type": "unocc",
				"energy": -0.07265,
				"method": "rhf"
			},
			{
				"type": "unocc",
				"energy": -0.06962,
				"method": "rhf"
			},
			{
				"type": "unocc",
				"energy": -0.06321,
				"method": "rhf"
			},
			{
				"type": "unocc",
				"energy": -0.02283,
				"method": "rhf"
			},
			{
				"type": "unocc",
				"energy": -0.00367,
				"method": "rhf"
			}
		],
		"cosmo_sigma_profile": { 
			"-0.025": 0.0,
			"-0.024": 0.0,
			"-0.023": 0.0,
			"-0.022": 0.0,
			"-0.021": 0.0,
			"-0.02": 0.0,
			"-0.019": 0.0,
			"-0.018": 0.0,
			"-0.017": 0.0,
			"-0.016": 0.0,
			"-0.015": 0.0,
			"-0.014": 0.0,
			"-0.013": 0.0,
			"-0.012": 0.0,
			"-0.011": 0.0,
			"-0.01": 0.0,
			"-0.009": 0.0,
			"-0.008": 0.145763953725,
			"-0.007": 3.39877280047,
			"-0.006": 8.05032985762,
			"-0.005": 10.5182398201,
			"-0.004": 18.737736573,
			"-0.003": 20.7046688099,
			"-0.002": 17.2757467367,
			"-0.001": 16.5611222108,
			"0.0": 20.8986687292,
			"0.001": 23.2295717738,
			"0.002": 38.29165757,
			"0.003": 38.3550124956,
			"0.004": 9.94566839875,
			"0.005": 2.59371911717,
			"0.006": 2.16203925753,
			"0.007": 1.32617917235,
			"0.008": 1.56491410776,
			"0.009": 0.834525999314,
			"0.01": 0.799829862008,
			"0.011": 0.0051783382869,
			"0.012": 0.0,
			"0.013": 0.0,
			"0.014": 0.0,
			"0.015": 0.0,
			"0.016": 0.0,
			"0.017": 0.0,
			"0.018": 0.0,
			"0.019": 0.0,
			"0.02": 0.0,
			"0.021": 0.0,
			"0.022": 0.0,
			"0.023": 0.0,
			"0.024": 0.0,
			"0.025": 0.0
		}
	}
}
