{
	 "smiles": "NC(CCC(=O)NC(CS)C(=O)NCC(O)=O)C(O)=O", 
	 "Tm": 468.15, 
	 "num_atms": 37, 
	 "gaussian": { 
		 "optdone": 1, 
		 "sigma_profile": "yes", 
		 "theory": "DFT", 
		 "functional": "B3LYP", 
		 "basiset": "6-31G**", 
		 "properties": { 
			 "R2extent": 8606.1198, 
			 "electric_dipole_moment_norm": 5.56674639354, 
			 "electric_quadrupole_moment_norm": 40.3742736611, 
			 "total_energy": -1405.13883412, 
			 "HOMO_LUMO_gap": 0.21634, 
			 "cosmo_polarized_energy": -38.65, 
			 "cosmo_cavitation_energy": 41.81, 
			 "cosmo_dispersion_energy": -28.72, 
			 "cosmo_repulsion_energy": 2.22, 
			 "cosmo_total_nonelectrostatic_energy": 15.31, 
			 "SMD_solvation_energy": 8.49 
		},
		"coords": [
			{
				"x": -1.3728488969,
				"y": -1.5373638864,
				"z": 3.6846103826,
				"element": "N" 
			},
			{
				"x": -1.2802541325,
				"y": -0.1057398594,
				"z": 4.0085759983,
				"element": "C" 
			},
			{
				"x": -0.1382813498,
				"y": 0.7049387278,
				"z": 3.3712160557,
				"element": "C" 
			},
			{
				"x": -0.3809766802,
				"y": 1.1941861891,
				"z": 1.9274837475,
				"element": "C" 
			},
			{
				"x": -0.4281402611,
				"y": 0.0989806352,
				"z": 0.8686515583,
				"element": "C" 
			},
			{
				"x": -1.272759062,
				"y": -0.7970462241,
				"z": 0.8615270485,
				"element": "O" 
			},
			{
				"x": 0.526524539,
				"y": 0.1775451873,
				"z": -0.1062312443,
				"element": "N" 
			},
			{
				"x": 0.6537222279,
				"y": -0.8070321208,
				"z": -1.1848295259,
				"element": "C" 
			},
			{
				"x": 1.1416186783,
				"y": -2.1726512706,
				"z": -0.6728499393,
				"element": "C" 
			},
			{
				"x": 1.794739649,
				"y": -3.2536155308,
				"z": -2.0136815053,
				"element": "S" 
			},
			{
				"x": -0.6500886541,
				"y": -0.9948935319,
				"z": -2.0035824414,
				"element": "C" 
			},
			{
				"x": -1.1529859083,
				"y": -2.0882919425,
				"z": -2.1718860973,
				"element": "O" 
			},
			{
				"x": -1.1709390919,
				"y": 0.1146649557,
				"z": -2.6710843761,
				"element": "N" 
			},
			{
				"x": -0.9616728548,
				"y": 1.5213570676,
				"z": -2.3468853694,
				"element": "C" 
			},
			{
				"x": 0.4584792061,
				"y": 2.0052527907,
				"z": -2.6620736138,
				"element": "C" 
			},
			{
				"x": 1.0331956491,
				"y": 1.4220163583,
				"z": -3.7322700031,
				"element": "O" 
			},
			{
				"x": 1.0230538767,
				"y": 2.8522264722,
				"z": -2.0127956706,
				"element": "O" 
			},
			{
				"x": -1.2625391742,
				"y": 0.0387125003,
				"z": 5.5512186379,
				"element": "C" 
			},
			{
				"x": -1.7679884879,
				"y": -1.0295031534,
				"z": 6.1793456379,
				"element": "O" 
			},
			{
				"x": -0.8715042022,
				"y": 1.0282301092,
				"z": 6.1281906079,
				"element": "O" 
			},
			{
				"x": -1.7055130565,
				"y": -1.6419078095,
				"z": 2.7276654624,
				"element": "H" 
			},
			{
				"x": -0.4449322799,
				"y": -1.957813588,
				"z": 3.711029845,
				"element": "H" 
			},
			{
				"x": -2.2353448812,
				"y": 0.3430393225,
				"z": 3.700524751,
				"element": "H" 
			},
			{
				"x": 0.7929258492,
				"y": 0.1243189645,
				"z": 3.4218879207,
				"element": "H" 
			},
			{
				"x": 0.0136488639,
				"y": 1.5869938199,
				"z": 3.9999858792,
				"element": "H" 
			},
			{
				"x": -1.3482555752,
				"y": 1.7105606128,
				"z": 1.8864074222,
				"element": "H" 
			},
			{
				"x": 0.3832311154,
				"y": 1.9363301876,
				"z": 1.6722190096,
				"element": "H" 
			},
			{
				"x": 1.1609535594,
				"y": 0.9638992474,
				"z": -0.1101732951,
				"element": "H" 
			},
			{
				"x": 1.4060215042,
				"y": -0.4034521867,
				"z": -1.8698910699,
				"element": "H" 
			},
			{
				"x": 1.9212080725,
				"y": -2.0211272822,
				"z": 0.0753077868,
				"element": "H" 
			},
			{
				"x": 0.3096004734,
				"y": -2.7049980689,
				"z": -0.2146111195,
				"element": "H" 
			},
			{
				"x": 3.090880355,
				"y": -2.9087000626,
				"z": -1.8678398164,
				"element": "H" 
			},
			{
				"x": -2.0613565884,
				"y": -0.1205284864,
				"z": -3.0943288035,
				"element": "H" 
			},
			{
				"x": -1.6421170248,
				"y": 2.104893552,
				"z": -2.9772255181,
				"element": "H" 
			},
			{
				"x": -1.1777100658,
				"y": 1.7765068193,
				"z": -1.3079401311,
				"element": "H" 
			},
			{
				"x": 0.4377533698,
				"y": 0.7195617114,
				"z": -4.0521053744,
				"element": "H" 
			},
			{
				"x": -1.9509487609,
				"y": -1.6763502266,
				"z": 5.452937163,
				"element": "H" 
			}
		],
		 "valence_orbital": [ 
			{
				"type": "occ",
				"energy": -0.28976,
				"method": "rhf"
			},
			{
				"type": "occ",
				"energy": -0.27936,
				"method": "rhf"
			},
			{
				"type": "occ",
				"energy": -0.2757,
				"method": "rhf"
			},
			{
				"type": "occ",
				"energy": -0.24986,
				"method": "rhf"
			},
			{
				"type": "occ",
				"energy": -0.24704,
				"method": "rhf"
			},
			{
				"type": "unocc",
				"energy": -0.0307,
				"method": "rhf"
			},
			{
				"type": "unocc",
				"energy": -0.0217,
				"method": "rhf"
			},
			{
				"type": "unocc",
				"energy": -0.01052,
				"method": "rhf"
			},
			{
				"type": "unocc",
				"energy": 0.01716,
				"method": "rhf"
			},
			{
				"type": "unocc",
				"energy": 0.02193,
				"method": "rhf"
			}
		],
		"cosmo_sigma_profile": { 
			"-0.025": 0.0,
			"-0.024": 0.0,
			"-0.023": 0.0,
			"-0.022": 0.0,
			"-0.021": 0.0,
			"-0.02": 0.0,
			"-0.019": 0.0,
			"-0.018": 0.0,
			"-0.017": 0.0,
			"-0.016": 0.373981315575,
			"-0.015": 1.73343025135,
			"-0.014": 2.52967552456,
			"-0.013": 3.8938040084,
			"-0.012": 5.00252192839,
			"-0.011": 6.41692229666,
			"-0.01": 8.84939663646,
			"-0.009": 10.8109465123,
			"-0.008": 10.7637543231,
			"-0.007": 18.1729314534,
			"-0.006": 19.4318557848,
			"-0.005": 20.4014759176,
			"-0.004": 22.8572221911,
			"-0.003": 18.8503152888,
			"-0.002": 15.7260546847,
			"-0.001": 11.9723519038,
			"0.0": 10.5668622694,
			"0.001": 8.58618056456,
			"0.002": 8.51011400105,
			"0.003": 8.8131262067,
			"0.004": 9.71905806958,
			"0.005": 10.1101179331,
			"0.006": 10.6955379693,
			"0.007": 10.3576568064,
			"0.008": 11.0464723286,
			"0.009": 12.647201047,
			"0.01": 14.3612929114,
			"0.011": 14.6695807734,
			"0.012": 15.71709591,
			"0.013": 5.33682372386,
			"0.014": 0.755145426834,
			"0.015": 0.0,
			"0.016": 0.0,
			"0.017": 0.0,
			"0.018": 0.0,
			"0.019": 0.0,
			"0.02": 0.0,
			"0.021": 0.0,
			"0.022": 0.0,
			"0.023": 0.0,
			"0.024": 0.0,
			"0.025": 0.0
		}
	}
}
