{
	 "smiles": "CC(C)(C)N1N=C(C=C1C1CC1)C(O)=O", 
	 "Tm": 393.15, 
	 "num_atms": 31, 
	 "gaussian": { 
		 "optdone": 1, 
		 "sigma_profile": "yes", 
		 "theory": "DFT", 
		 "functional": "B3LYP", 
		 "basiset": "6-31G**", 
		 "properties": { 
			 "R2extent": 3566.0723, 
			 "electric_dipole_moment_norm": 7.51460390307, 
			 "electric_quadrupole_moment_norm": 16.214171257, 
			 "total_energy": -688.742832066, 
			 "HOMO_LUMO_gap": 0.22548, 
			 "cosmo_polarized_energy": -13.65, 
			 "cosmo_cavitation_energy": 32.79, 
			 "cosmo_dispersion_energy": -22.75, 
			 "cosmo_repulsion_energy": 1.77, 
			 "cosmo_total_nonelectrostatic_energy": 11.81, 
			 "SMD_solvation_energy": 6.1 
		},
		"coords": [
			{
				"x": 1.9019254285,
				"y": 1.7489582197,
				"z": 1.1775471406,
				"element": "C" 
			},
			{
				"x": 0.7154521966,
				"y": 0.7884171177,
				"z": 1.3669682203,
				"element": "C" 
			},
			{
				"x": 1.1256221256,
				"y": -0.4278147001,
				"z": 2.2178539326,
				"element": "C" 
			},
			{
				"x": -0.4246649946,
				"y": 1.552306978,
				"z": 2.0622419686,
				"element": "C" 
			},
			{
				"x": 0.2176581639,
				"y": 0.292014782,
				"z": 0.041622484,
				"element": "N" 
			},
			{
				"x": -1.1073744609,
				"y": 0.0927490325,
				"z": -0.0924988232,
				"element": "N" 
			},
			{
				"x": -1.2801781607,
				"y": -0.455869548,
				"z": -1.2967364187,
				"element": "C" 
			},
			{
				"x": -0.0531065786,
				"y": -0.6290887784,
				"z": -1.956414239,
				"element": "C" 
			},
			{
				"x": 0.9049457442,
				"y": -0.1534974655,
				"z": -1.0771135513,
				"element": "C" 
			},
			{
				"x": 2.3747330833,
				"y": -0.101503639,
				"z": -1.2881529805,
				"element": "C" 
			},
			{
				"x": 3.0223070263,
				"y": -1.0870684595,
				"z": -2.2320548778,
				"element": "C" 
			},
			{
				"x": 3.2996136141,
				"y": -1.1862477305,
				"z": -0.7568757406,
				"element": "C" 
			},
			{
				"x": -2.6470594502,
				"y": -0.7866129159,
				"z": -1.7688192336,
				"element": "C" 
			},
			{
				"x": -3.6294419493,
				"y": -0.4720716061,
				"z": -0.8922805561,
				"element": "O" 
			},
			{
				"x": -2.8814718857,
				"y": -1.2952382141,
				"z": -2.8410939238,
				"element": "O" 
			},
			{
				"x": 1.6556768124,
				"y": 2.5447059679,
				"z": 0.4678693087,
				"element": "H" 
			},
			{
				"x": 2.8031215796,
				"y": 1.2370133005,
				"z": 0.8399713919,
				"element": "H" 
			},
			{
				"x": 2.130850398,
				"y": 2.2158591179,
				"z": 2.1397584281,
				"element": "H" 
			},
			{
				"x": 0.2782376598,
				"y": -1.107610442,
				"z": 2.3440789453,
				"element": "H" 
			},
			{
				"x": 1.9475475246,
				"y": -0.9778786786,
				"z": 1.7529695993,
				"element": "H" 
			},
			{
				"x": 1.4542406243,
				"y": -0.098348725,
				"z": 3.2086567684,
				"element": "H" 
			},
			{
				"x": -0.7674734563,
				"y": 2.3918678443,
				"z": 1.4514981028,
				"element": "H" 
			},
			{
				"x": -0.0491323422,
				"y": 1.9448135738,
				"z": 3.0117230257,
				"element": "H" 
			},
			{
				"x": -1.2794335539,
				"y": 0.9074341786,
				"z": 2.2650400156,
				"element": "H" 
			},
			{
				"x": 0.1062023549,
				"y": -1.0282690924,
				"z": -2.9454634729,
				"element": "H" 
			},
			{
				"x": 2.801277895,
				"y": 0.897595804,
				"z": -1.3142531696,
				"element": "H" 
			},
			{
				"x": 3.8054728748,
				"y": -0.7144759929,
				"z": -2.884336273,
				"element": "H" 
			},
			{
				"x": 2.3980228733,
				"y": -1.8552859843,
				"z": -2.675847384,
				"element": "H" 
			},
			{
				"x": 2.8468387122,
				"y": -2.0147947394,
				"z": -0.221466965,
				"element": "H" 
			},
			{
				"x": 4.2747791937,
				"y": -0.8865372829,
				"z": -0.3844886713,
				"element": "H" 
			},
			{
				"x": -3.2083890524,
				"y": -0.0751219224,
				"z": -0.1088030514,
				"element": "H" 
			}
		],
		 "valence_orbital": [ 
			{
				"type": "occ",
				"energy": -0.29891,
				"method": "rhf"
			},
			{
				"type": "occ",
				"energy": -0.29877,
				"method": "rhf"
			},
			{
				"type": "occ",
				"energy": -0.25891,
				"method": "rhf"
			},
			{
				"type": "occ",
				"energy": -0.25841,
				"method": "rhf"
			},
			{
				"type": "occ",
				"energy": -0.25013,
				"method": "rhf"
			},
			{
				"type": "unocc",
				"energy": -0.02465,
				"method": "rhf"
			},
			{
				"type": "unocc",
				"energy": 0.01731,
				"method": "rhf"
			},
			{
				"type": "unocc",
				"energy": 0.06887,
				"method": "rhf"
			},
			{
				"type": "unocc",
				"energy": 0.08075,
				"method": "rhf"
			},
			{
				"type": "unocc",
				"energy": 0.08996,
				"method": "rhf"
			}
		],
		"cosmo_sigma_profile": { 
			"-0.025": 0.0,
			"-0.024": 0.0,
			"-0.023": 0.0,
			"-0.022": 0.0,
			"-0.021": 0.0,
			"-0.02": 0.0,
			"-0.019": 0.0,
			"-0.018": 0.0,
			"-0.017": 0.0,
			"-0.016": 0.0,
			"-0.015": 0.0,
			"-0.014": 0.0749923919738,
			"-0.013": 0.596965902197,
			"-0.012": 0.509703460785,
			"-0.011": 0.620949527301,
			"-0.01": 0.539850820559,
			"-0.009": 0.75373002444,
			"-0.008": 0.956722528204,
			"-0.007": 1.53790425742,
			"-0.006": 3.83935250239,
			"-0.005": 15.3078661842,
			"-0.004": 28.1785634295,
			"-0.003": 29.0811742364,
			"-0.002": 28.8129552066,
			"-0.001": 29.4868524426,
			"0.0": 29.507267051,
			"0.001": 17.722280302,
			"0.002": 13.7869285872,
			"0.003": 12.9430930625,
			"0.004": 8.55013397148,
			"0.005": 4.23541821691,
			"0.006": 3.19654050787,
			"0.007": 2.00030682146,
			"0.008": 3.11653911297,
			"0.009": 3.23232660637,
			"0.01": 5.03063131469,
			"0.011": 4.91507241042,
			"0.012": 5.73884078465,
			"0.013": 2.78061725355,
			"0.014": 0.337510253286,
			"0.015": 0.0,
			"0.016": 0.0,
			"0.017": 0.0,
			"0.018": 0.0,
			"0.019": 0.0,
			"0.02": 0.0,
			"0.021": 0.0,
			"0.022": 0.0,
			"0.023": 0.0,
			"0.024": 0.0,
			"0.025": 0.0
		}
	}
}
