{
	 "smiles": "CCOC(=O)C1=CC=C(C=C1)C1=CC=CC=C1", 
	 "Tm": 322.15, 
	 "num_atms": 31, 
	 "gaussian": { 
		 "optdone": 1, 
		 "sigma_profile": "yes", 
		 "theory": "DFT", 
		 "functional": "B3LYP", 
		 "basiset": "6-31G**", 
		 "properties": { 
			 "R2extent": 6898.9657, 
			 "electric_dipole_moment_norm": 2.14971370419, 
			 "electric_quadrupole_moment_norm": 15.0276218059, 
			 "total_energy": -730.511948746, 
			 "HOMO_LUMO_gap": 0.17805, 
			 "cosmo_polarized_energy": -8.92, 
			 "cosmo_cavitation_energy": 35.35, 
			 "cosmo_dispersion_energy": -25.61, 
			 "cosmo_repulsion_energy": 1.98, 
			 "cosmo_total_nonelectrostatic_energy": 11.73, 
			 "SMD_solvation_energy": 6.89 
		},
		"coords": [
			{
				"x": -1.2725177985,
				"y": -1.6631571017,
				"z": 6.2033362421,
				"element": "C" 
			},
			{
				"x": -0.9282590832,
				"y": -0.3845015898,
				"z": 5.4633305518,
				"element": "C" 
			},
			{
				"x": -0.7421004218,
				"y": -0.7245258015,
				"z": 4.0717930349,
				"element": "O" 
			},
			{
				"x": -0.4254909164,
				"y": 0.3047500966,
				"z": 3.2529500707,
				"element": "C" 
			},
			{
				"x": -0.3015235206,
				"y": 1.4506579045,
				"z": 3.6432941008,
				"element": "O" 
			},
			{
				"x": -0.249381348,
				"y": -0.1251085782,
				"z": 1.8380914651,
				"element": "C" 
			},
			{
				"x": -0.4006413104,
				"y": -1.4564045064,
				"z": 1.4268173699,
				"element": "C" 
			},
			{
				"x": -0.22282416,
				"y": -1.7995158845,
				"z": 0.0904232296,
				"element": "C" 
			},
			{
				"x": 0.1080600089,
				"y": -0.8285815615,
				"z": -0.8719263861,
				"element": "C" 
			},
			{
				"x": 0.2558699944,
				"y": 0.5040218274,
				"z": -0.4451387126,
				"element": "C" 
			},
			{
				"x": 0.08089266,
				"y": 0.8514605921,
				"z": 0.8890092344,
				"element": "C" 
			},
			{
				"x": 0.2964119884,
				"y": -1.1993634003,
				"z": -2.2967845522,
				"element": "C" 
			},
			{
				"x": -0.5159922557,
				"y": -2.1731998122,
				"z": -2.9029001942,
				"element": "C" 
			},
			{
				"x": -0.3390927097,
				"y": -2.520851122,
				"z": -4.2412052708,
				"element": "C" 
			},
			{
				"x": 0.6548656647,
				"y": -1.9031074099,
				"z": -5.0027170848,
				"element": "C" 
			},
			{
				"x": 1.469871536,
				"y": -0.9341612815,
				"z": -4.4141930065,
				"element": "C" 
			},
			{
				"x": 1.2922258715,
				"y": -0.5856847872,
				"z": -3.0762031474,
				"element": "C" 
			},
			{
				"x": -2.1912250335,
				"y": -2.1080004529,
				"z": 5.8100045548,
				"element": "H" 
			},
			{
				"x": -0.4671530989,
				"y": -2.3977126542,
				"z": 6.1115035702,
				"element": "H" 
			},
			{
				"x": -1.4222535009,
				"y": -1.4483019664,
				"z": 7.266006937,
				"element": "H" 
			},
			{
				"x": -0.0093925871,
				"y": 0.0753173747,
				"z": 5.8409077491,
				"element": "H" 
			},
			{
				"x": -1.7237858221,
				"y": 0.3634194604,
				"z": 5.5411581388,
				"element": "H" 
			},
			{
				"x": -0.6474268882,
				"y": -2.2170543573,
				"z": 2.1586047529,
				"element": "H" 
			},
			{
				"x": -0.315300255,
				"y": -2.8385855973,
				"z": -0.210477676,
				"element": "H" 
			},
			{
				"x": 0.484375774,
				"y": 1.2757562361,
				"z": -1.1737596222,
				"element": "H" 
			},
			{
				"x": 0.1865078913,
				"y": 1.8795573051,
				"z": 1.2187205133,
				"element": "H" 
			},
			{
				"x": -1.3091824108,
				"y": -2.6406590566,
				"z": -2.3269718558,
				"element": "H" 
			},
			{
				"x": -0.9842642852,
				"y": -3.2696169711,
				"z": -4.6920241991,
				"element": "H" 
			},
			{
				"x": 0.792946587,
				"y": -2.174198798,
				"z": -6.0453481016,
				"element": "H" 
			},
			{
				"x": 2.251570608,
				"y": -0.4535895812,
				"z": -4.9956594304,
				"element": "H" 
			},
			{
				"x": 1.9484088218,
				"y": 0.1503414748,
				"z": -2.6212422755,
				"element": "H" 
			}
		],
		 "valence_orbital": [ 
			{
				"type": "occ",
				"energy": -0.27821,
				"method": "rhf"
			},
			{
				"type": "occ",
				"energy": -0.26843,
				"method": "rhf"
			},
			{
				"type": "occ",
				"energy": -0.25731,
				"method": "rhf"
			},
			{
				"type": "occ",
				"energy": -0.25448,
				"method": "rhf"
			},
			{
				"type": "occ",
				"energy": -0.23027,
				"method": "rhf"
			},
			{
				"type": "unocc",
				"energy": -0.05222,
				"method": "rhf"
			},
			{
				"type": "unocc",
				"energy": -0.00875,
				"method": "rhf"
			},
			{
				"type": "unocc",
				"energy": -0.00425,
				"method": "rhf"
			},
			{
				"type": "unocc",
				"energy": 0.00304,
				"method": "rhf"
			},
			{
				"type": "unocc",
				"energy": 0.06718,
				"method": "rhf"
			}
		],
		"cosmo_sigma_profile": { 
			"-0.025": 0.0,
			"-0.024": 0.0,
			"-0.023": 0.0,
			"-0.022": 0.0,
			"-0.021": 0.0,
			"-0.02": 0.0,
			"-0.019": 0.0,
			"-0.018": 0.0,
			"-0.017": 0.0,
			"-0.016": 0.0,
			"-0.015": 0.0,
			"-0.014": 0.0,
			"-0.013": 0.0,
			"-0.012": 0.0,
			"-0.011": 0.0,
			"-0.01": 0.0,
			"-0.009": 0.0,
			"-0.008": 0.0,
			"-0.007": 0.242887195106,
			"-0.006": 12.4094990833,
			"-0.005": 23.3622102832,
			"-0.004": 30.0156477634,
			"-0.003": 27.6321284194,
			"-0.002": 23.8537162223,
			"-0.001": 20.7487943337,
			"0.0": 23.1867470753,
			"0.001": 21.2215894077,
			"0.002": 21.7504449339,
			"0.003": 23.9815154803,
			"0.004": 20.4580548208,
			"0.005": 13.760725531,
			"0.006": 5.52044693911,
			"0.007": 1.4512763574,
			"0.008": 1.45206544912,
			"0.009": 1.35805568693,
			"0.01": 1.91710958358,
			"0.011": 2.41150373514,
			"0.012": 4.59121345612,
			"0.013": 0.766413877208,
			"0.014": 0.0,
			"0.015": 0.0,
			"0.016": 0.0,
			"0.017": 0.0,
			"0.018": 0.0,
			"0.019": 0.0,
			"0.02": 0.0,
			"0.021": 0.0,
			"0.022": 0.0,
			"0.023": 0.0,
			"0.024": 0.0,
			"0.025": 0.0
		}
	}
}
