{
	 "smiles": "CC(O)C(C)(C)C", 
	 "Tm": 278.35, 
	 "num_atms": 21, 
	 "gaussian": { 
		 "optdone": 1, 
		 "sigma_profile": "yes", 
		 "theory": "DFT", 
		 "functional": "B3LYP", 
		 "basiset": "6-31G**", 
		 "properties": { 
			 "R2extent": 1067.4451, 
			 "electric_dipole_moment_norm": 1.46309326087, 
			 "electric_quadrupole_moment_norm": 5.14537997819, 
			 "total_energy": -312.310249062, 
			 "HOMO_LUMO_gap": 0.33022, 
			 "cosmo_polarized_energy": -5.26, 
			 "cosmo_cavitation_energy": 21.43, 
			 "cosmo_dispersion_energy": -15.54, 
			 "cosmo_repulsion_energy": 1.29, 
			 "cosmo_total_nonelectrostatic_energy": 7.18, 
			 "SMD_solvation_energy": 4.08 
		},
		"coords": [
			{
				"x": -0.1410488165,
				"y": 1.109582436,
				"z": -1.8390892677,
				"element": "C" 
			},
			{
				"x": -0.3703136317,
				"y": 1.655647275,
				"z": -0.4263437917,
				"element": "C" 
			},
			{
				"x": 0.5206871311,
				"y": 2.7467772484,
				"z": -0.1732073058,
				"element": "O" 
			},
			{
				"x": -0.17835186,
				"y": 0.636449802,
				"z": 0.7309187139,
				"element": "C" 
			},
			{
				"x": -1.154889467,
				"y": -0.5422592473,
				"z": 0.5550028033,
				"element": "C" 
			},
			{
				"x": 1.2706766397,
				"y": 0.1137032616,
				"z": 0.7740438303,
				"element": "C" 
			},
			{
				"x": -0.4987191893,
				"y": 1.3516516486,
				"z": 2.0601913905,
				"element": "C" 
			},
			{
				"x": 0.8836732787,
				"y": 0.7481427441,
				"z": -1.9625543135,
				"element": "H" 
			},
			{
				"x": -0.3048798173,
				"y": 1.905013051,
				"z": -2.5767506634,
				"element": "H" 
			},
			{
				"x": -0.8320333372,
				"y": 0.2981112047,
				"z": -2.0840645312,
				"element": "H" 
			},
			{
				"x": -1.414177039,
				"y": 2.0115052939,
				"z": -0.3629124256,
				"element": "H" 
			},
			{
				"x": 0.4092683709,
				"y": 3.3906890285,
				"z": -0.8835488444,
				"element": "H" 
			},
			{
				"x": -2.1909821576,
				"y": -0.1947897378,
				"z": 0.4626217923,
				"element": "H" 
			},
			{
				"x": -0.9206506313,
				"y": -1.1460803385,
				"z": -0.3273973442,
				"element": "H" 
			},
			{
				"x": -1.1067334629,
				"y": -1.2047304361,
				"z": 1.4259763004,
				"element": "H" 
			},
			{
				"x": 1.5191322647,
				"y": -0.4754210001,
				"z": -0.1151370945,
				"element": "H" 
			},
			{
				"x": 1.9794526328,
				"y": 0.9428524446,
				"z": 0.8427527876,
				"element": "H" 
			},
			{
				"x": 1.41390182,
				"y": -0.5348835939,
				"z": 1.6453196257,
				"element": "H" 
			},
			{
				"x": -1.5319202523,
				"y": 1.7192709363,
				"z": 2.0698693128,
				"element": "H" 
			},
			{
				"x": -0.3823613588,
				"y": 0.6629627727,
				"z": 2.9043354696,
				"element": "H" 
			},
			{
				"x": 0.1636688829,
				"y": 2.2061052063,
				"z": 2.2144735558,
				"element": "H" 
			}
		],
		 "valence_orbital": [ 
			{
				"type": "occ",
				"energy": -0.3441,
				"method": "rhf"
			},
			{
				"type": "occ",
				"energy": -0.31567,
				"method": "rhf"
			},
			{
				"type": "occ",
				"energy": -0.3142,
				"method": "rhf"
			},
			{
				"type": "occ",
				"energy": -0.29833,
				"method": "rhf"
			},
			{
				"type": "occ",
				"energy": -0.26076,
				"method": "rhf"
			},
			{
				"type": "unocc",
				"energy": 0.06946,
				"method": "rhf"
			},
			{
				"type": "unocc",
				"energy": 0.10336,
				"method": "rhf"
			},
			{
				"type": "unocc",
				"energy": 0.12545,
				"method": "rhf"
			},
			{
				"type": "unocc",
				"energy": 0.13547,
				"method": "rhf"
			},
			{
				"type": "unocc",
				"energy": 0.13988,
				"method": "rhf"
			}
		],
		"cosmo_sigma_profile": { 
			"-0.025": 0.0,
			"-0.024": 0.0,
			"-0.023": 0.0,
			"-0.022": 0.0,
			"-0.021": 0.0,
			"-0.02": 0.0,
			"-0.019": 0.0,
			"-0.018": 0.0,
			"-0.017": 0.0,
			"-0.016": 0.0,
			"-0.015": 0.315556490016,
			"-0.014": 1.19048524363,
			"-0.013": 0.635309444178,
			"-0.012": 1.28493279016,
			"-0.011": 0.618125985958,
			"-0.01": 1.08549373068,
			"-0.009": 0.871067009853,
			"-0.008": 1.13223704071,
			"-0.007": 0.389841642406,
			"-0.006": 1.63161115537,
			"-0.005": 1.33601305803,
			"-0.004": 1.91281751806,
			"-0.003": 8.76768427041,
			"-0.002": 28.0547102726,
			"-0.001": 27.3487116731,
			"0.0": 21.648931582,
			"0.001": 24.3429141925,
			"0.002": 20.3343706181,
			"0.003": 3.87221154717,
			"0.004": 1.98100015249,
			"0.005": 1.74385247601,
			"0.006": 2.02406042529,
			"0.007": 1.67583574502,
			"0.008": 1.57669234975,
			"0.009": 1.69542423861,
			"0.01": 1.32249470714,
			"0.011": 2.19195214899,
			"0.012": 1.98207655535,
			"0.013": 0.782069912883,
			"0.014": 0.0334026784284,
			"0.015": 0.0,
			"0.016": 0.0,
			"0.017": 0.0,
			"0.018": 0.0,
			"0.019": 0.0,
			"0.02": 0.0,
			"0.021": 0.0,
			"0.022": 0.0,
			"0.023": 0.0,
			"0.024": 0.0,
			"0.025": 0.0
		}
	}
}
