{
	 "smiles": "CC1=C(F)C(F)=C(COC(=O)C2C(C=C(Cl)C(F)(F)F)C2(C)C)C(F)=C1F", 
	 "Tm": 317.75, 
	 "num_atms": 41, 
	 "gaussian": { 
		 "optdone": 1, 
		 "sigma_profile": "yes", 
		 "theory": "DFT", 
		 "functional": "B3LYP", 
		 "basiset": "6-31G**", 
		 "properties": { 
			 "R2extent": 15352.869, 
			 "electric_dipole_moment_norm": 4.50585988353, 
			 "electric_quadrupole_moment_norm": 22.688065116, 
			 "total_energy": -1965.71521721, 
			 "HOMO_LUMO_gap": 0.21292, 
			 "cosmo_polarized_energy": -9.34, 
			 "cosmo_cavitation_energy": 50.44, 
			 "cosmo_dispersion_energy": -32.57, 
			 "cosmo_repulsion_energy": 2.41, 
			 "cosmo_total_nonelectrostatic_energy": 20.28, 
			 "SMD_solvation_energy": 11.91 
		},
		"coords": [
			{
				"x": -4.1025887545,
				"y": -4.5667209214,
				"z": -2.0425965591,
				"element": "C" 
			},
			{
				"x": -3.6280447941,
				"y": -3.1478987013,
				"z": -1.8761570142,
				"element": "C" 
			},
			{
				"x": -2.8534387869,
				"y": -2.5141282426,
				"z": -2.8498358567,
				"element": "C" 
			},
			{
				"x": -2.5288566266,
				"y": -3.1770134458,
				"z": -3.9756773034,
				"element": "F" 
			},
			{
				"x": -2.4120102606,
				"y": -1.2049887251,
				"z": -2.6925519122,
				"element": "C" 
			},
			{
				"x": -1.6822439112,
				"y": -0.6412393062,
				"z": -3.6703300681,
				"element": "F" 
			},
			{
				"x": -2.7173792209,
				"y": -0.4631056514,
				"z": -1.5497394048,
				"element": "C" 
			},
			{
				"x": -2.2157190822,
				"y": 0.9480655508,
				"z": -1.3879664953,
				"element": "C" 
			},
			{
				"x": -0.7728911142,
				"y": 1.0056063712,
				"z": -1.2781387976,
				"element": "O" 
			},
			{
				"x": -0.2534668233,
				"y": 0.7207377549,
				"z": -0.0585467847,
				"element": "C" 
			},
			{
				"x": -0.9405466656,
				"y": 0.4319467055,
				"z": 0.904078993,
				"element": "O" 
			},
			{
				"x": 1.2287834074,
				"y": 0.819822422,
				"z": -0.1047131163,
				"element": "C" 
			},
			{
				"x": 2.0425632665,
				"y": 1.2723879018,
				"z": 1.1254336767,
				"element": "C" 
			},
			{
				"x": 1.3856886078,
				"y": 1.6307091328,
				"z": 2.3925867583,
				"element": "C" 
			},
			{
				"x": 1.8693587217,
				"y": 2.4787963349,
				"z": 3.3055012893,
				"element": "C" 
			},
			{
				"x": 3.398241587,
				"y": 3.3223561125,
				"z": 3.1469349625,
				"element": "Cl" 
			},
			{
				"x": 1.1437998998,
				"y": 2.8067212428,
				"z": 4.5857594209,
				"element": "C" 
			},
			{
				"x": 0.8622974935,
				"y": 4.1223481304,
				"z": 4.6742949227,
				"element": "F" 
			},
			{
				"x": -0.0212434001,
				"y": 2.1329294285,
				"z": 4.668116672,
				"element": "F" 
			},
			{
				"x": 1.8788710921,
				"y": 2.4849033977,
				"z": 5.6696123251,
				"element": "F" 
			},
			{
				"x": 2.1380078439,
				"y": -0.1615785974,
				"z": 0.6305900802,
				"element": "C" 
			},
			{
				"x": 3.421610723,
				"y": -0.5326004944,
				"z": -0.0965106894,
				"element": "C" 
			},
			{
				"x": 1.5555746212,
				"y": -1.301736559,
				"z": 1.4491166669,
				"element": "C" 
			},
			{
				"x": -3.4937827159,
				"y": -1.0907244459,
				"z": -0.5743774574,
				"element": "C" 
			},
			{
				"x": -3.8460959788,
				"y": -0.4299819499,
				"z": 0.5368886556,
				"element": "F" 
			},
			{
				"x": -3.9357726388,
				"y": -2.4017623769,
				"z": -0.7384662701,
				"element": "C" 
			},
			{
				"x": -4.6858488118,
				"y": -2.9549006097,
				"z": 0.2321023037,
				"element": "F" 
			},
			{
				"x": -3.3797533911,
				"y": -5.2723147463,
				"z": -1.6170921433,
				"element": "H" 
			},
			{
				"x": -4.2220152957,
				"y": -4.8112296102,
				"z": -3.0995389998,
				"element": "H" 
			},
			{
				"x": -5.0532596408,
				"y": -4.717001552,
				"z": -1.527766043,
				"element": "H" 
			},
			{
				"x": -2.6688431613,
				"y": 1.4061491564,
				"z": -0.5089895593,
				"element": "H" 
			},
			{
				"x": -2.4337885465,
				"y": 1.539933175,
				"z": -2.2779528594,
				"element": "H" 
			},
			{
				"x": 1.5962338365,
				"y": 1.184822918,
				"z": -1.0579942647,
				"element": "H" 
			},
			{
				"x": 2.8911725607,
				"y": 1.8997962622,
				"z": 0.8702570262,
				"element": "H" 
			},
			{
				"x": 0.420499726,
				"y": 1.1850831355,
				"z": 2.6065961743,
				"element": "H" 
			},
			{
				"x": 3.2449767577,
				"y": -1.3592624288,
				"z": -0.793844012,
				"element": "H" 
			},
			{
				"x": 3.8267466674,
				"y": 0.3092773249,
				"z": -0.6663364819,
				"element": "H" 
			},
			{
				"x": 4.1864238253,
				"y": -0.8543673562,
				"z": 0.6190442867,
				"element": "H" 
			},
			{
				"x": 2.2484696048,
				"y": -1.5720302735,
				"z": 2.2534085866,
				"element": "H" 
			},
			{
				"x": 1.4233911696,
				"y": -2.1849115842,
				"z": 0.8141065347,
				"element": "H" 
			},
			{
				"x": 0.5880782088,
				"y": -1.0585948797,
				"z": 1.8867927574,
				"element": "H" 
			}
		],
		 "valence_orbital": [ 
			{
				"type": "occ",
				"energy": -0.30162,
				"method": "rhf"
			},
			{
				"type": "occ",
				"energy": -0.28768,
				"method": "rhf"
			},
			{
				"type": "occ",
				"energy": -0.26551,
				"method": "rhf"
			},
			{
				"type": "occ",
				"energy": -0.25465,
				"method": "rhf"
			},
			{
				"type": "occ",
				"energy": -0.24881,
				"method": "rhf"
			},
			{
				"type": "unocc",
				"energy": -0.03589,
				"method": "rhf"
			},
			{
				"type": "unocc",
				"energy": -0.03005,
				"method": "rhf"
			},
			{
				"type": "unocc",
				"energy": -0.00854,
				"method": "rhf"
			},
			{
				"type": "unocc",
				"energy": -0.00295,
				"method": "rhf"
			},
			{
				"type": "unocc",
				"energy": 0.02321,
				"method": "rhf"
			}
		],
		"cosmo_sigma_profile": { 
			"-0.025": 0.0,
			"-0.024": 0.0,
			"-0.023": 0.0,
			"-0.022": 0.0,
			"-0.021": 0.0,
			"-0.02": 0.0,
			"-0.019": 0.0,
			"-0.018": 0.0,
			"-0.017": 0.0,
			"-0.016": 0.0,
			"-0.015": 0.0,
			"-0.014": 0.0,
			"-0.013": 0.0,
			"-0.012": 0.0,
			"-0.011": 0.0,
			"-0.01": 0.0,
			"-0.009": 0.0,
			"-0.008": 1.22737576868,
			"-0.007": 5.78109949907,
			"-0.006": 9.47545049945,
			"-0.005": 14.2192808012,
			"-0.004": 22.8209605603,
			"-0.003": 31.0326498275,
			"-0.002": 49.1580079721,
			"-0.001": 53.7036258099,
			"0.0": 42.5259438541,
			"0.001": 30.3473499838,
			"0.002": 42.7349239325,
			"0.003": 60.1375176884,
			"0.004": 23.8567680289,
			"0.005": 4.22526785167,
			"0.006": 4.15811123954,
			"0.007": 2.83049967623,
			"0.008": 2.04548337562,
			"0.009": 1.79845836137,
			"0.01": 1.83969549161,
			"0.011": 0.55266591013,
			"0.012": 0.0,
			"0.013": 0.0,
			"0.014": 0.0,
			"0.015": 0.0,
			"0.016": 0.0,
			"0.017": 0.0,
			"0.018": 0.0,
			"0.019": 0.0,
			"0.02": 0.0,
			"0.021": 0.0,
			"0.022": 0.0,
			"0.023": 0.0,
			"0.024": 0.0,
			"0.025": 0.0
		}
	}
}
