{
	 "smiles": "CCCC(O)C=CC=CC=CC#CC#CCCCO", 
	 "Tm": 327.15, 
	 "num_atms": 41, 
	 "gaussian": { 
		 "optdone": 1, 
		 "sigma_profile": "yes", 
		 "theory": "DFT", 
		 "functional": "B3LYP", 
		 "basiset": "6-31G**", 
		 "properties": { 
			 "R2extent": 19790.0123, 
			 "electric_dipole_moment_norm": 2.53211162076, 
			 "electric_quadrupole_moment_norm": 19.5884576072, 
			 "total_energy": -811.344190629, 
			 "HOMO_LUMO_gap": 0.12371, 
			 "cosmo_polarized_energy": -15.74, 
			 "cosmo_cavitation_energy": 47.56, 
			 "cosmo_dispersion_energy": -33.11, 
			 "cosmo_repulsion_energy": 2.67, 
			 "cosmo_total_nonelectrostatic_energy": 17.13, 
			 "SMD_solvation_energy": 8.48 
		},
		"coords": [
			{
				"x": -5.5886943713,
				"y": -5.0922858719,
				"z": 3.1651841087,
				"element": "C" 
			},
			{
				"x": -5.7352728347,
				"y": -3.6091623634,
				"z": 2.8105196333,
				"element": "C" 
			},
			{
				"x": -4.4345291725,
				"y": -2.988033197,
				"z": 2.2852742546,
				"element": "C" 
			},
			{
				"x": -4.5817478032,
				"y": -1.5174274937,
				"z": 1.8722409773,
				"element": "C" 
			},
			{
				"x": -5.0280192448,
				"y": -0.7008542556,
				"z": 2.9641095675,
				"element": "O" 
			},
			{
				"x": -3.3225144754,
				"y": -0.8616727306,
				"z": 1.3673068224,
				"element": "C" 
			},
			{
				"x": -2.1843108395,
				"y": -1.4730860675,
				"z": 0.9939772372,
				"element": "C" 
			},
			{
				"x": -0.9755463343,
				"y": -0.812880086,
				"z": 0.5117104352,
				"element": "C" 
			},
			{
				"x": -0.6214041689,
				"y": 0.4756863715,
				"z": 0.7405225498,
				"element": "C" 
			},
			{
				"x": 0.5565831337,
				"y": 1.1480948148,
				"z": 0.2279329772,
				"element": "C" 
			},
			{
				"x": 1.3290530441,
				"y": 0.7398729962,
				"z": -0.8148660004,
				"element": "C" 
			},
			{
				"x": 2.4842794396,
				"y": 1.4143512322,
				"z": -1.2528667955,
				"element": "C" 
			},
			{
				"x": 3.4923501082,
				"y": 1.9673133158,
				"z": -1.6714814565,
				"element": "C" 
			},
			{
				"x": 4.6127469501,
				"y": 2.5929578584,
				"z": -2.1263142395,
				"element": "C" 
			},
			{
				"x": 5.61828251,
				"y": 3.147701638,
				"z": -2.5353171847,
				"element": "C" 
			},
			{
				"x": 6.8139952721,
				"y": 3.8352658504,
				"z": -3.0132476472,
				"element": "C" 
			},
			{
				"x": 6.7589648766,
				"y": 5.3688613084,
				"z": -2.8236995335,
				"element": "C" 
			},
			{
				"x": 5.6833148009,
				"y": 6.0347759334,
				"z": -3.6722282403,
				"element": "C" 
			},
			{
				"x": 6.0064255443,
				"y": 5.8078573749,
				"z": -5.0410231169,
				"element": "O" 
			},
			{
				"x": -4.8230338685,
				"y": -5.239788998,
				"z": 3.9348589269,
				"element": "H" 
			},
			{
				"x": -6.5278264066,
				"y": -5.5065601912,
				"z": 3.5458108588,
				"element": "H" 
			},
			{
				"x": -5.2948726316,
				"y": -5.6817823202,
				"z": 2.2893775646,
				"element": "H" 
			},
			{
				"x": -6.0640629584,
				"y": -3.0592848626,
				"z": 3.7018860577,
				"element": "H" 
			},
			{
				"x": -6.528196174,
				"y": -3.4910227047,
				"z": 2.0578738407,
				"element": "H" 
			},
			{
				"x": -3.6537620362,
				"y": -3.059295707,
				"z": 3.0525098606,
				"element": "H" 
			},
			{
				"x": -4.0894300893,
				"y": -3.5664346126,
				"z": 1.418215644,
				"element": "H" 
			},
			{
				"x": -5.3298234287,
				"y": -1.464830692,
				"z": 1.0578988782,
				"element": "H" 
			},
			{
				"x": -5.9543458585,
				"y": -0.914001193,
				"z": 3.131512098,
				"element": "H" 
			},
			{
				"x": -3.4030771524,
				"y": 0.2217209436,
				"z": 1.2978585763,
				"element": "H" 
			},
			{
				"x": -2.1356937851,
				"y": -2.5599038335,
				"z": 1.0251276587,
				"element": "H" 
			},
			{
				"x": -0.2906730891,
				"y": -1.444806799,
				"z": -0.0522390938,
				"element": "H" 
			},
			{
				"x": -1.2509233802,
				"y": 1.0721174187,
				"z": 1.3986159448,
				"element": "H" 
			},
			{
				"x": 0.8333320676,
				"y": 2.076035238,
				"z": 0.72395303,
				"element": "H" 
			},
			{
				"x": 1.0516728742,
				"y": -0.1559131734,
				"z": -1.3703548111,
				"element": "H" 
			},
			{
				"x": 7.6937556255,
				"y": 3.4354855125,
				"z": -2.4918727484,
				"element": "H" 
			},
			{
				"x": 6.9549807,
				"y": 3.6243582419,
				"z": -4.0802061049,
				"element": "H" 
			},
			{
				"x": 7.7336619443,
				"y": 5.7867719974,
				"z": -3.1004415635,
				"element": "H" 
			},
			{
				"x": 6.583269989,
				"y": 5.6087508244,
				"z": -1.7692388714,
				"element": "H" 
			},
			{
				"x": 4.7001855078,
				"y": 5.6109732569,
				"z": -3.4176275048,
				"element": "H" 
			},
			{
				"x": 5.652549423,
				"y": 7.1121952389,
				"z": -3.4444795679,
				"element": "H" 
			},
			{
				"x": 5.2485562922,
				"y": 6.0672797868,
				"z": -5.578273022,
				"element": "H" 
			}
		],
		 "valence_orbital": [ 
			{
				"type": "occ",
				"energy": -0.27033,
				"method": "rhf"
			},
			{
				"type": "occ",
				"energy": -0.26766,
				"method": "rhf"
			},
			{
				"type": "occ",
				"energy": -0.24219,
				"method": "rhf"
			},
			{
				"type": "occ",
				"energy": -0.22819,
				"method": "rhf"
			},
			{
				"type": "occ",
				"energy": -0.19334,
				"method": "rhf"
			},
			{
				"type": "unocc",
				"energy": -0.06963,
				"method": "rhf"
			},
			{
				"type": "unocc",
				"energy": -0.00382,
				"method": "rhf"
			},
			{
				"type": "unocc",
				"energy": 0.00109,
				"method": "rhf"
			},
			{
				"type": "unocc",
				"energy": 0.0507,
				"method": "rhf"
			},
			{
				"type": "unocc",
				"energy": 0.07546,
				"method": "rhf"
			}
		],
		"cosmo_sigma_profile": { 
			"-0.025": 0.0,
			"-0.024": 0.0,
			"-0.023": 0.0,
			"-0.022": 0.0,
			"-0.021": 0.0,
			"-0.02": 0.0,
			"-0.019": 0.0,
			"-0.018": 0.0,
			"-0.017": 0.0,
			"-0.016": 0.226799204576,
			"-0.015": 1.62298239149,
			"-0.014": 1.46049201708,
			"-0.013": 2.14264176815,
			"-0.012": 1.38384886237,
			"-0.011": 1.56613888121,
			"-0.01": 2.2884958362,
			"-0.009": 1.7710628914,
			"-0.008": 2.03101635485,
			"-0.007": 5.27636394594,
			"-0.006": 10.5957771225,
			"-0.005": 18.9432508287,
			"-0.004": 25.0684362057,
			"-0.003": 38.2677389227,
			"-0.002": 41.1366218133,
			"-0.001": 34.0392038076,
			"0.0": 29.4590398068,
			"0.001": 25.2199327033,
			"0.002": 19.2525611692,
			"0.003": 17.2371676609,
			"0.004": 35.7991478008,
			"0.005": 31.8569833024,
			"0.006": 5.88760814501,
			"0.007": 4.03477228457,
			"0.008": 2.14690971053,
			"0.009": 2.41331527875,
			"0.01": 2.7849429684,
			"0.011": 2.02064835228,
			"0.012": 2.85392498442,
			"0.013": 2.70967808424,
			"0.014": 2.80141075687,
			"0.015": 0.637692697844,
			"0.016": 0.0,
			"0.017": 0.0,
			"0.018": 0.0,
			"0.019": 0.0,
			"0.02": 0.0,
			"0.021": 0.0,
			"0.022": 0.0,
			"0.023": 0.0,
			"0.024": 0.0,
			"0.025": 0.0
		}
	}
}
