{
	 "smiles": "CC1=NN(CC#C)C(C)=C1C", 
	 "Tm": 348.15, 
	 "num_atms": 23, 
	 "gaussian": { 
		 "optdone": 1, 
		 "sigma_profile": "yes", 
		 "theory": "DFT", 
		 "functional": "B3LYP", 
		 "basiset": "6-31G**", 
		 "properties": { 
			 "R2extent": 2765.3682, 
			 "electric_dipole_moment_norm": 2.1197984291, 
			 "electric_quadrupole_moment_norm": 8.4600273853, 
			 "total_energy": -459.61274271, 
			 "HOMO_LUMO_gap": 0.24396, 
			 "cosmo_polarized_energy": -8.87, 
			 "cosmo_cavitation_energy": 27.08, 
			 "cosmo_dispersion_energy": -18.6, 
			 "cosmo_repulsion_energy": 1.5, 
			 "cosmo_total_nonelectrostatic_energy": 9.98, 
			 "SMD_solvation_energy": 5.06 
		},
		"coords": [
			{
				"x": 1.6072477564,
				"y": 1.874196206,
				"z": 1.139023165,
				"element": "C" 
			},
			{
				"x": 0.9562093372,
				"y": 0.5274351423,
				"z": 1.0586906956,
				"element": "C" 
			},
			{
				"x": 1.6713429733,
				"y": -0.5531405425,
				"z": 0.7542016087,
				"element": "N" 
			},
			{
				"x": 0.777406493,
				"y": -1.5738085344,
				"z": 0.7564402684,
				"element": "N" 
			},
			{
				"x": 1.253833113,
				"y": -2.9253549107,
				"z": 0.5059473452,
				"element": "C" 
			},
			{
				"x": 1.3051213162,
				"y": -3.7725783897,
				"z": 1.7040509957,
				"element": "C" 
			},
			{
				"x": 1.3350449356,
				"y": -4.4860299457,
				"z": 2.6773232543,
				"element": "C" 
			},
			{
				"x": -0.4915350068,
				"y": -1.1647904207,
				"z": 1.069709375,
				"element": "C" 
			},
			{
				"x": -1.6438453148,
				"y": -2.1156587033,
				"z": 1.1421965442,
				"element": "C" 
			},
			{
				"x": -0.4143884485,
				"y": 0.2056527981,
				"z": 1.2699531159,
				"element": "C" 
			},
			{
				"x": -1.5163766678,
				"y": 1.1592630322,
				"z": 1.6225362415,
				"element": "C" 
			},
			{
				"x": 2.6756031413,
				"y": 1.7831594503,
				"z": 0.9307906259,
				"element": "H" 
			},
			{
				"x": 1.4869846813,
				"y": 2.3207355626,
				"z": 2.1334095474,
				"element": "H" 
			},
			{
				"x": 1.1739717187,
				"y": 2.5764917042,
				"z": 0.4166075783,
				"element": "H" 
			},
			{
				"x": 0.6221235105,
				"y": -3.4019183985,
				"z": -0.2543131878,
				"element": "H" 
			},
			{
				"x": 2.2536759565,
				"y": -2.8105433963,
				"z": 0.0785234637,
				"element": "H" 
			},
			{
				"x": 1.37613548,
				"y": -5.1036846896,
				"z": 3.5446106907,
				"element": "H" 
			},
			{
				"x": -2.5477090731,
				"y": -1.5893719542,
				"z": 1.4565473958,
				"element": "H" 
			},
			{
				"x": -1.8555917565,
				"y": -2.5791074864,
				"z": 0.1702104855,
				"element": "H" 
			},
			{
				"x": -1.4568581832,
				"y": -2.9238816119,
				"z": 1.8578173493,
				"element": "H" 
			},
			{
				"x": -1.6727169811,
				"y": 1.910167493,
				"z": 0.8379455894,
				"element": "H" 
			},
			{
				"x": -2.468683294,
				"y": 0.641367513,
				"z": 1.7696669351,
				"element": "H" 
			},
			{
				"x": -1.2971956871,
				"y": 1.7063000823,
				"z": 2.5476109175,
				"element": "H" 
			}
		],
		 "valence_orbital": [ 
			{
				"type": "occ",
				"energy": -0.28147,
				"method": "rhf"
			},
			{
				"type": "occ",
				"energy": -0.27477,
				"method": "rhf"
			},
			{
				"type": "occ",
				"energy": -0.27131,
				"method": "rhf"
			},
			{
				"type": "occ",
				"energy": -0.22598,
				"method": "rhf"
			},
			{
				"type": "occ",
				"energy": -0.21902,
				"method": "rhf"
			},
			{
				"type": "unocc",
				"energy": 0.02494,
				"method": "rhf"
			},
			{
				"type": "unocc",
				"energy": 0.04321,
				"method": "rhf"
			},
			{
				"type": "unocc",
				"energy": 0.04645,
				"method": "rhf"
			},
			{
				"type": "unocc",
				"energy": 0.08014,
				"method": "rhf"
			},
			{
				"type": "unocc",
				"energy": 0.0878,
				"method": "rhf"
			}
		],
		"cosmo_sigma_profile": { 
			"-0.025": 0.0,
			"-0.024": 0.0,
			"-0.023": 0.0,
			"-0.022": 0.0,
			"-0.021": 0.0,
			"-0.02": 0.0,
			"-0.019": 0.0,
			"-0.018": 0.0,
			"-0.017": 0.0,
			"-0.016": 0.0,
			"-0.015": 0.0,
			"-0.014": 0.0,
			"-0.013": 0.0,
			"-0.012": 0.562406448469,
			"-0.011": 1.29446013963,
			"-0.01": 1.48878690909,
			"-0.009": 0.900780935233,
			"-0.008": 3.51631589593,
			"-0.007": 5.86676625453,
			"-0.006": 6.69284358957,
			"-0.005": 10.5841971829,
			"-0.004": 12.3839038758,
			"-0.003": 19.7442268719,
			"-0.002": 20.3052526659,
			"-0.001": 24.5307977346,
			"0.0": 23.2572519695,
			"0.001": 16.4563704579,
			"0.002": 9.93373760901,
			"0.003": 9.89675102793,
			"0.004": 10.8304330381,
			"0.005": 11.652834992,
			"0.006": 11.4629188042,
			"0.007": 3.14796957196,
			"0.008": 1.70247034414,
			"0.009": 1.71033120185,
			"0.01": 1.23283655643,
			"0.011": 1.225109308,
			"0.012": 0.757263772087,
			"0.013": 1.16647351559,
			"0.014": 0.927615532216,
			"0.015": 1.16476477205,
			"0.016": 0.554440826396,
			"0.017": 0.0300100361848,
			"0.018": 0.0,
			"0.019": 0.0,
			"0.02": 0.0,
			"0.021": 0.0,
			"0.022": 0.0,
			"0.023": 0.0,
			"0.024": 0.0,
			"0.025": 0.0
		}
	}
}
