{
	 "smiles": "CC1=C(C=C(N)C=C1)S(=O)(=O)NC(C)(C)C", 
	 "Tm": 405.15, 
	 "num_atms": 34, 
	 "gaussian": { 
		 "optdone": 1, 
		 "sigma_profile": "yes", 
		 "theory": "DFT", 
		 "functional": "B3LYP", 
		 "basiset": "6-31G**", 
		 "properties": { 
			 "R2extent": 4661.769, 
			 "electric_dipole_moment_norm": 3.67328816594, 
			 "electric_quadrupole_moment_norm": 22.4815540237, 
			 "total_energy": -1088.11165103, 
			 "HOMO_LUMO_gap": 0.18314, 
			 "cosmo_polarized_energy": -16.52, 
			 "cosmo_cavitation_energy": 36.19, 
			 "cosmo_dispersion_energy": -25.27, 
			 "cosmo_repulsion_energy": 1.91, 
			 "cosmo_total_nonelectrostatic_energy": 12.83, 
			 "SMD_solvation_energy": 5.69 
		},
		"coords": [
			{
				"x": -2.3281799556,
				"y": -1.5709842551,
				"z": 0.5181032061,
				"element": "C" 
			},
			{
				"x": -1.7013509982,
				"y": -1.8463286374,
				"z": -0.8268748584,
				"element": "C" 
			},
			{
				"x": -0.9133156171,
				"y": -0.9209670739,
				"z": -1.5398306142,
				"element": "C" 
			},
			{
				"x": -0.3708585145,
				"y": -1.2041543799,
				"z": -2.7923351229,
				"element": "C" 
			},
			{
				"x": -0.5785426105,
				"y": -2.4554528327,
				"z": -3.3920483226,
				"element": "C" 
			},
			{
				"x": 0.0114391021,
				"y": -2.7647241201,
				"z": -4.6179614639,
				"element": "N" 
			},
			{
				"x": -1.3470568021,
				"y": -3.3981606864,
				"z": -2.6932608823,
				"element": "C" 
			},
			{
				"x": -1.8875922925,
				"y": -3.0880680558,
				"z": -1.4486178861,
				"element": "C" 
			},
			{
				"x": -0.6236016975,
				"y": 0.7504328608,
				"z": -0.92527671,
				"element": "S" 
			},
			{
				"x": 0.2391754154,
				"y": 1.4285423562,
				"z": -1.9047546188,
				"element": "O" 
			},
			{
				"x": -1.9098879553,
				"y": 1.3475774801,
				"z": -0.5396981068,
				"element": "O" 
			},
			{
				"x": 0.1798982895,
				"y": 0.514252859,
				"z": 0.5437327433,
				"element": "N" 
			},
			{
				"x": 1.6645822158,
				"y": 0.5740380644,
				"z": 0.7170801897,
				"element": "C" 
			},
			{
				"x": 2.3438419852,
				"y": -0.4130607092,
				"z": -0.2432541584,
				"element": "C" 
			},
			{
				"x": 2.2065254208,
				"y": 2.0014315116,
				"z": 0.5108049878,
				"element": "C" 
			},
			{
				"x": 1.9044683552,
				"y": 0.12668874,
				"z": 2.1700092135,
				"element": "C" 
			},
			{
				"x": -1.5647606439,
				"y": -1.3648776974,
				"z": 1.2751945049,
				"element": "H" 
			},
			{
				"x": -2.9127511853,
				"y": -2.4346887412,
				"z": 0.8455319994,
				"element": "H" 
			},
			{
				"x": -2.9855754076,
				"y": -0.6981083947,
				"z": 0.4800843321,
				"element": "H" 
			},
			{
				"x": 0.2132567037,
				"y": -0.4411175466,
				"z": -3.2954107752,
				"element": "H" 
			},
			{
				"x": 0.2449211869,
				"y": -1.9682094994,
				"z": -5.1948136113,
				"element": "H" 
			},
			{
				"x": -0.4525305592,
				"y": -3.4898762747,
				"z": -5.1475016432,
				"element": "H" 
			},
			{
				"x": -1.5227056349,
				"y": -4.3788372166,
				"z": -3.1285528516,
				"element": "H" 
			},
			{
				"x": -2.4859029003,
				"y": -3.8376076292,
				"z": -0.9370884497,
				"element": "H" 
			},
			{
				"x": -0.3164313976,
				"y": 1.0884141812,
				"z": 1.221997234,
				"element": "H" 
			},
			{
				"x": 1.9355518002,
				"y": -1.4203592383,
				"z": -0.1211024095,
				"element": "H" 
			},
			{
				"x": 2.2196761813,
				"y": -0.107218052,
				"z": -1.2839929695,
				"element": "H" 
			},
			{
				"x": 3.4161773235,
				"y": -0.4475164405,
				"z": -0.0279806709,
				"element": "H" 
			},
			{
				"x": 1.7289916429,
				"y": 2.7008809002,
				"z": 1.2066203926,
				"element": "H" 
			},
			{
				"x": 2.0171703103,
				"y": 2.3450991871,
				"z": -0.5074549306,
				"element": "H" 
			},
			{
				"x": 3.2855212925,
				"y": 2.0291248918,
				"z": 0.6978891685,
				"element": "H" 
			},
			{
				"x": 1.53287884,
				"y": -0.8889502256,
				"z": 2.3326943044,
				"element": "H" 
			},
			{
				"x": 1.4018231843,
				"y": 0.7951966323,
				"z": 2.8788948542,
				"element": "H" 
			},
			{
				"x": 2.9747449227,
				"y": 0.1485880421,
				"z": 2.3974739255,
				"element": "H" 
			}
		],
		 "valence_orbital": [ 
			{
				"type": "occ",
				"energy": -0.29439,
				"method": "rhf"
			},
			{
				"type": "occ",
				"energy": -0.2922,
				"method": "rhf"
			},
			{
				"type": "occ",
				"energy": -0.27056,
				"method": "rhf"
			},
			{
				"type": "occ",
				"energy": -0.25045,
				"method": "rhf"
			},
			{
				"type": "occ",
				"energy": -0.20836,
				"method": "rhf"
			},
			{
				"type": "unocc",
				"energy": -0.02522,
				"method": "rhf"
			},
			{
				"type": "unocc",
				"energy": 0.00563,
				"method": "rhf"
			},
			{
				"type": "unocc",
				"energy": 0.06038,
				"method": "rhf"
			},
			{
				"type": "unocc",
				"energy": 0.07355,
				"method": "rhf"
			},
			{
				"type": "unocc",
				"energy": 0.0769,
				"method": "rhf"
			}
		],
		"cosmo_sigma_profile": { 
			"-0.025": 0.0,
			"-0.024": 0.0,
			"-0.023": 0.0,
			"-0.022": 0.0,
			"-0.021": 0.0,
			"-0.02": 0.0,
			"-0.019": 0.0,
			"-0.018": 0.0,
			"-0.017": 0.0,
			"-0.016": 0.0,
			"-0.015": 0.0,
			"-0.014": 0.0,
			"-0.013": 1.17849639419,
			"-0.012": 4.01559680383,
			"-0.011": 4.18478439076,
			"-0.01": 4.18773142032,
			"-0.009": 4.4809966673,
			"-0.008": 4.30693585971,
			"-0.007": 4.92104952199,
			"-0.006": 6.93296618989,
			"-0.005": 9.43190466672,
			"-0.004": 17.0212612036,
			"-0.003": 20.339551693,
			"-0.002": 24.167397092,
			"-0.001": 26.3835627655,
			"0.0": 36.357549287,
			"0.001": 26.9227231571,
			"0.002": 13.976977904,
			"0.003": 12.8893142138,
			"0.004": 15.1980306718,
			"0.005": 10.4274054601,
			"0.006": 4.3267866251,
			"0.007": 3.44126819138,
			"0.008": 3.20613018296,
			"0.009": 4.66188584788,
			"0.01": 5.66105171174,
			"0.011": 6.78796233246,
			"0.012": 6.30697803591,
			"0.013": 0.874436274874,
			"0.014": 0.522216840074,
			"0.015": 0.0439764750231,
			"0.016": 0.0,
			"0.017": 0.0,
			"0.018": 0.0,
			"0.019": 0.0,
			"0.02": 0.0,
			"0.021": 0.0,
			"0.022": 0.0,
			"0.023": 0.0,
			"0.024": 0.0,
			"0.025": 0.0
		}
	}
}
