{
	 "smiles": "ClC1=CC=C(OCC2=CC=CC=C2)C=C1", 
	 "Tm": 344.15, 
	 "num_atms": 26, 
	 "gaussian": { 
		 "optdone": 1, 
		 "sigma_profile": "yes", 
		 "theory": "DFT", 
		 "functional": "B3LYP", 
		 "basiset": "6-31G**", 
		 "properties": { 
			 "R2extent": 7405.337, 
			 "electric_dipole_moment_norm": 3.27600062729, 
			 "electric_quadrupole_moment_norm": 13.612084689, 
			 "total_energy": -1037.42095545, 
			 "HOMO_LUMO_gap": 0.20321, 
			 "cosmo_polarized_energy": -8.1, 
			 "cosmo_cavitation_energy": 32.34, 
			 "cosmo_dispersion_energy": -23.68, 
			 "cosmo_repulsion_energy": 1.85, 
			 "cosmo_total_nonelectrostatic_energy": 10.52, 
			 "SMD_solvation_energy": 5.23 
		},
		"coords": [
			{
				"x": -2.1444063751,
				"y": -2.5877002792,
				"z": -6.2995985448,
				"element": "Cl" 
			},
			{
				"x": -1.7045979111,
				"y": -2.0183494517,
				"z": -4.6925221366,
				"element": "C" 
			},
			{
				"x": -2.5141648275,
				"y": -2.3266277393,
				"z": -3.6051518233,
				"element": "C" 
			},
			{
				"x": -2.1676554748,
				"y": -1.8758382717,
				"z": -2.3275756089,
				"element": "C" 
			},
			{
				"x": -1.0059599224,
				"y": -1.1149720472,
				"z": -2.146475536,
				"element": "C" 
			},
			{
				"x": -0.5724523252,
				"y": -0.6245296187,
				"z": -0.9501234143,
				"element": "O" 
			},
			{
				"x": -1.3523768342,
				"y": -0.8983574249,
				"z": 0.2211593708,
				"element": "C" 
			},
			{
				"x": -0.6721012671,
				"y": -0.2561196392,
				"z": 1.4018091075,
				"element": "C" 
			},
			{
				"x": -0.9745800073,
				"y": 1.061512907,
				"z": 1.7649127351,
				"element": "C" 
			},
			{
				"x": -0.3286880358,
				"y": 1.6659384831,
				"z": 2.8436553187,
				"element": "C" 
			},
			{
				"x": 0.6293155892,
				"y": 0.9559581477,
				"z": 3.57035845,
				"element": "C" 
			},
			{
				"x": 0.9389773655,
				"y": -0.3582998631,
				"z": 3.2143039395,
				"element": "C" 
			},
			{
				"x": 0.2909502617,
				"y": -0.9593403005,
				"z": 2.1349513325,
				"element": "C" 
			},
			{
				"x": -0.198331055,
				"y": -0.8116289479,
				"z": -3.2541195448,
				"element": "C" 
			},
			{
				"x": -0.5432072044,
				"y": -1.2597361306,
				"z": -4.5227766623,
				"element": "C" 
			},
			{
				"x": -3.4134888197,
				"y": -2.9159594069,
				"z": -3.7471189255,
				"element": "H" 
			},
			{
				"x": -2.8107476893,
				"y": -2.1259029903,
				"z": -1.4926314863,
				"element": "H" 
			},
			{
				"x": -2.3660318066,
				"y": -0.4953605027,
				"z": 0.0916155142,
				"element": "H" 
			},
			{
				"x": -1.4336197527,
				"y": -1.984436133,
				"z": 0.3643899571,
				"element": "H" 
			},
			{
				"x": -1.7196013607,
				"y": 1.6148575,
				"z": 1.1987317496,
				"element": "H" 
			},
			{
				"x": -0.573854639,
				"y": 2.6878735481,
				"z": 3.1181250627,
				"element": "H" 
			},
			{
				"x": 1.1306365592,
				"y": 1.4241325205,
				"z": 4.4126341267,
				"element": "H" 
			},
			{
				"x": 1.6823023191,
				"y": -0.9148299628,
				"z": 3.7778049346,
				"element": "H" 
			},
			{
				"x": 0.5329828688,
				"y": -1.9821756144,
				"z": 1.857402788,
				"element": "H" 
			},
			{
				"x": 0.6978277452,
				"y": -0.2211599808,
				"z": -3.0952781306,
				"element": "H" 
			},
			{
				"x": 0.0820725994,
				"y": -1.0242488014,
				"z": -5.3769825735,
				"element": "H" 
			}
		],
		 "valence_orbital": [ 
			{
				"type": "occ",
				"energy": -0.30146,
				"method": "rhf"
			},
			{
				"type": "occ",
				"energy": -0.26121,
				"method": "rhf"
			},
			{
				"type": "occ",
				"energy": -0.257,
				"method": "rhf"
			},
			{
				"type": "occ",
				"energy": -0.25619,
				"method": "rhf"
			},
			{
				"type": "occ",
				"energy": -0.21871,
				"method": "rhf"
			},
			{
				"type": "unocc",
				"energy": -0.0155,
				"method": "rhf"
			},
			{
				"type": "unocc",
				"energy": -0.01165,
				"method": "rhf"
			},
			{
				"type": "unocc",
				"energy": -0.00845,
				"method": "rhf"
			},
			{
				"type": "unocc",
				"energy": 0.00462,
				"method": "rhf"
			},
			{
				"type": "unocc",
				"energy": 0.03502,
				"method": "rhf"
			}
		],
		"cosmo_sigma_profile": { 
			"-0.025": 0.0,
			"-0.024": 0.0,
			"-0.023": 0.0,
			"-0.022": 0.0,
			"-0.021": 0.0,
			"-0.02": 0.0,
			"-0.019": 0.0,
			"-0.018": 0.0,
			"-0.017": 0.0,
			"-0.016": 0.0,
			"-0.015": 0.0,
			"-0.014": 0.0,
			"-0.013": 0.0,
			"-0.012": 0.0,
			"-0.011": 0.0,
			"-0.01": 0.0,
			"-0.009": 0.0,
			"-0.008": 0.20686161213,
			"-0.007": 6.23900916163,
			"-0.006": 19.5836857489,
			"-0.005": 25.7230921834,
			"-0.004": 20.6222973058,
			"-0.003": 17.4250181445,
			"-0.002": 13.5608391473,
			"-0.001": 14.3744374736,
			"0.0": 14.4967124067,
			"0.001": 15.5451309118,
			"0.002": 21.7141657301,
			"0.003": 26.7613444569,
			"0.004": 28.1204519504,
			"0.005": 22.2624366117,
			"0.006": 8.23017422995,
			"0.007": 1.94566978608,
			"0.008": 1.56811850818,
			"0.009": 1.73873537083,
			"0.01": 1.07863113217,
			"0.011": 0.0435863499667,
			"0.012": 0.0,
			"0.013": 0.0,
			"0.014": 0.0,
			"0.015": 0.0,
			"0.016": 0.0,
			"0.017": 0.0,
			"0.018": 0.0,
			"0.019": 0.0,
			"0.02": 0.0,
			"0.021": 0.0,
			"0.022": 0.0,
			"0.023": 0.0,
			"0.024": 0.0,
			"0.025": 0.0
		}
	}
}
