{
	 "smiles": "CC1=C(C)C2=C(NC=N2)C=C1", 
	 "Tm": 443.15, 
	 "num_atms": 21, 
	 "gaussian": { 
		 "optdone": 1, 
		 "sigma_profile": "yes", 
		 "theory": "DFT", 
		 "functional": "B3LYP", 
		 "basiset": "6-31G**", 
		 "properties": { 
			 "R2extent": 1819.9534, 
			 "electric_dipole_moment_norm": 2.85358403766, 
			 "electric_quadrupole_moment_norm": 12.6059865445, 
			 "total_energy": -458.508694947, 
			 "HOMO_LUMO_gap": 0.20256, 
			 "cosmo_polarized_energy": -11.8, 
			 "cosmo_cavitation_energy": 23.87, 
			 "cosmo_dispersion_energy": -17.96, 
			 "cosmo_repulsion_energy": 1.42, 
			 "cosmo_total_nonelectrostatic_energy": 7.33, 
			 "SMD_solvation_energy": 2.76 
		},
		"coords": [
			{
				"x": 1.1284132178,
				"y": -1.6646700256,
				"z": 1.944941907,
				"element": "C" 
			},
			{
				"x": 0.3744537042,
				"y": -0.9303129845,
				"z": 0.8589405924,
				"element": "C" 
			},
			{
				"x": 0.7963841148,
				"y": -1.0192985406,
				"z": -0.4778091513,
				"element": "C" 
			},
			{
				"x": 1.9939437127,
				"y": -1.8303268647,
				"z": -0.9003596973,
				"element": "C" 
			},
			{
				"x": 0.049899387,
				"y": -0.3114539471,
				"z": -1.4364123811,
				"element": "C" 
			},
			{
				"x": -1.0778429904,
				"y": 0.455704491,
				"z": -1.0603541297,
				"element": "C" 
			},
			{
				"x": -1.5438509354,
				"y": 0.9953881406,
				"z": -2.2493126383,
				"element": "N" 
			},
			{
				"x": -0.7065661881,
				"y": 0.5446083349,
				"z": -3.2449417746,
				"element": "C" 
			},
			{
				"x": 0.2514392694,
				"y": -0.231930037,
				"z": -2.8116374797,
				"element": "N" 
			},
			{
				"x": -1.5041924211,
				"y": 0.550020359,
				"z": 0.2632750613,
				"element": "C" 
			},
			{
				"x": -0.7564125743,
				"y": -0.1553600113,
				"z": 1.2016941489,
				"element": "C" 
			},
			{
				"x": 0.6755244779,
				"y": -1.4942151356,
				"z": 2.925459643,
				"element": "H" 
			},
			{
				"x": 2.1756111598,
				"y": -1.3429281548,
				"z": 2.0021639464,
				"element": "H" 
			},
			{
				"x": 1.142948063,
				"y": -2.7474296314,
				"z": 1.7693441196,
				"element": "H" 
			},
			{
				"x": 2.9091607966,
				"y": -1.4834613945,
				"z": -0.405052999,
				"element": "H" 
			},
			{
				"x": 1.8751677388,
				"y": -2.8888133759,
				"z": -0.63809152,
				"element": "H" 
			},
			{
				"x": 2.1386499412,
				"y": -1.757838202,
				"z": -1.9796209068,
				"element": "H" 
			},
			{
				"x": -2.3408635317,
				"y": 1.6009100114,
				"z": -2.36608004,
				"element": "H" 
			},
			{
				"x": -0.8593498981,
				"y": 0.8282657928,
				"z": -4.278660766,
				"element": "H" 
			},
			{
				"x": -2.3689541238,
				"y": 1.1375136514,
				"z": 0.5561850012,
				"element": "H" 
			},
			{
				"x": -1.0523629205,
				"y": -0.1107724763,
				"z": 2.246629064,
				"element": "H" 
			}
		],
		 "valence_orbital": [ 
			{
				"type": "occ",
				"energy": -0.32058,
				"method": "rhf"
			},
			{
				"type": "occ",
				"energy": -0.2955,
				"method": "rhf"
			},
			{
				"type": "occ",
				"energy": -0.26571,
				"method": "rhf"
			},
			{
				"type": "occ",
				"energy": -0.2179,
				"method": "rhf"
			},
			{
				"type": "occ",
				"energy": -0.21047,
				"method": "rhf"
			},
			{
				"type": "unocc",
				"energy": -0.00791,
				"method": "rhf"
			},
			{
				"type": "unocc",
				"energy": 0.02882,
				"method": "rhf"
			},
			{
				"type": "unocc",
				"energy": 0.0605,
				"method": "rhf"
			},
			{
				"type": "unocc",
				"energy": 0.07792,
				"method": "rhf"
			},
			{
				"type": "unocc",
				"energy": 0.10443,
				"method": "rhf"
			}
		],
		"cosmo_sigma_profile": { 
			"-0.025": 0.0,
			"-0.024": 0.0,
			"-0.023": 0.0,
			"-0.022": 0.0,
			"-0.021": 0.0,
			"-0.02": 0.0,
			"-0.019": 0.0,
			"-0.018": 0.0,
			"-0.017": 0.194391551751,
			"-0.016": 1.6706093839,
			"-0.015": 1.29764394632,
			"-0.014": 1.93687779187,
			"-0.013": 0.678272908476,
			"-0.012": 0.997694018299,
			"-0.011": 1.76878253241,
			"-0.01": 1.56208853485,
			"-0.009": 3.08153084146,
			"-0.008": 2.8347317464,
			"-0.007": 3.24889087173,
			"-0.006": 4.43874674761,
			"-0.005": 4.73249028539,
			"-0.004": 10.9927098116,
			"-0.003": 16.6342484936,
			"-0.002": 13.9139183805,
			"-0.001": 14.9918656908,
			"0.0": 20.2551986733,
			"0.001": 15.5690526629,
			"0.002": 12.0307100663,
			"0.003": 10.3299376169,
			"0.004": 9.4640305809,
			"0.005": 10.6251008331,
			"0.006": 9.23136752921,
			"0.007": 4.9750801036,
			"0.008": 1.67692242945,
			"0.009": 1.86669164908,
			"0.01": 2.02689229697,
			"0.011": 1.02057689764,
			"0.012": 1.19702206419,
			"0.013": 0.787497955535,
			"0.014": 0.759553203273,
			"0.015": 1.42625350122,
			"0.016": 0.908472216785,
			"0.017": 0.390900008701,
			"0.018": 0.0,
			"0.019": 0.0,
			"0.02": 0.0,
			"0.021": 0.0,
			"0.022": 0.0,
			"0.023": 0.0,
			"0.024": 0.0,
			"0.025": 0.0
		}
	}
}
