{
	 "smiles": "BrC1=C(CN2CCC(=O)CC2)C=CC=C1", 
	 "Tm": 350.15, 
	 "num_atms": 29, 
	 "gaussian": { 
		 "optdone": 1, 
		 "sigma_profile": "yes", 
		 "theory": "DFT", 
		 "functional": "B3LYP", 
		 "basiset": "6-31G**", 
		 "properties": { 
			 "R2extent": 8768.9075, 
			 "electric_dipole_moment_norm": 2.67982273481, 
			 "electric_quadrupole_moment_norm": 17.1000037079, 
			 "total_energy": -3167.0878366, 
			 "HOMO_LUMO_gap": 0.21231, 
			 "cosmo_polarized_energy": -9.67, 
			 "cosmo_cavitation_energy": 33.18, 
			 "cosmo_dispersion_energy": -24.09, 
			 "cosmo_repulsion_energy": 1.9, 
			 "cosmo_total_nonelectrostatic_energy": 10.98, 
			 "SMD_solvation_energy": 3.62 
		},
		"coords": [
			{
				"x": -4.7969183883,
				"y": 0.596806675,
				"z": -2.388870186,
				"element": "Br" 
			},
			{
				"x": -2.9251258881,
				"y": 0.3613323138,
				"z": -2.7611937446,
				"element": "C" 
			},
			{
				"x": -1.9623146333,
				"y": 0.5943558881,
				"z": -1.7700420391,
				"element": "C" 
			},
			{
				"x": -2.3267651167,
				"y": 1.0243470536,
				"z": -0.357924301,
				"element": "C" 
			},
			{
				"x": -1.2321895707,
				"y": 1.6969825287,
				"z": 0.3426277315,
				"element": "N" 
			},
			{
				"x": -1.4015720951,
				"y": 1.6611737223,
				"z": 1.7965125377,
				"element": "C" 
			},
			{
				"x": -0.1452385034,
				"y": 2.1974896059,
				"z": 2.5031869087,
				"element": "C" 
			},
			{
				"x": 0.2518556756,
				"y": 3.5717413251,
				"z": 1.9842560905,
				"element": "C" 
			},
			{
				"x": 0.5773201488,
				"y": 4.4848026082,
				"z": 2.7178654044,
				"element": "O" 
			},
			{
				"x": 0.2171728602,
				"y": 3.7002392012,
				"z": 0.4688317035,
				"element": "C" 
			},
			{
				"x": -1.056313426,
				"y": 3.0762144756,
				"z": -0.1241083392,
				"element": "C" 
			},
			{
				"x": -0.6229282719,
				"y": 0.3656341941,
				"z": -2.1179416626,
				"element": "C" 
			},
			{
				"x": -0.2591161507,
				"y": -0.0588884082,
				"z": -3.3942961332,
				"element": "C" 
			},
			{
				"x": -1.2403037925,
				"y": -0.2725798701,
				"z": -4.3627478742,
				"element": "C" 
			},
			{
				"x": -2.5813906959,
				"y": -0.0650706887,
				"z": -4.0438530608,
				"element": "C" 
			},
			{
				"x": -3.2377533899,
				"y": 1.644632331,
				"z": -0.3869031653,
				"element": "H" 
			},
			{
				"x": -2.5946264735,
				"y": 0.1274649637,
				"z": 0.2156464208,
				"element": "H" 
			},
			{
				"x": -2.2822119875,
				"y": 2.2502405719,
				"z": 2.1198111662,
				"element": "H" 
			},
			{
				"x": -1.5801509494,
				"y": 0.625650972,
				"z": 2.1043229522,
				"element": "H" 
			},
			{
				"x": 0.6882759353,
				"y": 1.5125369571,
				"z": 2.2965087686,
				"element": "H" 
			},
			{
				"x": -0.2858284321,
				"y": 2.2521593326,
				"z": 3.5857015261,
				"element": "H" 
			},
			{
				"x": 1.0894793287,
				"y": 3.1645043341,
				"z": 0.0701728122,
				"element": "H" 
			},
			{
				"x": 0.3106316793,
				"y": 4.7550226097,
				"z": 0.1981374336,
				"element": "H" 
			},
			{
				"x": -1.931846371,
				"y": 3.6993642556,
				"z": 0.1442588882,
				"element": "H" 
			},
			{
				"x": -0.9904656798,
				"y": 3.0716621878,
				"z": -1.2157534587,
				"element": "H" 
			},
			{
				"x": 0.1268728248,
				"y": 0.5346530157,
				"z": -1.3519202355,
				"element": "H" 
			},
			{
				"x": 0.7879469854,
				"y": -0.2240442513,
				"z": -3.6304889935,
				"element": "H" 
			},
			{
				"x": -0.9706364346,
				"y": -0.60152084,
				"z": -5.3618607699,
				"element": "H" 
			},
			{
				"x": -3.3593591878,
				"y": -0.2309070645,
				"z": -4.7803363806,
				"element": "H" 
			}
		],
		 "valence_orbital": [ 
			{
				"type": "occ",
				"energy": -0.2905,
				"method": "rhf"
			},
			{
				"type": "occ",
				"energy": -0.25823,
				"method": "rhf"
			},
			{
				"type": "occ",
				"energy": -0.24422,
				"method": "rhf"
			},
			{
				"type": "occ",
				"energy": -0.24045,
				"method": "rhf"
			},
			{
				"type": "occ",
				"energy": -0.232,
				"method": "rhf"
			},
			{
				"type": "unocc",
				"energy": -0.01969,
				"method": "rhf"
			},
			{
				"type": "unocc",
				"energy": -0.0146,
				"method": "rhf"
			},
			{
				"type": "unocc",
				"energy": -0.01385,
				"method": "rhf"
			},
			{
				"type": "unocc",
				"energy": 0.00493,
				"method": "rhf"
			},
			{
				"type": "unocc",
				"energy": 0.08759,
				"method": "rhf"
			}
		],
		"cosmo_sigma_profile": { 
			"-0.025": 0.0,
			"-0.024": 0.0,
			"-0.023": 0.0,
			"-0.022": 0.0,
			"-0.021": 0.0,
			"-0.02": 0.0,
			"-0.019": 0.0,
			"-0.018": 0.0,
			"-0.017": 0.0,
			"-0.016": 0.0,
			"-0.015": 0.0,
			"-0.014": 0.0,
			"-0.013": 0.0,
			"-0.012": 0.0,
			"-0.011": 0.0,
			"-0.01": 0.0,
			"-0.009": 0.0,
			"-0.008": 0.0,
			"-0.007": 1.43828070155,
			"-0.006": 11.7406476747,
			"-0.005": 18.3414130756,
			"-0.004": 25.0253926784,
			"-0.003": 35.5220441154,
			"-0.002": 30.4836499537,
			"-0.001": 22.9485938482,
			"0.0": 14.0417388046,
			"0.001": 14.3084152043,
			"0.002": 18.2209422805,
			"0.003": 19.0121622136,
			"0.004": 19.3245839168,
			"0.005": 13.1315753057,
			"0.006": 2.87126706575,
			"0.007": 2.2320769327,
			"0.008": 1.29729338322,
			"0.009": 1.8675600135,
			"0.01": 2.25131767099,
			"0.011": 3.08180966743,
			"0.012": 4.42991820712,
			"0.013": 2.94751706526,
			"0.014": 0.325167718887,
			"0.015": 0.0,
			"0.016": 0.0,
			"0.017": 0.0,
			"0.018": 0.0,
			"0.019": 0.0,
			"0.02": 0.0,
			"0.021": 0.0,
			"0.022": 0.0,
			"0.023": 0.0,
			"0.024": 0.0,
			"0.025": 0.0
		}
	}
}
