{
	 "smiles": "CCOC1=C(C=CC=C1)C(N)=S", 
	 "Tm": 389.15, 
	 "num_atms": 23, 
	 "gaussian": { 
		 "optdone": 1, 
		 "sigma_profile": "yes", 
		 "theory": "DFT", 
		 "functional": "B3LYP", 
		 "basiset": "6-31G**", 
		 "properties": { 
			 "R2extent": 2951.9643, 
			 "electric_dipole_moment_norm": 5.19921740072, 
			 "electric_quadrupole_moment_norm": 14.8362272634, 
			 "total_energy": -877.754650521, 
			 "HOMO_LUMO_gap": 0.14444, 
			 "cosmo_polarized_energy": -13.67, 
			 "cosmo_cavitation_energy": 28.02, 
			 "cosmo_dispersion_energy": -20.55, 
			 "cosmo_repulsion_energy": 1.61, 
			 "cosmo_total_nonelectrostatic_energy": 9.08, 
			 "SMD_solvation_energy": 4.05 
		},
		"coords": [
			{
				"x": 0.644906517,
				"y": -2.878167886,
				"z": -0.6183731503,
				"element": "C" 
			},
			{
				"x": -0.0657726533,
				"y": -1.5386000749,
				"z": -0.6615159158,
				"element": "C" 
			},
			{
				"x": -0.3836078321,
				"y": -1.1545700147,
				"z": 0.6945568079,
				"element": "O" 
			},
			{
				"x": -1.1237125339,
				"y": 0.0150259105,
				"z": 0.8093764285,
				"element": "C" 
			},
			{
				"x": -0.5138485074,
				"y": 1.2466567877,
				"z": 1.1444580929,
				"element": "C" 
			},
			{
				"x": -1.3568676996,
				"y": 2.3669233516,
				"z": 1.2666827164,
				"element": "C" 
			},
			{
				"x": -2.7295497837,
				"y": 2.2803174572,
				"z": 1.068308961,
				"element": "C" 
			},
			{
				"x": -3.3098118528,
				"y": 1.0536106328,
				"z": 0.737296145,
				"element": "C" 
			},
			{
				"x": -2.5031400021,
				"y": -0.0730646246,
				"z": 0.6070521939,
				"element": "C" 
			},
			{
				"x": 0.9538356256,
				"y": 1.4255269398,
				"z": 1.3915227552,
				"element": "C" 
			},
			{
				"x": 1.6503064214,
				"y": 0.3099547755,
				"z": 1.6762129307,
				"element": "N" 
			},
			{
				"x": 1.7135759854,
				"y": 2.9197027617,
				"z": 1.3425724509,
				"element": "S" 
			},
			{
				"x": 1.5812889463,
				"y": -2.808766414,
				"z": -0.0563800432,
				"element": "H" 
			},
			{
				"x": 0.0138157582,
				"y": -3.6358706936,
				"z": -0.1456137256,
				"element": "H" 
			},
			{
				"x": 0.8822280833,
				"y": -3.2072675056,
				"z": -1.6346042687,
				"element": "H" 
			},
			{
				"x": -0.9948943461,
				"y": -1.6020305166,
				"z": -1.2415728417,
				"element": "H" 
			},
			{
				"x": 0.5648855354,
				"y": -0.7641208192,
				"z": -1.1177663623,
				"element": "H" 
			},
			{
				"x": -0.8922453231,
				"y": 3.3129914303,
				"z": 1.5213360595,
				"element": "H" 
			},
			{
				"x": -3.34611247,
				"y": 3.1670021257,
				"z": 1.1778853767,
				"element": "H" 
			},
			{
				"x": -4.3824419836,
				"y": 0.972196759,
				"z": 0.5876294419,
				"element": "H" 
			},
			{
				"x": -2.9268357624,
				"y": -1.0426287176,
				"z": 0.3642628122,
				"element": "H" 
			},
			{
				"x": 1.2016832384,
				"y": -0.5973383176,
				"z": 1.6438434364,
				"element": "H" 
			},
			{
				"x": 2.640914639,
				"y": 0.4027166526,
				"z": 1.8441296984,
				"element": "H" 
			}
		],
		 "valence_orbital": [ 
			{
				"type": "occ",
				"energy": -0.29246,
				"method": "rhf"
			},
			{
				"type": "occ",
				"energy": -0.26445,
				"method": "rhf"
			},
			{
				"type": "occ",
				"energy": -0.25225,
				"method": "rhf"
			},
			{
				"type": "occ",
				"energy": -0.21807,
				"method": "rhf"
			},
			{
				"type": "occ",
				"energy": -0.20162,
				"method": "rhf"
			},
			{
				"type": "unocc",
				"energy": -0.05718,
				"method": "rhf"
			},
			{
				"type": "unocc",
				"energy": -0.01022,
				"method": "rhf"
			},
			{
				"type": "unocc",
				"energy": 0.02824,
				"method": "rhf"
			},
			{
				"type": "unocc",
				"energy": 0.07905,
				"method": "rhf"
			},
			{
				"type": "unocc",
				"energy": 0.08564,
				"method": "rhf"
			}
		],
		"cosmo_sigma_profile": { 
			"-0.025": 0.0,
			"-0.024": 0.0,
			"-0.023": 0.0,
			"-0.022": 0.0,
			"-0.021": 0.0,
			"-0.02": 0.0,
			"-0.019": 0.0,
			"-0.018": 0.0,
			"-0.017": 0.0,
			"-0.016": 0.0,
			"-0.015": 0.167849444596,
			"-0.014": 1.10529462114,
			"-0.013": 0.824317340885,
			"-0.012": 0.967676962827,
			"-0.011": 1.38837944352,
			"-0.01": 2.07790475223,
			"-0.009": 1.6345860696,
			"-0.008": 1.54891777676,
			"-0.007": 4.24840285003,
			"-0.006": 9.07349264021,
			"-0.005": 15.7652516542,
			"-0.004": 23.1805558903,
			"-0.003": 20.7545640741,
			"-0.002": 17.5848964883,
			"-0.001": 14.680037274,
			"0.0": 16.3826818903,
			"0.001": 12.0023509227,
			"0.002": 13.6854442338,
			"0.003": 14.7965707108,
			"0.004": 12.2575313869,
			"0.005": 5.6143110822,
			"0.006": 4.86939291255,
			"0.007": 5.23832923172,
			"0.008": 5.20255784554,
			"0.009": 8.07593172416,
			"0.01": 6.1674086957,
			"0.011": 3.91672959835,
			"0.012": 1.87968160154,
			"0.013": 0.0735491829995,
			"0.014": 0.0,
			"0.015": 0.0,
			"0.016": 0.0,
			"0.017": 0.0,
			"0.018": 0.0,
			"0.019": 0.0,
			"0.02": 0.0,
			"0.021": 0.0,
			"0.022": 0.0,
			"0.023": 0.0,
			"0.024": 0.0,
			"0.025": 0.0
		}
	}
}
