{
	 "smiles": "CC12CCC3C4(CC[C@H]5CC(=O)CCC35C)OC14CCC2=O", 
	 "Tm": 445.15, 
	 "num_atms": 48, 
	 "gaussian": { 
		 "optdone": 1, 
		 "sigma_profile": "yes", 
		 "theory": "DFT", 
		 "functional": "B3LYP", 
		 "basiset": "6-31G**", 
		 "properties": { 
			 "R2extent": 7191.4613, 
			 "electric_dipole_moment_norm": 3.05505919746, 
			 "electric_quadrupole_moment_norm": 31.9199300566, 
			 "total_energy": -965.346539887, 
			 "HOMO_LUMO_gap": 0.21611, 
			 "cosmo_polarized_energy": -16.85, 
			 "cosmo_cavitation_energy": 42.21, 
			 "cosmo_dispersion_energy": -29.85, 
			 "cosmo_repulsion_energy": 2.18, 
			 "cosmo_total_nonelectrostatic_energy": 14.54, 
			 "SMD_solvation_energy": 6.7 
		},
		"coords": [
			{
				"x": 0.2462161575,
				"y": 2.5801643837,
				"z": -2.2800352281,
				"element": "C" 
			},
			{
				"x": -0.8482577024,
				"y": 1.5048410921,
				"z": -2.4964412994,
				"element": "C" 
			},
			{
				"x": -2.0666973213,
				"y": 1.7209067742,
				"z": -1.5918409168,
				"element": "C" 
			},
			{
				"x": -1.7132832538,
				"y": 1.4383621551,
				"z": -0.1173954565,
				"element": "C" 
			},
			{
				"x": -1.0295273893,
				"y": 0.0690316243,
				"z": 0.1980535502,
				"element": "C" 
			},
			{
				"x": -0.4091020472,
				"y": -0.6333025713,
				"z": -1.0300094397,
				"element": "C" 
			},
			{
				"x": 0.3921019882,
				"y": -1.8995879918,
				"z": -0.7424113981,
				"element": "C" 
			},
			{
				"x": 1.2923900987,
				"y": -1.8219065504,
				"z": 0.4939377019,
				"element": "C" 
			},
			{
				"x": 0.512967512,
				"y": -1.2805657551,
				"z": 1.6982711867,
				"element": "C" 
			},
			{
				"x": 1.3390297646,
				"y": -1.3774279782,
				"z": 2.9999046502,
				"element": "C" 
			},
			{
				"x": 0.6104071366,
				"y": -0.8121698876,
				"z": 4.2102312009,
				"element": "C" 
			},
			{
				"x": 0.5635799161,
				"y": -1.3989049235,
				"z": 5.2748350325,
				"element": "O" 
			},
			{
				"x": -0.0490190629,
				"y": 0.5401604995,
				"z": 3.9901006153,
				"element": "C" 
			},
			{
				"x": -0.8544298478,
				"y": 0.5882442681,
				"z": 2.6760647501,
				"element": "C" 
			},
			{
				"x": -0.048095237,
				"y": 0.1504330604,
				"z": 1.4253576552,
				"element": "C" 
			},
			{
				"x": 1.1039054417,
				"y": 1.1486310662,
				"z": 1.1619561982,
				"element": "C" 
			},
			{
				"x": -1.3878396242,
				"y": -0.8680100223,
				"z": -2.0703965746,
				"element": "O" 
			},
			{
				"x": -0.3246956576,
				"y": 0.0784857762,
				"z": -2.3254303025,
				"element": "C" 
			},
			{
				"x": 0.5045487153,
				"y": -0.2528501773,
				"z": -3.560763041,
				"element": "C" 
			},
			{
				"x": -0.3187149144,
				"y": 0.4156426559,
				"z": -4.6882383028,
				"element": "C" 
			},
			{
				"x": -1.1454408159,
				"y": 1.5219575468,
				"z": -4.0074826056,
				"element": "C" 
			},
			{
				"x": -1.8936837878,
				"y": 2.2891946109,
				"z": -4.5712152344,
				"element": "O" 
			},
			{
				"x": 1.109995373,
				"y": 2.4298941863,
				"z": -2.9356679044,
				"element": "H" 
			},
			{
				"x": -0.1687209441,
				"y": 3.5675257131,
				"z": -2.503877979,
				"element": "H" 
			},
			{
				"x": 0.6119355377,
				"y": 2.5825712822,
				"z": -1.2514170329,
				"element": "H" 
			},
			{
				"x": -2.4262235841,
				"y": 2.7504366069,
				"z": -1.690943515,
				"element": "H" 
			},
			{
				"x": -2.8734182685,
				"y": 1.0632554277,
				"z": -1.9224146821,
				"element": "H" 
			},
			{
				"x": -2.6282124758,
				"y": 1.5166986829,
				"z": 0.4787967182,
				"element": "H" 
			},
			{
				"x": -1.0698010603,
				"y": 2.2512004139,
				"z": 0.2309101259,
				"element": "H" 
			},
			{
				"x": -1.8244830227,
				"y": -0.6270749501,
				"z": 0.5041881431,
				"element": "H" 
			},
			{
				"x": 0.9650334375,
				"y": -2.1904772311,
				"z": -1.6275865209,
				"element": "H" 
			},
			{
				"x": -0.350128147,
				"y": -2.6934551718,
				"z": -0.5840857111,
				"element": "H" 
			},
			{
				"x": 2.1704086501,
				"y": -1.1929136402,
				"z": 0.3014758701,
				"element": "H" 
			},
			{
				"x": 1.679691698,
				"y": -2.8223591005,
				"z": 0.7209099727,
				"element": "H" 
			},
			{
				"x": -0.3645800465,
				"y": -1.9321438209,
				"z": 1.835252801,
				"element": "H" 
			},
			{
				"x": 1.6040694241,
				"y": -2.4167063415,
				"z": 3.2154488919,
				"element": "H" 
			},
			{
				"x": 2.2827111672,
				"y": -0.824175461,
				"z": 2.8877186037,
				"element": "H" 
			},
			{
				"x": 0.7470880383,
				"y": 1.2977031793,
				"z": 3.966147172,
				"element": "H" 
			},
			{
				"x": -0.6800706201,
				"y": 0.7623947542,
				"z": 4.8547448548,
				"element": "H" 
			},
			{
				"x": -1.2481189839,
				"y": 1.6007004086,
				"z": 2.5388883517,
				"element": "H" 
			},
			{
				"x": -1.7266591122,
				"y": -0.0717225772,
				"z": 2.7765149245,
				"element": "H" 
			},
			{
				"x": 1.8889000532,
				"y": 1.0774206698,
				"z": 1.9195714899,
				"element": "H" 
			},
			{
				"x": 0.7494847386,
				"y": 2.1830615083,
				"z": 1.1781956511,
				"element": "H" 
			},
			{
				"x": 1.5784948508,
				"y": 0.9784968309,
				"z": 0.1921469245,
				"element": "H" 
			},
			{
				"x": 0.6112478158,
				"y": -1.3298828396,
				"z": -3.6985209676,
				"element": "H" 
			},
			{
				"x": 1.5073751268,
				"y": 0.1827307866,
				"z": -3.4918680546,
				"element": "H" 
			},
			{
				"x": 0.2771244008,
				"y": 0.8282741781,
				"z": -5.5073950848,
				"element": "H" 
			},
			{
				"x": -1.0269041159,
				"y": -0.2927831508,
				"z": -5.1327857845,
				"element": "H" 
			}
		],
		 "valence_orbital": [ 
			{
				"type": "occ",
				"energy": -0.29739,
				"method": "rhf"
			},
			{
				"type": "occ",
				"energy": -0.29213,
				"method": "rhf"
			},
			{
				"type": "occ",
				"energy": -0.26168,
				"method": "rhf"
			},
			{
				"type": "occ",
				"energy": -0.23859,
				"method": "rhf"
			},
			{
				"type": "occ",
				"energy": -0.23457,
				"method": "rhf"
			},
			{
				"type": "unocc",
				"energy": -0.01846,
				"method": "rhf"
			},
			{
				"type": "unocc",
				"energy": -0.01592,
				"method": "rhf"
			},
			{
				"type": "unocc",
				"energy": 0.05484,
				"method": "rhf"
			},
			{
				"type": "unocc",
				"energy": 0.07246,
				"method": "rhf"
			},
			{
				"type": "unocc",
				"energy": 0.07896,
				"method": "rhf"
			}
		],
		"cosmo_sigma_profile": { 
			"-0.025": 0.0,
			"-0.024": 0.0,
			"-0.023": 0.0,
			"-0.022": 0.0,
			"-0.021": 0.0,
			"-0.02": 0.0,
			"-0.019": 0.0,
			"-0.018": 0.0,
			"-0.017": 0.0,
			"-0.016": 0.0,
			"-0.015": 0.0,
			"-0.014": 0.0,
			"-0.013": 0.0,
			"-0.012": 0.0,
			"-0.011": 0.0,
			"-0.01": 0.0,
			"-0.009": 0.0,
			"-0.008": 0.139536037448,
			"-0.007": 1.49270978169,
			"-0.006": 7.72212561672,
			"-0.005": 17.6827045584,
			"-0.004": 30.1688108775,
			"-0.003": 54.3269656831,
			"-0.002": 56.1207736261,
			"-0.001": 44.9606459082,
			"0.0": 28.8081417886,
			"0.001": 13.3105802445,
			"0.002": 6.81258992423,
			"0.003": 4.77905442321,
			"0.004": 4.42498838495,
			"0.005": 4.07269311136,
			"0.006": 5.35178801766,
			"0.007": 5.30619266934,
			"0.008": 4.23999332389,
			"0.009": 4.12337799538,
			"0.01": 5.2995929079,
			"0.011": 8.000057407,
			"0.012": 11.3941983288,
			"0.013": 6.02248294917,
			"0.014": 0.934428296865,
			"0.015": 0.0,
			"0.016": 0.0,
			"0.017": 0.0,
			"0.018": 0.0,
			"0.019": 0.0,
			"0.02": 0.0,
			"0.021": 0.0,
			"0.022": 0.0,
			"0.023": 0.0,
			"0.024": 0.0,
			"0.025": 0.0
		}
	}
}
