{
	 "smiles": "CC1(O)CCC2C3CCC4=CC(=O)C=CC4(C)C3CCC12C", 
	 "Tm": 437.15, 
	 "num_atms": 50, 
	 "gaussian": { 
		 "optdone": 1, 
		 "sigma_profile": "yes", 
		 "theory": "DFT", 
		 "functional": "B3LYP", 
		 "basiset": "6-31G**", 
		 "properties": { 
			 "R2extent": 7483.944, 
			 "electric_dipole_moment_norm": 6.66449170455, 
			 "electric_quadrupole_moment_norm": 20.2546152397, 
			 "total_energy": -929.436334224, 
			 "HOMO_LUMO_gap": 0.17818, 
			 "cosmo_polarized_energy": -15.27, 
			 "cosmo_cavitation_energy": 44.14, 
			 "cosmo_dispersion_energy": -30.6, 
			 "cosmo_repulsion_energy": 2.25, 
			 "cosmo_total_nonelectrostatic_energy": 15.79, 
			 "SMD_solvation_energy": 7.14 
		},
		"coords": [
			{
				"x": 3.8084220597,
				"y": -2.0990916127,
				"z": -3.2710920225,
				"element": "C" 
			},
			{
				"x": 3.3328456162,
				"y": -1.7055782515,
				"z": -1.8707923837,
				"element": "C" 
			},
			{
				"x": 2.8682810527,
				"y": -2.8901149947,
				"z": -1.197505162,
				"element": "O" 
			},
			{
				"x": 4.4366476747,
				"y": -1.016389484,
				"z": -1.0083173059,
				"element": "C" 
			},
			{
				"x": 3.7054567681,
				"y": -0.0316620362,
				"z": -0.0491974343,
				"element": "C" 
			},
			{
				"x": 2.211156591,
				"y": -0.2986149222,
				"z": -0.3078788043,
				"element": "C" 
			},
			{
				"x": 1.1737429947,
				"y": 0.7438823418,
				"z": 0.1722524777,
				"element": "C" 
			},
			{
				"x": 0.9231203906,
				"y": 0.5189355175,
				"z": 1.6802571227,
				"element": "C" 
			},
			{
				"x": -0.2563161057,
				"y": 1.3229899446,
				"z": 2.2510766983,
				"element": "C" 
			},
			{
				"x": -1.4961398197,
				"y": 1.057167292,
				"z": 1.4401356109,
				"element": "C" 
			},
			{
				"x": -2.6227765986,
				"y": 0.561743951,
				"z": 1.9871194779,
				"element": "C" 
			},
			{
				"x": -3.838314671,
				"y": 0.2677711498,
				"z": 1.2062795355,
				"element": "C" 
			},
			{
				"x": -4.8623001438,
				"y": -0.1703199221,
				"z": 1.7270845852,
				"element": "O" 
			},
			{
				"x": -3.7509212295,
				"y": 0.5329973932,
				"z": -0.2461202915,
				"element": "C" 
			},
			{
				"x": -2.6294496817,
				"y": 1.0097997288,
				"z": -0.8040075606,
				"element": "C" 
			},
			{
				"x": -1.3776144568,
				"y": 1.3602802517,
				"z": -0.0413475996,
				"element": "C" 
			},
			{
				"x": -1.1830134745,
				"y": 2.8996621628,
				"z": -0.2244715106,
				"element": "C" 
			},
			{
				"x": -0.1328730716,
				"y": 0.6241400261,
				"z": -0.6819856723,
				"element": "C" 
			},
			{
				"x": -0.3428610591,
				"y": -0.8497401765,
				"z": -1.0880029501,
				"element": "C" 
			},
			{
				"x": 0.7388875212,
				"y": -1.2926574549,
				"z": -2.109424665,
				"element": "C" 
			},
			{
				"x": 2.1411560673,
				"y": -0.6889918049,
				"z": -1.8066547442,
				"element": "C" 
			},
			{
				"x": 2.4461330026,
				"y": 0.5014202802,
				"z": -2.7460676706,
				"element": "C" 
			},
			{
				"x": 2.9952886869,
				"y": -2.5644034059,
				"z": -3.8369187641,
				"element": "H" 
			},
			{
				"x": 4.1877344864,
				"y": -1.2462725698,
				"z": -3.8394626316,
				"element": "H" 
			},
			{
				"x": 4.6248353578,
				"y": -2.8290062542,
				"z": -3.1988360668,
				"element": "H" 
			},
			{
				"x": 3.6042961194,
				"y": -3.514957857,
				"z": -1.1670920321,
				"element": "H" 
			},
			{
				"x": 4.9997818411,
				"y": -1.7814076359,
				"z": -0.4628313599,
				"element": "H" 
			},
			{
				"x": 5.1586775569,
				"y": -0.4912541798,
				"z": -1.6420098528,
				"element": "H" 
			},
			{
				"x": 3.9640145598,
				"y": 1.0063608804,
				"z": -0.2895791303,
				"element": "H" 
			},
			{
				"x": 3.9820274264,
				"y": -0.1909568099,
				"z": 0.9973541833,
				"element": "H" 
			},
			{
				"x": 1.9769878095,
				"y": -1.2309322607,
				"z": 0.217592938,
				"element": "H" 
			},
			{
				"x": 1.5819881093,
				"y": 1.7558175066,
				"z": 0.0404214946,
				"element": "H" 
			},
			{
				"x": 0.7179253762,
				"y": -0.5458822282,
				"z": 1.8493932977,
				"element": "H" 
			},
			{
				"x": 1.8380635535,
				"y": 0.7483833834,
				"z": 2.2392487266,
				"element": "H" 
			},
			{
				"x": -0.0158181924,
				"y": 2.3947314933,
				"z": 2.234241439,
				"element": "H" 
			},
			{
				"x": -0.4273257614,
				"y": 1.0555389286,
				"z": 3.2988389309,
				"element": "H" 
			},
			{
				"x": -2.6869341206,
				"y": 0.3562610357,
				"z": 3.0530567401,
				"element": "H" 
			},
			{
				"x": -4.6414429246,
				"y": 0.3177465011,
				"z": -0.8299366428,
				"element": "H" 
			},
			{
				"x": -2.5934194123,
				"y": 1.199079789,
				"z": -1.8770706171,
				"element": "H" 
			},
			{
				"x": -0.2359719461,
				"y": 3.2443329198,
				"z": 0.197551625,
				"element": "H" 
			},
			{
				"x": -1.9957150512,
				"y": 3.4492928496,
				"z": 0.2587624963,
				"element": "H" 
			},
			{
				"x": -1.1852471724,
				"y": 3.1536767237,
				"z": -1.2894236081,
				"element": "H" 
			},
			{
				"x": 0.0321139486,
				"y": 1.1694725165,
				"z": -1.6190841196,
				"element": "H" 
			},
			{
				"x": -1.331991661,
				"y": -0.9969391886,
				"z": -1.5307325763,
				"element": "H" 
			},
			{
				"x": -0.3150217563,
				"y": -1.4924994698,
				"z": -0.2000484475,
				"element": "H" 
			},
			{
				"x": 0.4193992582,
				"y": -0.9879450487,
				"z": -3.1139612021,
				"element": "H" 
			},
			{
				"x": 0.8003145231,
				"y": -2.3837333434,
				"z": -2.1100548099,
				"element": "H" 
			},
			{
				"x": 2.3353850978,
				"y": 0.2036121909,
				"z": -3.7934480217,
				"element": "H" 
			},
			{
				"x": 3.4617378454,
				"y": 0.8888337587,
				"z": -2.6202992045,
				"element": "H" 
			},
			{
				"x": 1.7626470152,
				"y": 1.3366203948,
				"z": -2.5776125153,
				"element": "H" 
			}
		],
		 "valence_orbital": [ 
			{
				"type": "occ",
				"energy": -0.27911,
				"method": "rhf"
			},
			{
				"type": "occ",
				"energy": -0.26328,
				"method": "rhf"
			},
			{
				"type": "occ",
				"energy": -0.26185,
				"method": "rhf"
			},
			{
				"type": "occ",
				"energy": -0.24852,
				"method": "rhf"
			},
			{
				"type": "occ",
				"energy": -0.22678,
				"method": "rhf"
			},
			{
				"type": "unocc",
				"energy": -0.0486,
				"method": "rhf"
			},
			{
				"type": "unocc",
				"energy": 0.00657,
				"method": "rhf"
			},
			{
				"type": "unocc",
				"energy": 0.06145,
				"method": "rhf"
			},
			{
				"type": "unocc",
				"energy": 0.07054,
				"method": "rhf"
			},
			{
				"type": "unocc",
				"energy": 0.08612,
				"method": "rhf"
			}
		],
		"cosmo_sigma_profile": { 
			"-0.025": 0.0,
			"-0.024": 0.0,
			"-0.023": 0.0,
			"-0.022": 0.0,
			"-0.021": 0.0,
			"-0.02": 0.0,
			"-0.019": 0.0,
			"-0.018": 0.0,
			"-0.017": 0.0,
			"-0.016": 0.0,
			"-0.015": 0.0693601280969,
			"-0.014": 1.20249328237,
			"-0.013": 0.385746500573,
			"-0.012": 0.928910202584,
			"-0.011": 0.880162445865,
			"-0.01": 1.49455584344,
			"-0.009": 0.815423900899,
			"-0.008": 0.82833812674,
			"-0.007": 1.17415506341,
			"-0.006": 5.39966924615,
			"-0.005": 12.1892715844,
			"-0.004": 19.7444363545,
			"-0.003": 31.7413022052,
			"-0.002": 50.4851371375,
			"-0.001": 52.8394273529,
			"0.0": 47.0344003903,
			"0.001": 39.5867746475,
			"0.002": 23.0456130229,
			"0.003": 9.0255953843,
			"0.004": 4.66524552972,
			"0.005": 3.75191497148,
			"0.006": 2.42422700683,
			"0.007": 2.90355254144,
			"0.008": 3.9147869298,
			"0.009": 2.91915214529,
			"0.01": 2.88437698371,
			"0.011": 2.76422511234,
			"0.012": 3.86945800149,
			"0.013": 5.08671873739,
			"0.014": 4.2192518935,
			"0.015": 2.00333500425,
			"0.016": 0.0230166391785,
			"0.017": 0.0,
			"0.018": 0.0,
			"0.019": 0.0,
			"0.02": 0.0,
			"0.021": 0.0,
			"0.022": 0.0,
			"0.023": 0.0,
			"0.024": 0.0,
			"0.025": 0.0
		}
	}
}
