{
	 "smiles": "CC(C)OC(=O)N1CCC(C1)(C(O)=O)C(F)(F)F", 
	 "Tm": 372.15, 
	 "num_atms": 32, 
	 "gaussian": { 
		 "optdone": 1, 
		 "sigma_profile": "yes", 
		 "theory": "DFT", 
		 "functional": "B3LYP", 
		 "basiset": "6-31G**", 
		 "properties": { 
			 "R2extent": 5652.1554, 
			 "electric_dipole_moment_norm": 2.89281019426, 
			 "electric_quadrupole_moment_norm": 18.9057449121, 
			 "total_energy": -1044.7204469, 
			 "HOMO_LUMO_gap": 0.22477, 
			 "cosmo_polarized_energy": -15.24, 
			 "cosmo_cavitation_energy": 35.81, 
			 "cosmo_dispersion_energy": -24.57, 
			 "cosmo_repulsion_energy": 1.88, 
			 "cosmo_total_nonelectrostatic_energy": 13.12, 
			 "SMD_solvation_energy": 8.69 
		},
		"coords": [
			{
				"x": -2.1694938086,
				"y": 1.9620511763,
				"z": 2.8097965136,
				"element": "C" 
			},
			{
				"x": -2.7742303121,
				"y": 0.8565611101,
				"z": 1.9554932106,
				"element": "C" 
			},
			{
				"x": -3.2033074899,
				"y": -0.3684624312,
				"z": 2.7564531366,
				"element": "C" 
			},
			{
				"x": -1.7409164038,
				"y": 0.4782958589,
				"z": 1.0024645891,
				"element": "O" 
			},
			{
				"x": -2.1726603365,
				"y": -0.0544411102,
				"z": -0.1722757303,
				"element": "C" 
			},
			{
				"x": -3.3421595001,
				"y": -0.2273501696,
				"z": -0.4789921987,
				"element": "O" 
			},
			{
				"x": -1.1158087058,
				"y": -0.3781317246,
				"z": -0.9691802948,
				"element": "N" 
			},
			{
				"x": -1.3250124748,
				"y": -0.9387454993,
				"z": -2.3011526936,
				"element": "C" 
			},
			{
				"x": 0.0656842677,
				"y": -1.4656397276,
				"z": -2.6771046156,
				"element": "C" 
			},
			{
				"x": 1.0694605707,
				"y": -0.5499990962,
				"z": -1.9105029144,
				"element": "C" 
			},
			{
				"x": 0.2854194551,
				"y": -0.1349997142,
				"z": -0.6312676627,
				"element": "C" 
			},
			{
				"x": 2.3641095108,
				"y": -1.2997960601,
				"z": -1.5833850708,
				"element": "C" 
			},
			{
				"x": 2.122358849,
				"y": -2.3634529664,
				"z": -0.7793050471,
				"element": "O" 
			},
			{
				"x": 3.4690836771,
				"y": -1.0236187819,
				"z": -1.9843970181,
				"element": "O" 
			},
			{
				"x": 1.4090457172,
				"y": 0.6954516804,
				"z": -2.7424272014,
				"element": "C" 
			},
			{
				"x": 1.9669368727,
				"y": 0.3786402662,
				"z": -3.9238413116,
				"element": "F" 
			},
			{
				"x": 0.2828890207,
				"y": 1.4017938638,
				"z": -3.0111255291,
				"element": "F" 
			},
			{
				"x": 2.2432028684,
				"y": 1.5239801638,
				"z": -2.087989391,
				"element": "F" 
			},
			{
				"x": -1.8607230089,
				"y": 2.8082464213,
				"z": 2.1896881995,
				"element": "H" 
			},
			{
				"x": -2.9046016319,
				"y": 2.3178117795,
				"z": 3.5382573016,
				"element": "H" 
			},
			{
				"x": -1.293992171,
				"y": 1.596818452,
				"z": 3.3565312948,
				"element": "H" 
			},
			{
				"x": -3.6252543067,
				"y": 1.2328988069,
				"z": 1.3807678378,
				"element": "H" 
			},
			{
				"x": -2.3501656939,
				"y": -0.7968226959,
				"z": 3.29316505,
				"element": "H" 
			},
			{
				"x": -3.9677722125,
				"y": -0.0919032566,
				"z": 3.4900192155,
				"element": "H" 
			},
			{
				"x": -3.6250574592,
				"y": -1.1264652326,
				"z": 2.0924585175,
				"element": "H" 
			},
			{
				"x": -1.6736612299,
				"y": -0.1713689424,
				"z": -3.0011003169,
				"element": "H" 
			},
			{
				"x": -2.0788579713,
				"y": -1.7288657158,
				"z": -2.2660982087,
				"element": "H" 
			},
			{
				"x": 0.2538278753,
				"y": -1.4562971685,
				"z": -3.7524960471,
				"element": "H" 
			},
			{
				"x": 0.189297526,
				"y": -2.4885444768,
				"z": -2.3161759165,
				"element": "H" 
			},
			{
				"x": 0.4651609555,
				"y": 0.9136617978,
				"z": -0.3781063503,
				"element": "H" 
			},
			{
				"x": 0.5913792898,
				"y": -0.7415956065,
				"z": 0.2249741155,
				"element": "H" 
			},
			{
				"x": 2.9824182609,
				"y": -2.7919110008,
				"z": -0.6325454635,
				"element": "H" 
			}
		],
		 "valence_orbital": [ 
			{
				"type": "occ",
				"energy": -0.33173,
				"method": "rhf"
			},
			{
				"type": "occ",
				"energy": -0.29657,
				"method": "rhf"
			},
			{
				"type": "occ",
				"energy": -0.28887,
				"method": "rhf"
			},
			{
				"type": "occ",
				"energy": -0.26687,
				"method": "rhf"
			},
			{
				"type": "occ",
				"energy": -0.24312,
				"method": "rhf"
			},
			{
				"type": "unocc",
				"energy": -0.01835,
				"method": "rhf"
			},
			{
				"type": "unocc",
				"energy": 0.04608,
				"method": "rhf"
			},
			{
				"type": "unocc",
				"energy": 0.05506,
				"method": "rhf"
			},
			{
				"type": "unocc",
				"energy": 0.09226,
				"method": "rhf"
			},
			{
				"type": "unocc",
				"energy": 0.10156,
				"method": "rhf"
			}
		],
		"cosmo_sigma_profile": { 
			"-0.025": 0.0,
			"-0.024": 0.0,
			"-0.023": 0.0,
			"-0.022": 0.0,
			"-0.021": 0.0,
			"-0.02": 0.0,
			"-0.019": 0.563487281061,
			"-0.018": 1.40319684818,
			"-0.017": 0.58754956463,
			"-0.016": 0.75003417617,
			"-0.015": 0.925560869505,
			"-0.014": 0.58436675909,
			"-0.013": 0.538957911622,
			"-0.012": 0.660224454058,
			"-0.011": 1.1652452832,
			"-0.01": 0.33234213961,
			"-0.009": 0.547017146075,
			"-0.008": 1.20945934737,
			"-0.007": 2.16393202629,
			"-0.006": 7.79632715364,
			"-0.005": 17.2275930661,
			"-0.004": 26.8968235249,
			"-0.003": 27.5034114419,
			"-0.002": 22.3815261672,
			"-0.001": 25.0802417262,
			"0.0": 27.9054896352,
			"0.001": 20.9836658266,
			"0.002": 24.6276066319,
			"0.003": 17.5271071272,
			"0.004": 7.62356706633,
			"0.005": 6.8231950946,
			"0.006": 5.807044268,
			"0.007": 4.76373846453,
			"0.008": 4.25608633016,
			"0.009": 4.48032139277,
			"0.01": 5.83238285647,
			"0.011": 3.85678216689,
			"0.012": 1.58598611677,
			"0.013": 4.77504622395,
			"0.014": 1.81752655978,
			"0.015": 0.0,
			"0.016": 0.0,
			"0.017": 0.0,
			"0.018": 0.0,
			"0.019": 0.0,
			"0.02": 0.0,
			"0.021": 0.0,
			"0.022": 0.0,
			"0.023": 0.0,
			"0.024": 0.0,
			"0.025": 0.0
		}
	}
}
