{
	 "smiles": "CC(C)(C)OC(=O)NCCC(=O)NN", 
	 "Tm": 378.15, 
	 "num_atms": 31, 
	 "gaussian": { 
		 "optdone": 1, 
		 "sigma_profile": "yes", 
		 "theory": "DFT", 
		 "functional": "B3LYP", 
		 "basiset": "6-31G**", 
		 "properties": { 
			 "R2extent": 5082.7527, 
			 "electric_dipole_moment_norm": 2.03980145112, 
			 "electric_quadrupole_moment_norm": 16.3477175034, 
			 "total_energy": -705.045846008, 
			 "HOMO_LUMO_gap": 0.26382, 
			 "cosmo_polarized_energy": -18.87, 
			 "cosmo_cavitation_energy": 34.13, 
			 "cosmo_dispersion_energy": -23.26, 
			 "cosmo_repulsion_energy": 1.89, 
			 "cosmo_total_nonelectrostatic_energy": 12.76, 
			 "SMD_solvation_energy": 7.41 
		},
		"coords": [
			{
				"x": -0.3241024794,
				"y": -3.2678187966,
				"z": -0.2893600889,
				"element": "C" 
			},
			{
				"x": 0.6508919735,
				"y": -2.0856287491,
				"z": -0.2996304608,
				"element": "C" 
			},
			{
				"x": 1.7316953211,
				"y": -2.2823526613,
				"z": -1.3656406411,
				"element": "C" 
			},
			{
				"x": 1.2795397683,
				"y": -1.8401093913,
				"z": 1.0761935647,
				"element": "C" 
			},
			{
				"x": -0.0377195778,
				"y": -0.8694478647,
				"z": -0.7616701362,
				"element": "O" 
			},
			{
				"x": -1.1015965365,
				"y": -0.3732361364,
				"z": -0.0842608388,
				"element": "C" 
			},
			{
				"x": -1.5590403341,
				"y": -0.8039513332,
				"z": 0.9628619556,
				"element": "O" 
			},
			{
				"x": -1.626759679,
				"y": 0.7080554289,
				"z": -0.7407080874,
				"element": "N" 
			},
			{
				"x": -1.0958852051,
				"y": 1.3317826728,
				"z": -1.9424463039,
				"element": "C" 
			},
			{
				"x": 0.1000411205,
				"y": 2.2617234196,
				"z": -1.6727968539,
				"element": "C" 
			},
			{
				"x": 0.6580733498,
				"y": 2.8300234036,
				"z": -2.9703923542,
				"element": "C" 
			},
			{
				"x": 0.6980137382,
				"y": 2.1929747721,
				"z": -4.0174469785,
				"element": "O" 
			},
			{
				"x": 1.1223628614,
				"y": 4.116357216,
				"z": -2.8927993909,
				"element": "N" 
			},
			{
				"x": 1.8308425399,
				"y": 4.7063872306,
				"z": -3.9597283385,
				"element": "N" 
			},
			{
				"x": 0.2188360011,
				"y": -4.189069161,
				"z": -0.0542643055,
				"element": "H" 
			},
			{
				"x": -0.785239614,
				"y": -3.387817263,
				"z": -1.2748531963,
				"element": "H" 
			},
			{
				"x": -1.108249247,
				"y": -3.1204972361,
				"z": 0.453554603,
				"element": "H" 
			},
			{
				"x": 1.2815401237,
				"y": -2.409321192,
				"z": -2.3543034819,
				"element": "H" 
			},
			{
				"x": 2.3260520933,
				"y": -3.1721464367,
				"z": -1.1374684703,
				"element": "H" 
			},
			{
				"x": 2.4021404353,
				"y": -1.4186454864,
				"z": -1.4020824058,
				"element": "H" 
			},
			{
				"x": 1.8798030192,
				"y": -2.7085949043,
				"z": 1.3664810309,
				"element": "H" 
			},
			{
				"x": 1.9409532306,
				"y": -0.9682104233,
				"z": 1.0415769724,
				"element": "H" 
			},
			{
				"x": 0.5107892327,
				"y": -1.6720701883,
				"z": 1.8305432604,
				"element": "H" 
			},
			{
				"x": -2.3686384283,
				"y": 1.1616871897,
				"z": -0.2300355887,
				"element": "H" 
			},
			{
				"x": -1.9094588319,
				"y": 1.8929654118,
				"z": -2.4126038474,
				"element": "H" 
			},
			{
				"x": -0.7859372932,
				"y": 0.5614030592,
				"z": -2.6487385256,
				"element": "H" 
			},
			{
				"x": 0.889403906,
				"y": 1.671891872,
				"z": -1.1918434538,
				"element": "H" 
			},
			{
				"x": -0.1800450786,
				"y": 3.0622090457,
				"z": -0.9776578442,
				"element": "H" 
			},
			{
				"x": 1.2689549958,
				"y": 4.5548486008,
				"z": -1.995012922,
				"element": "H" 
			},
			{
				"x": 2.3818959803,
				"y": 3.9652522154,
				"z": -4.3947750629,
				"element": "H" 
			},
			{
				"x": 1.1470426145,
				"y": 4.9777556855,
				"z": -4.6657918094,
				"element": "H" 
			}
		],
		 "valence_orbital": [ 
			{
				"type": "occ",
				"energy": -0.28639,
				"method": "rhf"
			},
			{
				"type": "occ",
				"energy": -0.26445,
				"method": "rhf"
			},
			{
				"type": "occ",
				"energy": -0.2598,
				"method": "rhf"
			},
			{
				"type": "occ",
				"energy": -0.25821,
				"method": "rhf"
			},
			{
				"type": "occ",
				"energy": -0.24512,
				"method": "rhf"
			},
			{
				"type": "unocc",
				"energy": 0.0187,
				"method": "rhf"
			},
			{
				"type": "unocc",
				"energy": 0.05748,
				"method": "rhf"
			},
			{
				"type": "unocc",
				"energy": 0.07541,
				"method": "rhf"
			},
			{
				"type": "unocc",
				"energy": 0.08077,
				"method": "rhf"
			},
			{
				"type": "unocc",
				"energy": 0.0864,
				"method": "rhf"
			}
		],
		"cosmo_sigma_profile": { 
			"-0.025": 0.0,
			"-0.024": 0.0,
			"-0.023": 0.0,
			"-0.022": 0.0,
			"-0.021": 0.0,
			"-0.02": 0.0,
			"-0.019": 0.0,
			"-0.018": 0.0,
			"-0.017": 0.0,
			"-0.016": 0.0,
			"-0.015": 0.126988635135,
			"-0.014": 1.52867534144,
			"-0.013": 2.91921943052,
			"-0.012": 1.93391877524,
			"-0.011": 3.8100255865,
			"-0.01": 4.64046730962,
			"-0.009": 4.85404769448,
			"-0.008": 4.02545477387,
			"-0.007": 4.88783616708,
			"-0.006": 7.52553408526,
			"-0.005": 10.3386582276,
			"-0.004": 18.7581551178,
			"-0.003": 22.0372062611,
			"-0.002": 23.0796921522,
			"-0.001": 23.7840692145,
			"0.0": 29.9300472791,
			"0.001": 24.6853115492,
			"0.002": 10.2325184081,
			"0.003": 9.35213492907,
			"0.004": 7.86391848253,
			"0.005": 6.96196423488,
			"0.006": 4.4056311121,
			"0.007": 3.30010798515,
			"0.008": 3.35838440095,
			"0.009": 2.85052625087,
			"0.01": 3.65651362379,
			"0.011": 3.52914793442,
			"0.012": 3.98980174206,
			"0.013": 7.43136378994,
			"0.014": 7.53880384484,
			"0.015": 0.753949250814,
			"0.016": 0.511188485955,
			"0.017": 0.286545785812,
			"0.018": 0.0,
			"0.019": 0.0,
			"0.02": 0.0,
			"0.021": 0.0,
			"0.022": 0.0,
			"0.023": 0.0,
			"0.024": 0.0,
			"0.025": 0.0
		}
	}
}
