{
	 "smiles": "CC1=CC=NC(SCC(O)=O)=N1", 
	 "Tm": 464.65, 
	 "num_atms": 20, 
	 "gaussian": { 
		 "optdone": 1, 
		 "sigma_profile": "yes", 
		 "theory": "DFT", 
		 "functional": "B3LYP", 
		 "basiset": "6-31G**", 
		 "properties": { 
			 "R2extent": 3130.9698, 
			 "electric_dipole_moment_norm": 2.45724173414, 
			 "electric_quadrupole_moment_norm": 21.7043466179, 
			 "total_energy": -929.716789844, 
			 "HOMO_LUMO_gap": 0.19003, 
			 "cosmo_polarized_energy": -14.23, 
			 "cosmo_cavitation_energy": 26.88, 
			 "cosmo_dispersion_energy": -19.62, 
			 "cosmo_repulsion_energy": 1.55, 
			 "cosmo_total_nonelectrostatic_energy": 8.82, 
			 "SMD_solvation_energy": 3.59 
		},
		"coords": [
			{
				"x": 1.2884760662,
				"y": -1.3760511402,
				"z": 3.1867074781,
				"element": "C" 
			},
			{
				"x": -0.111055932,
				"y": -0.9561269961,
				"z": 2.8252936387,
				"element": "C" 
			},
			{
				"x": -1.0392015768,
				"y": -0.5509729898,
				"z": 3.7923417899,
				"element": "C" 
			},
			{
				"x": -2.3054810903,
				"y": -0.1889597532,
				"z": 3.3430081302,
				"element": "C" 
			},
			{
				"x": -2.6478779978,
				"y": -0.2044786244,
				"z": 2.0508079297,
				"element": "N" 
			},
			{
				"x": -1.68483808,
				"y": -0.6011406271,
				"z": 1.2112889977,
				"element": "C" 
			},
			{
				"x": -2.2237200841,
				"y": -0.6114058773,
				"z": -0.4903737581,
				"element": "S" 
			},
			{
				"x": -0.6773265463,
				"y": -1.052522531,
				"z": -1.3823555033,
				"element": "C" 
			},
			{
				"x": -0.0213837987,
				"y": 0.1779044575,
				"z": -1.9719348463,
				"element": "C" 
			},
			{
				"x": -0.5768858514,
				"y": 0.5079480303,
				"z": -3.1630689033,
				"element": "O" 
			},
			{
				"x": 0.8752576617,
				"y": 0.8115879161,
				"z": -1.4643984627,
				"element": "O" 
			},
			{
				"x": -0.4469937612,
				"y": -0.9837451234,
				"z": 1.5257414366,
				"element": "N" 
			},
			{
				"x": 1.27493022,
				"y": -2.2314493679,
				"z": 3.8711938951,
				"element": "H" 
			},
			{
				"x": 1.8402343992,
				"y": -1.648301295,
				"z": 2.286215673,
				"element": "H" 
			},
			{
				"x": 1.8182833503,
				"y": -0.5624590533,
				"z": 3.6941188828,
				"element": "H" 
			},
			{
				"x": -0.7834046339,
				"y": -0.5213132212,
				"z": 4.8458658425,
				"element": "H" 
			},
			{
				"x": -3.0783602028,
				"y": 0.129215527,
				"z": 4.0405743134,
				"element": "H" 
			},
			{
				"x": -0.9560655866,
				"y": -1.7562311366,
				"z": -2.1684443027,
				"element": "H" 
			},
			{
				"x": -0.0037196006,
				"y": -1.5099739368,
				"z": -0.6579483173,
				"element": "H" 
			},
			{
				"x": -0.1346669547,
				"y": 1.3238757425,
				"z": -3.4521339141,
				"element": "H" 
			}
		],
		 "valence_orbital": [ 
			{
				"type": "occ",
				"energy": -0.30887,
				"method": "rhf"
			},
			{
				"type": "occ",
				"energy": -0.30513,
				"method": "rhf"
			},
			{
				"type": "occ",
				"energy": -0.279,
				"method": "rhf"
			},
			{
				"type": "occ",
				"energy": -0.25865,
				"method": "rhf"
			},
			{
				"type": "occ",
				"energy": -0.23168,
				"method": "rhf"
			},
			{
				"type": "unocc",
				"energy": -0.04165,
				"method": "rhf"
			},
			{
				"type": "unocc",
				"energy": -0.02984,
				"method": "rhf"
			},
			{
				"type": "unocc",
				"energy": -0.00728,
				"method": "rhf"
			},
			{
				"type": "unocc",
				"energy": 0.04445,
				"method": "rhf"
			},
			{
				"type": "unocc",
				"energy": 0.07837,
				"method": "rhf"
			}
		],
		"cosmo_sigma_profile": { 
			"-0.025": 0.0,
			"-0.024": 0.0,
			"-0.023": 0.0,
			"-0.022": 0.0,
			"-0.021": 0.0,
			"-0.02": 0.0,
			"-0.019": 0.116343331299,
			"-0.018": 0.937305385793,
			"-0.017": 0.949652177873,
			"-0.016": 0.964511781322,
			"-0.015": 0.631447159463,
			"-0.014": 0.402042853897,
			"-0.013": 0.681096838185,
			"-0.012": 0.676942885508,
			"-0.011": 1.15246762585,
			"-0.01": 0.878306094148,
			"-0.009": 0.435183934495,
			"-0.008": 5.24588712033,
			"-0.007": 7.25730183144,
			"-0.006": 11.633166577,
			"-0.005": 15.4999112621,
			"-0.004": 14.9121198133,
			"-0.003": 12.5266978808,
			"-0.002": 15.2685287997,
			"-0.001": 18.8627571197,
			"0.0": 16.5092008389,
			"0.001": 12.8049096985,
			"0.002": 8.81513951422,
			"0.003": 10.0786381224,
			"0.004": 10.6999163279,
			"0.005": 9.32243990993,
			"0.006": 8.56421087838,
			"0.007": 6.17703858893,
			"0.008": 4.75720078927,
			"0.009": 4.3566534364,
			"0.01": 3.86154496007,
			"0.011": 5.71311357091,
			"0.012": 4.14737126376,
			"0.013": 0.977913345313,
			"0.014": 0.619874716276,
			"0.015": 0.0456372497111,
			"0.016": 0.0,
			"0.017": 0.0,
			"0.018": 0.0,
			"0.019": 0.0,
			"0.02": 0.0,
			"0.021": 0.0,
			"0.022": 0.0,
			"0.023": 0.0,
			"0.024": 0.0,
			"0.025": 0.0
		}
	}
}
