{
	 "smiles": "OC1C2CCCC1CN(CC1=CC=CC=C1)C2", 
	 "Tm": 362.15, 
	 "num_atms": 38, 
	 "gaussian": { 
		 "optdone": 1, 
		 "sigma_profile": "yes", 
		 "theory": "DFT", 
		 "functional": "B3LYP", 
		 "basiset": "6-31G**", 
		 "properties": { 
			 "R2extent": 5078.7941, 
			 "electric_dipole_moment_norm": 1.48374370765, 
			 "electric_quadrupole_moment_norm": 13.5724653774, 
			 "total_energy": -714.225321183, 
			 "HOMO_LUMO_gap": 0.2012, 
			 "cosmo_polarized_energy": -8.44, 
			 "cosmo_cavitation_energy": 35.9, 
			 "cosmo_dispersion_energy": -25.99, 
			 "cosmo_repulsion_energy": 1.99, 
			 "cosmo_total_nonelectrostatic_energy": 11.9, 
			 "SMD_solvation_energy": 4.15 
		},
		"coords": [
			{
				"x": 3.3677915288,
				"y": -3.0298395484,
				"z": -0.2524017466,
				"element": "O" 
			},
			{
				"x": 2.3864785364,
				"y": -2.0335726165,
				"z": 0.0158493708,
				"element": "C" 
			},
			{
				"x": 1.0645546136,
				"y": -2.2496139186,
				"z": -0.7444430429,
				"element": "C" 
			},
			{
				"x": 0.3979900758,
				"y": -3.5690929958,
				"z": -0.2939807214,
				"element": "C" 
			},
			{
				"x": 0.1743114911,
				"y": -3.6656604809,
				"z": 1.2288096713,
				"element": "C" 
			},
			{
				"x": 1.4052002461,
				"y": -3.2037473043,
				"z": 2.0348876918,
				"element": "C" 
			},
			{
				"x": 2.0400203548,
				"y": -1.8958065724,
				"z": 1.5102100011,
				"element": "C" 
			},
			{
				"x": 1.1513424024,
				"y": -0.6480619493,
				"z": 1.6801653539,
				"element": "C" 
			},
			{
				"x": -0.0655361781,
				"y": -0.7251055484,
				"z": 0.8713452498,
				"element": "N" 
			},
			{
				"x": -1.0245169855,
				"y": 0.3587587344,
				"z": 1.1163148427,
				"element": "C" 
			},
			{
				"x": -0.5947774219,
				"y": 1.7633693642,
				"z": 0.7088568526,
				"element": "C" 
			},
			{
				"x": -0.8573909781,
				"y": 2.2510101168,
				"z": -0.5793794165,
				"element": "C" 
			},
			{
				"x": -0.435812167,
				"y": 3.5240413724,
				"z": -0.9665224315,
				"element": "C" 
			},
			{
				"x": 0.2560945023,
				"y": 4.3358010565,
				"z": -0.0657645088,
				"element": "C" 
			},
			{
				"x": 0.5171822954,
				"y": 3.8682783166,
				"z": 1.2235504788,
				"element": "C" 
			},
			{
				"x": 0.0929903831,
				"y": 2.5943527966,
				"z": 1.6048731331,
				"element": "C" 
			},
			{
				"x": 0.1890703719,
				"y": -0.9971727954,
				"z": -0.5437217049,
				"element": "C" 
			},
			{
				"x": 3.0197974439,
				"y": -3.8840055337,
				"z": 0.0319845464,
				"element": "H" 
			},
			{
				"x": 2.848820225,
				"y": -1.1008132077,
				"z": -0.3305836155,
				"element": "H" 
			},
			{
				"x": 1.288221224,
				"y": -2.322175471,
				"z": -1.8164178285,
				"element": "H" 
			},
			{
				"x": 1.0346191756,
				"y": -4.4013948808,
				"z": -0.6287232699,
				"element": "H" 
			},
			{
				"x": -0.5545813956,
				"y": -3.7018822498,
				"z": -0.8213634587,
				"element": "H" 
			},
			{
				"x": -0.6791111204,
				"y": -3.0417815802,
				"z": 1.4999918332,
				"element": "H" 
			},
			{
				"x": -0.0773669346,
				"y": -4.6990870007,
				"z": 1.4997746176,
				"element": "H" 
			},
			{
				"x": 2.177440832,
				"y": -3.98688785,
				"z": 2.0137411053,
				"element": "H" 
			},
			{
				"x": 1.1381545329,
				"y": -3.0877186417,
				"z": 3.0924173572,
				"element": "H" 
			},
			{
				"x": 2.968102925,
				"y": -1.7129440872,
				"z": 2.0666503892,
				"element": "H" 
			},
			{
				"x": 0.8515343179,
				"y": -0.5444286262,
				"z": 2.7314971004,
				"element": "H" 
			},
			{
				"x": 1.7608527086,
				"y": 0.2429185357,
				"z": 1.4347718197,
				"element": "H" 
			},
			{
				"x": -1.2550908441,
				"y": 0.350872068,
				"z": 2.1888993376,
				"element": "H" 
			},
			{
				"x": -1.9495063402,
				"y": 0.0987264837,
				"z": 0.586749961,
				"element": "H" 
			},
			{
				"x": -1.4084389997,
				"y": 1.6306489643,
				"z": -1.2823227998,
				"element": "H" 
			},
			{
				"x": -0.6530449105,
				"y": 3.8843115511,
				"z": -1.9683287886,
				"element": "H" 
			},
			{
				"x": 0.5823163704,
				"y": 5.3281783193,
				"z": -0.3636816124,
				"element": "H" 
			},
			{
				"x": 1.0453102003,
				"y": 4.4977732782,
				"z": 1.9344839725,
				"element": "H" 
			},
			{
				"x": 0.2876150896,
				"y": 2.2435054756,
				"z": 2.6156424046,
				"element": "H" 
			},
			{
				"x": 0.6854523529,
				"y": -0.147103949,
				"z": -1.0501931158,
				"element": "H" 
			},
			{
				"x": -0.7804899242,
				"y": -1.1366496252,
				"z": -1.0401390287,
				"element": "H" 
			}
		],
		 "valence_orbital": [ 
			{
				"type": "occ",
				"energy": -0.2883,
				"method": "rhf"
			},
			{
				"type": "occ",
				"energy": -0.25031,
				"method": "rhf"
			},
			{
				"type": "occ",
				"energy": -0.24881,
				"method": "rhf"
			},
			{
				"type": "occ",
				"energy": -0.24477,
				"method": "rhf"
			},
			{
				"type": "occ",
				"energy": -0.20427,
				"method": "rhf"
			},
			{
				"type": "unocc",
				"energy": -0.00307,
				"method": "rhf"
			},
			{
				"type": "unocc",
				"energy": -0.00153,
				"method": "rhf"
			},
			{
				"type": "unocc",
				"energy": 0.06723,
				"method": "rhf"
			},
			{
				"type": "unocc",
				"energy": 0.08216,
				"method": "rhf"
			},
			{
				"type": "unocc",
				"energy": 0.09996,
				"method": "rhf"
			}
		],
		"cosmo_sigma_profile": { 
			"-0.025": 0.0,
			"-0.024": 0.0,
			"-0.023": 0.0,
			"-0.022": 0.0,
			"-0.021": 0.0,
			"-0.02": 0.0,
			"-0.019": 0.0,
			"-0.018": 0.0,
			"-0.017": 0.0,
			"-0.016": 0.0,
			"-0.015": 0.0,
			"-0.014": 0.0735628437083,
			"-0.013": 0.615195126008,
			"-0.012": 0.550033759527,
			"-0.011": 1.38712726757,
			"-0.01": 0.926565254337,
			"-0.009": 0.994813049846,
			"-0.008": 1.06824684033,
			"-0.007": 0.858168929698,
			"-0.006": 2.45400468918,
			"-0.005": 10.5476610204,
			"-0.004": 21.6388023606,
			"-0.003": 29.2121245321,
			"-0.002": 36.428310751,
			"-0.001": 39.3738906253,
			"0.0": 32.2204885135,
			"0.001": 25.5929857681,
			"0.002": 15.8726690908,
			"0.003": 10.9914070432,
			"0.004": 10.1653194653,
			"0.005": 10.2826100023,
			"0.006": 10.0152033472,
			"0.007": 4.96605629322,
			"0.008": 2.09709303971,
			"0.009": 1.08552661399,
			"0.01": 1.08286854401,
			"0.011": 1.35026963716,
			"0.012": 1.20891711147,
			"0.013": 1.54804017396,
			"0.014": 2.36967321229,
			"0.015": 1.3547742691,
			"0.016": 0.0,
			"0.017": 0.0,
			"0.018": 0.0,
			"0.019": 0.0,
			"0.02": 0.0,
			"0.021": 0.0,
			"0.022": 0.0,
			"0.023": 0.0,
			"0.024": 0.0,
			"0.025": 0.0
		}
	}
}
