{
	 "smiles": "COC(=O)CC1=C(C)SC(=N1)C1=CC=CC=C1", 
	 "Tm": 316.15, 
	 "num_atms": 30, 
	 "gaussian": { 
		 "optdone": 1, 
		 "sigma_profile": "yes", 
		 "theory": "DFT", 
		 "functional": "B3LYP", 
		 "basiset": "6-31G**", 
		 "properties": { 
			 "R2extent": 6095.666, 
			 "electric_dipole_moment_norm": 2.75063110395, 
			 "electric_quadrupole_moment_norm": 14.1547608101, 
			 "total_energy": -1106.62069695, 
			 "HOMO_LUMO_gap": 0.16334, 
			 "cosmo_polarized_energy": -11.86, 
			 "cosmo_cavitation_energy": 36.15, 
			 "cosmo_dispersion_energy": -25.83, 
			 "cosmo_repulsion_energy": 1.99, 
			 "cosmo_total_nonelectrostatic_energy": 12.31, 
			 "SMD_solvation_energy": 6.08 
		},
		"coords": [
			{
				"x": -1.7444891851,
				"y": -3.1463707236,
				"z": -2.2246859724,
				"element": "C" 
			},
			{
				"x": -0.6422837798,
				"y": -2.899158212,
				"z": -1.3361174348,
				"element": "O" 
			},
			{
				"x": -0.9775646963,
				"y": -2.7286963976,
				"z": -0.0378500643,
				"element": "C" 
			},
			{
				"x": -2.1126775264,
				"y": -2.7956832282,
				"z": 0.3764936266,
				"element": "O" 
			},
			{
				"x": 0.2554118515,
				"y": -2.490104594,
				"z": 0.8268767927,
				"element": "C" 
			},
			{
				"x": 1.1800153101,
				"y": -1.4177778587,
				"z": 0.3111308705,
				"element": "C" 
			},
			{
				"x": 2.3169878661,
				"y": -1.6095991154,
				"z": -0.4347731808,
				"element": "C" 
			},
			{
				"x": 2.9215362449,
				"y": -2.8778798004,
				"z": -0.9539686115,
				"element": "C" 
			},
			{
				"x": 3.0313894375,
				"y": -0.0564903523,
				"z": -0.7894201838,
				"element": "S" 
			},
			{
				"x": 1.7254169282,
				"y": 0.7330978456,
				"z": 0.1013834822,
				"element": "C" 
			},
			{
				"x": 0.8627927413,
				"y": -0.1099982321,
				"z": 0.6001732088,
				"element": "N" 
			},
			{
				"x": 1.6390597789,
				"y": 2.1909327802,
				"z": 0.2592585709,
				"element": "C" 
			},
			{
				"x": 0.5651575074,
				"y": 2.7342702603,
				"z": 0.9874199143,
				"element": "C" 
			},
			{
				"x": 0.4541297013,
				"y": 4.1113650403,
				"z": 1.1545489188,
				"element": "C" 
			},
			{
				"x": 1.4082495362,
				"y": 4.969827818,
				"z": 0.601038577,
				"element": "C" 
			},
			{
				"x": 2.4772543513,
				"y": 4.4386156172,
				"z": -0.1233564765,
				"element": "C" 
			},
			{
				"x": 2.5927721497,
				"y": 3.0606410728,
				"z": -0.2938651086,
				"element": "C" 
			},
			{
				"x": -2.4532095001,
				"y": -2.3151936724,
				"z": -2.1973664156,
				"element": "H" 
			},
			{
				"x": -2.2678675243,
				"y": -4.0640852639,
				"z": -1.9441311317,
				"element": "H" 
			},
			{
				"x": -1.3065618883,
				"y": -3.2434809408,
				"z": -3.218080899,
				"element": "H" 
			},
			{
				"x": -0.1064325433,
				"y": -2.2185696711,
				"z": 1.8198616984,
				"element": "H" 
			},
			{
				"x": 0.7830352517,
				"y": -3.4467465958,
				"z": 0.9088739873,
				"element": "H" 
			},
			{
				"x": 2.4163874542,
				"y": -3.7462856769,
				"z": -0.5249610636,
				"element": "H" 
			},
			{
				"x": 2.8248705181,
				"y": -2.9510803338,
				"z": -2.0432641413,
				"element": "H" 
			},
			{
				"x": 3.9865682739,
				"y": -2.9517451531,
				"z": -0.7094346262,
				"element": "H" 
			},
			{
				"x": -0.1683370144,
				"y": 2.0577573039,
				"z": 1.4116729067,
				"element": "H" 
			},
			{
				"x": -0.3803541242,
				"y": 4.5173998446,
				"z": 1.7190901968,
				"element": "H" 
			},
			{
				"x": 1.319229432,
				"y": 6.0441776014,
				"z": 0.7331196244,
				"element": "H" 
			},
			{
				"x": 3.2234270667,
				"y": 5.0977783627,
				"z": -0.55728856,
				"element": "H" 
			},
			{
				"x": 3.4301863811,
				"y": 2.6625822752,
				"z": -0.8605785051,
				"element": "H" 
			}
		],
		 "valence_orbital": [ 
			{
				"type": "occ",
				"energy": -0.2799,
				"method": "rhf"
			},
			{
				"type": "occ",
				"energy": -0.27042,
				"method": "rhf"
			},
			{
				"type": "occ",
				"energy": -0.26274,
				"method": "rhf"
			},
			{
				"type": "occ",
				"energy": -0.25335,
				"method": "rhf"
			},
			{
				"type": "occ",
				"energy": -0.21419,
				"method": "rhf"
			},
			{
				"type": "unocc",
				"energy": -0.05085,
				"method": "rhf"
			},
			{
				"type": "unocc",
				"energy": -0.00392,
				"method": "rhf"
			},
			{
				"type": "unocc",
				"energy": 0.00807,
				"method": "rhf"
			},
			{
				"type": "unocc",
				"energy": 0.01838,
				"method": "rhf"
			},
			{
				"type": "unocc",
				"energy": 0.02849,
				"method": "rhf"
			}
		],
		"cosmo_sigma_profile": { 
			"-0.025": 0.0,
			"-0.024": 0.0,
			"-0.023": 0.0,
			"-0.022": 0.0,
			"-0.021": 0.0,
			"-0.02": 0.0,
			"-0.019": 0.0,
			"-0.018": 0.0,
			"-0.017": 0.0,
			"-0.016": 0.0,
			"-0.015": 0.0,
			"-0.014": 0.0,
			"-0.013": 0.0,
			"-0.012": 0.0,
			"-0.011": 0.0,
			"-0.01": 0.0,
			"-0.009": 0.241107115312,
			"-0.008": 2.27148427732,
			"-0.007": 4.13816055318,
			"-0.006": 16.2550593995,
			"-0.005": 25.126129442,
			"-0.004": 28.1890517434,
			"-0.003": 28.5577956149,
			"-0.002": 21.1149473106,
			"-0.001": 20.0928310642,
			"0.0": 17.2081375741,
			"0.001": 20.7211638136,
			"0.002": 22.6441329074,
			"0.003": 22.9262518654,
			"0.004": 18.5860918438,
			"0.005": 14.0149480068,
			"0.006": 5.0793906723,
			"0.007": 5.27915915399,
			"0.008": 2.84364978467,
			"0.009": 2.67870738038,
			"0.01": 3.01367891341,
			"0.011": 4.15341598092,
			"0.012": 4.62080641405,
			"0.013": 0.732332370649,
			"0.014": 0.0,
			"0.015": 0.0,
			"0.016": 0.0,
			"0.017": 0.0,
			"0.018": 0.0,
			"0.019": 0.0,
			"0.02": 0.0,
			"0.021": 0.0,
			"0.022": 0.0,
			"0.023": 0.0,
			"0.024": 0.0,
			"0.025": 0.0
		}
	}
}
