{
	 "smiles": "NCC1=NC(=NO1)C1=CSC=C1", 
	 "Tm": 408.15, 
	 "num_atms": 19, 
	 "gaussian": { 
		 "optdone": 1, 
		 "sigma_profile": "yes", 
		 "theory": "DFT", 
		 "functional": "B3LYP", 
		 "basiset": "6-31G**", 
		 "properties": { 
			 "R2extent": 3775.9385, 
			 "electric_dipole_moment_norm": 1.57657127971, 
			 "electric_quadrupole_moment_norm": 5.90537303902, 
			 "total_energy": -908.572084311, 
			 "HOMO_LUMO_gap": 0.19152, 
			 "cosmo_polarized_energy": -10.96, 
			 "cosmo_cavitation_energy": 25.79, 
			 "cosmo_dispersion_energy": -19.73, 
			 "cosmo_repulsion_energy": 1.54, 
			 "cosmo_total_nonelectrostatic_energy": 7.59, 
			 "SMD_solvation_energy": 1.89 
		},
		"coords": [
			{
				"x": 2.7706653162,
				"y": -1.6669012866,
				"z": -0.2576056662,
				"element": "N" 
			},
			{
				"x": 1.7632884558,
				"y": -2.3571022156,
				"z": 0.5292422089,
				"element": "C" 
			},
			{
				"x": 0.3585775547,
				"y": -1.8306075335,
				"z": 0.3792152942,
				"element": "C" 
			},
			{
				"x": -0.0503928698,
				"y": -0.8444031878,
				"z": -0.3623276409,
				"element": "N" 
			},
			{
				"x": -1.4107475441,
				"y": -0.8203834967,
				"z": -0.1005540156,
				"element": "C" 
			},
			{
				"x": -1.815553708,
				"y": -1.7365020451,
				"z": 0.7510069119,
				"element": "N" 
			},
			{
				"x": -0.6270868,
				"y": -2.4188780664,
				"z": 1.0765221101,
				"element": "O" 
			},
			{
				"x": -2.3109526428,
				"y": 0.1466665926,
				"z": -0.7241841103,
				"element": "C" 
			},
			{
				"x": -3.6658091652,
				"y": 0.2092623964,
				"z": -0.4953218898,
				"element": "C" 
			},
			{
				"x": -4.4049259364,
				"y": 1.4755467971,
				"z": -1.4029909192,
				"element": "S" 
			},
			{
				"x": -2.8825556381,
				"y": 1.934097073,
				"z": -2.1034809919,
				"element": "C" 
			},
			{
				"x": -1.8650321349,
				"y": 1.1447949839,
				"z": -1.6532790232,
				"element": "C" 
			},
			{
				"x": 2.5166338706,
				"y": -1.705292623,
				"z": -1.2417981562,
				"element": "H" 
			},
			{
				"x": 2.7704814645,
				"y": -0.678753924,
				"z": -0.0163502089,
				"element": "H" 
			},
			{
				"x": 1.7601691405,
				"y": -3.4223957026,
				"z": 0.2678221622,
				"element": "H" 
			},
			{
				"x": 2.0343236743,
				"y": -2.3137966194,
				"z": 1.5912519935,
				"element": "H" 
			},
			{
				"x": -4.2523163363,
				"y": -0.4226673671,
				"z": 0.1561010987,
				"element": "H" 
			},
			{
				"x": -2.8345929233,
				"y": 2.7567579796,
				"z": -2.8029101446,
				"element": "H" 
			},
			{
				"x": -0.8302737777,
				"y": 1.2477582453,
				"z": -1.9544590126,
				"element": "H" 
			}
		],
		 "valence_orbital": [ 
			{
				"type": "occ",
				"energy": -0.30218,
				"method": "rhf"
			},
			{
				"type": "occ",
				"energy": -0.29778,
				"method": "rhf"
			},
			{
				"type": "occ",
				"energy": -0.25796,
				"method": "rhf"
			},
			{
				"type": "occ",
				"energy": -0.25499,
				"method": "rhf"
			},
			{
				"type": "occ",
				"energy": -0.23748,
				"method": "rhf"
			},
			{
				"type": "unocc",
				"energy": -0.04596,
				"method": "rhf"
			},
			{
				"type": "unocc",
				"energy": -0.00585,
				"method": "rhf"
			},
			{
				"type": "unocc",
				"energy": 0.01868,
				"method": "rhf"
			},
			{
				"type": "unocc",
				"energy": 0.02459,
				"method": "rhf"
			},
			{
				"type": "unocc",
				"energy": 0.07634,
				"method": "rhf"
			}
		],
		"cosmo_sigma_profile": { 
			"-0.025": 0.0,
			"-0.024": 0.0,
			"-0.023": 0.0,
			"-0.022": 0.0,
			"-0.021": 0.0,
			"-0.02": 0.0,
			"-0.019": 0.0,
			"-0.018": 0.0,
			"-0.017": 0.0,
			"-0.016": 0.0,
			"-0.015": 0.0,
			"-0.014": 0.0,
			"-0.013": 0.0,
			"-0.012": 0.0,
			"-0.011": 0.464515853833,
			"-0.01": 2.72910109122,
			"-0.009": 5.06146757113,
			"-0.008": 6.74720033532,
			"-0.007": 14.153223569,
			"-0.006": 12.0556467015,
			"-0.005": 10.7606797249,
			"-0.004": 10.7956745873,
			"-0.003": 11.4429580589,
			"-0.002": 8.67550678241,
			"-0.001": 11.9664911692,
			"0.0": 12.1682932918,
			"0.001": 15.3439655414,
			"0.002": 19.4747642121,
			"0.003": 21.4882043537,
			"0.004": 9.57376285963,
			"0.005": 6.01204140388,
			"0.006": 6.44719717985,
			"0.007": 5.25959819729,
			"0.008": 3.88692954094,
			"0.009": 3.07279575971,
			"0.01": 2.3431737987,
			"0.011": 2.79139222219,
			"0.012": 1.61947924742,
			"0.013": 1.24190593393,
			"0.014": 0.280103361862,
			"0.015": 0.797667246897,
			"0.016": 0.886203921115,
			"0.017": 0.545519066439,
			"0.018": 0.554245530626,
			"0.019": 0.0828319279427,
			"0.02": 0.0,
			"0.021": 0.0,
			"0.022": 0.0,
			"0.023": 0.0,
			"0.024": 0.0,
			"0.025": 0.0
		}
	}
}
