{
	 "smiles": "COC1=CC=C(NC(=O)NN)C=C1", 
	 "Tm": 420.15, 
	 "num_atms": 24, 
	 "gaussian": { 
		 "optdone": 1, 
		 "sigma_profile": "yes", 
		 "theory": "DFT", 
		 "functional": "B3LYP", 
		 "basiset": "6-31G**", 
		 "properties": { 
			 "R2extent": 3612.6629, 
			 "electric_dipole_moment_norm": 3.89053328607, 
			 "electric_quadrupole_moment_norm": 10.5312255213, 
			 "total_energy": -626.159433131, 
			 "HOMO_LUMO_gap": 0.19418, 
			 "cosmo_polarized_energy": -15.08, 
			 "cosmo_cavitation_energy": 28.19, 
			 "cosmo_dispersion_energy": -20.83, 
			 "cosmo_repulsion_energy": 1.67, 
			 "cosmo_total_nonelectrostatic_energy": 9.03, 
			 "SMD_solvation_energy": 6.87 
		},
		"coords": [
			{
				"x": -2.3536089624,
				"y": -1.0387232792,
				"z": 3.7074111381,
				"element": "C" 
			},
			{
				"x": -2.0115180183,
				"y": 0.1539990416,
				"z": 3.0204601703,
				"element": "O" 
			},
			{
				"x": -1.2135969358,
				"y": 0.0561546845,
				"z": 1.9171087488,
				"element": "C" 
			},
			{
				"x": -0.9093534279,
				"y": 1.2639444842,
				"z": 1.2726454662,
				"element": "C" 
			},
			{
				"x": -0.1155199814,
				"y": 1.2792259159,
				"z": 0.1332094322,
				"element": "C" 
			},
			{
				"x": 0.4265931058,
				"y": 0.0847519881,
				"z": -0.3742663131,
				"element": "C" 
			},
			{
				"x": 1.2179914044,
				"y": 0.054955845,
				"z": -1.5479160825,
				"element": "N" 
			},
			{
				"x": 2.2506297337,
				"y": 0.8851221568,
				"z": -1.9544548964,
				"element": "C" 
			},
			{
				"x": 2.8232056706,
				"y": 0.7093394908,
				"z": -3.0250910634,
				"element": "O" 
			},
			{
				"x": 2.5902485756,
				"y": 1.9146680645,
				"z": -1.091591276,
				"element": "N" 
			},
			{
				"x": 3.7799794349,
				"y": 2.6350493467,
				"z": -1.3574936992,
				"element": "N" 
			},
			{
				"x": 0.1210642867,
				"y": -1.1157705344,
				"z": 0.2751468753,
				"element": "C" 
			},
			{
				"x": -0.7011271099,
				"y": -1.1405895589,
				"z": 1.4034692539,
				"element": "C" 
			},
			{
				"x": -2.9123018548,
				"y": -1.7314164435,
				"z": 3.0644031965,
				"element": "H" 
			},
			{
				"x": -1.4647938791,
				"y": -1.5513748008,
				"z": 4.0980343924,
				"element": "H" 
			},
			{
				"x": -2.9873271178,
				"y": -0.7353085036,
				"z": 4.5420510963,
				"element": "H" 
			},
			{
				"x": -1.3265383923,
				"y": 2.1826519763,
				"z": 1.6718047091,
				"element": "H" 
			},
			{
				"x": 0.0804559485,
				"y": 2.2164145309,
				"z": -0.3756949989,
				"element": "H" 
			},
			{
				"x": 1.1201319297,
				"y": -0.7412952799,
				"z": -2.1616275326,
				"element": "H" 
			},
			{
				"x": 2.4281894381,
				"y": 1.7696477421,
				"z": -0.1034838467,
				"element": "H" 
			},
			{
				"x": 4.3883611618,
				"y": 2.0165113409,
				"z": -1.8965759025,
				"element": "H" 
			},
			{
				"x": 3.5337682043,
				"y": 3.3888913942,
				"z": -1.9970795262,
				"element": "H" 
			},
			{
				"x": 0.5331395727,
				"y": -2.0468439181,
				"z": -0.1047587625,
				"element": "H" 
			},
			{
				"x": -0.920072787,
				"y": -2.0913056839,
				"z": 1.8746894207,
				"element": "H" 
			}
		],
		 "valence_orbital": [ 
			{
				"type": "occ",
				"energy": -0.2758,
				"method": "rhf"
			},
			{
				"type": "occ",
				"energy": -0.2635,
				"method": "rhf"
			},
			{
				"type": "occ",
				"energy": -0.26133,
				"method": "rhf"
			},
			{
				"type": "occ",
				"energy": -0.24659,
				"method": "rhf"
			},
			{
				"type": "occ",
				"energy": -0.20841,
				"method": "rhf"
			},
			{
				"type": "unocc",
				"energy": -0.01423,
				"method": "rhf"
			},
			{
				"type": "unocc",
				"energy": 0.00011,
				"method": "rhf"
			},
			{
				"type": "unocc",
				"energy": 0.06419,
				"method": "rhf"
			},
			{
				"type": "unocc",
				"energy": 0.08405,
				"method": "rhf"
			},
			{
				"type": "unocc",
				"energy": 0.09718,
				"method": "rhf"
			}
		],
		"cosmo_sigma_profile": { 
			"-0.025": 0.0,
			"-0.024": 0.0,
			"-0.023": 0.0,
			"-0.022": 0.0,
			"-0.021": 0.0,
			"-0.02": 0.0,
			"-0.019": 0.0,
			"-0.018": 0.0,
			"-0.017": 0.0,
			"-0.016": 0.0,
			"-0.015": 0.0220227221858,
			"-0.014": 0.707059175658,
			"-0.013": 0.969487739466,
			"-0.012": 1.76350245016,
			"-0.011": 3.12214525656,
			"-0.01": 3.25306830852,
			"-0.009": 4.16896648492,
			"-0.008": 4.54683349637,
			"-0.007": 5.32193097867,
			"-0.006": 12.80107708,
			"-0.005": 19.071537918,
			"-0.004": 18.5948196481,
			"-0.003": 17.7712719918,
			"-0.002": 12.1724577528,
			"-0.001": 9.28042107478,
			"0.0": 11.3077004267,
			"0.001": 11.6522704932,
			"0.002": 12.2396695805,
			"0.003": 13.9336503447,
			"0.004": 15.4050732629,
			"0.005": 11.7902972469,
			"0.006": 2.67380731121,
			"0.007": 3.69804107721,
			"0.008": 3.52812725689,
			"0.009": 2.97277132905,
			"0.01": 3.73648150321,
			"0.011": 2.26063910463,
			"0.012": 1.87628615847,
			"0.013": 3.81314136118,
			"0.014": 6.33899592688,
			"0.015": 1.0705727908,
			"0.016": 0.625342272234,
			"0.017": 0.460427883101,
			"0.018": 0.00348428720934,
			"0.019": 0.0,
			"0.02": 0.0,
			"0.021": 0.0,
			"0.022": 0.0,
			"0.023": 0.0,
			"0.024": 0.0,
			"0.025": 0.0
		}
	}
}
