{
	 "smiles": "CCCCCCCCCCCCCCBr", 
	 "Tm": 278.45, 
	 "num_atms": 44, 
	 "gaussian": { 
		 "optdone": 1, 
		 "sigma_profile": "yes", 
		 "theory": "DFT", 
		 "functional": "B3LYP", 
		 "basiset": "6-31G**", 
		 "properties": { 
			 "R2extent": 14864.3294, 
			 "electric_dipole_moment_norm": 2.48642335293, 
			 "electric_quadrupole_moment_norm": 23.4226716367, 
			 "total_energy": -3122.41669554, 
			 "HOMO_LUMO_gap": 0.27054, 
			 "cosmo_polarized_energy": -4.14, 
			 "cosmo_cavitation_energy": 45.36, 
			 "cosmo_dispersion_energy": -31.28, 
			 "cosmo_repulsion_energy": 2.56, 
			 "cosmo_total_nonelectrostatic_energy": 16.63, 
			 "SMD_solvation_energy": 4.73 
		},
		"coords": [
			{
				"x": 1.9839685974,
				"y": 4.0253903241,
				"z": -1.0686438791,
				"element": "C" 
			},
			{
				"x": 1.3904201448,
				"y": 3.0752616088,
				"z": -2.1158045654,
				"element": "C" 
			},
			{
				"x": 0.1362002002,
				"y": 3.6271151331,
				"z": -2.8209155912,
				"element": "C" 
			},
			{
				"x": -1.1421298654,
				"y": 3.7460073418,
				"z": -1.9591658567,
				"element": "C" 
			},
			{
				"x": -2.0904552435,
				"y": 2.5312740113,
				"z": -2.002738919,
				"element": "C" 
			},
			{
				"x": -1.5769240231,
				"y": 1.2096985508,
				"z": -1.404538796,
				"element": "C" 
			},
			{
				"x": -1.3151385926,
				"y": 1.2586692229,
				"z": 0.1086070622,
				"element": "C" 
			},
			{
				"x": -0.9872861065,
				"y": -0.1036722922,
				"z": 0.7435245727,
				"element": "C" 
			},
			{
				"x": 0.3461464029,
				"y": -0.7151607199,
				"z": 0.2854973876,
				"element": "C" 
			},
			{
				"x": 0.7444808763,
				"y": -2.0027082111,
				"z": 1.0261561251,
				"element": "C" 
			},
			{
				"x": -0.1762562491,
				"y": -3.2042575746,
				"z": 0.767351019,
				"element": "C" 
			},
			{
				"x": 0.3074739476,
				"y": -4.4833262821,
				"z": 1.4665677561,
				"element": "C" 
			},
			{
				"x": -0.629771941,
				"y": -5.6983164567,
				"z": 1.322383646,
				"element": "C" 
			},
			{
				"x": -0.718840546,
				"y": -6.2059052736,
				"z": -0.110387607,
				"element": "C" 
			},
			{
				"x": -1.8765691409,
				"y": -7.8117773637,
				"z": -0.2454685317,
				"element": "Br" 
			},
			{
				"x": 2.2610079495,
				"y": 4.9848558607,
				"z": -1.5209533023,
				"element": "H" 
			},
			{
				"x": 2.8848312498,
				"y": 3.6000141345,
				"z": -0.613834478,
				"element": "H" 
			},
			{
				"x": 1.277534811,
				"y": 4.2366763882,
				"z": -0.2586341815,
				"element": "H" 
			},
			{
				"x": 2.1541232513,
				"y": 2.8711515848,
				"z": -2.8776165248,
				"element": "H" 
			},
			{
				"x": 1.1686916741,
				"y": 2.1093762823,
				"z": -1.6468496027,
				"element": "H" 
			},
			{
				"x": -0.0862177853,
				"y": 3.0053521972,
				"z": -3.6989695675,
				"element": "H" 
			},
			{
				"x": 0.3899608208,
				"y": 4.6190340886,
				"z": -3.2187944187,
				"element": "H" 
			},
			{
				"x": -0.8767126021,
				"y": 3.9790501101,
				"z": -0.920406249,
				"element": "H" 
			},
			{
				"x": -1.7176437667,
				"y": 4.6115545395,
				"z": -2.3103613687,
				"element": "H" 
			},
			{
				"x": -3.0215739514,
				"y": 2.8037870518,
				"z": -1.4861128937,
				"element": "H" 
			},
			{
				"x": -2.3700728592,
				"y": 2.3536992794,
				"z": -3.0504166799,
				"element": "H" 
			},
			{
				"x": -2.3293363936,
				"y": 0.432785451,
				"z": -1.6012491308,
				"element": "H" 
			},
			{
				"x": -0.6733461807,
				"y": 0.8884568681,
				"z": -1.9365058836,
				"element": "H" 
			},
			{
				"x": -0.4986089903,
				"y": 1.9599475734,
				"z": 0.327205279,
				"element": "H" 
			},
			{
				"x": -2.2062603504,
				"y": 1.6700052437,
				"z": 0.6028123203,
				"element": "H" 
			},
			{
				"x": -1.8104776663,
				"y": -0.7998555852,
				"z": 0.5338059143,
				"element": "H" 
			},
			{
				"x": -0.9600364561,
				"y": 0.0139496033,
				"z": 1.8358731227,
				"element": "H" 
			},
			{
				"x": 1.1403850778,
				"y": 0.0304789649,
				"z": 0.4292274363,
				"element": "H" 
			},
			{
				"x": 0.3142995532,
				"y": -0.9199356199,
				"z": -0.7929726759,
				"element": "H" 
			},
			{
				"x": 1.7677494228,
				"y": -2.2755487388,
				"z": 0.7338750152,
				"element": "H" 
			},
			{
				"x": 0.7819173754,
				"y": -1.8029680414,
				"z": 2.10679122,
				"element": "H" 
			},
			{
				"x": -0.2456698495,
				"y": -3.3683944414,
				"z": -0.3169014652,
				"element": "H" 
			},
			{
				"x": -1.1951556845,
				"y": -2.977203855,
				"z": 1.1075152059,
				"element": "H" 
			},
			{
				"x": 1.3087769003,
				"y": -4.7472010339,
				"z": 1.0975476707,
				"element": "H" 
			},
			{
				"x": 0.4275151464,
				"y": -4.2772672258,
				"z": 2.5382233331,
				"element": "H" 
			},
			{
				"x": -0.2711937015,
				"y": -6.5118661006,
				"z": 1.9620864867,
				"element": "H" 
			},
			{
				"x": -1.6339662857,
				"y": -5.4389189981,
				"z": 1.6776627255,
				"element": "H" 
			},
			{
				"x": 0.2509068338,
				"y": -6.5198557359,
				"z": -0.4986934375,
				"element": "H" 
			},
			{
				"x": -1.1647460042,
				"y": -5.4836518644,
				"z": -0.7927776925,
				"element": "H" 
			}
		],
		 "valence_orbital": [ 
			{
				"type": "occ",
				"energy": -0.30512,
				"method": "rhf"
			},
			{
				"type": "occ",
				"energy": -0.30111,
				"method": "rhf"
			},
			{
				"type": "occ",
				"energy": -0.30051,
				"method": "rhf"
			},
			{
				"type": "occ",
				"energy": -0.26713,
				"method": "rhf"
			},
			{
				"type": "occ",
				"energy": -0.26656,
				"method": "rhf"
			},
			{
				"type": "unocc",
				"energy": 0.00398,
				"method": "rhf"
			},
			{
				"type": "unocc",
				"energy": 0.07279,
				"method": "rhf"
			},
			{
				"type": "unocc",
				"energy": 0.08923,
				"method": "rhf"
			},
			{
				"type": "unocc",
				"energy": 0.09788,
				"method": "rhf"
			},
			{
				"type": "unocc",
				"energy": 0.09935,
				"method": "rhf"
			}
		],
		"cosmo_sigma_profile": { 
			"-0.025": 0.0,
			"-0.024": 0.0,
			"-0.023": 0.0,
			"-0.022": 0.0,
			"-0.021": 0.0,
			"-0.02": 0.0,
			"-0.019": 0.0,
			"-0.018": 0.0,
			"-0.017": 0.0,
			"-0.016": 0.0,
			"-0.015": 0.0,
			"-0.014": 0.0,
			"-0.013": 0.0,
			"-0.012": 0.0,
			"-0.011": 0.0,
			"-0.01": 0.0,
			"-0.009": 0.0,
			"-0.008": 0.0,
			"-0.007": 0.47381147542,
			"-0.006": 3.68246131748,
			"-0.005": 4.81387370983,
			"-0.004": 7.10755853236,
			"-0.003": 16.3762752922,
			"-0.002": 44.361879755,
			"-0.001": 76.0650234794,
			"0.0": 76.2473015246,
			"0.001": 61.8159592582,
			"0.002": 27.787765469,
			"0.003": 4.15640361692,
			"0.004": 5.08768458977,
			"0.005": 5.66139847545,
			"0.006": 9.59902887094,
			"0.007": 7.77247029504,
			"0.008": 0.0280804213621,
			"0.009": 0.0,
			"0.01": 0.0,
			"0.011": 0.0,
			"0.012": 0.0,
			"0.013": 0.0,
			"0.014": 0.0,
			"0.015": 0.0,
			"0.016": 0.0,
			"0.017": 0.0,
			"0.018": 0.0,
			"0.019": 0.0,
			"0.02": 0.0,
			"0.021": 0.0,
			"0.022": 0.0,
			"0.023": 0.0,
			"0.024": 0.0,
			"0.025": 0.0
		}
	}
}
