{
	 "smiles": "CC(C)OC1=CC=C(C=C1)C(N)=S", 
	 "Tm": 426.15, 
	 "num_atms": 26, 
	 "gaussian": { 
		 "optdone": 1, 
		 "sigma_profile": "yes", 
		 "theory": "DFT", 
		 "functional": "B3LYP", 
		 "basiset": "6-31G**", 
		 "properties": { 
			 "R2extent": 4533.961, 
			 "electric_dipole_moment_norm": 4.91425989748, 
			 "electric_quadrupole_moment_norm": 32.6626098731, 
			 "total_energy": -917.070567294, 
			 "HOMO_LUMO_gap": 0.14857, 
			 "cosmo_polarized_energy": -16.51, 
			 "cosmo_cavitation_energy": 30.4, 
			 "cosmo_dispersion_energy": -22.7, 
			 "cosmo_repulsion_energy": 1.77, 
			 "cosmo_total_nonelectrostatic_energy": 9.47, 
			 "SMD_solvation_energy": 4.67 
		},
		"coords": [
			{
				"x": 3.3229873873,
				"y": 0.2454350752,
				"z": -0.8714781295,
				"element": "C" 
			},
			{
				"x": 2.4242102114,
				"y": 1.2213579836,
				"z": -0.1088086426,
				"element": "C" 
			},
			{
				"x": 2.361980904,
				"y": 0.9906939862,
				"z": 1.4031166838,
				"element": "C" 
			},
			{
				"x": 1.1147101039,
				"y": 1.363752315,
				"z": -0.7080048644,
				"element": "O" 
			},
			{
				"x": 0.1924594007,
				"y": 0.3726897306,
				"z": -0.8116969448,
				"element": "C" 
			},
			{
				"x": 0.2999366211,
				"y": -0.9392184056,
				"z": -0.3204824693,
				"element": "C" 
			},
			{
				"x": -0.7413733823,
				"y": -1.8421857286,
				"z": -0.5107293992,
				"element": "C" 
			},
			{
				"x": -1.9223021198,
				"y": -1.4787033503,
				"z": -1.1727811133,
				"element": "C" 
			},
			{
				"x": -2.015669032,
				"y": -0.1614559803,
				"z": -1.6663907619,
				"element": "C" 
			},
			{
				"x": -0.9805508738,
				"y": 0.7437756786,
				"z": -1.4942627278,
				"element": "C" 
			},
			{
				"x": -3.021308914,
				"y": -2.458508119,
				"z": -1.344833902,
				"element": "C" 
			},
			{
				"x": -4.2570334657,
				"y": -1.9228563505,
				"z": -1.5026362557,
				"element": "N" 
			},
			{
				"x": -2.7977650988,
				"y": -4.1162513542,
				"z": -1.3815222061,
				"element": "S" 
			},
			{
				"x": 4.354368834,
				"y": 0.357609599,
				"z": -0.5217262612,
				"element": "H" 
			},
			{
				"x": 3.0368778869,
				"y": -0.799589277,
				"z": -0.7357720969,
				"element": "H" 
			},
			{
				"x": 3.3000357479,
				"y": 0.470757712,
				"z": -1.9412768081,
				"element": "H" 
			},
			{
				"x": 2.8306214341,
				"y": 2.2262714593,
				"z": -0.2654252204,
				"element": "H" 
			},
			{
				"x": 3.3588913093,
				"y": 1.1378302367,
				"z": 1.8311987989,
				"element": "H" 
			},
			{
				"x": 2.0294328594,
				"y": -0.0138811247,
				"z": 1.6729208076,
				"element": "H" 
			},
			{
				"x": 1.6832624298,
				"y": 1.7126925979,
				"z": 1.8656399592,
				"element": "H" 
			},
			{
				"x": 1.1826175142,
				"y": -1.2686923773,
				"z": 0.2088272822,
				"element": "H" 
			},
			{
				"x": -0.6515016993,
				"y": -2.856583515,
				"z": -0.1373396028,
				"element": "H" 
			},
			{
				"x": -2.8872765253,
				"y": 0.1486474184,
				"z": -2.2356111158,
				"element": "H" 
			},
			{
				"x": -1.0444950345,
				"y": 1.7512773191,
				"z": -1.8915499578,
				"element": "H" 
			},
			{
				"x": -5.0357140234,
				"y": -2.5596826292,
				"z": -1.5861522157,
				"element": "H" 
			},
			{
				"x": -4.4474024749,
				"y": -0.9666828997,
				"z": -1.2420228362,
				"element": "H" 
			}
		],
		 "valence_orbital": [ 
			{
				"type": "occ",
				"energy": -0.31752,
				"method": "rhf"
			},
			{
				"type": "occ",
				"energy": -0.2606,
				"method": "rhf"
			},
			{
				"type": "occ",
				"energy": -0.23663,
				"method": "rhf"
			},
			{
				"type": "occ",
				"energy": -0.21537,
				"method": "rhf"
			},
			{
				"type": "occ",
				"energy": -0.19852,
				"method": "rhf"
			},
			{
				"type": "unocc",
				"energy": -0.04995,
				"method": "rhf"
			},
			{
				"type": "unocc",
				"energy": -0.01041,
				"method": "rhf"
			},
			{
				"type": "unocc",
				"energy": 0.03548,
				"method": "rhf"
			},
			{
				"type": "unocc",
				"energy": 0.07272,
				"method": "rhf"
			},
			{
				"type": "unocc",
				"energy": 0.08084,
				"method": "rhf"
			}
		],
		"cosmo_sigma_profile": { 
			"-0.025": 0.0,
			"-0.024": 0.0,
			"-0.023": 0.0,
			"-0.022": 0.0,
			"-0.021": 0.0,
			"-0.02": 0.0,
			"-0.019": 0.0,
			"-0.018": 0.0,
			"-0.017": 0.0,
			"-0.016": 0.0493966203383,
			"-0.015": 1.20237914426,
			"-0.014": 2.35783022326,
			"-0.013": 2.63786507868,
			"-0.012": 2.52829808791,
			"-0.011": 2.41537714619,
			"-0.01": 2.30410954415,
			"-0.009": 2.09037626157,
			"-0.008": 2.45488638537,
			"-0.007": 4.80064904017,
			"-0.006": 7.24711675742,
			"-0.005": 12.6438468709,
			"-0.004": 19.2143556645,
			"-0.003": 17.972119065,
			"-0.002": 17.7658517833,
			"-0.001": 18.0337618537,
			"0.0": 22.9535951395,
			"0.001": 14.9943980438,
			"0.002": 12.0903079369,
			"0.003": 14.4587563279,
			"0.004": 16.4338623322,
			"0.005": 7.43851496291,
			"0.006": 5.70235776596,
			"0.007": 6.06572336139,
			"0.008": 6.11342836682,
			"0.009": 7.90847897437,
			"0.01": 6.40610760462,
			"0.011": 3.83851257064,
			"0.012": 2.80137779949,
			"0.013": 0.261972640936,
			"0.014": 0.0,
			"0.015": 0.0,
			"0.016": 0.0,
			"0.017": 0.0,
			"0.018": 0.0,
			"0.019": 0.0,
			"0.02": 0.0,
			"0.021": 0.0,
			"0.022": 0.0,
			"0.023": 0.0,
			"0.024": 0.0,
			"0.025": 0.0
		}
	}
}
