{
	 "smiles": "CSC1=NC(N)=NC(=N1)C1=NC=CC=C1", 
	 "Tm": 467.15, 
	 "num_atms": 24, 
	 "gaussian": { 
		 "optdone": 1, 
		 "sigma_profile": "yes", 
		 "theory": "DFT", 
		 "functional": "B3LYP", 
		 "basiset": "6-31G**", 
		 "properties": { 
			 "R2extent": 4753.3132, 
			 "electric_dipole_moment_norm": 1.49299227727, 
			 "electric_quadrupole_moment_norm": 20.8073826708, 
			 "total_energy": -1020.35080991, 
			 "HOMO_LUMO_gap": 0.17399, 
			 "cosmo_polarized_energy": -16.38, 
			 "cosmo_cavitation_energy": 30.79, 
			 "cosmo_dispersion_energy": -23.34, 
			 "cosmo_repulsion_energy": 1.81, 
			 "cosmo_total_nonelectrostatic_energy": 9.26, 
			 "SMD_solvation_energy": 0.81 
		},
		"coords": [
			{
				"x": 2.4366259774,
				"y": 2.936889783,
				"z": 2.9917577398,
				"element": "C" 
			},
			{
				"x": 0.7654669818,
				"y": 2.8747173851,
				"z": 2.2630716189,
				"element": "S" 
			},
			{
				"x": 0.6564054652,
				"y": 1.1792023347,
				"z": 1.7687029506,
				"element": "C" 
			},
			{
				"x": 1.6825410356,
				"y": 0.3613584739,
				"z": 1.9899810315,
				"element": "N" 
			},
			{
				"x": 1.4650575997,
				"y": -0.9023408905,
				"z": 1.5633283705,
				"element": "C" 
			},
			{
				"x": 2.4604421357,
				"y": -1.7960293047,
				"z": 1.7511587356,
				"element": "N" 
			},
			{
				"x": 0.3454626948,
				"y": -1.3517336448,
				"z": 0.967443422,
				"element": "N" 
			},
			{
				"x": -0.6032747,
				"y": -0.4281721045,
				"z": 0.8071629027,
				"element": "C" 
			},
			{
				"x": -0.5065902959,
				"y": 0.8570737992,
				"z": 1.1879174374,
				"element": "N" 
			},
			{
				"x": -1.8861979649,
				"y": -0.8338013208,
				"z": 0.153318066,
				"element": "C" 
			},
			{
				"x": -2.0039135705,
				"y": -2.1140208283,
				"z": -0.2342293542,
				"element": "N" 
			},
			{
				"x": -3.145419394,
				"y": -2.4823404035,
				"z": -0.8179422142,
				"element": "C" 
			},
			{
				"x": -4.2175088681,
				"y": -1.6147580262,
				"z": -1.0464019837,
				"element": "C" 
			},
			{
				"x": -4.0877982056,
				"y": -0.2875685116,
				"z": -0.6413622983,
				"element": "C" 
			},
			{
				"x": -2.902861963,
				"y": 0.1144383333,
				"z": -0.0302232377,
				"element": "C" 
			},
			{
				"x": 2.5772566913,
				"y": 3.9676656412,
				"z": 3.3243123334,
				"element": "H" 
			},
			{
				"x": 2.5136877652,
				"y": 2.2580445666,
				"z": 3.8414972678,
				"element": "H" 
			},
			{
				"x": 3.1923246059,
				"y": 2.6791754743,
				"z": 2.2492383703,
				"element": "H" 
			},
			{
				"x": 2.3262280673,
				"y": -2.7450809886,
				"z": 1.4445720006,
				"element": "H" 
			},
			{
				"x": 3.3152536382,
				"y": -1.5048350296,
				"z": 2.1938565608,
				"element": "H" 
			},
			{
				"x": -3.2114655389,
				"y": -3.5262891848,
				"z": -1.1211851492,
				"element": "H" 
			},
			{
				"x": -5.1221234339,
				"y": -1.9745331772,
				"z": -1.5268888503,
				"element": "H" 
			},
			{
				"x": -4.8941345089,
				"y": 0.4231935687,
				"z": -0.7978415553,
				"element": "H" 
			},
			{
				"x": -2.7446642145,
				"y": 1.1318440551,
				"z": 0.3053558351,
				"element": "H" 
			}
		],
		 "valence_orbital": [ 
			{
				"type": "occ",
				"energy": -0.261,
				"method": "rhf"
			},
			{
				"type": "occ",
				"energy": -0.25781,
				"method": "rhf"
			},
			{
				"type": "occ",
				"energy": -0.25016,
				"method": "rhf"
			},
			{
				"type": "occ",
				"energy": -0.24491,
				"method": "rhf"
			},
			{
				"type": "occ",
				"energy": -0.23283,
				"method": "rhf"
			},
			{
				"type": "unocc",
				"energy": -0.05884,
				"method": "rhf"
			},
			{
				"type": "unocc",
				"energy": -0.02022,
				"method": "rhf"
			},
			{
				"type": "unocc",
				"energy": -0.00812,
				"method": "rhf"
			},
			{
				"type": "unocc",
				"energy": 0.02758,
				"method": "rhf"
			},
			{
				"type": "unocc",
				"energy": 0.039,
				"method": "rhf"
			}
		],
		"cosmo_sigma_profile": { 
			"-0.025": 0.0,
			"-0.024": 0.0,
			"-0.023": 0.0,
			"-0.022": 0.0,
			"-0.021": 0.0,
			"-0.02": 0.0,
			"-0.019": 0.0,
			"-0.018": 0.0,
			"-0.017": 0.0,
			"-0.016": 0.0,
			"-0.015": 0.910343384824,
			"-0.014": 1.87302702407,
			"-0.013": 2.52100635894,
			"-0.012": 2.04858709116,
			"-0.011": 1.68852952912,
			"-0.01": 2.14199989824,
			"-0.009": 1.48185641739,
			"-0.008": 2.75271773213,
			"-0.007": 8.77552325586,
			"-0.006": 13.6268067631,
			"-0.005": 14.1066841515,
			"-0.004": 14.0880166322,
			"-0.003": 14.713720399,
			"-0.002": 17.7434125616,
			"-0.001": 16.9560732179,
			"0.0": 16.5181189633,
			"0.001": 23.7592510754,
			"0.002": 23.8020536095,
			"0.003": 12.3023292207,
			"0.004": 11.1339073149,
			"0.005": 10.0144854959,
			"0.006": 8.52413218225,
			"0.007": 7.78596430176,
			"0.008": 5.71246355768,
			"0.009": 2.98452625499,
			"0.01": 1.56832600697,
			"0.011": 1.00343181513,
			"0.012": 1.1553197423,
			"0.013": 1.13403660832,
			"0.014": 1.33327305566,
			"0.015": 0.943249169563,
			"0.016": 0.452598944662,
			"0.017": 1.07222224311,
			"0.018": 0.751660538899,
			"0.019": 0.967093031479,
			"0.02": 0.570247392594,
			"0.021": 0.182077853041,
			"0.022": 0.0,
			"0.023": 0.0,
			"0.024": 0.0,
			"0.025": 0.0
		}
	}
}
