{
	 "smiles": "C1CSC(CN1)C1=CC=CC=C1", 
	 "Tm": 334.15, 
	 "num_atms": 25, 
	 "gaussian": { 
		 "optdone": 1, 
		 "sigma_profile": "yes", 
		 "theory": "DFT", 
		 "functional": "B3LYP", 
		 "basiset": "6-31G**", 
		 "properties": { 
			 "R2extent": 2891.9763, 
			 "electric_dipole_moment_norm": 0.74553313139, 
			 "electric_quadrupole_moment_norm": 10.045457233, 
			 "total_energy": -841.825706605, 
			 "HOMO_LUMO_gap": 0.20572, 
			 "cosmo_polarized_energy": -21.14, 
			 "cosmo_cavitation_energy": 27.84, 
			 "cosmo_dispersion_energy": -20.96, 
			 "cosmo_repulsion_energy": 1.62, 
			 "cosmo_total_nonelectrostatic_energy": 8.49, 
			 "SMD_solvation_energy": 1.19 
		},
		"coords": [
			{
				"x": -0.500271603,
				"y": -0.2261169849,
				"z": -3.2000008556,
				"element": "C" 
			},
			{
				"x": -1.4960098367,
				"y": 0.4126936407,
				"z": -2.207838883,
				"element": "C" 
			},
			{
				"x": -0.6996661373,
				"y": 0.8494788225,
				"z": -0.6175069729,
				"element": "S" 
			},
			{
				"x": -0.1071224532,
				"y": -0.8443824743,
				"z": -0.1220719856,
				"element": "C" 
			},
			{
				"x": -0.0022579242,
				"y": -1.7794667593,
				"z": -1.3749351463,
				"element": "C" 
			},
			{
				"x": 0.4689262131,
				"y": -1.1526701236,
				"z": -2.5988854261,
				"element": "N" 
			},
			{
				"x": 1.2027385541,
				"y": -0.7555382022,
				"z": 0.6417245174,
				"element": "C" 
			},
			{
				"x": 2.263252909,
				"y": 0.0703783176,
				"z": 0.2397369251,
				"element": "C" 
			},
			{
				"x": 3.4804863089,
				"y": 0.0519463009,
				"z": 0.9229495612,
				"element": "C" 
			},
			{
				"x": 3.6589832512,
				"y": -0.7857365043,
				"z": 2.0246914712,
				"element": "C" 
			},
			{
				"x": 2.6082118886,
				"y": -1.6050713499,
				"z": 2.4412156421,
				"element": "C" 
			},
			{
				"x": 1.3938457752,
				"y": -1.5876366879,
				"z": 1.7552221066,
				"element": "C" 
			},
			{
				"x": 0.0598680626,
				"y": 0.5602232648,
				"z": -3.7153230264,
				"element": "H" 
			},
			{
				"x": -1.0826314295,
				"y": -0.758917116,
				"z": -3.9668650754,
				"element": "H" 
			},
			{
				"x": -1.9022476257,
				"y": 1.3453506299,
				"z": -2.6092999922,
				"element": "H" 
			},
			{
				"x": -2.346011423,
				"y": -0.2489055637,
				"z": -2.0140306805,
				"element": "H" 
			},
			{
				"x": -0.8587673694,
				"y": -1.2714917867,
				"z": 0.5506142465,
				"element": "H" 
			},
			{
				"x": -0.9857247093,
				"y": -2.219715209,
				"z": -1.5752374695,
				"element": "H" 
			},
			{
				"x": 0.6640432947,
				"y": -2.6092563492,
				"z": -1.1142362367,
				"element": "H" 
			},
			{
				"x": 1.3433834374,
				"y": -0.6715846008,
				"z": -2.4140688413,
				"element": "H" 
			},
			{
				"x": 2.1214052978,
				"y": 0.7520598922,
				"z": -0.5928593005,
				"element": "H" 
			},
			{
				"x": 4.2881552928,
				"y": 0.7015540486,
				"z": 0.5970993279,
				"element": "H" 
			},
			{
				"x": 4.6044727008,
				"y": -0.7936125661,
				"z": 2.5593014185,
				"element": "H" 
			},
			{
				"x": 2.7307410942,
				"y": -2.2537341082,
				"z": 3.3041100904,
				"element": "H" 
			},
			{
				"x": 0.579696431,
				"y": -2.2271485311,
				"z": 2.0883945851,
				"element": "H" 
			}
		],
		 "valence_orbital": [ 
			{
				"type": "occ",
				"energy": -0.3057,
				"method": "rhf"
			},
			{
				"type": "occ",
				"energy": -0.25078,
				"method": "rhf"
			},
			{
				"type": "occ",
				"energy": -0.24822,
				"method": "rhf"
			},
			{
				"type": "occ",
				"energy": -0.22622,
				"method": "rhf"
			},
			{
				"type": "occ",
				"energy": -0.21184,
				"method": "rhf"
			},
			{
				"type": "unocc",
				"energy": -0.00612,
				"method": "rhf"
			},
			{
				"type": "unocc",
				"energy": -0.00478,
				"method": "rhf"
			},
			{
				"type": "unocc",
				"energy": 0.04112,
				"method": "rhf"
			},
			{
				"type": "unocc",
				"energy": 0.07664,
				"method": "rhf"
			},
			{
				"type": "unocc",
				"energy": 0.08412,
				"method": "rhf"
			}
		],
		"cosmo_sigma_profile": { 
			"-0.025": -39.0997561378,
			"-0.024": -0.38166237928,
			"-0.023": 0.321810252313,
			"-0.022": 0.370271977346,
			"-0.021": 0.515818014088,
			"-0.02": 0.971184800327,
			"-0.019": 0.921990821822,
			"-0.018": 0.748374258312,
			"-0.017": 0.136946100234,
			"-0.016": 0.131800092631,
			"-0.015": 0.638049524715,
			"-0.014": 0.766974940572,
			"-0.013": 0.342465635838,
			"-0.012": 0.77237765349,
			"-0.011": 0.373698367781,
			"-0.01": 0.700225186165,
			"-0.009": 0.564762037202,
			"-0.008": 1.18528727379,
			"-0.007": 1.31639260082,
			"-0.006": 1.63440759878,
			"-0.005": 8.15929991818,
			"-0.004": 19.7489792573,
			"-0.003": 22.0091696251,
			"-0.002": 24.595077637,
			"-0.001": 19.8723085167,
			"0.0": 14.399413495,
			"0.001": 10.8902103853,
			"0.002": 9.98475402825,
			"0.003": 10.2085550151,
			"0.004": 11.8170740792,
			"0.005": 11.8400615197,
			"0.006": 10.862524651,
			"0.007": 11.3895919052,
			"0.008": 6.90039550705,
			"0.009": 3.82516339286,
			"0.01": 0.940833320058,
			"0.011": 2.20455973454,
			"0.012": 1.27106733409,
			"0.013": 2.24218146428,
			"0.014": -0.431334866433,
			"0.015": 0.438801137793,
			"0.016": 0.493356917385,
			"0.017": 1.20114204447,
			"0.018": 1.53524527981,
			"0.019": 10.2149194923,
			"0.02": -10.5077874682,
			"0.021": 9.0141966608,
			"0.022": 4.02793019507,
			"0.023": -12.6256759899,
			"0.024": 0.0,
			"0.025": 1.21381327187
		}
	}
}
