{
	 "smiles": "OC(=O)CSC1=NN=C(N1C1=CC=C(Cl)C=C1)C1=CC=CC=C1", 
	 "Tm": 498.15, 
	 "num_atms": 35, 
	 "gaussian": { 
		 "optdone": 1, 
		 "sigma_profile": "yes", 
		 "theory": "DFT", 
		 "functional": "B3LYP", 
		 "basiset": "6-31G**", 
		 "properties": { 
			 "R2extent": 9737.297, 
			 "electric_dipole_moment_norm": 1.86318338604, 
			 "electric_quadrupole_moment_norm": 19.5419051377, 
			 "total_energy": -1790.00572473, 
			 "HOMO_LUMO_gap": 0.17499, 
			 "cosmo_polarized_energy": -21.75, 
			 "cosmo_cavitation_energy": 44.14, 
			 "cosmo_dispersion_energy": -30.47, 
			 "cosmo_repulsion_energy": 2.33, 
			 "cosmo_total_nonelectrostatic_energy": 16.0, 
			 "SMD_solvation_energy": 6.28 
		},
		"coords": [
			{
				"x": -3.9334711379,
				"y": 2.2156803311,
				"z": -3.8770858336,
				"element": "O" 
			},
			{
				"x": -2.7775531169,
				"y": 1.6782785607,
				"z": -3.4243656743,
				"element": "C" 
			},
			{
				"x": -2.5484884207,
				"y": 0.4939626879,
				"z": -3.4235648437,
				"element": "O" 
			},
			{
				"x": -1.8501503356,
				"y": 2.7956742501,
				"z": -2.9639744857,
				"element": "C" 
			},
			{
				"x": -0.3218873903,
				"y": 2.2173225923,
				"z": -2.165013752,
				"element": "S" 
			},
			{
				"x": -1.0444815951,
				"y": 1.682965799,
				"z": -0.647329678,
				"element": "C" 
			},
			{
				"x": -2.2746142944,
				"y": 1.9076025724,
				"z": -0.2532169435,
				"element": "N" 
			},
			{
				"x": -2.4271879591,
				"y": 1.3023177823,
				"z": 0.9736771258,
				"element": "N" 
			},
			{
				"x": -1.2913506636,
				"y": 0.7238261156,
				"z": 1.2991486738,
				"element": "C" 
			},
			{
				"x": -0.3556984211,
				"y": 0.940340804,
				"z": 0.2881681341,
				"element": "N" 
			},
			{
				"x": 0.9566544963,
				"y": 0.3950608615,
				"z": 0.1239024094,
				"element": "C" 
			},
			{
				"x": 2.0670240312,
				"y": 1.2440219588,
				"z": 0.1298986441,
				"element": "C" 
			},
			{
				"x": 3.3461943013,
				"y": 0.7188090172,
				"z": -0.0502098609,
				"element": "C" 
			},
			{
				"x": 3.4991842899,
				"y": -0.6566752166,
				"z": -0.2241707311,
				"element": "C" 
			},
			{
				"x": 5.1067256334,
				"y": -1.323382512,
				"z": -0.4407637635,
				"element": "Cl" 
			},
			{
				"x": 2.3960846155,
				"y": -1.5122455693,
				"z": -0.2299948464,
				"element": "C" 
			},
			{
				"x": 1.1197375871,
				"y": -0.9807337638,
				"z": -0.0619768362,
				"element": "C" 
			},
			{
				"x": -1.0790542185,
				"y": -0.0167061934,
				"z": 2.5507607072,
				"element": "C" 
			},
			{
				"x": 0.1703379836,
				"y": -0.1130576537,
				"z": 3.1848610119,
				"element": "C" 
			},
			{
				"x": 0.295918408,
				"y": -0.8043039277,
				"z": 4.3897352655,
				"element": "C" 
			},
			{
				"x": -0.818574869,
				"y": -1.4009761511,
				"z": 4.9805819411,
				"element": "C" 
			},
			{
				"x": -2.0671983167,
				"y": -1.2978923792,
				"z": 4.3615495394,
				"element": "C" 
			},
			{
				"x": -2.1990210333,
				"y": -0.6137681329,
				"z": 3.1566643824,
				"element": "C" 
			},
			{
				"x": -4.4915477401,
				"y": 1.4692272935,
				"z": -4.1529285206,
				"element": "H" 
			},
			{
				"x": -1.5349414869,
				"y": 3.3818819427,
				"z": -3.8323983696,
				"element": "H" 
			},
			{
				"x": -2.3964259638,
				"y": 3.4532905515,
				"z": -2.2857962805,
				"element": "H" 
			},
			{
				"x": 1.9294748838,
				"y": 2.3099681311,
				"z": 0.279407995,
				"element": "H" 
			},
			{
				"x": 4.2142072329,
				"y": 1.3680916927,
				"z": -0.0495683843,
				"element": "H" 
			},
			{
				"x": 2.5347149858,
				"y": -2.577746516,
				"z": -0.3732099638,
				"element": "H" 
			},
			{
				"x": 0.2493842751,
				"y": -1.6276628436,
				"z": -0.0765681162,
				"element": "H" 
			},
			{
				"x": 1.0422634826,
				"y": 0.3636135565,
				"z": 2.7519128216,
				"element": "H" 
			},
			{
				"x": 1.2677850255,
				"y": -0.8685161948,
				"z": 4.870369605,
				"element": "H" 
			},
			{
				"x": -0.7162997447,
				"y": -1.9391462913,
				"z": 5.9184102113,
				"element": "H" 
			},
			{
				"x": -2.9405828955,
				"y": -1.7556530535,
				"z": 4.8168546394,
				"element": "H" 
			},
			{
				"x": -3.1633616291,
				"y": -0.5247701021,
				"z": 2.6687337769,
				"element": "H" 
			}
		],
		 "valence_orbital": [ 
			{
				"type": "occ",
				"energy": -0.27135,
				"method": "rhf"
			},
			{
				"type": "occ",
				"energy": -0.26163,
				"method": "rhf"
			},
			{
				"type": "occ",
				"energy": -0.25603,
				"method": "rhf"
			},
			{
				"type": "occ",
				"energy": -0.24972,
				"method": "rhf"
			},
			{
				"type": "occ",
				"energy": -0.21724,
				"method": "rhf"
			},
			{
				"type": "unocc",
				"energy": -0.04225,
				"method": "rhf"
			},
			{
				"type": "unocc",
				"energy": -0.03824,
				"method": "rhf"
			},
			{
				"type": "unocc",
				"energy": -0.03082,
				"method": "rhf"
			},
			{
				"type": "unocc",
				"energy": -0.00582,
				"method": "rhf"
			},
			{
				"type": "unocc",
				"energy": 0.00501,
				"method": "rhf"
			}
		],
		"cosmo_sigma_profile": { 
			"-0.025": 0.0,
			"-0.024": 0.0,
			"-0.023": 0.0,
			"-0.022": 0.0,
			"-0.021": 0.0,
			"-0.02": 0.0,
			"-0.019": 0.139603560807,
			"-0.018": 0.966812456589,
			"-0.017": 0.977220915627,
			"-0.016": 1.01039237234,
			"-0.015": 0.771823653344,
			"-0.014": 0.638932609825,
			"-0.013": 0.667606204904,
			"-0.012": 0.863382945485,
			"-0.011": 0.905571625521,
			"-0.01": 3.44995761551,
			"-0.009": 3.4667315909,
			"-0.008": 10.4813921221,
			"-0.007": 14.5370622625,
			"-0.006": 19.4848698951,
			"-0.005": 22.8299176712,
			"-0.004": 22.3196771816,
			"-0.003": 18.8398714447,
			"-0.002": 19.6254188674,
			"-0.001": 20.0308695173,
			"0.0": 25.9821883256,
			"0.001": 30.281535485,
			"0.002": 29.5763042013,
			"0.003": 21.8497677746,
			"0.004": 28.4467668166,
			"0.005": 12.3918607023,
			"0.006": 8.32558867827,
			"0.007": 5.76175329165,
			"0.008": 5.11886013924,
			"0.009": 5.33081766167,
			"0.01": 5.26824600874,
			"0.011": 7.15504204775,
			"0.012": 4.52601948636,
			"0.013": 3.76570128512,
			"0.014": 1.64658393202,
			"0.015": 0.927694265151,
			"0.016": 0.335168479047,
			"0.017": 0.0,
			"0.018": 0.0,
			"0.019": 0.0,
			"0.02": 0.0,
			"0.021": 0.0,
			"0.022": 0.0,
			"0.023": 0.0,
			"0.024": 0.0,
			"0.025": 0.0
		}
	}
}
