{
	 "smiles": "CC(=O)OC1=C(N(C(C)=O)C2=CC(=C(C=C12)C(Cl)=CC1=CC=CC=C1)[N+]([O-])=O)C1=CC=CC=C1", 
	 "Tm": 330.65, 
	 "num_atms": 53, 
	 "gaussian": { 
		 "optdone": 1, 
		 "sigma_profile": "yes", 
		 "theory": "DFT", 
		 "functional": "B3LYP", 
		 "basiset": "6-31G**", 
		 "properties": { 
			 "R2extent": 20740.4818, 
			 "electric_dipole_moment_norm": 5.30192622921, 
			 "electric_quadrupole_moment_norm": 23.7637213571, 
			 "total_energy": -1947.92920431, 
			 "HOMO_LUMO_gap": 0.12991, 
			 "cosmo_polarized_energy": -22.73, 
			 "cosmo_cavitation_energy": 60.82, 
			 "cosmo_dispersion_energy": -40.07, 
			 "cosmo_repulsion_energy": 3.02, 
			 "cosmo_total_nonelectrostatic_energy": 23.77, 
			 "SMD_solvation_energy": 13.37 
		},
		"coords": [
			{
				"x": 2.7607826036,
				"y": 0.0038048126,
				"z": 3.0033536929,
				"element": "C" 
			},
			{
				"x": 2.3511466457,
				"y": 0.0520296719,
				"z": 1.5555680894,
				"element": "C" 
			},
			{
				"x": 2.7473776988,
				"y": 0.81967362,
				"z": 0.7165245818,
				"element": "O" 
			},
			{
				"x": 1.4354991242,
				"y": -0.9480690907,
				"z": 1.2973664266,
				"element": "O" 
			},
			{
				"x": 0.9361206078,
				"y": -1.0566923085,
				"z": 0.014630406,
				"element": "C" 
			},
			{
				"x": 1.4228952679,
				"y": -1.8811634269,
				"z": -0.9639995386,
				"element": "C" 
			},
			{
				"x": 0.5297638714,
				"y": -1.8259095517,
				"z": -2.0654084589,
				"element": "N" 
			},
			{
				"x": 0.8355665678,
				"y": -2.3923676706,
				"z": -3.3397008316,
				"element": "C" 
			},
			{
				"x": -0.2941557414,
				"y": -2.5399163951,
				"z": -4.3357378113,
				"element": "C" 
			},
			{
				"x": 1.9606907479,
				"y": -2.7642398898,
				"z": -3.5876486735,
				"element": "O" 
			},
			{
				"x": -0.5181990694,
				"y": -0.941416919,
				"z": -1.7354147918,
				"element": "C" 
			},
			{
				"x": -1.6316170876,
				"y": -0.4991190813,
				"z": -2.443027287,
				"element": "C" 
			},
			{
				"x": -2.4922768744,
				"y": 0.4071493269,
				"z": -1.8251514684,
				"element": "C" 
			},
			{
				"x": -2.2985586506,
				"y": 0.890955036,
				"z": -0.5052971628,
				"element": "C" 
			},
			{
				"x": -1.168701447,
				"y": 0.4402278402,
				"z": 0.1779087869,
				"element": "C" 
			},
			{
				"x": -0.2740018122,
				"y": -0.4453578428,
				"z": -0.4312212097,
				"element": "C" 
			},
			{
				"x": -3.2280540005,
				"y": 1.7947445952,
				"z": 0.2240894434,
				"element": "C" 
			},
			{
				"x": -4.8007440456,
				"y": 1.0691264037,
				"z": 0.5642939673,
				"element": "Cl" 
			},
			{
				"x": -2.834348744,
				"y": 2.9939021381,
				"z": 0.6884844592,
				"element": "C" 
			},
			{
				"x": -3.4826145494,
				"y": 4.0371898077,
				"z": 1.4905805037,
				"element": "C" 
			},
			{
				"x": -4.8633943427,
				"y": 4.1246573674,
				"z": 1.7564424796,
				"element": "C" 
			},
			{
				"x": -5.3717305137,
				"y": 5.1689888383,
				"z": 2.5262620781,
				"element": "C" 
			},
			{
				"x": -4.525290425,
				"y": 6.1482171703,
				"z": 3.0501683553,
				"element": "C" 
			},
			{
				"x": -3.1555817924,
				"y": 6.0826236896,
				"z": 2.7876918926,
				"element": "C" 
			},
			{
				"x": -2.6456930119,
				"y": 5.0448075928,
				"z": 2.0133051461,
				"element": "C" 
			},
			{
				"x": -3.5986751369,
				"y": 0.8922106417,
				"z": -2.6663933988,
				"element": "N" 
			},
			{
				"x": -3.8751777174,
				"y": 0.2418250192,
				"z": -3.6780807793,
				"element": "O" 
			},
			{
				"x": -4.1674346174,
				"y": 1.9281112451,
				"z": -2.3319381195,
				"element": "O" 
			},
			{
				"x": 2.589096418,
				"y": -2.7798326515,
				"z": -0.8484900682,
				"element": "C" 
			},
			{
				"x": 2.4374178041,
				"y": -4.1737757585,
				"z": -0.916354926,
				"element": "C" 
			},
			{
				"x": 3.5336670028,
				"y": -5.0097022264,
				"z": -0.7241390224,
				"element": "C" 
			},
			{
				"x": 4.793889354,
				"y": -4.4667290105,
				"z": -0.4585820766,
				"element": "C" 
			},
			{
				"x": 4.9501851538,
				"y": -3.0826517973,
				"z": -0.3848660037,
				"element": "C" 
			},
			{
				"x": 3.8539135698,
				"y": -2.2402875117,
				"z": -0.5758464329,
				"element": "C" 
			},
			{
				"x": 3.2728536819,
				"y": -0.9420811707,
				"z": 3.2049358731,
				"element": "H" 
			},
			{
				"x": 3.4259168614,
				"y": 0.8387904404,
				"z": 3.2196595415,
				"element": "H" 
			},
			{
				"x": 1.8797466712,
				"y": 0.0418013387,
				"z": 3.6496975259,
				"element": "H" 
			},
			{
				"x": 0.0342555357,
				"y": -3.2666241168,
				"z": -5.0788970613,
				"element": "H" 
			},
			{
				"x": -0.4809000732,
				"y": -1.5923810575,
				"z": -4.8513508144,
				"element": "H" 
			},
			{
				"x": -1.2249583294,
				"y": -2.874509056,
				"z": -3.872755528,
				"element": "H" 
			},
			{
				"x": -1.8785997746,
				"y": -0.8042408764,
				"z": -3.4464504184,
				"element": "H" 
			},
			{
				"x": -1.0016051467,
				"y": 0.768554037,
				"z": 1.1974777839,
				"element": "H" 
			},
			{
				"x": -1.8119097426,
				"y": 3.2394354252,
				"z": 0.4048026072,
				"element": "H" 
			},
			{
				"x": -5.5411240844,
				"y": 3.3869771187,
				"z": 1.3496466466,
				"element": "H" 
			},
			{
				"x": -6.440524166,
				"y": 5.2189420018,
				"z": 2.7139997319,
				"element": "H" 
			},
			{
				"x": -4.9299964017,
				"y": 6.9579141031,
				"z": 3.6504163059,
				"element": "H" 
			},
			{
				"x": -2.485672632,
				"y": 6.8418501283,
				"z": 3.1809847238,
				"element": "H" 
			},
			{
				"x": -1.5789902652,
				"y": 5.0046075405,
				"z": 1.8070649549,
				"element": "H" 
			},
			{
				"x": 1.4583964306,
				"y": -4.6000122263,
				"z": -1.1141624163,
				"element": "H" 
			},
			{
				"x": 3.4048000428,
				"y": -6.0867340785,
				"z": -0.7782676127,
				"element": "H" 
			},
			{
				"x": 5.6479970038,
				"y": -5.1211566341,
				"z": -0.3107517762,
				"element": "H" 
			},
			{
				"x": 5.9276974961,
				"y": -2.6538331189,
				"z": -0.1840931962,
				"element": "H" 
			},
			{
				"x": 3.9748540339,
				"y": -1.1627134829,
				"z": -0.532229119,
				"element": "H" 
			}
		],
		 "valence_orbital": [ 
			{
				"type": "occ",
				"energy": -0.25912,
				"method": "rhf"
			},
			{
				"type": "occ",
				"energy": -0.25548,
				"method": "rhf"
			},
			{
				"type": "occ",
				"energy": -0.25218,
				"method": "rhf"
			},
			{
				"type": "occ",
				"energy": -0.23343,
				"method": "rhf"
			},
			{
				"type": "occ",
				"energy": -0.22233,
				"method": "rhf"
			},
			{
				"type": "unocc",
				"energy": -0.09242,
				"method": "rhf"
			},
			{
				"type": "unocc",
				"energy": -0.04921,
				"method": "rhf"
			},
			{
				"type": "unocc",
				"energy": -0.04441,
				"method": "rhf"
			},
			{
				"type": "unocc",
				"energy": -0.03356,
				"method": "rhf"
			},
			{
				"type": "unocc",
				"energy": -0.01432,
				"method": "rhf"
			}
		],
		"cosmo_sigma_profile": { 
			"-0.025": 0.0,
			"-0.024": 0.0,
			"-0.023": 0.0,
			"-0.022": 0.0,
			"-0.021": 0.0,
			"-0.02": 0.0,
			"-0.019": 0.0,
			"-0.018": 0.0,
			"-0.017": 0.0,
			"-0.016": 0.0,
			"-0.015": 0.0,
			"-0.014": 0.0,
			"-0.013": 0.0,
			"-0.012": 0.0,
			"-0.011": 0.0,
			"-0.01": 0.491857931939,
			"-0.009": 3.02460941283,
			"-0.008": 5.30195908624,
			"-0.007": 16.8227756913,
			"-0.006": 32.7396518254,
			"-0.005": 35.5676162712,
			"-0.004": 43.5824163993,
			"-0.003": 38.6165421824,
			"-0.002": 37.671502164,
			"-0.001": 36.2265864378,
			"0.0": 33.986491219,
			"0.001": 27.4805406817,
			"0.002": 27.8198053712,
			"0.003": 29.9232593362,
			"0.004": 31.7577235672,
			"0.005": 24.8343934218,
			"0.006": 10.8695088705,
			"0.007": 13.1792776903,
			"0.008": 11.8371217377,
			"0.009": 9.16569532144,
			"0.01": 9.32473478355,
			"0.011": 8.20373125451,
			"0.012": 2.03723274933,
			"0.013": 0.0,
			"0.014": 0.0,
			"0.015": 0.0,
			"0.016": 0.0,
			"0.017": 0.0,
			"0.018": 0.0,
			"0.019": 0.0,
			"0.02": 0.0,
			"0.021": 0.0,
			"0.022": 0.0,
			"0.023": 0.0,
			"0.024": 0.0,
			"0.025": 0.0
		}
	}
}
