{
	 "smiles": "BrCC(=O)C1=CC=C(C=C1)C#N", 
	 "Tm": 367.15, 
	 "num_atms": 18, 
	 "gaussian": { 
		 "optdone": 1, 
		 "sigma_profile": "yes", 
		 "theory": "DFT", 
		 "functional": "B3LYP", 
		 "basiset": "6-31G**", 
		 "properties": { 
			 "R2extent": 3735.9863, 
			 "electric_dipole_moment_norm": 2.95434934969, 
			 "electric_quadrupole_moment_norm": 23.4798005111, 
			 "total_energy": -3047.9320412, 
			 "HOMO_LUMO_gap": 0.17361, 
			 "cosmo_polarized_energy": -12.6, 
			 "cosmo_cavitation_energy": 26.32, 
			 "cosmo_dispersion_energy": -18.82, 
			 "cosmo_repulsion_energy": 1.5, 
			 "cosmo_total_nonelectrostatic_energy": 9.0, 
			 "SMD_solvation_energy": 5.41 
		},
		"coords": [
			{
				"x": -2.2585335081,
				"y": -0.8148210785,
				"z": -2.2497303429,
				"element": "Br" 
			},
			{
				"x": -1.0304936568,
				"y": 0.7370342847,
				"z": -2.2675904037,
				"element": "C" 
			},
			{
				"x": 0.3604172839,
				"y": 0.3339431129,
				"z": -1.7915867542,
				"element": "C" 
			},
			{
				"x": 1.2634228965,
				"y": 0.269350931,
				"z": -2.6085891102,
				"element": "O" 
			},
			{
				"x": 0.6088848587,
				"y": 0.070861456,
				"z": -0.3380871831,
				"element": "C" 
			},
			{
				"x": 1.9240512055,
				"y": -0.235317945,
				"z": 0.0481245078,
				"element": "C" 
			},
			{
				"x": 2.2354941046,
				"y": -0.4628232773,
				"z": 1.3811204643,
				"element": "C" 
			},
			{
				"x": 1.2233792483,
				"y": -0.385635699,
				"z": 2.3551137861,
				"element": "C" 
			},
			{
				"x": -0.09530483,
				"y": -0.0837570931,
				"z": 1.9772152011,
				"element": "C" 
			},
			{
				"x": -0.3968139457,
				"y": 0.1416792739,
				"z": 0.6381530162,
				"element": "C" 
			},
			{
				"x": 1.5367770993,
				"y": -0.6162049677,
				"z": 3.7357531898,
				"element": "C" 
			},
			{
				"x": 1.7917786432,
				"y": -0.8018545875,
				"z": 4.8552461377,
				"element": "N" 
			},
			{
				"x": -0.9632610973,
				"y": 1.0615452213,
				"z": -3.3027159423,
				"element": "H" 
			},
			{
				"x": -1.4953625489,
				"y": 1.5012968348,
				"z": -1.645097574,
				"element": "H" 
			},
			{
				"x": 2.6875195817,
				"y": -0.285764336,
				"z": -0.7202794747,
				"element": "H" 
			},
			{
				"x": 3.2511689205,
				"y": -0.6981861531,
				"z": 1.6802029739,
				"element": "H" 
			},
			{
				"x": -0.8717416024,
				"y": -0.0318877466,
				"z": 2.7326002983,
				"element": "H" 
			},
			{
				"x": -1.4234826531,
				"y": 0.3504417694,
				"z": 0.3599472098,
				"element": "H" 
			}
		],
		 "valence_orbital": [ 
			{
				"type": "occ",
				"energy": -0.30799,
				"method": "rhf"
			},
			{
				"type": "occ",
				"energy": -0.29867,
				"method": "rhf"
			},
			{
				"type": "occ",
				"energy": -0.2893,
				"method": "rhf"
			},
			{
				"type": "occ",
				"energy": -0.28073,
				"method": "rhf"
			},
			{
				"type": "occ",
				"energy": -0.27558,
				"method": "rhf"
			},
			{
				"type": "unocc",
				"energy": -0.10197,
				"method": "rhf"
			},
			{
				"type": "unocc",
				"energy": -0.04257,
				"method": "rhf"
			},
			{
				"type": "unocc",
				"energy": -0.03871,
				"method": "rhf"
			},
			{
				"type": "unocc",
				"energy": 0.01177,
				"method": "rhf"
			},
			{
				"type": "unocc",
				"energy": 0.02476,
				"method": "rhf"
			}
		],
		"cosmo_sigma_profile": { 
			"-0.025": 0.0,
			"-0.024": 0.0,
			"-0.023": 0.0,
			"-0.022": 0.0,
			"-0.021": 0.0,
			"-0.02": 0.0,
			"-0.019": 0.0,
			"-0.018": 0.0,
			"-0.017": 0.0,
			"-0.016": 0.0,
			"-0.015": 0.0,
			"-0.014": 0.0,
			"-0.013": 0.0,
			"-0.012": 0.0,
			"-0.011": 0.108761184715,
			"-0.01": 1.99555757012,
			"-0.009": 5.53986807208,
			"-0.008": 10.7290187124,
			"-0.007": 11.8058840806,
			"-0.006": 11.4263089659,
			"-0.005": 9.38789380229,
			"-0.004": 9.51545988071,
			"-0.003": 10.924908912,
			"-0.002": 14.7019343139,
			"-0.001": 15.7385834279,
			"0.0": 20.0967692517,
			"0.001": 18.8086771315,
			"0.002": 10.5580484172,
			"0.003": 9.58985907782,
			"0.004": 10.614684488,
			"0.005": 10.9280864786,
			"0.006": 3.73516163741,
			"0.007": 5.00145605627,
			"0.008": 5.41832097845,
			"0.009": 5.27299084641,
			"0.01": 6.41760759683,
			"0.011": 4.75750918527,
			"0.012": 2.50461377002,
			"0.013": 0.524822097987,
			"0.014": 0.0,
			"0.015": 0.0,
			"0.016": 0.0,
			"0.017": 0.0,
			"0.018": 0.0,
			"0.019": 0.0,
			"0.02": 0.0,
			"0.021": 0.0,
			"0.022": 0.0,
			"0.023": 0.0,
			"0.024": 0.0,
			"0.025": 0.0
		}
	}
}
