{
	 "smiles": "ClC1=CC=CC2=C1C(=O)C=CC2=O", 
	 "Tm": 436.15, 
	 "num_atms": 18, 
	 "gaussian": { 
		 "optdone": 1, 
		 "sigma_profile": "yes", 
		 "theory": "DFT", 
		 "functional": "B3LYP", 
		 "basiset": "6-31G**", 
		 "properties": { 
			 "R2extent": 2922.5297, 
			 "electric_dipole_moment_norm": 1.6762979747, 
			 "electric_quadrupole_moment_norm": 13.0020395919, 
			 "total_energy": -994.694189388, 
			 "HOMO_LUMO_gap": 0.13968, 
			 "cosmo_polarized_energy": -10.29, 
			 "cosmo_cavitation_energy": 24.61, 
			 "cosmo_dispersion_energy": -18.48, 
			 "cosmo_repulsion_energy": 1.42, 
			 "cosmo_total_nonelectrostatic_energy": 7.55, 
			 "SMD_solvation_energy": 4.96 
		},
		"coords": [
			{
				"x": -1.6506736608,
				"y": -0.9185988628,
				"z": -1.703818629,
				"element": "Cl" 
			},
			{
				"x": -0.3727824763,
				"y": 0.0247286285,
				"z": -0.9743916391,
				"element": "C" 
			},
			{
				"x": 0.9192269254,
				"y": -0.2311456658,
				"z": -1.4468643224,
				"element": "C" 
			},
			{
				"x": 2.0098389017,
				"y": 0.4644201974,
				"z": -0.9338015667,
				"element": "C" 
			},
			{
				"x": 1.8168111922,
				"y": 1.4226738605,
				"z": 0.0571169647,
				"element": "C" 
			},
			{
				"x": 0.5318950923,
				"y": 1.6830540775,
				"z": 0.5328575549,
				"element": "C" 
			},
			{
				"x": -0.5980487504,
				"y": 0.9891991962,
				"z": 0.0281758824,
				"element": "C" 
			},
			{
				"x": -1.9527604497,
				"y": 1.3155229089,
				"z": 0.581731932,
				"element": "C" 
			},
			{
				"x": -2.9869805809,
				"y": 0.7758832019,
				"z": 0.2137638668,
				"element": "O" 
			},
			{
				"x": -2.0308575485,
				"y": 2.3597380631,
				"z": 1.6381930636,
				"element": "C" 
			},
			{
				"x": -0.959070961,
				"y": 3.0121922509,
				"z": 2.1112555493,
				"element": "C" 
			},
			{
				"x": 0.3963039438,
				"y": 2.7272061588,
				"z": 1.59983222,
				"element": "C" 
			},
			{
				"x": 1.3710767169,
				"y": 3.3279228388,
				"z": 2.0372682091,
				"element": "O" 
			},
			{
				"x": 1.0529433365,
				"y": -0.9806076339,
				"z": -2.2189804405,
				"element": "H" 
			},
			{
				"x": 3.0063110214,
				"y": 0.2548823011,
				"z": -1.310393226,
				"element": "H" 
			},
			{
				"x": 2.6420764341,
				"y": 1.9842366657,
				"z": 0.480533012,
				"element": "H" 
			},
			{
				"x": -3.0369793735,
				"y": 2.5525291139,
				"z": 1.998966248,
				"element": "H" 
			},
			{
				"x": -1.0270297632,
				"y": 3.7730626993,
				"z": 2.8831553209,
				"element": "H" 
			}
		],
		 "valence_orbital": [ 
			{
				"type": "occ",
				"energy": -0.30317,
				"method": "rhf"
			},
			{
				"type": "occ",
				"energy": -0.28589,
				"method": "rhf"
			},
			{
				"type": "occ",
				"energy": -0.27617,
				"method": "rhf"
			},
			{
				"type": "occ",
				"energy": -0.26476,
				"method": "rhf"
			},
			{
				"type": "occ",
				"energy": -0.26079,
				"method": "rhf"
			},
			{
				"type": "unocc",
				"energy": -0.12111,
				"method": "rhf"
			},
			{
				"type": "unocc",
				"energy": -0.0536,
				"method": "rhf"
			},
			{
				"type": "unocc",
				"energy": -0.03426,
				"method": "rhf"
			},
			{
				"type": "unocc",
				"energy": 0.02313,
				"method": "rhf"
			},
			{
				"type": "unocc",
				"energy": 0.03268,
				"method": "rhf"
			}
		],
		"cosmo_sigma_profile": { 
			"-0.025": 0.0,
			"-0.024": 0.0,
			"-0.023": 0.0,
			"-0.022": 0.0,
			"-0.021": 0.0,
			"-0.02": 0.0,
			"-0.019": 0.0,
			"-0.018": 0.0,
			"-0.017": 0.0,
			"-0.016": 0.0,
			"-0.015": 0.0,
			"-0.014": 0.0,
			"-0.013": 0.0,
			"-0.012": 0.0,
			"-0.011": 0.0,
			"-0.01": 0.0,
			"-0.009": 1.00814053308,
			"-0.008": 7.78610674162,
			"-0.007": 9.19381072283,
			"-0.006": 11.8624830682,
			"-0.005": 10.8587486066,
			"-0.004": 11.79721118,
			"-0.003": 13.3297011472,
			"-0.002": 16.9915783947,
			"-0.001": 18.0594335706,
			"0.0": 23.4704713233,
			"0.001": 16.7158475411,
			"0.002": 7.33830412532,
			"0.003": 8.80086952177,
			"0.004": 8.4487452362,
			"0.005": 3.81224031819,
			"0.006": 4.44924691324,
			"0.007": 3.3139696612,
			"0.008": 3.57221525569,
			"0.009": 4.5392736572,
			"0.01": 6.65063828069,
			"0.011": 7.76539398271,
			"0.012": 1.69336043493,
			"0.013": 0.00086876367219,
			"0.014": 0.0,
			"0.015": 0.0,
			"0.016": 0.0,
			"0.017": 0.0,
			"0.018": 0.0,
			"0.019": 0.0,
			"0.02": 0.0,
			"0.021": 0.0,
			"0.022": 0.0,
			"0.023": 0.0,
			"0.024": 0.0,
			"0.025": 0.0
		}
	}
}
