{
	 "smiles": "CC1=CC=CC=C1C=C(/C#N)C1=NC2=C(S1)C=CC=C2", 
	 "Tm": 421.15, 
	 "num_atms": 32, 
	 "gaussian": { 
		 "optdone": 1, 
		 "sigma_profile": "yes", 
		 "theory": "DFT", 
		 "functional": "B3LYP", 
		 "basiset": "6-31G**", 
		 "properties": { 
			 "R2extent": 8418.1699, 
			 "electric_dipole_moment_norm": 4.90099455315, 
			 "electric_quadrupole_moment_norm": 25.4363172543, 
			 "total_energy": -1162.71610725, 
			 "HOMO_LUMO_gap": 0.13227, 
			 "cosmo_polarized_energy": -13.65, 
			 "cosmo_cavitation_energy": 38.84, 
			 "cosmo_dispersion_energy": -27.84, 
			 "cosmo_repulsion_energy": 2.05, 
			 "cosmo_total_nonelectrostatic_energy": 13.05, 
			 "SMD_solvation_energy": 5.6 
		},
		"coords": [
			{
				"x": -2.0522852024,
				"y": 2.7159355028,
				"z": 0.5575706064,
				"element": "C" 
			},
			{
				"x": -2.744543489,
				"y": 1.3716463186,
				"z": 0.6028514459,
				"element": "C" 
			},
			{
				"x": -4.0603904466,
				"y": 1.302174721,
				"z": 1.0673115941,
				"element": "C" 
			},
			{
				"x": -4.749124237,
				"y": 0.0909605741,
				"z": 1.1378953794,
				"element": "C" 
			},
			{
				"x": -4.1190137038,
				"y": -1.0871946402,
				"z": 0.7365938649,
				"element": "C" 
			},
			{
				"x": -2.808128116,
				"y": -1.0473419046,
				"z": 0.2761428702,
				"element": "C" 
			},
			{
				"x": -2.094540611,
				"y": 0.1678532919,
				"z": 0.2049363536,
				"element": "C" 
			},
			{
				"x": -0.7266766946,
				"y": 0.2467980826,
				"z": -0.2933384781,
				"element": "C" 
			},
			{
				"x": 0.2383110175,
				"y": -0.7077312637,
				"z": -0.4398324127,
				"element": "C" 
			},
			{
				"x": 0.0675772998,
				"y": -2.0735144136,
				"z": -0.0328893681,
				"element": "C" 
			},
			{
				"x": -0.074252572,
				"y": -3.1793925425,
				"z": 0.2990459375,
				"element": "N" 
			},
			{
				"x": 1.5620905126,
				"y": -0.4061314078,
				"z": -1.0005817215,
				"element": "C" 
			},
			{
				"x": 2.5235667733,
				"y": -1.2765577789,
				"z": -1.0483036608,
				"element": "N" 
			},
			{
				"x": 3.6658607667,
				"y": -0.7463490333,
				"z": -1.6141827691,
				"element": "C" 
			},
			{
				"x": 3.5691072348,
				"y": 0.6066181379,
				"z": -2.025348589,
				"element": "C" 
			},
			{
				"x": 1.9579742323,
				"y": 1.2027694503,
				"z": -1.6783603866,
				"element": "S" 
			},
			{
				"x": 4.6483075173,
				"y": 1.2697442554,
				"z": -2.6121543472,
				"element": "C" 
			},
			{
				"x": 5.8350419027,
				"y": 0.5602072063,
				"z": -2.7848236486,
				"element": "C" 
			},
			{
				"x": 5.9451037503,
				"y": -0.782265377,
				"z": -2.381109146,
				"element": "C" 
			},
			{
				"x": 4.8711063434,
				"y": -1.4419753173,
				"z": -1.7972951286,
				"element": "C" 
			},
			{
				"x": -1.7693350061,
				"y": 3.0000274943,
				"z": -0.4635196393,
				"element": "H" 
			},
			{
				"x": -1.1397857185,
				"y": 2.7304256734,
				"z": 1.1632903222,
				"element": "H" 
			},
			{
				"x": -2.7133355753,
				"y": 3.4980299518,
				"z": 0.9383454349,
				"element": "H" 
			},
			{
				"x": -4.554651521,
				"y": 2.2178778219,
				"z": 1.380393506,
				"element": "H" 
			},
			{
				"x": -5.7725582365,
				"y": 0.0704409638,
				"z": 1.501042062,
				"element": "H" 
			},
			{
				"x": -4.6459976404,
				"y": -2.0354054137,
				"z": 0.7771632591,
				"element": "H" 
			},
			{
				"x": -2.3366324401,
				"y": -1.9669381809,
				"z": -0.0449750753,
				"element": "H" 
			},
			{
				"x": -0.4154901822,
				"y": 1.2452584957,
				"z": -0.5862495887,
				"element": "H" 
			},
			{
				"x": 4.569998901,
				"y": 2.3055680135,
				"z": -2.9259279935,
				"element": "H" 
			},
			{
				"x": 6.688022279,
				"y": 1.0550116141,
				"z": -3.239439599,
				"element": "H" 
			},
			{
				"x": 6.8831947852,
				"y": -1.3084687626,
				"z": -2.5286138118,
				"element": "H" 
			},
			{
				"x": 4.9378780767,
				"y": -2.4768815333,
				"z": -1.4791372722,
				"element": "H" 
			}
		],
		 "valence_orbital": [ 
			{
				"type": "occ",
				"energy": -0.28358,
				"method": "rhf"
			},
			{
				"type": "occ",
				"energy": -0.2647,
				"method": "rhf"
			},
			{
				"type": "occ",
				"energy": -0.25735,
				"method": "rhf"
			},
			{
				"type": "occ",
				"energy": -0.24186,
				"method": "rhf"
			},
			{
				"type": "occ",
				"energy": -0.22444,
				"method": "rhf"
			},
			{
				"type": "unocc",
				"energy": -0.09217,
				"method": "rhf"
			},
			{
				"type": "unocc",
				"energy": -0.02374,
				"method": "rhf"
			},
			{
				"type": "unocc",
				"energy": -0.01188,
				"method": "rhf"
			},
			{
				"type": "unocc",
				"energy": -0.01102,
				"method": "rhf"
			},
			{
				"type": "unocc",
				"energy": -0.00087,
				"method": "rhf"
			}
		],
		"cosmo_sigma_profile": { 
			"-0.025": 0.0,
			"-0.024": 0.0,
			"-0.023": 0.0,
			"-0.022": 0.0,
			"-0.021": 0.0,
			"-0.02": 0.0,
			"-0.019": 0.0,
			"-0.018": 0.0,
			"-0.017": 0.0,
			"-0.016": 0.0,
			"-0.015": 0.0,
			"-0.014": 0.0,
			"-0.013": 0.0,
			"-0.012": 0.0,
			"-0.011": 0.0,
			"-0.01": 0.0,
			"-0.009": 0.285344899536,
			"-0.008": 2.06175815228,
			"-0.007": 7.68078918809,
			"-0.006": 19.7495158675,
			"-0.005": 25.1576224918,
			"-0.004": 24.4532881377,
			"-0.003": 21.6397408215,
			"-0.002": 22.9508285737,
			"-0.001": 30.2644081353,
			"0.0": 26.5120713696,
			"0.001": 22.5568592495,
			"0.002": 26.1152465019,
			"0.003": 27.0563209725,
			"0.004": 24.4222256508,
			"0.005": 6.36291471628,
			"0.006": 2.58531080151,
			"0.007": 4.12299768193,
			"0.008": 5.12540861813,
			"0.009": 4.57548240116,
			"0.01": 3.84025485012,
			"0.011": 3.77668211813,
			"0.012": 3.5828354716,
			"0.013": 1.22613590336,
			"0.014": 0.0,
			"0.015": 0.0,
			"0.016": 0.0,
			"0.017": 0.0,
			"0.018": 0.0,
			"0.019": 0.0,
			"0.02": 0.0,
			"0.021": 0.0,
			"0.022": 0.0,
			"0.023": 0.0,
			"0.024": 0.0,
			"0.025": 0.0
		}
	}
}
