{
	 "smiles": "ClC(=O)C1=CC(=CC=C1)S(Cl)(=O)=O", 
	 "Tm": 292.15, 
	 "num_atms": 17, 
	 "gaussian": { 
		 "optdone": 1, 
		 "sigma_profile": "yes", 
		 "theory": "DFT", 
		 "functional": "B3LYP", 
		 "basiset": "6-31G**", 
		 "properties": { 
			 "R2extent": 5258.3715, 
			 "electric_dipole_moment_norm": 4.75957000789, 
			 "electric_quadrupole_moment_norm": 12.7155766598, 
			 "total_energy": -1813.33212128, 
			 "HOMO_LUMO_gap": 0.20148, 
			 "cosmo_polarized_energy": -10.96, 
			 "cosmo_cavitation_energy": 27.86, 
			 "cosmo_dispersion_energy": -20.77, 
			 "cosmo_repulsion_energy": 1.61, 
			 "cosmo_total_nonelectrostatic_energy": 8.69, 
			 "SMD_solvation_energy": 4.09 
		},
		"coords": [
			{
				"x": 3.0850795053,
				"y": 1.3278655924,
				"z": 0.9538258939,
				"element": "Cl" 
			},
			{
				"x": 1.9166339646,
				"y": 0.0402823473,
				"z": 1.4840805352,
				"element": "C" 
			},
			{
				"x": 1.9848639185,
				"y": -0.3933214287,
				"z": 2.5937716014,
				"element": "O" 
			},
			{
				"x": 0.9312214251,
				"y": -0.3885761191,
				"z": 0.4526992865,
				"element": "C" 
			},
			{
				"x": 0.0275870908,
				"y": -1.3879377089,
				"z": 0.8462202832,
				"element": "C" 
			},
			{
				"x": -0.9165632324,
				"y": -1.8251412789,
				"z": -0.0739859806,
				"element": "C" 
			},
			{
				"x": -1.001159211,
				"y": -1.3036646143,
				"z": -1.3673479457,
				"element": "C" 
			},
			{
				"x": -0.0973709482,
				"y": -0.3113685553,
				"z": -1.7431828686,
				"element": "C" 
			},
			{
				"x": 0.8653600011,
				"y": 0.1441943286,
				"z": -0.8420132075,
				"element": "C" 
			},
			{
				"x": -2.0901699975,
				"y": -3.0844308482,
				"z": 0.4272494828,
				"element": "S" 
			},
			{
				"x": -1.0594019218,
				"y": -4.8527085672,
				"z": -0.1516514084,
				"element": "Cl" 
			},
			{
				"x": -2.1729290616,
				"y": -3.1098990895,
				"z": 1.8806809842,
				"element": "O" 
			},
			{
				"x": -3.2673725229,
				"y": -2.9967359563,
				"z": -0.4266781061,
				"element": "O" 
			},
			{
				"x": 0.0690164074,
				"y": -1.7964880241,
				"z": 1.8493318932,
				"element": "H" 
			},
			{
				"x": -1.7623709177,
				"y": -1.6632422059,
				"z": -2.0507802177,
				"element": "H" 
			},
			{
				"x": -0.1456393025,
				"y": 0.1114628302,
				"z": -2.7410756287,
				"element": "H" 
			},
			{
				"x": 1.5653148028,
				"y": 0.9153092979,
				"z": -1.1396445971,
				"element": "H" 
			}
		],
		 "valence_orbital": [ 
			{
				"type": "occ",
				"energy": -0.34011,
				"method": "rhf"
			},
			{
				"type": "occ",
				"energy": -0.32522,
				"method": "rhf"
			},
			{
				"type": "occ",
				"energy": -0.31557,
				"method": "rhf"
			},
			{
				"type": "occ",
				"energy": -0.31247,
				"method": "rhf"
			},
			{
				"type": "occ",
				"energy": -0.31052,
				"method": "rhf"
			},
			{
				"type": "unocc",
				"energy": -0.10904,
				"method": "rhf"
			},
			{
				"type": "unocc",
				"energy": -0.09855,
				"method": "rhf"
			},
			{
				"type": "unocc",
				"energy": -0.06153,
				"method": "rhf"
			},
			{
				"type": "unocc",
				"energy": -0.01025,
				"method": "rhf"
			},
			{
				"type": "unocc",
				"energy": 0.00015,
				"method": "rhf"
			}
		],
		"cosmo_sigma_profile": { 
			"-0.025": 0.0,
			"-0.024": 0.0,
			"-0.023": 0.0,
			"-0.022": 0.0,
			"-0.021": 0.0,
			"-0.02": 0.0,
			"-0.019": 0.0,
			"-0.018": 0.0,
			"-0.017": 0.0,
			"-0.016": 0.0,
			"-0.015": 0.0,
			"-0.014": 0.0,
			"-0.013": 0.0,
			"-0.012": 0.0,
			"-0.011": 0.0,
			"-0.01": 0.549279494774,
			"-0.009": 3.30942359896,
			"-0.008": 8.47064678164,
			"-0.007": 7.31830176603,
			"-0.006": 9.06023972407,
			"-0.005": 10.9041604949,
			"-0.004": 13.767516096,
			"-0.003": 16.6038020546,
			"-0.002": 22.2056865249,
			"-0.001": 19.8376907347,
			"0.0": 15.8251316004,
			"0.001": 14.4169980385,
			"0.002": 14.8777515317,
			"0.003": 22.7087860432,
			"0.004": 11.8913961064,
			"0.005": 5.63208571511,
			"0.006": 6.37363409616,
			"0.007": 10.5926694483,
			"0.008": 12.1889756526,
			"0.009": 3.52841915814,
			"0.01": 0.0,
			"0.011": 0.0,
			"0.012": 0.0,
			"0.013": 0.0,
			"0.014": 0.0,
			"0.015": 0.0,
			"0.016": 0.0,
			"0.017": 0.0,
			"0.018": 0.0,
			"0.019": 0.0,
			"0.02": 0.0,
			"0.021": 0.0,
			"0.022": 0.0,
			"0.023": 0.0,
			"0.024": 0.0,
			"0.025": 0.0
		}
	}
}
