{
	 "smiles": "NC(CCO)C1=CC=C(F)C=C1", 
	 "Tm": 341.15, 
	 "num_atms": 24, 
	 "gaussian": { 
		 "optdone": 1, 
		 "sigma_profile": "yes", 
		 "theory": "DFT", 
		 "functional": "B3LYP", 
		 "basiset": "6-31G**", 
		 "properties": { 
			 "R2extent": 3416.1073, 
			 "electric_dipole_moment_norm": 4.07471330157, 
			 "electric_quadrupole_moment_norm": 6.66899860999, 
			 "total_energy": -579.985772673, 
			 "HOMO_LUMO_gap": 0.22705, 
			 "cosmo_polarized_energy": -12.53, 
			 "cosmo_cavitation_energy": 26.94, 
			 "cosmo_dispersion_energy": -19.35, 
			 "cosmo_repulsion_energy": 1.54, 
			 "cosmo_total_nonelectrostatic_energy": 9.13, 
			 "SMD_solvation_energy": 4.07 
		},
		"coords": [
			{
				"x": 2.3032732075,
				"y": -0.7392533816,
				"z": -1.4286675449,
				"element": "N" 
			},
			{
				"x": 1.0735186382,
				"y": -0.152588396,
				"z": -0.8724275596,
				"element": "C" 
			},
			{
				"x": 1.2094315061,
				"y": 1.37972457,
				"z": -0.6526162431,
				"element": "C" 
			},
			{
				"x": 0.0429151928,
				"y": 2.0714399241,
				"z": 0.0562177557,
				"element": "C" 
			},
			{
				"x": -0.3050600577,
				"y": 1.4571725828,
				"z": 1.2954388749,
				"element": "O" 
			},
			{
				"x": -0.1424734609,
				"y": -0.5141067082,
				"z": -1.7193554727,
				"element": "C" 
			},
			{
				"x": -1.4182796935,
				"y": -0.5459398738,
				"z": -1.1347826478,
				"element": "C" 
			},
			{
				"x": -2.5525430997,
				"y": -0.850442646,
				"z": -1.8877984767,
				"element": "C" 
			},
			{
				"x": -2.4001863478,
				"y": -1.1289017803,
				"z": -3.240707828,
				"element": "C" 
			},
			{
				"x": -3.4928813915,
				"y": -1.4265087303,
				"z": -3.9787860633,
				"element": "F" 
			},
			{
				"x": -1.1530147834,
				"y": -1.1201393286,
				"z": -3.8521530259,
				"element": "C" 
			},
			{
				"x": -0.0292914465,
				"y": -0.81567778,
				"z": -3.0822174541,
				"element": "C" 
			},
			{
				"x": 2.644985096,
				"y": -0.1632064573,
				"z": -2.1962514085,
				"element": "H" 
			},
			{
				"x": 3.0354690203,
				"y": -0.7143545139,
				"z": -0.7233830663,
				"element": "H" 
			},
			{
				"x": 0.926212583,
				"y": -0.6095015326,
				"z": 0.1123558685,
				"element": "H" 
			},
			{
				"x": 1.3628280246,
				"y": 1.8681377112,
				"z": -1.6257237325,
				"element": "H" 
			},
			{
				"x": 2.1303419669,
				"y": 1.548927048,
				"z": -0.0733217657,
				"element": "H" 
			},
			{
				"x": -0.860363677,
				"y": 2.0188077357,
				"z": -0.5569396103,
				"element": "H" 
			},
			{
				"x": 0.2792992306,
				"y": 3.1376194928,
				"z": 0.1966577199,
				"element": "H" 
			},
			{
				"x": 0.4592469145,
				"y": 1.517247107,
				"z": 1.8834320822,
				"element": "H" 
			},
			{
				"x": -1.5221419041,
				"y": -0.3320690928,
				"z": -0.0745774156,
				"element": "H" 
			},
			{
				"x": -3.5403861411,
				"y": -0.8821036262,
				"z": -1.440563509,
				"element": "H" 
			},
			{
				"x": -1.0715801116,
				"y": -1.3597254093,
				"z": -4.9070989809,
				"element": "H" 
			},
			{
				"x": 0.9492807342,
				"y": -0.8463569145,
				"z": -3.5490304961,
				"element": "H" 
			}
		],
		 "valence_orbital": [ 
			{
				"type": "occ",
				"energy": -0.32453,
				"method": "rhf"
			},
			{
				"type": "occ",
				"energy": -0.27979,
				"method": "rhf"
			},
			{
				"type": "occ",
				"energy": -0.25125,
				"method": "rhf"
			},
			{
				"type": "occ",
				"energy": -0.23804,
				"method": "rhf"
			},
			{
				"type": "occ",
				"energy": -0.22942,
				"method": "rhf"
			},
			{
				"type": "unocc",
				"energy": -0.00237,
				"method": "rhf"
			},
			{
				"type": "unocc",
				"energy": 0.00958,
				"method": "rhf"
			},
			{
				"type": "unocc",
				"energy": 0.06112,
				"method": "rhf"
			},
			{
				"type": "unocc",
				"energy": 0.08124,
				"method": "rhf"
			},
			{
				"type": "unocc",
				"energy": 0.10396,
				"method": "rhf"
			}
		],
		"cosmo_sigma_profile": { 
			"-0.025": 0.0,
			"-0.024": 0.0,
			"-0.023": 0.0,
			"-0.022": 0.0,
			"-0.021": 0.0,
			"-0.02": 0.0,
			"-0.019": 0.0,
			"-0.018": 0.0,
			"-0.017": 0.0,
			"-0.016": 0.0813133305467,
			"-0.015": 0.931196998107,
			"-0.014": 1.13268816746,
			"-0.013": 0.634134092453,
			"-0.012": 1.06762126608,
			"-0.011": 0.959703207221,
			"-0.01": 2.06987235178,
			"-0.009": 3.10763883131,
			"-0.008": 3.89973901971,
			"-0.007": 6.69177017605,
			"-0.006": 10.2354940448,
			"-0.005": 8.68704312721,
			"-0.004": 15.6479001885,
			"-0.003": 17.1332242939,
			"-0.002": 17.784739482,
			"-0.001": 15.282507819,
			"0.0": 11.8490250238,
			"0.001": 13.4689141706,
			"0.002": 12.8914146161,
			"0.003": 11.7162834576,
			"0.004": 16.6131903989,
			"0.005": 17.1002192066,
			"0.006": 3.95847730489,
			"0.007": 2.48305398642,
			"0.008": 2.21450379058,
			"0.009": 1.48646181508,
			"0.01": 2.01946687428,
			"0.011": 1.42061014177,
			"0.012": 2.0534609253,
			"0.013": 1.67710623762,
			"0.014": 1.98650391883,
			"0.015": 0.955565982367,
			"0.016": 0.553416138607,
			"0.017": 0.353136975724,
			"0.018": 0.757195058692,
			"0.019": 0.409093361144,
			"0.02": 0.0,
			"0.021": 0.0,
			"0.022": 0.0,
			"0.023": 0.0,
			"0.024": 0.0,
			"0.025": 0.0
		}
	}
}
