{
	 "smiles": "CCCCCCCCC1=CC=C(N)C=C1", 
	 "Tm": 293.15, 
	 "num_atms": 38, 
	 "gaussian": { 
		 "optdone": 1, 
		 "sigma_profile": "yes", 
		 "theory": "DFT", 
		 "functional": "B3LYP", 
		 "basiset": "6-31G**", 
		 "properties": { 
			 "R2extent": 6015.2953, 
			 "electric_dipole_moment_norm": 1.63329285188, 
			 "electric_quadrupole_moment_norm": 11.9083433663, 
			 "total_energy": -602.13525695, 
			 "HOMO_LUMO_gap": 0.20057, 
			 "cosmo_polarized_energy": -7.74, 
			 "cosmo_cavitation_energy": 38.92, 
			 "cosmo_dispersion_energy": -26.97, 
			 "cosmo_repulsion_energy": 2.18, 
			 "cosmo_total_nonelectrostatic_energy": 14.13, 
			 "SMD_solvation_energy": 5.53 
		},
		"coords": [
			{
				"x": -0.9390908743,
				"y": -1.5338245304,
				"z": 5.5685916167,
				"element": "C" 
			},
			{
				"x": -0.3565883986,
				"y": -2.8160255005,
				"z": 4.9615200859,
				"element": "C" 
			},
			{
				"x": 0.1932911135,
				"y": -2.6522411545,
				"z": 3.5344716197,
				"element": "C" 
			},
			{
				"x": -0.8739692512,
				"y": -2.328200315,
				"z": 2.4776737962,
				"element": "C" 
			},
			{
				"x": -0.3555527923,
				"y": -2.3111480736,
				"z": 1.0289985357,
				"element": "C" 
			},
			{
				"x": 0.637393808,
				"y": -1.1799866734,
				"z": 0.7207951011,
				"element": "C" 
			},
			{
				"x": 1.1394531998,
				"y": -1.1551589477,
				"z": -0.7324741676,
				"element": "C" 
			},
			{
				"x": 0.081817693,
				"y": -0.7797388732,
				"z": -1.797051168,
				"element": "C" 
			},
			{
				"x": -0.4588384335,
				"y": 0.6293034985,
				"z": -1.665739991,
				"element": "C" 
			},
			{
				"x": -1.7344645537,
				"y": 0.8868652758,
				"z": -1.1479085195,
				"element": "C" 
			},
			{
				"x": -2.2246418816,
				"y": 2.1847817069,
				"z": -1.0137180723,
				"element": "C" 
			},
			{
				"x": -1.4441824009,
				"y": 3.2858741187,
				"z": -1.398740906,
				"element": "C" 
			},
			{
				"x": -1.904555667,
				"y": 4.5950125989,
				"z": -1.2154167045,
				"element": "N" 
			},
			{
				"x": -0.1637957277,
				"y": 3.0392289453,
				"z": -1.923376108,
				"element": "C" 
			},
			{
				"x": 0.3105510593,
				"y": 1.7372286047,
				"z": -2.0509315592,
				"element": "C" 
			},
			{
				"x": -1.8049896845,
				"y": -1.1713420675,
				"z": 5.0052787355,
				"element": "H" 
			},
			{
				"x": -0.1934955618,
				"y": -0.7300534204,
				"z": 5.5812483466,
				"element": "H" 
			},
			{
				"x": -1.2656816026,
				"y": -1.6992825855,
				"z": 6.6007331008,
				"element": "H" 
			},
			{
				"x": -1.1241950757,
				"y": -3.6024750439,
				"z": 4.9639623977,
				"element": "H" 
			},
			{
				"x": 0.4512751494,
				"y": -3.1802023805,
				"z": 5.609341045,
				"element": "H" 
			},
			{
				"x": 0.7025407232,
				"y": -3.5819219323,
				"z": 3.2439319729,
				"element": "H" 
			},
			{
				"x": 0.9656051534,
				"y": -1.8715704197,
				"z": 3.5398084033,
				"element": "H" 
			},
			{
				"x": -1.3383656229,
				"y": -1.3581995748,
				"z": 2.6995219946,
				"element": "H" 
			},
			{
				"x": -1.6775251922,
				"y": -3.0741974544,
				"z": 2.5549562027,
				"element": "H" 
			},
			{
				"x": 0.116123049,
				"y": -3.2786651168,
				"z": 0.8016321328,
				"element": "H" 
			},
			{
				"x": -1.2188042588,
				"y": -2.231819277,
				"z": 0.3560467966,
				"element": "H" 
			},
			{
				"x": 0.1738135164,
				"y": -0.2139689919,
				"z": 0.9611546323,
				"element": "H" 
			},
			{
				"x": 1.5087276598,
				"y": -1.2730875908,
				"z": 1.3805437531,
				"element": "H" 
			},
			{
				"x": 1.5573375265,
				"y": -2.1391520147,
				"z": -0.9872754164,
				"element": "H" 
			},
			{
				"x": 1.9704093988,
				"y": -0.4419316045,
				"z": -0.8068771472,
				"element": "H" 
			},
			{
				"x": 0.5411392475,
				"y": -0.9019438016,
				"z": -2.7866565482,
				"element": "H" 
			},
			{
				"x": -0.7495644689,
				"y": -1.4933036966,
				"z": -1.7612276406,
				"element": "H" 
			},
			{
				"x": -2.3663050951,
				"y": 0.0534687061,
				"z": -0.8490889816,
				"element": "H" 
			},
			{
				"x": -3.2198078694,
				"y": 2.3490599939,
				"z": -0.6066328906,
				"element": "H" 
			},
			{
				"x": -1.4834657233,
				"y": 5.2804893334,
				"z": -1.8279817719,
				"element": "H" 
			},
			{
				"x": -2.9110413631,
				"y": 4.6895735521,
				"z": -1.1936968657,
				"element": "H" 
			},
			{
				"x": 0.4582082291,
				"y": 3.8763080628,
				"z": -2.2325636499,
				"element": "H" 
			},
			{
				"x": 1.3025349724,
				"y": 1.5787466441,
				"z": -2.4689521612,
				"element": "H" 
			}
		],
		 "valence_orbital": [ 
			{
				"type": "occ",
				"energy": -0.30043,
				"method": "rhf"
			},
			{
				"type": "occ",
				"energy": -0.29656,
				"method": "rhf"
			},
			{
				"type": "occ",
				"energy": -0.28936,
				"method": "rhf"
			},
			{
				"type": "occ",
				"energy": -0.23956,
				"method": "rhf"
			},
			{
				"type": "occ",
				"energy": -0.1928,
				"method": "rhf"
			},
			{
				"type": "unocc",
				"energy": 0.00777,
				"method": "rhf"
			},
			{
				"type": "unocc",
				"energy": 0.02355,
				"method": "rhf"
			},
			{
				"type": "unocc",
				"energy": 0.08472,
				"method": "rhf"
			},
			{
				"type": "unocc",
				"energy": 0.08785,
				"method": "rhf"
			},
			{
				"type": "unocc",
				"energy": 0.09834,
				"method": "rhf"
			}
		],
		"cosmo_sigma_profile": { 
			"-0.025": 0.0,
			"-0.024": 0.0,
			"-0.023": 0.0,
			"-0.022": 0.0,
			"-0.021": 0.0,
			"-0.02": 0.0,
			"-0.019": 0.0,
			"-0.018": 0.0,
			"-0.017": 0.0,
			"-0.016": 0.0,
			"-0.015": 0.0,
			"-0.014": 0.0,
			"-0.013": 0.027719022019,
			"-0.012": 1.60105749466,
			"-0.011": 2.87832377644,
			"-0.01": 2.06647831737,
			"-0.009": 3.3769004389,
			"-0.008": 3.27147459745,
			"-0.007": 2.68570398186,
			"-0.006": 3.44258459458,
			"-0.005": 5.90078385042,
			"-0.004": 8.04975239734,
			"-0.003": 14.5541596249,
			"-0.002": 34.292866087,
			"-0.001": 45.1468486699,
			"0.0": 51.2866242418,
			"0.001": 52.5067165648,
			"0.002": 22.9207966726,
			"0.003": 7.46560696015,
			"0.004": 7.17540399926,
			"0.005": 6.90790636434,
			"0.006": 8.2984734698,
			"0.007": 8.85294941402,
			"0.008": 3.51379694693,
			"0.009": 0.85480428895,
			"0.01": 0.71494032399,
			"0.011": 0.90527940984,
			"0.012": 0.853687525325,
			"0.013": 0.31907162249,
			"0.014": 0.7713261479,
			"0.015": 0.624818375224,
			"0.016": 0.0721335008756,
			"0.017": 0.0,
			"0.018": 0.0,
			"0.019": 0.0,
			"0.02": 0.0,
			"0.021": 0.0,
			"0.022": 0.0,
			"0.023": 0.0,
			"0.024": 0.0,
			"0.025": 0.0
		}
	}
}
