{
	 "smiles": "CCC=CC", 
	 "Tm": 122.15, 
	 "num_atms": 15, 
	 "gaussian": { 
		 "optdone": 1, 
		 "sigma_profile": "yes", 
		 "theory": "DFT", 
		 "functional": "B3LYP", 
		 "basiset": "6-31G**", 
		 "properties": { 
			 "R2extent": 747.2968, 
			 "electric_dipole_moment_norm": 0.209535510117, 
			 "electric_quadrupole_moment_norm": 1.56016056866, 
			 "total_energy": -196.548517844, 
			 "HOMO_LUMO_gap": 0.26826, 
			 "cosmo_polarized_energy": -1.42, 
			 "cosmo_cavitation_energy": 17.35, 
			 "cosmo_dispersion_energy": -12.79, 
			 "cosmo_repulsion_energy": 1.16, 
			 "cosmo_total_nonelectrostatic_energy": 5.72, 
			 "SMD_solvation_energy": 3.47 
		},
		"coords": [
			{
				"x": -0.6071187213,
				"y": 0.83404413,
				"z": 1.5870861936,
				"element": "C" 
			},
			{
				"x": -1.2587080237,
				"y": 0.0884675295,
				"z": 0.4092369908,
				"element": "C" 
			},
			{
				"x": -1.0500790882,
				"y": -1.4009576097,
				"z": 0.484733638,
				"element": "C" 
			},
			{
				"x": -0.4415309833,
				"y": -2.197890704,
				"z": -0.4019608199,
				"element": "C" 
			},
			{
				"x": 0.1819801611,
				"y": -1.81447631,
				"z": -1.7150827035,
				"element": "C" 
			},
			{
				"x": -0.987422013,
				"y": 0.4656704399,
				"z": 2.5464703069,
				"element": "H" 
			},
			{
				"x": 0.4786859496,
				"y": 0.6944102756,
				"z": 1.5867174346,
				"element": "H" 
			},
			{
				"x": -0.8125900042,
				"y": 1.9085082682,
				"z": 1.537074335,
				"element": "H" 
			},
			{
				"x": -2.3385355502,
				"y": 0.2971680674,
				"z": 0.4161525802,
				"element": "H" 
			},
			{
				"x": -0.8771894317,
				"y": 0.490367742,
				"z": -0.5348983931,
				"element": "H" 
			},
			{
				"x": -1.4419154848,
				"y": -1.8674648299,
				"z": 1.3901826743,
				"element": "H" 
			},
			{
				"x": -0.3841000077,
				"y": -3.2600435781,
				"z": -0.1620960822,
				"element": "H" 
			},
			{
				"x": -0.3068746601,
				"y": -2.337900846,
				"z": -2.5469528558,
				"element": "H" 
			},
			{
				"x": 1.2397236574,
				"y": -2.1059117683,
				"z": -1.7436677451,
				"element": "H" 
			},
			{
				"x": 0.1253742001,
				"y": -0.7423908063,
				"z": -1.9174955537,
				"element": "H" 
			}
		],
		 "valence_orbital": [ 
			{
				"type": "occ",
				"energy": -0.36465,
				"method": "rhf"
			},
			{
				"type": "occ",
				"energy": -0.36157,
				"method": "rhf"
			},
			{
				"type": "occ",
				"energy": -0.33619,
				"method": "rhf"
			},
			{
				"type": "occ",
				"energy": -0.31746,
				"method": "rhf"
			},
			{
				"type": "occ",
				"energy": -0.2351,
				"method": "rhf"
			},
			{
				"type": "unocc",
				"energy": 0.03316,
				"method": "rhf"
			},
			{
				"type": "unocc",
				"energy": 0.10068,
				"method": "rhf"
			},
			{
				"type": "unocc",
				"energy": 0.1172,
				"method": "rhf"
			},
			{
				"type": "unocc",
				"energy": 0.13107,
				"method": "rhf"
			},
			{
				"type": "unocc",
				"energy": 0.15739,
				"method": "rhf"
			}
		],
		"cosmo_sigma_profile": { 
			"-0.025": 0.0,
			"-0.024": 0.0,
			"-0.023": 0.0,
			"-0.022": 0.0,
			"-0.021": 0.0,
			"-0.02": 0.0,
			"-0.019": 0.0,
			"-0.018": 0.0,
			"-0.017": 0.0,
			"-0.016": 0.0,
			"-0.015": 0.0,
			"-0.014": 0.0,
			"-0.013": 0.0,
			"-0.012": 0.0,
			"-0.011": 0.0,
			"-0.01": 0.0,
			"-0.009": 0.0,
			"-0.008": 0.0,
			"-0.007": 0.0,
			"-0.006": 0.0,
			"-0.005": 0.313512262571,
			"-0.004": 4.64220223987,
			"-0.003": 14.6604711504,
			"-0.002": 19.8275905914,
			"-0.001": 22.7182820996,
			"0.0": 24.457363504,
			"0.001": 21.7780869785,
			"0.002": 9.01714923061,
			"0.003": 4.63790744782,
			"0.004": 3.61896833076,
			"0.005": 3.46012360222,
			"0.006": 2.57832746755,
			"0.007": 2.45885445967,
			"0.008": 0.954166550056,
			"0.009": 0.0,
			"0.01": 0.0,
			"0.011": 0.0,
			"0.012": 0.0,
			"0.013": 0.0,
			"0.014": 0.0,
			"0.015": 0.0,
			"0.016": 0.0,
			"0.017": 0.0,
			"0.018": 0.0,
			"0.019": 0.0,
			"0.02": 0.0,
			"0.021": 0.0,
			"0.022": 0.0,
			"0.023": 0.0,
			"0.024": 0.0,
			"0.025": 0.0
		}
	}
}
