{
	 "smiles": "CC1=CC(CC(O)=O)=C(C)N1C1=CC=C(C)C=C1", 
	 "Tm": 324.15, 
	 "num_atms": 35, 
	 "gaussian": { 
		 "optdone": 1, 
		 "sigma_profile": "yes", 
		 "theory": "DFT", 
		 "functional": "B3LYP", 
		 "basiset": "6-31G**", 
		 "properties": { 
			 "R2extent": 6081.5298, 
			 "electric_dipole_moment_norm": 2.96006839448, 
			 "electric_quadrupole_moment_norm": 11.0392233205, 
			 "total_energy": -787.069381282, 
			 "HOMO_LUMO_gap": 0.17383, 
			 "cosmo_polarized_energy": -11.75, 
			 "cosmo_cavitation_energy": 38.62, 
			 "cosmo_dispersion_energy": -26.14, 
			 "cosmo_repulsion_energy": 2.06, 
			 "cosmo_total_nonelectrostatic_energy": 14.54, 
			 "SMD_solvation_energy": 7.79 
		},
		"coords": [
			{
				"x": 2.1106603336,
				"y": 0.8670731966,
				"z": 1.4883031989,
				"element": "C" 
			},
			{
				"x": 1.0834322702,
				"y": -0.2195979516,
				"z": 1.5151396848,
				"element": "C" 
			},
			{
				"x": 1.0187064946,
				"y": -1.3594389626,
				"z": 2.282852462,
				"element": "C" 
			},
			{
				"x": -0.1904697614,
				"y": -2.0466350583,
				"z": 1.9647566467,
				"element": "C" 
			},
			{
				"x": -0.6573195086,
				"y": -3.3525442106,
				"z": 2.5649515069,
				"element": "C" 
			},
			{
				"x": -0.4228294394,
				"y": -4.5113538712,
				"z": 1.6139792167,
				"element": "C" 
			},
			{
				"x": 0.8200172496,
				"y": -5.0350859741,
				"z": 1.7409799476,
				"element": "O" 
			},
			{
				"x": -1.220892245,
				"y": -4.927688629,
				"z": 0.7998885798,
				"element": "O" 
			},
			{
				"x": -0.8469487089,
				"y": -1.3105196117,
				"z": 0.9949040679,
				"element": "C" 
			},
			{
				"x": -2.1337483768,
				"y": -1.5826262398,
				"z": 0.2801524682,
				"element": "C" 
			},
			{
				"x": -0.0638637725,
				"y": -0.1909527956,
				"z": 0.7263030729,
				"element": "N" 
			},
			{
				"x": -0.3920811042,
				"y": 0.835298097,
				"z": -0.2112104418,
				"element": "C" 
			},
			{
				"x": 0.329523195,
				"y": 0.9595733884,
				"z": -1.4026879276,
				"element": "C" 
			},
			{
				"x": 0.0126961196,
				"y": 1.9700162569,
				"z": -2.3093924022,
				"element": "C" 
			},
			{
				"x": -1.0345599342,
				"y": 2.8673843411,
				"z": -2.0601292136,
				"element": "C" 
			},
			{
				"x": -1.3983034937,
				"y": 3.9360542861,
				"z": -3.0638291749,
				"element": "C" 
			},
			{
				"x": -1.7506202155,
				"y": 2.7279224242,
				"z": -0.8634613766,
				"element": "C" 
			},
			{
				"x": -1.4344237497,
				"y": 1.7285676536,
				"z": 0.0555476216,
				"element": "C" 
			},
			{
				"x": 2.627950036,
				"y": 0.9420412395,
				"z": 0.5242259464,
				"element": "H" 
			},
			{
				"x": 1.6756080917,
				"y": 1.8526164201,
				"z": 1.6945404984,
				"element": "H" 
			},
			{
				"x": 2.864648715,
				"y": 0.6673370517,
				"z": 2.2537134722,
				"element": "H" 
			},
			{
				"x": 1.7590222219,
				"y": -1.6682578162,
				"z": 3.0091852456,
				"element": "H" 
			},
			{
				"x": -1.7285234583,
				"y": -3.3310401838,
				"z": 2.7831652214,
				"element": "H" 
			},
			{
				"x": -0.1192473102,
				"y": -3.5407835732,
				"z": 3.4980856188,
				"element": "H" 
			},
			{
				"x": 0.8891761582,
				"y": -5.7260363515,
				"z": 1.060587222,
				"element": "H" 
			},
			{
				"x": -2.4190808717,
				"y": -2.6268269968,
				"z": 0.4231799011,
				"element": "H" 
			},
			{
				"x": -2.0377599927,
				"y": -1.4136414909,
				"z": -0.7980309738,
				"element": "H" 
			},
			{
				"x": -2.9580976434,
				"y": -0.9481903757,
				"z": 0.6314489262,
				"element": "H" 
			},
			{
				"x": 1.131527537,
				"y": 0.2590261004,
				"z": -1.6135806196,
				"element": "H" 
			},
			{
				"x": 0.5845521962,
				"y": 2.0578944659,
				"z": -3.2297739358,
				"element": "H" 
			},
			{
				"x": -1.8324381511,
				"y": 4.8133293045,
				"z": -2.5750623403,
				"element": "H" 
			},
			{
				"x": -0.5244900609,
				"y": 4.2635753813,
				"z": -3.6349498941,
				"element": "H" 
			},
			{
				"x": -2.1380368593,
				"y": 3.5660161314,
				"z": -3.7848180432,
				"element": "H" 
			},
			{
				"x": -2.5618302272,
				"y": 3.4171048928,
				"z": -0.6425052161,
				"element": "H" 
			},
			{
				"x": -1.9838557338,
				"y": 1.6406894609,
				"z": 0.9876410334,
				"element": "H" 
			}
		],
		 "valence_orbital": [ 
			{
				"type": "occ",
				"energy": -0.26873,
				"method": "rhf"
			},
			{
				"type": "occ",
				"energy": -0.25881,
				"method": "rhf"
			},
			{
				"type": "occ",
				"energy": -0.25112,
				"method": "rhf"
			},
			{
				"type": "occ",
				"energy": -0.21973,
				"method": "rhf"
			},
			{
				"type": "occ",
				"energy": -0.18637,
				"method": "rhf"
			},
			{
				"type": "unocc",
				"energy": -0.01254,
				"method": "rhf"
			},
			{
				"type": "unocc",
				"energy": -0.01123,
				"method": "rhf"
			},
			{
				"type": "unocc",
				"energy": 0.01732,
				"method": "rhf"
			},
			{
				"type": "unocc",
				"energy": 0.04603,
				"method": "rhf"
			},
			{
				"type": "unocc",
				"energy": 0.08539,
				"method": "rhf"
			}
		],
		"cosmo_sigma_profile": { 
			"-0.025": 0.0,
			"-0.024": 0.0,
			"-0.023": 0.0,
			"-0.022": 0.0,
			"-0.021": 0.0,
			"-0.02": 0.0,
			"-0.019": 0.0324197556759,
			"-0.018": 0.607882847142,
			"-0.017": 0.946333687336,
			"-0.016": 1.0801745021,
			"-0.015": 0.420071674744,
			"-0.014": 0.632745255758,
			"-0.013": 0.385598282279,
			"-0.012": 0.530176428995,
			"-0.011": 1.21593651834,
			"-0.01": 0.558914779589,
			"-0.009": 0.614269554435,
			"-0.008": 0.494304438194,
			"-0.007": 1.42322535876,
			"-0.006": 6.68351457355,
			"-0.005": 15.0938084649,
			"-0.004": 30.1130137763,
			"-0.003": 30.7687931323,
			"-0.002": 30.5522420937,
			"-0.001": 30.4042114362,
			"0.0": 35.8407423754,
			"0.001": 21.4347954861,
			"0.002": 14.7335307645,
			"0.003": 16.5254615386,
			"0.004": 13.9100042345,
			"0.005": 14.3996402032,
			"0.006": 7.24646218369,
			"0.007": 6.85767511303,
			"0.008": 6.47405215191,
			"0.009": 4.45066758811,
			"0.01": 2.64536196002,
			"0.011": 2.93558410458,
			"0.012": 4.37894727651,
			"0.013": 0.40965769363,
			"0.014": 0.0,
			"0.015": 0.0,
			"0.016": 0.0,
			"0.017": 0.0,
			"0.018": 0.0,
			"0.019": 0.0,
			"0.02": 0.0,
			"0.021": 0.0,
			"0.022": 0.0,
			"0.023": 0.0,
			"0.024": 0.0,
			"0.025": 0.0
		}
	}
}
