{
	 "smiles": "COC1=C(OCC(O)CNC(C)C)C=CC=C1", 
	 "Tm": 355.65, 
	 "num_atms": 38, 
	 "gaussian": { 
		 "optdone": 1, 
		 "sigma_profile": "yes", 
		 "theory": "DFT", 
		 "functional": "B3LYP", 
		 "basiset": "6-31G**", 
		 "properties": { 
			 "R2extent": 6514.9011, 
			 "electric_dipole_moment_norm": 2.97384112723, 
			 "electric_quadrupole_moment_norm": 10.6309069693, 
			 "total_energy": -788.433951541, 
			 "HOMO_LUMO_gap": 0.2106, 
			 "cosmo_polarized_energy": -12.72, 
			 "cosmo_cavitation_energy": 39.71, 
			 "cosmo_dispersion_energy": -27.37, 
			 "cosmo_repulsion_energy": 2.18, 
			 "cosmo_total_nonelectrostatic_energy": 14.52, 
			 "SMD_solvation_energy": 7.1 
		},
		"coords": [
			{
				"x": 2.6557577743,
				"y": -0.6480000586,
				"z": 4.3297346668,
				"element": "C" 
			},
			{
				"x": 2.0514563564,
				"y": -1.0943452887,
				"z": 3.1295442519,
				"element": "O" 
			},
			{
				"x": 2.2356701402,
				"y": -0.3425855117,
				"z": 2.0048952356,
				"element": "C" 
			},
			{
				"x": 1.6275482897,
				"y": -0.8497739454,
				"z": 0.8270697378,
				"element": "C" 
			},
			{
				"x": 0.958939619,
				"y": -2.0311957086,
				"z": 0.9854823068,
				"element": "O" 
			},
			{
				"x": 0.3298760158,
				"y": -2.6449319895,
				"z": -0.1366813664,
				"element": "C" 
			},
			{
				"x": -1.068003004,
				"y": -2.0820507691,
				"z": -0.4002575155,
				"element": "C" 
			},
			{
				"x": -1.5533929488,
				"y": -2.7179833352,
				"z": -1.5672201868,
				"element": "O" 
			},
			{
				"x": -2.0322870274,
				"y": -2.3458413266,
				"z": 0.7691717963,
				"element": "C" 
			},
			{
				"x": -3.4041104842,
				"y": -2.039775995,
				"z": 0.3373041407,
				"element": "N" 
			},
			{
				"x": -3.8608092406,
				"y": -0.6501410723,
				"z": 0.5317272197,
				"element": "C" 
			},
			{
				"x": -5.1139586035,
				"y": -0.416247838,
				"z": -0.3176312588,
				"element": "C" 
			},
			{
				"x": -4.1096762451,
				"y": -0.2880850621,
				"z": 2.0055755507,
				"element": "C" 
			},
			{
				"x": 1.7576439882,
				"y": -0.1424673065,
				"z": -0.3669915167,
				"element": "C" 
			},
			{
				"x": 2.4884703873,
				"y": 1.0531040827,
				"z": -0.4105596866,
				"element": "C" 
			},
			{
				"x": 3.0865437319,
				"y": 1.5461404691,
				"z": 0.7404431153,
				"element": "C" 
			},
			{
				"x": 2.9584062208,
				"y": 0.8477875901,
				"z": 1.9491159316,
				"element": "C" 
			},
			{
				"x": 2.3964183856,
				"y": -1.3865127155,
				"z": 5.0902775184,
				"element": "H" 
			},
			{
				"x": 3.7488710836,
				"y": -0.5925076061,
				"z": 4.2396432352,
				"element": "H" 
			},
			{
				"x": 2.274727673,
				"y": 0.3350411858,
				"z": 4.6379157741,
				"element": "H" 
			},
			{
				"x": 0.2496913571,
				"y": -3.706427486,
				"z": 0.1168295767,
				"element": "H" 
			},
			{
				"x": 0.9453127353,
				"y": -2.5650118851,
				"z": -1.0397763988,
				"element": "H" 
			},
			{
				"x": -0.9879825485,
				"y": -0.9921056823,
				"z": -0.5555414574,
				"element": "H" 
			},
			{
				"x": -2.5220397721,
				"y": -2.6400748738,
				"z": -1.4796043743,
				"element": "H" 
			},
			{
				"x": -1.7063307966,
				"y": -1.7935959155,
				"z": 1.6613045699,
				"element": "H" 
			},
			{
				"x": -1.9887455068,
				"y": -3.4141803517,
				"z": 1.0109855076,
				"element": "H" 
			},
			{
				"x": -4.0613343969,
				"y": -2.6706701875,
				"z": 0.7879553656,
				"element": "H" 
			},
			{
				"x": -3.0611381803,
				"y": -0.0043656844,
				"z": 0.1469103706,
				"element": "H" 
			},
			{
				"x": -5.9330914197,
				"y": -1.0672881801,
				"z": 0.0127433572,
				"element": "H" 
			},
			{
				"x": -5.4599641057,
				"y": 0.6188597911,
				"z": -0.2329074457,
				"element": "H" 
			},
			{
				"x": -4.914767476,
				"y": -0.6339691124,
				"z": -1.3704937983,
				"element": "H" 
			},
			{
				"x": -4.3884140291,
				"y": 0.7658978178,
				"z": 2.1105083307,
				"element": "H" 
			},
			{
				"x": -3.221632242,
				"y": -0.4586929912,
				"z": 2.6217171288,
				"element": "H" 
			},
			{
				"x": -4.9287863671,
				"y": -0.8916146689,
				"z": 2.4165624598,
				"element": "H" 
			},
			{
				"x": 1.2895189183,
				"y": -0.5108391576,
				"z": -1.2720779292,
				"element": "H" 
			},
			{
				"x": 2.5773989462,
				"y": 1.5874715135,
				"z": -1.3514566565,
				"element": "H" 
			},
			{
				"x": 3.6530375108,
				"y": 2.4719924308,
				"z": 0.7160968528,
				"element": "H" 
			},
			{
				"x": 3.4278752606,
				"y": 1.2394868244,
				"z": 2.8437855905,
				"element": "H" 
			}
		],
		 "valence_orbital": [ 
			{
				"type": "occ",
				"energy": -0.30327,
				"method": "rhf"
			},
			{
				"type": "occ",
				"energy": -0.25928,
				"method": "rhf"
			},
			{
				"type": "occ",
				"energy": -0.2333,
				"method": "rhf"
			},
			{
				"type": "occ",
				"energy": -0.22945,
				"method": "rhf"
			},
			{
				"type": "occ",
				"energy": -0.19664,
				"method": "rhf"
			},
			{
				"type": "unocc",
				"energy": 0.01396,
				"method": "rhf"
			},
			{
				"type": "unocc",
				"energy": 0.02139,
				"method": "rhf"
			},
			{
				"type": "unocc",
				"energy": 0.06845,
				"method": "rhf"
			},
			{
				"type": "unocc",
				"energy": 0.08721,
				"method": "rhf"
			},
			{
				"type": "unocc",
				"energy": 0.09773,
				"method": "rhf"
			}
		],
		"cosmo_sigma_profile": { 
			"-0.025": 0.0,
			"-0.024": 0.0,
			"-0.023": 0.0,
			"-0.022": 0.0,
			"-0.021": 0.0,
			"-0.02": 0.0,
			"-0.019": 0.0,
			"-0.018": 0.0,
			"-0.017": 0.0,
			"-0.016": 0.0,
			"-0.015": 0.0,
			"-0.014": 0.0,
			"-0.013": 0.0,
			"-0.012": 0.0,
			"-0.011": 0.0084889891753,
			"-0.01": 0.986748000191,
			"-0.009": 1.39413087757,
			"-0.008": 1.41172660745,
			"-0.007": 2.72415173043,
			"-0.006": 10.1371176257,
			"-0.005": 23.5223950846,
			"-0.004": 29.1548402569,
			"-0.003": 36.2584151203,
			"-0.002": 34.256646189,
			"-0.001": 28.3598722349,
			"0.0": 24.7033977392,
			"0.001": 26.4700693727,
			"0.002": 16.4963048079,
			"0.003": 12.6779679951,
			"0.004": 12.1407389244,
			"0.005": 10.8010231696,
			"0.006": 11.8762841352,
			"0.007": 5.78270847103,
			"0.008": 1.96895902331,
			"0.009": 2.92378259836,
			"0.01": 3.0108963103,
			"0.011": 2.59417167239,
			"0.012": 2.49356528924,
			"0.013": 2.95970161596,
			"0.014": 3.09164833003,
			"0.015": 1.77474460325,
			"0.016": 0.0176649038278,
			"0.017": 0.0,
			"0.018": 0.0,
			"0.019": 0.0,
			"0.02": 0.0,
			"0.021": 0.0,
			"0.022": 0.0,
			"0.023": 0.0,
			"0.024": 0.0,
			"0.025": 0.0
		}
	}
}
