{
	 "smiles": "CCC1=CC=CC=C1C1=CC=CC=C1", 
	 "Tm": 267.15, 
	 "num_atms": 28, 
	 "gaussian": { 
		 "optdone": 1, 
		 "sigma_profile": "yes", 
		 "theory": "DFT", 
		 "functional": "B3LYP", 
		 "basiset": "6-31G**", 
		 "properties": { 
			 "R2extent": 3130.2108, 
			 "electric_dipole_moment_norm": 0.273194912105, 
			 "electric_quadrupole_moment_norm": 5.55165192983, 
			 "total_energy": -541.942209068, 
			 "HOMO_LUMO_gap": 0.21335, 
			 "cosmo_polarized_energy": -4.6, 
			 "cosmo_cavitation_energy": 30.7, 
			 "cosmo_dispersion_energy": -21.5, 
			 "cosmo_repulsion_energy": 1.71, 
			 "cosmo_total_nonelectrostatic_energy": 10.91, 
			 "SMD_solvation_energy": 5.03 
		},
		"coords": [
			{
				"x": -2.1842023829,
				"y": 0.8576924418,
				"z": -0.0503382717,
				"element": "C" 
			},
			{
				"x": -1.0253705419,
				"y": 0.6767054633,
				"z": 0.9475264839,
				"element": "C" 
			},
			{
				"x": 0.3351422577,
				"y": 0.7695964624,
				"z": 0.28142883,
				"element": "C" 
			},
			{
				"x": 0.9860187264,
				"y": 2.0109089582,
				"z": 0.2454161124,
				"element": "C" 
			},
			{
				"x": 2.1964166501,
				"y": 2.1895393538,
				"z": -0.4228964185,
				"element": "C" 
			},
			{
				"x": 2.7827755014,
				"y": 1.1104946166,
				"z": -1.0830611595,
				"element": "C" 
			},
			{
				"x": 2.153334282,
				"y": -0.1327153927,
				"z": -1.0561126056,
				"element": "C" 
			},
			{
				"x": 0.9393458826,
				"y": -0.3263160565,
				"z": -0.3773188075,
				"element": "C" 
			},
			{
				"x": 0.3369942622,
				"y": -1.6946408908,
				"z": -0.3885032944,
				"element": "C" 
			},
			{
				"x": -0.0604750962,
				"y": -2.2834237504,
				"z": -1.5993909183,
				"element": "C" 
			},
			{
				"x": -0.5885038685,
				"y": -3.5753582611,
				"z": -1.6289454413,
				"element": "C" 
			},
			{
				"x": -0.7246124899,
				"y": -4.304676938,
				"z": -0.4469482751,
				"element": "C" 
			},
			{
				"x": -0.3246990299,
				"y": -3.7349696254,
				"z": 0.7637683124,
				"element": "C" 
			},
			{
				"x": 0.2022893531,
				"y": -2.4436954378,
				"z": 0.7919839634,
				"element": "C" 
			},
			{
				"x": -2.1682474163,
				"y": 0.0733986622,
				"z": -0.8132843322,
				"element": "H" 
			},
			{
				"x": -2.1150446444,
				"y": 1.8238058687,
				"z": -0.5609582017,
				"element": "H" 
			},
			{
				"x": -3.150820308,
				"y": 0.8114155916,
				"z": 0.4625142198,
				"element": "H" 
			},
			{
				"x": -1.0928506883,
				"y": 1.4501737227,
				"z": 1.7215277299,
				"element": "H" 
			},
			{
				"x": -1.14428021,
				"y": -0.2838793955,
				"z": 1.4554401681,
				"element": "H" 
			},
			{
				"x": 0.5242806925,
				"y": 2.8563659631,
				"z": 0.7505344344,
				"element": "H" 
			},
			{
				"x": 2.6760939444,
				"y": 3.1643253105,
				"z": -0.4275237282,
				"element": "H" 
			},
			{
				"x": 3.7258610664,
				"y": 1.2311987101,
				"z": -1.6084146155,
				"element": "H" 
			},
			{
				"x": 2.6119606794,
				"y": -0.9822262944,
				"z": -1.5547019192,
				"element": "H" 
			},
			{
				"x": 0.0414777039,
				"y": -1.7169420808,
				"z": -2.5208894504,
				"element": "H" 
			},
			{
				"x": -0.8944474832,
				"y": -4.0106249442,
				"z": -2.5762907484,
				"element": "H" 
			},
			{
				"x": -1.1350331255,
				"y": -5.3101564702,
				"z": -0.4686930221,
				"element": "H" 
			},
			{
				"x": -0.4152920565,
				"y": -4.2997500108,
				"z": 1.6875266488,
				"element": "H" 
			},
			{
				"x": 0.5324883394,
				"y": -2.0148455765,
				"z": 1.7340043064,
				"element": "H" 
			}
		],
		 "valence_orbital": [ 
			{
				"type": "occ",
				"energy": -0.31877,
				"method": "rhf"
			},
			{
				"type": "occ",
				"energy": -0.25707,
				"method": "rhf"
			},
			{
				"type": "occ",
				"energy": -0.24871,
				"method": "rhf"
			},
			{
				"type": "occ",
				"energy": -0.23974,
				"method": "rhf"
			},
			{
				"type": "occ",
				"energy": -0.22728,
				"method": "rhf"
			},
			{
				"type": "unocc",
				"energy": -0.01393,
				"method": "rhf"
			},
			{
				"type": "unocc",
				"energy": -0.00321,
				"method": "rhf"
			},
			{
				"type": "unocc",
				"energy": 0.00592,
				"method": "rhf"
			},
			{
				"type": "unocc",
				"energy": 0.01704,
				"method": "rhf"
			},
			{
				"type": "unocc",
				"energy": 0.09456,
				"method": "rhf"
			}
		],
		"cosmo_sigma_profile": { 
			"-0.025": 0.0,
			"-0.024": 0.0,
			"-0.023": 0.0,
			"-0.022": 0.0,
			"-0.021": 0.0,
			"-0.02": 0.0,
			"-0.019": 0.0,
			"-0.018": 0.0,
			"-0.017": 0.0,
			"-0.016": 0.0,
			"-0.015": 0.0,
			"-0.014": 0.0,
			"-0.013": 0.0,
			"-0.012": 0.0,
			"-0.011": 0.0,
			"-0.01": 0.0,
			"-0.009": 0.0,
			"-0.008": 0.0,
			"-0.007": 0.0,
			"-0.006": 3.749887819,
			"-0.005": 17.0965139429,
			"-0.004": 20.6353606259,
			"-0.003": 25.1981293404,
			"-0.002": 23.3423551337,
			"-0.001": 24.3879790343,
			"0.0": 26.0221122713,
			"0.001": 25.3626223241,
			"0.002": 17.1739906924,
			"0.003": 16.479328874,
			"0.004": 13.3808843638,
			"0.005": 15.1512917783,
			"0.006": 13.8408968522,
			"0.007": 2.05885551748,
			"0.008": 0.0,
			"0.009": 0.0,
			"0.01": 0.0,
			"0.011": 0.0,
			"0.012": 0.0,
			"0.013": 0.0,
			"0.014": 0.0,
			"0.015": 0.0,
			"0.016": 0.0,
			"0.017": 0.0,
			"0.018": 0.0,
			"0.019": 0.0,
			"0.02": 0.0,
			"0.021": 0.0,
			"0.022": 0.0,
			"0.023": 0.0,
			"0.024": 0.0,
			"0.025": 0.0
		}
	}
}
