{
	 "smiles": "CCCCOC(C)=O", 
	 "Tm": 195.15, 
	 "num_atms": 20, 
	 "gaussian": { 
		 "optdone": 1, 
		 "sigma_profile": "yes", 
		 "theory": "DFT", 
		 "functional": "B3LYP", 
		 "basiset": "6-31G**", 
		 "properties": { 
			 "R2extent": 1873.7638, 
			 "electric_dipole_moment_norm": 1.93348737777, 
			 "electric_quadrupole_moment_norm": 10.0908893508, 
			 "total_energy": -386.342412059, 
			 "HOMO_LUMO_gap": 0.28239, 
			 "cosmo_polarized_energy": -6.28, 
			 "cosmo_cavitation_energy": 22.84, 
			 "cosmo_dispersion_energy": -16.29, 
			 "cosmo_repulsion_energy": 1.4, 
			 "cosmo_total_nonelectrostatic_energy": 7.95, 
			 "SMD_solvation_energy": 5.18 
		},
		"coords": [
			{
				"x": -0.4298314832,
				"y": 0.6641749698,
				"z": -2.7243410768,
				"element": "C" 
			},
			{
				"x": 0.2548278982,
				"y": -0.5016511686,
				"z": -3.4479083804,
				"element": "C" 
			},
			{
				"x": 0.2063634369,
				"y": -1.8540151741,
				"z": -2.7149517342,
				"element": "C" 
			},
			{
				"x": 1.0870871895,
				"y": -1.9814902711,
				"z": -1.4789915201,
				"element": "C" 
			},
			{
				"x": 0.5238063953,
				"y": -1.1900712119,
				"z": -0.4059350914,
				"element": "O" 
			},
			{
				"x": 1.1721629358,
				"y": -1.2606131421,
				"z": 0.7800196445,
				"element": "C" 
			},
			{
				"x": 0.4973786851,
				"y": -0.392002631,
				"z": 1.8160990673,
				"element": "C" 
			},
			{
				"x": 2.1635518302,
				"y": -1.9329427843,
				"z": 0.9627706297,
				"element": "O" 
			},
			{
				"x": -0.3975631234,
				"y": 1.5722166581,
				"z": -3.3358475988,
				"element": "H" 
			},
			{
				"x": -1.4826258902,
				"y": 0.4358231897,
				"z": -2.5225439765,
				"element": "H" 
			},
			{
				"x": 0.046793645,
				"y": 0.8806460091,
				"z": -1.7655965798,
				"element": "H" 
			},
			{
				"x": -0.2158085256,
				"y": -0.6332362157,
				"z": -4.4305612808,
				"element": "H" 
			},
			{
				"x": 1.3040989814,
				"y": -0.2453510041,
				"z": -3.6501552119,
				"element": "H" 
			},
			{
				"x": -0.8277889808,
				"y": -2.0991079692,
				"z": -2.4401296562,
				"element": "H" 
			},
			{
				"x": 0.5348657164,
				"y": -2.6396380898,
				"z": -3.4080248478,
				"element": "H" 
			},
			{
				"x": 2.10965637,
				"y": -1.6377140024,
				"z": -1.6725438496,
				"element": "H" 
			},
			{
				"x": 1.1510159957,
				"y": -3.0212694525,
				"z": -1.1429384703,
				"element": "H" 
			},
			{
				"x": 0.9800023199,
				"y": -0.5394648039,
				"z": 2.7817419248,
				"element": "H" 
			},
			{
				"x": 0.5725107885,
				"y": 0.6604927271,
				"z": 1.5250306297,
				"element": "H" 
			},
			{
				"x": -0.5663041846,
				"y": -0.6362856331,
				"z": 1.8838073787,
				"element": "H" 
			}
		],
		 "valence_orbital": [ 
			{
				"type": "occ",
				"energy": -0.33835,
				"method": "rhf"
			},
			{
				"type": "occ",
				"energy": -0.32999,
				"method": "rhf"
			},
			{
				"type": "occ",
				"energy": -0.32298,
				"method": "rhf"
			},
			{
				"type": "occ",
				"energy": -0.29403,
				"method": "rhf"
			},
			{
				"type": "occ",
				"energy": -0.26656,
				"method": "rhf"
			},
			{
				"type": "unocc",
				"energy": 0.01583,
				"method": "rhf"
			},
			{
				"type": "unocc",
				"energy": 0.08665,
				"method": "rhf"
			},
			{
				"type": "unocc",
				"energy": 0.10671,
				"method": "rhf"
			},
			{
				"type": "unocc",
				"energy": 0.12663,
				"method": "rhf"
			},
			{
				"type": "unocc",
				"energy": 0.12855,
				"method": "rhf"
			}
		],
		"cosmo_sigma_profile": { 
			"-0.025": 0.0,
			"-0.024": 0.0,
			"-0.023": 0.0,
			"-0.022": 0.0,
			"-0.021": 0.0,
			"-0.02": 0.0,
			"-0.019": 0.0,
			"-0.018": 0.0,
			"-0.017": 0.0,
			"-0.016": 0.0,
			"-0.015": 0.0,
			"-0.014": 0.0,
			"-0.013": 0.0,
			"-0.012": 0.0,
			"-0.011": 0.0,
			"-0.01": 0.0,
			"-0.009": 0.0,
			"-0.008": 0.0,
			"-0.007": 0.401955091722,
			"-0.006": 3.9345950374,
			"-0.005": 8.13938133295,
			"-0.004": 15.4393811777,
			"-0.003": 20.655616634,
			"-0.002": 27.8858894243,
			"-0.001": 24.1658555741,
			"0.0": 21.9048849719,
			"0.001": 16.290308554,
			"0.002": 8.62335637768,
			"0.003": 3.65761762594,
			"0.004": 2.69285811261,
			"0.005": 3.0495736927,
			"0.006": 3.00612646702,
			"0.007": 1.80155823444,
			"0.008": 2.45722434907,
			"0.009": 1.6569942847,
			"0.01": 1.75763495022,
			"0.011": 2.75460231185,
			"0.012": 4.74715102141,
			"0.013": 2.39801669373,
			"0.014": 0.070625287573,
			"0.015": 0.0,
			"0.016": 0.0,
			"0.017": 0.0,
			"0.018": 0.0,
			"0.019": 0.0,
			"0.02": 0.0,
			"0.021": 0.0,
			"0.022": 0.0,
			"0.023": 0.0,
			"0.024": 0.0,
			"0.025": 0.0
		}
	}
}
