{
	 "smiles": "CC(Cl)C(=O)NC1(CCCCC1)C#N", 
	 "Tm": 374.15, 
	 "num_atms": 29, 
	 "gaussian": { 
		 "optdone": 1, 
		 "sigma_profile": "yes", 
		 "theory": "DFT", 
		 "functional": "B3LYP", 
		 "basiset": "6-31G**", 
		 "properties": { 
			 "R2extent": 4000.1562, 
			 "electric_dipole_moment_norm": 4.57140391346, 
			 "electric_quadrupole_moment_norm": 10.0324750182, 
			 "total_energy": -1035.03161934, 
			 "HOMO_LUMO_gap": 0.2641, 
			 "cosmo_polarized_energy": -14.68, 
			 "cosmo_cavitation_energy": 32.63, 
			 "cosmo_dispersion_energy": -22.48, 
			 "cosmo_repulsion_energy": 1.81, 
			 "cosmo_total_nonelectrostatic_energy": 11.96, 
			 "SMD_solvation_energy": 5.92 
		},
		"coords": [
			{
				"x": 3.1756687432,
				"y": -3.2512962959,
				"z": 1.0158925172,
				"element": "C" 
			},
			{
				"x": 2.952635835,
				"y": -1.7436401031,
				"z": 1.0724605042,
				"element": "C" 
			},
			{
				"x": 4.0024656264,
				"y": -0.9063467556,
				"z": -0.1828709657,
				"element": "Cl" 
			},
			{
				"x": 1.4539367716,
				"y": -1.4015711035,
				"z": 0.9752541446,
				"element": "C" 
			},
			{
				"x": 0.7108558173,
				"y": -1.8850305755,
				"z": 1.8190066919,
				"element": "O" 
			},
			{
				"x": 1.0409811104,
				"y": -0.5999732235,
				"z": -0.0419667714,
				"element": "N" 
			},
			{
				"x": -0.3410177162,
				"y": -0.1119040059,
				"z": -0.1700993794,
				"element": "C" 
			},
			{
				"x": -1.3560899255,
				"y": -1.3006291456,
				"z": -0.2370298499,
				"element": "C" 
			},
			{
				"x": -2.5889523484,
				"y": -0.9339175366,
				"z": -1.070062984,
				"element": "C" 
			},
			{
				"x": -2.2143796871,
				"y": -0.6836505179,
				"z": -2.5498908972,
				"element": "C" 
			},
			{
				"x": -0.7858095824,
				"y": -0.1055287503,
				"z": -2.687310498,
				"element": "C" 
			},
			{
				"x": -0.4302428697,
				"y": 0.752553493,
				"z": -1.4687433213,
				"element": "C" 
			},
			{
				"x": -0.6643810056,
				"y": 0.7610836007,
				"z": 0.9869822555,
				"element": "C" 
			},
			{
				"x": -0.9377520035,
				"y": 1.4777674022,
				"z": 1.858263104,
				"element": "N" 
			},
			{
				"x": 2.5478160431,
				"y": -3.7178923935,
				"z": 1.7789053986,
				"element": "H" 
			},
			{
				"x": 2.8977916731,
				"y": -3.6506801134,
				"z": 0.0367053198,
				"element": "H" 
			},
			{
				"x": 4.2224159667,
				"y": -3.4932673469,
				"z": 1.2104096749,
				"element": "H" 
			},
			{
				"x": 3.2973227294,
				"y": -1.340484937,
				"z": 2.0266427688,
				"element": "H" 
			},
			{
				"x": 1.7528723328,
				"y": -0.1462051708,
				"z": -0.598510373,
				"element": "H" 
			},
			{
				"x": -1.6180457717,
				"y": -1.6108712686,
				"z": 0.7744410311,
				"element": "H" 
			},
			{
				"x": -0.8327549905,
				"y": -2.1441488249,
				"z": -0.6997243255,
				"element": "H" 
			},
			{
				"x": -3.0621639314,
				"y": -0.0426514962,
				"z": -0.6393935391,
				"element": "H" 
			},
			{
				"x": -3.3326559466,
				"y": -1.7335975242,
				"z": -0.9952281185,
				"element": "H" 
			},
			{
				"x": -2.9397880767,
				"y": 0.0037584908,
				"z": -2.9995373598,
				"element": "H" 
			},
			{
				"x": -2.281678066,
				"y": -1.6186646526,
				"z": -3.117401025,
				"element": "H" 
			},
			{
				"x": -0.0535713673,
				"y": -0.9164522873,
				"z": -2.7817653485,
				"element": "H" 
			},
			{
				"x": -0.6986068431,
				"y": 0.493235196,
				"z": -3.599661428,
				"element": "H" 
			},
			{
				"x": 0.5140219508,
				"y": 1.2920255882,
				"z": -1.6063981449,
				"element": "H" 
			},
			{
				"x": -1.196394468,
				"y": 1.5202802581,
				"z": -1.3245690812,
				"element": "H" 
			}
		],
		 "valence_orbital": [ 
			{
				"type": "occ",
				"energy": -0.32311,
				"method": "rhf"
			},
			{
				"type": "occ",
				"energy": -0.31612,
				"method": "rhf"
			},
			{
				"type": "occ",
				"energy": -0.31367,
				"method": "rhf"
			},
			{
				"type": "occ",
				"energy": -0.27922,
				"method": "rhf"
			},
			{
				"type": "occ",
				"energy": -0.26584,
				"method": "rhf"
			},
			{
				"type": "unocc",
				"energy": -0.00174,
				"method": "rhf"
			},
			{
				"type": "unocc",
				"energy": 0.00508,
				"method": "rhf"
			},
			{
				"type": "unocc",
				"energy": 0.0324,
				"method": "rhf"
			},
			{
				"type": "unocc",
				"energy": 0.03888,
				"method": "rhf"
			},
			{
				"type": "unocc",
				"energy": 0.06276,
				"method": "rhf"
			}
		],
		"cosmo_sigma_profile": { 
			"-0.025": 0.0,
			"-0.024": 0.0,
			"-0.023": 0.0,
			"-0.022": 0.0,
			"-0.021": 0.0,
			"-0.02": 0.0,
			"-0.019": 0.0,
			"-0.018": 0.0,
			"-0.017": 0.0,
			"-0.016": 0.0,
			"-0.015": 0.0,
			"-0.014": 0.0,
			"-0.013": 0.311481548014,
			"-0.012": 1.05378902299,
			"-0.011": 1.00315623301,
			"-0.01": 1.2754630531,
			"-0.009": 2.24481555203,
			"-0.008": 3.67890366414,
			"-0.007": 4.32205849212,
			"-0.006": 5.92583301857,
			"-0.005": 13.8309926987,
			"-0.004": 20.8717226669,
			"-0.003": 31.2892252926,
			"-0.002": 39.0192618855,
			"-0.001": 28.3497462568,
			"0.0": 19.6740002938,
			"0.001": 11.8090588283,
			"0.002": 6.95046588743,
			"0.003": 7.1957360618,
			"0.004": 7.54332060756,
			"0.005": 10.2932021166,
			"0.006": 7.25690991009,
			"0.007": 4.34624293596,
			"0.008": 5.72745934844,
			"0.009": 4.83987777978,
			"0.01": 4.76158835614,
			"0.011": 5.22387625949,
			"0.012": 5.43583865985,
			"0.013": 3.23163343662,
			"0.014": 0.120318076903,
			"0.015": 0.0,
			"0.016": 0.0,
			"0.017": 0.0,
			"0.018": 0.0,
			"0.019": 0.0,
			"0.02": 0.0,
			"0.021": 0.0,
			"0.022": 0.0,
			"0.023": 0.0,
			"0.024": 0.0,
			"0.025": 0.0
		}
	}
}
