{
	 "smiles": "O=C1OC(=O)C2=C1CC1=C(C2)C=CC=C1", 
	 "Tm": 517.15, 
	 "num_atms": 23, 
	 "gaussian": { 
		 "optdone": 1, 
		 "sigma_profile": "yes", 
		 "theory": "DFT", 
		 "functional": "B3LYP", 
		 "basiset": "6-31G**", 
		 "properties": { 
			 "R2extent": 4474.3389, 
			 "electric_dipole_moment_norm": 5.24480177509, 
			 "electric_quadrupole_moment_norm": 16.5843899372, 
			 "total_energy": -687.783966946, 
			 "HOMO_LUMO_gap": 0.15568, 
			 "cosmo_polarized_energy": -11.56, 
			 "cosmo_cavitation_energy": 27.58, 
			 "cosmo_dispersion_energy": -20.42, 
			 "cosmo_repulsion_energy": 1.57, 
			 "cosmo_total_nonelectrostatic_energy": 8.72, 
			 "SMD_solvation_energy": 6.01 
		},
		"coords": [
			{
				"x": 3.8698369767,
				"y": -1.9438471585,
				"z": 1.6919443411,
				"element": "O" 
			},
			{
				"x": 2.8168195016,
				"y": -1.7272418768,
				"z": 2.2251306588,
				"element": "C" 
			},
			{
				"x": 2.4796956378,
				"y": -2.2675339329,
				"z": 3.4676636487,
				"element": "O" 
			},
			{
				"x": 1.1984041778,
				"y": -1.8280592011,
				"z": 3.806260299,
				"element": "C" 
			},
			{
				"x": 0.6578541194,
				"y": -2.1439109125,
				"z": 4.8300241497,
				"element": "O" 
			},
			{
				"x": 0.7122782124,
				"y": -0.9605251711,
				"z": 2.7009606878,
				"element": "C" 
			},
			{
				"x": 1.6691387192,
				"y": -0.900968211,
				"z": 1.7661262145,
				"element": "C" 
			},
			{
				"x": 1.5833560859,
				"y": -0.1363100937,
				"z": 0.4944842161,
				"element": "C" 
			},
			{
				"x": 0.2529431243,
				"y": 0.5937942772,
				"z": 0.3628456794,
				"element": "C" 
			},
			{
				"x": -0.7527194507,
				"y": 0.5311928286,
				"z": 1.3453026912,
				"element": "C" 
			},
			{
				"x": -0.6033505308,
				"y": -0.2725155668,
				"z": 2.6306734216,
				"element": "C" 
			},
			{
				"x": -1.9480144447,
				"y": 1.2358391676,
				"z": 1.1414066264,
				"element": "C" 
			},
			{
				"x": -2.1579582365,
				"y": 1.9918301271,
				"z": -0.0075849029,
				"element": "C" 
			},
			{
				"x": -1.1597428951,
				"y": 2.0539584906,
				"z": -0.9827630978,
				"element": "C" 
			},
			{
				"x": 0.0302234049,
				"y": 1.3589490853,
				"z": -0.7911709581,
				"element": "C" 
			},
			{
				"x": 2.4195008013,
				"y": 0.5747893911,
				"z": 0.4358899959,
				"element": "H" 
			},
			{
				"x": 1.7337811729,
				"y": -0.8174519467,
				"z": -0.3550122109,
				"element": "H" 
			},
			{
				"x": -0.7250277318,
				"y": 0.3788383205,
				"z": 3.5076916195,
				"element": "H" 
			},
			{
				"x": -1.4107764868,
				"y": -1.0133768244,
				"z": 2.716789147,
				"element": "H" 
			},
			{
				"x": -2.7238068426,
				"y": 1.1860127948,
				"z": 1.9020444044,
				"element": "H" 
			},
			{
				"x": -3.0923868297,
				"y": 2.5284733657,
				"z": -0.1419861159,
				"element": "H" 
			},
			{
				"x": -1.3080266855,
				"y": 2.6395358699,
				"z": -1.8851580712,
				"element": "H" 
			},
			{
				"x": 0.8088781999,
				"y": 1.4058271772,
				"z": -1.5490624442,
				"element": "H" 
			}
		],
		 "valence_orbital": [ 
			{
				"type": "occ",
				"energy": -0.31361,
				"method": "rhf"
			},
			{
				"type": "occ",
				"energy": -0.29852,
				"method": "rhf"
			},
			{
				"type": "occ",
				"energy": -0.28882,
				"method": "rhf"
			},
			{
				"type": "occ",
				"energy": -0.26144,
				"method": "rhf"
			},
			{
				"type": "occ",
				"energy": -0.25547,
				"method": "rhf"
			},
			{
				"type": "unocc",
				"energy": -0.09979,
				"method": "rhf"
			},
			{
				"type": "unocc",
				"energy": -0.02234,
				"method": "rhf"
			},
			{
				"type": "unocc",
				"energy": -0.01416,
				"method": "rhf"
			},
			{
				"type": "unocc",
				"energy": 0.03144,
				"method": "rhf"
			},
			{
				"type": "unocc",
				"energy": 0.06011,
				"method": "rhf"
			}
		],
		"cosmo_sigma_profile": { 
			"-0.025": 0.0,
			"-0.024": 0.0,
			"-0.023": 0.0,
			"-0.022": 0.0,
			"-0.021": 0.0,
			"-0.02": 0.0,
			"-0.019": 0.0,
			"-0.018": 0.0,
			"-0.017": 0.0,
			"-0.016": 0.0,
			"-0.015": 0.0,
			"-0.014": 0.0,
			"-0.013": 0.0,
			"-0.012": 0.0,
			"-0.011": 0.0,
			"-0.01": 0.0,
			"-0.009": 0.227799892455,
			"-0.008": 1.70995796384,
			"-0.007": 8.08091477162,
			"-0.006": 21.9508139298,
			"-0.005": 26.0307673373,
			"-0.004": 20.1882190796,
			"-0.003": 18.5224359355,
			"-0.002": 11.6771390176,
			"-0.001": 9.54470799685,
			"0.0": 8.69425697647,
			"0.001": 9.70974383083,
			"0.002": 8.92309894074,
			"0.003": 10.4970430448,
			"0.004": 11.4866685325,
			"0.005": 11.699720379,
			"0.006": 10.5536233692,
			"0.007": 7.12248514556,
			"0.008": 6.57563864032,
			"0.009": 9.32121031386,
			"0.01": 7.97672116905,
			"0.011": 0.881407754064,
			"0.012": 0.0,
			"0.013": 0.0,
			"0.014": 0.0,
			"0.015": 0.0,
			"0.016": 0.0,
			"0.017": 0.0,
			"0.018": 0.0,
			"0.019": 0.0,
			"0.02": 0.0,
			"0.021": 0.0,
			"0.022": 0.0,
			"0.023": 0.0,
			"0.024": 0.0,
			"0.025": 0.0
		}
	}
}
