{
	 "smiles": "NC(=S)NC1=CC=CC(=C1)[N+]([O-])=O", 
	 "Tm": 463.15, 
	 "num_atms": 20, 
	 "gaussian": { 
		 "optdone": 1, 
		 "sigma_profile": "yes", 
		 "theory": "DFT", 
		 "functional": "B3LYP", 
		 "basiset": "6-31G**", 
		 "properties": { 
			 "R2extent": 3823.6497, 
			 "electric_dipole_moment_norm": 4.74729294335, 
			 "electric_quadrupole_moment_norm": 23.4536935321, 
			 "total_energy": -983.767731275, 
			 "HOMO_LUMO_gap": 0.11744, 
			 "cosmo_polarized_energy": -21.3, 
			 "cosmo_cavitation_energy": 27.15, 
			 "cosmo_dispersion_energy": -20.45, 
			 "cosmo_repulsion_energy": 1.58, 
			 "cosmo_total_nonelectrostatic_energy": 8.29, 
			 "SMD_solvation_energy": 6.12 
		},
		"coords": [
			{
				"x": 1.9260739887,
				"y": 2.5293161107,
				"z": 0.6212030224,
				"element": "N" 
			},
			{
				"x": 2.3057932996,
				"y": 1.8044229888,
				"z": -0.4678990729,
				"element": "C" 
			},
			{
				"x": 3.5078281635,
				"y": 2.313663928,
				"z": -1.5176438211,
				"element": "S" 
			},
			{
				"x": 1.6482600816,
				"y": 0.6164943296,
				"z": -0.6841229226,
				"element": "N" 
			},
			{
				"x": 0.5242291094,
				"y": 0.0593859466,
				"z": -0.0406492482,
				"element": "C" 
			},
			{
				"x": -0.5442205504,
				"y": 0.8399191096,
				"z": 0.4377806913,
				"element": "C" 
			},
			{
				"x": -1.6461778918,
				"y": 0.2302847245,
				"z": 1.0386932366,
				"element": "C" 
			},
			{
				"x": -1.7270712354,
				"y": -1.1558874115,
				"z": 1.1537388688,
				"element": "C" 
			},
			{
				"x": -0.6700045565,
				"y": -1.9101515831,
				"z": 0.6502978123,
				"element": "C" 
			},
			{
				"x": 0.4522041233,
				"y": -1.3363576494,
				"z": 0.0652978498,
				"element": "C" 
			},
			{
				"x": -0.7313338857,
				"y": -3.3815836712,
				"z": 0.7512460199,
				"element": "N" 
			},
			{
				"x": 0.2097596585,
				"y": -4.0236837941,
				"z": 0.288468487,
				"element": "O" 
			},
			{
				"x": -1.7205108816,
				"y": -3.8714817394,
				"z": 1.2919569182,
				"element": "O" 
			},
			{
				"x": 1.4770705586,
				"y": 2.0731560512,
				"z": 1.4042014437,
				"element": "H" 
			},
			{
				"x": 2.5177225811,
				"y": 3.3192878128,
				"z": 0.8303280197,
				"element": "H" 
			},
			{
				"x": 2.0665122997,
				"y": 0.0740574022,
				"z": -1.4278926971,
				"element": "H" 
			},
			{
				"x": -0.5214276283,
				"y": 1.9163581871,
				"z": 0.3146677166,
				"element": "H" 
			},
			{
				"x": -2.4619130252,
				"y": 0.8474553072,
				"z": 1.4014900836,
				"element": "H" 
			},
			{
				"x": -2.575338354,
				"y": -1.6523200699,
				"z": 1.606268596,
				"element": "H" 
			},
			{
				"x": 1.251744145,
				"y": -1.9738359797,
				"z": -0.292531004,
				"element": "H" 
			}
		],
		 "valence_orbital": [ 
			{
				"type": "occ",
				"energy": -0.30327,
				"method": "rhf"
			},
			{
				"type": "occ",
				"energy": -0.29885,
				"method": "rhf"
			},
			{
				"type": "occ",
				"energy": -0.26939,
				"method": "rhf"
			},
			{
				"type": "occ",
				"energy": -0.22772,
				"method": "rhf"
			},
			{
				"type": "occ",
				"energy": -0.21987,
				"method": "rhf"
			},
			{
				"type": "unocc",
				"energy": -0.10243,
				"method": "rhf"
			},
			{
				"type": "unocc",
				"energy": -0.05316,
				"method": "rhf"
			},
			{
				"type": "unocc",
				"energy": -0.02332,
				"method": "rhf"
			},
			{
				"type": "unocc",
				"energy": 0.00363,
				"method": "rhf"
			},
			{
				"type": "unocc",
				"energy": 0.05451,
				"method": "rhf"
			}
		],
		"cosmo_sigma_profile": { 
			"-0.025": 0.0,
			"-0.024": 0.0,
			"-0.023": 0.0,
			"-0.022": 0.0,
			"-0.021": 0.0,
			"-0.02": 0.0,
			"-0.019": 0.0,
			"-0.018": 0.0,
			"-0.017": 0.0,
			"-0.016": 0.126049897603,
			"-0.015": 2.03700601834,
			"-0.014": 3.48424825808,
			"-0.013": 3.23585356882,
			"-0.012": 3.32561299533,
			"-0.011": 3.57509990971,
			"-0.01": 3.54312082405,
			"-0.009": 4.08286155432,
			"-0.008": 5.33647871684,
			"-0.007": 9.47747880843,
			"-0.006": 10.2880606255,
			"-0.005": 9.79672498878,
			"-0.004": 9.84519451818,
			"-0.003": 10.1675938186,
			"-0.002": 11.782764998,
			"-0.001": 16.0941043153,
			"0.0": 17.6339237357,
			"0.001": 11.5612128418,
			"0.002": 7.77533052336,
			"0.003": 6.22574146785,
			"0.004": 6.12768499253,
			"0.005": 6.95708525847,
			"0.006": 6.98006719706,
			"0.007": 13.0696257524,
			"0.008": 10.0052890544,
			"0.009": 9.1010762233,
			"0.01": 8.68434408957,
			"0.011": 6.9676937706,
			"0.012": 3.07608806411,
			"0.013": 0.0,
			"0.014": 0.0,
			"0.015": 0.0,
			"0.016": 0.0,
			"0.017": 0.0,
			"0.018": 0.0,
			"0.019": 0.0,
			"0.02": 0.0,
			"0.021": 0.0,
			"0.022": 0.0,
			"0.023": 0.0,
			"0.024": 0.0,
			"0.025": 0.0
		}
	}
}
