{
	 "smiles": "CN1C=C(C(=O)NN)C2=C1C=CC=C2", 
	 "Tm": 412.15, 
	 "num_atms": 25, 
	 "gaussian": { 
		 "optdone": 1, 
		 "sigma_profile": "yes", 
		 "theory": "DFT", 
		 "functional": "B3LYP", 
		 "basiset": "6-31G**", 
		 "properties": { 
			 "R2extent": 3080.0834, 
			 "electric_dipole_moment_norm": 4.91329775405, 
			 "electric_quadrupole_moment_norm": 19.6046572222, 
			 "total_energy": -627.153131956, 
			 "HOMO_LUMO_gap": 0.18453, 
			 "cosmo_polarized_energy": -16.19, 
			 "cosmo_cavitation_energy": 28.53, 
			 "cosmo_dispersion_energy": -20.68, 
			 "cosmo_repulsion_energy": 1.62, 
			 "cosmo_total_nonelectrostatic_energy": 9.47, 
			 "SMD_solvation_energy": 5.96 
		},
		"coords": [
			{
				"x": 0.2870172418,
				"y": -2.1118446514,
				"z": -2.7380743078,
				"element": "C" 
			},
			{
				"x": 0.6011440337,
				"y": -1.4937812046,
				"z": -1.4641107741,
				"element": "N" 
			},
			{
				"x": 1.8317696283,
				"y": -1.0356764928,
				"z": -1.0688602293,
				"element": "C" 
			},
			{
				"x": 1.7655118548,
				"y": -0.4919087139,
				"z": 0.1963244462,
				"element": "C" 
			},
			{
				"x": 2.9609134087,
				"y": 0.0462402394,
				"z": 0.8823770803,
				"element": "C" 
			},
			{
				"x": 4.084091745,
				"y": -0.4220991031,
				"z": 0.7176861707,
				"element": "O" 
			},
			{
				"x": 2.7666585577,
				"y": 1.1171324083,
				"z": 1.7470316428,
				"element": "N" 
			},
			{
				"x": 1.8068196409,
				"y": 2.1382245221,
				"z": 1.5358533067,
				"element": "N" 
			},
			{
				"x": 0.3997069736,
				"y": -0.6597116929,
				"z": 0.6396358806,
				"element": "C" 
			},
			{
				"x": -0.3001047334,
				"y": -1.2833085063,
				"z": -0.4301511457,
				"element": "C" 
			},
			{
				"x": -1.6577777631,
				"y": -1.6098903579,
				"z": -0.3513034223,
				"element": "C" 
			},
			{
				"x": -2.3205846411,
				"y": -1.3187854479,
				"z": 0.8364817311,
				"element": "C" 
			},
			{
				"x": -1.640974709,
				"y": -0.7336243523,
				"z": 1.9227649186,
				"element": "C" 
			},
			{
				"x": -0.291754679,
				"y": -0.4088046087,
				"z": 1.8383156534,
				"element": "C" 
			},
			{
				"x": -0.4759397935,
				"y": -1.5369778305,
				"z": -3.2739390571,
				"element": "H" 
			},
			{
				"x": -0.0788726131,
				"y": -3.1343768351,
				"z": -2.5958299124,
				"element": "H" 
			},
			{
				"x": 1.1905097434,
				"y": -2.1469274044,
				"z": -3.3485460937,
				"element": "H" 
			},
			{
				"x": 2.6921838077,
				"y": -1.1161312604,
				"z": -1.7180114104,
				"element": "H" 
			},
			{
				"x": 3.646041885,
				"y": 1.4775885616,
				"z": 2.100170618,
				"element": "H" 
			},
			{
				"x": 1.6696409733,
				"y": 2.2827263126,
				"z": 0.537092328,
				"element": "H" 
			},
			{
				"x": 0.9140916204,
				"y": 1.8443184878,
				"z": 1.9208867377,
				"element": "H" 
			},
			{
				"x": -2.1768091734,
				"y": -2.0817279381,
				"z": -1.1800809631,
				"element": "H" 
			},
			{
				"x": -3.3749180866,
				"y": -1.5599676321,
				"z": 0.9323790888,
				"element": "H" 
			},
			{
				"x": -2.17990108,
				"y": -0.5436000584,
				"z": 2.8462309352,
				"element": "H" 
			},
			{
				"x": 0.2312361583,
				"y": -0.0054864409,
				"z": 2.7009767777,
				"element": "H" 
			}
		],
		 "valence_orbital": [ 
			{
				"type": "occ",
				"energy": -0.27653,
				"method": "rhf"
			},
			{
				"type": "occ",
				"energy": -0.24657,
				"method": "rhf"
			},
			{
				"type": "occ",
				"energy": -0.23809,
				"method": "rhf"
			},
			{
				"type": "occ",
				"energy": -0.23163,
				"method": "rhf"
			},
			{
				"type": "occ",
				"energy": -0.21051,
				"method": "rhf"
			},
			{
				"type": "unocc",
				"energy": -0.02598,
				"method": "rhf"
			},
			{
				"type": "unocc",
				"energy": 0.00335,
				"method": "rhf"
			},
			{
				"type": "unocc",
				"energy": 0.01577,
				"method": "rhf"
			},
			{
				"type": "unocc",
				"energy": 0.07837,
				"method": "rhf"
			},
			{
				"type": "unocc",
				"energy": 0.089,
				"method": "rhf"
			}
		],
		"cosmo_sigma_profile": { 
			"-0.025": 0.0,
			"-0.024": 0.0,
			"-0.023": 0.0,
			"-0.022": 0.0,
			"-0.021": 0.0,
			"-0.02": 0.0,
			"-0.019": 0.0,
			"-0.018": 0.0,
			"-0.017": 0.0,
			"-0.016": 0.0,
			"-0.015": 0.0,
			"-0.014": 0.0,
			"-0.013": 0.0242565221899,
			"-0.012": 1.32090742713,
			"-0.011": 1.49255946031,
			"-0.01": 2.45942178331,
			"-0.009": 4.97295300128,
			"-0.008": 6.44929300078,
			"-0.007": 7.0989234743,
			"-0.006": 14.5390226104,
			"-0.005": 19.9490885581,
			"-0.004": 17.2269411387,
			"-0.003": 21.100219579,
			"-0.002": 12.7808522124,
			"-0.001": 11.273870952,
			"0.0": 10.4876292618,
			"0.001": 9.913077481,
			"0.002": 11.9978382418,
			"0.003": 11.0657748408,
			"0.004": 12.9653255592,
			"0.005": 12.2922583273,
			"0.006": 10.0887837081,
			"0.007": 3.03487931777,
			"0.008": 2.5185373324,
			"0.009": 1.68887631266,
			"0.01": 2.13251122662,
			"0.011": 2.38380696962,
			"0.012": 2.82290310477,
			"0.013": 4.25536490542,
			"0.014": 6.00636711421,
			"0.015": 1.75759168637,
			"0.016": 0.508321640406,
			"0.017": 0.152651999689,
			"0.018": 0.0,
			"0.019": 0.0,
			"0.02": 0.0,
			"0.021": 0.0,
			"0.022": 0.0,
			"0.023": 0.0,
			"0.024": 0.0,
			"0.025": 0.0
		}
	}
}
