{
	 "smiles": "O=C(CC#N)NCCC1=CC=CC=C1", 
	 "Tm": 365.15, 
	 "num_atms": 26, 
	 "gaussian": { 
		 "optdone": 1, 
		 "sigma_profile": "yes", 
		 "theory": "DFT", 
		 "functional": "B3LYP", 
		 "basiset": "6-31G**", 
		 "properties": { 
			 "R2extent": 3960.6041, 
			 "electric_dipole_moment_norm": 1.44992836375, 
			 "electric_quadrupole_moment_norm": 12.9096354383, 
			 "total_energy": -611.134354483, 
			 "HOMO_LUMO_gap": 0.23916, 
			 "cosmo_polarized_energy": -14.4, 
			 "cosmo_cavitation_energy": 31.1, 
			 "cosmo_dispersion_energy": -20.8, 
			 "cosmo_repulsion_energy": 1.65, 
			 "cosmo_total_nonelectrostatic_energy": 11.95, 
			 "SMD_solvation_energy": 6.55 
		},
		"coords": [
			{
				"x": 2.1762144169,
				"y": -2.497665148,
				"z": -0.2469603037,
				"element": "O" 
			},
			{
				"x": 1.6846205634,
				"y": -1.4684290168,
				"z": -0.6858142221,
				"element": "C" 
			},
			{
				"x": 2.6050271584,
				"y": -0.2391690533,
				"z": -0.8920895863,
				"element": "C" 
			},
			{
				"x": 1.9357111231,
				"y": 1.0246301665,
				"z": -1.1878832875,
				"element": "C" 
			},
			{
				"x": 1.3551369134,
				"y": 2.0038416105,
				"z": -1.4186196839,
				"element": "N" 
			},
			{
				"x": 0.384442844,
				"y": -1.3116885246,
				"z": -1.0370370308,
				"element": "N" 
			},
			{
				"x": -0.6007576394,
				"y": -2.3737173325,
				"z": -0.8789775497,
				"element": "C" 
			},
			{
				"x": -1.8109341017,
				"y": -1.9296821515,
				"z": -0.032142361,
				"element": "C" 
			},
			{
				"x": -2.591768648,
				"y": -0.7936721653,
				"z": -0.6605236746,
				"element": "C" 
			},
			{
				"x": -3.5977007934,
				"y": -1.0546496327,
				"z": -1.6028903164,
				"element": "C" 
			},
			{
				"x": -4.2867149673,
				"y": -0.0123989635,
				"z": -2.2228039353,
				"element": "C" 
			},
			{
				"x": -3.9778414124,
				"y": 1.3143652758,
				"z": -1.9135319802,
				"element": "C" 
			},
			{
				"x": -2.9804472292,
				"y": 1.5895206039,
				"z": -0.977711313,
				"element": "C" 
			},
			{
				"x": -2.2966836748,
				"y": 0.542942978,
				"z": -0.354463124,
				"element": "C" 
			},
			{
				"x": 3.3010178884,
				"y": -0.484055083,
				"z": -1.70216111,
				"element": "H" 
			},
			{
				"x": 3.203889656,
				"y": -0.1383927232,
				"z": 0.0179128817,
				"element": "H" 
			},
			{
				"x": 0.0653971212,
				"y": -0.4145252465,
				"z": -1.3794284318,
				"element": "H" 
			},
			{
				"x": -0.0820055585,
				"y": -3.2089451805,
				"z": -0.404295995,
				"element": "H" 
			},
			{
				"x": -0.9443551769,
				"y": -2.7053647028,
				"z": -1.8670861408,
				"element": "H" 
			},
			{
				"x": -1.455625619,
				"y": -1.6418989878,
				"z": 0.9634563574,
				"element": "H" 
			},
			{
				"x": -2.4616827243,
				"y": -2.8023526317,
				"z": 0.0976545224,
				"element": "H" 
			},
			{
				"x": -3.8464306546,
				"y": -2.0850495156,
				"z": -1.847200317,
				"element": "H" 
			},
			{
				"x": -5.0666946383,
				"y": -0.2356109643,
				"z": -2.945421392,
				"element": "H" 
			},
			{
				"x": -4.5131856381,
				"y": 2.1266572771,
				"z": -2.3963613479,
				"element": "H" 
			},
			{
				"x": -2.732205783,
				"y": 2.6171310777,
				"z": -0.7292341067,
				"element": "H" 
			},
			{
				"x": -1.5290234259,
				"y": 0.7678780342,
				"z": 0.381813448,
				"element": "H" 
			}
		],
		 "valence_orbital": [ 
			{
				"type": "occ",
				"energy": -0.33646,
				"method": "rhf"
			},
			{
				"type": "occ",
				"energy": -0.26845,
				"method": "rhf"
			},
			{
				"type": "occ",
				"energy": -0.26467,
				"method": "rhf"
			},
			{
				"type": "occ",
				"energy": -0.25485,
				"method": "rhf"
			},
			{
				"type": "occ",
				"energy": -0.24724,
				"method": "rhf"
			},
			{
				"type": "unocc",
				"energy": -0.00808,
				"method": "rhf"
			},
			{
				"type": "unocc",
				"energy": -0.00779,
				"method": "rhf"
			},
			{
				"type": "unocc",
				"energy": 0.01248,
				"method": "rhf"
			},
			{
				"type": "unocc",
				"energy": 0.0167,
				"method": "rhf"
			},
			{
				"type": "unocc",
				"energy": 0.029,
				"method": "rhf"
			}
		],
		"cosmo_sigma_profile": { 
			"-0.025": 0.0,
			"-0.024": 0.0,
			"-0.023": 0.0,
			"-0.022": 0.0,
			"-0.021": 0.0,
			"-0.02": 0.0,
			"-0.019": 0.0,
			"-0.018": 0.0,
			"-0.017": 0.0,
			"-0.016": 0.0,
			"-0.015": 0.0,
			"-0.014": 0.0,
			"-0.013": 0.0,
			"-0.012": 0.0,
			"-0.011": 0.173727002217,
			"-0.01": 4.1188192356,
			"-0.009": 5.89886773471,
			"-0.008": 4.91602117101,
			"-0.007": 6.43800073523,
			"-0.006": 8.44615072221,
			"-0.005": 19.8405147708,
			"-0.004": 28.2267055127,
			"-0.003": 25.5987273855,
			"-0.002": 17.2570258579,
			"-0.001": 14.7355829535,
			"0.0": 13.4323520044,
			"0.001": 11.4062352625,
			"0.002": 10.0707261613,
			"0.003": 11.2383913592,
			"0.004": 11.3025265084,
			"0.005": 11.4298628447,
			"0.006": 10.3382055868,
			"0.007": 5.09702194769,
			"0.008": 3.31385852585,
			"0.009": 4.48794259318,
			"0.01": 3.98952852767,
			"0.011": 3.72981395633,
			"0.012": 4.65984126928,
			"0.013": 6.4642658593,
			"0.014": 1.28374002197,
			"0.015": 0.0,
			"0.016": 0.0,
			"0.017": 0.0,
			"0.018": 0.0,
			"0.019": 0.0,
			"0.02": 0.0,
			"0.021": 0.0,
			"0.022": 0.0,
			"0.023": 0.0,
			"0.024": 0.0,
			"0.0": 0.0
		}
	}
}
