{
	 "smiles": "CN(C)S(=O)(=O)C1=CC(NC(=S)NN)=C(C)C=C1", 
	 "Tm": 465.15, 
	 "num_atms": 34, 
	 "gaussian": { 
		 "optdone": 1, 
		 "sigma_profile": "yes", 
		 "theory": "DFT", 
		 "functional": "B3LYP", 
		 "basiset": "6-31G**", 
		 "properties": { 
			 "R2extent": 6762.8691, 
			 "electric_dipole_moment_norm": 5.46672817232, 
			 "electric_quadrupole_moment_norm": 26.4450036028, 
			 "total_energy": -1556.45025755, 
			 "HOMO_LUMO_gap": 0.16716, 
			 "cosmo_polarized_energy": -24.6, 
			 "cosmo_cavitation_energy": 39.88, 
			 "cosmo_dispersion_energy": -28.16, 
			 "cosmo_repulsion_energy": 2.12, 
			 "cosmo_total_nonelectrostatic_energy": 13.85, 
			 "SMD_solvation_energy": 4.88 
		},
		"coords": [
			{
				"x": -3.7580946027,
				"y": 1.7636782835,
				"z": -0.7696916241,
				"element": "C" 
			},
			{
				"x": -3.8523691139,
				"y": 0.6477850361,
				"z": -1.7136320448,
				"element": "N" 
			},
			{
				"x": -3.8022543981,
				"y": 1.022323276,
				"z": -3.1285369557,
				"element": "C" 
			},
			{
				"x": -3.0473465042,
				"y": -0.771787767,
				"z": -1.2837278639,
				"element": "S" 
			},
			{
				"x": -3.3793267393,
				"y": -1.7605264555,
				"z": -2.310558496,
				"element": "O" 
			},
			{
				"x": -3.3296888738,
				"y": -0.991595936,
				"z": 0.136237252,
				"element": "O" 
			},
			{
				"x": -1.2828724837,
				"y": -0.4368165892,
				"z": -1.4239060801,
				"element": "C" 
			},
			{
				"x": -0.6031043985,
				"y": 0.0736797208,
				"z": -0.317584982,
				"element": "C" 
			},
			{
				"x": 0.7665707293,
				"y": 0.3543613575,
				"z": -0.4144344719,
				"element": "C" 
			},
			{
				"x": 1.4940239919,
				"y": 0.8821743494,
				"z": 0.6756306396,
				"element": "N" 
			},
			{
				"x": 1.3891800603,
				"y": 0.6468859659,
				"z": 2.029076107,
				"element": "C" 
			},
			{
				"x": 2.261326007,
				"y": 1.590353233,
				"z": 3.1149346115,
				"element": "S" 
			},
			{
				"x": 0.5878754902,
				"y": -0.3802564366,
				"z": 2.4112263069,
				"element": "N" 
			},
			{
				"x": 0.4998004061,
				"y": -0.8349326738,
				"z": 3.7391232702,
				"element": "N" 
			},
			{
				"x": 1.4465427786,
				"y": 0.1607088987,
				"z": -1.6410336537,
				"element": "C" 
			},
			{
				"x": 2.9170032515,
				"y": 0.4717715271,
				"z": -1.7660080246,
				"element": "C" 
			},
			{
				"x": 0.7248307718,
				"y": -0.336949592,
				"z": -2.7300028172,
				"element": "C" 
			},
			{
				"x": -0.6311673572,
				"y": -0.6500187462,
				"z": -2.6379807705,
				"element": "C" 
			},
			{
				"x": -3.8853771382,
				"y": 1.390183336,
				"z": 0.2458814484,
				"element": "H" 
			},
			{
				"x": -4.5730624905,
				"y": 2.4598316922,
				"z": -0.9877238487,
				"element": "H" 
			},
			{
				"x": -2.8045240618,
				"y": 2.3084718539,
				"z": -0.847500312,
				"element": "H" 
			},
			{
				"x": -3.9610221649,
				"y": 0.1365320487,
				"z": -3.7427827347,
				"element": "H" 
			},
			{
				"x": -2.8516419785,
				"y": 1.5020140846,
				"z": -3.4086642265,
				"element": "H" 
			},
			{
				"x": -4.6158501459,
				"y": 1.7279008528,
				"z": -3.3198644987,
				"element": "H" 
			},
			{
				"x": -1.138929719,
				"y": 0.2397624211,
				"z": 0.6088943685,
				"element": "H" 
			},
			{
				"x": 2.20913467,
				"y": 1.5657786486,
				"z": 0.4693038379,
				"element": "H" 
			},
			{
				"x": 0.2849017384,
				"y": -1.0620650221,
				"z": 1.728328874,
				"element": "H" 
			},
			{
				"x": 1.4282976673,
				"y": -0.732222254,
				"z": 4.153520658,
				"element": "H" 
			},
			{
				"x": -0.0957028566,
				"y": -0.1817961202,
				"z": 4.2478875541,
				"element": "H" 
			},
			{
				"x": 3.497929147,
				"y": -0.0151555755,
				"z": -0.9752790654,
				"element": "H" 
			},
			{
				"x": 3.1156324509,
				"y": 1.5497625387,
				"z": -1.6943897045,
				"element": "H" 
			},
			{
				"x": 3.304497902,
				"y": 0.1370912792,
				"z": -2.7306863028,
				"element": "H" 
			},
			{
				"x": 1.2464219962,
				"y": -0.5041910588,
				"z": -3.6682781031,
				"element": "H" 
			},
			{
				"x": -1.1672340314,
				"y": -1.0790361768,
				"z": -3.4765783471,
				"element": "H" 
			}
		],
		 "valence_orbital": [ 
			{
				"type": "occ",
				"energy": -0.28409,
				"method": "rhf"
			},
			{
				"type": "occ",
				"energy": -0.261,
				"method": "rhf"
			},
			{
				"type": "occ",
				"energy": -0.25377,
				"method": "rhf"
			},
			{
				"type": "occ",
				"energy": -0.22528,
				"method": "rhf"
			},
			{
				"type": "occ",
				"energy": -0.21872,
				"method": "rhf"
			},
			{
				"type": "unocc",
				"energy": -0.05156,
				"method": "rhf"
			},
			{
				"type": "unocc",
				"energy": -0.0437,
				"method": "rhf"
			},
			{
				"type": "unocc",
				"energy": 0.00154,
				"method": "rhf"
			},
			{
				"type": "unocc",
				"energy": 0.05348,
				"method": "rhf"
			},
			{
				"type": "unocc",
				"energy": 0.05769,
				"method": "rhf"
			}
		],
		"cosmo_sigma_profile": { 
			"-0.025": 0.0,
			"-0.024": 0.0,
			"-0.023": 0.0,
			"-0.022": 0.0,
			"-0.021": 0.0,
			"-0.02": 0.0,
			"-0.019": 0.0,
			"-0.018": 0.0,
			"-0.017": 0.0,
			"-0.016": 0.0,
			"-0.015": 0.0046110619021,
			"-0.014": 0.613826577868,
			"-0.013": 1.49079743638,
			"-0.012": 2.69377613589,
			"-0.011": 3.43077889606,
			"-0.01": 4.00375446037,
			"-0.009": 4.28262170331,
			"-0.008": 4.8011851812,
			"-0.007": 8.16922494564,
			"-0.006": 16.3002597989,
			"-0.005": 22.1059875652,
			"-0.004": 30.0997269822,
			"-0.003": 32.1328164609,
			"-0.002": 31.1692338689,
			"-0.001": 20.4344721021,
			"0.0": 15.3231498153,
			"0.001": 14.3955596441,
			"0.002": 13.2979527684,
			"0.003": 9.38140561086,
			"0.004": 6.45132900204,
			"0.005": 7.38057860101,
			"0.006": 8.13397747239,
			"0.007": 8.40890329664,
			"0.008": 9.07988054529,
			"0.009": 10.0431094541,
			"0.01": 14.4279183098,
			"0.011": 12.4806759129,
			"0.012": 5.10071339487,
			"0.013": 0.761715726396,
			"0.014": 0.592477912801,
			"0.015": 0.532646359265,
			"0.016": 0.31976213487,
			"0.017": 0.0,
			"0.018": 0.0,
			"0.019": 0.0,
			"0.02": 0.0,
			"0.021": 0.0,
			"0.022": 0.0,
			"0.023": 0.0,
			"0.024": 0.0,
			"0.025": 0.0
		}
	}
}
