{
	 "smiles": "COC(=O)C1=CC=C2OCOC2=C1", 
	 "Tm": 326.15, 
	 "num_atms": 21, 
	 "gaussian": { 
		 "optdone": 1, 
		 "sigma_profile": "yes", 
		 "theory": "DFT", 
		 "functional": "B3LYP", 
		 "basiset": "6-31G**", 
		 "properties": { 
			 "R2extent": 3176.7022, 
			 "electric_dipole_moment_norm": 2.39004411256, 
			 "electric_quadrupole_moment_norm": 11.3400933572, 
			 "total_energy": -648.658126583, 
			 "HOMO_LUMO_gap": 0.17789, 
			 "cosmo_polarized_energy": -9.36, 
			 "cosmo_cavitation_energy": 25.63, 
			 "cosmo_dispersion_energy": -19.48, 
			 "cosmo_repulsion_energy": 1.54, 
			 "cosmo_total_nonelectrostatic_energy": 7.69, 
			 "SMD_solvation_energy": 6.72 
		},
		"coords": [
			{
				"x": -0.9967299035,
				"y": -2.9266207983,
				"z": 3.4229584892,
				"element": "C" 
			},
			{
				"x": -0.7074664109,
				"y": -1.968356893,
				"z": 2.3952728861,
				"element": "O" 
			},
			{
				"x": -1.1592202289,
				"y": -0.7129051667,
				"z": 2.6354701788,
				"element": "C" 
			},
			{
				"x": -1.7661109034,
				"y": -0.4130311089,
				"z": 3.6465643085,
				"element": "O" 
			},
			{
				"x": -0.8268447042,
				"y": 0.2286048354,
				"z": 1.534678044,
				"element": "C" 
			},
			{
				"x": -1.2442922502,
				"y": 1.5578544463,
				"z": 1.6742632937,
				"element": "C" 
			},
			{
				"x": -0.9766186549,
				"y": 2.5175785213,
				"z": 0.6881787566,
				"element": "C" 
			},
			{
				"x": -0.2809733876,
				"y": 2.0848987778,
				"z": -0.4263576677,
				"element": "C" 
			},
			{
				"x": 0.1022439684,
				"y": 2.8135511584,
				"z": -1.5185387526,
				"element": "O" 
			},
			{
				"x": 0.7932252826,
				"y": 1.9032145217,
				"z": -2.3872203564,
				"element": "C" 
			},
			{
				"x": 0.8007909501,
				"y": 0.6148177427,
				"z": -1.7649852077,
				"element": "O" 
			},
			{
				"x": 0.1371643926,
				"y": 0.7611994407,
				"z": -0.5700515547,
				"element": "C" 
			},
			{
				"x": -0.1160882582,
				"y": -0.1954109347,
				"z": 0.386984326,
				"element": "C" 
			},
			{
				"x": -2.0757772438,
				"y": -3.023736764,
				"z": 3.5679200222,
				"element": "H" 
			},
			{
				"x": -0.570627967,
				"y": -3.8680767974,
				"z": 3.0760482363,
				"element": "H" 
			},
			{
				"x": -0.5427135128,
				"y": -2.6256515605,
				"z": 4.3706259758,
				"element": "H" 
			},
			{
				"x": -1.7854477992,
				"y": 1.8293790574,
				"z": 2.5735039059,
				"element": "H" 
			},
			{
				"x": -1.2960080873,
				"y": 3.54843337,
				"z": 0.7882249779,
				"element": "H" 
			},
			{
				"x": 1.8238783924,
				"y": 2.2499687995,
				"z": -2.5304046896,
				"element": "H" 
			},
			{
				"x": 0.265514176,
				"y": 1.8463996598,
				"z": -3.3470476469,
				"element": "H" 
			},
			{
				"x": 0.2093021496,
				"y": -1.2210103075,
				"z": 0.2730124747,
				"element": "H" 
			}
		],
		 "valence_orbital": [ 
			{
				"type": "occ",
				"energy": -0.31776,
				"method": "rhf"
			},
			{
				"type": "occ",
				"energy": -0.29712,
				"method": "rhf"
			},
			{
				"type": "occ",
				"energy": -0.26938,
				"method": "rhf"
			},
			{
				"type": "occ",
				"energy": -0.25506,
				"method": "rhf"
			},
			{
				"type": "occ",
				"energy": -0.21547,
				"method": "rhf"
			},
			{
				"type": "unocc",
				"energy": -0.03758,
				"method": "rhf"
			},
			{
				"type": "unocc",
				"energy": -0.00316,
				"method": "rhf"
			},
			{
				"type": "unocc",
				"energy": 0.06924,
				"method": "rhf"
			},
			{
				"type": "unocc",
				"energy": 0.09441,
				"method": "rhf"
			},
			{
				"type": "unocc",
				"energy": 0.09969,
				"method": "rhf"
			}
		],
		"cosmo_sigma_profile": { 
			"-0.025": 0.0,
			"-0.024": 0.0,
			"-0.023": 0.0,
			"-0.022": 0.0,
			"-0.021": 0.0,
			"-0.02": 0.0,
			"-0.019": 0.0,
			"-0.018": 0.0,
			"-0.017": 0.0,
			"-0.016": 0.0,
			"-0.015": 0.0,
			"-0.014": 0.0,
			"-0.013": 0.0,
			"-0.012": 0.0,
			"-0.011": 0.0,
			"-0.01": 0.0,
			"-0.009": 0.0,
			"-0.008": 5.44387755533,
			"-0.007": 10.6863910393,
			"-0.006": 13.3911822403,
			"-0.005": 14.470337525,
			"-0.004": 14.9749119228,
			"-0.003": 16.0196349462,
			"-0.002": 11.1930533165,
			"-0.001": 13.0163191809,
			"0.0": 11.7942502996,
			"0.001": 16.8675169456,
			"0.002": 20.5587072404,
			"0.003": 14.9949034529,
			"0.004": 6.90491473364,
			"0.005": 7.21175615632,
			"0.006": 4.76492637417,
			"0.007": 3.87921593903,
			"0.008": 4.8279013431,
			"0.009": 4.4306976853,
			"0.01": 2.01227073967,
			"0.011": 2.33908886789,
			"0.012": 4.64045769727,
			"0.013": 0.864226119821,
			"0.014": 0.0,
			"0.015": 0.0,
			"0.016": 0.0,
			"0.017": 0.0,
			"0.018": 0.0,
			"0.019": 0.0,
			"0.02": 0.0,
			"0.021": 0.0,
			"0.022": 0.0,
			"0.023": 0.0,
			"0.024": 0.0,
			"0.025": 0.0
		}
	}
}
