{
	 "smiles": "CCOC(=O)C1=C(C)NC(=O)NC1C1=CC=C(O)C(OC)=C1", 
	 "Tm": 463.15, 
	 "num_atms": 40, 
	 "gaussian": { 
		 "optdone": 1, 
		 "sigma_profile": "yes", 
		 "theory": "DFT", 
		 "functional": "B3LYP", 
		 "basiset": "6-31G**", 
		 "properties": { 
			 "R2extent": 8587.7987, 
			 "electric_dipole_moment_norm": 3.87447473085, 
			 "electric_quadrupole_moment_norm": 23.9508661328, 
			 "total_energy": -1068.09285211, 
			 "HOMO_LUMO_gap": 0.16148, 
			 "cosmo_polarized_energy": -20.61, 
			 "cosmo_cavitation_energy": 43.05, 
			 "cosmo_dispersion_energy": -29.7, 
			 "cosmo_repulsion_energy": 2.3, 
			 "cosmo_total_nonelectrostatic_energy": 15.65, 
			 "SMD_solvation_energy": 9.19 
		},
		"coords": [
			{
				"x": 2.7104438159,
				"y": 3.9405926805,
				"z": 2.7838228878,
				"element": "C" 
			},
			{
				"x": 2.6398659769,
				"y": 3.2379430947,
				"z": 1.4409428207,
				"element": "C" 
			},
			{
				"x": 1.5926382107,
				"y": 2.2455615348,
				"z": 1.5224404982,
				"element": "O" 
			},
			{
				"x": 1.3988268713,
				"y": 1.5094682156,
				"z": 0.3970578841,
				"element": "C" 
			},
			{
				"x": 2.0661260292,
				"y": 1.6894195484,
				"z": -0.6121349736,
				"element": "O" 
			},
			{
				"x": 0.3240205212,
				"y": 0.5146078162,
				"z": 0.489622286,
				"element": "C" 
			},
			{
				"x": -0.5192424061,
				"y": 0.3438817587,
				"z": 1.5461453947,
				"element": "C" 
			},
			{
				"x": -0.4685397323,
				"y": 1.0348847424,
				"z": 2.8858516687,
				"element": "C" 
			},
			{
				"x": -1.5699678729,
				"y": -0.5502550841,
				"z": 1.411983014,
				"element": "N" 
			},
			{
				"x": -2.0441335272,
				"y": -1.0560108357,
				"z": 0.1935429511,
				"element": "C" 
			},
			{
				"x": -3.0920774394,
				"y": -1.6852323771,
				"z": 0.137089758,
				"element": "O" 
			},
			{
				"x": -1.2523337194,
				"y": -0.7432235667,
				"z": -0.8726446299,
				"element": "N" 
			},
			{
				"x": 0.1590859963,
				"y": -0.3642639367,
				"z": -0.7504233675,
				"element": "C" 
			},
			{
				"x": 1.1067674106,
				"y": -1.5724650337,
				"z": -0.7578976232,
				"element": "C" 
			},
			{
				"x": 2.410534222,
				"y": -1.429001287,
				"z": -1.2415038002,
				"element": "C" 
			},
			{
				"x": 3.2994004395,
				"y": -2.5071176804,
				"z": -1.2363026135,
				"element": "C" 
			},
			{
				"x": 2.8939708499,
				"y": -3.7461653414,
				"z": -0.7532848098,
				"element": "C" 
			},
			{
				"x": 3.7524659823,
				"y": -4.8036026929,
				"z": -0.7527155055,
				"element": "O" 
			},
			{
				"x": 1.5784010885,
				"y": -3.9006291,
				"z": -0.2724376174,
				"element": "C" 
			},
			{
				"x": 1.2975060518,
				"y": -5.1752176104,
				"z": 0.1640190058,
				"element": "O" 
			},
			{
				"x": -0.00827195,
				"y": -5.4460283286,
				"z": 0.6508789575,
				"element": "C" 
			},
			{
				"x": 0.6938880335,
				"y": -2.826888546,
				"z": -0.2750509868,
				"element": "C" 
			},
			{
				"x": 2.9444223308,
				"y": 3.2340613063,
				"z": 3.5857281952,
				"element": "H" 
			},
			{
				"x": 1.7620649065,
				"y": 4.4315273195,
				"z": 3.0216116565,
				"element": "H" 
			},
			{
				"x": 3.4944820739,
				"y": 4.7038733897,
				"z": 2.7612779333,
				"element": "H" 
			},
			{
				"x": 2.4088984862,
				"y": 3.9317910253,
				"z": 0.6266396289,
				"element": "H" 
			},
			{
				"x": 3.5812429535,
				"y": 2.7404947281,
				"z": 1.1879966052,
				"element": "H" 
			},
			{
				"x": 0.5310090785,
				"y": 0.9856222323,
				"z": 3.3168771509,
				"element": "H" 
			},
			{
				"x": -0.7202338779,
				"y": 2.0943627915,
				"z": 2.7868585265,
				"element": "H" 
			},
			{
				"x": -1.1785407441,
				"y": 0.5750860965,
				"z": 3.5796544616,
				"element": "H" 
			},
			{
				"x": -2.2137047642,
				"y": -0.6859204688,
				"z": 2.1775847453,
				"element": "H" 
			},
			{
				"x": -1.54259308,
				"y": -1.1939182287,
				"z": -1.7297614657,
				"element": "H" 
			},
			{
				"x": 0.4082097285,
				"y": 0.2550554876,
				"z": -1.6157388376,
				"element": "H" 
			},
			{
				"x": 2.7364714576,
				"y": -0.4625579694,
				"z": -1.6102165806,
				"element": "H" 
			},
			{
				"x": 4.3117773432,
				"y": -2.4029761166,
				"z": -1.6130919829,
				"element": "H" 
			},
			{
				"x": 3.2671220342,
				"y": -5.5595227794,
				"z": -0.3878135987,
				"element": "H" 
			},
			{
				"x": -0.7680362938,
				"y": -5.2730562392,
				"z": -0.1212077152,
				"element": "H" 
			},
			{
				"x": -0.0153080671,
				"y": -6.4992111473,
				"z": 0.9357154244,
				"element": "H" 
			},
			{
				"x": -0.2433982363,
				"y": -4.830933108,
				"z": 1.5284412295,
				"element": "H" 
			},
			{
				"x": -0.3197601816,
				"y": -2.9687362903,
				"z": 0.078743424,
				"element": "H" 
			}
		],
		 "valence_orbital": [ 
			{
				"type": "occ",
				"energy": -0.26949,
				"method": "rhf"
			},
			{
				"type": "occ",
				"energy": -0.25659,
				"method": "rhf"
			},
			{
				"type": "occ",
				"energy": -0.23328,
				"method": "rhf"
			},
			{
				"type": "occ",
				"energy": -0.22606,
				"method": "rhf"
			},
			{
				"type": "occ",
				"energy": -0.19978,
				"method": "rhf"
			},
			{
				"type": "unocc",
				"energy": -0.0383,
				"method": "rhf"
			},
			{
				"type": "unocc",
				"energy": 0.01037,
				"method": "rhf"
			},
			{
				"type": "unocc",
				"energy": 0.0169,
				"method": "rhf"
			},
			{
				"type": "unocc",
				"energy": 0.05627,
				"method": "rhf"
			},
			{
				"type": "unocc",
				"energy": 0.06939,
				"method": "rhf"
			}
		],
		"cosmo_sigma_profile": { 
			"-0.025": 0.0,
			"-0.024": 0.0,
			"-0.023": 0.0,
			"-0.022": 0.0,
			"-0.021": 0.0,
			"-0.02": 0.0,
			"-0.019": 0.0,
			"-0.018": 0.0,
			"-0.017": 0.0,
			"-0.016": 0.0748619093709,
			"-0.015": 0.972520922372,
			"-0.014": 2.58818445402,
			"-0.013": 3.0191969331,
			"-0.012": 2.59396505869,
			"-0.011": 2.25186058338,
			"-0.01": 2.15772555149,
			"-0.009": 3.37690759988,
			"-0.008": 3.33136454104,
			"-0.007": 2.97089091093,
			"-0.006": 10.2255617282,
			"-0.005": 21.761895698,
			"-0.004": 31.1095773222,
			"-0.003": 32.44115098,
			"-0.002": 29.6437336645,
			"-0.001": 28.7650963807,
			"0.0": 25.0239214389,
			"0.001": 20.5742149952,
			"0.002": 18.3542409671,
			"0.003": 20.1279055926,
			"0.004": 16.7430110328,
			"0.005": 13.9712784526,
			"0.006": 9.81253769678,
			"0.007": 4.58914219323,
			"0.008": 3.82023409852,
			"0.009": 3.48598943392,
			"0.01": 3.9073617455,
			"0.011": 5.49162602083,
			"0.012": 5.16668862635,
			"0.013": 6.95834389355,
			"0.014": 4.54167431151,
			"0.015": 0.140168752737,
			"0.016": 0.0,
			"0.017": 0.0,
			"0.018": 0.0,
			"0.019": 0.0,
			"0.02": 0.0,
			"0.021": 0.0,
			"0.022": 0.0,
			"0.023": 0.0,
			"0.024": 0.0,
			"0.025": 0.0
		}
	}
}
