{
	 "smiles": "CC1=CC(C)=C(OCC(O)=O)C(C)=C1", 
	 "Tm": 424.15, 
	 "num_atms": 28, 
	 "gaussian": { 
		 "optdone": 1, 
		 "sigma_profile": "yes", 
		 "theory": "DFT", 
		 "functional": "B3LYP", 
		 "basiset": "6-31G**", 
		 "properties": { 
			 "R2extent": 3655.2414, 
			 "electric_dipole_moment_norm": 5.03272869724, 
			 "electric_quadrupole_moment_norm": 22.7782338602, 
			 "total_energy": -653.296045366, 
			 "HOMO_LUMO_gap": 0.2306, 
			 "cosmo_polarized_energy": -11.93, 
			 "cosmo_cavitation_energy": 31.48, 
			 "cosmo_dispersion_energy": -21.93, 
			 "cosmo_repulsion_energy": 1.74, 
			 "cosmo_total_nonelectrostatic_energy": 11.29, 
			 "SMD_solvation_energy": 6.99 
		},
		"coords": [
			{
				"x": 0.6984707726,
				"y": 0.9453562323,
				"z": -3.8879733964,
				"element": "C" 
			},
			{
				"x": 0.3370105961,
				"y": 0.3656067237,
				"z": -2.5402603656,
				"element": "C" 
			},
			{
				"x": 0.8805663008,
				"y": -0.849200586,
				"z": -2.1111615496,
				"element": "C" 
			},
			{
				"x": 0.5838671151,
				"y": -1.3925526745,
				"z": -0.8558464332,
				"element": "C" 
			},
			{
				"x": 1.1700090694,
				"y": -2.712410633,
				"z": -0.4164447714,
				"element": "C" 
			},
			{
				"x": -0.2865349393,
				"y": -0.6753172705,
				"z": -0.0248417931,
				"element": "C" 
			},
			{
				"x": -0.6424689488,
				"y": -1.2140632267,
				"z": 1.2149255263,
				"element": "O" 
			},
			{
				"x": 0.2093503266,
				"y": -0.8861833261,
				"z": 2.3147333261,
				"element": "C" 
			},
			{
				"x": -0.5106621882,
				"y": -1.2282171726,
				"z": 3.6199105892,
				"element": "C" 
			},
			{
				"x": -1.7707609382,
				"y": -1.6696704339,
				"z": 3.4717496536,
				"element": "O" 
			},
			{
				"x": 0.0223412432,
				"y": -1.0970115787,
				"z": 4.6935628002,
				"element": "O" 
			},
			{
				"x": -0.8714405661,
				"y": 0.5364474018,
				"z": -0.4200121191,
				"element": "C" 
			},
			{
				"x": -1.8404078914,
				"y": 1.2602366954,
				"z": 0.4835884596,
				"element": "C" 
			},
			{
				"x": -0.5426084796,
				"y": 1.0373479923,
				"z": -1.6833251699,
				"element": "C" 
			},
			{
				"x": -0.1336887098,
				"y": 1.5121372723,
				"z": -4.3165263197,
				"element": "H" 
			},
			{
				"x": 0.9763721279,
				"y": 0.1620388896,
				"z": -4.5993020652,
				"element": "H" 
			},
			{
				"x": 1.5513851323,
				"y": 1.6311459513,
				"z": -3.8090076552,
				"element": "H" 
			},
			{
				"x": 1.5488007937,
				"y": -1.3972139966,
				"z": -2.7718636796,
				"element": "H" 
			},
			{
				"x": 0.4385296724,
				"y": -3.30591544,
				"z": 0.1386457693,
				"element": "H" 
			},
			{
				"x": 1.5071254307,
				"y": -3.2937627,
				"z": -1.2785815064,
				"element": "H" 
			},
			{
				"x": 2.0386475674,
				"y": -2.5720390237,
				"z": 0.2392854535,
				"element": "H" 
			},
			{
				"x": 0.4546303065,
				"y": 0.1824846131,
				"z": 2.3249050889,
				"element": "H" 
			},
			{
				"x": 1.1487903971,
				"y": -1.4498239012,
				"z": 2.2788542681,
				"element": "H" 
			},
			{
				"x": -1.958200605,
				"y": -1.6924614192,
				"z": 2.5144128227,
				"element": "H" 
			},
			{
				"x": -2.2928886561,
				"y": 2.1088642461,
				"z": -0.0352294123,
				"element": "H" 
			},
			{
				"x": -2.6446711785,
				"y": 0.5984882563,
				"z": 0.8208472471,
				"element": "H" 
			},
			{
				"x": -1.3510854294,
				"y": 1.648546883,
				"z": 1.3846759235,
				"element": "H" 
			},
			{
				"x": -0.9921783214,
				"y": 1.9733422256,
				"z": -2.0074206915,
				"element": "H" 
			}
		],
		 "valence_orbital": [ 
			{
				"type": "occ",
				"energy": -0.31562,
				"method": "rhf"
			},
			{
				"type": "occ",
				"energy": -0.29404,
				"method": "rhf"
			},
			{
				"type": "occ",
				"energy": -0.27038,
				"method": "rhf"
			},
			{
				"type": "occ",
				"energy": -0.24742,
				"method": "rhf"
			},
			{
				"type": "occ",
				"energy": -0.2387,
				"method": "rhf"
			},
			{
				"type": "unocc",
				"energy": -0.0081,
				"method": "rhf"
			},
			{
				"type": "unocc",
				"energy": -0.00782,
				"method": "rhf"
			},
			{
				"type": "unocc",
				"energy": 0.01173,
				"method": "rhf"
			},
			{
				"type": "unocc",
				"energy": 0.0613,
				"method": "rhf"
			},
			{
				"type": "unocc",
				"energy": 0.09252,
				"method": "rhf"
			}
		],
		"cosmo_sigma_profile": { 
			"-0.025": 0.0,
			"-0.024": 0.0,
			"-0.023": 0.0,
			"-0.022": 0.0,
			"-0.021": 0.0,
			"-0.02": 0.0,
			"-0.019": 0.0,
			"-0.018": 0.0,
			"-0.017": 0.0,
			"-0.016": 0.0,
			"-0.015": 0.0,
			"-0.014": 0.170849451832,
			"-0.013": 0.768051088827,
			"-0.012": 0.442027324341,
			"-0.011": 0.226496335202,
			"-0.01": 0.96620736255,
			"-0.009": 0.297687822171,
			"-0.008": 2.23315422694,
			"-0.007": 6.85666215284,
			"-0.006": 8.65461792888,
			"-0.005": 14.8025843795,
			"-0.004": 25.7539578865,
			"-0.003": 23.8020856572,
			"-0.002": 23.3661019782,
			"-0.001": 21.5139313891,
			"0.0": 28.7128836571,
			"0.001": 16.1635826075,
			"0.002": 9.37566301473,
			"0.003": 11.2093984176,
			"0.004": 9.69606793537,
			"0.005": 9.65964961832,
			"0.006": 7.40281928491,
			"0.007": 2.08370586677,
			"0.008": 3.0920100507,
			"0.009": 3.82093934555,
			"0.01": 4.73144763892,
			"0.011": 4.78165996505,
			"0.012": 5.48257432901,
			"0.013": 1.7972606797,
			"0.014": 0.0219701366674,
			"0.015": 0.0,
			"0.016": 0.0,
			"0.017": 0.0,
			"0.018": 0.0,
			"0.019": 0.0,
			"0.02": 0.0,
			"0.021": 0.0,
			"0.022": 0.0,
			"0.023": 0.0,
			"0.024": 0.0,
			"0.025": 0.0
		}
	}
}
