{
	 "smiles": "COC(=O)CC[C@H](C)[C@H]1CCC2C3CC[C@@H]4CC(=O)CC[C@]4(C)C3CC(=O)[C@]12C", 
	 "Tm": 403.15, 
	 "num_atms": 67, 
	 "gaussian": { 
		 "optdone": 1, 
		 "sigma_profile": "yes", 
		 "theory": "DFT", 
		 "functional": "B3LYP", 
		 "basiset": "6-31G**", 
		 "properties": { 
			 "R2extent": 14541.2296, 
			 "electric_dipole_moment_norm": 1.62717515652, 
			 "electric_quadrupole_moment_norm": 27.3678463515, 
			 "total_energy": -1276.47831808, 
			 "HOMO_LUMO_gap": 0.21635, 
			 "cosmo_polarized_energy": -17.66, 
			 "cosmo_cavitation_energy": 58.17, 
			 "cosmo_dispersion_energy": -38.84, 
			 "cosmo_repulsion_energy": 2.87, 
			 "cosmo_total_nonelectrostatic_energy": 22.19, 
			 "SMD_solvation_energy": 10.59 
		},
		"coords": [
			{
				"x": 3.0125426048,
				"y": -4.6104929415,
				"z": -3.1012851908,
				"element": "C" 
			},
			{
				"x": 2.1330361358,
				"y": -4.9388736368,
				"z": -2.0146544565,
				"element": "O" 
			},
			{
				"x": 0.9360623039,
				"y": -4.3091889171,
				"z": -2.0241319807,
				"element": "C" 
			},
			{
				"x": 0.6100502059,
				"y": -3.5286723419,
				"z": -2.8966574326,
				"element": "O" 
			},
			{
				"x": 0.1103973453,
				"y": -4.7052570284,
				"z": -0.8166446498,
				"element": "C" 
			},
			{
				"x": -1.3735986292,
				"y": -4.2941209527,
				"z": -0.8925267005,
				"element": "C" 
			},
			{
				"x": -1.7623321128,
				"y": -3.0518782561,
				"z": -0.0533133864,
				"element": "C" 
			},
			{
				"x": -3.2984226257,
				"y": -2.9802121052,
				"z": 0.024823999,
				"element": "C" 
			},
			{
				"x": -1.0556825787,
				"y": -1.7649912788,
				"z": -0.5686916564,
				"element": "C" 
			},
			{
				"x": -1.7848674358,
				"y": -0.9514751212,
				"z": -1.6831084059,
				"element": "C" 
			},
			{
				"x": -1.3310227406,
				"y": 0.530781421,
				"z": -1.523045999,
				"element": "C" 
			},
			{
				"x": -0.208511529,
				"y": 0.4711426757,
				"z": -0.4744178495,
				"element": "C" 
			},
			{
				"x": 0.3136673072,
				"y": 1.7649094814,
				"z": 0.1947109687,
				"element": "C" 
			},
			{
				"x": -0.6995154268,
				"y": 2.909795484,
				"z": 0.4162785701,
				"element": "C" 
			},
			{
				"x": -0.2156807458,
				"y": 3.885570155,
				"z": 1.5170097014,
				"element": "C" 
			},
			{
				"x": 1.318965297,
				"y": 4.0061802109,
				"z": 1.6141418837,
				"element": "C" 
			},
			{
				"x": 1.9132472137,
				"y": 4.7327550346,
				"z": 0.3865863724,
				"element": "C" 
			},
			{
				"x": 3.4193194857,
				"y": 4.9242582731,
				"z": 0.4860587518,
				"element": "C" 
			},
			{
				"x": 3.9857658895,
				"y": 5.9102895831,
				"z": 0.0556867148,
				"element": "O" 
			},
			{
				"x": 4.1688263067,
				"y": 3.7849786264,
				"z": 1.1667610227,
				"element": "C" 
			},
			{
				"x": 3.3561323425,
				"y": 2.4832920487,
				"z": 1.1838772088,
				"element": "C" 
			},
			{
				"x": 2.0034302611,
				"y": 2.6099552297,
				"z": 1.9360902153,
				"element": "C" 
			},
			{
				"x": 2.2589291493,
				"y": 2.5431432108,
				"z": 3.4566360037,
				"element": "C" 
			},
			{
				"x": 1.0268785571,
				"y": 1.4514150131,
				"z": 1.53840812,
				"element": "C" 
			},
			{
				"x": 1.6321169752,
				"y": 0.0335546888,
				"z": 1.5441282143,
				"element": "C" 
			},
			{
				"x": 0.5885709998,
				"y": -1.0700700348,
				"z": 1.3138126465,
				"element": "C" 
			},
			{
				"x": 0.7596985963,
				"y": -2.1890343063,
				"z": 1.7683655293,
				"element": "O" 
			},
			{
				"x": -0.6353183245,
				"y": -0.6807253264,
				"z": 0.4780856652,
				"element": "C" 
			},
			{
				"x": -1.7871257682,
				"y": -0.3206938121,
				"z": 1.4469354083,
				"element": "C" 
			},
			{
				"x": 3.2480438479,
				"y": -3.5429497821,
				"z": -3.0996786476,
				"element": "H" 
			},
			{
				"x": 2.554834075,
				"y": -4.8662605552,
				"z": -4.0602792406,
				"element": "H" 
			},
			{
				"x": 3.9148560632,
				"y": -5.200207447,
				"z": -2.9390758957,
				"element": "H" 
			},
			{
				"x": 0.5943872015,
				"y": -4.2633700782,
				"z": 0.0645934106,
				"element": "H" 
			},
			{
				"x": 0.2197100175,
				"y": -5.7882451296,
				"z": -0.6962699554,
				"element": "H" 
			},
			{
				"x": -1.9792881177,
				"y": -5.1366319782,
				"z": -0.5391199846,
				"element": "H" 
			},
			{
				"x": -1.6501329296,
				"y": -4.1316105804,
				"z": -1.9406764774,
				"element": "H" 
			},
			{
				"x": -1.3813439863,
				"y": -3.2285009748,
				"z": 0.9594131471,
				"element": "H" 
			},
			{
				"x": -3.6580872878,
				"y": -2.0969066139,
				"z": 0.5578782312,
				"element": "H" 
			},
			{
				"x": -3.7533002336,
				"y": -2.9737662816,
				"z": -0.9719830238,
				"element": "H" 
			},
			{
				"x": -3.6866824993,
				"y": -3.8599317864,
				"z": 0.5500663713,
				"element": "H" 
			},
			{
				"x": -0.1117176972,
				"y": -2.0934876101,
				"z": -1.012476458,
				"element": "H" 
			},
			{
				"x": -2.871520383,
				"y": -1.0234311799,
				"z": -1.5914238695,
				"element": "H" 
			},
			{
				"x": -1.5229658829,
				"y": -1.3532927605,
				"z": -2.6656741884,
				"element": "H" 
			},
			{
				"x": -2.1621710012,
				"y": 1.1532644072,
				"z": -1.1751913541,
				"element": "H" 
			},
			{
				"x": -0.9854029191,
				"y": 0.9678363257,
				"z": -2.4654359693,
				"element": "H" 
			},
			{
				"x": 0.6596904638,
				"y": 0.0575332466,
				"z": -1.0083626491,
				"element": "H" 
			},
			{
				"x": 1.0797002755,
				"y": 2.1508434499,
				"z": -0.4901525225,
				"element": "H" 
			},
			{
				"x": -0.8569800627,
				"y": 3.4441635674,
				"z": -0.5274382559,
				"element": "H" 
			},
			{
				"x": -1.6789838091,
				"y": 2.5127984904,
				"z": 0.7046144634,
				"element": "H" 
			},
			{
				"x": -0.6502006545,
				"y": 4.8791868833,
				"z": 1.357343696,
				"element": "H" 
			},
			{
				"x": -0.5940196942,
				"y": 3.5522983134,
				"z": 2.4908423281,
				"element": "H" 
			},
			{
				"x": 1.5256239837,
				"y": 4.6605720134,
				"z": 2.4715050768,
				"element": "H" 
			},
			{
				"x": 1.7209631044,
				"y": 4.168704036,
				"z": -0.5364351397,
				"element": "H" 
			},
			{
				"x": 1.4527415673,
				"y": 5.7161045424,
				"z": 0.2496787588,
				"element": "H" 
			},
			{
				"x": 5.1352067929,
				"y": 3.6619998479,
				"z": 0.6674706066,
				"element": "H" 
			},
			{
				"x": 4.3979352888,
				"y": 4.1148616445,
				"z": 2.1898166369,
				"element": "H" 
			},
			{
				"x": 3.180368424,
				"y": 2.1750766544,
				"z": 0.1451615271,
				"element": "H" 
			},
			{
				"x": 3.9527914188,
				"y": 1.6838711009,
				"z": 1.6368071983,
				"element": "H" 
			},
			{
				"x": 2.6510816962,
				"y": 1.5671845654,
				"z": 3.7607437388,
				"element": "H" 
			},
			{
				"x": 1.3337854975,
				"y": 2.7191976279,
				"z": 4.0171766752,
				"element": "H" 
			},
			{
				"x": 2.9818799003,
				"y": 3.3012268059,
				"z": 3.7761543494,
				"element": "H" 
			},
			{
				"x": 0.2563381091,
				"y": 1.4458024337,
				"z": 2.3188293643,
				"element": "H" 
			},
			{
				"x": 2.1497448076,
				"y": -0.203467311,
				"z": 2.4776598883,
				"element": "H" 
			},
			{
				"x": 2.3773129112,
				"y": -0.0736376282,
				"z": 0.7424837131,
				"element": "H" 
			},
			{
				"x": -2.057098407,
				"y": -1.1915133622,
				"z": 2.0501127141,
				"element": "H" 
			},
			{
				"x": -2.6763922003,
				"y": 0.0003038768,
				"z": 0.8969848732,
				"element": "H" 
			},
			{
				"x": -1.5220667406,
				"y": 0.4825461493,
				"z": 2.1381175751,
				"element": "H" 
			}
		],
		 "valence_orbital": [ 
			{
				"type": "occ",
				"energy": -0.28972,
				"method": "rhf"
			},
			{
				"type": "occ",
				"energy": -0.28071,
				"method": "rhf"
			},
			{
				"type": "occ",
				"energy": -0.26937,
				"method": "rhf"
			},
			{
				"type": "occ",
				"energy": -0.23734,
				"method": "rhf"
			},
			{
				"type": "occ",
				"energy": -0.23487,
				"method": "rhf"
			},
			{
				"type": "unocc",
				"energy": -0.01852,
				"method": "rhf"
			},
			{
				"type": "unocc",
				"energy": -0.01254,
				"method": "rhf"
			},
			{
				"type": "unocc",
				"energy": 0.01655,
				"method": "rhf"
			},
			{
				"type": "unocc",
				"energy": 0.05563,
				"method": "rhf"
			},
			{
				"type": "unocc",
				"energy": 0.06659,
				"method": "rhf"
			}
		],
		"cosmo_sigma_profile": { 
			"-0.025": 0.0,
			"-0.024": 0.0,
			"-0.023": 0.0,
			"-0.022": 0.0,
			"-0.021": 0.0,
			"-0.02": 0.0,
			"-0.019": 0.0,
			"-0.018": 0.0,
			"-0.017": 0.0,
			"-0.016": 0.0,
			"-0.015": 0.0,
			"-0.014": 0.0,
			"-0.013": 0.0,
			"-0.012": 0.0,
			"-0.011": 0.0,
			"-0.01": 0.0,
			"-0.009": 0.0,
			"-0.008": 0.000728960412362,
			"-0.007": 0.808905737284,
			"-0.006": 8.60333490671,
			"-0.005": 23.4585394083,
			"-0.004": 33.6102890746,
			"-0.003": 58.686167111,
			"-0.002": 71.5927352927,
			"-0.001": 66.1545438622,
			"0.0": 50.1356675849,
			"0.001": 38.6845758443,
			"0.002": 19.3815683919,
			"0.003": 7.65933931899,
			"0.004": 7.35133598833,
			"0.005": 6.41973965079,
			"0.006": 6.50188444737,
			"0.007": 7.86361076875,
			"0.008": 6.75003202011,
			"0.009": 5.33283145712,
			"0.01": 4.98339973928,
			"0.011": 7.3839811771,
			"0.012": 9.15385288396,
			"0.013": 5.50568204566,
			"0.014": 1.84864181431,
			"0.015": 0.0,
			"0.016": 0.0,
			"0.017": 0.0,
			"0.018": 0.0,
			"0.019": 0.0,
			"0.02": 0.0,
			"0.021": 0.0,
			"0.022": 0.0,
			"0.023": 0.0,
			"0.024": 0.0,
			"0.025": 0.0
		}
	}
}
