{
	 "smiles": "COC1=CC=C(C=C1OC)S(Cl)(=O)=O", 
	 "Tm": 341.15, 
	 "num_atms": 23, 
	 "gaussian": { 
		 "optdone": 1, 
		 "sigma_profile": "yes", 
		 "theory": "DFT", 
		 "functional": "B3LYP", 
		 "basiset": "6-31G**", 
		 "properties": { 
			 "R2extent": 5609.0602, 
			 "electric_dipole_moment_norm": 6.40637590608, 
			 "electric_quadrupole_moment_norm": 19.0648665469, 
			 "total_energy": -1469.44748252, 
			 "HOMO_LUMO_gap": 0.1754, 
			 "cosmo_polarized_energy": -10.35, 
			 "cosmo_cavitation_energy": 30.61, 
			 "cosmo_dispersion_energy": -22.36, 
			 "cosmo_repulsion_energy": 1.74, 
			 "cosmo_total_nonelectrostatic_energy": 9.98, 
			 "SMD_solvation_energy": 5.51 
		},
		"coords": [
			{
				"x": -0.7103211522,
				"y": 3.5917416304,
				"z": -0.5136681481,
				"element": "C" 
			},
			{
				"x": 0.1059519762,
				"y": 2.6666362813,
				"z": 0.2260431866,
				"element": "O" 
			},
			{
				"x": 0.6354049466,
				"y": 1.6292984594,
				"z": -0.4888676215,
				"element": "C" 
			},
			{
				"x": 2.0277430796,
				"y": 1.5329338158,
				"z": -0.5833660639,
				"element": "C" 
			},
			{
				"x": 2.625891656,
				"y": 0.4845677266,
				"z": -1.2767832076,
				"element": "C" 
			},
			{
				"x": 1.798978483,
				"y": -0.4602966105,
				"z": -1.8849860497,
				"element": "C" 
			},
			{
				"x": 0.407554945,
				"y": -0.4045813684,
				"z": -1.7919650853,
				"element": "C" 
			},
			{
				"x": -0.1811439675,
				"y": 0.6390680776,
				"z": -1.0816328087,
				"element": "C" 
			},
			{
				"x": -1.5493917585,
				"y": 0.6980346589,
				"z": -1.0077807565,
				"element": "O" 
			},
			{
				"x": -2.0959405558,
				"y": 0.4271314585,
				"z": 0.2935860048,
				"element": "C" 
			},
			{
				"x": 2.5410202393,
				"y": -1.7935399877,
				"z": -2.804799898,
				"element": "S" 
			},
			{
				"x": 2.7525579309,
				"y": -3.2924810167,
				"z": -1.2909079649,
				"element": "Cl" 
			},
			{
				"x": 3.8966957853,
				"y": -1.4216566044,
				"z": -3.1906047231,
				"element": "O" 
			},
			{
				"x": 1.5761207317,
				"y": -2.3249871059,
				"z": -3.7593085843,
				"element": "O" 
			},
			{
				"x": -0.1131772236,
				"y": 4.0920628548,
				"z": -1.2847866984,
				"element": "H" 
			},
			{
				"x": -1.0566916908,
				"y": 4.3293337389,
				"z": 0.2115801123,
				"element": "H" 
			},
			{
				"x": -1.5638077979,
				"y": 3.0904636675,
				"z": -0.9767536505,
				"element": "H" 
			},
			{
				"x": 2.6261213265,
				"y": 2.3042327117,
				"z": -0.1102792932,
				"element": "H" 
			},
			{
				"x": 3.7033088269,
				"y": 0.4121517085,
				"z": -1.3679435654,
				"element": "H" 
			},
			{
				"x": -0.2216265255,
				"y": -1.1513614518,
				"z": -2.2623642916,
				"element": "H" 
			},
			{
				"x": -3.1783525959,
				"y": 0.5181215757,
				"z": 0.191080639,
				"element": "H" 
			},
			{
				"x": -1.8440209953,
				"y": -0.5913155388,
				"z": 0.6113529307,
				"element": "H" 
			},
			{
				"x": -1.7305756639,
				"y": 1.1440413188,
				"z": 1.0351555373,
				"element": "H" 
			}
		],
		 "valence_orbital": [ 
			{
				"type": "occ",
				"energy": -0.32148,
				"method": "rhf"
			},
			{
				"type": "occ",
				"energy": -0.30924,
				"method": "rhf"
			},
			{
				"type": "occ",
				"energy": -0.29272,
				"method": "rhf"
			},
			{
				"type": "occ",
				"energy": -0.27637,
				"method": "rhf"
			},
			{
				"type": "occ",
				"energy": -0.26208,
				"method": "rhf"
			},
			{
				"type": "unocc",
				"energy": -0.08668,
				"method": "rhf"
			},
			{
				"type": "unocc",
				"energy": -0.03871,
				"method": "rhf"
			},
			{
				"type": "unocc",
				"energy": -0.03315,
				"method": "rhf"
			},
			{
				"type": "unocc",
				"energy": 0.05496,
				"method": "rhf"
			},
			{
				"type": "unocc",
				"energy": 0.0664,
				"method": "rhf"
			}
		],
		"cosmo_sigma_profile": { 
			"-0.025": 0.0,
			"-0.024": 0.0,
			"-0.023": 0.0,
			"-0.022": 0.0,
			"-0.021": 0.0,
			"-0.02": 0.0,
			"-0.019": 0.0,
			"-0.018": 0.0,
			"-0.017": 0.0,
			"-0.016": 0.0,
			"-0.015": 0.0,
			"-0.014": 0.0,
			"-0.013": 0.0,
			"-0.012": 0.0,
			"-0.011": 0.0,
			"-0.01": 0.0,
			"-0.009": 0.497037890088,
			"-0.008": 3.39225201548,
			"-0.007": 5.51915517894,
			"-0.006": 10.1354087614,
			"-0.005": 16.8700731267,
			"-0.004": 21.4737136295,
			"-0.003": 26.9800038539,
			"-0.002": 20.2187894481,
			"-0.001": 20.036588029,
			"0.0": 22.1959242365,
			"0.001": 17.0127574678,
			"0.002": 13.8359257156,
			"0.003": 14.8989666809,
			"0.004": 14.0329196937,
			"0.005": 5.3659362078,
			"0.006": 6.22137396622,
			"0.007": 7.64930774944,
			"0.008": 11.1273380551,
			"0.009": 6.66378330737,
			"0.01": 2.35762428685,
			"0.011": 0.548406614539,
			"0.012": 0.0,
			"0.013": 0.0,
			"0.014": 0.0,
			"0.015": 0.0,
			"0.016": 0.0,
			"0.017": 0.0,
			"0.018": 0.0,
			"0.019": 0.0,
			"0.02": 0.0,
			"0.021": 0.0,
			"0.022": 0.0,
			"0.023": 0.0,
			"0.024": 0.0,
			"0.025": 0.0
		}
	}
}
