{
	 "smiles": "NC1CCCCC1", 
	 "Tm": 255.65, 
	 "num_atms": 20, 
	 "gaussian": { 
		 "optdone": 1, 
		 "sigma_profile": "yes", 
		 "theory": "DFT", 
		 "functional": "B3LYP", 
		 "basiset": "6-31G**", 
		 "properties": { 
			 "R2extent": 1317.1152, 
			 "electric_dipole_moment_norm": 1.2927017096, 
			 "electric_quadrupole_moment_norm": 5.2349206632, 
			 "total_energy": -291.24067516, 
			 "HOMO_LUMO_gap": 0.31148, 
			 "cosmo_polarized_energy": -4.75, 
			 "cosmo_cavitation_energy": 20.25, 
			 "cosmo_dispersion_energy": -15.47, 
			 "cosmo_repulsion_energy": 1.32, 
			 "cosmo_total_nonelectrostatic_energy": 6.09, 
			 "SMD_solvation_energy": 1.51 
		},
		"coords": [
			{
				"x": 0.5340061137,
				"y": 1.5086529435,
				"z": -0.3778022715,
				"element": "N" 
			},
			{
				"x": 1.119877118,
				"y": 0.4708899013,
				"z": 0.4805826767,
				"element": "C" 
			},
			{
				"x": 0.8629233661,
				"y": -0.9758264607,
				"z": 0.0105800219,
				"element": "C" 
			},
			{
				"x": 1.4724807336,
				"y": -2.0157741687,
				"z": 0.9648131551,
				"element": "C" 
			},
			{
				"x": 0.9750334799,
				"y": -1.8116442934,
				"z": 2.4037516142,
				"element": "C" 
			},
			{
				"x": 1.2300028915,
				"y": -0.3742161899,
				"z": 2.8830751034,
				"element": "C" 
			},
			{
				"x": 0.6255486373,
				"y": 0.6611886585,
				"z": 1.9221146819,
				"element": "C" 
			},
			{
				"x": 0.8711673092,
				"y": 1.3945248999,
				"z": -1.3321199658,
				"element": "H" 
			},
			{
				"x": -0.4756560637,
				"y": 1.3744379291,
				"z": -0.4231404943,
				"element": "H" 
			},
			{
				"x": 2.207791403,
				"y": 0.6385366518,
				"z": 0.4751991682,
				"element": "H" 
			},
			{
				"x": -0.2249721506,
				"y": -1.1320911139,
				"z": -0.0539858271,
				"element": "H" 
			},
			{
				"x": 1.2583530972,
				"y": -1.1101163254,
				"z": -1.0052418572,
				"element": "H" 
			},
			{
				"x": 2.5680304674,
				"y": -1.9248482829,
				"z": 0.9456279415,
				"element": "H" 
			},
			{
				"x": 1.2406266147,
				"y": -3.0304521162,
				"z": 0.61934944,
				"element": "H" 
			},
			{
				"x": -0.1036495747,
				"y": -2.0205988652,
				"z": 2.4455862167,
				"element": "H" 
			},
			{
				"x": 1.4575059711,
				"y": -2.5289323644,
				"z": 3.0786185414,
				"element": "H" 
			},
			{
				"x": 0.8253474207,
				"y": -0.2316167638,
				"z": 3.8922141324,
				"element": "H" 
			},
			{
				"x": 2.3139542931,
				"y": -0.2065255883,
				"z": 2.9579261565,
				"element": "H" 
			},
			{
				"x": -0.4716972843,
				"y": 0.5669967145,
				"z": 1.9311785496,
				"element": "H" 
			},
			{
				"x": 0.8541261568,
				"y": 1.6817148344,
				"z": 2.2473730164,
				"element": "H" 
			}
		],
		 "valence_orbital": [ 
			{
				"type": "occ",
				"energy": -0.33407,
				"method": "rhf"
			},
			{
				"type": "occ",
				"energy": -0.31502,
				"method": "rhf"
			},
			{
				"type": "occ",
				"energy": -0.3085,
				"method": "rhf"
			},
			{
				"type": "occ",
				"energy": -0.2965,
				"method": "rhf"
			},
			{
				"type": "occ",
				"energy": -0.22634,
				"method": "rhf"
			},
			{
				"type": "unocc",
				"energy": 0.08514,
				"method": "rhf"
			},
			{
				"type": "unocc",
				"energy": 0.09489,
				"method": "rhf"
			},
			{
				"type": "unocc",
				"energy": 0.10535,
				"method": "rhf"
			},
			{
				"type": "unocc",
				"energy": 0.13425,
				"method": "rhf"
			},
			{
				"type": "unocc",
				"energy": 0.15554,
				"method": "rhf"
			}
		],
		"cosmo_sigma_profile": { 
			"-0.025": 0.0,
			"-0.024": 0.0,
			"-0.023": 0.0,
			"-0.022": 0.0,
			"-0.021": 0.0,
			"-0.02": 0.0,
			"-0.019": 0.0,
			"-0.018": 0.0,
			"-0.017": 0.0,
			"-0.016": 0.0,
			"-0.015": 0.0,
			"-0.014": 0.0,
			"-0.013": 0.0,
			"-0.012": 0.0,
			"-0.011": 0.0,
			"-0.01": 0.0386349231171,
			"-0.009": 1.19959388559,
			"-0.008": 2.48785778066,
			"-0.007": 2.57063054854,
			"-0.006": 2.69063931643,
			"-0.005": 3.49096163219,
			"-0.004": 3.57558890123,
			"-0.003": 5.39264929037,
			"-0.002": 21.7896509637,
			"-0.001": 31.081559055,
			"0.0": 30.366794907,
			"0.001": 26.2743928286,
			"0.002": 9.09890239326,
			"0.003": 1.10730055664,
			"0.004": 1.86745325858,
			"0.005": 0.933638294814,
			"0.006": 0.757060820904,
			"0.007": 0.88336626568,
			"0.008": 1.01537247218,
			"0.009": 0.929024202848,
			"0.01": 0.278246490982,
			"0.011": 0.60295309849,
			"0.012": 1.03046914469,
			"0.013": 0.61592619822,
			"0.014": 0.939267676581,
			"0.015": 0.217821252758,
			"0.016": 0.618742634385,
			"0.017": 0.533441678211,
			"0.018": 0.90947014767,
			"0.019": 0.509176520328,
			"0.02": 0.450968209103,
			"0.021": 0.090733951335,
			"0.022": 0.0,
			"0.023": 0.0,
			"0.024": 0.0,
			"0.025": 0.0
		}
	}
}
