{
	 "smiles": "CC(C)CN1CCOC(CNC(=O)CCl)C1", 
	 "Tm": 357.15, 
	 "num_atms": 37, 
	 "gaussian": { 
		 "optdone": 1, 
		 "sigma_profile": "yes", 
		 "theory": "DFT", 
		 "functional": "B3LYP", 
		 "basiset": "6-31G**", 
		 "properties": { 
			 "R2extent": 6182.5858, 
			 "electric_dipole_moment_norm": 4.37001491759, 
			 "electric_quadrupole_moment_norm": 15.1479520999, 
			 "total_energy": -1151.95784312, 
			 "HOMO_LUMO_gap": 0.18013, 
			 "cosmo_polarized_energy": -14.53, 
			 "cosmo_cavitation_energy": 39.2, 
			 "cosmo_dispersion_energy": -26.58, 
			 "cosmo_repulsion_energy": 2.12, 
			 "cosmo_total_nonelectrostatic_energy": 14.74, 
			 "SMD_solvation_energy": 4.76 
		},
		"coords": [
			{
				"x": -2.9756687002,
				"y": -0.9566699322,
				"z": 0.0442554447,
				"element": "C" 
			},
			{
				"x": -3.4198048055,
				"y": 0.505421811,
				"z": 0.1792236292,
				"element": "C" 
			},
			{
				"x": -4.7877564106,
				"y": 0.7256226912,
				"z": -0.4834537854,
				"element": "C" 
			},
			{
				"x": -2.3962217373,
				"y": 1.5086268992,
				"z": -0.4116045183,
				"element": "C" 
			},
			{
				"x": -1.0686423532,
				"y": 1.5696686483,
				"z": 0.1735808038,
				"element": "N" 
			},
			{
				"x": -0.9591927164,
				"y": 1.9519232462,
				"z": 1.5688902934,
				"element": "C" 
			},
			{
				"x": 0.5101063675,
				"y": 2.1653253248,
				"z": 1.9134793755,
				"element": "C" 
			},
			{
				"x": 1.2909668657,
				"y": 0.9793960995,
				"z": 1.7357363023,
				"element": "O" 
			},
			{
				"x": 0.7866730643,
				"y": 0.0419431519,
				"z": 0.7879350682,
				"element": "C" 
			},
			{
				"x": 2.0166731185,
				"y": -0.7303631687,
				"z": 0.2854678654,
				"element": "C" 
			},
			{
				"x": 1.6875612165,
				"y": -1.8851565129,
				"z": -0.5368672474,
				"element": "N" 
			},
			{
				"x": 1.5223692196,
				"y": -3.1895968892,
				"z": -0.1628024998,
				"element": "C" 
			},
			{
				"x": 1.1592839432,
				"y": -4.0508189326,
				"z": -0.951513295,
				"element": "O" 
			},
			{
				"x": 1.8017160568,
				"y": -3.552836272,
				"z": 1.2972878679,
				"element": "C" 
			},
			{
				"x": 3.5814488104,
				"y": -3.5850327929,
				"z": 1.6613787033,
				"element": "Cl" 
			},
			{
				"x": 0.0041625588,
				"y": 0.7250041709,
				"z": -0.3404477772,
				"element": "C" 
			},
			{
				"x": -2.8497259521,
				"y": -1.2360082907,
				"z": -1.0093551746,
				"element": "H" 
			},
			{
				"x": -3.7208007989,
				"y": -1.6340112021,
				"z": 0.4754001992,
				"element": "H" 
			},
			{
				"x": -2.0275965807,
				"y": -1.1448954136,
				"z": 0.5568342289,
				"element": "H" 
			},
			{
				"x": -3.5280583229,
				"y": 0.7298878756,
				"z": 1.2502506826,
				"element": "H" 
			},
			{
				"x": -4.7404870527,
				"y": 0.5185354987,
				"z": -1.5599298238,
				"element": "H" 
			},
			{
				"x": -5.1344072437,
				"y": 1.7575857554,
				"z": -0.3591907836,
				"element": "H" 
			},
			{
				"x": -5.5472679602,
				"y": 0.0640665278,
				"z": -0.0541426554,
				"element": "H" 
			},
			{
				"x": -2.2806323717,
				"y": 1.30545742,
				"z": -1.4847784454,
				"element": "H" 
			},
			{
				"x": -2.8406736192,
				"y": 2.5138422003,
				"z": -0.3409601881,
				"element": "H" 
			},
			{
				"x": -1.3872374768,
				"y": 1.214261271,
				"z": 2.2741149304,
				"element": "H" 
			},
			{
				"x": -1.5041641405,
				"y": 2.8927424959,
				"z": 1.7318802134,
				"element": "H" 
			},
			{
				"x": 0.6209311106,
				"y": 2.4590526449,
				"z": 2.962471968,
				"element": "H" 
			},
			{
				"x": 0.9146368794,
				"y": 2.9728377815,
				"z": 1.2858337807,
				"element": "H" 
			},
			{
				"x": 0.1144648585,
				"y": -0.6704661208,
				"z": 1.2970647826,
				"element": "H" 
			},
			{
				"x": 2.609453678,
				"y": -1.0415241454,
				"z": 1.1472609638,
				"element": "H" 
			},
			{
				"x": 2.6499080324,
				"y": -0.0523365009,
				"z": -0.2969773994,
				"element": "H" 
			},
			{
				"x": 1.4996713745,
				"y": -1.7365662406,
				"z": -1.5197698373,
				"element": "H" 
			},
			{
				"x": 1.4266473277,
				"y": -4.5611906597,
				"z": 1.455412824,
				"element": "H" 
			},
			{
				"x": 1.3460445327,
				"y": -2.8614984096,
				"z": 2.0079606083,
				"element": "H" 
			},
			{
				"x": 0.7204852381,
				"y": 1.3138682596,
				"z": -0.9426178642,
				"element": "H" 
			},
			{
				"x": -0.4014660106,
				"y": -0.0506982897,
				"z": -0.9993092406,
				"element": "H" 
			}
		],
		 "valence_orbital": [ 
			{
				"type": "occ",
				"energy": -0.30333,
				"method": "rhf"
			},
			{
				"type": "occ",
				"energy": -0.26657,
				"method": "rhf"
			},
			{
				"type": "occ",
				"energy": -0.25659,
				"method": "rhf"
			},
			{
				"type": "occ",
				"energy": -0.25422,
				"method": "rhf"
			},
			{
				"type": "occ",
				"energy": -0.20087,
				"method": "rhf"
			},
			{
				"type": "unocc",
				"energy": -0.02074,
				"method": "rhf"
			},
			{
				"type": "unocc",
				"energy": 0.04697,
				"method": "rhf"
			},
			{
				"type": "unocc",
				"energy": 0.06524,
				"method": "rhf"
			},
			{
				"type": "unocc",
				"energy": 0.07352,
				"method": "rhf"
			},
			{
				"type": "unocc",
				"energy": 0.08983,
				"method": "rhf"
			}
		],
		"cosmo_sigma_profile": { 
			"-0.025": 0.0,
			"-0.024": 0.0,
			"-0.023": 0.0,
			"-0.022": 0.0,
			"-0.021": 0.0,
			"-0.02": 0.0,
			"-0.019": 0.0,
			"-0.018": 0.0,
			"-0.017": 0.0,
			"-0.016": 0.0,
			"-0.015": 0.0,
			"-0.014": 0.493540172049,
			"-0.013": 0.925486715595,
			"-0.012": 1.16764298191,
			"-0.011": 1.28860285798,
			"-0.01": 1.16411656626,
			"-0.009": 1.91941695125,
			"-0.008": 6.79873444399,
			"-0.007": 7.04849596018,
			"-0.006": 6.84604795093,
			"-0.005": 10.959426891,
			"-0.004": 15.9737482689,
			"-0.003": 26.0066614646,
			"-0.002": 45.9062185066,
			"-0.001": 36.6073969059,
			"0.0": 28.5273862518,
			"0.001": 27.2381050946,
			"0.002": 20.6147499454,
			"0.003": 10.5399429813,
			"0.004": 8.99085398942,
			"0.005": 11.5710172414,
			"0.006": 6.48051661029,
			"0.007": 3.3129599358,
			"0.008": 3.1567137457,
			"0.009": 2.11691102459,
			"0.01": 3.1344637022,
			"0.011": 3.08695367671,
			"0.012": 4.81001694695,
			"0.013": 6.47752795415,
			"0.014": 2.45151473789,
			"0.015": 0.0418449425969,
			"0.016": 0.0,
			"0.017": 0.0,
			"0.018": 0.0,
			"0.019": 0.0,
			"0.02": 0.0,
			"0.021": 0.0,
			"0.022": 0.0,
			"0.023": 0.0,
			"0.024": 0.0,
			"0.025": 0.0
		}
	}
}
