{
	 "smiles": "O=C(NCN(CNC(=O)C1=CC=CC=C1)N(CNC(=O)C1=CC=CC=C1)CNC(=O)C1=CC=CC=C1)C1=CC=CC=C1", 
	 "Tm": 373.15, 
	 "num_atms": 74, 
	 "gaussian": { 
		 "optdone": 1, 
		 "sigma_profile": "yes", 
		 "theory": "DFT", 
		 "functional": "B3LYP", 
		 "basiset": "6-31G**", 
		 "properties": { 
			 "R2extent": 25927.5199, 
			 "electric_dipole_moment_norm": 9.72701649377, 
			 "electric_quadrupole_moment_norm": 31.7084956931, 
			 "total_energy": -1868.11921181, 
			 "HOMO_LUMO_gap": 0.16882, 
			 "cosmo_polarized_energy": -35.02, 
			 "cosmo_cavitation_energy": 76.96, 
			 "cosmo_dispersion_energy": -47.45, 
			 "cosmo_repulsion_energy": 3.53, 
			 "cosmo_total_nonelectrostatic_energy": 33.03, 
			 "SMD_solvation_energy": 12.55 
		},
		"coords": [
			{
				"x": 0.0902832849,
				"y": 0.4483183685,
				"z": -4.2359811433,
				"element": "O" 
			},
			{
				"x": -0.3384332942,
				"y": 1.1621934015,
				"z": -3.3299221736,
				"element": "C" 
			},
			{
				"x": 0.5141216064,
				"y": 1.9118879235,
				"z": -2.5465014589,
				"element": "N" 
			},
			{
				"x": 0.3427361131,
				"y": 2.1598487241,
				"z": -1.1265478259,
				"element": "C" 
			},
			{
				"x": 1.3132432561,
				"y": 1.3816672967,
				"z": -0.3427041976,
				"element": "N" 
			},
			{
				"x": 1.4223010134,
				"y": 1.8118731862,
				"z": 1.0593659856,
				"element": "C" 
			},
			{
				"x": 0.1799515159,
				"y": 1.9842606003,
				"z": 1.79622038,
				"element": "N" 
			},
			{
				"x": -0.3737081142,
				"y": 3.2288224137,
				"z": 1.9543801244,
				"element": "C" 
			},
			{
				"x": 0.1230153263,
				"y": 4.2327916654,
				"z": 1.4386605087,
				"element": "O" 
			},
			{
				"x": -1.6238739085,
				"y": 3.3247579807,
				"z": 2.786627055,
				"element": "C" 
			},
			{
				"x": -2.2976260909,
				"y": 4.5545935179,
				"z": 2.7673202581,
				"element": "C" 
			},
			{
				"x": -3.4602641105,
				"y": 4.7371103967,
				"z": 3.5113463387,
				"element": "C" 
			},
			{
				"x": -3.9613557666,
				"y": 3.6916619228,
				"z": 4.2911004403,
				"element": "C" 
			},
			{
				"x": -3.2914004366,
				"y": 2.4674284268,
				"z": 4.322958511,
				"element": "C" 
			},
			{
				"x": -2.1271042931,
				"y": 2.2799957292,
				"z": 3.5767635603,
				"element": "C" 
			},
			{
				"x": 1.3076548815,
				"y": 0.0070022662,
				"z": -0.6604433437,
				"element": "N" 
			},
			{
				"x": 0.3860612806,
				"y": -0.9186805171,
				"z": -0.0307983738,
				"element": "C" 
			},
			{
				"x": 0.8436935597,
				"y": -1.5888110247,
				"z": 1.2051131114,
				"element": "N" 
			},
			{
				"x": 0.2213114867,
				"y": -1.4629275384,
				"z": 2.4145019298,
				"element": "C" 
			},
			{
				"x": -0.6987620566,
				"y": -0.6572274495,
				"z": 2.5996402567,
				"element": "O" 
			},
			{
				"x": 0.7040468419,
				"y": -2.3563734446,
				"z": 3.5172418801,
				"element": "C" 
			},
			{
				"x": -0.1721506773,
				"y": -2.5983638119,
				"z": 4.5843478786,
				"element": "C" 
			},
			{
				"x": 0.2142800272,
				"y": -3.4237924233,
				"z": 5.6374252267,
				"element": "C" 
			},
			{
				"x": 1.4862889663,
				"y": -4.0018432572,
				"z": 5.643843543,
				"element": "C" 
			},
			{
				"x": 2.3727725443,
				"y": -3.7483085018,
				"z": 4.5951888633,
				"element": "C" 
			},
			{
				"x": 1.9842134497,
				"y": -2.9304017599,
				"z": 3.5348292401,
				"element": "C" 
			},
			{
				"x": 2.6547834612,
				"y": -0.5101810032,
				"z": -0.8747634745,
				"element": "C" 
			},
			{
				"x": 3.3970278716,
				"y": 0.2496729614,
				"z": -1.8658616188,
				"element": "N" 
			},
			{
				"x": 4.2331012487,
				"y": -0.3016697243,
				"z": -2.8318647292,
				"element": "C" 
			},
			{
				"x": 5.2541391745,
				"y": 0.282453771,
				"z": -3.1709323236,
				"element": "O" 
			},
			{
				"x": 3.8197560875,
				"y": -1.5980205185,
				"z": -3.4630709628,
				"element": "C" 
			},
			{
				"x": 2.495269582,
				"y": -1.8504047442,
				"z": -3.8513875942,
				"element": "C" 
			},
			{
				"x": 2.1820448421,
				"y": -3.0466811663,
				"z": -4.5003253004,
				"element": "C" 
			},
			{
				"x": 3.1758180278,
				"y": -3.9943183618,
				"z": -4.7526179668,
				"element": "C" 
			},
			{
				"x": 4.4978984459,
				"y": -3.7364476972,
				"z": -4.3782742461,
				"element": "C" 
			},
			{
				"x": 4.8214834695,
				"y": -2.5361611826,
				"z": -3.7497150377,
				"element": "C" 
			},
			{
				"x": -1.8174511719,
				"y": 1.2957532736,
				"z": -3.1046309335,
				"element": "C" 
			},
			{
				"x": -2.4198729147,
				"y": 2.4894123111,
				"z": -2.6810353279,
				"element": "C" 
			},
			{
				"x": -3.8072532335,
				"y": 2.5702060787,
				"z": -2.5543866194,
				"element": "C" 
			},
			{
				"x": -4.6023835223,
				"y": 1.4598105634,
				"z": -2.8433820208,
				"element": "C" 
			},
			{
				"x": -4.0090309118,
				"y": 0.271376669,
				"z": -3.278783365,
				"element": "C" 
			},
			{
				"x": -2.6257367791,
				"y": 0.19430566,
				"z": -3.4204686512,
				"element": "C" 
			},
			{
				"x": 1.4817882625,
				"y": 1.7397776419,
				"z": -2.8052411495,
				"element": "H" 
			},
			{
				"x": -0.6943001092,
				"y": 1.93299007,
				"z": -0.8540330321,
				"element": "H" 
			},
			{
				"x": 0.5219919708,
				"y": 3.2094501496,
				"z": -0.8700015733,
				"element": "H" 
			},
			{
				"x": 1.9139465806,
				"y": 2.7867923777,
				"z": 1.0679366203,
				"element": "H" 
			},
			{
				"x": 2.054171543,
				"y": 1.084434971,
				"z": 1.575317813,
				"element": "H" 
			},
			{
				"x": -0.2939317479,
				"y": 1.1555679559,
				"z": 2.1428837894,
				"element": "H" 
			},
			{
				"x": -1.882732836,
				"y": 5.3526286406,
				"z": 2.1613964277,
				"element": "H" 
			},
			{
				"x": -3.9749707512,
				"y": 5.6933937717,
				"z": 3.4857955346,
				"element": "H" 
			},
			{
				"x": -4.8675744213,
				"y": 3.831526755,
				"z": 4.8739134085,
				"element": "H" 
			},
			{
				"x": -3.6731859814,
				"y": 1.6541167467,
				"z": 4.9334813789,
				"element": "H" 
			},
			{
				"x": -1.6231869961,
				"y": 1.3205729283,
				"z": 3.6290850826,
				"element": "H" 
			},
			{
				"x": -0.5425144391,
				"y": -0.400624697,
				"z": 0.208471846,
				"element": "H" 
			},
			{
				"x": 0.167873646,
				"y": -1.7123192662,
				"z": -0.7552815095,
				"element": "H" 
			},
			{
				"x": 1.4386788277,
				"y": -2.3957436835,
				"z": 1.0856909881,
				"element": "H" 
			},
			{
				"x": -1.1508724592,
				"y": -2.1316438672,
				"z": 4.5661034416,
				"element": "H" 
			},
			{
				"x": -0.4741885673,
				"y": -3.6143236197,
				"z": 6.4552167843,
				"element": "H" 
			},
			{
				"x": 1.789401276,
				"y": -4.6412933141,
				"z": 6.4676470129,
				"element": "H" 
			},
			{
				"x": 3.3692619661,
				"y": -4.1793368686,
				"z": 4.606723611,
				"element": "H" 
			},
			{
				"x": 2.6992260813,
				"y": -2.7131683362,
				"z": 2.7460502689,
				"element": "H" 
			},
			{
				"x": 2.5661663455,
				"y": -1.5431232108,
				"z": -1.2213858093,
				"element": "H" 
			},
			{
				"x": 3.2309493544,
				"y": -0.5233716545,
				"z": 0.0682619909,
				"element": "H" 
			},
			{
				"x": 3.7818058034,
				"y": 1.1200760527,
				"z": -1.5170050692,
				"element": "H" 
			},
			{
				"x": 1.7269512902,
				"y": -1.0959260469,
				"z": -3.7041957367,
				"element": "H" 
			},
			{
				"x": 1.1604777571,
				"y": -3.2281732116,
				"z": -4.8217220915,
				"element": "H" 
			},
			{
				"x": 2.925324708,
				"y": -4.9253584695,
				"z": -5.2536252612,
				"element": "H" 
			},
			{
				"x": 5.2757264266,
				"y": -4.4653033453,
				"z": -4.5874765806,
				"element": "H" 
			},
			{
				"x": 5.8474038252,
				"y": -2.306274827,
				"z": -3.4800081075,
				"element": "H" 
			},
			{
				"x": -1.807031436,
				"y": 3.3619339705,
				"z": -2.4779506346,
				"element": "H" 
			},
			{
				"x": -4.2659423743,
				"y": 3.5012663314,
				"z": -2.2347920144,
				"element": "H" 
			},
			{
				"x": -5.68182445,
				"y": 1.522467068,
				"z": -2.7386568365,
				"element": "H" 
			},
			{
				"x": -4.6267347757,
				"y": -0.5903012009,
				"z": -3.5152062555,
				"element": "H" 
			},
			{
				"x": -2.1487444027,
				"y": -0.7091007939,
				"z": -3.7858707404,
				"element": "H" 
			}
		],
		 "valence_orbital": [ 
			{
				"type": "occ",
				"energy": -0.24755,
				"method": "rhf"
			},
			{
				"type": "occ",
				"energy": -0.24332,
				"method": "rhf"
			},
			{
				"type": "occ",
				"energy": -0.24003,
				"method": "rhf"
			},
			{
				"type": "occ",
				"energy": -0.23643,
				"method": "rhf"
			},
			{
				"type": "occ",
				"energy": -0.23011,
				"method": "rhf"
			},
			{
				"type": "unocc",
				"energy": -0.06129,
				"method": "rhf"
			},
			{
				"type": "unocc",
				"energy": -0.03397,
				"method": "rhf"
			},
			{
				"type": "unocc",
				"energy": -0.03209,
				"method": "rhf"
			},
			{
				"type": "unocc",
				"energy": -0.0287,
				"method": "rhf"
			},
			{
				"type": "unocc",
				"energy": -0.02835,
				"method": "rhf"
			}
		],
		"cosmo_sigma_profile": { 
			"-0.025": 0.0,
			"-0.024": 0.0,
			"-0.023": 0.0,
			"-0.022": 0.0,
			"-0.021": 0.0,
			"-0.02": 0.0,
			"-0.019": 0.0,
			"-0.018": 0.0,
			"-0.017": 0.0,
			"-0.016": 0.0,
			"-0.015": 0.348789665367,
			"-0.014": 1.42220405575,
			"-0.013": 1.6499439451,
			"-0.012": 2.04199736386,
			"-0.011": 2.42020104874,
			"-0.01": 2.85193541388,
			"-0.009": 3.00737385365,
			"-0.008": 4.37070141393,
			"-0.007": 8.35488315101,
			"-0.006": 38.034393401,
			"-0.005": 51.2655331016,
			"-0.004": 57.5376602815,
			"-0.003": 48.7537930019,
			"-0.002": 43.8621156549,
			"-0.001": 39.022197965,
			"0.0": 39.8736647828,
			"0.001": 37.0132957059,
			"0.002": 41.3537338127,
			"0.003": 45.585960865,
			"0.004": 54.8067108021,
			"0.005": 30.1309883197,
			"0.006": 8.37225062965,
			"0.007": 7.40069812784,
			"0.008": 6.67657884114,
			"0.009": 4.22111090233,
			"0.01": 5.04865077473,
			"0.011": 5.62294650691,
			"0.012": 6.61946777206,
			"0.013": 10.1591558364,
			"0.014": 6.47139794748,
			"0.015": 0.165979051205,
			"0.016": 0.0,
			"0.017": 0.0,
			"0.018": 0.0,
			"0.019": 0.0,
			"0.02": 0.0,
			"0.021": 0.0,
			"0.022": 0.0,
			"0.023": 0.0,
			"0.024": 0.0,
			"0.025": 0.0
		}
	}
}
