{
	 "smiles": "CS(=O)(=O)C1=C(C=CC=C1)N1C=C(C=N1)C(O)=O", 
	 "Tm": 499.15, 
	 "num_atms": 28, 
	 "gaussian": { 
		 "optdone": 1, 
		 "sigma_profile": "yes", 
		 "theory": "DFT", 
		 "functional": "B3LYP", 
		 "basiset": "6-31G**", 
		 "properties": { 
			 "R2extent": 5189.6282, 
			 "electric_dipole_moment_norm": 7.24401509247, 
			 "electric_quadrupole_moment_norm": 24.819675453, 
			 "total_energy": -1233.69434432, 
			 "HOMO_LUMO_gap": 0.20757, 
			 "cosmo_polarized_energy": -26.33, 
			 "cosmo_cavitation_energy": 34.19, 
			 "cosmo_dispersion_energy": -24.46, 
			 "cosmo_repulsion_energy": 1.83, 
			 "cosmo_total_nonelectrostatic_energy": 11.56, 
			 "SMD_solvation_energy": 6.78 
		},
		"coords": [
			{
				"x": -0.1001457012,
				"y": -2.316013137,
				"z": 1.9595297209,
				"element": "C" 
			},
			{
				"x": 1.2536619335,
				"y": -2.1800211286,
				"z": 0.7734264811,
				"element": "S" 
			},
			{
				"x": 2.1914937585,
				"y": -1.1508782299,
				"z": 1.2483094172,
				"element": "O" 
			},
			{
				"x": 1.7358130741,
				"y": -3.5395104961,
				"z": 0.4902125533,
				"element": "O" 
			},
			{
				"x": 0.4457440426,
				"y": -1.5871608865,
				"z": -0.7407325983,
				"element": "C" 
			},
			{
				"x": -0.2400315945,
				"y": -0.3647030335,
				"z": -0.844702126,
				"element": "C" 
			},
			{
				"x": -0.8697696138,
				"y": -0.0305468781,
				"z": -2.0461323921,
				"element": "C" 
			},
			{
				"x": -0.7920802525,
				"y": -0.8849456957,
				"z": -3.1442132404,
				"element": "C" 
			},
			{
				"x": -0.0839262066,
				"y": -2.0829340103,
				"z": -3.0503825965,
				"element": "C" 
			},
			{
				"x": 0.5266941193,
				"y": -2.4352717308,
				"z": -1.8478416535,
				"element": "C" 
			},
			{
				"x": -0.3686686011,
				"y": 0.5582290376,
				"z": 0.240498911,
				"element": "N" 
			},
			{
				"x": 0.5954036872,
				"y": 1.2931185024,
				"z": 0.8536881434,
				"element": "C" 
			},
			{
				"x": -0.0512065163,
				"y": 2.1543167657,
				"z": 1.7252302297,
				"element": "C" 
			},
			{
				"x": -1.4313420829,
				"y": 1.8651214762,
				"z": 1.5452790531,
				"element": "C" 
			},
			{
				"x": -1.6297789751,
				"y": 0.9130668491,
				"z": 0.6451994553,
				"element": "N" 
			},
			{
				"x": 0.6449191719,
				"y": 3.1399790154,
				"z": 2.5789494974,
				"element": "C" 
			},
			{
				"x": -0.1243428867,
				"y": 3.8112741276,
				"z": 3.4814791077,
				"element": "O" 
			},
			{
				"x": 1.828571696,
				"y": 3.3700491763,
				"z": 2.5034724022,
				"element": "O" 
			},
			{
				"x": -0.794178859,
				"y": -3.0799204696,
				"z": 1.6069428268,
				"element": "H" 
			},
			{
				"x": 0.3600522151,
				"y": -2.6225539248,
				"z": 2.9012080313,
				"element": "H" 
			},
			{
				"x": -0.5970388184,
				"y": -1.3521640552,
				"z": 2.0709325836,
				"element": "H" 
			},
			{
				"x": -1.4161510578,
				"y": 0.904258271,
				"z": -2.0998362596,
				"element": "H" 
			},
			{
				"x": -1.281418149,
				"y": -0.6086344406,
				"z": -4.07293456,
				"element": "H" 
			},
			{
				"x": -0.0141698749,
				"y": -2.7480919934,
				"z": -3.9051269666,
				"element": "H" 
			},
			{
				"x": 1.0622880749,
				"y": -3.3718743959,
				"z": -1.7402173811,
				"element": "H" 
			},
			{
				"x": 1.6462787688,
				"y": 1.1459267182,
				"z": 0.6647372187,
				"element": "H" 
			},
			{
				"x": -2.2949590752,
				"y": 2.3147816818,
				"z": 2.0214515056,
				"element": "H" 
			},
			{
				"x": -1.0304122769,
				"y": 3.4741028847,
				"z": 3.4790726359,
				"element": "H" 
			}
		],
		 "valence_orbital": [ 
			{
				"type": "occ",
				"energy": -0.30466,
				"method": "rhf"
			},
			{
				"type": "occ",
				"energy": -0.28957,
				"method": "rhf"
			},
			{
				"type": "occ",
				"energy": -0.27572,
				"method": "rhf"
			},
			{
				"type": "occ",
				"energy": -0.27169,
				"method": "rhf"
			},
			{
				"type": "occ",
				"energy": -0.26881,
				"method": "rhf"
			},
			{
				"type": "unocc",
				"energy": -0.06124,
				"method": "rhf"
			},
			{
				"type": "unocc",
				"energy": -0.04558,
				"method": "rhf"
			},
			{
				"type": "unocc",
				"energy": -0.02634,
				"method": "rhf"
			},
			{
				"type": "unocc",
				"energy": -0.00694,
				"method": "rhf"
			},
			{
				"type": "unocc",
				"energy": 0.04275,
				"method": "rhf"
			}
		],
		"cosmo_sigma_profile": { 
			"-0.025": 0.0,
			"-0.024": 0.0,
			"-0.023": 0.0,
			"-0.022": 0.0,
			"-0.021": 0.0,
			"-0.02": 0.0203162999225,
			"-0.019": 0.657970004553,
			"-0.018": 1.37778487663,
			"-0.017": 1.03535381236,
			"-0.016": 0.864653064901,
			"-0.015": 0.931304489168,
			"-0.014": 0.869521372623,
			"-0.013": 1.43887596618,
			"-0.012": 1.05840947701,
			"-0.011": 1.81398307393,
			"-0.01": 1.78197730404,
			"-0.009": 6.15951990821,
			"-0.008": 8.84034412203,
			"-0.007": 16.1323114826,
			"-0.006": 17.1705937659,
			"-0.005": 15.9277107157,
			"-0.004": 17.080232396,
			"-0.003": 16.5490502703,
			"-0.002": 15.0143166408,
			"-0.001": 14.8168637849,
			"0.0": 17.5555633216,
			"0.001": 20.1805018733,
			"0.002": 15.2395636567,
			"0.003": 6.69808056468,
			"0.004": 5.24523155334,
			"0.005": 6.64499503946,
			"0.006": 5.68773925044,
			"0.007": 5.44581252338,
			"0.008": 6.5226928348,
			"0.009": 8.01856955688,
			"0.01": 11.0865302544,
			"0.011": 13.7410999941,
			"0.012": 9.90099464406,
			"0.013": 2.81570826013,
			"0.014": 0.462765895074,
			"0.015": 0.0,
			"0.016": 0.0,
			"0.017": 0.0,
			"0.018": 0.0,
			"0.019": 0.0,
			"0.02": 0.0,
			"0.021": 0.0,
			"0.022": 0.0,
			"0.023": 0.0,
			"0.024": 0.0,
			"0.025": 0.0
		}
	}
}
