{
	 "smiles": "CCCC1(C)CC(=O)NC1=O", 
	 "Tm": 350.15, 
	 "num_atms": 24, 
	 "gaussian": { 
		 "optdone": 1, 
		 "sigma_profile": "yes", 
		 "theory": "DFT", 
		 "functional": "B3LYP", 
		 "basiset": "6-31G**", 
		 "properties": { 
			 "R2extent": 2153.172, 
			 "electric_dipole_moment_norm": 1.95164301295, 
			 "electric_quadrupole_moment_norm": 12.4262585069, 
			 "total_energy": -517.929076058, 
			 "HOMO_LUMO_gap": 0.23377, 
			 "cosmo_polarized_energy": -12.26, 
			 "cosmo_cavitation_energy": 25.88, 
			 "cosmo_dispersion_energy": -18.61, 
			 "cosmo_repulsion_energy": 1.51, 
			 "cosmo_total_nonelectrostatic_energy": 8.78, 
			 "SMD_solvation_energy": 5.65 
		},
		"coords": [
			{
				"x": 0.9005160865,
				"y": -1.2261233678,
				"z": -2.5807483619,
				"element": "C" 
			},
			{
				"x": 0.3602193367,
				"y": -1.7747175835,
				"z": -1.2530915674,
				"element": "C" 
			},
			{
				"x": -0.8623222329,
				"y": -1.0166570466,
				"z": -0.6886816787,
				"element": "C" 
			},
			{
				"x": -0.5966706004,
				"y": 0.1446696336,
				"z": 0.3188173101,
				"element": "C" 
			},
			{
				"x": 0.3330134568,
				"y": 1.2270427353,
				"z": -0.2486195264,
				"element": "C" 
			},
			{
				"x": -1.9517065295,
				"y": 0.7114279266,
				"z": 0.8193328818,
				"element": "C" 
			},
			{
				"x": -2.1515722476,
				"y": 0.1666062968,
				"z": 2.2295403673,
				"element": "C" 
			},
			{
				"x": -3.1299402284,
				"y": 0.253341248,
				"z": 2.9380719485,
				"element": "O" 
			},
			{
				"x": -0.9545305694,
				"y": -0.4505666074,
				"z": 2.5874236264,
				"element": "N" 
			},
			{
				"x": 0.0247401984,
				"y": -0.4481589891,
				"z": 1.5993896518,
				"element": "C" 
			},
			{
				"x": 1.1555273341,
				"y": -0.8643796488,
				"z": 1.7502722364,
				"element": "O" 
			},
			{
				"x": 1.732506397,
				"y": -1.8389994362,
				"z": -2.9428985085,
				"element": "H" 
			},
			{
				"x": 0.1238910061,
				"y": -1.2331732659,
				"z": -3.3546061162,
				"element": "H" 
			},
			{
				"x": 1.2660303908,
				"y": -0.199211852,
				"z": -2.4906795552,
				"element": "H" 
			},
			{
				"x": 0.0635101993,
				"y": -2.8183799303,
				"z": -1.4126306715,
				"element": "H" 
			},
			{
				"x": 1.1559152525,
				"y": -1.8003438176,
				"z": -0.501821536,
				"element": "H" 
			},
			{
				"x": -1.5281783733,
				"y": -1.7308060188,
				"z": -0.1869026404,
				"element": "H" 
			},
			{
				"x": -1.4480100312,
				"y": -0.5958850465,
				"z": -1.5174715498,
				"element": "H" 
			},
			{
				"x": 0.4357428625,
				"y": 2.060735903,
				"z": 0.4542450987,
				"element": "H" 
			},
			{
				"x": -0.0645839917,
				"y": 1.6232063973,
				"z": -1.1883937188,
				"element": "H" 
			},
			{
				"x": 1.331302544,
				"y": 0.8242569874,
				"z": -0.4310538979,
				"element": "H" 
			},
			{
				"x": -1.9431636608,
				"y": 1.8053840218,
				"z": 0.8831403384,
				"element": "H" 
			},
			{
				"x": -2.8049121774,
				"y": 0.4342878641,
				"z": 0.1943828786,
				"element": "H" 
			},
			{
				"x": -0.7987244219,
				"y": -0.8470564031,
				"z": 3.5060829905,
				"element": "H" 
			}
		],
		 "valence_orbital": [ 
			{
				"type": "occ",
				"energy": -0.33397,
				"method": "rhf"
			},
			{
				"type": "occ",
				"energy": -0.32173,
				"method": "rhf"
			},
			{
				"type": "occ",
				"energy": -0.29251,
				"method": "rhf"
			},
			{
				"type": "occ",
				"energy": -0.28225,
				"method": "rhf"
			},
			{
				"type": "occ",
				"energy": -0.25619,
				"method": "rhf"
			},
			{
				"type": "unocc",
				"energy": -0.02242,
				"method": "rhf"
			},
			{
				"type": "unocc",
				"energy": 0.02632,
				"method": "rhf"
			},
			{
				"type": "unocc",
				"energy": 0.07315,
				"method": "rhf"
			},
			{
				"type": "unocc",
				"energy": 0.09075,
				"method": "rhf"
			},
			{
				"type": "unocc",
				"energy": 0.11169,
				"method": "rhf"
			}
		],
		"cosmo_sigma_profile": { 
			"-0.025": 0.0,
			"-0.024": 0.0,
			"-0.023": 0.0,
			"-0.022": 0.0,
			"-0.021": 0.0,
			"-0.02": 0.0,
			"-0.019": 0.0,
			"-0.018": 0.0,
			"-0.017": 0.0378981939331,
			"-0.016": 0.994797951886,
			"-0.015": 1.19447188559,
			"-0.014": 1.0387860459,
			"-0.013": 0.982296202764,
			"-0.012": 0.695189353824,
			"-0.011": 0.925061752941,
			"-0.01": 1.08666811176,
			"-0.009": 0.390163620482,
			"-0.008": 1.33311025351,
			"-0.007": 4.69905694275,
			"-0.006": 7.8142560273,
			"-0.005": 9.44417603795,
			"-0.004": 14.1130442749,
			"-0.003": 20.6362924085,
			"-0.002": 25.9797325747,
			"-0.001": 21.1745906484,
			"0.0": 20.426608431,
			"0.001": 16.0728016776,
			"0.002": 8.52246627232,
			"0.003": 3.63717326337,
			"0.004": 2.59042218211,
			"0.005": 3.05980445582,
			"0.006": 2.72847469101,
			"0.007": 3.24832144675,
			"0.008": 2.47265609866,
			"0.009": 3.26574025547,
			"0.01": 3.5582082363,
			"0.011": 6.18447214042,
			"0.012": 10.2670880763,
			"0.013": 2.89315008282,
			"0.014": 0.0234420370425,
			"0.015": 0.0,
			"0.016": 0.0,
			"0.017": 0.0,
			"0.018": 0.0,
			"0.019": 0.0,
			"0.02": 0.0,
			"0.021": 0.0,
			"0.022": 0.0,
			"0.023": 0.0,
			"0.024": 0.0,
			"0.025": 0.0
		}
	}
}
