{
	 "smiles": "OC(=O)C1=CSC(=N1)C1=NN(N=C1)C1=CC=CC=C1", 
	 "Tm": 513.15, 
	 "num_atms": 27, 
	 "gaussian": { 
		 "optdone": 1, 
		 "sigma_profile": "yes", 
		 "theory": "DFT", 
		 "functional": "B3LYP", 
		 "basiset": "6-31G**", 
		 "properties": { 
			 "R2extent": 8819.8038, 
			 "electric_dipole_moment_norm": 6.33466324993, 
			 "electric_quadrupole_moment_norm": 25.972966275, 
			 "total_energy": -1229.71786405, 
			 "HOMO_LUMO_gap": 0.15898, 
			 "cosmo_polarized_energy": -13.68, 
			 "cosmo_cavitation_energy": 35.28, 
			 "cosmo_dispersion_energy": -26.36, 
			 "cosmo_repulsion_energy": 1.96, 
			 "cosmo_total_nonelectrostatic_energy": 10.88, 
			 "SMD_solvation_energy": 4.89 
		},
		"coords": [
			{
				"x": -3.4582424108,
				"y": -5.322956419,
				"z": 0.4511101783,
				"element": "O" 
			},
			{
				"x": -4.2533256063,
				"y": -4.5394659983,
				"z": -0.3054184803,
				"element": "C" 
			},
			{
				"x": -5.3132911443,
				"y": -4.9167846179,
				"z": -0.7478185983,
				"element": "O" 
			},
			{
				"x": -3.7019923825,
				"y": -3.1726973276,
				"z": -0.5413376346,
				"element": "C" 
			},
			{
				"x": -4.3190109546,
				"y": -2.196223674,
				"z": -1.2751168451,
				"element": "C" 
			},
			{
				"x": -3.3465053046,
				"y": -0.7725291329,
				"z": -1.2981361002,
				"element": "S" 
			},
			{
				"x": -2.1557391099,
				"y": -1.6045300063,
				"z": -0.3011317825,
				"element": "C" 
			},
			{
				"x": -2.4852051373,
				"y": -2.833414763,
				"z": 0.0039338933,
				"element": "N" 
			},
			{
				"x": -0.9299156301,
				"y": -0.9595203761,
				"z": 0.1273679605,
				"element": "C" 
			},
			{
				"x": -0.6294210011,
				"y": 0.3016225198,
				"z": -0.2066831255,
				"element": "N" 
			},
			{
				"x": 0.5515256541,
				"y": 0.5130007953,
				"z": 0.369341046,
				"element": "N" 
			},
			{
				"x": 1.0447965177,
				"y": -0.5258206657,
				"z": 1.0584518215,
				"element": "N" 
			},
			{
				"x": 0.1221418458,
				"y": -1.471057107,
				"z": 0.9190849052,
				"element": "C" 
			},
			{
				"x": 1.2446420778,
				"y": 1.7535422164,
				"z": 0.2629901577,
				"element": "C" 
			},
			{
				"x": 2.4823359534,
				"y": 1.9019769943,
				"z": 0.8950858101,
				"element": "C" 
			},
			{
				"x": 3.1533631532,
				"y": 3.1183896736,
				"z": 0.786042023,
				"element": "C" 
			},
			{
				"x": 2.5992998129,
				"y": 4.1729698911,
				"z": 0.0572588975,
				"element": "C" 
			},
			{
				"x": 1.3615672619,
				"y": 4.0066471188,
				"z": -0.5677695329,
				"element": "C" 
			},
			{
				"x": 0.6749772383,
				"y": 2.7979383552,
				"z": -0.4704707494,
				"element": "C" 
			},
			{
				"x": -2.6676400244,
				"y": -4.8026860285,
				"z": 0.6859824829,
				"element": "H" 
			},
			{
				"x": -5.2709980307,
				"y": -2.2619429116,
				"z": -1.7811702765,
				"element": "H" 
			},
			{
				"x": 0.2334619111,
				"y": -2.4452996144,
				"z": 1.3691393779,
				"element": "H" 
			},
			{
				"x": 2.899054657,
				"y": 1.0752004492,
				"z": 1.4565684707,
				"element": "H" 
			},
			{
				"x": 4.1151573978,
				"y": 3.2391989382,
				"z": 1.2750468839,
				"element": "H" 
			},
			{
				"x": 3.1281964227,
				"y": 5.1176230111,
				"z": -0.0230794533,
				"element": "H" 
			},
			{
				"x": 0.9235782236,
				"y": 4.8213155929,
				"z": -1.1363352441,
				"element": "H" 
			},
			{
				"x": -0.2854113908,
				"y": 2.6551030865,
				"z": -0.9499360858,
				"element": "H" 
			}
		],
		 "valence_orbital": [ 
			{
				"type": "occ",
				"energy": -0.31077,
				"method": "rhf"
			},
			{
				"type": "occ",
				"energy": -0.27332,
				"method": "rhf"
			},
			{
				"type": "occ",
				"energy": -0.27221,
				"method": "rhf"
			},
			{
				"type": "occ",
				"energy": -0.26964,
				"method": "rhf"
			},
			{
				"type": "occ",
				"energy": -0.23882,
				"method": "rhf"
			},
			{
				"type": "unocc",
				"energy": -0.07984,
				"method": "rhf"
			},
			{
				"type": "unocc",
				"energy": -0.04771,
				"method": "rhf"
			},
			{
				"type": "unocc",
				"energy": -0.03314,
				"method": "rhf"
			},
			{
				"type": "unocc",
				"energy": -0.01956,
				"method": "rhf"
			},
			{
				"type": "unocc",
				"energy": -0.00089,
				"method": "rhf"
			}
		],
		"cosmo_sigma_profile": { 
			"-0.025": 0.0,
			"-0.024": 0.0,
			"-0.023": 0.0,
			"-0.022": 0.0,
			"-0.021": 0.0,
			"-0.02": 0.0,
			"-0.019": 0.0,
			"-0.018": 0.0,
			"-0.017": 0.0,
			"-0.016": 0.0,
			"-0.015": 0.0,
			"-0.014": 0.447732694792,
			"-0.013": 0.586022567242,
			"-0.012": 0.623087981457,
			"-0.011": 1.83433222375,
			"-0.01": 3.09896374171,
			"-0.009": 4.26618172401,
			"-0.008": 2.41874984601,
			"-0.007": 6.80343079728,
			"-0.006": 13.5412659198,
			"-0.005": 16.1082422243,
			"-0.004": 15.1925121202,
			"-0.003": 16.5922190167,
			"-0.002": 25.4120052721,
			"-0.001": 30.6779171839,
			"0.0": 31.0031905405,
			"0.001": 25.5980761202,
			"0.002": 17.2347047346,
			"0.003": 18.0633730258,
			"0.004": 16.762391366,
			"0.005": 7.47115445548,
			"0.006": 4.74262437935,
			"0.007": 4.14467535382,
			"0.008": 3.81257029856,
			"0.009": 5.38787872353,
			"0.01": 5.96248221489,
			"0.011": 4.74845182899,
			"0.012": 4.22273853117,
			"0.013": 1.25841616001,
			"0.014": 0.0,
			"0.015": 0.0,
			"0.016": 0.0,
			"0.017": 0.0,
			"0.018": 0.0,
			"0.019": 0.0,
			"0.02": 0.0,
			"0.021": 0.0,
			"0.022": 0.0,
			"0.023": 0.0,
			"0.024": 0.0,
			"0.025": 0.0
		}
	}
}
