{
	 "smiles": "O[C@H]1CCCC[C@@H]1F", 
	 "Tm": 294.15, 
	 "num_atms": 19, 
	 "gaussian": { 
		 "optdone": 1, 
		 "sigma_profile": "yes", 
		 "theory": "DFT", 
		 "functional": "B3LYP", 
		 "basiset": "6-31G**", 
		 "properties": { 
			 "R2extent": 1237.1845, 
			 "electric_dipole_moment_norm": 2.54989532334, 
			 "electric_quadrupole_moment_norm": 11.414692497, 
			 "total_energy": -410.326055591, 
			 "HOMO_LUMO_gap": 0.33595, 
			 "cosmo_polarized_energy": -7.63, 
			 "cosmo_cavitation_energy": 20.4, 
			 "cosmo_dispersion_energy": -15.36, 
			 "cosmo_repulsion_energy": 1.27, 
			 "cosmo_total_nonelectrostatic_energy": 6.31, 
			 "SMD_solvation_energy": 3.18 
		},
		"coords": [
			{
				"x": -1.1714154915,
				"y": -1.9435872174,
				"z": 2.2325243609,
				"element": "O" 
			},
			{
				"x": -0.1674070866,
				"y": -1.4223597571,
				"z": 1.3674464204,
				"element": "C" 
			},
			{
				"x": -0.5345250903,
				"y": -1.576520933,
				"z": -0.1129483184,
				"element": "C" 
			},
			{
				"x": 0.5851366024,
				"y": -1.0444991146,
				"z": -1.037529369,
				"element": "C" 
			},
			{
				"x": 1.3121406349,
				"y": 0.1822247212,
				"z": -0.4287776415,
				"element": "C" 
			},
			{
				"x": 0.3998302552,
				"y": 0.9346699068,
				"z": 0.5470883103,
				"element": "C" 
			},
			{
				"x": 0.0266663518,
				"y": 0.054419396,
				"z": 1.7424163507,
				"element": "C" 
			},
			{
				"x": 1.0586478511,
				"y": 0.1326369232,
				"z": 2.6901442421,
				"element": "F" 
			},
			{
				"x": -1.2279281049,
				"y": -2.896271932,
				"z": 2.0844537202,
				"element": "H" 
			},
			{
				"x": 0.7995597061,
				"y": -1.9167865525,
				"z": 1.5538253139,
				"element": "H" 
			},
			{
				"x": -0.7406439111,
				"y": -2.6313831361,
				"z": -0.332377154,
				"element": "H" 
			},
			{
				"x": -1.4742225583,
				"y": -1.0388131361,
				"z": -0.2891117601,
				"element": "H" 
			},
			{
				"x": 1.314176212,
				"y": -1.8386618983,
				"z": -1.235208638,
				"element": "H" 
			},
			{
				"x": 0.1486932532,
				"y": -0.7819321337,
				"z": -2.0075783964,
				"element": "H" 
			},
			{
				"x": 2.2031576524,
				"y": -0.1425394991,
				"z": 0.1214340627,
				"element": "H" 
			},
			{
				"x": 1.6653375332,
				"y": 0.8493278071,
				"z": -1.2217494492,
				"element": "H" 
			},
			{
				"x": 0.8802292314,
				"y": 1.8393933296,
				"z": 0.9329242617,
				"element": "H" 
			},
			{
				"x": -0.5168977715,
				"y": 1.254913925,
				"z": 0.0360156588,
				"element": "H" 
			},
			{
				"x": -0.8880352695,
				"y": 0.4120693009,
				"z": 2.229408025,
				"element": "H" 
			}
		],
		 "valence_orbital": [ 
			{
				"type": "occ",
				"energy": -0.33369,
				"method": "rhf"
			},
			{
				"type": "occ",
				"energy": -0.32483,
				"method": "rhf"
			},
			{
				"type": "occ",
				"energy": -0.30909,
				"method": "rhf"
			},
			{
				"type": "occ",
				"energy": -0.29534,
				"method": "rhf"
			},
			{
				"type": "occ",
				"energy": -0.26501,
				"method": "rhf"
			},
			{
				"type": "unocc",
				"energy": 0.07094,
				"method": "rhf"
			},
			{
				"type": "unocc",
				"energy": 0.08191,
				"method": "rhf"
			},
			{
				"type": "unocc",
				"energy": 0.10428,
				"method": "rhf"
			},
			{
				"type": "unocc",
				"energy": 0.12564,
				"method": "rhf"
			},
			{
				"type": "unocc",
				"energy": 0.13898,
				"method": "rhf"
			}
		],
		"cosmo_sigma_profile": { 
			"-0.025": 0.0,
			"-0.024": 0.0,
			"-0.023": 0.0,
			"-0.022": 0.0,
			"-0.021": 0.0,
			"-0.02": 0.0,
			"-0.019": 0.0,
			"-0.018": 0.0,
			"-0.017": 0.0,
			"-0.016": 0.173182761771,
			"-0.015": 1.09178652519,
			"-0.014": 0.776314755288,
			"-0.013": 0.605016763216,
			"-0.012": 1.21914021372,
			"-0.011": 0.826571809211,
			"-0.01": 1.32002835746,
			"-0.009": 0.770289035697,
			"-0.008": 0.795400270913,
			"-0.007": 0.871781311523,
			"-0.006": 1.87035444288,
			"-0.005": 2.31019424919,
			"-0.004": 11.1675462981,
			"-0.003": 17.7576706376,
			"-0.002": 22.6574232253,
			"-0.001": 23.6280746867,
			"0.0": 18.1062850568,
			"0.001": 11.2256201226,
			"0.002": 3.84090690508,
			"0.003": 2.66124032393,
			"0.004": 2.57781820305,
			"0.005": 2.83482819408,
			"0.006": 5.99293209713,
			"0.007": 10.3689423269,
			"0.008": 2.75801479419,
			"0.009": 1.38325701825,
			"0.01": 0.950134920231,
			"0.011": 1.15156369498,
			"0.012": 2.38671166977,
			"0.013": 1.40010018735,
			"0.014": 1.46819367382,
			"0.015": 0.0,
			"0.016": 0.0,
			"0.017": 0.0,
			"0.018": 0.0,
			"0.019": 0.0,
			"0.02": 0.0,
			"0.021": 0.0,
			"0.022": 0.0,
			"0.023": 0.0,
			"0.024": 0.0,
			"0.025": 0.0
		}
	}
}
