{
	 "smiles": "OC(=O)CC(C(CC(O)=O)C(O)=O)C(O)=O", 
	 "Tm": 469.15, 
	 "num_atms": 26, 
	 "gaussian": { 
		 "optdone": 1, 
		 "sigma_profile": "yes", 
		 "theory": "DFT", 
		 "functional": "B3LYP", 
		 "basiset": "6-31G**", 
		 "properties": { 
			 "R2extent": 4033.6971, 
			 "electric_dipole_moment_norm": 3.29905270949, 
			 "electric_quadrupole_moment_norm": 27.7134830662, 
			 "total_energy": -912.724433031, 
			 "HOMO_LUMO_gap": 0.22696, 
			 "cosmo_polarized_energy": -29.06, 
			 "cosmo_cavitation_energy": 30.65, 
			 "cosmo_dispersion_energy": -21.0, 
			 "cosmo_repulsion_energy": 1.66, 
			 "cosmo_total_nonelectrostatic_energy": 11.31, 
			 "SMD_solvation_energy": 9.13 
		},
		"coords": [
			{
				"x": -1.6480815629,
				"y": 0.9980042502,
				"z": -0.3786717981,
				"element": "O" 
			},
			{
				"x": -1.174414601,
				"y": 0.257877398,
				"z": 0.624735437,
				"element": "C" 
			},
			{
				"x": -1.7262356708,
				"y": -0.7686307215,
				"z": 0.9990296565,
				"element": "O" 
			},
			{
				"x": 0.0724351354,
				"y": 0.8353585908,
				"z": 1.2566684449,
				"element": "C" 
			},
			{
				"x": 1.2709648578,
				"y": -0.1335376656,
				"z": 1.439533062,
				"element": "C" 
			},
			{
				"x": 1.8262412567,
				"y": -0.7867890067,
				"z": 0.1316285783,
				"element": "C" 
			},
			{
				"x": 2.290149152,
				"y": 0.2698911544,
				"z": -0.8795129777,
				"element": "C" 
			},
			{
				"x": 3.0310585389,
				"y": -0.2568472114,
				"z": -2.096281845,
				"element": "C" 
			},
			{
				"x": 3.4850099973,
				"y": -1.5226344459,
				"z": -1.9298257376,
				"element": "O" 
			},
			{
				"x": 3.2316553907,
				"y": 0.3848257719,
				"z": -3.1007743212,
				"element": "O" 
			},
			{
				"x": 0.8271071474,
				"y": -1.7308491988,
				"z": -0.5264759768,
				"element": "C" 
			},
			{
				"x": 0.7339859152,
				"y": -2.9004831685,
				"z": 0.1313911872,
				"element": "O" 
			},
			{
				"x": 0.1701041396,
				"y": -1.468555601,
				"z": -1.5132140417,
				"element": "O" 
			},
			{
				"x": 1.1564107393,
				"y": -1.1865181274,
				"z": 2.5713611629,
				"element": "C" 
			},
			{
				"x": -0.0523799003,
				"y": -1.6338183168,
				"z": 2.9237435582,
				"element": "O" 
			},
			{
				"x": 2.162518773,
				"y": -1.5599607275,
				"z": 3.1302649268,
				"element": "O" 
			},
			{
				"x": -2.4256249463,
				"y": 0.5373016438,
				"z": -0.7404239123,
				"element": "H" 
			},
			{
				"x": -0.223588193,
				"y": 1.2026441158,
				"z": 2.2471858004,
				"element": "H" 
			},
			{
				"x": 0.3854274469,
				"y": 1.7061933611,
				"z": 0.6781774066,
				"element": "H" 
			},
			{
				"x": 2.0901738446,
				"y": 0.4971428246,
				"z": 1.798388862,
				"element": "H" 
			},
			{
				"x": 2.6784560319,
				"y": -1.3923325565,
				"z": 0.4513740529,
				"element": "H" 
			},
			{
				"x": 2.9668524016,
				"y": 0.978857701,
				"z": -0.3865465813,
				"element": "H" 
			},
			{
				"x": 1.4489247981,
				"y": 0.8456743368,
				"z": -1.271637949,
				"element": "H" 
			},
			{
				"x": 3.9439335079,
				"y": -1.758034101,
				"z": -2.7538620134,
				"element": "H" 
			},
			{
				"x": 0.0427992408,
				"y": -3.4229803335,
				"z": -0.309904725,
				"element": "H" 
			},
			{
				"x": -0.7486834409,
				"y": -1.3779999664,
				"z": 2.2737497432,
				"element": "H" 
			}
		],
		 "valence_orbital": [ 
			{
				"type": "occ",
				"energy": -0.3145,
				"method": "rhf"
			},
			{
				"type": "occ",
				"energy": -0.30359,
				"method": "rhf"
			},
			{
				"type": "occ",
				"energy": -0.29052,
				"method": "rhf"
			},
			{
				"type": "occ",
				"energy": -0.28359,
				"method": "rhf"
			},
			{
				"type": "occ",
				"energy": -0.26227,
				"method": "rhf"
			},
			{
				"type": "unocc",
				"energy": -0.03531,
				"method": "rhf"
			},
			{
				"type": "unocc",
				"energy": -0.01223,
				"method": "rhf"
			},
			{
				"type": "unocc",
				"energy": -0.00133,
				"method": "rhf"
			},
			{
				"type": "unocc",
				"energy": 0.01644,
				"method": "rhf"
			},
			{
				"type": "unocc",
				"energy": 0.04894,
				"method": "rhf"
			}
		],
		"cosmo_sigma_profile": { 
			"-0.025": 0.0,
			"-0.024": 0.0,
			"-0.023": 0.0,
			"-0.022": 0.0,
			"-0.021": 0.0,
			"-0.02": 0.142409172533,
			"-0.019": 1.63632251863,
			"-0.018": 3.41850389858,
			"-0.017": 2.28171560668,
			"-0.016": 2.18042325633,
			"-0.015": 1.81547462496,
			"-0.014": 2.36624502409,
			"-0.013": 1.77096373363,
			"-0.012": 2.09185043794,
			"-0.011": 2.57057975258,
			"-0.01": 1.61304048646,
			"-0.009": 7.36149984456,
			"-0.008": 15.4650257966,
			"-0.007": 13.6579015098,
			"-0.006": 9.57365865012,
			"-0.005": 10.8302722978,
			"-0.004": 7.99861684252,
			"-0.003": 9.6169550803,
			"-0.002": 9.17627766586,
			"-0.001": 7.68893208955,
			"0.0": 8.18613423348,
			"0.001": 8.1075156859,
			"0.002": 10.5513837619,
			"0.003": 10.0316700512,
			"0.004": 9.46784113254,
			"0.005": 9.47863280021,
			"0.006": 10.8186810647,
			"0.007": 9.78908126759,
			"0.008": 7.51804913933,
			"0.009": 7.5653498319,
			"0.01": 9.24535063701,
			"0.011": 12.6814028744,
			"0.012": 10.2828877713,
			"0.013": 3.1109485884,
			"0.014": 0.384740340633,
			"0.015": 0.0,
			"0.016": 0.0,
			"0.017": 0.0,
			"0.018": 0.0,
			"0.019": 0.0,
			"0.02": 0.0,
			"0.021": 0.0,
			"0.022": 0.0,
			"0.023": 0.0,
			"0.024": 0.0,
			"0.025": 0.0
		}
	}
}
