{
	 "smiles": "NC=O", 
	 "Tm": 275.42, 
	 "num_atms": 6, 
	 "gaussian": { 
		 "optdone": 1, 
		 "sigma_profile": "yes", 
		 "theory": "DFT", 
		 "functional": "B3LYP", 
		 "basiset": "6-31G**", 
		 "properties": { 
			 "R2extent": 417.3449, 
			 "electric_dipole_moment_norm": 3.81429586162, 
			 "electric_quadrupole_moment_norm": 8.51579732673, 
			 "total_energy": -169.893547842, 
			 "HOMO_LUMO_gap": 0.28283, 
			 "cosmo_polarized_energy": -11.77, 
			 "cosmo_cavitation_energy": 9.81, 
			 "cosmo_dispersion_energy": -7.36, 
			 "cosmo_repulsion_energy": 0.74, 
			 "cosmo_total_nonelectrostatic_energy": 3.19, 
			 "SMD_solvation_energy": 3.78 
		},
		"coords": [
			{
				"x": -1.2858575343,
				"y": 0.5412802423,
				"z": 1.4048164909,
				"element": "N" 
			},
			{
				"x": -1.5280640425,
				"y": 0.5361966779,
				"z": 0.0642893017,
				"element": "C" 
			},
			{
				"x": -1.8152621242,
				"y": 1.5166345307,
				"z": -0.5951792799,
				"element": "O" 
			},
			{
				"x": -1.3432628428,
				"y": 1.4141414457,
				"z": 1.9086961947,
				"element": "H" 
			},
			{
				"x": -1.0518580819,
				"y": -0.3018449152,
				"z": 1.9037339828,
				"element": "H" 
			},
			{
				"x": -1.4340953744,
				"y": -0.4804079814,
				"z": -0.3695566901,
				"element": "H" 
			}
		],
		 "valence_orbital": [ 
			{
				"type": "occ",
				"energy": -0.47778,
				"method": "rhf"
			},
			{
				"type": "occ",
				"energy": -0.40892,
				"method": "rhf"
			},
			{
				"type": "occ",
				"energy": -0.40076,
				"method": "rhf"
			},
			{
				"type": "occ",
				"energy": -0.27253,
				"method": "rhf"
			},
			{
				"type": "occ",
				"energy": -0.25404,
				"method": "rhf"
			},
			{
				"type": "unocc",
				"energy": 0.02879,
				"method": "rhf"
			},
			{
				"type": "unocc",
				"energy": 0.07443,
				"method": "rhf"
			},
			{
				"type": "unocc",
				"energy": 0.10974,
				"method": "rhf"
			},
			{
				"type": "unocc",
				"energy": 0.16402,
				"method": "rhf"
			},
			{
				"type": "unocc",
				"energy": 0.27039,
				"method": "rhf"
			}
		],
		"cosmo_sigma_profile": { 
			"-0.025": 0.0,
			"-0.024": 0.0,
			"-0.023": 0.0,
			"-0.022": 0.0,
			"-0.021": 0.0,
			"-0.02": 0.0,
			"-0.019": 0.0,
			"-0.018": 0.0,
			"-0.017": 0.0,
			"-0.016": 0.0,
			"-0.015": 0.614098403544,
			"-0.014": 2.58993363756,
			"-0.013": 2.25286778955,
			"-0.012": 2.67074548533,
			"-0.011": 2.62630753929,
			"-0.01": 3.0928551511,
			"-0.009": 1.89765226704,
			"-0.008": 1.85274180161,
			"-0.007": 3.80562768335,
			"-0.006": 4.26442794673,
			"-0.005": 2.80520094269,
			"-0.004": 2.49331663977,
			"-0.003": 2.86134350597,
			"-0.002": 2.62610170011,
			"-0.001": 3.21351831042,
			"0.0": 2.65006281708,
			"0.001": 2.04922124612,
			"0.002": 2.90668839078,
			"0.003": 3.77172239188,
			"0.004": 2.34389074109,
			"0.005": 2.54585985218,
			"0.006": 1.3221017041,
			"0.007": 0.45378021172,
			"0.008": 1.75459637823,
			"0.009": 1.41571893777,
			"0.01": 1.09317500844,
			"0.011": 1.69613676213,
			"0.012": 2.35010587389,
			"0.013": 4.69407692829,
			"0.014": 5.20880743397,
			"0.015": 1.33306297935,
			"0.016": 0.00844788091756,
			"0.017": 0.0,
			"0.018": 0.0,
			"0.019": 0.0,
			"0.02": 0.0,
			"0.021": 0.0,
			"0.022": 0.0,
			"0.023": 0.0,
			"0.024": 0.0,
			"0.025": 0.0
		}
	}
}
