{
	 "smiles": "CC(C)(C)NC(=O)C1CCCCN1", 
	 "Tm": 353.15, 
	 "num_atms": 33, 
	 "gaussian": { 
		 "optdone": 1, 
		 "sigma_profile": "yes", 
		 "theory": "DFT", 
		 "functional": "B3LYP", 
		 "basiset": "6-31G**", 
		 "properties": { 
			 "R2extent": 3419.2479, 
			 "electric_dipole_moment_norm": 3.23631770536, 
			 "electric_quadrupole_moment_norm": 9.78922048327, 
			 "total_energy": -577.876755065, 
			 "HOMO_LUMO_gap": 0.25834, 
			 "cosmo_polarized_energy": -10.17, 
			 "cosmo_cavitation_energy": 32.37, 
			 "cosmo_dispersion_energy": -23.17, 
			 "cosmo_repulsion_energy": 1.86, 
			 "cosmo_total_nonelectrostatic_energy": 11.07, 
			 "SMD_solvation_energy": 4.08 
		},
		"coords": [
			{
				"x": -1.0499621739,
				"y": 1.4841872282,
				"z": 2.823808005,
				"element": "C" 
			},
			{
				"x": -0.8532170182,
				"y": 1.8363499247,
				"z": 1.3367200167,
				"element": "C" 
			},
			{
				"x": 0.1537654524,
				"y": 2.988174738,
				"z": 1.1967432244,
				"element": "C" 
			},
			{
				"x": -2.1984966059,
				"y": 2.2298769528,
				"z": 0.6971281003,
				"element": "C" 
			},
			{
				"x": -0.274541097,
				"y": 0.6820504845,
				"z": 0.6187451158,
				"element": "N" 
			},
			{
				"x": -0.8425468546,
				"y": -0.543040172,
				"z": 0.4888537918,
				"element": "C" 
			},
			{
				"x": -1.9250502575,
				"y": -0.8783842729,
				"z": 0.9679942187,
				"element": "O" 
			},
			{
				"x": -0.022840026,
				"y": -1.5208240301,
				"z": -0.3763776837,
				"element": "C" 
			},
			{
				"x": -0.2792903715,
				"y": -2.9986384022,
				"z": 0.0175922257,
				"element": "C" 
			},
			{
				"x": 0.9489102889,
				"y": -3.8729325101,
				"z": -0.3181503912,
				"element": "C" 
			},
			{
				"x": 1.6334405397,
				"y": -3.3870379534,
				"z": -1.6034907593,
				"element": "C" 
			},
			{
				"x": 2.1388687673,
				"y": -1.9287635041,
				"z": -1.4265057662,
				"element": "C" 
			},
			{
				"x": 1.4052206941,
				"y": -1.1645924828,
				"z": -0.3974904879,
				"element": "N" 
			},
			{
				"x": -0.0924323007,
				"y": 1.2234041227,
				"z": 3.2871423504,
				"element": "H" 
			},
			{
				"x": -1.7290270095,
				"y": 0.63562469,
				"z": 2.9239937698,
				"element": "H" 
			},
			{
				"x": -1.4701065122,
				"y": 2.3392611641,
				"z": 3.3640927323,
				"element": "H" 
			},
			{
				"x": 1.1216937325,
				"y": 2.7223861329,
				"z": 1.6367782283,
				"element": "H" 
			},
			{
				"x": 0.3119501722,
				"y": 3.2486747522,
				"z": 0.1441137107,
				"element": "H" 
			},
			{
				"x": -0.2165594687,
				"y": 3.8790084268,
				"z": 1.7120299082,
				"element": "H" 
			},
			{
				"x": -2.6290461415,
				"y": 3.0915506027,
				"z": 1.2184032431,
				"element": "H" 
			},
			{
				"x": -2.9013571653,
				"y": 1.3967199374,
				"z": 0.7537451304,
				"element": "H" 
			},
			{
				"x": -2.0594202036,
				"y": 2.4999822974,
				"z": -0.3549735829,
				"element": "H" 
			},
			{
				"x": 0.6322541637,
				"y": 0.7724062458,
				"z": 0.1733067297,
				"element": "H" 
			},
			{
				"x": -0.38282174,
				"y": -1.363991915,
				"z": -1.4038710595,
				"element": "H" 
			},
			{
				"x": -0.523080681,
				"y": -3.0622074429,
				"z": 1.0826879622,
				"element": "H" 
			},
			{
				"x": -1.1636897782,
				"y": -3.363425327,
				"z": -0.5147585741,
				"element": "H" 
			},
			{
				"x": 0.6507393076,
				"y": -4.9225270861,
				"z": -0.4102259823,
				"element": "H" 
			},
			{
				"x": 1.672212235,
				"y": -3.8368311174,
				"z": 0.5079485081,
				"element": "H" 
			},
			{
				"x": 0.9143241794,
				"y": -3.4367545446,
				"z": -2.4310490682,
				"element": "H" 
			},
			{
				"x": 2.4668395154,
				"y": -4.0426165829,
				"z": -1.8795837188,
				"element": "H" 
			},
			{
				"x": 3.19657335,
				"y": -1.9211440307,
				"z": -1.1423497793,
				"element": "H" 
			},
			{
				"x": 2.0648823463,
				"y": -1.3870702991,
				"z": -2.3778516988,
				"element": "H" 
			},
			{
				"x": 1.798810661,
				"y": -1.383976027,
				"z": 0.5159515806,
				"element": "H" 
			}
		],
		 "valence_orbital": [ 
			{
				"type": "occ",
				"energy": -0.32044,
				"method": "rhf"
			},
			{
				"type": "occ",
				"energy": -0.3127,
				"method": "rhf"
			},
			{
				"type": "occ",
				"energy": -0.24238,
				"method": "rhf"
			},
			{
				"type": "occ",
				"energy": -0.2384,
				"method": "rhf"
			},
			{
				"type": "occ",
				"energy": -0.22501,
				"method": "rhf"
			},
			{
				"type": "unocc",
				"energy": 0.03333,
				"method": "rhf"
			},
			{
				"type": "unocc",
				"energy": 0.07265,
				"method": "rhf"
			},
			{
				"type": "unocc",
				"energy": 0.08876,
				"method": "rhf"
			},
			{
				"type": "unocc",
				"energy": 0.09739,
				"method": "rhf"
			},
			{
				"type": "unocc",
				"energy": 0.12483,
				"method": "rhf"
			}
		],
		"cosmo_sigma_profile": { 
			"-0.025": 0.0,
			"-0.024": 0.0,
			"-0.023": 0.0,
			"-0.022": 0.0,
			"-0.021": 0.0,
			"-0.02": 0.0,
			"-0.019": 0.0,
			"-0.018": 0.0,
			"-0.017": 0.0,
			"-0.016": 0.0,
			"-0.015": 0.0,
			"-0.014": 0.0,
			"-0.013": 0.0,
			"-0.012": 0.0,
			"-0.011": 0.00573980600124,
			"-0.01": 0.874979646242,
			"-0.009": 1.42991517739,
			"-0.008": 1.53685196213,
			"-0.007": 2.72060707845,
			"-0.006": 3.19942435127,
			"-0.005": 5.57239735594,
			"-0.004": 11.4498312999,
			"-0.003": 32.300051928,
			"-0.002": 37.5204027582,
			"-0.001": 34.8631418246,
			"0.0": 34.5871170298,
			"0.001": 32.721891367,
			"0.002": 14.4541692521,
			"0.003": 5.40827204467,
			"0.004": 3.98105005545,
			"0.005": 2.88663214917,
			"0.006": 2.7459237088,
			"0.007": 2.7574847173,
			"0.008": 2.46513954198,
			"0.009": 2.61773423888,
			"0.01": 1.47853930632,
			"0.011": 2.19672285451,
			"0.012": 1.65294231565,
			"0.013": 1.78406088233,
			"0.014": 3.04354705252,
			"0.015": 2.55214122732,
			"0.016": 0.263129766222,
			"0.017": 0.0,
			"0.018": 0.0,
			"0.019": 0.0,
			"0.02": 0.0,
			"0.021": 0.0,
			"0.022": 0.0,
			"0.023": 0.0,
			"0.024": 0.0,
			"0.025": 0.0
		}
	}
}
