{
	 "smiles": "NC1=C2C=CC=C3C4=C(C=CC=C4)C(C=C1)=C23", 
	 "Tm": 389.15, 
	 "num_atms": 28, 
	 "gaussian": { 
		 "optdone": 1, 
		 "sigma_profile": "yes", 
		 "theory": "DFT", 
		 "functional": "B3LYP", 
		 "basiset": "6-31G**", 
		 "properties": { 
			 "R2extent": 4153.7471, 
			 "electric_dipole_moment_norm": 2.6224115886, 
			 "electric_quadrupole_moment_norm": 17.2730329647, 
			 "total_energy": -671.110532252, 
			 "HOMO_LUMO_gap": 0.13177, 
			 "cosmo_polarized_energy": -11.65, 
			 "cosmo_cavitation_energy": 31.13, 
			 "cosmo_dispersion_energy": -23.25, 
			 "cosmo_repulsion_energy": 1.73, 
			 "cosmo_total_nonelectrostatic_energy": 9.61, 
			 "SMD_solvation_energy": 4.18 
		},
		"coords": [
			{
				"x": 0.704054886,
				"y": -2.1300000473,
				"z": 4.5903022234,
				"element": "N" 
			},
			{
				"x": 0.9411433518,
				"y": -1.6003282659,
				"z": 3.3265440429,
				"element": "C" 
			},
			{
				"x": -0.1616132403,
				"y": -1.1869124177,
				"z": 2.4979006883,
				"element": "C" 
			},
			{
				"x": -1.5489904992,
				"y": -1.2686611719,
				"z": 2.7975015324,
				"element": "C" 
			},
			{
				"x": -2.4906689086,
				"y": -0.8347822076,
				"z": 1.8763824218,
				"element": "C" 
			},
			{
				"x": -2.1258100061,
				"y": -0.2931979527,
				"z": 0.6157367916,
				"element": "C" 
			},
			{
				"x": -0.7849171298,
				"y": -0.1892613772,
				"z": 0.3009558864,
				"element": "C" 
			},
			{
				"x": -0.0190744473,
				"y": 0.3117543862,
				"z": -0.8540329345,
				"element": "C" 
			},
			{
				"x": 1.3714624952,
				"y": 0.1548813396,
				"z": -0.5637403507,
				"element": "C" 
			},
			{
				"x": 2.3266603282,
				"y": 0.5551773418,
				"z": -1.4954200713,
				"element": "C" 
			},
			{
				"x": 1.9032688004,
				"y": 1.1076233713,
				"z": -2.7098772279,
				"element": "C" 
			},
			{
				"x": 0.5419140783,
				"y": 1.2603010988,
				"z": -2.9933015924,
				"element": "C" 
			},
			{
				"x": -0.4276973673,
				"y": 0.8627615994,
				"z": -2.0652870379,
				"element": "C" 
			},
			{
				"x": 1.4933818059,
				"y": -0.4474090335,
				"z": 0.7729674008,
				"element": "C" 
			},
			{
				"x": 2.5323345779,
				"y": -0.8345395662,
				"z": 1.5977637147,
				"element": "C" 
			},
			{
				"x": 2.2433535401,
				"y": -1.4090790321,
				"z": 2.8583235709,
				"element": "C" 
			},
			{
				"x": 0.1728906678,
				"y": -0.6368450841,
				"z": 1.2501769228,
				"element": "C" 
			},
			{
				"x": 1.4892806578,
				"y": -2.6073780273,
				"z": 5.010671984,
				"element": "H" 
			},
			{
				"x": -0.156281847,
				"y": -2.6483734039,
				"z": 4.6968912399,
				"element": "H" 
			},
			{
				"x": -1.889170002,
				"y": -1.6494778287,
				"z": 3.7566925523,
				"element": "H" 
			},
			{
				"x": -3.544950173,
				"y": -0.9041416945,
				"z": 2.1289020837,
				"element": "H" 
			},
			{
				"x": -2.9018191056,
				"y": 0.0338083105,
				"z": -0.0711999071,
				"element": "H" 
			},
			{
				"x": 3.3874081876,
				"y": 0.442401873,
				"z": -1.2874708263,
				"element": "H" 
			},
			{
				"x": 2.6420544256,
				"y": 1.4219270885,
				"z": -3.4418405738,
				"element": "H" 
			},
			{
				"x": 0.2345223312,
				"y": 1.6913913027,
				"z": -3.94171159,
				"element": "H" 
			},
			{
				"x": -1.4837014314,
				"y": 0.9848590674,
				"z": -2.2919174589,
				"element": "H" 
			},
			{
				"x": 3.5716620308,
				"y": -0.7198624062,
				"z": 1.3007867025,
				"element": "H" 
			},
			{
				"x": 3.070801993,
				"y": -1.7211372622,
				"z": 3.4912998125,
				"element": "H" 
			}
		],
		 "valence_orbital": [ 
			{
				"type": "occ",
				"energy": -0.27539,
				"method": "rhf"
			},
			{
				"type": "occ",
				"energy": -0.24868,
				"method": "rhf"
			},
			{
				"type": "occ",
				"energy": -0.24195,
				"method": "rhf"
			},
			{
				"type": "occ",
				"energy": -0.2098,
				"method": "rhf"
			},
			{
				"type": "occ",
				"energy": -0.18706,
				"method": "rhf"
			},
			{
				"type": "unocc",
				"energy": -0.05529,
				"method": "rhf"
			},
			{
				"type": "unocc",
				"energy": -0.01215,
				"method": "rhf"
			},
			{
				"type": "unocc",
				"energy": 0.00625,
				"method": "rhf"
			},
			{
				"type": "unocc",
				"energy": 0.03349,
				"method": "rhf"
			},
			{
				"type": "unocc",
				"energy": 0.06768,
				"method": "rhf"
			}
		],
		"cosmo_sigma_profile": { 
			"-0.025": 0.0,
			"-0.024": 0.0,
			"-0.023": 0.0,
			"-0.022": 0.0,
			"-0.021": 0.0,
			"-0.02": 0.0,
			"-0.019": 0.0,
			"-0.018": 0.0,
			"-0.017": 0.0,
			"-0.016": 0.0,
			"-0.015": 0.0,
			"-0.014": 0.0,
			"-0.013": 1.50709969224,
			"-0.012": 3.22987022462,
			"-0.011": 2.73349794928,
			"-0.01": 3.07992331141,
			"-0.009": 3.08075416871,
			"-0.008": 2.46622252639,
			"-0.007": 3.49206023742,
			"-0.006": 10.441380626,
			"-0.005": 20.0676923076,
			"-0.004": 18.5921047119,
			"-0.003": 18.4479239554,
			"-0.002": 13.6252355349,
			"-0.001": 12.0059368347,
			"0.0": 11.838593863,
			"0.001": 10.8447825769,
			"0.002": 14.1784561498,
			"0.003": 16.4734597662,
			"0.004": 31.5654056623,
			"0.005": 31.9609277687,
			"0.006": 13.5635019601,
			"0.007": 2.96171949942,
			"0.008": 0.771143347599,
			"0.009": 0.742046822637,
			"0.01": 0.829552710074,
			"0.011": 0.451791448854,
			"0.012": 0.682071868861,
			"0.013": 0.51428638143,
			"0.014": 0.0638648116766,
			"0.015": 0.0,
			"0.016": 0.0,
			"0.017": 0.0,
			"0.018": 0.0,
			"0.019": 0.0,
			"0.02": 0.0,
			"0.021": 0.0,
			"0.022": 0.0,
			"0.023": 0.0,
			"0.024": 0.0,
			"0.025": 0.0
		}
	}
}
