{
	 "smiles": "CCOC1=CC=C(C=C1)C1=NN=C2SC(NN12)C1=CC=CC=C1", 
	 "Tm": 391.15, 
	 "num_atms": 39, 
	 "gaussian": { 
		 "optdone": 1, 
		 "sigma_profile": "yes", 
		 "theory": "DFT", 
		 "functional": "B3LYP", 
		 "basiset": "6-31G**", 
		 "properties": { 
			 "R2extent": 12139.8796, 
			 "electric_dipole_moment_norm": 8.5613528341, 
			 "electric_quadrupole_moment_norm": 33.7800338068, 
			 "total_energy": -1349.79796422, 
			 "HOMO_LUMO_gap": 0.15848, 
			 "cosmo_polarized_energy": -21.69, 
			 "cosmo_cavitation_energy": 44.53, 
			 "cosmo_dispersion_energy": -32.51, 
			 "cosmo_repulsion_energy": 2.41, 
			 "cosmo_total_nonelectrostatic_energy": 14.44, 
			 "SMD_solvation_energy": 4.65 
		},
		"coords": [
			{
				"x": -5.6110109835,
				"y": -2.0197204526,
				"z": 1.3654867154,
				"element": "C" 
			},
			{
				"x": -5.5284773918,
				"y": -1.8196706788,
				"z": -0.1443880815,
				"element": "C" 
			},
			{
				"x": -5.4965622718,
				"y": -0.4381929306,
				"z": -0.5136478647,
				"element": "O" 
			},
			{
				"x": -4.3282938348,
				"y": 0.2604397502,
				"z": -0.4481837909,
				"element": "C" 
			},
			{
				"x": -4.4179015925,
				"y": 1.6166201472,
				"z": -0.8088321262,
				"element": "C" 
			},
			{
				"x": -3.2937010024,
				"y": 2.4233413987,
				"z": -0.795557503,
				"element": "C" 
			},
			{
				"x": -2.0383936264,
				"y": 1.9034136832,
				"z": -0.4206762964,
				"element": "C" 
			},
			{
				"x": -1.9555466354,
				"y": 0.5515448298,
				"z": -0.0635661008,
				"element": "C" 
			},
			{
				"x": -3.0863661196,
				"y": -0.2672689022,
				"z": -0.0732058466,
				"element": "C" 
			},
			{
				"x": -0.8814323252,
				"y": 2.7975039364,
				"z": -0.4330036881,
				"element": "C" 
			},
			{
				"x": -0.8811400625,
				"y": 4.0402824809,
				"z": -0.8879372863,
				"element": "N" 
			},
			{
				"x": 0.3922154179,
				"y": 4.5827105152,
				"z": -0.7595473589,
				"element": "N" 
			},
			{
				"x": 1.1260078802,
				"y": 3.6554079891,
				"z": -0.2071930853,
				"element": "C" 
			},
			{
				"x": 2.8018115717,
				"y": 3.4695042166,
				"z": 0.3025590477,
				"element": "S" 
			},
			{
				"x": 2.4534200689,
				"y": 1.5854504343,
				"z": 0.3478691981,
				"element": "C" 
			},
			{
				"x": 1.0257609332,
				"y": 1.4303157133,
				"z": 0.653534357,
				"element": "N" 
			},
			{
				"x": 0.3922302961,
				"y": 2.5163203979,
				"z": 0.0175414693,
				"element": "N" 
			},
			{
				"x": 3.3284661492,
				"y": 0.8304425029,
				"z": 1.3114742507,
				"element": "C" 
			},
			{
				"x": 3.9837905209,
				"y": -0.328994633,
				"z": 0.8787481335,
				"element": "C" 
			},
			{
				"x": 4.7654805196,
				"y": -1.0717364805,
				"z": 1.7639661393,
				"element": "C" 
			},
			{
				"x": 4.8977035839,
				"y": -0.6618714,
				"z": 3.091541175,
				"element": "C" 
			},
			{
				"x": 4.249712125,
				"y": 0.4951016979,
				"z": 3.5302182587,
				"element": "C" 
			},
			{
				"x": 3.471519391,
				"y": 1.2402353672,
				"z": 2.6451212002,
				"element": "C" 
			},
			{
				"x": -6.4869814834,
				"y": -1.5031333055,
				"z": 1.7678165557,
				"element": "H" 
			},
			{
				"x": -5.7022204653,
				"y": -3.0861110982,
				"z": 1.5978409772,
				"element": "H" 
			},
			{
				"x": -4.7240086525,
				"y": -1.6333405318,
				"z": 1.874672267,
				"element": "H" 
			},
			{
				"x": -4.6704561055,
				"y": -2.3493342246,
				"z": -0.5771677002,
				"element": "H" 
			},
			{
				"x": -6.4292515331,
				"y": -2.2084229902,
				"z": -0.6275537394,
				"element": "H" 
			},
			{
				"x": -5.3869820157,
				"y": 2.0095600728,
				"z": -1.0982118044,
				"element": "H" 
			},
			{
				"x": -3.3610299956,
				"y": 3.4684481788,
				"z": -1.0771662116,
				"element": "H" 
			},
			{
				"x": -0.9990633278,
				"y": 0.1246356615,
				"z": 0.218596895,
				"element": "H" 
			},
			{
				"x": -2.9817873615,
				"y": -1.3071125713,
				"z": 0.2120392699,
				"element": "H" 
			},
			{
				"x": 2.611633589,
				"y": 1.2441757698,
				"z": -0.677070858,
				"element": "H" 
			},
			{
				"x": 0.8866844956,
				"y": 1.5383163599,
				"z": 1.6619450103,
				"element": "H" 
			},
			{
				"x": 3.8783771933,
				"y": -0.6512117507,
				"z": -0.1536333956,
				"element": "H" 
			},
			{
				"x": 5.2707038381,
				"y": -1.9677533132,
				"z": 1.4161722739,
				"element": "H" 
			},
			{
				"x": 5.5079675713,
				"y": -1.237879848,
				"z": 3.7808822046,
				"element": "H" 
			},
			{
				"x": 4.357632702,
				"y": 0.8232616328,
				"z": 4.5596745035,
				"element": "H" 
			},
			{
				"x": 2.9929889391,
				"y": 2.1554223749,
				"z": 2.982442836,
				"element": "H" 
			}
		],
		 "valence_orbital": [ 
			{
				"type": "occ",
				"energy": -0.26689,
				"method": "rhf"
			},
			{
				"type": "occ",
				"energy": -0.25419,
				"method": "rhf"
			},
			{
				"type": "occ",
				"energy": -0.24661,
				"method": "rhf"
			},
			{
				"type": "occ",
				"energy": -0.24083,
				"method": "rhf"
			},
			{
				"type": "occ",
				"energy": -0.20145,
				"method": "rhf"
			},
			{
				"type": "unocc",
				"energy": -0.04297,
				"method": "rhf"
			},
			{
				"type": "unocc",
				"energy": -0.02744,
				"method": "rhf"
			},
			{
				"type": "unocc",
				"energy": -0.02104,
				"method": "rhf"
			},
			{
				"type": "unocc",
				"energy": -0.00418,
				"method": "rhf"
			},
			{
				"type": "unocc",
				"energy": -0.00143,
				"method": "rhf"
			}
		],
		"cosmo_sigma_profile": { 
			"-0.025": 0.0,
			"-0.024": 0.0,
			"-0.023": 0.0,
			"-0.022": 0.0,
			"-0.021": 0.0,
			"-0.02": 0.0,
			"-0.019": 0.0,
			"-0.018": 0.0,
			"-0.017": 0.0,
			"-0.016": 0.0,
			"-0.015": 0.12632992981,
			"-0.014": 1.1654684232,
			"-0.013": 1.36493596833,
			"-0.012": 1.86191416558,
			"-0.011": 1.72015053922,
			"-0.01": 1.15254533162,
			"-0.009": 2.10956849353,
			"-0.008": 5.37967076197,
			"-0.007": 7.30380008782,
			"-0.006": 19.6357660987,
			"-0.005": 25.1579113582,
			"-0.004": 29.2125871815,
			"-0.003": 28.019592113,
			"-0.002": 24.1948786234,
			"-0.001": 25.1363378229,
			"0.0": 28.0846772242,
			"0.001": 23.8390293199,
			"0.002": 25.9149598571,
			"0.003": 27.499728882,
			"0.004": 30.4894133581,
			"0.005": 13.4686162184,
			"0.006": 5.60292551345,
			"0.007": 3.34888528534,
			"0.008": 3.15016111708,
			"0.009": 3.68803165583,
			"0.01": 3.53804679773,
			"0.011": 2.85902047874,
			"0.012": 1.77612763155,
			"0.013": 3.57521972624,
			"0.014": 3.61758799839,
			"0.015": 2.63022637479,
			"0.016": 1.51080526799,
			"0.017": 0.278679170191,
			"0.018": 0.0,
			"0.019": 0.0,
			"0.02": 0.0,
			"0.021": 0.0,
			"0.022": 0.0,
			"0.023": 0.0,
			"0.024": 0.0,
			"0.025": 0.0
		}
	}
}
