{
	 "smiles": "NC(=O)C1=CC2=C(CCCC2)C=C1", 
	 "Tm": 414.15, 
	 "num_atms": 26, 
	 "gaussian": { 
		 "optdone": 1, 
		 "sigma_profile": "yes", 
		 "theory": "DFT", 
		 "functional": "B3LYP", 
		 "basiset": "6-31G**", 
		 "properties": { 
			 "R2extent": 3284.7977, 
			 "electric_dipole_moment_norm": 3.56894673118, 
			 "electric_quadrupole_moment_norm": 17.7564389974, 
			 "total_energy": -557.02118545, 
			 "HOMO_LUMO_gap": 0.20824, 
			 "cosmo_polarized_energy": -12.61, 
			 "cosmo_cavitation_energy": 28.01, 
			 "cosmo_dispersion_energy": -21.02, 
			 "cosmo_repulsion_energy": 1.67, 
			 "cosmo_total_nonelectrostatic_energy": 8.66, 
			 "SMD_solvation_energy": 4.61 
		},
		"coords": [
			{
				"x": -4.5072710337,
				"y": 0.870040696,
				"z": -0.1795385373,
				"element": "N" 
			},
			{
				"x": -3.4059693059,
				"y": 1.3093290639,
				"z": -0.8799685229,
				"element": "C" 
			},
			{
				"x": -3.447014559,
				"y": 2.3237921029,
				"z": -1.5664473001,
				"element": "O" 
			},
			{
				"x": -2.1704139536,
				"y": 0.4642552853,
				"z": -0.7728762478,
				"element": "C" 
			},
			{
				"x": -0.9605000507,
				"y": 1.0352897595,
				"z": -1.1744886752,
				"element": "C" 
			},
			{
				"x": 0.2465930823,
				"y": 0.3322361668,
				"z": -1.1086765193,
				"element": "C" 
			},
			{
				"x": 0.2398682069,
				"y": -0.9951524734,
				"z": -0.6381886064,
				"element": "C" 
			},
			{
				"x": 1.511578635,
				"y": -1.8235884477,
				"z": -0.5814625312,
				"element": "C" 
			},
			{
				"x": 2.7916335985,
				"y": -0.981274726,
				"z": -0.6524464673,
				"element": "C" 
			},
			{
				"x": 2.6903749068,
				"y": 0.0456877174,
				"z": -1.7856405238,
				"element": "C" 
			},
			{
				"x": 1.53755612,
				"y": 1.0216902035,
				"z": -1.5185020418,
				"element": "C" 
			},
			{
				"x": -0.9786148983,
				"y": -1.5715504066,
				"z": -0.2502293215,
				"element": "C" 
			},
			{
				"x": -2.1719135523,
				"y": -0.8608411096,
				"z": -0.3125038491,
				"element": "C" 
			},
			{
				"x": -5.2840762159,
				"y": 1.5150337361,
				"z": -0.1571746293,
				"element": "H" 
			},
			{
				"x": -4.3915202239,
				"y": 0.2711201279,
				"z": 0.6229402009,
				"element": "H" 
			},
			{
				"x": -0.9820710573,
				"y": 2.0554585671,
				"z": -1.5470213062,
				"element": "H" 
			},
			{
				"x": 1.5063008319,
				"y": -2.4413417201,
				"z": 0.3247615361,
				"element": "H" 
			},
			{
				"x": 1.5035622568,
				"y": -2.5307230611,
				"z": -1.424294192,
				"element": "H" 
			},
			{
				"x": 2.9434404463,
				"y": -0.4558314907,
				"z": 0.3001774318,
				"element": "H" 
			},
			{
				"x": 3.6591522772,
				"y": -1.6356286486,
				"z": -0.7933321544,
				"element": "H" 
			},
			{
				"x": 3.6291759348,
				"y": 0.5999107599,
				"z": -1.8952472408,
				"element": "H" 
			},
			{
				"x": 2.5204096674,
				"y": -0.4789347988,
				"z": -2.7356446637,
				"element": "H" 
			},
			{
				"x": 1.3519070717,
				"y": 1.6492469204,
				"z": -2.3979435597,
				"element": "H" 
			},
			{
				"x": 1.834957301,
				"y": 1.7125962491,
				"z": -0.7158559779,
				"element": "H" 
			},
			{
				"x": -0.9868370561,
				"y": -2.6017453462,
				"z": 0.0988525308,
				"element": "H" 
			},
			{
				"x": -3.10060843,
				"y": -1.352475127,
				"z": -0.0374488318,
				"element": "H" 
			}
		],
		 "valence_orbital": [ 
			{
				"type": "occ",
				"energy": -0.31321,
				"method": "rhf"
			},
			{
				"type": "occ",
				"energy": -0.26696,
				"method": "rhf"
			},
			{
				"type": "occ",
				"energy": -0.24821,
				"method": "rhf"
			},
			{
				"type": "occ",
				"energy": -0.24153,
				"method": "rhf"
			},
			{
				"type": "occ",
				"energy": -0.23778,
				"method": "rhf"
			},
			{
				"type": "unocc",
				"energy": -0.02954,
				"method": "rhf"
			},
			{
				"type": "unocc",
				"energy": -0.00478,
				"method": "rhf"
			},
			{
				"type": "unocc",
				"energy": 0.06111,
				"method": "rhf"
			},
			{
				"type": "unocc",
				"energy": 0.08247,
				"method": "rhf"
			},
			{
				"type": "unocc",
				"energy": 0.09291,
				"method": "rhf"
			}
		],
		"cosmo_sigma_profile": { 
			"-0.025": 0.0,
			"-0.024": 0.0,
			"-0.023": 0.0,
			"-0.022": 0.0,
			"-0.021": 0.0,
			"-0.02": 0.0,
			"-0.019": 0.0,
			"-0.018": 0.0,
			"-0.017": 0.0,
			"-0.016": 0.0,
			"-0.015": 0.000386344628579,
			"-0.014": 0.786944940528,
			"-0.013": 2.34164567301,
			"-0.012": 2.39176097382,
			"-0.011": 2.2872281273,
			"-0.01": 2.82420105459,
			"-0.009": 2.25406272892,
			"-0.008": 2.32308173751,
			"-0.007": 2.40851764654,
			"-0.006": 2.79386581198,
			"-0.005": 5.07957461245,
			"-0.004": 10.9979785678,
			"-0.003": 21.8281779625,
			"-0.002": 27.9722919616,
			"-0.001": 29.6757135153,
			"0.0": 24.3675745692,
			"0.001": 16.5619235751,
			"0.002": 8.13151069736,
			"0.003": 8.41323334125,
			"0.004": 10.1946076851,
			"0.005": 11.7457989646,
			"0.006": 3.84230363401,
			"0.007": 2.36377824261,
			"0.008": 1.94139963272,
			"0.009": 2.14040875079,
			"0.01": 1.21554812498,
			"0.011": 1.78668314201,
			"0.012": 1.69417684611,
			"0.013": 3.69250658577,
			"0.014": 5.23072777365,
			"0.015": 0.615670614272,
			"0.016": 0.0,
			"0.017": 0.0,
			"0.018": 0.0,
			"0.019": 0.0,
			"0.02": 0.0,
			"0.021": 0.0,
			"0.022": 0.0,
			"0.023": 0.0,
			"0.024": 0.0,
			"0.025": 0.0
		}
	}
}
