{
	 "smiles": "CN1C(C)=CC=C1C(O)=O", 
	 "Tm": 423.15, 
	 "num_atms": 19, 
	 "gaussian": { 
		 "optdone": 1, 
		 "sigma_profile": "yes", 
		 "theory": "DFT", 
		 "functional": "B3LYP", 
		 "basiset": "6-31G**", 
		 "properties": { 
			 "R2extent": 2480.6458, 
			 "electric_dipole_moment_norm": 1.97053781491, 
			 "electric_quadrupole_moment_norm": 12.3177267927, 
			 "total_energy": -477.385611149, 
			 "HOMO_LUMO_gap": 0.19208, 
			 "cosmo_polarized_energy": -9.64, 
			 "cosmo_cavitation_energy": 22.61, 
			 "cosmo_dispersion_energy": -16.67, 
			 "cosmo_repulsion_energy": 1.35, 
			 "cosmo_total_nonelectrostatic_energy": 7.29, 
			 "SMD_solvation_energy": 5.18 
		},
		"coords": [
			{
				"x": -0.3177865773,
				"y": -2.9902738854,
				"z": -2.4352410656,
				"element": "C" 
			},
			{
				"x": -0.5679262254,
				"y": -1.9672734529,
				"z": -1.4247332886,
				"element": "N" 
			},
			{
				"x": -1.2657980911,
				"y": -2.1515900171,
				"z": -0.2586894535,
				"element": "C" 
			},
			{
				"x": -1.8763371357,
				"y": -3.4591406861,
				"z": 0.137342975,
				"element": "C" 
			},
			{
				"x": -1.2845222171,
				"y": -0.9435107052,
				"z": 0.4326574878,
				"element": "C" 
			},
			{
				"x": -0.5792253292,
				"y": 0.0004850868,
				"z": -0.3334539627,
				"element": "C" 
			},
			{
				"x": -0.1384793911,
				"y": -0.6441085747,
				"z": -1.4841559559,
				"element": "C" 
			},
			{
				"x": 0.6322951135,
				"y": -0.1173403191,
				"z": -2.5957752846,
				"element": "C" 
			},
			{
				"x": 0.9352553829,
				"y": 1.1993273266,
				"z": -2.427196051,
				"element": "O" 
			},
			{
				"x": 0.995159061,
				"y": -0.734170223,
				"z": -3.5876752967,
				"element": "O" 
			},
			{
				"x": 0.7543465329,
				"y": -3.139506804,
				"z": -2.5746074576,
				"element": "H" 
			},
			{
				"x": -0.7389329227,
				"y": -2.6923312501,
				"z": -3.3970354917,
				"element": "H" 
			},
			{
				"x": -0.7764657058,
				"y": -3.923614139,
				"z": -2.1099877378,
				"element": "H" 
			},
			{
				"x": -2.3737304316,
				"y": -3.3441828912,
				"z": 1.1029463882,
				"element": "H" 
			},
			{
				"x": -1.1299117681,
				"y": -4.2557422368,
				"z": 0.2434856261,
				"element": "H" 
			},
			{
				"x": -2.6282658289,
				"y": -3.8060442464,
				"z": -0.5818619006,
				"element": "H" 
			},
			{
				"x": -1.7636971109,
				"y": -0.7842874391,
				"z": 1.3887274465,
				"element": "H" 
			},
			{
				"x": -0.3959534966,
				"y": 1.039033584,
				"z": -0.1008324017,
				"element": "H" 
			},
			{
				"x": 1.4445761411,
				"y": 1.4444708725,
				"z": -3.2164145758,
				"element": "H" 
			}
		],
		 "valence_orbital": [ 
			{
				"type": "occ",
				"energy": -0.36343,
				"method": "rhf"
			},
			{
				"type": "occ",
				"energy": -0.30567,
				"method": "rhf"
			},
			{
				"type": "occ",
				"energy": -0.26566,
				"method": "rhf"
			},
			{
				"type": "occ",
				"energy": -0.24081,
				"method": "rhf"
			},
			{
				"type": "occ",
				"energy": -0.21343,
				"method": "rhf"
			},
			{
				"type": "unocc",
				"energy": -0.02135,
				"method": "rhf"
			},
			{
				"type": "unocc",
				"energy": 0.0632,
				"method": "rhf"
			},
			{
				"type": "unocc",
				"energy": 0.0902,
				"method": "rhf"
			},
			{
				"type": "unocc",
				"energy": 0.09147,
				"method": "rhf"
			},
			{
				"type": "unocc",
				"energy": 0.11711,
				"method": "rhf"
			}
		],
		"cosmo_sigma_profile": { 
			"-0.025": 0.0,
			"-0.024": 0.0,
			"-0.023": 0.0,
			"-0.022": 0.0,
			"-0.021": 0.0,
			"-0.02": 0.0,
			"-0.019": 0.0,
			"-0.018": 0.158809555036,
			"-0.017": 0.989402301179,
			"-0.016": 0.843779083268,
			"-0.015": 0.569391339754,
			"-0.014": 0.945407808276,
			"-0.013": 0.544330908773,
			"-0.012": 0.408343018734,
			"-0.011": 0.868117068709,
			"-0.01": 0.803033345844,
			"-0.009": 0.595085386818,
			"-0.008": 0.392444012498,
			"-0.007": 0.417904353504,
			"-0.006": 6.05249424532,
			"-0.005": 17.3000873911,
			"-0.004": 16.0240857897,
			"-0.003": 15.3814667891,
			"-0.002": 17.0880119111,
			"-0.001": 15.773432014,
			"0.0": 11.7075341793,
			"0.001": 8.39292185502,
			"0.002": 8.76006527854,
			"0.003": 8.2928924503,
			"0.004": 9.99797192298,
			"0.005": 7.90888845047,
			"0.006": 7.68669874842,
			"0.007": 5.51133406133,
			"0.008": 2.81514446034,
			"0.009": 3.18362183724,
			"0.01": 1.46676158831,
			"0.011": 2.24315547437,
			"0.012": 3.44305965904,
			"0.013": 2.38076846392,
			"0.014": 0.0321005987796,
			"0.015": 0.0,
			"0.016": 0.0,
			"0.017": 0.0,
			"0.018": 0.0,
			"0.019": 0.0,
			"0.02": 0.0,
			"0.021": 0.0,
			"0.022": 0.0,
			"0.023": 0.0,
			"0.024": 0.0,
			"0.025": 0.0
		}
	}
}
