{
	 "smiles": "FC1=CC(Br)=C(CBr)C=C1", 
	 "Tm": 325.15, 
	 "num_atms": 15, 
	 "gaussian": { 
		 "optdone": 1, 
		 "sigma_profile": "yes", 
		 "theory": "DFT", 
		 "functional": "B3LYP", 
		 "basiset": "6-31G**", 
		 "properties": { 
			 "R2extent": 3357.8492, 
			 "electric_dipole_moment_norm": 2.24141813591, 
			 "electric_quadrupole_moment_norm": 8.53443909991, 
			 "total_energy": -5512.40327986, 
			 "HOMO_LUMO_gap": 0.20561, 
			 "cosmo_polarized_energy": -6.29, 
			 "cosmo_cavitation_energy": 24.21, 
			 "cosmo_dispersion_energy": -18.15, 
			 "cosmo_repulsion_energy": 1.45, 
			 "cosmo_total_nonelectrostatic_energy": 7.51, 
			 "SMD_solvation_energy": 2.38 
		},
		"coords": [
			{
				"x": 0.9745451659,
				"y": 1.6213976323,
				"z": -3.6438183521,
				"element": "F" 
			},
			{
				"x": 0.7815138254,
				"y": 1.0941168938,
				"z": -2.421703301,
				"element": "C" 
			},
			{
				"x": -0.5210677272,
				"y": 0.8877752353,
				"z": -1.9840662674,
				"element": "C" 
			},
			{
				"x": -0.7159972577,
				"y": 0.3406481486,
				"z": -0.7177579043,
				"element": "C" 
			},
			{
				"x": -2.5197383129,
				"y": 0.0745083743,
				"z": -0.1470396245,
				"element": "Br" 
			},
			{
				"x": 0.3615795485,
				"y": -0.0070693802,
				"z": 0.1143030247,
				"element": "C" 
			},
			{
				"x": 0.1887738479,
				"y": -0.6083601217,
				"z": 1.4682204628,
				"element": "C" 
			},
			{
				"x": 0.0497352264,
				"y": 0.7830947452,
				"z": 2.9048357023,
				"element": "Br" 
			},
			{
				"x": 1.6561053257,
				"y": 0.2242851668,
				"z": -0.3795535711,
				"element": "C" 
			},
			{
				"x": 1.8834218955,
				"y": 0.770486932,
				"z": -1.6381770323,
				"element": "C" 
			},
			{
				"x": -1.3558896928,
				"y": 1.1500584466,
				"z": -2.6216053972,
				"element": "H" 
			},
			{
				"x": 1.0492182608,
				"y": -1.2074923332,
				"z": 1.7581862291,
				"element": "H" 
			},
			{
				"x": -0.7268865876,
				"y": -1.1858758155,
				"z": 1.5631997539,
				"element": "H" 
			},
			{
				"x": 2.5041427986,
				"y": -0.029238266,
				"z": 0.2500854053,
				"element": "H" 
			},
			{
				"x": 2.8849436836,
				"y": 0.9451643416,
				"z": -2.0142091281,
				"element": "H" 
			}
		],
		 "valence_orbital": [ 
			{
				"type": "occ",
				"energy": -0.3002,
				"method": "rhf"
			},
			{
				"type": "occ",
				"energy": -0.27801,
				"method": "rhf"
			},
			{
				"type": "occ",
				"energy": -0.2722,
				"method": "rhf"
			},
			{
				"type": "occ",
				"energy": -0.26635,
				"method": "rhf"
			},
			{
				"type": "occ",
				"energy": -0.25255,
				"method": "rhf"
			},
			{
				"type": "unocc",
				"energy": -0.04694,
				"method": "rhf"
			},
			{
				"type": "unocc",
				"energy": -0.03249,
				"method": "rhf"
			},
			{
				"type": "unocc",
				"energy": -0.00647,
				"method": "rhf"
			},
			{
				"type": "unocc",
				"energy": 0.02225,
				"method": "rhf"
			},
			{
				"type": "unocc",
				"energy": 0.08768,
				"method": "rhf"
			}
		],
		"cosmo_sigma_profile": { 
			"-0.025": 0.0,
			"-0.024": 0.0,
			"-0.023": 0.0,
			"-0.022": 0.0,
			"-0.021": 0.0,
			"-0.02": 0.0,
			"-0.019": 0.0,
			"-0.018": 0.0,
			"-0.017": 0.0,
			"-0.016": 0.0,
			"-0.015": 0.0,
			"-0.014": 0.0,
			"-0.013": 0.0,
			"-0.012": 0.0,
			"-0.011": 0.0,
			"-0.01": 0.0,
			"-0.009": 1.69052254105,
			"-0.008": 7.34542264494,
			"-0.007": 8.21998345177,
			"-0.006": 8.29958995187,
			"-0.005": 9.41878888866,
			"-0.004": 10.6211362703,
			"-0.003": 8.26710120099,
			"-0.002": 9.93754970587,
			"-0.001": 14.1961779467,
			"0.0": 18.4150258678,
			"0.001": 23.5238073956,
			"0.002": 18.6816352263,
			"0.003": 19.6496375658,
			"0.004": 20.1361400687,
			"0.005": 8.89659017399,
			"0.006": 11.6218122753,
			"0.007": 1.94665606342,
			"0.008": 0.0,
			"0.009": 0.0,
			"0.01": 0.0,
			"0.011": 0.0,
			"0.012": 0.0,
			"0.013": 0.0,
			"0.014": 0.0,
			"0.015": 0.0,
			"0.016": 0.0,
			"0.017": 0.0,
			"0.018": 0.0,
			"0.019": 0.0,
			"0.02": 0.0,
			"0.021": 0.0,
			"0.022": 0.0,
			"0.023": 0.0,
			"0.024": 0.0,
			"0.025": 0.0
		}
	}
}
