{
	 "smiles": "CC(C)(C)N1N=C(C=C1N)C(C)(C)C", 
	 "Tm": 343.15, 
	 "num_atms": 35, 
	 "gaussian": { 
		 "optdone": 1, 
		 "sigma_profile": "yes", 
		 "theory": "DFT", 
		 "functional": "B3LYP", 
		 "basiset": "6-31G**", 
		 "properties": { 
			 "R2extent": 3703.3161, 
			 "electric_dipole_moment_norm": 2.76748249136, 
			 "electric_quadrupole_moment_norm": 3.95897709011, 
			 "total_energy": -596.087875677, 
			 "HOMO_LUMO_gap": 0.24035, 
			 "cosmo_polarized_energy": -9.69, 
			 "cosmo_cavitation_energy": 34.72, 
			 "cosmo_dispersion_energy": -23.67, 
			 "cosmo_repulsion_energy": 1.87, 
			 "cosmo_total_nonelectrostatic_energy": 12.93, 
			 "SMD_solvation_energy": 5.91 
		},
		"coords": [
			{
				"x": -0.8989187998,
				"y": -3.2993700631,
				"z": 0.5178914022,
				"element": "C" 
			},
			{
				"x": -0.8530726175,
				"y": -2.3492843479,
				"z": -0.6884061692,
				"element": "C" 
			},
			{
				"x": -0.1837115379,
				"y": -3.0542488004,
				"z": -1.8840876904,
				"element": "C" 
			},
			{
				"x": -2.2924216457,
				"y": -1.9240622875,
				"z": -1.0407192253,
				"element": "C" 
			},
			{
				"x": -0.0453545703,
				"y": -1.1496344153,
				"z": -0.3259944323,
				"element": "N" 
			},
			{
				"x": 0.6212770715,
				"y": -1.1150653462,
				"z": 0.8610964512,
				"element": "N" 
			},
			{
				"x": 1.3275928656,
				"y": 0.0153192077,
				"z": 0.8583127319,
				"element": "C" 
			},
			{
				"x": 1.1113255034,
				"y": 0.7374509434,
				"z": -0.337262131,
				"element": "C" 
			},
			{
				"x": 0.2268153363,
				"y": -0.0354918123,
				"z": -1.0731061072,
				"element": "C" 
			},
			{
				"x": -0.2859304024,
				"y": 0.1589723095,
				"z": -2.3737719468,
				"element": "N" 
			},
			{
				"x": 2.1976581805,
				"y": 0.3673549042,
				"z": 2.0569564173,
				"element": "C" 
			},
			{
				"x": 1.3080861798,
				"y": 0.4836074086,
				"z": 3.3149539111,
				"element": "C" 
			},
			{
				"x": 2.9228341726,
				"y": 1.7038923674,
				"z": 1.8190594843,
				"element": "C" 
			},
			{
				"x": 3.2422081945,
				"y": -0.7503927443,
				"z": 2.2733259495,
				"element": "C" 
			},
			{
				"x": 0.1012573532,
				"y": -3.6194628093,
				"z": 0.8117964953,
				"element": "H" 
			},
			{
				"x": -1.487199635,
				"y": -4.1797866643,
				"z": 0.2404112097,
				"element": "H" 
			},
			{
				"x": -1.3641710016,
				"y": -2.8234519698,
				"z": 1.3839398656,
				"element": "H" 
			},
			{
				"x": -0.1154445481,
				"y": -2.3843497376,
				"z": -2.7438544888,
				"element": "H" 
			},
			{
				"x": -0.7654546256,
				"y": -3.9365845106,
				"z": -2.1710461301,
				"element": "H" 
			},
			{
				"x": 0.8246780113,
				"y": -3.3813285733,
				"z": -1.6133511413,
				"element": "H" 
			},
			{
				"x": -2.9152424309,
				"y": -2.8140833868,
				"z": -1.1744037058,
				"element": "H" 
			},
			{
				"x": -2.7274798127,
				"y": -1.3228577838,
				"z": -0.2363808691,
				"element": "H" 
			},
			{
				"x": -2.3364842015,
				"y": -1.358067907,
				"z": -1.9739964846,
				"element": "H" 
			},
			{
				"x": 1.5187995541,
				"y": 1.6936939781,
				"z": -0.6307300079,
				"element": "H" 
			},
			{
				"x": 0.2277679414,
				"y": 0.8991702073,
				"z": -2.8388641951,
				"element": "H" 
			},
			{
				"x": -1.2699737458,
				"y": 0.4121677728,
				"z": -2.3719499478,
				"element": "H" 
			},
			{
				"x": 1.9161382629,
				"y": 0.7070827427,
				"z": 4.1995111827,
				"element": "H" 
			},
			{
				"x": 0.7677606097,
				"y": -0.4503739879,
				"z": 3.4901814723,
				"element": "H" 
			},
			{
				"x": 0.5687500813,
				"y": 1.2837028387,
				"z": 3.1996152595,
				"element": "H" 
			},
			{
				"x": 3.5696312394,
				"y": 1.6571917043,
				"z": 0.9361875376,
				"element": "H" 
			},
			{
				"x": 3.5517161207,
				"y": 1.9516973984,
				"z": 2.6807976164,
				"element": "H" 
			},
			{
				"x": 2.2126836233,
				"y": 2.5259782293,
				"z": 1.6776277655,
				"element": "H" 
			},
			{
				"x": 3.9021098434,
				"y": -0.8435776863,
				"z": 1.4039804978,
				"element": "H" 
			},
			{
				"x": 3.8633154882,
				"y": -0.5347099728,
				"z": 3.1507060221,
				"element": "H" 
			},
			{
				"x": 2.7479539417,
				"y": -1.7135972057,
				"z": 2.424573401,
				"element": "H" 
			}
		],
		 "valence_orbital": [ 
			{
				"type": "occ",
				"energy": -0.31446,
				"method": "rhf"
			},
			{
				"type": "occ",
				"energy": -0.29287,
				"method": "rhf"
			},
			{
				"type": "occ",
				"energy": -0.25922,
				"method": "rhf"
			},
			{
				"type": "occ",
				"energy": -0.22547,
				"method": "rhf"
			},
			{
				"type": "occ",
				"energy": -0.20417,
				"method": "rhf"
			},
			{
				"type": "unocc",
				"energy": 0.03618,
				"method": "rhf"
			},
			{
				"type": "unocc",
				"energy": 0.06912,
				"method": "rhf"
			},
			{
				"type": "unocc",
				"energy": 0.08491,
				"method": "rhf"
			},
			{
				"type": "unocc",
				"energy": 0.09776,
				"method": "rhf"
			},
			{
				"type": "unocc",
				"energy": 0.105,
				"method": "rhf"
			}
		],
		"cosmo_sigma_profile": { 
			"-0.025": 0.0,
			"-0.024": 0.0,
			"-0.023": 0.0,
			"-0.022": 0.0,
			"-0.021": 0.0,
			"-0.02": 0.0,
			"-0.019": 0.0,
			"-0.018": 0.0,
			"-0.017": 0.0,
			"-0.016": 0.0,
			"-0.015": 0.0,
			"-0.014": 0.0,
			"-0.013": 0.0310185921527,
			"-0.012": 1.881071246,
			"-0.011": 2.77973791752,
			"-0.01": 3.18819840281,
			"-0.009": 2.38600943969,
			"-0.008": 2.34726492252,
			"-0.007": 3.04805321826,
			"-0.006": 2.42071899321,
			"-0.005": 4.46480339166,
			"-0.004": 7.61591291161,
			"-0.003": 20.0824926446,
			"-0.002": 35.3795114666,
			"-0.001": 35.6257625006,
			"0.0": 35.9517174415,
			"0.001": 40.0553698349,
			"0.002": 22.4367864711,
			"0.003": 6.79065506773,
			"0.004": 6.8236890283,
			"0.005": 7.25738090611,
			"0.006": 7.73066661906,
			"0.007": 6.82347537235,
			"0.008": 4.24222115301,
			"0.009": 3.06064707889,
			"0.01": 3.15812970061,
			"0.011": 1.58510495573,
			"0.012": 0.463399086929,
			"0.013": 0.461970390364,
			"0.014": 0.0341514772599,
			"0.015": 0.0,
			"0.016": 0.0,
			"0.017": 0.0,
			"0.018": 0.0,
			"0.019": 0.0,
			"0.02": 0.0,
			"0.021": 0.0,
			"0.022": 0.0,
			"0.023": 0.0,
			"0.024": 0.0,
			"0.025": 0.0
		}
	}
}
