{
	 "smiles": "CC(=O)N1CCSC1C(=O)NN", 
	 "Tm": 467.15, 
	 "num_atms": 23, 
	 "gaussian": { 
		 "optdone": 1, 
		 "sigma_profile": "yes", 
		 "theory": "DFT", 
		 "functional": "B3LYP", 
		 "basiset": "6-31G**", 
		 "properties": { 
			 "R2extent": 2577.95, 
			 "electric_dipole_moment_norm": 5.91695794645, 
			 "electric_quadrupole_moment_norm": 10.8681937234, 
			 "total_energy": -948.143230785, 
			 "HOMO_LUMO_gap": 0.22584, 
			 "cosmo_polarized_energy": -21.81, 
			 "cosmo_cavitation_energy": 27.73, 
			 "cosmo_dispersion_energy": -19.93, 
			 "cosmo_repulsion_energy": 1.57, 
			 "cosmo_total_nonelectrostatic_energy": 9.37, 
			 "SMD_solvation_energy": 5.85 
		},
		"coords": [
			{
				"x": -1.1677515875,
				"y": -1.8261912985,
				"z": -1.8772148721,
				"element": "C" 
			},
			{
				"x": -0.4416301534,
				"y": -1.2921162691,
				"z": -0.6548376622,
				"element": "C" 
			},
			{
				"x": 0.6810588743,
				"y": -1.6638496984,
				"z": -0.3412616505,
				"element": "O" 
			},
			{
				"x": -1.1034371522,
				"y": -0.3300815062,
				"z": 0.091530335,
				"element": "N" 
			},
			{
				"x": -2.5218690711,
				"y": 0.0212303575,
				"z": -0.0825565782,
				"element": "C" 
			},
			{
				"x": -2.8106936144,
				"y": 1.1411959999,
				"z": 0.9130982147,
				"element": "C" 
			},
			{
				"x": -1.8910603078,
				"y": 0.6591386428,
				"z": 2.4245489115,
				"element": "S" 
			},
			{
				"x": -0.5005184444,
				"y": 0.0434653434,
				"z": 1.3785595103,
				"element": "C" 
			},
			{
				"x": 0.6178190142,
				"y": 1.0942091478,
				"z": 1.2951884967,
				"element": "C" 
			},
			{
				"x": 1.3952305695,
				"y": 1.2582125205,
				"z": 2.2226216544,
				"element": "O" 
			},
			{
				"x": 0.6395360085,
				"y": 1.856485535,
				"z": 0.1592915235,
				"element": "N" 
			},
			{
				"x": 1.7012770641,
				"y": 2.7575490224,
				"z": -0.0756576166,
				"element": "N" 
			},
			{
				"x": -2.1113154555,
				"y": -2.3103741755,
				"z": -1.6033579738,
				"element": "H" 
			},
			{
				"x": -0.5174604023,
				"y": -2.5548707899,
				"z": -2.3600013778,
				"element": "H" 
			},
			{
				"x": -1.4018062869,
				"y": -1.026358719,
				"z": -2.5879331673,
				"element": "H" 
			},
			{
				"x": -3.1672248181,
				"y": -0.8422383333,
				"z": 0.1247300626,
				"element": "H" 
			},
			{
				"x": -2.7109147791,
				"y": 0.3522577701,
				"z": -1.1093195686,
				"element": "H" 
			},
			{
				"x": -3.8739329841,
				"y": 1.2181446297,
				"z": 1.1474117416,
				"element": "H" 
			},
			{
				"x": -2.4515326542,
				"y": 2.1067401181,
				"z": 0.5462880652,
				"element": "H" 
			},
			{
				"x": -0.0587859096,
				"y": -0.8288774773,
				"z": 1.8635626695,
				"element": "H" 
			},
			{
				"x": 0.1928176146,
				"y": 1.503783479,
				"z": -0.6738957844,
				"element": "H" 
			},
			{
				"x": 2.5499277079,
				"y": 2.3196294418,
				"z": 0.2872583901,
				"element": "H" 
			},
			{
				"x": 1.5436667676,
				"y": 3.5661162589,
				"z": 0.5247466763,
				"element": "H" 
			}
		],
		 "valence_orbital": [ 
			{
				"type": "occ",
				"energy": -0.27986,
				"method": "rhf"
			},
			{
				"type": "occ",
				"energy": -0.26386,
				"method": "rhf"
			},
			{
				"type": "occ",
				"energy": -0.26065,
				"method": "rhf"
			},
			{
				"type": "occ",
				"energy": -0.25089,
				"method": "rhf"
			},
			{
				"type": "occ",
				"energy": -0.23602,
				"method": "rhf"
			},
			{
				"type": "unocc",
				"energy": -0.01018,
				"method": "rhf"
			},
			{
				"type": "unocc",
				"energy": 0.00702,
				"method": "rhf"
			},
			{
				"type": "unocc",
				"energy": 0.0313,
				"method": "rhf"
			},
			{
				"type": "unocc",
				"energy": 0.05168,
				"method": "rhf"
			},
			{
				"type": "unocc",
				"energy": 0.08148,
				"method": "rhf"
			}
		],
		"cosmo_sigma_profile": { 
			"-0.025": 0.0,
			"-0.024": 0.0,
			"-0.023": 0.0,
			"-0.022": 0.0,
			"-0.021": 0.0,
			"-0.02": 0.0,
			"-0.019": 0.0,
			"-0.018": 0.0,
			"-0.017": 0.0,
			"-0.016": 0.0,
			"-0.015": 0.0,
			"-0.014": 0.0,
			"-0.013": 0.552862810145,
			"-0.012": 1.18324761354,
			"-0.011": 2.53256535147,
			"-0.01": 3.9708090678,
			"-0.009": 3.77290097158,
			"-0.008": 5.71030070065,
			"-0.007": 14.2062456449,
			"-0.006": 18.7074963554,
			"-0.005": 19.4648246386,
			"-0.004": 15.9873690985,
			"-0.003": 14.7808833175,
			"-0.002": 12.9787911702,
			"-0.001": 12.1625456323,
			"0.0": 7.74353807592,
			"0.001": 6.74575084185,
			"0.002": 8.11868672324,
			"0.003": 6.9732063805,
			"0.004": 7.1266281377,
			"0.005": 5.24662769682,
			"0.006": 6.54105458074,
			"0.007": 5.48054273506,
			"0.008": 6.830356135,
			"0.009": 3.88243749637,
			"0.01": 3.88002228595,
			"0.011": 3.6286847616,
			"0.012": 5.34796642109,
			"0.013": 9.8852481403,
			"0.014": 4.46451510578,
			"0.015": 0.819574633477,
			"0.016": 0.506515857983,
			"0.017": 0.166216245155,
			"0.018": 0.0,
			"0.019": 0.0,
			"0.02": 0.0,
			"0.021": 0.0,
			"0.022": 0.0,
			"0.023": 0.0,
			"0.024": 0.0,
			"0.025": 0.0
		}
	}
}
