{
	 "smiles": "NC1=C(F)C(=CC(F)=N1)C(F)(F)F", 
	 "Tm": 340.15, 
	 "num_atms": 16, 
	 "gaussian": { 
		 "optdone": 1, 
		 "sigma_profile": "yes", 
		 "theory": "DFT", 
		 "functional": "B3LYP", 
		 "basiset": "6-31G**", 
		 "properties": { 
			 "R2extent": 2756.7839, 
			 "electric_dipole_moment_norm": 2.34101321227, 
			 "electric_quadrupole_moment_norm": 11.7721168058, 
			 "total_energy": -839.148946063, 
			 "HOMO_LUMO_gap": 0.18417, 
			 "cosmo_polarized_energy": -7.78, 
			 "cosmo_cavitation_energy": 23.25, 
			 "cosmo_dispersion_energy": -16.64, 
			 "cosmo_repulsion_energy": 1.23, 
			 "cosmo_total_nonelectrostatic_energy": 7.84, 
			 "SMD_solvation_energy": 4.59 
		},
		"coords": [
			{
				"x": -0.5831325878,
				"y": -1.7895592349,
				"z": 2.4506386589,
				"element": "N" 
			},
			{
				"x": -0.6288961246,
				"y": -1.0790936054,
				"z": 1.2836308027,
				"element": "C" 
			},
			{
				"x": -0.1756579009,
				"y": -1.6513523442,
				"z": 0.0794101332,
				"element": "C" 
			},
			{
				"x": 0.3541562472,
				"y": -2.8950429666,
				"z": 0.124820706,
				"element": "F" 
			},
			{
				"x": -0.2648334592,
				"y": -0.9458161603,
				"z": -1.1073511335,
				"element": "C" 
			},
			{
				"x": -0.8155446938,
				"y": 0.3408365095,
				"z": -1.0827846775,
				"element": "C" 
			},
			{
				"x": -1.2255818416,
				"y": 0.8092250124,
				"z": 0.1594575835,
				"element": "C" 
			},
			{
				"x": -1.7505346923,
				"y": 2.0403920587,
				"z": 0.2309035857,
				"element": "F" 
			},
			{
				"x": -1.1458646819,
				"y": 0.1570200321,
				"z": 1.3024709224,
				"element": "N" 
			},
			{
				"x": 0.2286687054,
				"y": -1.5656112607,
				"z": -2.3918152123,
				"element": "C" 
			},
			{
				"x": 1.541824744,
				"y": -1.8616038749,
				"z": -2.3194295937,
				"element": "F" 
			},
			{
				"x": 0.0563658158,
				"y": -0.7320803034,
				"z": -3.4376585605,
				"element": "F" 
			},
			{
				"x": -0.4287303929,
				"y": -2.7086444216,
				"z": -2.6693647668,
				"element": "F" 
			},
			{
				"x": -0.7176190588,
				"y": -1.2626711089,
				"z": 3.2999081231,
				"element": "H" 
			},
			{
				"x": 0.019029807,
				"y": -2.5963125046,
				"z": 2.491699532,
				"element": "H" 
			},
			{
				"x": -0.9131498856,
				"y": 0.9411141728,
				"z": -1.9762361033,
				"element": "H" 
			}
		],
		 "valence_orbital": [ 
			{
				"type": "occ",
				"energy": -0.38567,
				"method": "rhf"
			},
			{
				"type": "occ",
				"energy": -0.33976,
				"method": "rhf"
			},
			{
				"type": "occ",
				"energy": -0.30075,
				"method": "rhf"
			},
			{
				"type": "occ",
				"energy": -0.2968,
				"method": "rhf"
			},
			{
				"type": "occ",
				"energy": -0.2324,
				"method": "rhf"
			},
			{
				"type": "unocc",
				"energy": -0.04823,
				"method": "rhf"
			},
			{
				"type": "unocc",
				"energy": -0.00758,
				"method": "rhf"
			},
			{
				"type": "unocc",
				"energy": 0.06552,
				"method": "rhf"
			},
			{
				"type": "unocc",
				"energy": 0.09915,
				"method": "rhf"
			},
			{
				"type": "unocc",
				"energy": 0.11541,
				"method": "rhf"
			}
		],
		"cosmo_sigma_profile": { 
			"-0.025": 0.0,
			"-0.024": 0.0,
			"-0.023": 0.0,
			"-0.022": 0.0,
			"-0.021": 0.0,
			"-0.02": 0.0,
			"-0.019": 0.0,
			"-0.018": 0.0,
			"-0.017": 0.0,
			"-0.016": 0.0,
			"-0.015": 0.24541107035,
			"-0.014": 1.69584277695,
			"-0.013": 1.98274699378,
			"-0.012": 2.32525236501,
			"-0.011": 2.11973869672,
			"-0.01": 1.85331917812,
			"-0.009": 1.95467286579,
			"-0.008": 3.43357326531,
			"-0.007": 3.51726719441,
			"-0.006": 3.00876386839,
			"-0.005": 2.82450225881,
			"-0.004": 4.72521172531,
			"-0.003": 9.3561976079,
			"-0.002": 15.012514432,
			"-0.001": 18.2368722248,
			"0.0": 13.5384024764,
			"0.001": 15.1143220686,
			"0.002": 35.5959639116,
			"0.003": 27.452108164,
			"0.004": 8.69081645398,
			"0.005": 3.71802043777,
			"0.006": 1.77548164854,
			"0.007": 1.66307018115,
			"0.008": 2.7095815109,
			"0.009": 1.5022192255,
			"0.01": 0.833402121296,
			"0.011": 1.1677412217,
			"0.012": 0.853300828821,
			"0.013": 0.466227996795,
			"0.014": 0.00311116024257,
			"0.015": 0.0,
			"0.016": 0.0,
			"0.017": 0.0,
			"0.018": 0.0,
			"0.019": 0.0,
			"0.02": 0.0,
			"0.021": 0.0,
			"0.022": 0.0,
			"0.023": 0.0,
			"0.024": 0.0,
			"0.025": 0.0
		}
	}
}
