{
	 "smiles": "OC1=CC=C(SC(F)(F)F)C=C1", 
	 "Tm": 332.15, 
	 "num_atms": 17, 
	 "gaussian": { 
		 "optdone": 1, 
		 "sigma_profile": "yes", 
		 "theory": "DFT", 
		 "functional": "B3LYP", 
		 "basiset": "6-31G**", 
		 "properties": { 
			 "R2extent": 3176.8954, 
			 "electric_dipole_moment_norm": 3.29987992812, 
			 "electric_quadrupole_moment_norm": 8.03257808179, 
			 "total_energy": -1042.67759816, 
			 "HOMO_LUMO_gap": 0.21587, 
			 "cosmo_polarized_energy": -8.52, 
			 "cosmo_cavitation_energy": 24.79, 
			 "cosmo_dispersion_energy": -17.98, 
			 "cosmo_repulsion_energy": 1.34, 
			 "cosmo_total_nonelectrostatic_energy": 8.15, 
			 "SMD_solvation_energy": 5.39 
		},
		"coords": [
			{
				"x": 2.7747614901,
				"y": 1.0645780761,
				"z": -0.8088579899,
				"element": "O" 
			},
			{
				"x": 1.4549363776,
				"y": 0.8738402747,
				"z": -0.5366809138,
				"element": "C" 
			},
			{
				"x": 0.7129675429,
				"y": 0.1195849173,
				"z": -1.4553333911,
				"element": "C" 
			},
			{
				"x": -0.6397623235,
				"y": -0.1054992652,
				"z": -1.2302842636,
				"element": "C" 
			},
			{
				"x": -1.2683558274,
				"y": 0.4146132229,
				"z": -0.0888021538,
				"element": "C" 
			},
			{
				"x": -3.0208457364,
				"y": 0.1622061596,
				"z": 0.1720621054,
				"element": "S" 
			},
			{
				"x": -2.9670609528,
				"y": -1.3930581354,
				"z": 1.124507364,
				"element": "C" 
			},
			{
				"x": -4.2338099254,
				"y": -1.7383601409,
				"z": 1.4111223095,
				"element": "F" 
			},
			{
				"x": -2.2918872076,
				"y": -1.2724051296,
				"z": 2.2814278791,
				"element": "F" 
			},
			{
				"x": -2.3995324626,
				"y": -2.402905491,
				"z": 0.4417541757,
				"element": "F" 
			},
			{
				"x": -0.5220226495,
				"y": 1.1699904139,
				"z": 0.8233314977,
				"element": "C" 
			},
			{
				"x": 0.8339711231,
				"y": 1.3993041844,
				"z": 0.6033717714,
				"element": "C" 
			},
			{
				"x": 3.1758407722,
				"y": 1.5929324504,
				"z": -0.1062908358,
				"element": "H" 
			},
			{
				"x": 1.212318994,
				"y": -0.277538324,
				"z": -2.3325666765,
				"element": "H" 
			},
			{
				"x": -1.2166628671,
				"y": -0.6885886652,
				"z": -1.9402771524,
				"element": "H" 
			},
			{
				"x": -1.0034763242,
				"y": 1.5771788394,
				"z": 1.706066174,
				"element": "H" 
			},
			{
				"x": 1.4092199766,
				"y": 1.9861266125,
				"z": 1.3161501002,
				"element": "H" 
			}
		],
		 "valence_orbital": [ 
			{
				"type": "occ",
				"energy": -0.35541,
				"method": "rhf"
			},
			{
				"type": "occ",
				"energy": -0.33381,
				"method": "rhf"
			},
			{
				"type": "occ",
				"energy": -0.26949,
				"method": "rhf"
			},
			{
				"type": "occ",
				"energy": -0.25971,
				"method": "rhf"
			},
			{
				"type": "occ",
				"energy": -0.23937,
				"method": "rhf"
			},
			{
				"type": "unocc",
				"energy": -0.0235,
				"method": "rhf"
			},
			{
				"type": "unocc",
				"energy": -0.01864,
				"method": "rhf"
			},
			{
				"type": "unocc",
				"energy": 0.02555,
				"method": "rhf"
			},
			{
				"type": "unocc",
				"energy": 0.05649,
				"method": "rhf"
			},
			{
				"type": "unocc",
				"energy": 0.06415,
				"method": "rhf"
			}
		],
		"cosmo_sigma_profile": { 
			"-0.025": 0.0,
			"-0.024": 0.0,
			"-0.023": 0.0,
			"-0.022": 0.0,
			"-0.021": 0.0,
			"-0.02": 0.0,
			"-0.019": 0.0527077819427,
			"-0.018": 1.01561218477,
			"-0.017": 1.16312584729,
			"-0.016": 1.39995061417,
			"-0.015": 0.932829723097,
			"-0.014": 0.799831266107,
			"-0.013": 0.938904766546,
			"-0.012": 0.975375801504,
			"-0.011": 1.05636073192,
			"-0.01": 1.69291147902,
			"-0.009": 0.821825140468,
			"-0.008": 1.03669613092,
			"-0.007": 4.99632325366,
			"-0.006": 8.2347256903,
			"-0.005": 6.74262207942,
			"-0.004": 6.57338522528,
			"-0.003": 5.83228684817,
			"-0.002": 8.08524333451,
			"-0.001": 11.8619502747,
			"0.0": 16.7615657497,
			"0.001": 21.968555548,
			"0.002": 45.590793537,
			"0.003": 27.5149062789,
			"0.004": 10.2692060406,
			"0.005": 3.66490188219,
			"0.006": 3.05194414136,
			"0.007": 2.07364090676,
			"0.008": 1.17832782569,
			"0.009": 1.37595511497,
			"0.01": 1.88535567789,
			"0.011": 1.17064271617,
			"0.012": 0.0,
			"0.013": 0.0,
			"0.014": 0.0,
			"0.015": 0.0,
			"0.016": 0.0,
			"0.017": 0.0,
			"0.018": 0.0,
			"0.019": 0.0,
			"0.02": 0.0,
			"0.021": 0.0,
			"0.022": 0.0,
			"0.023": 0.0,
			"0.024": 0.0,
			"0.025": 0.0
		}
	}
}
