{
	 "smiles": "CC1=CC2=C(O1)C1=C(CCC2(C)C2=CC=CC=C2)OC2=CC=C(Cl)C=C12", 
	 "Tm": 401.15, 
	 "num_atms": 45, 
	 "gaussian": { 
		 "optdone": 1, 
		 "sigma_profile": "yes", 
		 "theory": "DFT", 
		 "functional": "B3LYP", 
		 "basiset": "6-31G**", 
		 "properties": { 
			 "R2extent": 11059.6915, 
			 "electric_dipole_moment_norm": 3.40414051855, 
			 "electric_quadrupole_moment_norm": 11.5886775686, 
			 "total_energy": -1498.54046192, 
			 "HOMO_LUMO_gap": 0.16165, 
			 "cosmo_polarized_energy": -8.48, 
			 "cosmo_cavitation_energy": 47.96, 
			 "cosmo_dispersion_energy": -33.55, 
			 "cosmo_repulsion_energy": 2.52, 
			 "cosmo_total_nonelectrostatic_energy": 16.94, 
			 "SMD_solvation_energy": 7.86 
		},
		"coords": [
			{
				"x": -2.7028865246,
				"y": 1.3139699084,
				"z": 2.5859887499,
				"element": "C" 
			},
			{
				"x": -1.9352640608,
				"y": 0.7107126827,
				"z": 1.4635602602,
				"element": "C" 
			},
			{
				"x": -2.2541072012,
				"y": 0.3391451471,
				"z": 0.1926045851,
				"element": "C" 
			},
			{
				"x": -1.0665606781,
				"y": -0.199259838,
				"z": -0.4184788087,
				"element": "C" 
			},
			{
				"x": -0.0911984259,
				"y": -0.1079304369,
				"z": 0.5486495532,
				"element": "C" 
			},
			{
				"x": -0.6140780026,
				"y": 0.4406299745,
				"z": 1.6947267535,
				"element": "O" 
			},
			{
				"x": 1.3152356027,
				"y": -0.4354155775,
				"z": 0.581648069,
				"element": "C" 
			},
			{
				"x": 2.0260833836,
				"y": -0.998051727,
				"z": -0.4443142171,
				"element": "C" 
			},
			{
				"x": 1.621436837,
				"y": -1.4445837543,
				"z": -1.8045577617,
				"element": "C" 
			},
			{
				"x": 0.145412854,
				"y": -1.8643970677,
				"z": -1.9194224834,
				"element": "C" 
			},
			{
				"x": -0.94349982,
				"y": -0.7468175581,
				"z": -1.8343587347,
				"element": "C" 
			},
			{
				"x": -2.2937591495,
				"y": -1.4182267209,
				"z": -2.2057738002,
				"element": "C" 
			},
			{
				"x": -0.6330331276,
				"y": 0.3654345227,
				"z": -2.8636461662,
				"element": "C" 
			},
			{
				"x": -0.376208681,
				"y": 1.6896139554,
				"z": -2.4847579129,
				"element": "C" 
			},
			{
				"x": -0.0928579676,
				"y": 2.6728544087,
				"z": -3.4366374384,
				"element": "C" 
			},
			{
				"x": -0.0553726691,
				"y": 2.3530549457,
				"z": -4.7924431314,
				"element": "C" 
			},
			{
				"x": -0.3030161752,
				"y": 1.0369232464,
				"z": -5.1878977833,
				"element": "C" 
			},
			{
				"x": -0.5876616377,
				"y": 0.0593119042,
				"z": -4.2355088309,
				"element": "C" 
			},
			{
				"x": 3.3519760417,
				"y": -1.1617362705,
				"z": -0.1127220599,
				"element": "O" 
			},
			{
				"x": 3.4978485561,
				"y": -0.6904165238,
				"z": 1.1638961923,
				"element": "C" 
			},
			{
				"x": 4.6780818047,
				"y": -0.6660676633,
				"z": 1.8940424987,
				"element": "C" 
			},
			{
				"x": 4.6113368039,
				"y": -0.1444454567,
				"z": 3.1852573414,
				"element": "C" 
			},
			{
				"x": 3.388026411,
				"y": 0.3256230582,
				"z": 3.6916433433,
				"element": "C" 
			},
			{
				"x": 3.3553435005,
				"y": 0.9767365012,
				"z": 5.3305879912,
				"element": "Cl" 
			},
			{
				"x": 2.2067628353,
				"y": 0.2992496772,
				"z": 2.957776008,
				"element": "C" 
			},
			{
				"x": 2.2670403878,
				"y": -0.2241944389,
				"z": 1.6582481854,
				"element": "C" 
			},
			{
				"x": -3.7364427749,
				"y": 1.4871287009,
				"z": 2.2776381397,
				"element": "H" 
			},
			{
				"x": -2.7126789809,
				"y": 0.6583950205,
				"z": 3.4647484064,
				"element": "H" 
			},
			{
				"x": -2.2729057647,
				"y": 2.2730591687,
				"z": 2.8978531197,
				"element": "H" 
			},
			{
				"x": -3.2297432325,
				"y": 0.4388943329,
				"z": -0.2599217494,
				"element": "H" 
			},
			{
				"x": 1.841923799,
				"y": -0.6576972771,
				"z": -2.538946452,
				"element": "H" 
			},
			{
				"x": 2.2537847977,
				"y": -2.2978271988,
				"z": -2.0771834532,
				"element": "H" 
			},
			{
				"x": -0.0785694682,
				"y": -2.6209004657,
				"z": -1.1583449032,
				"element": "H" 
			},
			{
				"x": 0.0311804445,
				"y": -2.3593391612,
				"z": -2.8892898245,
				"element": "H" 
			},
			{
				"x": -3.1052482178,
				"y": -0.6871113488,
				"z": -2.2389915579,
				"element": "H" 
			},
			{
				"x": -2.2409338234,
				"y": -1.8928553879,
				"z": -3.1889634416,
				"element": "H" 
			},
			{
				"x": -2.5528239456,
				"y": -2.1875118125,
				"z": -1.4714838397,
				"element": "H" 
			},
			{
				"x": -0.4006865596,
				"y": 1.957692223,
				"z": -1.4347165017,
				"element": "H" 
			},
			{
				"x": 0.0999874502,
				"y": 3.6913702617,
				"z": -3.1109639168,
				"element": "H" 
			},
			{
				"x": 0.1649586249,
				"y": 3.1166661956,
				"z": -5.5328149489,
				"element": "H" 
			},
			{
				"x": -0.2766003591,
				"y": 0.7691624367,
				"z": -6.240668996,
				"element": "H" 
			},
			{
				"x": -0.7765925376,
				"y": -0.955667818,
				"z": -4.5730612641,
				"element": "H" 
			},
			{
				"x": 5.6085237402,
				"y": -1.0355800208,
				"z": 1.4775029848,
				"element": "H" 
			},
			{
				"x": 5.4994998542,
				"y": -0.0982250988,
				"z": 3.8046185607,
				"element": "H" 
			},
			{
				"x": 1.2788860565,
				"y": 0.6681303508,
				"z": 3.3740792354,
				"element": "H" 
			}
		],
		 "valence_orbital": [ 
			{
				"type": "occ",
				"energy": -0.25006,
				"method": "rhf"
			},
			{
				"type": "occ",
				"energy": -0.24516,
				"method": "rhf"
			},
			{
				"type": "occ",
				"energy": -0.24271,
				"method": "rhf"
			},
			{
				"type": "occ",
				"energy": -0.22858,
				"method": "rhf"
			},
			{
				"type": "occ",
				"energy": -0.19017,
				"method": "rhf"
			},
			{
				"type": "unocc",
				"energy": -0.02852,
				"method": "rhf"
			},
			{
				"type": "unocc",
				"energy": -0.0067,
				"method": "rhf"
			},
			{
				"type": "unocc",
				"energy": 0.00019,
				"method": "rhf"
			},
			{
				"type": "unocc",
				"energy": 0.00183,
				"method": "rhf"
			},
			{
				"type": "unocc",
				"energy": 0.00751,
				"method": "rhf"
			}
		],
		"cosmo_sigma_profile": { 
			"-0.025": 0.0,
			"-0.024": 0.0,
			"-0.023": 0.0,
			"-0.022": 0.0,
			"-0.021": 0.0,
			"-0.02": 0.0,
			"-0.019": 0.0,
			"-0.018": 0.0,
			"-0.017": 0.0,
			"-0.016": 0.0,
			"-0.015": 0.0,
			"-0.014": 0.0,
			"-0.013": 0.0,
			"-0.012": 0.0,
			"-0.011": 0.0,
			"-0.01": 0.0,
			"-0.009": 0.0,
			"-0.008": 1.20683963777,
			"-0.007": 3.83983666952,
			"-0.006": 10.2863597168,
			"-0.005": 23.4477856148,
			"-0.004": 27.7591058721,
			"-0.003": 37.4905668206,
			"-0.002": 32.4946618792,
			"-0.001": 34.6104281573,
			"0.0": 35.6601496277,
			"0.001": 35.626637269,
			"0.002": 39.8432550547,
			"0.003": 40.9013290031,
			"0.004": 25.68261004,
			"0.005": 21.7951657707,
			"0.006": 9.90584731056,
			"0.007": 2.72656008171,
			"0.008": 1.10208001304,
			"0.009": 0.105381801558,
			"0.01": 0.0,
			"0.011": 0.0,
			"0.012": 0.0,
			"0.013": 0.0,
			"0.014": 0.0,
			"0.015": 0.0,
			"0.016": 0.0,
			"0.017": 0.0,
			"0.018": 0.0,
			"0.019": 0.0,
			"0.02": 0.0,
			"0.021": 0.0,
			"0.022": 0.0,
			"0.023": 0.0,
			"0.024": 0.0,
			"0.025": 0.0
		}
	}
}
