{
	 "smiles": "CSC1=C(C=O)C=CC(Br)=C1", 
	 "Tm": 355.15, 
	 "num_atms": 18, 
	 "gaussian": { 
		 "optdone": 1, 
		 "sigma_profile": "yes", 
		 "theory": "DFT", 
		 "functional": "B3LYP", 
		 "basiset": "6-31G**", 
		 "properties": { 
			 "R2extent": 4861.8797, 
			 "electric_dipole_moment_norm": 3.52074243023, 
			 "electric_quadrupole_moment_norm": 11.956034657, 
			 "total_energy": -3353.87330623, 
			 "HOMO_LUMO_gap": 0.15937, 
			 "cosmo_polarized_energy": -8.56, 
			 "cosmo_cavitation_energy": 26.11, 
			 "cosmo_dispersion_energy": -19.92, 
			 "cosmo_repulsion_energy": 1.54, 
			 "cosmo_total_nonelectrostatic_energy": 7.74, 
			 "SMD_solvation_energy": 4.45 
		},
		"coords": [
			{
				"x": -3.8580137987,
				"y": -1.5398763877,
				"z": 0.8866184212,
				"element": "C" 
			},
			{
				"x": -2.193971364,
				"y": -1.1835397983,
				"z": 1.5365631794,
				"element": "S" 
			},
			{
				"x": -1.5433964861,
				"y": 0.0203088149,
				"z": 0.3912484031,
				"element": "C" 
			},
			{
				"x": -0.2372455929,
				"y": 0.5342841524,
				"z": 0.5936643728,
				"element": "C" 
			},
			{
				"x": 0.6261600925,
				"y": 0.1156918471,
				"z": 1.7237234542,
				"element": "C" 
			},
			{
				"x": 1.7494276524,
				"y": 0.5477850364,
				"z": 1.9109220679,
				"element": "O" 
			},
			{
				"x": 0.2802457157,
				"y": 1.4806716237,
				"z": -0.3021520569,
				"element": "C" 
			},
			{
				"x": -0.4518262104,
				"y": 1.9344817059,
				"z": -1.390728519,
				"element": "C" 
			},
			{
				"x": -1.7344584084,
				"y": 1.4180065276,
				"z": -1.5743705635,
				"element": "C" 
			},
			{
				"x": -2.7768709799,
				"y": 2.0128652447,
				"z": -3.0579514858,
				"element": "Br" 
			},
			{
				"x": -2.2852461388,
				"y": 0.4766876225,
				"z": -0.7073350707,
				"element": "C" 
			},
			{
				"x": -3.8166000694,
				"y": -1.9756223895,
				"z": -0.1139629727,
				"element": "H" 
			},
			{
				"x": -4.27530842,
				"y": -2.2770768391,
				"z": 1.5755270533,
				"element": "H" 
			},
			{
				"x": -4.4933992752,
				"y": -0.6516179184,
				"z": 0.8929225472,
				"element": "H" 
			},
			{
				"x": 0.1941496067,
				"y": -0.6332255894,
				"z": 2.4170832273,
				"element": "H" 
			},
			{
				"x": 1.2834726432,
				"y": 1.8485317271,
				"z": -0.1112209938,
				"element": "H" 
			},
			{
				"x": -0.0461559423,
				"y": 2.6658323827,
				"z": -2.0791957535,
				"element": "H" 
			},
			{
				"x": -3.2844630242,
				"y": 0.1129122375,
				"z": -0.9009553105,
				"element": "H" 
			}
		],
		 "valence_orbital": [ 
			{
				"type": "occ",
				"energy": -0.29994,
				"method": "rhf"
			},
			{
				"type": "occ",
				"energy": -0.29952,
				"method": "rhf"
			},
			{
				"type": "occ",
				"energy": -0.26056,
				"method": "rhf"
			},
			{
				"type": "occ",
				"energy": -0.25808,
				"method": "rhf"
			},
			{
				"type": "occ",
				"energy": -0.23259,
				"method": "rhf"
			},
			{
				"type": "unocc",
				"energy": -0.07322,
				"method": "rhf"
			},
			{
				"type": "unocc",
				"energy": -0.02518,
				"method": "rhf"
			},
			{
				"type": "unocc",
				"energy": -0.00823,
				"method": "rhf"
			},
			{
				"type": "unocc",
				"energy": 0.02406,
				"method": "rhf"
			},
			{
				"type": "unocc",
				"energy": 0.02611,
				"method": "rhf"
			}
		],
		"cosmo_sigma_profile": { 
			"-0.025": 0.0,
			"-0.024": 0.0,
			"-0.023": 0.0,
			"-0.022": 0.0,
			"-0.021": 0.0,
			"-0.02": 0.0,
			"-0.019": 0.0,
			"-0.018": 0.0,
			"-0.017": 0.0,
			"-0.016": 0.0,
			"-0.015": 0.0,
			"-0.014": 0.0,
			"-0.013": 0.0,
			"-0.012": 0.0,
			"-0.011": 0.0,
			"-0.01": 0.0,
			"-0.009": 0.0,
			"-0.008": 1.91339744756,
			"-0.007": 10.63731745,
			"-0.006": 13.5985396849,
			"-0.005": 13.2113690553,
			"-0.004": 15.1553581014,
			"-0.003": 15.0036529135,
			"-0.002": 14.7388232249,
			"-0.001": 13.1527026397,
			"0.0": 15.9521563758,
			"0.001": 24.8807396726,
			"0.002": 21.9857687286,
			"0.003": 14.0725759566,
			"0.004": 14.9259239207,
			"0.005": 4.0149785538,
			"0.006": 3.6888639698,
			"0.007": 3.9360131525,
			"0.008": 2.4640004441,
			"0.009": 1.97143936118,
			"0.01": 2.97059110879,
			"0.011": 3.9343443121,
			"0.012": 2.10816622634,
			"0.013": 0.428235417821,
			"0.014": 0.0,
			"0.015": 0.0,
			"0.016": 0.0,
			"0.017": 0.0,
			"0.018": 0.0,
			"0.019": 0.0,
			"0.02": 0.0,
			"0.021": 0.0,
			"0.022": 0.0,
			"0.023": 0.0,
			"0.024": 0.0,
			"0.025": 0.0
		}
	}
}
