{
	 "smiles": "CC1=CC(O)=C(C(=O)N1)[N+]([O-])=O", 
	 "Tm": 567.15, 
	 "num_atms": 18, 
	 "gaussian": { 
		 "optdone": 1, 
		 "sigma_profile": "yes", 
		 "theory": "DFT", 
		 "functional": "B3LYP", 
		 "basiset": "6-31G**", 
		 "properties": { 
			 "R2extent": 2386.5853, 
			 "electric_dipole_moment_norm": 7.61623164104, 
			 "electric_quadrupole_moment_norm": 12.8766137901, 
			 "total_energy": -642.570567777, 
			 "HOMO_LUMO_gap": 0.15756, 
			 "cosmo_polarized_energy": -20.19, 
			 "cosmo_cavitation_energy": 22.91, 
			 "cosmo_dispersion_energy": -17.44, 
			 "cosmo_repulsion_energy": 1.38, 
			 "cosmo_total_nonelectrostatic_energy": 6.85, 
			 "SMD_solvation_energy": 7.24 
		},
		"coords": [
			{
				"x": -3.2661007682,
				"y": 0.2713620848,
				"z": -1.5289535903,
				"element": "C" 
			},
			{
				"x": -1.8564395635,
				"y": 0.5800002497,
				"z": -1.1166929493,
				"element": "C" 
			},
			{
				"x": -0.7786498089,
				"y": 0.4697462437,
				"z": -1.9518428553,
				"element": "C" 
			},
			{
				"x": 0.5232624854,
				"y": 0.7835301337,
				"z": -1.4753567345,
				"element": "C" 
			},
			{
				"x": 1.5176641363,
				"y": 0.6565459217,
				"z": -2.3300628402,
				"element": "O" 
			},
			{
				"x": 0.7033552132,
				"y": 1.2091352795,
				"z": -0.1382228581,
				"element": "C" 
			},
			{
				"x": -0.4298362061,
				"y": 1.3373485031,
				"z": 0.7772584214,
				"element": "C" 
			},
			{
				"x": -0.4445180205,
				"y": 1.6878528121,
				"z": 1.9443173481,
				"element": "O" 
			},
			{
				"x": -1.6640945498,
				"y": 0.9907529726,
				"z": 0.1658310171,
				"element": "N" 
			},
			{
				"x": 2.0148469431,
				"y": 1.5225344087,
				"z": 0.3325053007,
				"element": "N" 
			},
			{
				"x": 2.9796788123,
				"y": 1.4024634623,
				"z": -0.4891097915,
				"element": "O" 
			},
			{
				"x": 2.1990345094,
				"y": 1.8905480889,
				"z": 1.479505964,
				"element": "O" 
			},
			{
				"x": -3.9059964306,
				"y": 1.1532108105,
				"z": -1.411554918,
				"element": "H" 
			},
			{
				"x": -3.6852035025,
				"y": -0.5281778289,
				"z": -0.9076626379,
				"element": "H" 
			},
			{
				"x": -3.3037210072,
				"y": -0.0460777138,
				"z": -2.5716786633,
				"element": "H" 
			},
			{
				"x": -0.8886968301,
				"y": 0.1465372666,
				"z": -2.9780899261,
				"element": "H" 
			},
			{
				"x": 2.341557138,
				"y": 0.9228642066,
				"z": -1.805093604,
				"element": "H" 
			},
			{
				"x": -2.4488425501,
				"y": 1.0802230983,
				"z": 0.8005033172,
				"element": "H" 
			}
		],
		 "valence_orbital": [ 
			{
				"type": "occ",
				"energy": -0.31079,
				"method": "rhf"
			},
			{
				"type": "occ",
				"energy": -0.29754,
				"method": "rhf"
			},
			{
				"type": "occ",
				"energy": -0.28622,
				"method": "rhf"
			},
			{
				"type": "occ",
				"energy": -0.2638,
				"method": "rhf"
			},
			{
				"type": "occ",
				"energy": -0.24838,
				"method": "rhf"
			},
			{
				"type": "unocc",
				"energy": -0.09082,
				"method": "rhf"
			},
			{
				"type": "unocc",
				"energy": -0.03126,
				"method": "rhf"
			},
			{
				"type": "unocc",
				"energy": 0.00123,
				"method": "rhf"
			},
			{
				"type": "unocc",
				"energy": 0.05237,
				"method": "rhf"
			},
			{
				"type": "unocc",
				"energy": 0.09325,
				"method": "rhf"
			}
		],
		"cosmo_sigma_profile": { 
			"-0.025": 0.0,
			"-0.024": 0.0,
			"-0.023": 0.0,
			"-0.022": 0.0,
			"-0.021": 0.0,
			"-0.02": 0.0,
			"-0.019": 0.0,
			"-0.018": 0.0,
			"-0.017": 0.0694127872771,
			"-0.016": 0.779070405555,
			"-0.015": 1.32782767296,
			"-0.014": 1.18486914939,
			"-0.013": 1.13026695632,
			"-0.012": 1.01478008709,
			"-0.011": 1.39547826537,
			"-0.01": 1.27391409181,
			"-0.009": 1.58286288386,
			"-0.008": 5.52529821331,
			"-0.007": 10.3893237516,
			"-0.006": 11.2334949023,
			"-0.005": 12.2899039462,
			"-0.004": 14.6096957072,
			"-0.003": 19.3932511995,
			"-0.002": 13.7651006718,
			"-0.001": 8.46784922341,
			"0.0": 7.36107024546,
			"0.001": 6.29580269684,
			"0.002": 4.64122275987,
			"0.003": 4.28151063373,
			"0.004": 4.18181205161,
			"0.005": 3.09259806706,
			"0.006": 5.097493949,
			"0.007": 6.79300369456,
			"0.008": 8.10176175737,
			"0.009": 7.22693480867,
			"0.01": 5.45019051457,
			"0.011": 3.35994584907,
			"0.012": 4.59735027001,
			"0.013": 3.91203070372,
			"0.014": 1.75079501336,
			"0.015": 1.41348653066,
			"0.016": 0.210408811511,
			"0.017": 0.0,
			"0.018": 0.0,
			"0.019": 0.0,
			"0.02": 0.0,
			"0.021": 0.0,
			"0.022": 0.0,
			"0.023": 0.0,
			"0.024": 0.0,
			"0.025": 0.0
		}
	}
}
