{
	 "smiles": "CC12CCC3C(CCC4CC5SC5CC34C)C1CCC2O", 
	 "Tm": 400.15, 
	 "num_atms": 51, 
	 "gaussian": { 
		 "optdone": 1, 
		 "sigma_profile": "yes", 
		 "theory": "DFT", 
		 "functional": "B3LYP", 
		 "basiset": "6-31G**", 
		 "properties": { 
			 "R2extent": 7973.4299, 
			 "electric_dipole_moment_norm": 2.10413346772, 
			 "electric_quadrupole_moment_norm": 26.9476226235, 
			 "total_energy": -1215.45066885, 
			 "HOMO_LUMO_gap": 0.21811, 
			 "cosmo_polarized_energy": -10.75, 
			 "cosmo_cavitation_energy": 43.37, 
			 "cosmo_dispersion_energy": -31.62, 
			 "cosmo_repulsion_energy": 2.26, 
			 "cosmo_total_nonelectrostatic_energy": 14.0, 
			 "SMD_solvation_energy": 4.56 
		},
		"coords": [
			{
				"x": -1.2687597634,
				"y": 1.0375713835,
				"z": 3.7623928206,
				"element": "C" 
			},
			{
				"x": -0.4530055829,
				"y": 1.3646504693,
				"z": 2.5029274418,
				"element": "C" 
			},
			{
				"x": 0.8448537189,
				"y": 0.5248847505,
				"z": 2.4575761195,
				"element": "C" 
			},
			{
				"x": 0.5950439948,
				"y": -0.9713272397,
				"z": 2.2133995799,
				"element": "C" 
			},
			{
				"x": -0.1898883503,
				"y": -1.3040484596,
				"z": 0.9160213092,
				"element": "C" 
			},
			{
				"x": -1.4245699496,
				"y": -0.3438356252,
				"z": 0.7824678948,
				"element": "C" 
			},
			{
				"x": -2.1568929234,
				"y": -0.4947648948,
				"z": -0.5732344127,
				"element": "C" 
			},
			{
				"x": -1.7081016517,
				"y": -1.7289417307,
				"z": -1.3552802321,
				"element": "C" 
			},
			{
				"x": -0.2013631504,
				"y": -1.6689380201,
				"z": -1.6711833089,
				"element": "C" 
			},
			{
				"x": 0.1238940735,
				"y": -2.7252032157,
				"z": -2.8274636829,
				"element": "C" 
			},
			{
				"x": 1.3215952384,
				"y": -3.4827593586,
				"z": -2.3354477332,
				"element": "C" 
			},
			{
				"x": 1.792618664,
				"y": -5.2505924537,
				"z": -2.1053788218,
				"element": "S" 
			},
			{
				"x": 1.0254102125,
				"y": -3.9996249427,
				"z": -0.9896026613,
				"element": "C" 
			},
			{
				"x": 1.4748938817,
				"y": -3.0199320603,
				"z": 0.0501214407,
				"element": "C" 
			},
			{
				"x": 0.721773415,
				"y": -1.6346244679,
				"z": -0.3305096455,
				"element": "C" 
			},
			{
				"x": 1.8456957926,
				"y": -0.6044792632,
				"z": -0.5805529641,
				"element": "C" 
			},
			{
				"x": -1.2498167216,
				"y": 1.1449996795,
				"z": 1.1820043422,
				"element": "C" 
			},
			{
				"x": -0.613460211,
				"y": 2.1198268407,
				"z": 0.142561139,
				"element": "C" 
			},
			{
				"x": 0.2546817503,
				"y": 3.1221964437,
				"z": 0.9511927322,
				"element": "C" 
			},
			{
				"x": -0.0890331738,
				"y": 2.8765121635,
				"z": 2.4334950167,
				"element": "C" 
			},
			{
				"x": -1.1468219534,
				"y": 3.7302136005,
				"z": 2.8751835677,
				"element": "O" 
			},
			{
				"x": -0.6652473712,
				"y": 1.188302264,
				"z": 4.6647910159,
				"element": "H" 
			},
			{
				"x": -2.1394693965,
				"y": 1.6921083744,
				"z": 3.8419876125,
				"element": "H" 
			},
			{
				"x": -1.6198027647,
				"y": 0.0013582424,
				"z": 3.7689717251,
				"element": "H" 
			},
			{
				"x": 1.3829257851,
				"y": 0.647553554,
				"z": 3.4066886363,
				"element": "H" 
			},
			{
				"x": 1.5102807495,
				"y": 0.9141894029,
				"z": 1.6807433931,
				"element": "H" 
			},
			{
				"x": 0.0295576129,
				"y": -1.3708992546,
				"z": 3.0637830214,
				"element": "H" 
			},
			{
				"x": 1.553026126,
				"y": -1.5016608392,
				"z": 2.2289691897,
				"element": "H" 
			},
			{
				"x": -0.6675161525,
				"y": -2.2731434961,
				"z": 1.1084395534,
				"element": "H" 
			},
			{
				"x": -2.1055471549,
				"y": -0.7403798237,
				"z": 1.5480344438,
				"element": "H" 
			},
			{
				"x": -3.2416591041,
				"y": -0.5125799834,
				"z": -0.4129767715,
				"element": "H" 
			},
			{
				"x": -1.960820909,
				"y": 0.3793728793,
				"z": -1.2058186376,
				"element": "H" 
			},
			{
				"x": -2.2612612907,
				"y": -1.7758237661,
				"z": -2.3014484899,
				"element": "H" 
			},
			{
				"x": -1.9545261738,
				"y": -2.6541222071,
				"z": -0.8160811578,
				"element": "H" 
			},
			{
				"x": -0.0373892187,
				"y": -0.6818128229,
				"z": -2.1197551102,
				"element": "H" 
			},
			{
				"x": -0.7300700238,
				"y": -3.3986426216,
				"z": -2.9560675516,
				"element": "H" 
			},
			{
				"x": 0.2839132813,
				"y": -2.2110134919,
				"z": -3.7809599259,
				"element": "H" 
			},
			{
				"x": 2.2399813083,
				"y": -2.900158795,
				"z": -2.38193972,
				"element": "H" 
			},
			{
				"x": -0.0226598416,
				"y": -4.2723648435,
				"z": -0.8649173817,
				"element": "H" 
			},
			{
				"x": 2.5591838275,
				"y": -2.8778940775,
				"z": 0.0110309509,
				"element": "H" 
			},
			{
				"x": 1.2218565449,
				"y": -3.3342762508,
				"z": 1.0662977529,
				"element": "H" 
			},
			{
				"x": 2.4442993799,
				"y": -0.896621708,
				"z": -1.450293791,
				"element": "H" 
			},
			{
				"x": 1.4586716246,
				"y": 0.3970957647,
				"z": -0.7817795145,
				"element": "H" 
			},
			{
				"x": 2.5300396975,
				"y": -0.5376470378,
				"z": 0.2700664444,
				"element": "H" 
			},
			{
				"x": -2.2749445047,
				"y": 1.5048612624,
				"z": 1.362708707,
				"element": "H" 
			},
			{
				"x": -1.3931471643,
				"y": 2.6366640794,
				"z": -0.4261538905,
				"element": "H" 
			},
			{
				"x": -0.0107563246,
				"y": 1.5920694262,
				"z": -0.5992249424,
				"element": "H" 
			},
			{
				"x": 1.319786698,
				"y": 2.9459778899,
				"z": 0.7703694217,
				"element": "H" 
			},
			{
				"x": 0.0622360063,
				"y": 4.1674833888,
				"z": 0.6927710572,
				"element": "H" 
			},
			{
				"x": 0.7463930476,
				"y": 3.1145949373,
				"z": 3.1009693124,
				"element": "H" 
			},
			{
				"x": -1.8903816045,
				"y": 3.6263259543,
				"z": 2.2665047052,
				"element": "H" 
			}
		],
		 "valence_orbital": [ 
			{
				"type": "occ",
				"energy": -0.28292,
				"method": "rhf"
			},
			{
				"type": "occ",
				"energy": -0.27721,
				"method": "rhf"
			},
			{
				"type": "occ",
				"energy": -0.26371,
				"method": "rhf"
			},
			{
				"type": "occ",
				"energy": -0.25504,
				"method": "rhf"
			},
			{
				"type": "occ",
				"energy": -0.22142,
				"method": "rhf"
			},
			{
				"type": "unocc",
				"energy": -0.00331,
				"method": "rhf"
			},
			{
				"type": "unocc",
				"energy": 0.04301,
				"method": "rhf"
			},
			{
				"type": "unocc",
				"energy": 0.05754,
				"method": "rhf"
			},
			{
				"type": "unocc",
				"energy": 0.06916,
				"method": "rhf"
			},
			{
				"type": "unocc",
				"energy": 0.08255,
				"method": "rhf"
			}
		],
		"cosmo_sigma_profile": { 
			"-0.025": 0.0,
			"-0.024": 0.0,
			"-0.023": 0.0,
			"-0.022": 0.0,
			"-0.021": 0.0,
			"-0.02": 0.0,
			"-0.019": 0.0,
			"-0.018": 0.0,
			"-0.017": 0.0,
			"-0.016": 0.0,
			"-0.015": 0.0,
			"-0.014": 0.265786904043,
			"-0.013": 0.564276669029,
			"-0.012": 1.03663347193,
			"-0.011": 0.943152431909,
			"-0.01": 0.981384693425,
			"-0.009": 1.47611341222,
			"-0.008": 0.400074284671,
			"-0.007": 0.944193644958,
			"-0.006": 2.77705562343,
			"-0.005": 7.48013195071,
			"-0.004": 11.6493554324,
			"-0.003": 34.1043667524,
			"-0.002": 61.3041037621,
			"-0.001": 57.0619096456,
			"0.0": 41.9964654877,
			"0.001": 34.3301688367,
			"0.002": 22.0841101528,
			"0.003": 12.3662595886,
			"0.004": 8.08453449593,
			"0.005": 6.09538656929,
			"0.006": 4.27241075274,
			"0.007": 4.55779455084,
			"0.008": 3.73236395388,
			"0.009": 3.80373258223,
			"0.01": 3.46304862439,
			"0.011": 2.97991213284,
			"0.012": 1.06306538525,
			"0.013": 1.35292000927,
			"0.014": 1.9692116471,
			"0.015": 1.65502656559,
			"0.016": 0.0150908999529,
			"0.017": 0.0,
			"0.018": 0.0,
			"0.019": 0.0,
			"0.02": 0.0,
			"0.021": 0.0,
			"0.022": 0.0,
			"0.023": 0.0,
			"0.024": 0.0,
			"0.025": 0.0
		}
	}
}
