{
	 "smiles": "CCCCOCC", 
	 "Tm": 149.15, 
	 "num_atms": 21, 
	 "gaussian": { 
		 "optdone": 1, 
		 "sigma_profile": "yes", 
		 "theory": "DFT", 
		 "functional": "B3LYP", 
		 "basiset": "6-31G**", 
		 "properties": { 
			 "R2extent": 1461.9937, 
			 "electric_dipole_moment_norm": 1.28169881407, 
			 "electric_quadrupole_moment_norm": 3.18734714614, 
			 "total_energy": -312.298893026, 
			 "HOMO_LUMO_gap": 0.32553, 
			 "cosmo_polarized_energy": -3.28, 
			 "cosmo_cavitation_energy": 22.29, 
			 "cosmo_dispersion_energy": -16.2, 
			 "cosmo_repulsion_energy": 1.4, 
			 "cosmo_total_nonelectrostatic_energy": 7.49, 
			 "SMD_solvation_energy": 4.0 
		},
		"coords": [
			{
				"x": -1.3902416772,
				"y": 0.6593062731,
				"z": 1.0476335162,
				"element": "C" 
			},
			{
				"x": -1.1095930437,
				"y": -0.0300211251,
				"z": -0.2934125139,
				"element": "C" 
			},
			{
				"x": 0.1284062445,
				"y": -0.9430745538,
				"z": -0.3108477759,
				"element": "C" 
			},
			{
				"x": 1.48087925,
				"y": -0.2215864773,
				"z": -0.2566813044,
				"element": "C" 
			},
			{
				"x": 1.7407520539,
				"y": 0.4426343779,
				"z": 0.9764416234,
				"element": "O" 
			},
			{
				"x": 2.3103611942,
				"y": -0.3765051061,
				"z": 1.9919749833,
				"element": "C" 
			},
			{
				"x": 3.8329186281,
				"y": -0.4500214066,
				"z": 1.89106386,
				"element": "C" 
			},
			{
				"x": -1.5363060034,
				"y": -0.0810755427,
				"z": 1.8434224718,
				"element": "H" 
			},
			{
				"x": -2.3000549866,
				"y": 1.2669226727,
				"z": 0.991103225,
				"element": "H" 
			},
			{
				"x": -0.5588152971,
				"y": 1.3018609273,
				"z": 1.3445178646,
				"element": "H" 
			},
			{
				"x": -0.9999829249,
				"y": 0.7294261683,
				"z": -1.0805337691,
				"element": "H" 
			},
			{
				"x": -1.9840615914,
				"y": -0.6306026838,
				"z": -0.5762290368,
				"element": "H" 
			},
			{
				"x": 0.1203705865,
				"y": -1.5346805674,
				"z": -1.237080864,
				"element": "H" 
			},
			{
				"x": 0.0662820679,
				"y": -1.6698366709,
				"z": 0.5110297842,
				"element": "H" 
			},
			{
				"x": 2.2879467519,
				"y": -0.9338244223,
				"z": -0.4874650511,
				"element": "H" 
			},
			{
				"x": 1.5116819032,
				"y": 0.557995687,
				"z": -1.0279485813,
				"element": "H" 
			},
			{
				"x": 1.8749143792,
				"y": -1.3868816911,
				"z": 1.9725581182,
				"element": "H" 
			},
			{
				"x": 2.0195694383,
				"y": 0.0793899412,
				"z": 2.9448213175,
				"element": "H" 
			},
			{
				"x": 4.2650473386,
				"y": 0.5537936147,
				"z": 1.9390793009,
				"element": "H" 
			},
			{
				"x": 4.2443453824,
				"y": -1.0453739635,
				"z": 2.7138401591,
				"element": "H" 
			},
			{
				"x": 4.1522803055,
				"y": -0.9127454513,
				"z": 0.9515126723,
				"element": "H" 
			}
		],
		 "valence_orbital": [ 
			{
				"type": "occ",
				"energy": -0.33176,
				"method": "rhf"
			},
			{
				"type": "occ",
				"energy": -0.32689,
				"method": "rhf"
			},
			{
				"type": "occ",
				"energy": -0.32443,
				"method": "rhf"
			},
			{
				"type": "occ",
				"energy": -0.29369,
				"method": "rhf"
			},
			{
				"type": "occ",
				"energy": -0.2424,
				"method": "rhf"
			},
			{
				"type": "unocc",
				"energy": 0.08313,
				"method": "rhf"
			},
			{
				"type": "unocc",
				"energy": 0.11533,
				"method": "rhf"
			},
			{
				"type": "unocc",
				"energy": 0.12256,
				"method": "rhf"
			},
			{
				"type": "unocc",
				"energy": 0.13078,
				"method": "rhf"
			},
			{
				"type": "unocc",
				"energy": 0.13941,
				"method": "rhf"
			}
		],
		"cosmo_sigma_profile": { 
			"-0.025": 0.0,
			"-0.024": 0.0,
			"-0.023": 0.0,
			"-0.022": 0.0,
			"-0.021": 0.0,
			"-0.02": 0.0,
			"-0.019": 0.0,
			"-0.018": 0.0,
			"-0.017": 0.0,
			"-0.016": 0.0,
			"-0.015": 0.0,
			"-0.014": 0.0,
			"-0.013": 0.0,
			"-0.012": 0.0,
			"-0.011": 0.0,
			"-0.01": 0.0,
			"-0.009": 0.0,
			"-0.008": 0.0,
			"-0.007": 0.0,
			"-0.006": 0.0,
			"-0.005": 0.0,
			"-0.004": 6.07490591227,
			"-0.003": 21.8845986224,
			"-0.002": 31.2705110976,
			"-0.001": 28.2910293628,
			"0.0": 26.2391385521,
			"0.001": 24.420329641,
			"0.002": 13.7622779811,
			"0.003": 4.52331013621,
			"0.004": 2.6414790932,
			"0.005": 2.73553897777,
			"0.006": 1.69249306953,
			"0.007": 1.49668991256,
			"0.008": 1.49474962242,
			"0.009": 1.15040707876,
			"0.01": 0.614466314545,
			"0.011": 0.910736587292,
			"0.012": 0.842694843684,
			"0.013": 0.984807404673,
			"0.014": 0.582150063862,
			"0.015": 0.101451505267,
			"0.016": 0.0,
			"0.017": 0.0,
			"0.018": 0.0,
			"0.019": 0.0,
			"0.02": 0.0,
			"0.021": 0.0,
			"0.022": 0.0,
			"0.023": 0.0,
			"0.024": 0.0,
			"0.025": 0.0
		}
	}
}
