{
	 "smiles": "CN(C)C1=CC=C(C=C1)N=C(/C#N)C1=CC=C(C=C1)C(=NC1=CC=C(C=C1)N(C)C)C#N", 
	 "Tm": 513.15, 
	 "num_atms": 56, 
	 "gaussian": { 
		 "optdone": 1, 
		 "sigma_profile": "yes", 
		 "theory": "DFT", 
		 "functional": "B3LYP", 
		 "basiset": "6-31G**", 
		 "properties": { 
			 "R2extent": 33178.1226, 
			 "electric_dipole_moment_norm": 7.925145087, 
			 "electric_quadrupole_moment_norm": 94.0812079757, 
			 "total_energy": -1333.67022455, 
			 "HOMO_LUMO_gap": 0.09694, 
			 "cosmo_polarized_energy": -20.91, 
			 "cosmo_cavitation_energy": 61.77, 
			 "cosmo_dispersion_energy": -43.05, 
			 "cosmo_repulsion_energy": 3.12, 
			 "cosmo_total_nonelectrostatic_energy": 21.84, 
			 "SMD_solvation_energy": 10.31 
		},
		"coords": [
			{
				"x": 3.2492849853,
				"y": -8.1810764598,
				"z": 5.1801227682,
				"element": "C" 
			},
			{
				"x": 1.8457050323,
				"y": -7.8148491412,
				"z": 5.2798423758,
				"element": "N" 
			},
			{
				"x": 0.934033098,
				"y": -8.6633200557,
				"z": 6.0312831963,
				"element": "C" 
			},
			{
				"x": 1.3774256095,
				"y": -6.6926509444,
				"z": 4.6351248428,
				"element": "C" 
			},
			{
				"x": 2.2403410275,
				"y": -5.8585017804,
				"z": 3.8801534739,
				"element": "C" 
			},
			{
				"x": 1.7504027471,
				"y": -4.7346224654,
				"z": 3.2416306249,
				"element": "C" 
			},
			{
				"x": 0.3903461568,
				"y": -4.3558137744,
				"z": 3.3087434495,
				"element": "C" 
			},
			{
				"x": -0.47031252,
				"y": -5.1936010031,
				"z": 4.0584559639,
				"element": "C" 
			},
			{
				"x": 0.0078816941,
				"y": -6.3240079304,
				"z": 4.6973566534,
				"element": "C" 
			},
			{
				"x": 0.0784071294,
				"y": -3.2027683852,
				"z": 2.6105722738,
				"element": "N" 
			},
			{
				"x": -1.0401763928,
				"y": -2.5578330569,
				"z": 2.5111774066,
				"element": "C" 
			},
			{
				"x": -2.2769292666,
				"y": -2.9355796748,
				"z": 3.1719849409,
				"element": "C" 
			},
			{
				"x": -3.2763032543,
				"y": -3.2212027547,
				"z": 3.6971155839,
				"element": "N" 
			},
			{
				"x": -1.1095976696,
				"y": -1.3342870352,
				"z": 1.679928736,
				"element": "C" 
			},
			{
				"x": -2.299170464,
				"y": -0.6005434719,
				"z": 1.5457626326,
				"element": "C" 
			},
			{
				"x": -2.3430111825,
				"y": 0.5470143941,
				"z": 0.7600468854,
				"element": "C" 
			},
			{
				"x": -1.1988246769,
				"y": 0.9979228587,
				"z": 0.0825559133,
				"element": "C" 
			},
			{
				"x": -0.0048023932,
				"y": 0.260192725,
				"z": 0.2180762746,
				"element": "C" 
			},
			{
				"x": 0.0387192632,
				"y": -0.8805885306,
				"z": 0.9988806077,
				"element": "C" 
			},
			{
				"x": -1.2229209019,
				"y": 2.2161226786,
				"z": -0.7590597192,
				"element": "C" 
			},
			{
				"x": -0.1452154062,
				"y": 2.5955021912,
				"z": -1.3687266255,
				"element": "N" 
			},
			{
				"x": 0.0843297654,
				"y": 3.6824158907,
				"z": -2.1934264497,
				"element": "C" 
			},
			{
				"x": -0.8066331214,
				"y": 4.7232917643,
				"z": -2.5505402604,
				"element": "C" 
			},
			{
				"x": -0.4108998052,
				"y": 5.7478841454,
				"z": -3.3921308396,
				"element": "C" 
			},
			{
				"x": 0.8990773126,
				"y": 5.8017724886,
				"z": -3.9366818155,
				"element": "C" 
			},
			{
				"x": 1.7945435219,
				"y": 4.7627978661,
				"z": -3.577351649,
				"element": "C" 
			},
			{
				"x": 1.3894372781,
				"y": 3.7466427172,
				"z": -2.7322939487,
				"element": "C" 
			},
			{
				"x": 1.2825741877,
				"y": 6.8221573592,
				"z": -4.7768460487,
				"element": "N" 
			},
			{
				"x": 2.6344558218,
				"y": 6.8582791836,
				"z": -5.3108685821,
				"element": "C" 
			},
			{
				"x": 0.3453244796,
				"y": 7.8794198226,
				"z": -5.122477528,
				"element": "C" 
			},
			{
				"x": -2.5023300201,
				"y": 2.89906065,
				"z": -0.8336387329,
				"element": "C" 
			},
			{
				"x": -3.5365559424,
				"y": 3.4318797014,
				"z": -0.8844336258,
				"element": "N" 
			},
			{
				"x": 3.9035737484,
				"y": -7.3942533409,
				"z": 5.5778733707,
				"element": "H" 
			},
			{
				"x": 3.4258359482,
				"y": -9.0877805189,
				"z": 5.7591993474,
				"element": "H" 
			},
			{
				"x": 3.5490137229,
				"y": -8.378389763,
				"z": 4.1419378392,
				"element": "H" 
			},
			{
				"x": 1.4938098326,
				"y": -9.4883509125,
				"z": 6.472457794,
				"element": "H" 
			},
			{
				"x": 0.4459496797,
				"y": -8.1133836449,
				"z": 6.8462811666,
				"element": "H" 
			},
			{
				"x": 0.1493104168,
				"y": -9.0900228596,
				"z": 5.3922102992,
				"element": "H" 
			},
			{
				"x": 3.293700038,
				"y": -6.0934484677,
				"z": 3.7923312762,
				"element": "H" 
			},
			{
				"x": 2.416364838,
				"y": -4.1021624683,
				"z": 2.6632525261,
				"element": "H" 
			},
			{
				"x": -1.5252048955,
				"y": -4.970361701,
				"z": 4.143668966,
				"element": "H" 
			},
			{
				"x": -0.6936504832,
				"y": -6.9330296093,
				"z": 5.2539531932,
				"element": "H" 
			},
			{
				"x": -3.1988553553,
				"y": -0.9263600893,
				"z": 2.0581689714,
				"element": "H" 
			},
			{
				"x": -3.2760568007,
				"y": 1.0949536594,
				"z": 0.6743620962,
				"element": "H" 
			},
			{
				"x": 0.8783483115,
				"y": 0.6085117621,
				"z": -0.304746296,
				"element": "H" 
			},
			{
				"x": 0.9567553782,
				"y": -1.4473011672,
				"z": 1.102218277,
				"element": "H" 
			},
			{
				"x": -1.8182869118,
				"y": 4.7424414152,
				"z": -2.1683530058,
				"element": "H" 
			},
			{
				"x": -1.1304730246,
				"y": 6.5212104766,
				"z": -3.6309782651,
				"element": "H" 
			},
			{
				"x": 2.807757306,
				"y": 4.7538823927,
				"z": -3.9591975267,
				"element": "H" 
			},
			{
				"x": 2.0809756691,
				"y": 2.9557365681,
				"z": -2.4597621146,
				"element": "H" 
			},
			{
				"x": 3.3873370432,
				"y": 6.9259678653,
				"z": -4.5141046077,
				"element": "H" 
			},
			{
				"x": 2.7441473494,
				"y": 7.7333734241,
				"z": -5.951776663,
				"element": "H" 
			},
			{
				"x": 2.8581591628,
				"y": 5.968118609,
				"z": -5.9136243192,
				"element": "H" 
			},
			{
				"x": 0.0116202445,
				"y": 8.4364509651,
				"z": -4.2368731745,
				"element": "H" 
			},
			{
				"x": 0.8321582198,
				"y": 8.583186629,
				"z": -5.7980223702,
				"element": "H" 
			},
			{
				"x": -0.5444955312,
				"y": 7.4849008034,
				"z": -5.6302155592,
				"element": "H" 
			}
		],
		 "valence_orbital": [ 
			{
				"type": "occ",
				"energy": -0.2552,
				"method": "rhf"
			},
			{
				"type": "occ",
				"energy": -0.25,
				"method": "rhf"
			},
			{
				"type": "occ",
				"energy": -0.24503,
				"method": "rhf"
			},
			{
				"type": "occ",
				"energy": -0.19965,
				"method": "rhf"
			},
			{
				"type": "occ",
				"energy": -0.18453,
				"method": "rhf"
			},
			{
				"type": "unocc",
				"energy": -0.08759,
				"method": "rhf"
			},
			{
				"type": "unocc",
				"energy": -0.06079,
				"method": "rhf"
			},
			{
				"type": "unocc",
				"energy": -0.00211,
				"method": "rhf"
			},
			{
				"type": "unocc",
				"energy": -0.00137,
				"method": "rhf"
			},
			{
				"type": "unocc",
				"energy": 0.00108,
				"method": "rhf"
			}
		],
		"cosmo_sigma_profile": { 
			"-0.025": 0.0,
			"-0.024": 0.0,
			"-0.023": 0.0,
			"-0.022": 0.0,
			"-0.021": 0.0,
			"-0.02": 0.0,
			"-0.019": 0.0,
			"-0.018": 0.0,
			"-0.017": 0.0,
			"-0.016": 0.0,
			"-0.015": 0.0,
			"-0.014": 0.0,
			"-0.013": 0.0,
			"-0.012": 0.0,
			"-0.011": 0.0,
			"-0.01": 0.0,
			"-0.009": 0.0,
			"-0.008": 1.24132425128,
			"-0.007": 5.71618432404,
			"-0.006": 16.9133149448,
			"-0.005": 43.1140306484,
			"-0.004": 47.7282133251,
			"-0.003": 48.8704923655,
			"-0.002": 58.3689870032,
			"-0.001": 36.1494095364,
			"0.0": 28.2729735034,
			"0.001": 28.9557377901,
			"0.002": 34.8670324661,
			"0.003": 41.9099201007,
			"0.004": 41.243093728,
			"0.005": 20.525540746,
			"0.006": 9.4265691465,
			"0.007": 7.88986326389,
			"0.008": 4.98188000379,
			"0.009": 5.32632036777,
			"0.01": 4.65192417253,
			"0.011": 5.06903092616,
			"0.012": 4.13259190592,
			"0.013": 0.720658294469,
			"0.014": 0.0,
			"0.015": 0.0,
			"0.016": 0.0,
			"0.017": 0.0,
			"0.018": 0.0,
			"0.019": 0.0,
			"0.02": 0.0,
			"0.021": 0.0,
			"0.022": 0.0,
			"0.023": 0.0,
			"0.024": 0.0,
			"0.025": 0.0
		}
	}
}
