{
	 "smiles": "FC(F)(F)C1=CC2=C(NC(=O)OC2=O)C=C1", 
	 "Tm": 543.15, 
	 "num_atms": 20, 
	 "gaussian": { 
		 "optdone": 1, 
		 "sigma_profile": "yes", 
		 "theory": "DFT", 
		 "functional": "B3LYP", 
		 "basiset": "6-31G**", 
		 "properties": { 
			 "R2extent": 4540.4358, 
			 "electric_dipole_moment_norm": 5.36468902361, 
			 "electric_quadrupole_moment_norm": 19.3148791741, 
			 "total_energy": -925.352371422, 
			 "HOMO_LUMO_gap": 0.18297, 
			 "cosmo_polarized_energy": -17.46, 
			 "cosmo_cavitation_energy": 27.27, 
			 "cosmo_dispersion_energy": -19.76, 
			 "cosmo_repulsion_energy": 1.45, 
			 "cosmo_total_nonelectrostatic_energy": 8.95, 
			 "SMD_solvation_energy": 7.94 
		},
		"coords": [
			{
				"x": -4.3394477197,
				"y": -1.5902184014,
				"z": -1.4861894189,
				"element": "F" 
			},
			{
				"x": -3.6994297095,
				"y": -0.5032045879,
				"z": -0.9987062787,
				"element": "C" 
			},
			{
				"x": -3.7710103145,
				"y": 0.451014938,
				"z": -1.9544379297,
				"element": "F" 
			},
			{
				"x": -4.3942711682,
				"y": -0.0583053163,
				"z": 0.0665069556,
				"element": "F" 
			},
			{
				"x": -2.2717760428,
				"y": -0.8231808101,
				"z": -0.6460847541,
				"element": "C" 
			},
			{
				"x": -1.686884484,
				"y": -0.3056015288,
				"z": 0.5018173303,
				"element": "C" 
			},
			{
				"x": -0.3450391479,
				"y": -0.5818163259,
				"z": 0.7862588374,
				"element": "C" 
			},
			{
				"x": 0.4110631195,
				"y": -1.3799057949,
				"z": -0.0867353823,
				"element": "C" 
			},
			{
				"x": 1.7345321786,
				"y": -1.6298312897,
				"z": 0.2324782471,
				"element": "N" 
			},
			{
				"x": 2.3863190724,
				"y": -1.1530571348,
				"z": 1.3551847677,
				"element": "C" 
			},
			{
				"x": 3.5393112418,
				"y": -1.3880175778,
				"z": 1.6043109107,
				"element": "O" 
			},
			{
				"x": 1.6249809951,
				"y": -0.3756674342,
				"z": 2.1935896747,
				"element": "O" 
			},
			{
				"x": 0.280324837,
				"y": -0.041592116,
				"z": 2.001809921,
				"element": "C" 
			},
			{
				"x": -0.2536887343,
				"y": 0.6487741237,
				"z": 2.8280980115,
				"element": "O" 
			},
			{
				"x": -0.1811679538,
				"y": -1.9035889606,
				"z": -1.2460590011,
				"element": "C" 
			},
			{
				"x": -1.511958404,
				"y": -1.6229111393,
				"z": -1.5164181854,
				"element": "C" 
			},
			{
				"x": -2.2482406178,
				"y": 0.3094702905,
				"z": 1.195433568,
				"element": "H" 
			},
			{
				"x": 2.3090229248,
				"y": -2.2001500495,
				"z": -0.3726447471,
				"element": "H" 
			},
			{
				"x": 0.3991785977,
				"y": -2.5254723601,
				"z": -1.9207856191,
				"element": "H" 
			},
			{
				"x": -1.9758186704,
				"y": -2.033038525,
				"z": -2.4074269078,
				"element": "H" 
			}
		],
		 "valence_orbital": [ 
			{
				"type": "occ",
				"energy": -0.33563,
				"method": "rhf"
			},
			{
				"type": "occ",
				"energy": -0.32452,
				"method": "rhf"
			},
			{
				"type": "occ",
				"energy": -0.30161,
				"method": "rhf"
			},
			{
				"type": "occ",
				"energy": -0.2974,
				"method": "rhf"
			},
			{
				"type": "occ",
				"energy": -0.26621,
				"method": "rhf"
			},
			{
				"type": "unocc",
				"energy": -0.08324,
				"method": "rhf"
			},
			{
				"type": "unocc",
				"energy": -0.05379,
				"method": "rhf"
			},
			{
				"type": "unocc",
				"energy": 0.00093,
				"method": "rhf"
			},
			{
				"type": "unocc",
				"energy": 0.03297,
				"method": "rhf"
			},
			{
				"type": "unocc",
				"energy": 0.05068,
				"method": "rhf"
			}
		],
		"cosmo_sigma_profile": { 
			"-0.025": 0.0,
			"-0.024": 0.0,
			"-0.023": 0.0,
			"-0.022": 0.0,
			"-0.021": 0.0,
			"-0.02": 0.0,
			"-0.019": 0.0,
			"-0.018": 0.345973040284,
			"-0.017": 1.61748934613,
			"-0.016": 1.44422732361,
			"-0.015": 1.16002408136,
			"-0.014": 1.15136389105,
			"-0.013": 1.12169641933,
			"-0.012": 1.12420411904,
			"-0.011": 1.57185793596,
			"-0.01": 2.32965326818,
			"-0.009": 4.30587048331,
			"-0.008": 6.68219432113,
			"-0.007": 7.11608434895,
			"-0.006": 7.49656099542,
			"-0.005": 9.10248768093,
			"-0.004": 8.83588409297,
			"-0.003": 12.4398466134,
			"-0.002": 13.8644468985,
			"-0.001": 16.9590185748,
			"0.0": 17.2991065925,
			"0.001": 14.0074930547,
			"0.002": 22.8644988129,
			"0.003": 23.0613053663,
			"0.004": 3.28451156143,
			"0.005": 3.1813050926,
			"0.006": 3.54850342611,
			"0.007": 4.00039034084,
			"0.008": 6.53403777747,
			"0.009": 5.62248245905,
			"0.01": 8.6461189887,
			"0.011": 8.18779634211,
			"0.012": 1.53714996262,
			"0.013": 0.000737996249202,
			"0.014": 0.0,
			"0.015": 0.0,
			"0.016": 0.0,
			"0.017": 0.0,
			"0.018": 0.0,
			"0.019": 0.0,
			"0.02": 0.0,
			"0.021": 0.0,
			"0.022": 0.0,
			"0.023": 0.0,
			"0.024": 0.0,
			"0.025": 0.0
		}
	}
}
