{
	 "smiles": "CC1=C(Br)C=CC=C1Br", 
	 "Tm": 277.15, 
	 "num_atms": 15, 
	 "gaussian": { 
		 "optdone": 1, 
		 "sigma_profile": "yes", 
		 "theory": "DFT", 
		 "functional": "B3LYP", 
		 "basiset": "6-31G**", 
		 "properties": { 
			 "R2extent": 3481.2575, 
			 "electric_dipole_moment_norm": 1.04739294441, 
			 "electric_quadrupole_moment_norm": 7.13197992776, 
			 "total_energy": -5413.17421644, 
			 "HOMO_LUMO_gap": 0.22182, 
			 "cosmo_polarized_energy": -3.34, 
			 "cosmo_cavitation_energy": 22.78, 
			 "cosmo_dispersion_energy": -17.86, 
			 "cosmo_repulsion_energy": 1.44, 
			 "cosmo_total_nonelectrostatic_energy": 6.36, 
			 "SMD_solvation_energy": 1.87 
		},
		"coords": [
			{
				"x": -1.0128309194,
				"y": -1.0682450568,
				"z": -1.6844020215,
				"element": "C" 
			},
			{
				"x": -0.3005549475,
				"y": -1.0755156723,
				"z": -0.3576794454,
				"element": "C" 
			},
			{
				"x": 0.2428338576,
				"y": 0.0900947585,
				"z": 0.2130833557,
				"element": "C" 
			},
			{
				"x": 0.112968674,
				"y": 1.7692874568,
				"z": -0.7076307027,
				"element": "Br" 
			},
			{
				"x": 0.9027295074,
				"y": 0.1007249234,
				"z": 1.4403894343,
				"element": "C" 
			},
			{
				"x": 1.0456065527,
				"y": -1.0892901458,
				"z": 2.1488017145,
				"element": "C" 
			},
			{
				"x": 0.5373910369,
				"y": -2.2742936084,
				"z": 1.6235589518,
				"element": "C" 
			},
			{
				"x": -0.1172751301,
				"y": -2.2509423716,
				"z": 0.3936329623,
				"element": "C" 
			},
			{
				"x": -0.7642505651,
				"y": -3.9326698111,
				"z": -0.2678655291,
				"element": "Br" 
			},
			{
				"x": -0.3057237141,
				"y": -1.2402388716,
				"z": -2.5051804452,
				"element": "H" 
			},
			{
				"x": -1.7639543965,
				"y": -1.857570722,
				"z": -1.7280643813,
				"element": "H" 
			},
			{
				"x": -1.494608076,
				"y": -0.1064188882,
				"z": -1.8630279919,
				"element": "H" 
			},
			{
				"x": 1.297716464,
				"y": 1.03128486,
				"z": 1.8301873486,
				"element": "H" 
			},
			{
				"x": 1.5556281155,
				"y": -1.0938441182,
				"z": 3.1070390871,
				"element": "H" 
			},
			{
				"x": 0.6451235407,
				"y": -3.2109627327,
				"z": 2.1573576629,
				"element": "H" 
			}
		],
		 "valence_orbital": [ 
			{
				"type": "occ",
				"energy": -0.30315,
				"method": "rhf"
			},
			{
				"type": "occ",
				"energy": -0.29547,
				"method": "rhf"
			},
			{
				"type": "occ",
				"energy": -0.28635,
				"method": "rhf"
			},
			{
				"type": "occ",
				"energy": -0.25327,
				"method": "rhf"
			},
			{
				"type": "occ",
				"energy": -0.24557,
				"method": "rhf"
			},
			{
				"type": "unocc",
				"energy": -0.02375,
				"method": "rhf"
			},
			{
				"type": "unocc",
				"energy": -0.02187,
				"method": "rhf"
			},
			{
				"type": "unocc",
				"energy": -0.01678,
				"method": "rhf"
			},
			{
				"type": "unocc",
				"energy": 0.02606,
				"method": "rhf"
			},
			{
				"type": "unocc",
				"energy": 0.11062,
				"method": "rhf"
			}
		],
		"cosmo_sigma_profile": { 
			"-0.025": 0.0,
			"-0.024": 0.0,
			"-0.023": 0.0,
			"-0.022": 0.0,
			"-0.021": 0.0,
			"-0.02": 0.0,
			"-0.019": 0.0,
			"-0.018": 0.0,
			"-0.017": 0.0,
			"-0.016": 0.0,
			"-0.015": 0.0,
			"-0.014": 0.0,
			"-0.013": 0.0,
			"-0.012": 0.0,
			"-0.011": 0.0,
			"-0.01": 0.0,
			"-0.009": 0.0,
			"-0.008": 0.529641205645,
			"-0.007": 5.70457452711,
			"-0.006": 6.10429017298,
			"-0.005": 8.20382541263,
			"-0.004": 9.92904136218,
			"-0.003": 13.0352603491,
			"-0.002": 14.4767098469,
			"-0.001": 18.3657743932,
			"0.0": 18.1634881221,
			"0.001": 20.0225378386,
			"0.002": 27.1990113527,
			"0.003": 22.4217841005,
			"0.004": 18.5346977504,
			"0.005": 6.20541594297,
			"0.006": 0.0,
			"0.007": 0.0,
			"0.008": 0.0,
			"0.009": 0.0,
			"0.01": 0.0,
			"0.011": 0.0,
			"0.012": 0.0,
			"0.013": 0.0,
			"0.014": 0.0,
			"0.015": 0.0,
			"0.016": 0.0,
			"0.017": 0.0,
			"0.018": 0.0,
			"0.019": 0.0,
			"0.02": 0.0,
			"0.021": 0.0,
			"0.022": 0.0,
			"0.023": 0.0,
			"0.024": 0.0,
			"0.025": 0.0
		}
	}
}
