{
	 "smiles": "CC(=CC1=CC=C(F)C=C1)C(O)=O", 
	 "Tm": 424.15, 
	 "num_atms": 22, 
	 "gaussian": { 
		 "optdone": 1, 
		 "sigma_profile": "yes", 
		 "theory": "DFT", 
		 "functional": "B3LYP", 
		 "basiset": "6-31G**", 
		 "properties": { 
			 "R2extent": 3231.1589, 
			 "electric_dipole_moment_norm": 1.1967341643, 
			 "electric_quadrupole_moment_norm": 11.2515555049, 
			 "total_energy": -636.770291091, 
			 "HOMO_LUMO_gap": 0.1713, 
			 "cosmo_polarized_energy": -10.28, 
			 "cosmo_cavitation_energy": 27.14, 
			 "cosmo_dispersion_energy": -19.35, 
			 "cosmo_repulsion_energy": 1.52, 
			 "cosmo_total_nonelectrostatic_energy": 9.31, 
			 "SMD_solvation_energy": 6.43 
		},
		"coords": [
			{
				"x": -1.3897775361,
				"y": -3.3888110287,
				"z": -1.0769618222,
				"element": "C" 
			},
			{
				"x": -1.3732826163,
				"y": -1.9631950895,
				"z": -0.5756935886,
				"element": "C" 
			},
			{
				"x": -0.4538283814,
				"y": -1.5589472754,
				"z": 0.3299860806,
				"element": "C" 
			},
			{
				"x": -0.1190525315,
				"y": -0.2419019619,
				"z": 0.8974587117,
				"element": "C" 
			},
			{
				"x": 0.3447119771,
				"y": -0.1921162136,
				"z": 2.2253712415,
				"element": "C" 
			},
			{
				"x": 0.7192378959,
				"y": 1.0087255827,
				"z": 2.822595184,
				"element": "C" 
			},
			{
				"x": 0.656973293,
				"y": 2.1726500861,
				"z": 2.0653840475,
				"element": "C" 
			},
			{
				"x": 1.0285752065,
				"y": 3.3409942505,
				"z": 2.62637129,
				"element": "F" 
			},
			{
				"x": 0.2387075224,
				"y": 2.1635100461,
				"z": 0.7383829405,
				"element": "C" 
			},
			{
				"x": -0.1462875144,
				"y": 0.9569431113,
				"z": 0.1622355325,
				"element": "C" 
			},
			{
				"x": -2.4515191759,
				"y": -1.1313773817,
				"z": -1.1817639545,
				"element": "C" 
			},
			{
				"x": -2.8048319135,
				"y": -0.0341721152,
				"z": -0.4691837794,
				"element": "O" 
			},
			{
				"x": -3.0285381131,
				"y": -1.4345689321,
				"z": -2.2097649624,
				"element": "O" 
			},
			{
				"x": -1.2453179482,
				"y": -3.4132149728,
				"z": -2.1617450338,
				"element": "H" 
			},
			{
				"x": -2.3561669242,
				"y": -3.8678670459,
				"z": -0.8846743045,
				"element": "H" 
			},
			{
				"x": -0.60372477,
				"y": -3.9815895328,
				"z": -0.6034126588,
				"element": "H" 
			},
			{
				"x": 0.1862296794,
				"y": -2.3560320641,
				"z": 0.7106424349,
				"element": "H" 
			},
			{
				"x": 0.4004989243,
				"y": -1.1109033378,
				"z": 2.8029122734,
				"element": "H" 
			},
			{
				"x": 1.0635320381,
				"y": 1.0524785835,
				"z": 3.8500414346,
				"element": "H" 
			},
			{
				"x": 0.2289673943,
				"y": 3.0900477597,
				"z": 0.1745946748,
				"element": "H" 
			},
			{
				"x": -0.4561334352,
				"y": 0.9431336184,
				"z": -0.875608429,
				"element": "H" 
			},
			{
				"x": -3.527273071,
				"y": 0.3780139132,
				"z": -0.9721673128,
				"element": "H" 
			}
		],
		 "valence_orbital": [ 
			{
				"type": "occ",
				"energy": -0.31706,
				"method": "rhf"
			},
			{
				"type": "occ",
				"energy": -0.28927,
				"method": "rhf"
			},
			{
				"type": "occ",
				"energy": -0.27683,
				"method": "rhf"
			},
			{
				"type": "occ",
				"energy": -0.26396,
				"method": "rhf"
			},
			{
				"type": "occ",
				"energy": -0.23007,
				"method": "rhf"
			},
			{
				"type": "unocc",
				"energy": -0.05877,
				"method": "rhf"
			},
			{
				"type": "unocc",
				"energy": -0.0141,
				"method": "rhf"
			},
			{
				"type": "unocc",
				"energy": 0.01203,
				"method": "rhf"
			},
			{
				"type": "unocc",
				"energy": 0.07133,
				"method": "rhf"
			},
			{
				"type": "unocc",
				"energy": 0.08482,
				"method": "rhf"
			}
		],
		"cosmo_sigma_profile": { 
			"-0.025": 0.0,
			"-0.024": 0.0,
			"-0.023": 0.0,
			"-0.022": 0.0,
			"-0.021": 0.0,
			"-0.02": 0.0,
			"-0.019": 0.0,
			"-0.018": 0.437453333294,
			"-0.017": 0.82184130963,
			"-0.016": 1.01118772524,
			"-0.015": 0.899619760324,
			"-0.014": 0.365302453477,
			"-0.013": 0.71609340836,
			"-0.012": 0.707920550509,
			"-0.011": 0.884417781609,
			"-0.01": 0.7536231351,
			"-0.009": 0.572803417328,
			"-0.008": 0.643254043022,
			"-0.007": 6.61561014396,
			"-0.006": 13.7351615236,
			"-0.005": 12.5973497217,
			"-0.004": 14.2280787359,
			"-0.003": 12.6910238323,
			"-0.002": 13.1683336392,
			"-0.001": 15.0779094667,
			"0.0": 20.0028065844,
			"0.001": 18.9785091327,
			"0.002": 14.7359080488,
			"0.003": 17.8525415327,
			"0.004": 19.0918382662,
			"0.005": 6.23257043821,
			"0.006": 2.86010324882,
			"0.007": 3.57296516679,
			"0.008": 2.44378267565,
			"0.009": 3.33636755308,
			"0.01": 2.61603231245,
			"0.011": 2.96432312659,
			"0.012": 5.07586966026,
			"0.013": 0.650428674988,
			"0.014": 0.0,
			"0.015": 0.0,
			"0.016": 0.0,
			"0.017": 0.0,
			"0.018": 0.0,
			"0.019": 0.0,
			"0.02": 0.0,
			"0.021": 0.0,
			"0.022": 0.0,
			"0.023": 0.0,
			"0.024": 0.0,
			"0.025": 0.0
		}
	}
}
