{
	 "smiles": "COC1=CC=C(CCN2CC(CC2=O)C(O)=O)C=C1OC", 
	 "Tm": 402.15, 
	 "num_atms": 40, 
	 "gaussian": { 
		 "optdone": 1, 
		 "sigma_profile": "yes", 
		 "theory": "DFT", 
		 "functional": "B3LYP", 
		 "basiset": "6-31G**", 
		 "properties": { 
			 "R2extent": 6311.1069, 
			 "electric_dipole_moment_norm": 2.92988241061, 
			 "electric_quadrupole_moment_norm": 27.3590270465, 
			 "total_energy": -1013.92401088, 
			 "HOMO_LUMO_gap": 0.21761, 
			 "cosmo_polarized_energy": -17.36, 
			 "cosmo_cavitation_energy": 40.13, 
			 "cosmo_dispersion_energy": -27.52, 
			 "cosmo_repulsion_energy": 2.05, 
			 "cosmo_total_nonelectrostatic_energy": 14.66, 
			 "SMD_solvation_energy": 8.59 
		},
		"coords": [
			{
				"x": -2.039737512,
				"y": 2.060443207,
				"z": 3.2096231096,
				"element": "C" 
			},
			{
				"x": -2.2113476834,
				"y": 1.6073615512,
				"z": 1.866189324,
				"element": "O" 
			},
			{
				"x": -1.2387535045,
				"y": 0.7169357017,
				"z": 1.4486482759,
				"element": "C" 
			},
			{
				"x": -1.4045432248,
				"y": -0.6444555593,
				"z": 1.7220833142,
				"element": "C" 
			},
			{
				"x": -0.451993497,
				"y": -1.582871614,
				"z": 1.3363417383,
				"element": "C" 
			},
			{
				"x": 0.7162352232,
				"y": -1.1696462762,
				"z": 0.6803349461,
				"element": "C" 
			},
			{
				"x": 1.7555081838,
				"y": -2.1629959142,
				"z": 0.2105644998,
				"element": "C" 
			},
			{
				"x": 1.5367829719,
				"y": -2.671377648,
				"z": -1.2353708336,
				"element": "C" 
			},
			{
				"x": 1.5827025031,
				"y": -1.6160178852,
				"z": -2.2384208956,
				"element": "N" 
			},
			{
				"x": 0.432506603,
				"y": -1.1885222297,
				"z": -3.0260505655,
				"element": "C" 
			},
			{
				"x": 0.9357428646,
				"y": 0.1252307071,
				"z": -3.6954290141,
				"element": "C" 
			},
			{
				"x": 2.453869477,
				"y": -0.0964925779,
				"z": -3.7964154558,
				"element": "C" 
			},
			{
				"x": 2.7714180863,
				"y": -1.0808297036,
				"z": -2.6674307254,
				"element": "C" 
			},
			{
				"x": 3.8724179075,
				"y": -1.3692279156,
				"z": -2.2224289911,
				"element": "O" 
			},
			{
				"x": 0.4958831232,
				"y": 1.2915649799,
				"z": -2.8152253047,
				"element": "C" 
			},
			{
				"x": 1.5006352232,
				"y": 1.8711872284,
				"z": -2.1327554224,
				"element": "O" 
			},
			{
				"x": -0.6670126088,
				"y": 1.6222100693,
				"z": -2.7022071705,
				"element": "O" 
			},
			{
				"x": 0.8792293113,
				"y": 0.1913958438,
				"z": 0.4098961803,
				"element": "C" 
			},
			{
				"x": -0.0947476851,
				"y": 1.1402313252,
				"z": 0.7466739125,
				"element": "C" 
			},
			{
				"x": 0.1808484259,
				"y": 2.4392614021,
				"z": 0.3702479409,
				"element": "O" 
			},
			{
				"x": -0.9013608462,
				"y": 3.3506045472,
				"z": 0.0950631237,
				"element": "C" 
			},
			{
				"x": -1.1055915673,
				"y": 2.6260701175,
				"z": 3.3266040867,
				"element": "H" 
			},
			{
				"x": -2.8884330398,
				"y": 2.7117323246,
				"z": 3.4303493321,
				"element": "H" 
			},
			{
				"x": -2.0334553654,
				"y": 1.2208461451,
				"z": 3.9159619644,
				"element": "H" 
			},
			{
				"x": -2.3069922084,
				"y": -0.9459175827,
				"z": 2.2459389794,
				"element": "H" 
			},
			{
				"x": -0.6105222323,
				"y": -2.6354072737,
				"z": 1.5562033091,
				"element": "H" 
			},
			{
				"x": 1.7620617245,
				"y": -3.0402330767,
				"z": 0.8686039622,
				"element": "H" 
			},
			{
				"x": 2.7546541295,
				"y": -1.7196349315,
				"z": 0.2528318459,
				"element": "H" 
			},
			{
				"x": 2.3207013694,
				"y": -3.4019004102,
				"z": -1.4655248244,
				"element": "H" 
			},
			{
				"x": 0.567794976,
				"y": -3.1733363637,
				"z": -1.3182574833,
				"element": "H" 
			},
			{
				"x": -0.4462628047,
				"y": -1.0169228949,
				"z": -2.3998153078,
				"element": "H" 
			},
			{
				"x": 0.168632232,
				"y": -1.9367091874,
				"z": -3.7889256316,
				"element": "H" 
			},
			{
				"x": 0.4473987752,
				"y": 0.2632263272,
				"z": -4.6630540162,
				"element": "H" 
			},
			{
				"x": 3.0490875732,
				"y": 0.8103034699,
				"z": -3.6918648716,
				"element": "H" 
			},
			{
				"x": 2.719662675,
				"y": -0.568626549,
				"z": -4.7496984342,
				"element": "H" 
			},
			{
				"x": 1.0997819264,
				"y": 2.3870705671,
				"z": -1.4006217444,
				"element": "H" 
			},
			{
				"x": 1.7743312963,
				"y": 0.5360312603,
				"z": -0.0939541025,
				"element": "H" 
			},
			{
				"x": -0.440654225,
				"y": 4.1851824751,
				"z": -0.4383297113,
				"element": "H" 
			},
			{
				"x": -1.6500629029,
				"y": 2.8800935411,
				"z": -0.544680178,
				"element": "H" 
			},
			{
				"x": -1.362815674,
				"y": 3.7137428029,
				"z": 1.0135008388,
				"element": "H" 
			}
		],
		 "valence_orbital": [ 
			{
				"type": "occ",
				"energy": -0.27184,
				"method": "rhf"
			},
			{
				"type": "occ",
				"energy": -0.2446,
				"method": "rhf"
			},
			{
				"type": "occ",
				"energy": -0.24038,
				"method": "rhf"
			},
			{
				"type": "occ",
				"energy": -0.2385,
				"method": "rhf"
			},
			{
				"type": "occ",
				"energy": -0.22244,
				"method": "rhf"
			},
			{
				"type": "unocc",
				"energy": -0.00483,
				"method": "rhf"
			},
			{
				"type": "unocc",
				"energy": 0.00133,
				"method": "rhf"
			},
			{
				"type": "unocc",
				"energy": 0.00447,
				"method": "rhf"
			},
			{
				"type": "unocc",
				"energy": 0.03232,
				"method": "rhf"
			},
			{
				"type": "unocc",
				"energy": 0.07059,
				"method": "rhf"
			}
		],
		"cosmo_sigma_profile": { 
			"-0.025": 0.0,
			"-0.024": 0.0,
			"-0.023": 0.0,
			"-0.022": 0.0,
			"-0.021": 0.0,
			"-0.02": 0.0,
			"-0.019": 0.0,
			"-0.018": 0.0,
			"-0.017": 0.0,
			"-0.016": 0.0,
			"-0.015": 0.0,
			"-0.014": 0.0,
			"-0.013": 0.0,
			"-0.012": 0.0,
			"-0.011": 0.204988941148,
			"-0.01": 0.58655990065,
			"-0.009": 1.14459175846,
			"-0.008": 0.584641004603,
			"-0.007": 3.34336880917,
			"-0.006": 16.1841008338,
			"-0.005": 29.1542189008,
			"-0.004": 39.194299026,
			"-0.003": 43.4871666356,
			"-0.002": 31.0207418037,
			"-0.001": 21.6005831022,
			"0.0": 14.3961731663,
			"0.001": 13.0063982914,
			"0.002": 13.1868539727,
			"0.003": 14.8434418488,
			"0.004": 14.6902216867,
			"0.005": 12.8521475478,
			"0.006": 6.99438241698,
			"0.007": 5.69848304948,
			"0.008": 5.07095880722,
			"0.009": 4.07850821232,
			"0.01": 4.48739421822,
			"0.011": 4.88967298756,
			"0.012": 4.43084110275,
			"0.013": 3.63450515204,
			"0.014": 5.06208979819,
			"0.015": 1.46108892513,
			"0.016": 0.00336842909182,
			"0.017": 0.0,
			"0.018": 0.0,
			"0.019": 0.0,
			"0.02": 0.0,
			"0.021": 0.0,
			"0.022": 0.0,
			"0.023": 0.0,
			"0.024": 0.0,
			"0.025": 0.0
		}
	}
}
