{
	 "smiles": "COC(=O)C#CC1=C(F)C=C(F)C=C1", 
	 "Tm": 332.15, 
	 "num_atms": 20, 
	 "gaussian": { 
		 "optdone": 1, 
		 "sigma_profile": "yes", 
		 "theory": "DFT", 
		 "functional": "B3LYP", 
		 "basiset": "6-31G**", 
		 "properties": { 
			 "R2extent": 5402.8586, 
			 "electric_dipole_moment_norm": 1.22253590949, 
			 "electric_quadrupole_moment_norm": 12.4571791671, 
			 "total_energy": -734.731802607, 
			 "HOMO_LUMO_gap": 0.17977, 
			 "cosmo_polarized_energy": -8.93, 
			 "cosmo_cavitation_energy": 28.22, 
			 "cosmo_dispersion_energy": -19.84, 
			 "cosmo_repulsion_energy": 1.55, 
			 "cosmo_total_nonelectrostatic_energy": 9.93, 
			 "SMD_solvation_energy": 7.91 
		},
		"coords": [
			{
				"x": 5.4237903357,
				"y": -1.5258471409,
				"z": -4.1216291452,
				"element": "C" 
			},
			{
				"x": 4.3898357272,
				"y": -1.4413315552,
				"z": -3.1258512807,
				"element": "O" 
			},
			{
				"x": 3.447606524,
				"y": -0.5047379545,
				"z": -3.3654603728,
				"element": "C" 
			},
			{
				"x": 3.4383869392,
				"y": 0.2288064329,
				"z": -4.3339094529,
				"element": "O" 
			},
			{
				"x": 2.4516473547,
				"y": -0.4872213982,
				"z": -2.3216433743,
				"element": "C" 
			},
			{
				"x": 1.5792081373,
				"y": -0.4174578112,
				"z": -1.4809516996,
				"element": "C" 
			},
			{
				"x": 0.5493422986,
				"y": -0.319690409,
				"z": -0.5085186781,
				"element": "C" 
			},
			{
				"x": 0.5363717458,
				"y": -1.1600459434,
				"z": 0.6201801277,
				"element": "C" 
			},
			{
				"x": 1.5160014298,
				"y": -2.0617248897,
				"z": 0.7677554999,
				"element": "F" 
			},
			{
				"x": -0.4539588542,
				"y": -1.0913091795,
				"z": 1.5889253064,
				"element": "C" 
			},
			{
				"x": -1.4616937127,
				"y": -0.1482088573,
				"z": 1.4163745961,
				"element": "C" 
			},
			{
				"x": -2.4287600326,
				"y": -0.0675616022,
				"z": 2.3446739922,
				"element": "F" 
			},
			{
				"x": -1.5027985141,
				"y": 0.7111228788,
				"z": 0.3204363496,
				"element": "C" 
			},
			{
				"x": -0.4966236501,
				"y": 0.6184083507,
				"z": -0.6335338722,
				"element": "C" 
			},
			{
				"x": 6.0891427723,
				"y": -2.3192866751,
				"z": -3.7824338398,
				"element": "H" 
			},
			{
				"x": 5.9624400148,
				"y": -0.578004336,
				"z": -4.198739277,
				"element": "H" 
			},
			{
				"x": 4.9987427437,
				"y": -1.7704342343,
				"z": -5.0983217637,
				"element": "H" 
			},
			{
				"x": -0.4396742504,
				"y": -1.750466731,
				"z": 2.4480841436,
				"element": "H" 
			},
			{
				"x": -2.3093189654,
				"y": 1.4293690661,
				"z": 0.2308627715,
				"element": "H" 
			},
			{
				"x": -0.5018880436,
				"y": 1.2738219891,
				"z": -1.4974000305,
				"element": "H" 
			}
		],
		 "valence_orbital": [ 
			{
				"type": "occ",
				"energy": -0.30501,
				"method": "rhf"
			},
			{
				"type": "occ",
				"energy": -0.30473,
				"method": "rhf"
			},
			{
				"type": "occ",
				"energy": -0.27684,
				"method": "rhf"
			},
			{
				"type": "occ",
				"energy": -0.27302,
				"method": "rhf"
			},
			{
				"type": "occ",
				"energy": -0.24691,
				"method": "rhf"
			},
			{
				"type": "unocc",
				"energy": -0.06714,
				"method": "rhf"
			},
			{
				"type": "unocc",
				"energy": -0.02689,
				"method": "rhf"
			},
			{
				"type": "unocc",
				"energy": 0.0083,
				"method": "rhf"
			},
			{
				"type": "unocc",
				"energy": 0.0265,
				"method": "rhf"
			},
			{
				"type": "unocc",
				"energy": 0.07056,
				"method": "rhf"
			}
		],
		"cosmo_sigma_profile": { 
			"-0.025": 0.0,
			"-0.024": 0.0,
			"-0.023": 0.0,
			"-0.022": 0.0,
			"-0.021": 0.0,
			"-0.02": 0.0,
			"-0.019": 0.0,
			"-0.018": 0.0,
			"-0.017": 0.0,
			"-0.016": 0.0,
			"-0.015": 0.0,
			"-0.014": 0.0,
			"-0.013": 0.0,
			"-0.012": 0.0,
			"-0.011": 0.0,
			"-0.01": 0.274262232464,
			"-0.009": 2.03684025522,
			"-0.008": 5.70253030316,
			"-0.007": 7.39856834515,
			"-0.006": 11.5678255455,
			"-0.005": 11.3958611701,
			"-0.004": 14.9909254896,
			"-0.003": 13.3292800836,
			"-0.002": 15.399240873,
			"-0.001": 25.4860169836,
			"0.0": 21.4951446589,
			"0.001": 18.5061597095,
			"0.002": 15.3370652726,
			"0.003": 26.9431686877,
			"0.004": 11.9107348442,
			"0.005": 4.53863236895,
			"0.006": 3.9170495837,
			"0.007": 1.90295302754,
			"0.008": 4.03711095986,
			"0.009": 2.40938021919,
			"0.01": 2.5007611232,
			"0.011": 5.1481461231,
			"0.012": 2.15125033487,
			"0.013": 0.0790538272232,
			"0.014": 0.0,
			"0.015": 0.0,
			"0.016": 0.0,
			"0.017": 0.0,
			"0.018": 0.0,
			"0.019": 0.0,
			"0.02": 0.0,
			"0.021": 0.0,
			"0.022": 0.0,
			"0.023": 0.0,
			"0.024": 0.0,
			"0.025": 0.0
		}
	}
}
