{
	 "smiles": "OC(=O)C1(CCOCC1)C1=CC=CC=C1", 
	 "Tm": 402.15, 
	 "num_atms": 29, 
	 "gaussian": { 
		 "optdone": 1, 
		 "sigma_profile": "yes", 
		 "theory": "DFT", 
		 "functional": "B3LYP", 
		 "basiset": "6-31G**", 
		 "properties": { 
			 "R2extent": 3003.7725, 
			 "electric_dipole_moment_norm": 4.70265562103, 
			 "electric_quadrupole_moment_norm": 15.7861553169, 
			 "total_energy": -691.383131634, 
			 "HOMO_LUMO_gap": 0.22007, 
			 "cosmo_polarized_energy": -14.68, 
			 "cosmo_cavitation_energy": 30.0, 
			 "cosmo_dispersion_energy": -21.7, 
			 "cosmo_repulsion_energy": 1.68, 
			 "cosmo_total_nonelectrostatic_energy": 9.98, 
			 "SMD_solvation_energy": 5.78 
		},
		"coords": [
			{
				"x": 0.5325503552,
				"y": -0.6700864707,
				"z": 2.7871518359,
				"element": "O" 
			},
			{
				"x": 1.3138626321,
				"y": -1.1134235239,
				"z": 1.7732416199,
				"element": "C" 
			},
			{
				"x": 2.2270852961,
				"y": -1.8699208568,
				"z": 1.9969598882,
				"element": "O" 
			},
			{
				"x": 1.0060791834,
				"y": -0.5181832646,
				"z": 0.3723388785,
				"element": "C" 
			},
			{
				"x": 1.6484924018,
				"y": -1.4234678009,
				"z": -0.7111401791,
				"element": "C" 
			},
			{
				"x": 1.7102724289,
				"y": -0.726368461,
				"z": -2.0701590893,
				"element": "C" 
			},
			{
				"x": 2.4489798106,
				"y": 0.4876487456,
				"z": -2.0036736508,
				"element": "O" 
			},
			{
				"x": 1.8526326799,
				"y": 1.4096288949,
				"z": -1.1072964748,
				"element": "C" 
			},
			{
				"x": 1.7659862322,
				"y": 0.8431074262,
				"z": 0.3163060464,
				"element": "C" 
			},
			{
				"x": -0.5207872838,
				"y": -0.3998075544,
				"z": 0.2005770098,
				"element": "C" 
			},
			{
				"x": -1.2924558454,
				"y": -1.5739215191,
				"z": 0.1071824086,
				"element": "C" 
			},
			{
				"x": -2.6801780012,
				"y": -1.5247804274,
				"z": 0.000635554,
				"element": "C" 
			},
			{
				"x": -3.3426820856,
				"y": -0.2947269331,
				"z": -0.0108139794,
				"element": "C" 
			},
			{
				"x": -2.600091335,
				"y": 0.8784995882,
				"z": 0.0952507132,
				"element": "C" 
			},
			{
				"x": -1.2062244552,
				"y": 0.8259881795,
				"z": 0.2031461015,
				"element": "C" 
			},
			{
				"x": -0.2063178461,
				"y": -0.1548640256,
				"z": 2.4249017501,
				"element": "H" 
			},
			{
				"x": 2.6610260465,
				"y": -1.6692550668,
				"z": -0.3819229783,
				"element": "H" 
			},
			{
				"x": 1.1087351328,
				"y": -2.3705116941,
				"z": -0.8046262553,
				"element": "H" 
			},
			{
				"x": 0.6946118314,
				"y": -0.531139663,
				"z": -2.4539209976,
				"element": "H" 
			},
			{
				"x": 2.228135191,
				"y": -1.3580108322,
				"z": -2.7976120999,
				"element": "H" 
			},
			{
				"x": 0.856107897,
				"y": 1.7011200739,
				"z": -1.4756476477,
				"element": "H" 
			},
			{
				"x": 2.4865774828,
				"y": 2.3017018828,
				"z": -1.11508111,
				"element": "H" 
			},
			{
				"x": 1.3254259071,
				"y": 1.5794916691,
				"z": 0.9972878005,
				"element": "H" 
			},
			{
				"x": 2.7863883044,
				"y": 0.6605240413,
				"z": 0.6695424099,
				"element": "H" 
			},
			{
				"x": -0.802511651,
				"y": -2.5427430691,
				"z": 0.1330403015,
				"element": "H" 
			},
			{
				"x": -3.2456332787,
				"y": -2.4495516668,
				"z": -0.0683858147,
				"element": "H" 
			},
			{
				"x": -4.4244511067,
				"y": -0.2547217922,
				"z": -0.0958730611,
				"element": "H" 
			},
			{
				"x": -3.0988603744,
				"y": 1.8433922288,
				"z": 0.0923651447,
				"element": "H" 
			},
			{
				"x": -0.6605555498,
				"y": 1.7594818917,
				"z": 0.2800258751,
				"element": "H" 
			}
		],
		 "valence_orbital": [ 
			{
				"type": "occ",
				"energy": -0.30786,
				"method": "rhf"
			},
			{
				"type": "occ",
				"energy": -0.28029,
				"method": "rhf"
			},
			{
				"type": "occ",
				"energy": -0.26998,
				"method": "rhf"
			},
			{
				"type": "occ",
				"energy": -0.26186,
				"method": "rhf"
			},
			{
				"type": "occ",
				"energy": -0.24653,
				"method": "rhf"
			},
			{
				"type": "unocc",
				"energy": -0.02646,
				"method": "rhf"
			},
			{
				"type": "unocc",
				"energy": -0.02462,
				"method": "rhf"
			},
			{
				"type": "unocc",
				"energy": 0.0129,
				"method": "rhf"
			},
			{
				"type": "unocc",
				"energy": 0.07087,
				"method": "rhf"
			},
			{
				"type": "unocc",
				"energy": 0.08516,
				"method": "rhf"
			}
		],
		"cosmo_sigma_profile": { 
			"-0.025": 0.0,
			"-0.024": 0.0,
			"-0.023": 0.0,
			"-0.022": 0.0,
			"-0.021": 0.0,
			"-0.02": 0.0,
			"-0.019": 0.0,
			"-0.018": 0.0,
			"-0.017": 0.0,
			"-0.016": 0.0,
			"-0.015": 0.0,
			"-0.014": 0.226205793416,
			"-0.013": 0.895510963863,
			"-0.012": 1.0722518713,
			"-0.011": 1.12085821088,
			"-0.01": 1.54281937735,
			"-0.009": 0.929720957784,
			"-0.008": 1.10294125035,
			"-0.007": 6.36533576814,
			"-0.006": 11.9070671746,
			"-0.005": 19.2608363425,
			"-0.004": 24.0059952979,
			"-0.003": 26.8826545034,
			"-0.002": 24.2327543759,
			"-0.001": 15.8889893441,
			"0.0": 13.04064121,
			"0.001": 9.62753292515,
			"0.002": 11.4293440172,
			"0.003": 9.27333176298,
			"0.004": 10.0871254864,
			"0.005": 8.32118542755,
			"0.006": 4.41401958827,
			"0.007": 3.74596377865,
			"0.008": 3.68019365554,
			"0.009": 4.21101949309,
			"0.01": 6.31742035944,
			"0.011": 6.31302268343,
			"0.012": 6.44087618605,
			"0.013": 3.19994618833,
			"0.014": 0.616738685303,
			"0.015": 0.0,
			"0.016": 0.0,
			"0.017": 0.0,
			"0.018": 0.0,
			"0.019": 0.0,
			"0.02": 0.0,
			"0.021": 0.0,
			"0.022": 0.0,
			"0.023": 0.0,
			"0.024": 0.0,
			"0.025": 0.0
		}
	}
}
