{
	 "smiles": "NC(=O)CNC1=CC=CC=C1", 
	 "Tm": 413.15, 
	 "num_atms": 21, 
	 "gaussian": { 
		 "optdone": 1, 
		 "sigma_profile": "yes", 
		 "theory": "DFT", 
		 "functional": "B3LYP", 
		 "basiset": "6-31G**", 
		 "properties": { 
			 "R2extent": 2599.3655, 
			 "electric_dipole_moment_norm": 2.89707439152, 
			 "electric_quadrupole_moment_norm": 16.4152869847, 
			 "total_energy": -495.619007816, 
			 "HOMO_LUMO_gap": 0.20635, 
			 "cosmo_polarized_energy": -14.73, 
			 "cosmo_cavitation_energy": 24.9, 
			 "cosmo_dispersion_energy": -18.44, 
			 "cosmo_repulsion_energy": 1.51, 
			 "cosmo_total_nonelectrostatic_energy": 7.96, 
			 "SMD_solvation_energy": 4.82 
		},
		"coords": [
			{
				"x": -1.6384099998,
				"y": 0.0881356175,
				"z": -2.4002735671,
				"element": "N" 
			},
			{
				"x": -2.3256336941,
				"y": -0.3085628269,
				"z": -1.2911897599,
				"element": "C" 
			},
			{
				"x": -3.5439035357,
				"y": -0.3168527636,
				"z": -1.2097071087,
				"element": "O" 
			},
			{
				"x": -1.4469922577,
				"y": -0.7804174932,
				"z": -0.1268696066,
				"element": "C" 
			},
			{
				"x": -0.1006273778,
				"y": -0.231842754,
				"z": -0.1776395297,
				"element": "N" 
			},
			{
				"x": 0.9234607045,
				"y": -0.7182298187,
				"z": 0.6554126958,
				"element": "C" 
			},
			{
				"x": 0.8455626595,
				"y": -1.9492320819,
				"z": 1.3265886609,
				"element": "C" 
			},
			{
				"x": 1.9226704476,
				"y": -2.4021301491,
				"z": 2.0916438801,
				"element": "C" 
			},
			{
				"x": 3.0849854639,
				"y": -1.6436391257,
				"z": 2.2178009495,
				"element": "C" 
			},
			{
				"x": 3.1609187792,
				"y": -0.4115503786,
				"z": 1.5613328497,
				"element": "C" 
			},
			{
				"x": 2.0984783806,
				"y": 0.0458490808,
				"z": 0.7898261857,
				"element": "C" 
			},
			{
				"x": -0.6404957972,
				"y": -0.0533814507,
				"z": -2.4495035797,
				"element": "H" 
			},
			{
				"x": -2.1648245216,
				"y": 0.2969930213,
				"z": -3.2348483105,
				"element": "H" 
			},
			{
				"x": -1.9932727565,
				"y": -0.5604141032,
				"z": 0.8010037346,
				"element": "H" 
			},
			{
				"x": -1.3896262931,
				"y": -1.8712808734,
				"z": -0.2129443521,
				"element": "H" 
			},
			{
				"x": -0.1021611878,
				"y": 0.7805774689,
				"z": -0.2221604367,
				"element": "H" 
			},
			{
				"x": -0.0509779338,
				"y": -2.5557899484,
				"z": 1.2662911193,
				"element": "H" 
			},
			{
				"x": 1.8396379453,
				"y": -3.3580942525,
				"z": 2.6014648418,
				"element": "H" 
			},
			{
				"x": 3.9150811262,
				"y": -2.0005452771,
				"z": 2.8191252522,
				"element": "H" 
			},
			{
				"x": 4.0552791745,
				"y": 0.1991859056,
				"z": 1.6491789961,
				"element": "H" 
			},
			{
				"x": 2.1719506741,
				"y": 1.0012222029,
				"z": 0.2746670853,
				"element": "H" 
			}
		],
		 "valence_orbital": [ 
			{
				"type": "occ",
				"energy": -0.30234,
				"method": "rhf"
			},
			{
				"type": "occ",
				"energy": -0.27011,
				"method": "rhf"
			},
			{
				"type": "occ",
				"energy": -0.25024,
				"method": "rhf"
			},
			{
				"type": "occ",
				"energy": -0.24967,
				"method": "rhf"
			},
			{
				"type": "occ",
				"energy": -0.20821,
				"method": "rhf"
			},
			{
				"type": "unocc",
				"energy": -0.00186,
				"method": "rhf"
			},
			{
				"type": "unocc",
				"energy": 0.01061,
				"method": "rhf"
			},
			{
				"type": "unocc",
				"energy": 0.02672,
				"method": "rhf"
			},
			{
				"type": "unocc",
				"energy": 0.07826,
				"method": "rhf"
			},
			{
				"type": "unocc",
				"energy": 0.09305,
				"method": "rhf"
			}
		],
		"cosmo_sigma_profile": { 
			"-0.025": 0.0,
			"-0.024": 0.0,
			"-0.023": 0.0,
			"-0.022": 0.0,
			"-0.021": 0.0,
			"-0.02": 0.0,
			"-0.019": 0.0,
			"-0.018": 0.0,
			"-0.017": 0.0,
			"-0.016": 0.0,
			"-0.015": 0.00951915305344,
			"-0.014": 0.799339978775,
			"-0.013": 1.48882450576,
			"-0.012": 3.06400011391,
			"-0.011": 3.09857602141,
			"-0.01": 3.26429472008,
			"-0.009": 3.32406023119,
			"-0.008": 4.55509704311,
			"-0.007": 6.82185420785,
			"-0.006": 7.73730477355,
			"-0.005": 14.1446354264,
			"-0.004": 15.0787707975,
			"-0.003": 16.0238623435,
			"-0.002": 13.3098554943,
			"-0.001": 9.19256980446,
			"0.0": 9.07741630044,
			"0.001": 8.7152742815,
			"0.002": 8.96708182818,
			"0.003": 9.70072200034,
			"0.004": 9.09674393359,
			"0.005": 10.5840455482,
			"0.006": 11.5890168931,
			"0.007": 8.81665714842,
			"0.008": 1.85977873513,
			"0.009": 0.646318422932,
			"0.01": 1.32888443778,
			"0.011": 1.86800645258,
			"0.012": 1.80196930721,
			"0.013": 3.38448450322,
			"0.014": 6.03485893571,
			"0.015": 1.77701115984,
			"0.016": 0.0,
			"0.017": 0.0,
			"0.018": 0.0,
			"0.019": 0.0,
			"0.02": 0.0,
			"0.021": 0.0,
			"0.022": 0.0,
			"0.023": 0.0,
			"0.024": 0.0,
			"0.025": 0.0
		}
	}
}
