{
	 "smiles": "NC1=C(C=CC(Cl)=C1)C(=O)N1CCCC1", 
	 "Tm": 392.15, 
	 "num_atms": 28, 
	 "gaussian": { 
		 "optdone": 1, 
		 "sigma_profile": "yes", 
		 "theory": "DFT", 
		 "functional": "B3LYP", 
		 "basiset": "6-31G**", 
		 "properties": { 
			 "R2extent": 5110.3911, 
			 "electric_dipole_moment_norm": 3.00591648919, 
			 "electric_quadrupole_moment_norm": 11.9980010002, 
			 "total_energy": -1071.95275527, 
			 "HOMO_LUMO_gap": 0.17507, 
			 "cosmo_polarized_energy": -11.16, 
			 "cosmo_cavitation_energy": 31.74, 
			 "cosmo_dispersion_energy": -23.77, 
			 "cosmo_repulsion_energy": 1.88, 
			 "cosmo_total_nonelectrostatic_energy": 9.85, 
			 "SMD_solvation_energy": 4.07 
		},
		"coords": [
			{
				"x": -3.1918736042,
				"y": -1.7110437792,
				"z": -0.392362381,
				"element": "N" 
			},
			{
				"x": -2.1776822401,
				"y": -1.7553683944,
				"z": 0.5349407872,
				"element": "C" 
			},
			{
				"x": -1.127308864,
				"y": -0.7910406736,
				"z": 0.5310688144,
				"element": "C" 
			},
			{
				"x": -0.1349164417,
				"y": -0.8714446018,
				"z": 1.5176551989,
				"element": "C" 
			},
			{
				"x": -0.1057646098,
				"y": -1.8838357406,
				"z": 2.4711573262,
				"element": "C" 
			},
			{
				"x": -1.1131360329,
				"y": -2.8490760454,
				"z": 2.4205160443,
				"element": "C" 
			},
			{
				"x": -1.105137439,
				"y": -4.1587076446,
				"z": 3.5955113598,
				"element": "Cl" 
			},
			{
				"x": -2.1324763727,
				"y": -2.7991946715,
				"z": 1.4822332598,
				"element": "C" 
			},
			{
				"x": -1.1684017582,
				"y": 0.3339693894,
				"z": -0.4539491082,
				"element": "C" 
			},
			{
				"x": -2.2475319414,
				"y": 0.811558661,
				"z": -0.8418298901,
				"element": "O" 
			},
			{
				"x": 0.0064783963,
				"y": 0.855662079,
				"z": -0.9235880486,
				"element": "N" 
			},
			{
				"x": 1.330111182,
				"y": 0.2056064459,
				"z": -0.9574117272,
				"element": "C" 
			},
			{
				"x": 1.9268351761,
				"y": 0.6822305994,
				"z": -2.28915005,
				"element": "C" 
			},
			{
				"x": 1.3598906259,
				"y": 2.1043119864,
				"z": -2.4223798969,
				"element": "C" 
			},
			{
				"x": -0.0767885433,
				"y": 1.9592546355,
				"z": -1.9017614942,
				"element": "C" 
			},
			{
				"x": -4.0120205525,
				"y": -2.2617963272,
				"z": -0.1885362874,
				"element": "H" 
			},
			{
				"x": -3.3539521436,
				"y": -0.7883720995,
				"z": -0.7836770699,
				"element": "H" 
			},
			{
				"x": 0.626544382,
				"y": -0.1002117971,
				"z": 1.558752834,
				"element": "H" 
			},
			{
				"x": 0.6649693771,
				"y": -1.9240394985,
				"z": 3.2309409406,
				"element": "H" 
			},
			{
				"x": -2.910072075,
				"y": -3.5559752002,
				"z": 1.484250272,
				"element": "H" 
			},
			{
				"x": 1.2332258431,
				"y": -0.8794854083,
				"z": -0.8853748163,
				"element": "H" 
			},
			{
				"x": 1.9573060063,
				"y": 0.5438770886,
				"z": -0.1211771984,
				"element": "H" 
			},
			{
				"x": 1.5639146195,
				"y": 0.0508196923,
				"z": -3.1081936676,
				"element": "H" 
			},
			{
				"x": 3.0196540553,
				"y": 0.6447371462,
				"z": -2.2917825718,
				"element": "H" 
			},
			{
				"x": 1.9283585151,
				"y": 2.7956830117,
				"z": -1.7894793347,
				"element": "H" 
			},
			{
				"x": 1.390688779,
				"y": 2.4888137078,
				"z": -3.4451671303,
				"element": "H" 
			},
			{
				"x": -0.4630391279,
				"y": 2.8656895945,
				"z": -1.4265591312,
				"element": "H" 
			},
			{
				"x": -0.7818752114,
				"y": 1.6875778443,
				"z": -2.6957470335,
				"element": "H" 
			}
		],
		 "valence_orbital": [ 
			{
				"type": "occ",
				"energy": -0.30226,
				"method": "rhf"
			},
			{
				"type": "occ",
				"energy": -0.25661,
				"method": "rhf"
			},
			{
				"type": "occ",
				"energy": -0.24298,
				"method": "rhf"
			},
			{
				"type": "occ",
				"energy": -0.24053,
				"method": "rhf"
			},
			{
				"type": "occ",
				"energy": -0.20684,
				"method": "rhf"
			},
			{
				"type": "unocc",
				"energy": -0.03177,
				"method": "rhf"
			},
			{
				"type": "unocc",
				"energy": 0.0046,
				"method": "rhf"
			},
			{
				"type": "unocc",
				"energy": 0.03298,
				"method": "rhf"
			},
			{
				"type": "unocc",
				"energy": 0.04906,
				"method": "rhf"
			},
			{
				"type": "unocc",
				"energy": 0.07649,
				"method": "rhf"
			}
		],
		"cosmo_sigma_profile": { 
			"-0.025": 0.0,
			"-0.024": 0.0,
			"-0.023": 0.0,
			"-0.022": 0.0,
			"-0.021": 0.0,
			"-0.02": 0.0,
			"-0.019": 0.0,
			"-0.018": 0.0,
			"-0.017": 0.0,
			"-0.016": 0.0,
			"-0.015": 0.0,
			"-0.014": 0.0155548979986,
			"-0.013": 0.929686612388,
			"-0.012": 1.68174048872,
			"-0.011": 1.69145220466,
			"-0.01": 0.949219456674,
			"-0.009": 1.82564610319,
			"-0.008": 2.61109150376,
			"-0.007": 4.78595696758,
			"-0.006": 6.44268861441,
			"-0.005": 8.77571711666,
			"-0.004": 20.1142061867,
			"-0.003": 30.8854674806,
			"-0.002": 27.9126303266,
			"-0.001": 21.795330572,
			"0.0": 16.7516351486,
			"0.001": 13.7826228101,
			"0.002": 17.4814403515,
			"0.003": 20.3601001611,
			"0.004": 22.1345345449,
			"0.005": 10.9595891308,
			"0.006": 2.70456469639,
			"0.007": 3.25521502599,
			"0.008": 1.63619223759,
			"0.009": 2.13512405347,
			"0.01": 1.96375595733,
			"0.011": 2.39489428217,
			"0.012": 2.12686375594,
			"0.013": 2.78074461817,
			"0.014": 2.05627303711,
			"0.015": 0.0873210060301,
			"0.016": 0.0,
			"0.017": 0.0,
			"0.018": 0.0,
			"0.019": 0.0,
			"0.02": 0.0,
			"0.021": 0.0,
			"0.022": 0.0,
			"0.023": 0.0,
			"0.024": 0.0,
			"0.025": 0.0
		}
	}
}
