{
	 "smiles": "CC1=C(CO)N=C(O1)C1=CC=CC=C1", 
	 "Tm": 391.15, 
	 "num_atms": 25, 
	 "gaussian": { 
		 "optdone": 1, 
		 "sigma_profile": "yes", 
		 "theory": "DFT", 
		 "functional": "B3LYP", 
		 "basiset": "6-31G**", 
		 "properties": { 
			 "R2extent": 3845.3457, 
			 "electric_dipole_moment_norm": 2.59749305678, 
			 "electric_quadrupole_moment_norm": 13.598220527, 
			 "total_energy": -630.993692979, 
			 "HOMO_LUMO_gap": 0.17415, 
			 "cosmo_polarized_energy": -9.34, 
			 "cosmo_cavitation_energy": 29.57, 
			 "cosmo_dispersion_energy": -21.59, 
			 "cosmo_repulsion_energy": 1.72, 
			 "cosmo_total_nonelectrostatic_energy": 9.7, 
			 "SMD_solvation_energy": 4.3 
		},
		"coords": [
			{
				"x": 3.1154647859,
				"y": 0.740555793,
				"z": -1.360287791,
				"element": "C" 
			},
			{
				"x": 1.7995979378,
				"y": 0.0586678971,
				"z": -1.2618067508,
				"element": "C" 
			},
			{
				"x": 1.3738926928,
				"y": -1.2350324166,
				"z": -1.2612603544,
				"element": "C" 
			},
			{
				"x": 2.1178215488,
				"y": -2.5331646391,
				"z": -1.3634677567,
				"element": "C" 
			},
			{
				"x": 1.7310330692,
				"y": -3.4386820879,
				"z": -0.3417005173,
				"element": "O" 
			},
			{
				"x": -0.0091266055,
				"y": -1.2629469555,
				"z": -1.129293568,
				"element": "N" 
			},
			{
				"x": -0.3715758129,
				"y": -0.0130267673,
				"z": -1.058092951,
				"element": "C" 
			},
			{
				"x": 0.6796071577,
				"y": 0.8530858173,
				"z": -1.1381297297,
				"element": "O" 
			},
			{
				"x": -1.7165073063,
				"y": 0.5342762228,
				"z": -0.9089589296,
				"element": "C" 
			},
			{
				"x": -1.9355564488,
				"y": 1.9193439035,
				"z": -0.8382941298,
				"element": "C" 
			},
			{
				"x": -3.2301543714,
				"y": 2.4143948854,
				"z": -0.6951527454,
				"element": "C" 
			},
			{
				"x": -4.3152245332,
				"y": 1.538237867,
				"z": -0.6212364187,
				"element": "C" 
			},
			{
				"x": -4.1002883987,
				"y": 0.1585970884,
				"z": -0.6915504542,
				"element": "C" 
			},
			{
				"x": -2.8105748073,
				"y": -0.3440482121,
				"z": -0.8347573539,
				"element": "C" 
			},
			{
				"x": 3.2816372694,
				"y": 1.4065460528,
				"z": -0.5062752413,
				"element": "H" 
			},
			{
				"x": 3.1910114698,
				"y": 1.3452361838,
				"z": -2.2716674866,
				"element": "H" 
			},
			{
				"x": 3.918397099,
				"y": 0.0000754335,
				"z": -1.3772428094,
				"element": "H" 
			},
			{
				"x": 3.195622276,
				"y": -2.3703085521,
				"z": -1.2625814489,
				"element": "H" 
			},
			{
				"x": 1.9466215998,
				"y": -2.9716728321,
				"z": -2.3611025301,
				"element": "H" 
			},
			{
				"x": 0.7647172395,
				"y": -3.3913255485,
				"z": -0.298722095,
				"element": "H" 
			},
			{
				"x": -1.0915682827,
				"y": 2.5982820329,
				"z": -0.8955265101,
				"element": "H" 
			},
			{
				"x": -3.3919261981,
				"y": 3.4870137297,
				"z": -0.6409408022,
				"element": "H" 
			},
			{
				"x": -5.3229639204,
				"y": 1.9276054558,
				"z": -0.509578654,
				"element": "H" 
			},
			{
				"x": -4.9411183081,
				"y": -0.5265355285,
				"z": -0.6347861281,
				"element": "H" 
			},
			{
				"x": -2.6297391523,
				"y": -1.4120748235,
				"z": -0.8914868438,
				"element": "H" 
			}
		],
		 "valence_orbital": [ 
			{
				"type": "occ",
				"energy": -0.29278,
				"method": "rhf"
			},
			{
				"type": "occ",
				"energy": -0.27644,
				"method": "rhf"
			},
			{
				"type": "occ",
				"energy": -0.26214,
				"method": "rhf"
			},
			{
				"type": "occ",
				"energy": -0.25703,
				"method": "rhf"
			},
			{
				"type": "occ",
				"energy": -0.21702,
				"method": "rhf"
			},
			{
				"type": "unocc",
				"energy": -0.04287,
				"method": "rhf"
			},
			{
				"type": "unocc",
				"energy": -0.00635,
				"method": "rhf"
			},
			{
				"type": "unocc",
				"energy": 0.03153,
				"method": "rhf"
			},
			{
				"type": "unocc",
				"energy": 0.06837,
				"method": "rhf"
			},
			{
				"type": "unocc",
				"energy": 0.09049,
				"method": "rhf"
			}
		],
		"cosmo_sigma_profile": { 
			"-0.025": 0.0,
			"-0.024": 0.0,
			"-0.023": 0.0,
			"-0.022": 0.0,
			"-0.021": 0.0,
			"-0.02": 0.0,
			"-0.019": 0.0,
			"-0.018": 0.0,
			"-0.017": 0.0,
			"-0.016": 0.0,
			"-0.015": 0.0,
			"-0.014": 0.0,
			"-0.013": 0.0475933748278,
			"-0.012": 0.505293761138,
			"-0.011": 0.946160972949,
			"-0.01": 0.469418364126,
			"-0.009": 0.305380927582,
			"-0.008": 0.400516189353,
			"-0.007": 1.80125594229,
			"-0.006": 10.7961344145,
			"-0.005": 21.4806153477,
			"-0.004": 22.5995996081,
			"-0.003": 20.508393553,
			"-0.002": 19.9787474474,
			"-0.001": 19.136866191,
			"0.0": 18.3199556034,
			"0.001": 17.3135411767,
			"0.002": 15.8621332233,
			"0.003": 16.1402835469,
			"0.004": 17.3348568517,
			"0.005": 10.6937111595,
			"0.006": 3.5681212788,
			"0.007": 3.08304132176,
			"0.008": 2.23747890176,
			"0.009": 1.92173184374,
			"0.01": 1.77635235693,
			"0.011": 2.0527990832,
			"0.012": 1.48981022945,
			"0.013": 1.83698695448,
			"0.014": 2.6174341366,
			"0.015": 0.357398435884,
			"0.016": 0.0,
			"0.017": 0.0,
			"0.018": 0.0,
			"0.019": 0.0,
			"0.02": 0.0,
			"0.021": 0.0,
			"0.022": 0.0,
			"0.023": 0.0,
			"0.024": 0.0,
			"0.025": 0.0
		}
	}
}
