{
	 "smiles": "SC1=C(Cl)C=CC=N1", 
	 "Tm": 478.15, 
	 "num_atms": 12, 
	 "gaussian": { 
		 "optdone": 1, 
		 "sigma_profile": "yes", 
		 "theory": "DFT", 
		 "functional": "B3LYP", 
		 "basiset": "6-31G**", 
		 "properties": { 
			 "R2extent": 2348.1922, 
			 "electric_dipole_moment_norm": 2.62119243284, 
			 "electric_quadrupole_moment_norm": 11.1155430794, 
			 "total_energy": -1106.06242544, 
			 "HOMO_LUMO_gap": 0.19553, 
			 "cosmo_polarized_energy": -6.68, 
			 "cosmo_cavitation_energy": 19.5, 
			 "cosmo_dispersion_energy": -15.45, 
			 "cosmo_repulsion_energy": 1.22, 
			 "cosmo_total_nonelectrostatic_energy": 5.27, 
			 "SMD_solvation_energy": 1.29 
		},
		"coords": [
			{
				"x": 2.3049411637,
				"y": 2.3191515073,
				"z": -1.7384316821,
				"element": "S" 
			},
			{
				"x": 1.23871185,
				"y": 0.9162914833,
				"z": -1.9810897242,
				"element": "C" 
			},
			{
				"x": -0.0497879391,
				"y": 0.7558296201,
				"z": -1.4317061274,
				"element": "C" 
			},
			{
				"x": -0.7858390345,
				"y": 1.9712775553,
				"z": -0.4002020881,
				"element": "Cl" 
			},
			{
				"x": -0.7680767653,
				"y": -0.4029322761,
				"z": -1.7125176715,
				"element": "C" 
			},
			{
				"x": -0.1933961301,
				"y": -1.3737332346,
				"z": -2.5299024523,
				"element": "C" 
			},
			{
				"x": 1.0849183249,
				"y": -1.1320560648,
				"z": -3.0297523426,
				"element": "C" 
			},
			{
				"x": 1.7778805371,
				"y": -0.0230645656,
				"z": -2.7637036611,
				"element": "N" 
			},
			{
				"x": 1.4759586391,
				"y": 3.0208834502,
				"z": -0.9434909313,
				"element": "H" 
			},
			{
				"x": -1.760009673,
				"y": -0.5328781075,
				"z": -1.2930359699,
				"element": "H" 
			},
			{
				"x": -0.7241790438,
				"y": -2.2887185158,
				"z": -2.7696167764,
				"element": "H" 
			},
			{
				"x": 1.5786780711,
				"y": -1.8576508519,
				"z": -3.6724505729,
				"element": "H" 
			}
		],
		 "valence_orbital": [ 
			{
				"type": "occ",
				"energy": -0.33268,
				"method": "rhf"
			},
			{
				"type": "occ",
				"energy": -0.31881,
				"method": "rhf"
			},
			{
				"type": "occ",
				"energy": -0.28317,
				"method": "rhf"
			},
			{
				"type": "occ",
				"energy": -0.27322,
				"method": "rhf"
			},
			{
				"type": "occ",
				"energy": -0.23668,
				"method": "rhf"
			},
			{
				"type": "unocc",
				"energy": -0.04115,
				"method": "rhf"
			},
			{
				"type": "unocc",
				"energy": -0.02756,
				"method": "rhf"
			},
			{
				"type": "unocc",
				"energy": 0.00275,
				"method": "rhf"
			},
			{
				"type": "unocc",
				"energy": 0.03856,
				"method": "rhf"
			},
			{
				"type": "unocc",
				"energy": 0.07699,
				"method": "rhf"
			}
		],
		"cosmo_sigma_profile": { 
			"-0.025": 0.0,
			"-0.024": 0.0,
			"-0.023": 0.0,
			"-0.022": 0.0,
			"-0.021": 0.0,
			"-0.02": 0.0,
			"-0.019": 0.0,
			"-0.018": 0.0,
			"-0.017": 0.0,
			"-0.016": 0.0,
			"-0.015": 0.0,
			"-0.014": 0.0,
			"-0.013": 0.0,
			"-0.012": 0.0,
			"-0.011": 0.121985926408,
			"-0.01": 0.847299564483,
			"-0.009": 2.16282395193,
			"-0.008": 4.29301763715,
			"-0.007": 8.10074129875,
			"-0.006": 8.66399411247,
			"-0.005": 6.78148866109,
			"-0.004": 5.8983774574,
			"-0.003": 8.7602537941,
			"-0.002": 9.68881953843,
			"-0.001": 12.2903514688,
			"0.0": 18.8145591218,
			"0.001": 17.0509380691,
			"0.002": 12.5851797613,
			"0.003": 13.0786515876,
			"0.004": 10.4997536829,
			"0.005": 5.99859972879,
			"0.006": 5.02255061762,
			"0.007": 4.23348388051,
			"0.008": 2.32626707615,
			"0.009": 1.07043694514,
			"0.01": 0.722916622707,
			"0.011": 0.840345969939,
			"0.012": 0.890472625518,
			"0.013": 0.856360066061,
			"0.014": 0.446013906885,
			"0.015": 0.0,
			"0.016": 0.0,
			"0.017": 0.0,
			"0.018": 0.0,
			"0.019": 0.0,
			"0.02": 0.0,
			"0.021": 0.0,
			"0.022": 0.0,
			"0.023": 0.0,
			"0.024": 0.0,
			"0.025": 0.0
		}
	}
}
