{
	 "smiles": "CCC1=CC=CC=C1N1C(C)=NC2=CC=CC=C2C1=O", 
	 "Tm": 354.15, 
	 "num_atms": 36, 
	 "gaussian": { 
		 "optdone": 1, 
		 "sigma_profile": "yes", 
		 "theory": "DFT", 
		 "functional": "B3LYP", 
		 "basiset": "6-31G**", 
		 "properties": { 
			 "R2extent": 6162.1789, 
			 "electric_dipole_moment_norm": 1.95315233661, 
			 "electric_quadrupole_moment_norm": 15.5837053861, 
			 "total_energy": -842.223116589, 
			 "HOMO_LUMO_gap": 0.18569, 
			 "cosmo_polarized_energy": -12.31, 
			 "cosmo_cavitation_energy": 38.53, 
			 "cosmo_dispersion_energy": -26.6, 
			 "cosmo_repulsion_energy": 2.02, 
			 "cosmo_total_nonelectrostatic_energy": 13.95, 
			 "SMD_solvation_energy": 5.72 
		},
		"coords": [
			{
				"x": 0.2976684177,
				"y": 2.6317047802,
				"z": 0.9365747173,
				"element": "C" 
			},
			{
				"x": -0.5418351912,
				"y": 2.5750655107,
				"z": -0.3545328907,
				"element": "C" 
			},
			{
				"x": -1.9266778643,
				"y": 2.0082027163,
				"z": -0.1213848086,
				"element": "C" 
			},
			{
				"x": -2.9244631288,
				"y": 2.8198090711,
				"z": 0.4392636894,
				"element": "C" 
			},
			{
				"x": -4.1990152445,
				"y": 2.3314166484,
				"z": 0.7177999563,
				"element": "C" 
			},
			{
				"x": -4.5098465825,
				"y": 0.9989508878,
				"z": 0.4409454986,
				"element": "C" 
			},
			{
				"x": -3.5391894224,
				"y": 0.1743103872,
				"z": -0.1216325658,
				"element": "C" 
			},
			{
				"x": -2.2665067512,
				"y": 0.6758292669,
				"z": -0.4076242346,
				"element": "C" 
			},
			{
				"x": -1.3056931265,
				"y": -0.2225576876,
				"z": -1.0153206193,
				"element": "N" 
			},
			{
				"x": -1.270699118,
				"y": -0.4072631368,
				"z": -2.3987249641,
				"element": "C" 
			},
			{
				"x": -2.2238173619,
				"y": 0.3994988729,
				"z": -3.2387140992,
				"element": "C" 
			},
			{
				"x": -0.461702927,
				"y": -1.2256102171,
				"z": -2.9952357749,
				"element": "N" 
			},
			{
				"x": 0.4178464033,
				"y": -1.9672862243,
				"z": -2.2228549165,
				"element": "C" 
			},
			{
				"x": 1.2952588051,
				"y": -2.8649340114,
				"z": -2.8637977994,
				"element": "C" 
			},
			{
				"x": 2.1866853685,
				"y": -3.6189670002,
				"z": -2.1165793657,
				"element": "C" 
			},
			{
				"x": 2.2303731142,
				"y": -3.5006566782,
				"z": -0.7147323755,
				"element": "C" 
			},
			{
				"x": 1.3748726547,
				"y": -2.6217740135,
				"z": -0.0691412884,
				"element": "C" 
			},
			{
				"x": 0.4671210651,
				"y": -1.8533532968,
				"z": -0.8168642587,
				"element": "C" 
			},
			{
				"x": -0.4390639201,
				"y": -0.9246610893,
				"z": -0.1386636818,
				"element": "C" 
			},
			{
				"x": -0.4817979719,
				"y": -0.7347411879,
				"z": 1.0702608053,
				"element": "O" 
			},
			{
				"x": 1.2951657428,
				"y": 3.0325492402,
				"z": 0.7285226375,
				"element": "H" 
			},
			{
				"x": 0.4014722857,
				"y": 1.6348587535,
				"z": 1.3716779075,
				"element": "H" 
			},
			{
				"x": -0.1773055586,
				"y": 3.2775164938,
				"z": 1.6823913823,
				"element": "H" 
			},
			{
				"x": -0.0107954348,
				"y": 1.9807874074,
				"z": -1.1042217379,
				"element": "H" 
			},
			{
				"x": -0.6393375028,
				"y": 3.5860353452,
				"z": -0.7688789503,
				"element": "H" 
			},
			{
				"x": -2.6871542577,
				"y": 3.8574648579,
				"z": 0.6608155209,
				"element": "H" 
			},
			{
				"x": -4.9474982313,
				"y": 2.9884650976,
				"z": 1.1511073293,
				"element": "H" 
			},
			{
				"x": -5.4973456187,
				"y": 0.6047632024,
				"z": 0.6601453275,
				"element": "H" 
			},
			{
				"x": -3.755494326,
				"y": -0.8667904338,
				"z": -0.3416588123,
				"element": "H" 
			},
			{
				"x": -2.0895212928,
				"y": 1.4737134867,
				"z": -3.0776886411,
				"element": "H" 
			},
			{
				"x": -2.0311829689,
				"y": 0.1600788869,
				"z": -4.283874233,
				"element": "H" 
			},
			{
				"x": -3.265999993,
				"y": 0.168980896,
				"z": -2.997996194,
				"element": "H" 
			},
			{
				"x": 1.2475467469,
				"y": -2.9424456426,
				"z": -3.9449753513,
				"element": "H" 
			},
			{
				"x": 2.8593712931,
				"y": -4.3089364187,
				"z": -2.6184357062,
				"element": "H" 
			},
			{
				"x": 2.9337888773,
				"y": -4.0974160555,
				"z": -0.1420805519,
				"element": "H" 
			},
			{
				"x": 1.3807730205,
				"y": -2.5045087154,
				"z": 1.0094090496,
				"element": "H" 
			}
		],
		 "valence_orbital": [ 
			{
				"type": "occ",
				"energy": -0.259,
				"method": "rhf"
			},
			{
				"type": "occ",
				"energy": -0.25701,
				"method": "rhf"
			},
			{
				"type": "occ",
				"energy": -0.25437,
				"method": "rhf"
			},
			{
				"type": "occ",
				"energy": -0.24864,
				"method": "rhf"
			},
			{
				"type": "occ",
				"energy": -0.22432,
				"method": "rhf"
			},
			{
				"type": "unocc",
				"energy": -0.03863,
				"method": "rhf"
			},
			{
				"type": "unocc",
				"energy": -0.03059,
				"method": "rhf"
			},
			{
				"type": "unocc",
				"energy": -0.01399,
				"method": "rhf"
			},
			{
				"type": "unocc",
				"energy": -0.011,
				"method": "rhf"
			},
			{
				"type": "unocc",
				"energy": 0.03354,
				"method": "rhf"
			}
		],
		"cosmo_sigma_profile": { 
			"-0.025": 0.0,
			"-0.024": 0.0,
			"-0.023": 0.0,
			"-0.022": 0.0,
			"-0.021": 0.0,
			"-0.02": 0.0,
			"-0.019": 0.0,
			"-0.018": 0.0,
			"-0.017": 0.0,
			"-0.016": 0.0,
			"-0.015": 0.0,
			"-0.014": 0.0,
			"-0.013": 0.0,
			"-0.012": 0.0,
			"-0.011": 0.0,
			"-0.01": 0.0,
			"-0.009": 0.0,
			"-0.008": 0.0,
			"-0.007": 2.53879084661,
			"-0.006": 15.9345038845,
			"-0.005": 27.0975269896,
			"-0.004": 30.8007175894,
			"-0.003": 27.6989196856,
			"-0.002": 26.358923985,
			"-0.001": 28.0752943454,
			"0.0": 23.209170257,
			"0.001": 25.4251705147,
			"0.002": 21.9309195693,
			"0.003": 20.8131988357,
			"0.004": 18.5846088061,
			"0.005": 8.86557215316,
			"0.006": 4.88041773569,
			"0.007": 3.76365817953,
			"0.008": 2.96678932323,
			"0.009": 2.94993687902,
			"0.01": 2.88005436052,
			"0.011": 3.27469896692,
			"0.012": 3.71406676359,
			"0.013": 4.02591833074,
			"0.014": 1.16905103778,
			"0.015": 0.108427081805,
			"0.016": 0.0,
			"0.017": 0.0,
			"0.018": 0.0,
			"0.019": 0.0,
			"0.02": 0.0,
			"0.021": 0.0,
			"0.022": 0.0,
			"0.023": 0.0,
			"0.024": 0.0,
			"0.025": 0.0
		}
	}
}
