{
	 "smiles": "CN1C(=CC2=C1C=CC=C2)C1=CC=CC=C1", 
	 "Tm": 372.15, 
	 "num_atms": 29, 
	 "gaussian": { 
		 "optdone": 1, 
		 "sigma_profile": "yes", 
		 "theory": "DFT", 
		 "functional": "B3LYP", 
		 "basiset": "6-31G**", 
		 "properties": { 
			 "R2extent": 4240.7322, 
			 "electric_dipole_moment_norm": 2.28958790397, 
			 "electric_quadrupole_moment_norm": 8.44847063971, 
			 "total_energy": -634.193447651, 
			 "HOMO_LUMO_gap": 0.16401, 
			 "cosmo_polarized_energy": -7.44, 
			 "cosmo_cavitation_energy": 31.97, 
			 "cosmo_dispersion_energy": -23.29, 
			 "cosmo_repulsion_energy": 1.78, 
			 "cosmo_total_nonelectrostatic_energy": 10.45, 
			 "SMD_solvation_energy": 4.84 
		},
		"coords": [
			{
				"x": -2.0162085602,
				"y": -0.6807674839,
				"z": 0.8873732004,
				"element": "C" 
			},
			{
				"x": -1.2571958077,
				"y": 0.0247497825,
				"z": -0.1296804021,
				"element": "N" 
			},
			{
				"x": 0.1321420162,
				"y": 0.041207193,
				"z": -0.2971778693,
				"element": "C" 
			},
			{
				"x": 0.4596654096,
				"y": 1.0014375827,
				"z": -1.2316154006,
				"element": "C" 
			},
			{
				"x": -0.7536535922,
				"y": 1.6139471544,
				"z": -1.6753432259,
				"element": "C" 
			},
			{
				"x": -1.8097790777,
				"y": 0.9833847907,
				"z": -0.9603081214,
				"element": "C" 
			},
			{
				"x": -3.1493251992,
				"y": 1.3519028165,
				"z": -1.1338525806,
				"element": "C" 
			},
			{
				"x": -3.4253798255,
				"y": 2.3618953413,
				"z": -2.0498473855,
				"element": "C" 
			},
			{
				"x": -2.3944140884,
				"y": 2.9913770616,
				"z": -2.7774435189,
				"element": "C" 
			},
			{
				"x": -1.0659801448,
				"y": 2.6268579837,
				"z": -2.599330456,
				"element": "C" 
			},
			{
				"x": 1.0489850754,
				"y": -0.8717583509,
				"z": 0.4030443415,
				"element": "C" 
			},
			{
				"x": 0.784065081,
				"y": -2.2478637033,
				"z": 0.5319599905,
				"element": "C" 
			},
			{
				"x": 1.6946778466,
				"y": -3.0932405305,
				"z": 1.1648808773,
				"element": "C" 
			},
			{
				"x": 2.8922164205,
				"y": -2.5856494493,
				"z": 1.672402426,
				"element": "C" 
			},
			{
				"x": 3.1729237453,
				"y": -1.2237592219,
				"z": 1.5411930734,
				"element": "C" 
			},
			{
				"x": 2.2598909019,
				"y": -0.3750424009,
				"z": 0.9184103002,
				"element": "C" 
			},
			{
				"x": -2.6294790656,
				"y": -1.4797413357,
				"z": 0.4532739545,
				"element": "H" 
			},
			{
				"x": -2.6777545095,
				"y": 0.018253147,
				"z": 1.4094633088,
				"element": "H" 
			},
			{
				"x": -1.3352638933,
				"y": -1.120615119,
				"z": 1.6150523896,
				"element": "H" 
			},
			{
				"x": 1.4590751987,
				"y": 1.1975404037,
				"z": -1.5935557071,
				"element": "H" 
			},
			{
				"x": -3.9489596174,
				"y": 0.8648246922,
				"z": -0.5840339088,
				"element": "H" 
			},
			{
				"x": -4.4551594176,
				"y": 2.6676017726,
				"z": -2.2107240319,
				"element": "H" 
			},
			{
				"x": -2.6472556638,
				"y": 3.7738382832,
				"z": -3.4871472649,
				"element": "H" 
			},
			{
				"x": -0.2770453953,
				"y": 3.1189322225,
				"z": -3.1616457842,
				"element": "H" 
			},
			{
				"x": -0.12501908,
				"y": -2.6615608534,
				"z": 0.1061753018,
				"element": "H" 
			},
			{
				"x": 1.4733680707,
				"y": -4.153482559,
				"z": 1.2495688525,
				"element": "H" 
			},
			{
				"x": 3.6011411173,
				"y": -3.2457481093,
				"z": 2.16358459,
				"element": "H" 
			},
			{
				"x": 4.1012298657,
				"y": -0.8188762118,
				"z": 1.9342665116,
				"element": "H" 
			},
			{
				"x": 2.469192189,
				"y": 0.6870551012,
				"z": 0.8362565392,
				"element": "H" 
			}
		],
		 "valence_orbital": [ 
			{
				"type": "occ",
				"energy": -0.26977,
				"method": "rhf"
			},
			{
				"type": "occ",
				"energy": -0.25686,
				"method": "rhf"
			},
			{
				"type": "occ",
				"energy": -0.25454,
				"method": "rhf"
			},
			{
				"type": "occ",
				"energy": -0.20965,
				"method": "rhf"
			},
			{
				"type": "occ",
				"energy": -0.19176,
				"method": "rhf"
			},
			{
				"type": "unocc",
				"energy": -0.02775,
				"method": "rhf"
			},
			{
				"type": "unocc",
				"energy": -0.00583,
				"method": "rhf"
			},
			{
				"type": "unocc",
				"energy": 0.01427,
				"method": "rhf"
			},
			{
				"type": "unocc",
				"energy": 0.03279,
				"method": "rhf"
			},
			{
				"type": "unocc",
				"energy": 0.07982,
				"method": "rhf"
			}
		],
		"cosmo_sigma_profile": { 
			"-0.025": 0.0,
			"-0.024": 0.0,
			"-0.023": 0.0,
			"-0.022": 0.0,
			"-0.021": 0.0,
			"-0.02": 0.0,
			"-0.019": 0.0,
			"-0.018": 0.0,
			"-0.017": 0.0,
			"-0.016": 0.0,
			"-0.015": 0.0,
			"-0.014": 0.0,
			"-0.013": 0.0,
			"-0.012": 0.0,
			"-0.011": 0.0,
			"-0.01": 0.0,
			"-0.009": 0.0,
			"-0.008": 0.0,
			"-0.007": 0.0166946236466,
			"-0.006": 7.76038098034,
			"-0.005": 25.4514548385,
			"-0.004": 29.480348287,
			"-0.003": 29.0646501265,
			"-0.002": 23.4717473868,
			"-0.001": 16.072984414,
			"0.0": 13.2444647097,
			"0.001": 14.482954715,
			"0.002": 15.2484010768,
			"0.003": 15.6839067211,
			"0.004": 18.8564282226,
			"0.005": 20.506391758,
			"0.006": 16.2728829748,
			"0.007": 9.07807770548,
			"0.008": 1.27042074273,
			"0.009": 0.0,
			"0.01": 0.0,
			"0.011": 0.0,
			"0.012": 0.0,
			"0.013": 0.0,
			"0.014": 0.0,
			"0.015": 0.0,
			"0.016": 0.0,
			"0.017": 0.0,
			"0.018": 0.0,
			"0.019": 0.0,
			"0.02": 0.0,
			"0.021": 0.0,
			"0.022": 0.0,
			"0.023": 0.0,
			"0.024": 0.0,
			"0.025": 0.0
		}
	}
}
