{
	 "smiles": "NC(=O)C1CCC(O)CC1", 
	 "Tm": 478.15, 
	 "num_atms": 23, 
	 "gaussian": { 
		 "optdone": 1, 
		 "sigma_profile": "yes", 
		 "theory": "DFT", 
		 "functional": "B3LYP", 
		 "basiset": "6-31G**", 
		 "properties": { 
			 "R2extent": 2019.3689, 
			 "electric_dipole_moment_norm": 4.57949079593, 
			 "electric_quadrupole_moment_norm": 5.70045061728, 
			 "total_energy": -479.795808417, 
			 "HOMO_LUMO_gap": 0.27342, 
			 "cosmo_polarized_energy": -15.69, 
			 "cosmo_cavitation_energy": 24.18, 
			 "cosmo_dispersion_energy": -17.91, 
			 "cosmo_repulsion_energy": 1.48, 
			 "cosmo_total_nonelectrostatic_energy": 7.74, 
			 "SMD_solvation_energy": 4.07 
		},
		"coords": [
			{
				"x": 0.8773558275,
				"y": 2.0106118443,
				"z": -1.5306950445,
				"element": "N" 
			},
			{
				"x": 1.3879162689,
				"y": 1.0769358699,
				"z": -0.6735334013,
				"element": "C" 
			},
			{
				"x": 2.5518433499,
				"y": 0.6996457292,
				"z": -0.7498656444,
				"element": "O" 
			},
			{
				"x": 0.392751874,
				"y": 0.5003977907,
				"z": 0.3392708835,
				"element": "C" 
			},
			{
				"x": 1.0848489827,
				"y": 0.2844627038,
				"z": 1.7092788485,
				"element": "C" 
			},
			{
				"x": 0.5092903661,
				"y": -0.9261173494,
				"z": 2.4528766527,
				"element": "C" 
			},
			{
				"x": 0.7565790011,
				"y": -2.2462556383,
				"z": 1.6844550814,
				"element": "C" 
			},
			{
				"x": 1.9674287655,
				"y": -2.8856709458,
				"z": 2.0856580802,
				"element": "O" 
			},
			{
				"x": 0.7267294947,
				"y": -2.0195390566,
				"z": 0.1556438732,
				"element": "C" 
			},
			{
				"x": -0.177279378,
				"y": -0.8401989971,
				"z": -0.2214030168,
				"element": "C" 
			},
			{
				"x": 1.4814718971,
				"y": 2.3806841696,
				"z": -2.2489750291,
				"element": "H" 
			},
			{
				"x": -0.0713377135,
				"y": 2.3410973337,
				"z": -1.4700080361,
				"element": "H" 
			},
			{
				"x": -0.4422899894,
				"y": 1.2031517408,
				"z": 0.4555809945,
				"element": "H" 
			},
			{
				"x": 2.1540118067,
				"y": 0.1323031879,
				"z": 1.5245018242,
				"element": "H" 
			},
			{
				"x": 1.0023586807,
				"y": 1.1918654718,
				"z": 2.3173627076,
				"element": "H" 
			},
			{
				"x": -0.5691487055,
				"y": -0.7864343666,
				"z": 2.6060645361,
				"element": "H" 
			},
			{
				"x": 0.955164374,
				"y": -1.0260755043,
				"z": 3.4478224742,
				"element": "H" 
			},
			{
				"x": -0.025986672,
				"y": -2.9605699921,
				"z": 1.96511225,
				"element": "H" 
			},
			{
				"x": 2.7023439901,
				"y": -2.34201926,
				"z": 1.7698120076,
				"element": "H" 
			},
			{
				"x": 1.7440419534,
				"y": -1.7943093931,
				"z": -0.1886247157,
				"element": "H" 
			},
			{
				"x": 0.4186045913,
				"y": -2.9367221467,
				"z": -0.3564683303,
				"element": "H" 
			},
			{
				"x": -0.2954043307,
				"y": -0.7723571519,
				"z": -1.3086349527,
				"element": "H" 
			},
			{
				"x": -1.1834944345,
				"y": -0.9977860397,
				"z": 0.1864679572,
				"element": "H" 
			}
		],
		 "valence_orbital": [ 
			{
				"type": "occ",
				"energy": -0.31516,
				"method": "rhf"
			},
			{
				"type": "occ",
				"energy": -0.29679,
				"method": "rhf"
			},
			{
				"type": "occ",
				"energy": -0.26912,
				"method": "rhf"
			},
			{
				"type": "occ",
				"energy": -0.25201,
				"method": "rhf"
			},
			{
				"type": "occ",
				"energy": -0.24679,
				"method": "rhf"
			},
			{
				"type": "unocc",
				"energy": 0.02663,
				"method": "rhf"
			},
			{
				"type": "unocc",
				"energy": 0.06545,
				"method": "rhf"
			},
			{
				"type": "unocc",
				"energy": 0.08167,
				"method": "rhf"
			},
			{
				"type": "unocc",
				"energy": 0.09224,
				"method": "rhf"
			},
			{
				"type": "unocc",
				"energy": 0.11504,
				"method": "rhf"
			}
		],
		"cosmo_sigma_profile": { 
			"-0.025": 0.0,
			"-0.024": 0.0,
			"-0.023": 0.0,
			"-0.022": 0.0,
			"-0.021": 0.0,
			"-0.02": 0.0,
			"-0.019": 0.0,
			"-0.018": 0.0,
			"-0.017": 0.0,
			"-0.016": 0.0,
			"-0.015": 0.0563968387808,
			"-0.014": 1.41715486542,
			"-0.013": 3.28146178689,
			"-0.012": 3.57200328223,
			"-0.011": 2.70993931755,
			"-0.01": 2.7635007079,
			"-0.009": 4.77126817246,
			"-0.008": 3.06156601149,
			"-0.007": 3.49141290781,
			"-0.006": 3.09660387902,
			"-0.005": 3.78110263938,
			"-0.004": 5.46466174922,
			"-0.003": 21.914931822,
			"-0.002": 23.6317450987,
			"-0.001": 19.3548881589,
			"0.0": 18.4426589846,
			"0.001": 13.3564650277,
			"0.002": 5.0990936572,
			"0.003": 4.45163160096,
			"0.004": 5.13427002253,
			"0.005": 4.25305031193,
			"0.006": 3.31372339545,
			"0.007": 2.39067471277,
			"0.008": 3.0910505296,
			"0.009": 1.98148850627,
			"0.01": 2.24501168289,
			"0.011": 2.78011742188,
			"0.012": 3.22067085752,
			"0.013": 3.46083827263,
			"0.014": 6.8111661613,
			"0.015": 3.68969913719,
			"0.016": 0.0410323438615,
			"0.017": 0.0,
			"0.018": 0.0,
			"0.019": 0.0,
			"0.02": 0.0,
			"0.021": 0.0,
			"0.022": 0.0,
			"0.023": 0.0,
			"0.024": 0.0,
			"0.025": 0.0
		}
	}
}
