{
	 "smiles": "COC(=O)C1=CC(=NC=C1)C#N", 
	 "Tm": 383.15, 
	 "num_atms": 18, 
	 "gaussian": { 
		 "optdone": 1, 
		 "sigma_profile": "yes", 
		 "theory": "DFT", 
		 "functional": "B3LYP", 
		 "basiset": "6-31G**", 
		 "properties": { 
			 "R2extent": 2621.3305, 
			 "electric_dipole_moment_norm": 4.66642542103, 
			 "electric_quadrupole_moment_norm": 20.0123758085, 
			 "total_energy": -568.396866282, 
			 "HOMO_LUMO_gap": 0.19657, 
			 "cosmo_polarized_energy": -12.22, 
			 "cosmo_cavitation_energy": 24.71, 
			 "cosmo_dispersion_energy": -17.47, 
			 "cosmo_repulsion_energy": 1.39, 
			 "cosmo_total_nonelectrostatic_energy": 8.63, 
			 "SMD_solvation_energy": 6.04 
		},
		"coords": [
			{
				"x": 1.6024734148,
				"y": 1.4642664795,
				"z": 2.6126494084,
				"element": "C" 
			},
			{
				"x": 0.8658668207,
				"y": 0.711064659,
				"z": 1.6319696012,
				"element": "O" 
			},
			{
				"x": -0.4718012783,
				"y": 0.8455833694,
				"z": 1.6853691529,
				"element": "C" 
			},
			{
				"x": -1.055201233,
				"y": 1.5428091674,
				"z": 2.4885766366,
				"element": "O" 
			},
			{
				"x": -1.1625339292,
				"y": 0.031286129,
				"z": 0.6343911837,
				"element": "C" 
			},
			{
				"x": -0.4710509606,
				"y": -0.7653643558,
				"z": -0.2810588897,
				"element": "C" 
			},
			{
				"x": -1.2203002184,
				"y": -1.4845555032,
				"z": -1.2207299981,
				"element": "C" 
			},
			{
				"x": -2.5622349944,
				"y": -1.4543021174,
				"z": -1.2944452229,
				"element": "N" 
			},
			{
				"x": -3.2028661954,
				"y": -0.6861703025,
				"z": -0.4096390919,
				"element": "C" 
			},
			{
				"x": -2.5568317438,
				"y": 0.0718989669,
				"z": 0.5689989188,
				"element": "C" 
			},
			{
				"x": -0.5373129421,
				"y": -2.3183203491,
				"z": -2.1822959141,
				"element": "C" 
			},
			{
				"x": 0.0440005968,
				"y": -2.9790132698,
				"z": -2.9409898213,
				"element": "N" 
			},
			{
				"x": 1.4079713306,
				"y": 2.5329781104,
				"z": 2.4963105079,
				"element": "H" 
			},
			{
				"x": 2.6521098204,
				"y": 1.2405746062,
				"z": 2.4264529204,
				"element": "H" 
			},
			{
				"x": 1.3147781621,
				"y": 1.1591601024,
				"z": 3.6214373782,
				"element": "H" 
			},
			{
				"x": 0.6098984299,
				"y": -0.8272150512,
				"z": -0.2674402568,
				"element": "H" 
			},
			{
				"x": -4.2876568226,
				"y": -0.6753539057,
				"z": -0.4858600549,
				"element": "H" 
			},
			{
				"x": -3.1103082576,
				"y": 0.6847732646,
				"z": 1.2715035415,
				"element": "H" 
			}
		],
		 "valence_orbital": [ 
			{
				"type": "occ",
				"energy": -0.3267,
				"method": "rhf"
			},
			{
				"type": "occ",
				"energy": -0.31718,
				"method": "rhf"
			},
			{
				"type": "occ",
				"energy": -0.30301,
				"method": "rhf"
			},
			{
				"type": "occ",
				"energy": -0.29089,
				"method": "rhf"
			},
			{
				"type": "occ",
				"energy": -0.28643,
				"method": "rhf"
			},
			{
				"type": "unocc",
				"energy": -0.08986,
				"method": "rhf"
			},
			{
				"type": "unocc",
				"energy": -0.0618,
				"method": "rhf"
			},
			{
				"type": "unocc",
				"energy": 0.01219,
				"method": "rhf"
			},
			{
				"type": "unocc",
				"energy": 0.02763,
				"method": "rhf"
			},
			{
				"type": "unocc",
				"energy": 0.08256,
				"method": "rhf"
			}
		],
		"cosmo_sigma_profile": { 
			"-0.025": 0.0,
			"-0.024": 0.0,
			"-0.023": 0.0,
			"-0.022": 0.0,
			"-0.021": 0.0,
			"-0.02": 0.0,
			"-0.019": 0.0,
			"-0.018": 0.0,
			"-0.017": 0.0,
			"-0.016": 0.0,
			"-0.015": 0.0,
			"-0.014": 0.0,
			"-0.013": 0.0,
			"-0.012": 0.0,
			"-0.011": 0.0,
			"-0.01": 0.206908615025,
			"-0.009": 1.73066601075,
			"-0.008": 5.78843714893,
			"-0.007": 8.09761421148,
			"-0.006": 11.7770537558,
			"-0.005": 13.9985382296,
			"-0.004": 19.2075580939,
			"-0.003": 20.9169672781,
			"-0.002": 21.0285035394,
			"-0.001": 14.1131691191,
			"0.0": 8.7584394516,
			"0.001": 7.81341037273,
			"0.002": 6.80949533026,
			"0.003": 7.88558505301,
			"0.004": 6.57636247197,
			"0.005": 5.73620929447,
			"0.006": 5.43694806623,
			"0.007": 5.39980690686,
			"0.008": 6.20713997373,
			"0.009": 5.36528299055,
			"0.01": 6.64868666553,
			"0.011": 7.09949197285,
			"0.012": 2.61953025146,
			"0.013": 0.778794375231,
			"0.014": 0.115381742548,
			"0.015": 0.0,
			"0.016": 0.0,
			"0.017": 0.0,
			"0.018": 0.0,
			"0.019": 0.0,
			"0.02": 0.0,
			"0.021": 0.0,
			"0.022": 0.0,
			"0.023": 0.0,
			"0.024": 0.0,
			"0.025": 0.0
		}
	}
}
