{
	 "smiles": "CN1C(=O)N(C)C2=C1C=C(Br)C(=C2)C(O)=O", 
	 "Tm": 563.15, 
	 "num_atms": 25, 
	 "gaussian": { 
		 "optdone": 1, 
		 "sigma_profile": "yes", 
		 "theory": "DFT", 
		 "functional": "B3LYP", 
		 "basiset": "6-31G**", 
		 "properties": { 
			 "R2extent": 5962.3892, 
			 "electric_dipole_moment_norm": 4.25224830296, 
			 "electric_quadrupole_moment_norm": 27.2778105056, 
			 "total_energy": -3293.11260449, 
			 "HOMO_LUMO_gap": 0.1747, 
			 "cosmo_polarized_energy": -16.48, 
			 "cosmo_cavitation_energy": 31.41, 
			 "cosmo_dispersion_energy": -23.38, 
			 "cosmo_repulsion_energy": 1.78, 
			 "cosmo_total_nonelectrostatic_energy": 9.8, 
			 "SMD_solvation_energy": 6.27 
		},
		"coords": [
			{
				"x": 3.2254951679,
				"y": -0.2771946221,
				"z": -2.0864693884,
				"element": "C" 
			},
			{
				"x": 2.1977727324,
				"y": 0.1580772914,
				"z": -1.1620793175,
				"element": "N" 
			},
			{
				"x": 2.4461448752,
				"y": 1.0839470903,
				"z": -0.1336252108,
				"element": "C" 
			},
			{
				"x": 3.5074965955,
				"y": 1.6270416279,
				"z": 0.117284557,
				"element": "O" 
			},
			{
				"x": 1.2290092581,
				"y": 1.2450342942,
				"z": 0.5301965127,
				"element": "N" 
			},
			{
				"x": 1.0623630383,
				"y": 2.1291731592,
				"z": 1.667056754,
				"element": "C" 
			},
			{
				"x": 0.2575039071,
				"y": 0.4507748511,
				"z": -0.0605596034,
				"element": "C" 
			},
			{
				"x": 0.8760359742,
				"y": -0.2340311446,
				"z": -1.1299231441,
				"element": "C" 
			},
			{
				"x": 0.1508853877,
				"y": -1.1135627078,
				"z": -1.9191277291,
				"element": "C" 
			},
			{
				"x": -1.2052543633,
				"y": -1.2946147055,
				"z": -1.6174313505,
				"element": "C" 
			},
			{
				"x": -2.0925376005,
				"y": -2.5447349247,
				"z": -2.794818081,
				"element": "Br" 
			},
			{
				"x": -1.8517603549,
				"y": -0.6277610568,
				"z": -0.5589736406,
				"element": "C" 
			},
			{
				"x": -1.0779209136,
				"y": 0.2621591723,
				"z": 0.2240230674,
				"element": "C" 
			},
			{
				"x": -3.2956380688,
				"y": -0.7062057858,
				"z": -0.0987834112,
				"element": "C" 
			},
			{
				"x": -4.1648625964,
				"y": -1.5077941154,
				"z": -0.7347794334,
				"element": "O" 
			},
			{
				"x": -3.6764681894,
				"y": -0.0471869224,
				"z": 0.8455779238,
				"element": "O" 
			},
			{
				"x": 3.3832813693,
				"y": -1.3583373337,
				"z": -2.0143219907,
				"element": "H" 
			},
			{
				"x": 4.1449085058,
				"y": 0.2411823835,
				"z": -1.8116342143,
				"element": "H" 
			},
			{
				"x": 2.9583169268,
				"y": -0.0201868254,
				"z": -3.1167748352,
				"element": "H" 
			},
			{
				"x": 0.3203287775,
				"y": 2.9044665559,
				"z": 1.4510229866,
				"element": "H" 
			},
			{
				"x": 2.0294203808,
				"y": 2.5955556333,
				"z": 1.8583983359,
				"element": "H" 
			},
			{
				"x": 0.7467175018,
				"y": 1.5685148858,
				"z": 2.5527324789,
				"element": "H" 
			},
			{
				"x": 0.6060479999,
				"y": -1.6480772809,
				"z": -2.7433216582,
				"element": "H" 
			},
			{
				"x": -1.581493419,
				"y": 0.7716529646,
				"z": 1.0363478552,
				"element": "H" 
			},
			{
				"x": -3.7484928924,
				"y": -1.9855924847,
				"z": -1.4734174631,
				"element": "H" 
			}
		],
		 "valence_orbital": [ 
			{
				"type": "occ",
				"energy": -0.29705,
				"method": "rhf"
			},
			{
				"type": "occ",
				"energy": -0.28991,
				"method": "rhf"
			},
			{
				"type": "occ",
				"energy": -0.27287,
				"method": "rhf"
			},
			{
				"type": "occ",
				"energy": -0.2551,
				"method": "rhf"
			},
			{
				"type": "occ",
				"energy": -0.22744,
				"method": "rhf"
			},
			{
				"type": "unocc",
				"energy": -0.05274,
				"method": "rhf"
			},
			{
				"type": "unocc",
				"energy": -0.02951,
				"method": "rhf"
			},
			{
				"type": "unocc",
				"energy": -0.02614,
				"method": "rhf"
			},
			{
				"type": "unocc",
				"energy": 0.04797,
				"method": "rhf"
			},
			{
				"type": "unocc",
				"energy": 0.056,
				"method": "rhf"
			}
		],
		"cosmo_sigma_profile": { 
			"-0.025": 0.0,
			"-0.024": 0.0,
			"-0.023": 0.0,
			"-0.022": 0.0,
			"-0.021": 0.0,
			"-0.02": 0.0,
			"-0.019": 0.0,
			"-0.018": 0.0,
			"-0.017": 0.0,
			"-0.016": 0.0,
			"-0.015": 0.0,
			"-0.014": 0.0,
			"-0.013": 0.0,
			"-0.012": 0.0,
			"-0.011": 0.0,
			"-0.01": 0.21275244686,
			"-0.009": 1.39709032647,
			"-0.008": 3.15567969695,
			"-0.007": 7.37897280339,
			"-0.006": 22.4589909254,
			"-0.005": 20.34398345,
			"-0.004": 19.7567436094,
			"-0.003": 26.7969374264,
			"-0.002": 24.3356512324,
			"-0.001": 14.8603151543,
			"0.0": 18.7104169725,
			"0.001": 21.7927644116,
			"0.002": 14.2311423432,
			"0.003": 8.58767682323,
			"0.004": 4.52154419993,
			"0.005": 3.96748372632,
			"0.006": 3.65203218954,
			"0.007": 3.76586667358,
			"0.008": 2.88618171443,
			"0.009": 4.36331814244,
			"0.01": 5.25465878829,
			"0.011": 7.13151314874,
			"0.012": 7.87197371222,
			"0.013": 7.15907380493,
			"0.014": 0.322913052406,
			"0.015": 0.0,
			"0.016": 0.0,
			"0.017": 0.0,
			"0.018": 0.0,
			"0.019": 0.0,
			"0.02": 0.0,
			"0.021": 0.0,
			"0.022": 0.0,
			"0.023": 0.0,
			"0.024": 0.0,
			"0.025": 0.0
		}
	}
}
