{
	 "smiles": "OC(=O)C=CC1=CC=C(O1)C1=CC=C(F)C=C1F", 
	 "Tm": 492.15, 
	 "num_atms": 26, 
	 "gaussian": { 
		 "optdone": 1, 
		 "sigma_profile": "yes", 
		 "theory": "DFT", 
		 "functional": "B3LYP", 
		 "basiset": "6-31G**", 
		 "properties": { 
			 "R2extent": 7427.9325, 
			 "electric_dipole_moment_norm": 4.85596581948, 
			 "electric_quadrupole_moment_norm": 28.5218959459, 
			 "total_energy": -925.527760545, 
			 "HOMO_LUMO_gap": 0.13483, 
			 "cosmo_polarized_energy": -16.41, 
			 "cosmo_cavitation_energy": 33.56, 
			 "cosmo_dispersion_energy": -23.9, 
			 "cosmo_repulsion_energy": 1.78, 
			 "cosmo_total_nonelectrostatic_energy": 11.44, 
			 "SMD_solvation_energy": 8.29 
		},
		"coords": [
			{
				"x": 3.1721147104,
				"y": 3.892963072,
				"z": 1.1243930701,
				"element": "O" 
			},
			{
				"x": 3.2698224993,
				"y": 2.5638647487,
				"z": 1.4158623714,
				"element": "C" 
			},
			{
				"x": 4.318893154,
				"y": 2.115393926,
				"z": 1.823846169,
				"element": "O" 
			},
			{
				"x": 2.0422794661,
				"y": 1.7655643021,
				"z": 1.1990602042,
				"element": "C" 
			},
			{
				"x": 2.0548070931,
				"y": 0.441492985,
				"z": 1.4635819149,
				"element": "C" 
			},
			{
				"x": 0.9654109635,
				"y": -0.470887826,
				"z": 1.3112922381,
				"element": "C" 
			},
			{
				"x": 0.8649327775,
				"y": -1.8242243477,
				"z": 1.5468665392,
				"element": "C" 
			},
			{
				"x": -0.4591649658,
				"y": -2.2072665095,
				"z": 1.2187779864,
				"element": "C" 
			},
			{
				"x": -1.1062989561,
				"y": -1.0650082789,
				"z": 0.7970025505,
				"element": "C" 
			},
			{
				"x": -0.2427428111,
				"y": -0.0059337084,
				"z": 0.8518070304,
				"element": "O" 
			},
			{
				"x": -2.452390142,
				"y": -0.777095972,
				"z": 0.3303076758,
				"element": "C" 
			},
			{
				"x": -2.8383506361,
				"y": 0.5260352002,
				"z": -0.0424414889,
				"element": "C" 
			},
			{
				"x": -4.1233751846,
				"y": 0.8113781257,
				"z": -0.4901191519,
				"element": "C" 
			},
			{
				"x": -5.0491899447,
				"y": -0.2246655627,
				"z": -0.5696369234,
				"element": "C" 
			},
			{
				"x": -6.2956424626,
				"y": 0.0359800655,
				"z": -1.000695647,
				"element": "F" 
			},
			{
				"x": -4.7243313439,
				"y": -1.5292276515,
				"z": -0.2152597001,
				"element": "C" 
			},
			{
				"x": -3.4339590872,
				"y": -1.7770605075,
				"z": 0.2267234243,
				"element": "C" 
			},
			{
				"x": -3.1230409612,
				"y": -3.0449978843,
				"z": 0.5696405543,
				"element": "F" 
			},
			{
				"x": 2.2813094007,
				"y": 4.1024709814,
				"z": 0.8117823604,
				"element": "H" 
			},
			{
				"x": 1.1405099068,
				"y": 2.2475032352,
				"z": 0.8294162249,
				"element": "H" 
			},
			{
				"x": 2.9853007083,
				"y": 0.0147625343,
				"z": 1.8310772598,
				"element": "H" 
			},
			{
				"x": 1.6581915299,
				"y": -2.460108825,
				"z": 1.9135956452,
				"element": "H" 
			},
			{
				"x": -0.8917263252,
				"y": -3.1920124696,
				"z": 1.2807153793,
				"element": "H" 
			},
			{
				"x": -2.1050087647,
				"y": 1.3205972694,
				"z": 0.0256360261,
				"element": "H" 
			},
			{
				"x": -4.4147703296,
				"y": 1.8155590945,
				"z": -0.7755150713,
				"element": "H" 
			},
			{
				"x": -5.4501802946,
				"y": -2.3303759971,
				"z": -0.2798166419,
				"element": "H" 
			}
		],
		 "valence_orbital": [ 
			{
				"type": "occ",
				"energy": -0.30341,
				"method": "rhf"
			},
			{
				"type": "occ",
				"energy": -0.27947,
				"method": "rhf"
			},
			{
				"type": "occ",
				"energy": -0.27269,
				"method": "rhf"
			},
			{
				"type": "occ",
				"energy": -0.26726,
				"method": "rhf"
			},
			{
				"type": "occ",
				"energy": -0.2153,
				"method": "rhf"
			},
			{
				"type": "unocc",
				"energy": -0.08047,
				"method": "rhf"
			},
			{
				"type": "unocc",
				"energy": -0.03083,
				"method": "rhf"
			},
			{
				"type": "unocc",
				"energy": -0.02501,
				"method": "rhf"
			},
			{
				"type": "unocc",
				"energy": 0.0421,
				"method": "rhf"
			},
			{
				"type": "unocc",
				"energy": 0.05827,
				"method": "rhf"
			}
		],
		"cosmo_sigma_profile": { 
			"-0.025": 0.0,
			"-0.024": 0.0,
			"-0.023": 0.0,
			"-0.022": 0.0,
			"-0.021": 0.0,
			"-0.02": 0.0,
			"-0.019": 0.586995450419,
			"-0.018": 1.32972703241,
			"-0.017": 1.10066123995,
			"-0.016": 1.37429266272,
			"-0.015": 0.760361122334,
			"-0.014": 0.862476493723,
			"-0.013": 0.949609113155,
			"-0.012": 1.1467482422,
			"-0.011": 0.834433274199,
			"-0.01": 1.10444122765,
			"-0.009": 2.34124893697,
			"-0.008": 7.54287697053,
			"-0.007": 9.65204703782,
			"-0.006": 10.028557262,
			"-0.005": 10.6662716902,
			"-0.004": 10.2440439178,
			"-0.003": 9.76686286146,
			"-0.002": 12.279240224,
			"-0.001": 20.7625411603,
			"0.0": 37.0565977015,
			"0.001": 35.9693037948,
			"0.002": 26.0980143841,
			"0.003": 23.7148955517,
			"0.004": 14.0275344726,
			"0.005": 2.19405345918,
			"0.006": 1.93416085956,
			"0.007": 2.43048153573,
			"0.008": 2.36882657617,
			"0.009": 3.12672556276,
			"0.01": 3.24670620007,
			"0.011": 5.36862065154,
			"0.012": 5.47913232953,
			"0.013": 3.69268316011,
			"0.014": 1.02259029775,
			"0.015": 0.0,
			"0.016": 0.0,
			"0.017": 0.0,
			"0.018": 0.0,
			"0.019": 0.0,
			"0.02": 0.0,
			"0.021": 0.0,
			"0.022": 0.0,
			"0.023": 0.0,
			"0.024": 0.0,
			"0.025": 0.0
		}
	}
}
