{
	 "smiles": "[O-][N+](=O)C1=CC(=C(NN=CC2=C(CCCC2)C#CC2=CC=CC=C2)C=C1)[N+]([O-])=O", 
	 "Tm": 471.15, 
	 "num_atms": 47, 
	 "gaussian": { 
		 "optdone": 1, 
		 "sigma_profile": "yes", 
		 "theory": "DFT", 
		 "functional": "B3LYP", 
		 "basiset": "6-31G**", 
		 "properties": { 
			 "R2extent": 15397.4448, 
			 "electric_dipole_moment_norm": 8.01553036361, 
			 "electric_quadrupole_moment_norm": 29.5072710043, 
			 "total_energy": -1330.69769124, 
			 "HOMO_LUMO_gap": 0.11239, 
			 "cosmo_polarized_energy": -16.84, 
			 "cosmo_cavitation_energy": 53.76, 
			 "cosmo_dispersion_energy": -36.21, 
			 "cosmo_repulsion_energy": 2.75, 
			 "cosmo_total_nonelectrostatic_energy": 20.3, 
			 "SMD_solvation_energy": 11.99 
		},
		"coords": [
			{
				"x": 1.3683664989,
				"y": 0.0828282621,
				"z": 5.6375902635,
				"element": "O" 
			},
			{
				"x": 0.1595099362,
				"y": -0.1640127754,
				"z": 5.6445608484,
				"element": "N" 
			},
			{
				"x": -0.4468815235,
				"y": -0.6796226518,
				"z": 6.5846626846,
				"element": "O" 
			},
			{
				"x": -0.6001572274,
				"y": 0.1797769909,
				"z": 4.4493740473,
				"element": "C" 
			},
			{
				"x": -1.9536888439,
				"y": -0.092495493,
				"z": 4.4002758519,
				"element": "C" 
			},
			{
				"x": -2.6836279957,
				"y": 0.2294853735,
				"z": 3.2564141955,
				"element": "C" 
			},
			{
				"x": -2.0551223876,
				"y": 0.8222237114,
				"z": 2.1069673633,
				"element": "C" 
			},
			{
				"x": -2.7712782409,
				"y": 1.1293042696,
				"z": 0.9919136954,
				"element": "N" 
			},
			{
				"x": -2.359509729,
				"y": 1.700141807,
				"z": -0.1954431884,
				"element": "N" 
			},
			{
				"x": -1.2902961811,
				"y": 1.2376096252,
				"z": -0.7585672266,
				"element": "C" 
			},
			{
				"x": -0.8210984139,
				"y": 1.7943710962,
				"z": -2.012745816,
				"element": "C" 
			},
			{
				"x": 0.3362312978,
				"y": 1.3156194414,
				"z": -2.5724730942,
				"element": "C" 
			},
			{
				"x": 0.8794228676,
				"y": 1.8532484677,
				"z": -3.888594013,
				"element": "C" 
			},
			{
				"x": 0.2469662771,
				"y": 3.1854377619,
				"z": -4.3066921424,
				"element": "C" 
			},
			{
				"x": -1.2721792343,
				"y": 3.1384888825,
				"z": -4.1232781333,
				"element": "C" 
			},
			{
				"x": -1.6307849711,
				"y": 2.9016180792,
				"z": -2.6518717405,
				"element": "C" 
			},
			{
				"x": 1.1048326868,
				"y": 0.2847460049,
				"z": -1.972370602,
				"element": "C" 
			},
			{
				"x": 1.8258920037,
				"y": -0.5823563577,
				"z": -1.5086500492,
				"element": "C" 
			},
			{
				"x": 2.6534430604,
				"y": -1.5938230719,
				"z": -0.9440242431,
				"element": "C" 
			},
			{
				"x": 2.3887543642,
				"y": -2.0989373273,
				"z": 0.3460567168,
				"element": "C" 
			},
			{
				"x": 3.2042240831,
				"y": -3.0837755789,
				"z": 0.8955446626,
				"element": "C" 
			},
			{
				"x": 4.2910972021,
				"y": -3.5822894117,
				"z": 0.1722829064,
				"element": "C" 
			},
			{
				"x": 4.561750454,
				"y": -3.0892069553,
				"z": -1.1070455522,
				"element": "C" 
			},
			{
				"x": 3.7537097238,
				"y": -2.1027618624,
				"z": -1.6645920872,
				"element": "C" 
			},
			{
				"x": -0.6623919122,
				"y": 1.1037218686,
				"z": 2.2275089801,
				"element": "C" 
			},
			{
				"x": 0.0464808539,
				"y": 0.7978287558,
				"z": 3.3663705288,
				"element": "C" 
			},
			{
				"x": -4.1062686918,
				"y": -0.0684227387,
				"z": 3.3059623591,
				"element": "N" 
			},
			{
				"x": -4.8328639623,
				"y": 0.3293322132,
				"z": 2.3745021379,
				"element": "O" 
			},
			{
				"x": -4.5413341105,
				"y": -0.6954528792,
				"z": 4.2684552047,
				"element": "O" 
			},
			{
				"x": -2.4556872214,
				"y": -0.5514787131,
				"z": 5.240913376,
				"element": "H" 
			},
			{
				"x": -3.7794095028,
				"y": 1.1243038061,
				"z": 1.1200762602,
				"element": "H" 
			},
			{
				"x": -0.7215837815,
				"y": 0.4070190874,
				"z": -0.3383088826,
				"element": "H" 
			},
			{
				"x": 0.7028951125,
				"y": 1.0914298545,
				"z": -4.6620194618,
				"element": "H" 
			},
			{
				"x": 1.9683808045,
				"y": 1.9449852098,
				"z": -3.8081565189,
				"element": "H" 
			},
			{
				"x": 0.5117238528,
				"y": 3.4072246625,
				"z": -5.3462407243,
				"element": "H" 
			},
			{
				"x": 0.6623451866,
				"y": 3.9966597889,
				"z": -3.6943439843,
				"element": "H" 
			},
			{
				"x": -1.6873432696,
				"y": 2.3292028928,
				"z": -4.738605894,
				"element": "H" 
			},
			{
				"x": -1.7357832404,
				"y": 4.0678084947,
				"z": -4.4711527446,
				"element": "H" 
			},
			{
				"x": -1.4776756225,
				"y": 3.8246615505,
				"z": -2.0741943368,
				"element": "H" 
			},
			{
				"x": -2.694782282,
				"y": 2.6695939492,
				"z": -2.5389881027,
				"element": "H" 
			},
			{
				"x": 1.5453450806,
				"y": -1.7079712466,
				"z": 0.9063310517,
				"element": "H" 
			},
			{
				"x": 2.9924121273,
				"y": -3.4632644984,
				"z": 1.8906745519,
				"element": "H" 
			},
			{
				"x": 4.9246648869,
				"y": -4.3511550505,
				"z": 0.6042516127,
				"element": "H" 
			},
			{
				"x": 5.4059140745,
				"y": -3.4745640559,
				"z": -1.6712056289,
				"element": "H" 
			},
			{
				"x": 3.9606322813,
				"y": -1.7162663033,
				"z": -2.6572863408,
				"element": "H" 
			},
			{
				"x": -0.1558620908,
				"y": 1.6017906973,
				"z": 1.4129345778,
				"element": "H" 
			},
			{
				"x": 1.1001157192,
				"y": 1.0351943665,
				"z": 3.4474266311,
				"element": "H" 
			}
		],
		 "valence_orbital": [ 
			{
				"type": "occ",
				"energy": -0.28608,
				"method": "rhf"
			},
			{
				"type": "occ",
				"energy": -0.27655,
				"method": "rhf"
			},
			{
				"type": "occ",
				"energy": -0.26792,
				"method": "rhf"
			},
			{
				"type": "occ",
				"energy": -0.24305,
				"method": "rhf"
			},
			{
				"type": "occ",
				"energy": -0.21524,
				"method": "rhf"
			},
			{
				"type": "unocc",
				"energy": -0.10285,
				"method": "rhf"
			},
			{
				"type": "unocc",
				"energy": -0.09348,
				"method": "rhf"
			},
			{
				"type": "unocc",
				"energy": -0.07464,
				"method": "rhf"
			},
			{
				"type": "unocc",
				"energy": -0.03127,
				"method": "rhf"
			},
			{
				"type": "unocc",
				"energy": -0.01861,
				"method": "rhf"
			}
		],
		"cosmo_sigma_profile": { 
			"-0.025": 0.0,
			"-0.024": 0.0,
			"-0.023": 0.0,
			"-0.022": 0.0,
			"-0.021": 0.0,
			"-0.02": 0.0,
			"-0.019": 0.0,
			"-0.018": 0.0,
			"-0.017": 0.0,
			"-0.016": 0.0,
			"-0.015": 0.0,
			"-0.014": 0.0,
			"-0.013": 0.0,
			"-0.012": 0.0,
			"-0.011": 0.0,
			"-0.01": 0.502498631973,
			"-0.009": 1.16146539022,
			"-0.008": 4.04438151242,
			"-0.007": 8.12308628649,
			"-0.006": 17.7799655457,
			"-0.005": 22.5232523646,
			"-0.004": 32.1896263131,
			"-0.003": 46.2126786864,
			"-0.002": 53.0644256988,
			"-0.001": 46.6557919231,
			"0.0": 35.6359148967,
			"0.001": 24.6643879254,
			"0.002": 22.4775737246,
			"0.003": 21.971934933,
			"0.004": 24.1722743924,
			"0.005": 15.4366453213,
			"0.006": 7.7076990488,
			"0.007": 12.9731641258,
			"0.008": 14.9855425126,
			"0.009": 10.3541254656,
			"0.01": 6.38553362228,
			"0.011": 1.30000543218,
			"0.012": 0.411184074496,
			"0.013": 0.0,
			"0.014": 0.0,
			"0.015": 0.0,
			"0.016": 0.0,
			"0.017": 0.0,
			"0.018": 0.0,
			"0.019": 0.0,
			"0.02": 0.0,
			"0.021": 0.0,
			"0.022": 0.0,
			"0.023": 0.0,
			"0.024": 0.0,
			"0.025": 0.0
		}
	}
}
