{
	 "smiles": "CN1NC(=O)C=C1C", 
	 "Tm": 443.15, 
	 "num_atms": 16, 
	 "gaussian": { 
		 "optdone": 1, 
		 "sigma_profile": "yes", 
		 "theory": "DFT", 
		 "functional": "B3LYP", 
		 "basiset": "6-31G**", 
		 "properties": { 
			 "R2extent": 1363.86, 
			 "electric_dipole_moment_norm": 5.63450252906, 
			 "electric_quadrupole_moment_norm": 15.7663788052, 
			 "total_energy": -380.052379923, 
			 "HOMO_LUMO_gap": 0.19958, 
			 "cosmo_polarized_energy": -15.08, 
			 "cosmo_cavitation_energy": 19.5, 
			 "cosmo_dispersion_energy": -14.46, 
			 "cosmo_repulsion_energy": 1.21, 
			 "cosmo_total_nonelectrostatic_energy": 6.25, 
			 "SMD_solvation_energy": 3.87 
		},
		"coords": [
			{
				"x": 1.0474423138,
				"y": 2.8533990763,
				"z": 0.5652146203,
				"element": "C" 
			},
			{
				"x": 0.4992402196,
				"y": 1.922166269,
				"z": -0.4195817746,
				"element": "N" 
			},
			{
				"x": -0.7437305541,
				"y": 2.3293588093,
				"z": -0.9607680934,
				"element": "N" 
			},
			{
				"x": -1.5213290019,
				"y": 1.1800970419,
				"z": -1.2701681416,
				"element": "C" 
			},
			{
				"x": -2.536831286,
				"y": 1.2137695942,
				"z": -1.9490066828,
				"element": "O" 
			},
			{
				"x": -0.8056718526,
				"y": 0.0842951251,
				"z": -0.6289492821,
				"element": "C" 
			},
			{
				"x": 0.3591174279,
				"y": 0.568949948,
				"z": -0.1226596934,
				"element": "C" 
			},
			{
				"x": 1.4169582079,
				"y": -0.1492634461,
				"z": 0.6540348422,
				"element": "C" 
			},
			{
				"x": 2.0169026988,
				"y": 2.4824242849,
				"z": 0.9025095213,
				"element": "H" 
			},
			{
				"x": 1.2053542817,
				"y": 3.8238677196,
				"z": 0.0884224633,
				"element": "H" 
			},
			{
				"x": 0.3806128846,
				"y": 2.9865226723,
				"z": 1.4274933766,
				"element": "H" 
			},
			{
				"x": -0.6662198291,
				"y": 3.0257890051,
				"z": -1.694641703,
				"element": "H" 
			},
			{
				"x": -1.1343622906,
				"y": -0.9440153534,
				"z": -0.6304814405,
				"element": "H" 
			},
			{
				"x": 1.4324775552,
				"y": 0.1654998833,
				"z": 1.7042958863,
				"element": "H" 
			},
			{
				"x": 1.2263575727,
				"y": -1.2237153539,
				"z": 0.6307020489,
				"element": "H" 
			},
			{
				"x": 2.4127816521,
				"y": 0.0341547245,
				"z": 0.2370840525,
				"element": "H" 
			}
		],
		 "valence_orbital": [ 
			{
				"type": "occ",
				"energy": -0.38566,
				"method": "rhf"
			},
			{
				"type": "occ",
				"energy": -0.32721,
				"method": "rhf"
			},
			{
				"type": "occ",
				"energy": -0.27174,
				"method": "rhf"
			},
			{
				"type": "occ",
				"energy": -0.234,
				"method": "rhf"
			},
			{
				"type": "occ",
				"energy": -0.21005,
				"method": "rhf"
			},
			{
				"type": "unocc",
				"energy": -0.01047,
				"method": "rhf"
			},
			{
				"type": "unocc",
				"energy": 0.07239,
				"method": "rhf"
			},
			{
				"type": "unocc",
				"energy": 0.0834,
				"method": "rhf"
			},
			{
				"type": "unocc",
				"energy": 0.11524,
				"method": "rhf"
			},
			{
				"type": "unocc",
				"energy": 0.11637,
				"method": "rhf"
			}
		],
		"cosmo_sigma_profile": { 
			"-0.025": 0.0,
			"-0.024": 0.0,
			"-0.023": 0.0,
			"-0.022": 0.0,
			"-0.021": 0.0,
			"-0.02": 0.0,
			"-0.019": 0.0,
			"-0.018": 0.0,
			"-0.017": 0.0,
			"-0.016": 0.0,
			"-0.015": 0.337703671842,
			"-0.014": 1.36016422217,
			"-0.013": 1.11164133171,
			"-0.012": 1.11143602187,
			"-0.011": 1.17163433607,
			"-0.01": 0.846176105624,
			"-0.009": 1.06571725436,
			"-0.008": 1.09194114399,
			"-0.007": 2.77471159133,
			"-0.006": 10.9697386132,
			"-0.005": 18.0515565711,
			"-0.004": 15.1666424177,
			"-0.003": 14.4857204948,
			"-0.002": 14.5227538385,
			"-0.001": 8.46891721316,
			"0.0": 5.54233263475,
			"0.001": 4.6789565868,
			"0.002": 5.37427551509,
			"0.003": 6.42945307837,
			"0.004": 6.97417862419,
			"0.005": 3.75508050707,
			"0.006": 2.72964179052,
			"0.007": 3.22290214128,
			"0.008": 2.09315916161,
			"0.009": 1.44521125905,
			"0.01": 1.95531751464,
			"0.011": 1.59004018962,
			"0.012": 1.48830590172,
			"0.013": 2.07499741598,
			"0.014": 4.53953962668,
			"0.015": 6.03288020139,
			"0.016": 1.32661301475,
			"0.017": 0.0,
			"0.018": 0.0,
			"0.019": 0.0,
			"0.02": 0.0,
			"0.021": 0.0,
			"0.022": 0.0,
			"0.023": 0.0,
			"0.024": 0.0,
			"0.025": 0.0
		}
	}
}
