{
	 "smiles": "COC(=O)C(=O)CC(=O)C1=C(C)C=CC=C1", 
	 "Tm": 333.15, 
	 "num_atms": 28, 
	 "gaussian": { 
		 "optdone": 1, 
		 "sigma_profile": "yes", 
		 "theory": "DFT", 
		 "functional": "B3LYP", 
		 "basiset": "6-31G**", 
		 "properties": { 
			 "R2extent": 4415.9025, 
			 "electric_dipole_moment_norm": 2.98280281782, 
			 "electric_quadrupole_moment_norm": 13.5440065774, 
			 "total_energy": -765.395569975, 
			 "HOMO_LUMO_gap": 0.17564, 
			 "cosmo_polarized_energy": -13.73, 
			 "cosmo_cavitation_energy": 33.07, 
			 "cosmo_dispersion_energy": -23.09, 
			 "cosmo_repulsion_energy": 1.82, 
			 "cosmo_total_nonelectrostatic_energy": 11.81, 
			 "SMD_solvation_energy": 8.29 
		},
		"coords": [
			{
				"x": 3.1147590596,
				"y": -3.7152835805,
				"z": -0.3659551504,
				"element": "C" 
			},
			{
				"x": 1.8611554914,
				"y": -3.5547209996,
				"z": 0.3248533001,
				"element": "O" 
			},
			{
				"x": 1.0194425127,
				"y": -2.6773022795,
				"z": -0.217205861,
				"element": "C" 
			},
			{
				"x": 1.2220603231,
				"y": -2.0364702322,
				"z": -1.2297329614,
				"element": "O" 
			},
			{
				"x": -0.3007497756,
				"y": -2.5636265692,
				"z": 0.5761946195,
				"element": "C" 
			},
			{
				"x": -0.5819776903,
				"y": -3.3445702943,
				"z": 1.4533712128,
				"element": "O" 
			},
			{
				"x": -1.1960864492,
				"y": -1.4328751641,
				"z": 0.1028050835,
				"element": "C" 
			},
			{
				"x": -0.5067492934,
				"y": -0.0740168031,
				"z": 0.2988780493,
				"element": "C" 
			},
			{
				"x": 0.2036244498,
				"y": 0.0724689122,
				"z": 1.2830735986,
				"element": "O" 
			},
			{
				"x": -0.7864267851,
				"y": 1.033607714,
				"z": -0.6624091362,
				"element": "C" 
			},
			{
				"x": -0.8224223769,
				"y": 2.3814984917,
				"z": -0.2213787941,
				"element": "C" 
			},
			{
				"x": -0.6003819487,
				"y": 2.7889507715,
				"z": 1.2163126013,
				"element": "C" 
			},
			{
				"x": -1.0882968418,
				"y": 3.3732301504,
				"z": -1.1734659957,
				"element": "C" 
			},
			{
				"x": -1.2776114687,
				"y": 3.0709563869,
				"z": -2.5219335199,
				"element": "C" 
			},
			{
				"x": -1.2114128889,
				"y": 1.7469891307,
				"z": -2.9538395011,
				"element": "C" 
			},
			{
				"x": -0.9796680836,
				"y": 0.7388679004,
				"z": -2.0227804701,
				"element": "C" 
			},
			{
				"x": 3.645251488,
				"y": -2.7614242069,
				"z": -0.4151227418,
				"element": "H" 
			},
			{
				"x": 2.9450713048,
				"y": -4.081852841,
				"z": -1.3812823609,
				"element": "H" 
			},
			{
				"x": 3.67819099,
				"y": -4.4418861016,
				"z": 0.2175891424,
				"element": "H" 
			},
			{
				"x": -1.4986753286,
				"y": -1.6088708882,
				"z": -0.9316596601,
				"element": "H" 
			},
			{
				"x": -2.0971918103,
				"y": -1.4391516799,
				"z": 0.724797373,
				"element": "H" 
			},
			{
				"x": -1.1792755821,
				"y": 2.1768496061,
				"z": 1.9134944191,
				"element": "H" 
			},
			{
				"x": 0.4471248769,
				"y": 2.6630852589,
				"z": 1.5030792792,
				"element": "H" 
			},
			{
				"x": -0.8794981739,
				"y": 3.8366317369,
				"z": 1.3588702658,
				"element": "H" 
			},
			{
				"x": -1.1411933188,
				"y": 4.4082492996,
				"z": -0.8461536897,
				"element": "H" 
			},
			{
				"x": -1.4726635712,
				"y": 3.8697283489,
				"z": -3.2319759674,
				"element": "H" 
			},
			{
				"x": -1.3396656575,
				"y": 1.5002840466,
				"z": -4.0032899417,
				"element": "H" 
			},
			{
				"x": -0.8955334516,
				"y": -0.2872461145,
				"z": -2.3636331932,
				"element": "H" 
			}
		],
		 "valence_orbital": [ 
			{
				"type": "occ",
				"energy": -0.31707,
				"method": "rhf"
			},
			{
				"type": "occ",
				"energy": -0.2679,
				"method": "rhf"
			},
			{
				"type": "occ",
				"energy": -0.25624,
				"method": "rhf"
			},
			{
				"type": "occ",
				"energy": -0.25017,
				"method": "rhf"
			},
			{
				"type": "occ",
				"energy": -0.25011,
				"method": "rhf"
			},
			{
				"type": "unocc",
				"energy": -0.07447,
				"method": "rhf"
			},
			{
				"type": "unocc",
				"energy": -0.05547,
				"method": "rhf"
			},
			{
				"type": "unocc",
				"energy": -0.00787,
				"method": "rhf"
			},
			{
				"type": "unocc",
				"energy": 0.02583,
				"method": "rhf"
			},
			{
				"type": "unocc",
				"energy": 0.05354,
				"method": "rhf"
			}
		],
		"cosmo_sigma_profile": { 
			"-0.025": 0.0,
			"-0.024": 0.0,
			"-0.023": 0.0,
			"-0.022": 0.0,
			"-0.021": 0.0,
			"-0.02": 0.0,
			"-0.019": 0.0,
			"-0.018": 0.0,
			"-0.017": 0.0,
			"-0.016": 0.0,
			"-0.015": 0.0,
			"-0.014": 0.0,
			"-0.013": 0.0,
			"-0.012": 0.0,
			"-0.011": 0.0,
			"-0.01": 0.0801710297417,
			"-0.009": 2.63929347288,
			"-0.008": 4.53747853094,
			"-0.007": 10.1104108363,
			"-0.006": 18.8733433938,
			"-0.005": 21.9875118702,
			"-0.004": 26.9934454777,
			"-0.003": 17.1893297002,
			"-0.002": 15.7874168156,
			"-0.001": 15.9566076075,
			"0.0": 16.9054941617,
			"0.001": 14.2290445367,
			"0.002": 13.72430044,
			"0.003": 17.1466120181,
			"0.004": 17.3524532925,
			"0.005": 8.7442908412,
			"0.006": 5.86432340546,
			"0.007": 5.80168655836,
			"0.008": 5.99007428256,
			"0.009": 8.63155945287,
			"0.01": 7.791985888,
			"0.011": 6.16590673715,
			"0.012": 0.716712098604,
			"0.013": 0.0,
			"0.014": 0.0,
			"0.015": 0.0,
			"0.016": 0.0,
			"0.017": 0.0,
			"0.018": 0.0,
			"0.019": 0.0,
			"0.02": 0.0,
			"0.021": 0.0,
			"0.022": 0.0,
			"0.023": 0.0,
			"0.024": 0.0,
			"0.025": 0.0
		}
	}
}
