{
	 "smiles": "CN1C=C(C=C1C(=O)C(Cl)(Cl)Cl)C(C)=O", 
	 "Tm": 407.15, 
	 "num_atms": 23, 
	 "gaussian": { 
		 "optdone": 1, 
		 "sigma_profile": "yes", 
		 "theory": "DFT", 
		 "functional": "B3LYP", 
		 "basiset": "6-31G**", 
		 "properties": { 
			 "R2extent": 5335.7812, 
			 "electric_dipole_moment_norm": 1.012794999, 
			 "electric_quadrupole_moment_norm": 23.2816117262, 
			 "total_energy": -1933.52819647, 
			 "HOMO_LUMO_gap": 0.16871, 
			 "cosmo_polarized_energy": -11.82, 
			 "cosmo_cavitation_energy": 32.78, 
			 "cosmo_dispersion_energy": -23.13, 
			 "cosmo_repulsion_energy": 1.82, 
			 "cosmo_total_nonelectrostatic_energy": 11.47, 
			 "SMD_solvation_energy": 6.09 
		},
		"coords": [
			{
				"x": 0.539599471,
				"y": -2.5855804928,
				"z": -0.8730884826,
				"element": "C" 
			},
			{
				"x": -0.0861883242,
				"y": -1.3212601266,
				"z": -0.4833700236,
				"element": "N" 
			},
			{
				"x": -1.3862819073,
				"y": -1.2031969273,
				"z": -0.1506477361,
				"element": "C" 
			},
			{
				"x": -1.6723737277,
				"y": 0.1270669662,
				"z": 0.1704888404,
				"element": "C" 
			},
			{
				"x": -0.4670255668,
				"y": 0.8412591748,
				"z": 0.0185795477,
				"element": "C" 
			},
			{
				"x": 0.5209670855,
				"y": -0.0571469454,
				"z": -0.3879694385,
				"element": "C" 
			},
			{
				"x": 1.9303940523,
				"y": 0.1112670231,
				"z": -0.6922200459,
				"element": "C" 
			},
			{
				"x": 2.6604896626,
				"y": -0.7999817183,
				"z": -1.0394542076,
				"element": "O" 
			},
			{
				"x": 2.5646989958,
				"y": 1.5589234488,
				"z": -0.5678385262,
				"element": "C" 
			},
			{
				"x": 4.2928322143,
				"y": 1.4988943815,
				"z": -0.9919929596,
				"element": "Cl" 
			},
			{
				"x": 1.726461445,
				"y": 2.6923363843,
				"z": -1.6985456834,
				"element": "Cl" 
			},
			{
				"x": 2.4022659437,
				"y": 2.1531930507,
				"z": 1.1310695162,
				"element": "Cl" 
			},
			{
				"x": -3.0127104979,
				"y": 0.595388996,
				"z": 0.579466193,
				"element": "C" 
			},
			{
				"x": -3.1801448465,
				"y": 2.0691669316,
				"z": 0.8996956723,
				"element": "C" 
			},
			{
				"x": -3.9491633561,
				"y": -0.188922624,
				"z": 0.6537931281,
				"element": "O" 
			},
			{
				"x": 1.3524596191,
				"y": -2.8383227163,
				"z": -0.1917069831,
				"element": "H" 
			},
			{
				"x": 0.9491836555,
				"y": -2.5171202215,
				"z": -1.8812801243,
				"element": "H" 
			},
			{
				"x": -0.2286260565,
				"y": -3.359448659,
				"z": -0.836862466,
				"element": "H" 
			},
			{
				"x": -2.0546075688,
				"y": -2.051763577,
				"z": -0.1524491574,
				"element": "H" 
			},
			{
				"x": -0.3207256223,
				"y": 1.8967724822,
				"z": 0.1842911474,
				"element": "H" 
			},
			{
				"x": -2.9191564627,
				"y": 2.6860632928,
				"z": 0.0322553789,
				"element": "H" 
			},
			{
				"x": -2.5160296479,
				"y": 2.3652010404,
				"z": 1.7197188975,
				"element": "H" 
			},
			{
				"x": -4.21581856,
				"y": 2.2588108356,
				"z": 1.1831675127,
				"element": "H" 
			}
		],
		 "valence_orbital": [ 
			{
				"type": "occ",
				"energy": -0.31314,
				"method": "rhf"
			},
			{
				"type": "occ",
				"energy": -0.28491,
				"method": "rhf"
			},
			{
				"type": "occ",
				"energy": -0.27375,
				"method": "rhf"
			},
			{
				"type": "occ",
				"energy": -0.25185,
				"method": "rhf"
			},
			{
				"type": "occ",
				"energy": -0.25032,
				"method": "rhf"
			},
			{
				"type": "unocc",
				"energy": -0.08161,
				"method": "rhf"
			},
			{
				"type": "unocc",
				"energy": -0.04764,
				"method": "rhf"
			},
			{
				"type": "unocc",
				"energy": -0.04162,
				"method": "rhf"
			},
			{
				"type": "unocc",
				"energy": -0.00552,
				"method": "rhf"
			},
			{
				"type": "unocc",
				"energy": -0.00313,
				"method": "rhf"
			}
		],
		"cosmo_sigma_profile": { 
			"-0.025": 0.0,
			"-0.024": 0.0,
			"-0.023": 0.0,
			"-0.022": 0.0,
			"-0.021": 0.0,
			"-0.02": 0.0,
			"-0.019": 0.0,
			"-0.018": 0.0,
			"-0.017": 0.0,
			"-0.016": 0.0,
			"-0.015": 0.0,
			"-0.014": 0.0,
			"-0.013": 0.0,
			"-0.012": 0.0,
			"-0.011": 0.103240124557,
			"-0.01": 1.90125012889,
			"-0.009": 2.2053765515,
			"-0.008": 2.56250207169,
			"-0.007": 4.25026393372,
			"-0.006": 12.7839322365,
			"-0.005": 16.4664922661,
			"-0.004": 22.0422229688,
			"-0.003": 26.1205527407,
			"-0.002": 18.6429952273,
			"-0.001": 22.9227351012,
			"0.0": 23.9678531285,
			"0.001": 21.8306327824,
			"0.002": 30.6522592051,
			"0.003": 24.0803440251,
			"0.004": 4.28867611356,
			"0.005": 2.81357989806,
			"0.006": 3.72748902037,
			"0.007": 3.82517706968,
			"0.008": 3.01318362566,
			"0.009": 3.91635781915,
			"0.01": 4.35014542932,
			"0.011": 4.40260020311,
			"0.012": 4.10935389239,
			"0.013": 2.39632030526,
			"0.014": 0.604484329231,
			"0.015": 0.0,
			"0.016": 0.0,
			"0.017": 0.0,
			"0.018": 0.0,
			"0.019": 0.0,
			"0.02": 0.0,
			"0.021": 0.0,
			"0.022": 0.0,
			"0.023": 0.0,
			"0.024": 0.0,
			"0.025": 0.0
		}
	}
}
