{
	 "smiles": "[O-][N+](=O)C1=CC=C(O1)C=CC=O", 
	 "Tm": 391.15, 
	 "num_atms": 17, 
	 "gaussian": { 
		 "optdone": 1, 
		 "sigma_profile": "yes", 
		 "theory": "DFT", 
		 "functional": "B3LYP", 
		 "basiset": "6-31G**", 
		 "properties": { 
			 "R2extent": 2898.6712, 
			 "electric_dipole_moment_norm": 5.70791077278, 
			 "electric_quadrupole_moment_norm": 14.6172020982, 
			 "total_energy": -625.240559524, 
			 "HOMO_LUMO_gap": 0.13742, 
			 "cosmo_polarized_energy": -15.06, 
			 "cosmo_cavitation_energy": 24.35, 
			 "cosmo_dispersion_energy": -17.34, 
			 "cosmo_repulsion_energy": 1.39, 
			 "cosmo_total_nonelectrostatic_energy": 8.41, 
			 "SMD_solvation_energy": 8.63 
		},
		"coords": [
			{
				"x": 1.8649630438,
				"y": 1.6919789614,
				"z": -2.0632658306,
				"element": "O" 
			},
			{
				"x": 2.246701205,
				"y": 0.6561840508,
				"z": -1.5234607764,
				"element": "N" 
			},
			{
				"x": 3.3217164562,
				"y": 0.0804051072,
				"z": -1.717133381,
				"element": "O" 
			},
			{
				"x": 1.3774371124,
				"y": 0.0352732807,
				"z": -0.571585337,
				"element": "C" 
			},
			{
				"x": 1.5463216329,
				"y": -1.1066589487,
				"z": 0.1675637723,
				"element": "C" 
			},
			{
				"x": 0.3634009642,
				"y": -1.2281343271,
				"z": 0.9332394721,
				"element": "C" 
			},
			{
				"x": -0.443136111,
				"y": -0.1513309093,
				"z": 0.6066179917,
				"element": "C" 
			},
			{
				"x": 0.1929456938,
				"y": 0.6258161613,
				"z": -0.3260860404,
				"element": "O" 
			},
			{
				"x": -1.7422534078,
				"y": 0.3003925569,
				"z": 1.0193169031,
				"element": "C" 
			},
			{
				"x": -2.5385804432,
				"y": -0.3114243813,
				"z": 1.9225514763,
				"element": "C" 
			},
			{
				"x": -3.859174329,
				"y": 0.2550947455,
				"z": 2.2636170625,
				"element": "C" 
			},
			{
				"x": -4.3124686001,
				"y": 1.27579244,
				"z": 1.7763489344,
				"element": "O" 
			},
			{
				"x": 2.4098149246,
				"y": -1.7527217827,
				"z": 0.1463388174,
				"element": "H" 
			},
			{
				"x": 0.1252079136,
				"y": -2.0087504319,
				"z": 1.6408562188,
				"element": "H" 
			},
			{
				"x": -2.1044784644,
				"y": 1.2160037507,
				"z": 0.5565904903,
				"element": "H" 
			},
			{
				"x": -2.2411602066,
				"y": -1.2294005625,
				"z": 2.4240292291,
				"element": "H" 
			},
			{
				"x": -4.4376573842,
				"y": -0.320719711,
				"z": 3.0157609974,
				"element": "H" 
			}
		],
		 "valence_orbital": [ 
			{
				"type": "occ",
				"energy": -0.31886,
				"method": "rhf"
			},
			{
				"type": "occ",
				"energy": -0.31572,
				"method": "rhf"
			},
			{
				"type": "occ",
				"energy": -0.30262,
				"method": "rhf"
			},
			{
				"type": "occ",
				"energy": -0.2698,
				"method": "rhf"
			},
			{
				"type": "occ",
				"energy": -0.25672,
				"method": "rhf"
			},
			{
				"type": "unocc",
				"energy": -0.1193,
				"method": "rhf"
			},
			{
				"type": "unocc",
				"energy": -0.07728,
				"method": "rhf"
			},
			{
				"type": "unocc",
				"energy": 0.00409,
				"method": "rhf"
			},
			{
				"type": "unocc",
				"energy": 0.0373,
				"method": "rhf"
			},
			{
				"type": "unocc",
				"energy": 0.07312,
				"method": "rhf"
			}
		],
		"cosmo_sigma_profile": { 
			"-0.025": 0.0,
			"-0.024": 0.0,
			"-0.023": 0.0,
			"-0.022": 0.0,
			"-0.021": 0.0,
			"-0.02": 0.0,
			"-0.019": 0.0,
			"-0.018": 0.0,
			"-0.017": 0.0,
			"-0.016": 0.0,
			"-0.015": 0.0,
			"-0.014": 0.0,
			"-0.013": 0.0,
			"-0.012": 0.0,
			"-0.011": 0.0341422531889,
			"-0.01": 3.0638647637,
			"-0.009": 5.31837875786,
			"-0.008": 8.42030472727,
			"-0.007": 10.9673294571,
			"-0.006": 11.1972281832,
			"-0.005": 11.0739749326,
			"-0.004": 11.4407655518,
			"-0.003": 15.3527471888,
			"-0.002": 14.9398421446,
			"-0.001": 15.7419291834,
			"0.0": 13.5084270993,
			"0.001": 8.19342578036,
			"0.002": 5.57961447757,
			"0.003": 4.01108439188,
			"0.004": 4.64154460562,
			"0.005": 4.50215403764,
			"0.006": 5.85026835701,
			"0.007": 11.2398228363,
			"0.008": 11.3049114689,
			"0.009": 8.10800438577,
			"0.01": 4.95037104614,
			"0.011": 4.31869707345,
			"0.012": 2.25954378362,
			"0.013": 0.610593378912,
			"0.014": 0.0,
			"0.015": 0.0,
			"0.016": 0.0,
			"0.017": 0.0,
			"0.018": 0.0,
			"0.019": 0.0,
			"0.02": 0.0,
			"0.021": 0.0,
			"0.022": 0.0,
			"0.023": 0.0,
			"0.024": 0.0,
			"0.025": 0.0
		}
	}
}
