{
	 "smiles": "CCCNC(=O)NS(=O)(=O)C1=CC=C(Cl)C=C1", 
	 "Tm": 401.15, 
	 "num_atms": 30, 
	 "gaussian": { 
		 "optdone": 1, 
		 "sigma_profile": "yes", 
		 "theory": "DFT", 
		 "functional": "B3LYP", 
		 "basiset": "6-31G**", 
		 "properties": { 
			 "R2extent": 7829.6149, 
			 "electric_dipole_moment_norm": 2.58617507915, 
			 "electric_quadrupole_moment_norm": 15.2231766406, 
			 "total_energy": -1582.41744376, 
			 "HOMO_LUMO_gap": 0.2013, 
			 "cosmo_polarized_energy": -16.11, 
			 "cosmo_cavitation_energy": 37.29, 
			 "cosmo_dispersion_energy": -26.53, 
			 "cosmo_repulsion_energy": 2.06, 
			 "cosmo_total_nonelectrostatic_energy": 12.81, 
			 "SMD_solvation_energy": 5.83 
		},
		"coords": [
			{
				"x": 2.1892912389,
				"y": -3.2516100558,
				"z": 2.1210395844,
				"element": "C" 
			},
			{
				"x": 2.3197802975,
				"y": -2.8657178502,
				"z": 0.6449853661,
				"element": "C" 
			},
			{
				"x": 1.7643027831,
				"y": -1.4734430106,
				"z": 0.3097648822,
				"element": "C" 
			},
			{
				"x": 0.3299344473,
				"y": -1.3397008948,
				"z": 0.5491786201,
				"element": "N" 
			},
			{
				"x": -0.146524636,
				"y": -0.6905602877,
				"z": 1.6412766268,
				"element": "C" 
			},
			{
				"x": 0.5181378823,
				"y": -0.1099683419,
				"z": 2.4845984267,
				"element": "O" 
			},
			{
				"x": -1.5676357125,
				"y": -0.7219650357,
				"z": 1.805372828,
				"element": "N" 
			},
			{
				"x": -2.7926930963,
				"y": -0.9163330938,
				"z": 0.6604296516,
				"element": "S" 
			},
			{
				"x": -2.3204322599,
				"y": -1.9312903326,
				"z": -0.2887413225,
				"element": "O" 
			},
			{
				"x": -4.0186107123,
				"y": -1.0810003713,
				"z": 1.4356779577,
				"element": "O" 
			},
			{
				"x": -2.908246913,
				"y": 0.6403248323,
				"z": -0.2216289867,
				"element": "C" 
			},
			{
				"x": -3.8601640895,
				"y": 1.578256645,
				"z": 0.183456771,
				"element": "C" 
			},
			{
				"x": -3.9462103547,
				"y": 2.7980693318,
				"z": -0.484722024,
				"element": "C" 
			},
			{
				"x": -3.0764116258,
				"y": 3.0568090176,
				"z": -1.5456275649,
				"element": "C" 
			},
			{
				"x": -3.1824321751,
				"y": 4.588921097,
				"z": -2.3861354213,
				"element": "Cl" 
			},
			{
				"x": -2.1282308019,
				"y": 2.1171919289,
				"z": -1.9568445093,
				"element": "C" 
			},
			{
				"x": -2.0453553743,
				"y": 0.8972104207,
				"z": -1.2901333294,
				"element": "C" 
			},
			{
				"x": 2.6335780933,
				"y": -4.234434077,
				"z": 2.3072119992,
				"element": "H" 
			},
			{
				"x": 2.689806439,
				"y": -2.5232587378,
				"z": 2.767038043,
				"element": "H" 
			},
			{
				"x": 1.1403463828,
				"y": -3.2987010883,
				"z": 2.429288222,
				"element": "H" 
			},
			{
				"x": 3.3761540438,
				"y": -2.8775776351,
				"z": 0.346566409,
				"element": "H" 
			},
			{
				"x": 1.8184980359,
				"y": -3.6149841512,
				"z": 0.0170347364,
				"element": "H" 
			},
			{
				"x": 1.9607482745,
				"y": -1.2406698861,
				"z": -0.7437897993,
				"element": "H" 
			},
			{
				"x": 2.2551181659,
				"y": -0.7101988668,
				"z": 0.91791246,
				"element": "H" 
			},
			{
				"x": -0.3185951173,
				"y": -1.9214985456,
				"z": 0.0303286538,
				"element": "H" 
			},
			{
				"x": -1.8628984242,
				"y": -0.2172304357,
				"z": 2.6347312588,
				"element": "H" 
			},
			{
				"x": -4.535608924,
				"y": 1.3455474866,
				"z": 0.9992267157,
				"element": "H" 
			},
			{
				"x": -4.6818338505,
				"y": 3.5382140914,
				"z": -0.1912676984,
				"element": "H" 
			},
			{
				"x": -1.4709831589,
				"y": 2.3372587488,
				"z": -2.7902981398,
				"element": "H" 
			},
			{
				"x": -1.3262288581,
				"y": 0.149639098,
				"z": -1.6041304168,
				"element": "H" 
			}
		],
		 "valence_orbital": [ 
			{
				"type": "occ",
				"energy": -0.307,
				"method": "rhf"
			},
			{
				"type": "occ",
				"energy": -0.29253,
				"method": "rhf"
			},
			{
				"type": "occ",
				"energy": -0.2776,
				"method": "rhf"
			},
			{
				"type": "occ",
				"energy": -0.27028,
				"method": "rhf"
			},
			{
				"type": "occ",
				"energy": -0.26158,
				"method": "rhf"
			},
			{
				"type": "unocc",
				"energy": -0.06028,
				"method": "rhf"
			},
			{
				"type": "unocc",
				"energy": -0.04213,
				"method": "rhf"
			},
			{
				"type": "unocc",
				"energy": 0.00873,
				"method": "rhf"
			},
			{
				"type": "unocc",
				"energy": 0.02392,
				"method": "rhf"
			},
			{
				"type": "unocc",
				"energy": 0.05271,
				"method": "rhf"
			}
		],
		"cosmo_sigma_profile": { 
			"-0.025": 0.0,
			"-0.024": 0.0,
			"-0.023": 0.0,
			"-0.022": 0.0,
			"-0.021": 0.0,
			"-0.02": 0.0,
			"-0.019": 0.0,
			"-0.018": 0.0,
			"-0.017": 0.0308208667958,
			"-0.016": 0.729856165716,
			"-0.015": 1.04776605432,
			"-0.014": 0.690581468208,
			"-0.013": 0.865577870591,
			"-0.012": 0.700938558917,
			"-0.011": 1.23894312865,
			"-0.01": 1.16620791565,
			"-0.009": 3.05524213027,
			"-0.008": 7.8163615801,
			"-0.007": 9.65159458267,
			"-0.006": 9.13908201747,
			"-0.005": 10.8206334309,
			"-0.004": 15.5702097399,
			"-0.003": 23.9205756729,
			"-0.002": 29.9610687939,
			"-0.001": 27.5784493895,
			"0.0": 36.3141790387,
			"0.001": 31.2272595891,
			"0.002": 15.4618042729,
			"0.003": 12.1279778755,
			"0.004": 12.8391654937,
			"0.005": 4.15048565218,
			"0.006": 5.38172102452,
			"0.007": 4.69398209801,
			"0.008": 3.31929235879,
			"0.009": 8.25064743506,
			"0.01": 8.59849833747,
			"0.011": 3.80538220709,
			"0.012": 2.28759657528,
			"0.013": 5.57818280689,
			"0.014": 0.325748884244,
			"0.015": 0.0,
			"0.016": 0.0,
			"0.017": 0.0,
			"0.018": 0.0,
			"0.019": 0.0,
			"0.02": 0.0,
			"0.021": 0.0,
			"0.022": 0.0,
			"0.023": 0.0,
			"0.024": 0.0,
			"0.025": 0.0
		}
	}
}
