{
	 "smiles": "CNC1=NN=C(Cl)C=C1", 
	 "Tm": 468.15, 
	 "num_atms": 15, 
	 "gaussian": { 
		 "optdone": 1, 
		 "sigma_profile": "yes", 
		 "theory": "DFT", 
		 "functional": "B3LYP", 
		 "basiset": "6-31G**", 
		 "properties": { 
			 "R2extent": 2103.9847, 
			 "electric_dipole_moment_norm": 5.630193383, 
			 "electric_quadrupole_moment_norm": 5.92822028521, 
			 "total_energy": -818.554113795, 
			 "HOMO_LUMO_gap": 0.17243, 
			 "cosmo_polarized_energy": -14.57, 
			 "cosmo_cavitation_energy": 21.12, 
			 "cosmo_dispersion_energy": -16.11, 
			 "cosmo_repulsion_energy": 1.34, 
			 "cosmo_total_nonelectrostatic_energy": 6.34, 
			 "SMD_solvation_energy": 1.4 
		},
		"coords": [
			{
				"x": 0.9622300392,
				"y": 2.1839498351,
				"z": -0.2954728143,
				"element": "C" 
			},
			{
				"x": -0.2782096539,
				"y": 1.4499982551,
				"z": -0.0979055894,
				"element": "N" 
			},
			{
				"x": -0.2882764915,
				"y": 0.1108763183,
				"z": 0.184603141,
				"element": "C" 
			},
			{
				"x": 0.8873417609,
				"y": -0.5357061536,
				"z": 0.1041206858,
				"element": "N" 
			},
			{
				"x": 0.9377212989,
				"y": -1.8537145841,
				"z": 0.3246145908,
				"element": "N" 
			},
			{
				"x": -0.1606088564,
				"y": -2.507251669,
				"z": 0.6342384999,
				"element": "C" 
			},
			{
				"x": -0.000930685,
				"y": -4.2340999839,
				"z": 0.9163624088,
				"element": "Cl" 
			},
			{
				"x": -1.4288342156,
				"y": -1.9071998397,
				"z": 0.7531233908,
				"element": "C" 
			},
			{
				"x": -1.4954477017,
				"y": -0.5570266009,
				"z": 0.5189135995,
				"element": "C" 
			},
			{
				"x": 1.5473981782,
				"y": 1.717027004,
				"z": -1.0901967082,
				"element": "H" 
			},
			{
				"x": 0.7149865674,
				"y": 3.2068909593,
				"z": -0.5873725858,
				"element": "H" 
			},
			{
				"x": 1.5864277968,
				"y": 2.2060606097,
				"z": 0.6071829528,
				"element": "H" 
			},
			{
				"x": -1.0880159743,
				"y": 1.976864723,
				"z": 0.1890420948,
				"element": "H" 
			},
			{
				"x": -2.3018610804,
				"y": -2.4939315691,
				"z": 1.0147290686,
				"element": "H" 
			},
			{
				"x": -2.4353209827,
				"y": -0.0154373044,
				"z": 0.5807172649,
				"element": "H" 
			}
		],
		 "valence_orbital": [ 
			{
				"type": "occ",
				"energy": -0.31782,
				"method": "rhf"
			},
			{
				"type": "occ",
				"energy": -0.31064,
				"method": "rhf"
			},
			{
				"type": "occ",
				"energy": -0.29662,
				"method": "rhf"
			},
			{
				"type": "occ",
				"energy": -0.23607,
				"method": "rhf"
			},
			{
				"type": "occ",
				"energy": -0.22399,
				"method": "rhf"
			},
			{
				"type": "unocc",
				"energy": -0.05156,
				"method": "rhf"
			},
			{
				"type": "unocc",
				"energy": -0.01022,
				"method": "rhf"
			},
			{
				"type": "unocc",
				"energy": 0.03168,
				"method": "rhf"
			},
			{
				"type": "unocc",
				"energy": 0.07197,
				"method": "rhf"
			},
			{
				"type": "unocc",
				"energy": 0.10536,
				"method": "rhf"
			}
		],
		"cosmo_sigma_profile": { 
			"-0.025": 0.0,
			"-0.024": 0.0,
			"-0.023": 0.0,
			"-0.022": 0.0,
			"-0.021": 0.0,
			"-0.02": 0.0,
			"-0.019": 0.0,
			"-0.018": 0.0,
			"-0.017": 0.0,
			"-0.016": 0.0,
			"-0.015": 0.209882191751,
			"-0.014": 1.97003204132,
			"-0.013": 1.79865332072,
			"-0.012": 1.37872648453,
			"-0.011": 1.84969073686,
			"-0.01": 1.43086834371,
			"-0.009": 4.23271951967,
			"-0.008": 5.0294218787,
			"-0.007": 4.94650089818,
			"-0.006": 5.81362617407,
			"-0.005": 5.93762636746,
			"-0.004": 8.25069016042,
			"-0.003": 9.02626323296,
			"-0.002": 14.9090954637,
			"-0.001": 18.8106208213,
			"0.0": 14.5757663604,
			"0.001": 9.54260119097,
			"0.002": 8.0163064577,
			"0.003": 9.34838491864,
			"0.004": 11.7606828846,
			"0.005": 7.13992372104,
			"0.006": 3.62263981638,
			"0.007": 3.64480308712,
			"0.008": 2.38244996996,
			"0.009": 1.67624320542,
			"0.01": 2.21210796675,
			"0.011": 2.17074357635,
			"0.012": 2.28420871026,
			"0.013": 2.6898303907,
			"0.014": 2.74201530298,
			"0.015": 1.56378757396,
			"0.016": 0.101463448428,
			"0.017": 0.0,
			"0.018": 0.0,
			"0.019": 0.0,
			"0.02": 0.0,
			"0.021": 0.0,
			"0.022": 0.0,
			"0.023": 0.0,
			"0.024": 0.0,
			"0.025": 0.0
		}
	}
}
