{
	 "smiles": "BrC1=CC=CC=C1Br", 
	 "Tm": 279.2, 
	 "num_atms": 12, 
	 "gaussian": { 
		 "optdone": 1, 
		 "sigma_profile": "yes", 
		 "theory": "DFT", 
		 "functional": "B3LYP", 
		 "basiset": "6-31G**", 
		 "properties": { 
			 "R2extent": 3440.6274, 
			 "electric_dipole_moment_norm": 2.48074766955, 
			 "electric_quadrupole_moment_norm": 4.48823351665, 
			 "total_energy": -5373.85176638, 
			 "HOMO_LUMO_gap": 0.22109, 
			 "cosmo_polarized_energy": -4.25, 
			 "cosmo_cavitation_energy": 20.5, 
			 "cosmo_dispersion_energy": -16.2, 
			 "cosmo_repulsion_energy": 1.33, 
			 "cosmo_total_nonelectrostatic_energy": 5.63, 
			 "SMD_solvation_energy": 1.42 
		},
		"coords": [
			{
				"x": -0.075893016,
				"y": -1.1048593701,
				"z": -3.466527509,
				"element": "Br" 
			},
			{
				"x": 0.1078008778,
				"y": -0.5744983074,
				"z": -1.6480694764,
				"element": "C" 
			},
			{
				"x": 1.3880477833,
				"y": -0.5779991975,
				"z": -1.0885319271,
				"element": "C" 
			},
			{
				"x": 1.5756160987,
				"y": -0.1981839052,
				"z": 0.2386646613,
				"element": "C" 
			},
			{
				"x": 0.4815778795,
				"y": 0.1877635285,
				"z": 1.0143496845,
				"element": "C" 
			},
			{
				"x": -0.7967408224,
				"y": 0.1927359373,
				"z": 0.4605061926,
				"element": "C" 
			},
			{
				"x": -0.9894794006,
				"y": -0.1874033382,
				"z": -0.8700885706,
				"element": "C" 
			},
			{
				"x": -2.7621490283,
				"y": -0.1572249226,
				"z": -1.5618411546,
				"element": "Br" 
			},
			{
				"x": 2.2297508564,
				"y": -0.8797487858,
				"z": -1.7010253095,
				"element": "H" 
			},
			{
				"x": 2.5754648942,
				"y": -0.2053987305,
				"z": 0.660961812,
				"element": "H" 
			},
			{
				"x": 0.6173520581,
				"y": 0.48538844,
				"z": 2.0492739589,
				"element": "H" 
			},
			{
				"x": -1.6542481806,
				"y": 0.4904286514,
				"z": 1.0527276378,
				"element": "H" 
			}
		],
		 "valence_orbital": [ 
			{
				"type": "occ",
				"energy": -0.31909,
				"method": "rhf"
			},
			{
				"type": "occ",
				"energy": -0.30638,
				"method": "rhf"
			},
			{
				"type": "occ",
				"energy": -0.27709,
				"method": "rhf"
			},
			{
				"type": "occ",
				"energy": -0.259,
				"method": "rhf"
			},
			{
				"type": "occ",
				"energy": -0.24634,
				"method": "rhf"
			},
			{
				"type": "unocc",
				"energy": -0.02525,
				"method": "rhf"
			},
			{
				"type": "unocc",
				"energy": -0.02463,
				"method": "rhf"
			},
			{
				"type": "unocc",
				"energy": -0.0216,
				"method": "rhf"
			},
			{
				"type": "unocc",
				"energy": 0.03667,
				"method": "rhf"
			},
			{
				"type": "unocc",
				"energy": 0.10189,
				"method": "rhf"
			}
		],
		"cosmo_sigma_profile": { 
			"-0.025": 0.0,
			"-0.024": 0.0,
			"-0.023": 0.0,
			"-0.022": 0.0,
			"-0.021": 0.0,
			"-0.02": 0.0,
			"-0.019": 0.0,
			"-0.018": 0.0,
			"-0.017": 0.0,
			"-0.016": 0.0,
			"-0.015": 0.0,
			"-0.014": 0.0,
			"-0.013": 0.0,
			"-0.012": 0.0,
			"-0.011": 0.0,
			"-0.01": 0.0,
			"-0.009": 0.0,
			"-0.008": 1.16154800698,
			"-0.007": 7.56830383637,
			"-0.006": 8.59637952019,
			"-0.005": 10.1019693645,
			"-0.004": 9.21643774013,
			"-0.003": 9.46990743838,
			"-0.002": 8.43822783989,
			"-0.001": 9.18099546409,
			"0.0": 13.4351737423,
			"0.001": 21.781295325,
			"0.002": 21.6873436205,
			"0.003": 22.817807036,
			"0.004": 19.9719582796,
			"0.005": 6.91600898972,
			"0.006": 1.19400402842,
			"0.007": 0.0,
			"0.008": 0.0,
			"0.009": 0.0,
			"0.01": 0.0,
			"0.011": 0.0,
			"0.012": 0.0,
			"0.013": 0.0,
			"0.014": 0.0,
			"0.015": 0.0,
			"0.016": 0.0,
			"0.017": 0.0,
			"0.018": 0.0,
			"0.019": 0.0,
			"0.02": 0.0,
			"0.021": 0.0,
			"0.022": 0.0,
			"0.023": 0.0,
			"0.024": 0.0,
			"0.025": 0.0
		}
	}
}
