{
	 "smiles": "NCCCCCCNCCCCCCN", 
	 "Tm": 306.15, 
	 "num_atms": 44, 
	 "gaussian": { 
		 "optdone": 1, 
		 "sigma_profile": "yes", 
		 "theory": "DFT", 
		 "functional": "B3LYP", 
		 "basiset": "6-31G**", 
		 "properties": { 
			 "R2extent": 7880.3201, 
			 "electric_dipole_moment_norm": 1.95869622198, 
			 "electric_quadrupole_moment_norm": 13.915397004, 
			 "total_energy": -639.013689206, 
			 "HOMO_LUMO_gap": 0.28394, 
			 "cosmo_polarized_energy": -12.16, 
			 "cosmo_cavitation_energy": 43.57, 
			 "cosmo_dispersion_energy": -30.15, 
			 "cosmo_repulsion_energy": 2.51, 
			 "cosmo_total_nonelectrostatic_energy": 15.93, 
			 "SMD_solvation_energy": 1.9 
		},
		"coords": [
			{
				"x": 1.9658160508,
				"y": -5.4884020907,
				"z": 2.9819629203,
				"element": "N" 
			},
			{
				"x": 2.332140295,
				"y": -4.6507400437,
				"z": 1.832426523,
				"element": "C" 
			},
			{
				"x": 3.3528113151,
				"y": -3.5894445484,
				"z": 2.2534206883,
				"element": "C" 
			},
			{
				"x": 3.9025936686,
				"y": -2.7331795975,
				"z": 1.1014864337,
				"element": "C" 
			},
			{
				"x": 2.8775732224,
				"y": -1.79901542,
				"z": 0.4424164986,
				"element": "C" 
			},
			{
				"x": 3.491225849,
				"y": -0.90847336,
				"z": -0.6457824153,
				"element": "C" 
			},
			{
				"x": 2.4978826544,
				"y": 0.0635843019,
				"z": -1.2908752898,
				"element": "C" 
			},
			{
				"x": 1.9736915584,
				"y": 1.0201937886,
				"z": -0.3152153684,
				"element": "N" 
			},
			{
				"x": 1.0497989832,
				"y": 2.0121717838,
				"z": -0.8690229904,
				"element": "C" 
			},
			{
				"x": -0.3643743762,
				"y": 1.4536679756,
				"z": -1.0723521277,
				"element": "C" 
			},
			{
				"x": -1.355810242,
				"y": 2.5204347814,
				"z": -1.5541388913,
				"element": "C" 
			},
			{
				"x": -2.7551867361,
				"y": 1.9875926215,
				"z": -1.9144143731,
				"element": "C" 
			},
			{
				"x": -3.5457683521,
				"y": 1.2388674814,
				"z": -0.8239886989,
				"element": "C" 
			},
			{
				"x": -3.9899785,
				"y": 2.061622184,
				"z": 0.4040712108,
				"element": "C" 
			},
			{
				"x": -2.9979558177,
				"y": 2.3506569611,
				"z": 1.4451630306,
				"element": "N" 
			},
			{
				"x": 1.3034142456,
				"y": -6.204050371,
				"z": 2.6919914466,
				"element": "H" 
			},
			{
				"x": 1.4786134467,
				"y": -4.920551877,
				"z": 3.6727427911,
				"element": "H" 
			},
			{
				"x": 2.7879638774,
				"y": -5.3036241654,
				"z": 1.0761759249,
				"element": "H" 
			},
			{
				"x": 1.4680547572,
				"y": -4.1657233904,
				"z": 1.3455998413,
				"element": "H" 
			},
			{
				"x": 2.8955989291,
				"y": -2.9303723048,
				"z": 3.0068215097,
				"element": "H" 
			},
			{
				"x": 4.178289518,
				"y": -4.105383925,
				"z": 2.7576392546,
				"element": "H" 
			},
			{
				"x": 4.7334878681,
				"y": -2.1262835906,
				"z": 1.486380195,
				"element": "H" 
			},
			{
				"x": 4.3423568403,
				"y": -3.3922667142,
				"z": 0.3385575743,
				"element": "H" 
			},
			{
				"x": 2.062867391,
				"y": -2.3856465352,
				"z": -0.0028039238,
				"element": "H" 
			},
			{
				"x": 2.4113551964,
				"y": -1.1610771261,
				"z": 1.2026285102,
				"element": "H" 
			},
			{
				"x": 3.9271850307,
				"y": -1.534159583,
				"z": -1.4360033602,
				"element": "H" 
			},
			{
				"x": 4.3296969193,
				"y": -0.3350071669,
				"z": -0.2214465953,
				"element": "H" 
			},
			{
				"x": 1.6558370183,
				"y": -0.5067598761,
				"z": -1.702928261,
				"element": "H" 
			},
			{
				"x": 2.9813697123,
				"y": 0.5655342229,
				"z": -2.1519754371,
				"element": "H" 
			},
			{
				"x": 2.7614980798,
				"y": 1.5058898384,
				"z": 0.1071157468,
				"element": "H" 
			},
			{
				"x": 1.4118692464,
				"y": 2.4382495344,
				"z": -1.8256509644,
				"element": "H" 
			},
			{
				"x": 0.9970095536,
				"y": 2.8467862915,
				"z": -0.1583578684,
				"element": "H" 
			},
			{
				"x": -0.6958001502,
				"y": 1.017553103,
				"z": -0.1232963496,
				"element": "H" 
			},
			{
				"x": -0.340782542,
				"y": 0.6317038721,
				"z": -1.8001450307,
				"element": "H" 
			},
			{
				"x": -1.4335264969,
				"y": 3.3156283943,
				"z": -0.7999647724,
				"element": "H" 
			},
			{
				"x": -0.9437624301,
				"y": 3.0111642599,
				"z": -2.4468953572,
				"element": "H" 
			},
			{
				"x": -3.3665562543,
				"y": 2.8294626932,
				"z": -2.2681230165,
				"element": "H" 
			},
			{
				"x": -2.6489402417,
				"y": 1.3142551915,
				"z": -2.7762387016,
				"element": "H" 
			},
			{
				"x": -4.4517576812,
				"y": 0.8389633888,
				"z": -1.3006096509,
				"element": "H" 
			},
			{
				"x": -2.9825733049,
				"y": 0.3606142213,
				"z": -0.4788525837,
				"element": "H" 
			},
			{
				"x": -4.4086497181,
				"y": 3.0197662982,
				"z": 0.06774538,
				"element": "H" 
			},
			{
				"x": -4.8164583294,
				"y": 1.5291064954,
				"z": 0.8916528233,
				"element": "H" 
			},
			{
				"x": -2.243789697,
				"y": 2.9216289109,
				"z": 1.0761752078,
				"element": "H" 
			},
			{
				"x": -2.5708303572,
				"y": 1.4854630905,
				"z": 1.7684085166,
				"element": "H" 
			}
		],
		 "valence_orbital": [ 
			{
				"type": "occ",
				"energy": -0.31068,
				"method": "rhf"
			},
			{
				"type": "occ",
				"energy": -0.3063,
				"method": "rhf"
			},
			{
				"type": "occ",
				"energy": -0.22684,
				"method": "rhf"
			},
			{
				"type": "occ",
				"energy": -0.225,
				"method": "rhf"
			},
			{
				"type": "occ",
				"energy": -0.21845,
				"method": "rhf"
			},
			{
				"type": "unocc",
				"energy": 0.06549,
				"method": "rhf"
			},
			{
				"type": "unocc",
				"energy": 0.0849,
				"method": "rhf"
			},
			{
				"type": "unocc",
				"energy": 0.08909,
				"method": "rhf"
			},
			{
				"type": "unocc",
				"energy": 0.09681,
				"method": "rhf"
			},
			{
				"type": "unocc",
				"energy": 0.10098,
				"method": "rhf"
			}
		],
		"cosmo_sigma_profile": { 
			"-0.025": 0.0,
			"-0.024": 0.0,
			"-0.023": 0.0,
			"-0.022": 0.0,
			"-0.021": 0.0,
			"-0.02": 0.0,
			"-0.019": 0.0,
			"-0.018": 0.0,
			"-0.017": 0.0,
			"-0.016": 0.0,
			"-0.015": 0.0,
			"-0.014": 0.0,
			"-0.013": 0.0,
			"-0.012": 0.0,
			"-0.011": 0.0,
			"-0.01": 0.161244571571,
			"-0.009": 3.53158417985,
			"-0.008": 6.06517909696,
			"-0.007": 6.14870231391,
			"-0.006": 8.04047676737,
			"-0.005": 7.80094070967,
			"-0.004": 9.54555956148,
			"-0.003": 18.6091839095,
			"-0.002": 45.0606736797,
			"-0.001": 65.5439609072,
			"0.0": 66.4251243795,
			"0.001": 40.7754812595,
			"0.002": 12.7922618532,
			"0.003": 4.22815344975,
			"0.004": 4.900056267,
			"0.005": 3.01108913818,
			"0.006": 2.61417565524,
			"0.007": 3.35651851426,
			"0.008": 1.98839596385,
			"0.009": 1.84638201165,
			"0.01": 1.97426747309,
			"0.011": 3.1066928329,
			"0.012": 2.29741307983,
			"0.013": 2.18537045516,
			"0.014": 2.11675587069,
			"0.015": 1.28720271424,
			"0.016": 1.14824262206,
			"0.017": 1.2989264981,
			"0.018": 1.51544277742,
			"0.019": 1.29106825962,
			"0.02": 0.969233214238,
			"0.021": 0.223242820393,
			"0.022": 0.0,
			"0.023": 0.0,
			"0.024": 0.0,
			"0.025": 0.0
		}
	}
}
