{
	 "smiles": "CCOC(=O)C1=C(C)N=C(C=C1)C(O)=O", 
	 "Tm": 362.15, 
	 "num_atms": 26, 
	 "gaussian": { 
		 "optdone": 1, 
		 "sigma_profile": "yes", 
		 "theory": "DFT", 
		 "functional": "B3LYP", 
		 "basiset": "6-31G**", 
		 "properties": { 
			 "R2extent": 4557.2747, 
			 "electric_dipole_moment_norm": 5.63987533018, 
			 "electric_quadrupole_moment_norm": 16.3627728136, 
			 "total_energy": -743.380167288, 
			 "HOMO_LUMO_gap": 0.18214, 
			 "cosmo_polarized_energy": -12.3, 
			 "cosmo_cavitation_energy": 30.7, 
			 "cosmo_dispersion_energy": -22.33, 
			 "cosmo_repulsion_energy": 1.76, 
			 "cosmo_total_nonelectrostatic_energy": 10.14, 
			 "SMD_solvation_energy": 7.0 
		},
		"coords": [
			{
				"x": 2.281854427,
				"y": -0.0494455788,
				"z": 3.8052937742,
				"element": "C" 
			},
			{
				"x": 0.9172334678,
				"y": 0.6042001436,
				"z": 3.6516539342,
				"element": "C" 
			},
			{
				"x": 0.3776967635,
				"y": 0.3926769268,
				"z": 2.322460517,
				"element": "O" 
			},
			{
				"x": 0.7600604939,
				"y": 1.2681074945,
				"z": 1.366938733,
				"element": "C" 
			},
			{
				"x": 1.5107135737,
				"y": 2.2019169778,
				"z": 1.5772352291,
				"element": "O" 
			},
			{
				"x": 0.1446987088,
				"y": 0.9444860234,
				"z": 0.0430032729,
				"element": "C" 
			},
			{
				"x": 0.3973785115,
				"y": 1.7468745304,
				"z": -1.1001225847,
				"element": "C" 
			},
			{
				"x": 1.2780660546,
				"y": 2.9678078619,
				"z": -1.1036595902,
				"element": "C" 
			},
			{
				"x": -0.1655817021,
				"y": 1.4354921597,
				"z": -2.2777075795,
				"element": "N" 
			},
			{
				"x": -0.9674713883,
				"y": 0.3667858045,
				"z": -2.3807456533,
				"element": "C" 
			},
			{
				"x": -1.2692022034,
				"y": -0.4733402319,
				"z": -1.3144008577,
				"element": "C" 
			},
			{
				"x": -0.6972687986,
				"y": -0.1693809552,
				"z": -0.0851928543,
				"element": "C" 
			},
			{
				"x": -1.542710868,
				"y": 0.1153774238,
				"z": -3.7556417462,
				"element": "C" 
			},
			{
				"x": -1.1551433008,
				"y": 1.0147255763,
				"z": -4.6704739855,
				"element": "O" 
			},
			{
				"x": -2.2816928358,
				"y": -0.8115530651,
				"z": -3.9991495367,
				"element": "O" 
			},
			{
				"x": 2.2326994795,
				"y": -1.1167300675,
				"z": 3.5706759047,
				"element": "H" 
			},
			{
				"x": 3.0136476601,
				"y": 0.4259169425,
				"z": 3.1477937688,
				"element": "H" 
			},
			{
				"x": 2.6281482071,
				"y": 0.0592880574,
				"z": 4.8383356712,
				"element": "H" 
			},
			{
				"x": 0.9685388259,
				"y": 1.6785291906,
				"z": 3.8415801956,
				"element": "H" 
			},
			{
				"x": 0.1772252469,
				"y": 0.151436426,
				"z": 4.3153622541,
				"element": "H" 
			},
			{
				"x": 2.2970741171,
				"y": 2.7232931148,
				"z": -0.7927756455,
				"element": "H" 
			},
			{
				"x": 1.2886890096,
				"y": 3.3874175487,
				"z": -2.1106342924,
				"element": "H" 
			},
			{
				"x": 0.9210536384,
				"y": 3.7175896641,
				"z": -0.39292968,
				"element": "H" 
			},
			{
				"x": -1.925669487,
				"y": -1.321819621,
				"z": -1.4653309923,
				"element": "H" 
			},
			{
				"x": -0.8921512107,
				"y": -0.7845645216,
				"z": 0.7848260801,
				"element": "H" 
			},
			{
				"x": -0.5666863905,
				"y": 1.6425121743,
				"z": -4.1982943368,
				"element": "H" 
			}
		],
		 "valence_orbital": [ 
			{
				"type": "occ",
				"energy": -0.31076,
				"method": "rhf"
			},
			{
				"type": "occ",
				"energy": -0.30335,
				"method": "rhf"
			},
			{
				"type": "occ",
				"energy": -0.28975,
				"method": "rhf"
			},
			{
				"type": "occ",
				"energy": -0.27969,
				"method": "rhf"
			},
			{
				"type": "occ",
				"energy": -0.269,
				"method": "rhf"
			},
			{
				"type": "unocc",
				"energy": -0.08686,
				"method": "rhf"
			},
			{
				"type": "unocc",
				"energy": -0.04402,
				"method": "rhf"
			},
			{
				"type": "unocc",
				"energy": 0.00148,
				"method": "rhf"
			},
			{
				"type": "unocc",
				"energy": 0.0691,
				"method": "rhf"
			},
			{
				"type": "unocc",
				"energy": 0.09172,
				"method": "rhf"
			}
		],
		"cosmo_sigma_profile": { 
			"-0.025": 0.0,
			"-0.024": 0.0,
			"-0.023": 0.0,
			"-0.022": 0.0,
			"-0.021": 0.0,
			"-0.02": 0.0,
			"-0.019": 0.0,
			"-0.018": 0.0,
			"-0.017": 0.0,
			"-0.016": 0.0,
			"-0.015": 0.0,
			"-0.014": 0.0,
			"-0.013": 0.0633669481512,
			"-0.012": 0.529464610896,
			"-0.011": 0.558934809862,
			"-0.01": 0.801204461922,
			"-0.009": 0.569374022112,
			"-0.008": 2.41162651081,
			"-0.007": 3.92782631099,
			"-0.006": 6.44008213471,
			"-0.005": 12.8618100544,
			"-0.004": 24.6072558786,
			"-0.003": 27.7255816599,
			"-0.002": 30.2263444022,
			"-0.001": 32.7322575514,
			"0.0": 23.9222271945,
			"0.001": 12.3406923622,
			"0.002": 7.46074387472,
			"0.003": 8.142290969,
			"0.004": 7.34400015555,
			"0.005": 4.50733111643,
			"0.006": 2.92628676929,
			"0.007": 4.31159809463,
			"0.008": 5.33416520855,
			"0.009": 5.38967925972,
			"0.01": 6.27048173425,
			"0.011": 8.08645061446,
			"0.012": 4.02326698987,
			"0.013": 0.827838628844,
			"0.014": 0.0,
			"0.015": 0.0,
			"0.016": 0.0,
			"0.017": 0.0,
			"0.018": 0.0,
			"0.019": 0.0,
			"0.02": 0.0,
			"0.021": 0.0,
			"0.022": 0.0,
			"0.023": 0.0,
			"0.024": 0.0,
			"0.025": 0.0
		}
	}
}
