{
	 "smiles": "OC(=O)CNC(=O)C1=CC(Br)=CC=C1", 
	 "Tm": 422.15, 
	 "num_atms": 22, 
	 "gaussian": { 
		 "optdone": 1, 
		 "sigma_profile": "yes", 
		 "theory": "DFT", 
		 "functional": "B3LYP", 
		 "basiset": "6-31G**", 
		 "properties": { 
			 "R2extent": 6323.4209, 
			 "electric_dipole_moment_norm": 1.33658918146, 
			 "electric_quadrupole_moment_norm": 21.2971582438, 
			 "total_energy": -3199.62584643, 
			 "HOMO_LUMO_gap": 0.20059, 
			 "cosmo_polarized_energy": -16.9, 
			 "cosmo_cavitation_energy": 29.91, 
			 "cosmo_dispersion_energy": -21.56, 
			 "cosmo_repulsion_energy": 1.74, 
			 "cosmo_total_nonelectrostatic_energy": 10.09, 
			 "SMD_solvation_energy": 5.32 
		},
		"coords": [
			{
				"x": 0.1273729446,
				"y": 0.2856802433,
				"z": 3.76288375,
				"element": "O" 
			},
			{
				"x": 1.3039378684,
				"y": 0.4835061452,
				"z": 3.1288205652,
				"element": "C" 
			},
			{
				"x": 2.3579650204,
				"y": 0.0396889191,
				"z": 3.51931349,
				"element": "O" 
			},
			{
				"x": 1.1687726009,
				"y": 1.3754834152,
				"z": 1.8975101206,
				"element": "C" 
			},
			{
				"x": -0.1876470134,
				"y": 1.5696353971,
				"z": 1.4180507023,
				"element": "N" 
			},
			{
				"x": -0.756144253,
				"y": 1.0090980525,
				"z": 0.2892220667,
				"element": "C" 
			},
			{
				"x": -1.9582109907,
				"y": 0.7816435199,
				"z": 0.2395771036,
				"element": "O" 
			},
			{
				"x": 0.124494306,
				"y": 0.7471794132,
				"z": -0.9021403048,
				"element": "C" 
			},
			{
				"x": 1.1540790147,
				"y": 1.6192349151,
				"z": -1.2817822375,
				"element": "C" 
			},
			{
				"x": 1.8779482785,
				"y": 1.3561277008,
				"z": -2.4430419377,
				"element": "C" 
			},
			{
				"x": 3.270154179,
				"y": 2.5571080369,
				"z": -2.9669102238,
				"element": "Br" 
			},
			{
				"x": 1.6038644551,
				"y": 0.2401229244,
				"z": -3.231254385,
				"element": "C" 
			},
			{
				"x": 0.5678888026,
				"y": -0.6171801201,
				"z": -2.8521118988,
				"element": "C" 
			},
			{
				"x": -0.1773998784,
				"y": -0.3612069137,
				"z": -1.7040447141,
				"element": "C" 
			},
			{
				"x": 0.3195617136,
				"y": -0.2653816009,
				"z": 4.5403916502,
				"element": "H" 
			},
			{
				"x": 1.636719503,
				"y": 2.333734316,
				"z": 2.1631118709,
				"element": "H" 
			},
			{
				"x": 1.7900822958,
				"y": 0.933083369,
				"z": 1.1189721353,
				"element": "H" 
			},
			{
				"x": -0.8842352609,
				"y": 1.6958074441,
				"z": 2.1437941787,
				"element": "H" 
			},
			{
				"x": 1.3705759804,
				"y": 2.5079487394,
				"z": -0.7004239559,
				"element": "H" 
			},
			{
				"x": 2.1830171412,
				"y": 0.0507301693,
				"z": -4.1277847659,
				"element": "H" 
			},
			{
				"x": 0.3414354068,
				"y": -1.483807185,
				"z": -3.4658298712,
				"element": "H" 
			},
			{
				"x": -1.0026321147,
				"y": -1.0031369009,
				"z": -1.4161233389,
				"element": "H" 
			}
		],
		 "valence_orbital": [ 
			{
				"type": "occ",
				"energy": -0.29551,
				"method": "rhf"
			},
			{
				"type": "occ",
				"energy": -0.27714,
				"method": "rhf"
			},
			{
				"type": "occ",
				"energy": -0.26601,
				"method": "rhf"
			},
			{
				"type": "occ",
				"energy": -0.25749,
				"method": "rhf"
			},
			{
				"type": "occ",
				"energy": -0.24844,
				"method": "rhf"
			},
			{
				"type": "unocc",
				"energy": -0.04785,
				"method": "rhf"
			},
			{
				"type": "unocc",
				"energy": -0.02619,
				"method": "rhf"
			},
			{
				"type": "unocc",
				"energy": -0.008,
				"method": "rhf"
			},
			{
				"type": "unocc",
				"energy": -0.00121,
				"method": "rhf"
			},
			{
				"type": "unocc",
				"energy": 0.03801,
				"method": "rhf"
			}
		],
		"cosmo_sigma_profile": { 
			"-0.025": 0.0,
			"-0.024": 0.0,
			"-0.023": 0.0,
			"-0.022": 0.0,
			"-0.021": 0.0,
			"-0.02": 0.0,
			"-0.019": 0.405233376256,
			"-0.018": 0.976303388812,
			"-0.017": 1.07022881179,
			"-0.016": 0.818965633105,
			"-0.015": 0.56747753702,
			"-0.014": 1.0815010239,
			"-0.013": 0.398196692429,
			"-0.012": 1.28082060372,
			"-0.011": 1.77306047585,
			"-0.01": 1.46575256484,
			"-0.009": 1.66571040527,
			"-0.008": 6.65026484815,
			"-0.007": 14.0997257537,
			"-0.006": 15.8921221196,
			"-0.005": 12.3295221866,
			"-0.004": 12.7914442164,
			"-0.003": 13.3190728406,
			"-0.002": 11.9386082864,
			"-0.001": 12.2747859114,
			"0.0": 14.5373296822,
			"0.001": 18.4021544712,
			"0.002": 20.4589639006,
			"0.003": 18.6301610591,
			"0.004": 16.3329408996,
			"0.005": 8.01226520097,
			"0.006": 3.35427303064,
			"0.007": 2.88989746892,
			"0.008": 2.24167852567,
			"0.009": 2.95702356916,
			"0.01": 4.61298217625,
			"0.011": 6.68049642214,
			"0.012": 5.70199037908,
			"0.013": 5.28575206576,
			"0.014": 1.375414211,
			"0.015": 0.0,
			"0.016": 0.0,
			"0.017": 0.0,
			"0.018": 0.0,
			"0.019": 0.0,
			"0.02": 0.0,
			"0.021": 0.0,
			"0.022": 0.0,
			"0.023": 0.0,
			"0.024": 0.0,
			"0.025": 0.0
		}
	}
}
