{
	 "smiles": "CC(C)C1=CC=C(C=CCC(O)=O)C=C1", 
	 "Tm": 323.15, 
	 "num_atms": 31, 
	 "gaussian": { 
		 "optdone": 1, 
		 "sigma_profile": "yes", 
		 "theory": "DFT", 
		 "functional": "B3LYP", 
		 "basiset": "6-31G**", 
		 "properties": { 
			 "R2extent": 6528.6423, 
			 "electric_dipole_moment_norm": 1.22085988549, 
			 "electric_quadrupole_moment_norm": 12.265483211, 
			 "total_energy": -655.491600153, 
			 "HOMO_LUMO_gap": 0.18406, 
			 "cosmo_polarized_energy": -11.15, 
			 "cosmo_cavitation_energy": 34.96, 
			 "cosmo_dispersion_energy": -24.67, 
			 "cosmo_repulsion_energy": 1.97, 
			 "cosmo_total_nonelectrostatic_energy": 12.26, 
			 "SMD_solvation_energy": 7.21 
		},
		"coords": [
			{
				"x": 1.9735088319,
				"y": -1.5089664465,
				"z": -3.7034078953,
				"element": "C" 
			},
			{
				"x": 0.5988034046,
				"y": -1.5483411678,
				"z": -3.0090325242,
				"element": "C" 
			},
			{
				"x": -0.5225182351,
				"y": -1.1297778945,
				"z": -3.9790977073,
				"element": "C" 
			},
			{
				"x": 0.5840292485,
				"y": -0.7173446833,
				"z": -1.7336793097,
				"element": "C" 
			},
			{
				"x": 0.7978285789,
				"y": 0.6678945111,
				"z": -1.7548820872,
				"element": "C" 
			},
			{
				"x": 0.7808112091,
				"y": 1.415585465,
				"z": -0.5805336901,
				"element": "C" 
			},
			{
				"x": 0.55007496,
				"y": 0.8147168446,
				"z": 0.6694449444,
				"element": "C" 
			},
			{
				"x": 0.5429304659,
				"y": 1.6563542996,
				"z": 1.8748923961,
				"element": "C" 
			},
			{
				"x": 0.3482855646,
				"y": 1.2654212419,
				"z": 3.1421661156,
				"element": "C" 
			},
			{
				"x": 0.3835462034,
				"y": 2.2016687108,
				"z": 4.3146060988,
				"element": "C" 
			},
			{
				"x": -0.7581522295,
				"y": 1.9732162996,
				"z": 5.2891608645,
				"element": "C" 
			},
			{
				"x": -0.9137615843,
				"y": 3.0313555315,
				"z": 6.1215528654,
				"element": "O" 
			},
			{
				"x": -1.4402255204,
				"y": 0.9759624344,
				"z": 5.3657025627,
				"element": "O" 
			},
			{
				"x": 0.3363686204,
				"y": -0.5748044344,
				"z": 0.6892818928,
				"element": "C" 
			},
			{
				"x": 0.3534114977,
				"y": -1.317687447,
				"z": -0.4871029107,
				"element": "C" 
			},
			{
				"x": 2.7682213492,
				"y": -1.8412908758,
				"z": -3.0283494044,
				"element": "H" 
			},
			{
				"x": 1.9802608253,
				"y": -2.1587727152,
				"z": -4.5854790909,
				"element": "H" 
			},
			{
				"x": 2.2213462077,
				"y": -0.4950115666,
				"z": -4.036285173,
				"element": "H" 
			},
			{
				"x": 0.4082383794,
				"y": -2.5892073821,
				"z": -2.7157641791,
				"element": "H" 
			},
			{
				"x": -0.5317526345,
				"y": -1.7777312849,
				"z": -4.8625127041,
				"element": "H" 
			},
			{
				"x": -1.5044900667,
				"y": -1.1914673561,
				"z": -3.4999736876,
				"element": "H" 
			},
			{
				"x": -0.3845095717,
				"y": -0.0993239269,
				"z": -4.324733043,
				"element": "H" 
			},
			{
				"x": 0.9801808418,
				"y": 1.1735928506,
				"z": -2.6995900481,
				"element": "H" 
			},
			{
				"x": 0.9491605622,
				"y": 2.4890196024,
				"z": -0.6276936356,
				"element": "H" 
			},
			{
				"x": 0.7209216318,
				"y": 2.7164307202,
				"z": 1.6883018818,
				"element": "H" 
			},
			{
				"x": 0.1501234512,
				"y": 0.2248264064,
				"z": 3.3853059368,
				"element": "H" 
			},
			{
				"x": 1.3054367737,
				"y": 2.0594418577,
				"z": 4.9019055788,
				"element": "H" 
			},
			{
				"x": 0.3872285673,
				"y": 3.2511634036,
				"z": 4.0042003396,
				"element": "H" 
			},
			{
				"x": -1.6347316525,
				"y": 2.7924365867,
				"z": 6.728486096,
				"element": "H" 
			},
			{
				"x": 0.152685312,
				"y": -1.0826646397,
				"z": 1.6312405959,
				"element": "H" 
			},
			{
				"x": 0.1834390079,
				"y": -2.390894945,
				"z": -0.4391310788,
				"element": "H" 
			}
		],
		 "valence_orbital": [ 
			{
				"type": "occ",
				"energy": -0.31949,
				"method": "rhf"
			},
			{
				"type": "occ",
				"energy": -0.28744,
				"method": "rhf"
			},
			{
				"type": "occ",
				"energy": -0.27611,
				"method": "rhf"
			},
			{
				"type": "occ",
				"energy": -0.24684,
				"method": "rhf"
			},
			{
				"type": "occ",
				"energy": -0.21297,
				"method": "rhf"
			},
			{
				"type": "unocc",
				"energy": -0.02891,
				"method": "rhf"
			},
			{
				"type": "unocc",
				"energy": 0.00322,
				"method": "rhf"
			},
			{
				"type": "unocc",
				"energy": 0.01012,
				"method": "rhf"
			},
			{
				"type": "unocc",
				"energy": 0.06076,
				"method": "rhf"
			},
			{
				"type": "unocc",
				"energy": 0.0784,
				"method": "rhf"
			}
		],
		"cosmo_sigma_profile": { 
			"-0.025": 0.0,
			"-0.024": 0.0,
			"-0.023": 0.0,
			"-0.022": 0.0,
			"-0.021": 0.0,
			"-0.02": 0.0,
			"-0.019": 0.0,
			"-0.018": 0.772853067106,
			"-0.017": 0.745234462212,
			"-0.016": 0.825139574574,
			"-0.015": 0.835181341857,
			"-0.014": 1.2145779311,
			"-0.013": 0.554868312138,
			"-0.012": 0.12179013001,
			"-0.011": 0.651604141188,
			"-0.01": 1.23393600668,
			"-0.009": 0.540249034613,
			"-0.008": 0.867579840797,
			"-0.007": 4.07589728864,
			"-0.006": 8.6867296161,
			"-0.005": 16.5583670368,
			"-0.004": 18.6450760781,
			"-0.003": 26.8299413672,
			"-0.002": 25.9126318116,
			"-0.001": 25.440733906,
			"0.0": 23.412815486,
			"0.001": 26.4961913257,
			"0.002": 16.9841775542,
			"0.003": 10.9711138668,
			"0.004": 13.5478386441,
			"0.005": 16.4112121755,
			"0.006": 12.2017380742,
			"0.007": 3.73271250291,
			"0.008": 2.36048600529,
			"0.009": 3.89416133624,
			"0.01": 2.45738164013,
			"0.011": 3.72057649691,
			"0.012": 4.30361755001,
			"0.013": 0.0895360332697,
			"0.014": 0.0,
			"0.015": 0.0,
			"0.016": 0.0,
			"0.017": 0.0,
			"0.018": 0.0,
			"0.019": 0.0,
			"0.02": 0.0,
			"0.021": 0.0,
			"0.022": 0.0,
			"0.023": 0.0,
			"0.024": 0.0,
			"0.025": 0.0
		}
	}
}
