{
	 "smiles": "[O-][N+](=O)C1=C(SC2=CC=CC=C2)C=CC(Cl)=C1", 
	 "Tm": 356.15, 
	 "num_atms": 25, 
	 "gaussian": { 
		 "optdone": 1, 
		 "sigma_profile": "yes", 
		 "theory": "DFT", 
		 "functional": "B3LYP", 
		 "basiset": "6-31G**", 
		 "properties": { 
			 "R2extent": 6700.1172, 
			 "electric_dipole_moment_norm": 2.72969490237, 
			 "electric_quadrupole_moment_norm": 13.0263009715, 
			 "total_energy": -1525.56052316, 
			 "HOMO_LUMO_gap": 0.13508, 
			 "cosmo_polarized_energy": -10.01, 
			 "cosmo_cavitation_energy": 33.62, 
			 "cosmo_dispersion_energy": -23.96, 
			 "cosmo_repulsion_energy": 1.82, 
			 "cosmo_total_nonelectrostatic_energy": 11.47, 
			 "SMD_solvation_energy": 7.04 
		},
		"coords": [
			{
				"x": 0.3484469213,
				"y": 1.429422085,
				"z": -0.5132909717,
				"element": "O" 
			},
			{
				"x": -0.656581533,
				"y": 1.3194996921,
				"z": -1.2072864769,
				"element": "N" 
			},
			{
				"x": -1.6981825342,
				"y": 1.9546692717,
				"z": -1.0479268787,
				"element": "O" 
			},
			{
				"x": -0.6059562453,
				"y": 0.395926828,
				"z": -2.3598569836,
				"element": "C" 
			},
			{
				"x": 0.1443998956,
				"y": -0.7954876893,
				"z": -2.359265641,
				"element": "C" 
			},
			{
				"x": 1.102014516,
				"y": -1.4849877956,
				"z": -1.0178988583,
				"element": "S" 
			},
			{
				"x": -0.0057633658,
				"y": -1.4247465725,
				"z": 0.3936493889,
				"element": "C" 
			},
			{
				"x": -1.278897626,
				"y": -2.0074999833,
				"z": 0.3431135944,
				"element": "C" 
			},
			{
				"x": -2.0858703342,
				"y": -2.0059044652,
				"z": 1.4803371355,
				"element": "C" 
			},
			{
				"x": -1.6181567687,
				"y": -1.4513765749,
				"z": 2.6744152311,
				"element": "C" 
			},
			{
				"x": -0.3438376699,
				"y": -0.8852507957,
				"z": 2.7256999661,
				"element": "C" 
			},
			{
				"x": 0.4607473518,
				"y": -0.858540293,
				"z": 1.585311317,
				"element": "C" 
			},
			{
				"x": 0.1663754528,
				"y": -1.525478337,
				"z": -3.560093447,
				"element": "C" 
			},
			{
				"x": -0.5054955014,
				"y": -1.0990565472,
				"z": -4.7014653671,
				"element": "C" 
			},
			{
				"x": -1.2661803609,
				"y": 0.0693111834,
				"z": -4.6476146152,
				"element": "C" 
			},
			{
				"x": -2.1513391988,
				"y": 0.6019126164,
				"z": -6.0607380462,
				"element": "Cl" 
			},
			{
				"x": -1.3319865113,
				"y": 0.8137250539,
				"z": -3.4762893664,
				"element": "C" 
			},
			{
				"x": -1.6327315335,
				"y": -2.4600070631,
				"z": -0.5779712702,
				"element": "H" 
			},
			{
				"x": -3.0756804949,
				"y": -2.4509146268,
				"z": 1.4362400627,
				"element": "H" 
			},
			{
				"x": -2.2463185352,
				"y": -1.4597190692,
				"z": 3.560170091,
				"element": "H" 
			},
			{
				"x": 0.0212992219,
				"y": -0.4454613143,
				"z": 3.6490593574,
				"element": "H" 
			},
			{
				"x": 1.4385125202,
				"y": -0.3898402265,
				"z": 1.6112050937,
				"element": "H" 
			},
			{
				"x": 0.7165890327,
				"y": -2.4604262282,
				"z": -3.5839881149,
				"element": "H" 
			},
			{
				"x": -0.4619212068,
				"y": -1.6806876305,
				"z": -5.6154744246,
				"element": "H" 
			},
			{
				"x": -1.9207854924,
				"y": 1.7196184819,
				"z": -3.4140407759,
				"element": "H" 
			}
		],
		 "valence_orbital": [ 
			{
				"type": "occ",
				"energy": -0.29032,
				"method": "rhf"
			},
			{
				"type": "occ",
				"energy": -0.28088,
				"method": "rhf"
			},
			{
				"type": "occ",
				"energy": -0.26844,
				"method": "rhf"
			},
			{
				"type": "occ",
				"energy": -0.26018,
				"method": "rhf"
			},
			{
				"type": "occ",
				"energy": -0.22839,
				"method": "rhf"
			},
			{
				"type": "unocc",
				"energy": -0.09331,
				"method": "rhf"
			},
			{
				"type": "unocc",
				"energy": -0.04465,
				"method": "rhf"
			},
			{
				"type": "unocc",
				"energy": -0.02623,
				"method": "rhf"
			},
			{
				"type": "unocc",
				"energy": -0.02174,
				"method": "rhf"
			},
			{
				"type": "unocc",
				"energy": -0.00973,
				"method": "rhf"
			}
		],
		"cosmo_sigma_profile": { 
			"-0.025": 0.0,
			"-0.024": 0.0,
			"-0.023": 0.0,
			"-0.022": 0.0,
			"-0.021": 0.0,
			"-0.02": 0.0,
			"-0.019": 0.0,
			"-0.018": 0.0,
			"-0.017": 0.0,
			"-0.016": 0.0,
			"-0.015": 0.0,
			"-0.014": 0.0,
			"-0.013": 0.0,
			"-0.012": 0.0,
			"-0.011": 0.0,
			"-0.01": 0.0,
			"-0.009": 1.87390572592,
			"-0.008": 5.781227181,
			"-0.007": 8.38382960464,
			"-0.006": 14.5808197189,
			"-0.005": 16.044562166,
			"-0.004": 17.7680199997,
			"-0.003": 17.3462864392,
			"-0.002": 21.2188299442,
			"-0.001": 26.0843246369,
			"0.0": 24.8732640675,
			"0.001": 18.7618239653,
			"0.002": 18.4416049267,
			"0.003": 22.7584511069,
			"0.004": 21.6284078163,
			"0.005": 10.7476244952,
			"0.006": 6.14677398792,
			"0.007": 9.66218903181,
			"0.008": 6.99252311467,
			"0.009": 4.31298798134,
			"0.01": 1.43713740292,
			"0.011": 0.0,
			"0.012": 0.0,
			"0.013": 0.0,
			"0.014": 0.0,
			"0.015": 0.0,
			"0.016": 0.0,
			"0.017": 0.0,
			"0.018": 0.0,
			"0.019": 0.0,
			"0.02": 0.0,
			"0.021": 0.0,
			"0.022": 0.0,
			"0.023": 0.0,
			"0.024": 0.0,
			"0.025": 0.0
		}
	}
}
