{
	 "smiles": "CC1=CC(=CC=C1)C1CC1C(O)=O", 
	 "Tm": 362.15, 
	 "num_atms": 25, 
	 "gaussian": { 
		 "optdone": 1, 
		 "sigma_profile": "yes", 
		 "theory": "DFT", 
		 "functional": "B3LYP", 
		 "basiset": "6-31G**", 
		 "properties": { 
			 "R2extent": 3810.2499, 
			 "electric_dipole_moment_norm": 1.48191374243, 
			 "electric_quadrupole_moment_norm": 7.44232301032, 
			 "total_energy": -576.847625352, 
			 "HOMO_LUMO_gap": 0.21954, 
			 "cosmo_polarized_energy": -10.3, 
			 "cosmo_cavitation_energy": 28.35, 
			 "cosmo_dispersion_energy": -20.45, 
			 "cosmo_repulsion_energy": 1.64, 
			 "cosmo_total_nonelectrostatic_energy": 9.54, 
			 "SMD_solvation_energy": 5.51 
		},
		"coords": [
			{
				"x": 0.1321765643,
				"y": 0.9334416806,
				"z": -3.1356663064,
				"element": "C" 
			},
			{
				"x": -0.832788724,
				"y": 0.5875134508,
				"z": -2.0250464441,
				"element": "C" 
			},
			{
				"x": -0.379713549,
				"y": 0.0354173173,
				"z": -0.8237024794,
				"element": "C" 
			},
			{
				"x": -1.2555285777,
				"y": -0.31301466,
				"z": 0.217702403,
				"element": "C" 
			},
			{
				"x": -2.6268731484,
				"y": -0.08980909,
				"z": 0.0380506625,
				"element": "C" 
			},
			{
				"x": -3.0939196819,
				"y": 0.4612361713,
				"z": -1.1558434758,
				"element": "C" 
			},
			{
				"x": -2.2097954386,
				"y": 0.7994912383,
				"z": -2.178448625,
				"element": "C" 
			},
			{
				"x": -0.6590876116,
				"y": -0.8750566915,
				"z": 1.4681706582,
				"element": "C" 
			},
			{
				"x": -1.374178399,
				"y": -1.0768381775,
				"z": 2.767021427,
				"element": "C" 
			},
			{
				"x": -0.9235665133,
				"y": -2.3044447344,
				"z": 2.0148669356,
				"element": "C" 
			},
			{
				"x": -1.9560757565,
				"y": -3.1661069934,
				"z": 1.3883589293,
				"element": "C" 
			},
			{
				"x": -1.441866616,
				"y": -4.3654415722,
				"z": 1.0168471116,
				"element": "O" 
			},
			{
				"x": -3.1234576986,
				"y": -2.8792914324,
				"z": 1.210592187,
				"element": "O" 
			},
			{
				"x": 0.0782604843,
				"y": 0.2020211842,
				"z": -3.9515630838,
				"element": "H" 
			},
			{
				"x": 1.165707974,
				"y": 0.9502299527,
				"z": -2.7780201331,
				"element": "H" 
			},
			{
				"x": -0.090753309,
				"y": 1.9143513973,
				"z": -3.5687482459,
				"element": "H" 
			},
			{
				"x": 0.6881850657,
				"y": -0.126566738,
				"z": -0.6890822576,
				"element": "H" 
			},
			{
				"x": -3.3313251968,
				"y": -0.3585708228,
				"z": 0.8153132458,
				"element": "H" 
			},
			{
				"x": -4.1591835378,
				"y": 0.6320002589,
				"z": -1.2844021701,
				"element": "H" 
			},
			{
				"x": -2.587627651,
				"y": 1.2343994126,
				"z": -3.1007823061,
				"element": "H" 
			},
			{
				"x": 0.3932985018,
				"y": -0.6196540712,
				"z": 1.5694710464,
				"element": "H" 
			},
			{
				"x": -2.4470520719,
				"y": -0.9160465317,
				"z": 2.7884265861,
				"element": "H" 
			},
			{
				"x": -0.8546408327,
				"y": -0.8257405896,
				"z": 3.6864660139,
				"element": "H" 
			},
			{
				"x": -0.0427452236,
				"y": -2.8392361062,
				"z": 2.3534438792,
				"element": "H" 
			},
			{
				"x": -2.1789490528,
				"y": -4.8565838531,
				"z": 0.6167744416,
				"element": "H" 
			}
		],
		 "valence_orbital": [ 
			{
				"type": "occ",
				"energy": -0.31235,
				"method": "rhf"
			},
			{
				"type": "occ",
				"energy": -0.30024,
				"method": "rhf"
			},
			{
				"type": "occ",
				"energy": -0.27268,
				"method": "rhf"
			},
			{
				"type": "occ",
				"energy": -0.23698,
				"method": "rhf"
			},
			{
				"type": "occ",
				"energy": -0.22687,
				"method": "rhf"
			},
			{
				"type": "unocc",
				"energy": -0.00733,
				"method": "rhf"
			},
			{
				"type": "unocc",
				"energy": 0.00873,
				"method": "rhf"
			},
			{
				"type": "unocc",
				"energy": 0.01555,
				"method": "rhf"
			},
			{
				"type": "unocc",
				"energy": 0.08091,
				"method": "rhf"
			},
			{
				"type": "unocc",
				"energy": 0.08628,
				"method": "rhf"
			}
		],
		"cosmo_sigma_profile": { 
			"-0.025": 0.0,
			"-0.024": 0.0,
			"-0.023": 0.0,
			"-0.022": 0.0,
			"-0.021": 0.0,
			"-0.02": 0.0,
			"-0.019": 0.0,
			"-0.018": 0.388595681441,
			"-0.017": 0.93098642356,
			"-0.016": 1.0640415369,
			"-0.015": 0.643703138954,
			"-0.014": 0.824141366723,
			"-0.013": 0.43797463176,
			"-0.012": 0.49304944793,
			"-0.011": 0.793469473208,
			"-0.01": 1.22630443453,
			"-0.009": 0.577724768656,
			"-0.008": 0.365315003682,
			"-0.007": 1.57799107707,
			"-0.006": 9.38254985687,
			"-0.005": 15.6997806427,
			"-0.004": 18.3382023341,
			"-0.003": 20.7396688364,
			"-0.002": 18.6957636151,
			"-0.001": 17.3942428496,
			"0.0": 19.6623336018,
			"0.001": 16.9715543896,
			"0.002": 13.7204511347,
			"0.003": 12.036987512,
			"0.004": 9.77849188263,
			"0.005": 9.92617312675,
			"0.006": 9.79296281905,
			"0.007": 6.59530373148,
			"0.008": 3.73684707981,
			"0.009": 3.28983871239,
			"0.01": 2.50479571362,
			"0.011": 2.80466881307,
			"0.012": 3.16460671527,
			"0.013": 0.661283624499,
			"0.014": 0.0,
			"0.015": 0.0,
			"0.016": 0.0,
			"0.017": 0.0,
			"0.018": 0.0,
			"0.019": 0.0,
			"0.02": 0.0,
			"0.021": 0.0,
			"0.022": 0.0,
			"0.023": 0.0,
			"0.024": 0.0,
			"0.025": 0.0
		}
	}
}
