{
	 "smiles": "CCOC(=O)C(=CC1=CC=C(O1)C1=CC=CC=C1)C#N", 
	 "Tm": 389.15, 
	 "num_atms": 33, 
	 "gaussian": { 
		 "optdone": 1, 
		 "sigma_profile": "yes", 
		 "theory": "DFT", 
		 "functional": "B3LYP", 
		 "basiset": "6-31G**", 
		 "properties": { 
			 "R2extent": 8259.4183, 
			 "electric_dipole_moment_norm": 6.27962261605, 
			 "electric_quadrupole_moment_norm": 25.6430591761, 
			 "total_energy": -897.936103527, 
			 "HOMO_LUMO_gap": 0.1235, 
			 "cosmo_polarized_energy": -17.53, 
			 "cosmo_cavitation_energy": 39.61, 
			 "cosmo_dispersion_energy": -27.44, 
			 "cosmo_repulsion_energy": 2.09, 
			 "cosmo_total_nonelectrostatic_energy": 14.26, 
			 "SMD_solvation_energy": 9.32 
		},
		"coords": [
			{
				"x": -0.7765562477,
				"y": 3.1444609948,
				"z": 5.1942940313,
				"element": "C" 
			},
			{
				"x": -0.4944115023,
				"y": 1.6515962117,
				"z": 5.1216565504,
				"element": "C" 
			},
			{
				"x": -0.1284934445,
				"y": 1.2476405672,
				"z": 3.7793494366,
				"element": "O" 
			},
			{
				"x": -1.1540534959,
				"y": 0.9728747976,
				"z": 2.9378270028,
				"element": "C" 
			},
			{
				"x": -2.3262676355,
				"y": 1.0388639713,
				"z": 3.2484250951,
				"element": "O" 
			},
			{
				"x": -0.6788677323,
				"y": 0.5740720492,
				"z": 1.584328591,
				"element": "C" 
			},
			{
				"x": 0.6544298314,
				"y": 0.5135942987,
				"z": 1.2789403735,
				"element": "C" 
			},
			{
				"x": 1.2738334413,
				"y": 0.1572780861,
				"z": 0.0534262303,
				"element": "C" 
			},
			{
				"x": 2.6110353104,
				"y": 0.0821130503,
				"z": -0.3004227534,
				"element": "C" 
			},
			{
				"x": 2.6572912328,
				"y": -0.3260080955,
				"z": -1.65003707,
				"element": "C" 
			},
			{
				"x": 1.3448054357,
				"y": -0.4826694645,
				"z": -2.0630367472,
				"element": "C" 
			},
			{
				"x": 0.5120867809,
				"y": -0.189751009,
				"z": -1.0309849159,
				"element": "O" 
			},
			{
				"x": 0.7262591314,
				"y": -0.8781918556,
				"z": -3.3185525551,
				"element": "C" 
			},
			{
				"x": 1.5224192664,
				"y": -1.1968583025,
				"z": -4.4344033951,
				"element": "C" 
			},
			{
				"x": 0.9305377594,
				"y": -1.575208032,
				"z": -5.6350316558,
				"element": "C" 
			},
			{
				"x": -0.4617231681,
				"y": -1.641630917,
				"z": -5.7417285175,
				"element": "C" 
			},
			{
				"x": -1.2582007689,
				"y": -1.3266765512,
				"z": -4.6382657848,
				"element": "C" 
			},
			{
				"x": -0.6757820521,
				"y": -0.9467701225,
				"z": -3.4317073634,
				"element": "C" 
			},
			{
				"x": -1.7137861556,
				"y": 0.2663539754,
				"z": 0.6474250133,
				"element": "C" 
			},
			{
				"x": -2.5509618303,
				"y": 0.0145574597,
				"z": -0.1209969868,
				"element": "N" 
			},
			{
				"x": -0.9764278517,
				"y": 3.4328788014,
				"z": 6.2316811001,
				"element": "H" 
			},
			{
				"x": 0.0806204068,
				"y": 3.7224831787,
				"z": 4.8363918923,
				"element": "H" 
			},
			{
				"x": -1.6527713514,
				"y": 3.3989327256,
				"z": 4.5933509383,
				"element": "H" 
			},
			{
				"x": 0.3695174611,
				"y": 1.3751254378,
				"z": 5.7308326929,
				"element": "H" 
			},
			{
				"x": -1.3635598183,
				"y": 1.0701227661,
				"z": 5.4371662403,
				"element": "H" 
			},
			{
				"x": 1.3420998875,
				"y": 0.7723403561,
				"z": 2.0770583716,
				"element": "H" 
			},
			{
				"x": 3.4478817879,
				"y": 0.2989420034,
				"z": 0.3487192327,
				"element": "H" 
			},
			{
				"x": 3.5406232257,
				"y": -0.4867620222,
				"z": -2.2496834671,
				"element": "H" 
			},
			{
				"x": 2.6046584616,
				"y": -1.1480050932,
				"z": -4.3607635198,
				"element": "H" 
			},
			{
				"x": 1.5551693474,
				"y": -1.818819251,
				"z": -6.4893498376,
				"element": "H" 
			},
			{
				"x": -0.9217595354,
				"y": -1.9372943658,
				"z": -6.6800107148,
				"element": "H" 
			},
			{
				"x": -2.3401383127,
				"y": -1.3764869271,
				"z": -4.7152055823,
				"element": "H" 
			},
			{
				"x": -1.298407865,
				"y": -0.7028987219,
				"z": -2.5768919259,
				"element": "H" 
			}
		],
		 "valence_orbital": [ 
			{
				"type": "occ",
				"energy": -0.30116,
				"method": "rhf"
			},
			{
				"type": "occ",
				"energy": -0.27711,
				"method": "rhf"
			},
			{
				"type": "occ",
				"energy": -0.27173,
				"method": "rhf"
			},
			{
				"type": "occ",
				"energy": -0.26052,
				"method": "rhf"
			},
			{
				"type": "occ",
				"energy": -0.21534,
				"method": "rhf"
			},
			{
				"type": "unocc",
				"energy": -0.09184,
				"method": "rhf"
			},
			{
				"type": "unocc",
				"energy": -0.02991,
				"method": "rhf"
			},
			{
				"type": "unocc",
				"energy": -0.00943,
				"method": "rhf"
			},
			{
				"type": "unocc",
				"energy": 0.02751,
				"method": "rhf"
			},
			{
				"type": "unocc",
				"energy": 0.03779,
				"method": "rhf"
			}
		],
		"cosmo_sigma_profile": { 
			"-0.025": 0.0,
			"-0.024": 0.0,
			"-0.023": 0.0,
			"-0.022": 0.0,
			"-0.021": 0.0,
			"-0.02": 0.0,
			"-0.019": 0.0,
			"-0.018": 0.0,
			"-0.017": 0.0,
			"-0.016": 0.0,
			"-0.015": 0.0,
			"-0.014": 0.0,
			"-0.013": 0.0,
			"-0.012": 0.0,
			"-0.011": 0.0,
			"-0.01": 1.07822844634,
			"-0.009": 6.10767381945,
			"-0.008": 5.40046981754,
			"-0.007": 6.61609550677,
			"-0.006": 13.5881901769,
			"-0.005": 17.4789820591,
			"-0.004": 24.2630260061,
			"-0.003": 23.065582616,
			"-0.002": 27.3874247635,
			"-0.001": 34.0101209161,
			"0.0": 33.0313600786,
			"0.001": 25.7058026083,
			"0.002": 19.6412811016,
			"0.003": 17.1683558133,
			"0.004": 18.8250399486,
			"0.005": 8.88586643096,
			"0.006": 4.79869367867,
			"0.007": 4.22641835227,
			"0.008": 5.15735025753,
			"0.009": 5.08172059428,
			"0.01": 4.54290869163,
			"0.011": 5.88837706078,
			"0.012": 5.50408122091,
			"0.013": 1.39157999012,
			"0.014": 0.104100391637,
			"0.015": 0.0,
			"0.016": 0.0,
			"0.017": 0.0,
			"0.018": 0.0,
			"0.019": 0.0,
			"0.02": 0.0,
			"0.021": 0.0,
			"0.022": 0.0,
			"0.023": 0.0,
			"0.024": 0.0,
			"0.025": 0.0
		}
	}
}
