{
	 "smiles": "NC(=S)C1=NC=C(C=C1N1CCCC1)C(F)(F)F", 
	 "Tm": 451.15, 
	 "num_atms": 30, 
	 "gaussian": { 
		 "optdone": 1, 
		 "sigma_profile": "yes", 
		 "theory": "DFT", 
		 "functional": "B3LYP", 
		 "basiset": "6-31G**", 
		 "properties": { 
			 "R2extent": 6067.4323, 
			 "electric_dipole_moment_norm": 2.831428484, 
			 "electric_quadrupole_moment_norm": 18.8453181568, 
			 "total_energy": -1288.36809394, 
			 "HOMO_LUMO_gap": 0.13467, 
			 "cosmo_polarized_energy": -12.8, 
			 "cosmo_cavitation_energy": 35.3, 
			 "cosmo_dispersion_energy": -25.36, 
			 "cosmo_repulsion_energy": 1.88, 
			 "cosmo_total_nonelectrostatic_energy": 11.82, 
			 "SMD_solvation_energy": 4.49 
		},
		"coords": [
			{
				"x": -2.7372509037,
				"y": 1.6479908794,
				"z": 2.3106193531,
				"element": "N" 
			},
			{
				"x": -2.1501651372,
				"y": 1.4666505374,
				"z": 1.1125503902,
				"element": "C" 
			},
			{
				"x": -2.9989941356,
				"y": 1.6325653078,
				"z": -0.3213529202,
				"element": "S" 
			},
			{
				"x": -0.7377248733,
				"y": 0.9683344823,
				"z": 1.2161039477,
				"element": "C" 
			},
			{
				"x": -0.5569379747,
				"y": 0.2048493964,
				"z": 2.3117505849,
				"element": "N" 
			},
			{
				"x": 0.5208454179,
				"y": -0.5543106813,
				"z": 2.451687326,
				"element": "C" 
			},
			{
				"x": 1.4915795812,
				"y": -0.6192569437,
				"z": 1.4465904736,
				"element": "C" 
			},
			{
				"x": 1.3805003813,
				"y": 0.2194456378,
				"z": 0.351130577,
				"element": "C" 
			},
			{
				"x": 0.2988638445,
				"y": 1.1296901835,
				"z": 0.2368911112,
				"element": "C" 
			},
			{
				"x": 0.3066493057,
				"y": 2.0720022876,
				"z": -0.759272249,
				"element": "N" 
			},
			{
				"x": -0.2248678475,
				"y": 3.4380692869,
				"z": -0.6374689068,
				"element": "C" 
			},
			{
				"x": -0.2254848039,
				"y": 3.9215812044,
				"z": -2.0856539598,
				"element": "C" 
			},
			{
				"x": 1.0719855029,
				"y": 3.3215396815,
				"z": -2.6576619454,
				"element": "C" 
			},
			{
				"x": 1.3034436977,
				"y": 2.028295179,
				"z": -1.8412207137,
				"element": "C" 
			},
			{
				"x": 2.6780940691,
				"y": -1.5303823197,
				"z": 1.6041154587,
				"element": "C" 
			},
			{
				"x": 2.3160812224,
				"y": -2.7317222378,
				"z": 2.1028593322,
				"element": "F" 
			},
			{
				"x": 3.3120620166,
				"y": -1.7473232415,
				"z": 0.4312838726,
				"element": "F" 
			},
			{
				"x": 3.5887450659,
				"y": -1.0096589643,
				"z": 2.4587151008,
				"element": "F" 
			},
			{
				"x": -2.2607498672,
				"y": 1.2640281946,
				"z": 3.1191109657,
				"element": "H" 
			},
			{
				"x": -3.7391114419,
				"y": 1.7716192491,
				"z": 2.3291638901,
				"element": "H" 
			},
			{
				"x": 0.5949590904,
				"y": -1.1559120641,
				"z": 3.3531055081,
				"element": "H" 
			},
			{
				"x": 2.1497185641,
				"y": 0.1890831543,
				"z": -0.4075709456,
				"element": "H" 
			},
			{
				"x": 0.4469859251,
				"y": 4.0486283196,
				"z": -0.0112389327,
				"element": "H" 
			},
			{
				"x": -1.2201530153,
				"y": 3.4463175015,
				"z": -0.2024684153,
				"element": "H" 
			},
			{
				"x": -1.102400227,
				"y": 3.5087169001,
				"z": -2.5940268069,
				"element": "H" 
			},
			{
				"x": -0.2618386056,
				"y": 5.0113508668,
				"z": -2.1642211413,
				"element": "H" 
			},
			{
				"x": 1.0068560135,
				"y": 3.1192671024,
				"z": -3.7296334944,
				"element": "H" 
			},
			{
				"x": 1.9088249882,
				"y": 4.0107713527,
				"z": -2.5063727901,
				"element": "H" 
			},
			{
				"x": 2.3305616309,
				"y": 2.0046821832,
				"z": -1.4487421394,
				"element": "H" 
			},
			{
				"x": 1.1575225156,
				"y": 1.1193875641,
				"z": -2.4365725312,
				"element": "H" 
			}
		],
		 "valence_orbital": [ 
			{
				"type": "occ",
				"energy": -0.29527,
				"method": "rhf"
			},
			{
				"type": "occ",
				"energy": -0.27825,
				"method": "rhf"
			},
			{
				"type": "occ",
				"energy": -0.22972,
				"method": "rhf"
			},
			{
				"type": "occ",
				"energy": -0.21277,
				"method": "rhf"
			},
			{
				"type": "occ",
				"energy": -0.20754,
				"method": "rhf"
			},
			{
				"type": "unocc",
				"energy": -0.07287,
				"method": "rhf"
			},
			{
				"type": "unocc",
				"energy": -0.02719,
				"method": "rhf"
			},
			{
				"type": "unocc",
				"energy": 0.00203,
				"method": "rhf"
			},
			{
				"type": "unocc",
				"energy": 0.07695,
				"method": "rhf"
			},
			{
				"type": "unocc",
				"energy": 0.08728,
				"method": "rhf"
			}
		],
		"cosmo_sigma_profile": { 
			"-0.025": 0.0,
			"-0.024": 0.0,
			"-0.023": 0.0,
			"-0.022": 0.0,
			"-0.021": 0.0,
			"-0.02": 0.0,
			"-0.019": 0.0,
			"-0.018": 0.0,
			"-0.017": 0.0,
			"-0.016": 0.0,
			"-0.015": 0.307584467015,
			"-0.014": 0.899133173656,
			"-0.013": 1.61599373538,
			"-0.012": 1.84545841039,
			"-0.011": 1.81695777379,
			"-0.01": 2.02716706234,
			"-0.009": 1.99305633014,
			"-0.008": 2.24257584691,
			"-0.007": 4.88416900763,
			"-0.006": 5.54336484387,
			"-0.005": 9.07240447069,
			"-0.004": 20.1487252091,
			"-0.003": 27.8052320959,
			"-0.002": 28.4150905158,
			"-0.001": 24.8588176112,
			"0.0": 27.9869841245,
			"0.001": 19.0058616031,
			"0.002": 26.850768357,
			"0.003": 29.409507271,
			"0.004": 8.04099912852,
			"0.005": 7.15775949339,
			"0.006": 5.27362655635,
			"0.007": 5.81390241614,
			"0.008": 4.83336996081,
			"0.009": 5.49033569945,
			"0.01": 4.05583658694,
			"0.011": 2.85732939959,
			"0.012": 2.05362605064,
			"0.013": 0.524967688685,
			"0.014": 0.0,
			"0.015": 0.0,
			"0.016": 0.0,
			"0.017": 0.0,
			"0.018": 0.0,
			"0.019": 0.0,
			"0.02": 0.0,
			"0.021": 0.0,
			"0.022": 0.0,
			"0.023": 0.0,
			"0.024": 0.0,
			"0.025": 0.0
		}
	}
}
