{
	 "smiles": "CC(C)(C)C1=NN(CC2=CC=CC=C2)C=C1C=O", 
	 "Tm": 338.15, 
	 "num_atms": 36, 
	 "gaussian": { 
		 "optdone": 1, 
		 "sigma_profile": "yes", 
		 "theory": "DFT", 
		 "functional": "B3LYP", 
		 "basiset": "6-31G**", 
		 "properties": { 
			 "R2extent": 5692.2138, 
			 "electric_dipole_moment_norm": 4.85942649394, 
			 "electric_quadrupole_moment_norm": 14.3494665577, 
			 "total_energy": -767.162847004, 
			 "HOMO_LUMO_gap": 0.20607, 
			 "cosmo_polarized_energy": -12.53, 
			 "cosmo_cavitation_energy": 38.39, 
			 "cosmo_dispersion_energy": -26.19, 
			 "cosmo_repulsion_energy": 2.02, 
			 "cosmo_total_nonelectrostatic_energy": 14.22, 
			 "SMD_solvation_energy": 7.01 
		},
		"coords": [
			{
				"x": -0.967959943,
				"y": 1.8705255308,
				"z": -2.5898552848,
				"element": "C" 
			},
			{
				"x": -1.7389792838,
				"y": 1.5623969543,
				"z": -1.2920465921,
				"element": "C" 
			},
			{
				"x": -1.6067152035,
				"y": 2.7629313474,
				"z": -0.3262251173,
				"element": "C" 
			},
			{
				"x": -3.2303614811,
				"y": 1.3331387998,
				"z": -1.6315718647,
				"element": "C" 
			},
			{
				"x": -1.1736194116,
				"y": 0.3145601243,
				"z": -0.628703337,
				"element": "C" 
			},
			{
				"x": -0.1620675521,
				"y": -0.3389316937,
				"z": -1.192016231,
				"element": "N" 
			},
			{
				"x": 0.1064603065,
				"y": -1.4032449893,
				"z": -0.3829866405,
				"element": "N" 
			},
			{
				"x": 1.2321399125,
				"y": -2.2797969578,
				"z": -0.7008123713,
				"element": "C" 
			},
			{
				"x": 2.5288461031,
				"y": -1.8772730826,
				"z": -0.0219425944,
				"element": "C" 
			},
			{
				"x": 3.0581477577,
				"y": -0.592455615,
				"z": -0.2065566601,
				"element": "C" 
			},
			{
				"x": 4.2566565439,
				"y": -0.2322136947,
				"z": 0.4069220637,
				"element": "C" 
			},
			{
				"x": 4.9431175965,
				"y": -1.1512858182,
				"z": 1.2059047963,
				"element": "C" 
			},
			{
				"x": 4.4231488984,
				"y": -2.431995609,
				"z": 1.3909956037,
				"element": "C" 
			},
			{
				"x": 3.2186007855,
				"y": -2.7908557743,
				"z": 0.7810181395,
				"element": "C" 
			},
			{
				"x": -0.7020637549,
				"y": -1.4366072441,
				"z": 0.6881060426,
				"element": "C" 
			},
			{
				"x": -1.5677884107,
				"y": -0.3486799142,
				"z": 0.5896607788,
				"element": "C" 
			},
			{
				"x": -2.596623935,
				"y": -0.0942396912,
				"z": 1.5885674498,
				"element": "C" 
			},
			{
				"x": -3.4077507952,
				"y": 0.8196530085,
				"z": 1.6028727301,
				"element": "O" 
			},
			{
				"x": -1.3889808866,
				"y": 2.7671497804,
				"z": -3.056677591,
				"element": "H" 
			},
			{
				"x": -1.0363602015,
				"y": 1.0453663357,
				"z": -3.3040804836,
				"element": "H" 
			},
			{
				"x": 0.092845174,
				"y": 2.051298005,
				"z": -2.3944102669,
				"element": "H" 
			},
			{
				"x": -0.5573443275,
				"y": 2.9462399389,
				"z": -0.070732075,
				"element": "H" 
			},
			{
				"x": -1.9996790267,
				"y": 3.6668796507,
				"z": -0.8049283573,
				"element": "H" 
			},
			{
				"x": -2.1707149198,
				"y": 2.5917954541,
				"z": 0.5928205619,
				"element": "H" 
			},
			{
				"x": -3.8142140029,
				"y": 1.1434632614,
				"z": -0.7286712051,
				"element": "H" 
			},
			{
				"x": -3.3500742695,
				"y": 0.4874425677,
				"z": -2.3174348375,
				"element": "H" 
			},
			{
				"x": -3.6387455213,
				"y": 2.2243038592,
				"z": -2.1212126506,
				"element": "H" 
			},
			{
				"x": 0.9562720282,
				"y": -3.2999705751,
				"z": -0.4188258651,
				"element": "H" 
			},
			{
				"x": 1.330404896,
				"y": -2.2467662025,
				"z": -1.7890732237,
				"element": "H" 
			},
			{
				"x": 2.5203446554,
				"y": 0.1202273349,
				"z": -0.8251906475,
				"element": "H" 
			},
			{
				"x": 4.6580837205,
				"y": 0.7663381863,
				"z": 0.2598595561,
				"element": "H" 
			},
			{
				"x": 5.8779386253,
				"y": -0.8685554227,
				"z": 1.6811560754,
				"element": "H" 
			},
			{
				"x": 4.9495649442,
				"y": -3.1511494682,
				"z": 2.0118981378,
				"element": "H" 
			},
			{
				"x": 2.8152527872,
				"y": -3.7900227768,
				"z": 0.9294510968,
				"element": "H" 
			},
			{
				"x": -0.6257848443,
				"y": -2.207072167,
				"z": 1.4431610781,
				"element": "H" 
			},
			{
				"x": -2.6003969638,
				"y": -0.8459934428,
				"z": 2.4104597856,
				"element": "H" 
			}
		],
		 "valence_orbital": [ 
			{
				"type": "occ",
				"energy": -0.264,
				"method": "rhf"
			},
			{
				"type": "occ",
				"energy": -0.26031,
				"method": "rhf"
			},
			{
				"type": "occ",
				"energy": -0.25892,
				"method": "rhf"
			},
			{
				"type": "occ",
				"energy": -0.24826,
				"method": "rhf"
			},
			{
				"type": "occ",
				"energy": -0.24592,
				"method": "rhf"
			},
			{
				"type": "unocc",
				"energy": -0.03985,
				"method": "rhf"
			},
			{
				"type": "unocc",
				"energy": -0.01771,
				"method": "rhf"
			},
			{
				"type": "unocc",
				"energy": -0.01112,
				"method": "rhf"
			},
			{
				"type": "unocc",
				"energy": 0.01242,
				"method": "rhf"
			},
			{
				"type": "unocc",
				"energy": 0.08002,
				"method": "rhf"
			}
		],
		"cosmo_sigma_profile": { 
			"-0.025": 0.0,
			"-0.024": 0.0,
			"-0.023": 0.0,
			"-0.022": 0.0,
			"-0.021": 0.0,
			"-0.02": 0.0,
			"-0.019": 0.0,
			"-0.018": 0.0,
			"-0.017": 0.0,
			"-0.016": 0.0,
			"-0.015": 0.0,
			"-0.014": 0.0,
			"-0.013": 0.0,
			"-0.012": 0.0,
			"-0.011": 0.0356729601513,
			"-0.01": 2.23195888493,
			"-0.009": 3.51561313132,
			"-0.008": 4.90285490568,
			"-0.007": 7.03565107905,
			"-0.006": 12.4443908552,
			"-0.005": 15.189864558,
			"-0.004": 18.1259707065,
			"-0.003": 21.1749786435,
			"-0.002": 27.1769676022,
			"-0.001": 27.2263002743,
			"0.0": 23.5270182245,
			"0.001": 39.7224555016,
			"0.002": 31.8448816529,
			"0.003": 15.7447840923,
			"0.004": 13.1752769842,
			"0.005": 13.1260875109,
			"0.006": 7.45329147875,
			"0.007": 2.48563973167,
			"0.008": 3.27750034936,
			"0.009": 2.94613330915,
			"0.01": 2.4095245991,
			"0.011": 2.57705302784,
			"0.012": 3.26636266673,
			"0.013": 2.23908879277,
			"0.014": 0.566269940553,
			"0.015": 0.0,
			"0.016": 0.0,
			"0.017": 0.0,
			"0.018": 0.0,
			"0.019": 0.0,
			"0.02": 0.0,
			"0.021": 0.0,
			"0.022": 0.0,
			"0.023": 0.0,
			"0.024": 0.0,
			"0.025": 0.0
		}
	}
}
