{
	 "smiles": "CNC(=O)C1=CC(NC(=O)C(C)Cl)=CC=C1", 
	 "Tm": 423.15, 
	 "num_atms": 29, 
	 "gaussian": { 
		 "optdone": 1, 
		 "sigma_profile": "yes", 
		 "theory": "DFT", 
		 "functional": "B3LYP", 
		 "basiset": "6-31G**", 
		 "properties": { 
			 "R2extent": 5661.3268, 
			 "electric_dipole_moment_norm": 1.77016476917, 
			 "electric_quadrupole_moment_norm": 32.3452396831, 
			 "total_energy": -1147.18260307, 
			 "HOMO_LUMO_gap": 0.20398, 
			 "cosmo_polarized_energy": -21.04, 
			 "cosmo_cavitation_energy": 35.16, 
			 "cosmo_dispersion_energy": -24.25, 
			 "cosmo_repulsion_energy": 1.94, 
			 "cosmo_total_nonelectrostatic_energy": 12.84, 
			 "SMD_solvation_energy": 6.79 
		},
		"coords": [
			{
				"x": -1.3673841898,
				"y": 4.5865292021,
				"z": 3.0349689361,
				"element": "C" 
			},
			{
				"x": -0.9211178747,
				"y": 3.43325748,
				"z": 2.271534279,
				"element": "N" 
			},
			{
				"x": 0.0069191464,
				"y": 3.5515085116,
				"z": 1.2717019281,
				"element": "C" 
			},
			{
				"x": 0.4754294549,
				"y": 4.6320413061,
				"z": 0.9261221762,
				"element": "O" 
			},
			{
				"x": 0.4259417815,
				"y": 2.2685822583,
				"z": 0.6010236889,
				"element": "C" 
			},
			{
				"x": -0.3611296375,
				"y": 1.1096737138,
				"z": 0.5916661494,
				"element": "C" 
			},
			{
				"x": 0.0861418112,
				"y": -0.0451130402,
				"z": -0.0605315356,
				"element": "C" 
			},
			{
				"x": -0.7352354107,
				"y": -1.212512685,
				"z": -0.10479674,
				"element": "N" 
			},
			{
				"x": -1.0606298451,
				"y": -2.0940011396,
				"z": 0.9004131377,
				"element": "C" 
			},
			{
				"x": -1.787590246,
				"y": -3.051924837,
				"z": 0.6907910754,
				"element": "O" 
			},
			{
				"x": -0.4560705456,
				"y": -1.8379289098,
				"z": 2.2900312015,
				"element": "C" 
			},
			{
				"x": -1.2877784826,
				"y": -2.469283873,
				"z": 3.3909896481,
				"element": "C" 
			},
			{
				"x": 1.2354650848,
				"y": -2.552941445,
				"z": 2.2808011745,
				"element": "Cl" 
			},
			{
				"x": 1.3152274514,
				"y": -0.0337732051,
				"z": -0.7287949072,
				"element": "C" 
			},
			{
				"x": 2.0846276377,
				"y": 1.1299661683,
				"z": -0.7486843359,
				"element": "C" 
			},
			{
				"x": 1.6444233873,
				"y": 2.2751758849,
				"z": -0.0890266446,
				"element": "C" 
			},
			{
				"x": -2.4398344902,
				"y": 4.5136847951,
				"z": 3.2384893099,
				"element": "H" 
			},
			{
				"x": -1.1691454631,
				"y": 5.476749317,
				"z": 2.4381683342,
				"element": "H" 
			},
			{
				"x": -0.8313114572,
				"y": 4.6819982047,
				"z": 3.9875071069,
				"element": "H" 
			},
			{
				"x": -1.1077838792,
				"y": 2.5157889917,
				"z": 2.6449823169,
				"element": "H" 
			},
			{
				"x": -1.350797171,
				"y": 1.1011062626,
				"z": 1.0389225946,
				"element": "H" 
			},
			{
				"x": -1.0608576183,
				"y": -1.5255988485,
				"z": -1.01201102,
				"element": "H" 
			},
			{
				"x": -0.2932429615,
				"y": -0.774710263,
				"z": 2.4635569213,
				"element": "H" 
			},
			{
				"x": -0.7988326826,
				"y": -2.3476837772,
				"z": 4.3598018613,
				"element": "H" 
			},
			{
				"x": -2.2692920886,
				"y": -1.9835088283,
				"z": 3.4270243234,
				"element": "H" 
			},
			{
				"x": -1.4447231256,
				"y": -3.5286493902,
				"z": 3.1848606304,
				"element": "H" 
			},
			{
				"x": 1.6578197804,
				"y": -0.936582547,
				"z": -1.2246895894,
				"element": "H" 
			},
			{
				"x": 3.0343162946,
				"y": 1.1380053551,
				"z": -1.2748094487,
				"element": "H" 
			},
			{
				"x": 2.2221453392,
				"y": 3.1927453376,
				"z": -0.0995125727,
				"element": "H" 
			}
		],
		 "valence_orbital": [ 
			{
				"type": "occ",
				"energy": -0.2753,
				"method": "rhf"
			},
			{
				"type": "occ",
				"energy": -0.26686,
				"method": "rhf"
			},
			{
				"type": "occ",
				"energy": -0.26372,
				"method": "rhf"
			},
			{
				"type": "occ",
				"energy": -0.25546,
				"method": "rhf"
			},
			{
				"type": "occ",
				"energy": -0.25362,
				"method": "rhf"
			},
			{
				"type": "unocc",
				"energy": -0.04964,
				"method": "rhf"
			},
			{
				"type": "unocc",
				"energy": -0.03223,
				"method": "rhf"
			},
			{
				"type": "unocc",
				"energy": -0.02249,
				"method": "rhf"
			},
			{
				"type": "unocc",
				"energy": 0.04391,
				"method": "rhf"
			},
			{
				"type": "unocc",
				"energy": 0.0562,
				"method": "rhf"
			}
		],
		"cosmo_sigma_profile": { 
			"-0.025": 0.0,
			"-0.024": 0.0,
			"-0.023": 0.0,
			"-0.022": 0.0,
			"-0.021": 0.0,
			"-0.02": 0.0,
			"-0.019": 0.0,
			"-0.018": 0.0,
			"-0.017": 0.0,
			"-0.016": 0.0,
			"-0.015": 0.742788948576,
			"-0.014": 1.86280854867,
			"-0.013": 2.70326845991,
			"-0.012": 2.1221248702,
			"-0.011": 2.79352258731,
			"-0.01": 2.95141474864,
			"-0.009": 4.12909395372,
			"-0.008": 4.77819156851,
			"-0.007": 8.77884606069,
			"-0.006": 10.8344004882,
			"-0.005": 17.7474655942,
			"-0.004": 19.9058478763,
			"-0.003": 19.9796723048,
			"-0.002": 20.2791447228,
			"-0.001": 21.7071057998,
			"0.0": 18.2055142455,
			"0.001": 16.6336712278,
			"0.002": 17.2418873649,
			"0.003": 17.7685358627,
			"0.004": 15.4601210701,
			"0.005": 11.221500014,
			"0.006": 9.64124094797,
			"0.007": 2.74163403517,
			"0.008": 3.23822063117,
			"0.009": 3.2706348699,
			"0.01": 2.690865464,
			"0.011": 3.29667109654,
			"0.012": 6.56112862171,
			"0.013": 7.52114244276,
			"0.014": 4.02650686414,
			"0.015": 0.0528196974271,
			"0.016": 0.0,
			"0.017": 0.0,
			"0.018": 0.0,
			"0.019": 0.0,
			"0.02": 0.0,
			"0.021": 0.0,
			"0.022": 0.0,
			"0.023": 0.0,
			"0.024": 0.0,
			"0.025": 0.0
		}
	}
}
