{
	 "smiles": "NNC(=O)C1=CSC(=N1)C1=CC=CC=C1", 
	 "Tm": 411.15, 
	 "num_atms": 24, 
	 "gaussian": { 
		 "optdone": 1, 
		 "sigma_profile": "yes", 
		 "theory": "DFT", 
		 "functional": "B3LYP", 
		 "basiset": "6-31G**", 
		 "properties": { 
			 "R2extent": 5127.9838, 
			 "electric_dipole_moment_norm": 3.23289232886, 
			 "electric_quadrupole_moment_norm": 6.08133573732, 
			 "total_energy": -1024.13894124, 
			 "HOMO_LUMO_gap": 0.16817, 
			 "cosmo_polarized_energy": -12.6, 
			 "cosmo_cavitation_energy": 30.73, 
			 "cosmo_dispersion_energy": -23.07, 
			 "cosmo_repulsion_energy": 1.75, 
			 "cosmo_total_nonelectrostatic_energy": 9.41, 
			 "SMD_solvation_energy": 5.35 
		},
		"coords": [
			{
				"x": 1.4041704678,
				"y": 5.0146167131,
				"z": -1.7146755114,
				"element": "N" 
			},
			{
				"x": 1.4469108166,
				"y": 3.7049363186,
				"z": -1.2084409476,
				"element": "N" 
			},
			{
				"x": 2.6199340352,
				"y": 3.0532081122,
				"z": -0.9781957595,
				"element": "C" 
			},
			{
				"x": 3.7215372983,
				"y": 3.5536992617,
				"z": -1.1917587306,
				"element": "O" 
			},
			{
				"x": 2.4546611043,
				"y": 1.6704356371,
				"z": -0.4411221209,
				"element": "C" 
			},
			{
				"x": 3.514059171,
				"y": 0.856880935,
				"z": -0.1464020552,
				"element": "C" 
			},
			{
				"x": 2.9439746881,
				"y": -0.6570084514,
				"z": 0.4486396635,
				"element": "S" 
			},
			{
				"x": 1.2770827199,
				"y": -0.0820797622,
				"z": 0.2571505498,
				"element": "C" 
			},
			{
				"x": 1.2077960723,
				"y": 1.1360474562,
				"z": -0.2119220597,
				"element": "N" 
			},
			{
				"x": 0.1122963874,
				"y": -0.9097897501,
				"z": 0.5980846461,
				"element": "C" 
			},
			{
				"x": -1.1787583236,
				"y": -0.3814052139,
				"z": 0.4201769342,
				"element": "C" 
			},
			{
				"x": -2.3002300896,
				"y": -1.1429968309,
				"z": 0.7346808992,
				"element": "C" 
			},
			{
				"x": -2.1552715841,
				"y": -2.4413454323,
				"z": 1.2307983051,
				"element": "C" 
			},
			{
				"x": -0.8770700686,
				"y": -2.9738809822,
				"z": 1.4105793643,
				"element": "C" 
			},
			{
				"x": 0.2484924065,
				"y": -2.2153937538,
				"z": 1.0971812001,
				"element": "C" 
			},
			{
				"x": 1.9474084296,
				"y": 5.6036061904,
				"z": -1.0829112249,
				"element": "H" 
			},
			{
				"x": 1.9234270591,
				"y": 5.0190046179,
				"z": -2.5930233094,
				"element": "H" 
			},
			{
				"x": 0.5647548024,
				"y": 3.2523218667,
				"z": -1.0185298426,
				"element": "H" 
			},
			{
				"x": 4.5632616607,
				"y": 1.087968807,
				"z": -0.2548684587,
				"element": "H" 
			},
			{
				"x": -1.281421864,
				"y": 0.6266188789,
				"z": 0.0348138307,
				"element": "H" 
			},
			{
				"x": -3.2913818888,
				"y": -0.7223674842,
				"z": 0.5923623854,
				"element": "H" 
			},
			{
				"x": -3.0319447116,
				"y": -3.0336756284,
				"z": 1.4754888843,
				"element": "H" 
			},
			{
				"x": -0.7549537648,
				"y": -3.981866061,
				"z": 1.7955231829,
				"element": "H" 
			},
			{
				"x": 1.2358651759,
				"y": -2.6449354445,
				"z": 1.242870175,
				"element": "H" 
			}
		],
		 "valence_orbital": [ 
			{
				"type": "occ",
				"energy": -0.27436,
				"method": "rhf"
			},
			{
				"type": "occ",
				"energy": -0.26423,
				"method": "rhf"
			},
			{
				"type": "occ",
				"energy": -0.25641,
				"method": "rhf"
			},
			{
				"type": "occ",
				"energy": -0.25398,
				"method": "rhf"
			},
			{
				"type": "occ",
				"energy": -0.23214,
				"method": "rhf"
			},
			{
				"type": "unocc",
				"energy": -0.06397,
				"method": "rhf"
			},
			{
				"type": "unocc",
				"energy": -0.02553,
				"method": "rhf"
			},
			{
				"type": "unocc",
				"energy": -0.0122,
				"method": "rhf"
			},
			{
				"type": "unocc",
				"energy": 0.01003,
				"method": "rhf"
			},
			{
				"type": "unocc",
				"energy": 0.03532,
				"method": "rhf"
			}
		],
		"cosmo_sigma_profile": { 
			"-0.025": 0.0,
			"-0.024": 0.0,
			"-0.023": 0.0,
			"-0.022": 0.0,
			"-0.021": 0.0,
			"-0.02": 0.0,
			"-0.019": 0.0,
			"-0.018": 0.0,
			"-0.017": 0.0,
			"-0.016": 0.0,
			"-0.015": 0.0,
			"-0.014": 0.0,
			"-0.013": 0.0072524892439,
			"-0.012": 0.665250688925,
			"-0.011": 3.37643413347,
			"-0.01": 3.90707621352,
			"-0.009": 4.57327605858,
			"-0.008": 3.72545972765,
			"-0.007": 6.43002632076,
			"-0.006": 12.9842441867,
			"-0.005": 14.9759579141,
			"-0.004": 14.8797011555,
			"-0.003": 12.3957129996,
			"-0.002": 14.4630303233,
			"-0.001": 20.2738332236,
			"0.0": 23.7139912344,
			"0.001": 24.8533515469,
			"0.002": 21.6765764475,
			"0.003": 14.9466036088,
			"0.004": 17.7629213629,
			"0.005": 7.06869572058,
			"0.006": 2.44470154663,
			"0.007": 2.08872044034,
			"0.008": 2.79900682816,
			"0.009": 1.68994476886,
			"0.01": 2.03624437678,
			"0.011": 2.5098723837,
			"0.012": 1.83736499467,
			"0.013": 4.80184694367,
			"0.014": 4.37272065645,
			"0.015": 0.467507794296,
			"0.016": 0.600041012683,
			"0.017": 0.108821311795,
			"0.018": 0.0,
			"0.019": 0.0,
			"0.02": 0.0,
			"0.021": 0.0,
			"0.022": 0.0,
			"0.023": 0.0,
			"0.024": 0.0,
			"0.025": 0.0
		}
	}
}
