{
	 "smiles": "OC(=O)C(Cl)=C(Cl)C=O", 
	 "Tm": 400.15, 
	 "num_atms": 11, 
	 "gaussian": { 
		 "optdone": 1, 
		 "sigma_profile": "yes", 
		 "theory": "DFT", 
		 "functional": "B3LYP", 
		 "basiset": "6-31G**", 
		 "properties": { 
			 "R2extent": 3347.8423, 
			 "electric_dipole_moment_norm": 1.5649570665, 
			 "electric_quadrupole_moment_norm": 5.18903711203, 
			 "total_energy": -1299.64530777, 
			 "HOMO_LUMO_gap": 0.17904, 
			 "cosmo_polarized_energy": -10.23, 
			 "cosmo_cavitation_energy": 20.65, 
			 "cosmo_dispersion_energy": -14.9, 
			 "cosmo_repulsion_energy": 1.25, 
			 "cosmo_total_nonelectrostatic_energy": 7.0, 
			 "SMD_solvation_energy": 5.51 
		},
		"coords": [
			{
				"x": 2.6185140621,
				"y": -0.1750127804,
				"z": 0.122012408,
				"element": "O" 
			},
			{
				"x": 1.4582421135,
				"y": -0.6560747879,
				"z": 0.5911865974,
				"element": "C" 
			},
			{
				"x": 0.6378956465,
				"y": -0.0284547785,
				"z": 1.2118381998,
				"element": "O" 
			},
			{
				"x": 1.3420960282,
				"y": -2.1482183577,
				"z": 0.3459317877,
				"element": "C" 
			},
			{
				"x": 1.8104453508,
				"y": -3.0989851385,
				"z": 1.7087296602,
				"element": "Cl" 
			},
			{
				"x": 0.8644443119,
				"y": -2.6752054017,
				"z": -0.7978363702,
				"element": "C" 
			},
			{
				"x": 0.6640108297,
				"y": -4.3873964632,
				"z": -1.0410228829,
				"element": "Cl" 
			},
			{
				"x": 0.4584291081,
				"y": -1.819716315,
				"z": -1.9485175101,
				"element": "C" 
			},
			{
				"x": 0.5008102872,
				"y": -0.607608022,
				"z": -1.9243383347,
				"element": "O" 
			},
			{
				"x": 2.6238846667,
				"y": 0.77979994,
				"z": 0.309862322,
				"element": "H" 
			},
			{
				"x": 0.1099275954,
				"y": -2.3838278951,
				"z": -2.8344458772,
				"element": "H" 
			}
		],
		 "valence_orbital": [ 
			{
				"type": "occ",
				"energy": -0.34267,
				"method": "rhf"
			},
			{
				"type": "occ",
				"energy": -0.33656,
				"method": "rhf"
			},
			{
				"type": "occ",
				"energy": -0.30567,
				"method": "rhf"
			},
			{
				"type": "occ",
				"energy": -0.29076,
				"method": "rhf"
			},
			{
				"type": "occ",
				"energy": -0.27825,
				"method": "rhf"
			},
			{
				"type": "unocc",
				"energy": -0.09921,
				"method": "rhf"
			},
			{
				"type": "unocc",
				"energy": -0.04619,
				"method": "rhf"
			},
			{
				"type": "unocc",
				"energy": 0.01641,
				"method": "rhf"
			},
			{
				"type": "unocc",
				"energy": 0.02677,
				"method": "rhf"
			},
			{
				"type": "unocc",
				"energy": 0.04558,
				"method": "rhf"
			}
		],
		"cosmo_sigma_profile": { 
			"-0.025": 0.0,
			"-0.024": 0.0,
			"-0.023": 0.0,
			"-0.022": 0.0,
			"-0.021": 0.00467308608436,
			"-0.02": 0.554740538866,
			"-0.019": 0.911453172475,
			"-0.018": 1.16697945348,
			"-0.017": 0.552195755985,
			"-0.016": 0.691330479279,
			"-0.015": 0.53244711896,
			"-0.014": 0.960389155865,
			"-0.013": 0.902793861278,
			"-0.012": 0.834290090639,
			"-0.011": 0.407239490806,
			"-0.01": 0.657687826998,
			"-0.009": 2.7535230662,
			"-0.008": 4.08833160569,
			"-0.007": 4.69891133582,
			"-0.006": 5.16930900634,
			"-0.005": 6.55547696594,
			"-0.004": 7.55817159225,
			"-0.003": 10.2888321593,
			"-0.002": 13.1551747961,
			"-0.001": 10.8113501155,
			"0.0": 12.8353800841,
			"0.001": 18.2933551761,
			"0.002": 16.0350195274,
			"0.003": 11.0642427283,
			"0.004": 3.6859483694,
			"0.005": 4.36709257119,
			"0.006": 5.83381536326,
			"0.007": 4.8628766787,
			"0.008": 5.5462429464,
			"0.009": 5.85371839136,
			"0.01": 7.07391062041,
			"0.011": 1.65818739039,
			"0.012": 0.0,
			"0.013": 0.0,
			"0.014": 0.0,
			"0.015": 0.0,
			"0.016": 0.0,
			"0.017": 0.0,
			"0.018": 0.0,
			"0.019": 0.0,
			"0.02": 0.0,
			"0.021": 0.0,
			"0.022": 0.0,
			"0.023": 0.0,
			"0.024": 0.0,
			"0.025": 0.0
		}
	}
}
