{
	 "smiles": "CC(C)(C)OC(=O)N1CC2=CC=CC=C2CC1C(O)=O", 
	 "Tm": 399.15, 
	 "num_atms": 39, 
	 "gaussian": { 
		 "optdone": 1, 
		 "sigma_profile": "yes", 
		 "theory": "DFT", 
		 "functional": "B3LYP", 
		 "basiset": "6-31G**", 
		 "properties": { 
			 "R2extent": 6740.955, 
			 "electric_dipole_moment_norm": 2.12573799185, 
			 "electric_quadrupole_moment_norm": 14.5831558824, 
			 "total_energy": -938.749643697, 
			 "HOMO_LUMO_gap": 0.23068, 
			 "cosmo_polarized_energy": -15.45, 
			 "cosmo_cavitation_energy": 40.99, 
			 "cosmo_dispersion_energy": -27.8, 
			 "cosmo_repulsion_energy": 2.15, 
			 "cosmo_total_nonelectrostatic_energy": 15.34, 
			 "SMD_solvation_energy": 8.16 
		},
		"coords": [
			{
				"x": 2.0940895741,
				"y": -0.3283216224,
				"z": 2.7108005872,
				"element": "C" 
			},
			{
				"x": 2.2795175006,
				"y": -0.6504409496,
				"z": 1.2255992445,
				"element": "C" 
			},
			{
				"x": 3.4982400988,
				"y": 0.084523655,
				"z": 0.6580620894,
				"element": "C" 
			},
			{
				"x": 2.3550170072,
				"y": -2.1646543304,
				"z": 1.0032399831,
				"element": "C" 
			},
			{
				"x": 1.0450075767,
				"y": -0.1128331866,
				"z": 0.6278616594,
				"element": "O" 
			},
			{
				"x": 0.8273014019,
				"y": -0.1977864888,
				"z": -0.7036602291,
				"element": "C" 
			},
			{
				"x": 1.5774222243,
				"y": -0.7148792944,
				"z": -1.5227387546,
				"element": "O" 
			},
			{
				"x": -0.3659217126,
				"y": 0.3708345977,
				"z": -1.0667596561,
				"element": "N" 
			},
			{
				"x": -1.3201430075,
				"y": 0.9688911927,
				"z": -0.1233179121,
				"element": "C" 
			},
			{
				"x": -2.7190534857,
				"y": 0.4789685477,
				"z": -0.4189782441,
				"element": "C" 
			},
			{
				"x": -3.6152726835,
				"y": 0.0755949773,
				"z": 0.5711277092,
				"element": "C" 
			},
			{
				"x": -4.892587239,
				"y": -0.3699232632,
				"z": 0.2213955375,
				"element": "C" 
			},
			{
				"x": -5.2685587991,
				"y": -0.4242517773,
				"z": -1.1215491287,
				"element": "C" 
			},
			{
				"x": -4.3703850815,
				"y": -0.0281518398,
				"z": -2.1157231381,
				"element": "C" 
			},
			{
				"x": -3.0986966499,
				"y": 0.4315264242,
				"z": -1.7693948539,
				"element": "C" 
			},
			{
				"x": -2.0816800901,
				"y": 0.9152835534,
				"z": -2.7721768458,
				"element": "C" 
			},
			{
				"x": -0.6737105762,
				"y": 0.3305507346,
				"z": -2.4924835585,
				"element": "C" 
			},
			{
				"x": 0.3543383401,
				"y": 1.1358532149,
				"z": -3.2908952729,
				"element": "C" 
			},
			{
				"x": 0.4864309664,
				"y": 0.6419865997,
				"z": -4.5424043292,
				"element": "O" 
			},
			{
				"x": 0.9206400343,
				"y": 2.1314896224,
				"z": -2.9042251226,
				"element": "O" 
			},
			{
				"x": 1.1996344174,
				"y": -0.8198474487,
				"z": 3.1051038683,
				"element": "H" 
			},
			{
				"x": 1.9920722279,
				"y": 0.7502183829,
				"z": 2.8623697124,
				"element": "H" 
			},
			{
				"x": 2.9598486744,
				"y": -0.6776563217,
				"z": 3.2811308331,
				"element": "H" 
			},
			{
				"x": 3.3888475914,
				"y": 1.164570237,
				"z": 0.7970490674,
				"element": "H" 
			},
			{
				"x": 3.6194544224,
				"y": -0.1233418944,
				"z": -0.4049685238,
				"element": "H" 
			},
			{
				"x": 4.3999394759,
				"y": -0.2381726803,
				"z": 1.1888415117,
				"element": "H" 
			},
			{
				"x": 3.2112943485,
				"y": -2.572951434,
				"z": 1.5500262694,
				"element": "H" 
			},
			{
				"x": 2.4674633397,
				"y": -2.3984288145,
				"z": -0.0554511938,
				"element": "H" 
			},
			{
				"x": 1.4490739497,
				"y": -2.6498218675,
				"z": 1.380587674,
				"element": "H" 
			},
			{
				"x": -1.0113585594,
				"y": 0.6999601161,
				"z": 0.8846420419,
				"element": "H" 
			},
			{
				"x": -1.2718908761,
				"y": 2.0660476815,
				"z": -0.1991336993,
				"element": "H" 
			},
			{
				"x": -3.3151093658,
				"y": 0.1054689154,
				"z": 1.6157117643,
				"element": "H" 
			},
			{
				"x": -5.5875657363,
				"y": -0.6833608073,
				"z": 0.9950064122,
				"element": "H" 
			},
			{
				"x": -6.2577037624,
				"y": -0.7789656631,
				"z": -1.3964040098,
				"element": "H" 
			},
			{
				"x": -4.66106001,
				"y": -0.0730921854,
				"z": -3.1624189928,
				"element": "H" 
			},
			{
				"x": -2.3682182806,
				"y": 0.6601592955,
				"z": -3.795651,
				"element": "H" 
			},
			{
				"x": -2.0152015695,
				"y": 2.0113104373,
				"z": -2.7213966628,
				"element": "H" 
			},
			{
				"x": -0.6323392413,
				"y": -0.7045881606,
				"z": -2.8442149638,
				"element": "H" 
			},
			{
				"x": 1.1186235546,
				"y": 1.2228318448,
				"z": -4.998109873,
				"element": "H" 
			}
		],
		 "valence_orbital": [ 
			{
				"type": "occ",
				"energy": -0.27458,
				"method": "rhf"
			},
			{
				"type": "occ",
				"energy": -0.26302,
				"method": "rhf"
			},
			{
				"type": "occ",
				"energy": -0.25256,
				"method": "rhf"
			},
			{
				"type": "occ",
				"energy": -0.24368,
				"method": "rhf"
			},
			{
				"type": "occ",
				"energy": -0.23852,
				"method": "rhf"
			},
			{
				"type": "unocc",
				"energy": -0.00784,
				"method": "rhf"
			},
			{
				"type": "unocc",
				"energy": -0.0064,
				"method": "rhf"
			},
			{
				"type": "unocc",
				"energy": 0.01545,
				"method": "rhf"
			},
			{
				"type": "unocc",
				"energy": 0.05677,
				"method": "rhf"
			},
			{
				"type": "unocc",
				"energy": 0.0781,
				"method": "rhf"
			}
		],
		"cosmo_sigma_profile": { 
			"-0.025": 0.0,
			"-0.024": 0.0,
			"-0.023": 0.0,
			"-0.022": 0.0,
			"-0.021": 0.0,
			"-0.02": 0.0,
			"-0.019": 0.0495787949217,
			"-0.018": 0.864237174435,
			"-0.017": 1.01316697241,
			"-0.016": 0.984987737625,
			"-0.015": 0.799491491441,
			"-0.014": 0.846502391029,
			"-0.013": 0.05270557414,
			"-0.012": 0.610852468903,
			"-0.011": 1.01879119214,
			"-0.01": 0.995744884457,
			"-0.009": 0.623354225471,
			"-0.008": 0.519692047771,
			"-0.007": 0.810008261002,
			"-0.006": 12.2510211059,
			"-0.005": 20.97703415,
			"-0.004": 31.4520971054,
			"-0.003": 32.1367445049,
			"-0.002": 25.7139504688,
			"-0.001": 29.7859001698,
			"0.0": 34.6994068306,
			"0.001": 26.0628250409,
			"0.002": 15.57772709,
			"0.003": 14.3108206946,
			"0.004": 13.7952629036,
			"0.005": 13.0375246194,
			"0.006": 9.45178260135,
			"0.007": 5.19078538687,
			"0.008": 5.54089157501,
			"0.009": 5.12148619356,
			"0.01": 4.12470890022,
			"0.011": 4.90594961627,
			"0.012": 6.27429813671,
			"0.013": 1.94605372439,
			"0.014": 0.0259923129862,
			"0.015": 0.0,
			"0.016": 0.0,
			"0.017": 0.0,
			"0.018": 0.0,
			"0.019": 0.0,
			"0.02": 0.0,
			"0.021": 0.0,
			"0.022": 0.0,
			"0.023": 0.0,
			"0.024": 0.0,
			"0.025": 0.0
		}
	}
}
