{
	 "smiles": "CC1=CC(=CC=C1)C1=NN=C(CCl)O1", 
	 "Tm": 331.15, 
	 "num_atms": 23, 
	 "gaussian": { 
		 "optdone": 1, 
		 "sigma_profile": "yes", 
		 "theory": "DFT", 
		 "functional": "B3LYP", 
		 "basiset": "6-31G**", 
		 "properties": { 
			 "R2extent": 4859.9295, 
			 "electric_dipole_moment_norm": 3.55488740328, 
			 "electric_quadrupole_moment_norm": 13.972026683, 
			 "total_energy": -1031.3911315, 
			 "HOMO_LUMO_gap": 0.18327, 
			 "cosmo_polarized_energy": -11.19, 
			 "cosmo_cavitation_energy": 29.9, 
			 "cosmo_dispersion_energy": -21.93, 
			 "cosmo_repulsion_energy": 1.74, 
			 "cosmo_total_nonelectrostatic_energy": 9.72, 
			 "SMD_solvation_energy": 3.24 
		},
		"coords": [
			{
				"x": -3.7016236797,
				"y": -0.130525229,
				"z": -1.9062937505,
				"element": "C" 
			},
			{
				"x": -2.5668378557,
				"y": -0.3308558758,
				"z": -0.9293979479,
				"element": "C" 
			},
			{
				"x": -1.2469002488,
				"y": -0.0685231339,
				"z": -1.2962477167,
				"element": "C" 
			},
			{
				"x": -0.1934596472,
				"y": -0.2596787174,
				"z": -0.3860023963,
				"element": "C" 
			},
			{
				"x": -0.4607823536,
				"y": -0.7200179624,
				"z": 0.9101788142,
				"element": "C" 
			},
			{
				"x": -1.7782832069,
				"y": -0.982924185,
				"z": 1.2818239658,
				"element": "C" 
			},
			{
				"x": -2.8184549587,
				"y": -0.7905813023,
				"z": 0.3740635934,
				"element": "C" 
			},
			{
				"x": 1.1690337455,
				"y": 0.0277371109,
				"z": -0.8165616579,
				"element": "C" 
			},
			{
				"x": 1.5845953489,
				"y": 0.4423571075,
				"z": -1.9811949278,
				"element": "N" 
			},
			{
				"x": 2.9656701643,
				"y": 0.5609145583,
				"z": -1.8926130486,
				"element": "N" 
			},
			{
				"x": 3.2859735781,
				"y": 0.2160044122,
				"z": -0.6844841377,
				"element": "C" 
			},
			{
				"x": 4.6354357559,
				"y": 0.1867612961,
				"z": -0.0818530562,
				"element": "C" 
			},
			{
				"x": 5.2121207407,
				"y": -1.5114369634,
				"z": 0.2446566526,
				"element": "Cl" 
			},
			{
				"x": 2.203009813,
				"y": -0.133636462,
				"z": 0.0633208602,
				"element": "O" 
			},
			{
				"x": -4.2203391082,
				"y": -1.0743443948,
				"z": -2.1098593773,
				"element": "H" 
			},
			{
				"x": -4.4474344963,
				"y": 0.5680898123,
				"z": -1.5108156278,
				"element": "H" 
			},
			{
				"x": -3.3423846688,
				"y": 0.2656814321,
				"z": -2.8593808667,
				"element": "H" 
			},
			{
				"x": -1.0143234481,
				"y": 0.2884230175,
				"z": -2.2945771487,
				"element": "H" 
			},
			{
				"x": 0.3520402385,
				"y": -0.8704622668,
				"z": 1.6122257967,
				"element": "H" 
			},
			{
				"x": -1.993561441,
				"y": -1.3400746593,
				"z": 2.2844941276,
				"element": "H" 
			},
			{
				"x": -3.8414983385,
				"y": -0.9994149949,
				"z": 0.6774017493,
				"element": "H" 
			},
			{
				"x": 4.6588188283,
				"y": 0.7042047278,
				"z": 0.8777380035,
				"element": "H" 
			},
			{
				"x": 5.3382852385,
				"y": 0.6423026723,
				"z": -0.7769219034,
				"element": "H" 
			}
		],
		 "valence_orbital": [ 
			{
				"type": "occ",
				"energy": -0.30918,
				"method": "rhf"
			},
			{
				"type": "occ",
				"energy": -0.30417,
				"method": "rhf"
			},
			{
				"type": "occ",
				"energy": -0.2834,
				"method": "rhf"
			},
			{
				"type": "occ",
				"energy": -0.2581,
				"method": "rhf"
			},
			{
				"type": "occ",
				"energy": -0.2438,
				"method": "rhf"
			},
			{
				"type": "unocc",
				"energy": -0.06053,
				"method": "rhf"
			},
			{
				"type": "unocc",
				"energy": -0.02416,
				"method": "rhf"
			},
			{
				"type": "unocc",
				"energy": -0.0107,
				"method": "rhf"
			},
			{
				"type": "unocc",
				"energy": 0.04,
				"method": "rhf"
			},
			{
				"type": "unocc",
				"energy": 0.05439,
				"method": "rhf"
			}
		],
		"cosmo_sigma_profile": { 
			"-0.025": 0.0,
			"-0.024": 0.0,
			"-0.023": 0.0,
			"-0.022": 0.0,
			"-0.021": 0.0,
			"-0.02": 0.0,
			"-0.019": 0.0,
			"-0.018": 0.0,
			"-0.017": 0.0,
			"-0.016": 0.0,
			"-0.015": 0.0,
			"-0.014": 0.0,
			"-0.013": 0.0,
			"-0.012": 0.0,
			"-0.011": 0.0514342545611,
			"-0.01": 3.26548894695,
			"-0.009": 4.45582042111,
			"-0.008": 3.70719875013,
			"-0.007": 5.26826821408,
			"-0.006": 10.7425434058,
			"-0.005": 14.8760164304,
			"-0.004": 18.4720929541,
			"-0.003": 16.9844187428,
			"-0.002": 19.0291690601,
			"-0.001": 19.7791349471,
			"0.0": 21.3961873621,
			"0.001": 16.9321837577,
			"0.002": 16.2738257078,
			"0.003": 17.7271947424,
			"0.004": 17.0269195917,
			"0.005": 12.264902653,
			"0.006": 4.79160663288,
			"0.007": 2.28565513183,
			"0.008": 1.74654410887,
			"0.009": 2.53170477785,
			"0.01": 2.54840770976,
			"0.011": 3.14395745912,
			"0.012": 2.88661226368,
			"0.013": 2.33881556341,
			"0.014": 1.25826236198,
			"0.015": 0.14558826266,
			"0.016": 0.0,
			"0.017": 0.0,
			"0.018": 0.0,
			"0.019": 0.0,
			"0.02": 0.0,
			"0.021": 0.0,
			"0.022": 0.0,
			"0.023": 0.0,
			"0.024": 0.0,
			"0.025": 0.0
		}
	}
}
