{
	 "smiles": "CC(C)(C)OC(=O)N1CCN(CC1)C1=C(C=CC=N1)C#N", 
	 "Tm": 339.15, 
	 "num_atms": 41, 
	 "gaussian": { 
		 "optdone": 1, 
		 "sigma_profile": "yes", 
		 "theory": "DFT", 
		 "functional": "B3LYP", 
		 "basiset": "6-31G**", 
		 "properties": { 
			 "R2extent": 9572.8456, 
			 "electric_dipole_moment_norm": 2.90297516696, 
			 "electric_quadrupole_moment_norm": 24.3352118772, 
			 "total_energy": -953.116853612, 
			 "HOMO_LUMO_gap": 0.16511, 
			 "cosmo_polarized_energy": -15.0, 
			 "cosmo_cavitation_energy": 43.08, 
			 "cosmo_dispersion_energy": -29.83, 
			 "cosmo_repulsion_energy": 2.28, 
			 "cosmo_total_nonelectrostatic_energy": 15.53, 
			 "SMD_solvation_energy": 6.79 
		},
		"coords": [
			{
				"x": -1.6809376633,
				"y": -1.5533723284,
				"z": -3.7463827329,
				"element": "C" 
			},
			{
				"x": -0.6451996829,
				"y": -2.2128888603,
				"z": -2.8297619146,
				"element": "C" 
			},
			{
				"x": 0.6919958066,
				"y": -2.4509209013,
				"z": -3.539265594,
				"element": "C" 
			},
			{
				"x": -1.190016908,
				"y": -3.5190711338,
				"z": -2.2457901248,
				"element": "C" 
			},
			{
				"x": -0.4364596595,
				"y": -1.3890857871,
				"z": -1.6273453972,
				"element": "O" 
			},
			{
				"x": 0.0329706542,
				"y": -0.1213218368,
				"z": -1.7269285521,
				"element": "C" 
			},
			{
				"x": 0.3555160688,
				"y": 0.4470402618,
				"z": -2.7612189884,
				"element": "O" 
			},
			{
				"x": 0.1060954257,
				"y": 0.4643775035,
				"z": -0.4902182254,
				"element": "N" 
			},
			{
				"x": -0.2355934813,
				"y": -0.2221382858,
				"z": 0.7536279901,
				"element": "C" 
			},
			{
				"x": -0.5733363104,
				"y": 0.7945136925,
				"z": 1.8462582533,
				"element": "C" 
			},
			{
				"x": 0.5440641233,
				"y": 1.7204616771,
				"z": 2.0697993876,
				"element": "N" 
			},
			{
				"x": 1.4425767545,
				"y": 1.9555475135,
				"z": 0.9281360595,
				"element": "C" 
			},
			{
				"x": 0.6797046098,
				"y": 1.8054245235,
				"z": -0.3839057461,
				"element": "C" 
			},
			{
				"x": 0.9149553809,
				"y": 2.1782776744,
				"z": 3.3064230449,
				"element": "C" 
			},
			{
				"x": 0.04492554,
				"y": 2.2168012107,
				"z": 4.4474020447,
				"element": "C" 
			},
			{
				"x": 0.5826238901,
				"y": 2.6333046793,
				"z": 5.6754371235,
				"element": "C" 
			},
			{
				"x": 1.9059839671,
				"y": 3.0438510849,
				"z": 5.7606668557,
				"element": "C" 
			},
			{
				"x": 2.6443488156,
				"y": 3.0551267723,
				"z": 4.5760786952,
				"element": "C" 
			},
			{
				"x": 2.1809494388,
				"y": 2.6358145621,
				"z": 3.4014911531,
				"element": "N" 
			},
			{
				"x": -1.3597232683,
				"y": 1.9613075994,
				"z": 4.3965664884,
				"element": "C" 
			},
			{
				"x": -2.5123427135,
				"y": 1.7902772189,
				"z": 4.3958265449,
				"element": "N" 
			},
			{
				"x": -1.3043171768,
				"y": -0.6126402205,
				"z": -4.148245229,
				"element": "H" 
			},
			{
				"x": -1.9154940192,
				"y": -2.225742978,
				"z": -4.5780358846,
				"element": "H" 
			},
			{
				"x": -2.6070524064,
				"y": -1.3598583858,
				"z": -3.1956649942,
				"element": "H" 
			},
			{
				"x": 0.5489650374,
				"y": -3.1547170738,
				"z": -4.3657114524,
				"element": "H" 
			},
			{
				"x": 1.0945740219,
				"y": -1.5181844973,
				"z": -3.9343305615,
				"element": "H" 
			},
			{
				"x": 1.4178403767,
				"y": -2.8863167132,
				"z": -2.8449748643,
				"element": "H" 
			},
			{
				"x": -0.4690088657,
				"y": -3.9632845106,
				"z": -1.5533044802,
				"element": "H" 
			},
			{
				"x": -1.3860787239,
				"y": -4.2361219765,
				"z": -3.0484343568,
				"element": "H" 
			},
			{
				"x": -2.1243735086,
				"y": -3.3416202057,
				"z": -1.7050867331,
				"element": "H" 
			},
			{
				"x": -1.1037185438,
				"y": -0.8623574552,
				"z": 0.5884727733,
				"element": "H" 
			},
			{
				"x": 0.5886500998,
				"y": -0.8678483935,
				"z": 1.0895467033,
				"element": "H" 
			},
			{
				"x": -1.4907960997,
				"y": 1.3334346815,
				"z": 1.5799910036,
				"element": "H" 
			},
			{
				"x": -0.7782954523,
				"y": 0.243174252,
				"z": 2.7654164664,
				"element": "H" 
			},
			{
				"x": 1.8512387572,
				"y": 2.9642409817,
				"z": 1.0063780102,
				"element": "H" 
			},
			{
				"x": 2.2968731084,
				"y": 1.2656981639,
				"z": 0.9535775904,
				"element": "H" 
			},
			{
				"x": -0.1051298157,
				"y": 2.5719962274,
				"z": -0.4499776255,
				"element": "H" 
			},
			{
				"x": 1.3538093332,
				"y": 1.9577439604,
				"z": -1.228673447,
				"element": "H" 
			},
			{
				"x": -0.0667948578,
				"y": 2.6545567316,
				"z": 6.5449374297,
				"element": "H" 
			},
			{
				"x": 2.3407135171,
				"y": 3.3733069541,
				"z": 6.697057399,
				"element": "H" 
			},
			{
				"x": 3.6715944301,
				"y": 3.417313617,
				"z": 4.5728658877,
				"element": "H" 
			}
		],
		 "valence_orbital": [ 
			{
				"type": "occ",
				"energy": -0.28626,
				"method": "rhf"
			},
			{
				"type": "occ",
				"energy": -0.27255,
				"method": "rhf"
			},
			{
				"type": "occ",
				"energy": -0.26267,
				"method": "rhf"
			},
			{
				"type": "occ",
				"energy": -0.24069,
				"method": "rhf"
			},
			{
				"type": "occ",
				"energy": -0.21923,
				"method": "rhf"
			},
			{
				"type": "unocc",
				"energy": -0.05412,
				"method": "rhf"
			},
			{
				"type": "unocc",
				"energy": -0.01754,
				"method": "rhf"
			},
			{
				"type": "unocc",
				"energy": 0.03046,
				"method": "rhf"
			},
			{
				"type": "unocc",
				"energy": 0.05136,
				"method": "rhf"
			},
			{
				"type": "unocc",
				"energy": 0.07084,
				"method": "rhf"
			}
		],
		"cosmo_sigma_profile": { 
			"-0.025": 0.0,
			"-0.024": 0.0,
			"-0.023": 0.0,
			"-0.022": 0.0,
			"-0.021": 0.0,
			"-0.02": 0.0,
			"-0.019": 0.0,
			"-0.018": 0.0,
			"-0.017": 0.0,
			"-0.016": 0.0,
			"-0.015": 0.0,
			"-0.014": 0.0,
			"-0.013": 0.0,
			"-0.012": 0.0,
			"-0.011": 0.0,
			"-0.01": 0.0,
			"-0.009": 0.287231239347,
			"-0.008": 2.35223011769,
			"-0.007": 7.112449528,
			"-0.006": 12.7162191477,
			"-0.005": 24.6505141684,
			"-0.004": 36.0352906038,
			"-0.003": 31.0551476438,
			"-0.002": 28.4271797813,
			"-0.001": 32.3699012369,
			"0.0": 41.474671376,
			"0.001": 35.2210547415,
			"0.002": 16.6465445619,
			"0.003": 10.995634046,
			"0.004": 7.6817759869,
			"0.005": 7.43193504425,
			"0.006": 6.55037741909,
			"0.007": 5.56424599378,
			"0.008": 5.33721647378,
			"0.009": 5.5612056352,
			"0.01": 5.07751964024,
			"0.011": 5.04040070158,
			"0.012": 5.0350173196,
			"0.013": 5.14059315949,
			"0.014": 1.88930360266,
			"0.015": 0.0,
			"0.016": 0.0,
			"0.017": 0.0,
			"0.018": 0.0,
			"0.019": 0.0,
			"0.02": 0.0,
			"0.021": 0.0,
			"0.022": 0.0,
			"0.023": 0.0,
			"0.024": 0.0,
			"0.025": 0.0
		}
	}
}
