{
	 "smiles": "OC(=O)C1=CN(CC2=CC=CC=C2)N=C1C1=CC=CC=C1", 
	 "Tm": 463.15, 
	 "num_atms": 35, 
	 "gaussian": { 
		 "optdone": 1, 
		 "sigma_profile": "yes", 
		 "theory": "DFT", 
		 "functional": "B3LYP", 
		 "basiset": "6-31G**", 
		 "properties": { 
			 "R2extent": 7857.8188, 
			 "electric_dipole_moment_norm": 1.74753380797, 
			 "electric_quadrupole_moment_norm": 15.6938800005, 
			 "total_energy": -916.202789635, 
			 "HOMO_LUMO_gap": 0.19743, 
			 "cosmo_polarized_energy": -15.5, 
			 "cosmo_cavitation_energy": 40.2, 
			 "cosmo_dispersion_energy": -28.16, 
			 "cosmo_repulsion_energy": 2.17, 
			 "cosmo_total_nonelectrostatic_energy": 14.22, 
			 "SMD_solvation_energy": 7.17 
		},
		"coords": [
			{
				"x": 3.585387304,
				"y": -2.5708074662,
				"z": -0.6305497837,
				"element": "O" 
			},
			{
				"x": 2.3171346648,
				"y": -2.906193678,
				"z": -0.289469198,
				"element": "C" 
			},
			{
				"x": 1.9955953606,
				"y": -4.064268737,
				"z": -0.0863484503,
				"element": "O" 
			},
			{
				"x": 1.3857717593,
				"y": -1.7757134553,
				"z": -0.211442686,
				"element": "C" 
			},
			{
				"x": 0.0297122907,
				"y": -2.00008229,
				"z": -0.0040820512,
				"element": "C" 
			},
			{
				"x": -0.5873445463,
				"y": -0.8088548124,
				"z": -0.0867286126,
				"element": "N" 
			},
			{
				"x": -1.9993787131,
				"y": -0.5043934204,
				"z": 0.1407550253,
				"element": "C" 
			},
			{
				"x": -2.3424327351,
				"y": -0.2573674109,
				"z": 1.5986221825,
				"element": "C" 
			},
			{
				"x": -1.6889438543,
				"y": 0.7503571702,
				"z": 2.3214628421,
				"element": "C" 
			},
			{
				"x": -2.0191339391,
				"y": 0.983084038,
				"z": 3.6554656757,
				"element": "C" 
			},
			{
				"x": -3.0082940878,
				"y": 0.2181144384,
				"z": 4.2803545263,
				"element": "C" 
			},
			{
				"x": -3.6636884506,
				"y": -0.784014891,
				"z": 3.5654171607,
				"element": "C" 
			},
			{
				"x": -3.3284218049,
				"y": -1.0215901656,
				"z": 2.2302574484,
				"element": "C" 
			},
			{
				"x": 0.2820610205,
				"y": 0.2060964404,
				"z": -0.3184813149,
				"element": "N" 
			},
			{
				"x": 1.4926633476,
				"y": -0.3570023045,
				"z": -0.4006952421,
				"element": "C" 
			},
			{
				"x": 2.6512022787,
				"y": 0.524307908,
				"z": -0.6604253166,
				"element": "C" 
			},
			{
				"x": 3.8908410505,
				"y": 0.333750214,
				"z": -0.0317395249,
				"element": "C" 
			},
			{
				"x": 4.9438458246,
				"y": 1.2179419818,
				"z": -0.2630225513,
				"element": "C" 
			},
			{
				"x": 4.7765550171,
				"y": 2.3062928401,
				"z": -1.1210406904,
				"element": "C" 
			},
			{
				"x": 3.5437065122,
				"y": 2.509144845,
				"z": -1.7449879184,
				"element": "C" 
			},
			{
				"x": 2.4894102968,
				"y": 1.6278716749,
				"z": -1.5151704002,
				"element": "C" 
			},
			{
				"x": 4.0730127391,
				"y": -3.4108332515,
				"z": -0.6614029193,
				"element": "H" 
			},
			{
				"x": -0.4944150493,
				"y": -2.9270778849,
				"z": 0.1736174835,
				"element": "H" 
			},
			{
				"x": -2.2125497179,
				"y": 0.3778862468,
				"z": -0.468615403,
				"element": "H" 
			},
			{
				"x": -2.5880419666,
				"y": -1.3373662221,
				"z": -0.2532531894,
				"element": "H" 
			},
			{
				"x": -0.917186928,
				"y": 1.3392780553,
				"z": 1.8342225011,
				"element": "H" 
			},
			{
				"x": -1.5056904242,
				"y": 1.7643225296,
				"z": 4.2085959424,
				"element": "H" 
			},
			{
				"x": -3.2648800456,
				"y": 0.4030836351,
				"z": 5.3194580816,
				"element": "H" 
			},
			{
				"x": -4.4314848761,
				"y": -1.3845589561,
				"z": 4.0446273837,
				"element": "H" 
			},
			{
				"x": -3.8394354972,
				"y": -1.8061860742,
				"z": 1.6769252375,
				"element": "H" 
			},
			{
				"x": 4.0285541727,
				"y": -0.5049846478,
				"z": 0.6395690667,
				"element": "H" 
			},
			{
				"x": 5.8965098042,
				"y": 1.0582452065,
				"z": 0.2341532794,
				"element": "H" 
			},
			{
				"x": 5.5998220512,
				"y": 2.9918992988,
				"z": -1.3009405306,
				"element": "H" 
			},
			{
				"x": 3.4032651826,
				"y": 3.3536066813,
				"z": -2.413902786,
				"element": "H" 
			},
			{
				"x": 1.5285719587,
				"y": 1.7829124637,
				"z": -1.9943052681,
				"element": "H" 
			}
		],
		 "valence_orbital": [ 
			{
				"type": "occ",
				"energy": -0.25783,
				"method": "rhf"
			},
			{
				"type": "occ",
				"energy": -0.25583,
				"method": "rhf"
			},
			{
				"type": "occ",
				"energy": -0.25319,
				"method": "rhf"
			},
			{
				"type": "occ",
				"energy": -0.24365,
				"method": "rhf"
			},
			{
				"type": "occ",
				"energy": -0.22587,
				"method": "rhf"
			},
			{
				"type": "unocc",
				"energy": -0.02844,
				"method": "rhf"
			},
			{
				"type": "unocc",
				"energy": -0.01709,
				"method": "rhf"
			},
			{
				"type": "unocc",
				"energy": -0.00966,
				"method": "rhf"
			},
			{
				"type": "unocc",
				"energy": -0.0053,
				"method": "rhf"
			},
			{
				"type": "unocc",
				"energy": 0.00625,
				"method": "rhf"
			}
		],
		"cosmo_sigma_profile": { 
			"-0.025": 0.0,
			"-0.024": 0.0,
			"-0.023": 0.0,
			"-0.022": 0.0,
			"-0.021": 0.0,
			"-0.02": 0.0,
			"-0.019": 0.00244183911131,
			"-0.018": 0.546953643979,
			"-0.017": 1.15980612212,
			"-0.016": 0.506113166267,
			"-0.015": 0.961497122001,
			"-0.014": 0.729816575335,
			"-0.013": 0.310537598814,
			"-0.012": 0.450850564261,
			"-0.011": 1.14651001885,
			"-0.01": 2.52216099931,
			"-0.009": 2.80521368626,
			"-0.008": 3.84474566845,
			"-0.007": 7.2687327343,
			"-0.006": 14.5826395555,
			"-0.005": 22.1828319343,
			"-0.004": 26.825050753,
			"-0.003": 24.3440958635,
			"-0.002": 20.7309578991,
			"-0.001": 20.4199403998,
			"0.0": 18.1528090575,
			"0.001": 25.1658140909,
			"0.002": 24.3093781061,
			"0.003": 20.3146340996,
			"0.004": 21.2532457238,
			"0.005": 23.6287364843,
			"0.006": 14.4080796847,
			"0.007": 3.04562939059,
			"0.008": 4.47015441359,
			"0.009": 2.63403262059,
			"0.01": 3.22360016032,
			"0.011": 3.02703652234,
			"0.012": 5.927155069,
			"0.013": 1.33420095623,
			"0.014": 0.0,
			"0.015": 0.0,
			"0.016": 0.0,
			"0.017": 0.0,
			"0.018": 0.0,
			"0.019": 0.0,
			"0.02": 0.0,
			"0.021": 0.0,
			"0.022": 0.0,
			"0.023": 0.0,
			"0.024": 0.0,
			"0.025": 0.0
		}
	}
}
