{
	 "smiles": "CCOC(=O)NCCC(O)=O", 
	 "Tm": 321.15, 
	 "num_atms": 22, 
	 "gaussian": { 
		 "optdone": 1, 
		 "sigma_profile": "yes", 
		 "theory": "DFT", 
		 "functional": "B3LYP", 
		 "basiset": "6-31G**", 
		 "properties": { 
			 "R2extent": 2441.0073, 
			 "electric_dipole_moment_norm": 3.52445848465, 
			 "electric_quadrupole_moment_norm": 12.9790141047, 
			 "total_energy": -590.960798787, 
			 "HOMO_LUMO_gap": 0.2472, 
			 "cosmo_polarized_energy": -14.09, 
			 "cosmo_cavitation_energy": 26.32, 
			 "cosmo_dispersion_energy": -18.67, 
			 "cosmo_repulsion_energy": 1.56, 
			 "cosmo_total_nonelectrostatic_energy": 9.22, 
			 "SMD_solvation_energy": 6.33 
		},
		"coords": [
			{
				"x": 1.0890430535,
				"y": -3.2849409107,
				"z": 0.1178468893,
				"element": "C" 
			},
			{
				"x": 0.9948163109,
				"y": -2.5324687696,
				"z": 1.4366941258,
				"element": "C" 
			},
			{
				"x": 0.5250630541,
				"y": -1.1805766795,
				"z": 1.2436269407,
				"element": "O" 
			},
			{
				"x": 1.484490705,
				"y": -0.2665757127,
				"z": 0.9204636996,
				"element": "C" 
			},
			{
				"x": 2.6653079997,
				"y": -0.530666948,
				"z": 0.7744993092,
				"element": "O" 
			},
			{
				"x": 0.9550147658,
				"y": 0.9875999944,
				"z": 0.804587258,
				"element": "N" 
			},
			{
				"x": -0.4609798993,
				"y": 1.3151045447,
				"z": 0.7905420473,
				"element": "C" 
			},
			{
				"x": -1.099122789,
				"y": 1.2189101014,
				"z": -0.6009838841,
				"element": "C" 
			},
			{
				"x": -0.4921696512,
				"y": 2.2023839325,
				"z": -1.5776487596,
				"element": "C" 
			},
			{
				"x": -1.0824144437,
				"y": 2.1388105519,
				"z": -2.7913902048,
				"element": "O" 
			},
			{
				"x": 0.4150083133,
				"y": 2.9714421386,
				"z": -1.3324348932,
				"element": "O" 
			},
			{
				"x": 0.126573624,
				"y": -3.2833147472,
				"z": -0.4033465615,
				"element": "H" 
			},
			{
				"x": 1.844265115,
				"y": -2.82715072,
				"z": -0.5253870676,
				"element": "H" 
			},
			{
				"x": 1.3774632649,
				"y": -4.3256170018,
				"z": 0.3009386979,
				"element": "H" 
			},
			{
				"x": 0.2560192971,
				"y": -2.9847740646,
				"z": 2.103590694,
				"element": "H" 
			},
			{
				"x": 1.9648156653,
				"y": -2.5009210487,
				"z": 1.9380085637,
				"element": "H" 
			},
			{
				"x": 1.5844923202,
				"y": 1.6687595668,
				"z": 0.4043844868,
				"element": "H" 
			},
			{
				"x": -0.9780767747,
				"y": 0.6416512185,
				"z": 1.4745385513,
				"element": "H" 
			},
			{
				"x": -0.5725747754,
				"y": 2.3340115532,
				"z": 1.1732874755,
				"element": "H" 
			},
			{
				"x": -0.9843401341,
				"y": 0.2077977414,
				"z": -1.0082730935,
				"element": "H" 
			},
			{
				"x": -2.1786333927,
				"y": 1.4080552478,
				"z": -0.5516662112,
				"element": "H" 
			},
			{
				"x": -0.6294616289,
				"y": 2.7922800118,
				"z": -3.3511780634,
				"element": "H" 
			}
		],
		 "valence_orbital": [ 
			{
				"type": "occ",
				"energy": -0.33037,
				"method": "rhf"
			},
			{
				"type": "occ",
				"energy": -0.28892,
				"method": "rhf"
			},
			{
				"type": "occ",
				"energy": -0.28853,
				"method": "rhf"
			},
			{
				"type": "occ",
				"energy": -0.26305,
				"method": "rhf"
			},
			{
				"type": "occ",
				"energy": -0.2496,
				"method": "rhf"
			},
			{
				"type": "unocc",
				"energy": -0.0024,
				"method": "rhf"
			},
			{
				"type": "unocc",
				"energy": 0.05851,
				"method": "rhf"
			},
			{
				"type": "unocc",
				"energy": 0.07236,
				"method": "rhf"
			},
			{
				"type": "unocc",
				"energy": 0.09205,
				"method": "rhf"
			},
			{
				"type": "unocc",
				"energy": 0.10921,
				"method": "rhf"
			}
		],
		"cosmo_sigma_profile": { 
			"-0.025": 0.0,
			"-0.024": 0.0,
			"-0.023": 0.0,
			"-0.022": 0.0,
			"-0.021": 0.0,
			"-0.02": 0.0,
			"-0.019": 0.0537371955187,
			"-0.018": 0.850829999286,
			"-0.017": 1.121057888,
			"-0.016": 0.481407867659,
			"-0.015": 0.990222473457,
			"-0.014": 0.508328010015,
			"-0.013": 0.430907731806,
			"-0.012": 0.855935405774,
			"-0.011": 1.70499757522,
			"-0.01": 0.895165685428,
			"-0.009": 0.770419498472,
			"-0.008": 1.05880068786,
			"-0.007": 4.19059890004,
			"-0.006": 7.70585179307,
			"-0.005": 15.9859204705,
			"-0.004": 18.1537464718,
			"-0.003": 22.3490579011,
			"-0.002": 20.0464018848,
			"-0.001": 15.3740046228,
			"0.0": 15.569333014,
			"0.001": 11.121006265,
			"0.002": 8.06025271846,
			"0.003": 6.88367599941,
			"0.004": 7.45015190493,
			"0.005": 5.65235691838,
			"0.006": 5.67591162567,
			"0.007": 4.14062062946,
			"0.008": 4.74884247639,
			"0.009": 3.78004865933,
			"0.01": 3.6755866056,
			"0.011": 4.63409898374,
			"0.012": 3.6486429294,
			"0.013": 4.21340203571,
			"0.014": 3.26558765055,
			"0.015": 0.0812315724151,
			"0.016": 0.0,
			"0.017": 0.0,
			"0.018": 0.0,
			"0.019": 0.0,
			"0.02": 0.0,
			"0.021": 0.0,
			"0.022": 0.0,
			"0.023": 0.0,
			"0.024": 0.0,
			"0.025": 0.0
		}
	}
}
