{
	 "smiles": "CC(Br)(CBr)C(O)=O", 
	 "Tm": 447.15, 
	 "num_atms": 14, 
	 "gaussian": { 
		 "optdone": 1, 
		 "sigma_profile": "yes", 
		 "theory": "DFT", 
		 "functional": "B3LYP", 
		 "basiset": "6-31G**", 
		 "properties": { 
			 "R2extent": 3083.5266, 
			 "electric_dipole_moment_norm": 3.29889394191, 
			 "electric_quadrupole_moment_norm": 10.6519206113, 
			 "total_energy": -5449.31058879, 
			 "HOMO_LUMO_gap": 0.23703, 
			 "cosmo_polarized_energy": -10.94, 
			 "cosmo_cavitation_energy": 21.73, 
			 "cosmo_dispersion_energy": -16.4, 
			 "cosmo_repulsion_energy": 1.35, 
			 "cosmo_total_nonelectrostatic_energy": 6.68, 
			 "SMD_solvation_energy": 2.85 
		},
		"coords": [
			{
				"x": 1.2906517371,
				"y": -0.3895122429,
				"z": -1.7545654529,
				"element": "C" 
			},
			{
				"x": 1.4526714802,
				"y": 0.1574974993,
				"z": -0.3299564855,
				"element": "C" 
			},
			{
				"x": 2.8010687754,
				"y": -1.010142314,
				"z": 0.6105989972,
				"element": "Br" 
			},
			{
				"x": 0.1196095973,
				"y": 0.0770767523,
				"z": 0.4100815218,
				"element": "C" 
			},
			{
				"x": 0.1623434234,
				"y": 0.7846683845,
				"z": 2.2450023497,
				"element": "Br" 
			},
			{
				"x": 1.9191683295,
				"y": 1.6363533676,
				"z": -0.4015643958,
				"element": "C" 
			},
			{
				"x": 3.0580458041,
				"y": 2.0008249322,
				"z": 0.1862758221,
				"element": "O" 
			},
			{
				"x": 1.2233859393,
				"y": 2.4147518685,
				"z": -1.0094243723,
				"element": "O" 
			},
			{
				"x": 2.2498642998,
				"y": -0.3969747016,
				"z": -2.2765251335,
				"element": "H" 
			},
			{
				"x": 0.8976493656,
				"y": -1.4085299518,
				"z": -1.7353098475,
				"element": "H" 
			},
			{
				"x": 0.6022323725,
				"y": 0.259402477,
				"z": -2.3021317391,
				"element": "H" 
			},
			{
				"x": -0.2304879929,
				"y": -0.9509219671,
				"z": 0.4818742326,
				"element": "H" 
			},
			{
				"x": -0.6032930009,
				"y": 0.6951365489,
				"z": -0.1224931651,
				"element": "H" 
			},
			{
				"x": 3.4522898695,
				"y": 1.234669347,
				"z": 0.6420376682,
				"element": "H" 
			}
		],
		 "valence_orbital": [ 
			{
				"type": "occ",
				"energy": -0.32324,
				"method": "rhf"
			},
			{
				"type": "occ",
				"energy": -0.30656,
				"method": "rhf"
			},
			{
				"type": "occ",
				"energy": -0.29141,
				"method": "rhf"
			},
			{
				"type": "occ",
				"energy": -0.28554,
				"method": "rhf"
			},
			{
				"type": "occ",
				"energy": -0.28152,
				"method": "rhf"
			},
			{
				"type": "unocc",
				"energy": -0.04449,
				"method": "rhf"
			},
			{
				"type": "unocc",
				"energy": -0.01068,
				"method": "rhf"
			},
			{
				"type": "unocc",
				"energy": -0.00719,
				"method": "rhf"
			},
			{
				"type": "unocc",
				"energy": 0.07547,
				"method": "rhf"
			},
			{
				"type": "unocc",
				"energy": 0.10145,
				"method": "rhf"
			}
		],
		"cosmo_sigma_profile": { 
			"-0.025": 0.0,
			"-0.024": 0.0,
			"-0.023": 0.0,
			"-0.022": 0.0,
			"-0.021": 0.0,
			"-0.02": 0.0,
			"-0.019": 0.0,
			"-0.018": 0.0,
			"-0.017": 0.0,
			"-0.016": 0.0,
			"-0.015": 0.119854808251,
			"-0.014": 0.70518915684,
			"-0.013": 0.7336926069,
			"-0.012": 0.482879958849,
			"-0.011": 0.790917941878,
			"-0.01": 0.602307588498,
			"-0.009": 3.69793589106,
			"-0.008": 7.25002619461,
			"-0.007": 7.93820320563,
			"-0.006": 10.1427846592,
			"-0.005": 8.79646130984,
			"-0.004": 10.1754216935,
			"-0.003": 10.9972145933,
			"-0.002": 12.6080239246,
			"-0.001": 10.5962286069,
			"0.0": 8.2915877598,
			"0.001": 8.92600825005,
			"0.002": 11.9397597691,
			"0.003": 13.1816741124,
			"0.004": 12.8442932925,
			"0.005": 10.9768966809,
			"0.006": 5.72442316975,
			"0.007": 2.57413491954,
			"0.008": 3.85975321275,
			"0.009": 4.75795687136,
			"0.01": 3.27344507838,
			"0.011": 4.48795100559,
			"0.012": 1.20208812884,
			"0.013": 0.00560184219268,
			"0.014": 0.0,
			"0.015": 0.0,
			"0.016": 0.0,
			"0.017": 0.0,
			"0.018": 0.0,
			"0.019": 0.0,
			"0.02": 0.0,
			"0.021": 0.0,
			"0.022": 0.0,
			"0.023": 0.0,
			"0.024": 0.0,
			"0.025": 0.0
		}
	}
}
