{
	 "smiles": "OC1=CC=C(Br)C=C1C=NCCN=CC1=CC(Br)=CC=C1O", 
	 "Tm": 467.15, 
	 "num_atms": 36, 
	 "gaussian": { 
		 "optdone": 1, 
		 "sigma_profile": "yes", 
		 "theory": "DFT", 
		 "functional": "B3LYP", 
		 "basiset": "6-31G**", 
		 "properties": { 
			 "R2extent": 23729.623, 
			 "electric_dipole_moment_norm": 3.68281846009, 
			 "electric_quadrupole_moment_norm": 21.6710188609, 
			 "total_energy": -6020.8979141, 
			 "HOMO_LUMO_gap": 0.15458, 
			 "cosmo_polarized_energy": -14.59, 
			 "cosmo_cavitation_energy": 46.16, 
			 "cosmo_dispersion_energy": -33.48, 
			 "cosmo_repulsion_energy": 2.55, 
			 "cosmo_total_nonelectrostatic_energy": 15.23, 
			 "SMD_solvation_energy": 3.99 
		},
		"coords": [
			{
				"x": -1.60804933,
				"y": 0.7876526354,
				"z": -2.1794740035,
				"element": "O" 
			},
			{
				"x": -2.0854100023,
				"y": 1.9590574552,
				"z": -2.6121491913,
				"element": "C" 
			},
			{
				"x": -3.3262131623,
				"y": 1.9838953983,
				"z": -3.2711516608,
				"element": "C" 
			},
			{
				"x": -3.8557219258,
				"y": 3.1790259715,
				"z": -3.7373731291,
				"element": "C" 
			},
			{
				"x": -3.1524725293,
				"y": 4.3772048044,
				"z": -3.5544256958,
				"element": "C" 
			},
			{
				"x": -3.8936908708,
				"y": 6.0165814257,
				"z": -4.2027036599,
				"element": "Br" 
			},
			{
				"x": -1.9279911646,
				"y": 4.379940994,
				"z": -2.9091298095,
				"element": "C" 
			},
			{
				"x": -1.3761823574,
				"y": 3.1779798829,
				"z": -2.428416514,
				"element": "C" 
			},
			{
				"x": -0.0882301954,
				"y": 3.1943271906,
				"z": -1.7519702874,
				"element": "C" 
			},
			{
				"x": 0.4542869947,
				"y": 2.1256747632,
				"z": -1.2874660447,
				"element": "N" 
			},
			{
				"x": 1.7380639225,
				"y": 2.2145835605,
				"z": -0.6193263376,
				"element": "C" 
			},
			{
				"x": 1.6653800684,
				"y": 1.7243461933,
				"z": 0.839065955,
				"element": "C" 
			},
			{
				"x": 1.2934545314,
				"y": 0.3255037855,
				"z": 0.9245063287,
				"element": "N" 
			},
			{
				"x": 2.0991408445,
				"y": -0.5065224701,
				"z": 1.4819202541,
				"element": "C" 
			},
			{
				"x": 1.7916040596,
				"y": -1.9238859365,
				"z": 1.5966816213,
				"element": "C" 
			},
			{
				"x": 2.7149876168,
				"y": -2.7917196551,
				"z": 2.2086574693,
				"element": "C" 
			},
			{
				"x": 2.4337240711,
				"y": -4.1420599615,
				"z": 2.3237261123,
				"element": "C" 
			},
			{
				"x": 3.6963311274,
				"y": -5.312649541,
				"z": 3.1561837889,
				"element": "Br" 
			},
			{
				"x": 1.2273879283,
				"y": -4.660127586,
				"z": 1.8338196811,
				"element": "C" 
			},
			{
				"x": 0.3042794136,
				"y": -3.8189053104,
				"z": 1.2286008717,
				"element": "C" 
			},
			{
				"x": 0.5654433461,
				"y": -2.4443631489,
				"z": 1.0985180683,
				"element": "C" 
			},
			{
				"x": -0.3497147558,
				"y": -1.6665343128,
				"z": 0.5113927337,
				"element": "O" 
			},
			{
				"x": -0.728489559,
				"y": 0.9686749127,
				"z": -1.7419467661,
				"element": "H" 
			},
			{
				"x": -3.8570518339,
				"y": 1.0474493173,
				"z": -3.4045285067,
				"element": "H" 
			},
			{
				"x": -4.8142394674,
				"y": 3.1884259925,
				"z": -4.2442946486,
				"element": "H" 
			},
			{
				"x": -1.3853629869,
				"y": 5.3096197929,
				"z": -2.7692531225,
				"element": "H" 
			},
			{
				"x": 0.4071868516,
				"y": 4.1727063093,
				"z": -1.657685881,
				"element": "H" 
			},
			{
				"x": 2.4558338051,
				"y": 1.586211377,
				"z": -1.1615145298,
				"element": "H" 
			},
			{
				"x": 2.1269242645,
				"y": 3.245942988,
				"z": -0.6185128699,
				"element": "H" 
			},
			{
				"x": 2.6392543994,
				"y": 1.9174796999,
				"z": 1.317796312,
				"element": "H" 
			},
			{
				"x": 0.90863066,
				"y": 2.3176621787,
				"z": 1.367570165,
				"element": "H" 
			},
			{
				"x": 3.0613916838,
				"y": -0.1749013835,
				"z": 1.9010253909,
				"element": "H" 
			},
			{
				"x": 3.6501439361,
				"y": -2.3932722875,
				"z": 2.5895024472,
				"element": "H" 
			},
			{
				"x": 1.0173343125,
				"y": -5.7196463414,
				"z": 1.9292519415,
				"element": "H" 
			},
			{
				"x": -0.6343922547,
				"y": -4.203146593,
				"z": 0.8441988986,
				"element": "H" 
			},
			{
				"x": 0.0094285582,
				"y": -0.7344121012,
				"z": 0.5102046185,
				"element": "H" 
			}
		],
		 "valence_orbital": [ 
			{
				"type": "occ",
				"energy": -0.27312,
				"method": "rhf"
			},
			{
				"type": "occ",
				"energy": -0.26451,
				"method": "rhf"
			},
			{
				"type": "occ",
				"energy": -0.25978,
				"method": "rhf"
			},
			{
				"type": "occ",
				"energy": -0.22029,
				"method": "rhf"
			},
			{
				"type": "occ",
				"energy": -0.21905,
				"method": "rhf"
			},
			{
				"type": "unocc",
				"energy": -0.06447,
				"method": "rhf"
			},
			{
				"type": "unocc",
				"energy": -0.05892,
				"method": "rhf"
			},
			{
				"type": "unocc",
				"energy": -0.00505,
				"method": "rhf"
			},
			{
				"type": "unocc",
				"energy": -0.005,
				"method": "rhf"
			},
			{
				"type": "unocc",
				"energy": 0.00671,
				"method": "rhf"
			}
		],
		"cosmo_sigma_profile": { 
			"-0.025": 0.0,
			"-0.024": 0.0,
			"-0.023": 0.0,
			"-0.022": 0.0,
			"-0.021": 0.0,
			"-0.02": 0.0,
			"-0.019": 0.0,
			"-0.018": 0.0,
			"-0.017": 0.0,
			"-0.016": 0.0,
			"-0.015": 0.0,
			"-0.014": 0.0,
			"-0.013": 0.0,
			"-0.012": 0.0,
			"-0.011": 0.0,
			"-0.01": 0.0,
			"-0.009": 1.26763181903,
			"-0.008": 6.54420794645,
			"-0.007": 16.2203038622,
			"-0.006": 16.7382657218,
			"-0.005": 24.048708446,
			"-0.004": 25.5092680522,
			"-0.003": 23.9637368102,
			"-0.002": 23.2964760617,
			"-0.001": 22.7431022359,
			"0.0": 29.6912378686,
			"0.001": 32.2023850775,
			"0.002": 46.1758835888,
			"0.003": 43.0945226301,
			"0.004": 25.0431972096,
			"0.005": 19.3162046089,
			"0.006": 3.5307288669,
			"0.007": 3.13524455367,
			"0.008": 3.12127208155,
			"0.009": 2.75320672562,
			"0.01": 2.50409331629,
			"0.011": 3.93176935238,
			"0.012": 1.45180466368,
			"0.013": 0.0,
			"0.014": 0.0,
			"0.015": 0.0,
			"0.016": 0.0,
			"0.017": 0.0,
			"0.018": 0.0,
			"0.019": 0.0,
			"0.02": 0.0,
			"0.021": 0.0,
			"0.022": 0.0,
			"0.023": 0.0,
			"0.024": 0.0,
			"0.025": 0.0
		}
	}
}
