{
	 "smiles": "ClS(=O)(=O)C1=CC(=CC=C1)S(Cl)(=O)=O", 
	 "Tm": 332.15, 
	 "num_atms": 18, 
	 "gaussian": { 
		 "optdone": 1, 
		 "sigma_profile": "yes", 
		 "theory": "DFT", 
		 "functional": "B3LYP", 
		 "basiset": "6-31G**", 
		 "properties": { 
			 "R2extent": 6041.2426, 
			 "electric_dipole_moment_norm": 4.75320803774, 
			 "electric_quadrupole_moment_norm": 14.4000129069, 
			 "total_energy": -2248.55662926, 
			 "HOMO_LUMO_gap": 0.20462, 
			 "cosmo_polarized_energy": -13.63, 
			 "cosmo_cavitation_energy": 30.21, 
			 "cosmo_dispersion_energy": -22.71, 
			 "cosmo_repulsion_energy": 1.72, 
			 "cosmo_total_nonelectrostatic_energy": 9.23, 
			 "SMD_solvation_energy": 2.59 
		},
		"coords": [
			{
				"x": 1.1529783078,
				"y": -3.6047514663,
				"z": 2.035057423,
				"element": "Cl" 
			},
			{
				"x": -0.442875141,
				"y": -2.3888133211,
				"z": 1.3436720696,
				"element": "S" 
			},
			{
				"x": -1.1975409965,
				"y": -1.9805930921,
				"z": 2.5196479409,
				"element": "O" 
			},
			{
				"x": -1.047356568,
				"y": -3.0953373206,
				"z": 0.2226629162,
				"element": "O" 
			},
			{
				"x": 0.4583998486,
				"y": -0.9715900322,
				"z": 0.7108750486,
				"element": "C" 
			},
			{
				"x": 0.694929258,
				"y": 0.1024841264,
				"z": 1.5656039728,
				"element": "C" 
			},
			{
				"x": 1.3821368117,
				"y": 1.189900675,
				"z": 1.0313271589,
				"element": "C" 
			},
			{
				"x": 1.8266703157,
				"y": 1.2219998956,
				"z": -0.2916444831,
				"element": "C" 
			},
			{
				"x": 1.5656612392,
				"y": 0.1281590823,
				"z": -1.1176469474,
				"element": "C" 
			},
			{
				"x": 0.8754874477,
				"y": -0.978296199,
				"z": -0.6213786563,
				"element": "C" 
			},
			{
				"x": 1.7318703365,
				"y": 2.591103684,
				"z": 2.0969571175,
				"element": "S" 
			},
			{
				"x": 0.0259465071,
				"y": 3.8023520766,
				"z": 1.7420713213,
				"element": "Cl" 
			},
			{
				"x": 1.6560728653,
				"y": 2.1582734494,
				"z": 3.4847549078,
				"element": "O" 
			},
			{
				"x": 2.8743187548,
				"y": 3.3145538576,
				"z": 1.5559625397,
				"element": "O" 
			},
			{
				"x": 0.3602343115,
				"y": 0.0925386938,
				"z": 2.5968207385,
				"element": "H" 
			},
			{
				"x": 2.3703817946,
				"y": 2.085441627,
				"z": -0.6585800362,
				"element": "H" 
			},
			{
				"x": 1.9005039004,
				"y": 0.1380293306,
				"z": -2.1494210369,
				"element": "H" 
			},
			{
				"x": 0.6555810066,
				"y": -1.832155067,
				"z": -1.2525419949,
				"element": "H" 
			}
		],
		 "valence_orbital": [ 
			{
				"type": "occ",
				"energy": -0.34692,
				"method": "rhf"
			},
			{
				"type": "occ",
				"energy": -0.33118,
				"method": "rhf"
			},
			{
				"type": "occ",
				"energy": -0.33115,
				"method": "rhf"
			},
			{
				"type": "occ",
				"energy": -0.32077,
				"method": "rhf"
			},
			{
				"type": "occ",
				"energy": -0.31989,
				"method": "rhf"
			},
			{
				"type": "unocc",
				"energy": -0.11527,
				"method": "rhf"
			},
			{
				"type": "unocc",
				"energy": -0.10368,
				"method": "rhf"
			},
			{
				"type": "unocc",
				"energy": -0.07416,
				"method": "rhf"
			},
			{
				"type": "unocc",
				"energy": -0.06982,
				"method": "rhf"
			},
			{
				"type": "unocc",
				"energy": 0.02645,
				"method": "rhf"
			}
		],
		"cosmo_sigma_profile": { 
			"-0.025": 0.0,
			"-0.024": 0.0,
			"-0.023": 0.0,
			"-0.022": 0.0,
			"-0.021": 0.0,
			"-0.02": 0.0,
			"-0.019": 0.0,
			"-0.018": 0.0,
			"-0.017": 0.0,
			"-0.016": 0.0,
			"-0.015": 0.0,
			"-0.014": 0.0,
			"-0.013": 0.0,
			"-0.012": 0.0,
			"-0.011": 0.0563037056525,
			"-0.01": 2.2222387144,
			"-0.009": 8.09813203544,
			"-0.008": 10.5536734758,
			"-0.007": 8.5612166194,
			"-0.006": 7.9968531263,
			"-0.005": 9.61637999875,
			"-0.004": 12.6675693709,
			"-0.003": 19.796940719,
			"-0.002": 20.56966781,
			"-0.001": 18.5600266567,
			"0.0": 12.7961274329,
			"0.001": 13.8367556109,
			"0.002": 24.2410334496,
			"0.003": 24.427935815,
			"0.004": 6.59802584481,
			"0.005": 5.69605438445,
			"0.006": 8.70102350632,
			"0.007": 15.52832291,
			"0.008": 16.2269455108,
			"0.009": 2.47119653685,
			"0.01": 0.0,
			"0.011": 0.0,
			"0.012": 0.0,
			"0.013": 0.0,
			"0.014": 0.0,
			"0.015": 0.0,
			"0.016": 0.0,
			"0.017": 0.0,
			"0.018": 0.0,
			"0.019": 0.0,
			"0.02": 0.0,
			"0.021": 0.0,
			"0.022": 0.0,
			"0.023": 0.0,
			"0.024": 0.0,
			"0.025": 0.0
		}
	}
}
