{
	 "smiles": "CN1N=NC2=C1C=CC(C=O)=C2", 
	 "Tm": 435.15, 
	 "num_atms": 19, 
	 "gaussian": { 
		 "optdone": 1, 
		 "sigma_profile": "yes", 
		 "theory": "DFT", 
		 "functional": "B3LYP", 
		 "basiset": "6-31G**", 
		 "properties": { 
			 "R2extent": 2834.965, 
			 "electric_dipole_moment_norm": 3.9462595049, 
			 "electric_quadrupole_moment_norm": 18.6624559943, 
			 "total_energy": -548.50551739, 
			 "HOMO_LUMO_gap": 0.18511, 
			 "cosmo_polarized_energy": -14.32, 
			 "cosmo_cavitation_energy": 24.02, 
			 "cosmo_dispersion_energy": -17.67, 
			 "cosmo_repulsion_energy": 1.38, 
			 "cosmo_total_nonelectrostatic_energy": 7.73, 
			 "SMD_solvation_energy": 3.59 
		},
		"coords": [
			{
				"x": -0.3213233497,
				"y": 1.3343664688,
				"z": 3.9697477763,
				"element": "C" 
			},
			{
				"x": 0.1445581845,
				"y": 0.1702918314,
				"z": 3.2377252158,
				"element": "N" 
			},
			{
				"x": 0.3551271103,
				"y": -1.0073804809,
				"z": 3.9034666116,
				"element": "N" 
			},
			{
				"x": 0.7638654707,
				"y": -1.9039005485,
				"z": 3.0688926784,
				"element": "N" 
			},
			{
				"x": 0.8336826583,
				"y": -1.3313328313,
				"z": 1.8161391373,
				"element": "C" 
			},
			{
				"x": 0.4325417116,
				"y": 0.0191423537,
				"z": 1.9147941826,
				"element": "C" 
			},
			{
				"x": 0.3971677354,
				"y": 0.8748548379,
				"z": 0.7965530737,
				"element": "C" 
			},
			{
				"x": 0.7766690609,
				"y": 0.3260936657,
				"z": -0.4120015988,
				"element": "C" 
			},
			{
				"x": 1.1835425883,
				"y": -1.0339991472,
				"z": -0.527133436,
				"element": "C" 
			},
			{
				"x": 1.5783073466,
				"y": -1.5615393254,
				"z": -1.8507711644,
				"element": "C" 
			},
			{
				"x": 1.5849162888,
				"y": -0.9120873589,
				"z": -2.879859033,
				"element": "O" 
			},
			{
				"x": 1.2157524443,
				"y": -1.8729527331,
				"z": 0.5827044068,
				"element": "C" 
			},
			{
				"x": 0.3994254986,
				"y": 1.6025107751,
				"z": 4.7458044266,
				"element": "H" 
			},
			{
				"x": -1.2878743734,
				"y": 1.1236072937,
				"z": 4.433429936,
				"element": "H" 
			},
			{
				"x": -0.4295265038,
				"y": 2.1683218167,
				"z": 3.2755718827,
				"element": "H" 
			},
			{
				"x": 0.0887604241,
				"y": 1.9124305143,
				"z": 0.8736243533,
				"element": "H" 
			},
			{
				"x": 0.7758897222,
				"y": 0.9217864473,
				"z": -1.3191483929,
				"element": "H" 
			},
			{
				"x": 1.8813866161,
				"y": -2.6322255957,
				"z": -1.8480076378,
				"element": "H" 
			},
			{
				"x": 1.5251313663,
				"y": -2.9110879838,
				"z": 0.5013675817,
				"element": "H" 
			}
		],
		 "valence_orbital": [ 
			{
				"type": "occ",
				"energy": -0.326,
				"method": "rhf"
			},
			{
				"type": "occ",
				"energy": -0.27934,
				"method": "rhf"
			},
			{
				"type": "occ",
				"energy": -0.26492,
				"method": "rhf"
			},
			{
				"type": "occ",
				"energy": -0.2579,
				"method": "rhf"
			},
			{
				"type": "occ",
				"energy": -0.25228,
				"method": "rhf"
			},
			{
				"type": "unocc",
				"energy": -0.06717,
				"method": "rhf"
			},
			{
				"type": "unocc",
				"energy": -0.04753,
				"method": "rhf"
			},
			{
				"type": "unocc",
				"energy": 0.01666,
				"method": "rhf"
			},
			{
				"type": "unocc",
				"energy": 0.05011,
				"method": "rhf"
			},
			{
				"type": "unocc",
				"energy": 0.07317,
				"method": "rhf"
			}
		],
		"cosmo_sigma_profile": { 
			"-0.025": 0.0,
			"-0.024": 0.0,
			"-0.023": 0.0,
			"-0.022": 0.0,
			"-0.021": 0.0,
			"-0.02": 0.0,
			"-0.019": 0.0,
			"-0.018": 0.0,
			"-0.017": 0.0,
			"-0.016": 0.0,
			"-0.015": 0.0,
			"-0.014": 0.0,
			"-0.013": 0.0,
			"-0.012": 0.0,
			"-0.011": 0.0,
			"-0.01": 0.4602557562,
			"-0.009": 3.30155448349,
			"-0.008": 8.01597332017,
			"-0.007": 11.5995894699,
			"-0.006": 14.1033642515,
			"-0.005": 14.2041344248,
			"-0.004": 17.1118742041,
			"-0.003": 11.1542085736,
			"-0.002": 10.931957665,
			"-0.001": 10.3851232057,
			"0.0": 14.0159107154,
			"0.001": 15.5133823563,
			"0.002": 10.9306512066,
			"0.003": 6.13870525156,
			"0.004": 3.54665304089,
			"0.005": 3.15871876979,
			"0.006": 4.24270060191,
			"0.007": 2.89631265123,
			"0.008": 4.02268662026,
			"0.009": 5.37157066875,
			"0.01": 5.94192249575,
			"0.011": 6.95674902955,
			"0.012": 5.51735126912,
			"0.013": 1.87457835595,
			"0.014": 1.34312154084,
			"0.015": 0.630833201558,
			"0.016": 0.0,
			"0.017": 0.0,
			"0.018": 0.0,
			"0.019": 0.0,
			"0.02": 0.0,
			"0.021": 0.0,
			"0.022": 0.0,
			"0.023": 0.0,
			"0.024": 0.0,
			"0.025": 0.0
		}
	}
}
