{
	 "smiles": "CC(C)CCCC(C)CCCC(C)CCCCC(C)CCCC(C)CCCC(C)C", 
	 "Tm": 235.15, 
	 "num_atms": 92, 
	 "gaussian": { 
		 "optdone": 1, 
		 "sigma_profile": "yes", 
		 "theory": "DFT", 
		 "functional": "B3LYP", 
		 "basiset": "6-31G**", 
		 "properties": { 
			 "R2extent": 18970.2661, 
			 "electric_dipole_moment_norm": 0.177430239813, 
			 "electric_quadrupole_moment_norm": 1.05672640262, 
			 "total_energy": -1180.64902154, 
			 "HOMO_LUMO_gap": 0.33455, 
			 "cosmo_polarized_energy": -2.09, 
			 "cosmo_cavitation_energy": 83.51, 
			 "cosmo_dispersion_energy": -45.36, 
			 "cosmo_repulsion_energy": 3.49, 
			 "cosmo_total_nonelectrostatic_energy": 41.63, 
			 "SMD_solvation_energy": 11.34 
		},
		"coords": [
			{
				"x": 4.2865578173,
				"y": 2.67444384,
				"z": 0.563671445,
				"element": "C" 
			},
			{
				"x": 4.9519931679,
				"y": 2.2833192053,
				"z": 1.8930804419,
				"element": "C" 
			},
			{
				"x": 5.3357321578,
				"y": 0.7958442751,
				"z": 1.8943883097,
				"element": "C" 
			},
			{
				"x": 4.1130292291,
				"y": 2.7182947526,
				"z": 3.1194378447,
				"element": "C" 
			},
			{
				"x": 2.7380490545,
				"y": 2.0429799785,
				"z": 3.3321149256,
				"element": "C" 
			},
			{
				"x": 2.7630584116,
				"y": 0.7722695901,
				"z": 4.1979703085,
				"element": "C" 
			},
			{
				"x": 1.3719691889,
				"y": 0.2197775366,
				"z": 4.5763130588,
				"element": "C" 
			},
			{
				"x": 1.5090460915,
				"y": -0.9449625096,
				"z": 5.5710901819,
				"element": "C" 
			},
			{
				"x": 0.4880396091,
				"y": -0.1565652632,
				"z": 3.3632184405,
				"element": "C" 
			},
			{
				"x": 1.0534572298,
				"y": -1.2283753493,
				"z": 2.4151465177,
				"element": "C" 
			},
			{
				"x": 0.1214007505,
				"y": -1.5847460779,
				"z": 1.2302720081,
				"element": "C" 
			},
			{
				"x": -0.7142681869,
				"y": -2.8721982431,
				"z": 1.3957111296,
				"element": "C" 
			},
			{
				"x": -1.6435778387,
				"y": -2.8267921513,
				"z": 2.6181791185,
				"element": "C" 
			},
			{
				"x": -1.5304927254,
				"y": -3.2005262391,
				"z": 0.1266271807,
				"element": "C" 
			},
			{
				"x": -0.6992101533,
				"y": -3.4438017284,
				"z": -1.1438008783,
				"element": "C" 
			},
			{
				"x": -1.4675827478,
				"y": -4.148245479,
				"z": -2.2757641649,
				"element": "C" 
			},
			{
				"x": -2.6712142781,
				"y": -3.3890639067,
				"z": -2.8635054491,
				"element": "C" 
			},
			{
				"x": -2.3960043067,
				"y": -2.0306185684,
				"z": -3.5506565866,
				"element": "C" 
			},
			{
				"x": -3.7206279553,
				"y": -1.4715438681,
				"z": -4.0959263851,
				"element": "C" 
			},
			{
				"x": -1.3161901987,
				"y": -2.1603164572,
				"z": -4.6463914854,
				"element": "C" 
			},
			{
				"x": -1.0510696921,
				"y": -0.923037303,
				"z": -5.5257326249,
				"element": "C" 
			},
			{
				"x": -0.657497003,
				"y": 0.3788983138,
				"z": -4.8018088012,
				"element": "C" 
			},
			{
				"x": 0.5813221056,
				"y": 0.3264273087,
				"z": -3.8832331814,
				"element": "C" 
			},
			{
				"x": 1.8110286668,
				"y": -0.2668984924,
				"z": -4.5902206137,
				"element": "C" 
			},
			{
				"x": 0.9441841515,
				"y": 1.728564758,
				"z": -3.3389391506,
				"element": "C" 
			},
			{
				"x": -0.1631685479,
				"y": 2.5368846433,
				"z": -2.6390156541,
				"element": "C" 
			},
			{
				"x": -0.7445113487,
				"y": 1.8865490755,
				"z": -1.3758866924,
				"element": "C" 
			},
			{
				"x": -1.85095308,
				"y": 2.7077427349,
				"z": -0.6804631094,
				"element": "C" 
			},
			{
				"x": -1.3275082079,
				"y": 4.0313220567,
				"z": -0.1010258541,
				"element": "C" 
			},
			{
				"x": -2.5377122156,
				"y": 1.8797706299,
				"z": 0.4157839067,
				"element": "C" 
			},
			{
				"x": 4.0523148007,
				"y": 3.7444044117,
				"z": 0.5339032931,
				"element": "H" 
			},
			{
				"x": 4.9454073458,
				"y": 2.4527252648,
				"z": -0.2831526824,
				"element": "H" 
			},
			{
				"x": 3.352386795,
				"y": 2.1248197389,
				"z": 0.4000694613,
				"element": "H" 
			},
			{
				"x": 5.8888833172,
				"y": 2.8558826754,
				"z": 1.9610229843,
				"element": "H" 
			},
			{
				"x": 6.0423158847,
				"y": 0.5775893349,
				"z": 1.0857003401,
				"element": "H" 
			},
			{
				"x": 5.8072241105,
				"y": 0.5012960463,
				"z": 2.8383018001,
				"element": "H" 
			},
			{
				"x": 4.461274461,
				"y": 0.1535369018,
				"z": 1.7416502691,
				"element": "H" 
			},
			{
				"x": 3.957432553,
				"y": 3.8014828489,
				"z": 3.0301574732,
				"element": "H" 
			},
			{
				"x": 4.7185600685,
				"y": 2.5798283587,
				"z": 4.025994153,
				"element": "H" 
			},
			{
				"x": 2.071280493,
				"y": 2.7663938487,
				"z": 3.8208928003,
				"element": "H" 
			},
			{
				"x": 2.2745310366,
				"y": 1.8299836189,
				"z": 2.3611611956,
				"element": "H" 
			},
			{
				"x": 3.3487323476,
				"y": -0.0144480127,
				"z": 3.7082778762,
				"element": "H" 
			},
			{
				"x": 3.2991809319,
				"y": 1.001319777,
				"z": 5.1298354816,
				"element": "H" 
			},
			{
				"x": 0.8391819627,
				"y": 1.0290365463,
				"z": 5.0992857599,
				"element": "H" 
			},
			{
				"x": 0.5279566964,
				"y": -1.3309598051,
				"z": 5.8701464403,
				"element": "H" 
			},
			{
				"x": 2.0785629783,
				"y": -1.7783831779,
				"z": 5.1448459419,
				"element": "H" 
			},
			{
				"x": 2.0317390743,
				"y": -0.6250628868,
				"z": 6.4792774739,
				"element": "H" 
			},
			{
				"x": 0.2857892954,
				"y": 0.7483239931,
				"z": 2.7750702347,
				"element": "H" 
			},
			{
				"x": -0.487966508,
				"y": -0.482375032,
				"z": 3.7438200392,
				"element": "H" 
			},
			{
				"x": 1.2940143624,
				"y": -2.1418402767,
				"z": 2.9745157717,
				"element": "H" 
			},
			{
				"x": 2.0088041416,
				"y": -0.8692281793,
				"z": 2.0139996475,
				"element": "H" 
			},
			{
				"x": 0.7327872034,
				"y": -1.6934280055,
				"z": 0.3279344141,
				"element": "H" 
			},
			{
				"x": -0.557707945,
				"y": -0.7431524651,
				"z": 1.030025837,
				"element": "H" 
			},
			{
				"x": -0.004740046,
				"y": -3.7013559498,
				"z": 1.5487188481,
				"element": "H" 
			},
			{
				"x": -2.2188759761,
				"y": -3.7553952388,
				"z": 2.7053443751,
				"element": "H" 
			},
			{
				"x": -2.3599931991,
				"y": -1.999886431,
				"z": 2.5383384062,
				"element": "H" 
			},
			{
				"x": -1.0872226421,
				"y": -2.6975760557,
				"z": 3.5511786265,
				"element": "H" 
			},
			{
				"x": -2.2584128091,
				"y": -2.3951351423,
				"z": -0.0468232318,
				"element": "H" 
			},
			{
				"x": -2.1249421127,
				"y": -4.1025745539,
				"z": 0.3312135994,
				"element": "H" 
			},
			{
				"x": 0.1669939285,
				"y": -4.06824609,
				"z": -0.8833553165,
				"element": "H" 
			},
			{
				"x": -0.2850473633,
				"y": -2.4972164632,
				"z": -1.5124432536,
				"element": "H" 
			},
			{
				"x": -0.7635081563,
				"y": -4.3954594427,
				"z": -3.0795232096,
				"element": "H" 
			},
			{
				"x": -1.8325218394,
				"y": -5.1131240844,
				"z": -1.8971371065,
				"element": "H" 
			},
			{
				"x": -3.4182534684,
				"y": -3.2303901956,
				"z": -2.0745258256,
				"element": "H" 
			},
			{
				"x": -3.1553006387,
				"y": -4.0462809352,
				"z": -3.6006112302,
				"element": "H" 
			},
			{
				"x": -2.0282717128,
				"y": -1.3285490081,
				"z": -2.7878245573,
				"element": "H" 
			},
			{
				"x": -4.1109626402,
				"y": -2.1070295212,
				"z": -4.90079467,
				"element": "H" 
			},
			{
				"x": -4.4815905907,
				"y": -1.4338836015,
				"z": -3.3085440808,
				"element": "H" 
			},
			{
				"x": -3.6115256037,
				"y": -0.4593601322,
				"z": -4.4961457331,
				"element": "H" 
			},
			{
				"x": -1.6006806457,
				"y": -2.9881952448,
				"z": -5.3128932156,
				"element": "H" 
			},
			{
				"x": -0.3747843843,
				"y": -2.4691054208,
				"z": -4.1767310981,
				"element": "H" 
			},
			{
				"x": -1.9410576558,
				"y": -0.7126248218,
				"z": -6.1318543519,
				"element": "H" 
			},
			{
				"x": -0.2670640304,
				"y": -1.1874728064,
				"z": -6.2462684045,
				"element": "H" 
			},
			{
				"x": -0.4862747563,
				"y": 1.1494744152,
				"z": -5.568216693,
				"element": "H" 
			},
			{
				"x": -1.5146184436,
				"y": 0.7305977619,
				"z": -4.2152544285,
				"element": "H" 
			},
			{
				"x": 0.3463480632,
				"y": -0.3225955331,
				"z": -3.0273215472,
				"element": "H" 
			},
			{
				"x": 2.0622114456,
				"y": 0.3110734419,
				"z": -5.4884974718,
				"element": "H" 
			},
			{
				"x": 2.6863918977,
				"y": -0.2481757795,
				"z": -3.9315464718,
				"element": "H" 
			},
			{
				"x": 1.6528974953,
				"y": -1.304920238,
				"z": -4.8971819139,
				"element": "H" 
			},
			{
				"x": 1.3229367975,
				"y": 2.3284065,
				"z": -4.1793496258,
				"element": "H" 
			},
			{
				"x": 1.7904126569,
				"y": 1.6185201206,
				"z": -2.6460283904,
				"element": "H" 
			},
			{
				"x": -0.979040483,
				"y": 2.7419681976,
				"z": -3.344599024,
				"element": "H" 
			},
			{
				"x": 0.2587815699,
				"y": 3.5163808226,
				"z": -2.3829090964,
				"element": "H" 
			},
			{
				"x": 0.0655781857,
				"y": 1.6940484581,
				"z": -0.65593265,
				"element": "H" 
			},
			{
				"x": -1.1579368706,
				"y": 0.9023495423,
				"z": -1.6333574799,
				"element": "H" 
			},
			{
				"x": -2.6096919659,
				"y": 2.9491401559,
				"z": -1.4407694112,
				"element": "H" 
			},
			{
				"x": -0.5513992421,
				"y": 3.8452314188,
				"z": 0.6520399218,
				"element": "H" 
			},
			{
				"x": -2.1333171506,
				"y": 4.5910270548,
				"z": 0.3864417739,
				"element": "H" 
			},
			{
				"x": -0.8967459166,
				"y": 4.679300975,
				"z": -0.870224384,
				"element": "H" 
			},
			{
				"x": -1.8268576267,
				"y": 1.6091385171,
				"z": 1.2063986182,
				"element": "H" 
			},
			{
				"x": -3.3543823796,
				"y": 2.4393779978,
				"z": 0.8851933155,
				"element": "H" 
			},
			{
				"x": -2.9564962433,
				"y": 0.9506747237,
				"z": 0.0132261956,
				"element": "H" 
			}
		],
		 "valence_orbital": [ 
			{
				"type": "occ",
				"energy": -0.29366,
				"method": "rhf"
			},
			{
				"type": "occ",
				"energy": -0.29328,
				"method": "rhf"
			},
			{
				"type": "occ",
				"energy": -0.29165,
				"method": "rhf"
			},
			{
				"type": "occ",
				"energy": -0.29014,
				"method": "rhf"
			},
			{
				"type": "occ",
				"energy": -0.28798,
				"method": "rhf"
			},
			{
				"type": "unocc",
				"energy": 0.04657,
				"method": "rhf"
			},
			{
				"type": "unocc",
				"energy": 0.05984,
				"method": "rhf"
			},
			{
				"type": "unocc",
				"energy": 0.07669,
				"method": "rhf"
			},
			{
				"type": "unocc",
				"energy": 0.08561,
				"method": "rhf"
			},
			{
				"type": "unocc",
				"energy": 0.08714,
				"method": "rhf"
			}
		],
		"cosmo_sigma_profile": { 
			"-0.025": 0.0,
			"-0.024": 0.0,
			"-0.023": 0.0,
			"-0.022": 0.0,
			"-0.021": 0.0,
			"-0.02": 0.0,
			"-0.019": 0.0,
			"-0.018": 0.0,
			"-0.017": 0.0,
			"-0.016": 0.0,
			"-0.015": 0.0,
			"-0.014": 0.0,
			"-0.013": 0.0,
			"-0.012": 0.0,
			"-0.011": 0.0,
			"-0.01": 0.0,
			"-0.009": 0.0,
			"-0.008": 0.0,
			"-0.007": 0.0,
			"-0.006": 0.0,
			"-0.005": 0.0,
			"-0.004": 0.0,
			"-0.003": 4.66604954532,
			"-0.002": 68.7306042614,
			"-0.001": 171.21962001,
			"0.0": 167.486754418,
			"0.001": 136.106919619,
			"0.002": 80.1333523321,
			"0.003": 6.23809001406,
			"0.004": 0.0,
			"0.005": 0.0,
			"0.006": 0.0,
			"0.007": 0.0,
			"0.008": 0.0,
			"0.009": 0.0,
			"0.01": 0.0,
			"0.011": 0.0,
			"0.012": 0.0,
			"0.013": 0.0,
			"0.014": 0.0,
			"0.015": 0.0,
			"0.016": 0.0,
			"0.017": 0.0,
			"0.018": 0.0,
			"0.019": 0.0,
			"0.02": 0.0,
			"0.021": 0.0,
			"0.022": 0.0,
			"0.023": 0.0,
			"0.024": 0.0,
			"0.025": 0.0
		}
	}
}
