{
	 "smiles": "NC1=CC=NN1CC1=CC=NC=C1", 
	 "Tm": 493.15, 
	 "num_atms": 23, 
	 "gaussian": { 
		 "optdone": 1, 
		 "sigma_profile": "yes", 
		 "theory": "DFT", 
		 "functional": "B3LYP", 
		 "basiset": "6-31G**", 
		 "properties": { 
			 "R2extent": 2601.7723, 
			 "electric_dipole_moment_norm": 2.77219007646, 
			 "electric_quadrupole_moment_norm": 15.4493810277, 
			 "total_energy": -567.959616039, 
			 "HOMO_LUMO_gap": 0.18059, 
			 "cosmo_polarized_energy": -14.65, 
			 "cosmo_cavitation_energy": 27.16, 
			 "cosmo_dispersion_energy": -19.4, 
			 "cosmo_repulsion_energy": 1.53, 
			 "cosmo_total_nonelectrostatic_energy": 9.29, 
			 "SMD_solvation_energy": 2.65 
		},
		"coords": [
			{
				"x": -0.5181182098,
				"y": -1.8151876265,
				"z": -1.5044457446,
				"element": "N" 
			},
			{
				"x": -1.2200977295,
				"y": -0.6243119223,
				"z": -1.2887567844,
				"element": "C" 
			},
			{
				"x": -2.1889071016,
				"y": 0.0435167088,
				"z": -2.0233099759,
				"element": "C" 
			},
			{
				"x": -2.5380115351,
				"y": 1.1495747736,
				"z": -1.2170939991,
				"element": "C" 
			},
			{
				"x": -1.8522146958,
				"y": 1.1870802824,
				"z": -0.0781901646,
				"element": "N" 
			},
			{
				"x": -1.0615124927,
				"y": 0.0745464533,
				"z": -0.1273431112,
				"element": "N" 
			},
			{
				"x": -0.1443324083,
				"y": -0.2244873025,
				"z": 0.9540891928,
				"element": "C" 
			},
			{
				"x": 1.2877048373,
				"y": 0.200552895,
				"z": 0.6736625443,
				"element": "C" 
			},
			{
				"x": 1.573435893,
				"y": 1.4426095257,
				"z": 0.0954974698,
				"element": "C" 
			},
			{
				"x": 2.9054627857,
				"y": 1.7914669818,
				"z": -0.1213585463,
				"element": "C" 
			},
			{
				"x": 3.9468083823,
				"y": 1.0058630026,
				"z": 0.1901785695,
				"element": "N" 
			},
			{
				"x": 3.6644490688,
				"y": -0.1789364787,
				"z": 0.7425219332,
				"element": "C" 
			},
			{
				"x": 2.3661555321,
				"y": -0.6259031913,
				"z": 0.9999055847,
				"element": "C" 
			},
			{
				"x": 0.4897940916,
				"y": -1.7030778478,
				"z": -1.4465354973,
				"element": "H" 
			},
			{
				"x": -0.7605689508,
				"y": -2.237219365,
				"z": -2.3919937544,
				"element": "H" 
			},
			{
				"x": -2.5726560516,
				"y": -0.22774305,
				"z": -2.9956654932,
				"element": "H" 
			},
			{
				"x": -3.2620751035,
				"y": 1.9260590224,
				"z": -1.4274415702,
				"element": "H" 
			},
			{
				"x": -0.184593497,
				"y": -1.2995679706,
				"z": 1.1580041294,
				"element": "H" 
			},
			{
				"x": -0.5317111706,
				"y": 0.3033950864,
				"z": 1.8301129667,
				"element": "H" 
			},
			{
				"x": 0.7680026865,
				"y": 2.1174708056,
				"z": -0.1777567665,
				"element": "H" 
			},
			{
				"x": 3.1504107953,
				"y": 2.7530515714,
				"z": -0.5691543281,
				"element": "H" 
			},
			{
				"x": 4.5171924411,
				"y": -0.8096901029,
				"z": 0.9891462057,
				"element": "H" 
			},
			{
				"x": 2.2041824326,
				"y": -1.6025622515,
				"z": 1.4489271396,
				"element": "H" 
			}
		],
		 "valence_orbital": [ 
			{
				"type": "occ",
				"energy": -0.28074,
				"method": "rhf"
			},
			{
				"type": "occ",
				"energy": -0.26696,
				"method": "rhf"
			},
			{
				"type": "occ",
				"energy": -0.25779,
				"method": "rhf"
			},
			{
				"type": "occ",
				"energy": -0.2426,
				"method": "rhf"
			},
			{
				"type": "occ",
				"energy": -0.21166,
				"method": "rhf"
			},
			{
				"type": "unocc",
				"energy": -0.03107,
				"method": "rhf"
			},
			{
				"type": "unocc",
				"energy": -0.01665,
				"method": "rhf"
			},
			{
				"type": "unocc",
				"energy": 0.03034,
				"method": "rhf"
			},
			{
				"type": "unocc",
				"energy": 0.07056,
				"method": "rhf"
			},
			{
				"type": "unocc",
				"energy": 0.08139,
				"method": "rhf"
			}
		],
		"cosmo_sigma_profile": { 
			"-0.025": 0.0,
			"-0.024": 0.0,
			"-0.023": 0.0,
			"-0.022": 0.0,
			"-0.021": 0.0,
			"-0.02": 0.0,
			"-0.019": 0.0,
			"-0.018": 0.0,
			"-0.017": 0.0,
			"-0.016": 0.0,
			"-0.015": 0.0,
			"-0.014": 0.0120677648995,
			"-0.013": 0.845177077751,
			"-0.012": 1.98740528414,
			"-0.011": 2.64361341609,
			"-0.01": 2.9096647787,
			"-0.009": 2.16407210587,
			"-0.008": 2.98534093724,
			"-0.007": 9.75288835912,
			"-0.006": 18.1173654994,
			"-0.005": 15.1415161722,
			"-0.004": 16.2025033997,
			"-0.003": 11.6429205427,
			"-0.002": 11.4394109899,
			"-0.001": 11.8120180348,
			"0.0": 11.8503624191,
			"0.001": 12.9065547411,
			"0.002": 18.2509006404,
			"0.003": 11.4259827254,
			"0.004": 8.85687973665,
			"0.005": 8.87138839727,
			"0.006": 7.6140377149,
			"0.007": 5.77339489936,
			"0.008": 4.60737745672,
			"0.009": 2.72481132934,
			"0.01": 2.6294328256,
			"0.011": 2.73480054208,
			"0.012": 1.84454266055,
			"0.013": 3.01428069277,
			"0.014": 1.83149151029,
			"0.015": 2.09304052858,
			"0.016": 1.49123310673,
			"0.017": 0.661507577767,
			"0.018": 0.0,
			"0.019": 0.0,
			"0.02": 0.0,
			"0.021": 0.0,
			"0.022": 0.0,
			"0.023": 0.0,
			"0.024": 0.0,
			"0.025": 0.0
		}
	}
}
