{
	 "smiles": "O=C1CCCN1C1CCNCC1", 
	 "Tm": 358.15, 
	 "num_atms": 28, 
	 "gaussian": { 
		 "optdone": 1, 
		 "sigma_profile": "yes", 
		 "theory": "DFT", 
		 "functional": "B3LYP", 
		 "basiset": "6-31G**", 
		 "properties": { 
			 "R2extent": 2235.8024, 
			 "electric_dipole_moment_norm": 3.07922619176, 
			 "electric_quadrupole_moment_norm": 16.3994621683, 
			 "total_energy": -537.342142756, 
			 "HOMO_LUMO_gap": 0.24272, 
			 "cosmo_polarized_energy": -12.2, 
			 "cosmo_cavitation_energy": 27.38, 
			 "cosmo_dispersion_energy": -20.45, 
			 "cosmo_repulsion_energy": 1.63, 
			 "cosmo_total_nonelectrostatic_energy": 8.56, 
			 "SMD_solvation_energy": 1.51 
		},
		"coords": [
			{
				"x": -0.3423158075,
				"y": 0.554211046,
				"z": -3.0148738954,
				"element": "O" 
			},
			{
				"x": 0.1714693646,
				"y": 1.2102549805,
				"z": -2.1195910405,
				"element": "C" 
			},
			{
				"x": 1.0843456032,
				"y": 2.4236384821,
				"z": -2.2953570235,
				"element": "C" 
			},
			{
				"x": 1.6089562788,
				"y": 2.7018799052,
				"z": -0.8818287063,
				"element": "C" 
			},
			{
				"x": 0.5103079499,
				"y": 2.1165210391,
				"z": 0.0257993412,
				"element": "C" 
			},
			{
				"x": -0.0157632662,
				"y": 1.0012144114,
				"z": -0.7685653051,
				"element": "N" 
			},
			{
				"x": -1.068551474,
				"y": 0.0564436344,
				"z": -0.3333217342,
				"element": "C" 
			},
			{
				"x": -0.6742568526,
				"y": -1.4013935626,
				"z": -0.662728154,
				"element": "C" 
			},
			{
				"x": 0.3823057557,
				"y": -1.9464535638,
				"z": 0.3069064035,
				"element": "C" 
			},
			{
				"x": -0.0111858271,
				"y": -1.864806318,
				"z": 1.7195626568,
				"element": "N" 
			},
			{
				"x": -0.3748789575,
				"y": -0.4976622477,
				"z": 2.0948232271,
				"element": "C" 
			},
			{
				"x": -1.4106844262,
				"y": 0.171562806,
				"z": 1.1652659113,
				"element": "C" 
			},
			{
				"x": 0.4707262052,
				"y": 3.2484744603,
				"z": -2.6788395733,
				"element": "H" 
			},
			{
				"x": 1.8566608363,
				"y": 2.2208356122,
				"z": -3.0406523604,
				"element": "H" 
			},
			{
				"x": 1.7898098325,
				"y": 3.7597382723,
				"z": -0.6760345581,
				"element": "H" 
			},
			{
				"x": 2.5458425908,
				"y": 2.1610687966,
				"z": -0.7138612578,
				"element": "H" 
			},
			{
				"x": -0.2712271579,
				"y": 2.8646383394,
				"z": 0.2315841423,
				"element": "H" 
			},
			{
				"x": 0.9066241452,
				"y": 1.7793871928,
				"z": 0.9857631345,
				"element": "H" 
			},
			{
				"x": -1.9653313831,
				"y": 0.3004935576,
				"z": -0.9187865763,
				"element": "H" 
			},
			{
				"x": -0.3386139356,
				"y": -1.4570116636,
				"z": -1.7005638668,
				"element": "H" 
			},
			{
				"x": -1.582075967,
				"y": -2.0167526342,
				"z": -0.5866386285,
				"element": "H" 
			},
			{
				"x": 1.3168205791,
				"y": -1.3813719632,
				"z": 0.188985665,
				"element": "H" 
			},
			{
				"x": 0.6154131152,
				"y": -2.9904635094,
				"z": 0.0705358157,
				"element": "H" 
			},
			{
				"x": -0.8130641574,
				"y": -2.4749495561,
				"z": 1.8717226119,
				"element": "H" 
			},
			{
				"x": 0.5519863329,
				"y": 0.0902843586,
				"z": 2.1165559452,
				"element": "H" 
			},
			{
				"x": -0.7556740656,
				"y": -0.5058091375,
				"z": 3.1224543891,
				"element": "H" 
			},
			{
				"x": -1.5746329916,
				"y": 1.2156298786,
				"z": 1.4573907955,
				"element": "H" 
			},
			{
				"x": -2.3744123197,
				"y": -0.3359026171,
				"z": 1.3029926413,
				"element": "H" 
			}
		],
		 "valence_orbital": [ 
			{
				"type": "occ",
				"energy": -0.32537,
				"method": "rhf"
			},
			{
				"type": "occ",
				"energy": -0.31857,
				"method": "rhf"
			},
			{
				"type": "occ",
				"energy": -0.24064,
				"method": "rhf"
			},
			{
				"type": "occ",
				"energy": -0.23539,
				"method": "rhf"
			},
			{
				"type": "occ",
				"energy": -0.21308,
				"method": "rhf"
			},
			{
				"type": "unocc",
				"energy": 0.02964,
				"method": "rhf"
			},
			{
				"type": "unocc",
				"energy": 0.0714,
				"method": "rhf"
			},
			{
				"type": "unocc",
				"energy": 0.08136,
				"method": "rhf"
			},
			{
				"type": "unocc",
				"energy": 0.10607,
				"method": "rhf"
			},
			{
				"type": "unocc",
				"energy": 0.11142,
				"method": "rhf"
			}
		],
		"cosmo_sigma_profile": { 
			"-0.025": 0.0,
			"-0.024": 0.0,
			"-0.023": 0.0,
			"-0.022": 0.0,
			"-0.021": 0.0,
			"-0.02": 0.0,
			"-0.019": 0.0,
			"-0.018": 0.0,
			"-0.017": 0.0,
			"-0.016": 0.0,
			"-0.015": 0.0,
			"-0.014": 0.0,
			"-0.013": 0.0,
			"-0.012": 0.0,
			"-0.011": 0.0,
			"-0.01": 0.0950728799871,
			"-0.009": 1.29283964187,
			"-0.008": 1.20333340327,
			"-0.007": 1.37524841686,
			"-0.006": 2.71727591159,
			"-0.005": 9.53541072109,
			"-0.004": 22.9958558106,
			"-0.003": 41.0296042582,
			"-0.002": 32.1641085693,
			"-0.001": 25.0576388186,
			"0.0": 20.4899334696,
			"0.001": 8.96481000043,
			"0.002": 5.19993470755,
			"0.003": 4.18060232011,
			"0.004": 2.68145247139,
			"0.005": 2.94183000068,
			"0.006": 2.46137217452,
			"0.007": 2.26315311253,
			"0.008": 2.32563774941,
			"0.009": 2.09844960913,
			"0.01": 2.21221461684,
			"0.011": 1.95575770929,
			"0.012": 2.79190885574,
			"0.013": 3.02510767854,
			"0.014": 5.52647604534,
			"0.015": 2.97774844424,
			"0.016": 0.601555867238,
			"0.017": 0.455130932521,
			"0.018": 0.814151732435,
			"0.019": 0.291250205044,
			"0.02": 0.0,
			"0.021": 0.0,
			"0.022": 0.0,
			"0.023": 0.0,
			"0.024": 0.0,
			"0.025": 0.0
		}
	}
}
