{
	 "smiles": "NC1=C(F)C=C(F)C=C1Br", 
	 "Tm": 313.15, 
	 "num_atms": 14, 
	 "gaussian": { 
		 "optdone": 1, 
		 "sigma_profile": "yes", 
		 "theory": "DFT", 
		 "functional": "B3LYP", 
		 "basiset": "6-31G**", 
		 "properties": { 
			 "R2extent": 2488.2937, 
			 "electric_dipole_moment_norm": 1.69296354361, 
			 "electric_quadrupole_moment_norm": 6.57675623693, 
			 "total_energy": -3056.87153094, 
			 "HOMO_LUMO_gap": 0.19332, 
			 "cosmo_polarized_energy": -5.79, 
			 "cosmo_cavitation_energy": 21.39, 
			 "cosmo_dispersion_energy": -16.29, 
			 "cosmo_repulsion_energy": 1.27, 
			 "cosmo_total_nonelectrostatic_energy": 6.38, 
			 "SMD_solvation_energy": 3.5 
		},
		"coords": [
			{
				"x": -0.0138379256,
				"y": -0.1894260841,
				"z": -3.2021085339,
				"element": "N" 
			},
			{
				"x": -0.0954828043,
				"y": 0.2661225659,
				"z": -1.8969276307,
				"element": "C" 
			},
			{
				"x": -0.7788335852,
				"y": 1.4620260588,
				"z": -1.6120135496,
				"element": "C" 
			},
			{
				"x": -1.2639641141,
				"y": 2.1499705883,
				"z": -2.6747415672,
				"element": "F" 
			},
			{
				"x": -0.9643680881,
				"y": 1.9629460927,
				"z": -0.3368480522,
				"element": "C" 
			},
			{
				"x": -0.4370097019,
				"y": 1.2329237997,
				"z": 0.7249738016,
				"element": "C" 
			},
			{
				"x": -0.6028133147,
				"y": 1.6942318507,
				"z": 1.9820167797,
				"element": "F" 
			},
			{
				"x": 0.2569728193,
				"y": 0.0493725319,
				"z": 0.5235047969,
				"element": "C" 
			},
			{
				"x": 0.4189703223,
				"y": -0.4156263797,
				"z": -0.7823607001,
				"element": "C" 
			},
			{
				"x": 1.3880543382,
				"y": -2.0384073646,
				"z": -1.0672897942,
				"element": "Br" 
			},
			{
				"x": 0.7479441688,
				"y": -0.8259634944,
				"z": -3.3907660622,
				"element": "H" 
			},
			{
				"x": -0.141951636,
				"y": 0.5256641442,
				"z": -3.9035750925,
				"element": "H" 
			},
			{
				"x": -1.4988225963,
				"y": 2.8912315382,
				"z": -0.1777128984,
				"element": "H" 
			},
			{
				"x": 0.6630421176,
				"y": -0.4958658476,
				"z": 1.3658485028,
				"element": "H" 
			}
		],
		 "valence_orbital": [ 
			{
				"type": "occ",
				"energy": -0.32386,
				"method": "rhf"
			},
			{
				"type": "occ",
				"energy": -0.31354,
				"method": "rhf"
			},
			{
				"type": "occ",
				"energy": -0.30132,
				"method": "rhf"
			},
			{
				"type": "occ",
				"energy": -0.25387,
				"method": "rhf"
			},
			{
				"type": "occ",
				"energy": -0.21338,
				"method": "rhf"
			},
			{
				"type": "unocc",
				"energy": -0.02006,
				"method": "rhf"
			},
			{
				"type": "unocc",
				"energy": -0.00588,
				"method": "rhf"
			},
			{
				"type": "unocc",
				"energy": 0.00494,
				"method": "rhf"
			},
			{
				"type": "unocc",
				"energy": 0.07915,
				"method": "rhf"
			},
			{
				"type": "unocc",
				"energy": 0.10555,
				"method": "rhf"
			}
		],
		"cosmo_sigma_profile": { 
			"-0.025": 0.0,
			"-0.024": 0.0,
			"-0.023": 0.0,
			"-0.022": 0.0,
			"-0.021": 0.0,
			"-0.02": 0.0,
			"-0.019": 0.0,
			"-0.018": 0.0,
			"-0.017": 0.0,
			"-0.016": 0.0,
			"-0.015": 0.0,
			"-0.014": 0.0,
			"-0.013": 0.416705780204,
			"-0.012": 1.37940415815,
			"-0.011": 2.15810381158,
			"-0.01": 1.85654258023,
			"-0.009": 3.66355092268,
			"-0.008": 4.41492170717,
			"-0.007": 4.30825451124,
			"-0.006": 5.21824517959,
			"-0.005": 6.10120360823,
			"-0.004": 5.60905329066,
			"-0.003": 7.05122536418,
			"-0.002": 7.2744919965,
			"-0.001": 10.5534641536,
			"0.0": 15.5362124373,
			"0.001": 23.8802447341,
			"0.002": 23.9520070893,
			"0.003": 18.9936476101,
			"0.004": 23.8030519264,
			"0.005": 4.26996490885,
			"0.006": 0.76066746587,
			"0.007": 0.321306852961,
			"0.008": 0.935480779951,
			"0.009": 0.840038923752,
			"0.01": 0.6730360465,
			"0.011": 0.603757845358,
			"0.012": 0.340154515029,
			"0.013": 0.378669646525,
			"0.014": 0.0,
			"0.015": 0.0,
			"0.016": 0.0,
			"0.017": 0.0,
			"0.018": 0.0,
			"0.019": 0.0,
			"0.02": 0.0,
			"0.021": 0.0,
			"0.022": 0.0,
			"0.023": 0.0,
			"0.024": 0.0,
			"0.025": 0.0
		}
	}
}
