{
	 "smiles": "ClC1=CC=CC=C1C=C(C#N)C1=NC(=CS1)C1=CC=CS1", 
	 "Tm": 375.15, 
	 "num_atms": 30, 
	 "gaussian": { 
		 "optdone": 1, 
		 "sigma_profile": "yes", 
		 "theory": "DFT", 
		 "functional": "B3LYP", 
		 "basiset": "6-31G**", 
		 "properties": { 
			 "R2extent": 9363.7174, 
			 "electric_dipole_moment_norm": 5.68875865633, 
			 "electric_quadrupole_moment_norm": 15.6598920555, 
			 "total_energy": -1981.14224731, 
			 "HOMO_LUMO_gap": 0.12159, 
			 "cosmo_polarized_energy": -11.75, 
			 "cosmo_cavitation_energy": 41.45, 
			 "cosmo_dispersion_energy": -29.19, 
			 "cosmo_repulsion_energy": 2.13, 
			 "cosmo_total_nonelectrostatic_energy": 14.39, 
			 "SMD_solvation_energy": 7.1 
		},
		"coords": [
			{
				"x": -3.7813218915,
				"y": -1.6469743156,
				"z": -1.7788338395,
				"element": "Cl" 
			},
			{
				"x": -2.5004189884,
				"y": -0.4445819634,
				"z": -1.6862891398,
				"element": "C" 
			},
			{
				"x": -2.1497339991,
				"y": 0.2157847153,
				"z": -2.8615608352,
				"element": "C" 
			},
			{
				"x": -1.1404376499,
				"y": 1.1764448043,
				"z": -2.8336379868,
				"element": "C" 
			},
			{
				"x": -0.4889011011,
				"y": 1.4685982637,
				"z": -1.6329760138,
				"element": "C" 
			},
			{
				"x": -0.8355801528,
				"y": 0.7925616635,
				"z": -0.4689120905,
				"element": "C" 
			},
			{
				"x": -1.8470846105,
				"y": -0.1890368015,
				"z": -0.4598988181,
				"element": "C" 
			},
			{
				"x": -2.317884886,
				"y": -0.8343615505,
				"z": 0.7651598122,
				"element": "C" 
			},
			{
				"x": -1.6668347202,
				"y": -1.2405272061,
				"z": 1.8956012769,
				"element": "C" 
			},
			{
				"x": -2.5080153597,
				"y": -1.7481739557,
				"z": 2.9485471156,
				"element": "C" 
			},
			{
				"x": -3.1810565186,
				"y": -2.1501407098,
				"z": 3.8085933756,
				"element": "N" 
			},
			{
				"x": -0.2250634679,
				"y": -1.3007883507,
				"z": 2.1741034054,
				"element": "C" 
			},
			{
				"x": 0.7345082381,
				"y": -1.0052056393,
				"z": 1.3413480692,
				"element": "N" 
			},
			{
				"x": 1.981350297,
				"y": -1.2100801928,
				"z": 1.8885803771,
				"element": "C" 
			},
			{
				"x": 1.9649105651,
				"y": -1.6770077609,
				"z": 3.1859886064,
				"element": "C" 
			},
			{
				"x": 0.3499111425,
				"y": -1.8717410763,
				"z": 3.7474662075,
				"element": "S" 
			},
			{
				"x": 3.1550643512,
				"y": -0.9264570908,
				"z": 1.0703768425,
				"element": "C" 
			},
			{
				"x": 3.1701010835,
				"y": -0.5179667574,
				"z": -0.24354312,
				"element": "C" 
			},
			{
				"x": 4.4851734756,
				"y": -0.3319817303,
				"z": -0.758512333,
				"element": "C" 
			},
			{
				"x": 5.4603368983,
				"y": -0.5987882997,
				"z": 0.1630628544,
				"element": "C" 
			},
			{
				"x": 4.7855256364,
				"y": -1.0837552243,
				"z": 1.6858300031,
				"element": "S" 
			},
			{
				"x": -2.6669315379,
				"y": -0.0243253297,
				"z": -3.7835758318,
				"element": "H" 
			},
			{
				"x": -0.8700681332,
				"y": 1.6961977925,
				"z": -3.7477951257,
				"element": "H" 
			},
			{
				"x": 0.2865765851,
				"y": 2.2275046439,
				"z": -1.6017292073,
				"element": "H" 
			},
			{
				"x": -0.3296262873,
				"y": 1.0236176373,
				"z": 0.4582854518,
				"element": "H" 
			},
			{
				"x": -3.3883302135,
				"y": -1.0207607305,
				"z": 0.7786682468,
				"element": "H" 
			},
			{
				"x": 2.8053176515,
				"y": -1.9145935636,
				"z": 3.8226121832,
				"element": "H" 
			},
			{
				"x": 2.2586330964,
				"y": -0.3643986913,
				"z": -0.8078374765,
				"element": "H" 
			},
			{
				"x": 4.6965993142,
				"y": -0.0148378858,
				"z": -1.7733160258,
				"element": "H" 
			},
			{
				"x": 6.5334811828,
				"y": -0.5413246946,
				"z": 0.0458940163,
				"element": "H" 
			}
		],
		 "valence_orbital": [ 
			{
				"type": "occ",
				"energy": -0.28451,
				"method": "rhf"
			},
			{
				"type": "occ",
				"energy": -0.2615,
				"method": "rhf"
			},
			{
				"type": "occ",
				"energy": -0.25979,
				"method": "rhf"
			},
			{
				"type": "occ",
				"energy": -0.24749,
				"method": "rhf"
			},
			{
				"type": "occ",
				"energy": -0.21625,
				"method": "rhf"
			},
			{
				"type": "unocc",
				"energy": -0.09466,
				"method": "rhf"
			},
			{
				"type": "unocc",
				"energy": -0.04943,
				"method": "rhf"
			},
			{
				"type": "unocc",
				"energy": -0.02359,
				"method": "rhf"
			},
			{
				"type": "unocc",
				"energy": -0.01571,
				"method": "rhf"
			},
			{
				"type": "unocc",
				"energy": -0.00151,
				"method": "rhf"
			}
		],
		"cosmo_sigma_profile": { 
			"-0.025": 0.0,
			"-0.024": 0.0,
			"-0.023": 0.0,
			"-0.022": 0.0,
			"-0.021": 0.0,
			"-0.02": 0.0,
			"-0.019": 0.0,
			"-0.018": 0.0,
			"-0.017": 0.0,
			"-0.016": 0.0,
			"-0.015": 0.0,
			"-0.014": 0.0,
			"-0.013": 0.0,
			"-0.012": 0.0,
			"-0.011": 0.0183157673927,
			"-0.01": 1.21094052052,
			"-0.009": 3.27120697728,
			"-0.008": 4.865258086,
			"-0.007": 13.0396576825,
			"-0.006": 14.9157383515,
			"-0.005": 17.7982370616,
			"-0.004": 17.659382824,
			"-0.003": 21.1749553486,
			"-0.002": 24.2867148601,
			"-0.001": 27.2041599518,
			"0.0": 32.9990106994,
			"0.001": 38.3996633839,
			"0.002": 37.1651035097,
			"0.003": 30.8286897087,
			"0.004": 24.8411013174,
			"0.005": 9.98515696896,
			"0.006": 4.42422880134,
			"0.007": 3.72179718035,
			"0.008": 3.70519150342,
			"0.009": 3.43767168248,
			"0.01": 2.74196327485,
			"0.011": 2.56437327424,
			"0.012": 2.06279449029,
			"0.013": 0.500217091738,
			"0.014": 0.0,
			"0.015": 0.0,
			"0.016": 0.0,
			"0.017": 0.0,
			"0.018": 0.0,
			"0.019": 0.0,
			"0.02": 0.0,
			"0.021": 0.0,
			"0.022": 0.0,
			"0.023": 0.0,
			"0.024": 0.0,
			"0.025": 0.0
		}
	}
}
