{
	 "smiles": "OC(=O)C1=CC(Cl)=NC(Cl)=C1", 
	 "Tm": 483.15, 
	 "num_atms": 14, 
	 "gaussian": { 
		 "optdone": 1, 
		 "sigma_profile": "yes", 
		 "theory": "DFT", 
		 "functional": "B3LYP", 
		 "basiset": "6-31G**", 
		 "properties": { 
			 "R2extent": 4099.5856, 
			 "electric_dipole_moment_norm": 2.43103946492, 
			 "electric_quadrupole_moment_norm": 15.2748160022, 
			 "total_energy": -1356.02809374, 
			 "HOMO_LUMO_gap": 0.18795, 
			 "cosmo_polarized_energy": -15.21, 
			 "cosmo_cavitation_energy": 23.38, 
			 "cosmo_dispersion_energy": -17.6, 
			 "cosmo_repulsion_energy": 1.43, 
			 "cosmo_total_nonelectrostatic_energy": 7.21, 
			 "SMD_solvation_energy": 3.36 
		},
		"coords": [
			{
				"x": 0.4900181118,
				"y": 0.4689114221,
				"z": 2.4465290683,
				"element": "O" 
			},
			{
				"x": 0.052099169,
				"y": 0.9664549341,
				"z": 1.2662202044,
				"element": "C" 
			},
			{
				"x": 0.6022031772,
				"y": 1.9056645776,
				"z": 0.7478817932,
				"element": "O" 
			},
			{
				"x": -1.1477946584,
				"y": 0.2918800982,
				"z": 0.6486399824,
				"element": "C" 
			},
			{
				"x": -2.0829478335,
				"y": -0.4318410196,
				"z": 1.3949927689,
				"element": "C" 
			},
			{
				"x": -3.1604466167,
				"y": -0.9890745482,
				"z": 0.7028100542,
				"element": "C" 
			},
			{
				"x": -4.3632476836,
				"y": -1.8946998115,
				"z": 1.5996807768,
				"element": "Cl" 
			},
			{
				"x": -3.3456081747,
				"y": -0.881161784,
				"z": -0.601849429,
				"element": "N" 
			},
			{
				"x": -2.451862058,
				"y": -0.1820520869,
				"z": -1.2893985806,
				"element": "C" 
			},
			{
				"x": -2.7207607322,
				"y": -0.049499139,
				"z": -3.0132452772,
				"element": "Cl" 
			},
			{
				"x": -1.3372533306,
				"y": 0.4384500228,
				"z": -0.7277620149,
				"element": "C" 
			},
			{
				"x": 0.056797139,
				"y": -0.3714708636,
				"z": 2.652126637,
				"element": "H" 
			},
			{
				"x": -2.0216645824,
				"y": -0.5365390626,
				"z": 2.4721670233,
				"element": "H" 
			},
			{
				"x": -0.638431927,
				"y": 1.0151772606,
				"z": -1.3195930066,
				"element": "H" 
			}
		],
		 "valence_orbital": [ 
			{
				"type": "occ",
				"energy": -0.33412,
				"method": "rhf"
			},
			{
				"type": "occ",
				"energy": -0.32139,
				"method": "rhf"
			},
			{
				"type": "occ",
				"energy": -0.31491,
				"method": "rhf"
			},
			{
				"type": "occ",
				"energy": -0.30117,
				"method": "rhf"
			},
			{
				"type": "occ",
				"energy": -0.281,
				"method": "rhf"
			},
			{
				"type": "unocc",
				"energy": -0.09305,
				"method": "rhf"
			},
			{
				"type": "unocc",
				"energy": -0.05947,
				"method": "rhf"
			},
			{
				"type": "unocc",
				"energy": -0.00025,
				"method": "rhf"
			},
			{
				"type": "unocc",
				"energy": 0.01116,
				"method": "rhf"
			},
			{
				"type": "unocc",
				"energy": 0.02771,
				"method": "rhf"
			}
		],
		"cosmo_sigma_profile": { 
			"-0.025": 0.0,
			"-0.024": 0.0,
			"-0.023": 0.0,
			"-0.022": 0.0,
			"-0.021": 0.0252648995425,
			"-0.02": 0.612072410058,
			"-0.019": 0.939947206801,
			"-0.018": 1.28282681003,
			"-0.017": 1.35368139638,
			"-0.016": 1.27163039462,
			"-0.015": 1.10233769527,
			"-0.014": 1.00721422829,
			"-0.013": 1.7340194757,
			"-0.012": 1.26468716096,
			"-0.011": 1.26650926,
			"-0.01": 1.22054607512,
			"-0.009": 2.19822209848,
			"-0.008": 3.83677560441,
			"-0.007": 4.39131262228,
			"-0.006": 4.47012928229,
			"-0.005": 5.56631512575,
			"-0.004": 8.2787894229,
			"-0.003": 17.7107409599,
			"-0.002": 17.3560033643,
			"-0.001": 10.9974647451,
			"0.0": 10.7467062106,
			"0.001": 10.6182782294,
			"0.002": 14.2417596704,
			"0.003": 21.0732287013,
			"0.004": 11.7125851286,
			"0.005": 5.61666034825,
			"0.006": 4.55954468243,
			"0.007": 4.05270976509,
			"0.008": 5.16690687848,
			"0.009": 5.89769018435,
			"0.01": 5.88366831818,
			"0.011": 4.93781735425,
			"0.012": 1.16145768553,
			"0.013": 0.0,
			"0.014": 0.0,
			"0.015": 0.0,
			"0.016": 0.0,
			"0.017": 0.0,
			"0.018": 0.0,
			"0.019": 0.0,
			"0.02": 0.0,
			"0.021": 0.0,
			"0.022": 0.0,
			"0.023": 0.0,
			"0.024": 0.0,
			"0.025": 0.0
		}
	}
}
