{
	 "smiles": "OC(=O)C(N1CCCC1)C1=CC=C(Br)C=C1", 
	 "Tm": 488.15, 
	 "num_atms": 30, 
	 "gaussian": { 
		 "optdone": 1, 
		 "sigma_profile": "yes", 
		 "theory": "DFT", 
		 "functional": "B3LYP", 
		 "basiset": "6-31G**", 
		 "properties": { 
			 "R2extent": 8345.7736, 
			 "electric_dipole_moment_norm": 2.73273795487, 
			 "electric_quadrupole_moment_norm": 7.42615455939, 
			 "total_energy": -3242.31755819, 
			 "HOMO_LUMO_gap": 0.19534, 
			 "cosmo_polarized_energy": -12.23, 
			 "cosmo_cavitation_energy": 34.8, 
			 "cosmo_dispersion_energy": -24.7, 
			 "cosmo_repulsion_energy": 1.96, 
			 "cosmo_total_nonelectrostatic_energy": 12.05, 
			 "SMD_solvation_energy": 3.77 
		},
		"coords": [
			{
				"x": 1.0737463129,
				"y": -0.3533439777,
				"z": 1.2402972186,
				"element": "O" 
			},
			{
				"x": 0.9094390673,
				"y": 0.2655392277,
				"z": 0.0462067021,
				"element": "C" 
			},
			{
				"x": 1.8293660299,
				"y": 0.5128052923,
				"z": -0.6979453097,
				"element": "O" 
			},
			{
				"x": -0.5780182726,
				"y": 0.5347037775,
				"z": -0.2157240887,
				"element": "C" 
			},
			{
				"x": -0.7432140691,
				"y": 1.6767675673,
				"z": -1.1189955344,
				"element": "N" 
			},
			{
				"x": -0.1785425833,
				"y": 2.9407950483,
				"z": -0.6069111446,
				"element": "C" 
			},
			{
				"x": -1.2478047747,
				"y": 3.567075483,
				"z": 0.3281514616,
				"element": "C" 
			},
			{
				"x": -2.5861292894,
				"y": 2.9626525941,
				"z": -0.1774635998,
				"element": "C" 
			},
			{
				"x": -2.1594617329,
				"y": 2.0281286931,
				"z": -1.343407828,
				"element": "C" 
			},
			{
				"x": -1.1399927506,
				"y": -0.7451640113,
				"z": -0.8331469796,
				"element": "C" 
			},
			{
				"x": -0.8148480527,
				"y": -1.080950562,
				"z": -2.1541605184,
				"element": "C" 
			},
			{
				"x": -1.293692997,
				"y": -2.2578646617,
				"z": -2.7261945206,
				"element": "C" 
			},
			{
				"x": -2.0993757222,
				"y": -3.1056337248,
				"z": -1.9653413043,
				"element": "C" 
			},
			{
				"x": -2.7631228332,
				"y": -4.7209828614,
				"z": -2.7448576062,
				"element": "Br" 
			},
			{
				"x": -2.4305470968,
				"y": -2.795488973,
				"z": -0.6484243864,
				"element": "C" 
			},
			{
				"x": -1.9444711136,
				"y": -1.6124316985,
				"z": -0.0887476245,
				"element": "C" 
			},
			{
				"x": 2.020746448,
				"y": -0.5628117851,
				"z": 1.3081266209,
				"element": "H" 
			},
			{
				"x": -1.0488021634,
				"y": 0.6703966148,
				"z": 0.7731013705,
				"element": "H" 
			},
			{
				"x": -0.0094984139,
				"y": 3.5945364499,
				"z": -1.4709486051,
				"element": "H" 
			},
			{
				"x": 0.7911994699,
				"y": 2.7820564421,
				"z": -0.134060703,
				"element": "H" 
			},
			{
				"x": -1.233260167,
				"y": 4.6597892039,
				"z": 0.2788306475,
				"element": "H" 
			},
			{
				"x": -1.0645895057,
				"y": 3.2938952632,
				"z": 1.3724222666,
				"element": "H" 
			},
			{
				"x": -3.2913314809,
				"y": 3.7267837744,
				"z": -0.5171427795,
				"element": "H" 
			},
			{
				"x": -3.0869333915,
				"y": 2.3988536452,
				"z": 0.6160463637,
				"element": "H" 
			},
			{
				"x": -2.2178510911,
				"y": 2.5697652822,
				"z": -2.2951994162,
				"element": "H" 
			},
			{
				"x": -2.7769361313,
				"y": 1.1331224568,
				"z": -1.4377788714,
				"element": "H" 
			},
			{
				"x": -0.1885049394,
				"y": -0.4057220467,
				"z": -2.7276599977,
				"element": "H" 
			},
			{
				"x": -1.0435546417,
				"y": -2.5165103378,
				"z": -3.7488602245,
				"element": "H" 
			},
			{
				"x": -3.0591021858,
				"y": -3.4633622178,
				"z": -0.0705685037,
				"element": "H" 
			},
			{
				"x": -2.1982119282,
				"y": -1.366299958,
				"z": 0.9388568951,
				"element": "H" 
			}
		],
		 "valence_orbital": [ 
			{
				"type": "occ",
				"energy": -0.2866,
				"method": "rhf"
			},
			{
				"type": "occ",
				"energy": -0.27971,
				"method": "rhf"
			},
			{
				"type": "occ",
				"energy": -0.2642,
				"method": "rhf"
			},
			{
				"type": "occ",
				"energy": -0.24025,
				"method": "rhf"
			},
			{
				"type": "occ",
				"energy": -0.22295,
				"method": "rhf"
			},
			{
				"type": "unocc",
				"energy": -0.02761,
				"method": "rhf"
			},
			{
				"type": "unocc",
				"energy": -0.01606,
				"method": "rhf"
			},
			{
				"type": "unocc",
				"energy": 0.00752,
				"method": "rhf"
			},
			{
				"type": "unocc",
				"energy": 0.01767,
				"method": "rhf"
			},
			{
				"type": "unocc",
				"energy": 0.06901,
				"method": "rhf"
			}
		],
		"cosmo_sigma_profile": { 
			"-0.025": 0.0,
			"-0.024": 0.0,
			"-0.023": 0.0,
			"-0.022": 0.0,
			"-0.021": 0.0,
			"-0.02": 0.0,
			"-0.019": 0.0428271434246,
			"-0.018": 0.751282227712,
			"-0.017": 1.1265784352,
			"-0.016": 0.702099317524,
			"-0.015": 0.684521128993,
			"-0.014": 0.903886383042,
			"-0.013": 1.02517917644,
			"-0.012": 0.445441080629,
			"-0.011": 0.53928168489,
			"-0.01": 1.14729909321,
			"-0.009": 0.374430772107,
			"-0.008": 0.759253380452,
			"-0.007": 5.58698888376,
			"-0.006": 9.56985502839,
			"-0.005": 11.8911130715,
			"-0.004": 15.7079587798,
			"-0.003": 27.2152590091,
			"-0.002": 27.8825874694,
			"-0.001": 29.5623512085,
			"0.0": 22.000295006,
			"0.001": 22.0981093003,
			"0.002": 22.9725590231,
			"0.003": 21.2782352008,
			"0.004": 17.2914285432,
			"0.005": 9.23119922625,
			"0.006": 3.93491065512,
			"0.007": 3.7871252732,
			"0.008": 2.61100320013,
			"0.009": 3.02777042967,
			"0.01": 3.09382241861,
			"0.011": 4.3203989849,
			"0.012": 3.52776454407,
			"0.013": 1.79199816407,
			"0.014": 0.59006738236,
			"0.015": 0.00171986399927,
			"0.016": 0.0,
			"0.017": 0.0,
			"0.018": 0.0,
			"0.019": 0.0,
			"0.02": 0.0,
			"0.021": 0.0,
			"0.022": 0.0,
			"0.023": 0.0,
			"0.024": 0.0,
			"0.025": 0.0
		}
	}
}
