{
	 "smiles": "NC(=O)C1CCCO1", 
	 "Tm": 350.15, 
	 "num_atms": 17, 
	 "gaussian": { 
		 "optdone": 1, 
		 "sigma_profile": "yes", 
		 "theory": "DFT", 
		 "functional": "B3LYP", 
		 "basiset": "6-31G**", 
		 "properties": { 
			 "R2extent": 1476.9861, 
			 "electric_dipole_moment_norm": 3.17410911281, 
			 "electric_quadrupole_moment_norm": 9.24452814047, 
			 "total_energy": -401.163671554, 
			 "HOMO_LUMO_gap": 0.26764, 
			 "cosmo_polarized_energy": -11.57, 
			 "cosmo_cavitation_energy": 19.55, 
			 "cosmo_dispersion_energy": -14.89, 
			 "cosmo_repulsion_energy": 1.27, 
			 "cosmo_total_nonelectrostatic_energy": 5.93, 
			 "SMD_solvation_energy": 3.91 
		},
		"coords": [
			{
				"x": -0.6880932002,
				"y": 3.1684954824,
				"z": 0.2769328468,
				"element": "N" 
			},
			{
				"x": -1.123340188,
				"y": 1.8945543867,
				"z": 0.1007825405,
				"element": "C" 
			},
			{
				"x": -1.9291438936,
				"y": 1.3254143019,
				"z": 0.8252804542,
				"element": "O" 
			},
			{
				"x": -0.5153899748,
				"y": 1.1787680203,
				"z": -1.1117267689,
				"element": "C" 
			},
			{
				"x": 0.1928563454,
				"y": -0.1390167487,
				"z": -0.7197223212,
				"element": "C" 
			},
			{
				"x": 1.428067579,
				"y": -0.145507285,
				"z": -1.6335154891,
				"element": "C" 
			},
			{
				"x": 1.7379696515,
				"y": 1.3472390391,
				"z": -1.7405882863,
				"element": "C" 
			},
			{
				"x": 0.4568639739,
				"y": 1.9897233356,
				"z": -1.7964123855,
				"element": "O" 
			},
			{
				"x": -0.070120531,
				"y": 3.5754134041,
				"z": -0.4083191155,
				"element": "H" 
			},
			{
				"x": -1.083422082,
				"y": 3.7218942436,
				"z": 1.0207716234,
				"element": "H" 
			},
			{
				"x": -1.3407452438,
				"y": 0.98752845,
				"z": -1.8095007276,
				"element": "H" 
			},
			{
				"x": 0.487449956,
				"y": -0.1107300315,
				"z": 0.3339726698,
				"element": "H" 
			},
			{
				"x": -0.456300925,
				"y": -1.0060657369,
				"z": -0.853501778,
				"element": "H" 
			},
			{
				"x": 1.1790107444,
				"y": -0.5478433619,
				"z": -2.6214778068,
				"element": "H" 
			},
			{
				"x": 2.2606776197,
				"y": -0.7264640825,
				"z": -1.2269528701,
				"element": "H" 
			},
			{
				"x": 2.2912102443,
				"y": 1.6275000578,
				"z": -2.6416465369,
				"element": "H" 
			},
			{
				"x": 2.3036499241,
				"y": 1.6953965249,
				"z": -0.862076049,
				"element": "H" 
			}
		],
		 "valence_orbital": [ 
			{
				"type": "occ",
				"energy": -0.34242,
				"method": "rhf"
			},
			{
				"type": "occ",
				"energy": -0.32587,
				"method": "rhf"
			},
			{
				"type": "occ",
				"energy": -0.27931,
				"method": "rhf"
			},
			{
				"type": "occ",
				"energy": -0.26009,
				"method": "rhf"
			},
			{
				"type": "occ",
				"energy": -0.23126,
				"method": "rhf"
			},
			{
				"type": "unocc",
				"energy": 0.03638,
				"method": "rhf"
			},
			{
				"type": "unocc",
				"energy": 0.07917,
				"method": "rhf"
			},
			{
				"type": "unocc",
				"energy": 0.09865,
				"method": "rhf"
			},
			{
				"type": "unocc",
				"energy": 0.11404,
				"method": "rhf"
			},
			{
				"type": "unocc",
				"energy": 0.12983,
				"method": "rhf"
			}
		],
		"cosmo_sigma_profile": { 
			"-0.025": 0.0,
			"-0.024": 0.0,
			"-0.023": 0.0,
			"-0.022": 0.0,
			"-0.021": 0.0,
			"-0.02": 0.0,
			"-0.019": 0.0,
			"-0.018": 0.0,
			"-0.017": 0.0,
			"-0.016": 0.0,
			"-0.015": 0.0,
			"-0.014": 0.643023626656,
			"-0.013": 1.53974201134,
			"-0.012": 0.983684285897,
			"-0.011": 1.91000412839,
			"-0.01": 1.66672811729,
			"-0.009": 2.28382001363,
			"-0.008": 1.66920228721,
			"-0.007": 1.17798391851,
			"-0.006": 2.95016079452,
			"-0.005": 7.87236057135,
			"-0.004": 18.4261436557,
			"-0.003": 21.566820945,
			"-0.002": 17.8684202381,
			"-0.001": 13.9067807447,
			"0.0": 10.2774659213,
			"0.001": 4.45470847878,
			"0.002": 4.65076379517,
			"0.003": 4.17351040592,
			"0.004": 4.09124971804,
			"0.005": 2.57319101567,
			"0.006": 2.646587482,
			"0.007": 1.63360506338,
			"0.008": 2.87281582013,
			"0.009": 1.34757567644,
			"0.01": 2.06395248835,
			"0.011": 2.60669647759,
			"0.012": 2.82673627672,
			"0.013": 2.68528177661,
			"0.014": 6.12797220115,
			"0.015": 2.86193957364,
			"0.016": 0.0384387878706,
			"0.017": 0.0,
			"0.018": 0.0,
			"0.019": 0.0,
			"0.02": 0.0,
			"0.021": 0.0,
			"0.022": 0.0,
			"0.023": 0.0,
			"0.024": 0.0,
			"0.025": 0.0
		}
	}
}
