{
	 "smiles": "CCC(C)(NC(=O)C1=CC(Cl)=C(C)C(Cl)=C1)C(=O)CCl", 
	 "Tm": 433.4, 
	 "num_atms": 36, 
	 "gaussian": { 
		 "optdone": 1, 
		 "sigma_profile": "yes", 
		 "theory": "DFT", 
		 "functional": "B3LYP", 
		 "basiset": "6-31G**", 
		 "properties": { 
			 "R2extent": 9693.4795, 
			 "electric_dipole_moment_norm": 5.66181171534, 
			 "electric_quadrupole_moment_norm": 18.9519264965, 
			 "total_energy": -2128.91348203, 
			 "HOMO_LUMO_gap": 0.17729, 
			 "cosmo_polarized_energy": -17.49, 
			 "cosmo_cavitation_energy": 42.95, 
			 "cosmo_dispersion_energy": -28.64, 
			 "cosmo_repulsion_energy": 2.2, 
			 "cosmo_total_nonelectrostatic_energy": 16.51, 
			 "SMD_solvation_energy": 7.58 
		},
		"coords": [
			{
				"x": -0.8004756833,
				"y": 1.6765899513,
				"z": 1.2000563662,
				"element": "C" 
			},
			{
				"x": -0.2079194794,
				"y": 0.5849998699,
				"z": 0.2979650708,
				"element": "C" 
			},
			{
				"x": -0.9767738181,
				"y": -0.7701182753,
				"z": 0.1538027454,
				"element": "C" 
			},
			{
				"x": -2.5004516909,
				"y": -0.5239154846,
				"z": 0.0143619422,
				"element": "C" 
			},
			{
				"x": -0.5875532288,
				"y": -1.4578612298,
				"z": -1.0851090584,
				"element": "N" 
			},
			{
				"x": 0.5776147481,
				"y": -1.5650518118,
				"z": -1.8116550817,
				"element": "C" 
			},
			{
				"x": 0.5248901624,
				"y": -1.9306434056,
				"z": -2.981802278,
				"element": "O" 
			},
			{
				"x": 1.917138094,
				"y": -1.255025497,
				"z": -1.1985431098,
				"element": "C" 
			},
			{
				"x": 2.3616159603,
				"y": -1.8282198313,
				"z": -0.0039979554,
				"element": "C" 
			},
			{
				"x": 3.6615124944,
				"y": -1.5737244131,
				"z": 0.4274530909,
				"element": "C" 
			},
			{
				"x": 4.1857213212,
				"y": -2.3400192172,
				"z": 1.9229818532,
				"element": "Cl" 
			},
			{
				"x": 4.5642692294,
				"y": -0.7501044345,
				"z": -0.2689105613,
				"element": "C" 
			},
			{
				"x": 5.9530558167,
				"y": -0.498550943,
				"z": 0.2548480782,
				"element": "C" 
			},
			{
				"x": 4.0744194146,
				"y": -0.2079463644,
				"z": -1.471698248,
				"element": "C" 
			},
			{
				"x": 5.0979079305,
				"y": 0.832746498,
				"z": -2.4610767044,
				"element": "Cl" 
			},
			{
				"x": 2.7920160899,
				"y": -0.4628962774,
				"z": -1.946871088,
				"element": "C" 
			},
			{
				"x": -0.798862834,
				"y": -1.7423021857,
				"z": 1.3568352572,
				"element": "C" 
			},
			{
				"x": -0.468230986,
				"y": -2.8977154126,
				"z": 1.1974724026,
				"element": "O" 
			},
			{
				"x": -1.1117273416,
				"y": -1.2689446076,
				"z": 2.7833853542,
				"element": "C" 
			},
			{
				"x": 0.4258377123,
				"y": -0.7803665528,
				"z": 3.6109770424,
				"element": "Cl" 
			},
			{
				"x": -0.791287562,
				"y": 1.4119111751,
				"z": 2.2595965661,
				"element": "H" 
			},
			{
				"x": -1.8207643774,
				"y": 1.9486192435,
				"z": 0.9148130247,
				"element": "H" 
			},
			{
				"x": -0.1885896599,
				"y": 2.5783501069,
				"z": 1.1000929257,
				"element": "H" 
			},
			{
				"x": -0.1478763465,
				"y": 0.9846651217,
				"z": -0.7201604087,
				"element": "H" 
			},
			{
				"x": 0.8191290349,
				"y": 0.3851089801,
				"z": 0.6098842759,
				"element": "H" 
			},
			{
				"x": -2.9334942582,
				"y": -0.0843620941,
				"z": 0.9142220744,
				"element": "H" 
			},
			{
				"x": -3.0227549538,
				"y": -1.4658348598,
				"z": -0.1839822159,
				"element": "H" 
			},
			{
				"x": -2.6862416687,
				"y": 0.1596692837,
				"z": -0.8194643238,
				"element": "H" 
			},
			{
				"x": -1.3565257428,
				"y": -1.8196204525,
				"z": -1.6354336791,
				"element": "H" 
			},
			{
				"x": 1.7236789971,
				"y": -2.4902066303,
				"z": 0.5669222637,
				"element": "H" 
			},
			{
				"x": 6.4993269054,
				"y": 0.1964373962,
				"z": -0.3805106252,
				"element": "H" 
			},
			{
				"x": 5.9140899828,
				"y": -0.0906019752,
				"z": 1.2697185566,
				"element": "H" 
			},
			{
				"x": 6.5177390634,
				"y": -1.4352019021,
				"z": 0.3114455159,
				"element": "H" 
			},
			{
				"x": 2.471265189,
				"y": -0.0576876933,
				"z": -2.8988106029,
				"element": "H" 
			},
			{
				"x": -1.786675188,
				"y": -0.4169226247,
				"z": 2.8351751374,
				"element": "H" 
			},
			{
				"x": -1.5144233271,
				"y": -2.1140534505,
				"z": 3.3409163968,
				"element": "H" 
			}
		],
		 "valence_orbital": [ 
			{
				"type": "occ",
				"energy": -0.27657,
				"method": "rhf"
			},
			{
				"type": "occ",
				"energy": -0.2673,
				"method": "rhf"
			},
			{
				"type": "occ",
				"energy": -0.25955,
				"method": "rhf"
			},
			{
				"type": "occ",
				"energy": -0.25135,
				"method": "rhf"
			},
			{
				"type": "occ",
				"energy": -0.24508,
				"method": "rhf"
			},
			{
				"type": "unocc",
				"energy": -0.06779,
				"method": "rhf"
			},
			{
				"type": "unocc",
				"energy": -0.03998,
				"method": "rhf"
			},
			{
				"type": "unocc",
				"energy": -0.02379,
				"method": "rhf"
			},
			{
				"type": "unocc",
				"energy": 0.00903,
				"method": "rhf"
			},
			{
				"type": "unocc",
				"energy": 0.02118,
				"method": "rhf"
			}
		],
		"cosmo_sigma_profile": { 
			"-0.025": 0.0,
			"-0.024": 0.0,
			"-0.023": 0.0,
			"-0.022": 0.0,
			"-0.021": 0.0,
			"-0.02": 0.0,
			"-0.019": 0.0,
			"-0.018": 0.0,
			"-0.017": 0.0,
			"-0.016": 0.0,
			"-0.015": 0.0,
			"-0.014": 0.0,
			"-0.013": 0.576717430907,
			"-0.012": 0.960575451425,
			"-0.011": 1.2379010092,
			"-0.01": 1.20197881453,
			"-0.009": 4.23410798576,
			"-0.008": 7.66561687878,
			"-0.007": 8.28143427968,
			"-0.006": 9.64641784065,
			"-0.005": 17.0347135429,
			"-0.004": 21.6583550284,
			"-0.003": 26.6515124975,
			"-0.002": 33.1925445237,
			"-0.001": 35.3161547341,
			"0.0": 34.0276437121,
			"0.001": 31.8023647906,
			"0.002": 22.3103975587,
			"0.003": 23.8769642416,
			"0.004": 23.0255042235,
			"0.005": 12.3274264296,
			"0.006": 3.51987921653,
			"0.007": 2.50832444385,
			"0.008": 3.11244055598,
			"0.009": 4.01033495015,
			"0.01": 4.48209533738,
			"0.011": 3.65522852316,
			"0.012": 2.21761987125,
			"0.013": 5.80855456244,
			"0.014": 1.96751893919,
			"0.015": 0.00911121331075,
			"0.016": 0.0,
			"0.017": 0.0,
			"0.018": 0.0,
			"0.019": 0.0,
			"0.02": 0.0,
			"0.021": 0.0,
			"0.022": 0.0,
			"0.023": 0.0,
			"0.024": 0.0,
			"0.025": 0.0
		}
	}
}
