{
	 "smiles": "CC(Cl)C(=O)NC1CCCCC1", 
	 "Tm": 372.15, 
	 "num_atms": 28, 
	 "gaussian": { 
		 "optdone": 1, 
		 "sigma_profile": "yes", 
		 "theory": "DFT", 
		 "functional": "B3LYP", 
		 "basiset": "6-31G**", 
		 "properties": { 
			 "R2extent": 3029.4335, 
			 "electric_dipole_moment_norm": 3.53595244736, 
			 "electric_quadrupole_moment_norm": 11.835857151, 
			 "total_energy": -942.794678368, 
			 "HOMO_LUMO_gap": 0.24116, 
			 "cosmo_polarized_energy": -10.31, 
			 "cosmo_cavitation_energy": 30.21, 
			 "cosmo_dispersion_energy": -21.48, 
			 "cosmo_repulsion_energy": 1.73, 
			 "cosmo_total_nonelectrostatic_energy": 10.47, 
			 "SMD_solvation_energy": 4.53 
		},
		"coords": [
			{
				"x": 1.0465746733,
				"y": -3.0723135498,
				"z": -0.5371249607,
				"element": "C" 
			},
			{
				"x": 1.9771581111,
				"y": -2.2146368538,
				"z": 0.3156069499,
				"element": "C" 
			},
			{
				"x": 2.9540100491,
				"y": -1.0669618586,
				"z": -0.7373713236,
				"element": "Cl" 
			},
			{
				"x": 1.2718842165,
				"y": -1.5159862694,
				"z": 1.4908770164,
				"element": "C" 
			},
			{
				"x": 1.4628470764,
				"y": -1.9733657196,
				"z": 2.6135770019,
				"element": "O" 
			},
			{
				"x": 0.4008472347,
				"y": -0.4880962857,
				"z": 1.2846967763,
				"element": "N" 
			},
			{
				"x": 0.0192939814,
				"y": 0.2591671945,
				"z": 0.0825345057,
				"element": "C" 
			},
			{
				"x": 0.6485217867,
				"y": 1.6815130092,
				"z": 0.0492229836,
				"element": "C" 
			},
			{
				"x": -0.3007385707,
				"y": 2.740638751,
				"z": 0.6238267366,
				"element": "C" 
			},
			{
				"x": -1.5868919135,
				"y": 2.8570099889,
				"z": -0.2287329177,
				"element": "C" 
			},
			{
				"x": -1.9794418786,
				"y": 1.5054052048,
				"z": -0.8748076438,
				"element": "C" 
			},
			{
				"x": -1.5248802805,
				"y": 0.3250598183,
				"z": -0.0067362872,
				"element": "C" 
			},
			{
				"x": 1.6209564286,
				"y": -3.6405360133,
				"z": -1.2726222018,
				"element": "H" 
			},
			{
				"x": 0.2998932633,
				"y": -2.4759301833,
				"z": -1.0662417004,
				"element": "H" 
			},
			{
				"x": 0.5248034239,
				"y": -3.7784661327,
				"z": 0.1178910495,
				"element": "H" 
			},
			{
				"x": 2.7301434918,
				"y": -2.8378937957,
				"z": 0.794043695,
				"element": "H" 
			},
			{
				"x": 0.0086631052,
				"y": -0.1618799312,
				"z": 2.1610037011,
				"element": "H" 
			},
			{
				"x": 0.3993754013,
				"y": -0.2943101357,
				"z": -0.7753354636,
				"element": "H" 
			},
			{
				"x": 1.6012010303,
				"y": 1.6611800706,
				"z": 0.5857637418,
				"element": "H" 
			},
			{
				"x": 0.8852509506,
				"y": 1.9375800517,
				"z": -0.9910397124,
				"element": "H" 
			},
			{
				"x": 0.2030371163,
				"y": 3.7109463534,
				"z": 0.6874640379,
				"element": "H" 
			},
			{
				"x": -0.5600957047,
				"y": 2.4717315908,
				"z": 1.6567118294,
				"element": "H" 
			},
			{
				"x": -1.445663277,
				"y": 3.607110061,
				"z": -1.015415862,
				"element": "H" 
			},
			{
				"x": -2.4078312905,
				"y": 3.2221950376,
				"z": 0.3993996649,
				"element": "H" 
			},
			{
				"x": -3.0612896298,
				"y": 1.4618020874,
				"z": -1.0391738359,
				"element": "H" 
			},
			{
				"x": -1.5185146688,
				"y": 1.4147897563,
				"z": -1.8669232689,
				"element": "H" 
			},
			{
				"x": -1.9142114074,
				"y": -0.6266589314,
				"z": -0.3843035074,
				"element": "H" 
			},
			{
				"x": -1.9399027188,
				"y": 0.4435066848,
				"z": 1.0039089952,
				"element": "H" 
			}
		],
		 "valence_orbital": [ 
			{
				"type": "occ",
				"energy": -0.3124,
				"method": "rhf"
			},
			{
				"type": "occ",
				"energy": -0.30666,
				"method": "rhf"
			},
			{
				"type": "occ",
				"energy": -0.29591,
				"method": "rhf"
			},
			{
				"type": "occ",
				"energy": -0.24967,
				"method": "rhf"
			},
			{
				"type": "occ",
				"energy": -0.24877,
				"method": "rhf"
			},
			{
				"type": "unocc",
				"energy": -0.00761,
				"method": "rhf"
			},
			{
				"type": "unocc",
				"energy": 0.05101,
				"method": "rhf"
			},
			{
				"type": "unocc",
				"energy": 0.06133,
				"method": "rhf"
			},
			{
				"type": "unocc",
				"energy": 0.07831,
				"method": "rhf"
			},
			{
				"type": "unocc",
				"energy": 0.09286,
				"method": "rhf"
			}
		],
		"cosmo_sigma_profile": { 
			"-0.025": 0.0,
			"-0.024": 0.0,
			"-0.023": 0.0,
			"-0.022": 0.0,
			"-0.021": 0.0,
			"-0.02": 0.0,
			"-0.019": 0.0,
			"-0.018": 0.0,
			"-0.017": 0.0,
			"-0.016": 0.0,
			"-0.015": 0.0,
			"-0.014": 0.0,
			"-0.013": 0.127152562588,
			"-0.012": 0.789060157442,
			"-0.011": 0.859222464684,
			"-0.01": 1.35515456542,
			"-0.009": 1.58726770541,
			"-0.008": 1.60435810432,
			"-0.007": 2.39497478137,
			"-0.006": 5.39025673214,
			"-0.005": 10.2643386667,
			"-0.004": 14.2193315764,
			"-0.003": 21.2944449449,
			"-0.002": 30.3511098762,
			"-0.001": 35.0766320729,
			"0.0": 31.2640035572,
			"0.001": 23.0406024065,
			"0.002": 9.7801910708,
			"0.003": 9.01056928269,
			"0.004": 6.29880291788,
			"0.005": 6.97507104684,
			"0.006": 5.80418534819,
			"0.007": 1.8887326394,
			"0.008": 1.22380348385,
			"0.009": 1.08091413671,
			"0.01": 1.60704460977,
			"0.011": 1.50967340779,
			"0.012": 1.65521585425,
			"0.013": 4.52379312064,
			"0.014": 4.68730511708,
			"0.015": 0.274221962865,
			"0.016": 0.0,
			"0.017": 0.0,
			"0.018": 0.0,
			"0.019": 0.0,
			"0.02": 0.0,
			"0.021": 0.0,
			"0.022": 0.0,
			"0.023": 0.0,
			"0.024": 0.0,
			"0.025": 0.0
		}
	}
}
