{
	 "smiles": "CC(C)C(Br)C(=O)NC1=C(Cl)C=CC(Cl)=C1", 
	 "Tm": 400.15, 
	 "num_atms": 28, 
	 "gaussian": { 
		 "optdone": 1, 
		 "sigma_profile": "yes", 
		 "theory": "DFT", 
		 "functional": "B3LYP", 
		 "basiset": "6-31G**", 
		 "properties": { 
			 "R2extent": 7419.3667, 
			 "electric_dipole_moment_norm": 2.10157604906, 
			 "electric_quadrupole_moment_norm": 11.4360963327, 
			 "total_energy": -4048.19167526, 
			 "HOMO_LUMO_gap": 0.20393, 
			 "cosmo_polarized_energy": -11.6, 
			 "cosmo_cavitation_energy": 36.83, 
			 "cosmo_dispersion_energy": -25.97, 
			 "cosmo_repulsion_energy": 2.02, 
			 "cosmo_total_nonelectrostatic_energy": 12.88, 
			 "SMD_solvation_energy": 5.16 
		},
		"coords": [
			{
				"x": 1.3727684928,
				"y": 1.5437971118,
				"z": 4.3336110512,
				"element": "C" 
			},
			{
				"x": 0.928776367,
				"y": 1.3599857608,
				"z": 2.8758185997,
				"element": "C" 
			},
			{
				"x": 0.651375849,
				"y": 2.7316844853,
				"z": 2.2281320751,
				"element": "C" 
			},
			{
				"x": -0.3234917801,
				"y": 0.46683715,
				"z": 2.7596260438,
				"element": "C" 
			},
			{
				"x": 0.0063131928,
				"y": -1.3543692383,
				"z": 3.5534381746,
				"element": "Br" 
			},
			{
				"x": -0.8575719099,
				"y": 0.3241403946,
				"z": 1.3283658173,
				"element": "C" 
			},
			{
				"x": -1.7739445204,
				"y": 1.0326888731,
				"z": 0.9522731921,
				"element": "O" 
			},
			{
				"x": -0.1874378861,
				"y": -0.5676864003,
				"z": 0.5177556761,
				"element": "N" 
			},
			{
				"x": -0.6166490545,
				"y": -0.8932929018,
				"z": -0.7941801571,
				"element": "C" 
			},
			{
				"x": -0.5424143809,
				"y": 0.0169714604,
				"z": -1.8607979226,
				"element": "C" 
			},
			{
				"x": 0.1314740532,
				"y": 1.613587547,
				"z": -1.6428930062,
				"element": "Cl" 
			},
			{
				"x": -0.9671986898,
				"y": -0.356478981,
				"z": -3.1366695814,
				"element": "C" 
			},
			{
				"x": -1.4404795419,
				"y": -1.6433944226,
				"z": -3.3792910258,
				"element": "C" 
			},
			{
				"x": -1.4879215428,
				"y": -2.5548453563,
				"z": -2.3255988074,
				"element": "C" 
			},
			{
				"x": -2.0717774127,
				"y": -4.1842183963,
				"z": -2.6105060826,
				"element": "Cl" 
			},
			{
				"x": -1.0920139988,
				"y": -2.1869994704,
				"z": -1.0436881578,
				"element": "C" 
			},
			{
				"x": 0.5810672437,
				"y": 2.0197018659,
				"z": 4.9242023449,
				"element": "H" 
			},
			{
				"x": 1.6260760682,
				"y": 0.5931243439,
				"z": 4.8072938421,
				"element": "H" 
			},
			{
				"x": 2.2536500141,
				"y": 2.1917813446,
				"z": 4.3754524591,
				"element": "H" 
			},
			{
				"x": 1.7373762759,
				"y": 0.8703629864,
				"z": 2.3181540568,
				"element": "H" 
			},
			{
				"x": -0.1752907096,
				"y": 3.2433676052,
				"z": 2.7327360943,
				"element": "H" 
			},
			{
				"x": 0.3974486306,
				"y": 2.6510057097,
				"z": 1.1698714468,
				"element": "H" 
			},
			{
				"x": 1.5421192732,
				"y": 3.3609539231,
				"z": 2.3193353147,
				"element": "H" 
			},
			{
				"x": -1.1448845373,
				"y": 0.8643929574,
				"z": 3.3549543073,
				"element": "H" 
			},
			{
				"x": 0.3623536337,
				"y": -1.2696245978,
				"z": 0.9984587324,
				"element": "H" 
			},
			{
				"x": -0.9085507452,
				"y": 0.3632744209,
				"z": -3.9452792813,
				"element": "H" 
			},
			{
				"x": -1.7606072127,
				"y": -1.9348667163,
				"z": -4.3729104921,
				"element": "H" 
			},
			{
				"x": -1.1629651715,
				"y": -2.893881459,
				"z": -0.2242647141,
				"element": "H" 
			}
		],
		 "valence_orbital": [ 
			{
				"type": "occ",
				"energy": -0.29575,
				"method": "rhf"
			},
			{
				"type": "occ",
				"energy": -0.29073,
				"method": "rhf"
			},
			{
				"type": "occ",
				"energy": -0.26652,
				"method": "rhf"
			},
			{
				"type": "occ",
				"energy": -0.2625,
				"method": "rhf"
			},
			{
				"type": "occ",
				"energy": -0.24756,
				"method": "rhf"
			},
			{
				"type": "unocc",
				"energy": -0.04363,
				"method": "rhf"
			},
			{
				"type": "unocc",
				"energy": -0.03049,
				"method": "rhf"
			},
			{
				"type": "unocc",
				"energy": -0.02354,
				"method": "rhf"
			},
			{
				"type": "unocc",
				"energy": 0.00968,
				"method": "rhf"
			},
			{
				"type": "unocc",
				"energy": 0.02452,
				"method": "rhf"
			}
		],
		"cosmo_sigma_profile": { 
			"-0.025": 0.0,
			"-0.024": 0.0,
			"-0.023": 0.0,
			"-0.022": 0.0,
			"-0.021": 0.0,
			"-0.02": 0.0,
			"-0.019": 0.0,
			"-0.018": 0.0,
			"-0.017": 0.0,
			"-0.016": 0.0,
			"-0.015": 0.0,
			"-0.014": 0.252617770428,
			"-0.013": 0.770570899606,
			"-0.012": 0.904546914925,
			"-0.011": 1.16979140209,
			"-0.01": 0.897228793648,
			"-0.009": 2.12348331799,
			"-0.008": 7.50798608669,
			"-0.007": 9.49243562268,
			"-0.006": 8.58598306973,
			"-0.005": 8.13088568413,
			"-0.004": 14.7589084681,
			"-0.003": 22.0949730044,
			"-0.002": 25.0407837099,
			"-0.001": 25.7931961287,
			"0.0": 36.839510025,
			"0.001": 36.8789551877,
			"0.002": 24.4534745844,
			"0.003": 19.3857520783,
			"0.004": 24.0025635268,
			"0.005": 10.8677958533,
			"0.006": 2.69821693263,
			"0.007": 1.74329278876,
			"0.008": 1.97742340811,
			"0.009": 2.40926168643,
			"0.01": 1.88170794895,
			"0.011": 2.76776688547,
			"0.012": 4.46873412983,
			"0.013": 1.54146917527,
			"0.014": 0.0204655680386,
			"0.015": 0.0,
			"0.016": 0.0,
			"0.017": 0.0,
			"0.018": 0.0,
			"0.019": 0.0,
			"0.02": 0.0,
			"0.021": 0.0,
			"0.022": 0.0,
			"0.023": 0.0,
			"0.024": 0.0,
			"0.025": 0.0
		}
	}
}
