{
	 "smiles": "COC1=NC=C(C=C1)N1C(=O)C=CC1=O", 
	 "Tm": 396.15, 
	 "num_atms": 23, 
	 "gaussian": { 
		 "optdone": 1, 
		 "sigma_profile": "yes", 
		 "theory": "DFT", 
		 "functional": "B3LYP", 
		 "basiset": "6-31G**", 
		 "properties": { 
			 "R2extent": 4026.4879, 
			 "electric_dipole_moment_norm": 1.7874375094, 
			 "electric_quadrupole_moment_norm": 19.7696768049, 
			 "total_energy": -721.04712966, 
			 "HOMO_LUMO_gap": 0.12183, 
			 "cosmo_polarized_energy": -12.36, 
			 "cosmo_cavitation_energy": 28.6, 
			 "cosmo_dispersion_energy": -20.87, 
			 "cosmo_repulsion_energy": 1.62, 
			 "cosmo_total_nonelectrostatic_energy": 9.36, 
			 "SMD_solvation_energy": 6.52 
		},
		"coords": [
			{
				"x": 1.254132096,
				"y": -3.3885889405,
				"z": -3.421297066,
				"element": "C" 
			},
			{
				"x": 0.5388933384,
				"y": -3.355442954,
				"z": -2.182657096,
				"element": "O" 
			},
			{
				"x": 0.16899341,
				"y": -2.1430353752,
				"z": -1.7181878718,
				"element": "C" 
			},
			{
				"x": 0.4767422683,
				"y": -1.0517161517,
				"z": -2.4106222752,
				"element": "N" 
			},
			{
				"x": 0.1011563868,
				"y": 0.1360520409,
				"z": -1.9159036871,
				"element": "C" 
			},
			{
				"x": -0.6090506066,
				"y": 0.2731577828,
				"z": -0.7250578916,
				"element": "C" 
			},
			{
				"x": -0.9332998662,
				"y": -0.889295638,
				"z": -0.0045924536,
				"element": "C" 
			},
			{
				"x": -0.5343276392,
				"y": -2.1168771667,
				"z": -0.4993386319,
				"element": "C" 
			},
			{
				"x": -0.9968741702,
				"y": 1.5594604046,
				"z": -0.2538999965,
				"element": "N" 
			},
			{
				"x": -1.5050878444,
				"y": 2.6015595574,
				"z": -1.0594820251,
				"element": "C" 
			},
			{
				"x": -1.6765983865,
				"y": 2.5630396681,
				"z": -2.258450509,
				"element": "O" 
			},
			{
				"x": -1.7776361407,
				"y": 3.7491200711,
				"z": -0.1329081131,
				"element": "C" 
			},
			{
				"x": -1.45075464,
				"y": 3.3895407032,
				"z": 1.1107191484,
				"element": "C" 
			},
			{
				"x": -0.9440543311,
				"y": 1.9780884811,
				"z": 1.0917060787,
				"element": "C" 
			},
			{
				"x": -0.5701275856,
				"y": 1.3138114922,
				"z": 2.0347685972,
				"element": "O" 
			},
			{
				"x": 1.4486903181,
				"y": -4.4445453281,
				"z": -3.613476987,
				"element": "H" 
			},
			{
				"x": 0.6598806078,
				"y": -2.9567865442,
				"z": -4.231660359,
				"element": "H" 
			},
			{
				"x": 2.194855595,
				"y": -2.8352885859,
				"z": -3.3486661864,
				"element": "H" 
			},
			{
				"x": 0.3641474456,
				"y": 1.0097939207,
				"z": -2.5035002643,
				"element": "H" 
			},
			{
				"x": -1.4742664416,
				"y": -0.8193975874,
				"z": 0.9311336624,
				"element": "H" 
			},
			{
				"x": -0.7516368347,
				"y": -3.0436438142,
				"z": 0.0187204646,
				"element": "H" 
			},
			{
				"x": -2.1770336326,
				"y": 4.6861983966,
				"z": -0.4975798695,
				"element": "H" 
			},
			{
				"x": -1.5110433466,
				"y": 3.9555955674,
				"z": 2.0308333319,
				"element": "H" 
			}
		],
		 "valence_orbital": [ 
			{
				"type": "occ",
				"energy": -0.3022,
				"method": "rhf"
			},
			{
				"type": "occ",
				"energy": -0.28416,
				"method": "rhf"
			},
			{
				"type": "occ",
				"energy": -0.28067,
				"method": "rhf"
			},
			{
				"type": "occ",
				"energy": -0.26407,
				"method": "rhf"
			},
			{
				"type": "occ",
				"energy": -0.22526,
				"method": "rhf"
			},
			{
				"type": "unocc",
				"energy": -0.10343,
				"method": "rhf"
			},
			{
				"type": "unocc",
				"energy": -0.02358,
				"method": "rhf"
			},
			{
				"type": "unocc",
				"energy": -0.00943,
				"method": "rhf"
			},
			{
				"type": "unocc",
				"energy": 0.05607,
				"method": "rhf"
			},
			{
				"type": "unocc",
				"energy": 0.05891,
				"method": "rhf"
			}
		],
		"cosmo_sigma_profile": { 
			"-0.025": 0.0,
			"-0.024": 0.0,
			"-0.023": 0.0,
			"-0.022": 0.0,
			"-0.021": 0.0,
			"-0.02": 0.0,
			"-0.019": 0.0,
			"-0.018": 0.0,
			"-0.017": 0.0,
			"-0.016": 0.0,
			"-0.015": 0.0,
			"-0.014": 0.0,
			"-0.013": 0.0,
			"-0.012": 0.0,
			"-0.011": 0.00935036272184,
			"-0.01": 2.67205243023,
			"-0.009": 3.55322056112,
			"-0.008": 3.95569816278,
			"-0.007": 7.22378067748,
			"-0.006": 14.9249492265,
			"-0.005": 18.2477059548,
			"-0.004": 18.5420200858,
			"-0.003": 21.7562960752,
			"-0.002": 15.267698463,
			"-0.001": 13.5396377559,
			"0.0": 15.4563885791,
			"0.001": 17.2520624912,
			"0.002": 11.795073362,
			"0.003": 9.17620843836,
			"0.004": 8.32812631568,
			"0.005": 6.40840689248,
			"0.006": 6.09634229887,
			"0.007": 5.07498623732,
			"0.008": 7.33883373781,
			"0.009": 6.47975866185,
			"0.01": 10.0983166423,
			"0.011": 5.47372415966,
			"0.012": 1.23301264114,
			"0.013": 0.54292996068,
			"0.014": 0.0,
			"0.015": 0.0,
			"0.016": 0.0,
			"0.017": 0.0,
			"0.018": 0.0,
			"0.019": 0.0,
			"0.02": 0.0,
			"0.021": 0.0,
			"0.022": 0.0,
			"0.023": 0.0,
			"0.024": 0.0,
			"0.025": 0.0
		}
	}
}
