{
	 "smiles": "COC1=CC=C(C=C1)C(=O)OC1=CC=C(C=CC(=O)C2=CC=CC=C2)C=C1", 
	 "Tm": 429.15, 
	 "num_atms": 45, 
	 "gaussian": { 
		 "optdone": 1, 
		 "sigma_profile": "yes", 
		 "theory": "DFT", 
		 "functional": "B3LYP", 
		 "basiset": "6-31G**", 
		 "properties": { 
			 "R2extent": 23641.3304, 
			 "electric_dipole_moment_norm": 5.8428081288, 
			 "electric_quadrupole_moment_norm": 50.6931256638, 
			 "total_energy": -1188.18083463, 
			 "HOMO_LUMO_gap": 0.15358, 
			 "cosmo_polarized_energy": -17.57, 
			 "cosmo_cavitation_energy": 51.45, 
			 "cosmo_dispersion_energy": -36.62, 
			 "cosmo_repulsion_energy": 2.72, 
			 "cosmo_total_nonelectrostatic_energy": 17.55, 
			 "SMD_solvation_energy": 10.84 
		},
		"coords": [
			{
				"x": 6.0313614439,
				"y": 6.9425827855,
				"z": 1.7174052018,
				"element": "C" 
			},
			{
				"x": 4.6185129399,
				"y": 7.074408732,
				"z": 1.8081456463,
				"element": "O" 
			},
			{
				"x": 3.8522661073,
				"y": 5.9589141139,
				"z": 1.7055668082,
				"element": "C" 
			},
			{
				"x": 4.354569941,
				"y": 4.6633031016,
				"z": 1.5124218931,
				"element": "C" 
			},
			{
				"x": 3.4720281968,
				"y": 3.5890100365,
				"z": 1.4217100657,
				"element": "C" 
			},
			{
				"x": 2.0890583584,
				"y": 3.785967123,
				"z": 1.5196491105,
				"element": "C" 
			},
			{
				"x": 1.597305139,
				"y": 5.0902856613,
				"z": 1.7129375654,
				"element": "C" 
			},
			{
				"x": 2.4642723641,
				"y": 6.1642755618,
				"z": 1.805545057,
				"element": "C" 
			},
			{
				"x": 1.1055332316,
				"y": 2.6848424434,
				"z": 1.4280310518,
				"element": "C" 
			},
			{
				"x": -0.0970058905,
				"y": 2.8174894366,
				"z": 1.4978609516,
				"element": "O" 
			},
			{
				"x": 1.7311651879,
				"y": 1.4697693805,
				"z": 1.2566507943,
				"element": "O" 
			},
			{
				"x": 1.026098445,
				"y": 0.282082213,
				"z": 1.1310208216,
				"element": "C" 
			},
			{
				"x": 1.652378259,
				"y": -0.8408846277,
				"z": 1.6827204821,
				"element": "C" 
			},
			{
				"x": 1.0715524594,
				"y": -2.0940088631,
				"z": 1.5524727724,
				"element": "C" 
			},
			{
				"x": -0.1496637236,
				"y": -2.2571760746,
				"z": 0.8690785533,
				"element": "C" 
			},
			{
				"x": -0.8109660593,
				"y": -3.5517862992,
				"z": 0.6961328302,
				"element": "C" 
			},
			{
				"x": -0.4075346985,
				"y": -4.7452889801,
				"z": 1.1799025706,
				"element": "C" 
			},
			{
				"x": -1.1612220289,
				"y": -6.017228499,
				"z": 1.086940893,
				"element": "C" 
			},
			{
				"x": -0.9671165187,
				"y": -6.884363219,
				"z": 1.9362839099,
				"element": "O" 
			},
			{
				"x": -2.1642157991,
				"y": -6.2549326454,
				"z": -0.0066536087,
				"element": "C" 
			},
			{
				"x": -3.2419153267,
				"y": -7.1103525678,
				"z": 0.2724223808,
				"element": "C" 
			},
			{
				"x": -4.1840385515,
				"y": -7.4035968981,
				"z": -0.709129657,
				"element": "C" 
			},
			{
				"x": -4.0470198128,
				"y": -6.8671766855,
				"z": -1.9933409657,
				"element": "C" 
			},
			{
				"x": -2.9633561146,
				"y": -6.0392062094,
				"z": -2.2895008563,
				"element": "C" 
			},
			{
				"x": -2.0278773025,
				"y": -5.7294929338,
				"z": -1.3007594622,
				"element": "C" 
			},
			{
				"x": -0.7518836017,
				"y": -1.1096462503,
				"z": 0.3223586602,
				"element": "C" 
			},
			{
				"x": -0.1813521239,
				"y": 0.1550948391,
				"z": 0.4414354227,
				"element": "C" 
			},
			{
				"x": 6.4283849015,
				"y": 6.3064858273,
				"z": 2.5180120255,
				"element": "H" 
			},
			{
				"x": 6.3358383061,
				"y": 6.5340152965,
				"z": 0.7460045567,
				"element": "H" 
			},
			{
				"x": 6.4331729627,
				"y": 7.950654087,
				"z": 1.8258660311,
				"element": "H" 
			},
			{
				"x": 5.419910761,
				"y": 4.4845215941,
				"z": 1.4327023844,
				"element": "H" 
			},
			{
				"x": 3.8607642731,
				"y": 2.5884372235,
				"z": 1.2727806278,
				"element": "H" 
			},
			{
				"x": 0.524966536,
				"y": 5.2349132956,
				"z": 1.7879628374,
				"element": "H" 
			},
			{
				"x": 2.1010255701,
				"y": 7.1754447196,
				"z": 1.9549457622,
				"element": "H" 
			},
			{
				"x": 2.592968011,
				"y": -0.7106899614,
				"z": 2.2075806695,
				"element": "H" 
			},
			{
				"x": 1.5721564499,
				"y": -2.9531007109,
				"z": 1.9868458696,
				"element": "H" 
			},
			{
				"x": -1.7386846361,
				"y": -3.5150630158,
				"z": 0.129027396,
				"element": "H" 
			},
			{
				"x": 0.4742014194,
				"y": -4.8279329219,
				"z": 1.8104792674,
				"element": "H" 
			},
			{
				"x": -3.3175132728,
				"y": -7.5354405725,
				"z": 1.2678096903,
				"element": "H" 
			},
			{
				"x": -5.0220390499,
				"y": -8.0551758784,
				"z": -0.4786121172,
				"element": "H" 
			},
			{
				"x": -4.7783402212,
				"y": -7.1013572502,
				"z": -2.7618166737,
				"element": "H" 
			},
			{
				"x": -2.8419682362,
				"y": -5.6380611716,
				"z": -3.291642199,
				"element": "H" 
			},
			{
				"x": -1.1748080034,
				"y": -5.1045611226,
				"z": -1.5428990722,
				"element": "H" 
			},
			{
				"x": -1.6934219729,
				"y": -1.2111986207,
				"z": -0.21101299,
				"element": "H" 
			},
			{
				"x": -0.6687483192,
				"y": 1.0236245073,
				"z": 0.0219570416,
				"element": "H" 
			}
		],
		 "valence_orbital": [ 
			{
				"type": "occ",
				"energy": -0.25618,
				"method": "rhf"
			},
			{
				"type": "occ",
				"energy": -0.25534,
				"method": "rhf"
			},
			{
				"type": "occ",
				"energy": -0.24027,
				"method": "rhf"
			},
			{
				"type": "occ",
				"energy": -0.23799,
				"method": "rhf"
			},
			{
				"type": "occ",
				"energy": -0.22501,
				"method": "rhf"
			},
			{
				"type": "unocc",
				"energy": -0.07143,
				"method": "rhf"
			},
			{
				"type": "unocc",
				"energy": -0.04684,
				"method": "rhf"
			},
			{
				"type": "unocc",
				"energy": -0.02315,
				"method": "rhf"
			},
			{
				"type": "unocc",
				"energy": -0.01442,
				"method": "rhf"
			},
			{
				"type": "unocc",
				"energy": -0.01152,
				"method": "rhf"
			}
		],
		"cosmo_sigma_profile": { 
			"-0.025": 0.0,
			"-0.024": 0.0,
			"-0.023": 0.0,
			"-0.022": 0.0,
			"-0.021": 0.0,
			"-0.02": 0.0,
			"-0.019": 0.0,
			"-0.018": 0.0,
			"-0.017": 0.0,
			"-0.016": 0.0,
			"-0.015": 0.0,
			"-0.014": 0.0,
			"-0.013": 0.0,
			"-0.012": 0.0,
			"-0.011": 0.0,
			"-0.01": 0.0,
			"-0.009": 0.133251733506,
			"-0.008": 2.89974679915,
			"-0.007": 10.5517517212,
			"-0.006": 31.2069350941,
			"-0.005": 34.0372884067,
			"-0.004": 34.3763799772,
			"-0.003": 29.7373767502,
			"-0.002": 27.1089193662,
			"-0.001": 25.5223097684,
			"0.0": 28.6826714995,
			"0.001": 32.9776856793,
			"0.002": 38.9857304139,
			"0.003": 42.6651695729,
			"0.004": 26.603126317,
			"0.005": 9.46302705344,
			"0.006": 4.47293052733,
			"0.007": 5.40029521081,
			"0.008": 3.67001570779,
			"0.009": 5.08467971479,
			"0.01": 4.88600087262,
			"0.011": 6.16383380187,
			"0.012": 4.5273284505,
			"0.013": 3.68071942149,
			"0.014": 0.693736695094,
			"0.015": 0.0,
			"0.016": 0.0,
			"0.017": 0.0,
			"0.018": 0.0,
			"0.019": 0.0,
			"0.02": 0.0,
			"0.021": 0.0,
			"0.022": 0.0,
			"0.023": 0.0,
			"0.024": 0.0,
			"0.025": 0.0
		}
	}
}
