{
	 "smiles": "COC1=CC=C(C=C1)C1=CSC(=N1)C(=N/NC1=CC=C(Br)C=C1)C#N", 
	 "Tm": 469.15, 
	 "num_atms": 38, 
	 "gaussian": { 
		 "optdone": 1, 
		 "sigma_profile": "yes", 
		 "theory": "DFT", 
		 "functional": "B3LYP", 
		 "basiset": "6-31G**", 
		 "properties": { 
			 "R2extent": 17148.8909, 
			 "electric_dipole_moment_norm": 3.62736899143, 
			 "electric_quadrupole_moment_norm": 36.6832135964, 
			 "total_energy": -3957.48164801, 
			 "HOMO_LUMO_gap": 0.11799, 
			 "cosmo_polarized_energy": -19.59, 
			 "cosmo_cavitation_energy": 48.38, 
			 "cosmo_dispersion_energy": -34.08, 
			 "cosmo_repulsion_energy": 2.55, 
			 "cosmo_total_nonelectrostatic_energy": 16.85, 
			 "SMD_solvation_energy": 7.26 
		},
		"coords": [
			{
				"x": 0.9014339306,
				"y": 5.0116683997,
				"z": 4.7384510209,
				"element": "C" 
			},
			{
				"x": -0.335549815,
				"y": 4.5317312481,
				"z": 4.2323926319,
				"element": "O" 
			},
			{
				"x": -0.3514608786,
				"y": 3.3222578546,
				"z": 3.6062239742,
				"element": "C" 
			},
			{
				"x": 0.7686220537,
				"y": 2.5031178508,
				"z": 3.4191831939,
				"element": "C" 
			},
			{
				"x": 0.6310762625,
				"y": 1.2812995704,
				"z": 2.7612313231,
				"element": "C" 
			},
			{
				"x": -0.6111624809,
				"y": 0.8473830235,
				"z": 2.2791725219,
				"element": "C" 
			},
			{
				"x": -1.725314685,
				"y": 1.6854839498,
				"z": 2.4723944596,
				"element": "C" 
			},
			{
				"x": -1.602109999,
				"y": 2.9018462835,
				"z": 3.124818175,
				"element": "C" 
			},
			{
				"x": -0.7212440045,
				"y": -0.4533000037,
				"z": 1.5960636692,
				"element": "C" 
			},
			{
				"x": -1.8810101005,
				"y": -1.0829458793,
				"z": 1.1866229977,
				"element": "C" 
			},
			{
				"x": -1.5408862645,
				"y": -2.5815069012,
				"z": 0.4132970948,
				"element": "S" 
			},
			{
				"x": 0.1710447311,
				"y": -2.2924808627,
				"z": 0.6981676836,
				"element": "C" 
			},
			{
				"x": 0.4190287266,
				"y": -1.1651867497,
				"z": 1.3161551351,
				"element": "N" 
			},
			{
				"x": 1.2366072094,
				"y": -3.2750519213,
				"z": 0.4590724985,
				"element": "C" 
			},
			{
				"x": 1.2611109992,
				"y": -4.3626796309,
				"z": -0.2544487337,
				"element": "N" 
			},
			{
				"x": 0.208879868,
				"y": -4.6769802698,
				"z": -1.072544161,
				"element": "N" 
			},
			{
				"x": -0.2434158132,
				"y": -3.8784502377,
				"z": -2.1657419585,
				"element": "C" 
			},
			{
				"x": 0.3584443562,
				"y": -2.674959768,
				"z": -2.5503268677,
				"element": "C" 
			},
			{
				"x": -0.1219635736,
				"y": -1.9771248332,
				"z": -3.6581887518,
				"element": "C" 
			},
			{
				"x": -1.1969361442,
				"y": -2.4824549461,
				"z": -4.3856799018,
				"element": "C" 
			},
			{
				"x": -1.8520221729,
				"y": -1.5217800178,
				"z": -5.8996435962,
				"element": "Br" 
			},
			{
				"x": -1.8014952169,
				"y": -3.6838884487,
				"z": -4.0160546017,
				"element": "C" 
			},
			{
				"x": -1.3274126779,
				"y": -4.3740820568,
				"z": -2.9047856387,
				"element": "C" 
			},
			{
				"x": 2.4442892595,
				"y": -3.0580021316,
				"z": 1.2246780368,
				"element": "C" 
			},
			{
				"x": 3.4258478897,
				"y": -2.8908287508,
				"z": 1.8235208913,
				"element": "N" 
			},
			{
				"x": 1.6415989019,
				"y": 5.1430772705,
				"z": 3.9390145981,
				"element": "H" 
			},
			{
				"x": 1.3136345841,
				"y": 4.3401273205,
				"z": 5.502193078,
				"element": "H" 
			},
			{
				"x": 0.6855774452,
				"y": 5.9806119981,
				"z": 5.190900433,
				"element": "H" 
			},
			{
				"x": 1.7458104626,
				"y": 2.8015751173,
				"z": 3.7795170302,
				"element": "H" 
			},
			{
				"x": 1.498339359,
				"y": 0.6463014645,
				"z": 2.6179552132,
				"element": "H" 
			},
			{
				"x": -2.7027905797,
				"y": 1.39082711,
				"z": 2.1018480034,
				"element": "H" 
			},
			{
				"x": -2.4587819676,
				"y": 3.5509446577,
				"z": 3.2727629417,
				"element": "H" 
			},
			{
				"x": -2.9029993249,
				"y": -0.7502397509,
				"z": 1.2950953871,
				"element": "H" 
			},
			{
				"x": 0.3145607796,
				"y": -5.6459165662,
				"z": -1.3502105795,
				"element": "H" 
			},
			{
				"x": 1.2076109495,
				"y": -2.2815522004,
				"z": -2.0047073252,
				"element": "H" 
			},
			{
				"x": 0.3481292928,
				"y": -1.0467232633,
				"z": -3.9553896554,
				"element": "H" 
			},
			{
				"x": -2.6386861333,
				"y": -4.0725854764,
				"z": -4.5843345932,
				"element": "H" 
			},
			{
				"x": -1.8041052291,
				"y": -5.3023324527,
				"z": -2.6020756278,
				"element": "H" 
			}
		],
		 "valence_orbital": [ 
			{
				"type": "occ",
				"energy": -0.27808,
				"method": "rhf"
			},
			{
				"type": "occ",
				"energy": -0.26312,
				"method": "rhf"
			},
			{
				"type": "occ",
				"energy": -0.25556,
				"method": "rhf"
			},
			{
				"type": "occ",
				"energy": -0.22442,
				"method": "rhf"
			},
			{
				"type": "occ",
				"energy": -0.20972,
				"method": "rhf"
			},
			{
				"type": "unocc",
				"energy": -0.09173,
				"method": "rhf"
			},
			{
				"type": "unocc",
				"energy": -0.03305,
				"method": "rhf"
			},
			{
				"type": "unocc",
				"energy": -0.0307,
				"method": "rhf"
			},
			{
				"type": "unocc",
				"energy": -0.01753,
				"method": "rhf"
			},
			{
				"type": "unocc",
				"energy": -0.00759,
				"method": "rhf"
			}
		],
		"cosmo_sigma_profile": { 
			"-0.025": 0.0,
			"-0.024": 0.0,
			"-0.023": 0.0,
			"-0.022": 0.0,
			"-0.021": 0.0,
			"-0.02": 0.0,
			"-0.019": 0.0,
			"-0.018": 0.0,
			"-0.017": 0.0,
			"-0.016": 0.769499370717,
			"-0.015": 1.24617626593,
			"-0.014": 1.6706914082,
			"-0.013": 0.633107627439,
			"-0.012": 0.807876376754,
			"-0.011": 1.41743448154,
			"-0.01": 3.66491328785,
			"-0.009": 4.01009038188,
			"-0.008": 7.07266771426,
			"-0.007": 11.8925487483,
			"-0.006": 18.8993823038,
			"-0.005": 24.0029766755,
			"-0.004": 24.1350788363,
			"-0.003": 27.0464242674,
			"-0.002": 21.4850101779,
			"-0.001": 22.0042902069,
			"0.0": 26.8884497504,
			"0.001": 31.4794854235,
			"0.002": 39.0767235785,
			"0.003": 37.1268481263,
			"0.004": 29.0366593405,
			"0.005": 21.2144174743,
			"0.006": 7.66498613901,
			"0.007": 8.00757925,
			"0.008": 7.36231434042,
			"0.009": 6.08712753417,
			"0.01": 5.36305802588,
			"0.011": 2.80808644541,
			"0.012": 2.10843605255,
			"0.013": 0.319530568434,
			"0.014": 0.0,
			"0.015": 0.0,
			"0.016": 0.0,
			"0.017": 0.0,
			"0.018": 0.0,
			"0.019": 0.0,
			"0.02": 0.0,
			"0.021": 0.0,
			"0.022": 0.0,
			"0.023": 0.0,
			"0.024": 0.0,
			"0.025": 0.0
		}
	}
}
