{
	 "smiles": "CC1=CC=CC=C1C=CC(O)=O", 
	 "Tm": 449.15, 
	 "num_atms": 22, 
	 "gaussian": { 
		 "optdone": 1, 
		 "sigma_profile": "yes", 
		 "theory": "DFT", 
		 "functional": "B3LYP", 
		 "basiset": "6-31G**", 
		 "properties": { 
			 "R2extent": 2481.3513, 
			 "electric_dipole_moment_norm": 2.68294482612, 
			 "electric_quadrupole_moment_norm": 13.1041870644, 
			 "total_energy": -537.537768007, 
			 "HOMO_LUMO_gap": 0.17579, 
			 "cosmo_polarized_energy": -10.55, 
			 "cosmo_cavitation_energy": 26.15, 
			 "cosmo_dispersion_energy": -18.78, 
			 "cosmo_repulsion_energy": 1.52, 
			 "cosmo_total_nonelectrostatic_energy": 8.89, 
			 "SMD_solvation_energy": 5.84 
		},
		"coords": [
			{
				"x": -1.1033435864,
				"y": -1.8977207665,
				"z": -0.4070507908,
				"element": "C" 
			},
			{
				"x": -0.5591962885,
				"y": -0.6196099664,
				"z": -1.002123748,
				"element": "C" 
			},
			{
				"x": -1.210494294,
				"y": -0.021304785,
				"z": -2.0856296454,
				"element": "C" 
			},
			{
				"x": -0.7342375669,
				"y": 1.157009037,
				"z": -2.6609438054,
				"element": "C" 
			},
			{
				"x": 0.4140328909,
				"y": 1.7618679907,
				"z": -2.149643308,
				"element": "C" 
			},
			{
				"x": 1.0685255478,
				"y": 1.1894791589,
				"z": -1.0626742155,
				"element": "C" 
			},
			{
				"x": 0.5947727263,
				"y": 0.0073763761,
				"z": -0.470528681,
				"element": "C" 
			},
			{
				"x": 1.3302227524,
				"y": -0.6459716258,
				"z": 0.6269601974,
				"element": "C" 
			},
			{
				"x": 1.9198377951,
				"y": -0.1506870497,
				"z": 1.7343437815,
				"element": "C" 
			},
			{
				"x": 1.9204032714,
				"y": 1.2114334107,
				"z": 2.3085203161,
				"element": "C" 
			},
			{
				"x": 1.0641948247,
				"y": 2.0918325441,
				"z": 1.7347820113,
				"element": "O" 
			},
			{
				"x": 2.6120846786,
				"y": 1.5194303903,
				"z": 3.2618124267,
				"element": "O" 
			},
			{
				"x": -1.3111822936,
				"y": -1.7924343722,
				"z": 0.663171255,
				"element": "H" 
			},
			{
				"x": -0.3956976804,
				"y": -2.7300132516,
				"z": -0.5139486904,
				"element": "H" 
			},
			{
				"x": -2.0315891043,
				"y": -2.1932032893,
				"z": -0.9026430457,
				"element": "H" 
			},
			{
				"x": -2.105430142,
				"y": -0.4912105673,
				"z": -2.4855424322,
				"element": "H" 
			},
			{
				"x": -1.2548148077,
				"y": 1.5955143043,
				"z": -3.5075652034,
				"element": "H" 
			},
			{
				"x": 0.8017494121,
				"y": 2.67233975,
				"z": -2.5969731822,
				"element": "H" 
			},
			{
				"x": 1.9676400984,
				"y": 1.649991018,
				"z": -0.6700933337,
				"element": "H" 
			},
			{
				"x": 1.4278267227,
				"y": -1.7262385735,
				"z": 0.5127176227,
				"element": "H" 
			},
			{
				"x": 2.4782810346,
				"y": -0.8358169415,
				"z": 2.3646898265,
				"element": "H" 
			},
			{
				"x": 1.1639140086,
				"y": 2.9141372086,
				"z": 2.2430626442,
				"element": "H" 
			}
		],
		 "valence_orbital": [ 
			{
				"type": "occ",
				"energy": -0.31467,
				"method": "rhf"
			},
			{
				"type": "occ",
				"energy": -0.29324,
				"method": "rhf"
			},
			{
				"type": "occ",
				"energy": -0.27164,
				"method": "rhf"
			},
			{
				"type": "occ",
				"energy": -0.24701,
				"method": "rhf"
			},
			{
				"type": "occ",
				"energy": -0.23617,
				"method": "rhf"
			},
			{
				"type": "unocc",
				"energy": -0.06038,
				"method": "rhf"
			},
			{
				"type": "unocc",
				"energy": -0.00019,
				"method": "rhf"
			},
			{
				"type": "unocc",
				"energy": 0.01025,
				"method": "rhf"
			},
			{
				"type": "unocc",
				"energy": 0.07769,
				"method": "rhf"
			},
			{
				"type": "unocc",
				"energy": 0.09132,
				"method": "rhf"
			}
		],
		"cosmo_sigma_profile": { 
			"-0.025": 0.0,
			"-0.024": 0.0,
			"-0.023": 0.0,
			"-0.022": 0.0,
			"-0.021": 0.0,
			"-0.02": 0.0,
			"-0.019": 0.0,
			"-0.018": 0.455444401154,
			"-0.017": 0.86408147131,
			"-0.016": 0.783481276571,
			"-0.015": 0.784775281334,
			"-0.014": 0.701753674002,
			"-0.013": 0.804491848511,
			"-0.012": 0.359133145739,
			"-0.011": 0.786955463875,
			"-0.01": 0.993936077954,
			"-0.009": 0.582967920389,
			"-0.008": 0.491919729251,
			"-0.007": 2.68533777984,
			"-0.006": 9.19891133978,
			"-0.005": 16.7807007287,
			"-0.004": 17.3435691368,
			"-0.003": 16.745688377,
			"-0.002": 16.8091890145,
			"-0.001": 15.963007683,
			"0.0": 18.0003179923,
			"0.001": 13.9900011391,
			"0.002": 12.0402450333,
			"0.003": 12.0412151639,
			"0.004": 9.74348106831,
			"0.005": 10.3697874711,
			"0.006": 6.85214158691,
			"0.007": 2.85003467952,
			"0.008": 2.47929135543,
			"0.009": 3.4782765478,
			"0.01": 2.53767639342,
			"0.011": 2.54421412325,
			"0.012": 5.6291899603,
			"0.013": 2.12139665941,
			"0.014": 0.0690816871274,
			"0.015": 0.0,
			"0.016": 0.0,
			"0.017": 0.0,
			"0.018": 0.0,
			"0.019": 0.0,
			"0.02": 0.0,
			"0.021": 0.0,
			"0.022": 0.0,
			"0.023": 0.0,
			"0.024": 0.0,
			"0.025": 0.0
		}
	}
}
