{
	 "smiles": "COC(=O)C1=CC(OC)=C(O)C(CC=C)=C1", 
	 "Tm": 350.15, 
	 "num_atms": 30, 
	 "gaussian": { 
		 "optdone": 1, 
		 "sigma_profile": "yes", 
		 "theory": "DFT", 
		 "functional": "B3LYP", 
		 "basiset": "6-31G**", 
		 "properties": { 
			 "R2extent": 4830.1957, 
			 "electric_dipole_moment_norm": 2.56428941034, 
			 "electric_quadrupole_moment_norm": 6.42763698648, 
			 "total_energy": -766.585592467, 
			 "HOMO_LUMO_gap": 0.17714, 
			 "cosmo_polarized_energy": -13.19, 
			 "cosmo_cavitation_energy": 34.09, 
			 "cosmo_dispersion_energy": -24.38, 
			 "cosmo_repulsion_energy": 1.91, 
			 "cosmo_total_nonelectrostatic_energy": 11.63, 
			 "SMD_solvation_energy": 8.71 
		},
		"coords": [
			{
				"x": -3.7615487651,
				"y": 2.8032322409,
				"z": -2.7936648007,
				"element": "C" 
			},
			{
				"x": -2.6893018237,
				"y": 2.2731341698,
				"z": -2.0033825401,
				"element": "O" 
			},
			{
				"x": -2.218015292,
				"y": 1.0669589157,
				"z": -2.4089657958,
				"element": "C" 
			},
			{
				"x": -2.6721956144,
				"y": 0.4754782924,
				"z": -3.371887043,
				"element": "O" 
			},
			{
				"x": -1.1107340107,
				"y": 0.5698194556,
				"z": -1.5570459226,
				"element": "C" 
			},
			{
				"x": -0.5500110469,
				"y": -0.6756412382,
				"z": -1.8879556024,
				"element": "C" 
			},
			{
				"x": 0.4864895572,
				"y": -1.2013632799,
				"z": -1.1278653842,
				"element": "C" 
			},
			{
				"x": 1.0971712554,
				"y": -2.3968821242,
				"z": -1.3552373969,
				"element": "O" 
			},
			{
				"x": 0.6499397001,
				"y": -3.1651921469,
				"z": -2.460701423,
				"element": "C" 
			},
			{
				"x": 0.977802107,
				"y": -0.4730826085,
				"z": -0.0145124642,
				"element": "C" 
			},
			{
				"x": 1.9950434468,
				"y": -1.0437723098,
				"z": 0.6804058585,
				"element": "O" 
			},
			{
				"x": 0.4318867781,
				"y": 0.7807589727,
				"z": 0.3088965096,
				"element": "C" 
			},
			{
				"x": 1.0032839349,
				"y": 1.5940918523,
				"z": 1.4599396637,
				"element": "C" 
			},
			{
				"x": 0.9628030288,
				"y": 0.8897790578,
				"z": 2.7972974969,
				"element": "C" 
			},
			{
				"x": 2.0166170124,
				"y": 0.7132826007,
				"z": 3.6006172783,
				"element": "C" 
			},
			{
				"x": -0.6177454593,
				"y": 1.2862571677,
				"z": -0.4660088793,
				"element": "C" 
			},
			{
				"x": -3.4462411421,
				"y": 2.9428908799,
				"z": -3.8310316369,
				"element": "H" 
			},
			{
				"x": -4.0169243439,
				"y": 3.7612304103,
				"z": -2.3399430364,
				"element": "H" 
			},
			{
				"x": -4.6232981408,
				"y": 2.1307444328,
				"z": -2.7787764986,
				"element": "H" 
			},
			{
				"x": -0.9561198123,
				"y": -1.2042104681,
				"z": -2.7407542488,
				"element": "H" 
			},
			{
				"x": 0.7851985928,
				"y": -2.6285366702,
				"z": -3.4086172049,
				"element": "H" 
			},
			{
				"x": -0.4063027379,
				"y": -3.4462517073,
				"z": -2.3586235492,
				"element": "H" 
			},
			{
				"x": 1.2638202598,
				"y": -4.0671128597,
				"z": -2.4661928993,
				"element": "H" 
			},
			{
				"x": 2.0708358449,
				"y": -0.6166408611,
				"z": 1.5489248917,
				"element": "H" 
			},
			{
				"x": 0.4277493473,
				"y": 2.525069142,
				"z": 1.5334206388,
				"element": "H" 
			},
			{
				"x": 2.0395996401,
				"y": 1.8864798182,
				"z": 1.2409853204,
				"element": "H" 
			},
			{
				"x": -0.0103987537,
				"y": 0.5020633216,
				"z": 3.0985160178,
				"element": "H" 
			},
			{
				"x": 1.9274019921,
				"y": 0.204034141,
				"z": 4.5553671071,
				"element": "H" 
			},
			{
				"x": 3.0032288868,
				"y": 1.0901747363,
				"z": 3.3379298231,
				"element": "H" 
			},
			{
				"x": -1.0467344419,
				"y": 2.2517066665,
				"z": -0.2222342794,
				"element": "H" 
			}
		],
		 "valence_orbital": [ 
			{
				"type": "occ",
				"energy": -0.29323,
				"method": "rhf"
			},
			{
				"type": "occ",
				"energy": -0.27886,
				"method": "rhf"
			},
			{
				"type": "occ",
				"energy": -0.26452,
				"method": "rhf"
			},
			{
				"type": "occ",
				"energy": -0.23602,
				"method": "rhf"
			},
			{
				"type": "occ",
				"energy": -0.20768,
				"method": "rhf"
			},
			{
				"type": "unocc",
				"energy": -0.03054,
				"method": "rhf"
			},
			{
				"type": "unocc",
				"energy": -0.00958,
				"method": "rhf"
			},
			{
				"type": "unocc",
				"energy": 0.01408,
				"method": "rhf"
			},
			{
				"type": "unocc",
				"energy": 0.07024,
				"method": "rhf"
			},
			{
				"type": "unocc",
				"energy": 0.08782,
				"method": "rhf"
			}
		],
		"cosmo_sigma_profile": { 
			"-0.025": 0.0,
			"-0.024": 0.0,
			"-0.023": 0.0,
			"-0.022": 0.0,
			"-0.021": 0.0,
			"-0.02": 0.0,
			"-0.019": 0.0,
			"-0.018": 0.0,
			"-0.017": 0.0,
			"-0.016": 0.0,
			"-0.015": 0.0,
			"-0.014": 0.0,
			"-0.013": 0.0,
			"-0.012": 0.0,
			"-0.011": 0.0,
			"-0.01": 0.0,
			"-0.009": 0.117367504896,
			"-0.008": 1.47259603769,
			"-0.007": 2.75384782764,
			"-0.006": 17.2857827525,
			"-0.005": 28.8509674843,
			"-0.004": 27.9006826426,
			"-0.003": 30.8920738986,
			"-0.002": 20.5571479447,
			"-0.001": 18.2465589734,
			"0.0": 15.5240123666,
			"0.001": 13.5298034061,
			"0.002": 19.0090532827,
			"0.003": 17.3024602613,
			"0.004": 13.5438642829,
			"0.005": 7.61533906833,
			"0.006": 6.65516191711,
			"0.007": 3.55628807398,
			"0.008": 2.10306200839,
			"0.009": 4.54759775913,
			"0.01": 3.45503933288,
			"0.011": 4.73007461803,
			"0.012": 5.79518668433,
			"0.013": 3.20304034891,
			"0.014": 1.49926014978,
			"0.015": 0.301879582234,
			"0.016": 0.0,
			"0.017": 0.0,
			"0.018": 0.0,
			"0.019": 0.0,
			"0.02": 0.0,
			"0.021": 0.0,
			"0.022": 0.0,
			"0.023": 0.0,
			"0.024": 0.0,
			"0.025": 0.0
		}
	}
}
