{
	 "smiles": "CC(Br)C(=O)C1=CC=C(Cl)C=C1", 
	 "Tm": 342.15, 
	 "num_atms": 20, 
	 "gaussian": { 
		 "optdone": 1, 
		 "sigma_profile": "yes", 
		 "theory": "DFT", 
		 "functional": "B3LYP", 
		 "basiset": "6-31G**", 
		 "properties": { 
			 "R2extent": 4830.7277, 
			 "electric_dipole_moment_norm": 2.04835871126, 
			 "electric_quadrupole_moment_norm": 4.6789799337, 
			 "total_energy": -3454.60672096, 
			 "HOMO_LUMO_gap": 0.17902, 
			 "cosmo_polarized_energy": -8.18, 
			 "cosmo_cavitation_energy": 28.06, 
			 "cosmo_dispersion_energy": -20.78, 
			 "cosmo_repulsion_energy": 1.66, 
			 "cosmo_total_nonelectrostatic_energy": 8.94, 
			 "SMD_solvation_energy": 3.92 
		},
		"coords": [
			{
				"x": 0.1528414988,
				"y": 2.3970052173,
				"z": -0.9303993105,
				"element": "C" 
			},
			{
				"x": 0.3898803991,
				"y": 1.0921577688,
				"z": -0.1955953457,
				"element": "C" 
			},
			{
				"x": 0.633876906,
				"y": 1.4485358071,
				"z": 1.7640703505,
				"element": "Br" 
			},
			{
				"x": -0.7809130544,
				"y": 0.1076364747,
				"z": -0.3228914384,
				"element": "C" 
			},
			{
				"x": -1.8639620471,
				"y": 0.5201866733,
				"z": -0.7056648181,
				"element": "O" 
			},
			{
				"x": -0.5674434146,
				"y": -1.3431476464,
				"z": -0.0298381501,
				"element": "C" 
			},
			{
				"x": -1.6365993109,
				"y": -2.217299168,
				"z": -0.2861030964,
				"element": "C" 
			},
			{
				"x": -1.5122514807,
				"y": -3.5839913046,
				"z": -0.0672174279,
				"element": "C" 
			},
			{
				"x": -0.3012181832,
				"y": -4.0836655725,
				"z": 0.4179544361,
				"element": "C" 
			},
			{
				"x": -0.1310211565,
				"y": -5.8057850717,
				"z": 0.6962331253,
				"element": "Cl" 
			},
			{
				"x": 0.7751308312,
				"y": -3.2377099313,
				"z": 0.687644372,
				"element": "C" 
			},
			{
				"x": 0.6368496906,
				"y": -1.8701985639,
				"z": 0.4621033445,
				"element": "C" 
			},
			{
				"x": 0.0805768174,
				"y": 2.1956717188,
				"z": -2.0052775471,
				"element": "H" 
			},
			{
				"x": 0.9778731871,
				"y": 3.0909046312,
				"z": -0.7582882447,
				"element": "H" 
			},
			{
				"x": -0.7841628378,
				"y": 2.8550235677,
				"z": -0.6119210786,
				"element": "H" 
			},
			{
				"x": 1.3309742885,
				"y": 0.626135992,
				"z": -0.4884879009,
				"element": "H" 
			},
			{
				"x": -2.5636836558,
				"y": -1.7992404989,
				"z": -0.6630228446,
				"element": "H" 
			},
			{
				"x": -2.3370692836,
				"y": -4.2584560937,
				"z": -0.2680562947,
				"element": "H" 
			},
			{
				"x": 1.70321619,
				"y": -3.6448681592,
				"z": 1.0724678327,
				"element": "H" 
			},
			{
				"x": 1.4703046158,
				"y": -1.2192958408,
				"z": 0.7007900367,
				"element": "H" 
			}
		],
		 "valence_orbital": [ 
			{
				"type": "occ",
				"energy": -0.2946,
				"method": "rhf"
			},
			{
				"type": "occ",
				"energy": -0.28734,
				"method": "rhf"
			},
			{
				"type": "occ",
				"energy": -0.2768,
				"method": "rhf"
			},
			{
				"type": "occ",
				"energy": -0.26476,
				"method": "rhf"
			},
			{
				"type": "occ",
				"energy": -0.2603,
				"method": "rhf"
			},
			{
				"type": "unocc",
				"energy": -0.08128,
				"method": "rhf"
			},
			{
				"type": "unocc",
				"energy": -0.02713,
				"method": "rhf"
			},
			{
				"type": "unocc",
				"energy": -0.02088,
				"method": "rhf"
			},
			{
				"type": "unocc",
				"energy": 0.0195,
				"method": "rhf"
			},
			{
				"type": "unocc",
				"energy": 0.03896,
				"method": "rhf"
			}
		],
		"cosmo_sigma_profile": { 
			"-0.025": 0.0,
			"-0.024": 0.0,
			"-0.023": 0.0,
			"-0.022": 0.0,
			"-0.021": 0.0,
			"-0.02": 0.0,
			"-0.019": 0.0,
			"-0.018": 0.0,
			"-0.017": 0.0,
			"-0.016": 0.0,
			"-0.015": 0.0,
			"-0.014": 0.0,
			"-0.013": 0.0,
			"-0.012": 0.0,
			"-0.011": 0.0,
			"-0.01": 0.587869609771,
			"-0.009": 2.40036752623,
			"-0.008": 5.83620928235,
			"-0.007": 8.91419735492,
			"-0.006": 9.63740161222,
			"-0.005": 11.4037146444,
			"-0.004": 12.1437345641,
			"-0.003": 13.0369854202,
			"-0.002": 13.5301055085,
			"-0.001": 19.3309929733,
			"0.0": 21.4307126336,
			"0.001": 23.8425378958,
			"0.002": 26.5071945614,
			"0.003": 16.63190348,
			"0.004": 18.7890223125,
			"0.005": 11.2401662818,
			"0.006": 2.68140888167,
			"0.007": 1.2892215603,
			"0.008": 2.18798297978,
			"0.009": 2.00106510512,
			"0.01": 2.72008554723,
			"0.011": 3.28593726715,
			"0.012": 0.172402517613,
			"0.013": 0.0,
			"0.014": 0.0,
			"0.015": 0.0,
			"0.016": 0.0,
			"0.017": 0.0,
			"0.018": 0.0,
			"0.019": 0.0,
			"0.02": 0.0,
			"0.021": 0.0,
			"0.022": 0.0,
			"0.023": 0.0,
			"0.024": 0.0,
			"0.025": 0.0
		}
	}
}
