{
	 "smiles": "OC(=O)CC1=CC=C(OCC2=NC=CC=C2)C=C1", 
	 "Tm": 427.15, 
	 "num_atms": 31, 
	 "gaussian": { 
		 "optdone": 1, 
		 "sigma_profile": "yes", 
		 "theory": "DFT", 
		 "functional": "B3LYP", 
		 "basiset": "6-31G**", 
		 "properties": { 
			 "R2extent": 7205.5701, 
			 "electric_dipole_moment_norm": 1.70457172627, 
			 "electric_quadrupole_moment_norm": 11.9993962648, 
			 "total_energy": -821.751790113, 
			 "HOMO_LUMO_gap": 0.18718, 
			 "cosmo_polarized_energy": -14.71, 
			 "cosmo_cavitation_energy": 36.03, 
			 "cosmo_dispersion_energy": -25.55, 
			 "cosmo_repulsion_energy": 2.0, 
			 "cosmo_total_nonelectrostatic_energy": 12.48, 
			 "SMD_solvation_energy": 6.02 
		},
		"coords": [
			{
				"x": 1.507497504,
				"y": -3.0535193614,
				"z": -3.7394093854,
				"element": "O" 
			},
			{
				"x": 0.3952520152,
				"y": -2.2909304158,
				"z": -3.596091207,
				"element": "C" 
			},
			{
				"x": -0.7212102218,
				"y": -2.7530185913,
				"z": -3.6664317296,
				"element": "O" 
			},
			{
				"x": 0.7552353271,
				"y": -0.8264370987,
				"z": -3.3974384035,
				"element": "C" 
			},
			{
				"x": -0.2132026626,
				"y": -0.0541560742,
				"z": -2.5292993377,
				"element": "C" 
			},
			{
				"x": 0.2184972174,
				"y": 0.5330675179,
				"z": -1.3389568271,
				"element": "C" 
			},
			{
				"x": -0.6475315232,
				"y": 1.2677159832,
				"z": -0.5227778075,
				"element": "C" 
			},
			{
				"x": -1.9821772284,
				"y": 1.4225264676,
				"z": -0.9084592454,
				"element": "C" 
			},
			{
				"x": -2.9270454803,
				"y": 2.1258043797,
				"z": -0.2048260844,
				"element": "O" 
			},
			{
				"x": -2.5248351656,
				"y": 2.8354810229,
				"z": 0.9609728042,
				"element": "C" 
			},
			{
				"x": -2.3433240707,
				"y": 1.9557528799,
				"z": 2.1855607571,
				"element": "C" 
			},
			{
				"x": -1.4819052656,
				"y": 2.418084072,
				"z": 3.1031405131,
				"element": "N" 
			},
			{
				"x": -1.3235473047,
				"y": 1.70395552,
				"z": 4.2247639247,
				"element": "C" 
			},
			{
				"x": -1.9957138843,
				"y": 0.5088867286,
				"z": 4.4804444934,
				"element": "C" 
			},
			{
				"x": -2.8842564346,
				"y": 0.0332106825,
				"z": 3.5155960118,
				"element": "C" 
			},
			{
				"x": -3.0664447625,
				"y": 0.7691140254,
				"z": 2.3471405134,
				"element": "C" 
			},
			{
				"x": -2.4328838145,
				"y": 0.8350951117,
				"z": -2.0995405342,
				"element": "C" 
			},
			{
				"x": -1.5588381933,
				"y": 0.108205522,
				"z": -2.8965864004,
				"element": "C" 
			},
			{
				"x": 1.1922612637,
				"y": -3.9582109533,
				"z": -3.9061994605,
				"element": "H" 
			},
			{
				"x": 0.7967702253,
				"y": -0.3951434504,
				"z": -4.4084206795,
				"element": "H" 
			},
			{
				"x": 1.7716852807,
				"y": -0.7679703529,
				"z": -3.0007699151,
				"element": "H" 
			},
			{
				"x": 1.2544493303,
				"y": 0.4181062839,
				"z": -1.0291569463,
				"element": "H" 
			},
			{
				"x": -0.2747899357,
				"y": 1.6929121671,
				"z": 0.4013379979,
				"element": "H" 
			},
			{
				"x": -3.3350870663,
				"y": 3.5503075768,
				"z": 1.1426258767,
				"element": "H" 
			},
			{
				"x": -1.6087042017,
				"y": 3.4118568546,
				"z": 0.7908526684,
				"element": "H" 
			},
			{
				"x": -0.6183174345,
				"y": 2.1057332825,
				"z": 4.9504702073,
				"element": "H" 
			},
			{
				"x": -1.8221799925,
				"y": -0.0320246341,
				"z": 5.4052731441,
				"element": "H" 
			},
			{
				"x": -3.4262304556,
				"y": -0.8953691289,
				"z": 3.6710076587,
				"element": "H" 
			},
			{
				"x": -3.7438040554,
				"y": 0.4397705792,
				"z": 1.5669182855,
				"element": "H" 
			},
			{
				"x": -3.4724677473,
				"y": 0.9671315253,
				"z": -2.3815825777,
				"element": "H" 
			},
			{
				"x": -1.9247512625,
				"y": -0.3513381214,
				"z": -3.8086583152,
				"element": "H" 
			}
		],
		 "valence_orbital": [ 
			{
				"type": "occ",
				"energy": -0.27607,
				"method": "rhf"
			},
			{
				"type": "occ",
				"energy": -0.26011,
				"method": "rhf"
			},
			{
				"type": "occ",
				"energy": -0.25904,
				"method": "rhf"
			},
			{
				"type": "occ",
				"energy": -0.24563,
				"method": "rhf"
			},
			{
				"type": "occ",
				"energy": -0.2152,
				"method": "rhf"
			},
			{
				"type": "unocc",
				"energy": -0.02802,
				"method": "rhf"
			},
			{
				"type": "unocc",
				"energy": -0.01536,
				"method": "rhf"
			},
			{
				"type": "unocc",
				"energy": 0.00098,
				"method": "rhf"
			},
			{
				"type": "unocc",
				"energy": 0.0081,
				"method": "rhf"
			},
			{
				"type": "unocc",
				"energy": 0.01754,
				"method": "rhf"
			}
		],
		"cosmo_sigma_profile": { 
			"-0.025": 0.0,
			"-0.024": 0.0,
			"-0.023": 0.0,
			"-0.022": 0.0,
			"-0.021": 0.0,
			"-0.02": 0.0,
			"-0.019": 0.0,
			"-0.018": 0.656554217385,
			"-0.017": 0.966778556844,
			"-0.016": 0.900890921326,
			"-0.015": 0.415149406624,
			"-0.014": 0.923434123343,
			"-0.013": 0.680106114753,
			"-0.012": 0.89888310582,
			"-0.011": 0.707444902389,
			"-0.01": 0.840062210018,
			"-0.009": 0.402677674226,
			"-0.008": 0.752984499703,
			"-0.007": 9.63573935271,
			"-0.006": 20.1370548641,
			"-0.005": 23.4208387136,
			"-0.004": 22.8325279744,
			"-0.003": 21.7906531314,
			"-0.002": 18.4540865035,
			"-0.001": 16.1826857609,
			"0.0": 14.5990382591,
			"0.001": 18.1308262765,
			"0.002": 22.6360502687,
			"0.003": 23.7709390118,
			"0.004": 12.7466430957,
			"0.005": 13.6661032761,
			"0.006": 9.05185002264,
			"0.007": 5.56556523549,
			"0.008": 5.02168605616,
			"0.009": 5.87396217167,
			"0.01": 4.20878142741,
			"0.011": 4.94831634856,
			"0.012": 4.05320969277,
			"0.013": 0.578757319647,
			"0.014": 0.975451456301,
			"0.015": 0.6632738181,
			"0.016": 0.23792866434,
			"0.017": 0.0,
			"0.018": 0.0,
			"0.019": 0.0,
			"0.02": 0.0,
			"0.021": 0.0,
			"0.022": 0.0,
			"0.023": 0.0,
			"0.024": 0.0,
			"0.025": 0.0
		}
	}
}
