{
	 "smiles": "NS(=O)(=O)C1=CC(=C(Br)C=C1)C(F)(F)F", 
	 "Tm": 460.15, 
	 "num_atms": 20, 
	 "gaussian": { 
		 "optdone": 1, 
		 "sigma_profile": "yes", 
		 "theory": "DFT", 
		 "functional": "B3LYP", 
		 "basiset": "6-31G**", 
		 "properties": { 
			 "R2extent": 6673.8403, 
			 "electric_dipole_moment_norm": 4.58550209356, 
			 "electric_quadrupole_moment_norm": 20.3904097955, 
			 "total_energy": -3743.99705461, 
			 "HOMO_LUMO_gap": 0.2046, 
			 "cosmo_polarized_energy": -18.21, 
			 "cosmo_cavitation_energy": 29.71, 
			 "cosmo_dispersion_energy": -22.05, 
			 "cosmo_repulsion_energy": 1.63, 
			 "cosmo_total_nonelectrostatic_energy": 9.29, 
			 "SMD_solvation_energy": 4.85 
		},
		"coords": [
			{
				"x": -0.4556975268,
				"y": 1.923029965,
				"z": 2.1705643564,
				"element": "N" 
			},
			{
				"x": 0.1049819812,
				"y": 2.669867934,
				"z": 0.7799747197,
				"element": "S" 
			},
			{
				"x": 1.4531426494,
				"y": 3.135757645,
				"z": 1.0943354044,
				"element": "O" 
			},
			{
				"x": -0.9729315902,
				"y": 3.5518587682,
				"z": 0.3412878966,
				"element": "O" 
			},
			{
				"x": 0.2780218197,
				"y": 1.3844616427,
				"z": -0.471981738,
				"element": "C" 
			},
			{
				"x": -0.81253358,
				"y": 1.0627417231,
				"z": -1.27761766,
				"element": "C" 
			},
			{
				"x": -0.7041815168,
				"y": 0.054945728,
				"z": -2.2385456636,
				"element": "C" 
			},
			{
				"x": 0.5218101815,
				"y": -0.6161062363,
				"z": -2.3798806126,
				"element": "C" 
			},
			{
				"x": 0.7722923937,
				"y": -2.003684593,
				"z": -3.6572610596,
				"element": "Br" 
			},
			{
				"x": 1.6154092901,
				"y": -0.2763624709,
				"z": -1.5815872594,
				"element": "C" 
			},
			{
				"x": 1.4986970569,
				"y": 0.7279465295,
				"z": -0.6237775626,
				"element": "C" 
			},
			{
				"x": -1.9126744442,
				"y": -0.2677994477,
				"z": -3.0933095336,
				"element": "C" 
			},
			{
				"x": -1.6648278009,
				"y": -0.0759446583,
				"z": -4.4023123007,
				"element": "F" 
			},
			{
				"x": -2.963238471,
				"y": 0.5138619842,
				"z": -2.7648344761,
				"element": "F" 
			},
			{
				"x": -2.3040115742,
				"y": -1.5478917767,
				"z": -2.9335941247,
				"element": "F" 
			},
			{
				"x": -1.3985229756,
				"y": 1.5578676262,
				"z": 2.0884757623,
				"element": "H" 
			},
			{
				"x": 0.2058332406,
				"y": 1.2748029666,
				"z": 2.5841671209,
				"element": "H" 
			},
			{
				"x": -1.741426893,
				"y": 1.6103433546,
				"z": -1.1747400547,
				"element": "H" 
			},
			{
				"x": 2.5563396269,
				"y": -0.7959743289,
				"z": -1.7192761594,
				"element": "H" 
			},
			{
				"x": 2.3497181327,
				"y": 1.0154776449,
				"z": -0.0156870552,
				"element": "H" 
			}
		],
		 "valence_orbital": [ 
			{
				"type": "occ",
				"energy": -0.31894,
				"method": "rhf"
			},
			{
				"type": "occ",
				"energy": -0.31797,
				"method": "rhf"
			},
			{
				"type": "occ",
				"energy": -0.30834,
				"method": "rhf"
			},
			{
				"type": "occ",
				"energy": -0.30259,
				"method": "rhf"
			},
			{
				"type": "occ",
				"energy": -0.27375,
				"method": "rhf"
			},
			{
				"type": "unocc",
				"energy": -0.06915,
				"method": "rhf"
			},
			{
				"type": "unocc",
				"energy": -0.05532,
				"method": "rhf"
			},
			{
				"type": "unocc",
				"energy": -0.01834,
				"method": "rhf"
			},
			{
				"type": "unocc",
				"energy": 0.03995,
				"method": "rhf"
			},
			{
				"type": "unocc",
				"energy": 0.06075,
				"method": "rhf"
			}
		],
		"cosmo_sigma_profile": { 
			"-0.025": 0.0,
			"-0.024": 0.0,
			"-0.023": 0.0,
			"-0.022": 0.0,
			"-0.021": 0.0,
			"-0.02": 0.0,
			"-0.019": 0.0,
			"-0.018": 0.0,
			"-0.017": 0.0,
			"-0.016": 0.931721205805,
			"-0.015": 3.06864627385,
			"-0.014": 2.79372679102,
			"-0.013": 2.88150211456,
			"-0.012": 3.13972122492,
			"-0.011": 2.61459839549,
			"-0.01": 1.76383376404,
			"-0.009": 3.61007937742,
			"-0.008": 5.85565243585,
			"-0.007": 6.6519837682,
			"-0.006": 6.60444467099,
			"-0.005": 7.49824322018,
			"-0.004": 9.81704133521,
			"-0.003": 9.50338286133,
			"-0.002": 14.0021635738,
			"-0.001": 23.2117462798,
			"0.0": 17.470804714,
			"0.001": 15.6648606783,
			"0.002": 31.9166216502,
			"0.003": 25.3754366302,
			"0.004": 7.10379279888,
			"0.005": 2.83619798483,
			"0.006": 3.7537924631,
			"0.007": 4.90335061495,
			"0.008": 4.03007342929,
			"0.009": 4.85203515807,
			"0.01": 8.99281628485,
			"0.011": 9.47155335092,
			"0.012": 1.36291593107,
			"0.013": 0.0,
			"0.014": 0.0,
			"0.015": 0.0,
			"0.016": 0.0,
			"0.017": 0.0,
			"0.018": 0.0,
			"0.019": 0.0,
			"0.02": 0.0,
			"0.021": 0.0,
			"0.022": 0.0,
			"0.023": 0.0,
			"0.024": 0.0,
			"0.025": 0.0
		}
	}
}
