{
	 "smiles": "COC1=CC=C(C=C1)C(=O)OC(COC1=CC=C(C=CC(=O)C2=CC=CC=C2)C=C1)COC1=CC=C(C=C1)C(=O)C=CC1=CC=CC=C1", 
	 "Tm": 347.15, 
	 "num_atms": 82, 
	 "gaussian": { 
		 "optdone": 1, 
		 "sigma_profile": "yes", 
		 "theory": "DFT", 
		 "functional": "B3LYP", 
		 "basiset": "6-31G**", 
		 "properties": { 
			 "R2extent": 61177.71, 
			 "electric_dipole_moment_norm": 8.37774080883, 
			 "electric_quadrupole_moment_norm": 54.3582921695, 
			 "total_energy": -2109.39424917, 
			 "HOMO_LUMO_gap": 0.14423, 
			 "cosmo_polarized_energy": -30.99, 
			 "cosmo_cavitation_energy": 89.8, 
			 "cosmo_dispersion_energy": -61.39, 
			 "cosmo_repulsion_energy": 4.51, 
			 "cosmo_total_nonelectrostatic_energy": 32.93, 
			 "SMD_solvation_energy": 17.44 
		},
		"coords": [
			{
				"x": -5.5534001927,
				"y": -0.0395743961,
				"z": 7.129036282,
				"element": "C" 
			},
			{
				"x": -5.1981147664,
				"y": 1.1455470685,
				"z": 6.4277767615,
				"element": "O" 
			},
			{
				"x": -4.0553144735,
				"y": 1.1522350908,
				"z": 5.696343973,
				"element": "C" 
			},
			{
				"x": -3.181380322,
				"y": 0.0611732797,
				"z": 5.5754807004,
				"element": "C" 
			},
			{
				"x": -2.0334636815,
				"y": 0.1822801693,
				"z": 4.7954871449,
				"element": "C" 
			},
			{
				"x": -1.7410011038,
				"y": 1.3794363215,
				"z": 4.1306814943,
				"element": "C" 
			},
			{
				"x": -2.6253514957,
				"y": 2.4662945138,
				"z": 4.257944533,
				"element": "C" 
			},
			{
				"x": -3.7680568307,
				"y": 2.3575383565,
				"z": 5.0301329823,
				"element": "C" 
			},
			{
				"x": -0.5374113231,
				"y": 1.5540314314,
				"z": 3.2900657061,
				"element": "C" 
			},
			{
				"x": -0.2696764438,
				"y": 2.5661190674,
				"z": 2.6647775027,
				"element": "O" 
			},
			{
				"x": 0.2629820908,
				"y": 0.4525879981,
				"z": 3.2865268153,
				"element": "O" 
			},
			{
				"x": 1.4184946651,
				"y": 0.4934234485,
				"z": 2.4254820889,
				"element": "C" 
			},
			{
				"x": 1.7642033738,
				"y": -0.9404831809,
				"z": 2.0699143372,
				"element": "C" 
			},
			{
				"x": 0.7541917622,
				"y": -1.4256933221,
				"z": 1.1934640626,
				"element": "O" 
			},
			{
				"x": 0.8335349283,
				"y": -2.709404054,
				"z": 0.7483923935,
				"element": "C" 
			},
			{
				"x": 1.8605316075,
				"y": -3.6047031896,
				"z": 1.0700569776,
				"element": "C" 
			},
			{
				"x": 1.8272710881,
				"y": -4.8974821405,
				"z": 0.549486802,
				"element": "C" 
			},
			{
				"x": 0.7924331393,
				"y": -5.3363147049,
				"z": -0.2931133041,
				"element": "C" 
			},
			{
				"x": 0.8258578794,
				"y": -6.7025392708,
				"z": -0.7982031387,
				"element": "C" 
			},
			{
				"x": -0.0589702358,
				"y": -7.314878372,
				"z": -1.6138281755,
				"element": "C" 
			},
			{
				"x": 0.1660659786,
				"y": -8.7193141866,
				"z": -2.027370583,
				"element": "C" 
			},
			{
				"x": 1.1826807875,
				"y": -9.3277244522,
				"z": -1.6929148776,
				"element": "O" 
			},
			{
				"x": -0.8610914955,
				"y": -9.4049041723,
				"z": -2.8854182708,
				"element": "C" 
			},
			{
				"x": -2.1479645002,
				"y": -8.8957604339,
				"z": -3.1194053665,
				"element": "C" 
			},
			{
				"x": -3.0531906668,
				"y": -9.5974638947,
				"z": -3.9163333651,
				"element": "C" 
			},
			{
				"x": -2.6822297264,
				"y": -10.8123443778,
				"z": -4.4944747796,
				"element": "C" 
			},
			{
				"x": -1.4039106534,
				"y": -11.3303890316,
				"z": -4.2647597464,
				"element": "C" 
			},
			{
				"x": -0.5046806142,
				"y": -10.6347573594,
				"z": -3.4628912237,
				"element": "C" 
			},
			{
				"x": -0.2301414491,
				"y": -4.4113501637,
				"z": -0.6027352418,
				"element": "C" 
			},
			{
				"x": -0.2133554369,
				"y": -3.1253384342,
				"z": -0.0944092911,
				"element": "C" 
			},
			{
				"x": 2.5651347881,
				"y": 1.1889926721,
				"z": 3.1759676539,
				"element": "C" 
			},
			{
				"x": 3.7345524101,
				"y": 1.3030230416,
				"z": 2.3727699298,
				"element": "O" 
			},
			{
				"x": 3.86400989,
				"y": 2.3591667522,
				"z": 1.5069931441,
				"element": "C" 
			},
			{
				"x": 2.8711406558,
				"y": 3.3124529074,
				"z": 1.2523645136,
				"element": "C" 
			},
			{
				"x": 3.133927119,
				"y": 4.3399600961,
				"z": 0.3431291137,
				"element": "C" 
			},
			{
				"x": 4.3664686597,
				"y": 4.4383449497,
				"z": -0.3155696579,
				"element": "C" 
			},
			{
				"x": 5.3564101566,
				"y": 3.4812380295,
				"z": -0.0245822892,
				"element": "C" 
			},
			{
				"x": 5.1089946611,
				"y": 2.4476502518,
				"z": 0.8627485211,
				"element": "C" 
			},
			{
				"x": 4.7247033383,
				"y": 5.551643452,
				"z": -1.2488369394,
				"element": "C" 
			},
			{
				"x": 5.9005920855,
				"y": 5.8849625032,
				"z": -1.3889031212,
				"element": "O" 
			},
			{
				"x": 3.6898063085,
				"y": 6.2655768053,
				"z": -2.0383369533,
				"element": "C" 
			},
			{
				"x": 2.5212145048,
				"y": 5.7427953402,
				"z": -2.4615416882,
				"element": "C" 
			},
			{
				"x": 1.5351916684,
				"y": 6.3749030637,
				"z": -3.3446802489,
				"element": "C" 
			},
			{
				"x": 0.3947348391,
				"y": 5.639287327,
				"z": -3.7157134747,
				"element": "C" 
			},
			{
				"x": -0.5777214312,
				"y": 6.1884262616,
				"z": -4.5493212666,
				"element": "C" 
			},
			{
				"x": -0.4296875164,
				"y": 7.4900651135,
				"z": -5.0297555565,
				"element": "C" 
			},
			{
				"x": 0.6974802058,
				"y": 8.2361460183,
				"z": -4.6695709402,
				"element": "C" 
			},
			{
				"x": 1.6681679326,
				"y": 7.6875274219,
				"z": -3.8379959494,
				"element": "C" 
			},
			{
				"x": -4.7934801655,
				"y": -0.3102447841,
				"z": 7.8722691834,
				"element": "H" 
			},
			{
				"x": -6.4913627629,
				"y": 0.1845241981,
				"z": 7.6382940208,
				"element": "H" 
			},
			{
				"x": -5.7058035227,
				"y": -0.882199703,
				"z": 6.4435649165,
				"element": "H" 
			},
			{
				"x": -3.3865519138,
				"y": -0.8758687713,
				"z": 6.078536299,
				"element": "H" 
			},
			{
				"x": -1.3597623242,
				"y": -0.661226418,
				"z": 4.6985417338,
				"element": "H" 
			},
			{
				"x": -2.392800114,
				"y": 3.3894057289,
				"z": 3.7380965034,
				"element": "H" 
			},
			{
				"x": -4.4600596192,
				"y": 3.185718499,
				"z": 5.1394762203,
				"element": "H" 
			},
			{
				"x": 1.1678819031,
				"y": 1.0489294105,
				"z": 1.518921275,
				"element": "H" 
			},
			{
				"x": 2.7472524739,
				"y": -0.9574697812,
				"z": 1.5831814475,
				"element": "H" 
			},
			{
				"x": 1.8104326848,
				"y": -1.552035387,
				"z": 2.9816251793,
				"element": "H" 
			},
			{
				"x": 2.6813155779,
				"y": -3.3096735882,
				"z": 1.7126133455,
				"element": "H" 
			},
			{
				"x": 2.6279399403,
				"y": -5.5874175917,
				"z": 0.8023321477,
				"element": "H" 
			},
			{
				"x": 1.6720534609,
				"y": -7.3103859528,
				"z": -0.4800116847,
				"element": "H" 
			},
			{
				"x": -0.9268464686,
				"y": -6.7885961539,
				"z": -1.9948559555,
				"element": "H" 
			},
			{
				"x": -2.4632027051,
				"y": -7.9614382647,
				"z": -2.6675094314,
				"element": "H" 
			},
			{
				"x": -4.0483387631,
				"y": -9.1956856709,
				"z": -4.084062481,
				"element": "H" 
			},
			{
				"x": -3.3864617027,
				"y": -11.3549085441,
				"z": -5.1189527847,
				"element": "H" 
			},
			{
				"x": -1.1125381943,
				"y": -12.2770472399,
				"z": -4.7108272921,
				"element": "H" 
			},
			{
				"x": 0.48911485,
				"y": -11.0203388537,
				"z": -3.2623543665,
				"element": "H" 
			},
			{
				"x": -1.0492005153,
				"y": -4.7075451962,
				"z": -1.2505874261,
				"element": "H" 
			},
			{
				"x": -0.9980509825,
				"y": -2.4141363583,
				"z": -0.330377627,
				"element": "H" 
			},
			{
				"x": 2.2299676438,
				"y": 2.1657496227,
				"z": 3.5354913092,
				"element": "H" 
			},
			{
				"x": 2.858909179,
				"y": 0.5859680916,
				"z": 4.0408285781,
				"element": "H" 
			},
			{
				"x": 1.9006311983,
				"y": 3.2681873983,
				"z": 1.7344694609,
				"element": "H" 
			},
			{
				"x": 2.367602259,
				"y": 5.0879888426,
				"z": 0.1715378943,
				"element": "H" 
			},
			{
				"x": 6.3219302767,
				"y": 3.5754013979,
				"z": -0.510187369,
				"element": "H" 
			},
			{
				"x": 5.8633644744,
				"y": 1.7004420903,
				"z": 1.0868096591,
				"element": "H" 
			},
			{
				"x": 4.0255634084,
				"y": 7.2411204021,
				"z": -2.3810654409,
				"element": "H" 
			},
			{
				"x": 2.2668298579,
				"y": 4.7326607943,
				"z": -2.1474884969,
				"element": "H" 
			},
			{
				"x": 0.2760525594,
				"y": 4.6250092883,
				"z": -3.3429321907,
				"element": "H" 
			},
			{
				"x": -1.4493916601,
				"y": 5.6009844469,
				"z": -4.8228005127,
				"element": "H" 
			},
			{
				"x": -1.1848985818,
				"y": 7.9224590156,
				"z": -5.6795764792,
				"element": "H" 
			},
			{
				"x": 0.8180045002,
				"y": 9.2501802205,
				"z": -5.0398155891,
				"element": "H" 
			},
			{
				"x": 2.535341583,
				"y": 8.2818791965,
				"z": -3.5682420306,
				"element": "H" 
			}
		],
		 "valence_orbital": [ 
			{
				"type": "occ",
				"energy": -0.24064,
				"method": "rhf"
			},
			{
				"type": "occ",
				"energy": -0.23994,
				"method": "rhf"
			},
			{
				"type": "occ",
				"energy": -0.22923,
				"method": "rhf"
			},
			{
				"type": "occ",
				"energy": -0.22616,
				"method": "rhf"
			},
			{
				"type": "occ",
				"energy": -0.21694,
				"method": "rhf"
			},
			{
				"type": "unocc",
				"energy": -0.07271,
				"method": "rhf"
			},
			{
				"type": "unocc",
				"energy": -0.06613,
				"method": "rhf"
			},
			{
				"type": "unocc",
				"energy": -0.04983,
				"method": "rhf"
			},
			{
				"type": "unocc",
				"energy": -0.01953,
				"method": "rhf"
			},
			{
				"type": "unocc",
				"energy": -0.01913,
				"method": "rhf"
			}
		],
		"cosmo_sigma_profile": { 
			"-0.025": 0.0,
			"-0.024": 0.0,
			"-0.023": 0.0,
			"-0.022": 0.0,
			"-0.021": 0.0,
			"-0.02": 0.0,
			"-0.019": 0.0,
			"-0.018": 0.0,
			"-0.017": 0.0,
			"-0.016": 0.0,
			"-0.015": 0.0,
			"-0.014": 0.0,
			"-0.013": 0.0,
			"-0.012": 0.0,
			"-0.011": 0.0,
			"-0.01": 0.0,
			"-0.009": 0.910108921237,
			"-0.008": 6.13669234357,
			"-0.007": 22.8498996064,
			"-0.006": 53.8956140983,
			"-0.005": 60.7239127859,
			"-0.004": 58.4617527785,
			"-0.003": 46.9299886517,
			"-0.002": 43.276814994,
			"-0.001": 45.4256510831,
			"0.0": 45.6526683884,
			"0.001": 51.3380938439,
			"0.002": 62.3351041027,
			"0.003": 72.7567400671,
			"0.004": 64.617220563,
			"0.005": 23.6033359633,
			"0.006": 8.14199082818,
			"0.007": 9.44641879616,
			"0.008": 8.54058052378,
			"0.009": 6.86912421928,
			"0.01": 5.86180453089,
			"0.011": 5.72464596721,
			"0.012": 7.49121175688,
			"0.013": 7.86598441791,
			"0.014": 1.26816890852,
			"0.015": 0.0,
			"0.016": 0.0,
			"0.017": 0.0,
			"0.018": 0.0,
			"0.019": 0.0,
			"0.02": 0.0,
			"0.021": 0.0,
			"0.022": 0.0,
			"0.023": 0.0,
			"0.024": 0.0,
			"0.025": 0.0
		}
	}
}
