{
	 "smiles": "COC1=CC=C2N=C(Cl)C(C=O)=CC2=C1", 
	 "Tm": 423.15, 
	 "num_atms": 23, 
	 "gaussian": { 
		 "optdone": 1, 
		 "sigma_profile": "yes", 
		 "theory": "DFT", 
		 "functional": "B3LYP", 
		 "basiset": "6-31G**", 
		 "properties": { 
			 "R2extent": 4708.3276, 
			 "electric_dipole_moment_norm": 4.48920336474, 
			 "electric_quadrupole_moment_norm": 8.20454674068, 
			 "total_energy": -1089.36973465, 
			 "HOMO_LUMO_gap": 0.14633, 
			 "cosmo_polarized_energy": -10.64, 
			 "cosmo_cavitation_energy": 29.73, 
			 "cosmo_dispersion_energy": -22.04, 
			 "cosmo_repulsion_energy": 1.7, 
			 "cosmo_total_nonelectrostatic_energy": 9.39, 
			 "SMD_solvation_energy": 5.06 
		},
		"coords": [
			{
				"x": 3.6811764374,
				"y": -0.7681804336,
				"z": 1.5562178007,
				"element": "C" 
			},
			{
				"x": 3.3618837737,
				"y": -0.1772563957,
				"z": 0.3033581518,
				"element": "O" 
			},
			{
				"x": 2.0598808231,
				"y": -0.1580026959,
				"z": -0.0829662423,
				"element": "C" 
			},
			{
				"x": 1.8304405137,
				"y": 0.4526430452,
				"z": -1.3505662643,
				"element": "C" 
			},
			{
				"x": 0.5650962548,
				"y": 0.54495425,
				"z": -1.8715426441,
				"element": "C" 
			},
			{
				"x": -0.5452761347,
				"y": 0.0299165434,
				"z": -1.1513913165,
				"element": "C" 
			},
			{
				"x": -1.7908087769,
				"y": 0.1369029267,
				"z": -1.6962579615,
				"element": "N" 
			},
			{
				"x": -2.8011528913,
				"y": -0.3371345759,
				"z": -1.0303950425,
				"element": "C" 
			},
			{
				"x": -4.3851608783,
				"y": -0.1612792825,
				"z": -1.8020576291,
				"element": "Cl" 
			},
			{
				"x": -2.7140115194,
				"y": -0.970818424,
				"z": 0.2447848214,
				"element": "C" 
			},
			{
				"x": -3.8741688469,
				"y": -1.511329588,
				"z": 1.0020158226,
				"element": "C" 
			},
			{
				"x": -3.7582310168,
				"y": -2.0462157378,
				"z": 2.0897646335,
				"element": "O" 
			},
			{
				"x": -1.4495031924,
				"y": -1.0796546103,
				"z": 0.7983200623,
				"element": "C" 
			},
			{
				"x": -0.3164113111,
				"y": -0.5828992774,
				"z": 0.1203695527,
				"element": "C" 
			},
			{
				"x": 1.0019476303,
				"y": -0.6693711497,
				"z": 0.6440929707,
				"element": "C" 
			},
			{
				"x": 4.7623543064,
				"y": -0.6769236767,
				"z": 1.6651669159,
				"element": "H" 
			},
			{
				"x": 3.401147745,
				"y": -1.8286862306,
				"z": 1.5814949412,
				"element": "H" 
			},
			{
				"x": 3.1865922151,
				"y": -0.2441392276,
				"z": 2.3835607626,
				"element": "H" 
			},
			{
				"x": 2.6919705881,
				"y": 0.839820822,
				"z": -1.8848304829,
				"element": "H" 
			},
			{
				"x": 0.379481614,
				"y": 1.007440003,
				"z": -2.8348113258,
				"element": "H" 
			},
			{
				"x": -4.8616591189,
				"y": -1.4012530776,
				"z": 0.5200967018,
				"element": "H" 
			},
			{
				"x": -1.3600651236,
				"y": -1.5591953186,
				"z": 1.7695354492,
				"element": "H" 
			},
			{
				"x": 1.1480769089,
				"y": -1.1384378884,
				"z": 1.6099403227,
				"element": "H" 
			}
		],
		 "valence_orbital": [ 
			{
				"type": "occ",
				"energy": -0.30492,
				"method": "rhf"
			},
			{
				"type": "occ",
				"energy": -0.28505,
				"method": "rhf"
			},
			{
				"type": "occ",
				"energy": -0.26129,
				"method": "rhf"
			},
			{
				"type": "occ",
				"energy": -0.26013,
				"method": "rhf"
			},
			{
				"type": "occ",
				"energy": -0.23441,
				"method": "rhf"
			},
			{
				"type": "unocc",
				"energy": -0.08808,
				"method": "rhf"
			},
			{
				"type": "unocc",
				"energy": -0.04718,
				"method": "rhf"
			},
			{
				"type": "unocc",
				"energy": -0.00346,
				"method": "rhf"
			},
			{
				"type": "unocc",
				"energy": 0.01489,
				"method": "rhf"
			},
			{
				"type": "unocc",
				"energy": 0.02766,
				"method": "rhf"
			}
		],
		"cosmo_sigma_profile": { 
			"-0.025": 0.0,
			"-0.024": 0.0,
			"-0.023": 0.0,
			"-0.022": 0.0,
			"-0.021": 0.0,
			"-0.02": 0.0,
			"-0.019": 0.0,
			"-0.018": 0.0,
			"-0.017": 0.0,
			"-0.016": 0.0,
			"-0.015": 0.0,
			"-0.014": 0.0,
			"-0.013": 0.0,
			"-0.012": 0.0,
			"-0.011": 0.0,
			"-0.01": 0.0,
			"-0.009": 0.473994740515,
			"-0.008": 3.51541243278,
			"-0.007": 8.03692926053,
			"-0.006": 15.0867972104,
			"-0.005": 19.3457177571,
			"-0.004": 17.6539650586,
			"-0.003": 17.2021891866,
			"-0.002": 17.4302283978,
			"-0.001": 19.0262605445,
			"0.0": 20.0052363113,
			"0.001": 23.1135819458,
			"0.002": 20.1178020574,
			"0.003": 12.4143055182,
			"0.004": 10.04072172,
			"0.005": 7.03449577097,
			"0.006": 4.79210953423,
			"0.007": 5.08457529824,
			"0.008": 3.84369568442,
			"0.009": 5.20079327462,
			"0.01": 4.95876562213,
			"0.011": 4.42713036956,
			"0.012": 1.78773820717,
			"0.013": 0.794944756163,
			"0.014": 0.171767006992,
			"0.015": 0.0,
			"0.016": 0.0,
			"0.017": 0.0,
			"0.018": 0.0,
			"0.019": 0.0,
			"0.02": 0.0,
			"0.021": 0.0,
			"0.022": 0.0,
			"0.023": 0.0,
			"0.024": 0.0,
			"0.025": 0.0
		}
	}
}
