{
	 "smiles": "[O-][N+](=O)C1=C2C=CC=NC2=CC=C1F", 
	 "Tm": 358.15, 
	 "num_atms": 19, 
	 "gaussian": { 
		 "optdone": 1, 
		 "sigma_profile": "yes", 
		 "theory": "DFT", 
		 "functional": "B3LYP", 
		 "basiset": "6-31G**", 
		 "properties": { 
			 "R2extent": 3122.4064, 
			 "electric_dipole_moment_norm": 2.91489924011, 
			 "electric_quadrupole_moment_norm": 11.5178404321, 
			 "total_energy": -705.640794252, 
			 "HOMO_LUMO_gap": 0.17182, 
			 "cosmo_polarized_energy": -9.14, 
			 "cosmo_cavitation_energy": 25.34, 
			 "cosmo_dispersion_energy": -18.05, 
			 "cosmo_repulsion_energy": 1.37, 
			 "cosmo_total_nonelectrostatic_energy": 8.66, 
			 "SMD_solvation_energy": 5.93 
		},
		"coords": [
			{
				"x": 0.7997186365,
				"y": 1.9921007007,
				"z": 1.6319869512,
				"element": "O" 
			},
			{
				"x": 0.1943049223,
				"y": 1.1990434591,
				"z": 0.9188845054,
				"element": "N" 
			},
			{
				"x": -0.8284240752,
				"y": 1.4315773255,
				"z": 0.2833331438,
				"element": "O" 
			},
			{
				"x": 0.7696431312,
				"y": -0.1529911674,
				"z": 0.7862634468,
				"element": "C" 
			},
			{
				"x": 1.7112232166,
				"y": -0.4167323108,
				"z": -0.2390696014,
				"element": "C" 
			},
			{
				"x": 2.1595115932,
				"y": 0.5466701145,
				"z": -1.1787701944,
				"element": "C" 
			},
			{
				"x": 3.0777493205,
				"y": 0.1650298924,
				"z": -2.1270854771,
				"element": "C" 
			},
			{
				"x": 3.5458137813,
				"y": -1.1736393536,
				"z": -2.1360496136,
				"element": "C" 
			},
			{
				"x": 3.1548077828,
				"y": -2.0972671085,
				"z": -1.2818063162,
				"element": "N" 
			},
			{
				"x": 2.2444780045,
				"y": -1.7430734351,
				"z": -0.331626068,
				"element": "C" 
			},
			{
				"x": 1.8178115221,
				"y": -2.734677811,
				"z": 0.5938837108,
				"element": "C" 
			},
			{
				"x": 0.9014320152,
				"y": -2.4393224801,
				"z": 1.5757703904,
				"element": "C" 
			},
			{
				"x": 0.379581174,
				"y": -1.1332929801,
				"z": 1.6629658263,
				"element": "C" 
			},
			{
				"x": -0.5142577658,
				"y": -0.8479064793,
				"z": 2.6218788495,
				"element": "F" 
			},
			{
				"x": 1.7811194501,
				"y": 1.5635692463,
				"z": -1.1443503284,
				"element": "H" 
			},
			{
				"x": 3.4463611503,
				"y": 0.8709323994,
				"z": -2.8639838788,
				"element": "H" 
			},
			{
				"x": 4.2735326194,
				"y": -1.4834762994,
				"z": -2.8845706183,
				"element": "H" 
			},
			{
				"x": 2.2415571955,
				"y": -3.7279069069,
				"z": 0.4951980032,
				"element": "H" 
			},
			{
				"x": 0.5624363258,
				"y": -3.1800368058,
				"z": 2.2915472687,
				"element": "H" 
			}
		],
		 "valence_orbital": [ 
			{
				"type": "occ",
				"energy": -0.31823,
				"method": "rhf"
			},
			{
				"type": "occ",
				"energy": -0.30791,
				"method": "rhf"
			},
			{
				"type": "occ",
				"energy": -0.27599,
				"method": "rhf"
			},
			{
				"type": "occ",
				"energy": -0.27468,
				"method": "rhf"
			},
			{
				"type": "occ",
				"energy": -0.25475,
				"method": "rhf"
			},
			{
				"type": "unocc",
				"energy": -0.08293,
				"method": "rhf"
			},
			{
				"type": "unocc",
				"energy": -0.07926,
				"method": "rhf"
			},
			{
				"type": "unocc",
				"energy": -0.03975,
				"method": "rhf"
			},
			{
				"type": "unocc",
				"energy": -0.0069,
				"method": "rhf"
			},
			{
				"type": "unocc",
				"energy": 0.06419,
				"method": "rhf"
			}
		],
		"cosmo_sigma_profile": { 
			"-0.025": 0.0,
			"-0.024": 0.0,
			"-0.023": 0.0,
			"-0.022": 0.0,
			"-0.021": 0.0,
			"-0.02": 0.0,
			"-0.019": 0.0,
			"-0.018": 0.0,
			"-0.017": 0.0,
			"-0.016": 0.0,
			"-0.015": 0.0,
			"-0.014": 0.0,
			"-0.013": 0.0,
			"-0.012": 0.0,
			"-0.011": 0.0,
			"-0.01": 0.012355687446,
			"-0.009": 2.50812122743,
			"-0.008": 7.06322203397,
			"-0.007": 11.3747132781,
			"-0.006": 10.6923526769,
			"-0.005": 8.2422426914,
			"-0.004": 8.50708229123,
			"-0.003": 9.08763400631,
			"-0.002": 19.1554834623,
			"-0.001": 22.5021658954,
			"0.0": 19.7941567695,
			"0.001": 18.847874441,
			"0.002": 13.5920253682,
			"0.003": 10.3891013133,
			"0.004": 4.47924285306,
			"0.005": 5.00146773139,
			"0.006": 10.3706219025,
			"0.007": 10.4172953472,
			"0.008": 6.30319235329,
			"0.009": 2.19898761586,
			"0.01": 0.847494736825,
			"0.011": 1.11984062132,
			"0.012": 0.656212421508,
			"0.013": 0.643766230683,
			"0.014": 0.969980403519,
			"0.015": 0.354647147301,
			"0.016": 0.0437215560473,
			"0.017": 0.0,
			"0.018": 0.0,
			"0.019": 0.0,
			"0.02": 0.0,
			"0.021": 0.0,
			"0.022": 0.0,
			"0.023": 0.0,
			"0.024": 0.0,
			"0.025": 0.0
		}
	}
}
