{
	 "smiles": "NC1=CC(=NN1)C1=CC=NC=C1", 
	 "Tm": 468.15, 
	 "num_atms": 20, 
	 "gaussian": { 
		 "optdone": 1, 
		 "sigma_profile": "yes", 
		 "theory": "DFT", 
		 "functional": "B3LYP", 
		 "basiset": "6-31G**", 
		 "properties": { 
			 "R2extent": 2751.334, 
			 "electric_dipole_moment_norm": 6.19609601362, 
			 "electric_quadrupole_moment_norm": 12.1370601412, 
			 "total_energy": -528.654441447, 
			 "HOMO_LUMO_gap": 0.18589, 
			 "cosmo_polarized_energy": -17.77, 
			 "cosmo_cavitation_energy": 24.59, 
			 "cosmo_dispersion_energy": -18.57, 
			 "cosmo_repulsion_energy": 1.47, 
			 "cosmo_total_nonelectrostatic_energy": 7.49, 
			 "SMD_solvation_energy": 1.97 
		},
		"coords": [
			{
				"x": 0.8493852691,
				"y": -1.2634178321,
				"z": 3.1849970671,
				"element": "N" 
			},
			{
				"x": 0.9514399199,
				"y": -0.9531286267,
				"z": 1.8269853794,
				"element": "C" 
			},
			{
				"x": 0.0105216056,
				"y": -0.8085553191,
				"z": 0.8237864057,
				"element": "C" 
			},
			{
				"x": 0.7545341814,
				"y": -0.4045061646,
				"z": -0.3204024372,
				"element": "C" 
			},
			{
				"x": 2.0591930551,
				"y": -0.312491774,
				"z": -0.0477242123,
				"element": "N" 
			},
			{
				"x": 2.1527496125,
				"y": -0.6457842239,
				"z": 1.2619338496,
				"element": "N" 
			},
			{
				"x": 0.2601143234,
				"y": -0.11784069,
				"z": -1.6750451528,
				"element": "C" 
			},
			{
				"x": 1.1455046732,
				"y": 0.1810126606,
				"z": -2.7223291365,
				"element": "C" 
			},
			{
				"x": 0.6324459968,
				"y": 0.4474402866,
				"z": -3.9879245252,
				"element": "C" 
			},
			{
				"x": -0.6749273795,
				"y": 0.4380050767,
				"z": -4.2893094105,
				"element": "N" 
			},
			{
				"x": -1.5141140937,
				"y": 0.1528230017,
				"z": -3.2862650203,
				"element": "C" 
			},
			{
				"x": -1.10736836,
				"y": -0.1271903448,
				"z": -1.9826610176,
				"element": "C" 
			},
			{
				"x": 1.4553489778,
				"y": -2.0235639376,
				"z": 3.4760906124,
				"element": "H" 
			},
			{
				"x": -0.1041430194,
				"y": -1.468026027,
				"z": 3.4552409302,
				"element": "H" 
			},
			{
				"x": -1.0494820605,
				"y": -0.9943722528,
				"z": 0.9049713404,
				"element": "H" 
			},
			{
				"x": 3.0432296758,
				"y": -0.5694740928,
				"z": 1.7283725031,
				"element": "H" 
			},
			{
				"x": 2.2135582444,
				"y": 0.2010893739,
				"z": -2.5375989226,
				"element": "H" 
			},
			{
				"x": 1.3089598264,
				"y": 0.6809687792,
				"z": -4.8087005388,
				"element": "H" 
			},
			{
				"x": -2.5744113406,
				"y": 0.1478519841,
				"z": -3.5353846647,
				"element": "H" 
			},
			{
				"x": -1.8513391077,
				"y": -0.3437398775,
				"z": -1.2226330493,
				"element": "H" 
			}
		],
		 "valence_orbital": [ 
			{
				"type": "occ",
				"energy": -0.28928,
				"method": "rhf"
			},
			{
				"type": "occ",
				"energy": -0.25035,
				"method": "rhf"
			},
			{
				"type": "occ",
				"energy": -0.24217,
				"method": "rhf"
			},
			{
				"type": "occ",
				"energy": -0.23723,
				"method": "rhf"
			},
			{
				"type": "occ",
				"energy": -0.21678,
				"method": "rhf"
			},
			{
				"type": "unocc",
				"energy": -0.03089,
				"method": "rhf"
			},
			{
				"type": "unocc",
				"energy": 0.00164,
				"method": "rhf"
			},
			{
				"type": "unocc",
				"energy": 0.03554,
				"method": "rhf"
			},
			{
				"type": "unocc",
				"energy": 0.0587,
				"method": "rhf"
			},
			{
				"type": "unocc",
				"energy": 0.08718,
				"method": "rhf"
			}
		],
		"cosmo_sigma_profile": { 
			"-0.025": 0.0,
			"-0.024": 0.0,
			"-0.023": 0.0,
			"-0.022": 0.0,
			"-0.021": 0.0,
			"-0.02": 0.0,
			"-0.019": 0.0,
			"-0.018": 0.0,
			"-0.017": 0.207947369412,
			"-0.016": 1.28872371285,
			"-0.015": 1.72891677197,
			"-0.014": 1.37830580173,
			"-0.013": 4.63242603638,
			"-0.012": 3.2053847239,
			"-0.011": 4.43299479705,
			"-0.01": 3.61269955009,
			"-0.009": 3.78162701666,
			"-0.008": 2.87959246747,
			"-0.007": 5.56727727376,
			"-0.006": 9.96329510199,
			"-0.005": 9.8778083209,
			"-0.004": 10.1256790482,
			"-0.003": 7.43381616054,
			"-0.002": 7.62426571878,
			"-0.001": 7.45661553109,
			"0.0": 7.68484630155,
			"0.001": 9.54794636747,
			"0.002": 14.8154442211,
			"0.003": 23.2048307883,
			"0.004": 11.8182829703,
			"0.005": 10.8822938177,
			"0.006": 6.38736771506,
			"0.007": 3.20906678502,
			"0.008": 3.88580145064,
			"0.009": 3.70684222145,
			"0.01": 3.16362110067,
			"0.011": 2.9847224596,
			"0.012": 2.24600314512,
			"0.013": 3.28207278187,
			"0.014": 2.30632235342,
			"0.015": 0.458472837231,
			"0.016": 1.38475429847,
			"0.017": 0.54312498298,
			"0.018": 0.00267942537787,
			"0.019": 0.0,
			"0.02": 0.0,
			"0.021": 0.0,
			"0.022": 0.0,
			"0.023": 0.0,
			"0.024": 0.0,
			"0.025": 0.0
		}
	}
}
