{
	 "smiles": "OC(=O)CCC1=C(Cl)C=CC=C1Cl", 
	 "Tm": 369.15, 
	 "num_atms": 21, 
	 "gaussian": { 
		 "optdone": 1, 
		 "sigma_profile": "yes", 
		 "theory": "DFT", 
		 "functional": "B3LYP", 
		 "basiset": "6-31G**", 
		 "properties": { 
			 "R2extent": 3101.0772, 
			 "electric_dipole_moment_norm": 5.20270012013, 
			 "electric_quadrupole_moment_norm": 13.7275654972, 
			 "total_energy": -1418.62125244, 
			 "HOMO_LUMO_gap": 0.22076, 
			 "cosmo_polarized_energy": -14.28, 
			 "cosmo_cavitation_energy": 27.94, 
			 "cosmo_dispersion_energy": -20.07, 
			 "cosmo_repulsion_energy": 1.58, 
			 "cosmo_total_nonelectrostatic_energy": 9.45, 
			 "SMD_solvation_energy": 5.11 
		},
		"coords": [
			{
				"x": -1.5518053009,
				"y": 1.7226482062,
				"z": -0.0935616474,
				"element": "O" 
			},
			{
				"x": -2.1186053523,
				"y": 0.5348861163,
				"z": 0.2549240092,
				"element": "C" 
			},
			{
				"x": -3.1997383071,
				"y": 0.2306891694,
				"z": -0.181710901,
				"element": "O" 
			},
			{
				"x": -1.3117415112,
				"y": -0.334316289,
				"z": 1.2133864612,
				"element": "C" 
			},
			{
				"x": -0.0564890708,
				"y": -1.0022377988,
				"z": 0.5890334105,
				"element": "C" 
			},
			{
				"x": 1.0418798957,
				"y": -0.0498210315,
				"z": 0.1633397888,
				"element": "C" 
			},
			{
				"x": 1.2670924193,
				"y": 0.3047451954,
				"z": -1.1832679309,
				"element": "C" 
			},
			{
				"x": 0.2523715605,
				"y": -0.3573948649,
				"z": -2.4554556457,
				"element": "Cl" 
			},
			{
				"x": 2.286759564,
				"y": 1.1734345939,
				"z": -1.5731509363,
				"element": "C" 
			},
			{
				"x": 3.126907216,
				"y": 1.7225999344,
				"z": -0.6085424806,
				"element": "C" 
			},
			{
				"x": 2.9522380537,
				"y": 1.4007286571,
				"z": 0.7350161127,
				"element": "C" 
			},
			{
				"x": 1.9268074472,
				"y": 0.5282185576,
				"z": 1.096022007,
				"element": "C" 
			},
			{
				"x": 1.7719996568,
				"y": 0.1368381035,
				"z": 2.8086808657,
				"element": "Cl" 
			},
			{
				"x": -0.6776584492,
				"y": 1.8121023767,
				"z": 0.3126359827,
				"element": "H" 
			},
			{
				"x": -1.0158994933,
				"y": 0.2610907506,
				"z": 2.0848645153,
				"element": "H" 
			},
			{
				"x": -1.9857100036,
				"y": -1.1199809373,
				"z": 1.5600917283,
				"element": "H" 
			},
			{
				"x": -0.3665422152,
				"y": -1.6050154095,
				"z": -0.2658551837,
				"element": "H" 
			},
			{
				"x": 0.3504671307,
				"y": -1.6880500965,
				"z": 1.3375984533,
				"element": "H" 
			},
			{
				"x": 2.4120835487,
				"y": 1.4107909112,
				"z": -2.6230829497,
				"element": "H" 
			},
			{
				"x": 3.9212969838,
				"y": 2.4003175338,
				"z": -0.9043821962,
				"element": "H" 
			},
			{
				"x": 3.6013862272,
				"y": 1.8116263212,
				"z": 1.4994165367,
				"element": "H" 
			}
		],
		 "valence_orbital": [ 
			{
				"type": "occ",
				"energy": -0.32488,
				"method": "rhf"
			},
			{
				"type": "occ",
				"energy": -0.3105,
				"method": "rhf"
			},
			{
				"type": "occ",
				"energy": -0.27465,
				"method": "rhf"
			},
			{
				"type": "occ",
				"energy": -0.26577,
				"method": "rhf"
			},
			{
				"type": "occ",
				"energy": -0.26287,
				"method": "rhf"
			},
			{
				"type": "unocc",
				"energy": -0.04211,
				"method": "rhf"
			},
			{
				"type": "unocc",
				"energy": -0.03902,
				"method": "rhf"
			},
			{
				"type": "unocc",
				"energy": -0.00708,
				"method": "rhf"
			},
			{
				"type": "unocc",
				"energy": 0.01096,
				"method": "rhf"
			},
			{
				"type": "unocc",
				"energy": 0.03834,
				"method": "rhf"
			}
		],
		"cosmo_sigma_profile": { 
			"-0.025": 0.0,
			"-0.024": 0.0,
			"-0.023": 0.0,
			"-0.022": 0.0,
			"-0.021": 0.0,
			"-0.02": 0.0,
			"-0.019": 0.0,
			"-0.018": 0.0,
			"-0.017": 0.0,
			"-0.016": 0.0,
			"-0.015": 0.384215829339,
			"-0.014": 1.82616671251,
			"-0.013": 0.953377020251,
			"-0.012": 1.34764771881,
			"-0.011": 1.14574228552,
			"-0.01": 1.20824564488,
			"-0.009": 1.10921743268,
			"-0.008": 4.18404401801,
			"-0.007": 7.51463821377,
			"-0.006": 11.4905044506,
			"-0.005": 13.6119470426,
			"-0.004": 14.1609538516,
			"-0.003": 16.870403357,
			"-0.002": 16.5232211272,
			"-0.001": 14.3628088255,
			"0.0": 17.2983582036,
			"0.001": 20.7453402489,
			"0.002": 20.9192445956,
			"0.003": 14.4221422407,
			"0.004": 13.8523092241,
			"0.005": 4.82567266708,
			"0.006": 1.9858791528,
			"0.007": 2.20580112476,
			"0.008": 2.71027828126,
			"0.009": 2.92227567631,
			"0.01": 4.84420009806,
			"0.011": 5.71481191793,
			"0.012": 5.19023728292,
			"0.013": 2.61608511569,
			"0.014": 0.0824897698689,
			"0.015": 0.0,
			"0.016": 0.0,
			"0.017": 0.0,
			"0.018": 0.0,
			"0.019": 0.0,
			"0.02": 0.0,
			"0.021": 0.0,
			"0.022": 0.0,
			"0.023": 0.0,
			"0.024": 0.0,
			"0.025": 0.0
		}
	}
}
