{
	 "smiles": "OC[C@@H](O)[C@H]1O[C@@H]2O[C@@H](O[C@@H]2[C@H]1O)C(Cl)(Cl)Cl", 
	 "Tm": 458.15, 
	 "num_atms": 28, 
	 "gaussian": { 
		 "optdone": 1, 
		 "sigma_profile": "yes", 
		 "theory": "DFT", 
		 "functional": "B3LYP", 
		 "basiset": "6-31G**", 
		 "properties": { 
			 "R2extent": 7042.4602, 
			 "electric_dipole_moment_norm": 3.11951484369, 
			 "electric_quadrupole_moment_norm": 25.8781840814, 
			 "total_energy": -2143.33564165, 
			 "HOMO_LUMO_gap": 0.23464, 
			 "cosmo_polarized_energy": -15.37, 
			 "cosmo_cavitation_energy": 34.97, 
			 "cosmo_dispersion_energy": -25.68, 
			 "cosmo_repulsion_energy": 2.02, 
			 "cosmo_total_nonelectrostatic_energy": 11.31, 
			 "SMD_solvation_energy": 4.42 
		},
		"coords": [
			{
				"x": -5.3567516781,
				"y": 1.4596496992,
				"z": 0.843662184,
				"element": "O" 
			},
			{
				"x": -4.1295939435,
				"y": 1.5758963787,
				"z": 0.1214204579,
				"element": "C" 
			},
			{
				"x": -3.2142910358,
				"y": 0.5060685246,
				"z": 0.6992245758,
				"element": "C" 
			},
			{
				"x": -3.8508863858,
				"y": -0.7712714915,
				"z": 0.6118144308,
				"element": "O" 
			},
			{
				"x": -1.8764648521,
				"y": 0.3963278223,
				"z": -0.0299669419,
				"element": "C" 
			},
			{
				"x": -1.0666048069,
				"y": 1.5098863129,
				"z": 0.3904339977,
				"element": "O" 
			},
			{
				"x": 0.2772688474,
				"y": 1.1364863753,
				"z": 0.5219226346,
				"element": "C" 
			},
			{
				"x": 1.1160092408,
				"y": 1.699406454,
				"z": -0.4868146253,
				"element": "O" 
			},
			{
				"x": 1.5821503299,
				"y": 0.6796836644,
				"z": -1.328888833,
				"element": "C" 
			},
			{
				"x": 0.8516316516,
				"y": -0.4809175063,
				"z": -1.0561446499,
				"element": "O" 
			},
			{
				"x": 0.3601677443,
				"y": -0.383470123,
				"z": 0.2846646711,
				"element": "C" 
			},
			{
				"x": -1.0813996126,
				"y": -0.8785103538,
				"z": 0.3445814186,
				"element": "C" 
			},
			{
				"x": -1.3236878276,
				"y": -1.3184998146,
				"z": 1.6663970255,
				"element": "O" 
			},
			{
				"x": 1.4205330533,
				"y": 1.0706469792,
				"z": -2.8296139074,
				"element": "C" 
			},
			{
				"x": 2.0563150582,
				"y": -0.2803762643,
				"z": -3.832750795,
				"element": "Cl" 
			},
			{
				"x": -0.2878102901,
				"y": 1.3885779238,
				"z": -3.2503960723,
				"element": "Cl" 
			},
			{
				"x": 2.403159297,
				"y": 2.5455244055,
				"z": -3.1269052828,
				"element": "Cl" 
			},
			{
				"x": -6.0298825851,
				"y": 1.991218107,
				"z": 0.4028910792,
				"element": "H" 
			},
			{
				"x": -4.2826132658,
				"y": 1.3855330309,
				"z": -0.951320933,
				"element": "H" 
			},
			{
				"x": -3.6706079366,
				"y": 2.5660218369,
				"z": 0.2425251384,
				"element": "H" 
			},
			{
				"x": -3.0012643328,
				"y": 0.754030349,
				"z": 1.7481808227,
				"element": "H" 
			},
			{
				"x": -4.7723697083,
				"y": -0.6152514818,
				"z": 0.8719553906,
				"element": "H" 
			},
			{
				"x": -2.0195660489,
				"y": 0.4300460753,
				"z": -1.1171708966,
				"element": "H" 
			},
			{
				"x": 0.6437729849,
				"y": 1.5008700021,
				"z": 1.4843750721,
				"element": "H" 
			},
			{
				"x": 2.6623773531,
				"y": 0.5245343887,
				"z": -1.1737082923,
				"element": "H" 
			},
			{
				"x": 1.0094661733,
				"y": -0.9179942203,
				"z": 0.9858263428,
				"element": "H" 
			},
			{
				"x": -1.246425653,
				"y": -1.6746424159,
				"z": -0.3912242604,
				"element": "H" 
			},
			{
				"x": -2.2658317705,
				"y": -1.553674658,
				"z": 1.6920302481,
				"element": "H" 
			}
		],
		 "valence_orbital": [ 
			{
				"type": "occ",
				"energy": -0.2955,
				"method": "rhf"
			},
			{
				"type": "occ",
				"energy": -0.2934,
				"method": "rhf"
			},
			{
				"type": "occ",
				"energy": -0.28491,
				"method": "rhf"
			},
			{
				"type": "occ",
				"energy": -0.28183,
				"method": "rhf"
			},
			{
				"type": "occ",
				"energy": -0.27283,
				"method": "rhf"
			},
			{
				"type": "unocc",
				"energy": -0.03819,
				"method": "rhf"
			},
			{
				"type": "unocc",
				"energy": -0.0008,
				"method": "rhf"
			},
			{
				"type": "unocc",
				"energy": 0.00394,
				"method": "rhf"
			},
			{
				"type": "unocc",
				"energy": 0.04429,
				"method": "rhf"
			},
			{
				"type": "unocc",
				"energy": 0.07377,
				"method": "rhf"
			}
		],
		"cosmo_sigma_profile": { 
			"-0.025": 0.0,
			"-0.024": 0.0,
			"-0.023": 0.0,
			"-0.022": 0.0,
			"-0.021": 0.0,
			"-0.02": 0.0,
			"-0.019": 0.0,
			"-0.018": 0.0,
			"-0.017": 0.269587664677,
			"-0.016": 1.05005490791,
			"-0.015": 1.1286917702,
			"-0.014": 1.0991258492,
			"-0.013": 0.794856606718,
			"-0.012": 1.55443414134,
			"-0.011": 0.970449151825,
			"-0.01": 1.22480495116,
			"-0.009": 3.18567118891,
			"-0.008": 10.7265955621,
			"-0.007": 9.59619342592,
			"-0.006": 10.1076352044,
			"-0.005": 14.1344572101,
			"-0.004": 18.0952509257,
			"-0.003": 19.8121840591,
			"-0.002": 18.63391925,
			"-0.001": 15.6548653468,
			"0.0": 15.8232251658,
			"0.001": 18.0302706097,
			"0.002": 27.1716629149,
			"0.003": 31.9574645596,
			"0.004": 10.1277198956,
			"0.005": 8.75816251527,
			"0.006": 6.25840895625,
			"0.007": 7.17918886808,
			"0.008": 7.80343546649,
			"0.009": 6.35649426653,
			"0.01": 4.99076161525,
			"0.011": 3.25940122269,
			"0.012": 3.07699288335,
			"0.013": 1.55210705557,
			"0.014": 0.0299830299754,
			"0.015": 0.0,
			"0.016": 0.0,
			"0.017": 0.0,
			"0.018": 0.0,
			"0.019": 0.0,
			"0.02": 0.0,
			"0.021": 0.0,
			"0.022": 0.0,
			"0.023": 0.0,
			"0.024": 0.0,
			"0.025": 0.0
		}
	}
}
