{
	 "smiles": "CC(=NNC(N)=S)C(=O)NC1=CC=CC=C1", 
	 "Tm": 485.15, 
	 "num_atms": 28, 
	 "gaussian": { 
		 "optdone": 1, 
		 "sigma_profile": "yes", 
		 "theory": "DFT", 
		 "functional": "B3LYP", 
		 "basiset": "6-31G**", 
		 "properties": { 
			 "R2extent": 4585.7263, 
			 "electric_dipole_moment_norm": 6.73466943955, 
			 "electric_quadrupole_moment_norm": 16.9062871326, 
			 "total_energy": -1080.68453501, 
			 "HOMO_LUMO_gap": 0.15569, 
			 "cosmo_polarized_energy": -26.4, 
			 "cosmo_cavitation_energy": 33.82, 
			 "cosmo_dispersion_energy": -23.01, 
			 "cosmo_repulsion_energy": 1.77, 
			 "cosmo_total_nonelectrostatic_energy": 12.58, 
			 "SMD_solvation_energy": 5.15 
		},
		"coords": [
			{
				"x": 0.5576716286,
				"y": 4.155605474,
				"z": -1.1825911572,
				"element": "C" 
			},
			{
				"x": 0.5327144428,
				"y": 2.8442295096,
				"z": -0.4473690744,
				"element": "C" 
			},
			{
				"x": 0.6066919472,
				"y": 1.777707736,
				"z": -1.1586545048,
				"element": "N" 
			},
			{
				"x": 0.6522838406,
				"y": 0.539800996,
				"z": -0.5130731513,
				"element": "N" 
			},
			{
				"x": 1.7005234693,
				"y": 0.0711839639,
				"z": 0.2601808369,
				"element": "C" 
			},
			{
				"x": 1.5228824272,
				"y": -1.2593020661,
				"z": 0.5602560074,
				"element": "N" 
			},
			{
				"x": 3.0417832021,
				"y": 0.9320299584,
				"z": 0.7385957827,
				"element": "S" 
			},
			{
				"x": 0.499459405,
				"y": 2.9987013503,
				"z": 1.0688018406,
				"element": "C" 
			},
			{
				"x": 1.1904587635,
				"y": 3.8617310009,
				"z": 1.5897478281,
				"element": "O" 
			},
			{
				"x": -0.3289995214,
				"y": 2.2071523727,
				"z": 1.8365502466,
				"element": "N" 
			},
			{
				"x": -1.396002487,
				"y": 1.3482453854,
				"z": 1.4923773126,
				"element": "C" 
			},
			{
				"x": -1.5990733262,
				"y": 0.192097118,
				"z": 2.2615405906,
				"element": "C" 
			},
			{
				"x": -2.6632384798,
				"y": -0.6631887638,
				"z": 1.9784048686,
				"element": "C" 
			},
			{
				"x": -3.5274916917,
				"y": -0.3862884355,
				"z": 0.9166025744,
				"element": "C" 
			},
			{
				"x": -3.3304076038,
				"y": 0.7688215135,
				"z": 0.1571703424,
				"element": "C" 
			},
			{
				"x": -2.2852402071,
				"y": 1.6441798253,
				"z": 0.4502826931,
				"element": "C" 
			},
			{
				"x": -0.3164909839,
				"y": 4.766152644,
				"z": -0.92735508,
				"element": "H" 
			},
			{
				"x": 1.4402898827,
				"y": 4.7212946354,
				"z": -0.870351392,
				"element": "H" 
			},
			{
				"x": 0.5866043316,
				"y": 3.9794793884,
				"z": -2.2581804873,
				"element": "H" 
			},
			{
				"x": 0.2707560092,
				"y": -0.1641250658,
				"z": -1.134268052,
				"element": "H" 
			},
			{
				"x": 2.2054739493,
				"y": -1.6359465186,
				"z": 1.2010104691,
				"element": "H" 
			},
			{
				"x": 0.5745602291,
				"y": -1.59381735,
				"z": 0.6815780409,
				"element": "H" 
			},
			{
				"x": -0.1415573085,
				"y": 2.3338920934,
				"z": 2.8243350252,
				"element": "H" 
			},
			{
				"x": -0.9161673754,
				"y": -0.029679379,
				"z": 3.0773330879,
				"element": "H" 
			},
			{
				"x": -2.8137346165,
				"y": -1.5497619841,
				"z": 2.5879276761,
				"element": "H" 
			},
			{
				"x": -4.3528728288,
				"y": -1.054951775,
				"z": 0.6927872337,
				"element": "H" 
			},
			{
				"x": -4.0086943952,
				"y": 1.0063671263,
				"z": -0.6571905921,
				"element": "H" 
			},
			{
				"x": -2.1665827028,
				"y": 2.5580892465,
				"z": -0.1208489657,
				"element": "H" 
			}
		],
		 "valence_orbital": [ 
			{
				"type": "occ",
				"energy": -0.26941,
				"method": "rhf"
			},
			{
				"type": "occ",
				"energy": -0.24607,
				"method": "rhf"
			},
			{
				"type": "occ",
				"energy": -0.23733,
				"method": "rhf"
			},
			{
				"type": "occ",
				"energy": -0.21698,
				"method": "rhf"
			},
			{
				"type": "occ",
				"energy": -0.20802,
				"method": "rhf"
			},
			{
				"type": "unocc",
				"energy": -0.05233,
				"method": "rhf"
			},
			{
				"type": "unocc",
				"energy": -0.02212,
				"method": "rhf"
			},
			{
				"type": "unocc",
				"energy": -0.01923,
				"method": "rhf"
			},
			{
				"type": "unocc",
				"energy": -0.00445,
				"method": "rhf"
			},
			{
				"type": "unocc",
				"energy": 0.04912,
				"method": "rhf"
			}
		],
		"cosmo_sigma_profile": { 
			"-0.025": 0.0,
			"-0.024": 0.0,
			"-0.023": 0.0,
			"-0.022": 0.0,
			"-0.021": 0.0,
			"-0.02": 0.0,
			"-0.019": 0.0,
			"-0.018": 0.0,
			"-0.017": 0.0,
			"-0.016": 0.457299438096,
			"-0.015": 1.9280569263,
			"-0.014": 3.41957703683,
			"-0.013": 3.50456091724,
			"-0.012": 4.23874001455,
			"-0.011": 4.46167598304,
			"-0.01": 4.51432645537,
			"-0.009": 2.8971517151,
			"-0.008": 3.96705372164,
			"-0.007": 6.33189548787,
			"-0.006": 14.9596232261,
			"-0.005": 17.0506233114,
			"-0.004": 18.2007274017,
			"-0.003": 18.1553743524,
			"-0.002": 16.8804853474,
			"-0.001": 16.8281157032,
			"0.0": 12.6356254941,
			"0.001": 11.3868073439,
			"0.002": 12.7237192213,
			"0.003": 12.720010692,
			"0.004": 13.7816949467,
			"0.005": 11.8884811228,
			"0.006": 7.07852065541,
			"0.007": 6.83203974831,
			"0.008": 7.3529454041,
			"0.009": 8.18669822822,
			"0.01": 9.5227262997,
			"0.011": 7.78866452079,
			"0.012": 6.7842493149,
			"0.013": 3.94587111872,
			"0.014": 0.0562274188665,
			"0.015": 0.0,
			"0.016": 0.0,
			"0.017": 0.0,
			"0.018": 0.0,
			"0.019": 0.0,
			"0.02": 0.0,
			"0.021": 0.0,
			"0.022": 0.0,
			"0.023": 0.0,
			"0.024": 0.0,
			"0.025": 0.0
		}
	}
}
