{
	 "smiles": "FC1=C(C=C(C=C1)S(Cl)(=O)=O)C#N", 
	 "Tm": 342.15, 
	 "num_atms": 16, 
	 "gaussian": { 
		 "optdone": 1, 
		 "sigma_profile": "yes", 
		 "theory": "DFT", 
		 "functional": "B3LYP", 
		 "basiset": "6-31G**", 
		 "properties": { 
			 "R2extent": 4102.0741, 
			 "electric_dipole_moment_norm": 3.93056507006, 
			 "electric_quadrupole_moment_norm": 19.1743529153, 
			 "total_energy": -1431.86977316, 
			 "HOMO_LUMO_gap": 0.19463, 
			 "cosmo_polarized_energy": -13.2, 
			 "cosmo_cavitation_energy": 26.48, 
			 "cosmo_dispersion_energy": -19.02, 
			 "cosmo_repulsion_energy": 1.44, 
			 "cosmo_total_nonelectrostatic_energy": 8.9, 
			 "SMD_solvation_energy": 5.15 
		},
		"coords": [
			{
				"x": -0.2141068964,
				"y": -2.4675906265,
				"z": -1.7099861888,
				"element": "F" 
			},
			{
				"x": -0.1978627744,
				"y": -1.7154043538,
				"z": -0.6091969402,
				"element": "C" 
			},
			{
				"x": 0.7590596534,
				"y": -0.6913845122,
				"z": -0.5084439726,
				"element": "C" 
			},
			{
				"x": 0.7756903949,
				"y": 0.0998741084,
				"z": 0.6491942437,
				"element": "C" 
			},
			{
				"x": -0.1542411721,
				"y": -0.1598741532,
				"z": 1.6510581945,
				"element": "C" 
			},
			{
				"x": -1.1069152918,
				"y": -1.1770946729,
				"z": 1.5437452717,
				"element": "C" 
			},
			{
				"x": -1.1259552865,
				"y": -1.9638798368,
				"z": 0.396226615,
				"element": "C" 
			},
			{
				"x": -0.1447336993,
				"y": 0.8649898802,
				"z": 3.1171530266,
				"element": "S" 
			},
			{
				"x": 1.1537868474,
				"y": -0.2413458798,
				"z": 4.3844486998,
				"element": "Cl" 
			},
			{
				"x": 0.537891565,
				"y": 2.1156881126,
				"z": 2.8163094456,
				"element": "O" 
			},
			{
				"x": -1.4633155584,
				"y": 0.8135246699,
				"z": 3.7340031907,
				"element": "O" 
			},
			{
				"x": 1.6875252398,
				"y": -0.4675453219,
				"z": -1.5738197824,
				"element": "C" 
			},
			{
				"x": 2.4464790376,
				"y": -0.2779322979,
				"z": -2.4332681016,
				"element": "N" 
			},
			{
				"x": 1.4952717675,
				"y": 0.9036107608,
				"z": 0.753258791,
				"element": "H" 
			},
			{
				"x": -1.8234192944,
				"y": -1.3387670935,
				"z": 2.3411523019,
				"element": "H" 
			},
			{
				"x": -1.8477545323,
				"y": -2.7616687835,
				"z": 0.2643652051,
				"element": "H" 
			}
		],
		 "valence_orbital": [ 
			{
				"type": "occ",
				"energy": -0.35296,
				"method": "rhf"
			},
			{
				"type": "occ",
				"energy": -0.34837,
				"method": "rhf"
			},
			{
				"type": "occ",
				"energy": -0.32981,
				"method": "rhf"
			},
			{
				"type": "occ",
				"energy": -0.31511,
				"method": "rhf"
			},
			{
				"type": "occ",
				"energy": -0.30209,
				"method": "rhf"
			},
			{
				"type": "unocc",
				"energy": -0.10746,
				"method": "rhf"
			},
			{
				"type": "unocc",
				"energy": -0.09121,
				"method": "rhf"
			},
			{
				"type": "unocc",
				"energy": -0.06508,
				"method": "rhf"
			},
			{
				"type": "unocc",
				"energy": 0.00317,
				"method": "rhf"
			},
			{
				"type": "unocc",
				"energy": 0.01878,
				"method": "rhf"
			}
		],
		"cosmo_sigma_profile": { 
			"-0.025": 0.0,
			"-0.024": 0.0,
			"-0.023": 0.0,
			"-0.022": 0.0,
			"-0.021": 0.0,
			"-0.02": 0.0,
			"-0.019": 0.0,
			"-0.018": 0.0,
			"-0.017": 0.0,
			"-0.016": 0.0,
			"-0.015": 0.0,
			"-0.014": 0.0,
			"-0.013": 0.0,
			"-0.012": 0.0,
			"-0.011": 1.07923219181,
			"-0.01": 5.36487609915,
			"-0.009": 5.8048792302,
			"-0.008": 6.09992356305,
			"-0.007": 6.55917437367,
			"-0.006": 6.82484791119,
			"-0.005": 11.5493914429,
			"-0.004": 17.7425603687,
			"-0.003": 16.9830410421,
			"-0.002": 15.9746126464,
			"-0.001": 12.7528301121,
			"0.0": 9.86237875479,
			"0.001": 10.9157384971,
			"0.002": 22.7396554776,
			"0.003": 15.7908654112,
			"0.004": 6.79280923629,
			"0.005": 5.72836884202,
			"0.006": 6.15222404348,
			"0.007": 11.3355377947,
			"0.008": 11.4664792455,
			"0.009": 4.40893457212,
			"0.01": 2.73824021713,
			"0.011": 2.24006168788,
			"0.012": 1.26829529833,
			"0.013": 0.0302719896491,
			"0.014": 0.0,
			"0.015": 0.0,
			"0.016": 0.0,
			"0.017": 0.0,
			"0.018": 0.0,
			"0.019": 0.0,
			"0.02": 0.0,
			"0.021": 0.0,
			"0.022": 0.0,
			"0.023": 0.0,
			"0.024": 0.0,
			"0.025": 0.0
		}
	}
}
