{
	 "smiles": "CC(C)C1=CC=C(C=C1)S(N)(=O)=O", 
	 "Tm": 377.65, 
	 "num_atms": 26, 
	 "gaussian": { 
		 "optdone": 1, 
		 "sigma_profile": "yes", 
		 "theory": "DFT", 
		 "functional": "B3LYP", 
		 "basiset": "6-31G**", 
		 "properties": { 
			 "R2extent": 3830.6267, 
			 "electric_dipole_moment_norm": 6.54948355369, 
			 "electric_quadrupole_moment_norm": 18.370972201, 
			 "total_energy": -954.123565597, 
			 "HOMO_LUMO_gap": 0.22242, 
			 "cosmo_polarized_energy": -18.13, 
			 "cosmo_cavitation_energy": 30.44, 
			 "cosmo_dispersion_energy": -22.26, 
			 "cosmo_repulsion_energy": 1.73, 
			 "cosmo_total_nonelectrostatic_energy": 9.91, 
			 "SMD_solvation_energy": 4.96 
		},
		"coords": [
			{
				"x": 3.6043031086,
				"y": -1.2232149163,
				"z": 1.7056609286,
				"element": "C" 
			},
			{
				"x": 2.7441739411,
				"y": -1.4254175065,
				"z": 0.4434759792,
				"element": "C" 
			},
			{
				"x": 2.5130963464,
				"y": -2.9223921208,
				"z": 0.1623418617,
				"element": "C" 
			},
			{
				"x": 1.4323697254,
				"y": -0.6574606469,
				"z": 0.5272225175,
				"element": "C" 
			},
			{
				"x": 0.4780441184,
				"y": -0.9512836934,
				"z": 1.5149645075,
				"element": "C" 
			},
			{
				"x": -0.7197770786,
				"y": -0.2455165945,
				"z": 1.5945972686,
				"element": "C" 
			},
			{
				"x": -0.9763225361,
				"y": 0.7710579968,
				"z": 0.6707018582,
				"element": "C" 
			},
			{
				"x": -0.0418148088,
				"y": 1.0936420325,
				"z": -0.3138791305,
				"element": "C" 
			},
			{
				"x": 1.1520601678,
				"y": 0.375552753,
				"z": -0.3777906505,
				"element": "C" 
			},
			{
				"x": -2.5330836959,
				"y": 1.6657056469,
				"z": 0.7450459402,
				"element": "S" 
			},
			{
				"x": -3.6265546724,
				"y": 0.822920602,
				"z": -0.2194960839,
				"element": "N" 
			},
			{
				"x": -2.3338705405,
				"y": 2.9509071382,
				"z": 0.0771730404,
				"element": "O" 
			},
			{
				"x": -3.0440433828,
				"y": 1.5458195445,
				"z": 2.1096506003,
				"element": "O" 
			},
			{
				"x": 4.5678331519,
				"y": -1.7325463685,
				"z": 1.5982566711,
				"element": "H" 
			},
			{
				"x": 3.1103491558,
				"y": -1.6312492045,
				"z": 2.5941743385,
				"element": "H" 
			},
			{
				"x": 3.7978133494,
				"y": -0.1619969952,
				"z": 1.8890060275,
				"element": "H" 
			},
			{
				"x": 3.3033406528,
				"y": -1.0127644568,
				"z": -0.4061552446,
				"element": "H" 
			},
			{
				"x": 1.9314724683,
				"y": -3.0706316709,
				"z": -0.7528141168,
				"element": "H" 
			},
			{
				"x": 3.4697534695,
				"y": -3.4424862227,
				"z": 0.0459251571,
				"element": "H" 
			},
			{
				"x": 1.9723063606,
				"y": -3.4038098264,
				"z": 0.9844490388,
				"element": "H" 
			},
			{
				"x": 0.6747596562,
				"y": -1.7357974708,
				"z": 2.2401822727,
				"element": "H" 
			},
			{
				"x": -1.441896305,
				"y": -0.4579900212,
				"z": 2.3760465227,
				"element": "H" 
			},
			{
				"x": -0.2409030546,
				"y": 1.9094715429,
				"z": -1.0008634279,
				"element": "H" 
			},
			{
				"x": 1.884361892,
				"y": 0.6290792484,
				"z": -1.1399941279,
				"element": "H" 
			},
			{
				"x": -3.830025669,
				"y": -0.1049816927,
				"z": 0.138596848,
				"element": "H" 
			},
			{
				"x": -3.3618458203,
				"y": 0.8194829028,
				"z": -1.1995785965,
				"element": "H" 
			}
		],
		 "valence_orbital": [ 
			{
				"type": "occ",
				"energy": -0.31352,
				"method": "rhf"
			},
			{
				"type": "occ",
				"energy": -0.3008,
				"method": "rhf"
			},
			{
				"type": "occ",
				"energy": -0.29898,
				"method": "rhf"
			},
			{
				"type": "occ",
				"energy": -0.27129,
				"method": "rhf"
			},
			{
				"type": "occ",
				"energy": -0.25977,
				"method": "rhf"
			},
			{
				"type": "unocc",
				"energy": -0.03735,
				"method": "rhf"
			},
			{
				"type": "unocc",
				"energy": -0.02276,
				"method": "rhf"
			},
			{
				"type": "unocc",
				"energy": 0.05276,
				"method": "rhf"
			},
			{
				"type": "unocc",
				"energy": 0.07174,
				"method": "rhf"
			},
			{
				"type": "unocc",
				"energy": 0.09021,
				"method": "rhf"
			}
		],
		"cosmo_sigma_profile": { 
			"-0.025": 0.0,
			"-0.024": 0.0,
			"-0.023": 0.0,
			"-0.022": 0.0,
			"-0.021": 0.0,
			"-0.02": 0.0,
			"-0.019": 0.0,
			"-0.018": 0.0,
			"-0.017": 0.0,
			"-0.016": 0.0758624914489,
			"-0.015": 1.84248242288,
			"-0.014": 2.575306512,
			"-0.013": 2.87512223483,
			"-0.012": 2.7515129226,
			"-0.011": 2.84967225825,
			"-0.01": 2.34347615122,
			"-0.009": 1.57411443602,
			"-0.008": 1.49912401516,
			"-0.007": 4.4476222698,
			"-0.006": 9.2404096723,
			"-0.005": 12.3879236239,
			"-0.004": 12.690664936,
			"-0.003": 17.9232144806,
			"-0.002": 21.2765591271,
			"-0.001": 22.4260492882,
			"0.0": 19.3330338068,
			"0.001": 22.9360816053,
			"0.002": 13.3680449299,
			"0.003": 13.5971607403,
			"0.004": 7.59922892808,
			"0.005": 3.14215312844,
			"0.006": 3.49903041863,
			"0.007": 4.05682733464,
			"0.008": 4.43858126915,
			"0.009": 4.78970265946,
			"0.01": 6.3564996132,
			"0.011": 10.6544713258,
			"0.012": 6.91016743956,
			"0.013": 0.286842544409,
			"0.014": 0.0,
			"0.015": 0.0,
			"0.016": 0.0,
			"0.017": 0.0,
			"0.018": 0.0,
			"0.019": 0.0,
			"0.02": 0.0,
			"0.021": 0.0,
			"0.022": 0.0,
			"0.023": 0.0,
			"0.024": 0.0,
			"0.025": 0.0
		}
	}
}
