{
	 "smiles": "CN(C)S(=O)(=O)C1=CC(N)=C(C)C=C1", 
	 "Tm": 446.15, 
	 "num_atms": 28, 
	 "gaussian": { 
		 "optdone": 1, 
		 "sigma_profile": "yes", 
		 "theory": "DFT", 
		 "functional": "B3LYP", 
		 "basiset": "6-31G**", 
		 "properties": { 
			 "R2extent": 3884.0607, 
			 "electric_dipole_moment_norm": 5.08766485138, 
			 "electric_quadrupole_moment_norm": 24.8977960101, 
			 "total_energy": -1009.47004889, 
			 "HOMO_LUMO_gap": 0.18954, 
			 "cosmo_polarized_energy": -17.11, 
			 "cosmo_cavitation_energy": 31.76, 
			 "cosmo_dispersion_energy": -23.13, 
			 "cosmo_repulsion_energy": 1.78, 
			 "cosmo_total_nonelectrostatic_energy": 10.4, 
			 "SMD_solvation_energy": 4.12 
		},
		"coords": [
			{
				"x": -1.1804550654,
				"y": -2.6221269462,
				"z": -0.8458162677,
				"element": "C" 
			},
			{
				"x": -0.8019690773,
				"y": -1.2878942613,
				"z": -0.3582211714,
				"element": "N" 
			},
			{
				"x": -1.9098848533,
				"y": -0.5560615764,
				"z": 0.266072788,
				"element": "C" 
			},
			{
				"x": 0.0723191348,
				"y": -0.3608866346,
				"z": -1.4960272909,
				"element": "S" 
			},
			{
				"x": -0.8323799226,
				"y": 0.4606835776,
				"z": -2.3151147403,
				"element": "O" 
			},
			{
				"x": 1.0077554547,
				"y": -1.2930214159,
				"z": -2.1366722014,
				"element": "O" 
			},
			{
				"x": 0.9908368579,
				"y": 0.7431791357,
				"z": -0.4221108392,
				"element": "C" 
			},
			{
				"x": 2.047097844,
				"y": 0.2237289384,
				"z": 0.3238789849,
				"element": "C" 
			},
			{
				"x": 2.8023832442,
				"y": 1.07144869,
				"z": 1.1440600484,
				"element": "C" 
			},
			{
				"x": 3.823896097,
				"y": 0.5532015146,
				"z": 1.9408321555,
				"element": "N" 
			},
			{
				"x": 2.4828609568,
				"y": 2.451990853,
				"z": 1.2027625658,
				"element": "C" 
			},
			{
				"x": 3.2794207136,
				"y": 3.3706822516,
				"z": 2.0935765826,
				"element": "C" 
			},
			{
				"x": 1.4254248025,
				"y": 2.932981208,
				"z": 0.4292357189,
				"element": "C" 
			},
			{
				"x": 0.6661962084,
				"y": 2.0971879247,
				"z": -0.3926680403,
				"element": "C" 
			},
			{
				"x": -1.4945561523,
				"y": -3.2141860281,
				"z": 0.0189082076,
				"element": "H" 
			},
			{
				"x": -0.3156864773,
				"y": -3.0974554255,
				"z": -1.3073395737,
				"element": "H" 
			},
			{
				"x": -2.006621347,
				"y": -2.5923876743,
				"z": -1.5711902381,
				"element": "H" 
			},
			{
				"x": -2.2744982586,
				"y": -1.1518591148,
				"z": 1.1077498278,
				"element": "H" 
			},
			{
				"x": -2.7391658747,
				"y": -0.3666437212,
				"z": -0.4288014823,
				"element": "H" 
			},
			{
				"x": -1.5514347702,
				"y": 0.398474594,
				"z": 0.6578217975,
				"element": "H" 
			},
			{
				"x": 2.2853024041,
				"y": -0.8334253404,
				"z": 0.2606054398,
				"element": "H" 
			},
			{
				"x": 4.5840237981,
				"y": 1.1858038277,
				"z": 2.1476097776,
				"element": "H" 
			},
			{
				"x": 4.1588773224,
				"y": -0.3591423327,
				"z": 1.6630308712,
				"element": "H" 
			},
			{
				"x": 2.8740424536,
				"y": 4.3849813544,
				"z": 2.077120263,
				"element": "H" 
			},
			{
				"x": 4.3308593406,
				"y": 3.4362942552,
				"z": 1.7792330297,
				"element": "H" 
			},
			{
				"x": 3.2764358363,
				"y": 3.0194660767,
				"z": 3.1327891526,
				"element": "H" 
			},
			{
				"x": 1.1902392654,
				"y": 3.9933398764,
				"z": 0.4708405187,
				"element": "H" 
			},
			{
				"x": -0.1439199357,
				"y": 2.4770463932,
				"z": -1.0034658845,
				"element": "H" 
			}
		],
		 "valence_orbital": [ 
			{
				"type": "occ",
				"energy": -0.29716,
				"method": "rhf"
			},
			{
				"type": "occ",
				"energy": -0.28856,
				"method": "rhf"
			},
			{
				"type": "occ",
				"energy": -0.26235,
				"method": "rhf"
			},
			{
				"type": "occ",
				"energy": -0.24045,
				"method": "rhf"
			},
			{
				"type": "occ",
				"energy": -0.21661,
				"method": "rhf"
			},
			{
				"type": "unocc",
				"energy": -0.02707,
				"method": "rhf"
			},
			{
				"type": "unocc",
				"energy": 0.00122,
				"method": "rhf"
			},
			{
				"type": "unocc",
				"energy": 0.06546,
				"method": "rhf"
			},
			{
				"type": "unocc",
				"energy": 0.07124,
				"method": "rhf"
			},
			{
				"type": "unocc",
				"energy": 0.08593,
				"method": "rhf"
			}
		],
		"cosmo_sigma_profile": { 
			"-0.025": 0.0,
			"-0.024": 0.0,
			"-0.023": 0.0,
			"-0.022": 0.0,
			"-0.021": 0.0,
			"-0.02": 0.0,
			"-0.019": 0.0,
			"-0.018": 0.0,
			"-0.017": 0.0,
			"-0.016": 0.0,
			"-0.015": 0.0,
			"-0.014": 0.0,
			"-0.013": 1.09474471357,
			"-0.012": 2.37587164056,
			"-0.011": 2.85125550376,
			"-0.01": 3.60749476709,
			"-0.009": 2.87177080305,
			"-0.008": 3.32173341871,
			"-0.007": 3.25571615886,
			"-0.006": 10.3271908573,
			"-0.005": 15.7369979758,
			"-0.004": 24.0700812269,
			"-0.003": 23.9973628205,
			"-0.002": 25.9568511286,
			"-0.001": 17.118811716,
			"0.0": 14.0980838394,
			"0.001": 11.5044824366,
			"0.002": 12.3056674934,
			"0.003": 11.597623463,
			"0.004": 15.7400627318,
			"0.005": 7.72404504003,
			"0.006": 4.06389058501,
			"0.007": 3.98910617537,
			"0.008": 4.89060237862,
			"0.009": 4.82790677512,
			"0.01": 6.76582952476,
			"0.011": 8.41026107082,
			"0.012": 6.69170885143,
			"0.013": 0.723279696091,
			"0.014": 0.315163708847,
			"0.015": 0.0,
			"0.016": 0.0,
			"0.017": 0.0,
			"0.018": 0.0,
			"0.019": 0.0,
			"0.02": 0.0,
			"0.021": 0.0,
			"0.022": 0.0,
			"0.023": 0.0,
			"0.024": 0.0,
			"0.025": 0.0
		}
	}
}
