{
	 "smiles": "CCCCCCCCCC(=O)CCCCCC", 
	 "Tm": 310.15, 
	 "num_atms": 49, 
	 "gaussian": { 
		 "optdone": 1, 
		 "sigma_profile": "yes", 
		 "theory": "DFT", 
		 "functional": "B3LYP", 
		 "basiset": "6-31G**", 
		 "properties": { 
			 "R2extent": 12659.7031, 
			 "electric_dipole_moment_norm": 2.69060385973, 
			 "electric_quadrupole_moment_norm": 8.29956545128, 
			 "total_energy": -704.260969631, 
			 "HOMO_LUMO_gap": 0.22759, 
			 "cosmo_polarized_energy": -6.97, 
			 "cosmo_cavitation_energy": 48.86, 
			 "cosmo_dispersion_energy": -33.64, 
			 "cosmo_repulsion_energy": 2.76, 
			 "cosmo_total_nonelectrostatic_energy": 17.98, 
			 "SMD_solvation_energy": 7.2 
		},
		"coords": [
			{
				"x": -6.0331352456,
				"y": 0.9947150243,
				"z": -4.5430293292,
				"element": "C" 
			},
			{
				"x": -6.5097505253,
				"y": -0.4540808734,
				"z": -4.3832562601,
				"element": "C" 
			},
			{
				"x": -6.126210709,
				"y": -1.1082501642,
				"z": -3.0454725864,
				"element": "C" 
			},
			{
				"x": -4.6189158147,
				"y": -1.317334154,
				"z": -2.8407520441,
				"element": "C" 
			},
			{
				"x": -4.2891577057,
				"y": -2.0306184289,
				"z": -1.5214036496,
				"element": "C" 
			},
			{
				"x": -2.7971183263,
				"y": -2.3335855793,
				"z": -1.3049511375,
				"element": "C" 
			},
			{
				"x": -1.9085086789,
				"y": -1.0935599917,
				"z": -1.1317072635,
				"element": "C" 
			},
			{
				"x": -0.4421955755,
				"y": -1.4423633194,
				"z": -0.8431536873,
				"element": "C" 
			},
			{
				"x": 0.4435847896,
				"y": -0.1919701142,
				"z": -0.6756543295,
				"element": "C" 
			},
			{
				"x": 1.9222321394,
				"y": -0.4948611379,
				"z": -0.4567805139,
				"element": "C" 
			},
			{
				"x": 2.7677180314,
				"y": -0.0855876858,
				"z": -1.23282846,
				"element": "O" 
			},
			{
				"x": 2.2942473898,
				"y": -1.3421039881,
				"z": 0.7587829417,
				"element": "C" 
			},
			{
				"x": 3.7915954408,
				"y": -1.3357268577,
				"z": 1.0921081581,
				"element": "C" 
			},
			{
				"x": 4.3270350594,
				"y": -0.0080551479,
				"z": 1.6552467592,
				"element": "C" 
			},
			{
				"x": 3.7910283638,
				"y": 0.367977254,
				"z": 3.0437256701,
				"element": "C" 
			},
			{
				"x": 4.4016525865,
				"y": 1.662764549,
				"z": 3.5963178917,
				"element": "C" 
			},
			{
				"x": 3.8692761768,
				"y": 2.0418226055,
				"z": 4.9818987451,
				"element": "C" 
			},
			{
				"x": -4.9409670693,
				"y": 1.0703015675,
				"z": -4.5331724503,
				"element": "H" 
			},
			{
				"x": -6.4158879797,
				"y": 1.626989705,
				"z": -3.7331310609,
				"element": "H" 
			},
			{
				"x": -6.3813793822,
				"y": 1.4218125789,
				"z": -5.4892687539,
				"element": "H" 
			},
			{
				"x": -6.1139916,
				"y": -1.0621544798,
				"z": -5.2084689584,
				"element": "H" 
			},
			{
				"x": -7.6022075982,
				"y": -0.4814070036,
				"z": -4.4853451333,
				"element": "H" 
			},
			{
				"x": -6.629546566,
				"y": -2.0820486593,
				"z": -2.971376587,
				"element": "H" 
			},
			{
				"x": -6.5228109736,
				"y": -0.499695095,
				"z": -2.2196698987,
				"element": "H" 
			},
			{
				"x": -4.2192961488,
				"y": -1.9068964521,
				"z": -3.6791593538,
				"element": "H" 
			},
			{
				"x": -4.1047256364,
				"y": -0.3494215706,
				"z": -2.8764455003,
				"element": "H" 
			},
			{
				"x": -4.8469829059,
				"y": -2.9761854014,
				"z": -1.4841858118,
				"element": "H" 
			},
			{
				"x": -4.6617130591,
				"y": -1.4282733485,
				"z": -0.6802107094,
				"element": "H" 
			},
			{
				"x": -2.6926184828,
				"y": -2.9679378546,
				"z": -0.4140689804,
				"element": "H" 
			},
			{
				"x": -2.4229177783,
				"y": -2.9322113071,
				"z": -2.1477959845,
				"element": "H" 
			},
			{
				"x": -2.3023249284,
				"y": -0.4769972519,
				"z": -0.3106669336,
				"element": "H" 
			},
			{
				"x": -1.9547131233,
				"y": -0.467904476,
				"z": -2.0320247138,
				"element": "H" 
			},
			{
				"x": -0.0468509067,
				"y": -2.0573258724,
				"z": -1.6628714671,
				"element": "H" 
			},
			{
				"x": -0.3906672662,
				"y": -2.061744087,
				"z": 0.0614515353,
				"element": "H" 
			},
			{
				"x": 0.3753194285,
				"y": 0.4456321686,
				"z": -1.5624343798,
				"element": "H" 
			},
			{
				"x": 0.0805278601,
				"y": 0.3907228923,
				"z": 0.1834658009,
				"element": "H" 
			},
			{
				"x": 1.6797832331,
				"y": -1.0318041751,
				"z": 1.6137272099,
				"element": "H" 
			},
			{
				"x": 1.9690365795,
				"y": -2.3688987308,
				"z": 0.5354068333,
				"element": "H" 
			},
			{
				"x": 4.3412265575,
				"y": -1.5771205428,
				"z": 0.176616952,
				"element": "H" 
			},
			{
				"x": 3.9946749103,
				"y": -2.1415476851,
				"z": 1.8093475048,
				"element": "H" 
			},
			{
				"x": 4.1126601399,
				"y": 0.7972350642,
				"z": 0.9422193693,
				"element": "H" 
			},
			{
				"x": 5.4217538363,
				"y": -0.0770728061,
				"z": 1.7105788239,
				"element": "H" 
			},
			{
				"x": 3.9901270228,
				"y": -0.4543678158,
				"z": 3.7467534394,
				"element": "H" 
			},
			{
				"x": 2.6980289916,
				"y": 0.4798745841,
				"z": 3.0124835312,
				"element": "H" 
			},
			{
				"x": 4.2070811883,
				"y": 2.4825273892,
				"z": 2.8915155199,
				"element": "H" 
			},
			{
				"x": 5.4940485116,
				"y": 1.5556372064,
				"z": 3.6401581317,
				"element": "H" 
			},
			{
				"x": 4.3254006315,
				"y": 2.9677256012,
				"z": 5.3475284003,
				"element": "H" 
			},
			{
				"x": 2.7835414705,
				"y": 2.1920011513,
				"z": 4.9625047588,
				"element": "H" 
			},
			{
				"x": 4.0793136468,
				"y": 1.2555727162,
				"z": 5.7162479612,
				"element": "H" 
			}
		],
		 "valence_orbital": [ 
			{
				"type": "occ",
				"energy": -0.31441,
				"method": "rhf"
			},
			{
				"type": "occ",
				"energy": -0.3097,
				"method": "rhf"
			},
			{
				"type": "occ",
				"energy": -0.30637,
				"method": "rhf"
			},
			{
				"type": "occ",
				"energy": -0.30481,
				"method": "rhf"
			},
			{
				"type": "occ",
				"energy": -0.23701,
				"method": "rhf"
			},
			{
				"type": "unocc",
				"energy": -0.00942,
				"method": "rhf"
			},
			{
				"type": "unocc",
				"energy": 0.07734,
				"method": "rhf"
			},
			{
				"type": "unocc",
				"energy": 0.08576,
				"method": "rhf"
			},
			{
				"type": "unocc",
				"energy": 0.09538,
				"method": "rhf"
			},
			{
				"type": "unocc",
				"energy": 0.1034,
				"method": "rhf"
			}
		],
		"cosmo_sigma_profile": { 
			"-0.025": 0.0,
			"-0.024": 0.0,
			"-0.023": 0.0,
			"-0.022": 0.0,
			"-0.021": 0.0,
			"-0.02": 0.0,
			"-0.019": 0.0,
			"-0.018": 0.0,
			"-0.017": 0.0,
			"-0.016": 0.0,
			"-0.015": 0.0,
			"-0.014": 0.0,
			"-0.013": 0.0,
			"-0.012": 0.0,
			"-0.011": 0.0,
			"-0.01": 0.0,
			"-0.009": 0.0,
			"-0.008": 0.0,
			"-0.007": 0.0,
			"-0.006": 0.159949668187,
			"-0.005": 5.98353024314,
			"-0.004": 11.1416799289,
			"-0.003": 21.0146341777,
			"-0.002": 56.3963057007,
			"-0.001": 80.7251834651,
			"0.0": 81.1872478404,
			"0.001": 64.7070198619,
			"0.002": 27.6752803045,
			"0.003": 3.14714938509,
			"0.004": 1.40820793797,
			"0.005": 1.76814362757,
			"0.006": 2.08363184604,
			"0.007": 1.74751196,
			"0.008": 1.8029427706,
			"0.009": 1.32792395465,
			"0.01": 2.28929720592,
			"0.011": 2.05666328692,
			"0.012": 3.89397161711,
			"0.013": 2.82887394867,
			"0.014": 0.696468200994,
			"0.015": 0.0,
			"0.016": 0.0,
			"0.017": 0.0,
			"0.018": 0.0,
			"0.019": 0.0,
			"0.02": 0.0,
			"0.021": 0.0,
			"0.022": 0.0,
			"0.023": 0.0,
			"0.024": 0.0,
			"0.025": 0.0
		}
	}
}
