{
	 "smiles": "C1CCC(NC1)C1=NC=CN1", 
	 "Tm": 418.15, 
	 "num_atms": 24, 
	 "gaussian": { 
		 "optdone": 1, 
		 "sigma_profile": "yes", 
		 "theory": "DFT", 
		 "functional": "B3LYP", 
		 "basiset": "6-31G**", 
		 "properties": { 
			 "R2extent": 3471.4581, 
			 "electric_dipole_moment_norm": 3.33706394754, 
			 "electric_quadrupole_moment_norm": 16.0589128651, 
			 "total_energy": -476.935818517, 
			 "HOMO_LUMO_gap": 0.24561, 
			 "cosmo_polarized_energy": -11.02, 
			 "cosmo_cavitation_energy": 25.25, 
			 "cosmo_dispersion_energy": -18.98, 
			 "cosmo_repulsion_energy": 1.53, 
			 "cosmo_total_nonelectrostatic_energy": 7.8, 
			 "SMD_solvation_energy": 1.14 
		},
		"coords": [
			{
				"x": 0.327562576,
				"y": 1.1829196134,
				"z": 0.2827378218,
				"element": "C" 
			},
			{
				"x": -0.6606043315,
				"y": 1.1976711603,
				"z": 1.4723537294,
				"element": "C" 
			},
			{
				"x": -0.3383246647,
				"y": 0.068423216,
				"z": 2.4577725386,
				"element": "C" 
			},
			{
				"x": -0.5171958721,
				"y": -1.3055580893,
				"z": 1.7595547953,
				"element": "C" 
			},
			{
				"x": -0.1964542545,
				"y": -1.2882134361,
				"z": 0.3088919721,
				"element": "N" 
			},
			{
				"x": 0.7996678299,
				"y": -0.2599656863,
				"z": -0.0257678203,
				"element": "C" 
			},
			{
				"x": 0.2966579939,
				"y": -2.3843015838,
				"z": 2.4292928611,
				"element": "C" 
			},
			{
				"x": 0.5566101535,
				"y": -2.5037229311,
				"z": 3.7182147118,
				"element": "N" 
			},
			{
				"x": 1.2845440639,
				"y": -3.6687430151,
				"z": 3.8338513883,
				"element": "C" 
			},
			{
				"x": 1.4669277782,
				"y": -4.254204167,
				"z": 2.6042778353,
				"element": "C" 
			},
			{
				"x": 0.823224971,
				"y": -3.4201129023,
				"z": 1.7151269231,
				"element": "N" 
			},
			{
				"x": -0.1478900787,
				"y": 1.624618962,
				"z": -0.6014796431,
				"element": "H" 
			},
			{
				"x": 1.2018268749,
				"y": 1.8062412492,
				"z": 0.507577981,
				"element": "H" 
			},
			{
				"x": -0.6384061542,
				"y": 2.1698471952,
				"z": 1.9754441469,
				"element": "H" 
			},
			{
				"x": -1.6876904495,
				"y": 1.0703365628,
				"z": 1.1042521793,
				"element": "H" 
			},
			{
				"x": -0.9754771657,
				"y": 0.1099943296,
				"z": 3.3455037982,
				"element": "H" 
			},
			{
				"x": 0.6909446558,
				"y": 0.1661985414,
				"z": 2.8200449734,
				"element": "H" 
			},
			{
				"x": -1.5776650033,
				"y": -1.5850801146,
				"z": 1.8333501605,
				"element": "H" 
			},
			{
				"x": -1.0478183454,
				"y": -1.1040629329,
				"z": -0.2144470447,
				"element": "H" 
			},
			{
				"x": 1.0706821539,
				"y": -0.3657942608,
				"z": -1.0816569318,
				"element": "H" 
			},
			{
				"x": 1.7030108736,
				"y": -0.4916211921,
				"z": 0.5500740841,
				"element": "H" 
			},
			{
				"x": 1.6392487978,
				"y": -4.01855729,
				"z": 4.7938911301,
				"element": "H" 
			},
			{
				"x": 1.9830426643,
				"y": -5.1481700311,
				"z": 2.2899600383,
				"element": "H" 
			},
			{
				"x": 0.7586749331,
				"y": -3.4737431977,
				"z": 0.7085783714,
				"element": "H" 
			}
		],
		 "valence_orbital": [ 
			{
				"type": "occ",
				"energy": -0.3136,
				"method": "rhf"
			},
			{
				"type": "occ",
				"energy": -0.26342,
				"method": "rhf"
			},
			{
				"type": "occ",
				"energy": -0.25273,
				"method": "rhf"
			},
			{
				"type": "occ",
				"energy": -0.23232,
				"method": "rhf"
			},
			{
				"type": "occ",
				"energy": -0.20784,
				"method": "rhf"
			},
			{
				"type": "unocc",
				"energy": 0.03777,
				"method": "rhf"
			},
			{
				"type": "unocc",
				"energy": 0.06631,
				"method": "rhf"
			},
			{
				"type": "unocc",
				"energy": 0.0867,
				"method": "rhf"
			},
			{
				"type": "unocc",
				"energy": 0.10301,
				"method": "rhf"
			},
			{
				"type": "unocc",
				"energy": 0.11257,
				"method": "rhf"
			}
		],
		"cosmo_sigma_profile": { 
			"-0.025": 0.0,
			"-0.024": 0.0,
			"-0.023": 0.0,
			"-0.022": 0.0,
			"-0.021": 0.0,
			"-0.02": 0.0,
			"-0.019": 0.0,
			"-0.018": 0.0,
			"-0.017": 0.0,
			"-0.016": 0.0,
			"-0.015": 0.0,
			"-0.014": 0.249570852512,
			"-0.013": 0.844822418216,
			"-0.012": 0.825689423907,
			"-0.011": 0.958343690234,
			"-0.01": 1.43279306738,
			"-0.009": 2.22047215955,
			"-0.008": 3.84500766568,
			"-0.007": 3.96801868987,
			"-0.006": 5.93976124192,
			"-0.005": 8.08584698877,
			"-0.004": 8.223448495,
			"-0.003": 18.162261395,
			"-0.002": 26.3890069642,
			"-0.001": 23.6893927826,
			"0.0": 21.9895584829,
			"0.001": 17.0244724921,
			"0.002": 7.44621777914,
			"0.003": 5.6226828693,
			"0.004": 6.1608543199,
			"0.005": 6.65025064806,
			"0.006": 6.38126924511,
			"0.007": 4.62770216172,
			"0.008": 3.00589784056,
			"0.009": 2.18132853226,
			"0.01": 2.0278265393,
			"0.011": 1.72797466339,
			"0.012": 0.823711970815,
			"0.013": 1.0419867731,
			"0.014": 1.70047292808,
			"0.015": 0.701386407726,
			"0.016": 1.1259304847,
			"0.017": 0.78044477958,
			"0.018": 0.885775979325,
			"0.019": 0.237651526095,
			"0.02": 0.0,
			"0.021": 0.0,
			"0.022": 0.0,
			"0.023": 0.0,
			"0.024": 0.0,
			"0.025": 0.0
		}
	}
}
