{
	 "smiles": "NC1=C(C=CC=C1)C1=NC(=NN1)C1CC1", 
	 "Tm": 487.15, 
	 "num_atms": 27, 
	 "gaussian": { 
		 "optdone": 1, 
		 "sigma_profile": "yes", 
		 "theory": "DFT", 
		 "functional": "B3LYP", 
		 "basiset": "6-31G**", 
		 "properties": { 
			 "R2extent": 4414.2255, 
			 "electric_dipole_moment_norm": 1.20420132868, 
			 "electric_quadrupole_moment_norm": 10.0231568809, 
			 "total_energy": -645.38992222, 
			 "HOMO_LUMO_gap": 0.16279, 
			 "cosmo_polarized_energy": -12.9, 
			 "cosmo_cavitation_energy": 30.51, 
			 "cosmo_dispersion_energy": -22.91, 
			 "cosmo_repulsion_energy": 1.79, 
			 "cosmo_total_nonelectrostatic_energy": 9.39, 
			 "SMD_solvation_energy": 2.58 
		},
		"coords": [
			{
				"x": -0.2665571114,
				"y": -2.5309997191,
				"z": -0.5764692013,
				"element": "N" 
			},
			{
				"x": -1.0331445437,
				"y": -2.5976814086,
				"z": 0.5554331359,
				"element": "C" 
			},
			{
				"x": -1.4528111012,
				"y": -1.4228729037,
				"z": 1.2487260501,
				"element": "C" 
			},
			{
				"x": -2.2110737003,
				"y": -1.5627679089,
				"z": 2.426214622,
				"element": "C" 
			},
			{
				"x": -2.5585425577,
				"y": -2.8039681421,
				"z": 2.9389352157,
				"element": "C" 
			},
			{
				"x": -2.1429704939,
				"y": -3.9549861164,
				"z": 2.2562918532,
				"element": "C" 
			},
			{
				"x": -1.4000130604,
				"y": -3.8530100428,
				"z": 1.0913887928,
				"element": "C" 
			},
			{
				"x": -1.1105209923,
				"y": -0.0953713456,
				"z": 0.7444913528,
				"element": "C" 
			},
			{
				"x": -0.5554619719,
				"y": 0.2007215129,
				"z": -0.4360096013,
				"element": "N" 
			},
			{
				"x": -0.4517445225,
				"y": 1.5630624027,
				"z": -0.4315839797,
				"element": "C" 
			},
			{
				"x": -0.9028115793,
				"y": 2.1387478579,
				"z": 0.6757053118,
				"element": "N" 
			},
			{
				"x": -1.3175722172,
				"y": 1.0704893121,
				"z": 1.409363617,
				"element": "N" 
			},
			{
				"x": 0.1147370987,
				"y": 2.3180725061,
				"z": -1.5676712051,
				"element": "C" 
			},
			{
				"x": 0.9144757083,
				"y": 3.5830865495,
				"z": -1.3167463543,
				"element": "C" 
			},
			{
				"x": -0.4495597819,
				"y": 3.6788034566,
				"z": -1.9331625735,
				"element": "C" 
			},
			{
				"x": -0.1752233456,
				"y": -1.6237417752,
				"z": -1.024852751,
				"element": "H" 
			},
			{
				"x": -0.1790894591,
				"y": -3.3621688844,
				"z": -1.1382177644,
				"element": "H" 
			},
			{
				"x": -2.5574241912,
				"y": -0.6720060248,
				"z": 2.9442628711,
				"element": "H" 
			},
			{
				"x": -3.1478376967,
				"y": -2.8780349432,
				"z": 3.8466525203,
				"element": "H" 
			},
			{
				"x": -2.4064957705,
				"y": -4.9382622981,
				"z": 2.6359768848,
				"element": "H" 
			},
			{
				"x": -1.0804008115,
				"y": -4.7509789276,
				"z": 0.5683333883,
				"element": "H" 
			},
			{
				"x": -1.6821891795,
				"y": 1.2197113444,
				"z": 2.336499832,
				"element": "H" 
			},
			{
				"x": 0.4369381974,
				"y": 1.6770208529,
				"z": -2.3814642931,
				"element": "H" 
			},
			{
				"x": 1.7842286748,
				"y": 3.7605940807,
				"z": -1.9421553202,
				"element": "H" 
			},
			{
				"x": 1.0232641002,
				"y": 3.8881344112,
				"z": -0.2809778443,
				"element": "H" 
			},
			{
				"x": -1.2595291033,
				"y": 4.0483086677,
				"z": -1.312529075,
				"element": "H" 
			},
			{
				"x": -0.5304705885,
				"y": 3.922997486,
				"z": -2.9881354846,
				"element": "H" 
			}
		],
		 "valence_orbital": [ 
			{
				"type": "occ",
				"energy": -0.29485,
				"method": "rhf"
			},
			{
				"type": "occ",
				"energy": -0.27462,
				"method": "rhf"
			},
			{
				"type": "occ",
				"energy": -0.2599,
				"method": "rhf"
			},
			{
				"type": "occ",
				"energy": -0.22816,
				"method": "rhf"
			},
			{
				"type": "occ",
				"energy": -0.19411,
				"method": "rhf"
			},
			{
				"type": "unocc",
				"energy": -0.03132,
				"method": "rhf"
			},
			{
				"type": "unocc",
				"energy": 0.01512,
				"method": "rhf"
			},
			{
				"type": "unocc",
				"energy": 0.03686,
				"method": "rhf"
			},
			{
				"type": "unocc",
				"energy": 0.06526,
				"method": "rhf"
			},
			{
				"type": "unocc",
				"energy": 0.07417,
				"method": "rhf"
			}
		],
		"cosmo_sigma_profile": { 
			"-0.025": 0.0,
			"-0.024": 0.0,
			"-0.023": 0.0,
			"-0.022": 0.0,
			"-0.021": 0.0,
			"-0.02": 0.0,
			"-0.019": 0.0,
			"-0.018": 0.0,
			"-0.017": 0.868815919977,
			"-0.016": 1.47693923577,
			"-0.015": 1.26930272852,
			"-0.014": 1.21873089696,
			"-0.013": 1.3596480614,
			"-0.012": 2.81171578551,
			"-0.011": 2.53071337468,
			"-0.01": 2.52391963697,
			"-0.009": 2.1390847171,
			"-0.008": 2.03740191776,
			"-0.007": 3.55431643249,
			"-0.006": 7.06913081378,
			"-0.005": 13.7248615097,
			"-0.004": 17.499816444,
			"-0.003": 17.2675139326,
			"-0.002": 13.5179432623,
			"-0.001": 14.1196635882,
			"0.0": 15.6640402998,
			"0.001": 16.1342422277,
			"0.002": 18.3460647578,
			"0.003": 22.7075943946,
			"0.004": 18.8099219985,
			"0.005": 15.9469563459,
			"0.006": 13.4624615673,
			"0.007": 5.17152466054,
			"0.008": 3.78422094543,
			"0.009": 2.06429820012,
			"0.01": 1.97147304376,
			"0.011": 1.4007906495,
			"0.012": 1.02970218819,
			"0.013": 0.770243255473,
			"0.014": 0.626498789786,
			"0.015": 0.223241851853,
			"0.016": 0.0,
			"0.017": 0.0,
			"0.018": 0.0,
			"0.019": 0.0,
			"0.02": 0.0,
			"0.021": 0.0,
			"0.022": 0.0,
			"0.023": 0.0,
			"0.024": 0.0,
			"0.025": 0.0
		}
	}
}
