{
	 "smiles": "O=C1CCCC2CC3=CC=CC=C3C(=O)C12", 
	 "Tm": 352.15, 
	 "num_atms": 30, 
	 "gaussian": { 
		 "optdone": 1, 
		 "sigma_profile": "yes", 
		 "theory": "DFT", 
		 "functional": "B3LYP", 
		 "basiset": "6-31G**", 
		 "properties": { 
			 "R2extent": 3533.2687, 
			 "electric_dipole_moment_norm": 5.35934109756, 
			 "electric_quadrupole_moment_norm": 7.62933085663, 
			 "total_energy": -692.39200173, 
			 "HOMO_LUMO_gap": 0.1715, 
			 "cosmo_polarized_energy": -12.95, 
			 "cosmo_cavitation_energy": 31.08, 
			 "cosmo_dispersion_energy": -22.69, 
			 "cosmo_repulsion_energy": 1.74, 
			 "cosmo_total_nonelectrostatic_energy": 10.13, 
			 "SMD_solvation_energy": 5.36 
		},
		"coords": [
			{
				"x": -0.7590899728,
				"y": -2.9653002027,
				"z": -1.1642497176,
				"element": "O" 
			},
			{
				"x": -0.0269465175,
				"y": -2.0920474394,
				"z": -0.7458114097,
				"element": "C" 
			},
			{
				"x": 1.2699146896,
				"y": -2.3708964731,
				"z": -0.0050239115,
				"element": "C" 
			},
			{
				"x": 2.4577985393,
				"y": -1.643222709,
				"z": -0.6728905548,
				"element": "C" 
			},
			{
				"x": 2.1804139124,
				"y": -0.1454928794,
				"z": -0.8756519382,
				"element": "C" 
			},
			{
				"x": 0.8904205607,
				"y": 0.0838561667,
				"z": -1.6864824241,
				"element": "C" 
			},
			{
				"x": 0.5626080914,
				"y": 1.5661537036,
				"z": -1.9287877034,
				"element": "C" 
			},
			{
				"x": 0.0654288875,
				"y": 2.2880391877,
				"z": -0.6944209143,
				"element": "C" 
			},
			{
				"x": 0.2030521345,
				"y": 3.6762801904,
				"z": -0.5741812921,
				"element": "C" 
			},
			{
				"x": -0.2809337327,
				"y": 4.3503593891,
				"z": 0.5457104532,
				"element": "C" 
			},
			{
				"x": -0.9075088418,
				"y": 3.6446365425,
				"z": 1.5794160518,
				"element": "C" 
			},
			{
				"x": -1.0408958959,
				"y": 2.2656922006,
				"z": 1.4816702228,
				"element": "C" 
			},
			{
				"x": -0.5645153492,
				"y": 1.5824277627,
				"z": 0.3504833828,
				"element": "C" 
			},
			{
				"x": -0.7167359866,
				"y": 0.1006683674,
				"z": 0.3020235732,
				"element": "C" 
			},
			{
				"x": -1.1611499027,
				"y": -0.5330113302,
				"z": 1.2490286558,
				"element": "O" 
			},
			{
				"x": -0.315224054,
				"y": -0.6077559984,
				"z": -0.9982054534,
				"element": "C" 
			},
			{
				"x": 1.1471571794,
				"y": -2.0089814722,
				"z": 1.0241422647,
				"element": "H" 
			},
			{
				"x": 1.4234400285,
				"y": -3.4522413816,
				"z": 0.0316956689,
				"element": "H" 
			},
			{
				"x": 2.6599826027,
				"y": -2.1081725712,
				"z": -1.6469886187,
				"element": "H" 
			},
			{
				"x": 3.360544014,
				"y": -1.7830524416,
				"z": -0.0683106932,
				"element": "H" 
			},
			{
				"x": 2.1039329643,
				"y": 0.3526765709,
				"z": 0.0999391955,
				"element": "H" 
			},
			{
				"x": 3.0243593093,
				"y": 0.3221970289,
				"z": -1.3971311125,
				"element": "H" 
			},
			{
				"x": 1.0294661548,
				"y": -0.3921865419,
				"z": -2.6666863595,
				"element": "H" 
			},
			{
				"x": -0.2116470917,
				"y": 1.628795352,
				"z": -2.7077196775,
				"element": "H" 
			},
			{
				"x": 1.4394985036,
				"y": 2.0860079043,
				"z": -2.332749891,
				"element": "H" 
			},
			{
				"x": 0.6967505258,
				"y": 4.2322028167,
				"z": -1.3674057541,
				"element": "H" 
			},
			{
				"x": -0.1641347831,
				"y": 5.428190486,
				"z": 0.6168961689,
				"element": "H" 
			},
			{
				"x": -1.2818269524,
				"y": 4.1709231906,
				"z": 2.452295215,
				"element": "H" 
			},
			{
				"x": -1.5117952456,
				"y": 1.6829127875,
				"z": 2.2665238858,
				"element": "H" 
			},
			{
				"x": -1.1928637716,
				"y": -0.5614582068,
				"z": -1.6580273125,
				"element": "H" 
			}
		],
		 "valence_orbital": [ 
			{
				"type": "occ",
				"energy": -0.32415,
				"method": "rhf"
			},
			{
				"type": "occ",
				"energy": -0.26377,
				"method": "rhf"
			},
			{
				"type": "occ",
				"energy": -0.25742,
				"method": "rhf"
			},
			{
				"type": "occ",
				"energy": -0.25421,
				"method": "rhf"
			},
			{
				"type": "occ",
				"energy": -0.2344,
				"method": "rhf"
			},
			{
				"type": "unocc",
				"energy": -0.0629,
				"method": "rhf"
			},
			{
				"type": "unocc",
				"energy": -0.0159,
				"method": "rhf"
			},
			{
				"type": "unocc",
				"energy": -0.01138,
				"method": "rhf"
			},
			{
				"type": "unocc",
				"energy": 0.03174,
				"method": "rhf"
			},
			{
				"type": "unocc",
				"energy": 0.07929,
				"method": "rhf"
			}
		],
		"cosmo_sigma_profile": { 
			"-0.025": 0.0,
			"-0.024": 0.0,
			"-0.023": 0.0,
			"-0.022": 0.0,
			"-0.021": 0.0,
			"-0.02": 0.0,
			"-0.019": 0.0,
			"-0.018": 0.0,
			"-0.017": 0.0,
			"-0.016": 0.0,
			"-0.015": 0.0,
			"-0.014": 0.0,
			"-0.013": 0.0,
			"-0.012": 0.0,
			"-0.011": 0.0,
			"-0.01": 0.0,
			"-0.009": 0.0,
			"-0.008": 0.0,
			"-0.007": 2.70130785367,
			"-0.006": 10.4999181479,
			"-0.005": 21.2750155486,
			"-0.004": 30.6889791625,
			"-0.003": 29.7244308255,
			"-0.002": 27.216969305,
			"-0.001": 22.114825329,
			"0.0": 15.540400026,
			"0.001": 9.85993028866,
			"0.002": 11.0482529515,
			"0.003": 12.2088865913,
			"0.004": 13.0569621271,
			"0.005": 5.06404460959,
			"0.006": 2.61403788457,
			"0.007": 3.46579413508,
			"0.008": 4.02371610324,
			"0.009": 3.7708705821,
			"0.01": 4.24085398975,
			"0.011": 6.68544425826,
			"0.012": 7.10640113913,
			"0.013": 1.76023451824,
			"0.014": 0.0208573193421,
			"0.015": 0.0,
			"0.016": 0.0,
			"0.017": 0.0,
			"0.018": 0.0,
			"0.019": 0.0,
			"0.02": 0.0,
			"0.021": 0.0,
			"0.022": 0.0,
			"0.023": 0.0,
			"0.024": 0.0,
			"0.025": 0.0
		}
	}
}
