{
	 "smiles": "CC(C)NS(=O)(=O)C1=C(C=CC=C1)C(O)=O", 
	 "Tm": 385.15, 
	 "num_atms": 29, 
	 "gaussian": { 
		 "optdone": 1, 
		 "sigma_profile": "yes", 
		 "theory": "DFT", 
		 "functional": "B3LYP", 
		 "basiset": "6-31G**", 
		 "properties": { 
			 "R2extent": 4200.3378, 
			 "electric_dipole_moment_norm": 8.08311807473, 
			 "electric_quadrupole_moment_norm": 28.5725589187, 
			 "total_energy": -1142.66788271, 
			 "HOMO_LUMO_gap": 0.21108, 
			 "cosmo_polarized_energy": -26.35, 
			 "cosmo_cavitation_energy": 34.16, 
			 "cosmo_dispersion_energy": -23.73, 
			 "cosmo_repulsion_energy": 1.82, 
			 "cosmo_total_nonelectrostatic_energy": 12.26, 
			 "SMD_solvation_energy": 6.33 
		},
		"coords": [
			{
				"x": 2.1738183299,
				"y": 2.7240868078,
				"z": 0.2396213091,
				"element": "C" 
			},
			{
				"x": 0.9548354042,
				"y": 2.1722912171,
				"z": -0.5064167759,
				"element": "C" 
			},
			{
				"x": 0.5099746298,
				"y": 3.0875366417,
				"z": -1.6530538326,
				"element": "C" 
			},
			{
				"x": -0.1274010177,
				"y": 1.9359440084,
				"z": 0.4805615686,
				"element": "N" 
			},
			{
				"x": -1.3313373383,
				"y": 0.8018647618,
				"z": 0.1611194094,
				"element": "S" 
			},
			{
				"x": -1.3072845927,
				"y": 0.4256249455,
				"z": -1.2580262726,
				"element": "O" 
			},
			{
				"x": -2.5337676695,
				"y": 1.3299900592,
				"z": 0.8072603431,
				"element": "O" 
			},
			{
				"x": -0.7388343964,
				"y": -0.6551717764,
				"z": 1.0573060048,
				"element": "C" 
			},
			{
				"x": -1.1262020771,
				"y": -1.9385829626,
				"z": 0.6348032403,
				"element": "C" 
			},
			{
				"x": -0.6192915737,
				"y": -3.051081337,
				"z": 1.3198607242,
				"element": "C" 
			},
			{
				"x": 0.2239487822,
				"y": -2.893144011,
				"z": 2.4202174359,
				"element": "C" 
			},
			{
				"x": 0.5822060346,
				"y": -1.6141685039,
				"z": 2.8418373051,
				"element": "C" 
			},
			{
				"x": 0.105471246,
				"y": -0.4955476735,
				"z": 2.1560833192,
				"element": "C" 
			},
			{
				"x": -2.1455799154,
				"y": -2.1960626052,
				"z": -0.4532811522,
				"element": "C" 
			},
			{
				"x": -1.7148974637,
				"y": -2.995592395,
				"z": -1.4620008547,
				"element": "O" 
			},
			{
				"x": -3.2869742064,
				"y": -1.8230160965,
				"z": -0.3954963502,
				"element": "O" 
			},
			{
				"x": 3.0077264133,
				"y": 2.8742945995,
				"z": -0.4531381432,
				"element": "H" 
			},
			{
				"x": 2.4958148505,
				"y": 2.0393079006,
				"z": 1.0289122287,
				"element": "H" 
			},
			{
				"x": 1.9461219814,
				"y": 3.6927598884,
				"z": 0.6996318563,
				"element": "H" 
			},
			{
				"x": 1.2064416134,
				"y": 1.1894634772,
				"z": -0.9177493632,
				"element": "H" 
			},
			{
				"x": 1.3261899567,
				"y": 3.2312928731,
				"z": -2.3687546968,
				"element": "H" 
			},
			{
				"x": -0.3424542932,
				"y": 2.6552125032,
				"z": -2.1808691094,
				"element": "H" 
			},
			{
				"x": 0.2244846906,
				"y": 4.0754222772,
				"z": -1.2709639858,
				"element": "H" 
			},
			{
				"x": -0.5894804783,
				"y": 2.7815287899,
				"z": 0.807989477,
				"element": "H" 
			},
			{
				"x": -0.9139918812,
				"y": -4.0467188302,
				"z": 1.0006388627,
				"element": "H" 
			},
			{
				"x": 0.5959904425,
				"y": -3.7678619332,
				"z": 2.9448075587,
				"element": "H" 
			},
			{
				"x": 1.237648569,
				"y": -1.4814743004,
				"z": 3.696984435,
				"element": "H" 
			},
			{
				"x": 0.4015698715,
				"y": 0.5040857185,
				"z": 2.4509671933,
				"element": "H" 
			},
			{
				"x": -0.7524459119,
				"y": -3.0881840441,
				"z": -1.4158517348,
				"element": "H" 
			}
		],
		 "valence_orbital": [ 
			{
				"type": "occ",
				"energy": -0.30475,
				"method": "rhf"
			},
			{
				"type": "occ",
				"energy": -0.28742,
				"method": "rhf"
			},
			{
				"type": "occ",
				"energy": -0.28455,
				"method": "rhf"
			},
			{
				"type": "occ",
				"energy": -0.27016,
				"method": "rhf"
			},
			{
				"type": "occ",
				"energy": -0.26609,
				"method": "rhf"
			},
			{
				"type": "unocc",
				"energy": -0.05501,
				"method": "rhf"
			},
			{
				"type": "unocc",
				"energy": -0.03908,
				"method": "rhf"
			},
			{
				"type": "unocc",
				"energy": 0.0194,
				"method": "rhf"
			},
			{
				"type": "unocc",
				"energy": 0.04697,
				"method": "rhf"
			},
			{
				"type": "unocc",
				"energy": 0.06954,
				"method": "rhf"
			}
		],
		"cosmo_sigma_profile": { 
			"-0.025": 0.0,
			"-0.024": 0.0,
			"-0.023": 0.0,
			"-0.022": 0.0,
			"-0.021": 0.0,
			"-0.02": 0.0545463968872,
			"-0.019": 0.713406596758,
			"-0.018": 0.693325401637,
			"-0.017": 0.984514942162,
			"-0.016": 0.669810259718,
			"-0.015": 0.722420443199,
			"-0.014": 1.35113162606,
			"-0.013": 1.79874798522,
			"-0.012": 1.61116575897,
			"-0.011": 2.34472694404,
			"-0.01": 1.95962996785,
			"-0.009": 2.37441814744,
			"-0.008": 6.22333983027,
			"-0.007": 11.3214536506,
			"-0.006": 12.5904151909,
			"-0.005": 11.5278000258,
			"-0.004": 19.2483398471,
			"-0.003": 21.1177048429,
			"-0.002": 18.6949398554,
			"-0.001": 21.0795533781,
			"0.0": 26.1212116308,
			"0.001": 22.2169501317,
			"0.002": 13.0833870871,
			"0.003": 4.34577184429,
			"0.004": 4.35617036604,
			"0.005": 3.99546084439,
			"0.006": 4.0470975135,
			"0.007": 5.01100492645,
			"0.008": 7.39464273872,
			"0.009": 10.4827617687,
			"0.01": 14.1167734876,
			"0.011": 13.9954072647,
			"0.012": 3.83818571547,
			"0.013": 0.0464768095497,
			"0.014": 0.0,
			"0.015": 0.0,
			"0.016": 0.0,
			"0.017": 0.0,
			"0.018": 0.0,
			"0.019": 0.0,
			"0.02": 0.0,
			"0.021": 0.0,
			"0.022": 0.0,
			"0.023": 0.0,
			"0.024": 0.0,
			"0.025": 0.0
		}
	}
}
