{
	 "smiles": "OC(=O)C(CC1=CC(Br)=CC=C1)NC(=O)OCC1C2=C(C=CC=C2)C2=C1C=CC=C2", 
	 "Tm": 419.15, 
	 "num_atms": 50, 
	 "gaussian": { 
		 "optdone": 1, 
		 "sigma_profile": "yes", 
		 "theory": "DFT", 
		 "functional": "B3LYP", 
		 "basiset": "6-31G**", 
		 "properties": { 
			 "R2extent": 18965.4418, 
			 "electric_dipole_moment_norm": 4.77564910876, 
			 "electric_quadrupole_moment_norm": 35.8294108418, 
			 "total_energy": -3853.71192773, 
			 "HOMO_LUMO_gap": 0.184, 
			 "cosmo_polarized_energy": -23.1, 
			 "cosmo_cavitation_energy": 56.66, 
			 "cosmo_dispersion_energy": -37.11, 
			 "cosmo_repulsion_energy": 2.78, 
			 "cosmo_total_nonelectrostatic_energy": 22.33, 
			 "SMD_solvation_energy": 9.15 
		},
		"coords": [
			{
				"x": -0.4778952415,
				"y": -4.3853340921,
				"z": -2.1141089498,
				"element": "O" 
			},
			{
				"x": -1.0481884538,
				"y": -3.6738164307,
				"z": -1.1142431822,
				"element": "C" 
			},
			{
				"x": -2.0241311359,
				"y": -2.9792561279,
				"z": -1.276344482,
				"element": "O" 
			},
			{
				"x": -0.3322358969,
				"y": -3.915712054,
				"z": 0.2226669245,
				"element": "C" 
			},
			{
				"x": 1.2127510462,
				"y": -3.7816590005,
				"z": 0.0986804109,
				"element": "C" 
			},
			{
				"x": 1.9396806164,
				"y": -4.2279981702,
				"z": 1.3476607618,
				"element": "C" 
			},
			{
				"x": 2.2831094164,
				"y": -3.3015317553,
				"z": 2.3402515326,
				"element": "C" 
			},
			{
				"x": 2.9401956344,
				"y": -3.7292908821,
				"z": 3.491653986,
				"element": "C" 
			},
			{
				"x": 3.40931589,
				"y": -2.4452232175,
				"z": 4.8296142646,
				"element": "Br" 
			},
			{
				"x": 3.2663879639,
				"y": -5.0695220001,
				"z": 3.6886842942,
				"element": "C" 
			},
			{
				"x": 2.9236184723,
				"y": -5.9921820114,
				"z": 2.6990648326,
				"element": "C" 
			},
			{
				"x": 2.2689670506,
				"y": -5.5766176114,
				"z": 1.5397563105,
				"element": "C" 
			},
			{
				"x": -0.9221515051,
				"y": -3.1430184935,
				"z": 1.2964685702,
				"element": "N" 
			},
			{
				"x": -0.9918289355,
				"y": -1.77698568,
				"z": 1.4325686892,
				"element": "C" 
			},
			{
				"x": -1.6399612315,
				"y": -1.2279518411,
				"z": 2.3009524523,
				"element": "O" 
			},
			{
				"x": -0.216189353,
				"y": -1.130722599,
				"z": 0.520607195,
				"element": "O" 
			},
			{
				"x": -0.0816764377,
				"y": 0.2965187439,
				"z": 0.7269356832,
				"element": "C" 
			},
			{
				"x": 0.398643593,
				"y": 0.9317983669,
				"z": -0.5820973331,
				"element": "C" 
			},
			{
				"x": 0.9882385572,
				"y": 2.3206117926,
				"z": -0.3719008528,
				"element": "C" 
			},
			{
				"x": 0.3341889863,
				"y": 3.2592512647,
				"z": -1.1951975246,
				"element": "C" 
			},
			{
				"x": 0.7220830217,
				"y": 4.6007237572,
				"z": -1.1829690731,
				"element": "C" 
			},
			{
				"x": 1.764322493,
				"y": 4.9946585748,
				"z": -0.3404964612,
				"element": "C" 
			},
			{
				"x": 2.4132093876,
				"y": 4.062603635,
				"z": 0.4761400807,
				"element": "C" 
			},
			{
				"x": 2.0281387668,
				"y": 2.7166161208,
				"z": 0.4621931729,
				"element": "C" 
			},
			{
				"x": -0.7091469158,
				"y": 2.5643665094,
				"z": -1.9602537249,
				"element": "C" 
			},
			{
				"x": -0.6955958688,
				"y": 1.1979026722,
				"z": -1.6083502439,
				"element": "C" 
			},
			{
				"x": -1.6091303391,
				"y": 0.3146348241,
				"z": -2.174749215,
				"element": "C" 
			},
			{
				"x": -2.5330769112,
				"y": 0.8062399784,
				"z": -3.1054383039,
				"element": "C" 
			},
			{
				"x": -2.5395203409,
				"y": 2.158037088,
				"z": -3.4644438566,
				"element": "C" 
			},
			{
				"x": -1.6280588092,
				"y": 3.0487079931,
				"z": -2.8931274987,
				"element": "C" 
			},
			{
				"x": -0.9998307263,
				"y": -4.2018015209,
				"z": -2.9136727442,
				"element": "H" 
			},
			{
				"x": -0.5338273499,
				"y": -4.9664883216,
				"z": 0.4654755008,
				"element": "H" 
			},
			{
				"x": 1.4541030143,
				"y": -2.7434555479,
				"z": -0.1351569229,
				"element": "H" 
			},
			{
				"x": 1.5247217086,
				"y": -4.3935720341,
				"z": -0.7512905818,
				"element": "H" 
			},
			{
				"x": 2.0428451079,
				"y": -2.2523002332,
				"z": 2.2115826286,
				"element": "H" 
			},
			{
				"x": 3.7797477573,
				"y": -5.3820508672,
				"z": 4.590621445,
				"element": "H" 
			},
			{
				"x": 3.1779104437,
				"y": -7.039411633,
				"z": 2.8343137605,
				"element": "H" 
			},
			{
				"x": 2.0190864431,
				"y": -6.3044422752,
				"z": 0.7715694878,
				"element": "H" 
			},
			{
				"x": -1.58154913,
				"y": -3.6097400542,
				"z": 1.9000118335,
				"element": "H" 
			},
			{
				"x": 0.6510270422,
				"y": 0.452399983,
				"z": 1.5258464213,
				"element": "H" 
			},
			{
				"x": -1.0375303066,
				"y": 0.7083781755,
				"z": 1.0535875384,
				"element": "H" 
			},
			{
				"x": 1.1661003276,
				"y": 0.2669521387,
				"z": -1.0054647692,
				"element": "H" 
			},
			{
				"x": 0.2232896285,
				"y": 5.3298838641,
				"z": -1.8154218551,
				"element": "H" 
			},
			{
				"x": 2.0748355013,
				"y": 6.0354566072,
				"z": -0.3194093395,
				"element": "H" 
			},
			{
				"x": 3.2226153591,
				"y": 4.3846216318,
				"z": 1.1247954447,
				"element": "H" 
			},
			{
				"x": 2.5427346066,
				"y": 1.9982756216,
				"z": 1.0956778893,
				"element": "H" 
			},
			{
				"x": -1.6245960078,
				"y": -0.7333991894,
				"z": -1.8956167125,
				"element": "H" 
			},
			{
				"x": -3.2556481874,
				"y": 0.1276680914,
				"z": -3.549869055,
				"element": "H" 
			},
			{
				"x": -3.2629185535,
				"y": 2.5196806768,
				"z": -4.1899079095,
				"element": "H" 
			},
			{
				"x": -1.6403801982,
				"y": 4.0996955325,
				"z": -3.1688505196,
				"element": "H" 
			}
		],
		 "valence_orbital": [ 
			{
				"type": "occ",
				"energy": -0.26126,
				"method": "rhf"
			},
			{
				"type": "occ",
				"energy": -0.24787,
				"method": "rhf"
			},
			{
				"type": "occ",
				"energy": -0.244,
				"method": "rhf"
			},
			{
				"type": "occ",
				"energy": -0.24065,
				"method": "rhf"
			},
			{
				"type": "occ",
				"energy": -0.21216,
				"method": "rhf"
			},
			{
				"type": "unocc",
				"energy": -0.02816,
				"method": "rhf"
			},
			{
				"type": "unocc",
				"energy": -0.02388,
				"method": "rhf"
			},
			{
				"type": "unocc",
				"energy": -0.01799,
				"method": "rhf"
			},
			{
				"type": "unocc",
				"energy": -0.01035,
				"method": "rhf"
			},
			{
				"type": "unocc",
				"energy": -0.00691,
				"method": "rhf"
			}
		],
		"cosmo_sigma_profile": { 
			"-0.025": 0.0,
			"-0.024": 0.0,
			"-0.023": 0.0,
			"-0.022": 0.0,
			"-0.021": 0.0,
			"-0.02": 0.0,
			"-0.019": 0.302242997863,
			"-0.018": 0.748150560306,
			"-0.017": 0.931406490765,
			"-0.016": 0.981667420823,
			"-0.015": 1.59094607319,
			"-0.014": 2.37156031251,
			"-0.013": 1.73666904515,
			"-0.012": 1.89936151302,
			"-0.011": 2.059867139,
			"-0.01": 2.11883957308,
			"-0.009": 2.4510769303,
			"-0.008": 3.40834656205,
			"-0.007": 6.97227018772,
			"-0.006": 23.0930794613,
			"-0.005": 33.598490722,
			"-0.004": 33.5944661248,
			"-0.003": 35.1853619973,
			"-0.002": 28.0817493346,
			"-0.001": 29.0474463712,
			"0.0": 26.7915184936,
			"0.001": 27.8748653271,
			"0.002": 33.0573050061,
			"0.003": 38.3402914747,
			"0.004": 42.4617477991,
			"0.005": 33.1308715855,
			"0.006": 16.2326610227,
			"0.007": 4.23314126212,
			"0.008": 2.82688468786,
			"0.009": 3.24233761081,
			"0.01": 3.49490295085,
			"0.011": 4.72195052232,
			"0.012": 2.5655973388,
			"0.013": 5.6342719273,
			"0.014": 0.542475264162,
			"0.015": 0.0,
			"0.016": 0.0,
			"0.017": 0.0,
			"0.018": 0.0,
			"0.019": 0.0,
			"0.02": 0.0,
			"0.021": 0.0,
			"0.022": 0.0,
			"0.023": 0.0,
			"0.024": 0.0,
			"0.025": 0.0
		}
	}
}
