{
	 "smiles": "CC1=CC(=O)N(C2CCCCC2)C1=O", 
	 "Tm": 373.15, 
	 "num_atms": 29, 
	 "gaussian": { 
		 "optdone": 1, 
		 "sigma_profile": "yes", 
		 "theory": "DFT", 
		 "functional": "B3LYP", 
		 "basiset": "6-31G**", 
		 "properties": { 
			 "R2extent": 3399.4881, 
			 "electric_dipole_moment_norm": 1.5930561164, 
			 "electric_quadrupole_moment_norm": 16.5118786533, 
			 "total_energy": -633.436265576, 
			 "HOMO_LUMO_gap": 0.17505, 
			 "cosmo_polarized_energy": -8.35, 
			 "cosmo_cavitation_energy": 30.37, 
			 "cosmo_dispersion_energy": -21.89, 
			 "cosmo_repulsion_energy": 1.73, 
			 "cosmo_total_nonelectrostatic_energy": 10.21, 
			 "SMD_solvation_energy": 5.85 
		},
		"coords": [
			{
				"x": -3.305534316,
				"y": -3.0960334755,
				"z": -0.7503126039,
				"element": "C" 
			},
			{
				"x": -2.7348525988,
				"y": -1.8071354568,
				"z": -1.2309839064,
				"element": "C" 
			},
			{
				"x": -2.9912703068,
				"y": -1.0731823095,
				"z": -2.3223612464,
				"element": "C" 
			},
			{
				"x": -2.1216776717,
				"y": 0.1420849613,
				"z": -2.3105394289,
				"element": "C" 
			},
			{
				"x": -2.0672104115,
				"y": 1.0342470366,
				"z": -3.1333882502,
				"element": "O" 
			},
			{
				"x": -1.3468929233,
				"y": 0.0700486699,
				"z": -1.1375191839,
				"element": "N" 
			},
			{
				"x": -0.3438131903,
				"y": 1.0830462845,
				"z": -0.7745694695,
				"element": "C" 
			},
			{
				"x": -0.6633571044,
				"y": 1.8010761102,
				"z": 0.5702145295,
				"element": "C" 
			},
			{
				"x": 0.26769368,
				"y": 1.3645733153,
				"z": 1.7095475068,
				"element": "C" 
			},
			{
				"x": 1.7479310488,
				"y": 1.6592020409,
				"z": 1.377974176,
				"element": "C" 
			},
			{
				"x": 2.060993096,
				"y": 1.4710735452,
				"z": -0.128802717,
				"element": "C" 
			},
			{
				"x": 1.081951169,
				"y": 0.491711484,
				"z": -0.7911315999,
				"element": "C" 
			},
			{
				"x": -1.6633849923,
				"y": -1.0890292932,
				"z": -0.4363374103,
				"element": "C" 
			},
			{
				"x": -1.1782216901,
				"y": -1.462897392,
				"z": 0.6169371707,
				"element": "O" 
			},
			{
				"x": -3.751320904,
				"y": -2.970396664,
				"z": 0.2425824313,
				"element": "H" 
			},
			{
				"x": -4.0653003926,
				"y": -3.4784482828,
				"z": -1.4352185367,
				"element": "H" 
			},
			{
				"x": -2.5151922341,
				"y": -3.8466904986,
				"z": -0.639637291,
				"element": "H" 
			},
			{
				"x": -3.6945971317,
				"y": -1.2638331555,
				"z": -3.1228148343,
				"element": "H" 
			},
			{
				"x": -0.4260007563,
				"y": 1.8123875542,
				"z": -1.5854589991,
				"element": "H" 
			},
			{
				"x": -0.5618850368,
				"y": 2.8823690929,
				"z": 0.41382793,
				"element": "H" 
			},
			{
				"x": -1.7106313812,
				"y": 1.6280069091,
				"z": 0.8372354769,
				"element": "H" 
			},
			{
				"x": -0.0175969387,
				"y": 1.8712816328,
				"z": 2.6384378978,
				"element": "H" 
			},
			{
				"x": 0.1257400611,
				"y": 0.2933255979,
				"z": 1.8804183214,
				"element": "H" 
			},
			{
				"x": 2.386001314,
				"y": 0.9994945548,
				"z": 1.9773525951,
				"element": "H" 
			},
			{
				"x": 2.0027045996,
				"y": 2.6837206448,
				"z": 1.6746177414,
				"element": "H" 
			},
			{
				"x": 1.9964729236,
				"y": 2.4363451624,
				"z": -0.6486563819,
				"element": "H" 
			},
			{
				"x": 3.0908557092,
				"y": 1.1243450638,
				"z": -0.2648024851,
				"element": "H" 
			},
			{
				"x": 1.0900090552,
				"y": -0.4614717972,
				"z": -0.251965644,
				"element": "H" 
			},
			{
				"x": 1.3736873242,
				"y": 0.2806786645,
				"z": -1.8258457885,
				"element": "H" 
			}
		],
		 "valence_orbital": [ 
			{
				"type": "occ",
				"energy": -0.30178,
				"method": "rhf"
			},
			{
				"type": "occ",
				"energy": -0.29165,
				"method": "rhf"
			},
			{
				"type": "occ",
				"energy": -0.28528,
				"method": "rhf"
			},
			{
				"type": "occ",
				"energy": -0.26465,
				"method": "rhf"
			},
			{
				"type": "occ",
				"energy": -0.26113,
				"method": "rhf"
			},
			{
				"type": "unocc",
				"energy": -0.08608,
				"method": "rhf"
			},
			{
				"type": "unocc",
				"energy": 0.05622,
				"method": "rhf"
			},
			{
				"type": "unocc",
				"energy": 0.07218,
				"method": "rhf"
			},
			{
				"type": "unocc",
				"energy": 0.08112,
				"method": "rhf"
			},
			{
				"type": "unocc",
				"energy": 0.10303,
				"method": "rhf"
			}
		],
		"cosmo_sigma_profile": { 
			"-0.025": 0.0,
			"-0.024": 0.0,
			"-0.023": 0.0,
			"-0.022": 0.0,
			"-0.021": 0.0,
			"-0.02": 0.0,
			"-0.019": 0.0,
			"-0.018": 0.0,
			"-0.017": 0.0,
			"-0.016": 0.0,
			"-0.015": 0.0,
			"-0.014": 0.0,
			"-0.013": 0.0,
			"-0.012": 0.0,
			"-0.011": 0.0,
			"-0.01": 0.0,
			"-0.009": 0.71685689956,
			"-0.008": 1.69278242155,
			"-0.007": 1.45323605401,
			"-0.006": 5.16208138833,
			"-0.005": 8.77659059192,
			"-0.004": 15.6480216671,
			"-0.003": 26.5444837566,
			"-0.002": 35.937307707,
			"-0.001": 39.2533405388,
			"0.0": 32.1710596588,
			"0.001": 22.1484613793,
			"0.002": 8.18938034781,
			"0.003": 3.61515213681,
			"0.004": 3.39468514915,
			"0.005": 3.13282432454,
			"0.006": 3.37821487996,
			"0.007": 3.92187093128,
			"0.008": 2.12437117841,
			"0.009": 3.9894795471,
			"0.01": 4.43088257936,
			"0.011": 7.47978102197,
			"0.012": 4.3553137522,
			"0.013": 0.23657220634,
			"0.014": 0.0,
			"0.015": 0.0,
			"0.016": 0.0,
			"0.017": 0.0,
			"0.018": 0.0,
			"0.019": 0.0,
			"0.02": 0.0,
			"0.021": 0.0,
			"0.022": 0.0,
			"0.023": 0.0,
			"0.024": 0.0,
			"0.025": 0.0
		}
	}
}
