{
	 "smiles": "OC(=O)C1=CC=C(C=C1)C1=NC(=NO1)C1CC1", 
	 "Tm": 515.15, 
	 "num_atms": 27, 
	 "gaussian": { 
		 "optdone": 1, 
		 "sigma_profile": "yes", 
		 "theory": "DFT", 
		 "functional": "B3LYP", 
		 "basiset": "6-31G**", 
		 "properties": { 
			 "R2extent": 6547.6493, 
			 "electric_dipole_moment_norm": 0.179871315112, 
			 "electric_quadrupole_moment_norm": 20.1070506833, 
			 "total_energy": -798.439255223, 
			 "HOMO_LUMO_gap": 0.17184, 
			 "cosmo_polarized_energy": -12.43, 
			 "cosmo_cavitation_energy": 32.81, 
			 "cosmo_dispersion_energy": -23.98, 
			 "cosmo_repulsion_energy": 1.85, 
			 "cosmo_total_nonelectrostatic_energy": 10.68, 
			 "SMD_solvation_energy": 4.98 
		},
		"coords": [
			{
				"x": 4.5130510583,
				"y": -2.8205778901,
				"z": -0.4238031187,
				"element": "O" 
			},
			{
				"x": 4.2136857517,
				"y": -1.9591011053,
				"z": 0.5790243359,
				"element": "C" 
			},
			{
				"x": 4.8653465496,
				"y": -1.9032729694,
				"z": 1.6026649125,
				"element": "O" 
			},
			{
				"x": 3.0240765059,
				"y": -1.1138306898,
				"z": 0.2845729753,
				"element": "C" 
			},
			{
				"x": 2.3093081979,
				"y": -1.2224833485,
				"z": -0.9164991337,
				"element": "C" 
			},
			{
				"x": 1.2039795087,
				"y": -0.4097005557,
				"z": -1.1445291952,
				"element": "C" 
			},
			{
				"x": 0.8043481581,
				"y": 0.5197328293,
				"z": -0.1711454963,
				"element": "C" 
			},
			{
				"x": 1.5210332635,
				"y": 0.6281857784,
				"z": 1.0323346496,
				"element": "C" 
			},
			{
				"x": 2.6236808429,
				"y": -0.1849279084,
				"z": 1.2559757061,
				"element": "C" 
			},
			{
				"x": -0.3542442418,
				"y": 1.3843191668,
				"z": -0.3892122393,
				"element": "C" 
			},
			{
				"x": -0.8437548292,
				"y": 2.2893759177,
				"z": 0.4153277792,
				"element": "N" 
			},
			{
				"x": -1.9149039005,
				"y": 2.778888996,
				"z": -0.300940313,
				"element": "C" 
			},
			{
				"x": -2.0866163861,
				"y": 2.2181698912,
				"z": -1.4774600084,
				"element": "N" 
			},
			{
				"x": -1.0383763717,
				"y": 1.2783448387,
				"z": -1.5420202122,
				"element": "O" 
			},
			{
				"x": -2.8026824525,
				"y": 3.8415951457,
				"z": 0.1967120432,
				"element": "C" 
			},
			{
				"x": -2.2219706126,
				"y": 4.9480635471,
				"z": 1.0599997076,
				"element": "C" 
			},
			{
				"x": -3.1102076749,
				"y": 3.914721353,
				"z": 1.6822556176,
				"element": "C" 
			},
			{
				"x": 5.295219762,
				"y": -3.3137485449,
				"z": -0.1258732952,
				"element": "H" 
			},
			{
				"x": 2.62241853,
				"y": -1.9417076584,
				"z": -1.6642218716,
				"element": "H" 
			},
			{
				"x": 0.6472296851,
				"y": -0.4893289269,
				"z": -2.0717701996,
				"element": "H" 
			},
			{
				"x": 1.199078547,
				"y": 1.3511842483,
				"z": 1.7736703916,
				"element": "H" 
			},
			{
				"x": 3.1922525615,
				"y": -0.1190698659,
				"z": 2.1771759948,
				"element": "H" 
			},
			{
				"x": -3.5948881932,
				"y": 4.1057365726,
				"z": -0.4955170672,
				"element": "H" 
			},
			{
				"x": -2.610290488,
				"y": 5.9494759269,
				"z": 0.9039304761,
				"element": "H" 
			},
			{
				"x": -1.1596994181,
				"y": 4.8941048403,
				"z": 1.27411833,
				"element": "H" 
			},
			{
				"x": -4.1215663318,
				"y": 4.1913234891,
				"z": 1.9626534303,
				"element": "H" 
			},
			{
				"x": -2.6453080218,
				"y": 3.1658269221,
				"z": 2.3148758007,
				"element": "H" 
			}
		],
		 "valence_orbital": [ 
			{
				"type": "occ",
				"energy": -0.29907,
				"method": "rhf"
			},
			{
				"type": "occ",
				"energy": -0.28613,
				"method": "rhf"
			},
			{
				"type": "occ",
				"energy": -0.28345,
				"method": "rhf"
			},
			{
				"type": "occ",
				"energy": -0.27495,
				"method": "rhf"
			},
			{
				"type": "occ",
				"energy": -0.25352,
				"method": "rhf"
			},
			{
				"type": "unocc",
				"energy": -0.08168,
				"method": "rhf"
			},
			{
				"type": "unocc",
				"energy": -0.02333,
				"method": "rhf"
			},
			{
				"type": "unocc",
				"energy": -0.00873,
				"method": "rhf"
			},
			{
				"type": "unocc",
				"energy": 0.02752,
				"method": "rhf"
			},
			{
				"type": "unocc",
				"energy": 0.07006,
				"method": "rhf"
			}
		],
		"cosmo_sigma_profile": { 
			"-0.025": 0.0,
			"-0.024": 0.0,
			"-0.023": 0.0,
			"-0.022": 0.0,
			"-0.021": 0.0,
			"-0.02": 0.0,
			"-0.019": 0.182914828396,
			"-0.018": 1.1013996613,
			"-0.017": 0.466768220455,
			"-0.016": 1.0417945539,
			"-0.015": 0.847312080585,
			"-0.014": 0.837505141833,
			"-0.013": 0.759083488387,
			"-0.012": 0.46189830372,
			"-0.011": 0.529565308004,
			"-0.01": 0.841571548197,
			"-0.009": 0.396987557117,
			"-0.008": 1.42206257681,
			"-0.007": 6.08721701358,
			"-0.006": 11.5442068648,
			"-0.005": 15.3602727608,
			"-0.004": 16.2444244665,
			"-0.003": 19.8120810345,
			"-0.002": 20.2968701449,
			"-0.001": 24.8838429847,
			"0.0": 28.2845459068,
			"0.001": 28.110582461,
			"0.002": 21.6612500555,
			"0.003": 8.94932509384,
			"0.004": 8.66199984228,
			"0.005": 7.19370702808,
			"0.006": 8.22355914617,
			"0.007": 6.12439528065,
			"0.008": 3.91427124986,
			"0.009": 4.3630383227,
			"0.01": 3.71952241982,
			"0.011": 6.23717186287,
			"0.012": 3.34879764196,
			"0.013": 1.15663958754,
			"0.014": 0.194795858534,
			"0.015": 0.0,
			"0.016": 0.0,
			"0.017": 0.0,
			"0.018": 0.0,
			"0.019": 0.0,
			"0.02": 0.0,
			"0.021": 0.0,
			"0.022": 0.0,
			"0.023": 0.0,
			"0.024": 0.0,
			"0.025": 0.0
		}
	}
}
