{
	 "smiles": "CC(=O)OC1=CC=CC=C1C(Cl)=O", 
	 "Tm": 322.15, 
	 "num_atms": 20, 
	 "gaussian": { 
		 "optdone": 1, 
		 "sigma_profile": "yes", 
		 "theory": "DFT", 
		 "functional": "B3LYP", 
		 "basiset": "6-31G**", 
		 "properties": { 
			 "R2extent": 3409.5783, 
			 "electric_dipole_moment_norm": 4.3182441559, 
			 "electric_quadrupole_moment_norm": 15.1236833139, 
			 "total_energy": -1033.04836957, 
			 "HOMO_LUMO_gap": 0.19408, 
			 "cosmo_polarized_energy": -10.24, 
			 "cosmo_cavitation_energy": 26.91, 
			 "cosmo_dispersion_energy": -19.08, 
			 "cosmo_repulsion_energy": 1.52, 
			 "cosmo_total_nonelectrostatic_energy": 9.36, 
			 "SMD_solvation_energy": 6.26 
		},
		"coords": [
			{
				"x": 3.7297712212,
				"y": 0.5907619358,
				"z": 1.9487772052,
				"element": "C" 
			},
			{
				"x": 2.6553434402,
				"y": -0.0649231433,
				"z": 1.1264188978,
				"element": "C" 
			},
			{
				"x": 2.5538216807,
				"y": -1.2354886694,
				"z": 0.8663927597,
				"element": "O" 
			},
			{
				"x": 1.7630930346,
				"y": 0.8916878623,
				"z": 0.67812081,
				"element": "O" 
			},
			{
				"x": 0.6828560207,
				"y": 0.4999714796,
				"z": -0.0958881545,
				"element": "C" 
			},
			{
				"x": -0.5762434226,
				"y": 0.7769907027,
				"z": 0.4329563402,
				"element": "C" 
			},
			{
				"x": -1.7283835043,
				"y": 0.4426491279,
				"z": -0.2753062808,
				"element": "C" 
			},
			{
				"x": -1.627069868,
				"y": -0.1997342519,
				"z": -1.5107914997,
				"element": "C" 
			},
			{
				"x": -0.371434069,
				"y": -0.4866588188,
				"z": -2.0337018696,
				"element": "C" 
			},
			{
				"x": 0.8037604096,
				"y": -0.1192297005,
				"z": -1.3532328093,
				"element": "C" 
			},
			{
				"x": 2.065021663,
				"y": -0.4485251473,
				"z": -2.0656562772,
				"element": "C" 
			},
			{
				"x": 3.4036927754,
				"y": 0.7910765012,
				"z": -1.9088855438,
				"element": "Cl" 
			},
			{
				"x": 2.2244107999,
				"y": -1.3729384737,
				"z": -2.8009058211,
				"element": "O" 
			},
			{
				"x": 3.2896755521,
				"y": 1.235140514,
				"z": 2.7140703423,
				"element": "H" 
			},
			{
				"x": 4.3412326583,
				"y": 1.2212640647,
				"z": 1.2957354161,
				"element": "H" 
			},
			{
				"x": 4.3524841755,
				"y": -0.1767976299,
				"z": 2.4066554321,
				"element": "H" 
			},
			{
				"x": -0.6295223332,
				"y": 1.2513795608,
				"z": 1.4068801346,
				"element": "H" 
			},
			{
				"x": -2.7024836477,
				"y": 0.672773318,
				"z": 0.1453445515,
				"element": "H" 
			},
			{
				"x": -2.5194148498,
				"y": -0.4762607419,
				"z": -2.0628044156,
				"element": "H" 
			},
			{
				"x": -0.2712117366,
				"y": -0.9890384903,
				"z": -2.9894792179,
				"element": "H" 
			}
		],
		 "valence_orbital": [ 
			{
				"type": "occ",
				"energy": -0.31306,
				"method": "rhf"
			},
			{
				"type": "occ",
				"energy": -0.29776,
				"method": "rhf"
			},
			{
				"type": "occ",
				"energy": -0.2925,
				"method": "rhf"
			},
			{
				"type": "occ",
				"energy": -0.27545,
				"method": "rhf"
			},
			{
				"type": "occ",
				"energy": -0.26593,
				"method": "rhf"
			},
			{
				"type": "unocc",
				"energy": -0.07185,
				"method": "rhf"
			},
			{
				"type": "unocc",
				"energy": -0.02731,
				"method": "rhf"
			},
			{
				"type": "unocc",
				"energy": -0.00217,
				"method": "rhf"
			},
			{
				"type": "unocc",
				"energy": -9e-05,
				"method": "rhf"
			},
			{
				"type": "unocc",
				"energy": 0.02945,
				"method": "rhf"
			}
		],
		"cosmo_sigma_profile": { 
			"-0.025": 0.0,
			"-0.024": 0.0,
			"-0.023": 0.0,
			"-0.022": 0.0,
			"-0.021": 0.0,
			"-0.02": 0.0,
			"-0.019": 0.0,
			"-0.018": 0.0,
			"-0.017": 0.0,
			"-0.016": 0.0,
			"-0.015": 0.0,
			"-0.014": 0.0,
			"-0.013": 0.0,
			"-0.012": 0.0,
			"-0.011": 0.0,
			"-0.01": 0.0,
			"-0.009": 0.0,
			"-0.008": 2.47471013678,
			"-0.007": 10.8798262545,
			"-0.006": 15.0579971841,
			"-0.005": 15.9663001848,
			"-0.004": 13.9835205889,
			"-0.003": 16.7260788724,
			"-0.002": 14.9118636158,
			"-0.001": 12.6798517101,
			"0.0": 16.5593770304,
			"0.001": 17.0051731604,
			"0.002": 20.8768448382,
			"0.003": 11.7796090608,
			"0.004": 12.5501249148,
			"0.005": 8.36453737111,
			"0.006": 5.81123065983,
			"0.007": 5.60440038028,
			"0.008": 6.36931279496,
			"0.009": 3.79847003867,
			"0.01": 3.58458109003,
			"0.011": 2.51041644818,
			"0.012": 0.432849899945,
			"0.013": 0.0,
			"0.014": 0.0,
			"0.015": 0.0,
			"0.016": 0.0,
			"0.017": 0.0,
			"0.018": 0.0,
			"0.019": 0.0,
			"0.02": 0.0,
			"0.021": 0.0,
			"0.022": 0.0,
			"0.023": 0.0,
			"0.024": 0.0,
			"0.025": 0.0
		}
	}
}
