{
	 "smiles": "CC(=O)NC1=CC=C(Br)C=C1F", 
	 "Tm": 429.15, 
	 "num_atms": 19, 
	 "gaussian": { 
		 "optdone": 1, 
		 "sigma_profile": "yes", 
		 "theory": "DFT", 
		 "functional": "B3LYP", 
		 "basiset": "6-31G**", 
		 "properties": { 
			 "R2extent": 5168.8597, 
			 "electric_dipole_moment_norm": 2.65963036154, 
			 "electric_quadrupole_moment_norm": 16.0385606271, 
			 "total_energy": -3110.29599448, 
			 "HOMO_LUMO_gap": 0.20072, 
			 "cosmo_polarized_energy": -11.03, 
			 "cosmo_cavitation_energy": 26.21, 
			 "cosmo_dispersion_energy": -19.32, 
			 "cosmo_repulsion_energy": 1.53, 
			 "cosmo_total_nonelectrostatic_energy": 8.42, 
			 "SMD_solvation_energy": 4.76 
		},
		"coords": [
			{
				"x": -0.8803583527,
				"y": 1.6509489985,
				"z": 0.8552853858,
				"element": "C" 
			},
			{
				"x": 0.4729553957,
				"y": 1.5137007911,
				"z": 1.5227013104,
				"element": "C" 
			},
			{
				"x": 0.7649300185,
				"y": 2.0896017418,
				"z": 2.5581031599,
				"element": "O" 
			},
			{
				"x": 1.418642346,
				"y": 0.7062062377,
				"z": 0.9010700881,
				"element": "N" 
			},
			{
				"x": 1.3208363503,
				"y": -0.0458202676,
				"z": -0.2892312711,
				"element": "C" 
			},
			{
				"x": 2.235155397,
				"y": 0.1432323138,
				"z": -1.3352425461,
				"element": "C" 
			},
			{
				"x": 2.1893993533,
				"y": -0.628290805,
				"z": -2.4946120313,
				"element": "C" 
			},
			{
				"x": 1.1980784389,
				"y": -1.6005691915,
				"z": -2.6240931463,
				"element": "C" 
			},
			{
				"x": 1.1053726832,
				"y": -2.6502981771,
				"z": -4.2129507374,
				"element": "Br" 
			},
			{
				"x": 0.2719403942,
				"y": -1.8215749883,
				"z": -1.60718806,
				"element": "C" 
			},
			{
				"x": 0.3620012035,
				"y": -1.0552382485,
				"z": -0.4523188901,
				"element": "C" 
			},
			{
				"x": -0.5083044344,
				"y": -1.3034793451,
				"z": 0.5460860822,
				"element": "F" 
			},
			{
				"x": -1.3624045101,
				"y": 2.5396295108,
				"z": 1.2619384352,
				"element": "H" 
			},
			{
				"x": -0.7979759617,
				"y": 1.7354936754,
				"z": -0.2321234309,
				"element": "H" 
			},
			{
				"x": -1.4992421008,
				"y": 0.7776765266,
				"z": 1.0769236044,
				"element": "H" 
			},
			{
				"x": 2.3232612229,
				"y": 0.7525101207,
				"z": 1.3539828845,
				"element": "H" 
			},
			{
				"x": 2.989830713,
				"y": 0.9168434921,
				"z": -1.2296205233,
				"element": "H" 
			},
			{
				"x": 2.9058745124,
				"y": -0.4676399864,
				"z": -3.2911979339,
				"element": "H" 
			},
			{
				"x": -0.4930926691,
				"y": -2.5842323989,
				"z": -1.6838123803,
				"element": "H" 
			}
		],
		 "valence_orbital": [ 
			{
				"type": "occ",
				"energy": -0.3008,
				"method": "rhf"
			},
			{
				"type": "occ",
				"energy": -0.28503,
				"method": "rhf"
			},
			{
				"type": "occ",
				"energy": -0.27584,
				"method": "rhf"
			},
			{
				"type": "occ",
				"energy": -0.25614,
				"method": "rhf"
			},
			{
				"type": "occ",
				"energy": -0.2403,
				"method": "rhf"
			},
			{
				"type": "unocc",
				"energy": -0.03958,
				"method": "rhf"
			},
			{
				"type": "unocc",
				"energy": -0.02556,
				"method": "rhf"
			},
			{
				"type": "unocc",
				"energy": -0.0086,
				"method": "rhf"
			},
			{
				"type": "unocc",
				"energy": 0.02505,
				"method": "rhf"
			},
			{
				"type": "unocc",
				"energy": 0.08411,
				"method": "rhf"
			}
		],
		"cosmo_sigma_profile": { 
			"-0.025": 0.0,
			"-0.024": 0.0,
			"-0.023": 0.0,
			"-0.022": 0.0,
			"-0.021": 0.0,
			"-0.02": 0.0,
			"-0.019": 0.0,
			"-0.018": 0.0,
			"-0.017": 0.0,
			"-0.016": 0.0,
			"-0.015": 0.268080896992,
			"-0.014": 1.00821196929,
			"-0.013": 1.07375550344,
			"-0.012": 0.786465146552,
			"-0.011": 1.13857958738,
			"-0.01": 1.34110489475,
			"-0.009": 1.99843005555,
			"-0.008": 4.47326344232,
			"-0.007": 6.5471794492,
			"-0.006": 6.45810102773,
			"-0.005": 11.2395812506,
			"-0.004": 12.6376357537,
			"-0.003": 13.3441618219,
			"-0.002": 17.7384309938,
			"-0.001": 20.3127372842,
			"0.0": 18.9395820743,
			"0.001": 20.1320688309,
			"0.002": 18.6371467181,
			"0.003": 17.4461933373,
			"0.004": 14.582646743,
			"0.005": 3.31961584385,
			"0.006": 0.997604719983,
			"0.007": 1.55218703922,
			"0.008": 0.936609531095,
			"0.009": 1.14128607866,
			"0.01": 1.84207921287,
			"0.011": 1.64013624966,
			"0.012": 2.25845419422,
			"0.013": 5.75813593874,
			"0.014": 3.12038862953,
			"0.015": 0.283612063202,
			"0.016": 0.0,
			"0.017": 0.0,
			"0.018": 0.0,
			"0.019": 0.0,
			"0.02": 0.0,
			"0.021": 0.0,
			"0.022": 0.0,
			"0.023": 0.0,
			"0.024": 0.0,
			"0.025": 0.0
		}
	}
}
