{
	 "smiles": "COC1=CC=C(NC2=CC=CC=C2)C=C1", 
	 "Tm": 378.15, 
	 "num_atms": 28, 
	 "gaussian": { 
		 "optdone": 1, 
		 "sigma_profile": "yes", 
		 "theory": "DFT", 
		 "functional": "B3LYP", 
		 "basiset": "6-31G**", 
		 "properties": { 
			 "R2extent": 4732.0278, 
			 "electric_dipole_moment_norm": 0.871820291115, 
			 "electric_quadrupole_moment_norm": 11.9477333779, 
			 "total_energy": -633.181574976, 
			 "HOMO_LUMO_gap": 0.17512, 
			 "cosmo_polarized_energy": -9.57, 
			 "cosmo_cavitation_energy": 31.51, 
			 "cosmo_dispersion_energy": -23.3, 
			 "cosmo_repulsion_energy": 1.81, 
			 "cosmo_total_nonelectrostatic_energy": 10.02, 
			 "SMD_solvation_energy": 5.87 
		},
		"coords": [
			{
				"x": -3.0413237582,
				"y": 3.2076879309,
				"z": -1.9690279386,
				"element": "C" 
			},
			{
				"x": -3.0164797762,
				"y": 1.8249934675,
				"z": -2.2755998568,
				"element": "O" 
			},
			{
				"x": -1.9421571379,
				"y": 1.0918358891,
				"z": -1.8485495205,
				"element": "C" 
			},
			{
				"x": -0.8614734206,
				"y": 1.6004261204,
				"z": -1.1217597161,
				"element": "C" 
			},
			{
				"x": 0.1893730105,
				"y": 0.7612126503,
				"z": -0.740557565,
				"element": "C" 
			},
			{
				"x": 0.1709588544,
				"y": -0.6048592138,
				"z": -1.0503943019,
				"element": "C" 
			},
			{
				"x": 1.2190859148,
				"y": -1.4800671243,
				"z": -0.7198368331,
				"element": "N" 
			},
			{
				"x": 2.0794266044,
				"y": -1.4538018832,
				"z": 0.3784614339,
				"element": "C" 
			},
			{
				"x": 3.2670991518,
				"y": -2.2085375275,
				"z": 0.3177164352,
				"element": "C" 
			},
			{
				"x": 4.1406606149,
				"y": -2.2495420983,
				"z": 1.3999558874,
				"element": "C" 
			},
			{
				"x": 3.8642394475,
				"y": -1.5311290146,
				"z": 2.5658303528,
				"element": "C" 
			},
			{
				"x": 2.6871199962,
				"y": -0.7838987925,
				"z": 2.6317169436,
				"element": "C" 
			},
			{
				"x": 1.796055203,
				"y": -0.7443663862,
				"z": 1.5602488658,
				"element": "C" 
			},
			{
				"x": -0.9245468966,
				"y": -1.1036576741,
				"z": -1.7802787923,
				"element": "C" 
			},
			{
				"x": -1.957254369,
				"y": -0.2696142646,
				"z": -2.183298928,
				"element": "C" 
			},
			{
				"x": -2.1922983123,
				"y": 3.7401380277,
				"z": -2.4183675885,
				"element": "H" 
			},
			{
				"x": -3.0381497076,
				"y": 3.3847060526,
				"z": -0.8850586144,
				"element": "H" 
			},
			{
				"x": -3.9698229729,
				"y": 3.5956777039,
				"z": -2.3913945639,
				"element": "H" 
			},
			{
				"x": -0.8108658764,
				"y": 2.6505886334,
				"z": -0.8588879546,
				"element": "H" 
			},
			{
				"x": 1.0370799233,
				"y": 1.1832583183,
				"z": -0.2128661497,
				"element": "H" 
			},
			{
				"x": 1.3517376737,
				"y": -2.2540804557,
				"z": -1.352633257,
				"element": "H" 
			},
			{
				"x": 3.5001014579,
				"y": -2.7592030501,
				"z": -0.5909851031,
				"element": "H" 
			},
			{
				"x": 5.0489341419,
				"y": -2.8415141978,
				"z": 1.3262455042,
				"element": "H" 
			},
			{
				"x": 4.5509795057,
				"y": -1.5560636391,
				"z": 3.4059992318,
				"element": "H" 
			},
			{
				"x": 2.4461963451,
				"y": -0.2300166554,
				"z": 3.5352329083,
				"element": "H" 
			},
			{
				"x": 0.8719881592,
				"y": -0.1849401427,
				"z": 1.6462660632,
				"element": "H" 
			},
			{
				"x": -0.9617556353,
				"y": -2.161657066,
				"z": -2.0281474736,
				"element": "H" 
			},
			{
				"x": -2.7987081417,
				"y": -0.6562756083,
				"z": -2.7490294692,
				"element": "H" 
			}
		],
		 "valence_orbital": [ 
			{
				"type": "occ",
				"energy": -0.29226,
				"method": "rhf"
			},
			{
				"type": "occ",
				"energy": -0.25003,
				"method": "rhf"
			},
			{
				"type": "occ",
				"energy": -0.24343,
				"method": "rhf"
			},
			{
				"type": "occ",
				"energy": -0.23044,
				"method": "rhf"
			},
			{
				"type": "occ",
				"energy": -0.17754,
				"method": "rhf"
			},
			{
				"type": "unocc",
				"energy": -0.00242,
				"method": "rhf"
			},
			{
				"type": "unocc",
				"energy": 0.00338,
				"method": "rhf"
			},
			{
				"type": "unocc",
				"energy": 0.00581,
				"method": "rhf"
			},
			{
				"type": "unocc",
				"energy": 0.03957,
				"method": "rhf"
			},
			{
				"type": "unocc",
				"energy": 0.08875,
				"method": "rhf"
			}
		],
		"cosmo_sigma_profile": { 
			"-0.025": 0.0,
			"-0.024": 0.0,
			"-0.023": 0.0,
			"-0.022": 0.0,
			"-0.021": 0.0,
			"-0.02": 0.0,
			"-0.019": 0.0,
			"-0.018": 0.0,
			"-0.017": 0.0,
			"-0.016": 0.0,
			"-0.015": 0.0,
			"-0.014": 0.169487365361,
			"-0.013": 1.1667569083,
			"-0.012": 1.05628746487,
			"-0.011": 1.49583443713,
			"-0.01": 1.33057945619,
			"-0.009": 1.41800867957,
			"-0.008": 2.14721103541,
			"-0.007": 2.13425089501,
			"-0.006": 8.19807276264,
			"-0.005": 22.0163296583,
			"-0.004": 24.6872061643,
			"-0.003": 26.1845068504,
			"-0.002": 18.2290276968,
			"-0.001": 15.4459608092,
			"0.0": 11.5898820285,
			"0.001": 12.1629716285,
			"0.002": 12.8504627638,
			"0.003": 16.2889659447,
			"0.004": 19.2038779618,
			"0.005": 22.4822686997,
			"0.006": 17.1529318728,
			"0.007": 7.939021121,
			"0.008": 1.78286015222,
			"0.009": 1.50309625006,
			"0.01": 1.61303601462,
			"0.011": 1.03530040697,
			"0.012": 0.0,
			"0.013": 0.0,
			"0.014": 0.0,
			"0.015": 0.0,
			"0.016": 0.0,
			"0.017": 0.0,
			"0.018": 0.0,
			"0.019": 0.0,
			"0.02": 0.0,
			"0.021": 0.0,
			"0.022": 0.0,
			"0.023": 0.0,
			"0.024": 0.0,
			"0.025": 0.0
		}
	}
}
