{
	 "smiles": "CC(=O)NC1=CC(Br)=C(C=C1)[N+]([O-])=O", 
	 "Tm": 418.15, 
	 "num_atms": 21, 
	 "gaussian": { 
		 "optdone": 1, 
		 "sigma_profile": "yes", 
		 "theory": "DFT", 
		 "functional": "B3LYP", 
		 "basiset": "6-31G**", 
		 "properties": { 
			 "R2extent": 5675.7721, 
			 "electric_dipole_moment_norm": 7.03323827764, 
			 "electric_quadrupole_moment_norm": 14.3117637243, 
			 "total_energy": -3215.55777085, 
			 "HOMO_LUMO_gap": 0.16627, 
			 "cosmo_polarized_energy": -17.72, 
			 "cosmo_cavitation_energy": 28.72, 
			 "cosmo_dispersion_energy": -21.53, 
			 "cosmo_repulsion_energy": 1.69, 
			 "cosmo_total_nonelectrostatic_energy": 8.88, 
			 "SMD_solvation_energy": 6.88 
		},
		"coords": [
			{
				"x": -0.6451351407,
				"y": -3.6141299095,
				"z": 2.7384817983,
				"element": "C" 
			},
			{
				"x": -0.2224087114,
				"y": -3.0072909286,
				"z": 1.410560633,
				"element": "C" 
			},
			{
				"x": 0.6887807762,
				"y": -3.4612395649,
				"z": 0.7400640081,
				"element": "O" 
			},
			{
				"x": -0.9487215669,
				"y": -1.8777378687,
				"z": 1.0548792644,
				"element": "N" 
			},
			{
				"x": -0.7888385044,
				"y": -1.0521380856,
				"z": -0.0646817811,
				"element": "C" 
			},
			{
				"x": -1.6622651467,
				"y": 0.0410710407,
				"z": -0.1841337043,
				"element": "C" 
			},
			{
				"x": -1.5759264506,
				"y": 0.9290614815,
				"z": -1.2515403287,
				"element": "C" 
			},
			{
				"x": -2.8695528162,
				"y": 2.3206000488,
				"z": -1.2905257473,
				"element": "Br" 
			},
			{
				"x": -0.600837379,
				"y": 0.7113211348,
				"z": -2.2374107944,
				"element": "C" 
			},
			{
				"x": 0.252456152,
				"y": -0.3911095422,
				"z": -2.1286256805,
				"element": "C" 
			},
			{
				"x": 0.182248351,
				"y": -1.2686709287,
				"z": -1.0581701382,
				"element": "C" 
			},
			{
				"x": -0.395150316,
				"y": 1.5853455639,
				"z": -3.3992509677,
				"element": "N" 
			},
			{
				"x": -0.7398226709,
				"y": 2.7608359874,
				"z": -3.3151664647,
				"element": "O" 
			},
			{
				"x": 0.1407082142,
				"y": 1.0794061638,
				"z": -4.3872940899,
				"element": "O" 
			},
			{
				"x": -0.1285626683,
				"y": -3.101376141,
				"z": 3.5576505182,
				"element": "H" 
			},
			{
				"x": -1.722588274,
				"y": -3.5417956692,
				"z": 2.9157032645,
				"element": "H" 
			},
			{
				"x": -0.3445394695,
				"y": -4.6618082001,
				"z": 2.7487458528,
				"element": "H" 
			},
			{
				"x": -1.6822724709,
				"y": -1.6015073417,
				"z": 1.6923057057,
				"element": "H" 
			},
			{
				"x": -2.4308560197,
				"y": 0.2062083533,
				"z": 0.5637500119,
				"element": "H" 
			},
			{
				"x": 0.9836954397,
				"y": -0.5411105772,
				"z": -2.9133040368,
				"element": "H" 
			},
			{
				"x": 0.8552886719,
				"y": -2.1091350168,
				"z": -0.9778373233,
				"element": "H" 
			}
		],
		 "valence_orbital": [ 
			{
				"type": "occ",
				"energy": -0.29816,
				"method": "rhf"
			},
			{
				"type": "occ",
				"energy": -0.28041,
				"method": "rhf"
			},
			{
				"type": "occ",
				"energy": -0.27603,
				"method": "rhf"
			},
			{
				"type": "occ",
				"energy": -0.26603,
				"method": "rhf"
			},
			{
				"type": "occ",
				"energy": -0.25312,
				"method": "rhf"
			},
			{
				"type": "unocc",
				"energy": -0.08685,
				"method": "rhf"
			},
			{
				"type": "unocc",
				"energy": -0.03699,
				"method": "rhf"
			},
			{
				"type": "unocc",
				"energy": -0.02399,
				"method": "rhf"
			},
			{
				"type": "unocc",
				"energy": -0.01312,
				"method": "rhf"
			},
			{
				"type": "unocc",
				"energy": 0.02111,
				"method": "rhf"
			}
		],
		"cosmo_sigma_profile": { 
			"-0.025": 0.0,
			"-0.024": 0.0,
			"-0.023": 0.0,
			"-0.022": 0.0,
			"-0.021": 0.0,
			"-0.02": 0.0,
			"-0.019": 0.0,
			"-0.018": 0.0,
			"-0.017": 0.121975300679,
			"-0.016": 1.43372621277,
			"-0.015": 1.96663034202,
			"-0.014": 1.0236271544,
			"-0.013": 1.64858306373,
			"-0.012": 2.06850243631,
			"-0.011": 1.69841912202,
			"-0.01": 1.13254520503,
			"-0.009": 2.42949373375,
			"-0.008": 3.624435558,
			"-0.007": 6.1079524877,
			"-0.006": 11.9714623876,
			"-0.005": 11.0265599362,
			"-0.004": 13.4357972822,
			"-0.003": 14.643543712,
			"-0.002": 15.9234368164,
			"-0.001": 21.0337161281,
			"0.0": 24.5839814182,
			"0.001": 16.1512138707,
			"0.002": 11.8158974224,
			"0.003": 11.6519856573,
			"0.004": 8.64202886119,
			"0.005": 5.13411773809,
			"0.006": 5.0656281415,
			"0.007": 8.74301611504,
			"0.008": 12.0960523799,
			"0.009": 6.68148163589,
			"0.01": 4.29957127625,
			"0.011": 2.79594949906,
			"0.012": 2.54139308808,
			"0.013": 1.72041642039,
			"0.014": 0.254623832003,
			"0.015": 0.0,
			"0.016": 0.0,
			"0.017": 0.0,
			"0.018": 0.0,
			"0.019": 0.0,
			"0.02": 0.0,
			"0.021": 0.0,
			"0.022": 0.0,
			"0.023": 0.0,
			"0.024": 0.0,
			"0.025": 0.0
		}
	}
}
