{
	 "smiles": "COC1=CC=CC(C=C[N+]([O-])=O)=C1", 
	 "Tm": 365.15, 
	 "num_atms": 22, 
	 "gaussian": { 
		 "optdone": 1, 
		 "sigma_profile": "yes", 
		 "theory": "DFT", 
		 "functional": "B3LYP", 
		 "basiset": "6-31G**", 
		 "properties": { 
			 "R2extent": 3046.9228, 
			 "electric_dipole_moment_norm": 3.57352951856, 
			 "electric_quadrupole_moment_norm": 11.2935822297, 
			 "total_energy": -628.66797451, 
			 "HOMO_LUMO_gap": 0.13344, 
			 "cosmo_polarized_energy": -10.32, 
			 "cosmo_cavitation_energy": 26.91, 
			 "cosmo_dispersion_energy": -19.49, 
			 "cosmo_repulsion_energy": 1.53, 
			 "cosmo_total_nonelectrostatic_energy": 8.95, 
			 "SMD_solvation_energy": 7.99 
		},
		"coords": [
			{
				"x": 2.2919028333,
				"y": -2.8003651222,
				"z": 1.3897684026,
				"element": "C" 
			},
			{
				"x": 1.2159400359,
				"y": -2.6853654113,
				"z": 2.3142932314,
				"element": "O" 
			},
			{
				"x": 0.3310583248,
				"y": -1.6651594571,
				"z": 2.1484425038,
				"element": "C" 
			},
			{
				"x": -0.7081775303,
				"y": -1.6063385595,
				"z": 3.0923448295,
				"element": "C" 
			},
			{
				"x": -1.6625246699,
				"y": -0.5994759348,
				"z": 3.0067639704,
				"element": "C" 
			},
			{
				"x": -1.5933934322,
				"y": 0.3507597317,
				"z": 1.9903358502,
				"element": "C" 
			},
			{
				"x": -0.5560150178,
				"y": 0.3047355123,
				"z": 1.0354325248,
				"element": "C" 
			},
			{
				"x": -0.594983019,
				"y": 1.3569197745,
				"z": 0.0214951452,
				"element": "C" 
			},
			{
				"x": 0.1006762714,
				"y": 1.7688489627,
				"z": -1.0622914185,
				"element": "C" 
			},
			{
				"x": 1.2919759309,
				"y": 1.2381810991,
				"z": -1.6832917346,
				"element": "N" 
			},
			{
				"x": 1.8599344411,
				"y": 0.2367604202,
				"z": -1.232803351,
				"element": "O" 
			},
			{
				"x": 1.682266359,
				"y": 1.8572760427,
				"z": -2.6779590743,
				"element": "O" 
			},
			{
				"x": 0.4108837042,
				"y": -0.7191069334,
				"z": 1.1258597217,
				"element": "C" 
			},
			{
				"x": 2.9363390603,
				"y": -1.9133054018,
				"z": 1.409081839,
				"element": "H" 
			},
			{
				"x": 2.8653332135,
				"y": -3.6721985274,
				"z": 1.7072192932,
				"element": "H" 
			},
			{
				"x": 1.9291774228,
				"y": -2.9553049091,
				"z": 0.3665562156,
				"element": "H" 
			},
			{
				"x": -0.7417885435,
				"y": -2.3570553375,
				"z": 3.8750919728,
				"element": "H" 
			},
			{
				"x": -2.4650413582,
				"y": -0.5551195959,
				"z": 3.7366910281,
				"element": "H" 
			},
			{
				"x": -2.3434566684,
				"y": 1.1338391035,
				"z": 1.9313228216,
				"element": "H" 
			},
			{
				"x": -1.4442274719,
				"y": 2.0218651886,
				"z": 0.1775202392,
				"element": "H" 
			},
			{
				"x": -0.2261532425,
				"y": 2.6385895955,
				"z": -1.6154377834,
				"element": "H" 
			},
			{
				"x": 1.2000733564,
				"y": -0.7479802407,
				"z": 0.3933637725,
				"element": "H" 
			}
		],
		 "valence_orbital": [ 
			{
				"type": "occ",
				"energy": -0.30423,
				"method": "rhf"
			},
			{
				"type": "occ",
				"energy": -0.30258,
				"method": "rhf"
			},
			{
				"type": "occ",
				"energy": -0.28119,
				"method": "rhf"
			},
			{
				"type": "occ",
				"energy": -0.25605,
				"method": "rhf"
			},
			{
				"type": "occ",
				"energy": -0.23145,
				"method": "rhf"
			},
			{
				"type": "unocc",
				"energy": -0.09801,
				"method": "rhf"
			},
			{
				"type": "unocc",
				"energy": -0.02557,
				"method": "rhf"
			},
			{
				"type": "unocc",
				"energy": -0.00101,
				"method": "rhf"
			},
			{
				"type": "unocc",
				"energy": 0.05527,
				"method": "rhf"
			},
			{
				"type": "unocc",
				"energy": 0.06928,
				"method": "rhf"
			}
		],
		"cosmo_sigma_profile": { 
			"-0.025": 0.0,
			"-0.024": 0.0,
			"-0.023": 0.0,
			"-0.022": 0.0,
			"-0.021": 0.0,
			"-0.02": 0.0,
			"-0.019": 0.0,
			"-0.018": 0.0,
			"-0.017": 0.0,
			"-0.016": 0.0,
			"-0.015": 0.0,
			"-0.014": 0.0,
			"-0.013": 0.0,
			"-0.012": 0.0,
			"-0.011": 0.0,
			"-0.01": 0.0345246168361,
			"-0.009": 4.92470181128,
			"-0.008": 4.65498208276,
			"-0.007": 5.75942168305,
			"-0.006": 11.3785544342,
			"-0.005": 15.8605714965,
			"-0.004": 17.7233611826,
			"-0.003": 18.2675100952,
			"-0.002": 14.3211438483,
			"-0.001": 12.2975526488,
			"0.0": 14.9920995434,
			"0.001": 14.4578370325,
			"0.002": 16.0917695945,
			"0.003": 17.7063911753,
			"0.004": 10.0617988953,
			"0.005": 4.86051452981,
			"0.006": 4.55437674681,
			"0.007": 4.66405749413,
			"0.008": 7.24255300804,
			"0.009": 8.10562216196,
			"0.01": 5.61660523124,
			"0.011": 1.97238824548,
			"0.012": 0.0255873570379,
			"0.013": 0.0,
			"0.014": 0.0,
			"0.015": 0.0,
			"0.016": 0.0,
			"0.017": 0.0,
			"0.018": 0.0,
			"0.019": 0.0,
			"0.02": 0.0,
			"0.021": 0.0,
			"0.022": 0.0,
			"0.023": 0.0,
			"0.024": 0.0,
			"0.025": 0.0
		}
	}
}
