{
	 "smiles": "CN1N(C(=O)C(NC(=O)C(C(F)(F)F)C(F)(F)F)=C1C)C1=CC=CC=C1", 
	 "Tm": 511.15, 
	 "num_atms": 39, 
	 "gaussian": { 
		 "optdone": 1, 
		 "sigma_profile": "yes", 
		 "theory": "DFT", 
		 "functional": "B3LYP", 
		 "basiset": "6-31G**", 
		 "properties": { 
			 "R2extent": 11494.6234, 
			 "electric_dipole_moment_norm": 9.48952394011, 
			 "electric_quadrupole_moment_norm": 28.3962943892, 
			 "total_energy": -1493.17089472, 
			 "HOMO_LUMO_gap": 0.18113, 
			 "cosmo_polarized_energy": -21.01, 
			 "cosmo_cavitation_energy": 45.31, 
			 "cosmo_dispersion_energy": -29.31, 
			 "cosmo_repulsion_energy": 2.12, 
			 "cosmo_total_nonelectrostatic_energy": 18.12, 
			 "SMD_solvation_energy": 10.85 
		},
		"coords": [
			{
				"x": -1.9208790612,
				"y": 0.6473783449,
				"z": -1.7268107043,
				"element": "C" 
			},
			{
				"x": -0.9709306916,
				"y": -0.1712531922,
				"z": -0.9576019598,
				"element": "N" 
			},
			{
				"x": -0.4165635825,
				"y": 0.4853407923,
				"z": 0.1598945305,
				"element": "N" 
			},
			{
				"x": 0.9609217067,
				"y": 0.2110055694,
				"z": 0.2543077792,
				"element": "C" 
			},
			{
				"x": 1.685686779,
				"y": 0.5451478215,
				"z": 1.1879368176,
				"element": "O" 
			},
			{
				"x": 1.2499451931,
				"y": -0.5959029418,
				"z": -0.9292566587,
				"element": "C" 
			},
			{
				"x": 2.5214097361,
				"y": -1.0488691075,
				"z": -1.320419341,
				"element": "N" 
			},
			{
				"x": 3.4973060513,
				"y": -1.7339432254,
				"z": -0.6251967835,
				"element": "C" 
			},
			{
				"x": 4.5628426032,
				"y": -1.9937829534,
				"z": -1.1532589855,
				"element": "O" 
			},
			{
				"x": 3.1738762877,
				"y": -2.1617997449,
				"z": 0.8179850437,
				"element": "C" 
			},
			{
				"x": 2.4466900116,
				"y": -3.5077087389,
				"z": 0.8224198628,
				"element": "C" 
			},
			{
				"x": 2.1854322473,
				"y": -3.9298839852,
				"z": 2.0715637088,
				"element": "F" 
			},
			{
				"x": 3.1466527623,
				"y": -4.4691009355,
				"z": 0.197904689,
				"element": "F" 
			},
			{
				"x": 1.2590335489,
				"y": -3.3934685468,
				"z": 0.1790584263,
				"element": "F" 
			},
			{
				"x": 4.45139309,
				"y": -2.1908731342,
				"z": 1.6661788727,
				"element": "C" 
			},
			{
				"x": 5.1185863322,
				"y": -1.030833837,
				"z": 1.5373239871,
				"element": "F" 
			},
			{
				"x": 4.1323474726,
				"y": -2.3307148324,
				"z": 2.9710539534,
				"element": "F" 
			},
			{
				"x": 5.2785968533,
				"y": -3.1955520563,
				"z": 1.3440764706,
				"element": "F" 
			},
			{
				"x": 0.0887725707,
				"y": -0.7756427119,
				"z": -1.6234525846,
				"element": "C" 
			},
			{
				"x": -0.1187190994,
				"y": -1.4825002865,
				"z": -2.9219306636,
				"element": "C" 
			},
			{
				"x": -1.2497916098,
				"y": 0.8165737416,
				"z": 1.2636628284,
				"element": "C" 
			},
			{
				"x": -0.8481710635,
				"y": 1.83972489,
				"z": 2.1320694908,
				"element": "C" 
			},
			{
				"x": -1.6537954916,
				"y": 2.1654024854,
				"z": 3.2217913637,
				"element": "C" 
			},
			{
				"x": -2.8614427326,
				"y": 1.4992099074,
				"z": 3.4412641274,
				"element": "C" 
			},
			{
				"x": -3.2556393413,
				"y": 0.4838137344,
				"z": 2.5689026584,
				"element": "C" 
			},
			{
				"x": -2.4508430567,
				"y": 0.1303013616,
				"z": 1.485965727,
				"element": "C" 
			},
			{
				"x": -2.7292109361,
				"y": 0.9661563025,
				"z": -1.0684984572,
				"element": "H" 
			},
			{
				"x": -2.3437074296,
				"y": 0.0306447757,
				"z": -2.5208942441,
				"element": "H" 
			},
			{
				"x": -1.4356268623,
				"y": 1.5308742968,
				"z": -2.1605083453,
				"element": "H" 
			},
			{
				"x": 2.8400499188,
				"y": -0.816009036,
				"z": -2.2538335052,
				"element": "H" 
			},
			{
				"x": 2.5239630598,
				"y": -1.4223059154,
				"z": 1.2935132965,
				"element": "H" 
			},
			{
				"x": -0.1918411476,
				"y": -0.7872920183,
				"z": -3.767221893,
				"element": "H" 
			},
			{
				"x": 0.723948107,
				"y": -2.1523208712,
				"z": -3.1076204073,
				"element": "H" 
			},
			{
				"x": -1.0334439865,
				"y": -2.0819256442,
				"z": -2.8994970243,
				"element": "H" 
			},
			{
				"x": 0.0902231205,
				"y": 2.3503349373,
				"z": 1.958749574,
				"element": "H" 
			},
			{
				"x": -1.3359813423,
				"y": 2.9531191944,
				"z": 3.8983319392,
				"element": "H" 
			},
			{
				"x": -3.4874566844,
				"y": 1.7664202119,
				"z": 4.2870627315,
				"element": "H" 
			},
			{
				"x": -4.1866966208,
				"y": -0.0497129299,
				"z": 2.7364179433,
				"element": "H" 
			},
			{
				"x": -2.7347367124,
				"y": -0.6833517223,
				"z": 0.8274657357,
				"element": "H" 
			}
		],
		 "valence_orbital": [ 
			{
				"type": "occ",
				"energy": -0.27107,
				"method": "rhf"
			},
			{
				"type": "occ",
				"energy": -0.2681,
				"method": "rhf"
			},
			{
				"type": "occ",
				"energy": -0.25944,
				"method": "rhf"
			},
			{
				"type": "occ",
				"energy": -0.24468,
				"method": "rhf"
			},
			{
				"type": "occ",
				"energy": -0.22558,
				"method": "rhf"
			},
			{
				"type": "unocc",
				"energy": -0.04445,
				"method": "rhf"
			},
			{
				"type": "unocc",
				"energy": -0.01413,
				"method": "rhf"
			},
			{
				"type": "unocc",
				"energy": -0.00908,
				"method": "rhf"
			},
			{
				"type": "unocc",
				"energy": 0.00127,
				"method": "rhf"
			},
			{
				"type": "unocc",
				"energy": 0.06042,
				"method": "rhf"
			}
		],
		"cosmo_sigma_profile": { 
			"-0.025": 0.0,
			"-0.024": 0.0,
			"-0.023": 0.0,
			"-0.022": 0.0,
			"-0.021": 0.0,
			"-0.02": 0.0,
			"-0.019": 0.0,
			"-0.018": 0.0,
			"-0.017": 0.0,
			"-0.016": 0.0163902717587,
			"-0.015": 0.596459244106,
			"-0.014": 1.07081521929,
			"-0.013": 1.01358954063,
			"-0.012": 1.07864117763,
			"-0.011": 1.12134214858,
			"-0.01": 1.01268729435,
			"-0.009": 1.23345950088,
			"-0.008": 2.52525436921,
			"-0.007": 7.48980322902,
			"-0.006": 22.7227780213,
			"-0.005": 25.680423898,
			"-0.004": 26.5294341222,
			"-0.003": 25.8396251847,
			"-0.002": 21.9273980071,
			"-0.001": 22.0482801082,
			"0.0": 22.7788669568,
			"0.001": 29.5040835662,
			"0.002": 59.3015311232,
			"0.003": 28.4191249024,
			"0.004": 12.7267194081,
			"0.005": 13.3120893012,
			"0.006": 4.69107750813,
			"0.007": 3.87268780565,
			"0.008": 3.83584813669,
			"0.009": 3.05143737708,
			"0.01": 4.50338529691,
			"0.011": 5.12212336514,
			"0.012": 6.37393173433,
			"0.013": 2.29367610895,
			"0.014": 0.0,
			"0.015": 0.0,
			"0.016": 0.0,
			"0.017": 0.0,
			"0.018": 0.0,
			"0.019": 0.0,
			"0.02": 0.0,
			"0.021": 0.0,
			"0.022": 0.0,
			"0.023": 0.0,
			"0.024": 0.0,
			"0.025": 0.0
		}
	}
}
