{
	 "smiles": "CCC1=C(N)C=C(C=C1)S(O)(=O)=O", 
	 "Tm": 542.15, 
	 "num_atms": 24, 
	 "gaussian": { 
		 "optdone": 1, 
		 "sigma_profile": "yes", 
		 "theory": "DFT", 
		 "functional": "B3LYP", 
		 "basiset": "6-31G**", 
		 "properties": { 
			 "R2extent": 3716.2001, 
			 "electric_dipole_moment_norm": 5.89280150014, 
			 "electric_quadrupole_moment_norm": 13.9590472354, 
			 "total_energy": -990.035285993, 
			 "HOMO_LUMO_gap": 0.18517, 
			 "cosmo_polarized_energy": -18.01, 
			 "cosmo_cavitation_energy": 28.77, 
			 "cosmo_dispersion_energy": -21.68, 
			 "cosmo_repulsion_energy": 1.68, 
			 "cosmo_total_nonelectrostatic_energy": 8.77, 
			 "SMD_solvation_energy": 3.97 
		},
		"coords": [
			{
				"x": -1.7301686537,
				"y": 1.653124722,
				"z": 2.5583708796,
				"element": "C" 
			},
			{
				"x": -2.3877357205,
				"y": 1.0303101297,
				"z": 1.3114749252,
				"element": "C" 
			},
			{
				"x": -1.3915974569,
				"y": 0.6120706687,
				"z": 0.2512440175,
				"element": "C" 
			},
			{
				"x": -0.6064978765,
				"y": -0.5589559193,
				"z": 0.4061962327,
				"element": "C" 
			},
			{
				"x": -0.7103215659,
				"y": -1.3470675656,
				"z": 1.5519781028,
				"element": "N" 
			},
			{
				"x": 0.3298828284,
				"y": -0.8954679364,
				"z": -0.5828221159,
				"element": "C" 
			},
			{
				"x": 0.4819520362,
				"y": -0.0750804071,
				"z": -1.6968684572,
				"element": "C" 
			},
			{
				"x": -0.2706933615,
				"y": 1.0840217078,
				"z": -1.8731702637,
				"element": "C" 
			},
			{
				"x": -1.2035138333,
				"y": 1.4018045511,
				"z": -0.8870177898,
				"element": "C" 
			},
			{
				"x": 1.6720677525,
				"y": -0.5378804256,
				"z": -2.9385014088,
				"element": "S" 
			},
			{
				"x": 0.7069355709,
				"y": -1.3928761461,
				"z": -3.9700100676,
				"element": "O" 
			},
			{
				"x": 2.1230458607,
				"y": 0.6591843491,
				"z": -3.6360395019,
				"element": "O" 
			},
			{
				"x": 2.629150334,
				"y": -1.501454151,
				"z": -2.3886733517,
				"element": "O" 
			},
			{
				"x": -1.0231819829,
				"y": 0.9603308253,
				"z": 3.0233985609,
				"element": "H" 
			},
			{
				"x": -2.4869349338,
				"y": 1.9231506233,
				"z": 3.3020323678,
				"element": "H" 
			},
			{
				"x": -1.1794255192,
				"y": 2.5593730166,
				"z": 2.2891525525,
				"element": "H" 
			},
			{
				"x": -3.004713403,
				"y": 0.1712549482,
				"z": 1.6145647589,
				"element": "H" 
			},
			{
				"x": -3.0875864166,
				"y": 1.7497070939,
				"z": 0.8731840721,
				"element": "H" 
			},
			{
				"x": -0.3459433503,
				"y": -2.2853247417,
				"z": 1.4619777531,
				"element": "H" 
			},
			{
				"x": -1.6031526384,
				"y": -1.3290064952,
				"z": 2.0238840342,
				"element": "H" 
			},
			{
				"x": 0.9508289566,
				"y": -1.7792017389,
				"z": -0.4756133018,
				"element": "H" 
			},
			{
				"x": -0.1225343014,
				"y": 1.7140170816,
				"z": -2.7417709369,
				"element": "H" 
			},
			{
				"x": -1.8069722864,
				"y": 2.2987860487,
				"z": -0.9998852247,
				"element": "H" 
			},
			{
				"x": 1.2045099609,
				"y": -2.1984202392,
				"z": -4.1913858371,
				"element": "H" 
			}
		],
		 "valence_orbital": [ 
			{
				"type": "occ",
				"energy": -0.31731,
				"method": "rhf"
			},
			{
				"type": "occ",
				"energy": -0.3132,
				"method": "rhf"
			},
			{
				"type": "occ",
				"energy": -0.29709,
				"method": "rhf"
			},
			{
				"type": "occ",
				"energy": -0.26362,
				"method": "rhf"
			},
			{
				"type": "occ",
				"energy": -0.22073,
				"method": "rhf"
			},
			{
				"type": "unocc",
				"energy": -0.03556,
				"method": "rhf"
			},
			{
				"type": "unocc",
				"energy": -0.00521,
				"method": "rhf"
			},
			{
				"type": "unocc",
				"energy": 0.04601,
				"method": "rhf"
			},
			{
				"type": "unocc",
				"energy": 0.05819,
				"method": "rhf"
			},
			{
				"type": "unocc",
				"energy": 0.07982,
				"method": "rhf"
			}
		],
		"cosmo_sigma_profile": { 
			"-0.025": 0.0,
			"-0.024": 0.0,
			"-0.023": 0.0,
			"-0.022": 0.0,
			"-0.021": 0.0,
			"-0.02": 0.134060704888,
			"-0.019": 1.28874557738,
			"-0.018": 0.619576619551,
			"-0.017": 0.631459009078,
			"-0.016": 0.904302437871,
			"-0.015": 1.22189602049,
			"-0.014": 0.525114466887,
			"-0.013": 2.1064199313,
			"-0.012": 3.47781658337,
			"-0.011": 3.94521558825,
			"-0.01": 4.2147128764,
			"-0.009": 3.59822570813,
			"-0.008": 3.46720962403,
			"-0.007": 4.65106669993,
			"-0.006": 7.19297089034,
			"-0.005": 8.71484153265,
			"-0.004": 10.4319724032,
			"-0.003": 13.1665000548,
			"-0.002": 15.656406473,
			"-0.001": 20.0813148204,
			"0.0": 14.565178454,
			"0.001": 17.4889120731,
			"0.002": 12.6924020209,
			"0.003": 13.6576057613,
			"0.004": 13.8754318833,
			"0.005": 5.55042585878,
			"0.006": 4.57697988799,
			"0.007": 5.44122920544,
			"0.008": 7.34671048957,
			"0.009": 8.38677130694,
			"0.01": 11.298346595,
			"0.011": 5.69401381619,
			"0.012": 0.708994447079,
			"0.013": 0.087064960409,
			"0.014": 0.0,
			"0.015": 0.0,
			"0.016": 0.0,
			"0.017": 0.0,
			"0.018": 0.0,
			"0.019": 0.0,
			"0.02": 0.0,
			"0.021": 0.0,
			"0.022": 0.0,
			"0.023": 0.0,
			"0.024": 0.0,
			"0.025": 0.0
		}
	}
}
