{
	 "smiles": "COC1=C(OC2CCCC2)C=C(C=C1)C1CNC(=O)C1", 
	 "Tm": 403.15, 
	 "num_atms": 41, 
	 "gaussian": { 
		 "optdone": 1, 
		 "sigma_profile": "yes", 
		 "theory": "DFT", 
		 "functional": "B3LYP", 
		 "basiset": "6-31G**", 
		 "properties": { 
			 "R2extent": 6532.4204, 
			 "electric_dipole_moment_norm": 1.81457013642, 
			 "electric_quadrupole_moment_norm": 27.6583496115, 
			 "total_energy": -902.781771027, 
			 "HOMO_LUMO_gap": 0.20908, 
			 "cosmo_polarized_energy": -15.88, 
			 "cosmo_cavitation_energy": 41.84, 
			 "cosmo_dispersion_energy": -28.53, 
			 "cosmo_repulsion_energy": 2.25, 
			 "cosmo_total_nonelectrostatic_energy": 15.56, 
			 "SMD_solvation_energy": 7.24 
		},
		"coords": [
			{
				"x": -2.8907371358,
				"y": -2.6415977078,
				"z": -0.2558285177,
				"element": "C" 
			},
			{
				"x": -1.9245849688,
				"y": -2.5294004432,
				"z": 0.7903770791,
				"element": "O" 
			},
			{
				"x": -1.5742498637,
				"y": -1.2452091388,
				"z": 1.1347328445,
				"element": "C" 
			},
			{
				"x": -0.7535253453,
				"y": -0.4568889168,
				"z": 0.2921583862,
				"element": "C" 
			},
			{
				"x": -0.3996752226,
				"y": -1.0320799431,
				"z": -0.8934710824,
				"element": "O" 
			},
			{
				"x": 0.4664787261,
				"y": -0.3257146917,
				"z": -1.8054175141,
				"element": "C" 
			},
			{
				"x": 0.4118280559,
				"y": -1.0954657605,
				"z": -3.1488572209,
				"element": "C" 
			},
			{
				"x": 1.7801889909,
				"y": -1.8110221505,
				"z": -3.3047987322,
				"element": "C" 
			},
			{
				"x": 2.4049425461,
				"y": -1.7713190343,
				"z": -1.8981392687,
				"element": "C" 
			},
			{
				"x": 1.9361192971,
				"y": -0.4143932414,
				"z": -1.3506762426,
				"element": "C" 
			},
			{
				"x": -0.3743659425,
				"y": 0.8214097207,
				"z": 0.7116456929,
				"element": "C" 
			},
			{
				"x": -0.7932418069,
				"y": 1.3348523712,
				"z": 1.9528825656,
				"element": "C" 
			},
			{
				"x": -1.5947297319,
				"y": 0.5421328875,
				"z": 2.7744786038,
				"element": "C" 
			},
			{
				"x": -1.9822567687,
				"y": -0.73624886,
				"z": 2.3613713243,
				"element": "C" 
			},
			{
				"x": -0.3827112734,
				"y": 2.7278512534,
				"z": 2.4006551239,
				"element": "C" 
			},
			{
				"x": 1.1665671942,
				"y": 2.9278602483,
				"z": 2.4456374881,
				"element": "C" 
			},
			{
				"x": 1.4526321783,
				"y": 3.6201921984,
				"z": 1.1989781273,
				"element": "N" 
			},
			{
				"x": 0.3743687103,
				"y": 4.2358273052,
				"z": 0.6128723971,
				"element": "C" 
			},
			{
				"x": 0.4106577568,
				"y": 4.9552172224,
				"z": -0.3702346169,
				"element": "O" 
			},
			{
				"x": -0.8544176089,
				"y": 3.8509570069,
				"z": 1.4399338894,
				"element": "C" 
			},
			{
				"x": -3.0666215465,
				"y": -3.7103280589,
				"z": -0.3967416007,
				"element": "H" 
			},
			{
				"x": -3.8340396424,
				"y": -2.1555331109,
				"z": 0.0271010695,
				"element": "H" 
			},
			{
				"x": -2.523899997,
				"y": -2.2062448885,
				"z": -1.1903498568,
				"element": "H" 
			},
			{
				"x": 0.1076091371,
				"y": 0.7043840436,
				"z": -1.9060339182,
				"element": "H" 
			},
			{
				"x": -0.4162284823,
				"y": -1.8076219573,
				"z": -3.103007258,
				"element": "H" 
			},
			{
				"x": 0.2091270348,
				"y": -0.4158785815,
				"z": -3.9816563397,
				"element": "H" 
			},
			{
				"x": 1.6785256971,
				"y": -2.826434038,
				"z": -3.698738057,
				"element": "H" 
			},
			{
				"x": 2.4163789028,
				"y": -1.257205731,
				"z": -4.0055166017,
				"element": "H" 
			},
			{
				"x": 1.9942174367,
				"y": -2.5757569049,
				"z": -1.2774175535,
				"element": "H" 
			},
			{
				"x": 3.4938235368,
				"y": -1.8793609375,
				"z": -1.9068514834,
				"element": "H" 
			},
			{
				"x": 2.0445564617,
				"y": -0.3081402907,
				"z": -0.268281461,
				"element": "H" 
			},
			{
				"x": 2.5022541156,
				"y": 0.398515948,
				"z": -1.8243899152,
				"element": "H" 
			},
			{
				"x": 0.2662945319,
				"y": 1.4265924254,
				"z": 0.0822097937,
				"element": "H" 
			},
			{
				"x": -1.9231412256,
				"y": 0.9185770291,
				"z": 3.7394313383,
				"element": "H" 
			},
			{
				"x": -2.6021799006,
				"y": -1.3665880493,
				"z": 2.9913637515,
				"element": "H" 
			},
			{
				"x": -0.7893948763,
				"y": 2.8860529703,
				"z": 3.4028596645,
				"element": "H" 
			},
			{
				"x": 1.6943531833,
				"y": 1.9710734318,
				"z": 2.5027325934,
				"element": "H" 
			},
			{
				"x": 1.4597491284,
				"y": 3.5306531291,
				"z": 3.3174771083,
				"element": "H" 
			},
			{
				"x": 2.3871842575,
				"y": 3.8559198243,
				"z": 0.896800352,
				"element": "H" 
			},
			{
				"x": -1.1790673412,
				"y": 4.7444398381,
				"z": 1.9860196768,
				"element": "H" 
			},
			{
				"x": -1.675888199,
				"y": 3.5503235827,
				"z": 0.7867883705,
				"element": "H" 
			}
		],
		 "valence_orbital": [ 
			{
				"type": "occ",
				"energy": -0.26751,
				"method": "rhf"
			},
			{
				"type": "occ",
				"energy": -0.25369,
				"method": "rhf"
			},
			{
				"type": "occ",
				"energy": -0.24077,
				"method": "rhf"
			},
			{
				"type": "occ",
				"energy": -0.23621,
				"method": "rhf"
			},
			{
				"type": "occ",
				"energy": -0.21063,
				"method": "rhf"
			},
			{
				"type": "unocc",
				"energy": -0.00155,
				"method": "rhf"
			},
			{
				"type": "unocc",
				"energy": 0.01218,
				"method": "rhf"
			},
			{
				"type": "unocc",
				"energy": 0.03395,
				"method": "rhf"
			},
			{
				"type": "unocc",
				"energy": 0.07651,
				"method": "rhf"
			},
			{
				"type": "unocc",
				"energy": 0.08144,
				"method": "rhf"
			}
		],
		"cosmo_sigma_profile": { 
			"-0.025": 0.0,
			"-0.024": 0.0,
			"-0.023": 0.0,
			"-0.022": 0.0,
			"-0.021": 0.0,
			"-0.02": 0.0,
			"-0.019": 0.0,
			"-0.018": 0.0,
			"-0.017": 0.0,
			"-0.016": 0.0,
			"-0.015": 0.0,
			"-0.014": 0.84050072207,
			"-0.013": 1.29788777231,
			"-0.012": 1.02592056548,
			"-0.011": 0.557670123335,
			"-0.01": 1.84163689241,
			"-0.009": 0.805297203632,
			"-0.008": 0.491843767462,
			"-0.007": 1.17399056962,
			"-0.006": 5.74179312859,
			"-0.005": 20.2390779931,
			"-0.004": 31.6287233388,
			"-0.003": 40.4467417309,
			"-0.002": 43.2789094651,
			"-0.001": 35.2079552465,
			"0.0": 32.8724557643,
			"0.001": 26.1742424781,
			"0.002": 12.4363499136,
			"0.003": 10.5939819147,
			"0.004": 11.5823267779,
			"0.005": 10.203924247,
			"0.006": 6.98536157693,
			"0.007": 2.59842041227,
			"0.008": 3.21141115322,
			"0.009": 2.62251599415,
			"0.01": 2.65916052263,
			"0.011": 4.02775165334,
			"0.012": 4.1654913323,
			"0.013": 3.93530676072,
			"0.014": 6.00529196566,
			"0.015": 2.90423166069,
			"0.016": 0.0469023131848,
			"0.017": 0.0,
			"0.018": 0.0,
			"0.019": 0.0,
			"0.02": 0.0,
			"0.021": 0.0,
			"0.022": 0.0,
			"0.023": 0.0,
			"0.024": 0.0,
			"0.025": 0.0
		}
	}
}
