{
	 "smiles": "CC(=O)NC1=C2C=CC=CC2=C(Br)C=C1Cl", 
	 "Tm": 501.15, 
	 "num_atms": 25, 
	 "gaussian": { 
		 "optdone": 1, 
		 "sigma_profile": "yes", 
		 "theory": "DFT", 
		 "functional": "B3LYP", 
		 "basiset": "6-31G**", 
		 "properties": { 
			 "R2extent": 5576.585, 
			 "electric_dipole_moment_norm": 3.4454335852, 
			 "electric_quadrupole_moment_norm": 16.215994457, 
			 "total_energy": -3624.29627379, 
			 "HOMO_LUMO_gap": 0.16251, 
			 "cosmo_polarized_energy": -10.7, 
			 "cosmo_cavitation_energy": 32.9, 
			 "cosmo_dispersion_energy": -23.73, 
			 "cosmo_repulsion_energy": 1.84, 
			 "cosmo_total_nonelectrostatic_energy": 11.01, 
			 "SMD_solvation_energy": 5.18 
		},
		"coords": [
			{
				"x": 2.4788304656,
				"y": 0.3181097289,
				"z": 2.9238323185,
				"element": "C" 
			},
			{
				"x": 2.8288577546,
				"y": 1.4235028147,
				"z": 1.9462357571,
				"element": "C" 
			},
			{
				"x": 3.629297897,
				"y": 2.3081817307,
				"z": 2.1961185248,
				"element": "O" 
			},
			{
				"x": 2.1900060682,
				"y": 1.3947563106,
				"z": 0.707925127,
				"element": "N" 
			},
			{
				"x": 1.1139260854,
				"y": 0.5565320059,
				"z": 0.3206805011,
				"element": "C" 
			},
			{
				"x": 1.3679960682,
				"y": -0.7794033103,
				"z": -0.1348357153,
				"element": "C" 
			},
			{
				"x": 2.69399275,
				"y": -1.2810634466,
				"z": -0.2364076677,
				"element": "C" 
			},
			{
				"x": 2.9347279546,
				"y": -2.5691855926,
				"z": -0.6575019274,
				"element": "C" 
			},
			{
				"x": 1.8597130724,
				"y": -3.4205381089,
				"z": -0.9995399365,
				"element": "C" 
			},
			{
				"x": 0.5638334661,
				"y": -2.9619134844,
				"z": -0.9340629243,
				"element": "C" 
			},
			{
				"x": 0.278342319,
				"y": -1.6365187687,
				"z": -0.5135819949,
				"element": "C" 
			},
			{
				"x": -1.0379210329,
				"y": -1.092935193,
				"z": -0.4609467906,
				"element": "C" 
			},
			{
				"x": -2.5497011698,
				"y": -2.1539185235,
				"z": -0.9530010673,
				"element": "Br" 
			},
			{
				"x": -1.2747299682,
				"y": 0.2012281205,
				"z": -0.0683203239,
				"element": "C" 
			},
			{
				"x": -0.1921277247,
				"y": 1.0168112385,
				"z": 0.3267282703,
				"element": "C" 
			},
			{
				"x": -0.5513002566,
				"y": 2.6527775453,
				"z": 0.8384466636,
				"element": "Cl" 
			},
			{
				"x": 3.0379397903,
				"y": 0.4939809073,
				"z": 3.8421500049,
				"element": "H" 
			},
			{
				"x": 1.4060818421,
				"y": 0.3160578028,
				"z": 3.1419170708,
				"element": "H" 
			},
			{
				"x": 2.7338495102,
				"y": -0.6674233834,
				"z": 2.5237144365,
				"element": "H" 
			},
			{
				"x": 2.3220197227,
				"y": 2.2564892592,
				"z": 0.1903105486,
				"element": "H" 
			},
			{
				"x": 3.5159946082,
				"y": -0.618718838,
				"z": 0.0091644977,
				"element": "H" 
			},
			{
				"x": 3.9558416291,
				"y": -2.9306722123,
				"z": -0.7335367112,
				"element": "H" 
			},
			{
				"x": 2.0574248189,
				"y": -4.4372104716,
				"z": -1.3251125557,
				"element": "H" 
			},
			{
				"x": -0.2610702146,
				"y": -3.608288753,
				"z": -1.2093555142,
				"element": "H" 
			},
			{
				"x": -2.2805254558,
				"y": 0.600262622,
				"z": -0.0441205918,
				"element": "H" 
			}
		],
		 "valence_orbital": [ 
			{
				"type": "occ",
				"energy": -0.28731,
				"method": "rhf"
			},
			{
				"type": "occ",
				"energy": -0.27075,
				"method": "rhf"
			},
			{
				"type": "occ",
				"energy": -0.26454,
				"method": "rhf"
			},
			{
				"type": "occ",
				"energy": -0.25648,
				"method": "rhf"
			},
			{
				"type": "occ",
				"energy": -0.23127,
				"method": "rhf"
			},
			{
				"type": "unocc",
				"energy": -0.06876,
				"method": "rhf"
			},
			{
				"type": "unocc",
				"energy": -0.03773,
				"method": "rhf"
			},
			{
				"type": "unocc",
				"energy": -0.0149,
				"method": "rhf"
			},
			{
				"type": "unocc",
				"energy": 0.00389,
				"method": "rhf"
			},
			{
				"type": "unocc",
				"energy": 0.02018,
				"method": "rhf"
			}
		],
		"cosmo_sigma_profile": { 
			"-0.025": 0.0,
			"-0.024": 0.0,
			"-0.023": 0.0,
			"-0.022": 0.0,
			"-0.021": 0.0,
			"-0.02": 0.0,
			"-0.019": 0.0,
			"-0.018": 0.0,
			"-0.017": 0.0,
			"-0.016": 0.0,
			"-0.015": 0.0,
			"-0.014": 0.598621640265,
			"-0.013": 0.909070814751,
			"-0.012": 0.551660263954,
			"-0.011": 0.921382263154,
			"-0.01": 1.05133775883,
			"-0.009": 0.931083470598,
			"-0.008": 2.12674793162,
			"-0.007": 4.43819615581,
			"-0.006": 11.1782558737,
			"-0.005": 16.2266829342,
			"-0.004": 19.0033065272,
			"-0.003": 18.9059129518,
			"-0.002": 21.3861145315,
			"-0.001": 23.3351709777,
			"0.0": 29.78437501,
			"0.001": 30.1803372908,
			"0.002": 24.7002855561,
			"0.003": 24.0786332884,
			"0.004": 18.0438620726,
			"0.005": 1.64822597326,
			"0.006": 0.877452395054,
			"0.007": 1.38110918215,
			"0.008": 1.40131505348,
			"0.009": 1.16362200426,
			"0.01": 1.18892214197,
			"0.011": 2.27524613694,
			"0.012": 2.62264498158,
			"0.013": 5.6284975903,
			"0.014": 2.58225297765,
			"0.015": 0.0645307653215,
			"0.016": 0.0,
			"0.017": 0.0,
			"0.018": 0.0,
			"0.019": 0.0,
			"0.02": 0.0,
			"0.021": 0.0,
			"0.022": 0.0,
			"0.023": 0.0,
			"0.024": 0.0,
			"0.025": 0.0
		}
	}
}
