{
	 "smiles": "COC1=CC(C=CC(O)=O)=C(C=C1OC)[N+]([O-])=O", 
	 "Tm": 543.15, 
	 "num_atms": 29, 
	 "gaussian": { 
		 "optdone": 1, 
		 "sigma_profile": "yes", 
		 "theory": "DFT", 
		 "functional": "B3LYP", 
		 "basiset": "6-31G**", 
		 "properties": { 
			 "R2extent": 5014.7504, 
			 "electric_dipole_moment_norm": 5.71785754107, 
			 "electric_quadrupole_moment_norm": 20.6211953902, 
			 "total_energy": -931.747872307, 
			 "HOMO_LUMO_gap": 0.15879, 
			 "cosmo_polarized_energy": -16.29, 
			 "cosmo_cavitation_energy": 34.66, 
			 "cosmo_dispersion_energy": -24.03, 
			 "cosmo_repulsion_energy": 1.91, 
			 "cosmo_total_nonelectrostatic_energy": 12.53, 
			 "SMD_solvation_energy": 10.87 
		},
		"coords": [
			{
				"x": 3.7431018462,
				"y": -1.0658056367,
				"z": 1.9776596222,
				"element": "C" 
			},
			{
				"x": 2.585474767,
				"y": -0.2197476933,
				"z": 1.868953961,
				"element": "O" 
			},
			{
				"x": 1.6142283154,
				"y": -0.6441102523,
				"z": 1.0051297014,
				"element": "C" 
			},
			{
				"x": 1.309686284,
				"y": 0.161115773,
				"z": -0.0907451214,
				"element": "C" 
			},
			{
				"x": 0.3161269777,
				"y": -0.176002901,
				"z": -1.0207408216,
				"element": "C" 
			},
			{
				"x": 0.1287847006,
				"y": 0.6803957781,
				"z": -2.2126199891,
				"element": "C" 
			},
			{
				"x": -0.0761306811,
				"y": 2.0087060662,
				"z": -2.2676548603,
				"element": "C" 
			},
			{
				"x": -0.3558395646,
				"y": 2.9742297942,
				"z": -1.182774597,
				"element": "C" 
			},
			{
				"x": -0.6259772668,
				"y": 2.4238372709,
				"z": 0.0272507491,
				"element": "O" 
			},
			{
				"x": -0.3730733198,
				"y": 4.1770582289,
				"z": -1.3607187946,
				"element": "O" 
			},
			{
				"x": -0.3538107766,
				"y": -1.3973717649,
				"z": -0.8069635162,
				"element": "C" 
			},
			{
				"x": -0.0822752878,
				"y": -2.2077745616,
				"z": 0.2965012501,
				"element": "C" 
			},
			{
				"x": 0.8917260883,
				"y": -1.8394960584,
				"z": 1.2150759748,
				"element": "C" 
			},
			{
				"x": 1.1468151254,
				"y": -2.6639011662,
				"z": 2.2808540742,
				"element": "O" 
			},
			{
				"x": 0.7667941961,
				"y": -2.1340001417,
				"z": 3.5610591319,
				"element": "C" 
			},
			{
				"x": -1.4136645242,
				"y": -1.8552205141,
				"z": -1.713829189,
				"element": "N" 
			},
			{
				"x": -1.7290654439,
				"y": -1.1230005575,
				"z": -2.6549388988,
				"element": "O" 
			},
			{
				"x": -1.9317889089,
				"y": -2.9487093159,
				"z": -1.487973221,
				"element": "O" 
			},
			{
				"x": 4.3914937062,
				"y": -0.5914292243,
				"z": 2.7156796534,
				"element": "H" 
			},
			{
				"x": 3.4740628687,
				"y": -2.0729019339,
				"z": 2.3062319103,
				"element": "H" 
			},
			{
				"x": 4.2658093097,
				"y": -1.1195370305,
				"z": 1.0155659195,
				"element": "H" 
			},
			{
				"x": 1.8840825385,
				"y": 1.0698182496,
				"z": -0.224769333,
				"element": "H" 
			},
			{
				"x": 0.2246669001,
				"y": 0.1686996859,
				"z": -3.1659444854,
				"element": "H" 
			},
			{
				"x": -0.0790768918,
				"y": 2.4886620966,
				"z": -3.2408029908,
				"element": "H" 
			},
			{
				"x": -0.8038887208,
				"y": 3.1751131046,
				"z": 0.6175749344,
				"element": "H" 
			},
			{
				"x": -0.6419443538,
				"y": -3.1225068765,
				"z": 0.4408143144,
				"element": "H" 
			},
			{
				"x": 1.2913320698,
				"y": -1.1982850569,
				"z": 3.7770755659,
				"element": "H" 
			},
			{
				"x": -0.3157591115,
				"y": -1.9654887742,
				"z": 3.6002242906,
				"element": "H" 
			},
			{
				"x": 1.042509158,
				"y": -2.8922465884,
				"z": 4.2956247652,
				"element": "H" 
			}
		],
		 "valence_orbital": [ 
			{
				"type": "occ",
				"energy": -0.28812,
				"method": "rhf"
			},
			{
				"type": "occ",
				"energy": -0.28189,
				"method": "rhf"
			},
			{
				"type": "occ",
				"energy": -0.2772,
				"method": "rhf"
			},
			{
				"type": "occ",
				"energy": -0.26767,
				"method": "rhf"
			},
			{
				"type": "occ",
				"energy": -0.2525,
				"method": "rhf"
			},
			{
				"type": "unocc",
				"energy": -0.09371,
				"method": "rhf"
			},
			{
				"type": "unocc",
				"energy": -0.05797,
				"method": "rhf"
			},
			{
				"type": "unocc",
				"energy": -0.01794,
				"method": "rhf"
			},
			{
				"type": "unocc",
				"energy": 0.001,
				"method": "rhf"
			},
			{
				"type": "unocc",
				"energy": 0.0671,
				"method": "rhf"
			}
		],
		"cosmo_sigma_profile": { 
			"-0.025": 0.0,
			"-0.024": 0.0,
			"-0.023": 0.0,
			"-0.022": 0.0,
			"-0.021": 0.0,
			"-0.02": 0.0,
			"-0.019": 0.0,
			"-0.018": 0.475712963113,
			"-0.017": 0.980542306916,
			"-0.016": 0.786615332947,
			"-0.015": 1.14170719264,
			"-0.014": 0.777086479542,
			"-0.013": 0.173884871909,
			"-0.012": 0.516326291745,
			"-0.011": 0.918590682496,
			"-0.01": 0.7890978037,
			"-0.009": 1.05155380716,
			"-0.008": 1.52143066153,
			"-0.007": 8.59805626604,
			"-0.006": 14.8394385044,
			"-0.005": 17.9310512737,
			"-0.004": 24.923566438,
			"-0.003": 29.5168735755,
			"-0.002": 25.099258801,
			"-0.001": 21.6369776416,
			"0.0": 18.8521141691,
			"0.001": 13.1572111767,
			"0.002": 11.0167060568,
			"0.003": 8.61857534964,
			"0.004": 8.7606143125,
			"0.005": 8.0268524901,
			"0.006": 8.23920331391,
			"0.007": 12.1092234688,
			"0.008": 11.2833222024,
			"0.009": 7.56945041367,
			"0.01": 6.41615315043,
			"0.011": 4.12800956065,
			"0.012": 5.05556094061,
			"0.013": 1.1765809079,
			"0.014": 0.0,
			"0.015": 0.0,
			"0.016": 0.0,
			"0.017": 0.0,
			"0.018": 0.0,
			"0.019": 0.0,
			"0.02": 0.0,
			"0.021": 0.0,
			"0.022": 0.0,
			"0.023": 0.0,
			"0.024": 0.0,
			"0.025": 0.0
		}
	}
}
