{
	 "smiles": "CC1=C(C)C2=CC=C(C=C2N1)C(O)=O", 
	 "Tm": 423.15, 
	 "num_atms": 25, 
	 "gaussian": { 
		 "optdone": 1, 
		 "sigma_profile": "yes", 
		 "theory": "DFT", 
		 "functional": "B3LYP", 
		 "basiset": "6-31G**", 
		 "properties": { 
			 "R2extent": 4258.9192, 
			 "electric_dipole_moment_norm": 7.52237388462, 
			 "electric_quadrupole_moment_norm": 30.3213034017, 
			 "total_energy": -631.030534839, 
			 "HOMO_LUMO_gap": 0.16961, 
			 "cosmo_polarized_energy": -19.28, 
			 "cosmo_cavitation_energy": 28.85, 
			 "cosmo_dispersion_energy": -21.22, 
			 "cosmo_repulsion_energy": 1.66, 
			 "cosmo_total_nonelectrostatic_energy": 9.29, 
			 "SMD_solvation_energy": 5.78 
		},
		"coords": [
			{
				"x": -1.3868258627,
				"y": 1.7443875374,
				"z": 2.2684455866,
				"element": "C" 
			},
			{
				"x": -0.4874062339,
				"y": 0.9887882748,
				"z": 1.3445566237,
				"element": "C" 
			},
			{
				"x": -0.7534774959,
				"y": -0.0377628883,
				"z": 0.4621112205,
				"element": "C" 
			},
			{
				"x": -2.0726541694,
				"y": -0.693154139,
				"z": 0.1819516838,
				"element": "C" 
			},
			{
				"x": 0.4961744688,
				"y": -0.3771097331,
				"z": -0.1663701474,
				"element": "C" 
			},
			{
				"x": 0.8690416548,
				"y": -1.3094386561,
				"z": -1.1511269673,
				"element": "C" 
			},
			{
				"x": 2.1919343096,
				"y": -1.3724742215,
				"z": -1.5595341886,
				"element": "C" 
			},
			{
				"x": 3.177339881,
				"y": -0.531693653,
				"z": -0.9918071335,
				"element": "C" 
			},
			{
				"x": 2.8291309211,
				"y": 0.4128763825,
				"z": -0.0176161617,
				"element": "C" 
			},
			{
				"x": 1.4948075824,
				"y": 0.4770157666,
				"z": 0.3788838264,
				"element": "C" 
			},
			{
				"x": 0.8666560671,
				"y": 1.2971997903,
				"z": 1.2912910571,
				"element": "N" 
			},
			{
				"x": 4.5756081504,
				"y": -0.6695896036,
				"z": -1.4994499003,
				"element": "C" 
			},
			{
				"x": 5.5688667638,
				"y": -0.2063742678,
				"z": -0.6839346869,
				"element": "O" 
			},
			{
				"x": 4.8611253962,
				"y": -1.1586600835,
				"z": -2.5681481482,
				"element": "O" 
			},
			{
				"x": -1.3922587348,
				"y": 2.8171241899,
				"z": 2.0380951202,
				"element": "H" 
			},
			{
				"x": -2.4138359985,
				"y": 1.3840687245,
				"z": 2.1899037318,
				"element": "H" 
			},
			{
				"x": -1.0749284921,
				"y": 1.6345420992,
				"z": 3.3146723464,
				"element": "H" 
			},
			{
				"x": -2.0418625199,
				"y": -1.7676003627,
				"z": 0.400219174,
				"element": "H" 
			},
			{
				"x": -2.8788317134,
				"y": -0.261619245,
				"z": 0.7811972396,
				"element": "H" 
			},
			{
				"x": -2.356746034,
				"y": -0.5885422067,
				"z": -0.8722546326,
				"element": "H" 
			},
			{
				"x": 0.1285109637,
				"y": -1.9701551267,
				"z": -1.5926430499,
				"element": "H" 
			},
			{
				"x": 2.5077626076,
				"y": -2.0714259257,
				"z": -2.3258325108,
				"element": "H" 
			},
			{
				"x": 3.5576735037,
				"y": 1.1128332985,
				"z": 0.3849326887,
				"element": "H" 
			},
			{
				"x": 1.3126289849,
				"y": 2.0163484768,
				"z": 1.8374889015,
				"element": "H" 
			},
			{
				"x": 5.2087659996,
				"y": -0.0361844279,
				"z": 0.197168327,
				"element": "H" 
			}
		],
		 "valence_orbital": [ 
			{
				"type": "occ",
				"energy": -0.30256,
				"method": "rhf"
			},
			{
				"type": "occ",
				"energy": -0.28087,
				"method": "rhf"
			},
			{
				"type": "occ",
				"energy": -0.26062,
				"method": "rhf"
			},
			{
				"type": "occ",
				"energy": -0.22869,
				"method": "rhf"
			},
			{
				"type": "occ",
				"energy": -0.20971,
				"method": "rhf"
			},
			{
				"type": "unocc",
				"energy": -0.0401,
				"method": "rhf"
			},
			{
				"type": "unocc",
				"energy": 0.00185,
				"method": "rhf"
			},
			{
				"type": "unocc",
				"energy": 0.0437,
				"method": "rhf"
			},
			{
				"type": "unocc",
				"energy": 0.06645,
				"method": "rhf"
			},
			{
				"type": "unocc",
				"energy": 0.07217,
				"method": "rhf"
			}
		],
		"cosmo_sigma_profile": { 
			"-0.025": 0.0,
			"-0.024": 0.0,
			"-0.023": 0.0,
			"-0.022": 0.0,
			"-0.021": 0.0,
			"-0.02": 0.0,
			"-0.019": 0.0,
			"-0.018": 0.504850585951,
			"-0.017": 0.598948716471,
			"-0.016": 1.24937799716,
			"-0.015": 2.41165705646,
			"-0.014": 2.15623460338,
			"-0.013": 1.77231258549,
			"-0.012": 2.36143901613,
			"-0.011": 2.76236525431,
			"-0.01": 3.12031422192,
			"-0.009": 2.59203695452,
			"-0.008": 3.60410341667,
			"-0.007": 3.13109001742,
			"-0.006": 3.85486869127,
			"-0.005": 11.6700778928,
			"-0.004": 13.48073307,
			"-0.003": 18.0199576291,
			"-0.002": 18.2976877971,
			"-0.001": 19.8209502764,
			"0.0": 17.692982759,
			"0.001": 12.7710569415,
			"0.002": 10.9441025033,
			"0.003": 11.4137036177,
			"0.004": 16.5844564595,
			"0.005": 15.8101622162,
			"0.006": 5.42190471097,
			"0.007": 2.27814445408,
			"0.008": 3.16247886014,
			"0.009": 2.77919976749,
			"0.01": 3.73735119685,
			"0.011": 5.48317749255,
			"0.012": 5.78032351021,
			"0.013": 3.30439398243,
			"0.014": 0.783107478622,
			"0.015": 0.0,
			"0.016": 0.0,
			"0.017": 0.0,
			"0.018": 0.0,
			"0.019": 0.0,
			"0.02": 0.0,
			"0.021": 0.0,
			"0.022": 0.0,
			"0.023": 0.0,
			"0.024": 0.0,
			"0.025": 0.0
		}
	}
}
