{
	 "smiles": "BrCCNS(=O)(=O)C1=CC=CC=C1", 
	 "Tm": 328.15, 
	 "num_atms": 23, 
	 "gaussian": { 
		 "optdone": 1, 
		 "sigma_profile": "yes", 
		 "theory": "DFT", 
		 "functional": "B3LYP", 
		 "basiset": "6-31G**", 
		 "properties": { 
			 "R2extent": 5559.8311, 
			 "electric_dipole_moment_norm": 3.79271050569, 
			 "electric_quadrupole_moment_norm": 24.7531635673, 
			 "total_energy": -3485.6004005, 
			 "HOMO_LUMO_gap": 0.22305, 
			 "cosmo_polarized_energy": -15.61, 
			 "cosmo_cavitation_energy": 30.82, 
			 "cosmo_dispersion_energy": -22.7, 
			 "cosmo_repulsion_energy": 1.8, 
			 "cosmo_total_nonelectrostatic_energy": 9.92, 
			 "SMD_solvation_energy": 2.67 
		},
		"coords": [
			{
				"x": 1.6334551406,
				"y": 2.7899184825,
				"z": 0.1906468399,
				"element": "Br" 
			},
			{
				"x": 1.8025224711,
				"y": 1.0585385401,
				"z": -0.7408559661,
				"element": "C" 
			},
			{
				"x": 1.7945247897,
				"y": -0.0869290787,
				"z": 0.2640985582,
				"element": "C" 
			},
			{
				"x": 1.9078007949,
				"y": -1.3495763467,
				"z": -0.4833313721,
				"element": "N" 
			},
			{
				"x": 1.5069236123,
				"y": -2.7846623832,
				"z": 0.3353297369,
				"element": "S" 
			},
			{
				"x": 2.1668682765,
				"y": -3.8361873791,
				"z": -0.4434409115,
				"element": "O" 
			},
			{
				"x": 1.7416919858,
				"y": -2.6396186116,
				"z": 1.77660004,
				"element": "O" 
			},
			{
				"x": -0.2656124701,
				"y": -2.8761907253,
				"z": 0.0845571876,
				"element": "C" 
			},
			{
				"x": -0.757301864,
				"y": -3.1889522865,
				"z": -1.1858747767,
				"element": "C" 
			},
			{
				"x": -2.1352922193,
				"y": -3.2747223518,
				"z": -1.3708812004,
				"element": "C" 
			},
			{
				"x": -3.0031814769,
				"y": -3.0526365713,
				"z": -0.2965593073,
				"element": "C" 
			},
			{
				"x": -2.4973657777,
				"y": -2.7495312945,
				"z": 0.9681839495,
				"element": "C" 
			},
			{
				"x": -1.1178018297,
				"y": -2.6615270656,
				"z": 1.1680251579,
				"element": "C" 
			},
			{
				"x": 2.7374868476,
				"y": 1.1137490558,
				"z": -1.2997434196,
				"element": "H" 
			},
			{
				"x": 0.9645186158,
				"y": 0.9917911319,
				"z": -1.4328388513,
				"element": "H" 
			},
			{
				"x": 2.5894623866,
				"y": 0.0391896256,
				"z": 1.0075714165,
				"element": "H" 
			},
			{
				"x": 0.8425710889,
				"y": -0.0923626273,
				"z": 0.8007505357,
				"element": "H" 
			},
			{
				"x": 2.8243448279,
				"y": -1.5043049612,
				"z": -0.9002205571,
				"element": "H" 
			},
			{
				"x": -0.0697340666,
				"y": -3.3697070978,
				"z": -2.0049677931,
				"element": "H" 
			},
			{
				"x": -2.5332038932,
				"y": -3.5191086592,
				"z": -2.3510442492,
				"element": "H" 
			},
			{
				"x": -4.0764909133,
				"y": -3.1219083713,
				"z": -0.4471513753,
				"element": "H" 
			},
			{
				"x": -3.1732171021,
				"y": -2.5857161988,
				"z": 1.8018867427,
				"element": "H" 
			},
			{
				"x": -0.6987692249,
				"y": -2.4439448258,
				"z": 2.1441596149,
				"element": "H" 
			}
		],
		 "valence_orbital": [ 
			{
				"type": "occ",
				"energy": -0.2932,
				"method": "rhf"
			},
			{
				"type": "occ",
				"energy": -0.28329,
				"method": "rhf"
			},
			{
				"type": "occ",
				"energy": -0.28221,
				"method": "rhf"
			},
			{
				"type": "occ",
				"energy": -0.2758,
				"method": "rhf"
			},
			{
				"type": "occ",
				"energy": -0.26776,
				"method": "rhf"
			},
			{
				"type": "unocc",
				"energy": -0.04471,
				"method": "rhf"
			},
			{
				"type": "unocc",
				"energy": -0.02547,
				"method": "rhf"
			},
			{
				"type": "unocc",
				"energy": -0.01152,
				"method": "rhf"
			},
			{
				"type": "unocc",
				"energy": 0.05736,
				"method": "rhf"
			},
			{
				"type": "unocc",
				"energy": 0.07446,
				"method": "rhf"
			}
		],
		"cosmo_sigma_profile": { 
			"-0.025": 0.0,
			"-0.024": 0.0,
			"-0.023": 0.0,
			"-0.022": 0.0,
			"-0.021": 0.0,
			"-0.02": 0.0,
			"-0.019": 0.0,
			"-0.018": 0.0,
			"-0.017": 0.0,
			"-0.016": 0.0,
			"-0.015": 0.707147690798,
			"-0.014": 1.38608938938,
			"-0.013": 1.6013954982,
			"-0.012": 1.34976146667,
			"-0.011": 0.833223401302,
			"-0.01": 1.52384390757,
			"-0.009": 2.012999953,
			"-0.008": 3.72374027074,
			"-0.007": 11.6927796098,
			"-0.006": 17.2192769228,
			"-0.005": 20.7240558549,
			"-0.004": 15.4574257228,
			"-0.003": 13.5274665088,
			"-0.002": 13.1778586528,
			"-0.001": 14.1645414998,
			"0.0": 13.147659556,
			"0.001": 14.7118830452,
			"0.002": 18.0801968565,
			"0.003": 19.2647132267,
			"0.004": 10.597989306,
			"0.005": 11.8655864821,
			"0.006": 12.1433706181,
			"0.007": 3.72972605315,
			"0.008": 3.53573991471,
			"0.009": 3.45666640807,
			"0.01": 7.60233907348,
			"0.011": 9.07929152434,
			"0.012": 2.21811683231,
			"0.013": 0.0,
			"0.014": 0.0,
			"0.015": 0.0,
			"0.016": 0.0,
			"0.017": 0.0,
			"0.018": 0.0,
			"0.019": 0.0,
			"0.02": 0.0,
			"0.021": 0.0,
			"0.022": 0.0,
			"0.023": 0.0,
			"0.024": 0.0,
			"0.025": 0.0
		}
	}
}
