{
	 "smiles": "CN(CC(O)=O)C1=NC=CN=C1", 
	 "Tm": 444.15, 
	 "num_atms": 21, 
	 "gaussian": { 
		 "optdone": 1, 
		 "sigma_profile": "yes", 
		 "theory": "DFT", 
		 "functional": "B3LYP", 
		 "basiset": "6-31G**", 
		 "properties": { 
			 "R2extent": 2358.2005, 
			 "electric_dipole_moment_norm": 3.76932794142, 
			 "electric_quadrupole_moment_norm": 24.1791869007, 
			 "total_energy": -586.86260121, 
			 "HOMO_LUMO_gap": 0.18013, 
			 "cosmo_polarized_energy": -15.78, 
			 "cosmo_cavitation_energy": 25.1, 
			 "cosmo_dispersion_energy": -18.31, 
			 "cosmo_repulsion_energy": 1.46, 
			 "cosmo_total_nonelectrostatic_energy": 8.25, 
			 "SMD_solvation_energy": 3.84 
		},
		"coords": [
			{
				"x": -1.6546973957,
				"y": 0.1183253423,
				"z": 1.6434211422,
				"element": "C" 
			},
			{
				"x": -0.7208246703,
				"y": 0.3176576,
				"z": 0.5354915808,
				"element": "N" 
			},
			{
				"x": -1.252746682,
				"y": 1.082546875,
				"z": -0.5944299894,
				"element": "C" 
			},
			{
				"x": -1.2468759763,
				"y": 2.5955463193,
				"z": -0.3480490151,
				"element": "C" 
			},
			{
				"x": -0.3755186792,
				"y": 3.0119503777,
				"z": 0.5936492713,
				"element": "O" 
			},
			{
				"x": -1.9443162596,
				"y": 3.3583790002,
				"z": -0.9684736753,
				"element": "O" 
			},
			{
				"x": 0.2558019038,
				"y": -0.6532480909,
				"z": 0.2913750425,
				"element": "C" 
			},
			{
				"x": 0.9901382776,
				"y": -0.518420714,
				"z": -0.821809262,
				"element": "N" 
			},
			{
				"x": 1.9580595638,
				"y": -1.4133032173,
				"z": -1.0317098927,
				"element": "C" 
			},
			{
				"x": 2.2133858212,
				"y": -2.452993106,
				"z": -0.1408893766,
				"element": "C" 
			},
			{
				"x": 1.4757340168,
				"y": -2.607034616,
				"z": 0.9667338209,
				"element": "N" 
			},
			{
				"x": 0.504002689,
				"y": -1.7247999705,
				"z": 1.1835084997,
				"element": "C" 
			},
			{
				"x": -1.1166563187,
				"y": -0.0273516189,
				"z": 2.5832938643,
				"element": "H" 
			},
			{
				"x": -2.2652878619,
				"y": 1.0168929191,
				"z": 1.7502273931,
				"element": "H" 
			},
			{
				"x": -2.3227510229,
				"y": -0.7398748317,
				"z": 1.4822397031,
				"element": "H" 
			},
			{
				"x": -0.6222060873,
				"y": 0.8884693671,
				"z": -1.4650265955,
				"element": "H" 
			},
			{
				"x": -2.2787281525,
				"y": 0.7862946855,
				"z": -0.8408218595,
				"element": "H" 
			},
			{
				"x": 0.0592581897,
				"y": 2.2147389883,
				"z": 0.9497212706,
				"element": "H" 
			},
			{
				"x": 2.5449588542,
				"y": -1.2931764857,
				"z": -1.9401323596,
				"element": "H" 
			},
			{
				"x": 3.0075666633,
				"y": -3.1726425152,
				"z": -0.3199003767,
				"element": "H" 
			},
			{
				"x": -0.0931968731,
				"y": -1.8755563083,
				"z": 2.0769808139,
				"element": "H" 
			}
		],
		 "valence_orbital": [ 
			{
				"type": "occ",
				"energy": -0.31761,
				"method": "rhf"
			},
			{
				"type": "occ",
				"energy": -0.31085,
				"method": "rhf"
			},
			{
				"type": "occ",
				"energy": -0.27266,
				"method": "rhf"
			},
			{
				"type": "occ",
				"energy": -0.26108,
				"method": "rhf"
			},
			{
				"type": "occ",
				"energy": -0.23757,
				"method": "rhf"
			},
			{
				"type": "unocc",
				"energy": -0.05744,
				"method": "rhf"
			},
			{
				"type": "unocc",
				"energy": -0.02163,
				"method": "rhf"
			},
			{
				"type": "unocc",
				"energy": 0.01043,
				"method": "rhf"
			},
			{
				"type": "unocc",
				"energy": 0.06667,
				"method": "rhf"
			},
			{
				"type": "unocc",
				"energy": 0.10194,
				"method": "rhf"
			}
		],
		"cosmo_sigma_profile": { 
			"-0.025": 0.0,
			"-0.024": 0.0,
			"-0.023": 0.0,
			"-0.022": 0.0,
			"-0.021": 0.0,
			"-0.02": 0.0,
			"-0.019": 0.0,
			"-0.018": 0.0,
			"-0.017": 0.0,
			"-0.016": 0.0,
			"-0.015": 0.0305685285763,
			"-0.014": 0.526543144545,
			"-0.013": 0.568173893176,
			"-0.012": 0.923266138669,
			"-0.011": 0.586272757916,
			"-0.01": 1.2521743643,
			"-0.009": 0.935645492541,
			"-0.008": 3.59881859839,
			"-0.007": 13.8618502842,
			"-0.006": 15.9416275057,
			"-0.005": 21.1887362108,
			"-0.004": 16.8303297522,
			"-0.003": 14.5581507472,
			"-0.002": 8.80928422531,
			"-0.001": 10.5925781929,
			"0.0": 9.95655602846,
			"0.001": 11.6974782544,
			"0.002": 8.67245747744,
			"0.003": 5.92210078413,
			"0.004": 5.42589742353,
			"0.005": 4.53069018872,
			"0.006": 4.87263570808,
			"0.007": 5.33921817754,
			"0.008": 3.87634270683,
			"0.009": 5.18956835142,
			"0.01": 6.92581868966,
			"0.011": 6.13413319127,
			"0.012": 6.61617259109,
			"0.013": 2.96688893906,
			"0.014": 0.975836194205,
			"0.015": 0.716341224375,
			"0.016": 0.174219579493,
			"0.017": 0.0,
			"0.018": 0.0,
			"0.019": 0.0,
			"0.02": 0.0,
			"0.021": 0.0,
			"0.022": 0.0,
			"0.023": 0.0,
			"0.024": 0.0,
			"0.025": 0.0
		}
	}
}
