{
	 "smiles": "[O-][N+](=O)C1=CC=C(C=C1)C1=CN2C=CSC2=N1", 
	 "Tm": 558.15, 
	 "num_atms": 24, 
	 "gaussian": { 
		 "optdone": 1, 
		 "sigma_profile": "yes", 
		 "theory": "DFT", 
		 "functional": "B3LYP", 
		 "basiset": "6-31G**", 
		 "properties": { 
			 "R2extent": 7364.1059, 
			 "electric_dipole_moment_norm": 8.97000538963, 
			 "electric_quadrupole_moment_norm": 5.70369786279, 
			 "total_energy": -1136.15917456, 
			 "HOMO_LUMO_gap": 0.14303, 
			 "cosmo_polarized_energy": -15.69, 
			 "cosmo_cavitation_energy": 31.54, 
			 "cosmo_dispersion_energy": -24.01, 
			 "cosmo_repulsion_energy": 1.75, 
			 "cosmo_total_nonelectrostatic_energy": 9.29, 
			 "SMD_solvation_energy": 6.6 
		},
		"coords": [
			{
				"x": 4.0732272802,
				"y": 0.7834264215,
				"z": 2.5614520821,
				"element": "O" 
			},
			{
				"x": 3.3378592958,
				"y": -0.1492691016,
				"z": 2.2343509691,
				"element": "N" 
			},
			{
				"x": 3.4708312483,
				"y": -1.3119479338,
				"z": 2.6213164302,
				"element": "O" 
			},
			{
				"x": 2.228399821,
				"y": 0.1434398836,
				"z": 1.3222883916,
				"element": "C" 
			},
			{
				"x": 1.3782255,
				"y": -0.892637676,
				"z": 0.9339873213,
				"element": "C" 
			},
			{
				"x": 0.3290472095,
				"y": -0.6100664312,
				"z": 0.0701093362,
				"element": "C" 
			},
			{
				"x": 0.1182296026,
				"y": 0.6963108855,
				"z": -0.4114080029,
				"element": "C" 
			},
			{
				"x": 0.9942140227,
				"y": 1.7182760152,
				"z": -0.0001425241,
				"element": "C" 
			},
			{
				"x": 2.0476407259,
				"y": 1.4483871468,
				"z": 0.8638552331,
				"element": "C" 
			},
			{
				"x": -0.9844468916,
				"y": 1.0108748819,
				"z": -1.3236147474,
				"element": "C" 
			},
			{
				"x": -1.9454308323,
				"y": 0.152817295,
				"z": -1.839208233,
				"element": "C" 
			},
			{
				"x": -2.7446898325,
				"y": 0.9444144022,
				"z": -2.6394831365,
				"element": "N" 
			},
			{
				"x": -3.8638495485,
				"y": 0.8234652926,
				"z": -3.4566747098,
				"element": "C" 
			},
			{
				"x": -4.2150592516,
				"y": 2.0033497976,
				"z": -4.0136132972,
				"element": "C" 
			},
			{
				"x": -3.1583107102,
				"y": 3.3350254013,
				"z": -3.5424398066,
				"element": "S" 
			},
			{
				"x": -2.2232303957,
				"y": 2.2237556425,
				"z": -2.5605138199,
				"element": "C" 
			},
			{
				"x": -1.1731005229,
				"y": 2.3065259688,
				"z": -1.7861337324,
				"element": "N" 
			},
			{
				"x": 1.5522328672,
				"y": -1.8921679112,
				"z": 1.3120193557,
				"element": "H" 
			},
			{
				"x": -0.3325389478,
				"y": -1.4157295879,
				"z": -0.2321975958,
				"element": "H" 
			},
			{
				"x": 0.8296037385,
				"y": 2.7227211761,
				"z": -0.3723055785,
				"element": "H" 
			},
			{
				"x": 2.7294218634,
				"y": 2.2243998022,
				"z": 1.1887513854,
				"element": "H" 
			},
			{
				"x": -2.126117981,
				"y": -0.9024318511,
				"z": -1.715512764,
				"element": "H" 
			},
			{
				"x": -4.3467588546,
				"y": -0.1346272353,
				"z": -3.5857672936,
				"element": "H" 
			},
			{
				"x": -5.0424994064,
				"y": 2.1818877155,
				"z": -4.683915263,
				"element": "H" 
			}
		],
		 "valence_orbital": [ 
			{
				"type": "occ",
				"energy": -0.2945,
				"method": "rhf"
			},
			{
				"type": "occ",
				"energy": -0.28024,
				"method": "rhf"
			},
			{
				"type": "occ",
				"energy": -0.27026,
				"method": "rhf"
			},
			{
				"type": "occ",
				"energy": -0.24061,
				"method": "rhf"
			},
			{
				"type": "occ",
				"energy": -0.22713,
				"method": "rhf"
			},
			{
				"type": "unocc",
				"energy": -0.0841,
				"method": "rhf"
			},
			{
				"type": "unocc",
				"energy": -0.0332,
				"method": "rhf"
			},
			{
				"type": "unocc",
				"energy": -0.01743,
				"method": "rhf"
			},
			{
				"type": "unocc",
				"energy": -0.00574,
				"method": "rhf"
			},
			{
				"type": "unocc",
				"energy": -0.00338,
				"method": "rhf"
			}
		],
		"cosmo_sigma_profile": { 
			"-0.025": 0.0,
			"-0.024": 0.0,
			"-0.023": 0.0,
			"-0.022": 0.0,
			"-0.021": 0.0,
			"-0.02": 0.0,
			"-0.019": 0.0,
			"-0.018": 0.0,
			"-0.017": 0.0,
			"-0.016": 0.0,
			"-0.015": 0.0,
			"-0.014": 0.0,
			"-0.013": 0.0,
			"-0.012": 0.0,
			"-0.011": 1.13040334561,
			"-0.01": 7.7535812046,
			"-0.009": 7.39186126589,
			"-0.008": 6.76269062057,
			"-0.007": 8.11204360567,
			"-0.006": 10.9596985343,
			"-0.005": 11.7705516921,
			"-0.004": 10.2433991621,
			"-0.003": 10.7017431008,
			"-0.002": 15.4872669321,
			"-0.001": 19.927286405,
			"0.0": 23.6473802023,
			"0.001": 24.3419984954,
			"0.002": 33.4005459835,
			"0.003": 15.2801748933,
			"0.004": 7.580014218,
			"0.005": 4.99590706969,
			"0.006": 5.00181915832,
			"0.007": 7.23375288622,
			"0.008": 11.1485870981,
			"0.009": 6.01449366038,
			"0.01": 4.88237178237,
			"0.011": 2.3947760581,
			"0.012": 0.875538812011,
			"0.013": 0.935862628192,
			"0.014": 0.0155882884244,
			"0.015": 0.0,
			"0.016": 0.0,
			"0.017": 0.0,
			"0.018": 0.0,
			"0.019": 0.0,
			"0.02": 0.0,
			"0.021": 0.0,
			"0.022": 0.0,
			"0.023": 0.0,
			"0.024": 0.0,
			"0.025": 0.0
		}
	}
}
