{
	 "smiles": "FC(Cl)(Cl)CCl", 
	 "Tm": 133.15, 
	 "num_atms": 8, 
	 "gaussian": { 
		 "optdone": 1, 
		 "sigma_profile": "yes", 
		 "theory": "DFT", 
		 "functional": "B3LYP", 
		 "basiset": "6-31G**", 
		 "properties": { 
			 "R2extent": 3666.1721, 
			 "electric_dipole_moment_norm": 1.69742700579, 
			 "electric_quadrupole_moment_norm": 6.4283251699, 
			 "total_energy": -1557.82197532, 
			 "HOMO_LUMO_gap": 0.28077, 
			 "cosmo_polarized_energy": -4.63, 
			 "cosmo_cavitation_energy": 17.53, 
			 "cosmo_dispersion_energy": -13.26, 
			 "cosmo_repulsion_energy": 1.13, 
			 "cosmo_total_nonelectrostatic_energy": 5.4, 
			 "SMD_solvation_energy": 2.47 
		},
		"coords": [
			{
				"x": 0.6262018419,
				"y": 0.3959911632,
				"z": -2.347698457,
				"element": "F" 
			},
			{
				"x": 1.8112386882,
				"y": -0.2138077786,
				"z": -2.5326305064,
				"element": "C" 
			},
			{
				"x": 3.1189870551,
				"y": 0.990257214,
				"z": -2.1875610769,
				"element": "Cl" 
			},
			{
				"x": 1.9151806876,
				"y": -0.7502838642,
				"z": -4.239346845,
				"element": "Cl" 
			},
			{
				"x": 1.9818268555,
				"y": -1.3649296521,
				"z": -1.5421651069,
				"element": "C" 
			},
			{
				"x": 0.6742124997,
				"y": -2.5866434301,
				"z": -1.6776700022,
				"element": "Cl" 
			},
			{
				"x": 2.9372928017,
				"y": -1.8597402855,
				"z": -1.7074200783,
				"element": "H" 
			},
			{
				"x": 1.9419595703,
				"y": -0.9492433666,
				"z": -0.5349079273,
				"element": "H" 
			}
		],
		 "valence_orbital": [ 
			{
				"type": "occ",
				"energy": -0.34746,
				"method": "rhf"
			},
			{
				"type": "occ",
				"energy": -0.33743,
				"method": "rhf"
			},
			{
				"type": "occ",
				"energy": -0.32756,
				"method": "rhf"
			},
			{
				"type": "occ",
				"energy": -0.32024,
				"method": "rhf"
			},
			{
				"type": "occ",
				"energy": -0.3174,
				"method": "rhf"
			},
			{
				"type": "unocc",
				"energy": -0.03663,
				"method": "rhf"
			},
			{
				"type": "unocc",
				"energy": -0.01508,
				"method": "rhf"
			},
			{
				"type": "unocc",
				"energy": 0.02883,
				"method": "rhf"
			},
			{
				"type": "unocc",
				"energy": 0.08634,
				"method": "rhf"
			},
			{
				"type": "unocc",
				"energy": 0.11009,
				"method": "rhf"
			}
		],
		"cosmo_sigma_profile": { 
			"-0.025": 0.0,
			"-0.024": 0.0,
			"-0.023": 0.0,
			"-0.022": 0.0,
			"-0.021": 0.0,
			"-0.02": 0.0,
			"-0.019": 0.0,
			"-0.018": 0.0,
			"-0.017": 0.0,
			"-0.016": 0.0,
			"-0.015": 0.0,
			"-0.014": 0.0,
			"-0.013": 0.0,
			"-0.012": 0.0,
			"-0.011": 0.624667943658,
			"-0.01": 4.20662026566,
			"-0.009": 3.7310641757,
			"-0.008": 4.18274229564,
			"-0.007": 3.4477022001,
			"-0.006": 3.75729095252,
			"-0.005": 2.22843122045,
			"-0.004": 4.50419552703,
			"-0.003": 5.34000571148,
			"-0.002": 7.52285715386,
			"-0.001": 8.68110760371,
			"0.0": 9.94313667845,
			"0.001": 16.8928087708,
			"0.002": 28.1049758733,
			"0.003": 24.4720573786,
			"0.004": 10.9945316823,
			"0.005": 7.58315961975,
			"0.006": 0.265581440992,
			"0.007": 0.0,
			"0.008": 0.0,
			"0.009": 0.0,
			"0.01": 0.0,
			"0.011": 0.0,
			"0.012": 0.0,
			"0.013": 0.0,
			"0.014": 0.0,
			"0.015": 0.0,
			"0.016": 0.0,
			"0.017": 0.0,
			"0.018": 0.0,
			"0.019": 0.0,
			"0.02": 0.0,
			"0.021": 0.0,
			"0.022": 0.0,
			"0.023": 0.0,
			"0.024": 0.0,
			"0.025": 0.0
		}
	}
}
