{
	 "smiles": "OC(=O)C1=CC2=C(C=C1)C(=O)N(CC1CCCO1)S2(=O)=O", 
	 "Tm": 433.15, 
	 "num_atms": 34, 
	 "gaussian": { 
		 "optdone": 1, 
		 "sigma_profile": "yes", 
		 "theory": "DFT", 
		 "functional": "B3LYP", 
		 "basiset": "6-31G**", 
		 "properties": { 
			 "R2extent": 9099.7862, 
			 "electric_dipole_moment_norm": 2.83294261679, 
			 "electric_quadrupole_moment_norm": 24.0640651753, 
			 "total_energy": -1407.4464135, 
			 "HOMO_LUMO_gap": 0.14828, 
			 "cosmo_polarized_energy": -19.66, 
			 "cosmo_cavitation_energy": 39.6, 
			 "cosmo_dispersion_energy": -28.48, 
			 "cosmo_repulsion_energy": 2.12, 
			 "cosmo_total_nonelectrostatic_energy": 13.24, 
			 "SMD_solvation_energy": 7.0 
		},
		"coords": [
			{
				"x": 0.3660015415,
				"y": 4.8664190431,
				"z": 3.6395560589,
				"element": "O" 
			},
			{
				"x": -0.3886988164,
				"y": 3.7761070874,
				"z": 3.9014343451,
				"element": "C" 
			},
			{
				"x": -1.1943229239,
				"y": 3.7321402089,
				"z": 4.807230408,
				"element": "O" 
			},
			{
				"x": -0.118931553,
				"y": 2.6491180852,
				"z": 2.9592753565,
				"element": "C" 
			},
			{
				"x": 0.8265870398,
				"y": 2.7651517438,
				"z": 1.9280713679,
				"element": "C" 
			},
			{
				"x": 1.0042358499,
				"y": 1.6602354907,
				"z": 1.1107007529,
				"element": "C" 
			},
			{
				"x": 0.2868815192,
				"y": 0.477828193,
				"z": 1.2766168911,
				"element": "C" 
			},
			{
				"x": -0.6510125493,
				"y": 0.3664432132,
				"z": 2.2997430078,
				"element": "C" 
			},
			{
				"x": -0.8471565355,
				"y": 1.461479009,
				"z": 3.1395791203,
				"element": "C" 
			},
			{
				"x": 0.6363801449,
				"y": -0.5855920552,
				"z": 0.2873340421,
				"element": "C" 
			},
			{
				"x": 0.1669704905,
				"y": -1.7090504789,
				"z": 0.2508385297,
				"element": "O" 
			},
			{
				"x": 1.5963799383,
				"y": -0.0970574636,
				"z": -0.5906673846,
				"element": "N" 
			},
			{
				"x": 2.2694110198,
				"y": -0.9215161468,
				"z": -1.6003108107,
				"element": "C" 
			},
			{
				"x": 1.7646048172,
				"y": -0.667402674,
				"z": -3.0277004805,
				"element": "C" 
			},
			{
				"x": 0.2833417109,
				"y": -1.0173911515,
				"z": -3.2638811399,
				"element": "C" 
			},
			{
				"x": 0.3077106797,
				"y": -1.6055122973,
				"z": -4.683302052,
				"element": "C" 
			},
			{
				"x": 1.6580880656,
				"y": -2.32444962,
				"z": -4.6914502657,
				"element": "C" 
			},
			{
				"x": 2.5314891964,
				"y": -1.5132818792,
				"z": -3.8968334956,
				"element": "O" 
			},
			{
				"x": 2.1206926237,
				"y": 1.5171131382,
				"z": -0.2775855084,
				"element": "S" 
			},
			{
				"x": 1.7120924146,
				"y": 2.3937006222,
				"z": -1.3751771405,
				"element": "O" 
			},
			{
				"x": 3.5219364056,
				"y": 1.4934260662,
				"z": 0.140142252,
				"element": "O" 
			},
			{
				"x": 0.1199739253,
				"y": 5.5363400104,
				"z": 4.2987923629,
				"element": "H" 
			},
			{
				"x": 1.3870617872,
				"y": 3.6818443824,
				"z": 1.7893255113,
				"element": "H" 
			},
			{
				"x": -1.2040693106,
				"y": -0.5582789697,
				"z": 2.4240921495,
				"element": "H" 
			},
			{
				"x": -1.5656047134,
				"y": 1.4234091617,
				"z": 3.9510794707,
				"element": "H" 
			},
			{
				"x": 3.3453844014,
				"y": -0.7317505053,
				"z": -1.5418398146,
				"element": "H" 
			},
			{
				"x": 2.0863705123,
				"y": -1.9614330011,
				"z": -1.3183262529,
				"element": "H" 
			},
			{
				"x": 1.962362504,
				"y": 0.3786846821,
				"z": -3.2982517631,
				"element": "H" 
			},
			{
				"x": -0.0511705609,
				"y": -1.7689310855,
				"z": -2.5401062791,
				"element": "H" 
			},
			{
				"x": -0.367637038,
				"y": -0.1449857961,
				"z": -3.1676755454,
				"element": "H" 
			},
			{
				"x": 0.2996858463,
				"y": -0.8057053339,
				"z": -5.4319591893,
				"element": "H" 
			},
			{
				"x": -0.5336740995,
				"y": -2.2733046889,
				"z": -4.8886737824,
				"element": "H" 
			},
			{
				"x": 2.0998363093,
				"y": -2.4229903962,
				"z": -5.6882250681,
				"element": "H" 
			},
			{
				"x": 1.5719993572,
				"y": -3.3311065941,
				"z": -4.2539456541,
				"element": "H" 
			}
		],
		 "valence_orbital": [ 
			{
				"type": "occ",
				"energy": -0.30114,
				"method": "rhf"
			},
			{
				"type": "occ",
				"energy": -0.29569,
				"method": "rhf"
			},
			{
				"type": "occ",
				"energy": -0.29114,
				"method": "rhf"
			},
			{
				"type": "occ",
				"energy": -0.28376,
				"method": "rhf"
			},
			{
				"type": "occ",
				"energy": -0.24799,
				"method": "rhf"
			},
			{
				"type": "unocc",
				"energy": -0.09971,
				"method": "rhf"
			},
			{
				"type": "unocc",
				"energy": -0.06074,
				"method": "rhf"
			},
			{
				"type": "unocc",
				"energy": -0.01608,
				"method": "rhf"
			},
			{
				"type": "unocc",
				"energy": 0.02771,
				"method": "rhf"
			},
			{
				"type": "unocc",
				"energy": 0.03382,
				"method": "rhf"
			}
		],
		"cosmo_sigma_profile": { 
			"-0.025": 0.0,
			"-0.024": 0.0,
			"-0.023": 0.0,
			"-0.022": 0.0,
			"-0.021": 0.0,
			"-0.02": 0.0,
			"-0.019": 0.570081439412,
			"-0.018": 0.968605043461,
			"-0.017": 1.09117463419,
			"-0.016": 0.819321812731,
			"-0.015": 0.779200812352,
			"-0.014": 0.545380864132,
			"-0.013": 0.781849190741,
			"-0.012": 0.651277836819,
			"-0.011": 1.58951615766,
			"-0.01": 1.87020917542,
			"-0.009": 2.68731101113,
			"-0.008": 5.78843311665,
			"-0.007": 7.33488666925,
			"-0.006": 9.72086061752,
			"-0.005": 12.760234694,
			"-0.004": 27.6588265431,
			"-0.003": 39.7452931128,
			"-0.002": 41.1633650875,
			"-0.001": 30.3401299345,
			"0.0": 19.0518206101,
			"0.001": 10.5286885034,
			"0.002": 8.04550136407,
			"0.003": 7.67041840425,
			"0.004": 8.78229144239,
			"0.005": 8.32064361639,
			"0.006": 7.76331135519,
			"0.007": 6.06797335813,
			"0.008": 10.2650798763,
			"0.009": 16.939262266,
			"0.01": 11.6381005674,
			"0.011": 9.13779278245,
			"0.012": 1.8082536771,
			"0.013": 1.43591585609,
			"0.014": 0.629082734422,
			"0.015": 0.0,
			"0.016": 0.0,
			"0.017": 0.0,
			"0.018": 0.0,
			"0.019": 0.0,
			"0.02": 0.0,
			"0.021": 0.0,
			"0.022": 0.0,
			"0.023": 0.0,
			"0.024": 0.0,
			"0.025": 0.0
		}
	}
}
