{
	 "smiles": "C1CC=C/CC=C/C1", 
	 "Tm": 220.15, 
	 "num_atms": 20, 
	 "gaussian": { 
		 "optdone": 1, 
		 "sigma_profile": "yes", 
		 "theory": "DFT", 
		 "functional": "B3LYP", 
		 "basiset": "6-31G**", 
		 "properties": { 
			 "R2extent": 1037.1689, 
			 "electric_dipole_moment_norm": 0.539508906321, 
			 "electric_quadrupole_moment_norm": 2.62846934736, 
			 "total_energy": -312.038881791, 
			 "HOMO_LUMO_gap": 0.24068, 
			 "cosmo_polarized_energy": -2.57, 
			 "cosmo_cavitation_energy": 20.79, 
			 "cosmo_dispersion_energy": -15.95, 
			 "cosmo_repulsion_energy": 1.33, 
			 "cosmo_total_nonelectrostatic_energy": 6.17, 
			 "SMD_solvation_energy": 3.04 
		},
		"coords": [
			{
				"x": -0.1755096885,
				"y": 0.6183277901,
				"z": 1.3966197221,
				"element": "C" 
			},
			{
				"x": 1.3331199117,
				"y": 0.604303778,
				"z": 1.0906903592,
				"element": "C" 
			},
			{
				"x": 1.8585425916,
				"y": 0.011019949,
				"z": -0.1943069923,
				"element": "C" 
			},
			{
				"x": 1.2241032048,
				"y": -0.5147610853,
				"z": -1.2463962018,
				"element": "C" 
			},
			{
				"x": -0.2718390007,
				"y": -0.7065780288,
				"z": -1.4335896457,
				"element": "C" 
			},
			{
				"x": -0.8582796505,
				"y": -1.8102916504,
				"z": -0.5689596509,
				"element": "C" 
			},
			{
				"x": -1.0529493535,
				"y": -1.8009098425,
				"z": 0.7530937354,
				"element": "C" 
			},
			{
				"x": -0.8086665093,
				"y": -0.7291439514,
				"z": 1.787887047,
				"element": "C" 
			},
			{
				"x": -0.7337240009,
				"y": 1.0895024185,
				"z": 0.5829680465,
				"element": "H" 
			},
			{
				"x": -0.3093189604,
				"y": 1.2841393199,
				"z": 2.2587782073,
				"element": "H" 
			},
			{
				"x": 1.6943019206,
				"y": 1.6437230178,
				"z": 1.1330726954,
				"element": "H" 
			},
			{
				"x": 1.8490290145,
				"y": 0.1038495388,
				"z": 1.9251497694,
				"element": "H" 
			},
			{
				"x": 2.9476687228,
				"y": 0.0417905691,
				"z": -0.2536460769,
				"element": "H" 
			},
			{
				"x": 1.8458805071,
				"y": -0.8804286959,
				"z": -2.062286651,
				"element": "H" 
			},
			{
				"x": -0.4588877402,
				"y": -0.9546546829,
				"z": -2.4829265831,
				"element": "H" 
			},
			{
				"x": -0.8004897598,
				"y": 0.2347861116,
				"z": -1.2582984565,
				"element": "H" 
			},
			{
				"x": -1.1207203666,
				"y": -2.7256557917,
				"z": -1.09737744,
				"element": "H" 
			},
			{
				"x": -1.4744344005,
				"y": -2.7099405159,
				"z": 1.1851568246,
				"element": "H" 
			},
			{
				"x": -1.7789955422,
				"y": -0.5187464041,
				"z": 2.2641564303,
				"element": "H" 
			},
			{
				"x": -0.2024309,
				"y": -1.1737318439,
				"z": 2.5927148609,
				"element": "H" 
			}
		],
		 "valence_orbital": [ 
			{
				"type": "occ",
				"energy": -0.32531,
				"method": "rhf"
			},
			{
				"type": "occ",
				"energy": -0.31598,
				"method": "rhf"
			},
			{
				"type": "occ",
				"energy": -0.31061,
				"method": "rhf"
			},
			{
				"type": "occ",
				"energy": -0.24128,
				"method": "rhf"
			},
			{
				"type": "occ",
				"energy": -0.22494,
				"method": "rhf"
			},
			{
				"type": "unocc",
				"energy": 0.01574,
				"method": "rhf"
			},
			{
				"type": "unocc",
				"energy": 0.05111,
				"method": "rhf"
			},
			{
				"type": "unocc",
				"energy": 0.08063,
				"method": "rhf"
			},
			{
				"type": "unocc",
				"energy": 0.11206,
				"method": "rhf"
			},
			{
				"type": "unocc",
				"energy": 0.12377,
				"method": "rhf"
			}
		],
		"cosmo_sigma_profile": { 
			"-0.025": 0.0,
			"-0.024": 0.0,
			"-0.023": 0.0,
			"-0.022": 0.0,
			"-0.021": 0.0,
			"-0.02": 0.0,
			"-0.019": 0.0,
			"-0.018": 0.0,
			"-0.017": 0.0,
			"-0.016": 0.0,
			"-0.015": 0.0,
			"-0.014": 0.0,
			"-0.013": 0.0,
			"-0.012": 0.0,
			"-0.011": 0.0,
			"-0.01": 0.0,
			"-0.009": 0.0,
			"-0.008": 0.0,
			"-0.007": 0.0,
			"-0.006": 0.0,
			"-0.005": 0.696652077713,
			"-0.004": 7.10503677026,
			"-0.003": 21.5080563877,
			"-0.002": 30.5115848578,
			"-0.001": 30.5647420361,
			"0.0": 21.8864210349,
			"0.001": 12.712022437,
			"0.002": 7.0272515416,
			"0.003": 6.39357087606,
			"0.004": 5.53745594483,
			"0.005": 4.8722846055,
			"0.006": 4.31912634731,
			"0.007": 3.84536451418,
			"0.008": 2.75034978697,
			"0.009": 1.29244658569,
			"0.01": 0.79576773876,
			"0.011": 0.0661343126201,
			"0.012": 0.0,
			"0.013": 0.0,
			"0.014": 0.0,
			"0.015": 0.0,
			"0.016": 0.0,
			"0.017": 0.0,
			"0.018": 0.0,
			"0.019": 0.0,
			"0.02": 0.0,
			"0.021": 0.0,
			"0.022": 0.0,
			"0.023": 0.0,
			"0.024": 0.0,
			"0.025": 0.0
		}
	}
}
