{
	 "smiles": "OC(=O)CCCCCN1C(=O)CSC1=S", 
	 "Tm": 359.15, 
	 "num_atms": 28, 
	 "gaussian": { 
		 "optdone": 1, 
		 "sigma_profile": "yes", 
		 "theory": "DFT", 
		 "functional": "B3LYP", 
		 "basiset": "6-31G**", 
		 "properties": { 
			 "R2extent": 5884.417, 
			 "electric_dipole_moment_norm": 3.54036652057, 
			 "electric_quadrupole_moment_norm": 25.909901308, 
			 "total_energy": -1427.62463204, 
			 "HOMO_LUMO_gap": 0.16373, 
			 "cosmo_polarized_energy": -22.54, 
			 "cosmo_cavitation_energy": 34.21, 
			 "cosmo_dispersion_energy": -24.81, 
			 "cosmo_repulsion_energy": 1.88, 
			 "cosmo_total_nonelectrostatic_energy": 11.28, 
			 "SMD_solvation_energy": 5.87 
		},
		"coords": [
			{
				"x": -0.3729276774,
				"y": -4.8560203304,
				"z": -1.3964244463,
				"element": "O" 
			},
			{
				"x": -0.5493235404,
				"y": -3.7368326753,
				"z": -0.6401358032,
				"element": "C" 
			},
			{
				"x": -1.6282370958,
				"y": -3.508068775,
				"z": -0.1530967637,
				"element": "O" 
			},
			{
				"x": 0.6926409541,
				"y": -2.8677535305,
				"z": -0.4678584316,
				"element": "C" 
			},
			{
				"x": 0.4310366567,
				"y": -1.5618102297,
				"z": 0.2928960481,
				"element": "C" 
			},
			{
				"x": -0.4212407501,
				"y": -0.528051081,
				"z": -0.4648607967,
				"element": "C" 
			},
			{
				"x": 0.2187128098,
				"y": 0.0849169624,
				"z": -1.7213947227,
				"element": "C" 
			},
			{
				"x": 1.3985231891,
				"y": 1.0408874002,
				"z": -1.4830522672,
				"element": "C" 
			},
			{
				"x": 1.0129504764,
				"y": 2.2753061969,
				"z": -0.7703952292,
				"element": "N" 
			},
			{
				"x": 0.2918903698,
				"y": 3.2526858738,
				"z": -1.4670656001,
				"element": "C" 
			},
			{
				"x": -0.0312790815,
				"y": 3.147705085,
				"z": -2.6309257895,
				"element": "O" 
			},
			{
				"x": -0.0262332544,
				"y": 4.4522081779,
				"z": -0.5866278748,
				"element": "C" 
			},
			{
				"x": 0.7620666321,
				"y": 4.1429836219,
				"z": 1.0300328247,
				"element": "S" 
			},
			{
				"x": 1.3929418512,
				"y": 2.5654762953,
				"z": 0.526925746,
				"element": "C" 
			},
			{
				"x": 2.3169741095,
				"y": 1.6399958154,
				"z": 1.53020231,
				"element": "S" 
			},
			{
				"x": 0.5417808186,
				"y": -4.9068973194,
				"z": -1.7084658759,
				"element": "H" 
			},
			{
				"x": 1.1252297794,
				"y": -2.6785703738,
				"z": -1.460165142,
				"element": "H" 
			},
			{
				"x": 1.4383092163,
				"y": -3.4702304903,
				"z": 0.0698798139,
				"element": "H" 
			},
			{
				"x": -0.0841375299,
				"y": -1.8138786019,
				"z": 1.2251757389,
				"element": "H" 
			},
			{
				"x": 1.391864499,
				"y": -1.1208207859,
				"z": 0.578984887,
				"element": "H" 
			},
			{
				"x": -1.3682633378,
				"y": -0.9988885455,
				"z": -0.747176378,
				"element": "H" 
			},
			{
				"x": -0.6833598106,
				"y": 0.2771249189,
				"z": 0.2326733376,
				"element": "H" 
			},
			{
				"x": -0.5425139387,
				"y": 0.620835586,
				"z": -2.2965345651,
				"element": "H" 
			},
			{
				"x": 0.5889494352,
				"y": -0.7044834983,
				"z": -2.3887615401,
				"element": "H" 
			},
			{
				"x": 1.8111101074,
				"y": 1.3575787629,
				"z": -2.4448341472,
				"element": "H" 
			},
			{
				"x": 2.1907396829,
				"y": 0.5801005422,
				"z": -0.891814551,
				"element": "H" 
			},
			{
				"x": -1.1103929211,
				"y": 4.5513933331,
				"z": -0.4881408024,
				"element": "H" 
			},
			{
				"x": 0.3653883502,
				"y": 5.3585076651,
				"z": -1.0544399796,
				"element": "H" 
			}
		],
		 "valence_orbital": [ 
			{
				"type": "occ",
				"energy": -0.2953,
				"method": "rhf"
			},
			{
				"type": "occ",
				"energy": -0.28046,
				"method": "rhf"
			},
			{
				"type": "occ",
				"energy": -0.27206,
				"method": "rhf"
			},
			{
				"type": "occ",
				"energy": -0.25208,
				"method": "rhf"
			},
			{
				"type": "occ",
				"energy": -0.23784,
				"method": "rhf"
			},
			{
				"type": "unocc",
				"energy": -0.07411,
				"method": "rhf"
			},
			{
				"type": "unocc",
				"energy": -0.0071,
				"method": "rhf"
			},
			{
				"type": "unocc",
				"energy": -0.00417,
				"method": "rhf"
			},
			{
				"type": "unocc",
				"energy": 0.00815,
				"method": "rhf"
			},
			{
				"type": "unocc",
				"energy": 0.04436,
				"method": "rhf"
			}
		],
		"cosmo_sigma_profile": { 
			"-0.025": 0.0,
			"-0.024": 0.0,
			"-0.023": 0.0,
			"-0.022": 0.0,
			"-0.021": 0.0,
			"-0.02": 0.0,
			"-0.019": 0.366990092185,
			"-0.018": 0.991665783922,
			"-0.017": 1.00231993511,
			"-0.016": 0.789484985099,
			"-0.015": 1.15770897939,
			"-0.014": 1.28836863137,
			"-0.013": 1.22108252583,
			"-0.012": 1.08590952177,
			"-0.011": 1.31916262046,
			"-0.01": 4.16213043445,
			"-0.009": 6.89133392912,
			"-0.008": 8.56260300812,
			"-0.007": 9.93927558314,
			"-0.006": 12.8795102735,
			"-0.005": 15.3551214578,
			"-0.004": 16.3602347622,
			"-0.003": 16.3587330906,
			"-0.002": 19.7252933974,
			"-0.001": 15.9831427446,
			"0.0": 15.1312783519,
			"0.001": 16.2038784627,
			"0.002": 12.229811153,
			"0.003": 15.8464279239,
			"0.004": 12.5920081803,
			"0.005": 10.9083378253,
			"0.006": 11.0338364491,
			"0.007": 6.95806657064,
			"0.008": 6.83585649456,
			"0.009": 6.92128131161,
			"0.01": 7.30484324607,
			"0.011": 8.95500267171,
			"0.012": 5.74781741728,
			"0.013": 2.23547307712,
			"0.014": 0.158965120886,
			"0.015": 0.0,
			"0.016": 0.0,
			"0.017": 0.0,
			"0.018": 0.0,
			"0.019": 0.0,
			"0.02": 0.0,
			"0.021": 0.0,
			"0.022": 0.0,
			"0.023": 0.0,
			"0.024": 0.0,
			"0.0": 0.0
		}
	}
}
