{
	 "smiles": "ClC1=CC=C(C=C1)C(=O)NCC1=CC=C(S1)S(Cl)(=O)=O", 
	 "Tm": 412.15, 
	 "num_atms": 29, 
	 "gaussian": { 
		 "optdone": 1, 
		 "sigma_profile": "yes", 
		 "theory": "DFT", 
		 "functional": "B3LYP", 
		 "basiset": "6-31G**", 
		 "properties": { 
			 "R2extent": 14198.6424, 
			 "electric_dipole_moment_norm": 5.18206027078, 
			 "electric_quadrupole_moment_norm": 31.6658575182, 
			 "total_energy": -2459.81357312, 
			 "HOMO_LUMO_gap": 0.1681, 
			 "cosmo_polarized_energy": -18.26, 
			 "cosmo_cavitation_energy": 41.72, 
			 "cosmo_dispersion_energy": -30.73, 
			 "cosmo_repulsion_energy": 2.28, 
			 "cosmo_total_nonelectrostatic_energy": 13.27, 
			 "SMD_solvation_energy": 4.77 
		},
		"coords": [
			{
				"x": 4.1249417211,
				"y": -5.1916288747,
				"z": -1.9515377739,
				"element": "Cl" 
			},
			{
				"x": 3.3990935604,
				"y": -3.7537441744,
				"z": -1.2593892036,
				"element": "C" 
			},
			{
				"x": 2.5682422606,
				"y": -3.8730132321,
				"z": -0.1435199053,
				"element": "C" 
			},
			{
				"x": 1.9975534611,
				"y": -2.7265286302,
				"z": 0.4001051286,
				"element": "C" 
			},
			{
				"x": 2.2373703516,
				"y": -1.4673322094,
				"z": -0.1662107404,
				"element": "C" 
			},
			{
				"x": 3.0866070267,
				"y": -1.3701882534,
				"z": -1.2775284926,
				"element": "C" 
			},
			{
				"x": 3.6701006665,
				"y": -2.5092391248,
				"z": -1.8290087956,
				"element": "C" 
			},
			{
				"x": 1.5802692072,
				"y": -0.2855845575,
				"z": 0.4814974519,
				"element": "C" 
			},
			{
				"x": 1.1577980577,
				"y": -0.3294414525,
				"z": 1.6348816684,
				"element": "O" 
			},
			{
				"x": 1.4871261572,
				"y": 0.8563638333,
				"z": -0.279240837,
				"element": "N" 
			},
			{
				"x": 0.8076827327,
				"y": 2.033768969,
				"z": 0.2510927606,
				"element": "C" 
			},
			{
				"x": -0.6963484576,
				"y": 1.9921846453,
				"z": 0.1059714111,
				"element": "C" 
			},
			{
				"x": -1.588389703,
				"y": 1.2649298038,
				"z": 0.8624695077,
				"element": "C" 
			},
			{
				"x": -2.93060475,
				"y": 1.403280307,
				"z": 0.4268508768,
				"element": "C" 
			},
			{
				"x": -3.0308494994,
				"y": 2.2290228399,
				"z": -0.668051462,
				"element": "C" 
			},
			{
				"x": -1.4931710625,
				"y": 2.8617818065,
				"z": -1.1737084963,
				"element": "S" 
			},
			{
				"x": -4.5254386352,
				"y": 2.6595273089,
				"z": -1.4766450446,
				"element": "S" 
			},
			{
				"x": -5.1019461257,
				"y": 4.4433900498,
				"z": -0.4571150818,
				"element": "Cl" 
			},
			{
				"x": -5.5390903299,
				"y": 1.6675498485,
				"z": -1.1460254968,
				"element": "O" 
			},
			{
				"x": -4.2264490254,
				"y": 3.0650161136,
				"z": -2.8438883132,
				"element": "O" 
			},
			{
				"x": 2.3766172996,
				"y": -4.8485973351,
				"z": 0.288962186,
				"element": "H" 
			},
			{
				"x": 1.3579559701,
				"y": -2.786322602,
				"z": 1.2738955161,
				"element": "H" 
			},
			{
				"x": 3.3325964342,
				"y": -0.4020736206,
				"z": -1.7036903928,
				"element": "H" 
			},
			{
				"x": 4.334074451,
				"y": -2.4349872296,
				"z": -2.6827984298,
				"element": "H" 
			},
			{
				"x": 1.5724363043,
				"y": 0.7746433357,
				"z": -1.2818538752,
				"element": "H" 
			},
			{
				"x": 1.0523182558,
				"y": 2.0878924842,
				"z": 1.3140626726,
				"element": "H" 
			},
			{
				"x": 1.2206616588,
				"y": 2.9205576522,
				"z": -0.237906866,
				"element": "H" 
			},
			{
				"x": -1.2664421588,
				"y": 0.6418634202,
				"z": 1.688064201,
				"element": "H" 
			},
			{
				"x": -3.787715829,
				"y": 0.9236088783,
				"z": 0.8835658261,
				"element": "H" 
			}
		],
		 "valence_orbital": [ 
			{
				"type": "occ",
				"energy": -0.28926,
				"method": "rhf"
			},
			{
				"type": "occ",
				"energy": -0.28453,
				"method": "rhf"
			},
			{
				"type": "occ",
				"energy": -0.27432,
				"method": "rhf"
			},
			{
				"type": "occ",
				"energy": -0.27013,
				"method": "rhf"
			},
			{
				"type": "occ",
				"energy": -0.26384,
				"method": "rhf"
			},
			{
				"type": "unocc",
				"energy": -0.09574,
				"method": "rhf"
			},
			{
				"type": "unocc",
				"energy": -0.06194,
				"method": "rhf"
			},
			{
				"type": "unocc",
				"energy": -0.05105,
				"method": "rhf"
			},
			{
				"type": "unocc",
				"energy": -0.03376,
				"method": "rhf"
			},
			{
				"type": "unocc",
				"energy": -0.01313,
				"method": "rhf"
			}
		],
		"cosmo_sigma_profile": { 
			"-0.025": 0.0,
			"-0.024": 0.0,
			"-0.023": 0.0,
			"-0.022": 0.0,
			"-0.021": 0.0,
			"-0.02": 0.0,
			"-0.019": 0.0,
			"-0.018": 0.0,
			"-0.017": 0.0,
			"-0.016": 0.0,
			"-0.015": 0.593333375,
			"-0.014": 1.42552498824,
			"-0.013": 1.58837742272,
			"-0.012": 1.79905645498,
			"-0.011": 1.66794892544,
			"-0.01": 3.01184111053,
			"-0.009": 4.38296141846,
			"-0.008": 7.99894823303,
			"-0.007": 11.1348778359,
			"-0.006": 14.8101458559,
			"-0.005": 16.0588626503,
			"-0.004": 14.924547218,
			"-0.003": 15.7346647825,
			"-0.002": 18.8999615895,
			"-0.001": 26.1678264689,
			"0.0": 34.7403630703,
			"0.001": 36.2681399489,
			"0.002": 34.275314916,
			"0.003": 30.1700402086,
			"0.004": 21.746183313,
			"0.005": 7.59784558247,
			"0.006": 4.9271800214,
			"0.007": 8.31679645187,
			"0.008": 11.904815575,
			"0.009": 4.49643587053,
			"0.01": 1.43267822324,
			"0.011": 1.43206317589,
			"0.012": 2.05537694247,
			"0.013": 2.50605038457,
			"0.014": 0.426681800196,
			"0.015": 0.0,
			"0.016": 0.0,
			"0.017": 0.0,
			"0.018": 0.0,
			"0.019": 0.0,
			"0.02": 0.0,
			"0.021": 0.0,
			"0.022": 0.0,
			"0.023": 0.0,
			"0.024": 0.0,
			"0.025": 0.0
		}
	}
}
