{
	 "smiles": "CC1=CC=C(OCC2=NC(=CS2)C(O)=O)C=C1", 
	 "Tm": 472.15, 
	 "num_atms": 28, 
	 "gaussian": { 
		 "optdone": 1, 
		 "sigma_profile": "yes", 
		 "theory": "DFT", 
		 "functional": "B3LYP", 
		 "basiset": "6-31G**", 
		 "properties": { 
			 "R2extent": 8340.133, 
			 "electric_dipole_moment_norm": 2.42414520398, 
			 "electric_quadrupole_moment_norm": 22.901582094, 
			 "total_energy": -1142.51524815, 
			 "HOMO_LUMO_gap": 0.17165, 
			 "cosmo_polarized_energy": -15.19, 
			 "cosmo_cavitation_energy": 35.22, 
			 "cosmo_dispersion_energy": -26.11, 
			 "cosmo_repulsion_energy": 1.99, 
			 "cosmo_total_nonelectrostatic_energy": 11.1, 
			 "SMD_solvation_energy": 5.84 
		},
		"coords": [
			{
				"x": 5.3792300716,
				"y": 1.6623864201,
				"z": -1.5738974157,
				"element": "C" 
			},
			{
				"x": 3.9284488599,
				"y": 1.2742527482,
				"z": -1.4091569513,
				"element": "C" 
			},
			{
				"x": 2.8999034916,
				"y": 2.1436173464,
				"z": -1.811547775,
				"element": "C" 
			},
			{
				"x": 1.5621740139,
				"y": 1.8009802095,
				"z": -1.6668897237,
				"element": "C" 
			},
			{
				"x": 1.2146574442,
				"y": 0.5636154983,
				"z": -1.1086049786,
				"element": "C" 
			},
			{
				"x": -0.1322467577,
				"y": 0.3138059129,
				"z": -1.0058975031,
				"element": "O" 
			},
			{
				"x": -0.549085191,
				"y": -0.9197962619,
				"z": -0.4531776057,
				"element": "C" 
			},
			{
				"x": -2.0515840292,
				"y": -0.9416113567,
				"z": -0.459103737,
				"element": "C" 
			},
			{
				"x": -2.7543888961,
				"y": -1.931378223,
				"z": -0.008399302,
				"element": "N" 
			},
			{
				"x": -4.1027189995,
				"y": -1.6772727613,
				"z": -0.1426482888,
				"element": "C" 
			},
			{
				"x": -4.4230102854,
				"y": -0.4684244346,
				"z": -0.7072707084,
				"element": "C" 
			},
			{
				"x": -2.9912150389,
				"y": 0.4087283945,
				"z": -1.0967442102,
				"element": "S" 
			},
			{
				"x": -5.0823231231,
				"y": -2.6908334955,
				"z": 0.3160067468,
				"element": "C" 
			},
			{
				"x": -6.3614034138,
				"y": -2.2768606308,
				"z": 0.1087506007,
				"element": "O" 
			},
			{
				"x": -4.8109846702,
				"y": -3.7595186022,
				"z": 0.8150684567,
				"element": "O" 
			},
			{
				"x": 2.2157901685,
				"y": -0.3190043996,
				"z": -0.7002505554,
				"element": "C" 
			},
			{
				"x": 3.55787207,
				"y": 0.047626203,
				"z": -0.8558114596,
				"element": "C" 
			},
			{
				"x": 5.6148562109,
				"y": 2.5798758249,
				"z": -1.0219667618,
				"element": "H" 
			},
			{
				"x": 5.6286493941,
				"y": 1.8478445225,
				"z": -2.6252673868,
				"element": "H" 
			},
			{
				"x": 6.0456866302,
				"y": 0.8758574829,
				"z": -1.2091017066,
				"element": "H" 
			},
			{
				"x": 3.1534626683,
				"y": 3.1074529979,
				"z": -2.2465803661,
				"element": "H" 
			},
			{
				"x": 0.7698099226,
				"y": 2.4739145995,
				"z": -1.9783614133,
				"element": "H" 
			},
			{
				"x": -0.1708437119,
				"y": -1.7684312219,
				"z": -1.0408817883,
				"element": "H" 
			},
			{
				"x": -0.1883462734,
				"y": -1.0378618307,
				"z": 0.5785162686,
				"element": "H" 
			},
			{
				"x": -5.4083074161,
				"y": -0.0721088948,
				"z": -0.9024631953,
				"element": "H" 
			},
			{
				"x": -6.9257353658,
				"y": -2.9962462736,
				"z": 0.4358776348,
				"element": "H" 
			},
			{
				"x": 1.9757219909,
				"y": -1.2821156869,
				"z": -0.2650517904,
				"element": "H" 
			},
			{
				"x": 4.3287302354,
				"y": -0.648094087,
				"z": -0.5340450845,
				"element": "H" 
			}
		],
		 "valence_orbital": [ 
			{
				"type": "occ",
				"energy": -0.28705,
				"method": "rhf"
			},
			{
				"type": "occ",
				"energy": -0.27563,
				"method": "rhf"
			},
			{
				"type": "occ",
				"energy": -0.25807,
				"method": "rhf"
			},
			{
				"type": "occ",
				"energy": -0.25371,
				"method": "rhf"
			},
			{
				"type": "occ",
				"energy": -0.22154,
				"method": "rhf"
			},
			{
				"type": "unocc",
				"energy": -0.04989,
				"method": "rhf"
			},
			{
				"type": "unocc",
				"energy": -0.01495,
				"method": "rhf"
			},
			{
				"type": "unocc",
				"energy": -0.00466,
				"method": "rhf"
			},
			{
				"type": "unocc",
				"energy": 0.00905,
				"method": "rhf"
			},
			{
				"type": "unocc",
				"energy": 0.01579,
				"method": "rhf"
			}
		],
		"cosmo_sigma_profile": { 
			"-0.025": 0.0,
			"-0.024": 0.0,
			"-0.023": 0.0,
			"-0.022": 0.0,
			"-0.021": 0.0,
			"-0.02": 0.0,
			"-0.019": 0.128997646256,
			"-0.018": 0.907482954432,
			"-0.017": 1.28844665095,
			"-0.016": 0.263370758594,
			"-0.015": 0.742153091733,
			"-0.014": 0.562358216573,
			"-0.013": 1.29736908043,
			"-0.012": 0.69618435866,
			"-0.011": 0.529296768688,
			"-0.01": 2.11542447632,
			"-0.009": 2.0759472698,
			"-0.008": 4.8836163955,
			"-0.007": 9.44317979152,
			"-0.006": 10.6141060474,
			"-0.005": 13.9009201538,
			"-0.004": 17.3535213138,
			"-0.003": 20.7764023269,
			"-0.002": 22.5626161729,
			"-0.001": 23.5102289281,
			"0.0": 28.2276739359,
			"0.001": 23.2904694032,
			"0.002": 17.8028679958,
			"0.003": 14.8742157673,
			"0.004": 14.5885350784,
			"0.005": 13.3502026043,
			"0.006": 11.81360029,
			"0.007": 3.89664192284,
			"0.008": 2.40277675274,
			"0.009": 2.15271710122,
			"0.01": 3.00263719646,
			"0.011": 5.04175723891,
			"0.012": 4.39825796048,
			"0.013": 2.07720520363,
			"0.014": 1.7704144024,
			"0.015": 1.07481734667,
			"0.016": 0.0532115763952,
			"0.017": 0.0,
			"0.018": 0.0,
			"0.019": 0.0,
			"0.02": 0.0,
			"0.021": 0.0,
			"0.022": 0.0,
			"0.023": 0.0,
			"0.024": 0.0,
			"0.025": 0.0
		}
	}
}
