{
	 "smiles": "CC(C)(C)C1=CC(=O)C=C(C1=O)C(C)(C)C", 
	 "Tm": 339.65, 
	 "num_atms": 36, 
	 "gaussian": { 
		 "optdone": 1, 
		 "sigma_profile": "yes", 
		 "theory": "DFT", 
		 "functional": "B3LYP", 
		 "basiset": "6-31G**", 
		 "properties": { 
			 "R2extent": 4379.5141, 
			 "electric_dipole_moment_norm": 1.43025292169, 
			 "electric_quadrupole_moment_norm": 19.179482151, 
			 "total_energy": -695.982252704, 
			 "HOMO_LUMO_gap": 0.1363, 
			 "cosmo_polarized_energy": -7.32, 
			 "cosmo_cavitation_energy": 35.87, 
			 "cosmo_dispersion_energy": -24.73, 
			 "cosmo_repulsion_energy": 1.9, 
			 "cosmo_total_nonelectrostatic_energy": 13.04, 
			 "SMD_solvation_energy": 7.47 
		},
		"coords": [
			{
				"x": -2.9723980059,
				"y": -2.2622188936,
				"z": -1.6059800398,
				"element": "C" 
			},
			{
				"x": -1.9753379654,
				"y": -1.7955639603,
				"z": -0.5268657542,
				"element": "C" 
			},
			{
				"x": -1.4612795069,
				"y": -3.052890685,
				"z": 0.2200863522,
				"element": "C" 
			},
			{
				"x": -2.7380373383,
				"y": -0.8716278877,
				"z": 0.456834123,
				"element": "C" 
			},
			{
				"x": -0.7949341289,
				"y": -1.0368810726,
				"z": -1.1526571054,
				"element": "C" 
			},
			{
				"x": -0.6803683237,
				"y": -0.8225609886,
				"z": -2.4793794314,
				"element": "C" 
			},
			{
				"x": 0.4542924566,
				"y": -0.0954966759,
				"z": -3.0799087161,
				"element": "C" 
			},
			{
				"x": 0.5223059289,
				"y": 0.0801572777,
				"z": -4.2939834084,
				"element": "O" 
			},
			{
				"x": 1.5055007795,
				"y": 0.4129172748,
				"z": -2.1781484693,
				"element": "C" 
			},
			{
				"x": 1.4697047843,
				"y": 0.2435869208,
				"z": -0.8405090086,
				"element": "C" 
			},
			{
				"x": 0.2933476147,
				"y": -0.5007609404,
				"z": -0.2501892674,
				"element": "C" 
			},
			{
				"x": 0.2222409441,
				"y": -0.671099346,
				"z": 0.9641370864,
				"element": "O" 
			},
			{
				"x": 2.5644061346,
				"y": 0.7721186665,
				"z": 0.0991058596,
				"element": "C" 
			},
			{
				"x": 3.6736561964,
				"y": 1.4957858775,
				"z": -0.6898219983,
				"element": "C" 
			},
			{
				"x": 1.9574013585,
				"y": 1.7851810021,
				"z": 1.1031894598,
				"element": "C" 
			},
			{
				"x": 3.218527128,
				"y": -0.4052692919,
				"z": 0.8664420259,
				"element": "C" 
			},
			{
				"x": -3.796187238,
				"y": -2.7983103812,
				"z": -1.1250796541,
				"element": "H" 
			},
			{
				"x": -2.5103671565,
				"y": -2.9463112738,
				"z": -2.3254719916,
				"element": "H" 
			},
			{
				"x": -3.4052039547,
				"y": -1.4215320885,
				"z": -2.1582684656,
				"element": "H" 
			},
			{
				"x": -0.9259694029,
				"y": -3.7210464275,
				"z": -0.4635159395,
				"element": "H" 
			},
			{
				"x": -2.3132219652,
				"y": -3.6071657884,
				"z": 0.6286679993,
				"element": "H" 
			},
			{
				"x": -0.796682424,
				"y": -2.7879250246,
				"z": 1.042205497,
				"element": "H" 
			},
			{
				"x": -3.1167944297,
				"y": 0.0181553647,
				"z": -0.0580485207,
				"element": "H" 
			},
			{
				"x": -2.1028432413,
				"y": -0.5537154188,
				"z": 1.2834300623,
				"element": "H" 
			},
			{
				"x": -3.5986236848,
				"y": -1.409931498,
				"z": 0.868684595,
				"element": "H" 
			},
			{
				"x": -1.4161332312,
				"y": -1.1718510378,
				"z": -3.1942859538,
				"element": "H" 
			},
			{
				"x": 2.3113481192,
				"y": 0.935070183,
				"z": -2.6805527767,
				"element": "H" 
			},
			{
				"x": 4.1718449451,
				"y": 0.8313628688,
				"z": -1.4036012728,
				"element": "H" 
			},
			{
				"x": 4.4340767421,
				"y": 1.8562835061,
				"z": 0.0095149954,
				"element": "H" 
			},
			{
				"x": 3.2911879879,
				"y": 2.3643573477,
				"z": -1.2360907364,
				"element": "H" 
			},
			{
				"x": 1.2053513225,
				"y": 1.31851118,
				"z": 1.7391375646,
				"element": "H" 
			},
			{
				"x": 2.7521081113,
				"y": 2.1845989529,
				"z": 1.7426535674,
				"element": "H" 
			},
			{
				"x": 1.4980108285,
				"y": 2.6287660835,
				"z": 0.5763080045,
				"element": "H" 
			},
			{
				"x": 2.4966326387,
				"y": -0.9241298509,
				"z": 1.4968591208,
				"element": "H" 
			},
			{
				"x": 4.0226244,
				"y": -0.022141073,
				"z": 1.5041079472,
				"element": "H" 
			},
			{
				"x": 3.6603135767,
				"y": -1.1269229017,
				"z": 0.1704942497,
				"element": "H" 
			}
		],
		 "valence_orbital": [ 
			{
				"type": "occ",
				"energy": -0.32958,
				"method": "rhf"
			},
			{
				"type": "occ",
				"energy": -0.28736,
				"method": "rhf"
			},
			{
				"type": "occ",
				"energy": -0.27711,
				"method": "rhf"
			},
			{
				"type": "occ",
				"energy": -0.26522,
				"method": "rhf"
			},
			{
				"type": "occ",
				"energy": -0.25463,
				"method": "rhf"
			},
			{
				"type": "unocc",
				"energy": -0.11833,
				"method": "rhf"
			},
			{
				"type": "unocc",
				"energy": -0.01099,
				"method": "rhf"
			},
			{
				"type": "unocc",
				"energy": 0.01415,
				"method": "rhf"
			},
			{
				"type": "unocc",
				"energy": 0.08425,
				"method": "rhf"
			},
			{
				"type": "unocc",
				"energy": 0.08999,
				"method": "rhf"
			}
		],
		"cosmo_sigma_profile": { 
			"-0.025": 0.0,
			"-0.024": 0.0,
			"-0.023": 0.0,
			"-0.022": 0.0,
			"-0.021": 0.0,
			"-0.02": 0.0,
			"-0.019": 0.0,
			"-0.018": 0.0,
			"-0.017": 0.0,
			"-0.016": 0.0,
			"-0.015": 0.0,
			"-0.014": 0.0,
			"-0.013": 0.0,
			"-0.012": 0.0,
			"-0.011": 0.0,
			"-0.01": 0.0,
			"-0.009": 0.0,
			"-0.008": 0.0,
			"-0.007": 0.175773653535,
			"-0.006": 2.91945437194,
			"-0.005": 4.84544520864,
			"-0.004": 13.0597473643,
			"-0.003": 42.5578109058,
			"-0.002": 40.1708413368,
			"-0.001": 41.0764709657,
			"0.0": 38.7483362793,
			"0.001": 45.5014450131,
			"0.002": 14.8801276104,
			"0.003": 4.18603840455,
			"0.004": 3.78289795166,
			"0.005": 3.87175009145,
			"0.006": 3.4882765619,
			"0.007": 2.62646293154,
			"0.008": 2.50304863094,
			"0.009": 2.97859021904,
			"0.01": 3.39344391605,
			"0.011": 3.80609651356,
			"0.012": 3.96503799176,
			"0.013": 1.00207116903,
			"0.014": 0.0,
			"0.015": 0.0,
			"0.016": 0.0,
			"0.017": 0.0,
			"0.018": 0.0,
			"0.019": 0.0,
			"0.02": 0.0,
			"0.021": 0.0,
			"0.022": 0.0,
			"0.023": 0.0,
			"0.024": 0.0,
			"0.025": 0.0
		}
	}
}
