{
	 "smiles": "CC(C)(C)C=CC(O)=O", 
	 "Tm": 334.15, 
	 "num_atms": 21, 
	 "gaussian": { 
		 "optdone": 1, 
		 "sigma_profile": "yes", 
		 "theory": "DFT", 
		 "functional": "B3LYP", 
		 "basiset": "6-31G**", 
		 "properties": { 
			 "R2extent": 1927.9239, 
			 "electric_dipole_moment_norm": 5.35000991214, 
			 "electric_quadrupole_moment_norm": 18.5757280813, 
			 "total_energy": -424.424938819, 
			 "HOMO_LUMO_gap": 0.22065, 
			 "cosmo_polarized_energy": -13.57, 
			 "cosmo_cavitation_energy": 24.0, 
			 "cosmo_dispersion_energy": -16.85, 
			 "cosmo_repulsion_energy": 1.4, 
			 "cosmo_total_nonelectrostatic_energy": 8.56, 
			 "SMD_solvation_energy": 5.76 
		},
		"coords": [
			{
				"x": 1.7003073898,
				"y": -0.6899211209,
				"z": -0.1088884821,
				"element": "C" 
			},
			{
				"x": 0.19930429,
				"y": -0.6586063838,
				"z": 0.2670815164,
				"element": "C" 
			},
			{
				"x": -0.030547276,
				"y": -1.5573992007,
				"z": 1.5054796582,
				"element": "C" 
			},
			{
				"x": -0.6381872342,
				"y": -1.1793475553,
				"z": -0.9119117732,
				"element": "C" 
			},
			{
				"x": -0.1540081181,
				"y": 0.7642919602,
				"z": 0.6486933954,
				"element": "C" 
			},
			{
				"x": -1.088339126,
				"y": 1.5524049706,
				"z": 0.1008049729,
				"element": "C" 
			},
			{
				"x": -1.4321222971,
				"y": 2.9244214566,
				"z": 0.5680040914,
				"element": "C" 
			},
			{
				"x": -0.4818929645,
				"y": 3.6071267333,
				"z": 1.2675116684,
				"element": "O" 
			},
			{
				"x": -2.509038942,
				"y": 3.4311992565,
				"z": 0.356483462,
				"element": "O" 
			},
			{
				"x": 2.013092815,
				"y": -1.714446053,
				"z": -0.337383042,
				"element": "H" 
			},
			{
				"x": 2.3261692393,
				"y": -0.3260663136,
				"z": 0.7136856109,
				"element": "H" 
			},
			{
				"x": 1.9010493298,
				"y": -0.0691629157,
				"z": -0.9880303273,
				"element": "H" 
			},
			{
				"x": -1.085009355,
				"y": -1.5625804546,
				"z": 1.7986023164,
				"element": "H" 
			},
			{
				"x": 0.5570021133,
				"y": -1.2131163512,
				"z": 2.3637469584,
				"element": "H" 
			},
			{
				"x": 0.2686765458,
				"y": -2.5882675591,
				"z": 1.2871968986,
				"element": "H" 
			},
			{
				"x": -0.4927917026,
				"y": -0.5689989692,
				"z": -1.8091861088,
				"element": "H" 
			},
			{
				"x": -1.7066284574,
				"y": -1.187171068,
				"z": -0.6736303104,
				"element": "H" 
			},
			{
				"x": -0.3445340192,
				"y": -2.2052828969,
				"z": -1.1557523937,
				"element": "H" 
			},
			{
				"x": 0.4285846116,
				"y": 1.1444710292,
				"z": 1.4923313546,
				"element": "H" 
			},
			{
				"x": -1.7360962926,
				"y": 1.197415796,
				"z": -0.6937019654,
				"element": "H" 
			},
			{
				"x": 0.36390945,
				"y": 3.1418356396,
				"z": 1.2081624994,
				"element": "H" 
			}
		],
		 "valence_orbital": [ 
			{
				"type": "occ",
				"energy": -0.35092,
				"method": "rhf"
			},
			{
				"type": "occ",
				"energy": -0.34343,
				"method": "rhf"
			},
			{
				"type": "occ",
				"energy": -0.31261,
				"method": "rhf"
			},
			{
				"type": "occ",
				"energy": -0.28165,
				"method": "rhf"
			},
			{
				"type": "occ",
				"energy": -0.26424,
				"method": "rhf"
			},
			{
				"type": "unocc",
				"energy": -0.04359,
				"method": "rhf"
			},
			{
				"type": "unocc",
				"energy": 0.05763,
				"method": "rhf"
			},
			{
				"type": "unocc",
				"energy": 0.07463,
				"method": "rhf"
			},
			{
				"type": "unocc",
				"energy": 0.07667,
				"method": "rhf"
			},
			{
				"type": "unocc",
				"energy": 0.10798,
				"method": "rhf"
			}
		],
		"cosmo_sigma_profile": { 
			"-0.025": 0.0,
			"-0.024": 0.0,
			"-0.023": 0.0,
			"-0.022": 0.0,
			"-0.021": 0.0,
			"-0.02": 0.0,
			"-0.019": 0.00605996278432,
			"-0.018": 0.565472265498,
			"-0.017": 1.11811430232,
			"-0.016": 0.685867286996,
			"-0.015": 0.85474552693,
			"-0.014": 0.746110111075,
			"-0.013": 0.654989260768,
			"-0.012": 1.63459618886,
			"-0.011": 1.21836428645,
			"-0.01": 0.927061477589,
			"-0.009": 1.22403111058,
			"-0.008": 1.27216493837,
			"-0.007": 1.50095500457,
			"-0.006": 3.21839247821,
			"-0.005": 4.66663235943,
			"-0.004": 9.51585416353,
			"-0.003": 25.3107677097,
			"-0.002": 22.939307278,
			"-0.001": 21.6404599581,
			"0.0": 23.3654611357,
			"0.001": 20.4682987803,
			"0.002": 6.68287796632,
			"0.003": 3.07213905147,
			"0.004": 1.48303555183,
			"0.005": 2.07658339137,
			"0.006": 2.3803118422,
			"0.007": 1.97248278726,
			"0.008": 2.65028063846,
			"0.009": 3.27401372316,
			"0.01": 3.75433100464,
			"0.011": 5.33743250318,
			"0.012": 6.13044734811,
			"0.013": 4.04080758839,
			"0.014": 0.580520147785,
			"0.015": 0.0,
			"0.016": 0.0,
			"0.017": 0.0,
			"0.018": 0.0,
			"0.019": 0.0,
			"0.02": 0.0,
			"0.021": 0.0,
			"0.022": 0.0,
			"0.023": 0.0,
			"0.024": 0.0,
			"0.025": 0.0
		}
	}
}
