{
	 "smiles": "ClCC(=O)NCCC#N", 
	 "Tm": 370.15, 
	 "num_atms": 16, 
	 "gaussian": { 
		 "optdone": 1, 
		 "sigma_profile": "yes", 
		 "theory": "DFT", 
		 "functional": "B3LYP", 
		 "basiset": "6-31G**", 
		 "properties": { 
			 "R2extent": 2538.4493, 
			 "electric_dipole_moment_norm": 5.06120446732, 
			 "electric_quadrupole_moment_norm": 7.98476356569, 
			 "total_energy": -839.66051549, 
			 "HOMO_LUMO_gap": 0.23839, 
			 "cosmo_polarized_energy": -18.25, 
			 "cosmo_cavitation_energy": 22.49, 
			 "cosmo_dispersion_energy": -15.72, 
			 "cosmo_repulsion_energy": 1.33, 
			 "cosmo_total_nonelectrostatic_energy": 8.1, 
			 "SMD_solvation_energy": 5.29 
		},
		"coords": [
			{
				"x": 3.3880318518,
				"y": -1.9306585095,
				"z": -1.0799189323,
				"element": "Cl" 
			},
			{
				"x": 3.3107358699,
				"y": -0.4701529363,
				"z": 0.0026950615,
				"element": "C" 
			},
			{
				"x": 2.7040941229,
				"y": 0.7458590871,
				"z": -0.6981688013,
				"element": "C" 
			},
			{
				"x": 3.3981382117,
				"y": 1.7164706212,
				"z": -0.956130034,
				"element": "O" 
			},
			{
				"x": 1.3673518409,
				"y": 0.7237455638,
				"z": -1.011626473,
				"element": "N" 
			},
			{
				"x": 0.3662163014,
				"y": -0.2874618546,
				"z": -0.7394150755,
				"element": "C" 
			},
			{
				"x": -0.5580518566,
				"y": 0.0556558381,
				"z": 0.4569783381,
				"element": "C" 
			},
			{
				"x": 0.1688255061,
				"y": 0.1019268194,
				"z": 1.7270540803,
				"element": "C" 
			},
			{
				"x": 0.7815570681,
				"y": 0.1177589384,
				"z": 2.7129391954,
				"element": "N" 
			},
			{
				"x": 2.760997239,
				"y": -0.7581596087,
				"z": 0.8996127556,
				"element": "H" 
			},
			{
				"x": 4.3352828049,
				"y": -0.2101182885,
				"z": 0.2566631531,
				"element": "H" 
			},
			{
				"x": 1.0692317105,
				"y": 1.5736731495,
				"z": -1.4741403867,
				"element": "H" 
			},
			{
				"x": -0.2663643099,
				"y": -0.4087197946,
				"z": -1.6254599496,
				"element": "H" 
			},
			{
				"x": 0.8542674906,
				"y": -1.2478979384,
				"z": -0.5706151177,
				"element": "H" 
			},
			{
				"x": -1.3512457455,
				"y": -0.6976002192,
				"z": 0.5317060941,
				"element": "H" 
			},
			{
				"x": -1.0456681057,
				"y": 1.0234791323,
				"z": 0.2934260918,
				"element": "H" 
			}
		],
		 "valence_orbital": [ 
			{
				"type": "occ",
				"energy": -0.34162,
				"method": "rhf"
			},
			{
				"type": "occ",
				"energy": -0.32027,
				"method": "rhf"
			},
			{
				"type": "occ",
				"energy": -0.31037,
				"method": "rhf"
			},
			{
				"type": "occ",
				"energy": -0.27343,
				"method": "rhf"
			},
			{
				"type": "occ",
				"energy": -0.26483,
				"method": "rhf"
			},
			{
				"type": "unocc",
				"energy": -0.02644,
				"method": "rhf"
			},
			{
				"type": "unocc",
				"energy": 0.01048,
				"method": "rhf"
			},
			{
				"type": "unocc",
				"energy": 0.02074,
				"method": "rhf"
			},
			{
				"type": "unocc",
				"energy": 0.0436,
				"method": "rhf"
			},
			{
				"type": "unocc",
				"energy": 0.07412,
				"method": "rhf"
			}
		],
		"cosmo_sigma_profile": { 
			"-0.025": 0.0,
			"-0.024": 0.0,
			"-0.023": 0.0,
			"-0.022": 0.0,
			"-0.021": 0.0,
			"-0.02": 0.0,
			"-0.019": 0.0,
			"-0.018": 0.0,
			"-0.017": 0.0,
			"-0.016": 0.0,
			"-0.015": 0.321515181248,
			"-0.014": 1.37667209973,
			"-0.013": 1.64227556329,
			"-0.012": 1.04700358569,
			"-0.011": 1.35736786043,
			"-0.01": 2.09919481513,
			"-0.009": 6.53435546741,
			"-0.008": 11.9380195042,
			"-0.007": 14.036610667,
			"-0.006": 11.1522946629,
			"-0.005": 9.36263651039,
			"-0.004": 6.98437378143,
			"-0.003": 6.42766702896,
			"-0.002": 6.74224141017,
			"-0.001": 8.28329958974,
			"0.0": 7.19951171241,
			"0.001": 8.72313166658,
			"0.002": 9.38271641798,
			"0.003": 8.15713639273,
			"0.004": 9.45902650158,
			"0.005": 9.74259020599,
			"0.006": 5.70202709329,
			"0.007": 3.10083407728,
			"0.008": 3.80760797154,
			"0.009": 4.45448167863,
			"0.01": 3.82019325639,
			"0.011": 4.0747938454,
			"0.012": 6.64065975158,
			"0.013": 6.4900687695,
			"0.014": 1.06781460526,
			"0.015": 0.0,
			"0.016": 0.0,
			"0.017": 0.0,
			"0.018": 0.0,
			"0.019": 0.0,
			"0.02": 0.0,
			"0.021": 0.0,
			"0.022": 0.0,
			"0.023": 0.0,
			"0.024": 0.0,
			"0.025": 0.0
		}
	}
}
