{
	 "smiles": "CC(=O)C1=C(C)N(N=C1)C1=CC=CC=C1", 
	 "Tm": 481.15, 
	 "num_atms": 27, 
	 "gaussian": { 
		 "optdone": 1, 
		 "sigma_profile": "yes", 
		 "theory": "DFT", 
		 "functional": "B3LYP", 
		 "basiset": "6-31G**", 
		 "properties": { 
			 "R2extent": 4016.3297, 
			 "electric_dipole_moment_norm": 5.43469588294, 
			 "electric_quadrupole_moment_norm": 6.67149317245, 
			 "total_energy": -649.222855433, 
			 "HOMO_LUMO_gap": 0.19835, 
			 "cosmo_polarized_energy": -13.76, 
			 "cosmo_cavitation_energy": 30.71, 
			 "cosmo_dispersion_energy": -22.08, 
			 "cosmo_repulsion_energy": 1.7, 
			 "cosmo_total_nonelectrostatic_energy": 10.33, 
			 "SMD_solvation_energy": 5.29 
		},
		"coords": [
			{
				"x": 1.4985978693,
				"y": -2.8636726532,
				"z": 1.1023264346,
				"element": "C" 
			},
			{
				"x": 1.1108426307,
				"y": -2.4421808047,
				"z": -0.3062438095,
				"element": "C" 
			},
			{
				"x": 1.2837152288,
				"y": -3.2094538442,
				"z": -1.2455970492,
				"element": "O" 
			},
			{
				"x": 0.5292524808,
				"y": -1.1081064323,
				"z": -0.5470957223,
				"element": "C" 
			},
			{
				"x": 0.2066815321,
				"y": -0.046181379,
				"z": 0.3059063185,
				"element": "C" 
			},
			{
				"x": 0.2619818173,
				"y": 0.0814946966,
				"z": 1.7980516682,
				"element": "C" 
			},
			{
				"x": -0.2803783553,
				"y": 0.9449712212,
				"z": -0.5046252738,
				"element": "N" 
			},
			{
				"x": -0.3133957281,
				"y": 0.5782016338,
				"z": -1.8256531677,
				"element": "N" 
			},
			{
				"x": 0.1755972573,
				"y": -0.6461017834,
				"z": -1.8435608649,
				"element": "C" 
			},
			{
				"x": -0.7668947716,
				"y": 2.2394325431,
				"z": -0.1583738081,
				"element": "C" 
			},
			{
				"x": -0.058524577,
				"y": 3.0617604792,
				"z": 0.7234452663,
				"element": "C" 
			},
			{
				"x": -0.558840396,
				"y": 4.325818597,
				"z": 1.0395566146,
				"element": "C" 
			},
			{
				"x": -1.7462598416,
				"y": 4.777901924,
				"z": 0.4632795248,
				"element": "C" 
			},
			{
				"x": -2.43482159,
				"y": 3.9602313847,
				"z": -0.4368133789,
				"element": "C" 
			},
			{
				"x": -1.9525892169,
				"y": 2.6911145046,
				"z": -0.7482969779,
				"element": "C" 
			},
			{
				"x": 2.0265688719,
				"y": -3.8163874911,
				"z": 1.0441281818,
				"element": "H" 
			},
			{
				"x": 2.1350574479,
				"y": -2.1182952077,
				"z": 1.5899578449,
				"element": "H" 
			},
			{
				"x": 0.6057595201,
				"y": -2.993682396,
				"z": 1.725399856,
				"element": "H" 
			},
			{
				"x": 1.2577222602,
				"y": 0.3770314401,
				"z": 2.1500733271,
				"element": "H" 
			},
			{
				"x": -0.4497459701,
				"y": 0.8285246666,
				"z": 2.1550209316,
				"element": "H" 
			},
			{
				"x": 0.018927604,
				"y": -0.8706495049,
				"z": 2.2719922186,
				"element": "H" 
			},
			{
				"x": 0.2786140467,
				"y": -1.1888528492,
				"z": -2.7725473188,
				"element": "H" 
			},
			{
				"x": 0.886733694,
				"y": 2.7283145988,
				"z": 1.1371395311,
				"element": "H" 
			},
			{
				"x": -0.006924228,
				"y": 4.962323727,
				"z": 1.7246717671,
				"element": "H" 
			},
			{
				"x": -2.1288479346,
				"y": 5.7644865422,
				"z": 0.7065474664,
				"element": "H" 
			},
			{
				"x": -3.3548708766,
				"y": 4.3094857656,
				"z": -0.8958038088,
				"element": "H" 
			},
			{
				"x": -2.4702587755,
				"y": 2.0459706212,
				"z": -1.4483857716,
				"element": "H" 
			}
		],
		 "valence_orbital": [ 
			{
				"type": "occ",
				"energy": -0.28709,
				"method": "rhf"
			},
			{
				"type": "occ",
				"energy": -0.26584,
				"method": "rhf"
			},
			{
				"type": "occ",
				"energy": -0.25036,
				"method": "rhf"
			},
			{
				"type": "occ",
				"energy": -0.24045,
				"method": "rhf"
			},
			{
				"type": "occ",
				"energy": -0.23774,
				"method": "rhf"
			},
			{
				"type": "unocc",
				"energy": -0.03939,
				"method": "rhf"
			},
			{
				"type": "unocc",
				"energy": -0.01682,
				"method": "rhf"
			},
			{
				"type": "unocc",
				"energy": -0.01461,
				"method": "rhf"
			},
			{
				"type": "unocc",
				"energy": 0.02438,
				"method": "rhf"
			},
			{
				"type": "unocc",
				"energy": 0.07355,
				"method": "rhf"
			}
		],
		"cosmo_sigma_profile": { 
			"-0.025": 0.0,
			"-0.024": 0.0,
			"-0.023": 0.0,
			"-0.022": 0.0,
			"-0.021": 0.0,
			"-0.02": 0.0,
			"-0.019": 0.0,
			"-0.018": 0.0,
			"-0.017": 0.0,
			"-0.016": 0.0,
			"-0.015": 0.0,
			"-0.014": 0.0,
			"-0.013": 0.0,
			"-0.012": 0.0,
			"-0.011": 0.0,
			"-0.01": 0.0,
			"-0.009": 0.0,
			"-0.008": 0.806232842673,
			"-0.007": 7.60487275917,
			"-0.006": 18.9223894593,
			"-0.005": 21.9083147172,
			"-0.004": 23.7718489249,
			"-0.003": 19.6453359964,
			"-0.002": 22.0130149996,
			"-0.001": 18.0310427797,
			"0.0": 14.0999847092,
			"0.001": 14.1243854617,
			"0.002": 15.1301547334,
			"0.003": 15.7134302163,
			"0.004": 15.6293481552,
			"0.005": 6.80943995803,
			"0.006": 3.94248788741,
			"0.007": 3.40534720141,
			"0.008": 3.05675640738,
			"0.009": 3.03161818632,
			"0.01": 2.78012176359,
			"0.011": 3.76724561591,
			"0.012": 4.81187825502,
			"0.013": 4.22092940006,
			"0.014": 1.7992909864,
			"0.015": 0.295564869705,
			"0.016": 0.0,
			"0.017": 0.0,
			"0.018": 0.0,
			"0.019": 0.0,
			"0.02": 0.0,
			"0.021": 0.0,
			"0.022": 0.0,
			"0.023": 0.0,
			"0.024": 0.0,
			"0.025": 0.0
		}
	}
}
