{
	 "smiles": "CC1=C2C=CC=CC2=CC=N1", 
	 "Tm": 283.15, 
	 "num_atms": 20, 
	 "gaussian": { 
		 "optdone": 1, 
		 "sigma_profile": "yes", 
		 "theory": "DFT", 
		 "functional": "B3LYP", 
		 "basiset": "6-31G**", 
		 "properties": { 
			 "R2extent": 1914.4225, 
			 "electric_dipole_moment_norm": 2.1903299546, 
			 "electric_quadrupole_moment_norm": 6.64430609771, 
			 "total_energy": -441.252879255, 
			 "HOMO_LUMO_gap": 0.17502, 
			 "cosmo_polarized_energy": -6.63, 
			 "cosmo_cavitation_energy": 23.17, 
			 "cosmo_dispersion_energy": -17.43, 
			 "cosmo_repulsion_energy": 1.37, 
			 "cosmo_total_nonelectrostatic_energy": 7.1, 
			 "SMD_solvation_energy": 2.51 
		},
		"coords": [
			{
				"x": 1.4107338647,
				"y": -1.3332988953,
				"z": 2.7689088137,
				"element": "C" 
			},
			{
				"x": 0.3904933024,
				"y": -1.0203735456,
				"z": 1.7007465903,
				"element": "C" 
			},
			{
				"x": 0.0766393137,
				"y": 0.3373073684,
				"z": 1.3507536411,
				"element": "C" 
			},
			{
				"x": 0.6876104565,
				"y": 1.4612252931,
				"z": 1.9681013345,
				"element": "C" 
			},
			{
				"x": 0.3473443477,
				"y": 2.7425284191,
				"z": 1.5919164964,
				"element": "C" 
			},
			{
				"x": -0.6199272886,
				"y": 2.9581488433,
				"z": 0.5806939096,
				"element": "C" 
			},
			{
				"x": -1.2303057045,
				"y": 1.8898481957,
				"z": -0.0369984001,
				"element": "C" 
			},
			{
				"x": -0.8995400143,
				"y": 0.5584137339,
				"z": 0.3301413674,
				"element": "C" 
			},
			{
				"x": -1.49597134,
				"y": -0.5797199639,
				"z": -0.2718966809,
				"element": "C" 
			},
			{
				"x": -1.1141923045,
				"y": -1.8297661013,
				"z": 0.1469736222,
				"element": "C" 
			},
			{
				"x": -0.1868088481,
				"y": -2.0561312313,
				"z": 1.1169028514,
				"element": "N" 
			},
			{
				"x": 1.4914210293,
				"y": -2.4159157896,
				"z": 2.8713499225,
				"element": "H" 
			},
			{
				"x": 1.1245680839,
				"y": -0.9079339232,
				"z": 3.7379411132,
				"element": "H" 
			},
			{
				"x": 2.3976951588,
				"y": -0.9286764169,
				"z": 2.5158543024,
				"element": "H" 
			},
			{
				"x": 1.4299529043,
				"y": 1.3064755584,
				"z": 2.7439956539,
				"element": "H" 
			},
			{
				"x": 0.8213200565,
				"y": 3.59405887,
				"z": 2.0712000903,
				"element": "H" 
			},
			{
				"x": -0.878708495,
				"y": 3.9734314636,
				"z": 0.293896576,
				"element": "H" 
			},
			{
				"x": -1.9733915273,
				"y": 2.0500430517,
				"z": -0.8137988247,
				"element": "H" 
			},
			{
				"x": -2.242372719,
				"y": -0.4564338165,
				"z": -1.0515494569,
				"element": "H" 
			},
			{
				"x": -1.5530602765,
				"y": -2.7216311138,
				"z": -0.2951329225,
				"element": "H" 
			}
		],
		 "valence_orbital": [ 
			{
				"type": "occ",
				"energy": -0.33674,
				"method": "rhf"
			},
			{
				"type": "occ",
				"energy": -0.28719,
				"method": "rhf"
			},
			{
				"type": "occ",
				"energy": -0.25991,
				"method": "rhf"
			},
			{
				"type": "occ",
				"energy": -0.24694,
				"method": "rhf"
			},
			{
				"type": "occ",
				"energy": -0.2232,
				"method": "rhf"
			},
			{
				"type": "unocc",
				"energy": -0.04818,
				"method": "rhf"
			},
			{
				"type": "unocc",
				"energy": -0.01916,
				"method": "rhf"
			},
			{
				"type": "unocc",
				"energy": 0.02899,
				"method": "rhf"
			},
			{
				"type": "unocc",
				"energy": 0.08826,
				"method": "rhf"
			},
			{
				"type": "unocc",
				"energy": 0.09263,
				"method": "rhf"
			}
		],
		"cosmo_sigma_profile": { 
			"-0.025": 0.0,
			"-0.024": 0.0,
			"-0.023": 0.0,
			"-0.022": 0.0,
			"-0.021": 0.0,
			"-0.02": 0.0,
			"-0.019": 0.0,
			"-0.018": 0.0,
			"-0.017": 0.0,
			"-0.016": 0.0,
			"-0.015": 0.0,
			"-0.014": 0.0,
			"-0.013": 0.0,
			"-0.012": 0.0,
			"-0.011": 0.0,
			"-0.01": 0.0,
			"-0.009": 0.0,
			"-0.008": 0.0,
			"-0.007": 1.27865582551,
			"-0.006": 12.056824066,
			"-0.005": 16.6180745021,
			"-0.004": 18.656319192,
			"-0.003": 14.756806698,
			"-0.002": 12.6769270896,
			"-0.001": 11.8695549069,
			"0.0": 15.6623261077,
			"0.001": 12.4543620219,
			"0.002": 16.0818420289,
			"0.003": 20.0588230734,
			"0.004": 16.2071292035,
			"0.005": 4.31734434851,
			"0.006": 2.16987514506,
			"0.007": 1.57206343967,
			"0.008": 1.55532847768,
			"0.009": 1.06527006138,
			"0.01": 1.04881727656,
			"0.011": 1.03259616281,
			"0.012": 0.943225335113,
			"0.013": 0.855754389837,
			"0.014": 0.704015712692,
			"0.015": 0.869165954802,
			"0.016": 0.756578688122,
			"0.017": 0.193894637192,
			"0.018": 0.0,
			"0.019": 0.0,
			"0.02": 0.0,
			"0.021": 0.0,
			"0.022": 0.0,
			"0.023": 0.0,
			"0.024": 0.0,
			"0.025": 0.0
		}
	}
}
