{
	 "smiles": "ClC1=CC=C(C=C1)N1C=CC=C1C=O", 
	 "Tm": 367.15, 
	 "num_atms": 22, 
	 "gaussian": { 
		 "optdone": 1, 
		 "sigma_profile": "yes", 
		 "theory": "DFT", 
		 "functional": "B3LYP", 
		 "basiset": "6-31G**", 
		 "properties": { 
			 "R2extent": 4202.8508, 
			 "electric_dipole_moment_norm": 3.82821549289, 
			 "electric_quadrupole_moment_norm": 17.4276584956, 
			 "total_energy": -1014.1372271, 
			 "HOMO_LUMO_gap": 0.1794, 
			 "cosmo_polarized_energy": -11.33, 
			 "cosmo_cavitation_energy": 28.84, 
			 "cosmo_dispersion_energy": -20.68, 
			 "cosmo_repulsion_energy": 1.62, 
			 "cosmo_total_nonelectrostatic_energy": 9.78, 
			 "SMD_solvation_energy": 6.04 
		},
		"coords": [
			{
				"x": 1.095164254,
				"y": -3.2252091714,
				"z": -3.311564724,
				"element": "Cl" 
			},
			{
				"x": 0.9336469279,
				"y": -2.1888918196,
				"z": -1.9054684093,
				"element": "C" 
			},
			{
				"x": 2.054057218,
				"y": -1.9162066604,
				"z": -1.1206972071,
				"element": "C" 
			},
			{
				"x": 1.9198855514,
				"y": -1.0997161113,
				"z": 0.0007379194,
				"element": "C" 
			},
			{
				"x": 0.6762951423,
				"y": -0.5473997087,
				"z": 0.3254098844,
				"element": "C" 
			},
			{
				"x": -0.4376064105,
				"y": -0.8183340346,
				"z": -0.4776665777,
				"element": "C" 
			},
			{
				"x": -0.3134220671,
				"y": -1.6485577052,
				"z": -1.5897580907,
				"element": "C" 
			},
			{
				"x": 0.5635004974,
				"y": 0.3161055306,
				"z": 1.453222417,
				"element": "N" 
			},
			{
				"x": 1.3439619229,
				"y": 1.4275915106,
				"z": 1.6491211831,
				"element": "C" 
			},
			{
				"x": 0.9420509064,
				"y": 2.0606945342,
				"z": 2.8132227605,
				"element": "C" 
			},
			{
				"x": -0.1222276562,
				"y": 1.3089792854,
				"z": 3.349832715,
				"element": "C" 
			},
			{
				"x": -0.3548216921,
				"y": 0.2279466165,
				"z": 2.5063573662,
				"element": "C" 
			},
			{
				"x": -1.2762693519,
				"y": -0.8803140386,
				"z": 2.7093143451,
				"element": "C" 
			},
			{
				"x": -2.079861375,
				"y": -0.9257475818,
				"z": 3.6289148008,
				"element": "O" 
			},
			{
				"x": 3.015228652,
				"y": -2.3482139963,
				"z": -1.3753317251,
				"element": "H" 
			},
			{
				"x": 2.7767862821,
				"y": -0.9011100305,
				"z": 0.6360955277,
				"element": "H" 
			},
			{
				"x": -1.3947637258,
				"y": -0.3659164144,
				"z": -0.241222019,
				"element": "H" 
			},
			{
				"x": -1.1731926001,
				"y": -1.8623902108,
				"z": -2.2145108063,
				"element": "H" 
			},
			{
				"x": 2.0963674921,
				"y": 1.698626532,
				"z": 0.9228893184,
				"element": "H" 
			},
			{
				"x": 1.3718044822,
				"y": 2.9668927797,
				"z": 3.2158586626,
				"element": "H" 
			},
			{
				"x": -0.6714785191,
				"y": 1.4891505016,
				"z": 4.2625711518,
				"element": "H" 
			},
			{
				"x": -1.2031059308,
				"y": -1.710879807,
				"z": 1.9769715071,
				"element": "H" 
			}
		],
		 "valence_orbital": [ 
			{
				"type": "occ",
				"energy": -0.28571,
				"method": "rhf"
			},
			{
				"type": "occ",
				"energy": -0.28201,
				"method": "rhf"
			},
			{
				"type": "occ",
				"energy": -0.25005,
				"method": "rhf"
			},
			{
				"type": "occ",
				"energy": -0.24226,
				"method": "rhf"
			},
			{
				"type": "occ",
				"energy": -0.23221,
				"method": "rhf"
			},
			{
				"type": "unocc",
				"energy": -0.05281,
				"method": "rhf"
			},
			{
				"type": "unocc",
				"energy": -0.03625,
				"method": "rhf"
			},
			{
				"type": "unocc",
				"energy": -0.03047,
				"method": "rhf"
			},
			{
				"type": "unocc",
				"energy": 0.01578,
				"method": "rhf"
			},
			{
				"type": "unocc",
				"energy": 0.04491,
				"method": "rhf"
			}
		],
		"cosmo_sigma_profile": { 
			"-0.025": 0.0,
			"-0.024": 0.0,
			"-0.023": 0.0,
			"-0.022": 0.0,
			"-0.021": 0.0,
			"-0.02": 0.0,
			"-0.019": 0.0,
			"-0.018": 0.0,
			"-0.017": 0.0,
			"-0.016": 0.0,
			"-0.015": 0.0,
			"-0.014": 0.0,
			"-0.013": 0.0,
			"-0.012": 0.0,
			"-0.011": 0.0,
			"-0.01": 0.0,
			"-0.009": 0.912767443828,
			"-0.008": 6.39648168298,
			"-0.007": 12.8383081942,
			"-0.006": 14.910059769,
			"-0.005": 15.1026383452,
			"-0.004": 13.9805644082,
			"-0.003": 13.5850885089,
			"-0.002": 15.1738743262,
			"-0.001": 15.6993695998,
			"0.0": 16.1232365802,
			"0.001": 21.4557524564,
			"0.002": 23.102455841,
			"0.003": 16.001012968,
			"0.004": 18.139970256,
			"0.005": 10.4354696747,
			"0.006": 2.56847007498,
			"0.007": 1.6436519017,
			"0.008": 1.57694760571,
			"0.009": 1.89857274797,
			"0.01": 1.93938907077,
			"0.011": 2.37749601609,
			"0.012": 5.16513464366,
			"0.013": 2.87604500183,
			"0.014": 0.890038576436,
			"0.015": 0.0,
			"0.016": 0.0,
			"0.017": 0.0,
			"0.018": 0.0,
			"0.019": 0.0,
			"0.02": 0.0,
			"0.021": 0.0,
			"0.022": 0.0,
			"0.023": 0.0,
			"0.024": 0.0,
			"0.025": 0.0
		}
	}
}
