{
	 "smiles": "CC(Cl)C(=O)NC1=CC(=C(C)C=C1)S(=O)(=O)N1CCOCC1", 
	 "Tm": 425.15, 
	 "num_atms": 41, 
	 "gaussian": { 
		 "optdone": 1, 
		 "sigma_profile": "yes", 
		 "theory": "DFT", 
		 "functional": "B3LYP", 
		 "basiset": "6-31G**", 
		 "properties": { 
			 "R2extent": 9211.8267, 
			 "electric_dipole_moment_norm": 5.24150879232, 
			 "electric_quadrupole_moment_norm": 14.578563967, 
			 "total_energy": -1813.65581025, 
			 "HOMO_LUMO_gap": 0.2014, 
			 "cosmo_polarized_energy": -21.99, 
			 "cosmo_cavitation_energy": 45.65, 
			 "cosmo_dispersion_energy": -30.82, 
			 "cosmo_repulsion_energy": 2.31, 
			 "cosmo_total_nonelectrostatic_energy": 17.14, 
			 "SMD_solvation_energy": 7.03 
		},
		"coords": [
			{
				"x": 3.9636932075,
				"y": -1.0875755017,
				"z": 4.4498763995,
				"element": "C" 
			},
			{
				"x": 2.8251137326,
				"y": -1.1609412497,
				"z": 3.4501269247,
				"element": "C" 
			},
			{
				"x": 1.6704677231,
				"y": 0.2494809687,
				"z": 3.6980614705,
				"element": "Cl" 
			},
			{
				"x": 2.0049136669,
				"y": -2.4514602175,
				"z": 3.6119554888,
				"element": "C" 
			},
			{
				"x": 2.0136968109,
				"y": -3.0816720859,
				"z": 4.6563933385,
				"element": "O" 
			},
			{
				"x": 1.2463663399,
				"y": -2.8639437728,
				"z": 2.5382641894,
				"element": "N" 
			},
			{
				"x": 1.0885599298,
				"y": -2.2547140762,
				"z": 1.260080022,
				"element": "C" 
			},
			{
				"x": -0.1436627533,
				"y": -1.7028727328,
				"z": 0.8995245176,
				"element": "C" 
			},
			{
				"x": -0.3100099847,
				"y": -1.1280627222,
				"z": -0.3601677377,
				"element": "C" 
			},
			{
				"x": 0.7362281492,
				"y": -1.0740308721,
				"z": -1.3052583418,
				"element": "C" 
			},
			{
				"x": 0.5984629588,
				"y": -0.4525036605,
				"z": -2.6718905791,
				"element": "C" 
			},
			{
				"x": 1.9564028635,
				"y": -1.640838178,
				"z": -0.9144559653,
				"element": "C" 
			},
			{
				"x": 2.1345488141,
				"y": -2.2357268487,
				"z": 0.3336920127,
				"element": "C" 
			},
			{
				"x": -1.9602589778,
				"y": -0.4901336322,
				"z": -0.7196997874,
				"element": "S" 
			},
			{
				"x": -2.8082954589,
				"y": -0.8006546971,
				"z": 0.4398898852,
				"element": "O" 
			},
			{
				"x": -2.3739684108,
				"y": -0.9147406364,
				"z": -2.0616518741,
				"element": "O" 
			},
			{
				"x": -1.6577719166,
				"y": 1.1848170387,
				"z": -0.8202122944,
				"element": "N" 
			},
			{
				"x": -2.6198389674,
				"y": 1.9273451204,
				"z": -1.6653771815,
				"element": "C" 
			},
			{
				"x": -2.0871642539,
				"y": 3.3479629186,
				"z": -1.8411579147,
				"element": "C" 
			},
			{
				"x": -1.8964144616,
				"y": 3.9914271626,
				"z": -0.5900711892,
				"element": "O" 
			},
			{
				"x": -0.9742896731,
				"y": 3.2765648882,
				"z": 0.2179177163,
				"element": "C" 
			},
			{
				"x": -1.4513747547,
				"y": 1.8486219102,
				"z": 0.4843077671,
				"element": "C" 
			},
			{
				"x": 3.5872845966,
				"y": -1.2208903615,
				"z": 5.4646617333,
				"element": "H" 
			},
			{
				"x": 4.6750278843,
				"y": -1.8949475735,
				"z": 4.2446804833,
				"element": "H" 
			},
			{
				"x": 4.4840034972,
				"y": -0.1310303032,
				"z": 4.3686201306,
				"element": "H" 
			},
			{
				"x": 3.1784746464,
				"y": -1.0366420061,
				"z": 2.4271849099,
				"element": "H" 
			},
			{
				"x": 0.625913405,
				"y": -3.629354496,
				"z": 2.7758221571,
				"element": "H" 
			},
			{
				"x": -0.9751424616,
				"y": -1.7105483362,
				"z": 1.5952284091,
				"element": "H" 
			},
			{
				"x": -0.1829738784,
				"y": -0.9486020655,
				"z": -3.2527600419,
				"element": "H" 
			},
			{
				"x": 1.5433870879,
				"y": -0.5165086879,
				"z": -3.2164166483,
				"element": "H" 
			},
			{
				"x": 0.3119380369,
				"y": 0.6004360655,
				"z": -2.5891996435,
				"element": "H" 
			},
			{
				"x": 2.7831410064,
				"y": -1.6317865598,
				"z": -1.6189549534,
				"element": "H" 
			},
			{
				"x": 3.0826157963,
				"y": -2.700671986,
				"z": 0.5869868379,
				"element": "H" 
			},
			{
				"x": -2.7040903232,
				"y": 1.4220811502,
				"z": -2.6290729906,
				"element": "H" 
			},
			{
				"x": -3.6142399998,
				"y": 1.9636686809,
				"z": -1.1967204302,
				"element": "H" 
			},
			{
				"x": -1.1408323126,
				"y": 3.3194550121,
				"z": -2.4057681848,
				"element": "H" 
			},
			{
				"x": -2.8093386721,
				"y": 3.9516350368,
				"z": -2.3980117657,
				"element": "H" 
			},
			{
				"x": 0.0165038782,
				"y": 3.2484392272,
				"z": -0.2637609493,
				"element": "H" 
			},
			{
				"x": -0.8906179506,
				"y": 3.824416672,
				"z": 1.1604674092,
				"element": "H" 
			},
			{
				"x": -2.3801898308,
				"y": 1.8620034122,
				"z": 1.0702972634,
				"element": "H" 
			},
			{
				"x": -0.6897689897,
				"y": 1.3056979951,
				"z": 1.0519694068,
				"element": "H" 
			}
		],
		 "valence_orbital": [ 
			{
				"type": "occ",
				"energy": -0.28695,
				"method": "rhf"
			},
			{
				"type": "occ",
				"energy": -0.27527,
				"method": "rhf"
			},
			{
				"type": "occ",
				"energy": -0.26966,
				"method": "rhf"
			},
			{
				"type": "occ",
				"energy": -0.25621,
				"method": "rhf"
			},
			{
				"type": "occ",
				"energy": -0.25487,
				"method": "rhf"
			},
			{
				"type": "unocc",
				"energy": -0.05347,
				"method": "rhf"
			},
			{
				"type": "unocc",
				"energy": -0.03863,
				"method": "rhf"
			},
			{
				"type": "unocc",
				"energy": -0.02467,
				"method": "rhf"
			},
			{
				"type": "unocc",
				"energy": 0.04973,
				"method": "rhf"
			},
			{
				"type": "unocc",
				"energy": 0.05003,
				"method": "rhf"
			}
		],
		"cosmo_sigma_profile": { 
			"-0.025": 0.0,
			"-0.024": 0.0,
			"-0.023": 0.0,
			"-0.022": 0.0,
			"-0.021": 0.0,
			"-0.02": 0.0,
			"-0.019": 0.0,
			"-0.018": 0.0,
			"-0.017": 0.0,
			"-0.016": 0.0,
			"-0.015": 0.842096645421,
			"-0.014": 0.874665385425,
			"-0.013": 1.18174196356,
			"-0.012": 1.31449376688,
			"-0.011": 1.0949454266,
			"-0.01": 0.895003160135,
			"-0.009": 2.55270480402,
			"-0.008": 5.2412847701,
			"-0.007": 9.15784343094,
			"-0.006": 17.7886984248,
			"-0.005": 27.0596445462,
			"-0.004": 36.1700079739,
			"-0.003": 31.6992249719,
			"-0.002": 25.8641814542,
			"-0.001": 30.6943704733,
			"0.0": 29.2782262062,
			"0.001": 24.1951319661,
			"0.002": 19.6542630472,
			"0.003": 15.0546057476,
			"0.004": 10.311803454,
			"0.005": 10.6059758222,
			"0.006": 9.89320682244,
			"0.007": 6.35261427539,
			"0.008": 5.09590558598,
			"0.009": 6.42715159895,
			"0.01": 9.14727138184,
			"0.011": 10.4915006253,
			"0.012": 8.47566340804,
			"0.013": 4.32830379511,
			"0.014": 0.0606525773647,
			"0.015": 0.0,
			"0.016": 0.0,
			"0.017": 0.0,
			"0.018": 0.0,
			"0.019": 0.0,
			"0.02": 0.0,
			"0.021": 0.0,
			"0.022": 0.0,
			"0.023": 0.0,
			"0.024": 0.0,
			"0.025": 0.0
		}
	}
}
