{
	 "smiles": "O=C(NC1=C2C=CC(OC(=O)C3=CC=CC=C3)=CC2=CC=C1)C1=CC=CC=C1", 
	 "Tm": 495.15, 
	 "num_atms": 45, 
	 "gaussian": { 
		 "optdone": 1, 
		 "sigma_profile": "yes", 
		 "theory": "DFT", 
		 "functional": "B3LYP", 
		 "basiset": "6-31G**", 
		 "properties": { 
			 "R2extent": 19178.86, 
			 "electric_dipole_moment_norm": 5.22580464331, 
			 "electric_quadrupole_moment_norm": 20.8445380282, 
			 "total_energy": -1205.26467913, 
			 "HOMO_LUMO_gap": 0.14662, 
			 "cosmo_polarized_energy": -17.74, 
			 "cosmo_cavitation_energy": 50.43, 
			 "cosmo_dispersion_energy": -36.36, 
			 "cosmo_repulsion_energy": 2.64, 
			 "cosmo_total_nonelectrostatic_energy": 16.71, 
			 "SMD_solvation_energy": 9.4 
		},
		"coords": [
			{
				"x": -3.1880022921,
				"y": 4.1711869466,
				"z": 2.7010865039,
				"element": "O" 
			},
			{
				"x": -2.016430551,
				"y": 3.9437585312,
				"z": 2.4201610252,
				"element": "C" 
			},
			{
				"x": -1.5457522583,
				"y": 2.7207858483,
				"z": 1.9841213995,
				"element": "N" 
			},
			{
				"x": -2.2602067385,
				"y": 1.5284366794,
				"z": 1.7461751262,
				"element": "C" 
			},
			{
				"x": -1.5322713437,
				"y": 0.4111280749,
				"z": 1.2045281575,
				"element": "C" 
			},
			{
				"x": -0.1528675452,
				"y": 0.4540634573,
				"z": 0.8604030977,
				"element": "C" 
			},
			{
				"x": 0.4998073488,
				"y": -0.6477392848,
				"z": 0.3601682048,
				"element": "C" 
			},
			{
				"x": -0.200454343,
				"y": -1.8607278489,
				"z": 0.1724575553,
				"element": "C" 
			},
			{
				"x": 0.6007135413,
				"y": -2.9070932174,
				"z": -0.2767463093,
				"element": "O" 
			},
			{
				"x": 0.1278779272,
				"y": -3.9507489482,
				"z": -1.0246718133,
				"element": "C" 
			},
			{
				"x": -1.0278824907,
				"y": -4.0799801321,
				"z": -1.3649786538,
				"element": "O" 
			},
			{
				"x": 1.2187791374,
				"y": -4.9047027277,
				"z": -1.3674327191,
				"element": "C" 
			},
			{
				"x": 2.5429010161,
				"y": -4.7315758547,
				"z": -0.9386957298,
				"element": "C" 
			},
			{
				"x": 3.5150118832,
				"y": -5.6649371763,
				"z": -1.2940881292,
				"element": "C" 
			},
			{
				"x": 3.1735659144,
				"y": -6.7706066714,
				"z": -2.0768870553,
				"element": "C" 
			},
			{
				"x": 1.8549073638,
				"y": -6.9452479543,
				"z": -2.505777407,
				"element": "C" 
			},
			{
				"x": 0.8797868065,
				"y": -6.0166584613,
				"z": -2.1521307596,
				"element": "C" 
			},
			{
				"x": -1.5384704886,
				"y": -1.9546567662,
				"z": 0.4774163318,
				"element": "C" 
			},
			{
				"x": -2.2308751058,
				"y": -0.8231482746,
				"z": 0.9888480937,
				"element": "C" 
			},
			{
				"x": -3.6168194754,
				"y": -0.9072010255,
				"z": 1.2858815575,
				"element": "C" 
			},
			{
				"x": -4.2829791741,
				"y": 0.1895159434,
				"z": 1.7774694972,
				"element": "C" 
			},
			{
				"x": -3.6145136714,
				"y": 1.4099328227,
				"z": 2.0153865836,
				"element": "C" 
			},
			{
				"x": -0.9625747056,
				"y": 5.010361459,
				"z": 2.5492616751,
				"element": "C" 
			},
			{
				"x": -1.2164096402,
				"y": 6.0543667465,
				"z": 3.4495909171,
				"element": "C" 
			},
			{
				"x": -0.2890980677,
				"y": 7.0792960633,
				"z": 3.619790827,
				"element": "C" 
			},
			{
				"x": 0.8960219089,
				"y": 7.0829831057,
				"z": 2.8791336409,
				"element": "C" 
			},
			{
				"x": 1.1457861463,
				"y": 6.0606153771,
				"z": 1.9621620569,
				"element": "C" 
			},
			{
				"x": 0.221516754,
				"y": 5.0286016906,
				"z": 1.7971861462,
				"element": "C" 
			},
			{
				"x": -0.5425496269,
				"y": 2.6410836243,
				"z": 1.952037442,
				"element": "H" 
			},
			{
				"x": 0.4220616055,
				"y": 1.3695558941,
				"z": 0.9612286791,
				"element": "H" 
			},
			{
				"x": 1.5512461381,
				"y": -0.6065030977,
				"z": 0.0965414525,
				"element": "H" 
			},
			{
				"x": 2.8014858934,
				"y": -3.87233655,
				"z": -0.3313335309,
				"element": "H" 
			},
			{
				"x": 4.5396295786,
				"y": -5.5302007866,
				"z": -0.9604387851,
				"element": "H" 
			},
			{
				"x": 3.9343280542,
				"y": -7.4955549171,
				"z": -2.3521682369,
				"element": "H" 
			},
			{
				"x": 1.589019698,
				"y": -7.8045918555,
				"z": -3.1140513878,
				"element": "H" 
			},
			{
				"x": -0.1502628993,
				"y": -6.1312942749,
				"z": -2.4719670917,
				"element": "H" 
			},
			{
				"x": -2.0803181114,
				"y": -2.8755435672,
				"z": 0.3158210232,
				"element": "H" 
			},
			{
				"x": -4.1347443768,
				"y": -1.8458031012,
				"z": 1.1125482473,
				"element": "H" 
			},
			{
				"x": -5.3442103362,
				"y": 0.1272695515,
				"z": 2.0000510827,
				"element": "H" 
			},
			{
				"x": -4.1464177281,
				"y": 2.2610651676,
				"z": 2.4140411737,
				"element": "H" 
			},
			{
				"x": -2.149356255,
				"y": 6.0407122745,
				"z": 4.0026919621,
				"element": "H" 
			},
			{
				"x": -0.4905337676,
				"y": 7.8780495919,
				"z": 4.3275823804,
				"element": "H" 
			},
			{
				"x": 1.6171828294,
				"y": 7.8847915709,
				"z": 3.0086165755,
				"element": "H" 
			},
			{
				"x": 2.0541144306,
				"y": 6.071388753,
				"z": 1.366918061,
				"element": "H" 
			},
			{
				"x": 0.4112570171,
				"y": 4.2651033199,
				"z": 1.0473611321,
				"element": "H" 
			}
		],
		 "valence_orbital": [ 
			{
				"type": "occ",
				"energy": -0.26338,
				"method": "rhf"
			},
			{
				"type": "occ",
				"energy": -0.26031,
				"method": "rhf"
			},
			{
				"type": "occ",
				"energy": -0.25217,
				"method": "rhf"
			},
			{
				"type": "occ",
				"energy": -0.23948,
				"method": "rhf"
			},
			{
				"type": "occ",
				"energy": -0.20384,
				"method": "rhf"
			},
			{
				"type": "unocc",
				"energy": -0.05722,
				"method": "rhf"
			},
			{
				"type": "unocc",
				"energy": -0.0492,
				"method": "rhf"
			},
			{
				"type": "unocc",
				"energy": -0.03124,
				"method": "rhf"
			},
			{
				"type": "unocc",
				"energy": -0.01457,
				"method": "rhf"
			},
			{
				"type": "unocc",
				"energy": -0.01298,
				"method": "rhf"
			}
		],
		"cosmo_sigma_profile": { 
			"-0.025": 0.0,
			"-0.024": 0.0,
			"-0.023": 0.0,
			"-0.022": 0.0,
			"-0.021": 0.0,
			"-0.02": 0.0,
			"-0.019": 0.0,
			"-0.018": 0.0,
			"-0.017": 0.0,
			"-0.016": 0.0,
			"-0.015": 0.496136123487,
			"-0.014": 1.052328834,
			"-0.013": 1.07287661767,
			"-0.012": 1.15610757214,
			"-0.011": 1.78688690578,
			"-0.01": 1.87028069236,
			"-0.009": 1.20633409498,
			"-0.008": 2.63577300546,
			"-0.007": 7.31104630494,
			"-0.006": 25.390782446,
			"-0.005": 29.0166939204,
			"-0.004": 29.655616907,
			"-0.003": 26.7267458305,
			"-0.002": 25.2521667953,
			"-0.001": 26.6166159684,
			"0.0": 26.1554659676,
			"0.001": 33.5624941242,
			"0.002": 36.8526556184,
			"0.003": 48.3943848742,
			"0.004": 39.8069045742,
			"0.005": 11.872357935,
			"0.006": 4.42879225007,
			"0.007": 3.37708709751,
			"0.008": 3.49892342138,
			"0.009": 3.53392326781,
			"0.01": 4.12183607194,
			"0.011": 5.25031958937,
			"0.012": 3.12241243407,
			"0.013": 1.79293140295,
			"0.014": 0.168943917822,
			"0.015": 0.0,
			"0.016": 0.0,
			"0.017": 0.0,
			"0.018": 0.0,
			"0.019": 0.0,
			"0.02": 0.0,
			"0.021": 0.0,
			"0.022": 0.0,
			"0.023": 0.0,
			"0.024": 0.0,
			"0.025": 0.0
		}
	}
}
