{
	 "smiles": "ClCC(=O)NC1=CC=C(C=C1)N1CCCC1=O", 
	 "Tm": 532.15, 
	 "num_atms": 30, 
	 "gaussian": { 
		 "optdone": 1, 
		 "sigma_profile": "yes", 
		 "theory": "DFT", 
		 "functional": "B3LYP", 
		 "basiset": "6-31G**", 
		 "properties": { 
			 "R2extent": 7966.0885, 
			 "electric_dipole_moment_norm": 2.56648926357, 
			 "electric_quadrupole_moment_norm": 20.9779701783, 
			 "total_energy": -1185.29687099, 
			 "HOMO_LUMO_gap": 0.18309, 
			 "cosmo_polarized_energy": -16.19, 
			 "cosmo_cavitation_energy": 34.9, 
			 "cosmo_dispersion_energy": -26.18, 
			 "cosmo_repulsion_energy": 2.03, 
			 "cosmo_total_nonelectrostatic_energy": 10.75, 
			 "SMD_solvation_energy": 6.01 
		},
		"coords": [
			{
				"x": 1.950711931,
				"y": -4.7008253726,
				"z": 3.7862729993,
				"element": "Cl" 
			},
			{
				"x": 3.3070421985,
				"y": -3.8629540734,
				"z": 2.9135138887,
				"element": "C" 
			},
			{
				"x": 2.9549928708,
				"y": -2.60893522,
				"z": 2.1034835498,
				"element": "C" 
			},
			{
				"x": 3.882354935,
				"y": -2.0621698065,
				"z": 1.5192368835,
				"element": "O" 
			},
			{
				"x": 1.6550803856,
				"y": -2.2142338663,
				"z": 2.1034527431,
				"element": "N" 
			},
			{
				"x": 1.0757392607,
				"y": -1.1052194125,
				"z": 1.4447338004,
				"element": "C" 
			},
			{
				"x": 1.8036249367,
				"y": -0.2058841978,
				"z": 0.6574013623,
				"element": "C" 
			},
			{
				"x": 1.1501777919,
				"y": 0.861260431,
				"z": 0.0442350126,
				"element": "C" 
			},
			{
				"x": -0.2319636998,
				"y": 1.0621505995,
				"z": 0.191137767,
				"element": "C" 
			},
			{
				"x": -0.9566199346,
				"y": 0.1538980927,
				"z": 0.9856707662,
				"element": "C" 
			},
			{
				"x": -0.303732366,
				"y": -0.9070965558,
				"z": 1.5984527121,
				"element": "C" 
			},
			{
				"x": -0.8594459767,
				"y": 2.1486590746,
				"z": -0.4633824221,
				"element": "N" 
			},
			{
				"x": -0.1311888629,
				"y": 2.9818635187,
				"z": -1.4285574796,
				"element": "C" 
			},
			{
				"x": -1.2312465735,
				"y": 3.8233328098,
				"z": -2.0994702326,
				"element": "C" 
			},
			{
				"x": -2.3190355003,
				"y": 3.9116980232,
				"z": -1.0252028647,
				"element": "C" 
			},
			{
				"x": -2.1277711938,
				"y": 2.6489285482,
				"z": -0.1887403477,
				"element": "C" 
			},
			{
				"x": -2.9411057194,
				"y": 2.1840138808,
				"z": 0.592789162,
				"element": "O" 
			},
			{
				"x": 4.0471792605,
				"y": -3.5859187893,
				"z": 3.664493157,
				"element": "H" 
			},
			{
				"x": 3.7494810746,
				"y": -4.5924895212,
				"z": 2.2349467018,
				"element": "H" 
			},
			{
				"x": 1.0196102129,
				"y": -2.7871104092,
				"z": 2.6440690579,
				"element": "H" 
			},
			{
				"x": 2.8683904321,
				"y": -0.3429267546,
				"z": 0.5325227664,
				"element": "H" 
			},
			{
				"x": 1.7455024823,
				"y": 1.5453436529,
				"z": -0.5487280961,
				"element": "H" 
			},
			{
				"x": -2.0182381845,
				"y": 0.2964978006,
				"z": 1.1236714061,
				"element": "H" 
			},
			{
				"x": -0.8826696539,
				"y": -1.5972462071,
				"z": 2.2082047475,
				"element": "H" 
			},
			{
				"x": 0.4078098382,
				"y": 2.3538205095,
				"z": -2.1438548131,
				"element": "H" 
			},
			{
				"x": 0.606494079,
				"y": 3.6128497918,
				"z": -0.9127115086,
				"element": "H" 
			},
			{
				"x": -0.8563757718,
				"y": 4.7947867733,
				"z": -2.429847717,
				"element": "H" 
			},
			{
				"x": -1.613000608,
				"y": 3.2950626826,
				"z": -2.9787767055,
				"element": "H" 
			},
			{
				"x": -2.1776966287,
				"y": 4.7764323695,
				"z": -0.3644665118,
				"element": "H" 
			},
			{
				"x": -3.3403010157,
				"y": 3.9575116276,
				"z": -1.4085497847,
				"element": "H" 
			}
		],
		 "valence_orbital": [ 
			{
				"type": "occ",
				"energy": -0.27447,
				"method": "rhf"
			},
			{
				"type": "occ",
				"energy": -0.26492,
				"method": "rhf"
			},
			{
				"type": "occ",
				"energy": -0.25524,
				"method": "rhf"
			},
			{
				"type": "occ",
				"energy": -0.24932,
				"method": "rhf"
			},
			{
				"type": "occ",
				"energy": -0.20663,
				"method": "rhf"
			},
			{
				"type": "unocc",
				"energy": -0.02354,
				"method": "rhf"
			},
			{
				"type": "unocc",
				"energy": -0.00496,
				"method": "rhf"
			},
			{
				"type": "unocc",
				"energy": 0.00902,
				"method": "rhf"
			},
			{
				"type": "unocc",
				"energy": 0.01756,
				"method": "rhf"
			},
			{
				"type": "unocc",
				"energy": 0.05527,
				"method": "rhf"
			}
		],
		"cosmo_sigma_profile": { 
			"-0.025": 0.0,
			"-0.024": 0.0,
			"-0.023": 0.0,
			"-0.022": 0.0,
			"-0.021": 0.0,
			"-0.02": 0.0,
			"-0.019": 0.0,
			"-0.018": 0.0,
			"-0.017": 0.0,
			"-0.016": 0.0,
			"-0.015": 0.0,
			"-0.014": 0.0202024790967,
			"-0.013": 0.732125213578,
			"-0.012": 1.22619634673,
			"-0.011": 0.6193567985,
			"-0.01": 1.28976934045,
			"-0.009": 5.21995725844,
			"-0.008": 5.07580220537,
			"-0.007": 6.87354433672,
			"-0.006": 13.2606444647,
			"-0.005": 23.7104926445,
			"-0.004": 31.3618136029,
			"-0.003": 21.2587783386,
			"-0.002": 17.2429463872,
			"-0.001": 17.6550438104,
			"0.0": 14.8052670155,
			"0.001": 15.4679929077,
			"0.002": 14.7169978881,
			"0.003": 16.1372186273,
			"0.004": 19.9920322013,
			"0.005": 18.3145083093,
			"0.006": 5.3980419133,
			"0.007": 2.65538997782,
			"0.008": 3.34715376419,
			"0.009": 2.98908459145,
			"0.01": 3.01340465765,
			"0.011": 4.15548200541,
			"0.012": 5.72178216919,
			"0.013": 5.63740483454,
			"0.014": 1.80769227151,
			"0.015": 0.177661610472,
			"0.016": 0.0,
			"0.017": 0.0,
			"0.018": 0.0,
			"0.019": 0.0,
			"0.02": 0.0,
			"0.021": 0.0,
			"0.022": 0.0,
			"0.023": 0.0,
			"0.024": 0.0,
			"0.025": 0.0
		}
	}
}
