{
	 "smiles": "COC1=CC=C(C=C1I)C(O)=O", 
	 "Tm": 512.65, 
	 "num_atms": 19, 
	 "gaussian": { 
		 "optdone": 1, 
		 "sigma_profile": "no", 
		 "theory": "DFT", 
		 "functional": "B3LYP", 
		 "basiset": "6-31G**", 
		 "properties": { 
			 "R2extent": 2589.3272, 
			 "electric_dipole_moment_norm": 4.68447134371, 
			 "electric_quadrupole_moment_norm": 19.1294221776, 
			 "total_energy": -546.12093572, 
			 "HOMO_LUMO_gap": 0.19023, 
			 "cosmo_polarized_energy": -90683.02, 
			 "cosmo_cavitation_energy": 26.78, 
			 "cosmo_dispersion_energy": -21.04, 
			 "cosmo_repulsion_energy": 1.65, 
			 "cosmo_total_nonelectrostatic_energy": 7.4, 
			 "SMD_solvation_energy": 5.75 
		},
		"coords": [
			{
				"x": -3.1268528309,
				"y": 1.8177036362,
				"z": 2.4367717906,
				"element": "C" 
			},
			{
				"x": -2.0768290913,
				"y": 0.8634596141,
				"z": 2.560026041,
				"element": "O" 
			},
			{
				"x": -1.32698827,
				"y": 0.5702844083,
				"z": 1.4762915617,
				"element": "C" 
			},
			{
				"x": -1.5147911945,
				"y": 1.1439082453,
				"z": 0.2075101921,
				"element": "C" 
			},
			{
				"x": -0.6971011048,
				"y": 0.786016117,
				"z": -0.8573563567,
				"element": "C" 
			},
			{
				"x": 0.3175656148,
				"y": -0.1633773545,
				"z": -0.6967100122,
				"element": "C" 
			},
			{
				"x": 0.5195725093,
				"y": -0.7274204093,
				"z": 0.5727685496,
				"element": "C" 
			},
			{
				"x": -0.2889292544,
				"y": -0.3691555578,
				"z": 1.6447900578,
				"element": "C" 
			},
			{
				"x": 0.0546900936,
				"y": -1.2304691763,
				"z": 3.5432143131,
				"element": "I" 
			},
			{
				"x": 1.1604697094,
				"y": -0.4963261509,
				"z": -1.8870517966,
				"element": "C" 
			},
			{
				"x": 1.875590592,
				"y": -1.6527095532,
				"z": -1.8348095038,
				"element": "O" 
			},
			{
				"x": 1.2248463834,
				"y": 0.2072729361,
				"z": -2.8682879224,
				"element": "O" 
			},
			{
				"x": -2.7410735569,
				"y": 2.8007981939,
				"z": 2.1427089333,
				"element": "H" 
			},
			{
				"x": -3.8829530741,
				"y": 1.4892517641,
				"z": 1.7140316112,
				"element": "H" 
			},
			{
				"x": -3.57786467,
				"y": 1.8866742409,
				"z": 3.4267591913,
				"element": "H" 
			},
			{
				"x": -2.3004716699,
				"y": 1.8735382832,
				"z": 0.0534030347,
				"element": "H" 
			},
			{
				"x": -0.8331024813,
				"y": 1.2364106592,
				"z": -1.8344216882,
				"element": "H" 
			},
			{
				"x": 1.333750846,
				"y": -1.4229624399,
				"z": 0.7515183256,
				"element": "H" 
			},
			{
				"x": 1.5919714498,
				"y": -2.1926974563,
				"z": -1.0845563222,
				"element": "H" 
			}
		],
		 "valence_orbital": [ 
			{
				"type": "occ",
				"energy": -0.30643,
				"method": "rhf"
			},
			{
				"type": "occ",
				"energy": -0.27673,
				"method": "rhf"
			},
			{
				"type": "occ",
				"energy": -0.27103,
				"method": "rhf"
			},
			{
				"type": "occ",
				"energy": -0.26409,
				"method": "rhf"
			},
			{
				"type": "occ",
				"energy": -0.24029,
				"method": "rhf"
			},
			{
				"type": "unocc",
				"energy": -0.05006,
				"method": "rhf"
			},
			{
				"type": "unocc",
				"energy": -0.0452,
				"method": "rhf"
			},
			{
				"type": "unocc",
				"energy": -0.03492,
				"method": "rhf"
			},
			{
				"type": "unocc",
				"energy": 0.02987,
				"method": "rhf"
			},
			{
				"type": "unocc",
				"energy": 0.04336,
				"method": "rhf"
			}
		],
		"cosmo_sigma_profile": { 
			"0.0": 0.0,
			"0.0": 0.0,
			"0.0": 0.0,
			"0.0": 0.0,
			"0.0": 0.0,
			"0.0": 0.0,
			"0.0": 0.0,
			"0.0": 0.0,
			"0.0": 0.0,
			"0.0": 0.0,
			"0.0": 0.0,
			"0.0": 0.0,
			"0.0": 0.0,
			"0.0": 0.0,
			"0.0": 0.0,
			"0.0": 0.0,
			"0.0": 0.0,
			"0.0": 0.0,
			"0.0": 0.0,
			"0.0": 0.0,
			"0.0": 0.0,
			"0.0": 0.0,
			"0.0": 0.0,
			"0.0": 0.0,
			"0.0": 0.0,
			"0.0": 0.0,
			"0.0": 0.0,
			"0.0": 0.0,
			"0.0": 0.0,
			"0.0": 0.0,
			"0.0": 0.0,
			"0.0": 0.0,
			"0.0": 0.0,
			"0.0": 0.0,
			"0.0": 0.0,
			"0.0": 0.0,
			"0.0": 0.0,
			"0.0": 0.0,
			"0.0": 0.0,
			"0.0": 0.0,
			"0.0": 0.0,
			"0.0": 0.0,
			"0.0": 0.0,
			"0.0": 0.0,
			"0.0": 0.0,
			"0.0": 0.0,
			"0.0": 0.0,
			"0.0": 0.0,
			"0.0": 0.0,
			"0.0": 0.0,
			"0.0": 0.0
		}
	}
}
