{
	 "smiles": "ClC1=CC=C(CC(=O)N2CCNCC2)C=C1", 
	 "Tm": 379.15, 
	 "num_atms": 31, 
	 "gaussian": { 
		 "optdone": 1, 
		 "sigma_profile": "yes", 
		 "theory": "DFT", 
		 "functional": "B3LYP", 
		 "basiset": "6-31G**", 
		 "properties": { 
			 "R2extent": 5622.764, 
			 "electric_dipole_moment_norm": 3.21909008572, 
			 "electric_quadrupole_moment_norm": 13.704694384, 
			 "total_energy": -1111.23954976, 
			 "HOMO_LUMO_gap": 0.20514, 
			 "cosmo_polarized_energy": -13.69, 
			 "cosmo_cavitation_energy": 34.61, 
			 "cosmo_dispersion_energy": -24.53, 
			 "cosmo_repulsion_energy": 1.93, 
			 "cosmo_total_nonelectrostatic_energy": 12.0, 
			 "SMD_solvation_energy": 2.43 
		},
		"coords": [
			{
				"x": 0.0148436973,
				"y": -4.1805216353,
				"z": -3.2850384021,
				"element": "Cl" 
			},
			{
				"x": 0.7445257651,
				"y": -2.7069979766,
				"z": -2.6598431313,
				"element": "C" 
			},
			{
				"x": 0.7482169974,
				"y": -1.5566586988,
				"z": -3.4447641428,
				"element": "C" 
			},
			{
				"x": 1.3286226129,
				"y": -0.3921633621,
				"z": -2.937311206,
				"element": "C" 
			},
			{
				"x": 1.904343218,
				"y": -0.3638667106,
				"z": -1.6616761787,
				"element": "C" 
			},
			{
				"x": 2.552897824,
				"y": 0.9006291152,
				"z": -1.120315194,
				"element": "C" 
			},
			{
				"x": 2.0862172204,
				"y": 1.2287176189,
				"z": 0.3028368672,
				"element": "C" 
			},
			{
				"x": 2.6948496453,
				"y": 0.7647863879,
				"z": 1.2662274775,
				"element": "O" 
			},
			{
				"x": 0.9758888081,
				"y": 2.0190055986,
				"z": 0.4447130889,
				"element": "N" 
			},
			{
				"x": 0.1704336106,
				"y": 2.5372824472,
				"z": -0.6679812466,
				"element": "C" 
			},
			{
				"x": -1.2644998747,
				"y": 2.8422351411,
				"z": -0.1728623726,
				"element": "C" 
			},
			{
				"x": -1.7554759438,
				"y": 1.8575208547,
				"z": 0.7827522926,
				"element": "N" 
			},
			{
				"x": -0.9320759388,
				"y": 1.8256689543,
				"z": 2.0057534397,
				"element": "C" 
			},
			{
				"x": 0.5034296096,
				"y": 2.3573812594,
				"z": 1.7869195869,
				"element": "C" 
			},
			{
				"x": 1.8880527341,
				"y": -1.538123216,
				"z": -0.8940090498,
				"element": "C" 
			},
			{
				"x": 1.3118492252,
				"y": -2.707991978,
				"z": -1.3847553924,
				"element": "C" 
			},
			{
				"x": 0.3062386063,
				"y": -1.5703920844,
				"z": -4.434966598,
				"element": "H" 
			},
			{
				"x": 1.3388565765,
				"y": 0.5036265738,
				"z": -3.5534450721,
				"element": "H" 
			},
			{
				"x": 3.633538186,
				"y": 0.7526720973,
				"z": -1.0334466276,
				"element": "H" 
			},
			{
				"x": 2.3893135533,
				"y": 1.7316006703,
				"z": -1.8118463104,
				"element": "H" 
			},
			{
				"x": 0.1158825454,
				"y": 1.7776111664,
				"z": -1.4530024548,
				"element": "H" 
			},
			{
				"x": 0.6224116677,
				"y": 3.4409713758,
				"z": -1.1070516557,
				"element": "H" 
			},
			{
				"x": -1.936753518,
				"y": 2.8868674431,
				"z": -1.0358800422,
				"element": "H" 
			},
			{
				"x": -1.3021546191,
				"y": 3.8297718787,
				"z": 0.3016446824,
				"element": "H" 
			},
			{
				"x": -1.742190033,
				"y": 0.940248099,
				"z": 0.3457432348,
				"element": "H" 
			},
			{
				"x": -0.8975659436,
				"y": 0.7940077812,
				"z": 2.3688884784,
				"element": "H" 
			},
			{
				"x": -1.4119488854,
				"y": 2.4264562553,
				"z": 2.7907831853,
				"element": "H" 
			},
			{
				"x": 0.5294054971,
				"y": 3.4483860365,
				"z": 1.9083180306,
				"element": "H" 
			},
			{
				"x": 1.2048170015,
				"y": 1.9239085679,
				"z": 2.4992471649,
				"element": "H" 
			},
			{
				"x": 2.3297964423,
				"y": -1.5265600598,
				"z": 0.097953813,
				"element": "H" 
			},
			{
				"x": 1.3029337125,
				"y": -3.6130796008,
				"z": -0.787286265,
				"element": "H" 
			}
		],
		 "valence_orbital": [ 
			{
				"type": "occ",
				"energy": -0.26599,
				"method": "rhf"
			},
			{
				"type": "occ",
				"energy": -0.25453,
				"method": "rhf"
			},
			{
				"type": "occ",
				"energy": -0.24615,
				"method": "rhf"
			},
			{
				"type": "occ",
				"energy": -0.23898,
				"method": "rhf"
			},
			{
				"type": "occ",
				"energy": -0.22407,
				"method": "rhf"
			},
			{
				"type": "unocc",
				"energy": -0.01893,
				"method": "rhf"
			},
			{
				"type": "unocc",
				"energy": -0.01736,
				"method": "rhf"
			},
			{
				"type": "unocc",
				"energy": 0.0215,
				"method": "rhf"
			},
			{
				"type": "unocc",
				"energy": 0.03046,
				"method": "rhf"
			},
			{
				"type": "unocc",
				"energy": 0.0692,
				"method": "rhf"
			}
		],
		"cosmo_sigma_profile": { 
			"-0.025": 0.0,
			"-0.024": 0.0,
			"-0.023": 0.0,
			"-0.022": 0.0,
			"-0.021": 0.0,
			"-0.02": 0.0,
			"-0.019": 0.0,
			"-0.018": 0.0,
			"-0.017": 0.0,
			"-0.016": 0.0,
			"-0.015": 0.0,
			"-0.014": 0.0,
			"-0.013": 0.0,
			"-0.012": 0.0,
			"-0.011": 0.0250637970321,
			"-0.01": 0.901875663487,
			"-0.009": 1.57975611187,
			"-0.008": 1.5836616762,
			"-0.007": 6.97312426327,
			"-0.006": 11.1873961939,
			"-0.005": 21.1120978446,
			"-0.004": 30.7065257446,
			"-0.003": 29.8136209164,
			"-0.002": 25.3189245786,
			"-0.001": 18.3679232281,
			"0.0": 16.7908276716,
			"0.001": 15.4370137481,
			"0.002": 20.7745311346,
			"0.003": 17.0404567743,
			"0.004": 20.2669898783,
			"0.005": 11.2074267843,
			"0.006": 2.54820396069,
			"0.007": 1.7280112822,
			"0.008": 2.2710868631,
			"0.009": 1.5526024154,
			"0.01": 2.58819450612,
			"0.011": 2.05640611479,
			"0.012": 2.3243846308,
			"0.013": 2.59161873695,
			"0.014": 4.66515269744,
			"0.015": 1.85935224197,
			"0.016": 0.783058808218,
			"0.017": 0.520867377513,
			"0.018": 0.3989979938,
			"0.019": 0.0683574536407,
			"0.02": 0.0,
			"0.021": 0.0,
			"0.022": 0.0,
			"0.023": 0.0,
			"0.024": 0.0,
			"0.025": 0.0
		}
	}
}
