{
	 "smiles": "CC(=C/OC(=O)C1=CC=CC=C1)C(C)=NOC(=O)C1=CC=CC=C1", 
	 "Tm": 505.15, 
	 "num_atms": 41, 
	 "gaussian": { 
		 "optdone": 1, 
		 "sigma_profile": "yes", 
		 "theory": "DFT", 
		 "functional": "B3LYP", 
		 "basiset": "6-31G**", 
		 "properties": { 
			 "R2extent": 14185.5925, 
			 "electric_dipole_moment_norm": 5.9756201059, 
			 "electric_quadrupole_moment_norm": 10.2510731394, 
			 "total_energy": -1089.87119768, 
			 "HOMO_LUMO_gap": 0.16543, 
			 "cosmo_polarized_energy": -14.68, 
			 "cosmo_cavitation_energy": 47.47, 
			 "cosmo_dispersion_energy": -32.65, 
			 "cosmo_repulsion_energy": 2.47, 
			 "cosmo_total_nonelectrostatic_energy": 17.3, 
			 "SMD_solvation_energy": 10.74 
		},
		"coords": [
			{
				"x": -0.5041587441,
				"y": 0.046731702,
				"z": 0.8315894631,
				"element": "C" 
			},
			{
				"x": 0.389857177,
				"y": 0.3120598017,
				"z": -0.3533101033,
				"element": "C" 
			},
			{
				"x": 1.7148224155,
				"y": 0.5146231871,
				"z": -0.2358042932,
				"element": "C" 
			},
			{
				"x": 2.3214072993,
				"y": 0.4870813188,
				"z": 0.9987479883,
				"element": "O" 
			},
			{
				"x": 3.6813859803,
				"y": 0.6994515942,
				"z": 1.0433114948,
				"element": "C" 
			},
			{
				"x": 4.3463906019,
				"y": 0.9015011816,
				"z": 0.050327862,
				"element": "O" 
			},
			{
				"x": 4.2064053935,
				"y": 0.6485632858,
				"z": 2.4296049386,
				"element": "C" 
			},
			{
				"x": 5.583867524,
				"y": 0.8490526264,
				"z": 2.6059026251,
				"element": "C" 
			},
			{
				"x": 6.1355955211,
				"y": 0.813266222,
				"z": 3.8832247628,
				"element": "C" 
			},
			{
				"x": 5.3165492459,
				"y": 0.5774632262,
				"z": 4.9910727165,
				"element": "C" 
			},
			{
				"x": 3.944475372,
				"y": 0.3774903255,
				"z": 4.8193879637,
				"element": "C" 
			},
			{
				"x": 3.3864472574,
				"y": 0.4121655124,
				"z": 3.5430292727,
				"element": "C" 
			},
			{
				"x": -0.2137634397,
				"y": 0.3520659894,
				"z": -1.7004974637,
				"element": "C" 
			},
			{
				"x": 0.6239542826,
				"y": 0.6550738176,
				"z": -2.9189323795,
				"element": "C" 
			},
			{
				"x": -1.4846220987,
				"y": 0.1140213357,
				"z": -1.7149411961,
				"element": "N" 
			},
			{
				"x": -2.0149751168,
				"y": 0.1925057916,
				"z": -3.0261642929,
				"element": "O" 
			},
			{
				"x": -3.3732022375,
				"y": -0.02604092,
				"z": -3.1341240658,
				"element": "C" 
			},
			{
				"x": -3.9201905986,
				"y": 0.4562097533,
				"z": -4.0984862099,
				"element": "O" 
			},
			{
				"x": -4.0852114862,
				"y": -0.8729841657,
				"z": -2.1322634184,
				"element": "C" 
			},
			{
				"x": -3.4929579936,
				"y": -1.9522820987,
				"z": -1.4606376109,
				"element": "C" 
			},
			{
				"x": -4.2623310909,
				"y": -2.7586866591,
				"z": -0.6234121242,
				"element": "C" 
			},
			{
				"x": -5.6194961532,
				"y": -2.48655284,
				"z": -0.4362585818,
				"element": "C" 
			},
			{
				"x": -6.2149439563,
				"y": -1.4156688437,
				"z": -1.1068720429,
				"element": "C" 
			},
			{
				"x": -5.4550027564,
				"y": -0.6225365251,
				"z": -1.963050286,
				"element": "C" 
			},
			{
				"x": 0.0672822037,
				"y": 0.0477870584,
				"z": 1.7599481091,
				"element": "H" 
			},
			{
				"x": -1.2912088542,
				"y": 0.8040312161,
				"z": 0.8971654985,
				"element": "H" 
			},
			{
				"x": -1.0112807929,
				"y": -0.917309509,
				"z": 0.7283314371,
				"element": "H" 
			},
			{
				"x": 2.393690086,
				"y": 0.7073678197,
				"z": -1.054961155,
				"element": "H" 
			},
			{
				"x": 6.1988978987,
				"y": 1.0304568475,
				"z": 1.7311259562,
				"element": "H" 
			},
			{
				"x": 7.2018184338,
				"y": 0.9687943636,
				"z": 4.0170877269,
				"element": "H" 
			},
			{
				"x": 5.7473230876,
				"y": 0.5497162418,
				"z": 5.9878695881,
				"element": "H" 
			},
			{
				"x": 3.309270702,
				"y": 0.1947138416,
				"z": 5.6808648424,
				"element": "H" 
			},
			{
				"x": 2.3228659373,
				"y": 0.2580670565,
				"z": 3.4050804312,
				"element": "H" 
			},
			{
				"x": 1.1334360789,
				"y": 1.616252946,
				"z": -2.8009865042,
				"element": "H" 
			},
			{
				"x": 1.3937588906,
				"y": -0.1119521875,
				"z": -3.0529446902,
				"element": "H" 
			},
			{
				"x": 0.007668596,
				"y": 0.6927690993,
				"z": -3.8139958528,
				"element": "H" 
			},
			{
				"x": -2.440527898,
				"y": -2.165047123,
				"z": -1.600100608,
				"element": "H" 
			},
			{
				"x": -3.8012607491,
				"y": -3.6007742949,
				"z": -0.1155697141,
				"element": "H" 
			},
			{
				"x": -6.2124556686,
				"y": -3.1114632508,
				"z": 0.2256167311,
				"element": "H" 
			},
			{
				"x": -7.2714984526,
				"y": -1.2052266933,
				"z": -0.9700195843,
				"element": "H" 
			},
			{
				"x": -5.9067818976,
				"y": 0.1957419489,
				"z": -2.513457231,
				"element": "H" 
			}
		],
		 "valence_orbital": [ 
			{
				"type": "occ",
				"energy": -0.27236,
				"method": "rhf"
			},
			{
				"type": "occ",
				"energy": -0.26908,
				"method": "rhf"
			},
			{
				"type": "occ",
				"energy": -0.25574,
				"method": "rhf"
			},
			{
				"type": "occ",
				"energy": -0.25245,
				"method": "rhf"
			},
			{
				"type": "occ",
				"energy": -0.23286,
				"method": "rhf"
			},
			{
				"type": "unocc",
				"energy": -0.06743,
				"method": "rhf"
			},
			{
				"type": "unocc",
				"energy": -0.04326,
				"method": "rhf"
			},
			{
				"type": "unocc",
				"energy": -0.03229,
				"method": "rhf"
			},
			{
				"type": "unocc",
				"energy": -0.01793,
				"method": "rhf"
			},
			{
				"type": "unocc",
				"energy": -0.00493,
				"method": "rhf"
			}
		],
		"cosmo_sigma_profile": { 
			"-0.025": 0.0,
			"-0.024": 0.0,
			"-0.023": 0.0,
			"-0.022": 0.0,
			"-0.021": 0.0,
			"-0.02": 0.0,
			"-0.019": 0.0,
			"-0.018": 0.0,
			"-0.017": 0.0,
			"-0.016": 0.0,
			"-0.015": 0.0,
			"-0.014": 0.0,
			"-0.013": 0.0,
			"-0.012": 0.0,
			"-0.011": 0.0,
			"-0.01": 0.0,
			"-0.009": 0.0,
			"-0.008": 0.0751269470739,
			"-0.007": 7.07760362141,
			"-0.006": 24.8147042171,
			"-0.005": 27.1237590526,
			"-0.004": 31.156759989,
			"-0.003": 31.2858692847,
			"-0.002": 31.3419308739,
			"-0.001": 34.4042349353,
			"0.0": 35.432967385,
			"0.001": 32.1003358633,
			"0.002": 29.2649772452,
			"0.003": 28.057570087,
			"0.004": 24.4728718427,
			"0.005": 5.88732850961,
			"0.006": 5.36316995293,
			"0.007": 5.44709077359,
			"0.008": 4.08279395501,
			"0.009": 4.45547785179,
			"0.01": 6.35874237141,
			"0.011": 8.41350515801,
			"0.012": 3.19063877808,
			"0.013": 0.678765192073,
			"0.014": 0.0,
			"0.015": 0.0,
			"0.016": 0.0,
			"0.017": 0.0,
			"0.018": 0.0,
			"0.019": 0.0,
			"0.02": 0.0,
			"0.021": 0.0,
			"0.022": 0.0,
			"0.023": 0.0,
			"0.024": 0.0,
			"0.025": 0.0
		}
	}
}
