{
	 "smiles": "COC1=CC=C(C=C1)C(=NCC1=CC=CC=C1)C1=CC=C(OC)C=C1", 
	 "Tm": 363.15, 
	 "num_atms": 46, 
	 "gaussian": { 
		 "optdone": 1, 
		 "sigma_profile": "yes", 
		 "theory": "DFT", 
		 "functional": "B3LYP", 
		 "basiset": "6-31G**", 
		 "properties": { 
			 "R2extent": 11873.3004, 
			 "electric_dipole_moment_norm": 3.6211182665, 
			 "electric_quadrupole_moment_norm": 14.3285649397, 
			 "total_energy": -1056.16561451, 
			 "HOMO_LUMO_gap": 0.17772, 
			 "cosmo_polarized_energy": -12.63, 
			 "cosmo_cavitation_energy": 49.74, 
			 "cosmo_dispersion_energy": -34.14, 
			 "cosmo_repulsion_energy": 2.62, 
			 "cosmo_total_nonelectrostatic_energy": 18.22, 
			 "SMD_solvation_energy": 8.31 
		},
		"coords": [
			{
				"x": 3.7923620362,
				"y": -2.3291361023,
				"z": -2.8828275801,
				"element": "C" 
			},
			{
				"x": 3.8444326477,
				"y": -2.1054439746,
				"z": -1.4822552718,
				"element": "O" 
			},
			{
				"x": 2.8543645592,
				"y": -1.3639304715,
				"z": -0.9088509562,
				"element": "C" 
			},
			{
				"x": 1.7746031819,
				"y": -0.8034478588,
				"z": -1.6013408472,
				"element": "C" 
			},
			{
				"x": 0.8211740903,
				"y": -0.0560081251,
				"z": -0.9052721346,
				"element": "C" 
			},
			{
				"x": 0.9125600339,
				"y": 0.1399649551,
				"z": 0.4774654539,
				"element": "C" 
			},
			{
				"x": 1.9987496167,
				"y": -0.4407165946,
				"z": 1.1576300936,
				"element": "C" 
			},
			{
				"x": 2.9611522403,
				"y": -1.1743972338,
				"z": 0.4781065195,
				"element": "C" 
			},
			{
				"x": -0.1183317024,
				"y": 0.9475908858,
				"z": 1.2143492249,
				"element": "C" 
			},
			{
				"x": -0.397053833,
				"y": 2.1806163662,
				"z": 0.9796217028,
				"element": "N" 
			},
			{
				"x": 0.3326163715,
				"y": 2.9657480289,
				"z": 0.0011305426,
				"element": "C" 
			},
			{
				"x": -0.5216883729,
				"y": 3.3613076708,
				"z": -1.1968315021,
				"element": "C" 
			},
			{
				"x": 0.1001467534,
				"y": 3.8534647295,
				"z": -2.3528533136,
				"element": "C" 
			},
			{
				"x": -0.6547886708,
				"y": 4.2538605327,
				"z": -3.4550819779,
				"element": "C" 
			},
			{
				"x": -2.0484148132,
				"y": 4.1627896617,
				"z": -3.4200434194,
				"element": "C" 
			},
			{
				"x": -2.6752609465,
				"y": 3.6695417873,
				"z": -2.275176818,
				"element": "C" 
			},
			{
				"x": -1.9183365873,
				"y": 3.2722577931,
				"z": -1.1703391552,
				"element": "C" 
			},
			{
				"x": -0.8803808647,
				"y": 0.2677412467,
				"z": 2.3023058226,
				"element": "C" 
			},
			{
				"x": -0.9270474877,
				"y": -1.1267657062,
				"z": 2.4223872268,
				"element": "C" 
			},
			{
				"x": -1.6683370019,
				"y": -1.7504604056,
				"z": 3.4292984758,
				"element": "C" 
			},
			{
				"x": -2.3804630303,
				"y": -0.9706834409,
				"z": 4.3466053691,
				"element": "C" 
			},
			{
				"x": -3.1305636891,
				"y": -1.4660371875,
				"z": 5.370901145,
				"element": "O" 
			},
			{
				"x": -3.2051021401,
				"y": -2.8739890883,
				"z": 5.5309891625,
				"element": "C" 
			},
			{
				"x": -2.3443535831,
				"y": 0.4310265486,
				"z": 4.2399232592,
				"element": "C" 
			},
			{
				"x": -1.6099693637,
				"y": 1.0341999039,
				"z": 3.2344001274,
				"element": "C" 
			},
			{
				"x": 3.8362171073,
				"y": -1.3877109632,
				"z": -3.4452929939,
				"element": "H" 
			},
			{
				"x": 2.8865918042,
				"y": -2.8772945514,
				"z": -3.1723322656,
				"element": "H" 
			},
			{
				"x": 4.6688520957,
				"y": -2.9323043737,
				"z": -3.1242352298,
				"element": "H" 
			},
			{
				"x": 1.6644590696,
				"y": -0.9383745743,
				"z": -2.6707343672,
				"element": "H" 
			},
			{
				"x": -0.0107818159,
				"y": 0.378436762,
				"z": -1.4519260091,
				"element": "H" 
			},
			{
				"x": 2.0887715715,
				"y": -0.3085539569,
				"z": 2.2319397188,
				"element": "H" 
			},
			{
				"x": 3.8058938572,
				"y": -1.6152951617,
				"z": 0.9973319488,
				"element": "H" 
			},
			{
				"x": 0.6426669217,
				"y": 3.889080676,
				"z": 0.5138941829,
				"element": "H" 
			},
			{
				"x": 1.2512727928,
				"y": 2.4833930493,
				"z": -0.360763827,
				"element": "H" 
			},
			{
				"x": 1.1854183805,
				"y": 3.9216642386,
				"z": -2.3890398773,
				"element": "H" 
			},
			{
				"x": -0.155175575,
				"y": 4.6318917831,
				"z": -4.3430590391,
				"element": "H" 
			},
			{
				"x": -2.6383650577,
				"y": 4.4706754258,
				"z": -4.2788046236,
				"element": "H" 
			},
			{
				"x": -3.7587180803,
				"y": 3.5924606694,
				"z": -2.239182241,
				"element": "H" 
			},
			{
				"x": -2.4017975249,
				"y": 2.8894056686,
				"z": -0.277899857,
				"element": "H" 
			},
			{
				"x": -0.387047772,
				"y": -1.7460318071,
				"z": 1.7142280033,
				"element": "H" 
			},
			{
				"x": -1.6839198584,
				"y": -2.8325101015,
				"z": 3.4833885012,
				"element": "H" 
			},
			{
				"x": -3.845395142,
				"y": -3.045528188,
				"z": 6.3976234898,
				"element": "H" 
			},
			{
				"x": -3.649895346,
				"y": -3.3584110259,
				"z": 4.6522742488,
				"element": "H" 
			},
			{
				"x": -2.2169658004,
				"y": -3.3129389394,
				"z": 5.7197334587,
				"element": "H" 
			},
			{
				"x": -2.9004708894,
				"y": 1.0180823424,
				"z": 4.9638289396,
				"element": "H" 
			},
			{
				"x": -1.5820801829,
				"y": 2.1142691066,
				"z": 3.1429866889,
				"element": "H" 
			}
		],
		 "valence_orbital": [ 
			{
				"type": "occ",
				"energy": -0.24036,
				"method": "rhf"
			},
			{
				"type": "occ",
				"energy": -0.23722,
				"method": "rhf"
			},
			{
				"type": "occ",
				"energy": -0.22857,
				"method": "rhf"
			},
			{
				"type": "occ",
				"energy": -0.22186,
				"method": "rhf"
			},
			{
				"type": "occ",
				"energy": -0.2098,
				"method": "rhf"
			},
			{
				"type": "unocc",
				"energy": -0.03208,
				"method": "rhf"
			},
			{
				"type": "unocc",
				"energy": -0.00822,
				"method": "rhf"
			},
			{
				"type": "unocc",
				"energy": 0.00205,
				"method": "rhf"
			},
			{
				"type": "unocc",
				"energy": 0.00729,
				"method": "rhf"
			},
			{
				"type": "unocc",
				"energy": 0.00966,
				"method": "rhf"
			}
		],
		"cosmo_sigma_profile": { 
			"-0.025": 0.0,
			"-0.024": 0.0,
			"-0.023": 0.0,
			"-0.022": 0.0,
			"-0.021": 0.0,
			"-0.02": 0.0,
			"-0.019": 0.0,
			"-0.018": 0.0,
			"-0.017": 0.0,
			"-0.016": 0.0,
			"-0.015": 0.0,
			"-0.014": 0.0,
			"-0.013": 0.0,
			"-0.012": 0.0,
			"-0.011": 0.0,
			"-0.01": 0.0,
			"-0.009": 0.0,
			"-0.008": 0.0,
			"-0.007": 1.36866371935,
			"-0.006": 17.7893521584,
			"-0.005": 37.8073892981,
			"-0.004": 39.7577392571,
			"-0.003": 43.7977309218,
			"-0.002": 29.0251344411,
			"-0.001": 26.8970850652,
			"0.0": 24.7652732232,
			"0.001": 26.5833718409,
			"0.002": 24.7082445012,
			"0.003": 32.0576043984,
			"0.004": 32.7259284662,
			"0.005": 25.9234375097,
			"0.006": 13.0397586618,
			"0.007": 7.26114537078,
			"0.008": 4.36007651153,
			"0.009": 3.81746212116,
			"0.01": 3.77705505286,
			"0.011": 0.88086428094,
			"0.012": 0.19674167823,
			"0.013": 0.0,
			"0.014": 0.0,
			"0.015": 0.0,
			"0.016": 0.0,
			"0.017": 0.0,
			"0.018": 0.0,
			"0.019": 0.0,
			"0.02": 0.0,
			"0.021": 0.0,
			"0.022": 0.0,
			"0.023": 0.0,
			"0.024": 0.0,
			"0.025": 0.0
		}
	}
}
