{
	 "smiles": "FC1=CC=C(C=C1)C1(CCCCC1)C#N", 
	 "Tm": 308.65, 
	 "num_atms": 29, 
	 "gaussian": { 
		 "optdone": 1, 
		 "sigma_profile": "yes", 
		 "theory": "DFT", 
		 "functional": "B3LYP", 
		 "basiset": "6-31G**", 
		 "properties": { 
			 "R2extent": 5103.9206, 
			 "electric_dipole_moment_norm": 3.73797749324, 
			 "electric_quadrupole_moment_norm": 8.64107105109, 
			 "total_energy": -658.394800195, 
			 "HOMO_LUMO_gap": 0.22618, 
			 "cosmo_polarized_energy": -8.82, 
			 "cosmo_cavitation_energy": 31.06, 
			 "cosmo_dispersion_energy": -21.98, 
			 "cosmo_repulsion_energy": 1.69, 
			 "cosmo_total_nonelectrostatic_energy": 10.76, 
			 "SMD_solvation_energy": 6.09 
		},
		"coords": [
			{
				"x": 6.4866553466,
				"y": 0.8302132251,
				"z": -0.0606900626,
				"element": "F" 
			},
			{
				"x": 5.1965069608,
				"y": 0.4935214999,
				"z": 0.1426309657,
				"element": "C" 
			},
			{
				"x": 4.2189648087,
				"y": 1.029931737,
				"z": -0.6874505194,
				"element": "C" 
			},
			{
				"x": 2.8876436516,
				"y": 0.6799367008,
				"z": -0.468900556,
				"element": "C" 
			},
			{
				"x": 2.5232816383,
				"y": -0.1946292259,
				"z": 0.5664001414,
				"element": "C" 
			},
			{
				"x": 3.5379547099,
				"y": -0.7169274986,
				"z": 1.3793429696,
				"element": "C" 
			},
			{
				"x": 4.8759904016,
				"y": -0.3766627481,
				"z": 1.1757080046,
				"element": "C" 
			},
			{
				"x": 1.050505089,
				"y": -0.6071336438,
				"z": 0.741348032,
				"element": "C" 
			},
			{
				"x": 0.0447511183,
				"y": 0.6040814621,
				"z": 0.5910558206,
				"element": "C" 
			},
			{
				"x": -0.7226196891,
				"y": 0.5842164602,
				"z": -0.7377583467,
				"element": "C" 
			},
			{
				"x": -1.5656528219,
				"y": -0.6974440528,
				"z": -0.8956622183,
				"element": "C" 
			},
			{
				"x": -0.8168146579,
				"y": -1.9596663363,
				"z": -0.3901749184,
				"element": "C" 
			},
			{
				"x": 0.6951771715,
				"y": -1.7267911367,
				"z": -0.2988580379,
				"element": "C" 
			},
			{
				"x": 0.8506928506,
				"y": -1.1777820612,
				"z": 2.0879860635,
				"element": "C" 
			},
			{
				"x": 0.6625832467,
				"y": -1.6400878018,
				"z": 3.136916521,
				"element": "N" 
			},
			{
				"x": 4.503582025,
				"y": 1.7086717947,
				"z": -1.484123358,
				"element": "H" 
			},
			{
				"x": 2.1290993101,
				"y": 1.1015988292,
				"z": -1.1203235333,
				"element": "H" 
			},
			{
				"x": 3.2856550234,
				"y": -1.3902643452,
				"z": 2.1922072999,
				"element": "H" 
			},
			{
				"x": 5.6623949496,
				"y": -0.7740357366,
				"z": 1.8081205474,
				"element": "H" 
			},
			{
				"x": 0.5954605762,
				"y": 1.540439421,
				"z": 0.7152208315,
				"element": "H" 
			},
			{
				"x": -0.6809442192,
				"y": 0.563009444,
				"z": 1.4098032874,
				"element": "H" 
			},
			{
				"x": -1.3680666263,
				"y": 1.467848426,
				"z": -0.7926790608,
				"element": "H" 
			},
			{
				"x": -0.022172374,
				"y": 0.6719186334,
				"z": -1.5770667667,
				"element": "H" 
			},
			{
				"x": -1.842048791,
				"y": -0.8151141886,
				"z": -1.9493673682,
				"element": "H" 
			},
			{
				"x": -2.5055600991,
				"y": -0.5856035623,
				"z": -0.3432197786,
				"element": "H" 
			},
			{
				"x": -1.0163436673,
				"y": -2.8123670745,
				"z": -1.0473709297,
				"element": "H" 
			},
			{
				"x": -1.1854977559,
				"y": -2.2481310703,
				"z": 0.6012109286,
				"element": "H" 
			},
			{
				"x": 1.2229511539,
				"y": -2.6450019707,
				"z": -0.0238378248,
				"element": "H" 
			},
			{
				"x": 1.0940706701,
				"y": -1.4165451799,
				"z": -1.2705681338,
				"element": "H" 
			}
		],
		 "valence_orbital": [ 
			{
				"type": "occ",
				"energy": -0.32126,
				"method": "rhf"
			},
			{
				"type": "occ",
				"energy": -0.31319,
				"method": "rhf"
			},
			{
				"type": "occ",
				"energy": -0.30927,
				"method": "rhf"
			},
			{
				"type": "occ",
				"energy": -0.26714,
				"method": "rhf"
			},
			{
				"type": "occ",
				"energy": -0.24658,
				"method": "rhf"
			},
			{
				"type": "unocc",
				"energy": -0.0204,
				"method": "rhf"
			},
			{
				"type": "unocc",
				"energy": -0.00826,
				"method": "rhf"
			},
			{
				"type": "unocc",
				"energy": 0.03655,
				"method": "rhf"
			},
			{
				"type": "unocc",
				"energy": 0.04056,
				"method": "rhf"
			},
			{
				"type": "unocc",
				"energy": 0.06716,
				"method": "rhf"
			}
		],
		"cosmo_sigma_profile": { 
			"-0.025": 0.0,
			"-0.024": 0.0,
			"-0.023": 0.0,
			"-0.022": 0.0,
			"-0.021": 0.0,
			"-0.02": 0.0,
			"-0.019": 0.0,
			"-0.018": 0.0,
			"-0.017": 0.0,
			"-0.016": 0.0,
			"-0.015": 0.0,
			"-0.014": 0.0,
			"-0.013": 0.0,
			"-0.012": 0.0,
			"-0.011": 0.0,
			"-0.01": 0.0,
			"-0.009": 0.0,
			"-0.008": 0.336803307732,
			"-0.007": 4.36476976223,
			"-0.006": 7.43356868974,
			"-0.005": 11.1375288173,
			"-0.004": 18.9016137209,
			"-0.003": 26.4283366353,
			"-0.002": 34.9366328075,
			"-0.001": 29.343066463,
			"0.0": 23.0104644729,
			"0.001": 19.3713926857,
			"0.002": 12.2247984561,
			"0.003": 14.600740185,
			"0.004": 17.198462418,
			"0.005": 5.73140631386,
			"0.006": 1.75442139792,
			"0.007": 2.26649875542,
			"0.008": 2.42540813833,
			"0.009": 2.93256464409,
			"0.01": 3.1955687235,
			"0.011": 2.79807771833,
			"0.012": 2.63420665156,
			"0.013": 2.22227014441,
			"0.014": 0.362636626188,
			"0.015": 0.0,
			"0.016": 0.0,
			"0.017": 0.0,
			"0.018": 0.0,
			"0.019": 0.0,
			"0.02": 0.0,
			"0.021": 0.0,
			"0.022": 0.0,
			"0.023": 0.0,
			"0.024": 0.0,
			"0.025": 0.0
		}
	}
}
