{
	 "smiles": "[O-][N+](=O)C1=CC(=CC=C1)S(=O)(=O)OCC1CO1", 
	 "Tm": 336.15, 
	 "num_atms": 26, 
	 "gaussian": { 
		 "optdone": 1, 
		 "sigma_profile": "yes", 
		 "theory": "DFT", 
		 "functional": "B3LYP", 
		 "basiset": "6-31G**", 
		 "properties": { 
			 "R2extent": 5426.817, 
			 "electric_dipole_moment_norm": 3.13535202808, 
			 "electric_quadrupole_moment_norm": 30.4394174741, 
			 "total_energy": -1252.43123611, 
			 "HOMO_LUMO_gap": 0.17374, 
			 "cosmo_polarized_energy": -17.57, 
			 "cosmo_cavitation_energy": 33.61, 
			 "cosmo_dispersion_energy": -23.94, 
			 "cosmo_repulsion_energy": 1.84, 
			 "cosmo_total_nonelectrostatic_energy": 11.51, 
			 "SMD_solvation_energy": 7.25 
		},
		"coords": [
			{
				"x": -0.7142899406,
				"y": -1.9207806877,
				"z": -4.2116186139,
				"element": "O" 
			},
			{
				"x": -1.1447524847,
				"y": -1.0671794972,
				"z": -3.439031247,
				"element": "N" 
			},
			{
				"x": -1.7888638534,
				"y": -0.0741492217,
				"z": -3.7676304116,
				"element": "O" 
			},
			{
				"x": -0.8621572991,
				"y": -1.2488473587,
				"z": -2.0018041313,
				"element": "C" 
			},
			{
				"x": -1.344913841,
				"y": -0.3026990929,
				"z": -1.1027879682,
				"element": "C" 
			},
			{
				"x": -1.0589756172,
				"y": -0.5011364933,
				"z": 0.2449051272,
				"element": "C" 
			},
			{
				"x": -0.3314310042,
				"y": -1.6056958262,
				"z": 0.6951188012,
				"element": "C" 
			},
			{
				"x": 0.1347912898,
				"y": -2.5348949348,
				"z": -0.235809169,
				"element": "C" 
			},
			{
				"x": -0.1274287333,
				"y": -2.3608124192,
				"z": -1.5943225568,
				"element": "C" 
			},
			{
				"x": -1.6660667148,
				"y": 0.6843578381,
				"z": 1.4377694454,
				"element": "S" 
			},
			{
				"x": -2.765205569,
				"y": 1.4468636589,
				"z": 0.85234224,
				"element": "O" 
			},
			{
				"x": -1.8207499795,
				"y": 0.0334860948,
				"z": 2.7368245768,
				"element": "O" 
			},
			{
				"x": -0.3238451862,
				"y": 1.6292260892,
				"z": 1.4776323375,
				"element": "O" 
			},
			{
				"x": -0.3279171154,
				"y": 2.6698832103,
				"z": 2.4864743232,
				"element": "C" 
			},
			{
				"x": 1.0125670061,
				"y": 3.3628195392,
				"z": 2.4765906775,
				"element": "C" 
			},
			{
				"x": 1.9604706426,
				"y": 3.2845910825,
				"z": 1.3576558238,
				"element": "C" 
			},
			{
				"x": 2.1741582942,
				"y": 2.5456290981,
				"z": 2.5717823329,
				"element": "O" 
			},
			{
				"x": -1.9259322925,
				"y": 0.5440332201,
				"z": -1.4458213427,
				"element": "H" 
			},
			{
				"x": -0.1470571473,
				"y": -1.7320122121,
				"z": 1.7561944099,
				"element": "H" 
			},
			{
				"x": 0.7001907202,
				"y": -3.3984252566,
				"z": 0.0980943337,
				"element": "H" 
			},
			{
				"x": 0.2196236605,
				"y": -3.0660272914,
				"z": -2.3392036441,
				"element": "H" 
			},
			{
				"x": -1.1237296726,
				"y": 3.3902310694,
				"z": 2.2642010777,
				"element": "H" 
			},
			{
				"x": -0.5136055725,
				"y": 2.2178502791,
				"z": 3.466591285,
				"element": "H" 
			},
			{
				"x": 1.0227270752,
				"y": 4.2538022111,
				"z": 3.1098083097,
				"element": "H" 
			},
			{
				"x": 1.710156039,
				"y": 2.6818080185,
				"z": 0.4878529268,
				"element": "H" 
			},
			{
				"x": 2.6502372959,
				"y": 4.1099788825,
				"z": 1.1834910563,
				"element": "H" 
			}
		],
		 "valence_orbital": [ 
			{
				"type": "occ",
				"energy": -0.30824,
				"method": "rhf"
			},
			{
				"type": "occ",
				"energy": -0.30698,
				"method": "rhf"
			},
			{
				"type": "occ",
				"energy": -0.30452,
				"method": "rhf"
			},
			{
				"type": "occ",
				"energy": -0.30355,
				"method": "rhf"
			},
			{
				"type": "occ",
				"energy": -0.28087,
				"method": "rhf"
			},
			{
				"type": "unocc",
				"energy": -0.10713,
				"method": "rhf"
			},
			{
				"type": "unocc",
				"energy": -0.06752,
				"method": "rhf"
			},
			{
				"type": "unocc",
				"energy": -0.0252,
				"method": "rhf"
			},
			{
				"type": "unocc",
				"energy": 0.02616,
				"method": "rhf"
			},
			{
				"type": "unocc",
				"energy": 0.05572,
				"method": "rhf"
			}
		],
		"cosmo_sigma_profile": { 
			"-0.025": 0.0,
			"-0.024": 0.0,
			"-0.023": 0.0,
			"-0.022": 0.0,
			"-0.021": 0.0,
			"-0.02": 0.0,
			"-0.019": 0.0,
			"-0.018": 0.0,
			"-0.017": 0.0,
			"-0.016": 0.0,
			"-0.015": 0.0,
			"-0.014": 0.0,
			"-0.013": 0.0,
			"-0.012": 0.0,
			"-0.011": 0.0,
			"-0.01": 0.142471656356,
			"-0.009": 3.4598320074,
			"-0.008": 13.4358800118,
			"-0.007": 18.4120146676,
			"-0.006": 17.336584431,
			"-0.005": 16.3695226601,
			"-0.004": 17.7590074717,
			"-0.003": 20.4568439368,
			"-0.002": 23.3965617079,
			"-0.001": 19.6999131097,
			"0.0": 14.0234909894,
			"0.001": 10.4045236968,
			"0.002": 7.78681512997,
			"0.003": 6.18353612979,
			"0.004": 8.24266343586,
			"0.005": 7.43959064423,
			"0.006": 9.5716811121,
			"0.007": 13.8225883754,
			"0.008": 11.4439170288,
			"0.009": 13.9019409394,
			"0.01": 9.39863962603,
			"0.011": 4.46250964532,
			"0.012": 2.00381651747,
			"0.013": 0.120092171099,
			"0.014": 0.0,
			"0.015": 0.0,
			"0.016": 0.0,
			"0.017": 0.0,
			"0.018": 0.0,
			"0.019": 0.0,
			"0.02": 0.0,
			"0.021": 0.0,
			"0.022": 0.0,
			"0.023": 0.0,
			"0.024": 0.0,
			"0.025": 0.0
		}
	}
}
