{
	 "smiles": "CC(=O)NC1=CC=C2C(CC3=CC=CC=C23)=C1", 
	 "Tm": 467.15, 
	 "num_atms": 30, 
	 "gaussian": { 
		 "optdone": 1, 
		 "sigma_profile": "yes", 
		 "theory": "DFT", 
		 "functional": "B3LYP", 
		 "basiset": "6-31G**", 
		 "properties": { 
			 "R2extent": 5582.0618, 
			 "electric_dipole_moment_norm": 2.94259817168, 
			 "electric_quadrupole_moment_norm": 21.1026175708, 
			 "total_energy": -709.440141015, 
			 "HOMO_LUMO_gap": 0.16778, 
			 "cosmo_polarized_energy": -13.01, 
			 "cosmo_cavitation_energy": 33.46, 
			 "cosmo_dispersion_energy": -24.56, 
			 "cosmo_repulsion_energy": 1.87, 
			 "cosmo_total_nonelectrostatic_energy": 10.76, 
			 "SMD_solvation_energy": 5.72 
		},
		"coords": [
			{
				"x": 2.5454472926,
				"y": -3.8199812819,
				"z": -0.1393180778,
				"element": "C" 
			},
			{
				"x": 1.6703540606,
				"y": -4.190967924,
				"z": 1.0391821746,
				"element": "C" 
			},
			{
				"x": 1.8716585306,
				"y": -5.2071455146,
				"z": 1.6907501952,
				"element": "O" 
			},
			{
				"x": 0.6106700493,
				"y": -3.3739972866,
				"z": 1.405606428,
				"element": "N" 
			},
			{
				"x": 0.0490770985,
				"y": -2.1656694717,
				"z": 0.9507051303,
				"element": "C" 
			},
			{
				"x": -1.0717188998,
				"y": -1.6991759631,
				"z": 1.6715272338,
				"element": "C" 
			},
			{
				"x": -1.7222522858,
				"y": -0.519777782,
				"z": 1.3290471805,
				"element": "C" 
			},
			{
				"x": -1.2573302376,
				"y": 0.2261758284,
				"z": 0.2433348247,
				"element": "C" 
			},
			{
				"x": -0.1404360739,
				"y": -0.2333726927,
				"z": -0.4793901645,
				"element": "C" 
			},
			{
				"x": 0.1787454254,
				"y": 0.7321725274,
				"z": -1.6041808132,
				"element": "C" 
			},
			{
				"x": -0.8856479617,
				"y": 1.7998530838,
				"z": -1.4426334481,
				"element": "C" 
			},
			{
				"x": -1.1043146329,
				"y": 2.9512847468,
				"z": -2.1896515106,
				"element": "C" 
			},
			{
				"x": -2.1665426384,
				"y": 3.7948510964,
				"z": -1.8426144942,
				"element": "C" 
			},
			{
				"x": -2.9961326624,
				"y": 3.4837540718,
				"z": -0.7597126478,
				"element": "C" 
			},
			{
				"x": -2.7813323805,
				"y": 2.3281104461,
				"z": -0.0053063552,
				"element": "C" 
			},
			{
				"x": -1.7219638934,
				"y": 1.4850934691,
				"z": -0.3499451354,
				"element": "C" 
			},
			{
				"x": 0.5149983488,
				"y": -1.4117008739,
				"z": -0.1426819231,
				"element": "C" 
			},
			{
				"x": 3.0389305292,
				"y": -2.8555022846,
				"z": 0.0156924727,
				"element": "H" 
			},
			{
				"x": 1.9661929758,
				"y": -3.7618340413,
				"z": -1.0660617145,
				"element": "H" 
			},
			{
				"x": 3.3012580675,
				"y": -4.5987411991,
				"z": -0.2363608309,
				"element": "H" 
			},
			{
				"x": 0.1424897655,
				"y": -3.7780206346,
				"z": 2.208263081,
				"element": "H" 
			},
			{
				"x": -1.4311190214,
				"y": -2.2821223336,
				"z": 2.5160805524,
				"element": "H" 
			},
			{
				"x": -2.5815712395,
				"y": -0.1932475924,
				"z": 1.9078676883,
				"element": "H" 
			},
			{
				"x": 0.1283000992,
				"y": 0.2459660993,
				"z": -2.5876594542,
				"element": "H" 
			},
			{
				"x": 1.1926307544,
				"y": 1.1446147072,
				"z": -1.5141661263,
				"element": "H" 
			},
			{
				"x": -0.4629969596,
				"y": 3.1981268301,
				"z": -3.0321130508,
				"element": "H" 
			},
			{
				"x": -2.3479286133,
				"y": 4.6977101548,
				"z": -2.4185186682,
				"element": "H" 
			},
			{
				"x": -3.8162467298,
				"y": 4.148320305,
				"z": -0.502878372,
				"element": "H" 
			},
			{
				"x": -3.429961249,
				"y": 2.0934127747,
				"z": 0.8342854557,
				"element": "H" 
			},
			{
				"x": 1.3687424817,
				"y": -1.7288892647,
				"z": -0.7236496305,
				"element": "H" 
			}
		],
		 "valence_orbital": [ 
			{
				"type": "occ",
				"energy": -0.2591,
				"method": "rhf"
			},
			{
				"type": "occ",
				"energy": -0.25698,
				"method": "rhf"
			},
			{
				"type": "occ",
				"energy": -0.25588,
				"method": "rhf"
			},
			{
				"type": "occ",
				"energy": -0.24544,
				"method": "rhf"
			},
			{
				"type": "occ",
				"energy": -0.20192,
				"method": "rhf"
			},
			{
				"type": "unocc",
				"energy": -0.03414,
				"method": "rhf"
			},
			{
				"type": "unocc",
				"energy": -0.01689,
				"method": "rhf"
			},
			{
				"type": "unocc",
				"energy": 0.00471,
				"method": "rhf"
			},
			{
				"type": "unocc",
				"energy": 0.01637,
				"method": "rhf"
			},
			{
				"type": "unocc",
				"energy": 0.05338,
				"method": "rhf"
			}
		],
		"cosmo_sigma_profile": { 
			"-0.025": 0.0,
			"-0.024": 0.0,
			"-0.023": 0.0,
			"-0.022": 0.0,
			"-0.021": 0.0,
			"-0.02": 0.0,
			"-0.019": 0.0,
			"-0.018": 0.0,
			"-0.017": 0.0,
			"-0.016": 0.0,
			"-0.015": 0.0,
			"-0.014": 0.540545830281,
			"-0.013": 1.19353201849,
			"-0.012": 1.14253542675,
			"-0.011": 1.15446932069,
			"-0.01": 1.14316198725,
			"-0.009": 0.797701245804,
			"-0.008": 1.62535460317,
			"-0.007": 3.36115768025,
			"-0.006": 15.5155571055,
			"-0.005": 24.5408728826,
			"-0.004": 22.8531874934,
			"-0.003": 25.611593574,
			"-0.002": 22.1761351972,
			"-0.001": 16.8968434725,
			"0.0": 14.430442815,
			"0.001": 14.739689409,
			"0.002": 14.6592252934,
			"0.003": 17.4449843111,
			"0.004": 19.1741234351,
			"0.005": 18.8804776667,
			"0.006": 9.69179043801,
			"0.007": 3.41184827586,
			"0.008": 1.17747518418,
			"0.009": 0.7646979305,
			"0.01": 1.03426788948,
			"0.011": 2.15656951257,
			"0.012": 2.27902162594,
			"0.013": 5.40145475466,
			"0.014": 3.17238221299,
			"0.015": 0.318632801788,
			"0.016": 0.0,
			"0.017": 0.0,
			"0.018": 0.0,
			"0.019": 0.0,
			"0.02": 0.0,
			"0.021": 0.0,
			"0.022": 0.0,
			"0.023": 0.0,
			"0.024": 0.0,
			"0.025": 0.0
		}
	}
}
