{
	 "smiles": "CCCCCCCCCCCCCCCC(C)C", 
	 "Tm": 279.0, 
	 "num_atms": 56, 
	 "gaussian": { 
		 "optdone": 1, 
		 "sigma_profile": "yes", 
		 "theory": "DFT", 
		 "functional": "B3LYP", 
		 "basiset": "6-31G**", 
		 "properties": { 
			 "R2extent": 10795.0708, 
			 "electric_dipole_moment_norm": 0.134769432736, 
			 "electric_quadrupole_moment_norm": 0.578793451933, 
			 "total_energy": -708.870385602, 
			 "HOMO_LUMO_gap": 0.36006, 
			 "cosmo_polarized_energy": -1.23, 
			 "cosmo_cavitation_energy": 52.42, 
			 "cosmo_dispersion_energy": -34.46, 
			 "cosmo_repulsion_energy": 2.78, 
			 "cosmo_total_nonelectrostatic_energy": 20.74, 
			 "SMD_solvation_energy": 7.03 
		},
		"coords": [
			{
				"x": 1.9037267134,
				"y": 4.7173043558,
				"z": -0.8950382104,
				"element": "C" 
			},
			{
				"x": 0.9429978763,
				"y": 5.7779131971,
				"z": -0.3437307616,
				"element": "C" 
			},
			{
				"x": -0.2576455147,
				"y": 5.2083709603,
				"z": 0.4307910757,
				"element": "C" 
			},
			{
				"x": -1.2366442849,
				"y": 4.3927470857,
				"z": -0.4271253536,
				"element": "C" 
			},
			{
				"x": -2.5171148685,
				"y": 3.9589209862,
				"z": 0.3085325519,
				"element": "C" 
			},
			{
				"x": -2.3143338703,
				"y": 3.0222127879,
				"z": 1.5150433104,
				"element": "C" 
			},
			{
				"x": -1.6302426504,
				"y": 1.6744201927,
				"z": 1.2195985853,
				"element": "C" 
			},
			{
				"x": -2.4233702352,
				"y": 0.7556083001,
				"z": 0.2794380315,
				"element": "C" 
			},
			{
				"x": -1.7602507225,
				"y": -0.5933567778,
				"z": -0.0562781087,
				"element": "C" 
			},
			{
				"x": -1.5406335082,
				"y": -1.5546690682,
				"z": 1.1355246742,
				"element": "C" 
			},
			{
				"x": -0.1423370047,
				"y": -1.4843261399,
				"z": 1.7721970448,
				"element": "C" 
			},
			{
				"x": 0.0449310522,
				"y": -2.4209158562,
				"z": 2.9818642275,
				"element": "C" 
			},
			{
				"x": 0.0898124407,
				"y": -3.9385368415,
				"z": 2.6868136723,
				"element": "C" 
			},
			{
				"x": 1.4942203466,
				"y": -4.5308258463,
				"z": 2.4541435491,
				"element": "C" 
			},
			{
				"x": 2.2618547732,
				"y": -4.0592425744,
				"z": 1.2061591471,
				"element": "C" 
			},
			{
				"x": 1.61931106,
				"y": -4.3753642836,
				"z": -0.1604287724,
				"element": "C" 
			},
			{
				"x": 1.4499913824,
				"y": -5.8844375363,
				"z": -0.3939444308,
				"element": "C" 
			},
			{
				"x": 2.4445038195,
				"y": -3.7445201272,
				"z": -1.2925575098,
				"element": "C" 
			},
			{
				"x": 2.2898856723,
				"y": 4.0795888027,
				"z": -0.0909674307,
				"element": "H" 
			},
			{
				"x": 1.4169303354,
				"y": 4.0660908503,
				"z": -1.6282308723,
				"element": "H" 
			},
			{
				"x": 2.7627175989,
				"y": 5.1824486098,
				"z": -1.3900110736,
				"element": "H" 
			},
			{
				"x": 1.5008738951,
				"y": 6.4517610027,
				"z": 0.3192288001,
				"element": "H" 
			},
			{
				"x": 0.5754963636,
				"y": 6.4021078718,
				"z": -1.1700950284,
				"element": "H" 
			},
			{
				"x": 0.1157287965,
				"y": 4.5932735545,
				"z": 1.2608823348,
				"element": "H" 
			},
			{
				"x": -0.8062691047,
				"y": 6.040677221,
				"z": 0.893621322,
				"element": "H" 
			},
			{
				"x": -0.7293613713,
				"y": 3.5096556079,
				"z": -0.835250935,
				"element": "H" 
			},
			{
				"x": -1.5275890419,
				"y": 4.9976715663,
				"z": -1.2973624088,
				"element": "H" 
			},
			{
				"x": -3.1927526533,
				"y": 3.4832814177,
				"z": -0.4134596816,
				"element": "H" 
			},
			{
				"x": -3.0432068644,
				"y": 4.857753886,
				"z": 0.6587770878,
				"element": "H" 
			},
			{
				"x": -3.2968792329,
				"y": 2.825942996,
				"z": 1.9661078033,
				"element": "H" 
			},
			{
				"x": -1.734649838,
				"y": 3.5462438412,
				"z": 2.2854200189,
				"element": "H" 
			},
			{
				"x": -1.4710576637,
				"y": 1.1631609769,
				"z": 2.1768964821,
				"element": "H" 
			},
			{
				"x": -0.6288701942,
				"y": 1.8461857432,
				"z": 0.8013663372,
				"element": "H" 
			},
			{
				"x": -3.4122152182,
				"y": 0.5642591738,
				"z": 0.7217016821,
				"element": "H" 
			},
			{
				"x": -2.6144980882,
				"y": 1.2810567106,
				"z": -0.6650547648,
				"element": "H" 
			},
			{
				"x": -2.3931906127,
				"y": -1.0910367808,
				"z": -0.8015187071,
				"element": "H" 
			},
			{
				"x": -0.7996244288,
				"y": -0.4115166541,
				"z": -0.5589427499,
				"element": "H" 
			},
			{
				"x": -1.7197509053,
				"y": -2.5825146715,
				"z": 0.7966578951,
				"element": "H" 
			},
			{
				"x": -2.301050921,
				"y": -1.3622318419,
				"z": 1.906402411,
				"element": "H" 
			},
			{
				"x": 0.6074243364,
				"y": -1.7030679227,
				"z": 1.0016639422,
				"element": "H" 
			},
			{
				"x": 0.0569120219,
				"y": -0.4564043215,
				"z": 2.0975566651,
				"element": "H" 
			},
			{
				"x": -0.7740326933,
				"y": -2.2209152772,
				"z": 3.6861204242,
				"element": "H" 
			},
			{
				"x": 0.9643655406,
				"y": -2.1400252571,
				"z": 3.5135754134,
				"element": "H" 
			},
			{
				"x": -0.3418113642,
				"y": -4.4699785823,
				"z": 3.5442518391,
				"element": "H" 
			},
			{
				"x": -0.5653872937,
				"y": -4.1786057881,
				"z": 1.8400191574,
				"element": "H" 
			},
			{
				"x": 1.4073404318,
				"y": -5.6246406535,
				"z": 2.4304653006,
				"element": "H" 
			},
			{
				"x": 2.109751184,
				"y": -4.3049238351,
				"z": 3.3359613615,
				"element": "H" 
			},
			{
				"x": 2.4332839842,
				"y": -2.9770267482,
				"z": 1.2728924466,
				"element": "H" 
			},
			{
				"x": 3.2617985788,
				"y": -4.5171259554,
				"z": 1.2267288637,
				"element": "H" 
			},
			{
				"x": 0.6198501432,
				"y": -3.9181599295,
				"z": -0.1865300677,
				"element": "H" 
			},
			{
				"x": 2.4195100484,
				"y": -6.3967383362,
				"z": -0.3519785966,
				"element": "H" 
			},
			{
				"x": 0.797017159,
				"y": -6.3477185342,
				"z": 0.3521528078,
				"element": "H" 
			},
			{
				"x": 1.0144097774,
				"y": -6.0816563034,
				"z": -1.37964173,
				"element": "H" 
			},
			{
				"x": 2.5381555401,
				"y": -2.6603544407,
				"z": -1.1640126994,
				"element": "H" 
			},
			{
				"x": 1.9859896104,
				"y": -3.9275155746,
				"z": -2.2705602921,
				"element": "H" 
			},
			{
				"x": 3.4581796669,
				"y": -4.1635052386,
				"z": -1.3181360809,
				"element": "H" 
			}
		],
		 "valence_orbital": [ 
			{
				"type": "occ",
				"energy": -0.30244,
				"method": "rhf"
			},
			{
				"type": "occ",
				"energy": -0.30116,
				"method": "rhf"
			},
			{
				"type": "occ",
				"energy": -0.299,
				"method": "rhf"
			},
			{
				"type": "occ",
				"energy": -0.29122,
				"method": "rhf"
			},
			{
				"type": "occ",
				"energy": -0.29014,
				"method": "rhf"
			},
			{
				"type": "unocc",
				"energy": 0.06992,
				"method": "rhf"
			},
			{
				"type": "unocc",
				"energy": 0.08078,
				"method": "rhf"
			},
			{
				"type": "unocc",
				"energy": 0.09505,
				"method": "rhf"
			},
			{
				"type": "unocc",
				"energy": 0.09839,
				"method": "rhf"
			},
			{
				"type": "unocc",
				"energy": 0.10641,
				"method": "rhf"
			}
		],
		"cosmo_sigma_profile": { 
			"-0.025": 0.0,
			"-0.024": 0.0,
			"-0.023": 0.0,
			"-0.022": 0.0,
			"-0.021": 0.0,
			"-0.02": 0.0,
			"-0.019": 0.0,
			"-0.018": 0.0,
			"-0.017": 0.0,
			"-0.016": 0.0,
			"-0.015": 0.0,
			"-0.014": 0.0,
			"-0.013": 0.0,
			"-0.012": 0.0,
			"-0.011": 0.0,
			"-0.01": 0.0,
			"-0.009": 0.0,
			"-0.008": 0.0,
			"-0.007": 0.0,
			"-0.006": 0.0,
			"-0.005": 0.0,
			"-0.004": 0.0,
			"-0.003": 2.92776160956,
			"-0.002": 45.7720558504,
			"-0.001": 96.8799685209,
			"0.0": 110.313260921,
			"0.001": 92.3503619185,
			"0.002": 49.3220265314,
			"0.003": 1.96463392943,
			"0.004": 0.0,
			"0.005": 0.0,
			"0.006": 0.0,
			"0.007": 0.0,
			"0.008": 0.0,
			"0.009": 0.0,
			"0.01": 0.0,
			"0.011": 0.0,
			"0.012": 0.0,
			"0.013": 0.0,
			"0.014": 0.0,
			"0.015": 0.0,
			"0.016": 0.0,
			"0.017": 0.0,
			"0.018": 0.0,
			"0.019": 0.0,
			"0.02": 0.0,
			"0.021": 0.0,
			"0.022": 0.0,
			"0.023": 0.0,
			"0.024": 0.0,
			"0.025": 0.0
		}
	}
}
