{
	 "smiles": "COC(=O)[C@@H]1C[C@@H]2CSCN2[C@@]11C(=O)C2=CC=CC3=C2C1=CC=C3", 
	 "Tm": 445.0, 
	 "num_atms": 41, 
	 "gaussian": { 
		 "optdone": 1, 
		 "sigma_profile": "yes", 
		 "theory": "DFT", 
		 "functional": "B3LYP", 
		 "basiset": "6-31G**", 
		 "properties": { 
			 "R2extent": 7301.9026, 
			 "electric_dipole_moment_norm": 3.34129194325, 
			 "electric_quadrupole_moment_norm": 17.8679193724, 
			 "total_energy": -1412.87929932, 
			 "HOMO_LUMO_gap": 0.13749, 
			 "cosmo_polarized_energy": -16.69, 
			 "cosmo_cavitation_energy": 43.16, 
			 "cosmo_dispersion_energy": -29.28, 
			 "cosmo_repulsion_energy": 2.17, 
			 "cosmo_total_nonelectrostatic_energy": 16.04, 
			 "SMD_solvation_energy": 6.68 
		},
		"coords": [
			{
				"x": -3.9247870061,
				"y": 1.8195492193,
				"z": 0.0150048314,
				"element": "C" 
			},
			{
				"x": -3.2306961714,
				"y": 0.571467375,
				"z": -0.1538845012,
				"element": "O" 
			},
			{
				"x": -2.4060402281,
				"y": 0.2214892344,
				"z": 0.8551385956,
				"element": "C" 
			},
			{
				"x": -2.2636200094,
				"y": 0.8775863393,
				"z": 1.8647997914,
				"element": "O" 
			},
			{
				"x": -1.7033949912,
				"y": -1.08545291,
				"z": 0.5400332313,
				"element": "C" 
			},
			{
				"x": -0.8515296828,
				"y": -1.6231627612,
				"z": 1.7035980409,
				"element": "C" 
			},
			{
				"x": 0.3244051856,
				"y": -2.3659623477,
				"z": 1.0356231735,
				"element": "C" 
			},
			{
				"x": 1.7332642162,
				"y": -1.870253376,
				"z": 1.4713629555,
				"element": "C" 
			},
			{
				"x": 2.827055597,
				"y": -1.9838855259,
				"z": 0.0012619972,
				"element": "S" 
			},
			{
				"x": 1.3648121886,
				"y": -2.33114697,
				"z": -1.143485855,
				"element": "C" 
			},
			{
				"x": 0.157195447,
				"y": -2.1228075584,
				"z": -0.3989877801,
				"element": "N" 
			},
			{
				"x": -0.7356996487,
				"y": -0.9966023847,
				"z": -0.6815424834,
				"element": "C" 
			},
			{
				"x": -1.5283368448,
				"y": -1.2832681175,
				"z": -2.0241583755,
				"element": "C" 
			},
			{
				"x": -2.231662812,
				"y": -2.255518547,
				"z": -2.2009318909,
				"element": "O" 
			},
			{
				"x": -1.2468088765,
				"y": -0.1737213693,
				"z": -2.9623914902,
				"element": "C" 
			},
			{
				"x": -1.6564287318,
				"y": 0.0681963707,
				"z": -4.2585496245,
				"element": "C" 
			},
			{
				"x": -1.222667688,
				"y": 1.263240871,
				"z": -4.8839052314,
				"element": "C" 
			},
			{
				"x": -0.4146082499,
				"y": 2.1823136351,
				"z": -4.2286110807,
				"element": "C" 
			},
			{
				"x": 0.0140462779,
				"y": 1.9579949444,
				"z": -2.8920085344,
				"element": "C" 
			},
			{
				"x": -0.4215890607,
				"y": 0.754139652,
				"z": -2.2911502795,
				"element": "C" 
			},
			{
				"x": -0.0947461251,
				"y": 0.3682379461,
				"z": -0.9680101785,
				"element": "C" 
			},
			{
				"x": 0.6894025898,
				"y": 1.219270328,
				"z": -0.2206040458,
				"element": "C" 
			},
			{
				"x": 1.1441498655,
				"y": 2.4385975828,
				"z": -0.7992981456,
				"element": "C" 
			},
			{
				"x": 0.8269850843,
				"y": 2.8078367746,
				"z": -2.0923816865,
				"element": "C" 
			},
			{
				"x": -4.5305356238,
				"y": 1.9420684245,
				"z": -0.8823826113,
				"element": "H" 
			},
			{
				"x": -4.5575304859,
				"y": 1.7880893473,
				"z": 0.9052566832,
				"element": "H" 
			},
			{
				"x": -3.2129627496,
				"y": 2.64254258,
				"z": 0.1145535208,
				"element": "H" 
			},
			{
				"x": -2.4632887655,
				"y": -1.8207580437,
				"z": 0.2523930307,
				"element": "H" 
			},
			{
				"x": -1.438709031,
				"y": -2.2772554313,
				"z": 2.3527991568,
				"element": "H" 
			},
			{
				"x": -0.5025695143,
				"y": -0.7904945912,
				"z": 2.3195631037,
				"element": "H" 
			},
			{
				"x": 0.278732119,
				"y": -3.4468370966,
				"z": 1.2205377235,
				"element": "H" 
			},
			{
				"x": 2.1390005569,
				"y": -2.4867203993,
				"z": 2.2772993125,
				"element": "H" 
			},
			{
				"x": 1.6965596092,
				"y": -0.8338217698,
				"z": 1.8178275466,
				"element": "H" 
			},
			{
				"x": 1.4634044881,
				"y": -3.3702305026,
				"z": -1.4700173753,
				"element": "H" 
			},
			{
				"x": 1.4186653061,
				"y": -1.6736125623,
				"z": -2.0140297768,
				"element": "H" 
			},
			{
				"x": -2.2933374641,
				"y": -0.6378175105,
				"z": -4.782537213,
				"element": "H" 
			},
			{
				"x": -1.5326407758,
				"y": 1.4664208769,
				"z": -5.9048507357,
				"element": "H" 
			},
			{
				"x": -0.1040103185,
				"y": 3.088468317,
				"z": -4.7426503964,
				"element": "H" 
			},
			{
				"x": 0.965018441,
				"y": 0.9901571268,
				"z": 0.8032163663,
				"element": "H" 
			},
			{
				"x": 1.7625785599,
				"y": 3.0968939539,
				"z": -0.1961378157,
				"element": "H" 
			},
			{
				"x": 1.1942253228,
				"y": 3.7458688759,
				"z": -2.4998619536,
				"element": "H" 
			}
		],
		 "valence_orbital": [ 
			{
				"type": "occ",
				"energy": -0.2587,
				"method": "rhf"
			},
			{
				"type": "occ",
				"energy": -0.2569,
				"method": "rhf"
			},
			{
				"type": "occ",
				"energy": -0.23203,
				"method": "rhf"
			},
			{
				"type": "occ",
				"energy": -0.21744,
				"method": "rhf"
			},
			{
				"type": "occ",
				"energy": -0.21249,
				"method": "rhf"
			},
			{
				"type": "unocc",
				"energy": -0.075,
				"method": "rhf"
			},
			{
				"type": "unocc",
				"energy": -0.03355,
				"method": "rhf"
			},
			{
				"type": "unocc",
				"energy": -0.01748,
				"method": "rhf"
			},
			{
				"type": "unocc",
				"energy": 0.0046,
				"method": "rhf"
			},
			{
				"type": "unocc",
				"energy": 0.02713,
				"method": "rhf"
			}
		],
		"cosmo_sigma_profile": { 
			"-0.025": 0.0,
			"-0.024": 0.0,
			"-0.023": 0.0,
			"-0.022": 0.0,
			"-0.021": 0.0,
			"-0.02": 0.0,
			"-0.019": 0.0,
			"-0.018": 0.0,
			"-0.017": 0.0,
			"-0.016": 0.0,
			"-0.015": 0.0,
			"-0.014": 0.0,
			"-0.013": 0.0,
			"-0.012": 0.00507866616178,
			"-0.011": 0.0586578103324,
			"-0.01": 0.193736108492,
			"-0.009": 0.274842691192,
			"-0.008": 1.20678702544,
			"-0.007": 9.07166902358,
			"-0.006": 24.4990766228,
			"-0.005": 36.0467487432,
			"-0.004": 37.3151777388,
			"-0.003": 31.3999009794,
			"-0.002": 22.6119487849,
			"-0.001": 20.0737566772,
			"0.0": 17.0829457717,
			"0.001": 19.9643033129,
			"0.002": 26.3055033034,
			"0.003": 22.3106264176,
			"0.004": 13.9948319806,
			"0.005": 10.1285839211,
			"0.006": 8.62488522244,
			"0.007": 7.82400916068,
			"0.008": 5.73693739113,
			"0.009": 5.86099453726,
			"0.01": 6.78768677777,
			"0.011": 10.2595719085,
			"0.012": 6.57639028348,
			"0.013": 0.552080932869,
			"0.014": 0.0,
			"0.015": 0.0,
			"0.016": 0.0,
			"0.017": 0.0,
			"0.018": 0.0,
			"0.019": 0.0,
			"0.02": 0.0,
			"0.021": 0.0,
			"0.022": 0.0,
			"0.023": 0.0,
			"0.024": 0.0,
			"0.025": 0.0
		}
	}
}
