{
	 "smiles": "FC1=CC=C(OC2=CC=CC(F)=C2C#N)C=C1", 
	 "Tm": 346.65, 
	 "num_atms": 24, 
	 "gaussian": { 
		 "optdone": 1, 
		 "sigma_profile": "yes", 
		 "theory": "DFT", 
		 "functional": "B3LYP", 
		 "basiset": "6-31G**", 
		 "properties": { 
			 "R2extent": 6391.1079, 
			 "electric_dipole_moment_norm": 5.65124588564, 
			 "electric_quadrupole_moment_norm": 14.8567422216, 
			 "total_energy": -829.213646053, 
			 "HOMO_LUMO_gap": 0.1966, 
			 "cosmo_polarized_energy": -11.8, 
			 "cosmo_cavitation_energy": 31.71, 
			 "cosmo_dispersion_energy": -21.65, 
			 "cosmo_repulsion_energy": 1.64, 
			 "cosmo_total_nonelectrostatic_energy": 11.69, 
			 "SMD_solvation_energy": 7.93 
		},
		"coords": [
			{
				"x": -1.4616900392,
				"y": 4.8677430937,
				"z": 3.5377630648,
				"element": "F" 
			},
			{
				"x": -1.4107470909,
				"y": 3.7429183632,
				"z": 2.7974858468,
				"element": "C" 
			},
			{
				"x": -0.1972186658,
				"y": 3.0740321109,
				"z": 2.6717608579,
				"element": "C" 
			},
			{
				"x": -0.1463267593,
				"y": 1.910463997,
				"z": 1.9042749731,
				"element": "C" 
			},
			{
				"x": -1.3065821164,
				"y": 1.4454166553,
				"z": 1.2857332195,
				"element": "C" 
			},
			{
				"x": -1.2371411406,
				"y": 0.3299247108,
				"z": 0.4539795609,
				"element": "O" 
			},
			{
				"x": -1.4334811999,
				"y": -0.9165751762,
				"z": 0.9696044982,
				"element": "C" 
			},
			{
				"x": -1.7224926225,
				"y": -1.1817564508,
				"z": 2.3100452134,
				"element": "C" 
			},
			{
				"x": -1.9053848991,
				"y": -2.5016829207,
				"z": 2.7254307098,
				"element": "C" 
			},
			{
				"x": -1.8070249324,
				"y": -3.5693342212,
				"z": 1.8331878459,
				"element": "C" 
			},
			{
				"x": -1.5197545913,
				"y": -3.2857062203,
				"z": 0.5062173824,
				"element": "C" 
			},
			{
				"x": -1.4188643129,
				"y": -4.2898698287,
				"z": -0.375480041,
				"element": "F" 
			},
			{
				"x": -1.3274534032,
				"y": -1.9774745392,
				"z": 0.0405156257,
				"element": "C" 
			},
			{
				"x": -1.0332357438,
				"y": -1.7343517606,
				"z": -1.3348145129,
				"element": "C" 
			},
			{
				"x": -0.7939834327,
				"y": -1.5481002136,
				"z": -2.4574498619,
				"element": "N" 
			},
			{
				"x": -2.5171225183,
				"y": 2.1258459424,
				"z": 1.4135244252,
				"element": "C" 
			},
			{
				"x": -2.5722605709,
				"y": 3.2900930115,
				"z": 2.1798207375,
				"element": "C" 
			},
			{
				"x": 0.6855646501,
				"y": 3.4676850715,
				"z": 3.1631476958,
				"element": "H" 
			},
			{
				"x": 0.7845037432,
				"y": 1.3692902761,
				"z": 1.7724628505,
				"element": "H" 
			},
			{
				"x": -1.8029802862,
				"y": -0.3653266602,
				"z": 3.0164561054,
				"element": "H" 
			},
			{
				"x": -2.1297812227,
				"y": -2.6995865906,
				"z": 3.7689658914,
				"element": "H" 
			},
			{
				"x": -1.9466399994,
				"y": -4.5982106272,
				"z": 2.1423975287,
				"element": "H" 
			},
			{
				"x": -3.3989142926,
				"y": 1.7490803467,
				"z": 0.906423044,
				"element": "H" 
			},
			{
				"x": -3.4946885533,
				"y": 3.8477816301,
				"z": 2.2974473387,
				"element": "H" 
			}
		],
		 "valence_orbital": [ 
			{
				"type": "occ",
				"energy": -0.32884,
				"method": "rhf"
			},
			{
				"type": "occ",
				"energy": -0.28257,
				"method": "rhf"
			},
			{
				"type": "occ",
				"energy": -0.26615,
				"method": "rhf"
			},
			{
				"type": "occ",
				"energy": -0.2577,
				"method": "rhf"
			},
			{
				"type": "occ",
				"energy": -0.2518,
				"method": "rhf"
			},
			{
				"type": "unocc",
				"energy": -0.0552,
				"method": "rhf"
			},
			{
				"type": "unocc",
				"energy": -0.03072,
				"method": "rhf"
			},
			{
				"type": "unocc",
				"energy": -0.01717,
				"method": "rhf"
			},
			{
				"type": "unocc",
				"energy": -0.01498,
				"method": "rhf"
			},
			{
				"type": "unocc",
				"energy": 0.03425,
				"method": "rhf"
			}
		],
		"cosmo_sigma_profile": { 
			"-0.025": 0.0,
			"-0.024": 0.0,
			"-0.023": 0.0,
			"-0.022": 0.0,
			"-0.021": 0.0,
			"-0.02": 0.0,
			"-0.019": 0.0,
			"-0.018": 0.0,
			"-0.017": 0.0,
			"-0.016": 0.0,
			"-0.015": 0.0,
			"-0.014": 0.0,
			"-0.013": 0.0,
			"-0.012": 0.0,
			"-0.011": 0.0,
			"-0.01": 0.0,
			"-0.009": 0.281383579194,
			"-0.008": 7.4042554162,
			"-0.007": 14.2381848562,
			"-0.006": 13.7447770459,
			"-0.005": 12.7197433697,
			"-0.004": 10.1956451789,
			"-0.003": 14.6328942681,
			"-0.002": 18.3711473825,
			"-0.001": 24.5034629352,
			"0.0": 22.4647416161,
			"0.001": 25.1783294389,
			"0.002": 26.291917306,
			"0.003": 22.0730572663,
			"0.004": 14.1951318509,
			"0.005": 5.16273945315,
			"0.006": 5.18975479593,
			"0.007": 4.9145430045,
			"0.008": 3.69079952186,
			"0.009": 3.32547386942,
			"0.01": 2.91661433387,
			"0.011": 2.71924965594,
			"0.012": 2.42225479853,
			"0.013": 0.951921560621,
			"0.014": 0.0,
			"0.015": 0.0,
			"0.016": 0.0,
			"0.017": 0.0,
			"0.018": 0.0,
			"0.019": 0.0,
			"0.02": 0.0,
			"0.021": 0.0,
			"0.022": 0.0,
			"0.023": 0.0,
			"0.024": 0.0,
			"0.025": 0.0
		}
	}
}
