{
	 "smiles": "OC(=O)C1=C(F)C(F)=C(O)C(F)=C1F", 
	 "Tm": 422.15, 
	 "num_atms": 16, 
	 "gaussian": { 
		 "optdone": 1, 
		 "sigma_profile": "yes", 
		 "theory": "DFT", 
		 "functional": "B3LYP", 
		 "basiset": "6-31G**", 
		 "properties": { 
			 "R2extent": 3576.4978, 
			 "electric_dipole_moment_norm": 1.37180044467, 
			 "electric_quadrupole_moment_norm": 16.3030885298, 
			 "total_energy": -892.933839368, 
			 "HOMO_LUMO_gap": 0.19929, 
			 "cosmo_polarized_energy": -12.8, 
			 "cosmo_cavitation_energy": 23.77, 
			 "cosmo_dispersion_energy": -17.22, 
			 "cosmo_repulsion_energy": 1.28, 
			 "cosmo_total_nonelectrostatic_energy": 7.82, 
			 "SMD_solvation_energy": 7.65 
		},
		"coords": [
			{
				"x": -4.098147479,
				"y": -0.3438941017,
				"z": -2.5095880512,
				"element": "O" 
			},
			{
				"x": -3.181670832,
				"y": 0.5658398055,
				"z": -2.1102675153,
				"element": "C" 
			},
			{
				"x": -3.2764001491,
				"y": 1.7459592506,
				"z": -2.3702518398,
				"element": "O" 
			},
			{
				"x": -2.0739703884,
				"y": -0.0377596908,
				"z": -1.3165897578,
				"element": "C" 
			},
			{
				"x": -1.7016411283,
				"y": -1.3924677367,
				"z": -1.397605349,
				"element": "C" 
			},
			{
				"x": -2.3373690224,
				"y": -2.2367898069,
				"z": -2.212962478,
				"element": "F" 
			},
			{
				"x": -0.6429960969,
				"y": -1.9153449075,
				"z": -0.6620262816,
				"element": "C" 
			},
			{
				"x": -0.3193306195,
				"y": -3.2084267831,
				"z": -0.7837043575,
				"element": "F" 
			},
			{
				"x": 0.0910510316,
				"y": -1.0970218511,
				"z": 0.200075533,
				"element": "C" 
			},
			{
				"x": 1.1127407963,
				"y": -1.6121675967,
				"z": 0.9127222241,
				"element": "O" 
			},
			{
				"x": -0.2720264229,
				"y": 0.2489495422,
				"z": 0.2898249095,
				"element": "C" 
			},
			{
				"x": 0.4401532756,
				"y": 1.0283559752,
				"z": 1.1347866806,
				"element": "F" 
			},
			{
				"x": -1.3201580468,
				"y": 0.7749155147,
				"z": -0.4493909036,
				"element": "C" 
			},
			{
				"x": -1.6025643966,
				"y": 2.0660992321,
				"z": -0.2827013236,
				"element": "F" 
			},
			{
				"x": -4.7542441463,
				"y": 0.1585615255,
				"z": -3.0216935175,
				"element": "H" 
			},
			{
				"x": 1.4966736247,
				"y": -0.9004083713,
				"z": 1.4471720276,
				"element": "H" 
			}
		],
		 "valence_orbital": [ 
			{
				"type": "occ",
				"energy": -0.34926,
				"method": "rhf"
			},
			{
				"type": "occ",
				"energy": -0.32571,
				"method": "rhf"
			},
			{
				"type": "occ",
				"energy": -0.28833,
				"method": "rhf"
			},
			{
				"type": "occ",
				"energy": -0.26216,
				"method": "rhf"
			},
			{
				"type": "occ",
				"energy": -0.25838,
				"method": "rhf"
			},
			{
				"type": "unocc",
				"energy": -0.05909,
				"method": "rhf"
			},
			{
				"type": "unocc",
				"energy": -0.01924,
				"method": "rhf"
			},
			{
				"type": "unocc",
				"energy": 0.01123,
				"method": "rhf"
			},
			{
				"type": "unocc",
				"energy": 0.03786,
				"method": "rhf"
			},
			{
				"type": "unocc",
				"energy": 0.07295,
				"method": "rhf"
			}
		],
		"cosmo_sigma_profile": { 
			"-0.025": 0.0,
			"-0.024": 0.0,
			"-0.023": 0.0,
			"-0.022": 0.0,
			"-0.021": 0.0,
			"-0.02": 0.0,
			"-0.019": 0.464726925286,
			"-0.018": 1.74661904803,
			"-0.017": 1.93378599265,
			"-0.016": 1.51215166993,
			"-0.015": 1.37185788858,
			"-0.014": 0.785720041027,
			"-0.013": 1.23517137134,
			"-0.012": 3.10198974431,
			"-0.011": 1.66873044078,
			"-0.01": 1.2007935607,
			"-0.009": 1.62978923464,
			"-0.008": 1.96143871721,
			"-0.007": 2.69073599271,
			"-0.006": 1.77460022962,
			"-0.005": 4.19235327828,
			"-0.004": 10.8475978229,
			"-0.003": 22.4133163894,
			"-0.002": 12.8730532748,
			"-0.001": 9.6585630696,
			"0.0": 9.33442661429,
			"0.001": 8.46301291364,
			"0.002": 21.7083578899,
			"0.003": 27.7310269692,
			"0.004": 7.48318113543,
			"0.005": 5.01071159387,
			"0.006": 5.36201879722,
			"0.007": 5.34841881197,
			"0.008": 6.05772962656,
			"0.009": 2.77132784287,
			"0.01": 3.3380893231,
			"0.011": 5.43453800595,
			"0.012": 1.11303815711,
			"0.013": 0.0,
			"0.014": 0.0,
			"0.015": 0.0,
			"0.016": 0.0,
			"0.017": 0.0,
			"0.018": 0.0,
			"0.019": 0.0,
			"0.02": 0.0,
			"0.021": 0.0,
			"0.022": 0.0,
			"0.023": 0.0,
			"0.024": 0.0,
			"0.025": 0.0
		}
	}
}
