{
	 "smiles": "NC(=O)C1=C(Br)C=C(F)C=C1", 
	 "Tm": 437.15, 
	 "num_atms": 16, 
	 "gaussian": { 
		 "optdone": 1, 
		 "sigma_profile": "yes", 
		 "theory": "DFT", 
		 "functional": "B3LYP", 
		 "basiset": "6-31G**", 
		 "properties": { 
			 "R2extent": 2798.3134, 
			 "electric_dipole_moment_norm": 2.11461624651, 
			 "electric_quadrupole_moment_norm": 11.175449731, 
			 "total_energy": -3070.98425456, 
			 "HOMO_LUMO_gap": 0.20991, 
			 "cosmo_polarized_energy": -9.96, 
			 "cosmo_cavitation_energy": 23.11, 
			 "cosmo_dispersion_energy": -17.61, 
			 "cosmo_repulsion_energy": 1.38, 
			 "cosmo_total_nonelectrostatic_energy": 6.89, 
			 "SMD_solvation_energy": 4.19 
		},
		"coords": [
			{
				"x": -1.7792682851,
				"y": 1.5927193114,
				"z": -0.8656127419,
				"element": "N" 
			},
			{
				"x": -0.4745827821,
				"y": 1.5233868444,
				"z": -0.4917020064,
				"element": "C" 
			},
			{
				"x": 0.1433504691,
				"y": 2.5221485664,
				"z": -0.1360515981,
				"element": "O" 
			},
			{
				"x": 0.2484813769,
				"y": 0.1907565197,
				"z": -0.5916382638,
				"element": "C" 
			},
			{
				"x": -0.2637532401,
				"y": -1.1183638474,
				"z": -0.6006128184,
				"element": "C" 
			},
			{
				"x": -2.1343647439,
				"y": -1.5485063357,
				"z": -0.4337568568,
				"element": "Br" 
			},
			{
				"x": 0.5690610493,
				"y": -2.2340729691,
				"z": -0.6937390165,
				"element": "C" 
			},
			{
				"x": 1.9406721164,
				"y": -2.0399958953,
				"z": -0.7840408863,
				"element": "C" 
			},
			{
				"x": 2.7376089839,
				"y": -3.1178061695,
				"z": -0.8800254226,
				"element": "F" 
			},
			{
				"x": 2.502526775,
				"y": -0.7692586251,
				"z": -0.769320729,
				"element": "C" 
			},
			{
				"x": 1.648609803,
				"y": 0.3198242724,
				"z": -0.6667452323,
				"element": "C" 
			},
			{
				"x": -2.228374568,
				"y": 2.4886045998,
				"z": -0.7499956404,
				"element": "H" 
			},
			{
				"x": -2.3365266162,
				"y": 0.7811403198,
				"z": -1.0778552323,
				"element": "H" 
			},
			{
				"x": 0.1660660513,
				"y": -3.2387951873,
				"z": -0.6904222285,
				"element": "H" 
			},
			{
				"x": 3.5779833068,
				"y": -0.6489457828,
				"z": -0.8332330955,
				"element": "H" 
			},
			{
				"x": 2.0409103038,
				"y": 1.3297643784,
				"z": -0.6318482312,
				"element": "H" 
			}
		],
		 "valence_orbital": [ 
			{
				"type": "occ",
				"energy": -0.31227,
				"method": "rhf"
			},
			{
				"type": "occ",
				"energy": -0.27305,
				"method": "rhf"
			},
			{
				"type": "occ",
				"energy": -0.26803,
				"method": "rhf"
			},
			{
				"type": "occ",
				"energy": -0.26265,
				"method": "rhf"
			},
			{
				"type": "occ",
				"energy": -0.25556,
				"method": "rhf"
			},
			{
				"type": "unocc",
				"energy": -0.04565,
				"method": "rhf"
			},
			{
				"type": "unocc",
				"energy": -0.03082,
				"method": "rhf"
			},
			{
				"type": "unocc",
				"energy": -0.01885,
				"method": "rhf"
			},
			{
				"type": "unocc",
				"energy": 0.055,
				"method": "rhf"
			},
			{
				"type": "unocc",
				"energy": 0.09368,
				"method": "rhf"
			}
		],
		"cosmo_sigma_profile": { 
			"-0.025": 0.0,
			"-0.024": 0.0,
			"-0.023": 0.0,
			"-0.022": 0.0,
			"-0.021": 0.0,
			"-0.02": 0.0,
			"-0.019": 0.0,
			"-0.018": 0.0,
			"-0.017": 0.0,
			"-0.016": 0.0,
			"-0.015": 0.0455510355425,
			"-0.014": 1.03219728067,
			"-0.013": 0.873147475778,
			"-0.012": 1.21296589532,
			"-0.011": 1.7833016818,
			"-0.01": 2.28236013932,
			"-0.009": 2.50659749005,
			"-0.008": 4.38049128445,
			"-0.007": 5.286655692,
			"-0.006": 8.19181778434,
			"-0.005": 7.18292584849,
			"-0.004": 7.69973996137,
			"-0.003": 9.06552513598,
			"-0.002": 11.1810686106,
			"-0.001": 17.2934338783,
			"0.0": 22.4905901294,
			"0.001": 22.8206540546,
			"0.002": 16.0085514852,
			"0.003": 17.1525742074,
			"0.004": 9.58950506832,
			"0.005": 2.48577912029,
			"0.006": 1.91753418856,
			"0.007": 1.09215612721,
			"0.008": 1.54609207116,
			"0.009": 1.07281591199,
			"0.01": 1.57269533388,
			"0.011": 1.55650147929,
			"0.012": 2.20018412993,
			"0.013": 4.58520717856,
			"0.014": 2.8459023586,
			"0.015": 0.0968553855109,
			"0.016": 0.0,
			"0.017": 0.0,
			"0.018": 0.0,
			"0.019": 0.0,
			"0.02": 0.0,
			"0.021": 0.0,
			"0.022": 0.0,
			"0.023": 0.0,
			"0.024": 0.0,
			"0.025": 0.0
		}
	}
}
