{
	 "smiles": "CN(C)C(=O)C1=CC(NC(=O)OCC(F)(F)F)=C(Cl)C=C1", 
	 "Tm": 370.15, 
	 "num_atms": 33, 
	 "gaussian": { 
		 "optdone": 1, 
		 "sigma_profile": "yes", 
		 "theory": "DFT", 
		 "functional": "B3LYP", 
		 "basiset": "6-31G**", 
		 "properties": { 
			 "R2extent": 10614.0771, 
			 "electric_dipole_moment_norm": 5.64757236518, 
			 "electric_quadrupole_moment_norm": 14.8299891612, 
			 "total_energy": -1559.42482251, 
			 "HOMO_LUMO_gap": 0.19842, 
			 "cosmo_polarized_energy": -18.42, 
			 "cosmo_cavitation_energy": 40.74, 
			 "cosmo_dispersion_energy": -27.81, 
			 "cosmo_repulsion_energy": 2.09, 
			 "cosmo_total_nonelectrostatic_energy": 15.02, 
			 "SMD_solvation_energy": 9.53 
		},
		"coords": [
			{
				"x": 0.8484409073,
				"y": 0.9700957846,
				"z": -3.5697245496,
				"element": "C" 
			},
			{
				"x": 1.0780697378,
				"y": 1.9963807399,
				"z": -2.5608202105,
				"element": "N" 
			},
			{
				"x": 1.5159338071,
				"y": 3.2848586343,
				"z": -3.0850104963,
				"element": "C" 
			},
			{
				"x": 0.5906237817,
				"y": 1.9635417635,
				"z": -1.2734480785,
				"element": "C" 
			},
			{
				"x": 0.4550908879,
				"y": 2.9835335517,
				"z": -0.6005523519,
				"element": "O" 
			},
			{
				"x": 0.2679778951,
				"y": 0.6264030464,
				"z": -0.6558348889,
				"element": "C" 
			},
			{
				"x": -0.8248121883,
				"y": 0.5708354028,
				"z": 0.2150248651,
				"element": "C" 
			},
			{
				"x": -1.1584297142,
				"y": -0.5999421414,
				"z": 0.8982235084,
				"element": "C" 
			},
			{
				"x": -2.3211517073,
				"y": -0.6214233074,
				"z": 1.7147303872,
				"element": "N" 
			},
			{
				"x": -2.3793943303,
				"y": -0.6979138172,
				"z": 3.0828047421,
				"element": "C" 
			},
			{
				"x": -3.4094361921,
				"y": -0.6478071399,
				"z": 3.7215521545,
				"element": "O" 
			},
			{
				"x": -1.1279226124,
				"y": -0.8063650935,
				"z": 3.6175806323,
				"element": "O" 
			},
			{
				"x": -1.0710364636,
				"y": -0.9976150241,
				"z": 5.02544493,
				"element": "C" 
			},
			{
				"x": -0.7442101491,
				"y": -2.4481530711,
				"z": 5.3395283023,
				"element": "C" 
			},
			{
				"x": -0.6975049454,
				"y": -2.6100205155,
				"z": 6.6803193493,
				"element": "F" 
			},
			{
				"x": 0.4493402117,
				"y": -2.8152396244,
				"z": 4.8374139938,
				"element": "F" 
			},
			{
				"x": -1.6739044259,
				"y": -3.2857813573,
				"z": 4.8464839121,
				"element": "F" 
			},
			{
				"x": -0.3544798614,
				"y": -1.7397664136,
				"z": 0.711677227,
				"element": "C" 
			},
			{
				"x": -0.7540530279,
				"y": -3.2520517601,
				"z": 1.4858298983,
				"element": "Cl" 
			},
			{
				"x": 0.7727338933,
				"y": -1.6811804356,
				"z": -0.107874751,
				"element": "C" 
			},
			{
				"x": 1.0790800594,
				"y": -0.5070851015,
				"z": -0.7924190996,
				"element": "C" 
			},
			{
				"x": 0.3240395245,
				"y": 0.1162157079,
				"z": -3.1456315716,
				"element": "H" 
			},
			{
				"x": 1.794614236,
				"y": 0.6234672718,
				"z": -4.0041316074,
				"element": "H" 
			},
			{
				"x": 0.2339243105,
				"y": 1.3776480282,
				"z": -4.3836125814,
				"element": "H" 
			},
			{
				"x": 0.7305826007,
				"y": 3.7586864291,
				"z": -3.6897400332,
				"element": "H" 
			},
			{
				"x": 1.7572029098,
				"y": 3.9431387752,
				"z": -2.2524994013,
				"element": "H" 
			},
			{
				"x": 2.3987315569,
				"y": 3.1392493177,
				"z": -3.7168098527,
				"element": "H" 
			},
			{
				"x": -1.4136657889,
				"y": 1.4675300997,
				"z": 0.3774605653,
				"element": "H" 
			},
			{
				"x": -3.2110453547,
				"y": -0.3980760811,
				"z": 1.2925642291,
				"element": "H" 
			},
			{
				"x": -0.2703420796,
				"y": -0.3661225976,
				"z": 5.4153141047,
				"element": "H" 
			},
			{
				"x": -2.025435528,
				"y": -0.7396010095,
				"z": 5.4874756042,
				"element": "H" 
			},
			{
				"x": 1.3978417068,
				"y": -2.5608510834,
				"z": -0.2127530048,
				"element": "H" 
			},
			{
				"x": 1.9648963427,
				"y": -0.4735889786,
				"z": -1.4183659271,
				"element": "H" 
			}
		],
		 "valence_orbital": [ 
			{
				"type": "occ",
				"energy": -0.28803,
				"method": "rhf"
			},
			{
				"type": "occ",
				"energy": -0.27368,
				"method": "rhf"
			},
			{
				"type": "occ",
				"energy": -0.25861,
				"method": "rhf"
			},
			{
				"type": "occ",
				"energy": -0.25134,
				"method": "rhf"
			},
			{
				"type": "occ",
				"energy": -0.24503,
				"method": "rhf"
			},
			{
				"type": "unocc",
				"energy": -0.04661,
				"method": "rhf"
			},
			{
				"type": "unocc",
				"energy": -0.03192,
				"method": "rhf"
			},
			{
				"type": "unocc",
				"energy": 0.02389,
				"method": "rhf"
			},
			{
				"type": "unocc",
				"energy": 0.03448,
				"method": "rhf"
			},
			{
				"type": "unocc",
				"energy": 0.04265,
				"method": "rhf"
			}
		],
		"cosmo_sigma_profile": { 
			"-0.025": 0.0,
			"-0.024": 0.0,
			"-0.023": 0.0,
			"-0.022": 0.0,
			"-0.021": 0.0,
			"-0.02": 0.0,
			"-0.019": 0.0,
			"-0.018": 0.0,
			"-0.017": 0.0,
			"-0.016": 0.45172345871,
			"-0.015": 1.5171006644,
			"-0.014": 0.800151375141,
			"-0.013": 0.76990336915,
			"-0.012": 1.12921802475,
			"-0.011": 1.38318243364,
			"-0.01": 1.55659702201,
			"-0.009": 3.12427684273,
			"-0.008": 5.92904231325,
			"-0.007": 10.3010878911,
			"-0.006": 10.3686669911,
			"-0.005": 20.1887587515,
			"-0.004": 24.9879578536,
			"-0.003": 26.1064968103,
			"-0.002": 27.7083125387,
			"-0.001": 20.1410866164,
			"0.0": 16.9020472618,
			"0.001": 22.3190783183,
			"0.002": 37.9948134762,
			"0.003": 34.6371905369,
			"0.004": 16.2045040712,
			"0.005": 6.50914745186,
			"0.006": 4.09629374309,
			"0.007": 3.45724427972,
			"0.008": 2.99068453282,
			"0.009": 2.70794555895,
			"0.01": 3.30164149197,
			"0.011": 4.34362076878,
			"0.012": 6.44226213006,
			"0.013": 4.62636075413,
			"0.014": 3.00737926515,
			"0.015": 0.208224696648,
			"0.016": 0.0,
			"0.017": 0.0,
			"0.018": 0.0,
			"0.019": 0.0,
			"0.02": 0.0,
			"0.021": 0.0,
			"0.022": 0.0,
			"0.023": 0.0,
			"0.024": 0.0,
			"0.025": 0.0
		}
	}
}
