{
	 "smiles": "ClC(=O)C1=CC2=CC=CC=C2S1", 
	 "Tm": 360.15, 
	 "num_atms": 17, 
	 "gaussian": { 
		 "optdone": 1, 
		 "sigma_profile": "yes", 
		 "theory": "DFT", 
		 "functional": "B3LYP", 
		 "basiset": "6-31G**", 
		 "properties": { 
			 "R2extent": 3645.2962, 
			 "electric_dipole_moment_norm": 4.83160560994, 
			 "electric_quadrupole_moment_norm": 8.12220855987, 
			 "total_energy": -1279.58173337, 
			 "HOMO_LUMO_gap": 0.15149, 
			 "cosmo_polarized_energy": -6.92, 
			 "cosmo_cavitation_energy": 25.24, 
			 "cosmo_dispersion_energy": -19.33, 
			 "cosmo_repulsion_energy": 1.48, 
			 "cosmo_total_nonelectrostatic_energy": 7.38, 
			 "SMD_solvation_energy": 4.41 
		},
		"coords": [
			{
				"x": -2.1141835307,
				"y": -3.6430609031,
				"z": 1.4572017675,
				"element": "Cl" 
			},
			{
				"x": -2.0465434814,
				"y": -1.8195458746,
				"z": 1.3728979823,
				"element": "C" 
			},
			{
				"x": -2.6150998538,
				"y": -1.1622180509,
				"z": 2.1947250128,
				"element": "O" 
			},
			{
				"x": -1.2637895732,
				"y": -1.3068784663,
				"z": 0.2513100689,
				"element": "C" 
			},
			{
				"x": -1.0954638677,
				"y": 0.0348083186,
				"z": 0.0186015247,
				"element": "C" 
			},
			{
				"x": -0.2943612423,
				"y": 0.3076868111,
				"z": -1.131099582,
				"element": "C" 
			},
			{
				"x": 0.0886762942,
				"y": 1.5530089625,
				"z": -1.6731295022,
				"element": "C" 
			},
			{
				"x": 0.8791657043,
				"y": 1.5841757927,
				"z": -2.8091448079,
				"element": "C" 
			},
			{
				"x": 1.3019001444,
				"y": 0.3877632641,
				"z": -3.4249738218,
				"element": "C" 
			},
			{
				"x": 0.9404047614,
				"y": -0.8521393146,
				"z": -2.9138990111,
				"element": "C" 
			},
			{
				"x": 0.1406845219,
				"y": -0.8876688213,
				"z": -1.7646718042,
				"element": "C" 
			},
			{
				"x": -0.4430261503,
				"y": -2.3152443812,
				"z": -0.9355102011,
				"element": "S" 
			},
			{
				"x": -1.5363351311,
				"y": 0.7908368231,
				"z": 0.657615528,
				"element": "H" 
			},
			{
				"x": -0.2383477475,
				"y": 2.4725651165,
				"z": -1.1967608462,
				"element": "H" 
			},
			{
				"x": 1.1789966497,
				"y": 2.5372418632,
				"z": -3.2335791651,
				"element": "H" 
			},
			{
				"x": 1.9215901218,
				"y": 0.4361079885,
				"z": -4.3153721306,
				"element": "H" 
			},
			{
				"x": 1.2698323801,
				"y": -1.7682391285,
				"z": -3.3937110121,
				"element": "H" 
			}
		],
		 "valence_orbital": [ 
			{
				"type": "occ",
				"energy": -0.32098,
				"method": "rhf"
			},
			{
				"type": "occ",
				"energy": -0.30521,
				"method": "rhf"
			},
			{
				"type": "occ",
				"energy": -0.29689,
				"method": "rhf"
			},
			{
				"type": "occ",
				"energy": -0.25886,
				"method": "rhf"
			},
			{
				"type": "occ",
				"energy": -0.24068,
				"method": "rhf"
			},
			{
				"type": "unocc",
				"energy": -0.08919,
				"method": "rhf"
			},
			{
				"type": "unocc",
				"energy": -0.0224,
				"method": "rhf"
			},
			{
				"type": "unocc",
				"energy": -0.00482,
				"method": "rhf"
			},
			{
				"type": "unocc",
				"energy": -0.00292,
				"method": "rhf"
			},
			{
				"type": "unocc",
				"energy": 0.03123,
				"method": "rhf"
			}
		],
		"cosmo_sigma_profile": { 
			"-0.025": 0.0,
			"-0.024": 0.0,
			"-0.023": 0.0,
			"-0.022": 0.0,
			"-0.021": 0.0,
			"-0.02": 0.0,
			"-0.019": 0.0,
			"-0.018": 0.0,
			"-0.017": 0.0,
			"-0.016": 0.0,
			"-0.015": 0.0,
			"-0.014": 0.0,
			"-0.013": 0.0,
			"-0.012": 0.0,
			"-0.011": 0.0,
			"-0.01": 0.0,
			"-0.009": 1.0013062368,
			"-0.008": 3.86476537879,
			"-0.007": 8.88607914407,
			"-0.006": 10.8777297057,
			"-0.005": 11.0667576336,
			"-0.004": 11.042807821,
			"-0.003": 10.0726516545,
			"-0.002": 12.3504221285,
			"-0.001": 13.9299184508,
			"0.0": 21.4627225782,
			"0.001": 20.4451632521,
			"0.002": 24.6796643037,
			"0.003": 24.5756999966,
			"0.004": 16.4463013831,
			"0.005": 4.5641152721,
			"0.006": 2.39249914038,
			"0.007": 2.34692807802,
			"0.008": 4.25507093738,
			"0.009": 3.57508521926,
			"0.01": 0.487201647327,
			"0.011": 0.0,
			"0.012": 0.0,
			"0.013": 0.0,
			"0.014": 0.0,
			"0.015": 0.0,
			"0.016": 0.0,
			"0.017": 0.0,
			"0.018": 0.0,
			"0.019": 0.0,
			"0.02": 0.0,
			"0.021": 0.0,
			"0.022": 0.0,
			"0.023": 0.0,
			"0.024": 0.0,
			"0.025": 0.0
		}
	}
}
