{
	 "smiles": "ONCC1=CC=C(F)C=C1", 
	 "Tm": 333.15, 
	 "num_atms": 18, 
	 "gaussian": { 
		 "optdone": 1, 
		 "sigma_profile": "yes", 
		 "theory": "DFT", 
		 "functional": "B3LYP", 
		 "basiset": "6-31G**", 
		 "properties": { 
			 "R2extent": 1855.2812, 
			 "electric_dipole_moment_norm": 2.12175317368, 
			 "electric_quadrupole_moment_norm": 13.4667825315, 
			 "total_energy": -501.308269412, 
			 "HOMO_LUMO_gap": 0.21358, 
			 "cosmo_polarized_energy": -11.16, 
			 "cosmo_cavitation_energy": 22.2, 
			 "cosmo_dispersion_energy": -16.09, 
			 "cosmo_repulsion_energy": 1.29, 
			 "cosmo_total_nonelectrostatic_energy": 7.4, 
			 "SMD_solvation_energy": 3.83 
		},
		"coords": [
			{
				"x": 0.7764231204,
				"y": 0.1280407908,
				"z": -2.2902331429,
				"element": "O" 
			},
			{
				"x": 0.2606093714,
				"y": -1.1041259174,
				"z": -1.7917559225,
				"element": "N" 
			},
			{
				"x": -0.9364071775,
				"y": -0.8653425312,
				"z": -0.9692432993,
				"element": "C" 
			},
			{
				"x": -0.716869667,
				"y": 0.0292854383,
				"z": 0.2363690054,
				"element": "C" 
			},
			{
				"x": -0.3325002727,
				"y": -0.5116298855,
				"z": 1.4733212345,
				"element": "C" 
			},
			{
				"x": -0.0633701768,
				"y": 0.3058008328,
				"z": 2.5695106544,
				"element": "C" 
			},
			{
				"x": -0.1752348383,
				"y": 1.684505663,
				"z": 2.4161155477,
				"element": "C" 
			},
			{
				"x": 0.0831236183,
				"y": 2.4820556063,
				"z": 3.4722731038,
				"element": "F" 
			},
			{
				"x": -0.5509994567,
				"y": 2.2613191533,
				"z": 1.2093989697,
				"element": "C" 
			},
			{
				"x": -0.821319888,
				"y": 1.4249048073,
				"z": 0.1238916102,
				"element": "C" 
			},
			{
				"x": 0.9483729294,
				"y": 0.7006470581,
				"z": -1.5191668736,
				"element": "H" 
			},
			{
				"x": 0.9934373035,
				"y": -1.5061949572,
				"z": -1.2020958821,
				"element": "H" 
			},
			{
				"x": -1.2875219805,
				"y": -1.8543097155,
				"z": -0.6522966447,
				"element": "H" 
			},
			{
				"x": -1.6950496097,
				"y": -0.4389480484,
				"z": -1.6327200633,
				"element": "H" 
			},
			{
				"x": -0.2518938793,
				"y": -1.5904908042,
				"z": 1.5845562799,
				"element": "H" 
			},
			{
				"x": 0.2235725917,
				"y": -0.1040583625,
				"z": 3.5319426794,
				"element": "H" 
			},
			{
				"x": -0.6340836845,
				"y": 3.3401280254,
				"z": 1.1331742937,
				"element": "H" 
			},
			{
				"x": -1.1361883036,
				"y": 1.8616128466,
				"z": -0.8201415505,
				"element": "H" 
			}
		],
		 "valence_orbital": [ 
			{
				"type": "occ",
				"energy": -0.35234,
				"method": "rhf"
			},
			{
				"type": "occ",
				"energy": -0.28664,
				"method": "rhf"
			},
			{
				"type": "occ",
				"energy": -0.27269,
				"method": "rhf"
			},
			{
				"type": "occ",
				"energy": -0.25719,
				"method": "rhf"
			},
			{
				"type": "occ",
				"energy": -0.23889,
				"method": "rhf"
			},
			{
				"type": "unocc",
				"energy": -0.02531,
				"method": "rhf"
			},
			{
				"type": "unocc",
				"energy": -0.01382,
				"method": "rhf"
			},
			{
				"type": "unocc",
				"energy": 0.0744,
				"method": "rhf"
			},
			{
				"type": "unocc",
				"energy": 0.09023,
				"method": "rhf"
			},
			{
				"type": "unocc",
				"energy": 0.09729,
				"method": "rhf"
			}
		],
		"cosmo_sigma_profile": { 
			"-0.025": 0.0,
			"-0.024": 0.0,
			"-0.023": 0.0,
			"-0.022": 0.0,
			"-0.021": 0.0,
			"-0.02": 0.0,
			"-0.019": 0.0,
			"-0.018": 0.0,
			"-0.017": 0.0,
			"-0.016": 0.0,
			"-0.015": 0.0,
			"-0.014": 0.0,
			"-0.013": 0.0,
			"-0.012": 0.701743790163,
			"-0.011": 1.96857544265,
			"-0.01": 2.65549231252,
			"-0.009": 3.15348619946,
			"-0.008": 2.94673907784,
			"-0.007": 7.75073837563,
			"-0.006": 12.1608542238,
			"-0.005": 13.2679675228,
			"-0.004": 12.7015481039,
			"-0.003": 9.76744277599,
			"-0.002": 9.37873136316,
			"-0.001": 8.85666990407,
			"0.0": 10.6926912731,
			"0.001": 12.8848008502,
			"0.002": 12.6010583438,
			"0.003": 11.647900288,
			"0.004": 16.5821056807,
			"0.005": 5.20687406688,
			"0.006": 1.11982377083,
			"0.007": 1.82466763657,
			"0.008": 1.1991051852,
			"0.009": 1.97256772286,
			"0.01": 1.47176258704,
			"0.011": 1.0366953016,
			"0.012": 2.53509561686,
			"0.013": 4.4916721483,
			"0.014": 3.19195629847,
			"0.015": 1.11340670085,
			"0.016": 0.581060534943,
			"0.017": 0.511824693806,
			"0.018": 0.0,
			"0.019": 0.0,
			"0.02": 0.0,
			"0.021": 0.0,
			"0.022": 0.0,
			"0.023": 0.0,
			"0.024": 0.0,
			"0.025": 0.0
		}
	}
}
