{
	 "smiles": "NC1=CC=C(C=C1)C(=O)N1CCC2=C1C=CC=C2", 
	 "Tm": 459.15, 
	 "num_atms": 32, 
	 "gaussian": { 
		 "optdone": 1, 
		 "sigma_profile": "yes", 
		 "theory": "DFT", 
		 "functional": "B3LYP", 
		 "basiset": "6-31G**", 
		 "properties": { 
			 "R2extent": 6238.8604, 
			 "electric_dipole_moment_norm": 4.5870742985, 
			 "electric_quadrupole_moment_norm": 17.2214641372, 
			 "total_energy": -764.782293946, 
			 "HOMO_LUMO_gap": 0.17776, 
			 "cosmo_polarized_energy": -16.88, 
			 "cosmo_cavitation_energy": 34.89, 
			 "cosmo_dispersion_energy": -25.76, 
			 "cosmo_repulsion_energy": 1.97, 
			 "cosmo_total_nonelectrostatic_energy": 11.11, 
			 "SMD_solvation_energy": 5.5 
		},
		"coords": [
			{
				"x": 3.6204908493,
				"y": 3.6939293475,
				"z": 3.1987627369,
				"element": "N" 
			},
			{
				"x": 2.9093168281,
				"y": 2.7895331248,
				"z": 2.4190693037,
				"element": "C" 
			},
			{
				"x": 1.6784235516,
				"y": 3.1472224641,
				"z": 1.8407211177,
				"element": "C" 
			},
			{
				"x": 1.0042670402,
				"y": 2.2624638867,
				"z": 1.0058085429,
				"element": "C" 
			},
			{
				"x": 1.522956367,
				"y": 0.9896617788,
				"z": 0.725722862,
				"element": "C" 
			},
			{
				"x": 2.7342006861,
				"y": 0.6241327979,
				"z": 1.3362990684,
				"element": "C" 
			},
			{
				"x": 3.4259046601,
				"y": 1.5067471201,
				"z": 2.151978359,
				"element": "C" 
			},
			{
				"x": 0.8185018492,
				"y": -0.0633201104,
				"z": -0.07339705,
				"element": "C" 
			},
			{
				"x": 0.8812741857,
				"y": -1.2434055907,
				"z": 0.2688488809,
				"element": "O" 
			},
			{
				"x": 0.1096905344,
				"y": 0.3223647027,
				"z": -1.1997861467,
				"element": "N" 
			},
			{
				"x": 0.1995827991,
				"y": 1.6280497626,
				"z": -1.8969444122,
				"element": "C" 
			},
			{
				"x": -0.1150641098,
				"y": 1.3061934482,
				"z": -3.3745198914,
				"element": "C" 
			},
			{
				"x": -0.8451987619,
				"y": -0.0137438014,
				"z": -3.2785642304,
				"element": "C" 
			},
			{
				"x": -0.6360937421,
				"y": -0.5739894763,
				"z": -2.009576549,
				"element": "C" 
			},
			{
				"x": -1.1526581205,
				"y": -1.829252765,
				"z": -1.680985049,
				"element": "C" 
			},
			{
				"x": -1.9007171358,
				"y": -2.5018473525,
				"z": -2.6528939546,
				"element": "C" 
			},
			{
				"x": -2.1241752822,
				"y": -1.9477622823,
				"z": -3.9155460461,
				"element": "C" 
			},
			{
				"x": -1.5871280728,
				"y": -0.6949952974,
				"z": -4.2348222102,
				"element": "C" 
			},
			{
				"x": 4.2932744592,
				"y": 3.2924331411,
				"z": 3.8364305203,
				"element": "H" 
			},
			{
				"x": 3.0794073865,
				"y": 4.4351873111,
				"z": 3.6208246765,
				"element": "H" 
			},
			{
				"x": 1.2495975687,
				"y": 4.1233032986,
				"z": 2.0539756005,
				"element": "H" 
			},
			{
				"x": 0.0433075221,
				"y": 2.5624092744,
				"z": 0.6014103468,
				"element": "H" 
			},
			{
				"x": 3.1177674502,
				"y": -0.3757946399,
				"z": 1.1628316415,
				"element": "H" 
			},
			{
				"x": 4.3716066494,
				"y": 1.207774945,
				"z": 2.5974614542,
				"element": "H" 
			},
			{
				"x": -0.5543828671,
				"y": 2.3177819278,
				"z": -1.4984081884,
				"element": "H" 
			},
			{
				"x": 1.1828497188,
				"y": 2.0746369905,
				"z": -1.7475569937,
				"element": "H" 
			},
			{
				"x": 0.8067858874,
				"y": 1.1959042027,
				"z": -3.9609435889,
				"element": "H" 
			},
			{
				"x": -0.7045745777,
				"y": 2.1004158537,
				"z": -3.8419465202,
				"element": "H" 
			},
			{
				"x": -0.9622226471,
				"y": -2.2636395874,
				"z": -0.7102139733,
				"element": "H" 
			},
			{
				"x": -2.314639934,
				"y": -3.4774307349,
				"z": -2.4137414,
				"element": "H" 
			},
			{
				"x": -2.7105766211,
				"y": -2.4898556327,
				"z": -4.6514601715,
				"element": "H" 
			},
			{
				"x": -1.7469741211,
				"y": -0.2610081075,
				"z": -5.2185387357,
				"element": "H" 
			}
		],
		 "valence_orbital": [ 
			{
				"type": "occ",
				"energy": -0.25441,
				"method": "rhf"
			},
			{
				"type": "occ",
				"energy": -0.24369,
				"method": "rhf"
			},
			{
				"type": "occ",
				"energy": -0.23643,
				"method": "rhf"
			},
			{
				"type": "occ",
				"energy": -0.20967,
				"method": "rhf"
			},
			{
				"type": "occ",
				"energy": -0.20008,
				"method": "rhf"
			},
			{
				"type": "unocc",
				"energy": -0.02232,
				"method": "rhf"
			},
			{
				"type": "unocc",
				"energy": -0.00267,
				"method": "rhf"
			},
			{
				"type": "unocc",
				"energy": 0.00582,
				"method": "rhf"
			},
			{
				"type": "unocc",
				"energy": 0.01845,
				"method": "rhf"
			},
			{
				"type": "unocc",
				"energy": 0.06573,
				"method": "rhf"
			}
		],
		"cosmo_sigma_profile": { 
			"-0.025": 0.0,
			"-0.024": 0.0,
			"-0.023": 0.0,
			"-0.022": 0.0,
			"-0.021": 0.0,
			"-0.02": 0.0,
			"-0.019": 0.0,
			"-0.018": 0.0,
			"-0.017": 0.0,
			"-0.016": 0.0,
			"-0.015": 0.0,
			"-0.014": 0.0,
			"-0.013": 1.26428729696,
			"-0.012": 3.23800257952,
			"-0.011": 2.48668010454,
			"-0.01": 2.93722302706,
			"-0.009": 3.91785254113,
			"-0.008": 2.31484459713,
			"-0.007": 4.68332818795,
			"-0.006": 9.94615355981,
			"-0.005": 21.7815078346,
			"-0.004": 27.0199502493,
			"-0.003": 24.9270325313,
			"-0.002": 20.1578855135,
			"-0.001": 18.3293569237,
			"0.0": 13.9942281089,
			"0.001": 13.9386680382,
			"0.002": 14.841207224,
			"0.003": 14.7967262194,
			"0.004": 16.3062030353,
			"0.005": 21.6073500796,
			"0.006": 15.27958826,
			"0.007": 3.97671904257,
			"0.008": 2.69407504543,
			"0.009": 2.9968577818,
			"0.01": 2.16563231915,
			"0.011": 2.65098851288,
			"0.012": 2.58447775117,
			"0.013": 3.79738980926,
			"0.014": 2.78332435923,
			"0.015": 0.466955663563,
			"0.016": 0.0,
			"0.017": 0.0,
			"0.018": 0.0,
			"0.019": 0.0,
			"0.02": 0.0,
			"0.021": 0.0,
			"0.022": 0.0,
			"0.023": 0.0,
			"0.024": 0.0,
			"0.025": 0.0
		}
	}
}
