{
	 "smiles": "ClS(=O)(=O)C1=CC2=C(CCCC2)C=C1", 
	 "Tm": 318.15, 
	 "num_atms": 25, 
	 "gaussian": { 
		 "optdone": 1, 
		 "sigma_profile": "yes", 
		 "theory": "DFT", 
		 "functional": "B3LYP", 
		 "basiset": "6-31G**", 
		 "properties": { 
			 "R2extent": 4455.5624, 
			 "electric_dipole_moment_norm": 6.75113722198, 
			 "electric_quadrupole_moment_norm": 13.3043942857, 
			 "total_energy": -1396.47107758, 
			 "HOMO_LUMO_gap": 0.18505, 
			 "cosmo_polarized_energy": -9.1, 
			 "cosmo_cavitation_energy": 30.73, 
			 "cosmo_dispersion_energy": -23.12, 
			 "cosmo_repulsion_energy": 1.79, 
			 "cosmo_total_nonelectrostatic_energy": 9.39, 
			 "SMD_solvation_energy": 3.07 
		},
		"coords": [
			{
				"x": 2.2948777799,
				"y": 1.1991025278,
				"z": -2.7204849358,
				"element": "Cl" 
			},
			{
				"x": 1.2966286925,
				"y": 2.6060555237,
				"z": -1.4495474873,
				"element": "S" 
			},
			{
				"x": 0.1097884883,
				"y": 3.030626472,
				"z": -2.1824436952,
				"element": "O" 
			},
			{
				"x": 2.3211937948,
				"y": 3.548595837,
				"z": -1.0164724005,
				"element": "O" 
			},
			{
				"x": 0.8168428655,
				"y": 1.5715754268,
				"z": -0.0796169774,
				"element": "C" 
			},
			{
				"x": -0.4218563328,
				"y": 0.9280933693,
				"z": -0.1265316805,
				"element": "C" 
			},
			{
				"x": -0.8067972653,
				"y": 0.1295847982,
				"z": 0.9490110206,
				"element": "C" 
			},
			{
				"x": 0.059824375,
				"y": -0.02240853,
				"z": 2.0518204325,
				"element": "C" 
			},
			{
				"x": -0.4180447899,
				"y": -0.9121295819,
				"z": 3.1707308252,
				"element": "C" 
			},
			{
				"x": -0.9561825606,
				"y": -2.2561530096,
				"z": 2.6244662745,
				"element": "C" 
			},
			{
				"x": -1.916736291,
				"y": -2.0841524565,
				"z": 1.4120507411,
				"element": "C" 
			},
			{
				"x": -2.1224782954,
				"y": -0.6061888888,
				"z": 1.0041214413,
				"element": "C" 
			},
			{
				"x": 1.2964580424,
				"y": 0.6299700779,
				"z": 2.0657640804,
				"element": "C" 
			},
			{
				"x": 1.6896299383,
				"y": 1.437716158,
				"z": 0.9997850072,
				"element": "C" 
			},
			{
				"x": -1.0725094911,
				"y": 1.0613354359,
				"z": -0.9845618621,
				"element": "H" 
			},
			{
				"x": -1.2254423578,
				"y": -0.3972680858,
				"z": 3.7115290058,
				"element": "H" 
			},
			{
				"x": 0.3797878782,
				"y": -1.0867637697,
				"z": 3.8993436877,
				"element": "H" 
			},
			{
				"x": -1.4554592114,
				"y": -2.7925554005,
				"z": 3.4376628311,
				"element": "H" 
			},
			{
				"x": -0.1012771764,
				"y": -2.8721958647,
				"z": 2.3273990537,
				"element": "H" 
			},
			{
				"x": -1.5147919071,
				"y": -2.6261538374,
				"z": 0.5499899336,
				"element": "H" 
			},
			{
				"x": -2.8928497152,
				"y": -2.5294857262,
				"z": 1.6293257627,
				"element": "H" 
			},
			{
				"x": -2.7724399747,
				"y": -0.1176712584,
				"z": 1.7442659621,
				"element": "H" 
			},
			{
				"x": -2.645218966,
				"y": -0.5434384452,
				"z": 0.0447726218,
				"element": "H" 
			},
			{
				"x": 1.9589618787,
				"y": 0.5090193639,
				"z": 2.9184324256,
				"element": "H" 
			},
			{
				"x": 2.6418906009,
				"y": 1.9555898644,
				"z": 1.0030879318,
				"element": "H" 
			}
		],
		 "valence_orbital": [ 
			{
				"type": "occ",
				"energy": -0.32607,
				"method": "rhf"
			},
			{
				"type": "occ",
				"energy": -0.32058,
				"method": "rhf"
			},
			{
				"type": "occ",
				"energy": -0.30632,
				"method": "rhf"
			},
			{
				"type": "occ",
				"energy": -0.27656,
				"method": "rhf"
			},
			{
				"type": "occ",
				"energy": -0.26883,
				"method": "rhf"
			},
			{
				"type": "unocc",
				"energy": -0.08378,
				"method": "rhf"
			},
			{
				"type": "unocc",
				"energy": -0.03549,
				"method": "rhf"
			},
			{
				"type": "unocc",
				"energy": -0.02876,
				"method": "rhf"
			},
			{
				"type": "unocc",
				"energy": 0.05812,
				"method": "rhf"
			},
			{
				"type": "unocc",
				"energy": 0.06968,
				"method": "rhf"
			}
		],
		"cosmo_sigma_profile": { 
			"-0.025": 0.0,
			"-0.024": 0.0,
			"-0.023": 0.0,
			"-0.022": 0.0,
			"-0.021": 0.0,
			"-0.02": 0.0,
			"-0.019": 0.0,
			"-0.018": 0.0,
			"-0.017": 0.0,
			"-0.016": 0.0,
			"-0.015": 0.0,
			"-0.014": 0.0,
			"-0.013": 0.0,
			"-0.012": 0.0,
			"-0.011": 0.0,
			"-0.01": 0.0,
			"-0.009": 0.0,
			"-0.008": 1.09089036585,
			"-0.007": 4.47499830653,
			"-0.006": 7.7393597538,
			"-0.005": 11.5632243842,
			"-0.004": 16.5175882606,
			"-0.003": 23.0736318767,
			"-0.002": 31.8517217224,
			"-0.001": 30.844014419,
			"0.0": 22.6029325848,
			"0.001": 20.000440787,
			"0.002": 19.0606449142,
			"0.003": 13.9249221839,
			"0.004": 13.848337063,
			"0.005": 4.85678441475,
			"0.006": 2.77945018935,
			"0.007": 4.97070873664,
			"0.008": 9.72358011887,
			"0.009": 6.6075022591,
			"0.01": 0.347951812234,
			"0.011": 0.0,
			"0.012": 0.0,
			"0.013": 0.0,
			"0.014": 0.0,
			"0.015": 0.0,
			"0.016": 0.0,
			"0.017": 0.0,
			"0.018": 0.0,
			"0.019": 0.0,
			"0.02": 0.0,
			"0.021": 0.0,
			"0.022": 0.0,
			"0.023": 0.0,
			"0.024": 0.0,
			"0.025": 0.0
		}
	}
}
