{
	 "smiles": "CC1=CC(=C(C)S1)C1=CSC(N)=N1", 
	 "Tm": 346.15, 
	 "num_atms": 23, 
	 "gaussian": { 
		 "optdone": 1, 
		 "sigma_profile": "yes", 
		 "theory": "DFT", 
		 "functional": "B3LYP", 
		 "basiset": "6-31G**", 
		 "properties": { 
			 "R2extent": 4188.1311, 
			 "electric_dipole_moment_norm": 2.01219894394, 
			 "electric_quadrupole_moment_norm": 11.8525630321, 
			 "total_energy": -1254.86041852, 
			 "HOMO_LUMO_gap": 0.17259, 
			 "cosmo_polarized_energy": -11.41, 
			 "cosmo_cavitation_energy": 29.75, 
			 "cosmo_dispersion_energy": -22.97, 
			 "cosmo_repulsion_energy": 1.74, 
			 "cosmo_total_nonelectrostatic_energy": 8.52, 
			 "SMD_solvation_energy": 3.35 
		},
		"coords": [
			{
				"x": 3.2198806282,
				"y": -0.3798966497,
				"z": -1.3440100036,
				"element": "C" 
			},
			{
				"x": 1.8778681381,
				"y": -0.9129779863,
				"z": -0.9401079485,
				"element": "C" 
			},
			{
				"x": 0.85717569,
				"y": -0.2612971333,
				"z": -0.3142933443,
				"element": "C" 
			},
			{
				"x": -0.3046084955,
				"y": -1.0736219823,
				"z": -0.0629735042,
				"element": "C" 
			},
			{
				"x": -0.1527508119,
				"y": -2.3649322376,
				"z": -0.5272515883,
				"element": "C" 
			},
			{
				"x": -1.1150311158,
				"y": -3.5151054199,
				"z": -0.5024423956,
				"element": "C" 
			},
			{
				"x": 1.4221457599,
				"y": -2.5734201278,
				"z": -1.252431364,
				"element": "S" 
			},
			{
				"x": -1.4878254907,
				"y": -0.5170259723,
				"z": 0.6062220362,
				"element": "C" 
			},
			{
				"x": -2.5131072083,
				"y": -1.2051668251,
				"z": 1.202061418,
				"element": "C" 
			},
			{
				"x": -3.6902311806,
				"y": -0.1005819356,
				"z": 1.8691343884,
				"element": "S" 
			},
			{
				"x": -2.6720789854,
				"y": 1.2319880729,
				"z": 1.3058016706,
				"element": "C" 
			},
			{
				"x": -3.0716204829,
				"y": 2.5420886525,
				"z": 1.4567551266,
				"element": "N" 
			},
			{
				"x": -1.5915348754,
				"y": 0.8693059953,
				"z": 0.6845162351,
				"element": "N" 
			},
			{
				"x": 4.0403715873,
				"y": -0.9165148624,
				"z": -0.8535237098,
				"element": "H" 
			},
			{
				"x": 3.2951768757,
				"y": 0.6744991517,
				"z": -1.0637922692,
				"element": "H" 
			},
			{
				"x": 3.3822524028,
				"y": -0.4518166013,
				"z": -2.4257642972,
				"element": "H" 
			},
			{
				"x": 0.900400286,
				"y": 0.7822119996,
				"z": -0.0271871024,
				"element": "H" 
			},
			{
				"x": -2.1275434935,
				"y": -3.174203891,
				"z": -0.7447461326,
				"element": "H" 
			},
			{
				"x": -1.1548387825,
				"y": -3.9983738065,
				"z": 0.4828884879,
				"element": "H" 
			},
			{
				"x": -0.836688515,
				"y": -4.2835531202,
				"z": -1.2290655685,
				"element": "H" 
			},
			{
				"x": -2.6340080773,
				"y": -2.2671846562,
				"z": 1.3394649074,
				"element": "H" 
			},
			{
				"x": -2.3317567123,
				"y": 3.2005957607,
				"z": 1.2497122868,
				"element": "H" 
			},
			{
				"x": -3.5913471407,
				"y": 2.7645835749,
				"z": 2.2939326713,
				"element": "H" 
			}
		],
		 "valence_orbital": [ 
			{
				"type": "occ",
				"energy": -0.27886,
				"method": "rhf"
			},
			{
				"type": "occ",
				"energy": -0.27023,
				"method": "rhf"
			},
			{
				"type": "occ",
				"energy": -0.24077,
				"method": "rhf"
			},
			{
				"type": "occ",
				"energy": -0.21932,
				"method": "rhf"
			},
			{
				"type": "occ",
				"energy": -0.1925,
				"method": "rhf"
			},
			{
				"type": "unocc",
				"energy": -0.01991,
				"method": "rhf"
			},
			{
				"type": "unocc",
				"energy": 0.01114,
				"method": "rhf"
			},
			{
				"type": "unocc",
				"energy": 0.01504,
				"method": "rhf"
			},
			{
				"type": "unocc",
				"energy": 0.03267,
				"method": "rhf"
			},
			{
				"type": "unocc",
				"energy": 0.04634,
				"method": "rhf"
			}
		],
		"cosmo_sigma_profile": { 
			"-0.025": 0.0,
			"-0.024": 0.0,
			"-0.023": 0.0,
			"-0.022": 0.0,
			"-0.021": 0.0,
			"-0.02": 0.0,
			"-0.019": 0.0,
			"-0.018": 0.0,
			"-0.017": 0.0,
			"-0.016": 0.0,
			"-0.015": 0.320355037921,
			"-0.014": 1.72644144866,
			"-0.013": 2.52451666782,
			"-0.012": 2.71086994659,
			"-0.011": 2.43527102683,
			"-0.01": 2.89851876096,
			"-0.009": 1.96026648187,
			"-0.008": 2.00919016323,
			"-0.007": 3.77246092924,
			"-0.006": 4.71963987609,
			"-0.005": 11.2502801466,
			"-0.004": 17.4429169298,
			"-0.003": 17.8905511705,
			"-0.002": 18.5255763887,
			"-0.001": 21.1269697152,
			"0.0": 15.7958384198,
			"0.001": 13.114744273,
			"0.002": 16.3006962541,
			"0.003": 17.9827620467,
			"0.004": 23.2420480825,
			"0.005": 20.8452436926,
			"0.006": 9.63783893053,
			"0.007": 3.15218268796,
			"0.008": 2.18257082797,
			"0.009": 2.2450464868,
			"0.01": 2.0571849661,
			"0.011": 1.55626855589,
			"0.012": 1.20532226414,
			"0.013": 0.37907816303,
			"0.014": 0.0175740789714,
			"0.015": 0.0,
			"0.016": 0.0,
			"0.017": 0.0,
			"0.018": 0.0,
			"0.019": 0.0,
			"0.02": 0.0,
			"0.021": 0.0,
			"0.022": 0.0,
			"0.023": 0.0,
			"0.024": 0.0,
			"0.025": 0.0
		}
	}
}
