{
	 "smiles": "FC1=CC(NC2CCOCC2)=CC=C1", 
	 "Tm": 344.15, 
	 "num_atms": 28, 
	 "gaussian": { 
		 "optdone": 1, 
		 "sigma_profile": "yes", 
		 "theory": "DFT", 
		 "functional": "B3LYP", 
		 "basiset": "6-31G**", 
		 "properties": { 
			 "R2extent": 4245.7811, 
			 "electric_dipole_moment_norm": 1.49048541422, 
			 "electric_quadrupole_moment_norm": 14.2655632539, 
			 "total_energy": -657.400964575, 
			 "HOMO_LUMO_gap": 0.20275, 
			 "cosmo_polarized_energy": -10.02, 
			 "cosmo_cavitation_energy": 30.16, 
			 "cosmo_dispersion_energy": -22.07, 
			 "cosmo_repulsion_energy": 1.71, 
			 "cosmo_total_nonelectrostatic_energy": 9.79, 
			 "SMD_solvation_energy": 4.42 
		},
		"coords": [
			{
				"x": 3.2887640976,
				"y": 4.3021750321,
				"z": 0.734594938,
				"element": "F" 
			},
			{
				"x": 2.3679245318,
				"y": 3.5617062093,
				"z": 0.0781077633,
				"element": "C" 
			},
			{
				"x": 2.0125063075,
				"y": 2.3352184531,
				"z": 0.6149331263,
				"element": "C" 
			},
			{
				"x": 1.0551793127,
				"y": 1.5380023345,
				"z": -0.0441273125,
				"element": "C" 
			},
			{
				"x": 0.7562044471,
				"y": 0.2810583851,
				"z": 0.4737403119,
				"element": "N" 
			},
			{
				"x": -0.4560579806,
				"y": -0.4604657481,
				"z": 0.1363301411,
				"element": "C" 
			},
			{
				"x": -0.3595808076,
				"y": -1.9107968661,
				"z": 0.6802011416,
				"element": "C" 
			},
			{
				"x": -1.2004069021,
				"y": -2.0964087124,
				"z": 1.9428998873,
				"element": "C" 
			},
			{
				"x": -2.5862180656,
				"y": -1.8639643186,
				"z": 1.7102388316,
				"element": "O" 
			},
			{
				"x": -2.8814158664,
				"y": -0.8193713388,
				"z": 0.7792576796,
				"element": "C" 
			},
			{
				"x": -1.7558615563,
				"y": 0.2054878695,
				"z": 0.6616419884,
				"element": "C" 
			},
			{
				"x": 0.4817421758,
				"y": 2.0288719489,
				"z": -1.2348688526,
				"element": "C" 
			},
			{
				"x": 0.8682190841,
				"y": 3.2689042144,
				"z": -1.7423518728,
				"element": "C" 
			},
			{
				"x": 1.8175625487,
				"y": 4.0616794843,
				"z": -1.097663044,
				"element": "C" 
			},
			{
				"x": 2.484643287,
				"y": 2.0021321431,
				"z": 1.5341602564,
				"element": "H" 
			},
			{
				"x": 1.0487589172,
				"y": 0.1610127245,
				"z": 1.4352833651,
				"element": "H" 
			},
			{
				"x": -0.5045824441,
				"y": -0.5161562799,
				"z": -0.9564027238,
				"element": "H" 
			},
			{
				"x": -0.7206006646,
				"y": -2.6127929322,
				"z": -0.0788914419,
				"element": "H" 
			},
			{
				"x": 0.6882688177,
				"y": -2.1661719755,
				"z": 0.8723012442,
				"element": "H" 
			},
			{
				"x": -0.8301073253,
				"y": -1.4368235053,
				"z": 2.7466151702,
				"element": "H" 
			},
			{
				"x": -1.1230121225,
				"y": -3.1235970852,
				"z": 2.3134352278,
				"element": "H" 
			},
			{
				"x": -3.8061436489,
				"y": -0.3450882245,
				"z": 1.1255951005,
				"element": "H" 
			},
			{
				"x": -3.0920105696,
				"y": -1.2556331843,
				"z": -0.2116292665,
				"element": "H" 
			},
			{
				"x": -2.0610816665,
				"y": 1.0306393359,
				"z": 0.0106429866,
				"element": "H" 
			},
			{
				"x": -1.5623782146,
				"y": 0.6419621279,
				"z": 1.649160071,
				"element": "H" 
			},
			{
				"x": -0.2590156928,
				"y": 1.4452400751,
				"z": -1.7685588059,
				"element": "H" 
			},
			{
				"x": 0.4133169299,
				"y": 3.6256486289,
				"z": -2.6620979815,
				"element": "H" 
			},
			{
				"x": 2.1250830706,
				"y": 5.0287312044,
				"z": -1.4773479292,
				"element": "H" 
			}
		],
		 "valence_orbital": [ 
			{
				"type": "occ",
				"energy": -0.3004,
				"method": "rhf"
			},
			{
				"type": "occ",
				"energy": -0.2904,
				"method": "rhf"
			},
			{
				"type": "occ",
				"energy": -0.24728,
				"method": "rhf"
			},
			{
				"type": "occ",
				"energy": -0.24068,
				"method": "rhf"
			},
			{
				"type": "occ",
				"energy": -0.2004,
				"method": "rhf"
			},
			{
				"type": "unocc",
				"energy": 0.00235,
				"method": "rhf"
			},
			{
				"type": "unocc",
				"energy": 0.01733,
				"method": "rhf"
			},
			{
				"type": "unocc",
				"energy": 0.06683,
				"method": "rhf"
			},
			{
				"type": "unocc",
				"energy": 0.07915,
				"method": "rhf"
			},
			{
				"type": "unocc",
				"energy": 0.09399,
				"method": "rhf"
			}
		],
		"cosmo_sigma_profile": { 
			"-0.025": 0.0,
			"-0.024": 0.0,
			"-0.023": 0.0,
			"-0.022": 0.0,
			"-0.021": 0.0,
			"-0.02": 0.0,
			"-0.019": 0.0,
			"-0.018": 0.0,
			"-0.017": 0.0,
			"-0.016": 0.0,
			"-0.015": 0.0,
			"-0.014": 0.0,
			"-0.013": 0.0217694495702,
			"-0.012": 0.717810291317,
			"-0.011": 1.37506979708,
			"-0.01": 1.90119374424,
			"-0.009": 1.95596770262,
			"-0.008": 2.18200726956,
			"-0.007": 2.91806492305,
			"-0.006": 7.9833862662,
			"-0.005": 11.2440620708,
			"-0.004": 24.3864853145,
			"-0.003": 30.4190674919,
			"-0.002": 22.1408523552,
			"-0.001": 18.1974951985,
			"0.0": 12.9019000056,
			"0.001": 10.5039138103,
			"0.002": 13.780872385,
			"0.003": 13.2271264798,
			"0.004": 16.2646322797,
			"0.005": 21.1326253899,
			"0.006": 9.15401240024,
			"0.007": 2.26311931711,
			"0.008": 1.9323318768,
			"0.009": 2.57995790972,
			"0.01": 1.83170199853,
			"0.011": 1.15701390689,
			"0.012": 1.01915221551,
			"0.013": 1.58103728721,
			"0.014": 1.93585192711,
			"0.015": 0.186089101088,
			"0.016": 0.0,
			"0.017": 0.0,
			"0.018": 0.0,
			"0.019": 0.0,
			"0.02": 0.0,
			"0.021": 0.0,
			"0.022": 0.0,
			"0.023": 0.0,
			"0.024": 0.0,
			"0.025": 0.0
		}
	}
}
