{
	 "smiles": "OC1(CCCCC1)C#N", 
	 "Tm": 308.15, 
	 "num_atms": 20, 
	 "gaussian": { 
		 "optdone": 1, 
		 "sigma_profile": "yes", 
		 "theory": "DFT", 
		 "functional": "B3LYP", 
		 "basiset": "6-31G**", 
		 "properties": { 
			 "R2extent": 1327.8161, 
			 "electric_dipole_moment_norm": 3.30331359244, 
			 "electric_quadrupole_moment_norm": 12.2955684248, 
			 "total_energy": -403.328636631, 
			 "HOMO_LUMO_gap": 0.30561, 
			 "cosmo_polarized_energy": -10.13, 
			 "cosmo_cavitation_energy": 21.97, 
			 "cosmo_dispersion_energy": -15.92, 
			 "cosmo_repulsion_energy": 1.31, 
			 "cosmo_total_nonelectrostatic_energy": 7.37, 
			 "SMD_solvation_energy": 4.28 
		},
		"coords": [
			{
				"x": -1.0270402623,
				"y": -2.2407289856,
				"z": 0.5983997581,
				"element": "O" 
			},
			{
				"x": -0.6493465945,
				"y": -0.8893326567,
				"z": 0.8503189265,
				"element": "C" 
			},
			{
				"x": 0.845315144,
				"y": -0.7732816627,
				"z": 1.2112915983,
				"element": "C" 
			},
			{
				"x": 1.2865614093,
				"y": 0.685737572,
				"z": 1.4647054932,
				"element": "C" 
			},
			{
				"x": 0.5347002597,
				"y": 1.6952537983,
				"z": 0.5612662306,
				"element": "C" 
			},
			{
				"x": 0.0565949583,
				"y": 1.0304712432,
				"z": -0.7365621945,
				"element": "C" 
			},
			{
				"x": -0.9536582978,
				"y": -0.1025635082,
				"z": -0.4565566445,
				"element": "C" 
			},
			{
				"x": -1.4680941798,
				"y": -0.370172828,
				"z": 1.9800211429,
				"element": "C" 
			},
			{
				"x": -2.0955769981,
				"y": 0.0035378219,
				"z": 2.8831646684,
				"element": "N" 
			},
			{
				"x": -0.8808763752,
				"y": -2.753643485,
				"z": 1.4060999339,
				"element": "H" 
			},
			{
				"x": 1.0627850786,
				"y": -1.3993304968,
				"z": 2.0845428059,
				"element": "H" 
			},
			{
				"x": 1.3906083868,
				"y": -1.2067914296,
				"z": 0.3657628116,
				"element": "H" 
			},
			{
				"x": 2.365796559,
				"y": 0.7511040823,
				"z": 1.2885163116,
				"element": "H" 
			},
			{
				"x": 1.1270154224,
				"y": 0.9444146997,
				"z": 2.5163309468,
				"element": "H" 
			},
			{
				"x": -0.3342248899,
				"y": 2.0961723844,
				"z": 1.0967856502,
				"element": "H" 
			},
			{
				"x": 1.1798188221,
				"y": 2.5511878397,
				"z": 0.3374348481,
				"element": "H" 
			},
			{
				"x": -0.4039297237,
				"y": 1.7685308742,
				"z": -1.4014740829,
				"element": "H" 
			},
			{
				"x": 0.9233045955,
				"y": 0.6305722127,
				"z": -1.2779620973,
				"element": "H" 
			},
			{
				"x": -0.934034902,
				"y": -0.8455795213,
				"z": -1.2593110022,
				"element": "H" 
			},
			{
				"x": -1.9733184123,
				"y": 0.2908420458,
				"z": -0.4106751046,
				"element": "H" 
			}
		],
		 "valence_orbital": [ 
			{
				"type": "occ",
				"energy": -0.33511,
				"method": "rhf"
			},
			{
				"type": "occ",
				"energy": -0.33162,
				"method": "rhf"
			},
			{
				"type": "occ",
				"energy": -0.31713,
				"method": "rhf"
			},
			{
				"type": "occ",
				"energy": -0.31354,
				"method": "rhf"
			},
			{
				"type": "occ",
				"energy": -0.28965,
				"method": "rhf"
			},
			{
				"type": "unocc",
				"energy": 0.01596,
				"method": "rhf"
			},
			{
				"type": "unocc",
				"energy": 0.03642,
				"method": "rhf"
			},
			{
				"type": "unocc",
				"energy": 0.06178,
				"method": "rhf"
			},
			{
				"type": "unocc",
				"energy": 0.09567,
				"method": "rhf"
			},
			{
				"type": "unocc",
				"energy": 0.10177,
				"method": "rhf"
			}
		],
		"cosmo_sigma_profile": { 
			"-0.025": 0.0,
			"-0.024": 0.0,
			"-0.023": 0.0,
			"-0.022": 0.0,
			"-0.021": 0.0,
			"-0.02": 0.0,
			"-0.019": 0.0,
			"-0.018": 0.0,
			"-0.017": 0.369489984827,
			"-0.016": 1.01457852909,
			"-0.015": 1.11120890758,
			"-0.014": 1.04811571312,
			"-0.013": 1.02502109816,
			"-0.012": 0.758188469018,
			"-0.011": 1.59068380897,
			"-0.01": 0.563218110235,
			"-0.009": 0.5891558525,
			"-0.008": 0.999061541809,
			"-0.007": 1.99720270555,
			"-0.006": 0.788624789775,
			"-0.005": 3.31980787116,
			"-0.004": 12.2542031366,
			"-0.003": 24.3330701626,
			"-0.002": 25.2890522564,
			"-0.001": 24.0754415304,
			"0.0": 17.6240342242,
			"0.001": 7.57920082538,
			"0.002": 3.53737642308,
			"0.003": 3.89433445188,
			"0.004": 3.13653016576,
			"0.005": 3.57072307613,
			"0.006": 3.60136509091,
			"0.007": 3.30850058813,
			"0.008": 4.15737233123,
			"0.009": 4.52735760554,
			"0.01": 4.63461305727,
			"0.011": 4.2727145966,
			"0.012": 4.07427037206,
			"0.013": 1.80143095687,
			"0.014": 0.108837104211,
			"0.015": 0.0,
			"0.016": 0.0,
			"0.017": 0.0,
			"0.018": 0.0,
			"0.019": 0.0,
			"0.02": 0.0,
			"0.021": 0.0,
			"0.022": 0.0,
			"0.023": 0.0,
			"0.024": 0.0,
			"0.025": 0.0
		}
	}
}
