{
	 "smiles": "OC(=O)CN(CC(O)=O)CC1=CC2=C(OC3=CC(O)=C(CN(CC(O)=O)CC(O)=O)C=C3C22OC(=O)C3=C2C=CC=C3)C=C1O", 
	 "Tm": 473.15, 
	 "num_atms": 71, 
	 "gaussian": { 
		 "optdone": 1, 
		 "sigma_profile": "yes", 
		 "theory": "DFT", 
		 "functional": "B3LYP", 
		 "basiset": "6-31G**", 
		 "properties": { 
			 "R2extent": 35162.2125, 
			 "electric_dipole_moment_norm": 3.98265398572, 
			 "electric_quadrupole_moment_norm": 66.1504997447, 
			 "total_energy": -2246.29891071, 
			 "HOMO_LUMO_gap": 0.17185, 
			 "cosmo_polarized_energy": -52.95, 
			 "cosmo_cavitation_energy": 74.36, 
			 "cosmo_dispersion_energy": -47.74, 
			 "cosmo_repulsion_energy": 3.53, 
			 "cosmo_total_nonelectrostatic_energy": 30.14, 
			 "SMD_solvation_energy": 16.45 
		},
		"coords": [
			{
				"x": 0.8318440631,
				"y": 1.955587484,
				"z": 7.2066804706,
				"element": "O" 
			},
			{
				"x": 1.2445488316,
				"y": 2.6297115741,
				"z": 6.0920855802,
				"element": "C" 
			},
			{
				"x": 1.1093843626,
				"y": 3.8215037855,
				"z": 5.9753329909,
				"element": "O" 
			},
			{
				"x": 1.8535308869,
				"y": 1.7321226634,
				"z": 5.0267409082,
				"element": "C" 
			},
			{
				"x": 2.1391688814,
				"y": 0.3715394662,
				"z": 5.4719228205,
				"element": "N" 
			},
			{
				"x": 3.3107126878,
				"y": 0.2775822237,
				"z": 6.3613905647,
				"element": "C" 
			},
			{
				"x": 3.0953774109,
				"y": -0.7516654135,
				"z": 7.4779017964,
				"element": "C" 
			},
			{
				"x": 1.9523169428,
				"y": -0.5912407736,
				"z": 8.1777087802,
				"element": "O" 
			},
			{
				"x": 3.8819157276,
				"y": -1.6289220593,
				"z": 7.7332997965,
				"element": "O" 
			},
			{
				"x": 2.2426458561,
				"y": -0.6013338488,
				"z": 4.3548821376,
				"element": "C" 
			},
			{
				"x": 0.9594581251,
				"y": -0.7528965047,
				"z": 3.5707848795,
				"element": "C" 
			},
			{
				"x": 0.9712854675,
				"y": -0.7940890406,
				"z": 2.1807925209,
				"element": "C" 
			},
			{
				"x": -0.1807781654,
				"y": -1.0282951294,
				"z": 1.4179532305,
				"element": "C" 
			},
			{
				"x": -1.3810873132,
				"y": -1.2148877069,
				"z": 2.1125168744,
				"element": "C" 
			},
			{
				"x": -2.5773089675,
				"y": -1.4474133177,
				"z": 1.4854205324,
				"element": "O" 
			},
			{
				"x": -2.6233690327,
				"y": -1.4572978256,
				"z": 0.1181545482,
				"element": "C" 
			},
			{
				"x": -3.8843953274,
				"y": -1.6776210662,
				"z": -0.4393936386,
				"element": "C" 
			},
			{
				"x": -4.0342414141,
				"y": -1.6889467382,
				"z": -1.820746481,
				"element": "C" 
			},
			{
				"x": -5.3125308929,
				"y": -1.8955025182,
				"z": -2.2879999997,
				"element": "O" 
			},
			{
				"x": -2.930652827,
				"y": -1.477248226,
				"z": -2.6779165385,
				"element": "C" 
			},
			{
				"x": -3.0522354437,
				"y": -1.3629058659,
				"z": -4.1928737281,
				"element": "C" 
			},
			{
				"x": -3.3307355959,
				"y": -0.0116824867,
				"z": -4.7241500692,
				"element": "N" 
			},
			{
				"x": -4.6689246416,
				"y": 0.4744439617,
				"z": -4.4302003489,
				"element": "C" 
			},
			{
				"x": -5.7412044052,
				"y": -0.373263371,
				"z": -5.1382447452,
				"element": "C" 
			},
			{
				"x": -6.8317785553,
				"y": -0.6829319571,
				"z": -4.3885028449,
				"element": "O" 
			},
			{
				"x": -5.6640321805,
				"y": -0.7295840687,
				"z": -6.2846234031,
				"element": "O" 
			},
			{
				"x": -2.2949711603,
				"y": 0.9954054315,
				"z": -4.4702578672,
				"element": "C" 
			},
			{
				"x": -1.104952497,
				"y": 0.8605581256,
				"z": -5.4131972692,
				"element": "C" 
			},
			{
				"x": -0.3558174041,
				"y": -0.2442240676,
				"z": -5.1524729831,
				"element": "O" 
			},
			{
				"x": -0.8198282852,
				"y": 1.642058123,
				"z": -6.2884024076,
				"element": "O" 
			},
			{
				"x": -1.6827703704,
				"y": -1.3078252657,
				"z": -2.0758528397,
				"element": "C" 
			},
			{
				"x": -1.4945467233,
				"y": -1.2882229041,
				"z": -0.6880800644,
				"element": "C" 
			},
			{
				"x": -0.1232427258,
				"y": -1.0427923592,
				"z": -0.094274299,
				"element": "C" 
			},
			{
				"x": 0.3471816762,
				"y": 0.2820644464,
				"z": -0.559234039,
				"element": "O" 
			},
			{
				"x": 1.5092884604,
				"y": 0.1908935746,
				"z": -1.2835334431,
				"element": "C" 
			},
			{
				"x": 2.0596128393,
				"y": 1.1539484842,
				"z": -1.7590420841,
				"element": "O" 
			},
			{
				"x": 1.8938831517,
				"y": -1.2381579385,
				"z": -1.3367760794,
				"element": "C" 
			},
			{
				"x": 0.9453452245,
				"y": -1.9800453089,
				"z": -0.6447962578,
				"element": "C" 
			},
			{
				"x": 1.065816041,
				"y": -3.3631841418,
				"z": -0.5385951118,
				"element": "C" 
			},
			{
				"x": 2.166316647,
				"y": -3.97127708,
				"z": -1.1486930798,
				"element": "C" 
			},
			{
				"x": 3.1236039074,
				"y": -3.2172810394,
				"z": -1.8471115901,
				"element": "C" 
			},
			{
				"x": 2.9967033801,
				"y": -1.8327376681,
				"z": -1.9493421047,
				"element": "C" 
			},
			{
				"x": -1.4384236358,
				"y": -1.1704389114,
				"z": 3.5059005201,
				"element": "C" 
			},
			{
				"x": -0.2778183848,
				"y": -0.9376111386,
				"z": 4.2388887657,
				"element": "C" 
			},
			{
				"x": -0.3709064979,
				"y": -0.893409811,
				"z": 5.5876378628,
				"element": "O" 
			},
			{
				"x": 0.4341590098,
				"y": 2.6195444056,
				"z": 7.7965093312,
				"element": "H" 
			},
			{
				"x": 1.1212561516,
				"y": 1.6888059646,
				"z": 4.2126120754,
				"element": "H" 
			},
			{
				"x": 2.7313618937,
				"y": 2.2620137014,
				"z": 4.6253550315,
				"element": "H" 
			},
			{
				"x": 3.4805563359,
				"y": 1.2490339008,
				"z": 6.8388548771,
				"element": "H" 
			},
			{
				"x": 4.2272868515,
				"y": 0.0092860368,
				"z": 5.8227234935,
				"element": "H" 
			},
			{
				"x": 1.4757595262,
				"y": 0.1982250274,
				"z": 7.8602978956,
				"element": "H" 
			},
			{
				"x": 3.066744036,
				"y": -0.3360386801,
				"z": 3.6729080475,
				"element": "H" 
			},
			{
				"x": 2.5135923737,
				"y": -1.5596770475,
				"z": 4.8168480838,
				"element": "H" 
			},
			{
				"x": 1.915386629,
				"y": -0.6459948273,
				"z": 1.6632171204,
				"element": "H" 
			},
			{
				"x": -4.7397577315,
				"y": -1.8446011707,
				"z": 0.2045385681,
				"element": "H" 
			},
			{
				"x": -5.2876239923,
				"y": -2.2855006254,
				"z": -3.1722002039,
				"element": "H" 
			},
			{
				"x": -2.119087582,
				"y": -1.7033828265,
				"z": -4.6432349087,
				"element": "H" 
			},
			{
				"x": -3.8305130603,
				"y": -2.0223817516,
				"z": -4.5960363129,
				"element": "H" 
			},
			{
				"x": -4.772304573,
				"y": 1.4818953912,
				"z": -4.8485282554,
				"element": "H" 
			},
			{
				"x": -4.8840599098,
				"y": 0.5565687308,
				"z": -3.3498055558,
				"element": "H" 
			},
			{
				"x": -6.6688318613,
				"y": -0.472551232,
				"z": -3.4551283898,
				"element": "H" 
			},
			{
				"x": -2.7128709731,
				"y": 1.9807843075,
				"z": -4.6779567553,
				"element": "H" 
			},
			{
				"x": -1.9288165676,
				"y": 0.9967148107,
				"z": -3.4302629951,
				"element": "H" 
			},
			{
				"x": 0.3702533179,
				"y": -0.2383614193,
				"z": -5.7999565132,
				"element": "H" 
			},
			{
				"x": -0.8189626146,
				"y": -1.1719368924,
				"z": -2.7201945023,
				"element": "H" 
			},
			{
				"x": 0.3316271497,
				"y": -3.9541717801,
				"z": 0.0006288298,
				"element": "H" 
			},
			{
				"x": 2.2849344625,
				"y": -5.0488508847,
				"z": -1.0811449751,
				"element": "H" 
			},
			{
				"x": 3.9675093404,
				"y": -3.7208889116,
				"z": -2.3087130826,
				"element": "H" 
			},
			{
				"x": 3.7222751409,
				"y": -1.2259366281,
				"z": -2.4819580226,
				"element": "H" 
			},
			{
				"x": -2.3852862672,
				"y": -1.306440397,
				"z": 4.0146967493,
				"element": "H" 
			},
			{
				"x": 0.4652247893,
				"y": -0.5135409942,
				"z": 5.9302481064,
				"element": "H" 
			}
		],
		 "valence_orbital": [ 
			{
				"type": "occ",
				"energy": -0.26811,
				"method": "rhf"
			},
			{
				"type": "occ",
				"energy": -0.25301,
				"method": "rhf"
			},
			{
				"type": "occ",
				"energy": -0.24088,
				"method": "rhf"
			},
			{
				"type": "occ",
				"energy": -0.23503,
				"method": "rhf"
			},
			{
				"type": "occ",
				"energy": -0.23056,
				"method": "rhf"
			},
			{
				"type": "unocc",
				"energy": -0.05871,
				"method": "rhf"
			},
			{
				"type": "unocc",
				"energy": -0.03976,
				"method": "rhf"
			},
			{
				"type": "unocc",
				"energy": -0.0373,
				"method": "rhf"
			},
			{
				"type": "unocc",
				"energy": -0.03198,
				"method": "rhf"
			},
			{
				"type": "unocc",
				"energy": -0.02314,
				"method": "rhf"
			}
		],
		"cosmo_sigma_profile": { 
			"-0.025": 0.0,
			"-0.024": 0.0,
			"-0.023": 0.0,
			"-0.022": 0.0,
			"-0.021": 0.0,
			"-0.02": 0.0094977397697,
			"-0.019": 1.23438921348,
			"-0.018": 2.3529135409,
			"-0.017": 2.98155129186,
			"-0.016": 3.35888847955,
			"-0.015": 3.12758805371,
			"-0.014": 2.44955265739,
			"-0.013": 2.2877250291,
			"-0.012": 3.47641868308,
			"-0.011": 3.72703288811,
			"-0.01": 5.07412601985,
			"-0.009": 10.183852702,
			"-0.008": 16.5414950398,
			"-0.007": 31.0294472164,
			"-0.006": 39.8299641262,
			"-0.005": 39.6690427363,
			"-0.004": 36.6093757559,
			"-0.003": 32.1108151261,
			"-0.002": 26.3790684326,
			"-0.001": 25.7915865462,
			"0.0": 30.0348503173,
			"0.001": 37.3002767959,
			"0.002": 42.0268916828,
			"0.003": 36.5911800259,
			"0.004": 15.4381646764,
			"0.005": 13.3487765962,
			"0.006": 13.0062713981,
			"0.007": 12.4029464761,
			"0.008": 12.1979090452,
			"0.009": 17.0973778284,
			"0.01": 22.5058581311,
			"0.011": 27.3928558712,
			"0.012": 18.6462227109,
			"0.013": 4.8443126384,
			"0.014": 0.921816127857,
			"0.015": 0.285067838024,
			"0.016": 0.0,
			"0.017": 0.0,
			"0.018": 0.0,
			"0.019": 0.0,
			"0.02": 0.0,
			"0.021": 0.0,
			"0.022": 0.0,
			"0.023": 0.0,
			"0.024": 0.0,
			"0.025": 0.0
		}
	}
}
