{
	 "smiles": "CCOC(=O)C1=CC(=CC=C1)C1=NC=CS1", 
	 "Tm": 324.15, 
	 "num_atms": 27, 
	 "gaussian": { 
		 "optdone": 1, 
		 "sigma_profile": "yes", 
		 "theory": "DFT", 
		 "functional": "B3LYP", 
		 "basiset": "6-31G**", 
		 "properties": { 
			 "R2extent": 6026.1341, 
			 "electric_dipole_moment_norm": 2.05565102583, 
			 "electric_quadrupole_moment_norm": 11.3105463794, 
			 "total_energy": -1067.30825925, 
			 "HOMO_LUMO_gap": 0.16714, 
			 "cosmo_polarized_energy": -9.83, 
			 "cosmo_cavitation_energy": 33.3, 
			 "cosmo_dispersion_energy": -24.79, 
			 "cosmo_repulsion_energy": 1.88, 
			 "cosmo_total_nonelectrostatic_energy": 10.39, 
			 "SMD_solvation_energy": 5.59 
		},
		"coords": [
			{
				"x": 3.5519805765,
				"y": -1.6542060106,
				"z": -1.1560761981,
				"element": "C" 
			},
			{
				"x": 2.3964743869,
				"y": -2.1085204009,
				"z": -0.2768331765,
				"element": "C" 
			},
			{
				"x": 1.467995232,
				"y": -1.0265093462,
				"z": -0.0275902924,
				"element": "O" 
			},
			{
				"x": 1.7609512293,
				"y": -0.2042414877,
				"z": 1.0028764008,
				"element": "C" 
			},
			{
				"x": 2.73950831,
				"y": -0.3335509523,
				"z": 1.7145593964,
				"element": "O" 
			},
			{
				"x": 0.7458149177,
				"y": 0.8782289956,
				"z": 1.1734057275,
				"element": "C" 
			},
			{
				"x": -0.3625128647,
				"y": 0.9974762698,
				"z": 0.3319396192,
				"element": "C" 
			},
			{
				"x": -1.2928934637,
				"y": 2.0309341234,
				"z": 0.5278224256,
				"element": "C" 
			},
			{
				"x": -1.0897246114,
				"y": 2.9380729626,
				"z": 1.5804223423,
				"element": "C" 
			},
			{
				"x": 0.0175608279,
				"y": 2.8170331299,
				"z": 2.4189143083,
				"element": "C" 
			},
			{
				"x": 0.9375728603,
				"y": 1.7910823158,
				"z": 2.220392551,
				"element": "C" 
			},
			{
				"x": -2.4472788034,
				"y": 2.1252472129,
				"z": -0.3776532939,
				"element": "C" 
			},
			{
				"x": -2.6675344264,
				"y": 1.300680471,
				"z": -1.3689872965,
				"element": "N" 
			},
			{
				"x": -3.8138041399,
				"y": 1.6195586974,
				"z": -2.0487675136,
				"element": "C" 
			},
			{
				"x": -4.5026534677,
				"y": 2.7055542378,
				"z": -1.5884073197,
				"element": "C" 
			},
			{
				"x": -3.6826092839,
				"y": 3.3827312456,
				"z": -0.2219380933,
				"element": "S" 
			},
			{
				"x": 4.1961291923,
				"y": -2.5079002956,
				"z": -1.3920458857,
				"element": "H" 
			},
			{
				"x": 3.1840815476,
				"y": -1.2310760566,
				"z": -2.0953718814,
				"element": "H" 
			},
			{
				"x": 4.1542943836,
				"y": -0.9027560668,
				"z": -0.6399316339,
				"element": "H" 
			},
			{
				"x": 2.7564199848,
				"y": -2.4904520073,
				"z": 0.6813194304,
				"element": "H" 
			},
			{
				"x": 1.7929371604,
				"y": -2.8734952555,
				"z": -0.7709973507,
				"element": "H" 
			},
			{
				"x": -0.5166212589,
				"y": 0.2968813493,
				"z": -0.4786093123,
				"element": "H" 
			},
			{
				"x": -1.7978911743,
				"y": 3.7448061404,
				"z": 1.7490067767,
				"element": "H" 
			},
			{
				"x": 0.1600032522,
				"y": 3.5268263554,
				"z": 3.2279752636,
				"element": "H" 
			},
			{
				"x": 1.8065762603,
				"y": 1.6761622793,
				"z": 2.8588706963,
				"element": "H" 
			},
			{
				"x": -4.1126012731,
				"y": 1.0131196525,
				"z": -2.8959670027,
				"element": "H" 
			},
			{
				"x": -5.4203753545,
				"y": 3.1353124409,
				"z": -1.9632286875,
				"element": "H" 
			}
		],
		 "valence_orbital": [ 
			{
				"type": "occ",
				"energy": -0.28233,
				"method": "rhf"
			},
			{
				"type": "occ",
				"energy": -0.27891,
				"method": "rhf"
			},
			{
				"type": "occ",
				"energy": -0.2714,
				"method": "rhf"
			},
			{
				"type": "occ",
				"energy": -0.26361,
				"method": "rhf"
			},
			{
				"type": "occ",
				"energy": -0.22779,
				"method": "rhf"
			},
			{
				"type": "unocc",
				"energy": -0.06065,
				"method": "rhf"
			},
			{
				"type": "unocc",
				"energy": -0.04068,
				"method": "rhf"
			},
			{
				"type": "unocc",
				"energy": 0.00854,
				"method": "rhf"
			},
			{
				"type": "unocc",
				"energy": 0.01643,
				"method": "rhf"
			},
			{
				"type": "unocc",
				"energy": 0.04777,
				"method": "rhf"
			}
		],
		"cosmo_sigma_profile": { 
			"-0.025": 0.0,
			"-0.024": 0.0,
			"-0.023": 0.0,
			"-0.022": 0.0,
			"-0.021": 0.0,
			"-0.02": 0.0,
			"-0.019": 0.0,
			"-0.018": 0.0,
			"-0.017": 0.0,
			"-0.016": 0.0,
			"-0.015": 0.0,
			"-0.014": 0.0,
			"-0.013": 0.0,
			"-0.012": 0.0,
			"-0.011": 0.0,
			"-0.01": 0.484707121538,
			"-0.009": 2.08258740322,
			"-0.008": 2.69187554393,
			"-0.007": 7.74699130832,
			"-0.006": 10.8249404535,
			"-0.005": 15.4519939022,
			"-0.004": 18.3923216764,
			"-0.003": 20.6720867662,
			"-0.002": 21.207631288,
			"-0.001": 21.5213884748,
			"0.0": 26.7912101138,
			"0.001": 28.506086596,
			"0.002": 30.9657679604,
			"0.003": 23.8752250144,
			"0.004": 8.47928637635,
			"0.005": 6.05121434722,
			"0.006": 3.37542829735,
			"0.007": 3.4044720838,
			"0.008": 2.80162154272,
			"0.009": 2.36618961013,
			"0.01": 2.74523003193,
			"0.011": 4.18613958557,
			"0.012": 4.19429186241,
			"0.013": 0.245059849839,
			"0.014": 0.0,
			"0.015": 0.0,
			"0.016": 0.0,
			"0.017": 0.0,
			"0.018": 0.0,
			"0.019": 0.0,
			"0.02": 0.0,
			"0.021": 0.0,
			"0.022": 0.0,
			"0.023": 0.0,
			"0.024": 0.0,
			"0.025": 0.0
		}
	}
}
