{
	 "smiles": "CCN(CC)C(Cl)=S", 
	 "Tm": 320.65, 
	 "num_atms": 18, 
	 "gaussian": { 
		 "optdone": 1, 
		 "sigma_profile": "yes", 
		 "theory": "DFT", 
		 "functional": "B3LYP", 
		 "basiset": "6-31G**", 
		 "properties": { 
			 "R2extent": 1770.3836, 
			 "electric_dipole_moment_norm": 5.02684564414, 
			 "electric_quadrupole_moment_norm": 9.58810497752, 
			 "total_energy": -1109.69486859, 
			 "HOMO_LUMO_gap": 0.18101, 
			 "cosmo_polarized_energy": -9.19, 
			 "cosmo_cavitation_energy": 23.34, 
			 "cosmo_dispersion_energy": -17.47, 
			 "cosmo_repulsion_energy": 1.4, 
			 "cosmo_total_nonelectrostatic_energy": 7.27, 
			 "SMD_solvation_energy": 3.09 
		},
		"coords": [
			{
				"x": 0.2339118472,
				"y": -0.2769104002,
				"z": 2.3034868129,
				"element": "C" 
			},
			{
				"x": -0.3139860654,
				"y": 0.69076461,
				"z": 1.252491763,
				"element": "C" 
			},
			{
				"x": -0.4279195057,
				"y": 0.1051668357,
				"z": -0.1039242366,
				"element": "N" 
			},
			{
				"x": 0.7100180614,
				"y": 0.3200577437,
				"z": -1.0244055521,
				"element": "C" 
			},
			{
				"x": 1.738207609,
				"y": -0.8148684604,
				"z": -1.0253818314,
				"element": "C" 
			},
			{
				"x": -1.5379409305,
				"y": -0.5960817066,
				"z": -0.40667133,
				"element": "C" 
			},
			{
				"x": -1.5441025928,
				"y": -1.2388794062,
				"z": -2.0924493883,
				"element": "Cl" 
			},
			{
				"x": -2.838712252,
				"y": -0.9030978502,
				"z": 0.5605823434,
				"element": "S" 
			},
			{
				"x": 1.2509648463,
				"y": -0.6021887811,
				"z": 2.0678758051,
				"element": "H" 
			},
			{
				"x": -0.4085801254,
				"y": -1.1560459644,
				"z": 2.3881151885,
				"element": "H" 
			},
			{
				"x": 0.2563868055,
				"y": 0.2228293786,
				"z": 3.2773801531,
				"element": "H" 
			},
			{
				"x": -1.3093478537,
				"y": 1.0311621095,
				"z": 1.5439501178,
				"element": "H" 
			},
			{
				"x": 0.3343622275,
				"y": 1.5667375114,
				"z": 1.161607922,
				"element": "H" 
			},
			{
				"x": 1.1825569969,
				"y": 1.2556015344,
				"z": -0.7141885187,
				"element": "H" 
			},
			{
				"x": 0.3189615303,
				"y": 0.4754197339,
				"z": -2.0300897573,
				"element": "H" 
			},
			{
				"x": 2.5400599991,
				"y": -0.5773342003,
				"z": -1.7321621154,
				"element": "H" 
			},
			{
				"x": 1.2806049753,
				"y": -1.7574425078,
				"z": -1.3345523241,
				"element": "H" 
			},
			{
				"x": 2.187654427,
				"y": -0.9537901799,
				"z": -0.0386650519,
				"element": "H" 
			}
		],
		 "valence_orbital": [ 
			{
				"type": "occ",
				"energy": -0.35801,
				"method": "rhf"
			},
			{
				"type": "occ",
				"energy": -0.3205,
				"method": "rhf"
			},
			{
				"type": "occ",
				"energy": -0.30342,
				"method": "rhf"
			},
			{
				"type": "occ",
				"energy": -0.23505,
				"method": "rhf"
			},
			{
				"type": "occ",
				"energy": -0.22026,
				"method": "rhf"
			},
			{
				"type": "unocc",
				"energy": -0.03925,
				"method": "rhf"
			},
			{
				"type": "unocc",
				"energy": 0.00409,
				"method": "rhf"
			},
			{
				"type": "unocc",
				"energy": 0.0711,
				"method": "rhf"
			},
			{
				"type": "unocc",
				"energy": 0.09317,
				"method": "rhf"
			},
			{
				"type": "unocc",
				"energy": 0.10057,
				"method": "rhf"
			}
		],
		"cosmo_sigma_profile": { 
			"-0.025": 0.0,
			"-0.024": 0.0,
			"-0.023": 0.0,
			"-0.022": 0.0,
			"-0.021": 0.0,
			"-0.02": 0.0,
			"-0.019": 0.0,
			"-0.018": 0.0,
			"-0.017": 0.0,
			"-0.016": 0.0,
			"-0.015": 0.0,
			"-0.014": 0.0,
			"-0.013": 0.0,
			"-0.012": 0.0,
			"-0.011": 0.0,
			"-0.01": 0.0,
			"-0.009": 0.150386020993,
			"-0.008": 2.10334697884,
			"-0.007": 3.41699886826,
			"-0.006": 5.38988448613,
			"-0.005": 10.9483045773,
			"-0.004": 18.8456853842,
			"-0.003": 19.9765150653,
			"-0.002": 18.7322984242,
			"-0.001": 19.1894974406,
			"0.0": 19.9709821223,
			"0.001": 11.0855946259,
			"0.002": 8.93155911249,
			"0.003": 7.13827174086,
			"0.004": 9.16351869188,
			"0.005": 6.93367632027,
			"0.006": 6.74954048323,
			"0.007": 8.55962264003,
			"0.008": 5.28413676373,
			"0.009": 3.16212771622,
			"0.01": 2.17746925084,
			"0.011": 0.546480147517,
			"0.012": 0.0,
			"0.013": 0.0,
			"0.014": 0.0,
			"0.015": 0.0,
			"0.016": 0.0,
			"0.017": 0.0,
			"0.018": 0.0,
			"0.019": 0.0,
			"0.02": 0.0,
			"0.021": 0.0,
			"0.022": 0.0,
			"0.023": 0.0,
			"0.024": 0.0,
			"0.025": 0.0
		}
	}
}
