{
	 "smiles": "OC(=O)C1=CC=C(C=C1)S(Cl)(=O)=O", 
	 "Tm": 503.15, 
	 "num_atms": 18, 
	 "gaussian": { 
		 "optdone": 1, 
		 "sigma_profile": "yes", 
		 "theory": "DFT", 
		 "functional": "B3LYP", 
		 "basiset": "6-31G**", 
		 "properties": { 
			 "R2extent": 4405.0929, 
			 "electric_dipole_moment_norm": 2.90412131634, 
			 "electric_quadrupole_moment_norm": 21.4110588024, 
			 "total_energy": -1428.96697442, 
			 "HOMO_LUMO_gap": 0.18583, 
			 "cosmo_polarized_energy": -18.36, 
			 "cosmo_cavitation_energy": 26.88, 
			 "cosmo_dispersion_energy": -20.19, 
			 "cosmo_repulsion_energy": 1.55, 
			 "cosmo_total_nonelectrostatic_energy": 8.24, 
			 "SMD_solvation_energy": 4.54 
		},
		"coords": [
			{
				"x": -1.6358877821,
				"y": -1.1689270409,
				"z": -2.710135933,
				"element": "O" 
			},
			{
				"x": -1.8568094699,
				"y": -1.3432788846,
				"z": -1.383573792,
				"element": "C" 
			},
			{
				"x": -2.5830046674,
				"y": -2.2247748852,
				"z": -0.9938948332,
				"element": "O" 
			},
			{
				"x": -1.1618213607,
				"y": -0.3915582609,
				"z": -0.4465173452,
				"element": "C" 
			},
			{
				"x": -0.992129354,
				"y": -0.8070698686,
				"z": 0.8815066167,
				"element": "C" 
			},
			{
				"x": -0.3639493127,
				"y": 0.0230424732,
				"z": 1.804183614,
				"element": "C" 
			},
			{
				"x": 0.0707454529,
				"y": 1.2796079587,
				"z": 1.3783596392,
				"element": "C" 
			},
			{
				"x": -0.1109392519,
				"y": 1.7327256046,
				"z": 0.0726980553,
				"element": "C" 
			},
			{
				"x": -0.7317566678,
				"y": 0.8833277996,
				"z": -0.8410762916,
				"element": "C" 
			},
			{
				"x": 0.8597013671,
				"y": 2.3692750447,
				"z": 2.5621777248,
				"element": "S" 
			},
			{
				"x": 2.900123362,
				"y": 1.8059228531,
				"z": 2.3288010404,
				"element": "Cl" 
			},
			{
				"x": 0.4746656462,
				"y": 1.9718772062,
				"z": 3.9094046552,
				"element": "O" 
			},
			{
				"x": 0.7565659119,
				"y": 3.7432560621,
				"z": 2.088773887,
				"element": "O" 
			},
			{
				"x": -0.9094537277,
				"y": -0.5481544259,
				"z": -2.8601793247,
				"element": "H" 
			},
			{
				"x": -1.3633568548,
				"y": -1.7838332497,
				"z": 1.1710385733,
				"element": "H" 
			},
			{
				"x": -0.222860726,
				"y": -0.2847846444,
				"z": 2.8340836129,
				"element": "H" 
			},
			{
				"x": 0.2113731314,
				"y": 2.7277777012,
				"z": -0.2119400375,
				"element": "H" 
			},
			{
				"x": -0.9117056965,
				"y": 1.2451685569,
				"z": -1.8497098615,
				"element": "H" 
			}
		],
		 "valence_orbital": [ 
			{
				"type": "occ",
				"energy": -0.33895,
				"method": "rhf"
			},
			{
				"type": "occ",
				"energy": -0.32503,
				"method": "rhf"
			},
			{
				"type": "occ",
				"energy": -0.31015,
				"method": "rhf"
			},
			{
				"type": "occ",
				"energy": -0.30793,
				"method": "rhf"
			},
			{
				"type": "occ",
				"energy": -0.29493,
				"method": "rhf"
			},
			{
				"type": "unocc",
				"energy": -0.1091,
				"method": "rhf"
			},
			{
				"type": "unocc",
				"energy": -0.0752,
				"method": "rhf"
			},
			{
				"type": "unocc",
				"energy": -0.05818,
				"method": "rhf"
			},
			{
				"type": "unocc",
				"energy": 0.00439,
				"method": "rhf"
			},
			{
				"type": "unocc",
				"energy": 0.03202,
				"method": "rhf"
			}
		],
		"cosmo_sigma_profile": { 
			"-0.025": 0.0,
			"-0.024": 0.0,
			"-0.023": 0.0,
			"-0.022": 0.0,
			"-0.021": 0.0,
			"-0.02": 0.0926024664144,
			"-0.019": 1.24317357019,
			"-0.018": 1.1095432413,
			"-0.017": 0.985276741945,
			"-0.016": 0.534257659921,
			"-0.015": 1.00141231186,
			"-0.014": 1.62062137494,
			"-0.013": 1.18989159654,
			"-0.012": 0.775791139804,
			"-0.011": 1.91300652939,
			"-0.01": 1.47841653332,
			"-0.009": 5.33839278109,
			"-0.008": 7.04809636441,
			"-0.007": 8.7750884319,
			"-0.006": 7.85434411991,
			"-0.005": 8.52316795591,
			"-0.004": 9.28785639034,
			"-0.003": 10.3257334249,
			"-0.002": 13.6613949253,
			"-0.001": 20.7055236528,
			"0.0": 18.4509658483,
			"0.001": 8.61488986246,
			"0.002": 11.8082558503,
			"0.003": 17.0047799367,
			"0.004": 7.14404976663,
			"0.005": 5.74765514415,
			"0.006": 5.29400408141,
			"0.007": 10.2602513099,
			"0.008": 12.0531731389,
			"0.009": 6.6657576012,
			"0.01": 5.24659944555,
			"0.011": 5.06467557558,
			"0.012": 2.13283387358,
			"0.013": 0.214184542034,
			"0.014": 0.0,
			"0.015": 0.0,
			"0.016": 0.0,
			"0.017": 0.0,
			"0.018": 0.0,
			"0.019": 0.0,
			"0.02": 0.0,
			"0.021": 0.0,
			"0.022": 0.0,
			"0.023": 0.0,
			"0.024": 0.0,
			"0.025": 0.0
		}
	}
}
