{
	 "smiles": "CN1C(=CC=C1S(N)(=O)=O)C(O)=O", 
	 "Tm": 484.15, 
	 "num_atms": 21, 
	 "gaussian": { 
		 "optdone": 1, 
		 "sigma_profile": "yes", 
		 "theory": "DFT", 
		 "functional": "B3LYP", 
		 "basiset": "6-31G**", 
		 "properties": { 
			 "R2extent": 3063.2701, 
			 "electric_dipole_moment_norm": 2.14069945812, 
			 "electric_quadrupole_moment_norm": 23.2685440518, 
			 "total_energy": -1041.97268225, 
			 "HOMO_LUMO_gap": 0.19451, 
			 "cosmo_polarized_energy": -22.8, 
			 "cosmo_cavitation_energy": 26.86, 
			 "cosmo_dispersion_energy": -20.11, 
			 "cosmo_repulsion_energy": 1.53, 
			 "cosmo_total_nonelectrostatic_energy": 8.28, 
			 "SMD_solvation_energy": 5.64 
		},
		"coords": [
			{
				"x": 1.6240468972,
				"y": -1.2331191647,
				"z": 1.2278566412,
				"element": "C" 
			},
			{
				"x": 0.7334397743,
				"y": -0.9787745475,
				"z": 0.0882247112,
				"element": "N" 
			},
			{
				"x": 0.2706020299,
				"y": -1.8780673875,
				"z": -0.8621030589,
				"element": "C" 
			},
			{
				"x": -0.5185577765,
				"y": -1.1855176268,
				"z": -1.7744011739,
				"element": "C" 
			},
			{
				"x": -0.5359422187,
				"y": 0.1642886226,
				"z": -1.390373341,
				"element": "C" 
			},
			{
				"x": 0.2427594196,
				"y": 0.2577351582,
				"z": -0.2432906191,
				"element": "C" 
			},
			{
				"x": 0.6524797499,
				"y": 1.7148642223,
				"z": 0.6994268228,
				"element": "S" 
			},
			{
				"x": -0.1662176611,
				"y": 2.9523387315,
				"z": -0.0548592854,
				"element": "N" 
			},
			{
				"x": 2.0787720556,
				"y": 1.9796408332,
				"z": 0.5207611654,
				"element": "O" 
			},
			{
				"x": 0.0651952015,
				"y": 1.5766710264,
				"z": 2.0323807608,
				"element": "O" 
			},
			{
				"x": 0.531144922,
				"y": -3.3189916058,
				"z": -0.963335082,
				"element": "C" 
			},
			{
				"x": 1.372062199,
				"y": -3.8245599279,
				"z": -0.0225854657,
				"element": "O" 
			},
			{
				"x": 0.0434682199,
				"y": -4.0196388174,
				"z": -1.8288027568,
				"element": "O" 
			},
			{
				"x": 1.3366505519,
				"y": -0.5744616444,
				"z": 2.0469792815,
				"element": "H" 
			},
			{
				"x": 2.6623284616,
				"y": -1.0358297821,
				"z": 0.9486659628,
				"element": "H" 
			},
			{
				"x": 1.5208168609,
				"y": -2.2682013737,
				"z": 1.5369573597,
				"element": "H" 
			},
			{
				"x": -1.0137763215,
				"y": -1.6443100233,
				"z": -2.6168919966,
				"element": "H" 
			},
			{
				"x": -1.0535268792,
				"y": 0.976402356,
				"z": -1.8780911772,
				"element": "H" 
			},
			{
				"x": 0.1786734483,
				"y": 3.1835983893,
				"z": -0.9795917426,
				"element": "H" 
			},
			{
				"x": -1.1751563718,
				"y": 2.9037658698,
				"z": 0.0308465889,
				"element": "H" 
			},
			{
				"x": 1.4422374375,
				"y": -4.7729333082,
				"z": -0.2237735953,
				"element": "H" 
			}
		],
		 "valence_orbital": [ 
			{
				"type": "occ",
				"energy": -0.31792,
				"method": "rhf"
			},
			{
				"type": "occ",
				"energy": -0.31447,
				"method": "rhf"
			},
			{
				"type": "occ",
				"energy": -0.28824,
				"method": "rhf"
			},
			{
				"type": "occ",
				"energy": -0.26921,
				"method": "rhf"
			},
			{
				"type": "occ",
				"energy": -0.24526,
				"method": "rhf"
			},
			{
				"type": "unocc",
				"energy": -0.05075,
				"method": "rhf"
			},
			{
				"type": "unocc",
				"energy": 0.01887,
				"method": "rhf"
			},
			{
				"type": "unocc",
				"energy": 0.0392,
				"method": "rhf"
			},
			{
				"type": "unocc",
				"energy": 0.05007,
				"method": "rhf"
			},
			{
				"type": "unocc",
				"energy": 0.07164,
				"method": "rhf"
			}
		],
		"cosmo_sigma_profile": { 
			"-0.025": 0.0,
			"-0.024": 0.0,
			"-0.023": 0.0,
			"-0.022": 0.0,
			"-0.021": 0.0,
			"-0.02": 0.0,
			"-0.019": 0.290022015932,
			"-0.018": 0.737343289638,
			"-0.017": 0.932810991357,
			"-0.016": 2.40039336325,
			"-0.015": 3.69327913544,
			"-0.014": 2.78731494889,
			"-0.013": 4.50602099462,
			"-0.012": 3.69522773381,
			"-0.011": 3.19989136347,
			"-0.01": 2.88509721771,
			"-0.009": 2.68643329674,
			"-0.008": 4.19816130771,
			"-0.007": 5.29158762156,
			"-0.006": 7.45181642073,
			"-0.005": 8.66027942899,
			"-0.004": 13.4497998088,
			"-0.003": 12.707882447,
			"-0.002": 10.5239075019,
			"-0.001": 9.80666295143,
			"0.0": 9.48095848662,
			"0.001": 11.3151899094,
			"0.002": 12.7609292771,
			"0.003": 11.627587783,
			"0.004": 9.55550923499,
			"0.005": 5.56005771366,
			"0.006": 5.01392666198,
			"0.007": 6.74403594634,
			"0.008": 5.36150934377,
			"0.009": 6.12317738804,
			"0.01": 12.7985432273,
			"0.011": 12.8443093216,
			"0.012": 4.71554210831,
			"0.013": 0.0,
			"0.014": 0.0,
			"0.015": 0.0,
			"0.016": 0.0,
			"0.017": 0.0,
			"0.018": 0.0,
			"0.019": 0.0,
			"0.02": 0.0,
			"0.021": 0.0,
			"0.022": 0.0,
			"0.023": 0.0,
			"0.024": 0.0,
			"0.025": 0.0
		}
	}
}
