{
	 "smiles": "CN1N=NC2=C1N=CC(=C2)C(O)=O", 
	 "Tm": 503.15, 
	 "num_atms": 19, 
	 "gaussian": { 
		 "optdone": 1, 
		 "sigma_profile": "yes", 
		 "theory": "DFT", 
		 "functional": "B3LYP", 
		 "basiset": "6-31G**", 
		 "properties": { 
			 "R2extent": 3215.9977, 
			 "electric_dipole_moment_norm": 3.18108118413, 
			 "electric_quadrupole_moment_norm": 22.477974691, 
			 "total_energy": -639.781170452, 
			 "HOMO_LUMO_gap": 0.18873, 
			 "cosmo_polarized_energy": -18.89, 
			 "cosmo_cavitation_energy": 24.46, 
			 "cosmo_dispersion_energy": -18.33, 
			 "cosmo_repulsion_energy": 1.42, 
			 "cosmo_total_nonelectrostatic_energy": 7.55, 
			 "SMD_solvation_energy": 2.47 
		},
		"coords": [
			{
				"x": 0.7012870636,
				"y": -1.5373952446,
				"z": 3.3932227602,
				"element": "C" 
			},
			{
				"x": 1.0887340448,
				"y": -0.679789302,
				"z": 2.286952076,
				"element": "N" 
			},
			{
				"x": 2.3394156457,
				"y": -0.7401911708,
				"z": 1.7431919156,
				"element": "N" 
			},
			{
				"x": 2.4362222027,
				"y": 0.1135245947,
				"z": 0.7714558795,
				"element": "N" 
			},
			{
				"x": 1.2296873228,
				"y": 0.7650377248,
				"z": 0.6585967562,
				"element": "C" 
			},
			{
				"x": 0.3497786179,
				"y": 0.2572677624,
				"z": 1.6343373228,
				"element": "C" 
			},
			{
				"x": -0.9216515914,
				"y": 0.6187819635,
				"z": 1.8460922901,
				"element": "N" 
			},
			{
				"x": -1.3462587648,
				"y": 1.566395903,
				"z": 1.0174265354,
				"element": "C" 
			},
			{
				"x": -0.5563674907,
				"y": 2.1790454267,
				"z": 0.0005958329,
				"element": "C" 
			},
			{
				"x": 0.7606971277,
				"y": 1.7658396653,
				"z": -0.1965259126,
				"element": "C" 
			},
			{
				"x": -1.232062034,
				"y": 3.2187734767,
				"z": -0.8397540282,
				"element": "C" 
			},
			{
				"x": -0.4289400985,
				"y": 4.073212284,
				"z": -1.526321693,
				"element": "O" 
			},
			{
				"x": -2.4333868644,
				"y": 3.3150539427,
				"z": -0.9259458729,
				"element": "O" 
			},
			{
				"x": 0.7831560685,
				"y": -2.5862238861,
				"z": 3.0998932988,
				"element": "H" 
			},
			{
				"x": -0.3336783169,
				"y": -1.3022577662,
				"z": 3.6438433966,
				"element": "H" 
			},
			{
				"x": 1.3446556937,
				"y": -1.3493395427,
				"z": 4.255489608,
				"element": "H" 
			},
			{
				"x": -2.3749602025,
				"y": 1.8971716448,
				"z": 1.1267939857,
				"element": "H" 
			},
			{
				"x": 1.3964710961,
				"y": 2.1593612945,
				"z": -0.9850206951,
				"element": "H" 
			},
			{
				"x": 0.4878004797,
				"y": 3.9977312293,
				"z": -1.2282234559,
				"element": "H" 
			}
		],
		 "valence_orbital": [ 
			{
				"type": "occ",
				"energy": -0.31749,
				"method": "rhf"
			},
			{
				"type": "occ",
				"energy": -0.28827,
				"method": "rhf"
			},
			{
				"type": "occ",
				"energy": -0.28443,
				"method": "rhf"
			},
			{
				"type": "occ",
				"energy": -0.27745,
				"method": "rhf"
			},
			{
				"type": "occ",
				"energy": -0.27345,
				"method": "rhf"
			},
			{
				"type": "unocc",
				"energy": -0.08472,
				"method": "rhf"
			},
			{
				"type": "unocc",
				"energy": -0.04991,
				"method": "rhf"
			},
			{
				"type": "unocc",
				"energy": -0.00109,
				"method": "rhf"
			},
			{
				"type": "unocc",
				"energy": 0.04059,
				"method": "rhf"
			},
			{
				"type": "unocc",
				"energy": 0.05282,
				"method": "rhf"
			}
		],
		"cosmo_sigma_profile": { 
			"-0.025": 0.0,
			"-0.024": 0.0,
			"-0.023": 0.0,
			"-0.022": 0.0,
			"-0.021": 0.00442646876391,
			"-0.02": 0.450209073655,
			"-0.019": 1.03119728302,
			"-0.018": 1.23619023989,
			"-0.017": 0.862683487664,
			"-0.016": 0.735610144221,
			"-0.015": 1.25902042003,
			"-0.014": 1.36705682081,
			"-0.013": 1.2899995827,
			"-0.012": 1.1188714253,
			"-0.011": 1.59232281651,
			"-0.01": 1.5358330871,
			"-0.009": 1.94006593034,
			"-0.008": 3.89001762944,
			"-0.007": 8.0606332725,
			"-0.006": 9.90126172857,
			"-0.005": 11.3011208109,
			"-0.004": 21.532162569,
			"-0.003": 15.0623826293,
			"-0.002": 14.3873830393,
			"-0.001": 12.31361173,
			"0.0": 7.56173952678,
			"0.001": 5.92847264029,
			"0.002": 5.50231088898,
			"0.003": 5.2687368469,
			"0.004": 5.02094394732,
			"0.005": 5.35340603238,
			"0.006": 5.12826011591,
			"0.007": 5.95881785941,
			"0.008": 6.37252926107,
			"0.009": 8.21227692714,
			"0.01": 8.76237100786,
			"0.011": 8.84401358489,
			"0.012": 5.4680579268,
			"0.013": 1.72093348766,
			"0.014": 1.12986497839,
			"0.015": 0.121556631327,
			"0.016": 0.0,
			"0.017": 0.0,
			"0.018": 0.0,
			"0.019": 0.0,
			"0.02": 0.0,
			"0.021": 0.0,
			"0.022": 0.0,
			"0.023": 0.0,
			"0.024": 0.0,
			"0.025": 0.0
		}
	}
}
