{
	 "smiles": "ClCC(=O)NC1CCN(CC2=CC=CC=C2)CC1", 
	 "Tm": 391.15, 
	 "num_atms": 37, 
	 "gaussian": { 
		 "optdone": 1, 
		 "sigma_profile": "yes", 
		 "theory": "DFT", 
		 "functional": "B3LYP", 
		 "basiset": "6-31G**", 
		 "properties": { 
			 "R2extent": 7171.0613, 
			 "electric_dipole_moment_norm": 2.53607769991, 
			 "electric_quadrupole_moment_norm": 11.6741209074, 
			 "total_energy": -1189.8765344, 
			 "HOMO_LUMO_gap": 0.19198, 
			 "cosmo_polarized_energy": -12.5, 
			 "cosmo_cavitation_energy": 39.59, 
			 "cosmo_dispersion_energy": -27.1, 
			 "cosmo_repulsion_energy": 2.14, 
			 "cosmo_total_nonelectrostatic_energy": 14.64, 
			 "SMD_solvation_energy": 3.98 
		},
		"coords": [
			{
				"x": 4.5881788224,
				"y": 2.7606572004,
				"z": -0.811731588,
				"element": "Cl" 
			},
			{
				"x": 3.6283334153,
				"y": 3.9438094945,
				"z": 0.183047746,
				"element": "C" 
			},
			{
				"x": 2.1484839364,
				"y": 3.6217651119,
				"z": 0.4157953892,
				"element": "C" 
			},
			{
				"x": 1.5131850068,
				"y": 4.427840831,
				"z": 1.0872607651,
				"element": "O" 
			},
			{
				"x": 1.6505692546,
				"y": 2.4877629254,
				"z": -0.1256145607,
				"element": "N" 
			},
			{
				"x": 0.2551795947,
				"y": 2.0807201855,
				"z": 0.0233992139,
				"element": "C" 
			},
			{
				"x": -0.4661179066,
				"y": 2.0454507402,
				"z": -1.3344794249,
				"element": "C" 
			},
			{
				"x": -1.9206500684,
				"y": 1.5603638525,
				"z": -1.1563987987,
				"element": "C" 
			},
			{
				"x": -2.060458281,
				"y": 0.2963914199,
				"z": -0.4430537576,
				"element": "N" 
			},
			{
				"x": -2.1200767544,
				"y": -0.9398069415,
				"z": -1.2217128373,
				"element": "C" 
			},
			{
				"x": -0.859894642,
				"y": -1.4482572227,
				"z": -1.9211981112,
				"element": "C" 
			},
			{
				"x": -0.5590048878,
				"y": -1.0604728128,
				"z": -3.2344645924,
				"element": "C" 
			},
			{
				"x": 0.6004926674,
				"y": -1.5085256878,
				"z": -3.8700168547,
				"element": "C" 
			},
			{
				"x": 1.4779774126,
				"y": -2.3650207559,
				"z": -3.2019472185,
				"element": "C" 
			},
			{
				"x": 1.1819754049,
				"y": -2.7766693854,
				"z": -1.9008627188,
				"element": "C" 
			},
			{
				"x": 0.020621415,
				"y": -2.3247099875,
				"z": -1.2714567512,
				"element": "C" 
			},
			{
				"x": -1.3362396746,
				"y": 0.2853790609,
				"z": 0.8223810261,
				"element": "C" 
			},
			{
				"x": 0.142579465,
				"y": 0.7178272695,
				"z": 0.7261494781,
				"element": "C" 
			},
			{
				"x": 3.6938649362,
				"y": 4.9090659827,
				"z": -0.3190532369,
				"element": "H" 
			},
			{
				"x": 4.1198304918,
				"y": 4.0170267869,
				"z": 1.1531927528,
				"element": "H" 
			},
			{
				"x": 2.2723402261,
				"y": 1.9010520344,
				"z": -0.6660165106,
				"element": "H" 
			},
			{
				"x": -0.2023462637,
				"y": 2.8508368984,
				"z": 0.6538684975,
				"element": "H" 
			},
			{
				"x": 0.0711459696,
				"y": 1.3746480611,
				"z": -2.0154467337,
				"element": "H" 
			},
			{
				"x": -0.4582037826,
				"y": 3.046287287,
				"z": -1.7824243197,
				"element": "H" 
			},
			{
				"x": -2.416430561,
				"y": 1.4750775242,
				"z": -2.1291964308,
				"element": "H" 
			},
			{
				"x": -2.4693052109,
				"y": 2.3304280036,
				"z": -0.5907551069,
				"element": "H" 
			},
			{
				"x": -2.9023923632,
				"y": -0.8007424495,
				"z": -1.9784568319,
				"element": "H" 
			},
			{
				"x": -2.4788910798,
				"y": -1.7246835819,
				"z": -0.5440203265,
				"element": "H" 
			},
			{
				"x": -1.2449463203,
				"y": -0.406139284,
				"z": -3.7680633778,
				"element": "H" 
			},
			{
				"x": 0.8141176596,
				"y": -1.1967487116,
				"z": -4.8887120255,
				"element": "H" 
			},
			{
				"x": 2.378840132,
				"y": -2.7181485093,
				"z": -3.6953985181,
				"element": "H" 
			},
			{
				"x": 1.8503474484,
				"y": -3.4565583177,
				"z": -1.3796903517,
				"element": "H" 
			},
			{
				"x": -0.2100764745,
				"y": -2.663197751,
				"z": -0.2636698623,
				"element": "H" 
			},
			{
				"x": -1.413615108,
				"y": -0.7127247501,
				"z": 1.2664222961,
				"element": "H" 
			},
			{
				"x": -1.8483801635,
				"y": 0.9761809542,
				"z": 1.5111929269,
				"element": "H" 
			},
			{
				"x": 0.7147278736,
				"y": -0.0307543855,
				"z": 0.1651084149,
				"element": "H" 
			},
			{
				"x": 0.5790384096,
				"y": 0.78248891,
				"z": 1.7300223397,
				"element": "H" 
			}
		],
		 "valence_orbital": [ 
			{
				"type": "occ",
				"energy": -0.25529,
				"method": "rhf"
			},
			{
				"type": "occ",
				"energy": -0.25428,
				"method": "rhf"
			},
			{
				"type": "occ",
				"energy": -0.25224,
				"method": "rhf"
			},
			{
				"type": "occ",
				"energy": -0.2502,
				"method": "rhf"
			},
			{
				"type": "occ",
				"energy": -0.20133,
				"method": "rhf"
			},
			{
				"type": "unocc",
				"energy": -0.00935,
				"method": "rhf"
			},
			{
				"type": "unocc",
				"energy": -0.00842,
				"method": "rhf"
			},
			{
				"type": "unocc",
				"energy": 0.01723,
				"method": "rhf"
			},
			{
				"type": "unocc",
				"energy": 0.02413,
				"method": "rhf"
			},
			{
				"type": "unocc",
				"energy": 0.07128,
				"method": "rhf"
			}
		],
		"cosmo_sigma_profile": { 
			"-0.025": 0.0,
			"-0.024": 0.0,
			"-0.023": 0.0,
			"-0.022": 0.0,
			"-0.021": 0.0,
			"-0.02": 0.0,
			"-0.019": 0.0,
			"-0.018": 0.0,
			"-0.017": 0.0,
			"-0.016": 0.0,
			"-0.015": 0.0,
			"-0.014": 0.0,
			"-0.013": 0.0,
			"-0.012": 0.101937644129,
			"-0.011": 0.71481029891,
			"-0.01": 1.13847806254,
			"-0.009": 2.74943392093,
			"-0.008": 5.82230921981,
			"-0.007": 3.86324004174,
			"-0.006": 6.37821694924,
			"-0.005": 18.4572638805,
			"-0.004": 28.3975273887,
			"-0.003": 35.5239080779,
			"-0.002": 32.6987913953,
			"-0.001": 30.7383184414,
			"0.0": 27.8507684026,
			"0.001": 23.4931563465,
			"0.002": 15.4466205974,
			"0.003": 13.3887174331,
			"0.004": 14.6250242184,
			"0.005": 16.4182584105,
			"0.006": 11.8476779387,
			"0.007": 3.08937938198,
			"0.008": 2.22964471661,
			"0.009": 1.48143197202,
			"0.01": 2.00203298877,
			"0.011": 2.00431622531,
			"0.012": 2.46670953955,
			"0.013": 5.15187478088,
			"0.014": 4.40401234469,
			"0.015": 0.222673427916,
			"0.016": 0.0,
			"0.017": 0.0,
			"0.018": 0.0,
			"0.019": 0.0,
			"0.02": 0.0,
			"0.021": 0.0,
			"0.022": 0.0,
			"0.023": 0.0,
			"0.024": 0.0,
			"0.025": 0.0
		}
	}
}
