{
	 "smiles": "CCCCC1C(=O)NC(=O)N(C2CCCCC2)C1=O", 
	 "Tm": 357.15, 
	 "num_atms": 41, 
	 "gaussian": { 
		 "optdone": 1, 
		 "sigma_profile": "yes", 
		 "theory": "DFT", 
		 "functional": "B3LYP", 
		 "basiset": "6-31G**", 
		 "properties": { 
			 "R2extent": 6088.8755, 
			 "electric_dipole_moment_norm": 1.54702563974, 
			 "electric_quadrupole_moment_norm": 6.18266341313, 
			 "total_energy": -881.998604391, 
			 "HOMO_LUMO_gap": 0.21529, 
			 "cosmo_polarized_energy": -12.92, 
			 "cosmo_cavitation_energy": 40.45, 
			 "cosmo_dispersion_energy": -28.14, 
			 "cosmo_repulsion_energy": 2.2, 
			 "cosmo_total_nonelectrostatic_energy": 14.52, 
			 "SMD_solvation_energy": 7.39 
		},
		"coords": [
			{
				"x": -1.1367759795,
				"y": -0.2443295424,
				"z": 4.5163306778,
				"element": "C" 
			},
			{
				"x": -1.4668910133,
				"y": -0.9793942769,
				"z": 3.2115789063,
				"element": "C" 
			},
			{
				"x": -0.3101245804,
				"y": -1.0449359483,
				"z": 2.199573282,
				"element": "C" 
			},
			{
				"x": 0.0984555525,
				"y": 0.329203786,
				"z": 1.6544064513,
				"element": "C" 
			},
			{
				"x": 1.2453852552,
				"y": 0.2835320066,
				"z": 0.592935874,
				"element": "C" 
			},
			{
				"x": 1.7941798561,
				"y": 1.6820942018,
				"z": 0.4198018328,
				"element": "C" 
			},
			{
				"x": 2.4799003898,
				"y": 2.2479003322,
				"z": 1.2492690829,
				"element": "O" 
			},
			{
				"x": 1.4009864626,
				"y": 2.3102000054,
				"z": -0.748384299,
				"element": "N" 
			},
			{
				"x": 0.6654311165,
				"y": 1.7861634714,
				"z": -1.809583647,
				"element": "C" 
			},
			{
				"x": 0.3636297557,
				"y": 2.5017204688,
				"z": -2.7472060589,
				"element": "O" 
			},
			{
				"x": 0.3357185151,
				"y": 0.4204361614,
				"z": -1.7356640134,
				"element": "N" 
			},
			{
				"x": -0.3833171733,
				"y": -0.1245891524,
				"z": -2.9415548531,
				"element": "C" 
			},
			{
				"x": 0.5468759965,
				"y": -0.8279502166,
				"z": -3.9588514944,
				"element": "C" 
			},
			{
				"x": 0.6749255423,
				"y": -2.3508180377,
				"z": -3.806291303,
				"element": "C" 
			},
			{
				"x": -0.7094211231,
				"y": -3.0124282085,
				"z": -3.7426881828,
				"element": "C" 
			},
			{
				"x": -1.5313575481,
				"y": -2.4687278938,
				"z": -2.5647436189,
				"element": "C" 
			},
			{
				"x": -1.6628442386,
				"y": -0.9355669697,
				"z": -2.6163308979,
				"element": "C" 
			},
			{
				"x": 0.7755284765,
				"y": -0.3926172201,
				"z": -0.6877225499,
				"element": "C" 
			},
			{
				"x": 0.7267314415,
				"y": -1.6090872316,
				"z": -0.7517396589,
				"element": "O" 
			},
			{
				"x": -1.9788520849,
				"y": -0.2885437971,
				"z": 5.2145067844,
				"element": "H" 
			},
			{
				"x": -0.2696814618,
				"y": -0.6943510472,
				"z": 5.0135114046,
				"element": "H" 
			},
			{
				"x": -0.9091625403,
				"y": 0.8135107842,
				"z": 4.3485729395,
				"element": "H" 
			},
			{
				"x": -2.3387053726,
				"y": -0.5096815239,
				"z": 2.7353689597,
				"element": "H" 
			},
			{
				"x": -1.7709631133,
				"y": -2.006481678,
				"z": 3.4481453067,
				"element": "H" 
			},
			{
				"x": -0.5914241292,
				"y": -1.7004686659,
				"z": 1.3697763541,
				"element": "H" 
			},
			{
				"x": 0.5635494926,
				"y": -1.5130744033,
				"z": 2.6737150586,
				"element": "H" 
			},
			{
				"x": -0.7717516839,
				"y": 0.8374557468,
				"z": 1.21728907,
				"element": "H" 
			},
			{
				"x": 0.4651709837,
				"y": 0.965799004,
				"z": 2.4653544611,
				"element": "H" 
			},
			{
				"x": 2.0515345356,
				"y": -0.3355712222,
				"z": 0.9966160287,
				"element": "H" 
			},
			{
				"x": 1.6818177523,
				"y": 3.275803391,
				"z": -0.8735918003,
				"element": "H" 
			},
			{
				"x": -0.7125122249,
				"y": 0.7984850442,
				"z": -3.4142493245,
				"element": "H" 
			},
			{
				"x": 0.1227799405,
				"y": -0.6206401792,
				"z": -4.9509660367,
				"element": "H" 
			},
			{
				"x": 1.5286629362,
				"y": -0.3417189524,
				"z": -3.9455491458,
				"element": "H" 
			},
			{
				"x": 1.2432545835,
				"y": -2.7434696216,
				"z": -4.6584477206,
				"element": "H" 
			},
			{
				"x": 1.2357488259,
				"y": -2.5945054778,
				"z": -2.8999232488,
				"element": "H" 
			},
			{
				"x": -0.6062607439,
				"y": -4.1001918413,
				"z": -3.6542466507,
				"element": "H" 
			},
			{
				"x": -1.2449497362,
				"y": -2.8259567297,
				"z": -4.6859487295,
				"element": "H" 
			},
			{
				"x": -2.5393195931,
				"y": -2.9019574323,
				"z": -2.5784992523,
				"element": "H" 
			},
			{
				"x": -1.0589742534,
				"y": -2.7743115774,
				"z": -1.6298525951,
				"element": "H" 
			},
			{
				"x": -2.3705221446,
				"y": -0.6886481118,
				"z": -3.4192763532,
				"element": "H" 
			},
			{
				"x": -2.1145566723,
				"y": -0.5505874448,
				"z": -1.6948410398,
				"element": "H" 
			}
		],
		 "valence_orbital": [ 
			{
				"type": "occ",
				"energy": -0.29883,
				"method": "rhf"
			},
			{
				"type": "occ",
				"energy": -0.298,
				"method": "rhf"
			},
			{
				"type": "occ",
				"energy": -0.29029,
				"method": "rhf"
			},
			{
				"type": "occ",
				"energy": -0.27616,
				"method": "rhf"
			},
			{
				"type": "occ",
				"energy": -0.26185,
				"method": "rhf"
			},
			{
				"type": "unocc",
				"energy": -0.04656,
				"method": "rhf"
			},
			{
				"type": "unocc",
				"energy": -0.00464,
				"method": "rhf"
			},
			{
				"type": "unocc",
				"energy": 0.048,
				"method": "rhf"
			},
			{
				"type": "unocc",
				"energy": 0.07365,
				"method": "rhf"
			},
			{
				"type": "unocc",
				"energy": 0.07932,
				"method": "rhf"
			}
		],
		"cosmo_sigma_profile": { 
			"-0.025": 0.0,
			"-0.024": 0.0,
			"-0.023": 0.0,
			"-0.022": 0.0,
			"-0.021": 0.0,
			"-0.02": 0.0,
			"-0.019": 0.0,
			"-0.018": 0.0,
			"-0.017": 0.106909100493,
			"-0.016": 0.791162169566,
			"-0.015": 0.73437464257,
			"-0.014": 1.27496859849,
			"-0.013": 0.616098773114,
			"-0.012": 0.489983528681,
			"-0.011": 0.639135035609,
			"-0.01": 1.20358013414,
			"-0.009": 2.31388298309,
			"-0.008": 2.6790812523,
			"-0.007": 5.20282275263,
			"-0.006": 4.91702398477,
			"-0.005": 8.56516635669,
			"-0.004": 16.809337433,
			"-0.003": 30.704575202,
			"-0.002": 41.951928028,
			"-0.001": 42.5824187227,
			"0.0": 42.8107496251,
			"0.001": 37.5397849339,
			"0.002": 17.4061501855,
			"0.003": 5.63711972772,
			"0.004": 4.67441457793,
			"0.005": 5.2649113862,
			"0.006": 3.53852767376,
			"0.007": 3.85797008726,
			"0.008": 4.07400009467,
			"0.009": 4.24097882732,
			"0.01": 5.00478701868,
			"0.011": 9.8421916583,
			"0.012": 7.48717250756,
			"0.013": 0.940024502206,
			"0.014": 0.0,
			"0.015": 0.0,
			"0.016": 0.0,
			"0.017": 0.0,
			"0.018": 0.0,
			"0.019": 0.0,
			"0.02": 0.0,
			"0.021": 0.0,
			"0.022": 0.0,
			"0.023": 0.0,
			"0.024": 0.0,
			"0.025": 0.0
		}
	}
}
