{
	 "smiles": "ClN1C(=O)CCC1=O", 
	 "Tm": 422.15, 
	 "num_atms": 12, 
	 "gaussian": { 
		 "optdone": 1, 
		 "sigma_profile": "yes", 
		 "theory": "DFT", 
		 "functional": "B3LYP", 
		 "basiset": "6-31G**", 
		 "properties": { 
			 "R2extent": 1337.7411, 
			 "electric_dipole_moment_norm": 3.32459296005, 
			 "electric_quadrupole_moment_norm": 12.6447957346, 
			 "total_energy": -820.209389449, 
			 "HOMO_LUMO_gap": 0.23001, 
			 "cosmo_polarized_energy": -12.36, 
			 "cosmo_cavitation_energy": 18.27, 
			 "cosmo_dispersion_energy": -13.87, 
			 "cosmo_repulsion_energy": 1.18, 
			 "cosmo_total_nonelectrostatic_energy": 5.57, 
			 "SMD_solvation_energy": 4.31 
		},
		"coords": [
			{
				"x": 0.9894409195,
				"y": -0.5332663442,
				"z": -1.69102457,
				"element": "Cl" 
			},
			{
				"x": 0.0131066451,
				"y": 0.6129772829,
				"z": -0.8882558772,
				"element": "N" 
			},
			{
				"x": -1.0678350419,
				"y": 0.2293617447,
				"z": -0.071350516,
				"element": "C" 
			},
			{
				"x": -1.4139593776,
				"y": -0.9039504358,
				"z": 0.1463381492,
				"element": "O" 
			},
			{
				"x": -1.6739818813,
				"y": 1.5281785625,
				"z": 0.4526727205,
				"element": "C" 
			},
			{
				"x": -0.8299371154,
				"y": 2.6682414359,
				"z": -0.148642452,
				"element": "C" 
			},
			{
				"x": 0.2413884086,
				"y": 1.9976888657,
				"z": -1.003939116,
				"element": "C" 
			},
			{
				"x": 1.1149978403,
				"y": 2.5118676609,
				"z": -1.6551033419,
				"element": "O" 
			},
			{
				"x": -1.65096954,
				"y": 1.501809761,
				"z": 1.5455022037,
				"element": "H" 
			},
			{
				"x": -2.7249417613,
				"y": 1.5624291762,
				"z": 0.1529714753,
				"element": "H" 
			},
			{
				"x": -1.4059780658,
				"y": 3.343884821,
				"z": -0.7867494489,
				"element": "H" 
			},
			{
				"x": -0.3321310301,
				"y": 3.2833774692,
				"z": 0.6058807733,
				"element": "H" 
			}
		],
		 "valence_orbital": [ 
			{
				"type": "occ",
				"energy": -0.36342,
				"method": "rhf"
			},
			{
				"type": "occ",
				"energy": -0.34036,
				"method": "rhf"
			},
			{
				"type": "occ",
				"energy": -0.30511,
				"method": "rhf"
			},
			{
				"type": "occ",
				"energy": -0.28363,
				"method": "rhf"
			},
			{
				"type": "occ",
				"energy": -0.27563,
				"method": "rhf"
			},
			{
				"type": "unocc",
				"energy": -0.04562,
				"method": "rhf"
			},
			{
				"type": "unocc",
				"energy": -0.03415,
				"method": "rhf"
			},
			{
				"type": "unocc",
				"energy": 0.0108,
				"method": "rhf"
			},
			{
				"type": "unocc",
				"energy": 0.07421,
				"method": "rhf"
			},
			{
				"type": "unocc",
				"energy": 0.11737,
				"method": "rhf"
			}
		],
		"cosmo_sigma_profile": { 
			"-0.025": 0.0,
			"-0.024": 0.0,
			"-0.023": 0.0,
			"-0.022": 0.0,
			"-0.021": 0.0,
			"-0.02": 0.0,
			"-0.019": 0.0,
			"-0.018": 0.0,
			"-0.017": 0.0,
			"-0.016": 0.0,
			"-0.015": 0.0,
			"-0.014": 0.0,
			"-0.013": 0.0,
			"-0.012": 0.0,
			"-0.011": 0.0,
			"-0.01": 0.204229666191,
			"-0.009": 1.93478547966,
			"-0.008": 13.5573718922,
			"-0.007": 14.9853738756,
			"-0.006": 9.88257260441,
			"-0.005": 9.19263572556,
			"-0.004": 9.64175770396,
			"-0.003": 7.93883528051,
			"-0.002": 4.88983435185,
			"-0.001": 5.16264918191,
			"0.0": 5.32341030295,
			"0.001": 6.58350322864,
			"0.002": 7.85001824574,
			"0.003": 6.674846765,
			"0.004": 4.79516866198,
			"0.005": 3.99735221981,
			"0.006": 3.62573037063,
			"0.007": 3.16410385634,
			"0.008": 3.63077110111,
			"0.009": 5.1469287239,
			"0.01": 8.04471504325,
			"0.011": 9.95088475621,
			"0.012": 2.07105926356,
			"0.013": 0.0,
			"0.014": 0.0,
			"0.015": 0.0,
			"0.016": 0.0,
			"0.017": 0.0,
			"0.018": 0.0,
			"0.019": 0.0,
			"0.02": 0.0,
			"0.021": 0.0,
			"0.022": 0.0,
			"0.023": 0.0,
			"0.024": 0.0,
			"0.025": 0.0
		}
	}
}
