{
	 "smiles": "CC1=C2NC=C(CC(O)=O)C2=CC=C1", 
	 "Tm": 462.15, 
	 "num_atms": 25, 
	 "gaussian": { 
		 "optdone": 1, 
		 "sigma_profile": "yes", 
		 "theory": "DFT", 
		 "functional": "B3LYP", 
		 "basiset": "6-31G**", 
		 "properties": { 
			 "R2extent": 3038.8872, 
			 "electric_dipole_moment_norm": 6.7496515036, 
			 "electric_quadrupole_moment_norm": 19.9814199851, 
			 "total_energy": -631.023905639, 
			 "HOMO_LUMO_gap": 0.19315, 
			 "cosmo_polarized_energy": -17.8, 
			 "cosmo_cavitation_energy": 28.98, 
			 "cosmo_dispersion_energy": -20.7, 
			 "cosmo_repulsion_energy": 1.64, 
			 "cosmo_total_nonelectrostatic_energy": 9.91, 
			 "SMD_solvation_energy": 5.85 
		},
		"coords": [
			{
				"x": 0.7215389079,
				"y": 1.8024269595,
				"z": -3.4602385539,
				"element": "C" 
			},
			{
				"x": 0.6166473591,
				"y": 0.7149242833,
				"z": -2.4214247232,
				"element": "C" 
			},
			{
				"x": 0.4727902805,
				"y": 1.0164981471,
				"z": -1.0562915448,
				"element": "C" 
			},
			{
				"x": 0.4017744066,
				"y": 2.2483816922,
				"z": -0.4304439678,
				"element": "N" 
			},
			{
				"x": 0.2596195052,
				"y": 2.0620706134,
				"z": 0.9286215468,
				"element": "C" 
			},
			{
				"x": 0.2356478174,
				"y": 0.7154572195,
				"z": 1.2177279616,
				"element": "C" 
			},
			{
				"x": 0.1087444829,
				"y": 0.088883264,
				"z": 2.5752531759,
				"element": "C" 
			},
			{
				"x": -1.2652540166,
				"y": -0.5186688539,
				"z": 2.9063394079,
				"element": "C" 
			},
			{
				"x": -2.3112540865,
				"y": -0.0136538786,
				"z": 2.2141750645,
				"element": "O" 
			},
			{
				"x": -1.42306435,
				"y": -1.3597421919,
				"z": 3.756251613,
				"element": "O" 
			},
			{
				"x": 0.3696306789,
				"y": 0.0255155798,
				"z": -0.0462242137,
				"element": "C" 
			},
			{
				"x": 0.4115713872,
				"y": -1.3316598225,
				"z": -0.4138086609,
				"element": "C" 
			},
			{
				"x": 0.5555527099,
				"y": -1.647677003,
				"z": -1.7568321426,
				"element": "C" 
			},
			{
				"x": 0.6554355716,
				"y": -0.6402216305,
				"z": -2.739469708,
				"element": "C" 
			},
			{
				"x": 1.5893250646,
				"y": 2.4511000617,
				"z": -3.2828931724,
				"element": "H" 
			},
			{
				"x": -0.1683230175,
				"y": 2.4454206029,
				"z": -3.466582177,
				"element": "H" 
			},
			{
				"x": 0.82751726,
				"y": 1.379030945,
				"z": -4.4620348185,
				"element": "H" 
			},
			{
				"x": 0.4494360985,
				"y": 3.1420957269,
				"z": -0.8912034414,
				"element": "H" 
			},
			{
				"x": 0.2056157876,
				"y": 2.9092279284,
				"z": 1.5988922718,
				"element": "H" 
			},
			{
				"x": 0.305475721,
				"y": 0.8350580818,
				"z": 3.3553525184,
				"element": "H" 
			},
			{
				"x": 0.8427580968,
				"y": -0.7082380293,
				"z": 2.725544948,
				"element": "H" 
			},
			{
				"x": -1.9651273792,
				"y": 0.6053937555,
				"z": 1.5480526565,
				"element": "H" 
			},
			{
				"x": 0.3304933242,
				"y": -2.1139721274,
				"z": 0.335289717,
				"element": "H" 
			},
			{
				"x": 0.5904984413,
				"y": -2.6885545818,
				"z": -2.0641909114,
				"element": "H" 
			},
			{
				"x": 0.7662499485,
				"y": -0.9281967422,
				"z": -3.781762846,
				"element": "H" 
			}
		],
		 "valence_orbital": [ 
			{
				"type": "occ",
				"energy": -0.30091,
				"method": "rhf"
			},
			{
				"type": "occ",
				"energy": -0.28599,
				"method": "rhf"
			},
			{
				"type": "occ",
				"energy": -0.25624,
				"method": "rhf"
			},
			{
				"type": "occ",
				"energy": -0.23147,
				"method": "rhf"
			},
			{
				"type": "occ",
				"energy": -0.21333,
				"method": "rhf"
			},
			{
				"type": "unocc",
				"energy": -0.02018,
				"method": "rhf"
			},
			{
				"type": "unocc",
				"energy": 0.01424,
				"method": "rhf"
			},
			{
				"type": "unocc",
				"energy": 0.02421,
				"method": "rhf"
			},
			{
				"type": "unocc",
				"energy": 0.04873,
				"method": "rhf"
			},
			{
				"type": "unocc",
				"energy": 0.05878,
				"method": "rhf"
			}
		],
		"cosmo_sigma_profile": { 
			"-0.025": 0.0,
			"-0.024": 0.0,
			"-0.023": 0.0,
			"-0.022": 0.0,
			"-0.021": 0.0,
			"-0.02": 0.0,
			"-0.019": 0.0,
			"-0.018": 0.0,
			"-0.017": 0.0,
			"-0.016": 0.261584163451,
			"-0.015": 1.16547104768,
			"-0.014": 0.957018600062,
			"-0.013": 1.67726127285,
			"-0.012": 1.42001250805,
			"-0.011": 2.00636507872,
			"-0.01": 2.54471131797,
			"-0.009": 2.99277092342,
			"-0.008": 5.72823203591,
			"-0.007": 9.46118493056,
			"-0.006": 8.31739481901,
			"-0.005": 15.4502802272,
			"-0.004": 19.0258250921,
			"-0.003": 16.5679052065,
			"-0.002": 17.400916302,
			"-0.001": 13.1861031526,
			"0.0": 15.2431807296,
			"0.001": 11.0828970641,
			"0.002": 9.89160411016,
			"0.003": 10.2993746294,
			"0.004": 10.7096248872,
			"0.005": 11.166654673,
			"0.006": 9.30857076266,
			"0.007": 8.75244101037,
			"0.008": 3.25367087988,
			"0.009": 2.33730422102,
			"0.01": 4.71554340393,
			"0.011": 4.6989197843,
			"0.012": 6.09580788594,
			"0.013": 3.92101940564,
			"0.014": 0.557865752857,
			"0.015": 0.0,
			"0.016": 0.0,
			"0.017": 0.0,
			"0.018": 0.0,
			"0.019": 0.0,
			"0.02": 0.0,
			"0.021": 0.0,
			"0.022": 0.0,
			"0.023": 0.0,
			"0.024": 0.0,
			"0.025": 0.0
		}
	}
}
