{
	 "smiles": "CC(=O)NC1=CC(=CC=C1)S(Cl)(=O)=O", 
	 "Tm": 352.15, 
	 "num_atms": 22, 
	 "gaussian": { 
		 "optdone": 1, 
		 "sigma_profile": "yes", 
		 "theory": "DFT", 
		 "functional": "B3LYP", 
		 "basiset": "6-31G**", 
		 "properties": { 
			 "R2extent": 4311.1108, 
			 "electric_dipole_moment_norm": 8.8285713799, 
			 "electric_quadrupole_moment_norm": 5.57949073124, 
			 "total_energy": -1448.42714044, 
			 "HOMO_LUMO_gap": 0.16638, 
			 "cosmo_polarized_energy": -19.08, 
			 "cosmo_cavitation_energy": 30.23, 
			 "cosmo_dispersion_energy": -22.35, 
			 "cosmo_repulsion_energy": 1.73, 
			 "cosmo_total_nonelectrostatic_energy": 9.61, 
			 "SMD_solvation_energy": 4.67 
		},
		"coords": [
			{
				"x": -2.2700054641,
				"y": -1.7250588269,
				"z": -3.2348516837,
				"element": "C" 
			},
			{
				"x": -1.5084534859,
				"y": -0.8266776539,
				"z": -2.2736809672,
				"element": "C" 
			},
			{
				"x": -1.7228491268,
				"y": 0.3714906725,
				"z": -2.1952412132,
				"element": "O" 
			},
			{
				"x": -0.5808082118,
				"y": -1.4911996017,
				"z": -1.4870097209,
				"element": "N" 
			},
			{
				"x": 0.2427258394,
				"y": -0.9669046186,
				"z": -0.4772478959,
				"element": "C" 
			},
			{
				"x": 0.2617784488,
				"y": 0.3944412836,
				"z": -0.1344131878,
				"element": "C" 
			},
			{
				"x": 1.1253699188,
				"y": 0.7950211342,
				"z": 0.8827347657,
				"element": "C" 
			},
			{
				"x": 1.9699146897,
				"y": -0.0712087912,
				"z": 1.5743891512,
				"element": "C" 
			},
			{
				"x": 1.9368515012,
				"y": -1.4185401194,
				"z": 1.2156097806,
				"element": "C" 
			},
			{
				"x": 1.0856524651,
				"y": -1.8605656896,
				"z": 0.2075086145,
				"element": "C" 
			},
			{
				"x": 1.1634061942,
				"y": 2.5333868313,
				"z": 1.3149567009,
				"element": "S" 
			},
			{
				"x": -0.379628419,
				"y": 2.6245089128,
				"z": 2.7910148045,
				"element": "Cl" 
			},
			{
				"x": 0.6985540788,
				"y": 3.333596245,
				"z": 0.1904194985,
				"element": "O" 
			},
			{
				"x": 2.4083864144,
				"y": 2.8250251216,
				"z": 2.0158005994,
				"element": "O" 
			},
			{
				"x": -1.7711785894,
				"y": -2.6765730732,
				"z": -3.4399611787,
				"element": "H" 
			},
			{
				"x": -3.2605902807,
				"y": -1.9342846735,
				"z": -2.8175567758,
				"element": "H" 
			},
			{
				"x": -2.4136468374,
				"y": -1.1833143604,
				"z": -4.1711471618,
				"element": "H" 
			},
			{
				"x": -0.4911146959,
				"y": -2.4848407766,
				"z": -1.6417589369,
				"element": "H" 
			},
			{
				"x": -0.371885005,
				"y": 1.0989658433,
				"z": -0.6544986213,
				"element": "H" 
			},
			{
				"x": 2.6285805319,
				"y": 0.2990535232,
				"z": 2.3504746937,
				"element": "H" 
			},
			{
				"x": 2.5806091927,
				"y": -2.1294263541,
				"z": 1.7235983543,
				"element": "H" 
			},
			{
				"x": 1.0728308414,
				"y": -2.9151950283,
				"z": -0.05733962,
				"element": "H" 
			}
		],
		 "valence_orbital": [ 
			{
				"type": "occ",
				"energy": -0.32199,
				"method": "rhf"
			},
			{
				"type": "occ",
				"energy": -0.30652,
				"method": "rhf"
			},
			{
				"type": "occ",
				"energy": -0.28766,
				"method": "rhf"
			},
			{
				"type": "occ",
				"energy": -0.2736,
				"method": "rhf"
			},
			{
				"type": "occ",
				"energy": -0.25099,
				"method": "rhf"
			},
			{
				"type": "unocc",
				"energy": -0.08461,
				"method": "rhf"
			},
			{
				"type": "unocc",
				"energy": -0.04218,
				"method": "rhf"
			},
			{
				"type": "unocc",
				"energy": -0.03833,
				"method": "rhf"
			},
			{
				"type": "unocc",
				"energy": 0.01703,
				"method": "rhf"
			},
			{
				"type": "unocc",
				"energy": 0.04449,
				"method": "rhf"
			}
		],
		"cosmo_sigma_profile": { 
			"-0.025": 0.0,
			"-0.024": 0.0,
			"-0.023": 0.0,
			"-0.022": 0.0,
			"-0.021": 0.0,
			"-0.02": 0.0,
			"-0.019": 0.0,
			"-0.018": 0.0,
			"-0.017": 0.0520913289548,
			"-0.016": 0.978923641334,
			"-0.015": 1.71221922758,
			"-0.014": 1.22425111772,
			"-0.013": 1.35103357541,
			"-0.012": 1.92337328693,
			"-0.011": 1.94564475628,
			"-0.01": 1.14849165982,
			"-0.009": 2.57627004474,
			"-0.008": 4.81772838182,
			"-0.007": 9.11853933884,
			"-0.006": 10.8299078729,
			"-0.005": 11.5450561823,
			"-0.004": 13.5377503096,
			"-0.003": 13.2286126872,
			"-0.002": 15.228872294,
			"-0.001": 18.258775249,
			"0.0": 20.2912911156,
			"0.001": 25.1654289487,
			"0.002": 17.9577824819,
			"0.003": 16.2360073971,
			"0.004": 11.4188102494,
			"0.005": 4.76403302129,
			"0.006": 5.08120189027,
			"0.007": 8.39735749683,
			"0.008": 10.8798512743,
			"0.009": 5.87766047544,
			"0.01": 1.48471993113,
			"0.011": 2.21383370067,
			"0.012": 2.60212417226,
			"0.013": 2.18465773741,
			"0.014": 0.802937513312,
			"0.015": 0.0,
			"0.016": 0.0,
			"0.017": 0.0,
			"0.018": 0.0,
			"0.019": 0.0,
			"0.02": 0.0,
			"0.021": 0.0,
			"0.022": 0.0,
			"0.023": 0.0,
			"0.024": 0.0,
			"0.025": 0.0
		}
	}
}
