{
	 "smiles": "CN(C1=C(C=CC=C1)C(O)=O)S(C)(=O)=O", 
	 "Tm": 420.15, 
	 "num_atms": 26, 
	 "gaussian": { 
		 "optdone": 1, 
		 "sigma_profile": "yes", 
		 "theory": "DFT", 
		 "functional": "B3LYP", 
		 "basiset": "6-31G**", 
		 "properties": { 
			 "R2extent": 3149.3854, 
			 "electric_dipole_moment_norm": 5.10028031092, 
			 "electric_quadrupole_moment_norm": 6.67911461647, 
			 "total_energy": -1103.36011031, 
			 "HOMO_LUMO_gap": 0.19929, 
			 "cosmo_polarized_energy": -18.93, 
			 "cosmo_cavitation_energy": 30.66, 
			 "cosmo_dispersion_energy": -21.89, 
			 "cosmo_repulsion_energy": 1.66, 
			 "cosmo_total_nonelectrostatic_energy": 10.43, 
			 "SMD_solvation_energy": 6.65 
		},
		"coords": [
			{
				"x": 2.0906434435,
				"y": -0.7634634029,
				"z": 1.5926040005,
				"element": "C" 
			},
			{
				"x": 0.8410025428,
				"y": -0.7242111868,
				"z": 0.8192336373,
				"element": "N" 
			},
			{
				"x": 0.8252027039,
				"y": 0.0204597996,
				"z": -0.407109848,
				"element": "C" 
			},
			{
				"x": 0.4869300212,
				"y": 1.3894688774,
				"z": -0.5020978491,
				"element": "C" 
			},
			{
				"x": 0.4810438064,
				"y": 2.0006399674,
				"z": -1.7639753508,
				"element": "C" 
			},
			{
				"x": 0.841029404,
				"y": 1.2998870085,
				"z": -2.911310983,
				"element": "C" 
			},
			{
				"x": 1.197560406,
				"y": -0.0450731998,
				"z": -2.8139555254,
				"element": "C" 
			},
			{
				"x": 1.1757510839,
				"y": -0.6753791168,
				"z": -1.5707220293,
				"element": "C" 
			},
			{
				"x": 0.0976980649,
				"y": 2.2797966531,
				"z": 0.6370234387,
				"element": "C" 
			},
			{
				"x": 0.5563386443,
				"y": 1.876289925,
				"z": 1.8424034235,
				"element": "O" 
			},
			{
				"x": -0.5230148107,
				"y": 3.3129876401,
				"z": 0.496834977,
				"element": "O" 
			},
			{
				"x": -0.6272976856,
				"y": -1.0891372913,
				"z": 1.5755985084,
				"element": "S" 
			},
			{
				"x": -1.0788107367,
				"y": -2.6681494788,
				"z": 0.8290441125,
				"element": "C" 
			},
			{
				"x": -1.6416494346,
				"y": -0.1220940015,
				"z": 1.1488916789,
				"element": "O" 
			},
			{
				"x": -0.3423699142,
				"y": -1.3315591747,
				"z": 2.9922734235,
				"element": "O" 
			},
			{
				"x": 1.9479015712,
				"y": -1.3991431197,
				"z": 2.4658710647,
				"element": "H" 
			},
			{
				"x": 2.3767750914,
				"y": 0.2369751757,
				"z": 1.9296234994,
				"element": "H" 
			},
			{
				"x": 2.883767487,
				"y": -1.18362206,
				"z": 0.9662503053,
				"element": "H" 
			},
			{
				"x": 0.1867082409,
				"y": 3.0430653863,
				"z": -1.8161371324,
				"element": "H" 
			},
			{
				"x": 0.839123795,
				"y": 1.7999950031,
				"z": -3.8748854299,
				"element": "H" 
			},
			{
				"x": 1.4788376525,
				"y": -0.6061140919,
				"z": -3.7002650753,
				"element": "H" 
			},
			{
				"x": 1.4305221905,
				"y": -1.7269845481,
				"z": -1.4801809527,
				"element": "H" 
			},
			{
				"x": 0.198091036,
				"y": 2.5066933343,
				"z": 2.4894030924,
				"element": "H" 
			},
			{
				"x": -2.0464156896,
				"y": -2.9566491055,
				"z": 1.2438084971,
				"element": "H" 
			},
			{
				"x": -0.3178284449,
				"y": -3.4073326559,
				"z": 1.0809936355,
				"element": "H" 
			},
			{
				"x": -1.1555404692,
				"y": -2.5331463368,
				"z": -0.2505171186,
				"element": "H" 
			}
		],
		 "valence_orbital": [ 
			{
				"type": "occ",
				"energy": -0.30042,
				"method": "rhf"
			},
			{
				"type": "occ",
				"energy": -0.28194,
				"method": "rhf"
			},
			{
				"type": "occ",
				"energy": -0.26969,
				"method": "rhf"
			},
			{
				"type": "occ",
				"energy": -0.26611,
				"method": "rhf"
			},
			{
				"type": "occ",
				"energy": -0.25283,
				"method": "rhf"
			},
			{
				"type": "unocc",
				"energy": -0.05354,
				"method": "rhf"
			},
			{
				"type": "unocc",
				"energy": -0.025,
				"method": "rhf"
			},
			{
				"type": "unocc",
				"energy": 0.04621,
				"method": "rhf"
			},
			{
				"type": "unocc",
				"energy": 0.06339,
				"method": "rhf"
			},
			{
				"type": "unocc",
				"energy": 0.07388,
				"method": "rhf"
			}
		],
		"cosmo_sigma_profile": { 
			"-0.025": 0.0,
			"-0.024": 0.0,
			"-0.023": 0.0,
			"-0.022": 0.0,
			"-0.021": 0.0,
			"-0.02": 0.0,
			"-0.019": 0.0447825522234,
			"-0.018": 0.909293965937,
			"-0.017": 0.903307448055,
			"-0.016": 0.884731310053,
			"-0.015": 0.560163337152,
			"-0.014": 0.811086144412,
			"-0.013": 0.552084750726,
			"-0.012": 1.21405421577,
			"-0.011": 0.29132863379,
			"-0.01": 0.466491085524,
			"-0.009": 1.03455450706,
			"-0.008": 5.03639900121,
			"-0.007": 9.85426273768,
			"-0.006": 16.4139464643,
			"-0.005": 19.0441196563,
			"-0.004": 20.6588466866,
			"-0.003": 19.6649087942,
			"-0.002": 19.5660165607,
			"-0.001": 14.7602075322,
			"0.0": 10.8585269808,
			"0.001": 11.0310289491,
			"0.002": 13.0013593757,
			"0.003": 14.0138224833,
			"0.004": 6.49589916014,
			"0.005": 5.03946154115,
			"0.006": 5.41034324219,
			"0.007": 5.92789245237,
			"0.008": 5.79439785741,
			"0.009": 5.7213517004,
			"0.01": 7.88062874268,
			"0.011": 13.0692200445,
			"0.012": 6.70551265925,
			"0.013": 0.0,
			"0.014": 0.0,
			"0.015": 0.0,
			"0.016": 0.0,
			"0.017": 0.0,
			"0.018": 0.0,
			"0.019": 0.0,
			"0.02": 0.0,
			"0.021": 0.0,
			"0.022": 0.0,
			"0.023": 0.0,
			"0.024": 0.0,
			"0.025": 0.0
		}
	}
}
