{
	 "smiles": "CN(C)C(=O)C1=CN=C(Cl)C=C1", 
	 "Tm": 341.15, 
	 "num_atms": 21, 
	 "gaussian": { 
		 "optdone": 1, 
		 "sigma_profile": "yes", 
		 "theory": "DFT", 
		 "functional": "B3LYP", 
		 "basiset": "6-31G**", 
		 "properties": { 
			 "R2extent": 3574.2251, 
			 "electric_dipole_moment_norm": 3.48901911001, 
			 "electric_quadrupole_moment_norm": 14.4678861918, 
			 "total_energy": -955.198043434, 
			 "HOMO_LUMO_gap": 0.19729, 
			 "cosmo_polarized_energy": -11.73, 
			 "cosmo_cavitation_energy": 26.77, 
			 "cosmo_dispersion_energy": -19.66, 
			 "cosmo_repulsion_energy": 1.57, 
			 "cosmo_total_nonelectrostatic_energy": 8.68, 
			 "SMD_solvation_energy": 3.44 
		},
		"coords": [
			{
				"x": -1.8180281195,
				"y": 3.0477569855,
				"z": -0.2069685111,
				"element": "C" 
			},
			{
				"x": -1.0439766314,
				"y": 1.9096792224,
				"z": 0.2754758294,
				"element": "N" 
			},
			{
				"x": -1.6837741963,
				"y": 1.1324059797,
				"z": 1.3295859643,
				"element": "C" 
			},
			{
				"x": 0.2923451624,
				"y": 1.8636692845,
				"z": -0.0446004542,
				"element": "C" 
			},
			{
				"x": 0.8548198751,
				"y": 2.7726546357,
				"z": -0.6525458962,
				"element": "O" 
			},
			{
				"x": 1.082587883,
				"y": 0.6323784247,
				"z": 0.3115481165,
				"element": "C" 
			},
			{
				"x": 0.6150444846,
				"y": -0.6741870273,
				"z": 0.1399294152,
				"element": "C" 
			},
			{
				"x": 1.3624570135,
				"y": -1.7664155178,
				"z": 0.3537415343,
				"element": "N" 
			},
			{
				"x": 2.6075497439,
				"y": -1.5794448805,
				"z": 0.7500603394,
				"element": "C" 
			},
			{
				"x": 3.5665419781,
				"y": -3.024039155,
				"z": 1.0537675472,
				"element": "Cl" 
			},
			{
				"x": 3.2069076659,
				"y": -0.3278606372,
				"z": 0.9322842493,
				"element": "C" 
			},
			{
				"x": 2.4234854446,
				"y": 0.7919362193,
				"z": 0.6905801488,
				"element": "C" 
			},
			{
				"x": -1.9353516819,
				"y": 3.8101611065,
				"z": 0.5750417347,
				"element": "H" 
			},
			{
				"x": -2.8136693613,
				"y": 2.7078893466,
				"z": -0.5115929074,
				"element": "H" 
			},
			{
				"x": -1.3007462942,
				"y": 3.4944538789,
				"z": -1.0540048722,
				"element": "H" 
			},
			{
				"x": -2.0673016769,
				"y": 1.8061896144,
				"z": 2.1070010671,
				"element": "H" 
			},
			{
				"x": -2.5292168022,
				"y": 0.553356677,
				"z": 0.9378363794,
				"element": "H" 
			},
			{
				"x": -0.9769675118,
				"y": 0.4488320593,
				"z": 1.7957062136,
				"element": "H" 
			},
			{
				"x": -0.3985408181,
				"y": -0.859833971,
				"z": -0.2072626912,
				"element": "H" 
			},
			{
				"x": 4.2429932264,
				"y": -0.2482411789,
				"z": 1.2384687372,
				"element": "H" 
			},
			{
				"x": 2.8332406161,
				"y": 1.7927589331,
				"z": 0.7784480558,
				"element": "H" 
			}
		],
		 "valence_orbital": [ 
			{
				"type": "occ",
				"energy": -0.30569,
				"method": "rhf"
			},
			{
				"type": "occ",
				"energy": -0.28741,
				"method": "rhf"
			},
			{
				"type": "occ",
				"energy": -0.26902,
				"method": "rhf"
			},
			{
				"type": "occ",
				"energy": -0.25627,
				"method": "rhf"
			},
			{
				"type": "occ",
				"energy": -0.24731,
				"method": "rhf"
			},
			{
				"type": "unocc",
				"energy": -0.05002,
				"method": "rhf"
			},
			{
				"type": "unocc",
				"energy": -0.04064,
				"method": "rhf"
			},
			{
				"type": "unocc",
				"energy": 0.0294,
				"method": "rhf"
			},
			{
				"type": "unocc",
				"energy": 0.03481,
				"method": "rhf"
			},
			{
				"type": "unocc",
				"energy": 0.08129,
				"method": "rhf"
			}
		],
		"cosmo_sigma_profile": { 
			"-0.025": 0.0,
			"-0.024": 0.0,
			"-0.023": 0.0,
			"-0.022": 0.0,
			"-0.021": 0.0,
			"-0.02": 0.0,
			"-0.019": 0.0,
			"-0.018": 0.0,
			"-0.017": 0.0,
			"-0.016": 0.0,
			"-0.015": 0.0,
			"-0.014": 0.0,
			"-0.013": 0.0,
			"-0.012": 0.0,
			"-0.011": 0.0,
			"-0.01": 0.0,
			"-0.009": 0.511548536555,
			"-0.008": 3.84571928257,
			"-0.007": 5.65050122083,
			"-0.006": 6.68975778454,
			"-0.005": 19.1998292012,
			"-0.004": 22.2651575587,
			"-0.003": 20.7338946903,
			"-0.002": 23.5515236825,
			"-0.001": 19.6209872111,
			"0.0": 17.054977573,
			"0.001": 12.008335527,
			"0.002": 8.77117456551,
			"0.003": 8.64427318784,
			"0.004": 12.0918414539,
			"0.005": 6.37407325984,
			"0.006": 3.38713842562,
			"0.007": 3.4259665237,
			"0.008": 3.23185923141,
			"0.009": 2.46332026904,
			"0.01": 2.57984229881,
			"0.011": 2.03882326866,
			"0.012": 3.21777011084,
			"0.013": 5.38245587879,
			"0.014": 2.94124074543,
			"0.015": 0.142337296316,
			"0.016": 0.0,
			"0.017": 0.0,
			"0.018": 0.0,
			"0.019": 0.0,
			"0.02": 0.0,
			"0.021": 0.0,
			"0.022": 0.0,
			"0.023": 0.0,
			"0.024": 0.0,
			"0.025": 0.0
		}
	}
}
