{
	 "smiles": "CC1=C(C)C=C(C=C1)S(=O)(=O)NCCC(O)=O", 
	 "Tm": 400.15, 
	 "num_atms": 32, 
	 "gaussian": { 
		 "optdone": 1, 
		 "sigma_profile": "yes", 
		 "theory": "DFT", 
		 "functional": "B3LYP", 
		 "basiset": "6-31G**", 
		 "properties": { 
			 "R2extent": 6830.5795, 
			 "electric_dipole_moment_norm": 5.98426101202, 
			 "electric_quadrupole_moment_norm": 19.8952608068, 
			 "total_energy": -1182.00687073, 
			 "HOMO_LUMO_gap": 0.2185, 
			 "cosmo_polarized_energy": -22.53, 
			 "cosmo_cavitation_energy": 37.58, 
			 "cosmo_dispersion_energy": -26.63, 
			 "cosmo_repulsion_energy": 2.06, 
			 "cosmo_total_nonelectrostatic_energy": 13.02, 
			 "SMD_solvation_energy": 6.13 
		},
		"coords": [
			{
				"x": -4.2153380121,
				"y": 0.3403871955,
				"z": 2.2018999882,
				"element": "C" 
			},
			{
				"x": -2.8228036445,
				"y": -0.073445329,
				"z": 1.7936442602,
				"element": "C" 
			},
			{
				"x": -2.5541267986,
				"y": -0.4937683249,
				"z": 0.4704309976,
				"element": "C" 
			},
			{
				"x": -3.6525205916,
				"y": -0.5485594086,
				"z": -0.5641915121,
				"element": "C" 
			},
			{
				"x": -1.252872053,
				"y": -0.8703042267,
				"z": 0.1283191817,
				"element": "C" 
			},
			{
				"x": -0.2301057495,
				"y": -0.8364472601,
				"z": 1.0792426278,
				"element": "C" 
			},
			{
				"x": -0.48446998,
				"y": -0.4353321319,
				"z": 2.389790309,
				"element": "C" 
			},
			{
				"x": -1.7821864538,
				"y": -0.0553769588,
				"z": 2.729835289,
				"element": "C" 
			},
			{
				"x": 1.4377587258,
				"y": -1.2903841558,
				"z": 0.5924402718,
				"element": "S" 
			},
			{
				"x": 2.1478505304,
				"y": -1.7152473756,
				"z": 1.7993346596,
				"element": "O" 
			},
			{
				"x": 1.3399493094,
				"y": -2.1248130408,
				"z": -0.6063325126,
				"element": "O" 
			},
			{
				"x": 2.1989637155,
				"y": 0.1204808787,
				"z": 0.0708362568,
				"element": "N" 
			},
			{
				"x": 2.4243099617,
				"y": 1.2117587677,
				"z": 1.0237811102,
				"element": "C" 
			},
			{
				"x": 3.5250275509,
				"y": 2.1307810661,
				"z": 0.4946231539,
				"element": "C" 
			},
			{
				"x": 3.8228164653,
				"y": 3.2619989689,
				"z": 1.4535767456,
				"element": "C" 
			},
			{
				"x": 4.7629780831,
				"y": 4.0989540451,
				"z": 0.9565895752,
				"element": "O" 
			},
			{
				"x": 3.3049541061,
				"y": 3.423981872,
				"z": 2.5368357396,
				"element": "O" 
			},
			{
				"x": -4.5768969545,
				"y": 1.1844021071,
				"z": 1.6023668735,
				"element": "H" 
			},
			{
				"x": -4.2474658201,
				"y": 0.6378446099,
				"z": 3.2527992263,
				"element": "H" 
			},
			{
				"x": -4.9344970023,
				"y": -0.4754948434,
				"z": 2.0617028973,
				"element": "H" 
			},
			{
				"x": -3.2700875687,
				"y": -0.8969386344,
				"z": -1.5266294203,
				"element": "H" 
			},
			{
				"x": -4.4588890237,
				"y": -1.2263841322,
				"z": -0.2598693904,
				"element": "H" 
			},
			{
				"x": -4.1100714292,
				"y": 0.4357474709,
				"z": -0.720500602,
				"element": "H" 
			},
			{
				"x": -1.0321405488,
				"y": -1.2188610011,
				"z": -0.8758214089,
				"element": "H" 
			},
			{
				"x": 0.3091403073,
				"y": -0.444969067,
				"z": 3.1284906647,
				"element": "H" 
			},
			{
				"x": -1.9939389961,
				"y": 0.2553663045,
				"z": 3.7494089143,
				"element": "H" 
			},
			{
				"x": 1.8223995795,
				"y": 0.4020326534,
				"z": -0.8304233274,
				"element": "H" 
			},
			{
				"x": 2.7461679557,
				"y": 0.7630287221,
				"z": 1.9653049238,
				"element": "H" 
			},
			{
				"x": 1.5136817174,
				"y": 1.790519849,
				"z": 1.2290591151,
				"element": "H" 
			},
			{
				"x": 4.4462132604,
				"y": 1.5631829891,
				"z": 0.3222787964,
				"element": "H" 
			},
			{
				"x": 3.255783571,
				"y": 2.5692785072,
				"z": -0.4746439898,
				"element": "H" 
			},
			{
				"x": 4.9027157873,
				"y": 4.783579883,
				"z": 1.6325205858,
				"element": "H" 
			}
		],
		 "valence_orbital": [ 
			{
				"type": "occ",
				"energy": -0.29826,
				"method": "rhf"
			},
			{
				"type": "occ",
				"energy": -0.28963,
				"method": "rhf"
			},
			{
				"type": "occ",
				"energy": -0.28027,
				"method": "rhf"
			},
			{
				"type": "occ",
				"energy": -0.26071,
				"method": "rhf"
			},
			{
				"type": "occ",
				"energy": -0.25202,
				"method": "rhf"
			},
			{
				"type": "unocc",
				"energy": -0.03352,
				"method": "rhf"
			},
			{
				"type": "unocc",
				"energy": -0.01564,
				"method": "rhf"
			},
			{
				"type": "unocc",
				"energy": -9e-05,
				"method": "rhf"
			},
			{
				"type": "unocc",
				"energy": 0.05917,
				"method": "rhf"
			},
			{
				"type": "unocc",
				"energy": 0.0721,
				"method": "rhf"
			}
		],
		"cosmo_sigma_profile": { 
			"-0.025": 0.0,
			"-0.024": 0.0,
			"-0.023": 0.0,
			"-0.022": 0.0,
			"-0.021": 0.0,
			"-0.02": 0.0,
			"-0.019": 0.0328200204279,
			"-0.018": 0.87887700003,
			"-0.017": 0.97130336495,
			"-0.016": 0.527196531502,
			"-0.015": 1.60780298673,
			"-0.014": 1.8478668473,
			"-0.013": 1.92993243885,
			"-0.012": 2.25513009489,
			"-0.011": 2.265169023,
			"-0.01": 2.33184379968,
			"-0.009": 1.72661522692,
			"-0.008": 2.42405199013,
			"-0.007": 6.61249030082,
			"-0.006": 14.4453947913,
			"-0.005": 20.8983892666,
			"-0.004": 26.8541429405,
			"-0.003": 22.0552926578,
			"-0.002": 22.898323691,
			"-0.001": 24.5991392151,
			"0.0": 22.9548686993,
			"0.001": 12.5782633462,
			"0.002": 13.8094565862,
			"0.003": 13.9322262596,
			"0.004": 11.572177601,
			"0.005": 6.27722215197,
			"0.006": 6.15026080961,
			"0.007": 5.91340909104,
			"0.008": 6.53783439614,
			"0.009": 7.83192026465,
			"0.01": 9.2165538426,
			"0.011": 13.2189273345,
			"0.012": 8.84290049479,
			"0.013": 0.0697375348153,
			"0.014": 0.0,
			"0.015": 0.0,
			"0.016": 0.0,
			"0.017": 0.0,
			"0.018": 0.0,
			"0.019": 0.0,
			"0.02": 0.0,
			"0.021": 0.0,
			"0.022": 0.0,
			"0.023": 0.0,
			"0.024": 0.0,
			"0.025": 0.0
		}
	}
}
