{
	 "smiles": "CC#CC", 
	 "Tm": 241.05, 
	 "num_atms": 10, 
	 "gaussian": { 
		 "optdone": 1, 
		 "sigma_profile": "yes", 
		 "theory": "DFT", 
		 "functional": "B3LYP", 
		 "basiset": "6-31G**", 
		 "properties": { 
			 "R2extent": 921.4444, 
			 "electric_dipole_moment_norm": 0.00134907375632, 
			 "electric_quadrupole_moment_norm": 4.02523983385, 
			 "total_energy": -155.983881904, 
			 "HOMO_LUMO_gap": 0.30855, 
			 "cosmo_polarized_energy": -3.22, 
			 "cosmo_cavitation_energy": 13.97, 
			 "cosmo_dispersion_energy": -10.17, 
			 "cosmo_repulsion_energy": 0.96, 
			 "cosmo_total_nonelectrostatic_energy": 4.75, 
			 "SMD_solvation_energy": 3.44 
		},
		"coords": [
			{
				"x": 0.1513627151,
				"y": 1.1655850581,
				"z": -0.3159567081,
				"element": "C" 
			},
			{
				"x": 1.1175469078,
				"y": 1.0624092203,
				"z": 0.7743650903,
				"element": "C" 
			},
			{
				"x": 1.9176077833,
				"y": 0.9769246876,
				"z": 1.6770474371,
				"element": "C" 
			},
			{
				"x": 2.8848802187,
				"y": 0.8736728569,
				"z": 2.766397151,
				"element": "C" 
			},
			{
				"x": 0.4534598331,
				"y": 0.5574397306,
				"z": -1.1765136328,
				"element": "H" 
			},
			{
				"x": -0.8420977419,
				"y": 0.8236493522,
				"z": -0.0032591016,
				"element": "H" 
			},
			{
				"x": 0.0495688413,
				"y": 2.2003630747,
				"z": -0.6631431269,
				"element": "H" 
			},
			{
				"x": 3.5042996614,
				"y": -0.0252693737,
				"z": 2.6669766852,
				"element": "H" 
			},
			{
				"x": 2.3854039209,
				"y": 0.8236165522,
				"z": 3.7409135399,
				"element": "H" 
			},
			{
				"x": 3.5589678604,
				"y": 1.7379088412,
				"z": 2.7855726657,
				"element": "H" 
			}
		],
		 "valence_orbital": [ 
			{
				"type": "occ",
				"energy": -0.42497,
				"method": "rhf"
			},
			{
				"type": "occ",
				"energy": -0.41329,
				"method": "rhf"
			},
			{
				"type": "occ",
				"energy": -0.41329,
				"method": "rhf"
			},
			{
				"type": "occ",
				"energy": -0.24014,
				"method": "rhf"
			},
			{
				"type": "occ",
				"energy": -0.24014,
				"method": "rhf"
			},
			{
				"type": "unocc",
				"energy": 0.06841,
				"method": "rhf"
			},
			{
				"type": "unocc",
				"energy": 0.06842,
				"method": "rhf"
			},
			{
				"type": "unocc",
				"energy": 0.11655,
				"method": "rhf"
			},
			{
				"type": "unocc",
				"energy": 0.11823,
				"method": "rhf"
			},
			{
				"type": "unocc",
				"energy": 0.17008,
				"method": "rhf"
			}
		],
		"cosmo_sigma_profile": { 
			"-0.025": 0.0,
			"-0.024": 0.0,
			"-0.023": 0.0,
			"-0.022": 0.0,
			"-0.021": 0.0,
			"-0.02": 0.0,
			"-0.019": 0.0,
			"-0.018": 0.0,
			"-0.017": 0.0,
			"-0.016": 0.0,
			"-0.015": 0.0,
			"-0.014": 0.0,
			"-0.013": 0.0,
			"-0.012": 0.0,
			"-0.011": 0.0,
			"-0.01": 0.0,
			"-0.009": 0.0,
			"-0.008": 0.0,
			"-0.007": 0.0,
			"-0.006": 1.76499202986,
			"-0.005": 10.8201677166,
			"-0.004": 11.2605870614,
			"-0.003": 11.7476352525,
			"-0.002": 14.9658152221,
			"-0.001": 14.7663918162,
			"0.0": 7.2061622565,
			"0.001": 4.7377336266,
			"0.002": 4.84856874367,
			"0.003": 3.84921406801,
			"0.004": 3.40819157414,
			"0.005": 3.70933520614,
			"0.006": 4.08626103944,
			"0.007": 5.53972151664,
			"0.008": 8.03598062324,
			"0.009": 0.31818519605,
			"0.01": 0.0,
			"0.011": 0.0,
			"0.012": 0.0,
			"0.013": 0.0,
			"0.014": 0.0,
			"0.015": 0.0,
			"0.016": 0.0,
			"0.017": 0.0,
			"0.018": 0.0,
			"0.019": 0.0,
			"0.02": 0.0,
			"0.021": 0.0,
			"0.022": 0.0,
			"0.023": 0.0,
			"0.024": 0.0,
			"0.025": 0.0
		}
	}
}
