{
	 "smiles": "NC(=S)C1CCOC1", 
	 "Tm": 376.15, 
	 "num_atms": 17, 
	 "gaussian": { 
		 "optdone": 1, 
		 "sigma_profile": "yes", 
		 "theory": "DFT", 
		 "functional": "B3LYP", 
		 "basiset": "6-31G**", 
		 "properties": { 
			 "R2extent": 1553.3028, 
			 "electric_dipole_moment_norm": 4.13821458361, 
			 "electric_quadrupole_moment_norm": 13.3983131834, 
			 "total_energy": -724.114799458, 
			 "HOMO_LUMO_gap": 0.17551, 
			 "cosmo_polarized_energy": -13.77, 
			 "cosmo_cavitation_energy": 20.74, 
			 "cosmo_dispersion_energy": -16.16, 
			 "cosmo_repulsion_energy": 1.3, 
			 "cosmo_total_nonelectrostatic_energy": 5.88, 
			 "SMD_solvation_energy": 2.36 
		},
		"coords": [
			{
				"x": 1.0480374117,
				"y": -0.048303471,
				"z": 2.1572523639,
				"element": "N" 
			},
			{
				"x": 0.1282074546,
				"y": 0.8739605697,
				"z": 1.8182624755,
				"element": "C" 
			},
			{
				"x": -0.9735206989,
				"y": 1.5014595984,
				"z": 2.8981020638,
				"element": "S" 
			},
			{
				"x": 0.1525707608,
				"y": 1.2807076104,
				"z": 0.3488746515,
				"element": "C" 
			},
			{
				"x": -0.3349998475,
				"y": 0.1236726105,
				"z": -0.5805264403,
				"element": "C" 
			},
			{
				"x": 0.9723293515,
				"y": -0.4509747561,
				"z": -1.1866117627,
				"element": "C" 
			},
			{
				"x": 2.0556017452,
				"y": 0.1938347436,
				"z": -0.5004664626,
				"element": "O" 
			},
			{
				"x": 1.5836560144,
				"y": 1.505220423,
				"z": -0.1799412313,
				"element": "C" 
			},
			{
				"x": 1.7316464705,
				"y": -0.3621299645,
				"z": 1.4753549465,
				"element": "H" 
			},
			{
				"x": 1.1020999665,
				"y": -0.3540271199,
				"z": 3.1178006653,
				"element": "H" 
			},
			{
				"x": -0.4693654514,
				"y": 2.1688108439,
				"z": 0.2435629937,
				"element": "H" 
			},
			{
				"x": -0.9923731072,
				"y": 0.5157316719,
				"z": -1.3606426588,
				"element": "H" 
			},
			{
				"x": -0.8994868692,
				"y": -0.625339945,
				"z": -0.0210326075,
				"element": "H" 
			},
			{
				"x": 1.0893412275,
				"y": -1.5283866723,
				"z": -1.0456883215,
				"element": "H" 
			},
			{
				"x": 1.0366655673,
				"y": -0.2330591456,
				"z": -2.2618862059,
				"element": "H" 
			},
			{
				"x": 1.5630801066,
				"y": 2.1402613501,
				"z": -1.0788086185,
				"element": "H" 
			},
			{
				"x": 2.2707098977,
				"y": 1.9441616529,
				"z": 0.5468941488,
				"element": "H" 
			}
		],
		 "valence_orbital": [ 
			{
				"type": "occ",
				"energy": -0.3409,
				"method": "rhf"
			},
			{
				"type": "occ",
				"energy": -0.34007,
				"method": "rhf"
			},
			{
				"type": "occ",
				"energy": -0.27853,
				"method": "rhf"
			},
			{
				"type": "occ",
				"energy": -0.22697,
				"method": "rhf"
			},
			{
				"type": "occ",
				"energy": -0.20259,
				"method": "rhf"
			},
			{
				"type": "unocc",
				"energy": -0.02708,
				"method": "rhf"
			},
			{
				"type": "unocc",
				"energy": 0.06131,
				"method": "rhf"
			},
			{
				"type": "unocc",
				"energy": 0.08391,
				"method": "rhf"
			},
			{
				"type": "unocc",
				"energy": 0.10048,
				"method": "rhf"
			},
			{
				"type": "unocc",
				"energy": 0.11633,
				"method": "rhf"
			}
		],
		"cosmo_sigma_profile": { 
			"-0.025": 0.0,
			"-0.024": 0.0,
			"-0.023": 0.0,
			"-0.022": 0.0,
			"-0.021": 0.0,
			"-0.02": 0.0,
			"-0.019": 0.0,
			"-0.018": 0.0,
			"-0.017": 0.0,
			"-0.016": 0.0,
			"-0.015": 0.308629337231,
			"-0.014": 1.2530919899,
			"-0.013": 1.19049738595,
			"-0.012": 1.14907473007,
			"-0.011": 2.00633958735,
			"-0.01": 1.50345166599,
			"-0.009": 1.70656805702,
			"-0.008": 1.73217632944,
			"-0.007": 1.71476610141,
			"-0.006": 5.31268204379,
			"-0.005": 20.836795221,
			"-0.004": 24.1658533348,
			"-0.003": 16.3135833362,
			"-0.002": 10.8406229728,
			"-0.001": 8.36373347771,
			"0.0": 4.85035391679,
			"0.001": 4.29118526387,
			"0.002": 4.17211997659,
			"0.003": 4.48259106646,
			"0.004": 4.49974510713,
			"0.005": 4.27345306948,
			"0.006": 4.48792182306,
			"0.007": 4.1235076843,
			"0.008": 6.31394296439,
			"0.009": 6.73695150969,
			"0.01": 6.52601257819,
			"0.011": 5.60590460268,
			"0.012": 4.54644000751,
			"0.013": 1.90700097315,
			"0.014": 0.0,
			"0.015": 0.0,
			"0.016": 0.0,
			"0.017": 0.0,
			"0.018": 0.0,
			"0.019": 0.0,
			"0.02": 0.0,
			"0.021": 0.0,
			"0.022": 0.0,
			"0.023": 0.0,
			"0.024": 0.0,
			"0.025": 0.0
		}
	}
}
