{
	 "smiles": "CC1=C(F)C(F)=C(C(O)=O)C(F)=C1F", 
	 "Tm": 447.15, 
	 "num_atms": 18, 
	 "gaussian": { 
		 "optdone": 1, 
		 "sigma_profile": "yes", 
		 "theory": "DFT", 
		 "functional": "B3LYP", 
		 "basiset": "6-31G**", 
		 "properties": { 
			 "R2extent": 3020.4446, 
			 "electric_dipole_moment_norm": 2.059387608, 
			 "electric_quadrupole_moment_norm": 13.9671669253, 
			 "total_energy": -857.042701546, 
			 "HOMO_LUMO_gap": 0.1906, 
			 "cosmo_polarized_energy": -9.6, 
			 "cosmo_cavitation_energy": 25.1, 
			 "cosmo_dispersion_energy": -17.95, 
			 "cosmo_repulsion_energy": 1.34, 
			 "cosmo_total_nonelectrostatic_energy": 8.49, 
			 "SMD_solvation_energy": 7.49 
		},
		"coords": [
			{
				"x": 0.8674587218,
				"y": 2.3227088668,
				"z": 1.8592345948,
				"element": "C" 
			},
			{
				"x": 0.4231650886,
				"y": 1.5365726294,
				"z": 0.6561768074,
				"element": "C" 
			},
			{
				"x": -0.7612311996,
				"y": 0.8006419663,
				"z": 0.6567240791,
				"element": "C" 
			},
			{
				"x": -1.5420560191,
				"y": 0.8054765147,
				"z": 1.7519620763,
				"element": "F" 
			},
			{
				"x": -1.1750956698,
				"y": 0.0604311016,
				"z": -0.4470713081,
				"element": "C" 
			},
			{
				"x": -2.3383127619,
				"y": -0.5918450797,
				"z": -0.3554788589,
				"element": "F" 
			},
			{
				"x": -0.4118147106,
				"y": 0.0277775206,
				"z": -1.6237458786,
				"element": "C" 
			},
			{
				"x": -0.8250765727,
				"y": -0.7189915914,
				"z": -2.8496900812,
				"element": "C" 
			},
			{
				"x": -1.5669785981,
				"y": -1.811431856,
				"z": -2.5660545058,
				"element": "O" 
			},
			{
				"x": -0.5265478845,
				"y": -0.4008102563,
				"z": -3.9793078845,
				"element": "O" 
			},
			{
				"x": 0.7779243942,
				"y": 0.77308065,
				"z": -1.633213622,
				"element": "C" 
			},
			{
				"x": 1.5760680839,
				"y": 0.7821909633,
				"z": -2.7020869266,
				"element": "F" 
			},
			{
				"x": 1.180295754,
				"y": 1.4964421123,
				"z": -0.5145237876,
				"element": "C" 
			},
			{
				"x": 2.3376201031,
				"y": 2.1782468603,
				"z": -0.5761695315,
				"element": "F" 
			},
			{
				"x": 1.4871818918,
				"y": 1.7043233509,
				"z": 2.5187390808,
				"element": "H" 
			},
			{
				"x": 0.0056716828,
				"y": 2.6622628353,
				"z": 2.4363765641,
				"element": "H" 
			},
			{
				"x": 1.4638504971,
				"y": 3.1850359658,
				"z": 1.5563955824,
				"element": "H" 
			},
			{
				"x": -1.7911228008,
				"y": -2.2066125538,
				"z": -3.4257664002,
				"element": "H" 
			}
		],
		 "valence_orbital": [ 
			{
				"type": "occ",
				"energy": -0.35435,
				"method": "rhf"
			},
			{
				"type": "occ",
				"energy": -0.32783,
				"method": "rhf"
			},
			{
				"type": "occ",
				"energy": -0.29109,
				"method": "rhf"
			},
			{
				"type": "occ",
				"energy": -0.27314,
				"method": "rhf"
			},
			{
				"type": "occ",
				"energy": -0.253,
				"method": "rhf"
			},
			{
				"type": "unocc",
				"energy": -0.0624,
				"method": "rhf"
			},
			{
				"type": "unocc",
				"energy": -0.01365,
				"method": "rhf"
			},
			{
				"type": "unocc",
				"energy": 0.0297,
				"method": "rhf"
			},
			{
				"type": "unocc",
				"energy": 0.03836,
				"method": "rhf"
			},
			{
				"type": "unocc",
				"energy": 0.07482,
				"method": "rhf"
			}
		],
		"cosmo_sigma_profile": { 
			"-0.025": 0.0,
			"-0.024": 0.0,
			"-0.023": 0.0,
			"-0.022": 0.0,
			"-0.021": 0.0,
			"-0.02": 0.0,
			"-0.019": 0.472720822589,
			"-0.018": 1.14755988657,
			"-0.017": 0.942848304912,
			"-0.016": 0.67588169844,
			"-0.015": 0.787275509811,
			"-0.014": 0.307441588922,
			"-0.013": 0.47198592428,
			"-0.012": 1.00948522023,
			"-0.011": 1.23548351496,
			"-0.01": 0.429481655339,
			"-0.009": 0.419195305924,
			"-0.008": 0.798944841433,
			"-0.007": 1.08089937191,
			"-0.006": 3.99486775971,
			"-0.005": 8.51690392462,
			"-0.004": 11.9000201279,
			"-0.003": 26.4889684472,
			"-0.002": 26.8524779197,
			"-0.001": 14.5290115943,
			"0.0": 7.86105945599,
			"0.001": 8.9043579078,
			"0.002": 15.7421163154,
			"0.003": 31.7904673431,
			"0.004": 9.43242158204,
			"0.005": 4.08293679548,
			"0.006": 2.8989404399,
			"0.007": 3.87647707173,
			"0.008": 3.93045176373,
			"0.009": 2.13504488874,
			"0.01": 3.55829501753,
			"0.011": 5.34665011652,
			"0.012": 0.559666131208,
			"0.013": 0.0,
			"0.014": 0.0,
			"0.015": 0.0,
			"0.016": 0.0,
			"0.017": 0.0,
			"0.018": 0.0,
			"0.019": 0.0,
			"0.02": 0.0,
			"0.021": 0.0,
			"0.022": 0.0,
			"0.023": 0.0,
			"0.024": 0.0,
			"0.025": 0.0
		}
	}
}
