{
	 "smiles": "CC1=CSC(S)=N1", 
	 "Tm": 361.85, 
	 "num_atms": 12, 
	 "gaussian": { 
		 "optdone": 1, 
		 "sigma_profile": "yes", 
		 "theory": "DFT", 
		 "functional": "B3LYP", 
		 "basiset": "6-31G**", 
		 "properties": { 
			 "R2extent": 3677.6263, 
			 "electric_dipole_moment_norm": 1.94624250544, 
			 "electric_quadrupole_moment_norm": 9.6191086926, 
			 "total_energy": -1006.55261015, 
			 "HOMO_LUMO_gap": 0.19874, 
			 "cosmo_polarized_energy": -7.2, 
			 "cosmo_cavitation_energy": 19.31, 
			 "cosmo_dispersion_energy": -15.6, 
			 "cosmo_repulsion_energy": 1.22, 
			 "cosmo_total_nonelectrostatic_energy": 4.93, 
			 "SMD_solvation_energy": 1.37 
		},
		"coords": [
			{
				"x": -0.1029939308,
				"y": 0.235519049,
				"z": 2.7595213852,
				"element": "C" 
			},
			{
				"x": -0.5757165681,
				"y": -1.1294332785,
				"z": 2.3560740084,
				"element": "C" 
			},
			{
				"x": 0.097308622,
				"y": -2.302576845,
				"z": 2.5450534108,
				"element": "C" 
			},
			{
				"x": -0.8222101863,
				"y": -3.6436205355,
				"z": 1.9223064293,
				"element": "S" 
			},
			{
				"x": -2.0691129073,
				"y": -2.4909634143,
				"z": 1.4464934121,
				"element": "C" 
			},
			{
				"x": -3.580877627,
				"y": -2.9402117942,
				"z": 0.6407658219,
				"element": "S" 
			},
			{
				"x": -1.8051994973,
				"y": -1.2539585988,
				"z": 1.730462359,
				"element": "N" 
			},
			{
				"x": -0.0315455068,
				"y": 0.8922048363,
				"z": 1.8860241969,
				"element": "H" 
			},
			{
				"x": 0.8770386294,
				"y": 0.1883768399,
				"z": 3.2402312537,
				"element": "H" 
			},
			{
				"x": -0.8107422775,
				"y": 0.6981266361,
				"z": 3.4555262713,
				"element": "H" 
			},
			{
				"x": 1.0626363056,
				"y": -2.45852271,
				"z": 3.0048577415,
				"element": "H" 
			},
			{
				"x": -3.3383850558,
				"y": -4.264940185,
				"z": 0.5949837099,
				"element": "H" 
			}
		],
		 "valence_orbital": [ 
			{
				"type": "occ",
				"energy": -0.3602,
				"method": "rhf"
			},
			{
				"type": "occ",
				"energy": -0.30347,
				"method": "rhf"
			},
			{
				"type": "occ",
				"energy": -0.27852,
				"method": "rhf"
			},
			{
				"type": "occ",
				"energy": -0.27799,
				"method": "rhf"
			},
			{
				"type": "occ",
				"energy": -0.22275,
				"method": "rhf"
			},
			{
				"type": "unocc",
				"energy": -0.02401,
				"method": "rhf"
			},
			{
				"type": "unocc",
				"energy": -0.01677,
				"method": "rhf"
			},
			{
				"type": "unocc",
				"energy": 0.03655,
				"method": "rhf"
			},
			{
				"type": "unocc",
				"energy": 0.0479,
				"method": "rhf"
			},
			{
				"type": "unocc",
				"energy": 0.06183,
				"method": "rhf"
			}
		],
		"cosmo_sigma_profile": { 
			"-0.025": 0.0,
			"-0.024": 0.0,
			"-0.023": 0.0,
			"-0.022": 0.0,
			"-0.021": 0.0,
			"-0.02": 0.0,
			"-0.019": 0.0,
			"-0.018": 0.0,
			"-0.017": 0.0,
			"-0.016": 0.0,
			"-0.015": 0.0,
			"-0.014": 0.0,
			"-0.013": 0.0234906848434,
			"-0.012": 1.89759817745,
			"-0.011": 2.32901671961,
			"-0.01": 1.91492138349,
			"-0.009": 2.89999622462,
			"-0.008": 3.08042983668,
			"-0.007": 3.77936669544,
			"-0.006": 4.2337671984,
			"-0.005": 6.71303773397,
			"-0.004": 9.30060253206,
			"-0.003": 8.36053832278,
			"-0.002": 10.2946738031,
			"-0.001": 13.1417544949,
			"0.0": 13.3244054406,
			"0.001": 14.1912122138,
			"0.002": 16.3500787578,
			"0.003": 14.6485735167,
			"0.004": 11.558341983,
			"0.005": 5.49954359193,
			"0.006": 5.19492757369,
			"0.007": 3.2952192028,
			"0.008": 1.33185245365,
			"0.009": 1.17432643727,
			"0.01": 1.07769264751,
			"0.011": 0.989168966523,
			"0.012": 1.08912446342,
			"0.013": 0.619679011106,
			"0.014": 0.771341785699,
			"0.015": 0.1639409452,
			"0.016": 0.0,
			"0.017": 0.0,
			"0.018": 0.0,
			"0.019": 0.0,
			"0.02": 0.0,
			"0.021": 0.0,
			"0.022": 0.0,
			"0.023": 0.0,
			"0.024": 0.0,
			"0.025": 0.0
		}
	}
}
