{
	 "smiles": "CNCC1=CC=CC=C1", 
	 "Tm": 249.15, 
	 "num_atms": 20, 
	 "gaussian": { 
		 "optdone": 1, 
		 "sigma_profile": "yes", 
		 "theory": "DFT", 
		 "functional": "B3LYP", 
		 "basiset": "6-31G**", 
		 "properties": { 
			 "R2extent": 1646.3511, 
			 "electric_dipole_moment_norm": 0.967766345767, 
			 "electric_quadrupole_moment_norm": 5.35665573469, 
			 "total_energy": -366.224157064, 
			 "HOMO_LUMO_gap": 0.2128, 
			 "cosmo_polarized_energy": -5.7, 
			 "cosmo_cavitation_energy": 22.7, 
			 "cosmo_dispersion_energy": -16.49, 
			 "cosmo_repulsion_energy": 1.36, 
			 "cosmo_total_nonelectrostatic_energy": 7.58, 
			 "SMD_solvation_energy": 1.53 
		},
		"coords": [
			{
				"x": -1.1689892603,
				"y": 1.7661747264,
				"z": 1.352377456,
				"element": "C" 
			},
			{
				"x": -1.8374357661,
				"y": 2.0802545046,
				"z": 0.0931523239,
				"element": "N" 
			},
			{
				"x": -1.0305515235,
				"y": 1.8247735644,
				"z": -1.107124608,
				"element": "C" 
			},
			{
				"x": -0.6459190532,
				"y": 0.3735248126,
				"z": -1.3576975634,
				"element": "C" 
			},
			{
				"x": 0.6086267207,
				"y": -0.1256940207,
				"z": -0.9842598779,
				"element": "C" 
			},
			{
				"x": 0.9337420551,
				"y": -1.4702962413,
				"z": -1.1782009959,
				"element": "C" 
			},
			{
				"x": 0.0047929404,
				"y": -2.3386413014,
				"z": -1.7526939254,
				"element": "C" 
			},
			{
				"x": -1.2490495,
				"y": -1.8541901289,
				"z": -2.1341246447,
				"element": "C" 
			},
			{
				"x": -1.5676933441,
				"y": -0.5107814561,
				"z": -1.9373630545,
				"element": "C" 
			},
			{
				"x": -0.2986129414,
				"y": 2.4227235243,
				"z": 1.4706272203,
				"element": "H" 
			},
			{
				"x": -1.8523319058,
				"y": 1.9741118373,
				"z": 2.1816162461,
				"element": "H" 
			},
			{
				"x": -0.8168782736,
				"y": 0.7256165832,
				"z": 1.449039088,
				"element": "H" 
			},
			{
				"x": -2.7018411744,
				"y": 1.5475972629,
				"z": 0.0291269102,
				"element": "H" 
			},
			{
				"x": -1.5972325721,
				"y": 2.2032793571,
				"z": -1.966384716,
				"element": "H" 
			},
			{
				"x": -0.1235647871,
				"y": 2.4372214648,
				"z": -1.0303205622,
				"element": "H" 
			},
			{
				"x": 1.3406971193,
				"y": 0.5479792213,
				"z": -0.5447867506,
				"element": "H" 
			},
			{
				"x": 1.9129759834,
				"y": -1.8377221308,
				"z": -0.8835805364,
				"element": "H" 
			},
			{
				"x": 0.2566135245,
				"y": -3.3838828791,
				"z": -1.9078606138,
				"element": "H" 
			},
			{
				"x": -1.9743444361,
				"y": -2.5218168708,
				"z": -2.5912397424,
				"element": "H" 
			},
			{
				"x": -2.5430038055,
				"y": -0.1386318298,
				"z": -2.2458016533,
				"element": "H" 
			}
		],
		 "valence_orbital": [ 
			{
				"type": "occ",
				"energy": -0.34357,
				"method": "rhf"
			},
			{
				"type": "occ",
				"energy": -0.33462,
				"method": "rhf"
			},
			{
				"type": "occ",
				"energy": -0.24883,
				"method": "rhf"
			},
			{
				"type": "occ",
				"energy": -0.24524,
				"method": "rhf"
			},
			{
				"type": "occ",
				"energy": -0.21465,
				"method": "rhf"
			},
			{
				"type": "unocc",
				"energy": -0.00185,
				"method": "rhf"
			},
			{
				"type": "unocc",
				"energy": 0.00034,
				"method": "rhf"
			},
			{
				"type": "unocc",
				"energy": 0.08791,
				"method": "rhf"
			},
			{
				"type": "unocc",
				"energy": 0.10529,
				"method": "rhf"
			},
			{
				"type": "unocc",
				"energy": 0.11847,
				"method": "rhf"
			}
		],
		"cosmo_sigma_profile": { 
			"-0.025": 0.0,
			"-0.024": 0.0,
			"-0.023": 0.0,
			"-0.022": 0.0,
			"-0.021": 0.0,
			"-0.02": 0.0,
			"-0.019": 0.0,
			"-0.018": 0.0,
			"-0.017": 0.0,
			"-0.016": 0.0,
			"-0.015": 0.0,
			"-0.014": 0.0,
			"-0.013": 0.0,
			"-0.012": 0.0,
			"-0.011": 0.0,
			"-0.01": 0.237631717935,
			"-0.009": 0.945928375317,
			"-0.008": 1.5297307195,
			"-0.007": 1.29277804495,
			"-0.006": 3.60983194988,
			"-0.005": 12.1464735724,
			"-0.004": 17.4377189241,
			"-0.003": 22.0772503312,
			"-0.002": 17.1574134859,
			"-0.001": 16.40173461,
			"0.0": 19.1199409347,
			"0.001": 11.9985935121,
			"0.002": 9.58348512705,
			"0.003": 9.11215907703,
			"0.004": 8.40299577323,
			"0.005": 8.33009272504,
			"0.006": 7.91955269318,
			"0.007": 4.24475101838,
			"0.008": 0.947242868245,
			"0.009": 0.683333062394,
			"0.01": 1.02141239434,
			"0.011": 0.348190493178,
			"0.012": 0.665954274721,
			"0.013": 0.782022804779,
			"0.014": 0.620217092904,
			"0.015": 0.208830681193,
			"0.016": 0.723890118205,
			"0.017": 0.261600866918,
			"0.018": 0.898406615353,
			"0.019": 0.00286918172846,
			"0.02": 0.0,
			"0.021": 0.0,
			"0.022": 0.0,
			"0.023": 0.0,
			"0.024": 0.0,
			"0.025": 0.0
		}
	}
}
