{
	 "smiles": "OC(=O)CCCCBr", 
	 "Tm": 312.65, 
	 "num_atms": 17, 
	 "gaussian": { 
		 "optdone": 1, 
		 "sigma_profile": "yes", 
		 "theory": "DFT", 
		 "functional": "B3LYP", 
		 "basiset": "6-31G**", 
		 "properties": { 
			 "R2extent": 2758.2285, 
			 "electric_dipole_moment_norm": 4.26714754139, 
			 "electric_quadrupole_moment_norm": 15.2126349854, 
			 "total_energy": -2917.82584662, 
			 "HOMO_LUMO_gap": 0.25362, 
			 "cosmo_polarized_energy": -13.01, 
			 "cosmo_cavitation_energy": 21.48, 
			 "cosmo_dispersion_energy": -16.31, 
			 "cosmo_repulsion_energy": 1.37, 
			 "cosmo_total_nonelectrostatic_energy": 6.54, 
			 "SMD_solvation_energy": 3.37 
		},
		"coords": [
			{
				"x": 0.4601399124,
				"y": 2.3772144363,
				"z": -1.2043978298,
				"element": "O" 
			},
			{
				"x": -0.2976452098,
				"y": 1.6863107445,
				"z": -2.0946081293,
				"element": "C" 
			},
			{
				"x": -0.5525547493,
				"y": 2.1739632871,
				"z": -3.1683991996,
				"element": "O" 
			},
			{
				"x": -0.852581141,
				"y": 0.3327673195,
				"z": -1.6541324456,
				"element": "C" 
			},
			{
				"x": 0.0038094934,
				"y": -0.5815782998,
				"z": -0.760421071,
				"element": "C" 
			},
			{
				"x": 1.3017540304,
				"y": -1.1267239363,
				"z": -1.3811031723,
				"element": "C" 
			},
			{
				"x": 2.4643759682,
				"y": -0.1512241583,
				"z": -1.5290471889,
				"element": "C" 
			},
			{
				"x": 3.051740538,
				"y": 0.5789010386,
				"z": 0.2309388932,
				"element": "Br" 
			},
			{
				"x": 0.6717719142,
				"y": 1.8536051951,
				"z": -0.4158775904,
				"element": "H" 
			},
			{
				"x": -1.1359411726,
				"y": -0.1847711342,
				"z": -2.5745863301,
				"element": "H" 
			},
			{
				"x": -1.7904760949,
				"y": 0.5539241091,
				"z": -1.1262310527,
				"element": "H" 
			},
			{
				"x": 0.2372507995,
				"y": -0.0960100942,
				"z": 0.1960614732,
				"element": "H" 
			},
			{
				"x": -0.6228968623,
				"y": -1.4399750249,
				"z": -0.4945197858,
				"element": "H" 
			},
			{
				"x": 1.0886009741,
				"y": -1.5154907916,
				"z": -2.387865194,
				"element": "H" 
			},
			{
				"x": 1.6434782939,
				"y": -1.9797160624,
				"z": -0.7853261034,
				"element": "H" 
			},
			{
				"x": 2.234784638,
				"y": 0.7297650787,
				"z": -2.125585597,
				"element": "H" 
			},
			{
				"x": 3.3496886678,
				"y": -0.6420617072,
				"z": -1.9305996765,
				"element": "H" 
			}
		],
		 "valence_orbital": [ 
			{
				"type": "occ",
				"energy": -0.3549,
				"method": "rhf"
			},
			{
				"type": "occ",
				"energy": -0.31281,
				"method": "rhf"
			},
			{
				"type": "occ",
				"energy": -0.2899,
				"method": "rhf"
			},
			{
				"type": "occ",
				"energy": -0.28727,
				"method": "rhf"
			},
			{
				"type": "occ",
				"energy": -0.26645,
				"method": "rhf"
			},
			{
				"type": "unocc",
				"energy": -0.01283,
				"method": "rhf"
			},
			{
				"type": "unocc",
				"energy": 0.00902,
				"method": "rhf"
			},
			{
				"type": "unocc",
				"energy": 0.05389,
				"method": "rhf"
			},
			{
				"type": "unocc",
				"energy": 0.08929,
				"method": "rhf"
			},
			{
				"type": "unocc",
				"energy": 0.11265,
				"method": "rhf"
			}
		],
		"cosmo_sigma_profile": { 
			"-0.025": 0.0,
			"-0.024": 0.0,
			"-0.023": 0.0,
			"-0.022": 0.0,
			"-0.021": 0.0,
			"-0.02": 0.0,
			"-0.019": 0.0,
			"-0.018": 0.0,
			"-0.017": 0.0,
			"-0.016": 0.0,
			"-0.015": 0.296383612613,
			"-0.014": 0.695277455421,
			"-0.013": 0.606584320998,
			"-0.012": 1.29981167471,
			"-0.011": 0.487900199349,
			"-0.01": 0.401764665624,
			"-0.009": 0.88174677556,
			"-0.008": 1.77934893665,
			"-0.007": 7.14178395458,
			"-0.006": 9.79271609535,
			"-0.005": 18.8806825803,
			"-0.004": 18.2715688712,
			"-0.003": 15.9395501346,
			"-0.002": 12.7268130556,
			"-0.001": 9.05120499746,
			"0.0": 5.63131617295,
			"0.001": 5.92458606304,
			"0.002": 7.07924482408,
			"0.003": 6.21936758291,
			"0.004": 6.79082207532,
			"0.005": 7.74189531554,
			"0.006": 8.05833618053,
			"0.007": 1.95258561433,
			"0.008": 2.53082175495,
			"0.009": 2.87435345086,
			"0.01": 3.32022146744,
			"0.011": 5.73048441718,
			"0.012": 5.64582986495,
			"0.013": 3.32160405982,
			"0.014": 0.33471083319,
			"0.015": 0.0,
			"0.016": 0.0,
			"0.017": 0.0,
			"0.018": 0.0,
			"0.019": 0.0,
			"0.02": 0.0,
			"0.021": 0.0,
			"0.022": 0.0,
			"0.023": 0.0,
			"0.024": 0.0,
			"0.025": 0.0
		}
	}
}
