{
	 "smiles": "CC1=CC=C(NC2=CC=C(C)C=C2)C=C1", 
	 "Tm": 352.95, 
	 "num_atms": 30, 
	 "gaussian": { 
		 "optdone": 1, 
		 "sigma_profile": "yes", 
		 "theory": "DFT", 
		 "functional": "B3LYP", 
		 "basiset": "6-31G**", 
		 "properties": { 
			 "R2extent": 4895.8589, 
			 "electric_dipole_moment_norm": 0.643619243031, 
			 "electric_quadrupole_moment_norm": 7.69556909721, 
			 "total_energy": -597.298942196, 
			 "HOMO_LUMO_gap": 0.17842, 
			 "cosmo_polarized_energy": -7.52, 
			 "cosmo_cavitation_energy": 33.01, 
			 "cosmo_dispersion_energy": -24.15, 
			 "cosmo_repulsion_energy": 1.89, 
			 "cosmo_total_nonelectrostatic_energy": 10.75, 
			 "SMD_solvation_energy": 5.45 
		},
		"coords": [
			{
				"x": -3.4642220661,
				"y": -0.2252396213,
				"z": -4.2031633432,
				"element": "C" 
			},
			{
				"x": -2.4600287964,
				"y": 0.0123459902,
				"z": -3.0999460621,
				"element": "C" 
			},
			{
				"x": -2.466271971,
				"y": -0.7554710855,
				"z": -1.9291138932,
				"element": "C" 
			},
			{
				"x": -1.5296455882,
				"y": -0.565492023,
				"z": -0.9147401866,
				"element": "C" 
			},
			{
				"x": -0.5256968341,
				"y": 0.4084411318,
				"z": -1.0512360885,
				"element": "C" 
			},
			{
				"x": 0.4229711164,
				"y": 0.6766659535,
				"z": -0.0583502009,
				"element": "N" 
			},
			{
				"x": 0.9038422118,
				"y": -0.1510085053,
				"z": 0.9621678903,
				"element": "C" 
			},
			{
				"x": 0.8950139048,
				"y": -1.5542087766,
				"z": 0.8845708009,
				"element": "C" 
			},
			{
				"x": 1.4242333158,
				"y": -2.3182837362,
				"z": 1.9230437118,
				"element": "C" 
			},
			{
				"x": 1.9934148376,
				"y": -1.7335016088,
				"z": 3.0607997149,
				"element": "C" 
			},
			{
				"x": 2.5366428395,
				"y": -2.5755045304,
				"z": 4.1912206033,
				"element": "C" 
			},
			{
				"x": 2.0193202053,
				"y": -0.333467601,
				"z": 3.1165942936,
				"element": "C" 
			},
			{
				"x": 1.4799455552,
				"y": 0.4454681441,
				"z": 2.0979637251,
				"element": "C" 
			},
			{
				"x": -0.5157593486,
				"y": 1.1893865765,
				"z": -2.2207415175,
				"element": "C" 
			},
			{
				"x": -1.4697316593,
				"y": 0.9972120715,
				"z": -3.2148663734,
				"element": "C" 
			},
			{
				"x": -3.6999909524,
				"y": 0.700952998,
				"z": -4.7369984605,
				"element": "H" 
			},
			{
				"x": -3.0865794083,
				"y": -0.9393806192,
				"z": -4.9465569537,
				"element": "H" 
			},
			{
				"x": -4.4006980443,
				"y": -0.6334843566,
				"z": -3.8102008682,
				"element": "H" 
			},
			{
				"x": -3.2340341039,
				"y": -1.5141376124,
				"z": -1.7941906564,
				"element": "H" 
			},
			{
				"x": -1.5946289152,
				"y": -1.1528718478,
				"z": -0.0063223235,
				"element": "H" 
			},
			{
				"x": 0.8181161909,
				"y": 1.6043870092,
				"z": -0.0811397072,
				"element": "H" 
			},
			{
				"x": 0.5011458115,
				"y": -2.0454813021,
				"z": 0.0025406344,
				"element": "H" 
			},
			{
				"x": 1.406916851,
				"y": -3.4022449089,
				"z": 1.8337971846,
				"element": "H" 
			},
			{
				"x": 2.8822162501,
				"y": -3.5503899785,
				"z": 3.8331281365,
				"element": "H" 
			},
			{
				"x": 1.7734996287,
				"y": -2.764113875,
				"z": 4.9575624561,
				"element": "H" 
			},
			{
				"x": 3.3783398051,
				"y": -2.0834858881,
				"z": 4.6890974699,
				"element": "H" 
			},
			{
				"x": 2.4622497174,
				"y": 0.1600445719,
				"z": 3.9787018064,
				"element": "H" 
			},
			{
				"x": 1.5008959055,
				"y": 1.5301222262,
				"z": 2.1769452995,
				"element": "H" 
			},
			{
				"x": 0.2501503675,
				"y": 1.9516010617,
				"z": -2.3454962221,
				"element": "H" 
			},
			{
				"x": -1.4367268264,
				"y": 1.6222401421,
				"z": -4.1043708702,
				"element": "H" 
			}
		],
		 "valence_orbital": [ 
			{
				"type": "occ",
				"energy": -0.30018,
				"method": "rhf"
			},
			{
				"type": "occ",
				"energy": -0.24482,
				"method": "rhf"
			},
			{
				"type": "occ",
				"energy": -0.24336,
				"method": "rhf"
			},
			{
				"type": "occ",
				"energy": -0.23727,
				"method": "rhf"
			},
			{
				"type": "occ",
				"energy": -0.17963,
				"method": "rhf"
			},
			{
				"type": "unocc",
				"energy": -0.00121,
				"method": "rhf"
			},
			{
				"type": "unocc",
				"energy": 0.00255,
				"method": "rhf"
			},
			{
				"type": "unocc",
				"energy": 0.00503,
				"method": "rhf"
			},
			{
				"type": "unocc",
				"energy": 0.03587,
				"method": "rhf"
			},
			{
				"type": "unocc",
				"energy": 0.0892,
				"method": "rhf"
			}
		],
		"cosmo_sigma_profile": { 
			"-0.025": 0.0,
			"-0.024": 0.0,
			"-0.023": 0.0,
			"-0.022": 0.0,
			"-0.021": 0.0,
			"-0.02": 0.0,
			"-0.019": 0.0,
			"-0.018": 0.0,
			"-0.017": 0.0,
			"-0.016": 0.0,
			"-0.015": 0.0,
			"-0.014": 0.268586110914,
			"-0.013": 0.859382119291,
			"-0.012": 1.27267666078,
			"-0.011": 1.47308298717,
			"-0.01": 1.02712731332,
			"-0.009": 1.77740315858,
			"-0.008": 1.75290060312,
			"-0.007": 2.17563851691,
			"-0.006": 2.82362607839,
			"-0.005": 10.3326738703,
			"-0.004": 22.3841907911,
			"-0.003": 30.091920574,
			"-0.002": 24.1171419869,
			"-0.001": 23.5227197541,
			"0.0": 26.8883152275,
			"0.001": 21.8993351969,
			"0.002": 14.1653788691,
			"0.003": 14.207373849,
			"0.004": 15.646372015,
			"0.005": 18.3409486032,
			"0.006": 15.8117808695,
			"0.007": 10.789674343,
			"0.008": 0.171124638913,
			"0.009": 0.0,
			"0.01": 0.0,
			"0.011": 0.0,
			"0.012": 0.0,
			"0.013": 0.0,
			"0.014": 0.0,
			"0.015": 0.0,
			"0.016": 0.0,
			"0.017": 0.0,
			"0.018": 0.0,
			"0.019": 0.0,
			"0.02": 0.0,
			"0.021": 0.0,
			"0.022": 0.0,
			"0.023": 0.0,
			"0.024": 0.0,
			"0.025": 0.0
		}
	}
}
