{
	 "smiles": "CCCOC1=C2C=CC=CC2=CC(=N1)C(O)=O", 
	 "Tm": 433.15, 
	 "num_atms": 30, 
	 "gaussian": { 
		 "optdone": 1, 
		 "sigma_profile": "yes", 
		 "theory": "DFT", 
		 "functional": "B3LYP", 
		 "basiset": "6-31G**", 
		 "properties": { 
			 "R2extent": 4537.4241, 
			 "electric_dipole_moment_norm": 6.04035411959, 
			 "electric_quadrupole_moment_norm": 16.7006576158, 
			 "total_energy": -783.680599413, 
			 "HOMO_LUMO_gap": 0.16826, 
			 "cosmo_polarized_energy": -12.38, 
			 "cosmo_cavitation_energy": 34.03, 
			 "cosmo_dispersion_energy": -24.12, 
			 "cosmo_repulsion_energy": 1.87, 
			 "cosmo_total_nonelectrostatic_energy": 11.78, 
			 "SMD_solvation_energy": 6.82 
		},
		"coords": [
			{
				"x": 1.6536828986,
				"y": -3.8148430036,
				"z": 1.1664240643,
				"element": "C" 
			},
			{
				"x": 1.6975576767,
				"y": -2.9733399691,
				"z": -0.1126142215,
				"element": "C" 
			},
			{
				"x": 0.3243108085,
				"y": -2.7421345651,
				"z": -0.7384667186,
				"element": "C" 
			},
			{
				"x": -0.5831195433,
				"y": -2.0664391783,
				"z": 0.1601966338,
				"element": "O" 
			},
			{
				"x": -0.5520899736,
				"y": -0.7226462898,
				"z": 0.2378073562,
				"element": "C" 
			},
			{
				"x": -1.493877856,
				"y": -0.1315671062,
				"z": 1.1538498643,
				"element": "C" 
			},
			{
				"x": -2.3883703742,
				"y": -0.8998197617,
				"z": 1.9331883076,
				"element": "C" 
			},
			{
				"x": -3.2669352762,
				"y": -0.271530902,
				"z": 2.7931015005,
				"element": "C" 
			},
			{
				"x": -3.2784436357,
				"y": 1.1379984836,
				"z": 2.8989566562,
				"element": "C" 
			},
			{
				"x": -2.4142250411,
				"y": 1.9055184985,
				"z": 2.1461840499,
				"element": "C" 
			},
			{
				"x": -1.4995885516,
				"y": 1.2910041526,
				"z": 1.2540335716,
				"element": "C" 
			},
			{
				"x": -0.5850780908,
				"y": 2.028031877,
				"z": 0.4506382775,
				"element": "C" 
			},
			{
				"x": 0.2600939607,
				"y": 1.3437656757,
				"z": -0.3809301075,
				"element": "C" 
			},
			{
				"x": 0.2836775519,
				"y": -0.0224935261,
				"z": -0.4901993459,
				"element": "N" 
			},
			{
				"x": 1.2487454977,
				"y": 2.0754479279,
				"z": -1.247272532,
				"element": "C" 
			},
			{
				"x": 2.0111328331,
				"y": 1.2637075179,
				"z": -2.0030756558,
				"element": "O" 
			},
			{
				"x": 1.355326599,
				"y": 3.2813114084,
				"z": -1.2679650352,
				"element": "O" 
			},
			{
				"x": 2.6579108659,
				"y": -3.9538017727,
				"z": 1.5777956733,
				"element": "H" 
			},
			{
				"x": 1.2306510854,
				"y": -4.8075630365,
				"z": 0.9743576493,
				"element": "H" 
			},
			{
				"x": 1.03951169,
				"y": -3.3337903906,
				"z": 1.9332130227,
				"element": "H" 
			},
			{
				"x": 2.1671805614,
				"y": -2.0037913582,
				"z": 0.0848520502,
				"element": "H" 
			},
			{
				"x": 2.3170813385,
				"y": -3.471507321,
				"z": -0.870043794,
				"element": "H" 
			},
			{
				"x": -0.1736169232,
				"y": -3.6940039869,
				"z": -0.9449610376,
				"element": "H" 
			},
			{
				"x": 0.4002429857,
				"y": -2.171698848,
				"z": -1.6675843205,
				"element": "H" 
			},
			{
				"x": -2.3707192918,
				"y": -1.9797065529,
				"z": 1.8429386731,
				"element": "H" 
			},
			{
				"x": -3.9542483302,
				"y": -0.8608509387,
				"z": 3.3924252894,
				"element": "H" 
			},
			{
				"x": -3.9753803779,
				"y": 1.6181498698,
				"z": 3.579670781,
				"element": "H" 
			},
			{
				"x": -2.4220526558,
				"y": 2.9886737643,
				"z": 2.2257334961,
				"element": "H" 
			},
			{
				"x": -0.5413540327,
				"y": 3.110600607,
				"z": 0.4832039485,
				"element": "H" 
			},
			{
				"x": 1.7210936009,
				"y": 0.3523187248,
				"z": -1.7955580967,
				"element": "H" 
			}
		],
		 "valence_orbital": [ 
			{
				"type": "occ",
				"energy": -0.30119,
				"method": "rhf"
			},
			{
				"type": "occ",
				"energy": -0.28969,
				"method": "rhf"
			},
			{
				"type": "occ",
				"energy": -0.27496,
				"method": "rhf"
			},
			{
				"type": "occ",
				"energy": -0.25993,
				"method": "rhf"
			},
			{
				"type": "occ",
				"energy": -0.23128,
				"method": "rhf"
			},
			{
				"type": "unocc",
				"energy": -0.06302,
				"method": "rhf"
			},
			{
				"type": "unocc",
				"energy": -0.05121,
				"method": "rhf"
			},
			{
				"type": "unocc",
				"energy": 0.01197,
				"method": "rhf"
			},
			{
				"type": "unocc",
				"energy": 0.04126,
				"method": "rhf"
			},
			{
				"type": "unocc",
				"energy": 0.07855,
				"method": "rhf"
			}
		],
		"cosmo_sigma_profile": { 
			"-0.025": 0.0,
			"-0.024": 0.0,
			"-0.023": 0.0,
			"-0.022": 0.0,
			"-0.021": 0.0,
			"-0.02": 0.0,
			"-0.019": 0.0,
			"-0.018": 0.0,
			"-0.017": 0.0,
			"-0.016": 0.0,
			"-0.015": 0.0,
			"-0.014": 0.0,
			"-0.013": 0.0,
			"-0.012": 0.0,
			"-0.011": 0.102847249646,
			"-0.01": 1.04764842159,
			"-0.009": 0.729167621557,
			"-0.008": 1.15484889889,
			"-0.007": 7.02595476189,
			"-0.006": 11.1465174812,
			"-0.005": 16.1511560711,
			"-0.004": 18.7817505493,
			"-0.003": 25.0536170169,
			"-0.002": 24.0632582442,
			"-0.001": 29.6650765904,
			"0.0": 29.8035153106,
			"0.001": 29.8284568844,
			"0.002": 20.495036479,
			"0.003": 16.0482232905,
			"0.004": 6.05365349989,
			"0.005": 4.7772841352,
			"0.006": 2.90264996895,
			"0.007": 2.70155449132,
			"0.008": 2.46497334685,
			"0.009": 3.2312576254,
			"0.01": 5.29150577409,
			"0.011": 4.69032908851,
			"0.012": 5.42406366089,
			"0.013": 2.08752588416,
			"0.014": 0.249854509536,
			"0.015": 0.0,
			"0.016": 0.0,
			"0.017": 0.0,
			"0.018": 0.0,
			"0.019": 0.0,
			"0.02": 0.0,
			"0.021": 0.0,
			"0.022": 0.0,
			"0.023": 0.0,
			"0.024": 0.0,
			"0.025": 0.0
		}
	}
}
