{
	 "smiles": "CNC(=O)C1=NNC(=O)C2=C1C=CC=C2", 
	 "Tm": 557.15, 
	 "num_atms": 24, 
	 "gaussian": { 
		 "optdone": 1, 
		 "sigma_profile": "yes", 
		 "theory": "DFT", 
		 "functional": "B3LYP", 
		 "basiset": "6-31G**", 
		 "properties": { 
			 "R2extent": 3620.7015, 
			 "electric_dipole_moment_norm": 2.93092009103, 
			 "electric_quadrupole_moment_norm": 22.7355821265, 
			 "total_energy": -701.19748331, 
			 "HOMO_LUMO_gap": 0.17569, 
			 "cosmo_polarized_energy": -15.98, 
			 "cosmo_cavitation_energy": 28.37, 
			 "cosmo_dispersion_energy": -21.07, 
			 "cosmo_repulsion_energy": 1.64, 
			 "cosmo_total_nonelectrostatic_energy": 8.94, 
			 "SMD_solvation_energy": 5.24 
		},
		"coords": [
			{
				"x": 1.2822310531,
				"y": 2.401255365,
				"z": -1.0840501378,
				"element": "C" 
			},
			{
				"x": 0.8906018573,
				"y": 1.5104804293,
				"z": -2.1672193164,
				"element": "N" 
			},
			{
				"x": 0.0536986402,
				"y": 0.4338900324,
				"z": -2.1830058437,
				"element": "C" 
			},
			{
				"x": -0.0772541726,
				"y": -0.2469944294,
				"z": -3.2002257351,
				"element": "O" 
			},
			{
				"x": -0.7219939257,
				"y": 0.0963472671,
				"z": -0.9320082361,
				"element": "C" 
			},
			{
				"x": -1.1503673939,
				"y": 1.1162109176,
				"z": -0.2420114619,
				"element": "N" 
			},
			{
				"x": -1.9189866706,
				"y": 0.8768156015,
				"z": 0.8359461313,
				"element": "N" 
			},
			{
				"x": -2.327041923,
				"y": -0.3518823998,
				"z": 1.3520889483,
				"element": "C" 
			},
			{
				"x": -3.0275871773,
				"y": -0.4020993988,
				"z": 2.3555785534,
				"element": "O" 
			},
			{
				"x": -1.8283749025,
				"y": -1.4969978186,
				"z": 0.5772297354,
				"element": "C" 
			},
			{
				"x": -1.039184624,
				"y": -1.2840552169,
				"z": -0.5796569109,
				"element": "C" 
			},
			{
				"x": -0.5847247622,
				"y": -2.4092545536,
				"z": -1.3000049043,
				"element": "C" 
			},
			{
				"x": -0.9091021497,
				"y": -3.6873928445,
				"z": -0.8676178545,
				"element": "C" 
			},
			{
				"x": -1.6919577877,
				"y": -3.8865426799,
				"z": 0.2812879525,
				"element": "C" 
			},
			{
				"x": -2.1517480796,
				"y": -2.7938278081,
				"z": 1.0001230362,
				"element": "C" 
			},
			{
				"x": 1.3856808383,
				"y": 1.8526756608,
				"z": -0.1463623922,
				"element": "H" 
			},
			{
				"x": 0.5620445558,
				"y": 3.2102034953,
				"z": -0.926353315,
				"element": "H" 
			},
			{
				"x": 2.2541412607,
				"y": 2.8343612905,
				"z": -1.3353556365,
				"element": "H" 
			},
			{
				"x": 1.2986795031,
				"y": 1.6725892165,
				"z": -3.0783405963,
				"element": "H" 
			},
			{
				"x": -2.2428974604,
				"y": 1.7013114266,
				"z": 1.3267393291,
				"element": "H" 
			},
			{
				"x": -0.0050509228,
				"y": -2.2582614393,
				"z": -2.2007204001,
				"element": "H" 
			},
			{
				"x": -0.554290936,
				"y": -4.5449952316,
				"z": -1.4318212471,
				"element": "H" 
			},
			{
				"x": -1.9378806492,
				"y": -4.8940729883,
				"z": 0.6031268641,
				"element": "H" 
			},
			{
				"x": -2.7605341713,
				"y": -2.9050638936,
				"z": 1.8908334375,
				"element": "H" 
			}
		],
		 "valence_orbital": [ 
			{
				"type": "occ",
				"energy": -0.26747,
				"method": "rhf"
			},
			{
				"type": "occ",
				"energy": -0.26243,
				"method": "rhf"
			},
			{
				"type": "occ",
				"energy": -0.25557,
				"method": "rhf"
			},
			{
				"type": "occ",
				"energy": -0.25155,
				"method": "rhf"
			},
			{
				"type": "occ",
				"energy": -0.23853,
				"method": "rhf"
			},
			{
				"type": "unocc",
				"energy": -0.06284,
				"method": "rhf"
			},
			{
				"type": "unocc",
				"energy": -0.04673,
				"method": "rhf"
			},
			{
				"type": "unocc",
				"energy": -0.00539,
				"method": "rhf"
			},
			{
				"type": "unocc",
				"energy": 0.05787,
				"method": "rhf"
			},
			{
				"type": "unocc",
				"energy": 0.0725,
				"method": "rhf"
			}
		],
		"cosmo_sigma_profile": { 
			"-0.025": 0.0,
			"-0.024": 0.0,
			"-0.023": 0.0,
			"-0.022": 0.0,
			"-0.021": 0.0,
			"-0.02": 0.0,
			"-0.019": 0.0,
			"-0.018": 0.0,
			"-0.017": 0.0952004112238,
			"-0.016": 1.05165857453,
			"-0.015": 1.02496471344,
			"-0.014": 1.40267260601,
			"-0.013": 1.82595659217,
			"-0.012": 1.73165914373,
			"-0.011": 2.60499923759,
			"-0.01": 1.72025394352,
			"-0.009": 0.899111823804,
			"-0.008": 2.27258817854,
			"-0.007": 5.98066291664,
			"-0.006": 10.0732406607,
			"-0.005": 14.8441205301,
			"-0.004": 16.4513129345,
			"-0.003": 18.7299580301,
			"-0.002": 20.5922735691,
			"-0.001": 15.2504999986,
			"0.0": 15.3390117473,
			"0.001": 16.4709529041,
			"0.002": 18.4414183062,
			"0.003": 13.1697638972,
			"0.004": 5.22527872366,
			"0.005": 4.48165727613,
			"0.006": 4.16890539778,
			"0.007": 2.90905089226,
			"0.008": 3.20044476703,
			"0.009": 3.34931735718,
			"0.01": 3.09665068561,
			"0.011": 3.22733618898,
			"0.012": 5.40847932337,
			"0.013": 9.34319869697,
			"0.014": 2.5328053332,
			"0.015": 0.033226649876,
			"0.016": 0.0,
			"0.017": 0.0,
			"0.018": 0.0,
			"0.019": 0.0,
			"0.02": 0.0,
			"0.021": 0.0,
			"0.022": 0.0,
			"0.023": 0.0,
			"0.024": 0.0,
			"0.025": 0.0
		}
	}
}
