{
	 "smiles": "ClC1=C2CCCCC2=NC=N1", 
	 "Tm": 353.15, 
	 "num_atms": 20, 
	 "gaussian": { 
		 "optdone": 1, 
		 "sigma_profile": "yes", 
		 "theory": "DFT", 
		 "functional": "B3LYP", 
		 "basiset": "6-31G**", 
		 "properties": { 
			 "R2extent": 2816.0235, 
			 "electric_dipole_moment_norm": 3.24112765099, 
			 "electric_quadrupole_moment_norm": 8.84482890281, 
			 "total_energy": -879.986605075, 
			 "HOMO_LUMO_gap": 0.21618, 
			 "cosmo_polarized_energy": -6.71, 
			 "cosmo_cavitation_energy": 23.98, 
			 "cosmo_dispersion_energy": -18.48, 
			 "cosmo_repulsion_energy": 1.48, 
			 "cosmo_total_nonelectrostatic_energy": 6.98, 
			 "SMD_solvation_energy": 0.33 
		},
		"coords": [
			{
				"x": 0.7281420311,
				"y": -3.046126539,
				"z": 2.8706085468,
				"element": "Cl" 
			},
			{
				"x": 0.4840753989,
				"y": -1.3460438503,
				"z": 2.4668164842,
				"element": "C" 
			},
			{
				"x": 0.7837251788,
				"y": -0.8975003605,
				"z": 1.1721242151,
				"element": "C" 
			},
			{
				"x": 1.302917771,
				"y": -1.7998905594,
				"z": 0.0747412289,
				"element": "C" 
			},
			{
				"x": 1.238007943,
				"y": -1.1485555529,
				"z": -1.3143812169,
				"element": "C" 
			},
			{
				"x": 1.7506855866,
				"y": 0.2950757851,
				"z": -1.2690533902,
				"element": "C" 
			},
			{
				"x": 0.8665369115,
				"y": 1.1438161294,
				"z": -0.3482310026,
				"element": "C" 
			},
			{
				"x": 0.5810038991,
				"y": 0.481511995,
				"z": 0.9812551813,
				"element": "C" 
			},
			{
				"x": 0.1163260719,
				"y": 1.2814494285,
				"z": 1.9584319274,
				"element": "N" 
			},
			{
				"x": -0.1412830677,
				"y": 0.708776219,
				"z": 3.129399346,
				"element": "C" 
			},
			{
				"x": 0.0261772667,
				"y": -0.5831651901,
				"z": 3.441128651,
				"element": "N" 
			},
			{
				"x": 0.7449869649,
				"y": -2.741932388,
				"z": 0.0839213585,
				"element": "H" 
			},
			{
				"x": 2.3418137178,
				"y": -2.0714760783,
				"z": 0.3094790285,
				"element": "H" 
			},
			{
				"x": 0.2004515369,
				"y": -1.1520082627,
				"z": -1.6739208094,
				"element": "H" 
			},
			{
				"x": 1.8181309607,
				"y": -1.7479104784,
				"z": -2.0238794272,
				"element": "H" 
			},
			{
				"x": 1.7701702448,
				"y": 0.7331406023,
				"z": -2.2725016351,
				"element": "H" 
			},
			{
				"x": 2.7854225378,
				"y": 0.3040590598,
				"z": -0.9011970726,
				"element": "H" 
			},
			{
				"x": 1.3055961064,
				"y": 2.1264648516,
				"z": -0.1487233049,
				"element": "H" 
			},
			{
				"x": -0.0991731699,
				"y": 1.3414349062,
				"z": -0.8350569938,
				"element": "H" 
			},
			{
				"x": -0.5220138904,
				"y": 1.3489802826,
				"z": 3.9222388848,
				"element": "H" 
			}
		],
		 "valence_orbital": [ 
			{
				"type": "occ",
				"energy": -0.31896,
				"method": "rhf"
			},
			{
				"type": "occ",
				"energy": -0.30575,
				"method": "rhf"
			},
			{
				"type": "occ",
				"energy": -0.29633,
				"method": "rhf"
			},
			{
				"type": "occ",
				"energy": -0.26986,
				"method": "rhf"
			},
			{
				"type": "occ",
				"energy": -0.25948,
				"method": "rhf"
			},
			{
				"type": "unocc",
				"energy": -0.0433,
				"method": "rhf"
			},
			{
				"type": "unocc",
				"energy": -0.03155,
				"method": "rhf"
			},
			{
				"type": "unocc",
				"energy": 0.03073,
				"method": "rhf"
			},
			{
				"type": "unocc",
				"energy": 0.08068,
				"method": "rhf"
			},
			{
				"type": "unocc",
				"energy": 0.10852,
				"method": "rhf"
			}
		],
		"cosmo_sigma_profile": { 
			"-0.025": 0.0,
			"-0.024": 0.0,
			"-0.023": 0.0,
			"-0.022": 0.0,
			"-0.021": 0.0,
			"-0.02": 0.0,
			"-0.019": 0.0,
			"-0.018": 0.0,
			"-0.017": 0.0,
			"-0.016": 0.0,
			"-0.015": 0.0,
			"-0.014": 0.0,
			"-0.013": 0.0,
			"-0.012": 0.0,
			"-0.011": 0.0,
			"-0.01": 0.0,
			"-0.009": 0.0,
			"-0.008": 1.05983183129,
			"-0.007": 2.00972523825,
			"-0.006": 1.50027776742,
			"-0.005": 5.58438102459,
			"-0.004": 16.0755664375,
			"-0.003": 29.5793116829,
			"-0.002": 31.5994603969,
			"-0.001": 26.5644261982,
			"0.0": 16.4409267175,
			"0.001": 9.32946466635,
			"0.002": 9.65960903978,
			"0.003": 9.28560864831,
			"0.004": 8.64848702842,
			"0.005": 4.91948489839,
			"0.006": 3.43798905904,
			"0.007": 3.04978710398,
			"0.008": 1.90199611828,
			"0.009": 2.09122630612,
			"0.01": 2.33638585212,
			"0.011": 1.81855415957,
			"0.012": 1.35727062218,
			"0.013": 2.00763239334,
			"0.014": 1.16582812523,
			"0.015": 0.552790918252,
			"0.016": 0.0121093862101,
			"0.017": 0.0,
			"0.018": 0.0,
			"0.019": 0.0,
			"0.02": 0.0,
			"0.021": 0.0,
			"0.022": 0.0,
			"0.023": 0.0,
			"0.024": 0.0,
			"0.025": 0.0
		}
	}
}
