{
	 "smiles": "O=C1CCCCC1C1=CC=CC=C1", 
	 "Tm": 330.65, 
	 "num_atms": 27, 
	 "gaussian": { 
		 "optdone": 1, 
		 "sigma_profile": "yes", 
		 "theory": "DFT", 
		 "functional": "B3LYP", 
		 "basiset": "6-31G**", 
		 "properties": { 
			 "R2extent": 2406.5481, 
			 "electric_dipole_moment_norm": 2.69866428071, 
			 "electric_quadrupole_moment_norm": 7.81512657479, 
			 "total_energy": -540.94204993, 
			 "HOMO_LUMO_gap": 0.20794, 
			 "cosmo_polarized_energy": -7.78, 
			 "cosmo_cavitation_energy": 27.89, 
			 "cosmo_dispersion_energy": -20.51, 
			 "cosmo_repulsion_energy": 1.62, 
			 "cosmo_total_nonelectrostatic_energy": 9.0, 
			 "SMD_solvation_energy": 4.58 
		},
		"coords": [
			{
				"x": 0.2104056868,
				"y": -2.3262924767,
				"z": -1.4866486054,
				"element": "O" 
			},
			{
				"x": 0.3685120305,
				"y": -1.1249185555,
				"z": -1.3749986257,
				"element": "C" 
			},
			{
				"x": 0.1434676919,
				"y": -0.1712346691,
				"z": -2.542721039,
				"element": "C" 
			},
			{
				"x": -0.1686482204,
				"y": 1.2552480698,
				"z": -2.0742536831,
				"element": "C" 
			},
			{
				"x": 0.9783243956,
				"y": 1.8360145822,
				"z": -1.2226262728,
				"element": "C" 
			},
			{
				"x": 1.6734960899,
				"y": 0.7658274455,
				"z": -0.3373132151,
				"element": "C" 
			},
			{
				"x": 0.8242949056,
				"y": -0.4894848238,
				"z": -0.0468760979,
				"element": "C" 
			},
			{
				"x": -0.3747276327,
				"y": -0.2988144745,
				"z": 0.89361873,
				"element": "C" 
			},
			{
				"x": -1.2329861678,
				"y": -1.3841079779,
				"z": 1.1382688731,
				"element": "C" 
			},
			{
				"x": -2.307414112,
				"y": -1.2633032716,
				"z": 2.0177092867,
				"element": "C" 
			},
			{
				"x": -2.5483963494,
				"y": -0.0549505906,
				"z": 2.6757044223,
				"element": "C" 
			},
			{
				"x": -1.7008354426,
				"y": 1.0274780949,
				"z": 2.4461095251,
				"element": "C" 
			},
			{
				"x": -0.6241127628,
				"y": 0.9064637065,
				"z": 1.5633156399,
				"element": "C" 
			},
			{
				"x": 1.0633366361,
				"y": -0.180076232,
				"z": -3.1471336817,
				"element": "H" 
			},
			{
				"x": -0.6436898091,
				"y": -0.5925727394,
				"z": -3.1751643878,
				"element": "H" 
			},
			{
				"x": -1.0917525504,
				"y": 1.2363765479,
				"z": -1.4841155522,
				"element": "H" 
			},
			{
				"x": -0.3655439409,
				"y": 1.9018654418,
				"z": -2.9360120585,
				"element": "H" 
			},
			{
				"x": 0.5877722731,
				"y": 2.6548379946,
				"z": -0.6099658299,
				"element": "H" 
			},
			{
				"x": 1.7328367175,
				"y": 2.284393315,
				"z": -1.8795338247,
				"element": "H" 
			},
			{
				"x": 2.5798943133,
				"y": 0.4190513665,
				"z": -0.8471176965,
				"element": "H" 
			},
			{
				"x": 2.0200623488,
				"y": 1.2072300073,
				"z": 0.6030173639,
				"element": "H" 
			},
			{
				"x": 1.4707563355,
				"y": -1.2450683078,
				"z": 0.4167783444,
				"element": "H" 
			},
			{
				"x": -1.0500428896,
				"y": -2.3260589772,
				"z": 0.6307481063,
				"element": "H" 
			},
			{
				"x": -2.9568161766,
				"y": -2.1170307187,
				"z": 2.1906899245,
				"element": "H" 
			},
			{
				"x": -3.3853570476,
				"y": 0.0395165709,
				"z": 3.3615676739,
				"element": "H" 
			},
			{
				"x": -1.8726816681,
				"y": 1.9726616621,
				"z": 2.9537779899,
				"element": "H" 
			},
			{
				"x": 0.0243453453,
				"y": 1.7620490098,
				"z": 1.4104746904,
				"element": "H" 
			}
		],
		 "valence_orbital": [ 
			{
				"type": "occ",
				"energy": -0.32529,
				"method": "rhf"
			},
			{
				"type": "occ",
				"energy": -0.31394,
				"method": "rhf"
			},
			{
				"type": "occ",
				"energy": -0.25235,
				"method": "rhf"
			},
			{
				"type": "occ",
				"energy": -0.2479,
				"method": "rhf"
			},
			{
				"type": "occ",
				"energy": -0.2288,
				"method": "rhf"
			},
			{
				"type": "unocc",
				"energy": -0.02086,
				"method": "rhf"
			},
			{
				"type": "unocc",
				"energy": -0.00141,
				"method": "rhf"
			},
			{
				"type": "unocc",
				"energy": 0.0074,
				"method": "rhf"
			},
			{
				"type": "unocc",
				"energy": 0.07341,
				"method": "rhf"
			},
			{
				"type": "unocc",
				"energy": 0.09586,
				"method": "rhf"
			}
		],
		"cosmo_sigma_profile": { 
			"-0.025": 0.0,
			"-0.024": 0.0,
			"-0.023": 0.0,
			"-0.022": 0.0,
			"-0.021": 0.0,
			"-0.02": 0.0,
			"-0.019": 0.0,
			"-0.018": 0.0,
			"-0.017": 0.0,
			"-0.016": 0.0,
			"-0.015": 0.0,
			"-0.014": 0.0,
			"-0.013": 0.0,
			"-0.012": 0.0,
			"-0.011": 0.0,
			"-0.01": 0.0,
			"-0.009": 0.0,
			"-0.008": 0.0,
			"-0.007": 9.80649855618e-05,
			"-0.006": 4.77007823357,
			"-0.005": 16.6460976624,
			"-0.004": 20.5673318078,
			"-0.003": 27.7496512558,
			"-0.002": 28.8231434796,
			"-0.001": 25.3852994624,
			"0.0": 20.7012371392,
			"0.001": 12.8851906789,
			"0.002": 9.24768858687,
			"0.003": 9.13425812579,
			"0.004": 9.22868849563,
			"0.005": 9.54978236868,
			"0.006": 8.61540265625,
			"0.007": 2.3237951284,
			"0.008": 1.16042786886,
			"0.009": 1.81010679805,
			"0.01": 1.87698087248,
			"0.011": 2.39359382526,
			"0.012": 4.29280675131,
			"0.013": 1.87338574508,
			"0.014": 0.170326827655,
			"0.015": 0.0,
			"0.016": 0.0,
			"0.017": 0.0,
			"0.018": 0.0,
			"0.019": 0.0,
			"0.02": 0.0,
			"0.021": 0.0,
			"0.022": 0.0,
			"0.023": 0.0,
			"0.024": 0.0,
			"0.025": 0.0
		}
	}
}
