{
	 "smiles": "COC(=O)C1=CC=CC=C1CC#N", 
	 "Tm": 321.15, 
	 "num_atms": 22, 
	 "gaussian": { 
		 "optdone": 1, 
		 "sigma_profile": "yes", 
		 "theory": "DFT", 
		 "functional": "B3LYP", 
		 "basiset": "6-31G**", 
		 "properties": { 
			 "R2extent": 3057.5903, 
			 "electric_dipole_moment_norm": 3.89189151313, 
			 "electric_quadrupole_moment_norm": 17.7104585912, 
			 "total_energy": -591.677464428, 
			 "HOMO_LUMO_gap": 0.21095, 
			 "cosmo_polarized_energy": -13.44, 
			 "cosmo_cavitation_energy": 27.19, 
			 "cosmo_dispersion_energy": -18.78, 
			 "cosmo_repulsion_energy": 1.48, 
			 "cosmo_total_nonelectrostatic_energy": 9.89, 
			 "SMD_solvation_energy": 7.54 
		},
		"coords": [
			{
				"x": 0.0851184203,
				"y": 0.0477310925,
				"z": -4.1129541104,
				"element": "C" 
			},
			{
				"x": -0.1871648794,
				"y": 0.0170209345,
				"z": -2.699917705,
				"element": "O" 
			},
			{
				"x": -1.4932109185,
				"y": -0.0434894107,
				"z": -2.3631905411,
				"element": "C" 
			},
			{
				"x": -2.3781785352,
				"y": -0.1242191758,
				"z": -3.192093577,
				"element": "O" 
			},
			{
				"x": -1.7429286823,
				"y": -0.0096466583,
				"z": -0.8848348097,
				"element": "C" 
			},
			{
				"x": -3.0864891246,
				"y": -0.1919652248,
				"z": -0.520461399,
				"element": "C" 
			},
			{
				"x": -3.4853889533,
				"y": -0.1823147819,
				"z": 0.8115078933,
				"element": "C" 
			},
			{
				"x": -2.5318925057,
				"y": 0.0165693928,
				"z": 1.808705454,
				"element": "C" 
			},
			{
				"x": -1.1950756126,
				"y": 0.2026195603,
				"z": 1.4593145925,
				"element": "C" 
			},
			{
				"x": -0.7728357912,
				"y": 0.1926560214,
				"z": 0.1246119151,
				"element": "C" 
			},
			{
				"x": 0.7173370557,
				"y": 0.4043156147,
				"z": -0.132035471,
				"element": "C" 
			},
			{
				"x": 1.0344588971,
				"y": 1.727770793,
				"z": -0.6844938993,
				"element": "C" 
			},
			{
				"x": 1.2936302987,
				"y": 2.7791085361,
				"z": -1.1019436015,
				"element": "N" 
			},
			{
				"x": 1.1670320979,
				"y": 0.1416793127,
				"z": -4.1988966398,
				"element": "H" 
			},
			{
				"x": -0.2650086339,
				"y": -0.8711897805,
				"z": -4.5889070647,
				"element": "H" 
			},
			{
				"x": -0.4130026543,
				"y": 0.9016809958,
				"z": -4.5764450622,
				"element": "H" 
			},
			{
				"x": -3.8056112035,
				"y": -0.3394063549,
				"z": -1.3182836632,
				"element": "H" 
			},
			{
				"x": -4.5302460035,
				"y": -0.3275763385,
				"z": 1.0677162714,
				"element": "H" 
			},
			{
				"x": -2.8224993554,
				"y": 0.0293497722,
				"z": 2.8550312098,
				"element": "H" 
			},
			{
				"x": -0.4578616552,
				"y": 0.3624972066,
				"z": 2.2413442948,
				"element": "H" 
			},
			{
				"x": 1.2568350306,
				"y": 0.303603393,
				"z": 0.8155999462,
				"element": "H" 
			},
			{
				"x": 1.1101827082,
				"y": -0.3493949005,
				"z": -0.8178740333,
				"element": "H" 
			}
		],
		 "valence_orbital": [ 
			{
				"type": "occ",
				"energy": -0.32014,
				"method": "rhf"
			},
			{
				"type": "occ",
				"energy": -0.30752,
				"method": "rhf"
			},
			{
				"type": "occ",
				"energy": -0.28337,
				"method": "rhf"
			},
			{
				"type": "occ",
				"energy": -0.27021,
				"method": "rhf"
			},
			{
				"type": "occ",
				"energy": -0.26847,
				"method": "rhf"
			},
			{
				"type": "unocc",
				"energy": -0.05752,
				"method": "rhf"
			},
			{
				"type": "unocc",
				"energy": -0.02246,
				"method": "rhf"
			},
			{
				"type": "unocc",
				"energy": 0.03772,
				"method": "rhf"
			},
			{
				"type": "unocc",
				"energy": 0.04046,
				"method": "rhf"
			},
			{
				"type": "unocc",
				"energy": 0.05283,
				"method": "rhf"
			}
		],
		"cosmo_sigma_profile": { 
			"-0.025": 0.0,
			"-0.024": 0.0,
			"-0.023": 0.0,
			"-0.022": 0.0,
			"-0.021": 0.0,
			"-0.02": 0.0,
			"-0.019": 0.0,
			"-0.018": 0.0,
			"-0.017": 0.0,
			"-0.016": 0.0,
			"-0.015": 0.0,
			"-0.014": 0.0,
			"-0.013": 0.0,
			"-0.012": 0.0,
			"-0.011": 0.0,
			"-0.01": 0.301259036089,
			"-0.009": 2.96795274849,
			"-0.008": 3.61790142874,
			"-0.007": 9.46083492528,
			"-0.006": 16.5395376707,
			"-0.005": 19.6875824937,
			"-0.004": 18.1344412838,
			"-0.003": 17.2020925156,
			"-0.002": 14.5495569128,
			"-0.001": 12.5937924803,
			"0.0": 12.9901512984,
			"0.001": 13.77147588,
			"0.002": 14.0186558751,
			"0.003": 14.49552593,
			"0.004": 6.61109950092,
			"0.005": 3.68666729721,
			"0.006": 4.19879466354,
			"0.007": 4.21170400178,
			"0.008": 4.73296226096,
			"0.009": 4.71921272906,
			"0.01": 5.67809152924,
			"0.011": 5.92489416854,
			"0.012": 5.67184925098,
			"0.013": 2.15942613159,
			"0.014": 0.387007857122,
			"0.015": 0.0,
			"0.016": 0.0,
			"0.017": 0.0,
			"0.018": 0.0,
			"0.019": 0.0,
			"0.02": 0.0,
			"0.021": 0.0,
			"0.022": 0.0,
			"0.023": 0.0,
			"0.024": 0.0,
			"0.025": 0.0
		}
	}
}
