{
	 "smiles": "OC(=O)C(=O)C1=CC=C(C=C1)[N+]([O-])=O", 
	 "Tm": 383.15, 
	 "num_atms": 19, 
	 "gaussian": { 
		 "optdone": 1, 
		 "sigma_profile": "yes", 
		 "theory": "DFT", 
		 "functional": "B3LYP", 
		 "basiset": "6-31G**", 
		 "properties": { 
			 "R2extent": 3551.4027, 
			 "electric_dipole_moment_norm": 3.48782354628, 
			 "electric_quadrupole_moment_norm": 15.4107471905, 
			 "total_energy": -738.629257604, 
			 "HOMO_LUMO_gap": 0.15501, 
			 "cosmo_polarized_energy": -14.34, 
			 "cosmo_cavitation_energy": 25.87, 
			 "cosmo_dispersion_energy": -18.88, 
			 "cosmo_repulsion_energy": 1.47, 
			 "cosmo_total_nonelectrostatic_energy": 8.46, 
			 "SMD_solvation_energy": 8.77 
		},
		"coords": [
			{
				"x": -3.9159176881,
				"y": -1.9760361057,
				"z": 0.4976502478,
				"element": "O" 
			},
			{
				"x": -2.6375612748,
				"y": -1.8657466454,
				"z": 0.8801133098,
				"element": "C" 
			},
			{
				"x": -1.9742172086,
				"y": -2.7833589974,
				"z": 1.3137211383,
				"element": "O" 
			},
			{
				"x": -2.145273988,
				"y": -0.4076789129,
				"z": 0.7502745976,
				"element": "C" 
			},
			{
				"x": -2.9559381864,
				"y": 0.4869549888,
				"z": 0.9001399936,
				"element": "O" 
			},
			{
				"x": -0.6998567573,
				"y": -0.1395952166,
				"z": 0.4826663426,
				"element": "C" 
			},
			{
				"x": 0.2552709799,
				"y": -1.1469995357,
				"z": 0.2627500547,
				"element": "C" 
			},
			{
				"x": 1.5776561663,
				"y": -0.8068103877,
				"z": -0.0120836706,
				"element": "C" 
			},
			{
				"x": 1.9277404568,
				"y": 0.5394081809,
				"z": -0.0618562481,
				"element": "C" 
			},
			{
				"x": 1.0022922787,
				"y": 1.5608362686,
				"z": 0.1526871162,
				"element": "C" 
			},
			{
				"x": -0.3137618053,
				"y": 1.2121091277,
				"z": 0.4228784078,
				"element": "C" 
			},
			{
				"x": 3.3300240591,
				"y": 0.8998590167,
				"z": -0.3531410467,
				"element": "N" 
			},
			{
				"x": 3.6113194252,
				"y": 2.0960126151,
				"z": -0.3900571033,
				"element": "O" 
			},
			{
				"x": 4.1251186376,
				"y": -0.0187678793,
				"z": -0.5403390956,
				"element": "O" 
			},
			{
				"x": -4.1727295704,
				"y": -2.9026617837,
				"z": 0.6460619535,
				"element": "H" 
			},
			{
				"x": -0.029900551,
				"y": -2.1888711589,
				"z": 0.3225432336,
				"element": "H" 
			},
			{
				"x": 2.334565507,
				"y": -1.5614541714,
				"z": -0.1839901065,
				"element": "H" 
			},
			{
				"x": 1.3240867497,
				"y": 2.5933037931,
				"z": 0.1028501835,
				"element": "H" 
			},
			{
				"x": -1.0670172303,
				"y": 1.9735968037,
				"z": 0.5910306919,
				"element": "H" 
			}
		],
		 "valence_orbital": [ 
			{
				"type": "occ",
				"energy": -0.31785,
				"method": "rhf"
			},
			{
				"type": "occ",
				"energy": -0.30271,
				"method": "rhf"
			},
			{
				"type": "occ",
				"energy": -0.29805,
				"method": "rhf"
			},
			{
				"type": "occ",
				"energy": -0.292,
				"method": "rhf"
			},
			{
				"type": "occ",
				"energy": -0.27659,
				"method": "rhf"
			},
			{
				"type": "unocc",
				"energy": -0.12158,
				"method": "rhf"
			},
			{
				"type": "unocc",
				"energy": -0.07867,
				"method": "rhf"
			},
			{
				"type": "unocc",
				"energy": -0.04035,
				"method": "rhf"
			},
			{
				"type": "unocc",
				"energy": -0.01775,
				"method": "rhf"
			},
			{
				"type": "unocc",
				"energy": 0.04594,
				"method": "rhf"
			}
		],
		"cosmo_sigma_profile": { 
			"-0.025": 0.0,
			"-0.024": 0.0,
			"-0.023": 0.0,
			"-0.022": 0.0,
			"-0.021": 0.0,
			"-0.02": 0.267219644054,
			"-0.019": 0.933362388268,
			"-0.018": 1.25305884118,
			"-0.017": 1.01057282422,
			"-0.016": 0.326709375746,
			"-0.015": 0.668567886056,
			"-0.014": 0.530156437125,
			"-0.013": 1.22625274808,
			"-0.012": 0.955793209716,
			"-0.011": 0.634511616007,
			"-0.01": 0.502213034133,
			"-0.009": 2.20131272547,
			"-0.008": 5.87156965837,
			"-0.007": 10.5853730745,
			"-0.006": 10.4644186653,
			"-0.005": 10.2300853928,
			"-0.004": 12.0205028787,
			"-0.003": 12.0155927656,
			"-0.002": 15.5841973272,
			"-0.001": 18.4349710687,
			"0.0": 17.9535901108,
			"0.001": 8.60606037306,
			"0.002": 5.88406404891,
			"0.003": 5.46511949285,
			"0.004": 5.58771092531,
			"0.005": 7.00019250862,
			"0.006": 9.33872175988,
			"0.007": 13.8686839768,
			"0.008": 9.52275605059,
			"0.009": 10.8195868163,
			"0.01": 6.88134148956,
			"0.011": 1.96404589261,
			"0.012": 0.125360111608,
			"0.013": 0.0,
			"0.014": 0.0,
			"0.015": 0.0,
			"0.016": 0.0,
			"0.017": 0.0,
			"0.018": 0.0,
			"0.019": 0.0,
			"0.02": 0.0,
			"0.021": 0.0,
			"0.022": 0.0,
			"0.023": 0.0,
			"0.024": 0.0,
			"0.025": 0.0
		}
	}
}
