{
	 "smiles": "CC(=O)CC(=O)NC1=CC=CC=C1C", 
	 "Tm": 378.15, 
	 "num_atms": 27, 
	 "gaussian": { 
		 "optdone": 1, 
		 "sigma_profile": "yes", 
		 "theory": "DFT", 
		 "functional": "B3LYP", 
		 "basiset": "6-31G**", 
		 "properties": { 
			 "R2extent": 3291.4362, 
			 "electric_dipole_moment_norm": 2.5257462521, 
			 "electric_quadrupole_moment_norm": 8.31397620877, 
			 "total_energy": -632.228062135, 
			 "HOMO_LUMO_gap": 0.19973, 
			 "cosmo_polarized_energy": -12.34, 
			 "cosmo_cavitation_energy": 30.33, 
			 "cosmo_dispersion_energy": -21.51, 
			 "cosmo_repulsion_energy": 1.69, 
			 "cosmo_total_nonelectrostatic_energy": 10.51, 
			 "SMD_solvation_energy": 6.63 
		},
		"coords": [
			{
				"x": -2.0859993132,
				"y": 1.5220845511,
				"z": -3.5954114977,
				"element": "C" 
			},
			{
				"x": -1.5542221611,
				"y": 1.6930365819,
				"z": -2.1933122964,
				"element": "C" 
			},
			{
				"x": -2.1852224203,
				"y": 2.2350841893,
				"z": -1.3048915384,
				"element": "O" 
			},
			{
				"x": -0.1631350791,
				"y": 1.0982114398,
				"z": -1.9211352955,
				"element": "C" 
			},
			{
				"x": -0.2993650833,
				"y": -0.40081354,
				"z": -1.6520970911,
				"element": "C" 
			},
			{
				"x": -0.6067323516,
				"y": -1.174767918,
				"z": -2.5522474713,
				"element": "O" 
			},
			{
				"x": -0.0568836802,
				"y": -0.8734564563,
				"z": -0.3840447438,
				"element": "N" 
			},
			{
				"x": 0.2674165837,
				"y": -0.2177815305,
				"z": 0.8354129983,
				"element": "C" 
			},
			{
				"x": -0.4303561387,
				"y": 0.9210489205,
				"z": 1.2592657919,
				"element": "C" 
			},
			{
				"x": -0.0984326522,
				"y": 1.5311963769,
				"z": 2.4691037116,
				"element": "C" 
			},
			{
				"x": 0.9005004153,
				"y": 0.9896699267,
				"z": 3.2762752209,
				"element": "C" 
			},
			{
				"x": 1.5722134618,
				"y": -0.1610189803,
				"z": 2.8618104495,
				"element": "C" 
			},
			{
				"x": 1.2797143691,
				"y": -0.7810590466,
				"z": 1.6429152764,
				"element": "C" 
			},
			{
				"x": 2.0280605138,
				"y": -2.0173969934,
				"z": 1.2057022589,
				"element": "C" 
			},
			{
				"x": -3.1237685469,
				"y": 1.8531907047,
				"z": -3.6501646594,
				"element": "H" 
			},
			{
				"x": -1.4755983405,
				"y": 2.1038312066,
				"z": -4.2969952861,
				"element": "H" 
			},
			{
				"x": -1.9904074623,
				"y": 0.4698394678,
				"z": -3.8852921392,
				"element": "H" 
			},
			{
				"x": 0.3031005383,
				"y": 1.6352978134,
				"z": -1.09624761,
				"element": "H" 
			},
			{
				"x": 0.456898032,
				"y": 1.1807088167,
				"z": -2.8184230133,
				"element": "H" 
			},
			{
				"x": -0.0876039026,
				"y": -1.8863283845,
				"z": -0.3644928863,
				"element": "H" 
			},
			{
				"x": -1.2276177088,
				"y": 1.329313166,
				"z": 0.6464416376,
				"element": "H" 
			},
			{
				"x": -0.6389076745,
				"y": 2.4191371938,
				"z": 2.7830264575,
				"element": "H" 
			},
			{
				"x": 1.1545830699,
				"y": 1.4548644802,
				"z": 4.2240353508,
				"element": "H" 
			},
			{
				"x": 2.3504887072,
				"y": -0.586435249,
				"z": 3.4902432807,
				"element": "H" 
			},
			{
				"x": 2.8569781064,
				"y": -2.2293146673,
				"z": 1.8853473345,
				"element": "H" 
			},
			{
				"x": 1.3852348022,
				"y": -2.9083920933,
				"z": 1.195513418,
				"element": "H" 
			},
			{
				"x": 2.4358639157,
				"y": -1.9064499762,
				"z": 0.1949623417,
				"element": "H" 
			}
		],
		 "valence_orbital": [ 
			{
				"type": "occ",
				"energy": -0.29618,
				"method": "rhf"
			},
			{
				"type": "occ",
				"energy": -0.26419,
				"method": "rhf"
			},
			{
				"type": "occ",
				"energy": -0.25266,
				"method": "rhf"
			},
			{
				"type": "occ",
				"energy": -0.24976,
				"method": "rhf"
			},
			{
				"type": "occ",
				"energy": -0.22989,
				"method": "rhf"
			},
			{
				"type": "unocc",
				"energy": -0.03016,
				"method": "rhf"
			},
			{
				"type": "unocc",
				"energy": -0.00965,
				"method": "rhf"
			},
			{
				"type": "unocc",
				"energy": -0.00551,
				"method": "rhf"
			},
			{
				"type": "unocc",
				"energy": 0.02957,
				"method": "rhf"
			},
			{
				"type": "unocc",
				"energy": 0.07809,
				"method": "rhf"
			}
		],
		"cosmo_sigma_profile": { 
			"-0.025": 0.0,
			"-0.024": 0.0,
			"-0.023": 0.0,
			"-0.022": 0.0,
			"-0.021": 0.0,
			"-0.02": 0.0,
			"-0.019": 0.0,
			"-0.018": 0.0,
			"-0.017": 0.0,
			"-0.016": 0.0,
			"-0.015": 0.0,
			"-0.014": 0.138854199511,
			"-0.013": 0.71386045939,
			"-0.012": 1.20044926693,
			"-0.011": 1.34009227382,
			"-0.01": 0.725876688455,
			"-0.009": 1.31157862742,
			"-0.008": 1.9069145064,
			"-0.007": 6.09089407928,
			"-0.006": 9.18850317746,
			"-0.005": 17.7587587931,
			"-0.004": 22.1794383251,
			"-0.003": 25.1186049928,
			"-0.002": 21.1365267666,
			"-0.001": 24.4452634696,
			"0.0": 17.0204726811,
			"0.001": 13.2547982732,
			"0.002": 11.0453946685,
			"0.003": 9.86121043126,
			"0.004": 11.3161146929,
			"0.005": 11.4379919748,
			"0.006": 5.76821468006,
			"0.007": 3.24545646806,
			"0.008": 2.60984122299,
			"0.009": 3.10185009281,
			"0.01": 3.82066549291,
			"0.011": 4.68441437803,
			"0.012": 4.19732267242,
			"0.013": 4.92371348679,
			"0.014": 0.895306554205,
			"0.015": 0.0,
			"0.016": 0.0,
			"0.017": 0.0,
			"0.018": 0.0,
			"0.019": 0.0,
			"0.02": 0.0,
			"0.021": 0.0,
			"0.022": 0.0,
			"0.023": 0.0,
			"0.024": 0.0,
			"0.025": 0.0
		}
	}
}
