{
	 "smiles": "CCOC(=O)C1=CN2C(Br)=CC=C2C=N1", 
	 "Tm": 412.15, 
	 "num_atms": 24, 
	 "gaussian": { 
		 "optdone": 1, 
		 "sigma_profile": "yes", 
		 "theory": "DFT", 
		 "functional": "B3LYP", 
		 "basiset": "6-31G**", 
		 "properties": { 
			 "R2extent": 6991.5932, 
			 "electric_dipole_moment_norm": 1.61513285212, 
			 "electric_quadrupole_moment_norm": 14.1822078687, 
			 "total_energy": -3217.83146883, 
			 "HOMO_LUMO_gap": 0.16016, 
			 "cosmo_polarized_energy": -10.85, 
			 "cosmo_cavitation_energy": 31.25, 
			 "cosmo_dispersion_energy": -23.25, 
			 "cosmo_repulsion_energy": 1.82, 
			 "cosmo_total_nonelectrostatic_energy": 9.82, 
			 "SMD_solvation_energy": 4.48 
		},
		"coords": [
			{
				"x": 2.7602777991,
				"y": -2.7608383466,
				"z": 0.0116832232,
				"element": "C" 
			},
			{
				"x": 2.8444216188,
				"y": -1.2419373234,
				"z": 0.0362815567,
				"element": "C" 
			},
			{
				"x": 1.6282282784,
				"y": -0.6406520146,
				"z": -0.4685195212,
				"element": "O" 
			},
			{
				"x": 0.6353404363,
				"y": -0.4744599317,
				"z": 0.4171385215,
				"element": "C" 
			},
			{
				"x": 0.6982233551,
				"y": -0.787407489,
				"z": 1.5938218432,
				"element": "O" 
			},
			{
				"x": -0.5793958155,
				"y": 0.1510560227,
				"z": -0.1916236433,
				"element": "C" 
			},
			{
				"x": -1.639954956,
				"y": 0.3658005623,
				"z": 0.6480257645,
				"element": "C" 
			},
			{
				"x": -2.774480122,
				"y": 0.9384496861,
				"z": 0.1340817511,
				"element": "N" 
			},
			{
				"x": -3.9709800706,
				"y": 1.2711497019,
				"z": 0.7116736628,
				"element": "C" 
			},
			{
				"x": -4.3063669999,
				"y": 0.9633788288,
				"z": 2.530115566,
				"element": "Br" 
			},
			{
				"x": -4.7940287566,
				"y": 1.8305737988,
				"z": -0.2558835331,
				"element": "C" 
			},
			{
				"x": -4.0873794143,
				"y": 1.8460832924,
				"z": -1.4740877751,
				"element": "C" 
			},
			{
				"x": -2.8320768172,
				"y": 1.2931378132,
				"z": -1.2374995405,
				"element": "C" 
			},
			{
				"x": -1.6734815797,
				"y": 1.0213584511,
				"z": -2.0069276591,
				"element": "C" 
			},
			{
				"x": -0.5828841135,
				"y": 0.4750027715,
				"z": -1.5275006076,
				"element": "N" 
			},
			{
				"x": 1.9894622573,
				"y": -3.1140997641,
				"z": 0.7009033529,
				"element": "H" 
			},
			{
				"x": 3.7194532504,
				"y": -3.1902161181,
				"z": 0.3199218137,
				"element": "H" 
			},
			{
				"x": 2.5293070241,
				"y": -3.1209594265,
				"z": -0.995011096,
				"element": "H" 
			},
			{
				"x": 3.0285459798,
				"y": -0.8732498191,
				"z": 1.0482388064,
				"element": "H" 
			},
			{
				"x": 3.6236534602,
				"y": -0.8729040184,
				"z": -0.6344926191,
				"element": "H" 
			},
			{
				"x": -1.6250464053,
				"y": 0.1056811024,
				"z": 1.6974115621,
				"element": "H" 
			},
			{
				"x": -5.7989283613,
				"y": 2.1845910016,
				"z": -0.0782252775,
				"element": "H" 
			},
			{
				"x": -4.442420838,
				"y": 2.2163432463,
				"z": -2.4247873023,
				"element": "H" 
			},
			{
				"x": -1.6844892096,
				"y": 1.2809179721,
				"z": -3.0647388491,
				"element": "H" 
			}
		],
		 "valence_orbital": [ 
			{
				"type": "occ",
				"energy": -0.29545,
				"method": "rhf"
			},
			{
				"type": "occ",
				"energy": -0.28318,
				"method": "rhf"
			},
			{
				"type": "occ",
				"energy": -0.26281,
				"method": "rhf"
			},
			{
				"type": "occ",
				"energy": -0.25503,
				"method": "rhf"
			},
			{
				"type": "occ",
				"energy": -0.21516,
				"method": "rhf"
			},
			{
				"type": "unocc",
				"energy": -0.055,
				"method": "rhf"
			},
			{
				"type": "unocc",
				"energy": -0.04053,
				"method": "rhf"
			},
			{
				"type": "unocc",
				"energy": -0.00025,
				"method": "rhf"
			},
			{
				"type": "unocc",
				"energy": 0.03774,
				"method": "rhf"
			},
			{
				"type": "unocc",
				"energy": 0.07045,
				"method": "rhf"
			}
		],
		"cosmo_sigma_profile": { 
			"-0.025": 0.0,
			"-0.024": 0.0,
			"-0.023": 0.0,
			"-0.022": 0.0,
			"-0.021": 0.0,
			"-0.02": 0.0,
			"-0.019": 0.0,
			"-0.018": 0.0,
			"-0.017": 0.0,
			"-0.016": 0.0,
			"-0.015": 0.0,
			"-0.014": 0.0,
			"-0.013": 0.0,
			"-0.012": 0.0,
			"-0.011": 0.0,
			"-0.01": 0.0,
			"-0.009": 0.253305207641,
			"-0.008": 4.90782926385,
			"-0.007": 6.15558408778,
			"-0.006": 9.68192984243,
			"-0.005": 14.0190361382,
			"-0.004": 20.6602276277,
			"-0.003": 25.3553779664,
			"-0.002": 25.0171130965,
			"-0.001": 27.4363520788,
			"0.0": 25.2403983819,
			"0.001": 19.5065290765,
			"0.002": 18.057915179,
			"0.003": 17.210372905,
			"0.004": 9.1217340209,
			"0.005": 3.08556179092,
			"0.006": 3.13654786674,
			"0.007": 3.19037101903,
			"0.008": 2.7969075773,
			"0.009": 3.15011282421,
			"0.01": 2.52374282759,
			"0.011": 3.83625854364,
			"0.012": 4.9484142791,
			"0.013": 0.689608330773,
			"0.014": 1.07932954876,
			"0.015": 1.2251985482,
			"0.016": 0.99399943881,
			"0.017": 0.648752690022,
			"0.018": 0.0563886273804,
			"0.019": 0.0,
			"0.02": 0.0,
			"0.021": 0.0,
			"0.022": 0.0,
			"0.023": 0.0,
			"0.024": 0.0,
			"0.025": 0.0
		}
	}
}
