{
	 "smiles": "COC1=CC=C(Cl)C(Cl)=C1", 
	 "Tm": 265.15, 
	 "num_atms": 16, 
	 "gaussian": { 
		 "optdone": 1, 
		 "sigma_profile": "yes", 
		 "theory": "DFT", 
		 "functional": "B3LYP", 
		 "basiset": "6-31G**", 
		 "properties": { 
			 "R2extent": 2758.7082, 
			 "electric_dipole_moment_norm": 4.16139778079, 
			 "electric_quadrupole_moment_norm": 7.93998887909, 
			 "total_energy": -1265.95320266, 
			 "HOMO_LUMO_gap": 0.20587, 
			 "cosmo_polarized_energy": -6.25, 
			 "cosmo_cavitation_energy": 23.57, 
			 "cosmo_dispersion_energy": -17.88, 
			 "cosmo_repulsion_energy": 1.45, 
			 "cosmo_total_nonelectrostatic_energy": 7.13, 
			 "SMD_solvation_energy": 4.36 
		},
		"coords": [
			{
				"x": -1.5990165851,
				"y": -1.1285368306,
				"z": -2.5610959413,
				"element": "C" 
			},
			{
				"x": -1.0302499023,
				"y": -1.2263938995,
				"z": -1.2629894158,
				"element": "O" 
			},
			{
				"x": -0.1067678868,
				"y": -0.2982858441,
				"z": -0.8922539613,
				"element": "C" 
			},
			{
				"x": 0.3343657706,
				"y": 0.7591604225,
				"z": -1.696371908,
				"element": "C" 
			},
			{
				"x": 1.2887627572,
				"y": 1.6472492498,
				"z": -1.1997757177,
				"element": "C" 
			},
			{
				"x": 1.8122961762,
				"y": 1.5020837377,
				"z": 0.0829332924,
				"element": "C" 
			},
			{
				"x": 3.0062048232,
				"y": 2.6457081614,
				"z": 0.6517796637,
				"element": "Cl" 
			},
			{
				"x": 1.365038037,
				"y": 0.4388909371,
				"z": 0.8840528229,
				"element": "C" 
			},
			{
				"x": 1.9809426351,
				"y": 0.2000577782,
				"z": 2.502026478,
				"element": "Cl" 
			},
			{
				"x": 0.4143469077,
				"y": -0.4521741385,
				"z": 0.3996268924,
				"element": "C" 
			},
			{
				"x": -0.8359368913,
				"y": -1.2213393351,
				"z": -3.3442096337,
				"element": "H" 
			},
			{
				"x": -2.3011252225,
				"y": -1.9589983201,
				"z": -2.6436657649,
				"element": "H" 
			},
			{
				"x": -2.14017692,
				"y": -0.1832779977,
				"z": -2.6945068871,
				"element": "H" 
			},
			{
				"x": -0.0498430302,
				"y": 0.9036180742,
				"z": -2.6983293081,
				"element": "H" 
			},
			{
				"x": 1.635203699,
				"y": 2.468818688,
				"z": -1.8171087725,
				"element": "H" 
			},
			{
				"x": 0.0668556322,
				"y": -1.2735806834,
				"z": 1.0145881611,
				"element": "H" 
			}
		],
		 "valence_orbital": [ 
			{
				"type": "occ",
				"energy": -0.32465,
				"method": "rhf"
			},
			{
				"type": "occ",
				"energy": -0.30803,
				"method": "rhf"
			},
			{
				"type": "occ",
				"energy": -0.30587,
				"method": "rhf"
			},
			{
				"type": "occ",
				"energy": -0.258,
				"method": "rhf"
			},
			{
				"type": "occ",
				"energy": -0.22907,
				"method": "rhf"
			},
			{
				"type": "unocc",
				"energy": -0.0232,
				"method": "rhf"
			},
			{
				"type": "unocc",
				"energy": -0.00862,
				"method": "rhf"
			},
			{
				"type": "unocc",
				"energy": 0.0054,
				"method": "rhf"
			},
			{
				"type": "unocc",
				"energy": 0.06353,
				"method": "rhf"
			},
			{
				"type": "unocc",
				"energy": 0.08997,
				"method": "rhf"
			}
		],
		"cosmo_sigma_profile": { 
			"-0.025": 0.0,
			"-0.024": 0.0,
			"-0.023": 0.0,
			"-0.022": 0.0,
			"-0.021": 0.0,
			"-0.02": 0.0,
			"-0.019": 0.0,
			"-0.018": 0.0,
			"-0.017": 0.0,
			"-0.016": 0.0,
			"-0.015": 0.0,
			"-0.014": 0.0,
			"-0.013": 0.0,
			"-0.012": 0.0,
			"-0.011": 0.0,
			"-0.01": 0.0,
			"-0.009": 0.0,
			"-0.008": 2.25087950372,
			"-0.007": 6.70847611767,
			"-0.006": 11.5545467198,
			"-0.005": 12.9295933406,
			"-0.004": 11.6496131362,
			"-0.003": 11.8505522041,
			"-0.002": 9.95034421908,
			"-0.001": 10.3356478983,
			"0.0": 13.395439145,
			"0.001": 21.341729132,
			"0.002": 26.1753745813,
			"0.003": 18.5588307912,
			"0.004": 19.3872431328,
			"0.005": 9.55112670405,
			"0.006": 2.75656931269,
			"0.007": 1.58696083207,
			"0.008": 1.19507839029,
			"0.009": 1.43796427602,
			"0.01": 0.514222061978,
			"0.011": 0.0,
			"0.012": 0.0,
			"0.013": 0.0,
			"0.014": 0.0,
			"0.015": 0.0,
			"0.016": 0.0,
			"0.017": 0.0,
			"0.018": 0.0,
			"0.019": 0.0,
			"0.02": 0.0,
			"0.021": 0.0,
			"0.022": 0.0,
			"0.023": 0.0,
			"0.024": 0.0,
			"0.025": 0.0
		}
	}
}
