{
	 "smiles": "CC1=CC2=NSN=C2C=C1C", 
	 "Tm": 362.65, 
	 "num_atms": 19, 
	 "gaussian": { 
		 "optdone": 1, 
		 "sigma_profile": "yes", 
		 "theory": "DFT", 
		 "functional": "B3LYP", 
		 "basiset": "6-31G**", 
		 "properties": { 
			 "R2extent": 3370.861, 
			 "electric_dipole_moment_norm": 3.03388928934, 
			 "electric_quadrupole_moment_norm": 3.62486519887, 
			 "total_energy": -817.35328211, 
			 "HOMO_LUMO_gap": 0.15531, 
			 "cosmo_polarized_energy": -6.38, 
			 "cosmo_cavitation_energy": 24.09, 
			 "cosmo_dispersion_energy": -18.68, 
			 "cosmo_repulsion_energy": 1.41, 
			 "cosmo_total_nonelectrostatic_energy": 6.82, 
			 "SMD_solvation_energy": 0.77 
		},
		"coords": [
			{
				"x": -1.2882187594,
				"y": -1.8772213353,
				"z": 0.6518746595,
				"element": "C" 
			},
			{
				"x": -1.0014616505,
				"y": -0.4125844329,
				"z": 0.8779231976,
				"element": "C" 
			},
			{
				"x": -1.9200012805,
				"y": 0.3723381729,
				"z": 1.5315233422,
				"element": "C" 
			},
			{
				"x": -1.6456930937,
				"y": 1.7533043127,
				"z": 1.7428097188,
				"element": "C" 
			},
			{
				"x": -2.4380982376,
				"y": 2.6388943643,
				"z": 2.3593420207,
				"element": "N" 
			},
			{
				"x": -1.6333080432,
				"y": 4.0747133837,
				"z": 2.3205766016,
				"element": "S" 
			},
			{
				"x": -0.2634199309,
				"y": 3.6225382348,
				"z": 1.5270518028,
				"element": "N" 
			},
			{
				"x": -0.4003521296,
				"y": 2.3165974032,
				"z": 1.2661695462,
				"element": "C" 
			},
			{
				"x": 0.5363703787,
				"y": 1.4834333112,
				"z": 0.5913735729,
				"element": "C" 
			},
			{
				"x": 0.2504966271,
				"y": 0.153701182,
				"z": 0.3987283732,
				"element": "C" 
			},
			{
				"x": 1.2408435278,
				"y": -0.7333163862,
				"z": -0.3160151468,
				"element": "C" 
			},
			{
				"x": -1.2933941414,
				"y": -2.1279201732,
				"z": -0.4155992602,
				"element": "H" 
			},
			{
				"x": -2.2607067769,
				"y": -2.1532486308,
				"z": 1.0659124451,
				"element": "H" 
			},
			{
				"x": -0.5293358239,
				"y": -2.5146729138,
				"z": 1.1210643992,
				"element": "H" 
			},
			{
				"x": -2.8563490893,
				"y": -0.0406809541,
				"z": 1.8926155868,
				"element": "H" 
			},
			{
				"x": 1.4671963587,
				"y": 1.9150523669,
				"z": 0.2378354584,
				"element": "H" 
			},
			{
				"x": 2.1270667541,
				"y": -0.1683623692,
				"z": -0.6139894328,
				"element": "H" 
			},
			{
				"x": 0.8062493048,
				"y": -1.1787783095,
				"z": -1.2188381158,
				"element": "H" 
			},
			{
				"x": 1.5694160056,
				"y": -1.5651872266,
				"z": 0.3183412307,
				"element": "H" 
			}
		],
		 "valence_orbital": [ 
			{
				"type": "occ",
				"energy": -0.32396,
				"method": "rhf"
			},
			{
				"type": "occ",
				"energy": -0.31297,
				"method": "rhf"
			},
			{
				"type": "occ",
				"energy": -0.29356,
				"method": "rhf"
			},
			{
				"type": "occ",
				"energy": -0.25098,
				"method": "rhf"
			},
			{
				"type": "occ",
				"energy": -0.23364,
				"method": "rhf"
			},
			{
				"type": "unocc",
				"energy": -0.07833,
				"method": "rhf"
			},
			{
				"type": "unocc",
				"energy": 0.01134,
				"method": "rhf"
			},
			{
				"type": "unocc",
				"energy": 0.01494,
				"method": "rhf"
			},
			{
				"type": "unocc",
				"energy": 0.01774,
				"method": "rhf"
			},
			{
				"type": "unocc",
				"energy": 0.07699,
				"method": "rhf"
			}
		],
		"cosmo_sigma_profile": { 
			"-0.025": 0.0,
			"-0.024": 0.0,
			"-0.023": 0.0,
			"-0.022": 0.0,
			"-0.021": 0.0,
			"-0.02": 0.0,
			"-0.019": 0.0,
			"-0.018": 0.0,
			"-0.017": 0.0,
			"-0.016": 0.0,
			"-0.015": 0.0,
			"-0.014": 0.0,
			"-0.013": 0.0,
			"-0.012": 0.0,
			"-0.011": 0.0,
			"-0.01": 0.0,
			"-0.009": 0.0,
			"-0.008": 0.0,
			"-0.007": 1.10834875945,
			"-0.006": 4.66422714991,
			"-0.005": 12.5707526059,
			"-0.004": 18.2352488454,
			"-0.003": 17.4362617709,
			"-0.002": 20.3775297365,
			"-0.001": 26.2008925471,
			"0.0": 26.021259033,
			"0.001": 14.9669412704,
			"0.002": 16.2101087944,
			"0.003": 11.0664294474,
			"0.004": 4.67046381854,
			"0.005": 3.24847887029,
			"0.006": 2.60559765225,
			"0.007": 1.83463714572,
			"0.008": 2.20820966928,
			"0.009": 2.31577861452,
			"0.01": 2.39762455347,
			"0.011": 2.02387152799,
			"0.012": 1.65699397119,
			"0.013": 2.22041561669,
			"0.014": 0.746149817599,
			"0.015": 0.0,
			"0.016": 0.0,
			"0.017": 0.0,
			"0.018": 0.0,
			"0.019": 0.0,
			"0.02": 0.0,
			"0.021": 0.0,
			"0.022": 0.0,
			"0.023": 0.0,
			"0.024": 0.0,
			"0.025": 0.0
		}
	}
}
