{
	 "smiles": "COC1=CC(F)=C(C=O)C=C1OC", 
	 "Tm": 372.15, 
	 "num_atms": 22, 
	 "gaussian": { 
		 "optdone": 1, 
		 "sigma_profile": "yes", 
		 "theory": "DFT", 
		 "functional": "B3LYP", 
		 "basiset": "6-31G**", 
		 "properties": { 
			 "R2extent": 3389.3775, 
			 "electric_dipole_moment_norm": 6.04680173728, 
			 "electric_quadrupole_moment_norm": 19.4190195654, 
			 "total_energy": -673.840230407, 
			 "HOMO_LUMO_gap": 0.16705, 
			 "cosmo_polarized_energy": -12.15, 
			 "cosmo_cavitation_energy": 26.91, 
			 "cosmo_dispersion_energy": -19.3, 
			 "cosmo_repulsion_energy": 1.51, 
			 "cosmo_total_nonelectrostatic_energy": 9.12, 
			 "SMD_solvation_energy": 7.79 
		},
		"coords": [
			{
				"x": 0.2215525679,
				"y": -2.3082980232,
				"z": -0.8713896392,
				"element": "C" 
			},
			{
				"x": -0.6266475362,
				"y": -1.9812197169,
				"z": 0.2373830251,
				"element": "O" 
			},
			{
				"x": -0.9760233183,
				"y": -0.6903425218,
				"z": 0.4728480376,
				"element": "C" 
			},
			{
				"x": -2.3032608019,
				"y": -0.4728544752,
				"z": 0.8506079277,
				"element": "C" 
			},
			{
				"x": -2.7493244635,
				"y": 0.8034308123,
				"z": 1.1615097976,
				"element": "C" 
			},
			{
				"x": -4.0329674664,
				"y": 0.9545199806,
				"z": 1.5140977468,
				"element": "F" 
			},
			{
				"x": -1.8949173529,
				"y": 1.910455855,
				"z": 1.0949344385,
				"element": "C" 
			},
			{
				"x": -2.3084148272,
				"y": 3.2935914072,
				"z": 1.4001992567,
				"element": "C" 
			},
			{
				"x": -3.4168236701,
				"y": 3.6613822934,
				"z": 1.735512112,
				"element": "O" 
			},
			{
				"x": -0.5567670203,
				"y": 1.6788656397,
				"z": 0.7203054645,
				"element": "C" 
			},
			{
				"x": -0.0770817285,
				"y": 0.4080805428,
				"z": 0.4235339073,
				"element": "C" 
			},
			{
				"x": 1.2229125251,
				"y": 0.1241457824,
				"z": 0.1052266345,
				"element": "O" 
			},
			{
				"x": 2.1490321402,
				"y": 1.1988237565,
				"z": 0.0560347677,
				"element": "C" 
			},
			{
				"x": 0.0611462861,
				"y": -3.3728865068,
				"z": -1.0525178457,
				"element": "H" 
			},
			{
				"x": -0.0643963772,
				"y": -1.7425272318,
				"z": -1.7647902153,
				"element": "H" 
			},
			{
				"x": 1.2718665795,
				"y": -2.1204710861,
				"z": -0.6446619312,
				"element": "H" 
			},
			{
				"x": -2.9831858721,
				"y": -1.3153766709,
				"z": 0.8934458457,
				"element": "H" 
			},
			{
				"x": -1.4742709164,
				"y": 4.026794159,
				"z": 1.2933963357,
				"element": "H" 
			},
			{
				"x": 0.1099383063,
				"y": 2.5338479624,
				"z": 0.6862296004,
				"element": "H" 
			},
			{
				"x": 1.8700180536,
				"y": 1.9393928458,
				"z": -0.704543526,
				"element": "H" 
			},
			{
				"x": 3.1096433892,
				"y": 0.7554598157,
				"z": -0.2095227369,
				"element": "H" 
			},
			{
				"x": 2.238571503,
				"y": 1.69768538,
				"z": 1.0293609965,
				"element": "H" 
			}
		],
		 "valence_orbital": [ 
			{
				"type": "occ",
				"energy": -0.322,
				"method": "rhf"
			},
			{
				"type": "occ",
				"energy": -0.30785,
				"method": "rhf"
			},
			{
				"type": "occ",
				"energy": -0.25493,
				"method": "rhf"
			},
			{
				"type": "occ",
				"energy": -0.24669,
				"method": "rhf"
			},
			{
				"type": "occ",
				"energy": -0.22406,
				"method": "rhf"
			},
			{
				"type": "unocc",
				"energy": -0.05701,
				"method": "rhf"
			},
			{
				"type": "unocc",
				"energy": -0.00487,
				"method": "rhf"
			},
			{
				"type": "unocc",
				"energy": 0.04515,
				"method": "rhf"
			},
			{
				"type": "unocc",
				"energy": 0.07125,
				"method": "rhf"
			},
			{
				"type": "unocc",
				"energy": 0.08427,
				"method": "rhf"
			}
		],
		"cosmo_sigma_profile": { 
			"-0.025": 0.0,
			"-0.024": 0.0,
			"-0.023": 0.0,
			"-0.022": 0.0,
			"-0.021": 0.0,
			"-0.02": 0.0,
			"-0.019": 0.0,
			"-0.018": 0.0,
			"-0.017": 0.0,
			"-0.016": 0.0,
			"-0.015": 0.0,
			"-0.014": 0.0,
			"-0.013": 0.0,
			"-0.012": 0.0,
			"-0.011": 0.0,
			"-0.01": 0.0,
			"-0.009": 0.471600054519,
			"-0.008": 3.55276866034,
			"-0.007": 6.18904739612,
			"-0.006": 14.4878082113,
			"-0.005": 17.349321242,
			"-0.004": 18.6642005118,
			"-0.003": 20.8871311397,
			"-0.002": 13.2787900921,
			"-0.001": 12.6073302007,
			"0.0": 16.4755602556,
			"0.001": 20.1509545855,
			"0.002": 13.2381159918,
			"0.003": 10.5197260047,
			"0.004": 11.4575858862,
			"0.005": 5.84186067811,
			"0.006": 4.54275140352,
			"0.007": 3.79220784552,
			"0.008": 3.70937457117,
			"0.009": 3.54474775145,
			"0.01": 3.72504020557,
			"0.011": 4.43906444901,
			"0.012": 4.54755935826,
			"0.013": 1.31646155343,
			"0.014": 0.00987577048756,
			"0.015": 0.0,
			"0.016": 0.0,
			"0.017": 0.0,
			"0.018": 0.0,
			"0.019": 0.0,
			"0.02": 0.0,
			"0.021": 0.0,
			"0.022": 0.0,
			"0.023": 0.0,
			"0.024": 0.0,
			"0.025": 0.0
		}
	}
}
