{
	 "smiles": "CCN1N=C(C)C(C(O)=O)=C1C", 
	 "Tm": 413.15, 
	 "num_atms": 24, 
	 "gaussian": { 
		 "optdone": 1, 
		 "sigma_profile": "yes", 
		 "theory": "DFT", 
		 "functional": "B3LYP", 
		 "basiset": "6-31G**", 
		 "properties": { 
			 "R2extent": 2382.6832, 
			 "electric_dipole_moment_norm": 4.42594905868, 
			 "electric_quadrupole_moment_norm": 17.1897234827, 
			 "total_energy": -572.049311856, 
			 "HOMO_LUMO_gap": 0.23161, 
			 "cosmo_polarized_energy": -14.99, 
			 "cosmo_cavitation_energy": 27.03, 
			 "cosmo_dispersion_energy": -19.58, 
			 "cosmo_repulsion_energy": 1.56, 
			 "cosmo_total_nonelectrostatic_energy": 9.01, 
			 "SMD_solvation_energy": 4.82 
		},
		"coords": [
			{
				"x": 0.4960830922,
				"y": -3.311113468,
				"z": 0.2117554456,
				"element": "C" 
			},
			{
				"x": 1.1122291492,
				"y": -2.3844101196,
				"z": -0.8379917645,
				"element": "C" 
			},
			{
				"x": 0.6598349415,
				"y": -1.0038158568,
				"z": -0.6976317734,
				"element": "N" 
			},
			{
				"x": -0.5769443744,
				"y": -0.6809428114,
				"z": -1.163531949,
				"element": "N" 
			},
			{
				"x": -0.746518163,
				"y": 0.598629697,
				"z": -0.8570958542,
				"element": "C" 
			},
			{
				"x": -2.0292079392,
				"y": 1.2706548393,
				"z": -1.2538877868,
				"element": "C" 
			},
			{
				"x": 0.3988724388,
				"y": 1.1175705432,
				"z": -0.175003519,
				"element": "C" 
			},
			{
				"x": 0.6783919952,
				"y": 2.4667736563,
				"z": 0.3507340874,
				"element": "C" 
			},
			{
				"x": -0.2985735045,
				"y": 3.4048826071,
				"z": 0.2011081653,
				"element": "O" 
			},
			{
				"x": 1.7109844395,
				"y": 2.7900578981,
				"z": 0.9022954943,
				"element": "O" 
			},
			{
				"x": 1.2848650906,
				"y": 0.034504962,
				"z": -0.0924154545,
				"element": "C" 
			},
			{
				"x": 2.6518103949,
				"y": -0.0679119113,
				"z": 0.5052650527,
				"element": "C" 
			},
			{
				"x": -0.5944605336,
				"y": -3.2820526257,
				"z": 0.1458362729,
				"element": "H" 
			},
			{
				"x": 0.7894206317,
				"y": -3.0146892432,
				"z": 1.2234760332,
				"element": "H" 
			},
			{
				"x": 0.8282357234,
				"y": -4.3405996154,
				"z": 0.045496544,
				"element": "H" 
			},
			{
				"x": 2.203063956,
				"y": -2.3866278036,
				"z": -0.7746612501,
				"element": "H" 
			},
			{
				"x": 0.833250553,
				"y": -2.7052402925,
				"z": -1.8448955813,
				"element": "H" 
			},
			{
				"x": -2.5930510509,
				"y": 1.6342327975,
				"z": -0.3846019957,
				"element": "H" 
			},
			{
				"x": -2.6629479475,
				"y": 0.5498888024,
				"z": -1.7743506308,
				"element": "H" 
			},
			{
				"x": -1.8614519382,
				"y": 2.1141096132,
				"z": -1.9361062838,
				"element": "H" 
			},
			{
				"x": -1.0727950245,
				"y": 3.0342645182,
				"z": -0.2417565537,
				"element": "H" 
			},
			{
				"x": 3.3985260149,
				"y": -0.3329656906,
				"z": -0.2525518407,
				"element": "H" 
			},
			{
				"x": 2.69019709,
				"y": -0.8310589934,
				"z": 1.2908583972,
				"element": "H" 
			},
			{
				"x": 2.9179849652,
				"y": 0.896658497,
				"z": 0.9350567447,
				"element": "H" 
			}
		],
		 "valence_orbital": [ 
			{
				"type": "occ",
				"energy": -0.30429,
				"method": "rhf"
			},
			{
				"type": "occ",
				"energy": -0.30012,
				"method": "rhf"
			},
			{
				"type": "occ",
				"energy": -0.26026,
				"method": "rhf"
			},
			{
				"type": "occ",
				"energy": -0.25397,
				"method": "rhf"
			},
			{
				"type": "occ",
				"energy": -0.24809,
				"method": "rhf"
			},
			{
				"type": "unocc",
				"energy": -0.01648,
				"method": "rhf"
			},
			{
				"type": "unocc",
				"energy": 0.01425,
				"method": "rhf"
			},
			{
				"type": "unocc",
				"energy": 0.07276,
				"method": "rhf"
			},
			{
				"type": "unocc",
				"energy": 0.07906,
				"method": "rhf"
			},
			{
				"type": "unocc",
				"energy": 0.10849,
				"method": "rhf"
			}
		],
		"cosmo_sigma_profile": { 
			"-0.025": 0.0,
			"-0.024": 0.0,
			"-0.023": 0.0,
			"-0.022": 0.0,
			"-0.021": 0.0,
			"-0.02": 0.0,
			"-0.019": 0.0,
			"-0.018": 0.0,
			"-0.017": 0.0,
			"-0.016": 0.0,
			"-0.015": 0.0,
			"-0.014": 0.354492887582,
			"-0.013": 1.406946877,
			"-0.012": 1.81097341719,
			"-0.011": 1.37916368489,
			"-0.01": 1.53586892687,
			"-0.009": 1.79298731185,
			"-0.008": 1.94023615469,
			"-0.007": 4.21934623391,
			"-0.006": 9.50471501076,
			"-0.005": 17.4695600137,
			"-0.004": 18.9215494109,
			"-0.003": 20.0729384215,
			"-0.002": 18.8932509258,
			"-0.001": 19.6082137568,
			"0.0": 18.5899963084,
			"0.001": 11.259872761,
			"0.002": 9.92397163269,
			"0.003": 7.61373408386,
			"0.004": 5.11653749531,
			"0.005": 4.50857741941,
			"0.006": 3.89233787087,
			"0.007": 3.8504475607,
			"0.008": 3.90472010472,
			"0.009": 4.1916881465,
			"0.01": 3.49930510431,
			"0.011": 6.01593444419,
			"0.012": 5.55275404524,
			"0.013": 3.5412581926,
			"0.014": 2.35498402114,
			"0.015": 0.440101596926,
			"0.016": 0.0842698866858,
			"0.017": 0.0,
			"0.018": 0.0,
			"0.019": 0.0,
			"0.02": 0.0,
			"0.021": 0.0,
			"0.022": 0.0,
			"0.023": 0.0,
			"0.024": 0.0,
			"0.025": 0.0
		}
	}
}
