{
	 "smiles": "NNC1=CC=C(Cl)C=C1[N+]([O-])=O", 
	 "Tm": 407.15, 
	 "num_atms": 18, 
	 "gaussian": { 
		 "optdone": 1, 
		 "sigma_profile": "yes", 
		 "theory": "DFT", 
		 "functional": "B3LYP", 
		 "basiset": "6-31G**", 
		 "properties": { 
			 "R2extent": 3914.5446, 
			 "electric_dipole_moment_norm": 5.21254834798, 
			 "electric_quadrupole_moment_norm": 12.4987323113, 
			 "total_energy": -1007.0171433, 
			 "HOMO_LUMO_gap": 0.13253, 
			 "cosmo_polarized_energy": -12.13, 
			 "cosmo_cavitation_energy": 24.53, 
			 "cosmo_dispersion_energy": -18.74, 
			 "cosmo_repulsion_energy": 1.52, 
			 "cosmo_total_nonelectrostatic_energy": 7.31, 
			 "SMD_solvation_energy": 6.54 
		},
		"coords": [
			{
				"x": 0.9393846123,
				"y": -1.7164750655,
				"z": -0.0109284591,
				"element": "N" 
			},
			{
				"x": 1.479035343,
				"y": -0.4301402322,
				"z": -0.143496215,
				"element": "N" 
			},
			{
				"x": 0.7299039867,
				"y": 0.6675818279,
				"z": 0.1563957655,
				"element": "C" 
			},
			{
				"x": -0.6077479997,
				"y": 0.5280348022,
				"z": 0.6090258316,
				"element": "C" 
			},
			{
				"x": -1.3867610334,
				"y": 1.623665576,
				"z": 0.9191886665,
				"element": "C" 
			},
			{
				"x": -0.8677082215,
				"y": 2.9240051642,
				"z": 0.7928532705,
				"element": "C" 
			},
			{
				"x": -1.8754464325,
				"y": 4.3048863384,
				"z": 1.1925770597,
				"element": "Cl" 
			},
			{
				"x": 0.4256427831,
				"y": 3.1114526396,
				"z": 0.3573328061,
				"element": "C" 
			},
			{
				"x": 1.2254333065,
				"y": 1.9996848804,
				"z": 0.0394013392,
				"element": "C" 
			},
			{
				"x": 2.5711809178,
				"y": 2.2872260969,
				"z": -0.4100096133,
				"element": "N" 
			},
			{
				"x": 2.932415243,
				"y": 3.4611685582,
				"z": -0.487113357,
				"element": "O" 
			},
			{
				"x": 3.3227455586,
				"y": 1.3346211772,
				"z": -0.705236981,
				"element": "O" 
			},
			{
				"x": 1.4986798581,
				"y": -2.2530193531,
				"z": 0.6481887967,
				"element": "H" 
			},
			{
				"x": 0.9618302826,
				"y": -2.1886936527,
				"z": -0.9118781902,
				"element": "H" 
			},
			{
				"x": 2.4272988435,
				"y": -0.2641397706,
				"z": -0.4623748004,
				"element": "H" 
			},
			{
				"x": -0.9984265409,
				"y": -0.4766684281,
				"z": 0.7030828479,
				"element": "H" 
			},
			{
				"x": -2.406104944,
				"y": 1.4830055649,
				"z": 1.2628049995,
				"element": "H" 
			},
			{
				"x": 0.8547444368,
				"y": 4.0983038763,
				"z": 0.249386233,
				"element": "H" 
			}
		],
		 "valence_orbital": [ 
			{
				"type": "occ",
				"energy": -0.3013,
				"method": "rhf"
			},
			{
				"type": "occ",
				"energy": -0.29881,
				"method": "rhf"
			},
			{
				"type": "occ",
				"energy": -0.28182,
				"method": "rhf"
			},
			{
				"type": "occ",
				"energy": -0.28012,
				"method": "rhf"
			},
			{
				"type": "occ",
				"energy": -0.22068,
				"method": "rhf"
			},
			{
				"type": "unocc",
				"energy": -0.08815,
				"method": "rhf"
			},
			{
				"type": "unocc",
				"energy": -0.0114,
				"method": "rhf"
			},
			{
				"type": "unocc",
				"energy": 0.00272,
				"method": "rhf"
			},
			{
				"type": "unocc",
				"energy": 0.02532,
				"method": "rhf"
			},
			{
				"type": "unocc",
				"energy": 0.05553,
				"method": "rhf"
			}
		],
		"cosmo_sigma_profile": { 
			"-0.025": 0.0,
			"-0.024": 0.0,
			"-0.023": 0.0,
			"-0.022": 0.0,
			"-0.021": 0.0,
			"-0.02": 0.0,
			"-0.019": 0.0,
			"-0.018": 0.0,
			"-0.017": 0.0,
			"-0.016": 0.0,
			"-0.015": 0.0,
			"-0.014": 0.0,
			"-0.013": 0.492616789462,
			"-0.012": 3.69020725195,
			"-0.011": 4.77304357286,
			"-0.01": 4.96340040652,
			"-0.009": 4.42046889564,
			"-0.008": 3.76705533512,
			"-0.007": 4.05005703452,
			"-0.006": 5.84332925036,
			"-0.005": 7.30647074161,
			"-0.004": 8.05277849881,
			"-0.003": 8.69404967058,
			"-0.002": 10.7800826266,
			"-0.001": 13.9839938557,
			"0.0": 18.6486117253,
			"0.001": 21.1938074433,
			"0.002": 17.5718461877,
			"0.003": 11.1959081163,
			"0.004": 12.1310087804,
			"0.005": 9.30832261113,
			"0.006": 4.06061737568,
			"0.007": 3.75763466868,
			"0.008": 7.85232826291,
			"0.009": 4.91364185084,
			"0.01": 4.77890459189,
			"0.011": 2.23697200366,
			"0.012": 0.0184903204098,
			"0.013": 0.0,
			"0.014": 0.0,
			"0.015": 0.0,
			"0.016": 0.0,
			"0.017": 0.0,
			"0.018": 0.0,
			"0.019": 0.0,
			"0.02": 0.0,
			"0.021": 0.0,
			"0.022": 0.0,
			"0.023": 0.0,
			"0.024": 0.0,
			"0.025": 0.0
		}
	}
}
