{
	 "smiles": "CC1=CC(=CC=C1)C1=NN(C=C1C(O)=O)C1=CC=CC=C1", 
	 "Tm": 420.15, 
	 "num_atms": 35, 
	 "gaussian": { 
		 "optdone": 1, 
		 "sigma_profile": "yes", 
		 "theory": "DFT", 
		 "functional": "B3LYP", 
		 "basiset": "6-31G**", 
		 "properties": { 
			 "R2extent": 7700.7854, 
			 "electric_dipole_moment_norm": 3.38494524033, 
			 "electric_quadrupole_moment_norm": 12.157916785, 
			 "total_energy": -916.210691404, 
			 "HOMO_LUMO_gap": 0.17377, 
			 "cosmo_polarized_energy": -13.71, 
			 "cosmo_cavitation_energy": 39.74, 
			 "cosmo_dispersion_energy": -28.67, 
			 "cosmo_repulsion_energy": 2.17, 
			 "cosmo_total_nonelectrostatic_energy": 13.24, 
			 "SMD_solvation_energy": 7.33 
		},
		"coords": [
			{
				"x": -5.0551256975,
				"y": 2.2966742895,
				"z": -0.1756039048,
				"element": "C" 
			},
			{
				"x": -3.5874055333,
				"y": 2.5798507335,
				"z": -0.4003646092,
				"element": "C" 
			},
			{
				"x": -2.6467147988,
				"y": 1.5500647629,
				"z": -0.3868743749,
				"element": "C" 
			},
			{
				"x": -1.2763112485,
				"y": 1.7952128607,
				"z": -0.6000538446,
				"element": "C" 
			},
			{
				"x": -0.8527264377,
				"y": 3.1111221794,
				"z": -0.8296193909,
				"element": "C" 
			},
			{
				"x": -1.7877132341,
				"y": 4.1473769989,
				"z": -0.843536469,
				"element": "C" 
			},
			{
				"x": -3.1395835365,
				"y": 3.8897166214,
				"z": -0.6322041739,
				"element": "C" 
			},
			{
				"x": -0.3396137931,
				"y": 0.6531039568,
				"z": -0.526279266,
				"element": "C" 
			},
			{
				"x": -0.7131140178,
				"y": -0.4120641049,
				"z": 0.18475436,
				"element": "N" 
			},
			{
				"x": 0.2882649433,
				"y": -1.3245769569,
				"z": 0.0701579966,
				"element": "N" 
			},
			{
				"x": 1.3013915586,
				"y": -0.862660964,
				"z": -0.6948962024,
				"element": "C" 
			},
			{
				"x": 0.9549630106,
				"y": 0.4137051382,
				"z": -1.1139144745,
				"element": "C" 
			},
			{
				"x": 1.8033086773,
				"y": 1.2143791493,
				"z": -2.0013104435,
				"element": "C" 
			},
			{
				"x": 2.9038768863,
				"y": 0.511029615,
				"z": -2.3983309482,
				"element": "O" 
			},
			{
				"x": 1.6226111084,
				"y": 2.3566666049,
				"z": -2.3793176316,
				"element": "O" 
			},
			{
				"x": 0.1933681488,
				"y": -2.5731207209,
				"z": 0.7453716745,
				"element": "C" 
			},
			{
				"x": 0.9539879232,
				"y": -3.6659201128,
				"z": 0.316068827,
				"element": "C" 
			},
			{
				"x": 0.8638579222,
				"y": -4.8763825419,
				"z": 1.0020140221,
				"element": "C" 
			},
			{
				"x": 0.0103949497,
				"y": -5.0065590127,
				"z": 2.0987921168,
				"element": "C" 
			},
			{
				"x": -0.7566153086,
				"y": -3.913597158,
				"z": 2.5082760533,
				"element": "C" 
			},
			{
				"x": -0.6687057056,
				"y": -2.6940906927,
				"z": 1.8400902264,
				"element": "C" 
			},
			{
				"x": -5.2362189219,
				"y": 1.2296114099,
				"z": -0.0203688254,
				"element": "H" 
			},
			{
				"x": -5.4346637442,
				"y": 2.831380805,
				"z": 0.7030639631,
				"element": "H" 
			},
			{
				"x": -5.659866305,
				"y": 2.6175840448,
				"z": -1.0318262968,
				"element": "H" 
			},
			{
				"x": -2.9695304582,
				"y": 0.5294154966,
				"z": -0.209354781,
				"element": "H" 
			},
			{
				"x": 0.1925111761,
				"y": 3.3194901737,
				"z": -1.0117170396,
				"element": "H" 
			},
			{
				"x": -1.4523219401,
				"y": 5.1652342778,
				"z": -1.0220121524,
				"element": "H" 
			},
			{
				"x": -3.8568760652,
				"y": 4.7072306761,
				"z": -0.650584403,
				"element": "H" 
			},
			{
				"x": 2.1995558693,
				"y": -1.4273875218,
				"z": -0.8840649567,
				"element": "H" 
			},
			{
				"x": 3.4048140116,
				"y": 1.1193835805,
				"z": -2.9656476154,
				"element": "H" 
			},
			{
				"x": 1.5938438227,
				"y": -3.5840812175,
				"z": -0.5560213883,
				"element": "H" 
			},
			{
				"x": 1.4550472006,
				"y": -5.7229315065,
				"z": 0.6660388735,
				"element": "H" 
			},
			{
				"x": -0.0602086088,
				"y": -5.9529223916,
				"z": 2.6260169344,
				"element": "H" 
			},
			{
				"x": -1.4257202495,
				"y": -4.0059012068,
				"z": 3.3585702673,
				"element": "H" 
			},
			{
				"x": -1.2535616045,
				"y": -1.8356372657,
				"z": 2.1459878769,
				"element": "H" 
			}
		],
		 "valence_orbital": [ 
			{
				"type": "occ",
				"energy": -0.26971,
				"method": "rhf"
			},
			{
				"type": "occ",
				"energy": -0.26481,
				"method": "rhf"
			},
			{
				"type": "occ",
				"energy": -0.24765,
				"method": "rhf"
			},
			{
				"type": "occ",
				"energy": -0.23216,
				"method": "rhf"
			},
			{
				"type": "occ",
				"energy": -0.21679,
				"method": "rhf"
			},
			{
				"type": "unocc",
				"energy": -0.04302,
				"method": "rhf"
			},
			{
				"type": "unocc",
				"energy": -0.03083,
				"method": "rhf"
			},
			{
				"type": "unocc",
				"energy": -0.01484,
				"method": "rhf"
			},
			{
				"type": "unocc",
				"energy": 0.01203,
				"method": "rhf"
			},
			{
				"type": "unocc",
				"energy": 0.01423,
				"method": "rhf"
			}
		],
		"cosmo_sigma_profile": { 
			"-0.025": 0.0,
			"-0.024": 0.0,
			"-0.023": 0.0,
			"-0.022": 0.0,
			"-0.021": 0.0,
			"-0.02": 0.0,
			"-0.019": 0.0,
			"-0.018": 0.523055379225,
			"-0.017": 0.919486486484,
			"-0.016": 1.0094994705,
			"-0.015": 0.62983520119,
			"-0.014": 1.0920102866,
			"-0.013": 0.294920201573,
			"-0.012": 0.211866329833,
			"-0.011": 1.46966548817,
			"-0.01": 2.91909083352,
			"-0.009": 2.07927191848,
			"-0.008": 2.70883476579,
			"-0.007": 4.49725082983,
			"-0.006": 11.6832804174,
			"-0.005": 16.5407737903,
			"-0.004": 23.5991174551,
			"-0.003": 21.3853645952,
			"-0.002": 26.2576130097,
			"-0.001": 26.0813994479,
			"0.0": 27.5478333777,
			"0.001": 28.9021440293,
			"0.002": 22.1862373205,
			"0.003": 21.365817229,
			"0.004": 24.0432381432,
			"0.005": 19.0677442593,
			"0.006": 11.0889268116,
			"0.007": 5.91629463456,
			"0.008": 4.9280016327,
			"0.009": 2.70648251699,
			"0.01": 2.41110880336,
			"0.011": 2.80233412816,
			"0.012": 1.95225452646,
			"0.013": 0.0695857575684,
			"0.014": 0.0,
			"0.015": 0.0,
			"0.016": 0.0,
			"0.017": 0.0,
			"0.018": 0.0,
			"0.019": 0.0,
			"0.02": 0.0,
			"0.021": 0.0,
			"0.022": 0.0,
			"0.023": 0.0,
			"0.024": 0.0,
			"0.025": 0.0
		}
	}
}
