{
	 "smiles": "CCOC(=O)C(C1CCS(=O)(=O)C1)C(C)=O", 
	 "Tm": 348.65, 
	 "num_atms": 32, 
	 "gaussian": { 
		 "optdone": 1, 
		 "sigma_profile": "yes", 
		 "theory": "DFT", 
		 "functional": "B3LYP", 
		 "basiset": "6-31G**", 
		 "properties": { 
			 "R2extent": 5297.6481, 
			 "electric_dipole_moment_norm": 6.27788047433, 
			 "electric_quadrupole_moment_norm": 21.0896265863, 
			 "total_energy": -1164.96707065, 
			 "HOMO_LUMO_gap": 0.22758, 
			 "cosmo_polarized_energy": -20.62, 
			 "cosmo_cavitation_energy": 35.53, 
			 "cosmo_dispersion_energy": -24.42, 
			 "cosmo_repulsion_energy": 1.88, 
			 "cosmo_total_nonelectrostatic_energy": 12.99, 
			 "SMD_solvation_energy": 6.54 
		},
		"coords": [
			{
				"x": -0.0110594989,
				"y": 2.3200682231,
				"z": 2.0319624062,
				"element": "C" 
			},
			{
				"x": -1.2546486877,
				"y": 1.9700436598,
				"z": 1.2307715969,
				"element": "C" 
			},
			{
				"x": -1.1320118101,
				"y": 0.6604845585,
				"z": 0.6123721972,
				"element": "O" 
			},
			{
				"x": -0.5303360763,
				"y": 0.6050140056,
				"z": -0.593110431,
				"element": "C" 
			},
			{
				"x": -0.0847412201,
				"y": 1.5672595188,
				"z": -1.1821430602,
				"element": "O" 
			},
			{
				"x": -0.4461710093,
				"y": -0.8319701791,
				"z": -1.1019730891,
				"element": "C" 
			},
			{
				"x": 0.8119044592,
				"y": -1.5472347517,
				"z": -0.5360080225,
				"element": "C" 
			},
			{
				"x": 2.1275762702,
				"y": -0.7367550375,
				"z": -0.6931490212,
				"element": "C" 
			},
			{
				"x": 2.5544095871,
				"y": -0.7740792942,
				"z": -2.1675705749,
				"element": "C" 
			},
			{
				"x": 1.9572710152,
				"y": -2.393938111,
				"z": -2.8098039932,
				"element": "S" 
			},
			{
				"x": 3.0867247345,
				"y": -3.3013787262,
				"z": -3.0647263504,
				"element": "O" 
			},
			{
				"x": 0.9462727427,
				"y": -2.1430663235,
				"z": -3.8563617116,
				"element": "O" 
			},
			{
				"x": 1.0858331125,
				"y": -2.87088016,
				"z": -1.2693122278,
				"element": "C" 
			},
			{
				"x": -1.7359599371,
				"y": -1.6113924969,
				"z": -0.7683281227,
				"element": "C" 
			},
			{
				"x": -2.9963639457,
				"y": -1.1557776811,
				"z": -1.4736294453,
				"element": "C" 
			},
			{
				"x": -1.7239592975,
				"y": -2.5624133213,
				"z": -0.0124244635,
				"element": "O" 
			},
			{
				"x": -0.1665916169,
				"y": 3.2678222855,
				"z": 2.5576137734,
				"element": "H" 
			},
			{
				"x": 0.8542253185,
				"y": 2.4352172405,
				"z": 1.374345605,
				"element": "H" 
			},
			{
				"x": 0.2046605379,
				"y": 1.5474570672,
				"z": 2.775529804,
				"element": "H" 
			},
			{
				"x": -1.4449754273,
				"y": 2.7081233237,
				"z": 0.4483918809,
				"element": "H" 
			},
			{
				"x": -2.1339369057,
				"y": 1.8805413744,
				"z": 1.8721029076,
				"element": "H" 
			},
			{
				"x": -0.3721387284,
				"y": -0.7520462914,
				"z": -2.1921697323,
				"element": "H" 
			},
			{
				"x": 0.6209494355,
				"y": -1.7591162449,
				"z": 0.5189305978,
				"element": "H" 
			},
			{
				"x": 2.8948056063,
				"y": -1.2135234059,
				"z": -0.0737134771,
				"element": "H" 
			},
			{
				"x": 2.0279560686,
				"y": 0.2960345852,
				"z": -0.3529692174,
				"element": "H" 
			},
			{
				"x": 2.062134638,
				"y": -0.0033627049,
				"z": -2.7638490424,
				"element": "H" 
			},
			{
				"x": 3.6334933996,
				"y": -0.7350418432,
				"z": -2.3219097463,
				"element": "H" 
			},
			{
				"x": 1.7693761998,
				"y": -3.505435144,
				"z": -0.7000864872,
				"element": "H" 
			},
			{
				"x": 0.1992923625,
				"y": -3.4414652459,
				"z": -1.5434297728,
				"element": "H" 
			},
			{
				"x": -2.9089847742,
				"y": -1.3716008135,
				"z": -2.5454582507,
				"element": "H" 
			},
			{
				"x": -3.1438615711,
				"y": -0.0757307761,
				"z": -1.373763539,
				"element": "H" 
			},
			{
				"x": -3.857244982,
				"y": -1.6882572899,
				"z": -1.0676309902,
				"element": "H" 
			}
		],
		 "valence_orbital": [ 
			{
				"type": "occ",
				"energy": -0.30535,
				"method": "rhf"
			},
			{
				"type": "occ",
				"energy": -0.2968,
				"method": "rhf"
			},
			{
				"type": "occ",
				"energy": -0.29192,
				"method": "rhf"
			},
			{
				"type": "occ",
				"energy": -0.27684,
				"method": "rhf"
			},
			{
				"type": "occ",
				"energy": -0.26169,
				"method": "rhf"
			},
			{
				"type": "unocc",
				"energy": -0.03411,
				"method": "rhf"
			},
			{
				"type": "unocc",
				"energy": -0.01316,
				"method": "rhf"
			},
			{
				"type": "unocc",
				"energy": 0.05198,
				"method": "rhf"
			},
			{
				"type": "unocc",
				"energy": 0.0598,
				"method": "rhf"
			},
			{
				"type": "unocc",
				"energy": 0.07487,
				"method": "rhf"
			}
		],
		"cosmo_sigma_profile": { 
			"-0.025": 0.0,
			"-0.024": 0.0,
			"-0.023": 0.0,
			"-0.022": 0.0,
			"-0.021": 0.0,
			"-0.02": 0.0,
			"-0.019": 0.0,
			"-0.018": 0.0,
			"-0.017": 0.0,
			"-0.016": 0.0,
			"-0.015": 0.0,
			"-0.014": 0.0,
			"-0.013": 0.0,
			"-0.012": 0.0,
			"-0.011": 0.0,
			"-0.01": 0.000810739826977,
			"-0.009": 0.704044037517,
			"-0.008": 6.59625381454,
			"-0.007": 14.4897137515,
			"-0.006": 20.3196646456,
			"-0.005": 27.2554921225,
			"-0.004": 32.4231948423,
			"-0.003": 27.6178744172,
			"-0.002": 21.5296100471,
			"-0.001": 20.4275151936,
			"0.0": 12.880574333,
			"0.001": 8.91670594078,
			"0.002": 6.91335732997,
			"0.003": 5.86318141071,
			"0.004": 5.64360860106,
			"0.005": 5.617378559,
			"0.006": 6.18961548658,
			"0.007": 5.11853038897,
			"0.008": 4.65054992526,
			"0.009": 6.58569496829,
			"0.01": 8.42848264685,
			"0.011": 15.6717483067,
			"0.012": 12.2523263803,
			"0.013": 2.27271026387,
			"0.014": 0.0,
			"0.015": 0.0,
			"0.016": 0.0,
			"0.017": 0.0,
			"0.018": 0.0,
			"0.019": 0.0,
			"0.02": 0.0,
			"0.021": 0.0,
			"0.022": 0.0,
			"0.023": 0.0,
			"0.024": 0.0,
			"0.025": 0.0
		}
	}
}
