{
	 "smiles": "CC(C)C(Br)C(=O)N1CCOCC1", 
	 "Tm": 345.15, 
	 "num_atms": 29, 
	 "gaussian": { 
		 "optdone": 1, 
		 "sigma_profile": "yes", 
		 "theory": "DFT", 
		 "functional": "B3LYP", 
		 "basiset": "6-31G**", 
		 "properties": { 
			 "R2extent": 3750.5249, 
			 "electric_dipole_moment_norm": 2.34801060688, 
			 "electric_quadrupole_moment_norm": 7.84272067589, 
			 "total_energy": -3129.20524007, 
			 "HOMO_LUMO_gap": 0.21022, 
			 "cosmo_polarized_energy": -11.31, 
			 "cosmo_cavitation_energy": 31.24, 
			 "cosmo_dispersion_energy": -22.82, 
			 "cosmo_repulsion_energy": 1.82, 
			 "cosmo_total_nonelectrostatic_energy": 10.24, 
			 "SMD_solvation_energy": 3.9 
		},
		"coords": [
			{
				"x": 1.4032148206,
				"y": -2.9004293684,
				"z": -0.7408478328,
				"element": "C" 
			},
			{
				"x": 0.1803020684,
				"y": -2.3206486005,
				"z": -1.4794217773,
				"element": "C" 
			},
			{
				"x": 0.5181350029,
				"y": -1.9753533732,
				"z": -2.9362212214,
				"element": "C" 
			},
			{
				"x": -0.4151445901,
				"y": -1.1780857417,
				"z": -0.6382359798,
				"element": "C" 
			},
			{
				"x": -2.1170028071,
				"y": -0.4900610071,
				"z": -1.4635018425,
				"element": "Br" 
			},
			{
				"x": 0.4990070947,
				"y": 0.029700639,
				"z": -0.3944564294,
				"element": "C" 
			},
			{
				"x": 1.4202231176,
				"y": 0.3016368834,
				"z": -1.1609096107,
				"element": "O" 
			},
			{
				"x": 0.2692675632,
				"y": 0.7628283625,
				"z": 0.7393164038,
				"element": "N" 
			},
			{
				"x": 1.1694867766,
				"y": 1.886805906,
				"z": 1.0261442985,
				"element": "C" 
			},
			{
				"x": 1.3207224685,
				"y": 2.0540607166,
				"z": 2.5331774529,
				"element": "C" 
			},
			{
				"x": 0.0782866398,
				"y": 2.2655682432,
				"z": 3.2079264281,
				"element": "O" 
			},
			{
				"x": -1.0649060416,
				"y": 1.8295875965,
				"z": 2.4871905024,
				"element": "C" 
			},
			{
				"x": -0.8207254402,
				"y": 0.5429658747,
				"z": 1.7006452458,
				"element": "C" 
			},
			{
				"x": 2.2246460479,
				"y": -2.1793805776,
				"z": -0.7242824329,
				"element": "H" 
			},
			{
				"x": 1.1633613046,
				"y": -3.1803460324,
				"z": 0.2917562964,
				"element": "H" 
			},
			{
				"x": 1.7522119587,
				"y": -3.8017849268,
				"z": -1.2542295551,
				"element": "H" 
			},
			{
				"x": -0.5988220149,
				"y": -3.0942898476,
				"z": -1.4905222745,
				"element": "H" 
			},
			{
				"x": 0.8439902482,
				"y": -2.8821897308,
				"z": -3.4568313106,
				"element": "H" 
			},
			{
				"x": -0.3567952761,
				"y": -1.5830580309,
				"z": -3.4611110285,
				"element": "H" 
			},
			{
				"x": 1.3130296327,
				"y": -1.2310364536,
				"z": -2.9872500069,
				"element": "H" 
			},
			{
				"x": -0.7663886612,
				"y": -1.589477351,
				"z": 0.3084575935,
				"element": "H" 
			},
			{
				"x": 0.7878447055,
				"y": 2.8107356441,
				"z": 0.5711786248,
				"element": "H" 
			},
			{
				"x": 2.134470608,
				"y": 1.6740581913,
				"z": 0.5626599599,
				"element": "H" 
			},
			{
				"x": 1.9587545742,
				"y": 2.9187924946,
				"z": 2.7460880023,
				"element": "H" 
			},
			{
				"x": 1.8147809047,
				"y": 1.1629321144,
				"z": 2.9491455381,
				"element": "H" 
			},
			{
				"x": -1.8549898736,
				"y": 1.6607752131,
				"z": 3.2251386353,
				"element": "H" 
			},
			{
				"x": -1.4149482451,
				"y": 2.6127446806,
				"z": 1.7969514377,
				"element": "H" 
			},
			{
				"x": -0.5707968277,
				"y": -0.2680573383,
				"z": 2.3998668804,
				"element": "H" 
			},
			{
				"x": -1.740815759,
				"y": 0.2755058199,
				"z": 1.1741780025,
				"element": "H" 
			}
		],
		 "valence_orbital": [ 
			{
				"type": "occ",
				"energy": -0.28642,
				"method": "rhf"
			},
			{
				"type": "occ",
				"energy": -0.27909,
				"method": "rhf"
			},
			{
				"type": "occ",
				"energy": -0.26265,
				"method": "rhf"
			},
			{
				"type": "occ",
				"energy": -0.25117,
				"method": "rhf"
			},
			{
				"type": "occ",
				"energy": -0.24705,
				"method": "rhf"
			},
			{
				"type": "unocc",
				"energy": -0.03683,
				"method": "rhf"
			},
			{
				"type": "unocc",
				"energy": 0.0442,
				"method": "rhf"
			},
			{
				"type": "unocc",
				"energy": 0.07553,
				"method": "rhf"
			},
			{
				"type": "unocc",
				"energy": 0.08734,
				"method": "rhf"
			},
			{
				"type": "unocc",
				"energy": 0.10482,
				"method": "rhf"
			}
		],
		"cosmo_sigma_profile": { 
			"-0.025": 0.0,
			"-0.024": 0.0,
			"-0.023": 0.0,
			"-0.022": 0.0,
			"-0.021": 0.0,
			"-0.02": 0.0,
			"-0.019": 0.0,
			"-0.018": 0.0,
			"-0.017": 0.0,
			"-0.016": 0.0,
			"-0.015": 0.0,
			"-0.014": 0.0,
			"-0.013": 0.0,
			"-0.012": 0.0,
			"-0.011": 0.0,
			"-0.01": 0.0,
			"-0.009": 0.0,
			"-0.008": 2.31527865701,
			"-0.007": 3.49699752101,
			"-0.006": 8.4696986586,
			"-0.005": 22.8717005741,
			"-0.004": 27.6503108218,
			"-0.003": 24.169041043,
			"-0.002": 21.2334042038,
			"-0.001": 20.604522541,
			"0.0": 20.3795274101,
			"0.001": 19.1542256061,
			"0.002": 13.9846814868,
			"0.003": 11.1283373644,
			"0.004": 11.2549648468,
			"0.005": 10.7005277424,
			"0.006": 4.78596068069,
			"0.007": 3.5912763317,
			"0.008": 2.90328496488,
			"0.009": 2.70612931739,
			"0.01": 3.03847075728,
			"0.011": 2.79639575212,
			"0.012": 3.53515765515,
			"0.013": 4.74142482945,
			"0.014": 0.659275488434,
			"0.015": 0.0,
			"0.016": 0.0,
			"0.017": 0.0,
			"0.018": 0.0,
			"0.019": 0.0,
			"0.02": 0.0,
			"0.021": 0.0,
			"0.022": 0.0,
			"0.023": 0.0,
			"0.024": 0.0,
			"0.025": 0.0
		}
	}
}
