{
	 "smiles": "CC1(C)N=C(C=[N+]1[O-])C1=CC=CC=C1", 
	 "Tm": 383.15, 
	 "num_atms": 26, 
	 "gaussian": { 
		 "optdone": 1, 
		 "sigma_profile": "yes", 
		 "theory": "DFT", 
		 "functional": "B3LYP", 
		 "basiset": "6-31G**", 
		 "properties": { 
			 "R2extent": 3316.9826, 
			 "electric_dipole_moment_norm": 2.44665829449, 
			 "electric_quadrupole_moment_norm": 10.9542395688, 
			 "total_energy": -611.071528679, 
			 "HOMO_LUMO_gap": 0.15645, 
			 "cosmo_polarized_energy": -10.9, 
			 "cosmo_cavitation_energy": 29.58, 
			 "cosmo_dispersion_energy": -21.17, 
			 "cosmo_repulsion_energy": 1.65, 
			 "cosmo_total_nonelectrostatic_energy": 10.06, 
			 "SMD_solvation_energy": 4.23 
		},
		"coords": [
			{
				"x": 3.6860618815,
				"y": -0.2327439854,
				"z": 0.3673879801,
				"element": "C" 
			},
			{
				"x": 2.4334741121,
				"y": -0.6828018646,
				"z": -0.3891893596,
				"element": "C" 
			},
			{
				"x": 2.7498215598,
				"y": -1.2833710385,
				"z": -1.7614376571,
				"element": "C" 
			},
			{
				"x": 1.4462522851,
				"y": 0.3640739341,
				"z": -0.4715966077,
				"element": "N" 
			},
			{
				"x": 0.393756591,
				"y": -0.0312413311,
				"z": 0.1864776881,
				"element": "C" 
			},
			{
				"x": 0.5571430857,
				"y": -1.3548350043,
				"z": 0.7678607474,
				"element": "C" 
			},
			{
				"x": 1.7664148625,
				"y": -1.7787757612,
				"z": 0.4450881761,
				"element": "N" 
			},
			{
				"x": 2.3507531959,
				"y": -2.8539748556,
				"z": 0.7186186971,
				"element": "O" 
			},
			{
				"x": -0.8204684209,
				"y": 0.7981205269,
				"z": 0.3113179076,
				"element": "C" 
			},
			{
				"x": -0.8566204427,
				"y": 2.063151358,
				"z": -0.2986279687,
				"element": "C" 
			},
			{
				"x": -1.990438222,
				"y": 2.8623068968,
				"z": -0.1942558457,
				"element": "C" 
			},
			{
				"x": -3.1054897212,
				"y": 2.4120165951,
				"z": 0.5200302709,
				"element": "C" 
			},
			{
				"x": -3.07866487,
				"y": 1.1570012893,
				"z": 1.1291675541,
				"element": "C" 
			},
			{
				"x": -1.9428935563,
				"y": 0.3537665556,
				"z": 1.0259264233,
				"element": "C" 
			},
			{
				"x": 4.2316585427,
				"y": 0.5003737724,
				"z": -0.2304673523,
				"element": "H" 
			},
			{
				"x": 4.3204362576,
				"y": -1.1015786696,
				"z": 0.56024252,
				"element": "H" 
			},
			{
				"x": 3.4105112198,
				"y": 0.2280374531,
				"z": 1.3195135495,
				"element": "H" 
			},
			{
				"x": 3.3580788621,
				"y": -2.1816000713,
				"z": -1.6284359913,
				"element": "H" 
			},
			{
				"x": 1.8264871907,
				"y": -1.5498234739,
				"z": -2.2822495148,
				"element": "H" 
			},
			{
				"x": 3.2928308852,
				"y": -0.5528431763,
				"z": -2.3647922293,
				"element": "H" 
			},
			{
				"x": -0.1049762936,
				"y": -1.9664637405,
				"z": 1.3608869697,
				"element": "H" 
			},
			{
				"x": 0.016913577,
				"y": 2.3964119003,
				"z": -0.8485271393,
				"element": "H" 
			},
			{
				"x": -2.0079581925,
				"y": 3.8387585347,
				"z": -0.6696662356,
				"element": "H" 
			},
			{
				"x": -3.9900135881,
				"y": 3.0373044972,
				"z": 0.600534317,
				"element": "H" 
			},
			{
				"x": -3.941249959,
				"y": 0.801742418,
				"z": 1.6851803758,
				"element": "H" 
			},
			{
				"x": -1.9370208424,
				"y": -0.6201127592,
				"z": 1.5053127248,
				"element": "H" 
			}
		],
		 "valence_orbital": [ 
			{
				"type": "occ",
				"energy": -0.29974,
				"method": "rhf"
			},
			{
				"type": "occ",
				"energy": -0.26051,
				"method": "rhf"
			},
			{
				"type": "occ",
				"energy": -0.25145,
				"method": "rhf"
			},
			{
				"type": "occ",
				"energy": -0.24349,
				"method": "rhf"
			},
			{
				"type": "occ",
				"energy": -0.22326,
				"method": "rhf"
			},
			{
				"type": "unocc",
				"energy": -0.06681,
				"method": "rhf"
			},
			{
				"type": "unocc",
				"energy": -0.01786,
				"method": "rhf"
			},
			{
				"type": "unocc",
				"energy": -0.00691,
				"method": "rhf"
			},
			{
				"type": "unocc",
				"energy": 0.07172,
				"method": "rhf"
			},
			{
				"type": "unocc",
				"energy": 0.08345,
				"method": "rhf"
			}
		],
		"cosmo_sigma_profile": { 
			"-0.025": 0.0,
			"-0.024": 0.0,
			"-0.023": 0.0,
			"-0.022": 0.0,
			"-0.021": 0.0,
			"-0.02": 0.0,
			"-0.019": 0.0,
			"-0.018": 0.0,
			"-0.017": 0.0,
			"-0.016": 0.0,
			"-0.015": 0.0,
			"-0.014": 0.0,
			"-0.013": 0.0,
			"-0.012": 0.0,
			"-0.011": 0.52444908651,
			"-0.01": 2.25917674217,
			"-0.009": 2.46877792142,
			"-0.008": 1.64150198762,
			"-0.007": 3.04498876424,
			"-0.006": 8.68957022513,
			"-0.005": 19.5737252789,
			"-0.004": 22.2745054971,
			"-0.003": 21.626274946,
			"-0.002": 21.1913729076,
			"-0.001": 26.1992042449,
			"0.0": 16.2586401175,
			"0.001": 11.2510656763,
			"0.002": 12.3973943264,
			"0.003": 13.7986427224,
			"0.004": 16.0456360324,
			"0.005": 8.68105222853,
			"0.006": 3.59496187207,
			"0.007": 1.99617757882,
			"0.008": 2.16147865903,
			"0.009": 2.87348552204,
			"0.01": 2.78181676538,
			"0.011": 4.82768571782,
			"0.012": 6.1208234821,
			"0.013": 2.65067493991,
			"0.014": 0.347431577789,
			"0.015": 0.0,
			"0.016": 0.0,
			"0.017": 0.0,
			"0.018": 0.0,
			"0.019": 0.0,
			"0.02": 0.0,
			"0.021": 0.0,
			"0.022": 0.0,
			"0.023": 0.0,
			"0.024": 0.0,
			"0.025": 0.0
		}
	}
}
