{
	 "smiles": "COC1=CC2=C(C(OC(C)=O)=C1)C(=O)C(OC(C)=O)=C(O2)C1=CC(OC(C)=O)=C(OCC2=CC=CC=C2)C=C1", 
	 "Tm": 460.15, 
	 "num_atms": 63, 
	 "gaussian": { 
		 "optdone": 1, 
		 "sigma_profile": "yes", 
		 "theory": "DFT", 
		 "functional": "B3LYP", 
		 "basiset": "6-31G**", 
		 "properties": { 
			 "R2extent": 27007.9829, 
			 "electric_dipole_moment_norm": 7.10834986266, 
			 "electric_quadrupole_moment_norm": 42.0860502331, 
			 "total_energy": -1871.78880486, 
			 "HOMO_LUMO_gap": 0.1574, 
			 "cosmo_polarized_energy": -30.17, 
			 "cosmo_cavitation_energy": 70.23, 
			 "cosmo_dispersion_energy": -46.07, 
			 "cosmo_repulsion_energy": 3.5, 
			 "cosmo_total_nonelectrostatic_energy": 27.67, 
			 "SMD_solvation_energy": 16.74 
		},
		"coords": [
			{
				"x": 2.4722313565,
				"y": 1.7782962571,
				"z": 6.2938011725,
				"element": "C" 
			},
			{
				"x": 3.4942247706,
				"y": 2.1941244932,
				"z": 5.396230584,
				"element": "O" 
			},
			{
				"x": 3.2986643168,
				"y": 2.0139738451,
				"z": 4.0673761779,
				"element": "C" 
			},
			{
				"x": 2.1655808829,
				"y": 1.4282513277,
				"z": 3.5094001894,
				"element": "C" 
			},
			{
				"x": 2.100505583,
				"y": 1.3011860169,
				"z": 2.1175569844,
				"element": "C" 
			},
			{
				"x": 3.1132455625,
				"y": 1.7433927841,
				"z": 1.2537614215,
				"element": "C" 
			},
			{
				"x": 4.2477017522,
				"y": 2.3339114901,
				"z": 1.8701608146,
				"element": "C" 
			},
			{
				"x": 5.3325828344,
				"y": 2.7201526937,
				"z": 1.1090214489,
				"element": "O" 
			},
			{
				"x": 5.1994141582,
				"y": 3.854383005,
				"z": 0.3227761783,
				"element": "C" 
			},
			{
				"x": 6.3341220134,
				"y": 3.9260764286,
				"z": -0.6584735425,
				"element": "C" 
			},
			{
				"x": 4.2994183578,
				"y": 4.6393119466,
				"z": 0.4582091003,
				"element": "O" 
			},
			{
				"x": 4.3444656795,
				"y": 2.4676907757,
				"z": 3.238099283,
				"element": "C" 
			},
			{
				"x": 2.9619517418,
				"y": 1.5433066791,
				"z": -0.1952726093,
				"element": "C" 
			},
			{
				"x": 3.7782930097,
				"y": 1.889604484,
				"z": -1.0520981498,
				"element": "O" 
			},
			{
				"x": 1.7161960845,
				"y": 0.8667166747,
				"z": -0.5795292626,
				"element": "C" 
			},
			{
				"x": 1.5692036769,
				"y": 0.6109501058,
				"z": -1.9298230727,
				"element": "O" 
			},
			{
				"x": 1.3856595148,
				"y": 1.7175135387,
				"z": -2.74992721,
				"element": "C" 
			},
			{
				"x": 1.6565036001,
				"y": 1.3388190654,
				"z": -4.1803844471,
				"element": "C" 
			},
			{
				"x": 1.0496565354,
				"y": 2.7927212013,
				"z": -2.3346893884,
				"element": "O" 
			},
			{
				"x": 0.7740558881,
				"y": 0.4653028387,
				"z": 0.3162673614,
				"element": "C" 
			},
			{
				"x": 0.9725907684,
				"y": 0.6878713785,
				"z": 1.6514021074,
				"element": "O" 
			},
			{
				"x": -0.5067848297,
				"y": -0.2108948144,
				"z": 0.0618752353,
				"element": "C" 
			},
			{
				"x": -1.5463747397,
				"y": -0.0933538429,
				"z": 1.0050619309,
				"element": "C" 
			},
			{
				"x": -2.7565961937,
				"y": -0.7280991597,
				"z": 0.802388481,
				"element": "C" 
			},
			{
				"x": -3.7374979637,
				"y": -0.6353072917,
				"z": 1.7856060963,
				"element": "O" 
			},
			{
				"x": -4.8796548296,
				"y": 0.074953151,
				"z": 1.4875588769,
				"element": "C" 
			},
			{
				"x": -5.861416739,
				"y": -0.0427374735,
				"z": 2.625228818,
				"element": "C" 
			},
			{
				"x": -5.0379325985,
				"y": 0.6880593689,
				"z": 0.4640246318,
				"element": "O" 
			},
			{
				"x": -2.9828508032,
				"y": -1.5191671766,
				"z": -0.3403670756,
				"element": "C" 
			},
			{
				"x": -4.202006613,
				"y": -2.11203936,
				"z": -0.4226648212,
				"element": "O" 
			},
			{
				"x": -4.6095346303,
				"y": -2.7009608303,
				"z": -1.6614899225,
				"element": "C" 
			},
			{
				"x": -4.0594583703,
				"y": -4.0946431273,
				"z": -1.8921632089,
				"element": "C" 
			},
			{
				"x": -3.8444040403,
				"y": -4.552651183,
				"z": -3.1973866673,
				"element": "C" 
			},
			{
				"x": -3.396262922,
				"y": -5.854625451,
				"z": -3.4272666038,
				"element": "C" 
			},
			{
				"x": -3.150008051,
				"y": -6.7088131692,
				"z": -2.3512585234,
				"element": "C" 
			},
			{
				"x": -3.357237013,
				"y": -6.2553541596,
				"z": -1.0465403737,
				"element": "C" 
			},
			{
				"x": -3.8135512297,
				"y": -4.9571784009,
				"z": -0.8174600105,
				"element": "C" 
			},
			{
				"x": -1.9510263451,
				"y": -1.6433158256,
				"z": -1.2765861492,
				"element": "C" 
			},
			{
				"x": -0.732520854,
				"y": -0.9968839417,
				"z": -1.0783875089,
				"element": "C" 
			},
			{
				"x": 2.8332679561,
				"y": 2.0252930433,
				"z": 7.2926679319,
				"element": "H" 
			},
			{
				"x": 1.5325281834,
				"y": 2.3112175303,
				"z": 6.1045676529,
				"element": "H" 
			},
			{
				"x": 2.2964103375,
				"y": 0.697565224,
				"z": 6.2280322391,
				"element": "H" 
			},
			{
				"x": 1.3400516214,
				"y": 1.0582298401,
				"z": 4.1020427527,
				"element": "H" 
			},
			{
				"x": 6.1437550595,
				"y": 3.1787386698,
				"z": -1.4341387141,
				"element": "H" 
			},
			{
				"x": 6.3702208301,
				"y": 4.920315485,
				"z": -1.1029736577,
				"element": "H" 
			},
			{
				"x": 7.284399513,
				"y": 3.6833757797,
				"z": -0.1765754522,
				"element": "H" 
			},
			{
				"x": 5.222024004,
				"y": 2.9216264806,
				"z": 3.6817650484,
				"element": "H" 
			},
			{
				"x": 1.3173616232,
				"y": 2.1382239241,
				"z": -4.8383567141,
				"element": "H" 
			},
			{
				"x": 1.1630021707,
				"y": 0.3974543187,
				"z": -4.4356247418,
				"element": "H" 
			},
			{
				"x": 2.7344123597,
				"y": 1.193481506,
				"z": -4.3022537051,
				"element": "H" 
			},
			{
				"x": -1.4180809456,
				"y": 0.5023157526,
				"z": 1.9001875998,
				"element": "H" 
			},
			{
				"x": -6.2106705854,
				"y": -1.077375054,
				"z": 2.6990380774,
				"element": "H" 
			},
			{
				"x": -6.7074736988,
				"y": 0.6188474459,
				"z": 2.4428025973,
				"element": "H" 
			},
			{
				"x": -5.379697517,
				"y": 0.2087264042,
				"z": 3.5738691614,
				"element": "H" 
			},
			{
				"x": -5.7016668686,
				"y": -2.7324780121,
				"z": -1.5878324069,
				"element": "H" 
			},
			{
				"x": -4.3550008854,
				"y": -2.0356006096,
				"z": -2.4955381116,
				"element": "H" 
			},
			{
				"x": -4.0279267441,
				"y": -3.8884418274,
				"z": -4.0392297749,
				"element": "H" 
			},
			{
				"x": -3.2321802582,
				"y": -6.1972934272,
				"z": -4.4448982605,
				"element": "H" 
			},
			{
				"x": -2.795125374,
				"y": -7.7200040748,
				"z": -2.527731561,
				"element": "H" 
			},
			{
				"x": -3.1637015208,
				"y": -6.9143672817,
				"z": -0.2049180332,
				"element": "H" 
			},
			{
				"x": -3.9719400559,
				"y": -4.6017831023,
				"z": 0.1960359657,
				"element": "H" 
			},
			{
				"x": -2.0805111957,
				"y": -2.2735072852,
				"z": -2.1475820868,
				"element": "H" 
			},
			{
				"x": 0.0561926691,
				"y": -1.1253050726,
				"z": -1.807394153,
				"element": "H" 
			}
		],
		 "valence_orbital": [ 
			{
				"type": "occ",
				"energy": -0.25349,
				"method": "rhf"
			},
			{
				"type": "occ",
				"energy": -0.24506,
				"method": "rhf"
			},
			{
				"type": "occ",
				"energy": -0.24125,
				"method": "rhf"
			},
			{
				"type": "occ",
				"energy": -0.23501,
				"method": "rhf"
			},
			{
				"type": "occ",
				"energy": -0.21818,
				"method": "rhf"
			},
			{
				"type": "unocc",
				"energy": -0.06078,
				"method": "rhf"
			},
			{
				"type": "unocc",
				"energy": -0.02494,
				"method": "rhf"
			},
			{
				"type": "unocc",
				"energy": -0.0171,
				"method": "rhf"
			},
			{
				"type": "unocc",
				"energy": -0.01353,
				"method": "rhf"
			},
			{
				"type": "unocc",
				"energy": -0.00986,
				"method": "rhf"
			}
		],
		"cosmo_sigma_profile": { 
			"-0.025": 0.0,
			"-0.024": 0.0,
			"-0.023": 0.0,
			"-0.022": 0.0,
			"-0.021": 0.0,
			"-0.02": 0.0,
			"-0.019": 0.0,
			"-0.018": 0.0,
			"-0.017": 0.0,
			"-0.016": 0.0,
			"-0.015": 0.0,
			"-0.014": 0.0,
			"-0.013": 0.0,
			"-0.012": 0.0,
			"-0.011": 0.0,
			"-0.01": 0.0,
			"-0.009": 0.233381491893,
			"-0.008": 3.33336948488,
			"-0.007": 16.9202306364,
			"-0.006": 39.8248902332,
			"-0.005": 47.5611763615,
			"-0.004": 50.3519939012,
			"-0.003": 53.7445138452,
			"-0.002": 48.823942579,
			"-0.001": 38.2728820387,
			"0.0": 34.5644201518,
			"0.001": 40.3717522646,
			"0.002": 31.9193148949,
			"0.003": 27.0330992812,
			"0.004": 20.4883818199,
			"0.005": 20.5524138932,
			"0.006": 17.7171226203,
			"0.007": 12.7647364219,
			"0.008": 13.6157973047,
			"0.009": 11.3422191145,
			"0.01": 10.8181679911,
			"0.011": 15.945399357,
			"0.012": 5.2850903374,
			"0.013": 0.114436746354,
			"0.014": 0.0,
			"0.015": 0.0,
			"0.016": 0.0,
			"0.017": 0.0,
			"0.018": 0.0,
			"0.019": 0.0,
			"0.02": 0.0,
			"0.021": 0.0,
			"0.022": 0.0,
			"0.023": 0.0,
			"0.024": 0.0,
			"0.025": 0.0
		}
	}
}
