{
	 "smiles": "CCOC(=O)C1=CC=C2NN=CC2=C1", 
	 "Tm": 396.15, 
	 "num_atms": 24, 
	 "gaussian": { 
		 "optdone": 1, 
		 "sigma_profile": "yes", 
		 "theory": "DFT", 
		 "functional": "B3LYP", 
		 "basiset": "6-31G**", 
		 "properties": { 
			 "R2extent": 3768.6488, 
			 "electric_dipole_moment_norm": 3.09708317777, 
			 "electric_quadrupole_moment_norm": 5.9708534951, 
			 "total_energy": -647.046956014, 
			 "HOMO_LUMO_gap": 0.18694, 
			 "cosmo_polarized_energy": -12.61, 
			 "cosmo_cavitation_energy": 28.5, 
			 "cosmo_dispersion_energy": -21.12, 
			 "cosmo_repulsion_energy": 1.66, 
			 "cosmo_total_nonelectrostatic_energy": 9.05, 
			 "SMD_solvation_energy": 5.03 
		},
		"coords": [
			{
				"x": 0.3344971915,
				"y": -4.3015116013,
				"z": -0.9394457891,
				"element": "C" 
			},
			{
				"x": -0.9743106577,
				"y": -3.5421851781,
				"z": -1.0998631669,
				"element": "C" 
			},
			{
				"x": -0.8797578955,
				"y": -2.2068687781,
				"z": -0.5523020133,
				"element": "O" 
			},
			{
				"x": -0.3725463937,
				"y": -1.2536458184,
				"z": -1.3711143725,
				"element": "C" 
			},
			{
				"x": -0.0128348053,
				"y": -1.4743314131,
				"z": -2.5132313262,
				"element": "O" 
			},
			{
				"x": -0.3125992944,
				"y": 0.0820481242,
				"z": -0.7173257397,
				"element": "C" 
			},
			{
				"x": -0.7469452358,
				"y": 0.2817999125,
				"z": 0.6214689696,
				"element": "C" 
			},
			{
				"x": -0.6898221085,
				"y": 1.5247646416,
				"z": 1.2252717125,
				"element": "C" 
			},
			{
				"x": -0.1824963544,
				"y": 2.5878297716,
				"z": 0.4580228769,
				"element": "C" 
			},
			{
				"x": 0.0092277596,
				"y": 3.9098806338,
				"z": 0.733583115,
				"element": "N" 
			},
			{
				"x": 0.5366024683,
				"y": 4.5981184693,
				"z": -0.3188742789,
				"element": "N" 
			},
			{
				"x": 0.6879254386,
				"y": 3.7139054582,
				"z": -1.2861120591,
				"element": "C" 
			},
			{
				"x": 0.2570744863,
				"y": 2.4103728678,
				"z": -0.8809619546,
				"element": "C" 
			},
			{
				"x": 0.189141286,
				"y": 1.1410738168,
				"z": -1.4695721615,
				"element": "C" 
			},
			{
				"x": 1.1253068814,
				"y": -3.8288849982,
				"z": -1.5267953497,
				"element": "H" 
			},
			{
				"x": 0.212505369,
				"y": -5.3310021554,
				"z": -1.2926566665,
				"element": "H" 
			},
			{
				"x": 0.6417707759,
				"y": -4.332517404,
				"z": 0.1101183558,
				"element": "H" 
			},
			{
				"x": -1.7818519715,
				"y": -4.0116719905,
				"z": -0.5326246904,
				"element": "H" 
			},
			{
				"x": -1.261409929,
				"y": -3.4719866494,
				"z": -2.1515821176,
				"element": "H" 
			},
			{
				"x": -1.1301954425,
				"y": -0.568540023,
				"z": 1.1726794663,
				"element": "H" 
			},
			{
				"x": -1.0236946632,
				"y": 1.6681391192,
				"z": 2.2481488404,
				"element": "H" 
			},
			{
				"x": -0.1870350585,
				"y": 4.4066781343,
				"z": 1.5875726994,
				"element": "H" 
			},
			{
				"x": 1.0961688475,
				"y": 4.0225977905,
				"z": -2.2391412115,
				"element": "H" 
			},
			{
				"x": 0.5130793059,
				"y": 0.9579372699,
				"z": -2.4885631383,
				"element": "H" 
			}
		],
		 "valence_orbital": [ 
			{
				"type": "occ",
				"energy": -0.29831,
				"method": "rhf"
			},
			{
				"type": "occ",
				"energy": -0.29384,
				"method": "rhf"
			},
			{
				"type": "occ",
				"energy": -0.26964,
				"method": "rhf"
			},
			{
				"type": "occ",
				"energy": -0.24963,
				"method": "rhf"
			},
			{
				"type": "occ",
				"energy": -0.2298,
				"method": "rhf"
			},
			{
				"type": "unocc",
				"energy": -0.04286,
				"method": "rhf"
			},
			{
				"type": "unocc",
				"energy": -0.02394,
				"method": "rhf"
			},
			{
				"type": "unocc",
				"energy": 0.04855,
				"method": "rhf"
			},
			{
				"type": "unocc",
				"energy": 0.0766,
				"method": "rhf"
			},
			{
				"type": "unocc",
				"energy": 0.0787,
				"method": "rhf"
			}
		],
		"cosmo_sigma_profile": { 
			"-0.025": 0.0,
			"-0.024": 0.0,
			"-0.023": 0.0,
			"-0.022": 0.0,
			"-0.021": 0.0,
			"-0.02": 0.0,
			"-0.019": 0.0,
			"-0.018": 0.0,
			"-0.017": 0.531346852893,
			"-0.016": 1.84050933536,
			"-0.015": 0.863672301331,
			"-0.014": 1.72493247167,
			"-0.013": 1.1544077418,
			"-0.012": 0.519020248357,
			"-0.011": 1.06126240779,
			"-0.01": 1.69865385982,
			"-0.009": 0.674647212076,
			"-0.008": 2.88980018349,
			"-0.007": 5.14240528413,
			"-0.006": 8.68112617827,
			"-0.005": 10.9439067099,
			"-0.004": 15.4720221567,
			"-0.003": 17.485060544,
			"-0.002": 17.2154441615,
			"-0.001": 16.027232072,
			"0.0": 18.2612992966,
			"0.001": 20.3829114487,
			"0.002": 21.8544653709,
			"0.003": 19.979176438,
			"0.004": 9.64072674311,
			"0.005": 5.7912825607,
			"0.006": 4.34977288962,
			"0.007": 2.24040070617,
			"0.008": 3.2444263985,
			"0.009": 2.87748005449,
			"0.01": 3.22441147718,
			"0.011": 2.95812159153,
			"0.012": 5.64570905568,
			"0.013": 1.40976172917,
			"0.014": 1.18234084,
			"0.015": 0.640567007674,
			"0.016": 0.0,
			"0.017": 0.0,
			"0.018": 0.0,
			"0.019": 0.0,
			"0.02": 0.0,
			"0.021": 0.0,
			"0.022": 0.0,
			"0.023": 0.0,
			"0.024": 0.0,
			"0.025": 0.0
		}
	}
}
