{
	 "smiles": "OC(=O)C1CCCN1C(=O)NC1CCCCC1", 
	 "Tm": 449.15, 
	 "num_atms": 37, 
	 "gaussian": { 
		 "optdone": 1, 
		 "sigma_profile": "yes", 
		 "theory": "DFT", 
		 "functional": "B3LYP", 
		 "basiset": "6-31G**", 
		 "properties": { 
			 "R2extent": 4739.0463, 
			 "electric_dipole_moment_norm": 3.13832402725, 
			 "electric_quadrupole_moment_norm": 14.3910679843, 
			 "total_energy": -804.549143356, 
			 "HOMO_LUMO_gap": 0.24194, 
			 "cosmo_polarized_energy": -16.88, 
			 "cosmo_cavitation_energy": 36.42, 
			 "cosmo_dispersion_energy": -25.62, 
			 "cosmo_repulsion_energy": 2.0, 
			 "cosmo_total_nonelectrostatic_energy": 12.8, 
			 "SMD_solvation_energy": 5.56 
		},
		"coords": [
			{
				"x": -0.4593004541,
				"y": 2.0745317917,
				"z": -3.9226869908,
				"element": "O" 
			},
			{
				"x": -0.1837596349,
				"y": 1.1196391644,
				"z": -3.0052132492,
				"element": "C" 
			},
			{
				"x": -0.9655796277,
				"y": 0.2447379622,
				"z": -2.7093187981,
				"element": "O" 
			},
			{
				"x": 1.2378870304,
				"y": 1.2767104844,
				"z": -2.4801240946,
				"element": "C" 
			},
			{
				"x": 2.2727679354,
				"y": 0.5991121129,
				"z": -3.4099890199,
				"element": "C" 
			},
			{
				"x": 3.3806728919,
				"y": 0.1704597992,
				"z": -2.4355664573,
				"element": "C" 
			},
			{
				"x": 2.5902768227,
				"y": -0.2899439366,
				"z": -1.2017285786,
				"element": "C" 
			},
			{
				"x": 1.4181208005,
				"y": 0.5955256455,
				"z": -1.2027774954,
				"element": "N" 
			},
			{
				"x": 0.8199598288,
				"y": 1.1651268286,
				"z": -0.0980655749,
				"element": "C" 
			},
			{
				"x": 0.2114586809,
				"y": 2.2322491821,
				"z": -0.181631877,
				"element": "O" 
			},
			{
				"x": 0.9701931893,
				"y": 0.4894640234,
				"z": 1.1135508552,
				"element": "N" 
			},
			{
				"x": 0.6523820643,
				"y": -0.9533940714,
				"z": 1.2629262746,
				"element": "C" 
			},
			{
				"x": 0.7788644957,
				"y": -1.3444893287,
				"z": 2.7626294334,
				"element": "C" 
			},
			{
				"x": -0.5831418381,
				"y": -1.4844564163,
				"z": 3.4761714836,
				"element": "C" 
			},
			{
				"x": -1.5854031106,
				"y": -0.4260551083,
				"z": 2.9956159655,
				"element": "C" 
			},
			{
				"x": -1.8687707639,
				"y": -0.5590537516,
				"z": 1.4754423699,
				"element": "C" 
			},
			{
				"x": -0.7464177775,
				"y": -1.3076379181,
				"z": 0.7235057572,
				"element": "C" 
			},
			{
				"x": -1.3633640462,
				"y": 1.8998528649,
				"z": -4.2339035123,
				"element": "H" 
			},
			{
				"x": 1.4357320351,
				"y": 2.3490590379,
				"z": -2.3784196193,
				"element": "H" 
			},
			{
				"x": 2.6126568675,
				"y": 1.2733706502,
				"z": -4.1986748454,
				"element": "H" 
			},
			{
				"x": 1.8286229458,
				"y": -0.2837722643,
				"z": -3.8838347544,
				"element": "H" 
			},
			{
				"x": 4.0102311923,
				"y": 1.0293822306,
				"z": -2.1779297886,
				"element": "H" 
			},
			{
				"x": 4.02605398,
				"y": -0.614617608,
				"z": -2.8392958489,
				"element": "H" 
			},
			{
				"x": 3.1452764941,
				"y": -0.1833598103,
				"z": -0.2660343927,
				"element": "H" 
			},
			{
				"x": 2.2942705764,
				"y": -1.3430505824,
				"z": -1.3077244519,
				"element": "H" 
			},
			{
				"x": 0.5167339494,
				"y": 1.0547460718,
				"z": 1.8230882929,
				"element": "H" 
			},
			{
				"x": 1.4003234225,
				"y": -1.5135851489,
				"z": 0.696791519,
				"element": "H" 
			},
			{
				"x": 1.3935133851,
				"y": -0.5885288209,
				"z": 3.2655601911,
				"element": "H" 
			},
			{
				"x": 1.3308528762,
				"y": -2.2870999087,
				"z": 2.8464985026,
				"element": "H" 
			},
			{
				"x": -0.4382783337,
				"y": -1.4178609842,
				"z": 4.5604634722,
				"element": "H" 
			},
			{
				"x": -0.9999826919,
				"y": -2.4819411065,
				"z": 3.2858177125,
				"element": "H" 
			},
			{
				"x": -2.5182705782,
				"y": -0.4993961064,
				"z": 3.5653249368,
				"element": "H" 
			},
			{
				"x": -1.1823126324,
				"y": 0.5716065084,
				"z": 3.2198035409,
				"element": "H" 
			},
			{
				"x": -2.001698084,
				"y": 0.4343129507,
				"z": 1.0350803215,
				"element": "H" 
			},
			{
				"x": -2.8116203074,
				"y": -1.0938203307,
				"z": 1.3152388361,
				"element": "H" 
			},
			{
				"x": -0.8027533479,
				"y": -1.0909477587,
				"z": -0.3480829319,
				"element": "H" 
			},
			{
				"x": -0.8779982355,
				"y": -2.3924763477,
				"z": 0.8322928164,
				"element": "H" 
			}
		],
		 "valence_orbital": [ 
			{
				"type": "occ",
				"energy": -0.29791,
				"method": "rhf"
			},
			{
				"type": "occ",
				"energy": -0.27305,
				"method": "rhf"
			},
			{
				"type": "occ",
				"energy": -0.25949,
				"method": "rhf"
			},
			{
				"type": "occ",
				"energy": -0.2356,
				"method": "rhf"
			},
			{
				"type": "occ",
				"energy": -0.22979,
				"method": "rhf"
			},
			{
				"type": "unocc",
				"energy": 0.01215,
				"method": "rhf"
			},
			{
				"type": "unocc",
				"energy": 0.04618,
				"method": "rhf"
			},
			{
				"type": "unocc",
				"energy": 0.0703,
				"method": "rhf"
			},
			{
				"type": "unocc",
				"energy": 0.07824,
				"method": "rhf"
			},
			{
				"type": "unocc",
				"energy": 0.08892,
				"method": "rhf"
			}
		],
		"cosmo_sigma_profile": { 
			"-0.025": 0.0,
			"-0.024": 0.0,
			"-0.023": 0.0,
			"-0.022": 0.0,
			"-0.021": 0.0,
			"-0.02": 0.0,
			"-0.019": 0.196891110232,
			"-0.018": 0.777529295957,
			"-0.017": 0.696044348347,
			"-0.016": 1.3036419456,
			"-0.015": 0.542862984953,
			"-0.014": 0.771706693699,
			"-0.013": 0.506501196571,
			"-0.012": 0.493009370764,
			"-0.011": 1.26508580952,
			"-0.01": 1.19013084907,
			"-0.009": 1.66315943079,
			"-0.008": 1.71300711683,
			"-0.007": 1.93319848381,
			"-0.006": 2.92983190434,
			"-0.005": 12.3525650258,
			"-0.004": 26.5941869764,
			"-0.003": 33.2783746596,
			"-0.002": 36.5790866816,
			"-0.001": 33.3569971744,
			"0.0": 27.2371817873,
			"0.001": 23.6932069681,
			"0.002": 9.70178359703,
			"0.003": 7.05450279224,
			"0.004": 6.87704886428,
			"0.005": 4.65152266489,
			"0.006": 6.07296640795,
			"0.007": 6.02136348893,
			"0.008": 6.1502226853,
			"0.009": 6.59967935596,
			"0.01": 4.02217776122,
			"0.011": 3.94149956759,
			"0.012": 3.8437723488,
			"0.013": 1.71305286997,
			"0.014": 4.25177596595,
			"0.015": 1.75500466441,
			"0.016": 0.0357391628167,
			"0.017": 0.0,
			"0.018": 0.0,
			"0.019": 0.0,
			"0.02": 0.0,
			"0.021": 0.0,
			"0.022": 0.0,
			"0.023": 0.0,
			"0.024": 0.0,
			"0.025": 0.0
		}
	}
}
