{
	 "smiles": "NC(=S)NC1CC1", 
	 "Tm": 412.15, 
	 "num_atms": 15, 
	 "gaussian": { 
		 "optdone": 1, 
		 "sigma_profile": "yes", 
		 "theory": "DFT", 
		 "functional": "B3LYP", 
		 "basiset": "6-31G**", 
		 "properties": { 
			 "R2extent": 2003.7114, 
			 "electric_dipole_moment_norm": 5.09140807538, 
			 "electric_quadrupole_moment_norm": 20.9689870738, 
			 "total_energy": -664.909494849, 
			 "HOMO_LUMO_gap": 0.19766, 
			 "cosmo_polarized_energy": -17.61, 
			 "cosmo_cavitation_energy": 19.49, 
			 "cosmo_dispersion_energy": -15.2, 
			 "cosmo_repulsion_energy": 1.24, 
			 "cosmo_total_nonelectrostatic_energy": 5.53, 
			 "SMD_solvation_energy": 1.84 
		},
		"coords": [
			{
				"x": -2.531514874,
				"y": -2.2169322362,
				"z": 1.5356844086,
				"element": "N" 
			},
			{
				"x": -2.4306268864,
				"y": -1.2153058931,
				"z": 0.5931881185,
				"element": "C" 
			},
			{
				"x": -3.7922479577,
				"y": -0.7277222194,
				"z": -0.2667491424,
				"element": "S" 
			},
			{
				"x": -1.1800070631,
				"y": -0.6985545157,
				"z": 0.499929777,
				"element": "N" 
			},
			{
				"x": -0.6487726237,
				"y": 0.3731391309,
				"z": -0.3195252562,
				"element": "C" 
			},
			{
				"x": -1.3420820826,
				"y": 1.6783081586,
				"z": -0.6160568365,
				"element": "C" 
			},
			{
				"x": -1.0650695158,
				"y": 0.6871440026,
				"z": -1.7298099392,
				"element": "C" 
			},
			{
				"x": -1.7243195873,
				"y": -2.8014117518,
				"z": 1.7144079551,
				"element": "H" 
			},
			{
				"x": -3.4162549701,
				"y": -2.7026452321,
				"z": 1.519873399,
				"element": "H" 
			},
			{
				"x": -0.5439385357,
				"y": -0.9844560297,
				"z": 1.2318866108,
				"element": "H" 
			},
			{
				"x": 0.4177273762,
				"y": 0.4428471109,
				"z": -0.1274516317,
				"element": "H" 
			},
			{
				"x": -0.7497137937,
				"y": 2.5861348418,
				"z": -0.5448991813,
				"element": "H" 
			},
			{
				"x": -2.3789883146,
				"y": 1.7703964374,
				"z": -0.3151990111,
				"element": "H" 
			},
			{
				"x": -0.2709687699,
				"y": 0.8925772742,
				"z": -2.442155575,
				"element": "H" 
			},
			{
				"x": -1.9280224015,
				"y": 0.1695809213,
				"z": -2.1293236956,
				"element": "H" 
			}
		],
		 "valence_orbital": [ 
			{
				"type": "occ",
				"energy": -0.33255,
				"method": "rhf"
			},
			{
				"type": "occ",
				"energy": -0.29866,
				"method": "rhf"
			},
			{
				"type": "occ",
				"energy": -0.25091,
				"method": "rhf"
			},
			{
				"type": "occ",
				"energy": -0.21196,
				"method": "rhf"
			},
			{
				"type": "occ",
				"energy": -0.20175,
				"method": "rhf"
			},
			{
				"type": "unocc",
				"energy": -0.00409,
				"method": "rhf"
			},
			{
				"type": "unocc",
				"energy": 0.04721,
				"method": "rhf"
			},
			{
				"type": "unocc",
				"energy": 0.08605,
				"method": "rhf"
			},
			{
				"type": "unocc",
				"energy": 0.09357,
				"method": "rhf"
			},
			{
				"type": "unocc",
				"energy": 0.12497,
				"method": "rhf"
			}
		],
		"cosmo_sigma_profile": { 
			"-0.025": 0.0,
			"-0.024": 0.0,
			"-0.023": 0.0,
			"-0.022": 0.0,
			"-0.021": 0.0,
			"-0.02": 0.0,
			"-0.019": 0.0,
			"-0.018": 0.0,
			"-0.017": 0.579697008332,
			"-0.016": 1.84012443627,
			"-0.015": 2.74512023319,
			"-0.014": 2.56861277949,
			"-0.013": 3.17182126471,
			"-0.012": 3.2789653065,
			"-0.011": 3.45377242194,
			"-0.01": 2.65473453578,
			"-0.009": 2.56143280055,
			"-0.008": 2.45678213789,
			"-0.007": 2.89036179058,
			"-0.006": 3.68554915731,
			"-0.005": 6.21696204966,
			"-0.004": 8.31651189995,
			"-0.003": 5.68696535293,
			"-0.002": 7.97852697847,
			"-0.001": 8.16403437703,
			"0.0": 8.37342158317,
			"0.001": 6.90818173295,
			"0.002": 9.09442575498,
			"0.003": 9.22571882893,
			"0.004": 10.6400808248,
			"0.005": 7.47280747007,
			"0.006": 6.02880404829,
			"0.007": 5.51435990422,
			"0.008": 5.94733698587,
			"0.009": 5.04133229298,
			"0.01": 4.53641539414,
			"0.011": 4.59810572126,
			"0.012": 3.49162550541,
			"0.013": 0.826600473355,
			"0.014": 0.0,
			"0.015": 0.0,
			"0.016": 0.0,
			"0.017": 0.0,
			"0.018": 0.0,
			"0.019": 0.0,
			"0.02": 0.0,
			"0.021": 0.0,
			"0.022": 0.0,
			"0.023": 0.0,
			"0.024": 0.0,
			"0.025": 0.0
		}
	}
}
