{
	 "smiles": "NNC(=O)C1=CC=C(Cl)C(Br)=C1", 
	 "Tm": 439.15, 
	 "num_atms": 18, 
	 "gaussian": { 
		 "optdone": 1, 
		 "sigma_profile": "yes", 
		 "theory": "DFT", 
		 "functional": "B3LYP", 
		 "basiset": "6-31G**", 
		 "properties": { 
			 "R2extent": 5526.0969, 
			 "electric_dipole_moment_norm": 5.76140480873, 
			 "electric_quadrupole_moment_norm": 8.25697228165, 
			 "total_energy": -3486.6550787, 
			 "HOMO_LUMO_gap": 0.19602, 
			 "cosmo_polarized_energy": -14.31, 
			 "cosmo_cavitation_energy": 26.76, 
			 "cosmo_dispersion_energy": -20.35, 
			 "cosmo_repulsion_energy": 1.65, 
			 "cosmo_total_nonelectrostatic_energy": 8.06, 
			 "SMD_solvation_energy": 4.65 
		},
		"coords": [
			{
				"x": 1.1694858754,
				"y": -1.5382008679,
				"z": 1.5650242426,
				"element": "N" 
			},
			{
				"x": -0.0108833131,
				"y": -1.0104000486,
				"z": 2.1110731066,
				"element": "N" 
			},
			{
				"x": -0.6976170739,
				"y": 0.0677760125,
				"z": 1.5883636608,
				"element": "C" 
			},
			{
				"x": -1.4886235026,
				"y": 0.6608044284,
				"z": 2.3150971569,
				"element": "O" 
			},
			{
				"x": -0.5100420612,
				"y": 0.4800902331,
				"z": 0.1546914342,
				"element": "C" 
			},
			{
				"x": -0.0168377113,
				"y": -0.3331622222,
				"z": -0.8750864483,
				"element": "C" 
			},
			{
				"x": 0.0394735533,
				"y": 0.1486663591,
				"z": -2.1791585802,
				"element": "C" 
			},
			{
				"x": -0.3829142102,
				"y": 1.4465775932,
				"z": -2.4770602977,
				"element": "C" 
			},
			{
				"x": -0.27314,
				"y": 2.000210805,
				"z": -4.1284658191,
				"element": "Cl" 
			},
			{
				"x": -0.8823593212,
				"y": 2.2639406206,
				"z": -1.4542911387,
				"element": "C" 
			},
			{
				"x": -1.4810681283,
				"y": 4.0375481095,
				"z": -1.7914958208,
				"element": "Br" 
			},
			{
				"x": -0.9528702851,
				"y": 1.7723908886,
				"z": -0.154299165,
				"element": "C" 
			},
			{
				"x": 1.1347517312,
				"y": -2.5525946638,
				"z": 1.6130394163,
				"element": "H" 
			},
			{
				"x": 1.9826673198,
				"y": -1.215143047,
				"z": 2.0861771242,
				"element": "H" 
			},
			{
				"x": -0.1912290151,
				"y": -1.1151862337,
				"z": 3.1063898965,
				"element": "H" 
			},
			{
				"x": 0.3307252674,
				"y": -1.3334746525,
				"z": -0.6601133179,
				"element": "H" 
			},
			{
				"x": 0.4141426516,
				"y": -0.4779753361,
				"z": -2.9808709051,
				"element": "H" 
			},
			{
				"x": -1.3632617769,
				"y": 2.3844320219,
				"z": 0.6393854546,
				"element": "H" 
			}
		],
		 "valence_orbital": [ 
			{
				"type": "occ",
				"energy": -0.28505,
				"method": "rhf"
			},
			{
				"type": "occ",
				"energy": -0.27153,
				"method": "rhf"
			},
			{
				"type": "occ",
				"energy": -0.26541,
				"method": "rhf"
			},
			{
				"type": "occ",
				"energy": -0.25439,
				"method": "rhf"
			},
			{
				"type": "occ",
				"energy": -0.24634,
				"method": "rhf"
			},
			{
				"type": "unocc",
				"energy": -0.05032,
				"method": "rhf"
			},
			{
				"type": "unocc",
				"energy": -0.02116,
				"method": "rhf"
			},
			{
				"type": "unocc",
				"energy": -0.00917,
				"method": "rhf"
			},
			{
				"type": "unocc",
				"energy": 0.04095,
				"method": "rhf"
			},
			{
				"type": "unocc",
				"energy": 0.05354,
				"method": "rhf"
			}
		],
		"cosmo_sigma_profile": { 
			"-0.025": 0.0,
			"-0.024": 0.0,
			"-0.023": 0.0,
			"-0.022": 0.0,
			"-0.021": 0.0,
			"-0.02": 0.0,
			"-0.019": 0.0,
			"-0.018": 0.0,
			"-0.017": 0.0,
			"-0.016": 0.0,
			"-0.015": 0.0,
			"-0.014": 0.28081916018,
			"-0.013": 1.41368239772,
			"-0.012": 4.15265129417,
			"-0.011": 5.40575001629,
			"-0.01": 5.38260834722,
			"-0.009": 4.52501827787,
			"-0.008": 4.0499321917,
			"-0.007": 3.95546868834,
			"-0.006": 6.00982254283,
			"-0.005": 7.60034917194,
			"-0.004": 7.4017653296,
			"-0.003": 9.318983904,
			"-0.002": 11.8588052696,
			"-0.001": 13.9712354363,
			"0.0": 21.7830814408,
			"0.001": 25.5910986732,
			"0.002": 18.8729331741,
			"0.003": 19.5652247438,
			"0.004": 19.2357153109,
			"0.005": 7.07906030579,
			"0.006": 2.4483050862,
			"0.007": 2.57348595208,
			"0.008": 2.69198720888,
			"0.009": 1.56607752035,
			"0.01": 1.3779861261,
			"0.011": 2.02991169486,
			"0.012": 2.1134166425,
			"0.013": 5.23099408738,
			"0.014": 1.72509942733,
			"0.015": 0.0,
			"0.016": 0.0,
			"0.017": 0.0,
			"0.018": 0.0,
			"0.019": 0.0,
			"0.02": 0.0,
			"0.021": 0.0,
			"0.022": 0.0,
			"0.023": 0.0,
			"0.024": 0.0,
			"0.025": 0.0
		}
	}
}
