{
	 "smiles": "S=C(NC1CCCCC1)NC1CCCCC1", 
	 "Tm": 308.15, 
	 "num_atms": 40, 
	 "gaussian": { 
		 "optdone": 1, 
		 "sigma_profile": "yes", 
		 "theory": "DFT", 
		 "functional": "B3LYP", 
		 "basiset": "6-31G**", 
		 "properties": { 
			 "R2extent": 5292.9727, 
			 "electric_dipole_moment_norm": 6.00414671206, 
			 "electric_quadrupole_moment_norm": 18.9155191171, 
			 "total_energy": -1017.57051983, 
			 "HOMO_LUMO_gap": 0.20648, 
			 "cosmo_polarized_energy": -16.48, 
			 "cosmo_cavitation_energy": 39.37, 
			 "cosmo_dispersion_energy": -27.78, 
			 "cosmo_repulsion_energy": 2.17, 
			 "cosmo_total_nonelectrostatic_energy": 13.75, 
			 "SMD_solvation_energy": 3.38 
		},
		"coords": [
			{
				"x": 2.9267609036,
				"y": 0.6783964489,
				"z": 1.7510648295,
				"element": "S" 
			},
			{
				"x": 1.6011001862,
				"y": 0.6502597975,
				"z": 0.693553912,
				"element": "C" 
			},
			{
				"x": 0.4993871999,
				"y": -0.1175899615,
				"z": 0.8901347936,
				"element": "N" 
			},
			{
				"x": 0.3201209911,
				"y": -1.0759581494,
				"z": 1.9854631815,
				"element": "C" 
			},
			{
				"x": -1.1623567069,
				"y": -1.1057614981,
				"z": 2.4448521342,
				"element": "C" 
			},
			{
				"x": -1.9416743916,
				"y": -2.274735384,
				"z": 1.8256487648,
				"element": "C" 
			},
			{
				"x": -1.3478149947,
				"y": -3.6342647713,
				"z": 2.265419059,
				"element": "C" 
			},
			{
				"x": 0.1853140049,
				"y": -3.5602614895,
				"z": 2.4773626099,
				"element": "C" 
			},
			{
				"x": 0.8186204918,
				"y": -2.485326136,
				"z": 1.5849156428,
				"element": "C" 
			},
			{
				"x": 1.6205091016,
				"y": 1.4477698645,
				"z": -0.4151939687,
				"element": "N" 
			},
			{
				"x": 0.6357449359,
				"y": 1.6399413331,
				"z": -1.4871232901,
				"element": "C" 
			},
			{
				"x": 0.4507319919,
				"y": 0.3824036707,
				"z": -2.3858470404,
				"element": "C" 
			},
			{
				"x": -0.9043475203,
				"y": 0.3902345199,
				"z": -3.1277933125,
				"element": "C" 
			},
			{
				"x": -1.3155343757,
				"y": 1.8187864353,
				"z": -3.5095526839,
				"element": "C" 
			},
			{
				"x": -1.5363426563,
				"y": 2.6992234299,
				"z": -2.2518847175,
				"element": "C" 
			},
			{
				"x": -0.7221127257,
				"y": 2.2114178253,
				"z": -1.0298670921,
				"element": "C" 
			},
			{
				"x": -0.2094190501,
				"y": -0.1282152986,
				"z": 0.1720744694,
				"element": "H" 
			},
			{
				"x": 0.9463196187,
				"y": -0.7016337924,
				"z": 2.7981266516,
				"element": "H" 
			},
			{
				"x": -1.1883051756,
				"y": -1.2030221078,
				"z": 3.5367800464,
				"element": "H" 
			},
			{
				"x": -1.6352685851,
				"y": -0.1437595178,
				"z": 2.2173871131,
				"element": "H" 
			},
			{
				"x": -1.9111971776,
				"y": -2.194236959,
				"z": 0.7302575487,
				"element": "H" 
			},
			{
				"x": -3.0007682267,
				"y": -2.2153490616,
				"z": 2.099734953,
				"element": "H" 
			},
			{
				"x": -1.5856978333,
				"y": -4.3927715353,
				"z": 1.5103368464,
				"element": "H" 
			},
			{
				"x": -1.8291367211,
				"y": -3.9647653509,
				"z": 3.1933737399,
				"element": "H" 
			},
			{
				"x": 0.4083078426,
				"y": -3.3251013179,
				"z": 3.5261532307,
				"element": "H" 
			},
			{
				"x": 0.6423496146,
				"y": -4.5365674016,
				"z": 2.284158352,
				"element": "H" 
			},
			{
				"x": 0.5523502079,
				"y": -2.6800359375,
				"z": 0.536818614,
				"element": "H" 
			},
			{
				"x": 1.9110800923,
				"y": -2.5027923669,
				"z": 1.6385804369,
				"element": "H" 
			},
			{
				"x": 2.4724152575,
				"y": 1.9856667141,
				"z": -0.469091677,
				"element": "H" 
			},
			{
				"x": 1.089603479,
				"y": 2.4198517626,
				"z": -2.1087321897,
				"element": "H" 
			},
			{
				"x": 0.5469520605,
				"y": -0.5285180678,
				"z": -1.7857073021,
				"element": "H" 
			},
			{
				"x": 1.2761960353,
				"y": 0.3497233878,
				"z": -3.105674098,
				"element": "H" 
			},
			{
				"x": -1.6845912195,
				"y": -0.0486500601,
				"z": -2.4915249731,
				"element": "H" 
			},
			{
				"x": -0.8447697277,
				"y": -0.2478006702,
				"z": -4.0161223215,
				"element": "H" 
			},
			{
				"x": -0.5282985656,
				"y": 2.2546767752,
				"z": -4.1385654135,
				"element": "H" 
			},
			{
				"x": -2.2215962385,
				"y": 1.8076216025,
				"z": -4.1245983838,
				"element": "H" 
			},
			{
				"x": -1.2669814279,
				"y": 3.7366997667,
				"z": -2.4815322169,
				"element": "H" 
			},
			{
				"x": -2.5989295733,
				"y": 2.7119228843,
				"z": -1.9850313941,
				"element": "H" 
			},
			{
				"x": -0.5549765524,
				"y": 3.0300632201,
				"z": -0.3231747227,
				"element": "H" 
			},
			{
				"x": -1.2989445697,
				"y": 1.4542573967,
				"z": -0.4860801318,
				"element": "H" 
			}
		],
		 "valence_orbital": [ 
			{
				"type": "occ",
				"energy": -0.30549,
				"method": "rhf"
			},
			{
				"type": "occ",
				"energy": -0.3032,
				"method": "rhf"
			},
			{
				"type": "occ",
				"energy": -0.24395,
				"method": "rhf"
			},
			{
				"type": "occ",
				"energy": -0.19544,
				"method": "rhf"
			},
			{
				"type": "occ",
				"energy": -0.18963,
				"method": "rhf"
			},
			{
				"type": "unocc",
				"energy": 0.01685,
				"method": "rhf"
			},
			{
				"type": "unocc",
				"energy": 0.04017,
				"method": "rhf"
			},
			{
				"type": "unocc",
				"energy": 0.06,
				"method": "rhf"
			},
			{
				"type": "unocc",
				"energy": 0.08213,
				"method": "rhf"
			},
			{
				"type": "unocc",
				"energy": 0.0911,
				"method": "rhf"
			}
		],
		"cosmo_sigma_profile": { 
			"-0.025": 0.0,
			"-0.024": 0.0,
			"-0.023": 0.0,
			"-0.022": 0.0,
			"-0.021": 0.0,
			"-0.02": 0.0,
			"-0.019": 0.0,
			"-0.018": 0.0,
			"-0.017": 0.0,
			"-0.016": 0.0,
			"-0.015": 0.0,
			"-0.014": 0.0482723154515,
			"-0.013": 0.901702693063,
			"-0.012": 0.879675122036,
			"-0.011": 1.97504676779,
			"-0.01": 2.79865769184,
			"-0.009": 2.78885162095,
			"-0.008": 2.67919267771,
			"-0.007": 2.91805595419,
			"-0.006": 4.59127010634,
			"-0.005": 5.42481680142,
			"-0.004": 7.6686513929,
			"-0.003": 30.8176562135,
			"-0.002": 49.107388328,
			"-0.001": 51.7010014174,
			"0.0": 48.4426109793,
			"0.001": 34.5079727106,
			"0.002": 8.75345612177,
			"0.003": 4.26929180034,
			"0.004": 4.41006980795,
			"0.005": 4.69580940841,
			"0.006": 3.64622997023,
			"0.007": 3.64424297643,
			"0.008": 3.88203830231,
			"0.009": 3.39553295911,
			"0.01": 5.03064234303,
			"0.011": 5.01224861419,
			"0.012": 7.08362842982,
			"0.013": 4.68711511005,
			"0.014": 0.118095310845,
			"0.015": 0.0,
			"0.016": 0.0,
			"0.017": 0.0,
			"0.018": 0.0,
			"0.019": 0.0,
			"0.02": 0.0,
			"0.021": 0.0,
			"0.022": 0.0,
			"0.023": 0.0,
			"0.024": 0.0,
			"0.025": 0.0
		}
	}
}
