{
	 "smiles": "CC(C)(C)C1=CC=C(C=C1)S(=O)(=O)N1CCNCC1", 
	 "Tm": 400.15, 
	 "num_atms": 41, 
	 "gaussian": { 
		 "optdone": 1, 
		 "sigma_profile": "yes", 
		 "theory": "DFT", 
		 "functional": "B3LYP", 
		 "basiset": "6-31G**", 
		 "properties": { 
			 "R2extent": 7442.6753, 
			 "electric_dipole_moment_norm": 4.74134803721, 
			 "electric_quadrupole_moment_norm": 18.5415725679, 
			 "total_energy": -1204.81397238, 
			 "HOMO_LUMO_gap": 0.19279, 
			 "cosmo_polarized_energy": -15.64, 
			 "cosmo_cavitation_energy": 41.95, 
			 "cosmo_dispersion_energy": -29.43, 
			 "cosmo_repulsion_energy": 2.22, 
			 "cosmo_total_nonelectrostatic_energy": 14.74, 
			 "SMD_solvation_energy": 2.72 
		},
		"coords": [
			{
				"x": 1.8201186451,
				"y": -3.6732960913,
				"z": 2.0763649769,
				"element": "C" 
			},
			{
				"x": 0.3397405335,
				"y": -3.3043219454,
				"z": 1.8155948736,
				"element": "C" 
			},
			{
				"x": -0.4166448326,
				"y": -4.5901806626,
				"z": 1.4318048447,
				"element": "C" 
			},
			{
				"x": -0.2871670627,
				"y": -2.7440854655,
				"z": 3.1150225935,
				"element": "C" 
			},
			{
				"x": 0.2697583715,
				"y": -2.2326041911,
				"z": 0.7132996486,
				"element": "C" 
			},
			{
				"x": -0.4039403966,
				"y": -2.4338844738,
				"z": -0.4987133836,
				"element": "C" 
			},
			{
				"x": -0.4482005069,
				"y": -1.4428592254,
				"z": -1.4832883042,
				"element": "C" 
			},
			{
				"x": 0.1854091508,
				"y": -0.2250262661,
				"z": -1.2551391992,
				"element": "C" 
			},
			{
				"x": 0.8743654002,
				"y": 0.0064206316,
				"z": -0.0609979606,
				"element": "C" 
			},
			{
				"x": 0.9078936014,
				"y": -0.9910179077,
				"z": 0.9056838658,
				"element": "C" 
			},
			{
				"x": 0.1741595329,
				"y": 1.0356650516,
				"z": -2.5289298992,
				"element": "S" 
			},
			{
				"x": -0.4777061026,
				"y": 0.4605839112,
				"z": -3.7154871194,
				"element": "O" 
			},
			{
				"x": 1.5126270298,
				"y": 1.6265833223,
				"z": -2.6328220433,
				"element": "O" 
			},
			{
				"x": -0.79752677,
				"y": 2.2310236904,
				"z": -1.8144903569,
				"element": "N" 
			},
			{
				"x": -2.2367059522,
				"y": 1.929483388,
				"z": -1.7558077612,
				"element": "C" 
			},
			{
				"x": -2.8614156629,
				"y": 2.8171972568,
				"z": -0.6443240967,
				"element": "C" 
			},
			{
				"x": -2.1359130499,
				"y": 4.0741278215,
				"z": -0.4207765136,
				"element": "N" 
			},
			{
				"x": -1.5637191361,
				"y": 4.5676170482,
				"z": -1.6696087289,
				"element": "C" 
			},
			{
				"x": -0.5146975775,
				"y": 3.6061000916,
				"z": -2.294676025,
				"element": "C" 
			},
			{
				"x": 2.2891078091,
				"y": -4.0761906858,
				"z": 1.1729080111,
				"element": "H" 
			},
			{
				"x": 1.8873115761,
				"y": -4.433605577,
				"z": 2.8622831728,
				"element": "H" 
			},
			{
				"x": 2.4066694347,
				"y": -2.8084917175,
				"z": 2.3999523261,
				"element": "H" 
			},
			{
				"x": -1.4812933075,
				"y": -4.4019367111,
				"z": 1.2583042101,
				"element": "H" 
			},
			{
				"x": 0.0007002074,
				"y": -5.0573385042,
				"z": 0.5338570821,
				"element": "H" 
			},
			{
				"x": -0.3399706345,
				"y": -5.3175024643,
				"z": 2.246130264,
				"element": "H" 
			},
			{
				"x": -1.3385256418,
				"y": -2.4794034366,
				"z": 2.9615948406,
				"element": "H" 
			},
			{
				"x": -0.2391152169,
				"y": -3.4942948563,
				"z": 3.9119144537,
				"element": "H" 
			},
			{
				"x": 0.2347921645,
				"y": -1.8502704014,
				"z": 3.4691046626,
				"element": "H" 
			},
			{
				"x": -0.9035527755,
				"y": -3.3746303564,
				"z": -0.6966068997,
				"element": "H" 
			},
			{
				"x": -0.9588216473,
				"y": -1.6118626827,
				"z": -2.4251648586,
				"element": "H" 
			},
			{
				"x": 1.3824574494,
				"y": 0.9513630062,
				"z": 0.0987924218,
				"element": "H" 
			},
			{
				"x": 1.4478328765,
				"y": -0.7994372295,
				"z": 1.8277221412,
				"element": "H" 
			},
			{
				"x": -2.3741564759,
				"y": 0.8715409259,
				"z": -1.5188652615,
				"element": "H" 
			},
			{
				"x": -2.7136082935,
				"y": 2.1061851612,
				"z": -2.7305250116,
				"element": "H" 
			},
			{
				"x": -2.8888531946,
				"y": 2.270678481,
				"z": 0.3029562646,
				"element": "H" 
			},
			{
				"x": -3.9004900854,
				"y": 3.0423584195,
				"z": -0.918510515,
				"element": "H" 
			},
			{
				"x": -1.3776630647,
				"y": 3.8972696429,
				"z": 0.2331802166,
				"element": "H" 
			},
			{
				"x": -2.3901022902,
				"y": 4.7277569644,
				"z": -2.3721264781,
				"element": "H" 
			},
			{
				"x": -1.1017229642,
				"y": 5.5455297608,
				"z": -1.5015495338,
				"element": "H" 
			},
			{
				"x": -0.5497210079,
				"y": 3.6732465661,
				"z": -3.3922746358,
				"element": "H" 
			},
			{
				"x": 0.4980898669,
				"y": 3.8626097106,
				"z": -1.9781862844,
				"element": "H" 
			}
		],
		 "valence_orbital": [ 
			{
				"type": "occ",
				"energy": -0.29281,
				"method": "rhf"
			},
			{
				"type": "occ",
				"energy": -0.26836,
				"method": "rhf"
			},
			{
				"type": "occ",
				"energy": -0.2653,
				"method": "rhf"
			},
			{
				"type": "occ",
				"energy": -0.24361,
				"method": "rhf"
			},
			{
				"type": "occ",
				"energy": -0.22807,
				"method": "rhf"
			},
			{
				"type": "unocc",
				"energy": -0.03528,
				"method": "rhf"
			},
			{
				"type": "unocc",
				"energy": -0.01848,
				"method": "rhf"
			},
			{
				"type": "unocc",
				"energy": 0.0558,
				"method": "rhf"
			},
			{
				"type": "unocc",
				"energy": 0.07076,
				"method": "rhf"
			},
			{
				"type": "unocc",
				"energy": 0.08973,
				"method": "rhf"
			}
		],
		"cosmo_sigma_profile": { 
			"-0.025": 0.0,
			"-0.024": 0.0,
			"-0.023": 0.0,
			"-0.022": 0.0,
			"-0.021": 0.0,
			"-0.02": 0.0,
			"-0.019": 0.0,
			"-0.018": 0.0,
			"-0.017": 0.0,
			"-0.016": 0.0,
			"-0.015": 0.0,
			"-0.014": 0.0,
			"-0.013": 0.0,
			"-0.012": 0.0,
			"-0.011": 0.0,
			"-0.01": 0.541840057143,
			"-0.009": 1.48665585408,
			"-0.008": 1.24722661226,
			"-0.007": 3.55463103182,
			"-0.006": 9.10251897287,
			"-0.005": 20.3194034609,
			"-0.004": 37.0374913123,
			"-0.003": 42.1592254206,
			"-0.002": 35.6758114111,
			"-0.001": 29.2770054404,
			"0.0": 27.745873477,
			"0.001": 31.0567299486,
			"0.002": 17.2180943758,
			"0.003": 16.3860465576,
			"0.004": 8.90406916699,
			"0.005": 5.10613097907,
			"0.006": 3.36705844286,
			"0.007": 2.85173381591,
			"0.008": 3.80720468163,
			"0.009": 4.8935204058,
			"0.01": 6.18801350677,
			"0.011": 9.61948869975,
			"0.012": 6.22719332895,
			"0.013": 0.934399030781,
			"0.014": 0.673833946324,
			"0.015": 0.218586721013,
			"0.016": 0.754391145419,
			"0.017": 0.540939127611,
			"0.018": 0.462814007797,
			"0.019": 0.0,
			"0.02": 0.0,
			"0.021": 0.0,
			"0.022": 0.0,
			"0.023": 0.0,
			"0.024": 0.0,
			"0.025": 0.0
		}
	}
}
