{
	 "smiles": "CC1=C(Cl)N=CC(=C1)S(Cl)(=O)=O", 
	 "Tm": 328.15, 
	 "num_atms": 17, 
	 "gaussian": { 
		 "optdone": 1, 
		 "sigma_profile": "yes", 
		 "theory": "DFT", 
		 "functional": "B3LYP", 
		 "basiset": "6-31G**", 
		 "properties": { 
			 "R2extent": 3521.9283, 
			 "electric_dipole_moment_norm": 3.93777501008, 
			 "electric_quadrupole_moment_norm": 11.1027131972, 
			 "total_energy": -1755.35187554, 
			 "HOMO_LUMO_gap": 0.18678, 
			 "cosmo_polarized_energy": -9.85, 
			 "cosmo_cavitation_energy": 26.94, 
			 "cosmo_dispersion_energy": -20.31, 
			 "cosmo_repulsion_energy": 1.58, 
			 "cosmo_total_nonelectrostatic_energy": 8.21, 
			 "SMD_solvation_energy": 1.77 
		},
		"coords": [
			{
				"x": -0.1670076319,
				"y": 0.3018206187,
				"z": 3.0769505602,
				"element": "C" 
			},
			{
				"x": -0.0874131146,
				"y": 0.4766644625,
				"z": 1.585611472,
				"element": "C" 
			},
			{
				"x": 0.5050567177,
				"y": 1.6037305949,
				"z": 0.9743538179,
				"element": "C" 
			},
			{
				"x": 1.1921387181,
				"y": 2.8517417999,
				"z": 1.9986735546,
				"element": "Cl" 
			},
			{
				"x": 0.5945526491,
				"y": 1.8205001884,
				"z": -0.3265929705,
				"element": "N" 
			},
			{
				"x": 0.0953223033,
				"y": 0.9016365302,
				"z": -1.157711196,
				"element": "C" 
			},
			{
				"x": -0.5049010232,
				"y": -0.256262423,
				"z": -0.6688037137,
				"element": "C" 
			},
			{
				"x": -0.6032180596,
				"y": -0.4744034293,
				"z": 0.7059956013,
				"element": "C" 
			},
			{
				"x": -1.1816403329,
				"y": -1.45368409,
				"z": -1.8041144002,
				"element": "S" 
			},
			{
				"x": 0.4692411437,
				"y": -2.7772440534,
				"z": -2.0412782289,
				"element": "Cl" 
			},
			{
				"x": -1.3898409012,
				"y": -0.8174059401,
				"z": -3.0973548729,
				"element": "O" 
			},
			{
				"x": -2.2214263539,
				"y": -2.2158302797,
				"z": -1.1250317982,
				"element": "O" 
			},
			{
				"x": 0.8316087035,
				"y": 0.2938909584,
				"z": 3.5253394833,
				"element": "H" 
			},
			{
				"x": -0.6676386814,
				"y": -0.63550568,
				"z": 3.3295664265,
				"element": "H" 
			},
			{
				"x": -0.7181748611,
				"y": 1.126017059,
				"z": 3.5408270451,
				"element": "H" 
			},
			{
				"x": 0.1671903985,
				"y": 1.0969367899,
				"z": -2.2232434511,
				"element": "H" 
			},
			{
				"x": -1.0848496742,
				"y": -1.3705031061,
				"z": 1.0837126707,
				"element": "H" 
			}
		],
		 "valence_orbital": [ 
			{
				"type": "occ",
				"energy": -0.33831,
				"method": "rhf"
			},
			{
				"type": "occ",
				"energy": -0.32415,
				"method": "rhf"
			},
			{
				"type": "occ",
				"energy": -0.32351,
				"method": "rhf"
			},
			{
				"type": "occ",
				"energy": -0.30285,
				"method": "rhf"
			},
			{
				"type": "occ",
				"energy": -0.28916,
				"method": "rhf"
			},
			{
				"type": "unocc",
				"energy": -0.10238,
				"method": "rhf"
			},
			{
				"type": "unocc",
				"energy": -0.06717,
				"method": "rhf"
			},
			{
				"type": "unocc",
				"energy": -0.05956,
				"method": "rhf"
			},
			{
				"type": "unocc",
				"energy": 0.0128,
				"method": "rhf"
			},
			{
				"type": "unocc",
				"energy": 0.04012,
				"method": "rhf"
			}
		],
		"cosmo_sigma_profile": { 
			"-0.025": 0.0,
			"-0.024": 0.0,
			"-0.023": 0.0,
			"-0.022": 0.0,
			"-0.021": 0.0,
			"-0.02": 0.0,
			"-0.019": 0.0,
			"-0.018": 0.0,
			"-0.017": 0.0,
			"-0.016": 0.0,
			"-0.015": 0.0,
			"-0.014": 0.0,
			"-0.013": 0.0,
			"-0.012": 0.0,
			"-0.011": 0.0,
			"-0.01": 1.31810924251,
			"-0.009": 3.453998395,
			"-0.008": 3.94917166535,
			"-0.007": 5.57066985781,
			"-0.006": 7.29933826946,
			"-0.005": 11.0666960571,
			"-0.004": 16.9066361954,
			"-0.003": 23.6063848413,
			"-0.002": 23.4517214355,
			"-0.001": 15.5851370489,
			"0.0": 11.7112984848,
			"0.001": 12.9687709151,
			"0.002": 18.1522859479,
			"0.003": 20.7172270866,
			"0.004": 10.5635745864,
			"0.005": 4.80517798077,
			"0.006": 5.30442293233,
			"0.007": 9.07632011431,
			"0.008": 10.2009898112,
			"0.009": 2.89873415652,
			"0.01": 0.427336767531,
			"0.011": 1.10497793139,
			"0.012": 0.987086084739,
			"0.013": 0.258693462063,
			"0.014": 0.0,
			"0.015": 0.0,
			"0.016": 0.0,
			"0.017": 0.0,
			"0.018": 0.0,
			"0.019": 0.0,
			"0.02": 0.0,
			"0.021": 0.0,
			"0.022": 0.0,
			"0.023": 0.0,
			"0.024": 0.0,
			"0.025": 0.0
		}
	}
}
