{
	 "smiles": "C1CCC2NCCCC2C1", 
	 "Tm": 314.35, 
	 "num_atms": 27, 
	 "gaussian": { 
		 "optdone": 1, 
		 "sigma_profile": "yes", 
		 "theory": "DFT", 
		 "functional": "B3LYP", 
		 "basiset": "6-31G**", 
		 "properties": { 
			 "R2extent": 1496.359, 
			 "electric_dipole_moment_norm": 1.08035622829, 
			 "electric_quadrupole_moment_norm": 3.2397391716, 
			 "total_energy": -407.962899393, 
			 "HOMO_LUMO_gap": 0.27721, 
			 "cosmo_polarized_energy": -3.71, 
			 "cosmo_cavitation_energy": 24.89, 
			 "cosmo_dispersion_energy": -19.2, 
			 "cosmo_repulsion_energy": 1.54, 
			 "cosmo_total_nonelectrostatic_energy": 7.23, 
			 "SMD_solvation_energy": 0.83 
		},
		"coords": [
			{
				"x": 0.1832014307,
				"y": -2.4528989408,
				"z": -0.0330295957,
				"element": "C" 
			},
			{
				"x": 0.2364794163,
				"y": -2.0593542347,
				"z": -1.5129164387,
				"element": "C" 
			},
			{
				"x": 0.7273420484,
				"y": -0.6082126477,
				"z": -1.6724985552,
				"element": "C" 
			},
			{
				"x": 0.1474827209,
				"y": 0.3731961479,
				"z": -0.617224828,
				"element": "C" 
			},
			{
				"x": 1.2007278241,
				"y": 0.8116629278,
				"z": 0.316869029,
				"element": "N" 
			},
			{
				"x": 0.7014920635,
				"y": 1.7837329814,
				"z": 1.2950116478,
				"element": "C" 
			},
			{
				"x": -0.5356484435,
				"y": 1.3120627513,
				"z": 2.0785687265,
				"element": "C" 
			},
			{
				"x": -1.6351165874,
				"y": 0.8227725,
				"z": 1.1203815228,
				"element": "C" 
			},
			{
				"x": -1.1028585443,
				"y": -0.2021840494,
				"z": 0.0960328521,
				"element": "C" 
			},
			{
				"x": -0.8437635082,
				"y": -1.5909418677,
				"z": 0.7399821017,
				"element": "C" 
			},
			{
				"x": -0.0554343349,
				"y": -3.5163582512,
				"z": 0.0814934047,
				"element": "H" 
			},
			{
				"x": 1.1863769562,
				"y": -2.3228894533,
				"z": 0.397249716,
				"element": "H" 
			},
			{
				"x": -0.7632658832,
				"y": -2.1733196808,
				"z": -1.9532348425,
				"element": "H" 
			},
			{
				"x": 0.8942947682,
				"y": -2.7356421495,
				"z": -2.0709587129,
				"element": "H" 
			},
			{
				"x": 1.8197799824,
				"y": -0.5732302608,
				"z": -1.5853304301,
				"element": "H" 
			},
			{
				"x": 0.4922692,
				"y": -0.2506190899,
				"z": -2.6811976341,
				"element": "H" 
			},
			{
				"x": -0.1731038611,
				"y": 1.2900792005,
				"z": -1.1325497006,
				"element": "H" 
			},
			{
				"x": 1.5767558336,
				"y": 0.0016952979,
				"z": 0.8077496659,
				"element": "H" 
			},
			{
				"x": 0.4520471806,
				"y": 2.7018763396,
				"z": 0.7434693201,
				"element": "H" 
			},
			{
				"x": 1.5190956739,
				"y": 2.0410405116,
				"z": 1.9783082755,
				"element": "H" 
			},
			{
				"x": -0.2408992717,
				"y": 0.5041305082,
				"z": 2.7616733534,
				"element": "H" 
			},
			{
				"x": -0.9176152168,
				"y": 2.1243742904,
				"z": 2.7100027809,
				"element": "H" 
			},
			{
				"x": -2.0388223338,
				"y": 1.6879201223,
				"z": 0.5758785223,
				"element": "H" 
			},
			{
				"x": -2.4730652893,
				"y": 0.394444134,
				"z": 1.6852340929,
				"element": "H" 
			},
			{
				"x": -1.8741682158,
				"y": -0.3357341782,
				"z": -0.6755113772,
				"element": "H" 
			},
			{
				"x": -0.5133825689,
				"y": -1.4768902333,
				"z": 1.7785852588,
				"element": "H" 
			},
			{
				"x": -1.80350104,
				"y": -2.1191126757,
				"z": 0.7933618445,
				"element": "H" 
			}
		],
		 "valence_orbital": [ 
			{
				"type": "occ",
				"energy": -0.32235,
				"method": "rhf"
			},
			{
				"type": "occ",
				"energy": -0.30113,
				"method": "rhf"
			},
			{
				"type": "occ",
				"energy": -0.2911,
				"method": "rhf"
			},
			{
				"type": "occ",
				"energy": -0.2884,
				"method": "rhf"
			},
			{
				"type": "occ",
				"energy": -0.20584,
				"method": "rhf"
			},
			{
				"type": "unocc",
				"energy": 0.07137,
				"method": "rhf"
			},
			{
				"type": "unocc",
				"energy": 0.08755,
				"method": "rhf"
			},
			{
				"type": "unocc",
				"energy": 0.10629,
				"method": "rhf"
			},
			{
				"type": "unocc",
				"energy": 0.12369,
				"method": "rhf"
			},
			{
				"type": "unocc",
				"energy": 0.12997,
				"method": "rhf"
			}
		],
		"cosmo_sigma_profile": { 
			"-0.025": 0.0,
			"-0.024": 0.0,
			"-0.023": 0.0,
			"-0.022": 0.0,
			"-0.021": 0.0,
			"-0.02": 0.0,
			"-0.019": 0.0,
			"-0.018": 0.0,
			"-0.017": 0.0,
			"-0.016": 0.0,
			"-0.015": 0.0,
			"-0.014": 0.0,
			"-0.013": 0.0,
			"-0.012": 0.0,
			"-0.011": 0.0,
			"-0.01": 0.0,
			"-0.009": 0.0,
			"-0.008": 0.660671071204,
			"-0.007": 1.13040129492,
			"-0.006": 2.16292967467,
			"-0.005": 1.95698784123,
			"-0.004": 2.85433432689,
			"-0.003": 8.47232984239,
			"-0.002": 30.3950724651,
			"-0.001": 43.6884394913,
			"0.0": 42.2867501105,
			"0.001": 30.4167396939,
			"0.002": 12.5348553363,
			"0.003": 1.48323775679,
			"0.004": 1.74736056771,
			"0.005": 1.06772636439,
			"0.006": 0.672427980492,
			"0.007": 0.988713321832,
			"0.008": 0.350669266832,
			"0.009": 0.848600801228,
			"0.01": 1.33960299955,
			"0.011": 0.639231220874,
			"0.012": 0.873404966012,
			"0.013": 0.412474442975,
			"0.014": 0.3933683135,
			"0.015": 0.649126615807,
			"0.016": 0.387013746271,
			"0.017": 0.612959979629,
			"0.018": 0.648882473506,
			"0.019": 0.203264929795,
			"0.02": 0.0298526833987,
			"0.021": 0.0,
			"0.022": 0.0,
			"0.023": 0.0,
			"0.024": 0.0,
			"0.025": 0.0
		}
	}
}
