{
	 "smiles": "NCC(O)C1CC1", 
	 "Tm": 308.15, 
	 "num_atms": 18, 
	 "gaussian": { 
		 "optdone": 1, 
		 "sigma_profile": "yes", 
		 "theory": "DFT", 
		 "functional": "B3LYP", 
		 "basiset": "6-31G**", 
		 "properties": { 
			 "R2extent": 1008.7935, 
			 "electric_dipole_moment_norm": 1.19716094991, 
			 "electric_quadrupole_moment_norm": 7.27273678061, 
			 "total_energy": -327.094578526, 
			 "HOMO_LUMO_gap": 0.29118, 
			 "cosmo_polarized_energy": -9.56, 
			 "cosmo_cavitation_energy": 20.04, 
			 "cosmo_dispersion_energy": -14.78, 
			 "cosmo_repulsion_energy": 1.27, 
			 "cosmo_total_nonelectrostatic_energy": 6.53, 
			 "SMD_solvation_energy": 1.57 
		},
		"coords": [
			{
				"x": -0.0337676443,
				"y": 2.5794004046,
				"z": 2.2709561523,
				"element": "N" 
			},
			{
				"x": 0.6114829481,
				"y": 1.5705384474,
				"z": 1.4320260917,
				"element": "C" 
			},
			{
				"x": -0.2216092309,
				"y": 1.0824788133,
				"z": 0.2325711577,
				"element": "C" 
			},
			{
				"x": -1.4888470461,
				"y": 0.5916720807,
				"z": 0.678549599,
				"element": "O" 
			},
			{
				"x": 0.5309542503,
				"y": 0.0728463255,
				"z": -0.6251690213,
				"element": "C" 
			},
			{
				"x": 0.4538374919,
				"y": -1.4134902042,
				"z": -0.3590240156,
				"element": "C" 
			},
			{
				"x": -0.2027401065,
				"y": -0.8248779922,
				"z": -1.5851528284,
				"element": "C" 
			},
			{
				"x": -0.1325349803,
				"y": 3.4440919003,
				"z": 1.7420220485,
				"element": "H" 
			},
			{
				"x": -0.9852960878,
				"y": 2.2687197686,
				"z": 2.4606340526,
				"element": "H" 
			},
			{
				"x": 0.8554187661,
				"y": 0.6991370893,
				"z": 2.0582060924,
				"element": "H" 
			},
			{
				"x": 1.5703070786,
				"y": 1.9667561827,
				"z": 1.0762572103,
				"element": "H" 
			},
			{
				"x": -0.4757272266,
				"y": 1.9502286995,
				"z": -0.3921754519,
				"element": "H" 
			},
			{
				"x": -1.3161251108,
				"y": -0.1336874527,
				"z": 1.2954578386,
				"element": "H" 
			},
			{
				"x": 1.5017248292,
				"y": 0.4382620649,
				"z": -0.956811377,
				"element": "H" 
			},
			{
				"x": 1.3577906935,
				"y": -2.0027482981,
				"z": -0.4779822731,
				"element": "H" 
			},
			{
				"x": -0.2010702302,
				"y": -1.7762550521,
				"z": 0.4291365313,
				"element": "H" 
			},
			{
				"x": -1.2863688669,
				"y": -0.7624431752,
				"z": -1.5776742402,
				"element": "H" 
			},
			{
				"x": 0.2395704729,
				"y": -1.0203296021,
				"z": -2.5572275668,
				"element": "H" 
			}
		],
		 "valence_orbital": [ 
			{
				"type": "occ",
				"energy": -0.33146,
				"method": "rhf"
			},
			{
				"type": "occ",
				"energy": -0.2981,
				"method": "rhf"
			},
			{
				"type": "occ",
				"energy": -0.28456,
				"method": "rhf"
			},
			{
				"type": "occ",
				"energy": -0.28227,
				"method": "rhf"
			},
			{
				"type": "occ",
				"energy": -0.22784,
				"method": "rhf"
			},
			{
				"type": "unocc",
				"energy": 0.06334,
				"method": "rhf"
			},
			{
				"type": "unocc",
				"energy": 0.08879,
				"method": "rhf"
			},
			{
				"type": "unocc",
				"energy": 0.10586,
				"method": "rhf"
			},
			{
				"type": "unocc",
				"energy": 0.12564,
				"method": "rhf"
			},
			{
				"type": "unocc",
				"energy": 0.12945,
				"method": "rhf"
			}
		],
		"cosmo_sigma_profile": { 
			"-0.025": 0.0,
			"-0.024": 0.0,
			"-0.023": 0.0,
			"-0.022": 0.0,
			"-0.021": 0.0,
			"-0.02": 0.0,
			"-0.019": 0.0,
			"-0.018": 0.0,
			"-0.017": 0.0,
			"-0.016": 0.0,
			"-0.015": 0.0668017545841,
			"-0.014": 1.18361271097,
			"-0.013": 0.711135360952,
			"-0.012": 1.20333553916,
			"-0.011": 1.1547869666,
			"-0.01": 1.48270131433,
			"-0.009": 2.38789824756,
			"-0.008": 2.68410742662,
			"-0.007": 3.5450404475,
			"-0.006": 5.10578244097,
			"-0.005": 5.75013650093,
			"-0.004": 15.9308443591,
			"-0.003": 15.8340098119,
			"-0.002": 13.7763129799,
			"-0.001": 11.4537041982,
			"0.0": 12.6542534379,
			"0.001": 10.0510316454,
			"0.002": 8.83819590327,
			"0.003": 7.43811854276,
			"0.004": 6.79767562099,
			"0.005": 4.66056234512,
			"0.006": 2.87126304352,
			"0.007": 2.21425145691,
			"0.008": 1.67096324453,
			"0.009": 2.02434196666,
			"0.01": 1.47740266076,
			"0.011": 2.01396404161,
			"0.012": 1.72820790503,
			"0.013": 2.11838620155,
			"0.014": 2.2031256332,
			"0.015": 0.384890360513,
			"0.016": 0.500414537126,
			"0.017": 1.33718414501,
			"0.018": 0.409525259002,
			"0.019": 0.6962964269,
			"0.02": 0.414845235431,
			"0.021": 0.0154041385695,
			"0.022": 0.0,
			"0.023": 0.0,
			"0.024": 0.0,
			"0.025": 0.0
		}
	}
}
