{
	 "smiles": "NC1=C(C=C(Br)C=C1Br)C#N", 
	 "Tm": 427.15, 
	 "num_atms": 15, 
	 "gaussian": { 
		 "optdone": 1, 
		 "sigma_profile": "yes", 
		 "theory": "DFT", 
		 "functional": "B3LYP", 
		 "basiset": "6-31G**", 
		 "properties": { 
			 "R2extent": 5891.8062, 
			 "electric_dipole_moment_norm": 2.74934132112, 
			 "electric_quadrupole_moment_norm": 9.78562895015, 
			 "total_energy": -5521.45435406, 
			 "HOMO_LUMO_gap": 0.16489, 
			 "cosmo_polarized_energy": -9.71, 
			 "cosmo_cavitation_energy": 25.12, 
			 "cosmo_dispersion_energy": -18.97, 
			 "cosmo_repulsion_energy": 1.52, 
			 "cosmo_total_nonelectrostatic_energy": 7.67, 
			 "SMD_solvation_energy": 3.22 
		},
		"coords": [
			{
				"x": 1.3700422842,
				"y": -0.126508863,
				"z": -1.6512416453,
				"element": "N" 
			},
			{
				"x": 0.8755730556,
				"y": 0.7036473982,
				"z": -0.6913140237,
				"element": "C" 
			},
			{
				"x": 0.3345771481,
				"y": 0.1890617756,
				"z": 0.5210911919,
				"element": "C" 
			},
			{
				"x": -0.2121199326,
				"y": 1.0326044675,
				"z": 1.4999533673,
				"element": "C" 
			},
			{
				"x": -0.2266363894,
				"y": 2.4033846002,
				"z": 1.2944734678,
				"element": "C" 
			},
			{
				"x": -0.9658189591,
				"y": 3.5617596038,
				"z": 2.6150612302,
				"element": "Br" 
			},
			{
				"x": 0.3024404157,
				"y": 2.9457450685,
				"z": 0.1203116901,
				"element": "C" 
			},
			{
				"x": 0.8406650429,
				"y": 2.1079165986,
				"z": -0.8452409193,
				"element": "C" 
			},
			{
				"x": 1.5613554593,
				"y": 2.8832693355,
				"z": -2.4365782374,
				"element": "Br" 
			},
			{
				"x": 0.3667105761,
				"y": -1.2242529541,
				"z": 0.725039637,
				"element": "C" 
			},
			{
				"x": 0.4272579958,
				"y": -2.3820914482,
				"z": 0.8370289381,
				"element": "N" 
			},
			{
				"x": 1.5148484278,
				"y": -1.1003194717,
				"z": -1.4328122692,
				"element": "H" 
			},
			{
				"x": 1.8956582871,
				"y": 0.2710163712,
				"z": -2.4134629526,
				"element": "H" 
			},
			{
				"x": -0.6151578035,
				"y": 0.6022501893,
				"z": 2.4084935431,
				"element": "H" 
			},
			{
				"x": 0.2961043921,
				"y": 4.0166173287,
				"z": -0.0397030178,
				"element": "H" 
			}
		],
		 "valence_orbital": [ 
			{
				"type": "occ",
				"energy": -0.31604,
				"method": "rhf"
			},
			{
				"type": "occ",
				"energy": -0.30007,
				"method": "rhf"
			},
			{
				"type": "occ",
				"energy": -0.29831,
				"method": "rhf"
			},
			{
				"type": "occ",
				"energy": -0.27153,
				"method": "rhf"
			},
			{
				"type": "occ",
				"energy": -0.22861,
				"method": "rhf"
			},
			{
				"type": "unocc",
				"energy": -0.06372,
				"method": "rhf"
			},
			{
				"type": "unocc",
				"energy": -0.02909,
				"method": "rhf"
			},
			{
				"type": "unocc",
				"energy": -0.02413,
				"method": "rhf"
			},
			{
				"type": "unocc",
				"energy": 0.00118,
				"method": "rhf"
			},
			{
				"type": "unocc",
				"energy": 0.03277,
				"method": "rhf"
			}
		],
		"cosmo_sigma_profile": { 
			"-0.025": 0.0,
			"-0.024": 0.0,
			"-0.023": 0.0,
			"-0.022": 0.0,
			"-0.021": 0.0,
			"-0.02": 0.0,
			"-0.019": 0.0,
			"-0.018": 0.0,
			"-0.017": 0.0,
			"-0.016": 0.0,
			"-0.015": 0.0,
			"-0.014": 0.644448127475,
			"-0.013": 1.51502178066,
			"-0.012": 2.14866203336,
			"-0.011": 2.00195520015,
			"-0.01": 1.49760541759,
			"-0.009": 3.78169192548,
			"-0.008": 5.01478531827,
			"-0.007": 6.16503480487,
			"-0.006": 5.50570773228,
			"-0.005": 6.80111899693,
			"-0.004": 9.50389535615,
			"-0.003": 9.69800323874,
			"-0.002": 14.4955074172,
			"-0.001": 18.0660320701,
			"0.0": 24.2277518606,
			"0.001": 25.1334338156,
			"0.002": 13.5602669255,
			"0.003": 17.309076179,
			"0.004": 16.9621619942,
			"0.005": 5.42145671744,
			"0.006": 2.37719165033,
			"0.007": 3.36376598416,
			"0.008": 2.87115425903,
			"0.009": 3.09846917662,
			"0.01": 2.74292406688,
			"0.011": 2.66123512523,
			"0.012": 2.42440658014,
			"0.013": 0.820548066987,
			"0.014": 0.0,
			"0.015": 0.0,
			"0.016": 0.0,
			"0.017": 0.0,
			"0.018": 0.0,
			"0.019": 0.0,
			"0.02": 0.0,
			"0.021": 0.0,
			"0.022": 0.0,
			"0.023": 0.0,
			"0.024": 0.0,
			"0.025": 0.0
		}
	}
}
