{
	 "smiles": "C12C3C4C1C1C2C3C41", 
	 "Tm": 398.65, 
	 "num_atms": 16, 
	 "gaussian": { 
		 "optdone": 1, 
		 "sigma_profile": "yes", 
		 "theory": "DFT", 
		 "functional": "B3LYP", 
		 "basiset": "6-31G**", 
		 "properties": { 
			 "R2extent": 733.6135, 
			 "electric_dipole_moment_norm": 0.0, 
			 "electric_quadrupole_moment_norm": 0.0001, 
			 "total_energy": -309.468102455, 
			 "HOMO_LUMO_gap": 0.3353, 
			 "cosmo_polarized_energy": -0.74, 
			 "cosmo_cavitation_energy": 17.28, 
			 "cosmo_dispersion_energy": -14.13, 
			 "cosmo_repulsion_energy": 1.19, 
			 "cosmo_total_nonelectrostatic_energy": 4.34, 
			 "SMD_solvation_energy": 0.83 
		},
		"coords": [
			{
				"x": 0.0495302173,
				"y": -0.8453457975,
				"z": -1.0500492295,
				"element": "C" 
			},
			{
				"x": -0.2214785429,
				"y": -0.267244811,
				"z": 0.3846551879,
				"element": "C" 
			},
			{
				"x": -0.7702433037,
				"y": 1.0586558694,
				"z": -0.253236513,
				"element": "C" 
			},
			{
				"x": -0.4992091983,
				"y": 0.4805397589,
				"z": -1.6879496366,
				"element": "C" 
			},
			{
				"x": 0.9469896962,
				"y": 1.0919463331,
				"z": -1.6611242604,
				"element": "C" 
			},
			{
				"x": 1.4957550617,
				"y": -0.2339549961,
				"z": -1.0232448503,
				"element": "C" 
			},
			{
				"x": 1.2247201681,
				"y": 0.3441607727,
				"z": 0.4114807175,
				"element": "C" 
			},
			{
				"x": 0.6759819564,
				"y": 1.6700467325,
				"z": -0.2264319364,
				"element": "C" 
			},
			{
				"x": -0.2018482042,
				"y": -1.8545903792,
				"z": -1.3804970743,
				"element": "H" 
			},
			{
				"x": -0.6902779105,
				"y": -0.8126352454,
				"z": 1.2054709394,
				"element": "H" 
			},
			{
				"x": -1.6793745926,
				"y": 1.577287299,
				"z": 0.0557296122,
				"element": "H" 
			},
			{
				"x": -1.1908710902,
				"y": 0.5352772088,
				"z": -2.5303089376,
				"element": "H" 
			},
			{
				"x": 1.4157909756,
				"y": 1.6373258869,
				"z": -2.4819463284,
				"element": "H" 
			},
			{
				"x": 2.4048894364,
				"y": -0.7525840859,
				"z": -1.3322045636,
				"element": "H" 
			},
			{
				"x": 1.9163916259,
				"y": 0.289425184,
				"z": 1.2538319313,
				"element": "H" 
			},
			{
				"x": 0.9273537049,
				"y": 2.6792902699,
				"z": 0.1040249417,
				"element": "H" 
			}
		],
		 "valence_orbital": [ 
			{
				"type": "occ",
				"energy": -0.26676,
				"method": "rhf"
			},
			{
				"type": "occ",
				"energy": -0.26676,
				"method": "rhf"
			},
			{
				"type": "occ",
				"energy": -0.25674,
				"method": "rhf"
			},
			{
				"type": "occ",
				"energy": -0.25673,
				"method": "rhf"
			},
			{
				"type": "occ",
				"energy": -0.25673,
				"method": "rhf"
			},
			{
				"type": "unocc",
				"energy": 0.07857,
				"method": "rhf"
			},
			{
				"type": "unocc",
				"energy": 0.07857,
				"method": "rhf"
			},
			{
				"type": "unocc",
				"energy": 0.07857,
				"method": "rhf"
			},
			{
				"type": "unocc",
				"energy": 0.0902,
				"method": "rhf"
			},
			{
				"type": "unocc",
				"energy": 0.16544,
				"method": "rhf"
			}
		],
		"cosmo_sigma_profile": { 
			"-0.025": 0.0,
			"-0.024": 0.0,
			"-0.023": 0.0,
			"-0.022": 0.0,
			"-0.021": 0.0,
			"-0.02": 0.0,
			"-0.019": 0.0,
			"-0.018": 0.0,
			"-0.017": 0.0,
			"-0.016": 0.0,
			"-0.015": 0.0,
			"-0.014": 0.0,
			"-0.013": 0.0,
			"-0.012": 0.0,
			"-0.011": 0.0,
			"-0.01": 0.0,
			"-0.009": 0.0,
			"-0.008": 0.0,
			"-0.007": 0.0,
			"-0.006": 0.0,
			"-0.005": 0.0,
			"-0.004": 3.5805841451,
			"-0.003": 13.9235684645,
			"-0.002": 13.3439726219,
			"-0.001": 17.3039524885,
			"0.0": 17.142147574,
			"0.001": 41.5117565224,
			"0.002": 29.8320901097,
			"0.003": 0.106963029978,
			"0.004": 0.0,
			"0.005": 0.0,
			"0.006": 0.0,
			"0.007": 0.0,
			"0.008": 0.0,
			"0.009": 0.0,
			"0.01": 0.0,
			"0.011": 0.0,
			"0.012": 0.0,
			"0.013": 0.0,
			"0.014": 0.0,
			"0.015": 0.0,
			"0.016": 0.0,
			"0.017": 0.0,
			"0.018": 0.0,
			"0.019": 0.0,
			"0.02": 0.0,
			"0.021": 0.0,
			"0.022": 0.0,
			"0.023": 0.0,
			"0.024": 0.0,
			"0.025": 0.0
		}
	}
}
