{
	 "smiles": "CS(=O)(=O)C1=CC(=CC=C1)C(=O)C1=C(F)C=CC(F)=C1", 
	 "Tm": 361.15, 
	 "num_atms": 30, 
	 "gaussian": { 
		 "optdone": 1, 
		 "sigma_profile": "yes", 
		 "theory": "DFT", 
		 "functional": "B3LYP", 
		 "basiset": "6-31G**", 
		 "properties": { 
			 "R2extent": 6776.2127, 
			 "electric_dipole_moment_norm": 4.47207836358, 
			 "electric_quadrupole_moment_norm": 28.9672006856, 
			 "total_energy": -1362.97585724, 
			 "HOMO_LUMO_gap": 0.17161, 
			 "cosmo_polarized_energy": -18.09, 
			 "cosmo_cavitation_energy": 37.55, 
			 "cosmo_dispersion_energy": -26.13, 
			 "cosmo_repulsion_energy": 1.9, 
			 "cosmo_total_nonelectrostatic_energy": 13.32, 
			 "SMD_solvation_energy": 7.4 
		},
		"coords": [
			{
				"x": -0.1825797427,
				"y": -1.8178289157,
				"z": 3.3521356712,
				"element": "C" 
			},
			{
				"x": -0.6495771955,
				"y": -2.7597709504,
				"z": 1.8795487551,
				"element": "S" 
			},
			{
				"x": 0.5935379878,
				"y": -3.1986169287,
				"z": 1.2267466711,
				"element": "O" 
			},
			{
				"x": -1.6908702863,
				"y": -3.7226523065,
				"z": 2.2689238076,
				"element": "O" 
			},
			{
				"x": -1.4135487254,
				"y": -1.5101958832,
				"z": 0.8301963132,
				"element": "C" 
			},
			{
				"x": -0.5922744826,
				"y": -0.7036997884,
				"z": 0.0456742445,
				"element": "C" 
			},
			{
				"x": -1.1685458262,
				"y": 0.2998649636,
				"z": -0.7411463554,
				"element": "C" 
			},
			{
				"x": -2.5653587285,
				"y": 0.4476268078,
				"z": -0.7528109459,
				"element": "C" 
			},
			{
				"x": -3.3745075598,
				"y": -0.3731085012,
				"z": 0.0285601748,
				"element": "C" 
			},
			{
				"x": -2.8009191638,
				"y": -1.3605754017,
				"z": 0.8335946493,
				"element": "C" 
			},
			{
				"x": -0.3614156244,
				"y": 1.1828018885,
				"z": -1.6421300964,
				"element": "C" 
			},
			{
				"x": -0.8938302627,
				"y": 1.7399484289,
				"z": -2.5925616275,
				"element": "O" 
			},
			{
				"x": 1.1192044226,
				"y": 1.3648281645,
				"z": -1.430601382,
				"element": "C" 
			},
			{
				"x": 1.7478161166,
				"y": 1.4968784382,
				"z": -0.1865798169,
				"element": "C" 
			},
			{
				"x": 1.0181886537,
				"y": 1.4366649336,
				"z": 0.9522015557,
				"element": "F" 
			},
			{
				"x": 3.1142426161,
				"y": 1.7252059175,
				"z": -0.0648703911,
				"element": "C" 
			},
			{
				"x": 3.8959733038,
				"y": 1.8268035016,
				"z": -1.212968998,
				"element": "C" 
			},
			{
				"x": 3.2781866246,
				"y": 1.7138987509,
				"z": -2.456320195,
				"element": "C" 
			},
			{
				"x": 4.0296027836,
				"y": 1.8214386469,
				"z": -3.5687331746,
				"element": "F" 
			},
			{
				"x": 1.9147523792,
				"y": 1.5017214297,
				"z": -2.5797415441,
				"element": "C" 
			},
			{
				"x": 0.4832539702,
				"y": -1.0050632052,
				"z": 3.0575750721,
				"element": "H" 
			},
			{
				"x": -1.0834882179,
				"y": -1.4334963077,
				"z": 3.8323349662,
				"element": "H" 
			},
			{
				"x": 0.3341691056,
				"y": -2.5165865231,
				"z": 4.0132495519,
				"element": "H" 
			},
			{
				"x": 0.4760831528,
				"y": -0.8848761293,
				"z": 0.0342982636,
				"element": "H" 
			},
			{
				"x": -2.9943670478,
				"y": 1.2135591029,
				"z": -1.3899856504,
				"element": "H" 
			},
			{
				"x": -4.4528606468,
				"y": -0.2498161737,
				"z": 0.0101154427,
				"element": "H" 
			},
			{
				"x": -3.4094169849,
				"y": -2.0209313087,
				"z": 1.4426065854,
				"element": "H" 
			},
			{
				"x": 3.5460574376,
				"y": 1.8278473664,
				"z": 0.9243743599,
				"element": "H" 
			},
			{
				"x": 4.9651729872,
				"y": 1.9976071892,
				"z": -1.1559648334,
				"element": "H" 
			},
			{
				"x": 1.4529189537,
				"y": 1.4423227934,
				"z": -3.5583210736,
				"element": "H" 
			}
		],
		 "valence_orbital": [ 
			{
				"type": "occ",
				"energy": -0.28996,
				"method": "rhf"
			},
			{
				"type": "occ",
				"energy": -0.28475,
				"method": "rhf"
			},
			{
				"type": "occ",
				"energy": -0.28249,
				"method": "rhf"
			},
			{
				"type": "occ",
				"energy": -0.26868,
				"method": "rhf"
			},
			{
				"type": "occ",
				"energy": -0.26,
				"method": "rhf"
			},
			{
				"type": "unocc",
				"energy": -0.08839,
				"method": "rhf"
			},
			{
				"type": "unocc",
				"energy": -0.04661,
				"method": "rhf"
			},
			{
				"type": "unocc",
				"energy": -0.03844,
				"method": "rhf"
			},
			{
				"type": "unocc",
				"energy": -0.01809,
				"method": "rhf"
			},
			{
				"type": "unocc",
				"energy": 0.02613,
				"method": "rhf"
			}
		],
		"cosmo_sigma_profile": { 
			"-0.025": 0.0,
			"-0.024": 0.0,
			"-0.023": 0.0,
			"-0.022": 0.0,
			"-0.021": 0.0,
			"-0.02": 0.0,
			"-0.019": 0.0,
			"-0.018": 0.0,
			"-0.017": 0.0,
			"-0.016": 0.0,
			"-0.015": 0.0,
			"-0.014": 0.0,
			"-0.013": 0.0,
			"-0.012": 0.0,
			"-0.011": 0.0,
			"-0.01": 0.0,
			"-0.009": 3.32495699738,
			"-0.008": 11.2385588378,
			"-0.007": 15.5544822211,
			"-0.006": 20.9382227217,
			"-0.005": 17.368276572,
			"-0.004": 22.6923103414,
			"-0.003": 17.5359309722,
			"-0.002": 16.7583742668,
			"-0.001": 22.4495656187,
			"0.0": 30.2569001718,
			"0.001": 27.7062836753,
			"0.002": 16.7687874378,
			"0.003": 12.8654719985,
			"0.004": 16.1928876907,
			"0.005": 4.01420076925,
			"0.006": 3.36690514366,
			"0.007": 4.64180773499,
			"0.008": 4.67516298621,
			"0.009": 5.07851820027,
			"0.01": 7.50581261169,
			"0.011": 13.5194539796,
			"0.012": 7.51913084077,
			"0.013": 0.301205201297,
			"0.014": 0.0,
			"0.015": 0.0,
			"0.016": 0.0,
			"0.017": 0.0,
			"0.018": 0.0,
			"0.019": 0.0,
			"0.02": 0.0,
			"0.021": 0.0,
			"0.022": 0.0,
			"0.023": 0.0,
			"0.024": 0.0,
			"0.025": 0.0
		}
	}
}
