{
	 "smiles": "CC(C)CCC(C)=O", 
	 "Tm": 199.15, 
	 "num_atms": 22, 
	 "gaussian": { 
		 "optdone": 1, 
		 "sigma_profile": "yes", 
		 "theory": "DFT", 
		 "functional": "B3LYP", 
		 "basiset": "6-31G**", 
		 "properties": { 
			 "R2extent": 1654.6989, 
			 "electric_dipole_moment_norm": 2.63479526529, 
			 "electric_quadrupole_moment_norm": 8.17791913814, 
			 "total_energy": -350.424196404, 
			 "HOMO_LUMO_gap": 0.23323, 
			 "cosmo_polarized_energy": -6.9, 
			 "cosmo_cavitation_energy": 24.11, 
			 "cosmo_dispersion_energy": -17.13, 
			 "cosmo_repulsion_energy": 1.45, 
			 "cosmo_total_nonelectrostatic_energy": 8.43, 
			 "SMD_solvation_energy": 4.89 
		},
		"coords": [
			{
				"x": 2.2602916101,
				"y": -0.5198123931,
				"z": 0.194608712,
				"element": "C" 
			},
			{
				"x": 1.695818608,
				"y": 0.5441596702,
				"z": -0.7598998706,
				"element": "C" 
			},
			{
				"x": 2.5588618591,
				"y": 0.6415808255,
				"z": -2.0268747063,
				"element": "C" 
			},
			{
				"x": 0.2247464345,
				"y": 0.2831879633,
				"z": -1.1360372761,
				"element": "C" 
			},
			{
				"x": -0.7566651701,
				"y": 0.3437652144,
				"z": 0.0360646635,
				"element": "C" 
			},
			{
				"x": -2.220282374,
				"y": 0.2362161081,
				"z": -0.3800816915,
				"element": "C" 
			},
			{
				"x": -3.2405637072,
				"y": 0.1733181208,
				"z": 0.7456869718,
				"element": "C" 
			},
			{
				"x": -2.5598901572,
				"y": 0.2004558016,
				"z": -1.547858817,
				"element": "O" 
			},
			{
				"x": 3.3102879961,
				"y": -0.3164440849,
				"z": 0.4312910719,
				"element": "H" 
			},
			{
				"x": 1.7137223083,
				"y": -0.5595120035,
				"z": 1.1424027587,
				"element": "H" 
			},
			{
				"x": 2.2109554014,
				"y": -1.5165652411,
				"z": -0.2613273004,
				"element": "H" 
			},
			{
				"x": 1.743427715,
				"y": 1.5171489307,
				"z": -0.2464778631,
				"element": "H" 
			},
			{
				"x": 2.5453109105,
				"y": -0.3041543397,
				"z": -2.5823203036,
				"element": "H" 
			},
			{
				"x": 3.602383456,
				"y": 0.8666450872,
				"z": -1.7811824869,
				"element": "H" 
			},
			{
				"x": 2.1944473154,
				"y": 1.4258552202,
				"z": -2.6990417216,
				"element": "H" 
			},
			{
				"x": -0.0940695388,
				"y": 1.0141200708,
				"z": -1.8873914215,
				"element": "H" 
			},
			{
				"x": 0.141141954,
				"y": -0.6963202837,
				"z": -1.6252102777,
				"element": "H" 
			},
			{
				"x": -0.5585506976,
				"y": -0.4421761053,
				"z": 0.7774166401,
				"element": "H" 
			},
			{
				"x": -0.6429454458,
				"y": 1.2890838294,
				"z": 0.5894094838,
				"element": "H" 
			},
			{
				"x": -4.249348209,
				"y": 0.2112190288,
				"z": 0.3321723736,
				"element": "H" 
			},
			{
				"x": -3.0965651354,
				"y": 0.9970759945,
				"z": 1.4538030578,
				"element": "H" 
			},
			{
				"x": -3.1169151331,
				"y": -0.7579474142,
				"z": 1.3115480029,
				"element": "H" 
			}
		],
		 "valence_orbital": [ 
			{
				"type": "occ",
				"energy": -0.34158,
				"method": "rhf"
			},
			{
				"type": "occ",
				"energy": -0.32184,
				"method": "rhf"
			},
			{
				"type": "occ",
				"energy": -0.32024,
				"method": "rhf"
			},
			{
				"type": "occ",
				"energy": -0.31755,
				"method": "rhf"
			},
			{
				"type": "occ",
				"energy": -0.24226,
				"method": "rhf"
			},
			{
				"type": "unocc",
				"energy": -0.00903,
				"method": "rhf"
			},
			{
				"type": "unocc",
				"energy": 0.0793,
				"method": "rhf"
			},
			{
				"type": "unocc",
				"energy": 0.0972,
				"method": "rhf"
			},
			{
				"type": "unocc",
				"energy": 0.12366,
				"method": "rhf"
			},
			{
				"type": "unocc",
				"energy": 0.13486,
				"method": "rhf"
			}
		],
		"cosmo_sigma_profile": { 
			"-0.025": 0.0,
			"-0.024": 0.0,
			"-0.023": 0.0,
			"-0.022": 0.0,
			"-0.021": 0.0,
			"-0.02": 0.0,
			"-0.019": 0.0,
			"-0.018": 0.0,
			"-0.017": 0.0,
			"-0.016": 0.0,
			"-0.015": 0.0,
			"-0.014": 0.0,
			"-0.013": 0.0,
			"-0.012": 0.0,
			"-0.011": 0.0,
			"-0.01": 0.0,
			"-0.009": 0.0,
			"-0.008": 0.0,
			"-0.007": 0.00138726053254,
			"-0.006": 5.55319352066,
			"-0.005": 10.6157684849,
			"-0.004": 10.4657894319,
			"-0.003": 14.938248553,
			"-0.002": 30.1083187892,
			"-0.001": 32.2302187967,
			"0.0": 24.6410861763,
			"0.001": 18.4597673323,
			"0.002": 13.8752869984,
			"0.003": 2.80665630298,
			"0.004": 1.5641124641,
			"0.005": 1.52024676075,
			"0.006": 2.08622680485,
			"0.007": 1.19837595166,
			"0.008": 1.62834231068,
			"0.009": 1.93599520368,
			"0.01": 2.14468973473,
			"0.011": 2.78796734421,
			"0.012": 3.88210170215,
			"0.013": 3.38638804829,
			"0.014": 0.299724765947,
			"0.015": 0.0,
			"0.016": 0.0,
			"0.017": 0.0,
			"0.018": 0.0,
			"0.019": 0.0,
			"0.02": 0.0,
			"0.021": 0.0,
			"0.022": 0.0,
			"0.023": 0.0,
			"0.024": 0.0,
			"0.025": 0.0
		}
	}
}
