{
	 "smiles": "O=C=NC1=CC=C(C=C1)C#N", 
	 "Tm": 375.15, 
	 "num_atms": 15, 
	 "gaussian": { 
		 "optdone": 1, 
		 "sigma_profile": "yes", 
		 "theory": "DFT", 
		 "functional": "B3LYP", 
		 "basiset": "6-31G**", 
		 "properties": { 
			 "R2extent": 2433.594, 
			 "electric_dipole_moment_norm": 2.18733669333, 
			 "electric_quadrupole_moment_norm": 24.4760308212, 
			 "total_energy": -491.967449712, 
			 "HOMO_LUMO_gap": 0.19249, 
			 "cosmo_polarized_energy": -10.24, 
			 "cosmo_cavitation_energy": 22.67, 
			 "cosmo_dispersion_energy": -15.59, 
			 "cosmo_repulsion_energy": 1.26, 
			 "cosmo_total_nonelectrostatic_energy": 8.34, 
			 "SMD_solvation_energy": 8.11 
		},
		"coords": [
			{
				"x": -0.6019307088,
				"y": -3.3842033582,
				"z": 3.6834178466,
				"element": "O" 
			},
			{
				"x": -0.6831206724,
				"y": -2.3960104908,
				"z": 3.0454240313,
				"element": "C" 
			},
			{
				"x": -0.8006960938,
				"y": -1.3341608695,
				"z": 2.4965191718,
				"element": "N" 
			},
			{
				"x": -0.7292372496,
				"y": -0.5365149267,
				"z": 1.3641969989,
				"element": "C" 
			},
			{
				"x": -1.8596915102,
				"y": -0.3761798344,
				"z": 0.5482960534,
				"element": "C" 
			},
			{
				"x": -1.7964524145,
				"y": 0.4468769474,
				"z": -0.5688915698,
				"element": "C" 
			},
			{
				"x": -0.6064999978,
				"y": 1.1274213918,
				"z": -0.879577783,
				"element": "C" 
			},
			{
				"x": 0.5193485459,
				"y": 0.9723907285,
				"z": -0.0524871512,
				"element": "C" 
			},
			{
				"x": 0.4577511723,
				"y": 0.1497045665,
				"z": 1.0650676236,
				"element": "C" 
			},
			{
				"x": -0.5423905118,
				"y": 1.9771126453,
				"z": -2.0317611846,
				"element": "C" 
			},
			{
				"x": -0.4901529405,
				"y": 2.6663769594,
				"z": -2.9675180297,
				"element": "N" 
			},
			{
				"x": -2.775397081,
				"y": -0.9002626521,
				"z": 0.7987330482,
				"element": "H" 
			},
			{
				"x": -2.6662245385,
				"y": 0.5688450795,
				"z": -1.2053081919,
				"element": "H" 
			},
			{
				"x": 1.4367007337,
				"y": 1.4998993424,
				"z": -0.2904040023,
				"element": "H" 
			},
			{
				"x": 1.319693267,
				"y": 0.0290044709,
				"z": 1.7118931387,
				"element": "H" 
			}
		],
		 "valence_orbital": [ 
			{
				"type": "occ",
				"energy": -0.33741,
				"method": "rhf"
			},
			{
				"type": "occ",
				"energy": -0.33127,
				"method": "rhf"
			},
			{
				"type": "occ",
				"energy": -0.31158,
				"method": "rhf"
			},
			{
				"type": "occ",
				"energy": -0.29102,
				"method": "rhf"
			},
			{
				"type": "occ",
				"energy": -0.26049,
				"method": "rhf"
			},
			{
				"type": "unocc",
				"energy": -0.068,
				"method": "rhf"
			},
			{
				"type": "unocc",
				"energy": -0.03882,
				"method": "rhf"
			},
			{
				"type": "unocc",
				"energy": 0.01932,
				"method": "rhf"
			},
			{
				"type": "unocc",
				"energy": 0.02853,
				"method": "rhf"
			},
			{
				"type": "unocc",
				"energy": 0.04402,
				"method": "rhf"
			}
		],
		"cosmo_sigma_profile": { 
			"-0.025": 0.0,
			"-0.024": 0.0,
			"-0.023": 0.0,
			"-0.022": 0.0,
			"-0.021": 0.0,
			"-0.02": 0.0,
			"-0.019": 0.0,
			"-0.018": 0.0,
			"-0.017": 0.0,
			"-0.016": 0.0,
			"-0.015": 0.0,
			"-0.014": 0.0,
			"-0.013": 0.0,
			"-0.012": 0.0,
			"-0.011": 0.0,
			"-0.01": 0.0,
			"-0.009": 1.00259851124,
			"-0.008": 8.34095170705,
			"-0.007": 9.64254597247,
			"-0.006": 10.0551204579,
			"-0.005": 12.9314791852,
			"-0.004": 10.5537893993,
			"-0.003": 13.0996749825,
			"-0.002": 11.5373328443,
			"-0.001": 14.7616458983,
			"0.0": 16.7933408431,
			"0.001": 18.7873245249,
			"0.002": 9.73169040649,
			"0.003": 5.11707604079,
			"0.004": 4.35066412944,
			"0.005": 4.27146450228,
			"0.006": 4.8368910223,
			"0.007": 9.11821793022,
			"0.008": 7.51110516661,
			"0.009": 3.33918814786,
			"0.01": 3.26314336787,
			"0.011": 2.69867311489,
			"0.012": 2.45187309633,
			"0.013": 1.43514594711,
			"0.014": 0.0114768736357,
			"0.015": 0.0,
			"0.016": 0.0,
			"0.017": 0.0,
			"0.018": 0.0,
			"0.019": 0.0,
			"0.02": 0.0,
			"0.021": 0.0,
			"0.022": 0.0,
			"0.023": 0.0,
			"0.024": 0.0,
			"0.025": 0.0
		}
	}
}
