{
	 "smiles": "CS(=O)(=O)C1=CSC(C(O)=O)=C1Cl", 
	 "Tm": 508.15, 
	 "num_atms": 18, 
	 "gaussian": { 
		 "optdone": 1, 
		 "sigma_profile": "yes", 
		 "theory": "DFT", 
		 "functional": "B3LYP", 
		 "basiset": "6-31G**", 
		 "properties": { 
			 "R2extent": 4188.9232, 
			 "electric_dipole_moment_norm": 3.79608467503, 
			 "electric_quadrupole_moment_norm": 27.3092797939, 
			 "total_energy": -1789.03009294, 
			 "HOMO_LUMO_gap": 0.19649, 
			 "cosmo_polarized_energy": -20.15, 
			 "cosmo_cavitation_energy": 27.29, 
			 "cosmo_dispersion_energy": -21.16, 
			 "cosmo_repulsion_energy": 1.56, 
			 "cosmo_total_nonelectrostatic_energy": 7.69, 
			 "SMD_solvation_energy": 5.48 
		},
		"coords": [
			{
				"x": 1.692925519,
				"y": 1.4197716863,
				"z": -0.9171159964,
				"element": "C" 
			},
			{
				"x": 1.1928436364,
				"y": 0.5998503484,
				"z": 0.6105605822,
				"element": "S" 
			},
			{
				"x": 1.1656221516,
				"y": 1.601423177,
				"z": 1.6813207414,
				"element": "O" 
			},
			{
				"x": 1.9804865049,
				"y": -0.6333982875,
				"z": 0.7404956417,
				"element": "O" 
			},
			{
				"x": -0.4942743446,
				"y": 0.064780461,
				"z": 0.2805223474,
				"element": "C" 
			},
			{
				"x": -0.7782498342,
				"y": -1.2732047911,
				"z": 0.1791397185,
				"element": "C" 
			},
			{
				"x": -2.4499765751,
				"y": -1.5720316116,
				"z": -0.0638189008,
				"element": "S" 
			},
			{
				"x": -2.8189758575,
				"y": 0.1332618148,
				"z": -0.0372694932,
				"element": "C" 
			},
			{
				"x": -4.2570140465,
				"y": 0.4754947279,
				"z": -0.2276385815,
				"element": "C" 
			},
			{
				"x": -4.617571339,
				"y": 1.7702663634,
				"z": -0.2037885264,
				"element": "O" 
			},
			{
				"x": -5.0755783492,
				"y": -0.39964261,
				"z": -0.4019727873,
				"element": "O" 
			},
			{
				"x": -1.6697129385,
				"y": 0.8691446905,
				"z": 0.160904776,
				"element": "C" 
			},
			{
				"x": -1.6313996056,
				"y": 2.6131109502,
				"z": 0.2495124911,
				"element": "Cl" 
			},
			{
				"x": 2.718145969,
				"y": 1.7583728788,
				"z": -0.7526140751,
				"element": "H" 
			},
			{
				"x": 1.6562909518,
				"y": 0.6999276613,
				"z": -1.735703175,
				"element": "H" 
			},
			{
				"x": 1.0393752412,
				"y": 2.2729124249,
				"z": -1.102770314,
				"element": "H" 
			},
			{
				"x": -0.0588288819,
				"y": -2.0772251328,
				"z": 0.2545497734,
				"element": "H" 
			},
			{
				"x": -3.8575082018,
				"y": 2.3538852486,
				"z": -0.0452142221,
				"element": "H" 
			}
		],
		 "valence_orbital": [ 
			{
				"type": "occ",
				"energy": -0.31572,
				"method": "rhf"
			},
			{
				"type": "occ",
				"energy": -0.31508,
				"method": "rhf"
			},
			{
				"type": "occ",
				"energy": -0.29669,
				"method": "rhf"
			},
			{
				"type": "occ",
				"energy": -0.29488,
				"method": "rhf"
			},
			{
				"type": "occ",
				"energy": -0.28482,
				"method": "rhf"
			},
			{
				"type": "unocc",
				"energy": -0.08833,
				"method": "rhf"
			},
			{
				"type": "unocc",
				"energy": -0.03405,
				"method": "rhf"
			},
			{
				"type": "unocc",
				"energy": -0.03246,
				"method": "rhf"
			},
			{
				"type": "unocc",
				"energy": 0.00361,
				"method": "rhf"
			},
			{
				"type": "unocc",
				"energy": 0.04746,
				"method": "rhf"
			}
		],
		"cosmo_sigma_profile": { 
			"-0.025": 0.0,
			"-0.024": 0.0,
			"-0.023": 0.0,
			"-0.022": 0.0,
			"-0.021": 0.0,
			"-0.02": 0.0,
			"-0.019": 0.0,
			"-0.018": 0.0,
			"-0.017": 0.0,
			"-0.016": 0.0,
			"-0.015": 0.0,
			"-0.014": 0.264590347761,
			"-0.013": 0.84122683594,
			"-0.012": 1.50756878335,
			"-0.011": 3.94509088006,
			"-0.01": 3.54899250608,
			"-0.009": 7.21340872246,
			"-0.008": 8.46014188193,
			"-0.007": 9.6798013324,
			"-0.006": 10.3981044491,
			"-0.005": 14.6573298554,
			"-0.004": 14.9208482773,
			"-0.003": 16.7378051138,
			"-0.002": 18.9738810778,
			"-0.001": 12.8234573854,
			"0.0": 12.8440530298,
			"0.001": 10.4206806607,
			"0.002": 5.25374510383,
			"0.003": 5.01426810703,
			"0.004": 4.93884261955,
			"0.005": 5.04975649284,
			"0.006": 4.42027391484,
			"0.007": 6.10832638006,
			"0.008": 7.23391987582,
			"0.009": 7.93142035492,
			"0.01": 12.9662873027,
			"0.011": 13.5880699955,
			"0.012": 3.87609788025,
			"0.013": 0.152432791571,
			"0.014": 0.0,
			"0.015": 0.0,
			"0.016": 0.0,
			"0.017": 0.0,
			"0.018": 0.0,
			"0.019": 0.0,
			"0.02": 0.0,
			"0.021": 0.0,
			"0.022": 0.0,
			"0.023": 0.0,
			"0.024": 0.0,
			"0.025": 0.0
		}
	}
}
