{
	 "smiles": "ClC1=CC=C(C=C1)C(=O)C=CC1=CC=C(Br)C=C1", 
	 "Tm": 441.15, 
	 "num_atms": 28, 
	 "gaussian": { 
		 "optdone": 1, 
		 "sigma_profile": "yes", 
		 "theory": "DFT", 
		 "functional": "B3LYP", 
		 "basiset": "6-31G**", 
		 "properties": { 
			 "R2extent": 13269.4166, 
			 "electric_dipole_moment_norm": 2.2153070487, 
			 "electric_quadrupole_moment_norm": 9.71614319522, 
			 "total_energy": -3684.43177647, 
			 "HOMO_LUMO_gap": 0.15433, 
			 "cosmo_polarized_energy": -11.32, 
			 "cosmo_cavitation_energy": 37.84, 
			 "cosmo_dispersion_energy": -27.61, 
			 "cosmo_repulsion_energy": 2.13, 
			 "cosmo_total_nonelectrostatic_energy": 12.36, 
			 "SMD_solvation_energy": 5.4 
		},
		"coords": [
			{
				"x": -2.4419731664,
				"y": 6.0642588441,
				"z": 0.3375858374,
				"element": "Cl" 
			},
			{
				"x": -1.610150058,
				"y": 4.7276770746,
				"z": 1.1130265422,
				"element": "C" 
			},
			{
				"x": -2.1950322788,
				"y": 3.4620875267,
				"z": 1.1069971355,
				"element": "C" 
			},
			{
				"x": -1.522809015,
				"y": 2.4013357532,
				"z": 1.713872729,
				"element": "C" 
			},
			{
				"x": -0.2790853911,
				"y": 2.5990024047,
				"z": 2.331789674,
				"element": "C" 
			},
			{
				"x": 0.2713390616,
				"y": 3.890270864,
				"z": 2.3491116459,
				"element": "C" 
			},
			{
				"x": -0.3783704413,
				"y": 4.9537225525,
				"z": 1.7325594592,
				"element": "C" 
			},
			{
				"x": 0.4636800665,
				"y": 1.5153332947,
				"z": 3.0591768549,
				"element": "C" 
			},
			{
				"x": 1.1886231185,
				"y": 1.803867933,
				"z": 4.0078761373,
				"element": "O" 
			},
			{
				"x": 0.3586093069,
				"y": 0.0952993627,
				"z": 2.6463421241,
				"element": "C" 
			},
			{
				"x": 0.0853989683,
				"y": -0.3434665851,
				"z": 1.4004512799,
				"element": "C" 
			},
			{
				"x": 0.0925660313,
				"y": -1.7314558802,
				"z": 0.931213266,
				"element": "C" 
			},
			{
				"x": -0.1520387385,
				"y": -1.9862981264,
				"z": -0.4303191984,
				"element": "C" 
			},
			{
				"x": -0.1620045637,
				"y": -3.2825325756,
				"z": -0.9393467957,
				"element": "C" 
			},
			{
				"x": 0.0745464435,
				"y": -4.3495467619,
				"z": -0.075005113,
				"element": "C" 
			},
			{
				"x": 0.0631916584,
				"y": -6.1320736179,
				"z": -0.7527608142,
				"element": "Br" 
			},
			{
				"x": 0.3191782866,
				"y": -4.1327055246,
				"z": 1.2833488992,
				"element": "C" 
			},
			{
				"x": 0.3269235355,
				"y": -2.8333868337,
				"z": 1.7765502021,
				"element": "C" 
			},
			{
				"x": -3.1626053744,
				"y": 3.3124012424,
				"z": 0.6410739178,
				"element": "H" 
			},
			{
				"x": -1.98843725,
				"y": 1.4219555534,
				"z": 1.7310390301,
				"element": "H" 
			},
			{
				"x": 1.2173500526,
				"y": 4.042099988,
				"z": 2.8579015017,
				"element": "H" 
			},
			{
				"x": 0.054317841,
				"y": 5.9480042796,
				"z": 1.733638284,
				"element": "H" 
			},
			{
				"x": 0.6655078056,
				"y": -0.5913550495,
				"z": 3.4311145339,
				"element": "H" 
			},
			{
				"x": -0.144524588,
				"y": 0.3934096173,
				"z": 0.6337694482,
				"element": "H" 
			},
			{
				"x": -0.3357353213,
				"y": -1.15271348,
				"z": -1.1030431986,
				"element": "H" 
			},
			{
				"x": -0.3507660548,
				"y": -3.4623654853,
				"z": -1.9914202365,
				"element": "H" 
			},
			{
				"x": 0.5002768913,
				"y": -4.9731991081,
				"z": 1.9434819696,
				"element": "H" 
			},
			{
				"x": 0.5159231736,
				"y": -2.6784272625,
				"z": 2.8337748844,
				"element": "H" 
			}
		],
		 "valence_orbital": [ 
			{
				"type": "occ",
				"energy": -0.27852,
				"method": "rhf"
			},
			{
				"type": "occ",
				"energy": -0.27458,
				"method": "rhf"
			},
			{
				"type": "occ",
				"energy": -0.26175,
				"method": "rhf"
			},
			{
				"type": "occ",
				"energy": -0.2512,
				"method": "rhf"
			},
			{
				"type": "occ",
				"energy": -0.23943,
				"method": "rhf"
			},
			{
				"type": "unocc",
				"energy": -0.0851,
				"method": "rhf"
			},
			{
				"type": "unocc",
				"energy": -0.04206,
				"method": "rhf"
			},
			{
				"type": "unocc",
				"energy": -0.02701,
				"method": "rhf"
			},
			{
				"type": "unocc",
				"energy": -0.02405,
				"method": "rhf"
			},
			{
				"type": "unocc",
				"energy": -0.00276,
				"method": "rhf"
			}
		],
		"cosmo_sigma_profile": { 
			"-0.025": 0.0,
			"-0.024": 0.0,
			"-0.023": 0.0,
			"-0.022": 0.0,
			"-0.021": 0.0,
			"-0.02": 0.0,
			"-0.019": 0.0,
			"-0.018": 0.0,
			"-0.017": 0.0,
			"-0.016": 0.0,
			"-0.015": 0.0,
			"-0.014": 0.0,
			"-0.013": 0.0,
			"-0.012": 0.0,
			"-0.011": 0.0,
			"-0.01": 0.0,
			"-0.009": 0.848103467589,
			"-0.008": 6.33026827575,
			"-0.007": 15.1708750919,
			"-0.006": 16.5456118499,
			"-0.005": 18.1740643225,
			"-0.004": 15.5263466001,
			"-0.003": 16.660931437,
			"-0.002": 20.6208847676,
			"-0.001": 19.7857189076,
			"0.0": 24.8730284866,
			"0.001": 34.2239786429,
			"0.002": 42.0543805435,
			"0.003": 31.8524331338,
			"0.004": 23.2265162088,
			"0.005": 6.854540863,
			"0.006": 2.30882219262,
			"0.007": 1.29419755755,
			"0.008": 0.717798864778,
			"0.009": 1.91439099158,
			"0.01": 2.27455987298,
			"0.011": 2.18292661881,
			"0.012": 4.53893243769,
			"0.013": 2.45687074625,
			"0.014": 0.197997798167,
			"0.015": 0.0,
			"0.016": 0.0,
			"0.017": 0.0,
			"0.018": 0.0,
			"0.019": 0.0,
			"0.02": 0.0,
			"0.021": 0.0,
			"0.022": 0.0,
			"0.023": 0.0,
			"0.024": 0.0,
			"0.025": 0.0
		}
	}
}
