{
	 "smiles": "CC(NC(=O)C1=CC=C(Cl)C=C1)C(O)=O", 
	 "Tm": 432.15, 
	 "num_atms": 25, 
	 "gaussian": { 
		 "optdone": 1, 
		 "sigma_profile": "yes", 
		 "theory": "DFT", 
		 "functional": "B3LYP", 
		 "basiset": "6-31G**", 
		 "properties": { 
			 "R2extent": 6297.2794, 
			 "electric_dipole_moment_norm": 2.90395868256, 
			 "electric_quadrupole_moment_norm": 12.5998714251, 
			 "total_energy": -1127.7341748, 
			 "HOMO_LUMO_gap": 0.20148, 
			 "cosmo_polarized_energy": -16.7, 
			 "cosmo_cavitation_energy": 32.13, 
			 "cosmo_dispersion_energy": -22.33, 
			 "cosmo_repulsion_energy": 1.79, 
			 "cosmo_total_nonelectrostatic_energy": 11.58, 
			 "SMD_solvation_energy": 6.78 
		},
		"coords": [
			{
				"x": 0.5504904396,
				"y": -0.5771313329,
				"z": -2.0414820178,
				"element": "C" 
			},
			{
				"x": 0.6841815377,
				"y": -0.8830028069,
				"z": -0.5390322587,
				"element": "C" 
			},
			{
				"x": -0.3721436784,
				"y": -0.232874454,
				"z": 0.2324306266,
				"element": "N" 
			},
			{
				"x": -0.2490892547,
				"y": 0.3432407969,
				"z": 1.4857604078,
				"element": "C" 
			},
			{
				"x": -1.1893586858,
				"y": 0.3346441719,
				"z": 2.2714149651,
				"element": "O" 
			},
			{
				"x": 1.034885511,
				"y": 1.0403755505,
				"z": 1.8337838092,
				"element": "C" 
			},
			{
				"x": 1.78336489,
				"y": 1.7795777762,
				"z": 0.9076431265,
				"element": "C" 
			},
			{
				"x": 2.9262766403,
				"y": 2.4725766349,
				"z": 1.3054382264,
				"element": "C" 
			},
			{
				"x": 3.3220878193,
				"y": 2.4159079204,
				"z": 2.6413925034,
				"element": "C" 
			},
			{
				"x": 4.7671230426,
				"y": 3.2737805667,
				"z": 3.1478848498,
				"element": "Cl" 
			},
			{
				"x": 2.5842368702,
				"y": 1.6985176465,
				"z": 3.585011275,
				"element": "C" 
			},
			{
				"x": 1.4362666712,
				"y": 1.0262853353,
				"z": 3.1764945678,
				"element": "C" 
			},
			{
				"x": 0.7060542978,
				"y": -2.4019012059,
				"z": -0.3426458166,
				"element": "C" 
			},
			{
				"x": -0.5371914839,
				"y": -2.9151353884,
				"z": -0.1898464062,
				"element": "O" 
			},
			{
				"x": 1.7057154735,
				"y": -3.0813106,
				"z": -0.372054109,
				"element": "O" 
			},
			{
				"x": 0.6172431362,
				"y": 0.5010459481,
				"z": -2.2086999527,
				"element": "H" 
			},
			{
				"x": 1.3441248504,
				"y": -1.074077518,
				"z": -2.6062087499,
				"element": "H" 
			},
			{
				"x": -0.4157394712,
				"y": -0.9230963592,
				"z": -2.4216032817,
				"element": "H" 
			},
			{
				"x": 1.6514827149,
				"y": -0.531190618,
				"z": -0.1812020604,
				"element": "H" 
			},
			{
				"x": -1.2857270176,
				"y": -0.6636390908,
				"z": 0.1327308024,
				"element": "H" 
			},
			{
				"x": 1.4581052159,
				"y": 1.8457433905,
				"z": -0.1258546009,
				"element": "H" 
			},
			{
				"x": 3.499115809,
				"y": 3.0549340087,
				"z": 0.5925064247,
				"element": "H" 
			},
			{
				"x": 2.9026594629,
				"y": 1.6768473239,
				"z": 4.6212209208,
				"element": "H" 
			},
			{
				"x": 0.8303023394,
				"y": 0.4858258727,
				"z": 3.8958079033,
				"element": "H" 
			},
			{
				"x": -0.4336671303,
				"y": -3.8774435693,
				"z": -0.0997911549,
				"element": "H" 
			}
		],
		 "valence_orbital": [ 
			{
				"type": "occ",
				"energy": -0.30718,
				"method": "rhf"
			},
			{
				"type": "occ",
				"energy": -0.27475,
				"method": "rhf"
			},
			{
				"type": "occ",
				"energy": -0.26798,
				"method": "rhf"
			},
			{
				"type": "occ",
				"energy": -0.25681,
				"method": "rhf"
			},
			{
				"type": "occ",
				"energy": -0.24786,
				"method": "rhf"
			},
			{
				"type": "unocc",
				"energy": -0.04638,
				"method": "rhf"
			},
			{
				"type": "unocc",
				"energy": -0.02493,
				"method": "rhf"
			},
			{
				"type": "unocc",
				"energy": -0.00832,
				"method": "rhf"
			},
			{
				"type": "unocc",
				"energy": 0.02293,
				"method": "rhf"
			},
			{
				"type": "unocc",
				"energy": 0.03762,
				"method": "rhf"
			}
		],
		"cosmo_sigma_profile": { 
			"-0.025": 0.0,
			"-0.024": 0.0,
			"-0.023": 0.0,
			"-0.022": 0.0,
			"-0.021": 0.0,
			"-0.02": 0.0,
			"-0.019": 0.412288488628,
			"-0.018": 1.061917886,
			"-0.017": 0.518694644192,
			"-0.016": 1.09552289459,
			"-0.015": 1.03392437556,
			"-0.014": 0.563734540033,
			"-0.013": 0.110791620754,
			"-0.012": 1.36984338833,
			"-0.011": 1.36769453382,
			"-0.01": 1.22550243687,
			"-0.009": 1.66511902134,
			"-0.008": 2.58699799256,
			"-0.007": 9.72367582724,
			"-0.006": 15.7353755157,
			"-0.005": 16.154018517,
			"-0.004": 15.7072773846,
			"-0.003": 19.022043361,
			"-0.002": 16.9758821214,
			"-0.001": 19.5999445377,
			"0.0": 16.3911753476,
			"0.001": 20.2431950397,
			"0.002": 21.7428072909,
			"0.003": 15.3471861893,
			"0.004": 15.580266419,
			"0.005": 7.06294048836,
			"0.006": 3.81805445127,
			"0.007": 3.30345041539,
			"0.008": 2.41165198352,
			"0.009": 2.41046727001,
			"0.01": 4.4850899052,
			"0.011": 6.63543486663,
			"0.012": 5.44892057509,
			"0.013": 5.54772173788,
			"0.014": 1.38749151576,
			"0.015": 0.0,
			"0.016": 0.0,
			"0.017": 0.0,
			"0.018": 0.0,
			"0.019": 0.0,
			"0.02": 0.0,
			"0.021": 0.0,
			"0.022": 0.0,
			"0.023": 0.0,
			"0.024": 0.0,
			"0.0": 0.0
		}
	}
}
