{
	 "smiles": "C[C@H]1CCCC[C@H]1O", 
	 "Tm": 280.15, 
	 "num_atms": 22, 
	 "gaussian": { 
		 "optdone": 1, 
		 "sigma_profile": "yes", 
		 "theory": "DFT", 
		 "functional": "B3LYP", 
		 "basiset": "6-31G**", 
		 "properties": { 
			 "R2extent": 1157.4519, 
			 "electric_dipole_moment_norm": 1.63586134498, 
			 "electric_quadrupole_moment_norm": 6.10767014745, 
			 "total_energy": -350.410898765, 
			 "HOMO_LUMO_gap": 0.31926, 
			 "cosmo_polarized_energy": -5.76, 
			 "cosmo_cavitation_energy": 22.0, 
			 "cosmo_dispersion_energy": -16.51, 
			 "cosmo_repulsion_energy": 1.37, 
			 "cosmo_total_nonelectrostatic_energy": 6.86, 
			 "SMD_solvation_energy": 3.03 
		},
		"coords": [
			{
				"x": 0.8038075153,
				"y": 1.7737107347,
				"z": 0.119931124,
				"element": "C" 
			},
			{
				"x": 0.2900727532,
				"y": 0.3899688835,
				"z": -0.2888184986,
				"element": "C" 
			},
			{
				"x": 1.1876865723,
				"y": -0.3046665748,
				"z": -1.3272907001,
				"element": "C" 
			},
			{
				"x": 0.5022892393,
				"y": -1.5620067968,
				"z": -1.9161805072,
				"element": "C" 
			},
			{
				"x": -0.4628316059,
				"y": -2.2264709156,
				"z": -0.9049858814,
				"element": "C" 
			},
			{
				"x": 0.0347814401,
				"y": -2.0313672876,
				"z": 0.5321430679,
				"element": "C" 
			},
			{
				"x": 0.0686666131,
				"y": -0.5401354985,
				"z": 0.9410758834,
				"element": "C" 
			},
			{
				"x": 1.0189973038,
				"y": -0.3282617344,
				"z": 1.9863852676,
				"element": "O" 
			},
			{
				"x": 1.7989184703,
				"y": 1.7130971104,
				"z": 0.5701251734,
				"element": "H" 
			},
			{
				"x": 0.8620630257,
				"y": 2.4356343463,
				"z": -0.7507943271,
				"element": "H" 
			},
			{
				"x": 0.1445605357,
				"y": 2.2402442868,
				"z": 0.8591142506,
				"element": "H" 
			},
			{
				"x": -0.6965783697,
				"y": 0.5278139936,
				"z": -0.7549440591,
				"element": "H" 
			},
			{
				"x": 1.4560710915,
				"y": 0.3927577612,
				"z": -2.1289816857,
				"element": "H" 
			},
			{
				"x": 2.1382548803,
				"y": -0.5820290416,
				"z": -0.8482517649,
				"element": "H" 
			},
			{
				"x": 1.2680127512,
				"y": -2.2829742947,
				"z": -2.2266414805,
				"element": "H" 
			},
			{
				"x": -0.0503815492,
				"y": -1.2936331489,
				"z": -2.824136491,
				"element": "H" 
			},
			{
				"x": -0.5741560564,
				"y": -3.2924506548,
				"z": -1.131650206,
				"element": "H" 
			},
			{
				"x": -1.4660076013,
				"y": -1.791474269,
				"z": -0.9999569997,
				"element": "H" 
			},
			{
				"x": -0.5648093915,
				"y": -2.6009013755,
				"z": 1.2498416845,
				"element": "H" 
			},
			{
				"x": 1.0571873133,
				"y": -2.4309682306,
				"z": 0.6084864351,
				"element": "H" 
			},
			{
				"x": -0.887951774,
				"y": -0.2642963752,
				"z": 1.4006540586,
				"element": "H" 
			},
			{
				"x": 1.8794468428,
				"y": -0.6322909186,
				"z": 1.6668756561,
				"element": "H" 
			}
		],
		 "valence_orbital": [ 
			{
				"type": "occ",
				"energy": -0.33672,
				"method": "rhf"
			},
			{
				"type": "occ",
				"energy": -0.31453,
				"method": "rhf"
			},
			{
				"type": "occ",
				"energy": -0.30387,
				"method": "rhf"
			},
			{
				"type": "occ",
				"energy": -0.2883,
				"method": "rhf"
			},
			{
				"type": "occ",
				"energy": -0.25471,
				"method": "rhf"
			},
			{
				"type": "unocc",
				"energy": 0.06455,
				"method": "rhf"
			},
			{
				"type": "unocc",
				"energy": 0.08677,
				"method": "rhf"
			},
			{
				"type": "unocc",
				"energy": 0.10114,
				"method": "rhf"
			},
			{
				"type": "unocc",
				"energy": 0.13511,
				"method": "rhf"
			},
			{
				"type": "unocc",
				"energy": 0.14001,
				"method": "rhf"
			}
		],
		"cosmo_sigma_profile": { 
			"-0.025": 0.0,
			"-0.024": 0.0,
			"-0.023": 0.0,
			"-0.022": 0.0,
			"-0.021": 0.0,
			"-0.02": 0.0,
			"-0.019": 0.0,
			"-0.018": 0.0,
			"-0.017": 0.0,
			"-0.016": 0.0,
			"-0.015": 0.0,
			"-0.014": 0.318233617836,
			"-0.013": 0.596958058709,
			"-0.012": 0.786669741625,
			"-0.011": 1.18184584416,
			"-0.01": 1.33682114392,
			"-0.009": 1.39902592816,
			"-0.008": 1.32140158506,
			"-0.007": 1.16699227694,
			"-0.006": 1.50583452065,
			"-0.005": 1.65057765707,
			"-0.004": 1.90771399186,
			"-0.003": 8.91752331153,
			"-0.002": 29.2459092183,
			"-0.001": 30.5655893107,
			"0.0": 30.1350915837,
			"0.001": 23.9633516326,
			"0.002": 12.6595826133,
			"0.003": 2.60898862215,
			"0.004": 1.57460890873,
			"0.005": 1.30436785858,
			"0.006": 1.50485868045,
			"0.007": 0.904407978683,
			"0.008": 1.00572334814,
			"0.009": 1.51926124533,
			"0.01": 1.06567341831,
			"0.011": 1.48308471739,
			"0.012": 1.27693084204,
			"0.013": 1.29109289419,
			"0.014": 1.85004553579,
			"0.015": 1.92739965638,
			"0.016": 0.030536600672,
			"0.017": 0.0,
			"0.018": 0.0,
			"0.019": 0.0,
			"0.02": 0.0,
			"0.021": 0.0,
			"0.022": 0.0,
			"0.023": 0.0,
			"0.024": 0.0,
			"0.025": 0.0
		}
	}
}
