{
	 "smiles": "CC(O)C(C)C1=NC2=C(C=CC=C2)C=C1", 
	 "Tm": 343.15, 
	 "num_atms": 30, 
	 "gaussian": { 
		 "optdone": 1, 
		 "sigma_profile": "yes", 
		 "theory": "DFT", 
		 "functional": "B3LYP", 
		 "basiset": "6-31G**", 
		 "properties": { 
			 "R2extent": 3686.7581, 
			 "electric_dipole_moment_norm": 3.91497918385, 
			 "electric_quadrupole_moment_norm": 8.763961198, 
			 "total_energy": -634.421608008, 
			 "HOMO_LUMO_gap": 0.17635, 
			 "cosmo_polarized_energy": -9.26, 
			 "cosmo_cavitation_energy": 32.01, 
			 "cosmo_dispersion_energy": -22.72, 
			 "cosmo_repulsion_energy": 1.77, 
			 "cosmo_total_nonelectrostatic_energy": 11.06, 
			 "SMD_solvation_energy": 4.64 
		},
		"coords": [
			{
				"x": 3.6332998924,
				"y": -0.6457195387,
				"z": -1.1758707555,
				"element": "C" 
			},
			{
				"x": 3.4312220655,
				"y": 0.2102939193,
				"z": 0.0806184658,
				"element": "C" 
			},
			{
				"x": 2.9068494492,
				"y": -0.5573709602,
				"z": 1.1523959302,
				"element": "O" 
			},
			{
				"x": 2.5849266683,
				"y": 1.4875442111,
				"z": -0.1841332671,
				"element": "C" 
			},
			{
				"x": 2.5076139611,
				"y": 2.3617591258,
				"z": 1.0835934814,
				"element": "C" 
			},
			{
				"x": 1.1853325316,
				"y": 1.177439493,
				"z": -0.6927239039,
				"element": "C" 
			},
			{
				"x": 0.5073224361,
				"y": 0.2158695542,
				"z": -0.081305444,
				"element": "N" 
			},
			{
				"x": -0.7651704971,
				"y": -0.07242957,
				"z": -0.4844305625,
				"element": "C" 
			},
			{
				"x": -1.4051352229,
				"y": 0.6382762963,
				"z": -1.5474224596,
				"element": "C" 
			},
			{
				"x": -2.7315680311,
				"y": 0.2925124623,
				"z": -1.9152936081,
				"element": "C" 
			},
			{
				"x": -3.3964295706,
				"y": -0.7177710346,
				"z": -1.2569465571,
				"element": "C" 
			},
			{
				"x": -2.7612517568,
				"y": -1.4230302983,
				"z": -0.2045053955,
				"element": "C" 
			},
			{
				"x": -1.474971533,
				"y": -1.109725249,
				"z": 0.1752971578,
				"element": "C" 
			},
			{
				"x": -0.6570017431,
				"y": 1.6614881807,
				"z": -2.1834921263,
				"element": "C" 
			},
			{
				"x": 0.6233864446,
				"y": 1.9277611566,
				"z": -1.7650753896,
				"element": "C" 
			},
			{
				"x": 4.1198057902,
				"y": -0.0761084812,
				"z": -1.976689986,
				"element": "H" 
			},
			{
				"x": 2.6787749274,
				"y": -1.0241238949,
				"z": -1.5556322653,
				"element": "H" 
			},
			{
				"x": 4.2627715252,
				"y": -1.5062228104,
				"z": -0.9329142053,
				"element": "H" 
			},
			{
				"x": 4.4174860255,
				"y": 0.5570725007,
				"z": 0.4192838627,
				"element": "H" 
			},
			{
				"x": 1.9533547824,
				"y": -0.6433419797,
				"z": 0.9625848049,
				"element": "H" 
			},
			{
				"x": 3.0991855188,
				"y": 2.0609233747,
				"z": -0.9668933343,
				"element": "H" 
			},
			{
				"x": 1.9198457677,
				"y": 3.2687590692,
				"z": 0.9096047245,
				"element": "H" 
			},
			{
				"x": 3.512488603,
				"y": 2.6608650043,
				"z": 1.4000604738,
				"element": "H" 
			},
			{
				"x": 2.0502197245,
				"y": 1.7968796018,
				"z": 1.8988339511,
				"element": "H" 
			},
			{
				"x": -3.211676326,
				"y": 0.8372164225,
				"z": -2.7243296092,
				"element": "H" 
			},
			{
				"x": -4.4112055098,
				"y": -0.9788056513,
				"z": -1.5420380063,
				"element": "H" 
			},
			{
				"x": -3.2978224695,
				"y": -2.2176396535,
				"z": 0.3057201209,
				"element": "H" 
			},
			{
				"x": -0.9740286787,
				"y": -1.6381479963,
				"z": 0.9800952991,
				"element": "H" 
			},
			{
				"x": -1.1054981552,
				"y": 2.2220348902,
				"z": -3.0002028327,
				"element": "H" 
			},
			{
				"x": 1.2161733802,
				"y": 2.7032418556,
				"z": -2.2400885636,
				"element": "H" 
			}
		],
		 "valence_orbital": [ 
			{
				"type": "occ",
				"energy": -0.3069,
				"method": "rhf"
			},
			{
				"type": "occ",
				"energy": -0.25584,
				"method": "rhf"
			},
			{
				"type": "occ",
				"energy": -0.2536,
				"method": "rhf"
			},
			{
				"type": "occ",
				"energy": -0.24187,
				"method": "rhf"
			},
			{
				"type": "occ",
				"energy": -0.23615,
				"method": "rhf"
			},
			{
				"type": "unocc",
				"energy": -0.0598,
				"method": "rhf"
			},
			{
				"type": "unocc",
				"energy": -0.02088,
				"method": "rhf"
			},
			{
				"type": "unocc",
				"energy": 0.01342,
				"method": "rhf"
			},
			{
				"type": "unocc",
				"energy": 0.08036,
				"method": "rhf"
			},
			{
				"type": "unocc",
				"energy": 0.0861,
				"method": "rhf"
			}
		],
		"cosmo_sigma_profile": { 
			"-0.025": 0.0,
			"-0.024": 0.0,
			"-0.023": 0.0,
			"-0.022": 0.0,
			"-0.021": 0.0,
			"-0.02": 0.0,
			"-0.019": 0.0,
			"-0.018": 0.0,
			"-0.017": 0.0,
			"-0.016": 0.0,
			"-0.015": 0.0,
			"-0.014": 0.0,
			"-0.013": 0.0,
			"-0.012": 0.0,
			"-0.011": 0.0,
			"-0.01": 0.0,
			"-0.009": 0.0,
			"-0.008": 0.162209101357,
			"-0.007": 4.74847711815,
			"-0.006": 13.0594857221,
			"-0.005": 14.1938280711,
			"-0.004": 16.4058874058,
			"-0.003": 25.7042331378,
			"-0.002": 23.0131487928,
			"-0.001": 23.3463138731,
			"0.0": 22.6126662069,
			"0.001": 29.6768189481,
			"0.002": 23.7556358864,
			"0.003": 19.9842862245,
			"0.004": 14.6950577398,
			"0.005": 4.89301078433,
			"0.006": 2.48294545253,
			"0.007": 1.84944471133,
			"0.008": 1.30437421718,
			"0.009": 1.124720263,
			"0.01": 1.29989289517,
			"0.011": 1.53746159919,
			"0.012": 0.944718008361,
			"0.013": 1.2556569224,
			"0.014": 1.4577795537,
			"0.015": 2.14694600993,
			"0.016": 1.08261384589,
			"0.017": 0.0,
			"0.018": 0.0,
			"0.019": 0.0,
			"0.02": 0.0,
			"0.021": 0.0,
			"0.022": 0.0,
			"0.023": 0.0,
			"0.024": 0.0,
			"0.025": 0.0
		}
	}
}
