{
	 "smiles": "CNC(N)=O", 
	 "Tm": 376.15, 
	 "num_atms": 11, 
	 "gaussian": { 
		 "optdone": 1, 
		 "sigma_profile": "yes", 
		 "theory": "DFT", 
		 "functional": "B3LYP", 
		 "basiset": "6-31G**", 
		 "properties": { 
			 "R2extent": 672.9557, 
			 "electric_dipole_moment_norm": 3.90112996579, 
			 "electric_quadrupole_moment_norm": 9.45300572093, 
			 "total_energy": -264.576850844, 
			 "HOMO_LUMO_gap": 0.29934, 
			 "cosmo_polarized_energy": -13.91, 
			 "cosmo_cavitation_energy": 14.52, 
			 "cosmo_dispersion_energy": -11.04, 
			 "cosmo_repulsion_energy": 1.01, 
			 "cosmo_total_nonelectrostatic_energy": 4.49, 
			 "SMD_solvation_energy": 3.14 
		},
		"coords": [
			{
				"x": 0.589837795,
				"y": 2.8692199578,
				"z": -0.5788244927,
				"element": "C" 
			},
			{
				"x": -0.6134171345,
				"y": 2.1548445185,
				"z": -0.1870608199,
				"element": "N" 
			},
			{
				"x": -0.6861987456,
				"y": 0.7939202373,
				"z": 0.0383084531,
				"element": "C" 
			},
			{
				"x": 0.536232002,
				"y": 0.1635835494,
				"z": 0.23412854,
				"element": "N" 
			},
			{
				"x": -1.7495630525,
				"y": 0.1872013685,
				"z": 0.0431731344,
				"element": "O" 
			},
			{
				"x": 1.0986032849,
				"y": 2.4107742761,
				"z": -1.4370126809,
				"element": "H" 
			},
			{
				"x": 0.3184176942,
				"y": 3.8928618764,
				"z": -0.8448524066,
				"element": "H" 
			},
			{
				"x": 1.30646682,
				"y": 2.9364214596,
				"z": 0.2501707942,
				"element": "H" 
			},
			{
				"x": -1.5014644902,
				"y": 2.5285252357,
				"z": -0.4873849849,
				"element": "H" 
			},
			{
				"x": 0.4302215278,
				"y": -0.7706572621,
				"z": 0.6023126681,
				"element": "H" 
			},
			{
				"x": 1.2986642989,
				"y": 0.6911047828,
				"z": 0.634941795,
				"element": "H" 
			}
		],
		 "valence_orbital": [ 
			{
				"type": "occ",
				"energy": -0.39431,
				"method": "rhf"
			},
			{
				"type": "occ",
				"energy": -0.39094,
				"method": "rhf"
			},
			{
				"type": "occ",
				"energy": -0.2678,
				"method": "rhf"
			},
			{
				"type": "occ",
				"energy": -0.25067,
				"method": "rhf"
			},
			{
				"type": "occ",
				"energy": -0.23982,
				"method": "rhf"
			},
			{
				"type": "unocc",
				"energy": 0.05952,
				"method": "rhf"
			},
			{
				"type": "unocc",
				"energy": 0.06961,
				"method": "rhf"
			},
			{
				"type": "unocc",
				"energy": 0.0994,
				"method": "rhf"
			},
			{
				"type": "unocc",
				"energy": 0.1262,
				"method": "rhf"
			},
			{
				"type": "unocc",
				"energy": 0.14524,
				"method": "rhf"
			}
		],
		"cosmo_sigma_profile": { 
			"-0.025": 0.0,
			"-0.024": 0.0,
			"-0.023": 0.0,
			"-0.022": 0.0,
			"-0.021": 0.0,
			"-0.02": 0.0,
			"-0.019": 0.0,
			"-0.018": 0.0,
			"-0.017": 0.0,
			"-0.016": 0.0,
			"-0.015": 0.0,
			"-0.014": 0.0,
			"-0.013": 2.33420408188,
			"-0.012": 3.60410838567,
			"-0.011": 3.62351028294,
			"-0.01": 3.05497285144,
			"-0.009": 3.93483106194,
			"-0.008": 3.10728082962,
			"-0.007": 3.6348672727,
			"-0.006": 5.03440843055,
			"-0.005": 6.3724656781,
			"-0.004": 6.69234425819,
			"-0.003": 7.69895284462,
			"-0.002": 9.78883483727,
			"-0.001": 6.50768321102,
			"0.0": 4.57593736103,
			"0.001": 3.43373348874,
			"0.002": 3.42557293266,
			"0.003": 2.31601365665,
			"0.004": 2.37649987092,
			"0.005": 2.9051298382,
			"0.006": 3.91414478376,
			"0.007": 2.61005214368,
			"0.008": 1.96937864657,
			"0.009": 1.88185539774,
			"0.01": 1.80975726299,
			"0.011": 1.90507695055,
			"0.012": 1.81585126118,
			"0.013": 1.66821037551,
			"0.014": 3.93379657247,
			"0.015": 6.54003011872,
			"0.016": 0.885581514685,
			"0.017": 0.0,
			"0.018": 0.0,
			"0.019": 0.0,
			"0.02": 0.0,
			"0.021": 0.0,
			"0.022": 0.0,
			"0.023": 0.0,
			"0.024": 0.0,
			"0.025": 0.0
		}
	}
}
