{
	 "smiles": "COC1=CC=C(C=C1)N1C=C(O)C(=N1)C(O)=O", 
	 "Tm": 508.15, 
	 "num_atms": 27, 
	 "gaussian": { 
		 "optdone": 1, 
		 "sigma_profile": "yes", 
		 "theory": "DFT", 
		 "functional": "B3LYP", 
		 "basiset": "6-31G**", 
		 "properties": { 
			 "R2extent": 7781.5456, 
			 "electric_dipole_moment_norm": 9.34825061068, 
			 "electric_quadrupole_moment_norm": 42.8105526622, 
			 "total_energy": -835.55769941, 
			 "HOMO_LUMO_gap": 0.16854, 
			 "cosmo_polarized_energy": -24.21, 
			 "cosmo_cavitation_energy": 32.5, 
			 "cosmo_dispersion_energy": -24.01, 
			 "cosmo_repulsion_energy": 1.84, 
			 "cosmo_total_nonelectrostatic_energy": 10.34, 
			 "SMD_solvation_energy": 7.86 
		},
		"coords": [
			{
				"x": 1.295591915,
				"y": -3.4422762241,
				"z": 2.4021784426,
				"element": "C" 
			},
			{
				"x": 2.2235937479,
				"y": -2.4167722451,
				"z": 2.081972161,
				"element": "O" 
			},
			{
				"x": 1.786563014,
				"y": -1.3559789831,
				"z": 1.3486473894,
				"element": "C" 
			},
			{
				"x": 2.7468488632,
				"y": -0.3724201622,
				"z": 1.0618262353,
				"element": "C" 
			},
			{
				"x": 2.4109890501,
				"y": 0.7499398227,
				"z": 0.3224063536,
				"element": "C" 
			},
			{
				"x": 1.1000392144,
				"y": 0.9147428609,
				"z": -0.1493467638,
				"element": "C" 
			},
			{
				"x": 0.1423773428,
				"y": -0.0593074684,
				"z": 0.132771143,
				"element": "C" 
			},
			{
				"x": 0.4796717283,
				"y": -1.1915586985,
				"z": 0.8782625099,
				"element": "C" 
			},
			{
				"x": 0.7667563711,
				"y": 2.072392172,
				"z": -0.908312472,
				"element": "N" 
			},
			{
				"x": -0.4535414539,
				"y": 2.4069843428,
				"z": -1.4509313781,
				"element": "C" 
			},
			{
				"x": -0.2837212557,
				"y": 3.6176105086,
				"z": -2.0956539435,
				"element": "C" 
			},
			{
				"x": -1.1747509765,
				"y": 4.3670749033,
				"z": -2.7812047887,
				"element": "O" 
			},
			{
				"x": 1.0805085425,
				"y": 3.9506407273,
				"z": -1.8940857952,
				"element": "C" 
			},
			{
				"x": 1.6932817518,
				"y": 3.0013433459,
				"z": -1.1741486645,
				"element": "N" 
			},
			{
				"x": 1.8476325378,
				"y": 5.1340673379,
				"z": -2.351358305,
				"element": "C" 
			},
			{
				"x": 3.149246422,
				"y": 5.1253072193,
				"z": -1.9731681817,
				"element": "O" 
			},
			{
				"x": 1.377710887,
				"y": 6.0359219313,
				"z": -3.0038856216,
				"element": "O" 
			},
			{
				"x": 0.462464421,
				"y": -3.0595040161,
				"z": 3.0055692076,
				"element": "H" 
			},
			{
				"x": 1.8502165276,
				"y": -4.1794814456,
				"z": 2.9841766894,
				"element": "H" 
			},
			{
				"x": 0.8961560314,
				"y": -3.9222143003,
				"z": 1.4995122209,
				"element": "H" 
			},
			{
				"x": 3.7568934309,
				"y": -0.5115038401,
				"z": 1.4322242865,
				"element": "H" 
			},
			{
				"x": 3.1526228989,
				"y": 1.5068129563,
				"z": 0.1024475483,
				"element": "H" 
			},
			{
				"x": -0.8781497252,
				"y": 0.0411001302,
				"z": -0.2185373869,
				"element": "H" 
			},
			{
				"x": -0.2856917001,
				"y": -1.930575759,
				"z": 1.0811150654,
				"element": "H" 
			},
			{
				"x": -1.3268971653,
				"y": 1.7846106034,
				"z": -1.3455219217,
				"element": "H" 
			},
			{
				"x": -2.0350653592,
				"y": 3.9284252611,
				"z": -2.777194747,
				"element": "H" 
			},
			{
				"x": 3.3099529384,
				"y": 4.3130190195,
				"z": -1.4615592833,
				"element": "H" 
			}
		],
		 "valence_orbital": [ 
			{
				"type": "occ",
				"energy": -0.28247,
				"method": "rhf"
			},
			{
				"type": "occ",
				"energy": -0.27309,
				"method": "rhf"
			},
			{
				"type": "occ",
				"energy": -0.25803,
				"method": "rhf"
			},
			{
				"type": "occ",
				"energy": -0.24876,
				"method": "rhf"
			},
			{
				"type": "occ",
				"energy": -0.21605,
				"method": "rhf"
			},
			{
				"type": "unocc",
				"energy": -0.04751,
				"method": "rhf"
			},
			{
				"type": "unocc",
				"energy": -0.02281,
				"method": "rhf"
			},
			{
				"type": "unocc",
				"energy": 0.00733,
				"method": "rhf"
			},
			{
				"type": "unocc",
				"energy": 0.04009,
				"method": "rhf"
			},
			{
				"type": "unocc",
				"energy": 0.05015,
				"method": "rhf"
			}
		],
		"cosmo_sigma_profile": { 
			"-0.025": 0.0,
			"-0.024": 0.0,
			"-0.023": 0.0,
			"-0.022": 0.0,
			"-0.021": 0.0,
			"-0.02": 0.0528493497548,
			"-0.019": 0.801482211174,
			"-0.018": 1.49949370668,
			"-0.017": 1.20081720312,
			"-0.016": 1.00130593778,
			"-0.015": 0.675927755834,
			"-0.014": 1.32086813291,
			"-0.013": 1.37931809384,
			"-0.012": 2.50519897574,
			"-0.011": 4.12156790709,
			"-0.01": 3.35930767437,
			"-0.009": 2.89211374238,
			"-0.008": 2.49930005298,
			"-0.007": 6.58791584119,
			"-0.006": 13.8318628129,
			"-0.005": 18.0713332124,
			"-0.004": 15.3247774423,
			"-0.003": 17.8005985802,
			"-0.002": 11.6459766026,
			"-0.001": 12.6476172298,
			"0.0": 17.316791765,
			"0.001": 20.7406731707,
			"0.002": 18.2052442984,
			"0.003": 17.7825379049,
			"0.004": 15.3175475791,
			"0.005": 6.57153551415,
			"0.006": 4.96786663263,
			"0.007": 3.86644759459,
			"0.008": 4.86957407118,
			"0.009": 5.78671544054,
			"0.01": 6.74039215406,
			"0.011": 6.40773598835,
			"0.012": 6.54238895493,
			"0.013": 4.07633681286,
			"0.014": 1.66905106423,
			"0.015": 0.285335320266,
			"0.016": 0.0,
			"0.017": 0.0,
			"0.018": 0.0,
			"0.019": 0.0,
			"0.02": 0.0,
			"0.021": 0.0,
			"0.022": 0.0,
			"0.023": 0.0,
			"0.024": 0.0,
			"0.025": 0.0
		}
	}
}
