{
	 "smiles": "CCCC(=O)N1N=CC2=C(O)N=CN=C12", 
	 "Tm": 497.15, 
	 "num_atms": 25, 
	 "gaussian": { 
		 "optdone": 1, 
		 "sigma_profile": "yes", 
		 "theory": "DFT", 
		 "functional": "B3LYP", 
		 "basiset": "6-31G**", 
		 "properties": { 
			 "R2extent": 3350.5783, 
			 "electric_dipole_moment_norm": 1.82593358313, 
			 "electric_quadrupole_moment_norm": 25.9362358751, 
			 "total_energy": -718.427923793, 
			 "HOMO_LUMO_gap": 0.19846, 
			 "cosmo_polarized_energy": -19.72, 
			 "cosmo_cavitation_energy": 29.53, 
			 "cosmo_dispersion_energy": -21.31, 
			 "cosmo_repulsion_energy": 1.67, 
			 "cosmo_total_nonelectrostatic_energy": 9.88, 
			 "SMD_solvation_energy": 3.45 
		},
		"coords": [
			{
				"x": 3.9721107841,
				"y": -1.8783829228,
				"z": -0.2675387849,
				"element": "C" 
			},
			{
				"x": 2.4884555702,
				"y": -2.0168053842,
				"z": 0.083339471,
				"element": "C" 
			},
			{
				"x": 2.0793762701,
				"y": -1.0611227337,
				"z": 1.2262038097,
				"element": "C" 
			},
			{
				"x": 0.6382520529,
				"y": -1.2587084339,
				"z": 1.6373687096,
				"element": "C" 
			},
			{
				"x": 0.287259282,
				"y": -1.9641152117,
				"z": 2.5502572359,
				"element": "O" 
			},
			{
				"x": -0.3657237233,
				"y": -0.5801313587,
				"z": 0.8489851365,
				"element": "N" 
			},
			{
				"x": -1.6885395761,
				"y": -0.8053213502,
				"z": 1.1626104807,
				"element": "N" 
			},
			{
				"x": -2.4056951648,
				"y": -0.0772414935,
				"z": 0.3424778231,
				"element": "C" 
			},
			{
				"x": -1.5781301834,
				"y": 0.6691931959,
				"z": -0.555168987,
				"element": "C" 
			},
			{
				"x": -1.6959224718,
				"y": 1.5872541185,
				"z": -1.6176171127,
				"element": "C" 
			},
			{
				"x": -2.8732925919,
				"y": 2.0324959145,
				"z": -2.0905192164,
				"element": "O" 
			},
			{
				"x": -0.6162786251,
				"y": 2.0686107351,
				"z": -2.2181964458,
				"element": "N" 
			},
			{
				"x": 0.5812181754,
				"y": 1.6491061989,
				"z": -1.7765352237,
				"element": "C" 
			},
			{
				"x": 0.845562539,
				"y": 0.7900340482,
				"z": -0.7908364107,
				"element": "N" 
			},
			{
				"x": -0.2598825553,
				"y": 0.3199277251,
				"z": -0.2001230192,
				"element": "C" 
			},
			{
				"x": 4.2500211933,
				"y": -2.5670644831,
				"z": -1.0716447462,
				"element": "H" 
			},
			{
				"x": 4.6080112691,
				"y": -2.0999862235,
				"z": 0.5967245474,
				"element": "H" 
			},
			{
				"x": 4.2029242344,
				"y": -0.8613572984,
				"z": -0.6022165469,
				"element": "H" 
			},
			{
				"x": 2.2673184227,
				"y": -3.0475960257,
				"z": 0.3845255136,
				"element": "H" 
			},
			{
				"x": 1.88202493,
				"y": -1.8019596602,
				"z": -0.8031456915,
				"element": "H" 
			},
			{
				"x": 2.6688818429,
				"y": -1.2821908631,
				"z": 2.120322101,
				"element": "H" 
			},
			{
				"x": 2.262223801,
				"y": -0.0305124119,
				"z": 0.9151957148,
				"element": "H" 
			},
			{
				"x": -3.4859002543,
				"y": -0.1088606345,
				"z": 0.4173269144,
				"element": "H" 
			},
			{
				"x": -3.6001570131,
				"y": 1.6317280598,
				"z": -1.5945584665,
				"element": "H" 
			},
			{
				"x": 1.4438817921,
				"y": 2.0652064935,
				"z": -2.291536806,
				"element": "H" 
			}
		],
		 "valence_orbital": [ 
			{
				"type": "occ",
				"energy": -0.30719,
				"method": "rhf"
			},
			{
				"type": "occ",
				"energy": -0.2909,
				"method": "rhf"
			},
			{
				"type": "occ",
				"energy": -0.2817,
				"method": "rhf"
			},
			{
				"type": "occ",
				"energy": -0.27247,
				"method": "rhf"
			},
			{
				"type": "occ",
				"energy": -0.26311,
				"method": "rhf"
			},
			{
				"type": "unocc",
				"energy": -0.06465,
				"method": "rhf"
			},
			{
				"type": "unocc",
				"energy": -0.04146,
				"method": "rhf"
			},
			{
				"type": "unocc",
				"energy": -0.00286,
				"method": "rhf"
			},
			{
				"type": "unocc",
				"energy": 0.03524,
				"method": "rhf"
			},
			{
				"type": "unocc",
				"energy": 0.0442,
				"method": "rhf"
			}
		],
		"cosmo_sigma_profile": { 
			"-0.025": 0.0,
			"-0.024": 0.0,
			"-0.023": 0.0,
			"-0.022": 0.0,
			"-0.021": 0.0,
			"-0.02": 0.231999802009,
			"-0.019": 1.41350632042,
			"-0.018": 1.54966972134,
			"-0.017": 1.45889263768,
			"-0.016": 0.649874053606,
			"-0.015": 1.54495220665,
			"-0.014": 1.34178385643,
			"-0.013": 1.01402289587,
			"-0.012": 1.28415136006,
			"-0.011": 1.68000368931,
			"-0.01": 1.66377654444,
			"-0.009": 1.81676276868,
			"-0.008": 4.25937042927,
			"-0.007": 4.53675513396,
			"-0.006": 3.58376837036,
			"-0.005": 7.48187924803,
			"-0.004": 15.5162423742,
			"-0.003": 28.1645744466,
			"-0.002": 25.272568032,
			"-0.001": 25.3788925016,
			"0.0": 19.1856355829,
			"0.001": 14.01080856,
			"0.002": 7.15755425629,
			"0.003": 6.57405112948,
			"0.004": 5.69287899282,
			"0.005": 5.0885312127,
			"0.006": 6.68160474559,
			"0.007": 5.86520944619,
			"0.008": 4.74271839246,
			"0.009": 5.26935107968,
			"0.01": 6.17767304152,
			"0.011": 7.14814708783,
			"0.012": 4.34354462847,
			"0.013": 2.67144159129,
			"0.014": 2.30260893817,
			"0.015": 1.34302743268,
			"0.016": 1.09816654137,
			"0.017": 0.245005906047,
			"0.018": 0.0,
			"0.019": 0.0,
			"0.02": 0.0,
			"0.021": 0.0,
			"0.022": 0.0,
			"0.023": 0.0,
			"0.024": 0.0,
			"0.025": 0.0
		}
	}
}
