{
	 "smiles": "CC1=CC=CC(C)=C1NC(=O)CCl", 
	 "Tm": 421.15, 
	 "num_atms": 25, 
	 "gaussian": { 
		 "optdone": 1, 
		 "sigma_profile": "yes", 
		 "theory": "DFT", 
		 "functional": "B3LYP", 
		 "basiset": "6-31G**", 
		 "properties": { 
			 "R2extent": 3902.8099, 
			 "electric_dipole_moment_norm": 1.61236910787, 
			 "electric_quadrupole_moment_norm": 7.05413589605, 
			 "total_energy": -978.494524048, 
			 "HOMO_LUMO_gap": 0.22163, 
			 "cosmo_polarized_energy": -10.63, 
			 "cosmo_cavitation_energy": 29.74, 
			 "cosmo_dispersion_energy": -21.09, 
			 "cosmo_repulsion_energy": 1.68, 
			 "cosmo_total_nonelectrostatic_energy": 10.33, 
			 "SMD_solvation_energy": 5.57 
		},
		"coords": [
			{
				"x": 0.5350924975,
				"y": -2.672680333,
				"z": -1.0142995441,
				"element": "C" 
			},
			{
				"x": 0.7107902906,
				"y": -1.2999697525,
				"z": -0.408707435,
				"element": "C" 
			},
			{
				"x": 1.9793753912,
				"y": -0.7200208397,
				"z": -0.3196344939,
				"element": "C" 
			},
			{
				"x": 2.1459516327,
				"y": 0.5509049195,
				"z": 0.2272090531,
				"element": "C" 
			},
			{
				"x": 1.0411807431,
				"y": 1.2489447802,
				"z": 0.7068667916,
				"element": "C" 
			},
			{
				"x": -0.2472937815,
				"y": 0.7020046276,
				"z": 0.6527924568,
				"element": "C" 
			},
			{
				"x": -1.4180096824,
				"y": 1.4635726171,
				"z": 1.2197463551,
				"element": "C" 
			},
			{
				"x": -0.3953860888,
				"y": -0.5727021584,
				"z": 0.0742669638,
				"element": "C" 
			},
			{
				"x": -1.6821766355,
				"y": -1.1939623254,
				"z": 0.0065205963,
				"element": "N" 
			},
			{
				"x": -2.7499374708,
				"y": -0.7109073254,
				"z": -0.6854638323,
				"element": "C" 
			},
			{
				"x": -2.7955119468,
				"y": 0.3572461213,
				"z": -1.2783003721,
				"element": "O" 
			},
			{
				"x": -4.0271341934,
				"y": -1.5594474806,
				"z": -0.6966670705,
				"element": "C" 
			},
			{
				"x": -3.9207400646,
				"y": -3.2300533919,
				"z": 0.0150481319,
				"element": "Cl" 
			},
			{
				"x": -0.2229793023,
				"y": -2.6716794796,
				"z": -1.8047994566,
				"element": "H" 
			},
			{
				"x": 1.4744256016,
				"y": -3.0271912538,
				"z": -1.4454894756,
				"element": "H" 
			},
			{
				"x": 0.2200301709,
				"y": -3.4167840226,
				"z": -0.2705682822,
				"element": "H" 
			},
			{
				"x": 2.8393331502,
				"y": -1.2698237589,
				"z": -0.6924567488,
				"element": "H" 
			},
			{
				"x": 3.136342144,
				"y": 0.9931326202,
				"z": 0.2848794309,
				"element": "H" 
			},
			{
				"x": 1.172240127,
				"y": 2.2339355654,
				"z": 1.1466322566,
				"element": "H" 
			},
			{
				"x": -2.0512085566,
				"y": 0.8155823328,
				"z": 1.8357514079,
				"element": "H" 
			},
			{
				"x": -2.0491273693,
				"y": 1.8600155714,
				"z": 0.4186439639,
				"element": "H" 
			},
			{
				"x": -1.0731572794,
				"y": 2.2937557453,
				"z": 1.841494186,
				"element": "H" 
			},
			{
				"x": -1.7606616298,
				"y": -2.1456713422,
				"z": 0.3421499221,
				"element": "H" 
			},
			{
				"x": -4.3484271127,
				"y": -1.6707315432,
				"z": -1.7316247562,
				"element": "H" 
			},
			{
				"x": -4.801210635,
				"y": -1.0280698936,
				"z": -0.1415900485,
				"element": "H" 
			}
		],
		 "valence_orbital": [ 
			{
				"type": "occ",
				"energy": -0.31521,
				"method": "rhf"
			},
			{
				"type": "occ",
				"energy": -0.28637,
				"method": "rhf"
			},
			{
				"type": "occ",
				"energy": -0.26298,
				"method": "rhf"
			},
			{
				"type": "occ",
				"energy": -0.2395,
				"method": "rhf"
			},
			{
				"type": "occ",
				"energy": -0.23464,
				"method": "rhf"
			},
			{
				"type": "unocc",
				"energy": -0.01301,
				"method": "rhf"
			},
			{
				"type": "unocc",
				"energy": 0.00201,
				"method": "rhf"
			},
			{
				"type": "unocc",
				"energy": 0.01114,
				"method": "rhf"
			},
			{
				"type": "unocc",
				"energy": 0.02073,
				"method": "rhf"
			},
			{
				"type": "unocc",
				"energy": 0.08114,
				"method": "rhf"
			}
		],
		"cosmo_sigma_profile": { 
			"-0.025": 0.0,
			"-0.024": 0.0,
			"-0.023": 0.0,
			"-0.022": 0.0,
			"-0.021": 0.0,
			"-0.02": 0.0,
			"-0.019": 0.0,
			"-0.018": 0.0,
			"-0.017": 0.0,
			"-0.016": 0.0,
			"-0.015": 0.0,
			"-0.014": 0.0,
			"-0.013": 0.0111098238777,
			"-0.012": 0.470393725295,
			"-0.011": 0.92017308437,
			"-0.01": 1.04083067656,
			"-0.009": 3.95470162133,
			"-0.008": 5.3086019249,
			"-0.007": 4.49266566729,
			"-0.006": 6.61268999122,
			"-0.005": 15.04245965,
			"-0.004": 20.0032728431,
			"-0.003": 20.4755004672,
			"-0.002": 19.0465917549,
			"-0.001": 20.8344255507,
			"0.0": 23.0416898149,
			"0.001": 16.20830487,
			"0.002": 13.3534352201,
			"0.003": 11.0393451353,
			"0.004": 13.0527167945,
			"0.005": 15.528064148,
			"0.006": 10.4484752246,
			"0.007": 2.03914976043,
			"0.008": 1.49441981557,
			"0.009": 2.09396200603,
			"0.01": 1.57322837658,
			"0.011": 1.95725503433,
			"0.012": 2.90126121658,
			"0.013": 4.07910759382,
			"0.014": 0.638939445593,
			"0.015": 0.0,
			"0.016": 0.0,
			"0.017": 0.0,
			"0.018": 0.0,
			"0.019": 0.0,
			"0.02": 0.0,
			"0.021": 0.0,
			"0.022": 0.0,
			"0.023": 0.0,
			"0.024": 0.0,
			"0.025": 0.0
		}
	}
}
