{
	 "smiles": "CCN(CC)S(=O)(=O)C1=CC(=C(Cl)C=C1)[N+]([O-])=O", 
	 "Tm": 362.65, 
	 "num_atms": 31, 
	 "gaussian": { 
		 "optdone": 1, 
		 "sigma_profile": "yes", 
		 "theory": "DFT", 
		 "functional": "B3LYP", 
		 "basiset": "6-31G**", 
		 "properties": { 
			 "R2extent": 6980.5198, 
			 "electric_dipole_moment_norm": 6.16636620872, 
			 "electric_quadrupole_moment_norm": 17.9365754329, 
			 "total_energy": -1657.49244748, 
			 "HOMO_LUMO_gap": 0.15861, 
			 "cosmo_polarized_energy": -15.94, 
			 "cosmo_cavitation_energy": 38.25, 
			 "cosmo_dispersion_energy": -26.28, 
			 "cosmo_repulsion_energy": 2.01, 
			 "cosmo_total_nonelectrostatic_energy": 13.97, 
			 "SMD_solvation_energy": 7.66 
		},
		"coords": [
			{
				"x": -0.0509593559,
				"y": 1.8886560164,
				"z": 3.0923259667,
				"element": "C" 
			},
			{
				"x": 0.6126969025,
				"y": 2.2198284609,
				"z": 1.7567525057,
				"element": "C" 
			},
			{
				"x": -0.281436635,
				"y": 1.924599015,
				"z": 0.6160703184,
				"element": "N" 
			},
			{
				"x": -1.4477050918,
				"y": 2.8317464872,
				"z": 0.4323685457,
				"element": "C" 
			},
			{
				"x": -2.7788133192,
				"y": 2.0863637352,
				"z": 0.4738737643,
				"element": "C" 
			},
			{
				"x": 0.5062497796,
				"y": 1.4705978581,
				"z": -0.8068980594,
				"element": "S" 
			},
			{
				"x": -0.5171551663,
				"y": 1.4553412668,
				"z": -1.8561408397,
				"element": "O" 
			},
			{
				"x": 1.7652752848,
				"y": 2.2016373237,
				"z": -0.9977538267,
				"element": "O" 
			},
			{
				"x": 0.9564070829,
				"y": -0.2356018163,
				"z": -0.4407266713,
				"element": "C" 
			},
			{
				"x": 2.2979312414,
				"y": -0.5835205307,
				"z": -0.371378781,
				"element": "C" 
			},
			{
				"x": 2.6496731369,
				"y": -1.9166482303,
				"z": -0.1492697365,
				"element": "C" 
			},
			{
				"x": 1.6628967107,
				"y": -2.8980826511,
				"z": 0.0242007554,
				"element": "C" 
			},
			{
				"x": 2.0135455814,
				"y": -4.5614722852,
				"z": 0.3841314166,
				"element": "Cl" 
			},
			{
				"x": 0.3146160204,
				"y": -2.5206399337,
				"z": -0.0400954719,
				"element": "C" 
			},
			{
				"x": -0.0424736733,
				"y": -1.2004292248,
				"z": -0.2828099894,
				"element": "C" 
			},
			{
				"x": 4.09544839,
				"y": -2.2096824956,
				"z": -0.1148286808,
				"element": "N" 
			},
			{
				"x": 4.4750690393,
				"y": -3.2891505456,
				"z": -0.5530431493,
				"element": "O" 
			},
			{
				"x": 4.8216007342,
				"y": -1.3231308638,
				"z": 0.3318415621,
				"element": "O" 
			},
			{
				"x": -0.3271968458,
				"y": 0.8312494112,
				"z": 3.1361350548,
				"element": "H" 
			},
			{
				"x": 0.6419454857,
				"y": 2.1014393409,
				"z": 3.9125041315,
				"element": "H" 
			},
			{
				"x": -0.9536213081,
				"y": 2.4841026269,
				"z": 3.2598573824,
				"element": "H" 
			},
			{
				"x": 1.5162165494,
				"y": 1.6147449729,
				"z": 1.6444603343,
				"element": "H" 
			},
			{
				"x": 0.9352800536,
				"y": 3.2696936663,
				"z": 1.7275872334,
				"element": "H" 
			},
			{
				"x": -1.3957015996,
				"y": 3.5711246452,
				"z": 1.237517171,
				"element": "H" 
			},
			{
				"x": -1.3575919693,
				"y": 3.3828745966,
				"z": -0.5078323972,
				"element": "H" 
			},
			{
				"x": -2.8918133591,
				"y": 1.5322938353,
				"z": 1.4107356491,
				"element": "H" 
			},
			{
				"x": -2.8466684114,
				"y": 1.3840333339,
				"z": -0.3607372902,
				"element": "H" 
			},
			{
				"x": -3.610698257,
				"y": 2.7940055977,
				"z": 0.3892633288,
				"element": "H" 
			},
			{
				"x": 3.0727952178,
				"y": 0.1633355,
				"z": -0.4952733815,
				"element": "H" 
			},
			{
				"x": -0.4457710816,
				"y": -3.2797236409,
				"z": 0.1032989568,
				"element": "H" 
			},
			{
				"x": -1.0878411374,
				"y": -0.9189854722,
				"z": -0.3443358022,
				"element": "H" 
			}
		],
		 "valence_orbital": [ 
			{
				"type": "occ",
				"energy": -0.31324,
				"method": "rhf"
			},
			{
				"type": "occ",
				"energy": -0.30925,
				"method": "rhf"
			},
			{
				"type": "occ",
				"energy": -0.29372,
				"method": "rhf"
			},
			{
				"type": "occ",
				"energy": -0.28933,
				"method": "rhf"
			},
			{
				"type": "occ",
				"energy": -0.26082,
				"method": "rhf"
			},
			{
				"type": "unocc",
				"energy": -0.10221,
				"method": "rhf"
			},
			{
				"type": "unocc",
				"energy": -0.06415,
				"method": "rhf"
			},
			{
				"type": "unocc",
				"energy": -0.0355,
				"method": "rhf"
			},
			{
				"type": "unocc",
				"energy": -0.00105,
				"method": "rhf"
			},
			{
				"type": "unocc",
				"energy": 0.04796,
				"method": "rhf"
			}
		],
		"cosmo_sigma_profile": { 
			"-0.025": 0.0,
			"-0.024": 0.0,
			"-0.023": 0.0,
			"-0.022": 0.0,
			"-0.021": 0.0,
			"-0.02": 0.0,
			"-0.019": 0.0,
			"-0.018": 0.0,
			"-0.017": 0.0,
			"-0.016": 0.0,
			"-0.015": 0.0,
			"-0.014": 0.0,
			"-0.013": 0.0,
			"-0.012": 0.0,
			"-0.011": 0.0,
			"-0.01": 0.460758550741,
			"-0.009": 4.30541696394,
			"-0.008": 5.37474886185,
			"-0.007": 5.50784331693,
			"-0.006": 9.35865966462,
			"-0.005": 17.4753188595,
			"-0.004": 26.4043964183,
			"-0.003": 38.6803987814,
			"-0.002": 34.8918094773,
			"-0.001": 27.3181524979,
			"0.0": 26.4267114203,
			"0.001": 18.3198208748,
			"0.002": 12.701717986,
			"0.003": 11.1382208294,
			"0.004": 6.1183833935,
			"0.005": 7.11662988754,
			"0.006": 9.62330007192,
			"0.007": 13.5036742282,
			"0.008": 8.43123573757,
			"0.009": 7.0890053041,
			"0.01": 6.98082808048,
			"0.011": 7.24827922856,
			"0.012": 1.20331709414,
			"0.013": 0.0,
			"0.014": 0.0,
			"0.015": 0.0,
			"0.016": 0.0,
			"0.017": 0.0,
			"0.018": 0.0,
			"0.019": 0.0,
			"0.02": 0.0,
			"0.021": 0.0,
			"0.022": 0.0,
			"0.023": 0.0,
			"0.024": 0.0,
			"0.025": 0.0
		}
	}
}
