{
	 "smiles": "CN(C)C1=CC=C(C=C1)N=NC1=C(C=CC=C1)[N+]([O-])=O", 
	 "Tm": 437.15, 
	 "num_atms": 34, 
	 "gaussian": { 
		 "optdone": 1, 
		 "sigma_profile": "yes", 
		 "theory": "DFT", 
		 "functional": "B3LYP", 
		 "basiset": "6-31G**", 
		 "properties": { 
			 "R2extent": 8826.8378, 
			 "electric_dipole_moment_norm": 5.46431876907, 
			 "electric_quadrupole_moment_norm": 35.0619950489, 
			 "total_energy": -911.222510454, 
			 "HOMO_LUMO_gap": 0.11723, 
			 "cosmo_polarized_energy": -16.18, 
			 "cosmo_cavitation_energy": 39.18, 
			 "cosmo_dispersion_energy": -27.72, 
			 "cosmo_repulsion_energy": 2.11, 
			 "cosmo_total_nonelectrostatic_energy": 13.57, 
			 "SMD_solvation_energy": 7.86 
		},
		"coords": [
			{
				"x": -3.070360784,
				"y": -0.5359179885,
				"z": 4.2101788855,
				"element": "C" 
			},
			{
				"x": -1.6579084223,
				"y": -0.4190305572,
				"z": 3.8819943022,
				"element": "N" 
			},
			{
				"x": -0.7018284339,
				"y": -0.1136186095,
				"z": 4.9348877801,
				"element": "C" 
			},
			{
				"x": -1.234770154,
				"y": -0.534459523,
				"z": 2.5779377233,
				"element": "C" 
			},
			{
				"x": -2.158797252,
				"y": -0.8007625105,
				"z": 1.5277568351,
				"element": "C" 
			},
			{
				"x": -1.7368150944,
				"y": -0.9186805232,
				"z": 0.2185371154,
				"element": "C" 
			},
			{
				"x": -0.3742408491,
				"y": -0.7788096538,
				"z": -0.1138701488,
				"element": "C" 
			},
			{
				"x": 0.5434521841,
				"y": -0.5124362955,
				"z": 0.9154636872,
				"element": "C" 
			},
			{
				"x": 0.1333232071,
				"y": -0.3915272091,
				"z": 2.2322415909,
				"element": "C" 
			},
			{
				"x": 0.1582384265,
				"y": -0.8745938148,
				"z": -1.4018809169,
				"element": "N" 
			},
			{
				"x": -0.6664249777,
				"y": -1.156956528,
				"z": -2.3214340333,
				"element": "N" 
			},
			{
				"x": -0.0876075596,
				"y": -1.2050946514,
				"z": -3.6049428418,
				"element": "C" 
			},
			{
				"x": 1.0165472316,
				"y": -0.4532050234,
				"z": -4.0592098401,
				"element": "C" 
			},
			{
				"x": 1.5588575879,
				"y": -0.6539456657,
				"z": -5.3262991923,
				"element": "C" 
			},
			{
				"x": 0.9826196483,
				"y": -1.5827888493,
				"z": -6.1910075883,
				"element": "C" 
			},
			{
				"x": -0.1384986603,
				"y": -2.3074700688,
				"z": -5.7789360241,
				"element": "C" 
			},
			{
				"x": -0.6640493797,
				"y": -2.114610871,
				"z": -4.5048197127,
				"element": "C" 
			},
			{
				"x": 1.5988753495,
				"y": 0.6514922197,
				"z": -3.2784193621,
				"element": "N" 
			},
			{
				"x": 2.8270348175,
				"y": 0.7118162729,
				"z": -3.2303622043,
				"element": "O" 
			},
			{
				"x": 0.8289334208,
				"y": 1.4791073794,
				"z": -2.8005143058,
				"element": "O" 
			},
			{
				"x": -3.1982504065,
				"y": -0.4219984618,
				"z": 5.286850563,
				"element": "H" 
			},
			{
				"x": -3.4731882658,
				"y": -1.5164576317,
				"z": 3.9257447208,
				"element": "H" 
			},
			{
				"x": -3.6732776523,
				"y": 0.2363824057,
				"z": 3.7138537466,
				"element": "H" 
			},
			{
				"x": -1.2229910929,
				"y": -0.0699334192,
				"z": 5.8914331223,
				"element": "H" 
			},
			{
				"x": 0.0767914971,
				"y": -0.8835677211,
				"z": 5.0100605813,
				"element": "H" 
			},
			{
				"x": -0.2079686702,
				"y": 0.8538856404,
				"z": 4.7724612278,
				"element": "H" 
			},
			{
				"x": -3.2134886775,
				"y": -0.9099932257,
				"z": 1.7481284734,
				"element": "H" 
			},
			{
				"x": -2.4484488472,
				"y": -1.1185199513,
				"z": -0.5748244611,
				"element": "H" 
			},
			{
				"x": 1.5895566436,
				"y": -0.3980433725,
				"z": 0.6493064951,
				"element": "H" 
			},
			{
				"x": 0.8725276253,
				"y": -0.1817518837,
				"z": 2.9946602496,
				"element": "H" 
			},
			{
				"x": 2.4178013586,
				"y": -0.0630762161,
				"z": -5.6235668015,
				"element": "H" 
			},
			{
				"x": 1.3997388116,
				"y": -1.7272425651,
				"z": -7.18240915,
				"element": "H" 
			},
			{
				"x": -0.5996010803,
				"y": -3.0270764416,
				"z": -6.4486035984,
				"element": "H" 
			},
			{
				"x": -1.5200815498,
				"y": -2.6823146854,
				"z": -4.1552969182,
				"element": "H" 
			}
		],
		 "valence_orbital": [ 
			{
				"type": "occ",
				"energy": -0.26023,
				"method": "rhf"
			},
			{
				"type": "occ",
				"energy": -0.25649,
				"method": "rhf"
			},
			{
				"type": "occ",
				"energy": -0.25325,
				"method": "rhf"
			},
			{
				"type": "occ",
				"energy": -0.22156,
				"method": "rhf"
			},
			{
				"type": "occ",
				"energy": -0.19687,
				"method": "rhf"
			},
			{
				"type": "unocc",
				"energy": -0.07964,
				"method": "rhf"
			},
			{
				"type": "unocc",
				"energy": -0.053,
				"method": "rhf"
			},
			{
				"type": "unocc",
				"energy": -0.00755,
				"method": "rhf"
			},
			{
				"type": "unocc",
				"energy": -0.00243,
				"method": "rhf"
			},
			{
				"type": "unocc",
				"energy": 0.00905,
				"method": "rhf"
			}
		],
		"cosmo_sigma_profile": { 
			"-0.025": 0.0,
			"-0.024": 0.0,
			"-0.023": 0.0,
			"-0.022": 0.0,
			"-0.021": 0.0,
			"-0.02": 0.0,
			"-0.019": 0.0,
			"-0.018": 0.0,
			"-0.017": 0.0,
			"-0.016": 0.0,
			"-0.015": 0.0,
			"-0.014": 0.0,
			"-0.013": 0.0,
			"-0.012": 0.0,
			"-0.011": 0.0,
			"-0.01": 0.0,
			"-0.009": 0.0,
			"-0.008": 2.33299902686,
			"-0.007": 11.4644504851,
			"-0.006": 19.3816476241,
			"-0.005": 28.4512749777,
			"-0.004": 26.4638874142,
			"-0.003": 23.8350141427,
			"-0.002": 23.7265485273,
			"-0.001": 16.1230693852,
			"0.0": 15.8154479212,
			"0.001": 21.2435563131,
			"0.002": 27.440491662,
			"0.003": 24.2748901148,
			"0.004": 20.8778762064,
			"0.005": 12.4027648887,
			"0.006": 7.56945213744,
			"0.007": 9.75271879375,
			"0.008": 12.2429286209,
			"0.009": 6.6592145627,
			"0.01": 3.01922066744,
			"0.011": 0.145324819413,
			"0.012": 0.0,
			"0.013": 0.0,
			"0.014": 0.0,
			"0.015": 0.0,
			"0.016": 0.0,
			"0.017": 0.0,
			"0.018": 0.0,
			"0.019": 0.0,
			"0.02": 0.0,
			"0.021": 0.0,
			"0.022": 0.0,
			"0.023": 0.0,
			"0.024": 0.0,
			"0.025": 0.0
		}
	}
}
