{
	 "smiles": "OC1=CC=C(Cl)C=C1C#N", 
	 "Tm": 439.15, 
	 "num_atms": 14, 
	 "gaussian": { 
		 "optdone": 1, 
		 "sigma_profile": "yes", 
		 "theory": "DFT", 
		 "functional": "B3LYP", 
		 "basiset": "6-31G**", 
		 "properties": { 
			 "R2extent": 2077.7494, 
			 "electric_dipole_moment_norm": 2.41638596462, 
			 "electric_quadrupole_moment_norm": 6.67344072275, 
			 "total_energy": -859.303018829, 
			 "HOMO_LUMO_gap": 0.18193, 
			 "cosmo_polarized_energy": -9.21, 
			 "cosmo_cavitation_energy": 21.55, 
			 "cosmo_dispersion_energy": -15.68, 
			 "cosmo_repulsion_energy": 1.27, 
			 "cosmo_total_nonelectrostatic_energy": 7.14, 
			 "SMD_solvation_energy": 5.09 
		},
		"coords": [
			{
				"x": -2.8627123965,
				"y": 1.2873637728,
				"z": 0.8009326014,
				"element": "O" 
			},
			{
				"x": -1.9032631202,
				"y": 0.337138461,
				"z": 0.7560540759,
				"element": "C" 
			},
			{
				"x": -1.8975226041,
				"y": -0.6401306231,
				"z": 1.7582116623,
				"element": "C" 
			},
			{
				"x": -0.9329225279,
				"y": -1.6396148282,
				"z": 1.7585758759,
				"element": "C" 
			},
			{
				"x": 0.0427190025,
				"y": -1.6768341706,
				"z": 0.754363668,
				"element": "C" 
			},
			{
				"x": 1.2539866792,
				"y": -2.9455965484,
				"z": 0.7688759026,
				"element": "Cl" 
			},
			{
				"x": 0.0605429967,
				"y": -0.7214000197,
				"z": -0.2504027104,
				"element": "C" 
			},
			{
				"x": -0.9151594767,
				"y": 0.2916804616,
				"z": -0.2529542293,
				"element": "C" 
			},
			{
				"x": -0.9428862102,
				"y": 1.3005806816,
				"z": -1.2642273336,
				"element": "C" 
			},
			{
				"x": -1.0390063487,
				"y": 2.1583870859,
				"z": -2.0465721871,
				"element": "N" 
			},
			{
				"x": -2.7609695473,
				"y": 1.9025350677,
				"z": 0.0575573132,
				"element": "H" 
			},
			{
				"x": -2.6593945656,
				"y": -0.5976943989,
				"z": 2.5285727637,
				"element": "H" 
			},
			{
				"x": -0.9317364563,
				"y": -2.3949762252,
				"z": 2.5366004768,
				"element": "H" 
			},
			{
				"x": 0.8133245751,
				"y": -0.7462387165,
				"z": -1.0291878794,
				"element": "H" 
			}
		],
		 "valence_orbital": [ 
			{
				"type": "occ",
				"energy": -0.35465,
				"method": "rhf"
			},
			{
				"type": "occ",
				"energy": -0.32805,
				"method": "rhf"
			},
			{
				"type": "occ",
				"energy": -0.32765,
				"method": "rhf"
			},
			{
				"type": "occ",
				"energy": -0.28536,
				"method": "rhf"
			},
			{
				"type": "occ",
				"energy": -0.24695,
				"method": "rhf"
			},
			{
				"type": "unocc",
				"energy": -0.06502,
				"method": "rhf"
			},
			{
				"type": "unocc",
				"energy": -0.02607,
				"method": "rhf"
			},
			{
				"type": "unocc",
				"energy": 0.00385,
				"method": "rhf"
			},
			{
				"type": "unocc",
				"energy": 0.01754,
				"method": "rhf"
			},
			{
				"type": "unocc",
				"energy": 0.06007,
				"method": "rhf"
			}
		],
		"cosmo_sigma_profile": { 
			"-0.025": 0.0,
			"-0.024": 0.0,
			"-0.023": 0.0,
			"-0.022": 0.0,
			"-0.021": 0.0,
			"-0.02": 0.0,
			"-0.019": 0.0,
			"-0.018": 0.0,
			"-0.017": 0.0,
			"-0.016": 0.805436076903,
			"-0.015": 0.770164559166,
			"-0.014": 0.651281092897,
			"-0.013": 0.848298481488,
			"-0.012": 0.785856257754,
			"-0.011": 1.76599447647,
			"-0.01": 1.18047450479,
			"-0.009": 2.92163955555,
			"-0.008": 6.99969507893,
			"-0.007": 6.91683231387,
			"-0.006": 6.48531604418,
			"-0.005": 6.22019582208,
			"-0.004": 6.70262772694,
			"-0.003": 7.13761122374,
			"-0.002": 11.8478594469,
			"-0.001": 12.7514035858,
			"0.0": 17.7349003303,
			"0.001": 20.7016227301,
			"0.002": 10.9767686901,
			"0.003": 9.55327077248,
			"0.004": 12.7678093612,
			"0.005": 6.03599670829,
			"0.006": 3.23578495281,
			"0.007": 4.22468951461,
			"0.008": 3.84380287352,
			"0.009": 5.17309679028,
			"0.01": 3.06667823188,
			"0.011": 2.56875527599,
			"0.012": 1.98509142874,
			"0.013": 0.312376128345,
			"0.014": 0.0,
			"0.015": 0.0,
			"0.016": 0.0,
			"0.017": 0.0,
			"0.018": 0.0,
			"0.019": 0.0,
			"0.02": 0.0,
			"0.021": 0.0,
			"0.022": 0.0,
			"0.023": 0.0,
			"0.024": 0.0,
			"0.025": 0.0
		}
	}
}
