{
	 "smiles": "CC1=NC2=C(C(C)=C1)C(=O)N(C(=O)N2)C1=CC=CC(=C1)C(F)(F)F", 
	 "Tm": 538.15, 
	 "num_atms": 36, 
	 "gaussian": { 
		 "optdone": 1, 
		 "sigma_profile": "yes", 
		 "theory": "DFT", 
		 "functional": "B3LYP", 
		 "basiset": "6-31G**", 
		 "properties": { 
			 "R2extent": 11099.3688, 
			 "electric_dipole_moment_norm": 5.62208732234, 
			 "electric_quadrupole_moment_norm": 17.8924672502, 
			 "total_energy": -1231.2333554, 
			 "HOMO_LUMO_gap": 0.18244, 
			 "cosmo_polarized_energy": -15.69, 
			 "cosmo_cavitation_energy": 42.23, 
			 "cosmo_dispersion_energy": -29.51, 
			 "cosmo_repulsion_energy": 2.16, 
			 "cosmo_total_nonelectrostatic_energy": 14.88, 
			 "SMD_solvation_energy": 8.14 
		},
		"coords": [
			{
				"x": 1.6945971834,
				"y": -5.1621174952,
				"z": -2.4762577832,
				"element": "C" 
			},
			{
				"x": 1.4131588951,
				"y": -3.8070897299,
				"z": -1.88052036,
				"element": "C" 
			},
			{
				"x": 0.2473562723,
				"y": -3.2349120922,
				"z": -2.2036880704,
				"element": "N" 
			},
			{
				"x": -0.0063302433,
				"y": -2.0325950702,
				"z": -1.6771897584,
				"element": "C" 
			},
			{
				"x": 0.8480232698,
				"y": -1.3246917219,
				"z": -0.8135261265,
				"element": "C" 
			},
			{
				"x": 2.0815075844,
				"y": -1.9338908893,
				"z": -0.4750176277,
				"element": "C" 
			},
			{
				"x": 3.0952123514,
				"y": -1.2930969887,
				"z": 0.4349102698,
				"element": "C" 
			},
			{
				"x": 2.340213705,
				"y": -3.1866011688,
				"z": -1.0283630177,
				"element": "C" 
			},
			{
				"x": 0.4321107689,
				"y": -0.0059663672,
				"z": -0.3067734721,
				"element": "C" 
			},
			{
				"x": 1.0957611332,
				"y": 0.6821744638,
				"z": 0.4539741612,
				"element": "O" 
			},
			{
				"x": -0.8336735476,
				"y": 0.4566215205,
				"z": -0.7595559112,
				"element": "N" 
			},
			{
				"x": -1.6956033794,
				"y": -0.2425697819,
				"z": -1.6276505118,
				"element": "C" 
			},
			{
				"x": -2.7722812033,
				"y": 0.1882436929,
				"z": -1.9945399053,
				"element": "O" 
			},
			{
				"x": -1.2157362238,
				"y": -1.4709507246,
				"z": -2.0338330615,
				"element": "N" 
			},
			{
				"x": -1.2811351736,
				"y": 1.750310389,
				"z": -0.302291764,
				"element": "C" 
			},
			{
				"x": -1.5503014607,
				"y": 1.9536492358,
				"z": 1.0509479843,
				"element": "C" 
			},
			{
				"x": -1.969772782,
				"y": 3.2086613175,
				"z": 1.4907428814,
				"element": "C" 
			},
			{
				"x": -2.1285285641,
				"y": 4.2541786572,
				"z": 0.5833607793,
				"element": "C" 
			},
			{
				"x": -1.8614250405,
				"y": 4.0391522151,
				"z": -0.7713100903,
				"element": "C" 
			},
			{
				"x": -1.4326583123,
				"y": 2.789270722,
				"z": -1.2181997759,
				"element": "C" 
			},
			{
				"x": -2.0853841304,
				"y": 5.151152082,
				"z": -1.7608555814,
				"element": "C" 
			},
			{
				"x": -3.3725169488,
				"y": 5.2023839693,
				"z": -2.1726425648,
				"element": "F" 
			},
			{
				"x": -1.3230050182,
				"y": 5.0046126827,
				"z": -2.8669036492,
				"element": "F" 
			},
			{
				"x": -1.7985697073,
				"y": 6.359707628,
				"z": -1.2260489417,
				"element": "F" 
			},
			{
				"x": 1.8398760829,
				"y": -5.9120217799,
				"z": -1.690637699,
				"element": "H" 
			},
			{
				"x": 2.610816803,
				"y": -5.1426120282,
				"z": -3.0768389758,
				"element": "H" 
			},
			{
				"x": 0.8625998026,
				"y": -5.4710412961,
				"z": -3.1101858081,
				"element": "H" 
			},
			{
				"x": 3.9666721655,
				"y": -1.9430280338,
				"z": 0.5467484785,
				"element": "H" 
			},
			{
				"x": 2.6680686007,
				"y": -1.0891687036,
				"z": 1.4201348499,
				"element": "H" 
			},
			{
				"x": 3.4157705571,
				"y": -0.3227088841,
				"z": 0.0472157356,
				"element": "H" 
			},
			{
				"x": 3.2731974683,
				"y": -3.6915432025,
				"z": -0.7976664658,
				"element": "H" 
			},
			{
				"x": -1.8113391917,
				"y": -1.9989951042,
				"z": -2.658256856,
				"element": "H" 
			},
			{
				"x": -1.420897367,
				"y": 1.1371529743,
				"z": 1.7523155955,
				"element": "H" 
			},
			{
				"x": -2.171157713,
				"y": 3.3703890661,
				"z": 2.5448672513,
				"element": "H" 
			},
			{
				"x": -2.4492694309,
				"y": 5.2336244716,
				"z": 0.9210958153,
				"element": "H" 
			},
			{
				"x": -1.221557206,
				"y": 2.6260159744,
				"z": -2.267760024,
				"element": "H" 
			}
		],
		 "valence_orbital": [ 
			{
				"type": "occ",
				"energy": -0.29111,
				"method": "rhf"
			},
			{
				"type": "occ",
				"energy": -0.26898,
				"method": "rhf"
			},
			{
				"type": "occ",
				"energy": -0.26515,
				"method": "rhf"
			},
			{
				"type": "occ",
				"energy": -0.25588,
				"method": "rhf"
			},
			{
				"type": "occ",
				"energy": -0.24587,
				"method": "rhf"
			},
			{
				"type": "unocc",
				"energy": -0.06343,
				"method": "rhf"
			},
			{
				"type": "unocc",
				"energy": -0.03274,
				"method": "rhf"
			},
			{
				"type": "unocc",
				"energy": -0.02586,
				"method": "rhf"
			},
			{
				"type": "unocc",
				"energy": -0.01752,
				"method": "rhf"
			},
			{
				"type": "unocc",
				"energy": 0.01059,
				"method": "rhf"
			}
		],
		"cosmo_sigma_profile": { 
			"-0.025": 0.0,
			"-0.024": 0.0,
			"-0.023": 0.0,
			"-0.022": 0.0,
			"-0.021": 0.0,
			"-0.02": 0.0,
			"-0.019": 0.0,
			"-0.018": 0.0,
			"-0.017": 0.0,
			"-0.016": 0.320379746869,
			"-0.015": 0.871006891488,
			"-0.014": 0.833809510623,
			"-0.013": 0.607279617029,
			"-0.012": 0.865005931887,
			"-0.011": 0.905175594412,
			"-0.01": 0.568240703644,
			"-0.009": 0.551925715221,
			"-0.008": 1.93625946996,
			"-0.007": 10.3626579382,
			"-0.006": 17.0109654023,
			"-0.005": 21.2735122829,
			"-0.004": 24.0956858643,
			"-0.003": 23.3787534658,
			"-0.002": 27.5932084265,
			"-0.001": 32.8967810927,
			"0.0": 31.6118158316,
			"0.001": 24.2840132775,
			"0.002": 32.6895808375,
			"0.003": 35.9153636204,
			"0.004": 5.99729795181,
			"0.005": 5.03837356013,
			"0.006": 4.67137662363,
			"0.007": 3.79114544991,
			"0.008": 4.20405012714,
			"0.009": 4.72280854147,
			"0.01": 4.45506783225,
			"0.011": 5.6585522768,
			"0.012": 9.48177939893,
			"0.013": 1.5845686291,
			"0.014": 0.0,
			"0.015": 0.0,
			"0.016": 0.0,
			"0.017": 0.0,
			"0.018": 0.0,
			"0.019": 0.0,
			"0.02": 0.0,
			"0.021": 0.0,
			"0.022": 0.0,
			"0.023": 0.0,
			"0.024": 0.0,
			"0.025": 0.0
		}
	}
}
