{
	 "smiles": "O=C1NC(=O)C(=CC2=CC(C=C3C(=O)NC(=O)NC3=O)=CC=C2)C(=O)N1", 
	 "Tm": 613.15, 
	 "num_atms": 36, 
	 "gaussian": { 
		 "optdone": 1, 
		 "sigma_profile": "yes", 
		 "theory": "DFT", 
		 "functional": "B3LYP", 
		 "basiset": "6-31G**", 
		 "properties": { 
			 "R2extent": 12020.4607, 
			 "electric_dipole_moment_norm": 3.68072618514, 
			 "electric_quadrupole_moment_norm": 12.032949183, 
			 "total_energy": -1286.16183192, 
			 "HOMO_LUMO_gap": 0.15122, 
			 "cosmo_polarized_energy": -29.57, 
			 "cosmo_cavitation_energy": 43.58, 
			 "cosmo_dispersion_energy": -31.03, 
			 "cosmo_repulsion_energy": 2.3, 
			 "cosmo_total_nonelectrostatic_energy": 14.85, 
			 "SMD_solvation_energy": 11.58 
		},
		"coords": [
			{
				"x": -3.5089058465,
				"y": -5.4957546597,
				"z": 2.1767388646,
				"element": "O" 
			},
			{
				"x": -3.2298912082,
				"y": -4.3147789992,
				"z": 2.1270528042,
				"element": "C" 
			},
			{
				"x": -4.0930360743,
				"y": -3.3124750173,
				"z": 2.5470413391,
				"element": "N" 
			},
			{
				"x": -3.8684163198,
				"y": -1.9402272468,
				"z": 2.5436068841,
				"element": "C" 
			},
			{
				"x": -4.7230565585,
				"y": -1.1829253082,
				"z": 2.976263847,
				"element": "O" 
			},
			{
				"x": -2.5529825255,
				"y": -1.4953669667,
				"z": 1.9788324795,
				"element": "C" 
			},
			{
				"x": -2.3607405313,
				"y": -0.1459794918,
				"z": 2.0053508101,
				"element": "C" 
			},
			{
				"x": -1.3145127159,
				"y": 0.7710849134,
				"z": 1.5657313727,
				"element": "C" 
			},
			{
				"x": -0.3768940653,
				"y": 0.5095475123,
				"z": 0.5514009515,
				"element": "C" 
			},
			{
				"x": 0.5703929633,
				"y": 1.4814001246,
				"z": 0.1841006915,
				"element": "C" 
			},
			{
				"x": 1.6082044663,
				"y": 1.3115912128,
				"z": -0.8270820613,
				"element": "C" 
			},
			{
				"x": 1.7932578523,
				"y": 0.5151543195,
				"z": -1.9182112179,
				"element": "C" 
			},
			{
				"x": 0.814788993,
				"y": -0.4364215046,
				"z": -2.4989144759,
				"element": "C" 
			},
			{
				"x": -0.3110394916,
				"y": -0.6566714702,
				"z": -2.0790628588,
				"element": "O" 
			},
			{
				"x": 1.2478841042,
				"y": -1.1030724514,
				"z": -3.6465289141,
				"element": "N" 
			},
			{
				"x": 2.4574200245,
				"y": -0.981518406,
				"z": -4.3161125998,
				"element": "C" 
			},
			{
				"x": 2.7308252908,
				"y": -1.6183279519,
				"z": -5.3134844911,
				"element": "O" 
			},
			{
				"x": 3.3229372451,
				"y": -0.0612019556,
				"z": -3.7418769327,
				"element": "N" 
			},
			{
				"x": 3.1044592434,
				"y": 0.723150151,
				"z": -2.614674687,
				"element": "C" 
			},
			{
				"x": 3.9608616007,
				"y": 1.5127065116,
				"z": -2.2481419564,
				"element": "O" 
			},
			{
				"x": 0.5912440418,
				"y": 2.7106529627,
				"z": 0.8822144317,
				"element": "C" 
			},
			{
				"x": -0.3581274765,
				"y": 2.9981273476,
				"z": 1.8568280679,
				"element": "C" 
			},
			{
				"x": -1.317061234,
				"y": 2.0441737497,
				"z": 2.180130738,
				"element": "C" 
			},
			{
				"x": -1.5763736184,
				"y": -2.521325023,
				"z": 1.5380853407,
				"element": "C" 
			},
			{
				"x": -0.447473119,
				"y": -2.3083293612,
				"z": 1.1230687115,
				"element": "O" 
			},
			{
				"x": -2.0158354966,
				"y": -3.841791033,
				"z": 1.6490101305,
				"element": "N" 
			},
			{
				"x": -4.9845053595,
				"y": -3.6225204032,
				"z": 2.9137293588,
				"element": "H" 
			},
			{
				"x": -3.1979555569,
				"y": 0.361389058,
				"z": 2.485414583,
				"element": "H" 
			},
			{
				"x": -0.3845377127,
				"y": -0.4421514219,
				"z": 0.051009302,
				"element": "H" 
			},
			{
				"x": 2.4475941925,
				"y": 1.9944343662,
				"z": -0.6931574831,
				"element": "H" 
			},
			{
				"x": 0.5870321596,
				"y": -1.7536820077,
				"z": -4.0535574682,
				"element": "H" 
			},
			{
				"x": 4.2114185152,
				"y": 0.0621748566,
				"z": -4.2116386034,
				"element": "H" 
			},
			{
				"x": 1.3499833215,
				"y": 3.4478198139,
				"z": 0.6341161949,
				"element": "H" 
			},
			{
				"x": -0.3509250739,
				"y": 3.9591031825,
				"z": 2.360847248,
				"element": "H" 
			},
			{
				"x": -2.0688666645,
				"y": 2.2680132716,
				"z": 2.9320378489,
				"element": "H" 
			},
			{
				"x": -1.3566673651,
				"y": -4.5516026749,
				"z": 1.3534317497,
				"element": "H" 
			}
		],
		 "valence_orbital": [ 
			{
				"type": "occ",
				"energy": -0.29802,
				"method": "rhf"
			},
			{
				"type": "occ",
				"energy": -0.27319,
				"method": "rhf"
			},
			{
				"type": "occ",
				"energy": -0.26801,
				"method": "rhf"
			},
			{
				"type": "occ",
				"energy": -0.26469,
				"method": "rhf"
			},
			{
				"type": "occ",
				"energy": -0.26181,
				"method": "rhf"
			},
			{
				"type": "unocc",
				"energy": -0.11059,
				"method": "rhf"
			},
			{
				"type": "unocc",
				"energy": -0.10523,
				"method": "rhf"
			},
			{
				"type": "unocc",
				"energy": -0.02112,
				"method": "rhf"
			},
			{
				"type": "unocc",
				"energy": -0.01815,
				"method": "rhf"
			},
			{
				"type": "unocc",
				"energy": -0.00758,
				"method": "rhf"
			}
		],
		"cosmo_sigma_profile": { 
			"-0.025": 0.0,
			"-0.024": 0.0,
			"-0.023": 0.0,
			"-0.022": 0.0,
			"-0.021": 0.0,
			"-0.02": 0.0,
			"-0.019": 0.0,
			"-0.018": 0.0,
			"-0.017": 0.46765785894,
			"-0.016": 3.40293694377,
			"-0.015": 3.66727728525,
			"-0.014": 2.94721102354,
			"-0.013": 3.74641376426,
			"-0.012": 2.83882014326,
			"-0.011": 3.54837277237,
			"-0.01": 2.63001544568,
			"-0.009": 7.14219720407,
			"-0.008": 12.5570904248,
			"-0.007": 15.0012017411,
			"-0.006": 18.172831292,
			"-0.005": 15.4260378553,
			"-0.004": 18.1833108825,
			"-0.003": 24.3865295062,
			"-0.002": 27.5570790921,
			"-0.001": 26.4900002397,
			"0.0": 16.8223880204,
			"0.001": 20.3511653029,
			"0.002": 14.8521994752,
			"0.003": 7.94635388818,
			"0.004": 7.62072152348,
			"0.005": 10.5175557008,
			"0.006": 5.79729398485,
			"0.007": 8.44258215765,
			"0.008": 9.35788856235,
			"0.009": 9.86125550553,
			"0.01": 12.6228429678,
			"0.011": 21.962764552,
			"0.012": 16.6107036036,
			"0.013": 0.431352775228,
			"0.014": 0.0,
			"0.015": 0.0,
			"0.016": 0.0,
			"0.017": 0.0,
			"0.018": 0.0,
			"0.019": 0.0,
			"0.02": 0.0,
			"0.021": 0.0,
			"0.022": 0.0,
			"0.023": 0.0,
			"0.024": 0.0,
			"0.025": 0.0
		}
	}
}
