{
	 "smiles": "CC(C)C1CCC2(CC1)NC(=O)NC2=O", 
	 "Tm": 572.15, 
	 "num_atms": 33, 
	 "gaussian": { 
		 "optdone": 1, 
		 "sigma_profile": "yes", 
		 "theory": "DFT", 
		 "functional": "B3LYP", 
		 "basiset": "6-31G**", 
		 "properties": { 
			 "R2extent": 4413.2334, 
			 "electric_dipole_moment_norm": 2.98014759869, 
			 "electric_quadrupole_moment_norm": 11.8439907882, 
			 "total_energy": -690.029862963, 
			 "HOMO_LUMO_gap": 0.24938, 
			 "cosmo_polarized_energy": -15.1, 
			 "cosmo_cavitation_energy": 33.13, 
			 "cosmo_dispersion_energy": -23.65, 
			 "cosmo_repulsion_energy": 1.84, 
			 "cosmo_total_nonelectrostatic_energy": 11.31, 
			 "SMD_solvation_energy": 6.22 
		},
		"coords": [
			{
				"x": -1.0942982811,
				"y": 0.962922425,
				"z": 3.6831347431,
				"element": "C" 
			},
			{
				"x": -1.4923031473,
				"y": 0.8745103174,
				"z": 2.1995640502,
				"element": "C" 
			},
			{
				"x": -2.9949614794,
				"y": 1.1757524962,
				"z": 2.0666537237,
				"element": "C" 
			},
			{
				"x": -1.1182263804,
				"y": -0.4908591349,
				"z": 1.5620990906,
				"element": "C" 
			},
			{
				"x": 0.3267430295,
				"y": -0.9336966335,
				"z": 1.9084294394,
				"element": "C" 
			},
			{
				"x": 0.8289944538,
				"y": -2.0218237332,
				"z": 0.9522750706,
				"element": "C" 
			},
			{
				"x": 0.9780702511,
				"y": -1.4965566627,
				"z": -0.5003066807,
				"element": "C" 
			},
			{
				"x": -0.0050990853,
				"y": -0.3187447245,
				"z": -0.7481744269,
				"element": "C" 
			},
			{
				"x": -1.3207739816,
				"y": -0.5114139937,
				"z": 0.0159464435,
				"element": "C" 
			},
			{
				"x": 2.3517745046,
				"y": -1.1323275488,
				"z": -0.8560034209,
				"element": "N" 
			},
			{
				"x": 2.818972831,
				"y": -1.7585429562,
				"z": -1.9836392264,
				"element": "C" 
			},
			{
				"x": 3.8642409902,
				"y": -1.5837220252,
				"z": -2.5746568138,
				"element": "O" 
			},
			{
				"x": 1.8142540509,
				"y": -2.6880282594,
				"z": -2.3333413787,
				"element": "N" 
			},
			{
				"x": 0.7125162518,
				"y": -2.6341056723,
				"z": -1.509633335,
				"element": "C" 
			},
			{
				"x": -0.2784391437,
				"y": -3.3351738851,
				"z": -1.5662576925,
				"element": "O" 
			},
			{
				"x": -1.5789958676,
				"y": 0.1689941662,
				"z": 4.2651606465,
				"element": "H" 
			},
			{
				"x": -0.0150158734,
				"y": 0.8776382185,
				"z": 3.8353285716,
				"element": "H" 
			},
			{
				"x": -1.4108973207,
				"y": 1.920774142,
				"z": 4.1092985325,
				"element": "H" 
			},
			{
				"x": -0.9371000436,
				"y": 1.6562993255,
				"z": 1.6561918453,
				"element": "H" 
			},
			{
				"x": -3.2299482283,
				"y": 2.1637630466,
				"z": 2.4765258861,
				"element": "H" 
			},
			{
				"x": -3.5857627976,
				"y": 0.4380391612,
				"z": 2.6234202089,
				"element": "H" 
			},
			{
				"x": -3.3422232701,
				"y": 1.1615398312,
				"z": 1.0296769319,
				"element": "H" 
			},
			{
				"x": -1.797004388,
				"y": -1.2402341399,
				"z": 1.9949887436,
				"element": "H" 
			},
			{
				"x": 1.0052354031,
				"y": -0.0692932987,
				"z": 1.8694459794,
				"element": "H" 
			},
			{
				"x": 0.372902797,
				"y": -1.3035856635,
				"z": 2.9370837018,
				"element": "H" 
			},
			{
				"x": 0.1124797883,
				"y": -2.8511544906,
				"z": 0.9402766186,
				"element": "H" 
			},
			{
				"x": 1.7914694556,
				"y": -2.4284016056,
				"z": 1.277805368,
				"element": "H" 
			},
			{
				"x": 0.4875215291,
				"y": 0.6051807198,
				"z": -0.4182987382,
				"element": "H" 
			},
			{
				"x": -0.1847534256,
				"y": -0.2032745182,
				"z": -1.8224844867,
				"element": "H" 
			},
			{
				"x": -1.7601002905,
				"y": -1.4640139924,
				"z": -0.2964197538,
				"element": "H" 
			},
			{
				"x": -2.0259883201,
				"y": 0.2658948102,
				"z": -0.2916649901,
				"element": "H" 
			},
			{
				"x": 2.8045101434,
				"y": -0.2874650191,
				"z": -0.5417024198,
				"element": "H" 
			},
			{
				"x": 1.9204058452,
				"y": -3.3326907022,
				"z": -3.1033222318,
				"element": "H" 
			}
		],
		 "valence_orbital": [ 
			{
				"type": "occ",
				"energy": -0.30611,
				"method": "rhf"
			},
			{
				"type": "occ",
				"energy": -0.28767,
				"method": "rhf"
			},
			{
				"type": "occ",
				"energy": -0.28519,
				"method": "rhf"
			},
			{
				"type": "occ",
				"energy": -0.26405,
				"method": "rhf"
			},
			{
				"type": "occ",
				"energy": -0.25773,
				"method": "rhf"
			},
			{
				"type": "unocc",
				"energy": -0.00835,
				"method": "rhf"
			},
			{
				"type": "unocc",
				"energy": 0.05923,
				"method": "rhf"
			},
			{
				"type": "unocc",
				"energy": 0.06454,
				"method": "rhf"
			},
			{
				"type": "unocc",
				"energy": 0.08336,
				"method": "rhf"
			},
			{
				"type": "unocc",
				"energy": 0.08524,
				"method": "rhf"
			}
		],
		"cosmo_sigma_profile": { 
			"-0.025": 0.0,
			"-0.024": 0.0,
			"-0.023": 0.0,
			"-0.022": 0.0,
			"-0.021": 0.0,
			"-0.02": 0.0,
			"-0.019": 0.0,
			"-0.018": 0.0,
			"-0.017": 0.176172382382,
			"-0.016": 1.37927700558,
			"-0.015": 1.20007506221,
			"-0.014": 2.72102952462,
			"-0.013": 1.38117205996,
			"-0.012": 1.48226143373,
			"-0.011": 2.34847231972,
			"-0.01": 2.49382625671,
			"-0.009": 1.73258620096,
			"-0.008": 2.27128274086,
			"-0.007": 2.20091214921,
			"-0.006": 2.44143094625,
			"-0.005": 6.48739430428,
			"-0.004": 9.0353522805,
			"-0.003": 19.3021398692,
			"-0.002": 37.5714863324,
			"-0.001": 47.6160199266,
			"0.0": 28.3739016988,
			"0.001": 24.0399950198,
			"0.002": 15.0689568049,
			"0.003": 4.53816918365,
			"0.004": 4.07780689145,
			"0.005": 2.80900665078,
			"0.006": 1.77030954858,
			"0.007": 2.75999922182,
			"0.008": 3.01218960736,
			"0.009": 3.21189043464,
			"0.01": 2.13349395807,
			"0.011": 4.48849959112,
			"0.012": 8.45609870344,
			"0.013": 8.08287767473,
			"0.014": 1.60031292063,
			"0.015": 0.0,
			"0.016": 0.0,
			"0.017": 0.0,
			"0.018": 0.0,
			"0.019": 0.0,
			"0.02": 0.0,
			"0.021": 0.0,
			"0.022": 0.0,
			"0.023": 0.0,
			"0.024": 0.0,
			"0.025": 0.0
		}
	}
}
