{
	 "smiles": "CC1=CC=C(C=C1)C1=CSC(NC(=O)CCl)=N1", 
	 "Tm": 443.15, 
	 "num_atms": 28, 
	 "gaussian": { 
		 "optdone": 1, 
		 "sigma_profile": "yes", 
		 "theory": "DFT", 
		 "functional": "B3LYP", 
		 "basiset": "6-31G**", 
		 "properties": { 
			 "R2extent": 7101.3918, 
			 "electric_dipole_moment_norm": 5.30101118184, 
			 "electric_quadrupole_moment_norm": 18.562277791, 
			 "total_energy": -1507.02838364, 
			 "HOMO_LUMO_gap": 0.16872, 
			 "cosmo_polarized_energy": -15.05, 
			 "cosmo_cavitation_energy": 36.2, 
			 "cosmo_dispersion_energy": -26.59, 
			 "cosmo_repulsion_energy": 2.02, 
			 "cosmo_total_nonelectrostatic_energy": 11.63, 
			 "SMD_solvation_energy": 5.92 
		},
		"coords": [
			{
				"x": -1.150652237,
				"y": -5.3085679536,
				"z": -0.7937390541,
				"element": "C" 
			},
			{
				"x": -0.7568356375,
				"y": -3.8514392962,
				"z": -0.8231125584,
				"element": "C" 
			},
			{
				"x": -0.5049171021,
				"y": -3.1410052399,
				"z": 0.3564012444,
				"element": "C" 
			},
			{
				"x": -0.116527273,
				"y": -1.8032759317,
				"z": 0.3280858899,
				"element": "C" 
			},
			{
				"x": 0.0337517794,
				"y": -1.1240357282,
				"z": -0.8903023402,
				"element": "C" 
			},
			{
				"x": -0.2273206111,
				"y": -1.831995566,
				"z": -2.0760234668,
				"element": "C" 
			},
			{
				"x": -0.6132699483,
				"y": -3.1671339103,
				"z": -2.0397077013,
				"element": "C" 
			},
			{
				"x": 0.4508497467,
				"y": 0.2903933564,
				"z": -0.9065066696,
				"element": "C" 
			},
			{
				"x": 0.7718924979,
				"y": 1.0321988896,
				"z": -2.0125876084,
				"element": "C" 
			},
			{
				"x": 1.2091924099,
				"y": 2.656420037,
				"z": -1.5688177846,
				"element": "S" 
			},
			{
				"x": 0.9263844427,
				"y": 2.206328376,
				"z": 0.1157453972,
				"element": "C" 
			},
			{
				"x": 1.1130817624,
				"y": 3.1558350812,
				"z": 1.1061154475,
				"element": "N" 
			},
			{
				"x": 0.9501131337,
				"y": 3.0883949071,
				"z": 2.4968175605,
				"element": "C" 
			},
			{
				"x": 1.1764731883,
				"y": 4.0794698575,
				"z": 3.1577970887,
				"element": "O" 
			},
			{
				"x": 0.4968267682,
				"y": 1.7469302852,
				"z": 3.0601413667,
				"element": "C" 
			},
			{
				"x": 0.3143462324,
				"y": 1.8015384358,
				"z": 4.8405287182,
				"element": "Cl" 
			},
			{
				"x": 0.5489965299,
				"y": 0.9792805989,
				"z": 0.2976002719,
				"element": "N" 
			},
			{
				"x": -1.559937929,
				"y": -5.5929048298,
				"z": 0.1798191738,
				"element": "H" 
			},
			{
				"x": -1.9015354115,
				"y": -5.5363845195,
				"z": -1.5571213396,
				"element": "H" 
			},
			{
				"x": -0.2865694049,
				"y": -5.9565920034,
				"z": -0.9877374046,
				"element": "H" 
			},
			{
				"x": -0.6152257026,
				"y": -3.6416179456,
				"z": 1.315189745,
				"element": "H" 
			},
			{
				"x": 0.0724055647,
				"y": -1.2715652246,
				"z": 1.2535155129,
				"element": "H" 
			},
			{
				"x": -0.1430906248,
				"y": -1.3354012523,
				"z": -3.0381468181,
				"element": "H" 
			},
			{
				"x": -0.8138497308,
				"y": -3.6881471473,
				"z": -2.9727712035,
				"element": "H" 
			},
			{
				"x": 0.7945337767,
				"y": 0.7334017354,
				"z": -3.0493126535,
				"element": "H" 
			},
			{
				"x": 1.4158955747,
				"y": 4.07836024,
				"z": 0.8181453084,
				"element": "H" 
			},
			{
				"x": -0.4561912488,
				"y": 1.4526884592,
				"z": 2.6194868233,
				"element": "H" 
			},
			{
				"x": 1.2189794539,
				"y": 0.9697262888,
				"z": 2.8074970541,
				"element": "H" 
			}
		],
		 "valence_orbital": [ 
			{
				"type": "occ",
				"energy": -0.29329,
				"method": "rhf"
			},
			{
				"type": "occ",
				"energy": -0.28248,
				"method": "rhf"
			},
			{
				"type": "occ",
				"energy": -0.26197,
				"method": "rhf"
			},
			{
				"type": "occ",
				"energy": -0.25521,
				"method": "rhf"
			},
			{
				"type": "occ",
				"energy": -0.21715,
				"method": "rhf"
			},
			{
				"type": "unocc",
				"energy": -0.04843,
				"method": "rhf"
			},
			{
				"type": "unocc",
				"energy": -0.02535,
				"method": "rhf"
			},
			{
				"type": "unocc",
				"energy": -0.01471,
				"method": "rhf"
			},
			{
				"type": "unocc",
				"energy": -0.00579,
				"method": "rhf"
			},
			{
				"type": "unocc",
				"energy": 0.02388,
				"method": "rhf"
			}
		],
		"cosmo_sigma_profile": { 
			"-0.025": 0.0,
			"-0.024": 0.0,
			"-0.023": 0.0,
			"-0.022": 0.0,
			"-0.021": 0.0,
			"-0.02": 0.0,
			"-0.019": 0.0,
			"-0.018": 0.0106672544747,
			"-0.017": 0.682411935534,
			"-0.016": 0.95846402203,
			"-0.015": 1.06420351697,
			"-0.014": 1.11955381476,
			"-0.013": 1.26777847593,
			"-0.012": 0.971693672555,
			"-0.011": 0.774772408049,
			"-0.01": 1.01286058744,
			"-0.009": 5.205507252,
			"-0.008": 6.67945523638,
			"-0.007": 7.86525983518,
			"-0.006": 7.79109554454,
			"-0.005": 11.3694372401,
			"-0.004": 21.0667784921,
			"-0.003": 20.9710122712,
			"-0.002": 22.3025843057,
			"-0.001": 23.1562522126,
			"0.0": 23.3918705403,
			"0.001": 22.5370594482,
			"0.002": 20.2787940237,
			"0.003": 24.6327548294,
			"0.004": 17.5360063117,
			"0.005": 18.8249529122,
			"0.006": 13.7130941949,
			"0.007": 2.19118239428,
			"0.008": 1.77070148457,
			"0.009": 1.99658624274,
			"0.01": 3.31179579913,
			"0.011": 4.53884813289,
			"0.012": 3.55531267568,
			"0.013": 1.39198493422,
			"0.014": 0.0902815235871,
			"0.015": 0.0,
			"0.016": 0.0,
			"0.017": 0.0,
			"0.018": 0.0,
			"0.019": 0.0,
			"0.02": 0.0,
			"0.021": 0.0,
			"0.022": 0.0,
			"0.023": 0.0,
			"0.024": 0.0,
			"0.025": 0.0
		}
	}
}
