{
	 "smiles": "NNC1=C(C=C(C=C1)[N+]([O-])=O)S(=O)(=O)NC1=C(Cl)C=CC=C1", 
	 "Tm": 497.15, 
	 "num_atms": 33, 
	 "gaussian": { 
		 "optdone": 1, 
		 "sigma_profile": "yes", 
		 "theory": "DFT", 
		 "functional": "B3LYP", 
		 "basiset": "6-31G**", 
		 "properties": { 
			 "R2extent": 7337.0789, 
			 "electric_dipole_moment_norm": 6.23249158604, 
			 "electric_quadrupole_moment_norm": 28.0244691145, 
			 "total_energy": -1841.98861567, 
			 "HOMO_LUMO_gap": 0.15675, 
			 "cosmo_polarized_energy": -21.34, 
			 "cosmo_cavitation_energy": 41.26, 
			 "cosmo_dispersion_energy": -28.29, 
			 "cosmo_repulsion_energy": 2.15, 
			 "cosmo_total_nonelectrostatic_energy": 15.11, 
			 "SMD_solvation_energy": 8.59 
		},
		"coords": [
			{
				"x": -1.9881135608,
				"y": -3.1079580963,
				"z": -1.4089952852,
				"element": "N" 
			},
			{
				"x": -1.199353323,
				"y": -1.9557224341,
				"z": -1.578827006,
				"element": "N" 
			},
			{
				"x": -1.6720569022,
				"y": -0.7541726504,
				"z": -1.118469049,
				"element": "C" 
			},
			{
				"x": -0.9797488526,
				"y": 0.4660777314,
				"z": -1.3830040117,
				"element": "C" 
			},
			{
				"x": -1.4625436646,
				"y": 1.6859952718,
				"z": -0.9171719274,
				"element": "C" 
			},
			{
				"x": -2.6320651269,
				"y": 1.7129511197,
				"z": -0.16832747,
				"element": "C" 
			},
			{
				"x": -3.3246462354,
				"y": 0.5329188692,
				"z": 0.1256918083,
				"element": "C" 
			},
			{
				"x": -2.8538013399,
				"y": -0.6782623957,
				"z": -0.3434783527,
				"element": "C" 
			},
			{
				"x": -3.137645764,
				"y": 2.9905666778,
				"z": 0.3198160197,
				"element": "N" 
			},
			{
				"x": -4.1769117287,
				"y": 2.9766725628,
				"z": 0.9834989197,
				"element": "O" 
			},
			{
				"x": -2.4973023597,
				"y": 4.0068252277,
				"z": 0.0430808289,
				"element": "O" 
			},
			{
				"x": 0.5848542361,
				"y": 0.4994773776,
				"z": -2.2509541614,
				"element": "S" 
			},
			{
				"x": 0.606211431,
				"y": -0.609770327,
				"z": -3.2190529846,
				"element": "O" 
			},
			{
				"x": 0.8457667214,
				"y": 1.8742828755,
				"z": -2.662643235,
				"element": "O" 
			},
			{
				"x": 1.7860609182,
				"y": 0.0585342397,
				"z": -1.1342188597,
				"element": "N" 
			},
			{
				"x": 2.0291390133,
				"y": 0.7743278406,
				"z": 0.0636766097,
				"element": "C" 
			},
			{
				"x": 2.1013742406,
				"y": 0.1040266422,
				"z": 1.2978233304,
				"element": "C" 
			},
			{
				"x": 1.846077342,
				"y": -1.6404155882,
				"z": 1.3651393155,
				"element": "Cl" 
			},
			{
				"x": 2.3890275784,
				"y": 0.7845304025,
				"z": 2.4782410989,
				"element": "C" 
			},
			{
				"x": 2.5873484878,
				"y": 2.1638429431,
				"z": 2.4464672459,
				"element": "C" 
			},
			{
				"x": 2.5173058965,
				"y": 2.845655578,
				"z": 1.2306541446,
				"element": "C" 
			},
			{
				"x": 2.2582425924,
				"y": 2.1588327171,
				"z": 0.0476175004,
				"element": "C" 
			},
			{
				"x": -2.3919086176,
				"y": -3.3915646194,
				"z": -2.2999156039,
				"element": "H" 
			},
			{
				"x": -1.3976193689,
				"y": -3.8600573591,
				"z": -1.0661610426,
				"element": "H" 
			},
			{
				"x": -0.5463769325,
				"y": -1.9135982671,
				"z": -2.3576812089,
				"element": "H" 
			},
			{
				"x": -0.940300299,
				"y": 2.6069031276,
				"z": -1.1417502264,
				"element": "H" 
			},
			{
				"x": -4.2319248237,
				"y": 0.5892969786,
				"z": 0.7146857745,
				"element": "H" 
			},
			{
				"x": -3.379797499,
				"y": -1.6009677216,
				"z": -0.137045445,
				"element": "H" 
			},
			{
				"x": 1.8021181821,
				"y": -0.9522446484,
				"z": -1.0300831302,
				"element": "H" 
			},
			{
				"x": 2.4450165892,
				"y": 0.2323545877,
				"z": 3.4097106039,
				"element": "H" 
			},
			{
				"x": 2.8010439698,
				"y": 2.6969669005,
				"z": 3.3671940682,
				"element": "H" 
			},
			{
				"x": 2.6811188835,
				"y": 3.917984897,
				"z": 1.1961928256,
				"element": "H" 
			},
			{
				"x": 2.2310103161,
				"y": 2.6775095392,
				"z": -0.9028110945,
				"element": "H" 
			}
		],
		 "valence_orbital": [ 
			{
				"type": "occ",
				"energy": -0.28764,
				"method": "rhf"
			},
			{
				"type": "occ",
				"energy": -0.28418,
				"method": "rhf"
			},
			{
				"type": "occ",
				"energy": -0.26588,
				"method": "rhf"
			},
			{
				"type": "occ",
				"energy": -0.24913,
				"method": "rhf"
			},
			{
				"type": "occ",
				"energy": -0.23861,
				"method": "rhf"
			},
			{
				"type": "unocc",
				"energy": -0.08186,
				"method": "rhf"
			},
			{
				"type": "unocc",
				"energy": -0.05397,
				"method": "rhf"
			},
			{
				"type": "unocc",
				"energy": -0.0269,
				"method": "rhf"
			},
			{
				"type": "unocc",
				"energy": -0.02429,
				"method": "rhf"
			},
			{
				"type": "unocc",
				"energy": 0.00233,
				"method": "rhf"
			}
		],
		"cosmo_sigma_profile": { 
			"-0.025": 0.0,
			"-0.024": 0.0,
			"-0.023": 0.0,
			"-0.022": 0.0,
			"-0.021": 0.0,
			"-0.02": 0.0,
			"-0.019": 0.0,
			"-0.018": 0.0,
			"-0.017": 0.0,
			"-0.016": 0.0,
			"-0.015": 0.0,
			"-0.014": 0.0,
			"-0.013": 0.936604959271,
			"-0.012": 5.50886128029,
			"-0.011": 4.92839222025,
			"-0.01": 6.23295124046,
			"-0.009": 5.70014564901,
			"-0.008": 5.15811121215,
			"-0.007": 8.93798405273,
			"-0.006": 15.0666979876,
			"-0.005": 15.7808367016,
			"-0.004": 15.6749561297,
			"-0.003": 18.2336001389,
			"-0.002": 19.8711789821,
			"-0.001": 28.3577996356,
			"0.0": 28.9628251456,
			"0.001": 25.7841693978,
			"0.002": 26.6263168563,
			"0.003": 21.9843501804,
			"0.004": 16.3536649626,
			"0.005": 7.04237952983,
			"0.006": 8.88934540003,
			"0.007": 8.91467774344,
			"0.008": 13.7263543423,
			"0.009": 10.8026005777,
			"0.01": 10.7793937146,
			"0.011": 2.95923763764,
			"0.012": 0.0,
			"0.013": 0.0,
			"0.014": 0.0,
			"0.015": 0.0,
			"0.016": 0.0,
			"0.017": 0.0,
			"0.018": 0.0,
			"0.019": 0.0,
			"0.02": 0.0,
			"0.021": 0.0,
			"0.022": 0.0,
			"0.023": 0.0,
			"0.024": 0.0,
			"0.025": 0.0
		}
	}
}
