{
	 "smiles": "COC1=CC(=C(C=C1)C1=CC=C(O1)C=O)[N+]([O-])=O", 
	 "Tm": 381.15, 
	 "num_atms": 27, 
	 "gaussian": { 
		 "optdone": 1, 
		 "sigma_profile": "yes", 
		 "theory": "DFT", 
		 "functional": "B3LYP", 
		 "basiset": "6-31G**", 
		 "properties": { 
			 "R2extent": 5958.693, 
			 "electric_dipole_moment_norm": 6.55291887787, 
			 "electric_quadrupole_moment_norm": 20.7824202558, 
			 "total_energy": -893.420918356, 
			 "HOMO_LUMO_gap": 0.1272, 
			 "cosmo_polarized_energy": -14.71, 
			 "cosmo_cavitation_energy": 33.37, 
			 "cosmo_dispersion_energy": -23.95, 
			 "cosmo_repulsion_energy": 1.82, 
			 "cosmo_total_nonelectrostatic_energy": 11.25, 
			 "SMD_solvation_energy": 10.17 
		},
		"coords": [
			{
				"x": 2.438666977,
				"y": -0.8392302459,
				"z": 4.0020540061,
				"element": "C" 
			},
			{
				"x": 2.8825783632,
				"y": -0.1377013855,
				"z": 2.8460368993,
				"element": "O" 
			},
			{
				"x": 1.9992773711,
				"y": 0.0710625514,
				"z": 1.8395791874,
				"element": "C" 
			},
			{
				"x": 2.4928630536,
				"y": 0.7632614227,
				"z": 0.7278702741,
				"element": "C" 
			},
			{
				"x": 1.6736851653,
				"y": 1.0091589166,
				"z": -0.3640233493,
				"element": "C" 
			},
			{
				"x": 0.3117128447,
				"y": 0.6246495188,
				"z": -0.4016156542,
				"element": "C" 
			},
			{
				"x": -0.1479618293,
				"y": -0.057716959,
				"z": 0.7410380728,
				"element": "C" 
			},
			{
				"x": 0.663271366,
				"y": -0.3476853754,
				"z": 1.8333268555,
				"element": "C" 
			},
			{
				"x": -0.6615110036,
				"y": 0.9344652478,
				"z": -1.450591886,
				"element": "C" 
			},
			{
				"x": -0.7366913022,
				"y": 1.8195090077,
				"z": -2.509706075,
				"element": "C" 
			},
			{
				"x": -2.0278317506,
				"y": 1.6840257302,
				"z": -3.0699807586,
				"element": "C" 
			},
			{
				"x": -2.6794443345,
				"y": 0.7248911316,
				"z": -2.3325839006,
				"element": "C" 
			},
			{
				"x": -1.8494968828,
				"y": 0.268466842,
				"z": -1.342273849,
				"element": "O" 
			},
			{
				"x": -4.0076047197,
				"y": 0.1402958112,
				"z": -2.4176172839,
				"element": "C" 
			},
			{
				"x": -4.8360108427,
				"y": 0.4669257517,
				"z": -3.251533746,
				"element": "O" 
			},
			{
				"x": 2.3551901974,
				"y": 1.657619618,
				"z": -1.5020811146,
				"element": "N" 
			},
			{
				"x": 3.2014596033,
				"y": 2.5100921252,
				"z": -1.2415735855,
				"element": "O" 
			},
			{
				"x": 2.0651976307,
				"y": 1.2767746943,
				"z": -2.6345979347,
				"element": "O" 
			},
			{
				"x": 2.1109141435,
				"y": -1.8558880274,
				"z": 3.7529914498,
				"element": "H" 
			},
			{
				"x": 1.6228443966,
				"y": -0.3066384705,
				"z": 4.5058342397,
				"element": "H" 
			},
			{
				"x": 3.3004316498,
				"y": -0.8911270562,
				"z": 4.667858382,
				"element": "H" 
			},
			{
				"x": 3.5230644173,
				"y": 1.0949122859,
				"z": 0.7143862059,
				"element": "H" 
			},
			{
				"x": -1.1873054397,
				"y": -0.3601199509,
				"z": 0.7703498696,
				"element": "H" 
			},
			{
				"x": 0.2402436211,
				"y": -0.8842580133,
				"z": 2.673783301,
				"element": "H" 
			},
			{
				"x": 0.0454947009,
				"y": 2.4756381952,
				"z": -2.8538128428,
				"element": "H" 
			},
			{
				"x": -2.4429416501,
				"y": 2.2142734378,
				"z": -3.9143752931,
				"element": "H" 
			},
			{
				"x": -4.2133957463,
				"y": -0.6374568041,
				"z": -1.6519414696,
				"element": "H" 
			}
		],
		 "valence_orbital": [ 
			{
				"type": "occ",
				"energy": -0.29736,
				"method": "rhf"
			},
			{
				"type": "occ",
				"energy": -0.28231,
				"method": "rhf"
			},
			{
				"type": "occ",
				"energy": -0.27793,
				"method": "rhf"
			},
			{
				"type": "occ",
				"energy": -0.25841,
				"method": "rhf"
			},
			{
				"type": "occ",
				"energy": -0.22378,
				"method": "rhf"
			},
			{
				"type": "unocc",
				"energy": -0.09658,
				"method": "rhf"
			},
			{
				"type": "unocc",
				"energy": -0.07066,
				"method": "rhf"
			},
			{
				"type": "unocc",
				"energy": -0.02934,
				"method": "rhf"
			},
			{
				"type": "unocc",
				"energy": -0.01627,
				"method": "rhf"
			},
			{
				"type": "unocc",
				"energy": 0.04907,
				"method": "rhf"
			}
		],
		"cosmo_sigma_profile": { 
			"-0.025": 0.0,
			"-0.024": 0.0,
			"-0.023": 0.0,
			"-0.022": 0.0,
			"-0.021": 0.0,
			"-0.02": 0.0,
			"-0.019": 0.0,
			"-0.018": 0.0,
			"-0.017": 0.0,
			"-0.016": 0.0,
			"-0.015": 0.0,
			"-0.014": 0.0,
			"-0.013": 0.0,
			"-0.012": 0.0,
			"-0.011": 0.0141006194027,
			"-0.01": 0.400906875842,
			"-0.009": 1.58796922326,
			"-0.008": 6.67422014673,
			"-0.007": 13.5671659691,
			"-0.006": 19.9765493608,
			"-0.005": 18.3119830758,
			"-0.004": 18.8601022851,
			"-0.003": 15.4616233343,
			"-0.002": 15.4430823406,
			"-0.001": 18.7850784359,
			"0.0": 28.5076801854,
			"0.001": 25.4032896898,
			"0.002": 14.7262351793,
			"0.003": 9.38010474411,
			"0.004": 6.6999395782,
			"0.005": 7.06180445501,
			"0.006": 7.82364250929,
			"0.007": 11.2967332894,
			"0.008": 10.2107953725,
			"0.009": 5.8034361216,
			"0.01": 3.15914194701,
			"0.011": 4.33923211059,
			"0.012": 3.86150086213,
			"0.013": 1.2602489297,
			"0.014": 0.0441831560716,
			"0.015": 0.0,
			"0.016": 0.0,
			"0.017": 0.0,
			"0.018": 0.0,
			"0.019": 0.0,
			"0.02": 0.0,
			"0.021": 0.0,
			"0.022": 0.0,
			"0.023": 0.0,
			"0.024": 0.0,
			"0.025": 0.0
		}
	}
}
