{
	 "smiles": "NS(=O)(=O)C1=CC(F)=CC=C1", 
	 "Tm": 403.15, 
	 "num_atms": 17, 
	 "gaussian": { 
		 "optdone": 1, 
		 "sigma_profile": "yes", 
		 "theory": "DFT", 
		 "functional": "B3LYP", 
		 "basiset": "6-31G**", 
		 "properties": { 
			 "R2extent": 2987.0714, 
			 "electric_dipole_moment_norm": 3.45798379985, 
			 "electric_quadrupole_moment_norm": 13.149013428, 
			 "total_energy": -935.403703463, 
			 "HOMO_LUMO_gap": 0.21877, 
			 "cosmo_polarized_energy": -13.95, 
			 "cosmo_cavitation_energy": 23.35, 
			 "cosmo_dispersion_energy": -17.72, 
			 "cosmo_repulsion_energy": 1.36, 
			 "cosmo_total_nonelectrostatic_energy": 6.99, 
			 "SMD_solvation_energy": 4.22 
		},
		"coords": [
			{
				"x": -0.5424812726,
				"y": -1.4256035952,
				"z": -0.7424414532,
				"element": "N" 
			},
			{
				"x": 0.4004340999,
				"y": -0.2744214621,
				"z": 0.0675590044,
				"element": "S" 
			},
			{
				"x": 1.6593244439,
				"y": -0.927086761,
				"z": 0.4374290411,
				"element": "O" 
			},
			{
				"x": -0.4691605528,
				"y": 0.3765126763,
				"z": 1.0510981837,
				"element": "O" 
			},
			{
				"x": 0.7691562296,
				"y": 0.9298761842,
				"z": -1.2122998222,
				"element": "C" 
			},
			{
				"x": 1.928515148,
				"y": 0.766089346,
				"z": -1.9703275469,
				"element": "C" 
			},
			{
				"x": 2.1878934875,
				"y": 1.7077794904,
				"z": -2.95844932,
				"element": "C" 
			},
			{
				"x": 3.3006356475,
				"y": 1.5753043826,
				"z": -3.7045385843,
				"element": "F" 
			},
			{
				"x": 1.3402921996,
				"y": 2.7852878967,
				"z": -3.197777779,
				"element": "C" 
			},
			{
				"x": 0.1936491304,
				"y": 2.927416556,
				"z": -2.4151447392,
				"element": "C" 
			},
			{
				"x": -0.1018894604,
				"y": 2.0012995576,
				"z": -1.4133908613,
				"element": "C" 
			},
			{
				"x": -1.4554585342,
				"y": -1.4835650482,
				"z": -0.2989834102,
				"element": "H" 
			},
			{
				"x": -0.0649566525,
				"y": -2.3230367223,
				"z": -0.7297086275,
				"element": "H" 
			},
			{
				"x": 2.6152761156,
				"y": -0.0516523832,
				"z": -1.787502951,
				"element": "H" 
			},
			{
				"x": 1.5902345236,
				"y": 3.4951033416,
				"z": -3.9787374561,
				"element": "H" 
			},
			{
				"x": -0.4697525843,
				"y": 3.7697005263,
				"z": -2.584223442,
				"element": "H" 
			},
			{
				"x": -0.9780119689,
				"y": 2.1116960143,
				"z": -0.7851602362,
				"element": "H" 
			}
		],
		 "valence_orbital": [ 
			{
				"type": "occ",
				"energy": -0.32171,
				"method": "rhf"
			},
			{
				"type": "occ",
				"energy": -0.31067,
				"method": "rhf"
			},
			{
				"type": "occ",
				"energy": -0.30686,
				"method": "rhf"
			},
			{
				"type": "occ",
				"energy": -0.27629,
				"method": "rhf"
			},
			{
				"type": "occ",
				"energy": -0.264,
				"method": "rhf"
			},
			{
				"type": "unocc",
				"energy": -0.04523,
				"method": "rhf"
			},
			{
				"type": "unocc",
				"energy": -0.02065,
				"method": "rhf"
			},
			{
				"type": "unocc",
				"energy": 0.04599,
				"method": "rhf"
			},
			{
				"type": "unocc",
				"energy": 0.0782,
				"method": "rhf"
			},
			{
				"type": "unocc",
				"energy": 0.08109,
				"method": "rhf"
			}
		],
		"cosmo_sigma_profile": { 
			"-0.025": 0.0,
			"-0.024": 0.0,
			"-0.023": 0.0,
			"-0.022": 0.0,
			"-0.021": 0.0,
			"-0.02": 0.0,
			"-0.019": 0.0,
			"-0.018": 0.0,
			"-0.017": 0.0,
			"-0.016": 0.0,
			"-0.015": 1.41587593479,
			"-0.014": 2.42253681127,
			"-0.013": 2.1819334771,
			"-0.012": 2.586555109,
			"-0.011": 2.35370471334,
			"-0.01": 1.88049980104,
			"-0.009": 2.12180346461,
			"-0.008": 5.5309237968,
			"-0.007": 8.12726146451,
			"-0.006": 9.86628781005,
			"-0.005": 8.43150524334,
			"-0.004": 7.6348693524,
			"-0.003": 7.27600395797,
			"-0.002": 9.49864683174,
			"-0.001": 11.7242900874,
			"0.0": 14.0830191247,
			"0.001": 16.1153207628,
			"0.002": 13.1042653251,
			"0.003": 11.0781310516,
			"0.004": 11.8425231707,
			"0.005": 3.2788352906,
			"0.006": 3.2345668565,
			"0.007": 4.39389145062,
			"0.008": 2.78989769797,
			"0.009": 3.75943909736,
			"0.01": 9.44460770746,
			"0.011": 8.78439762927,
			"0.012": 2.1008220678,
			"0.013": 0.0887457743034,
			"0.014": 0.0,
			"0.015": 0.0,
			"0.016": 0.0,
			"0.017": 0.0,
			"0.018": 0.0,
			"0.019": 0.0,
			"0.02": 0.0,
			"0.021": 0.0,
			"0.022": 0.0,
			"0.023": 0.0,
			"0.024": 0.0,
			"0.025": 0.0
		}
	}
}
