{
	 "smiles": "NC1=CC(Cl)=C(C=C1)N1C(=O)C2=C(C=CC=C2)C1=O", 
	 "Tm": 478.15, 
	 "num_atms": 28, 
	 "gaussian": { 
		 "optdone": 1, 
		 "sigma_profile": "yes", 
		 "theory": "DFT", 
		 "functional": "B3LYP", 
		 "basiset": "6-31G**", 
		 "properties": { 
			 "R2extent": 5844.0537, 
			 "electric_dipole_moment_norm": 1.79356379591, 
			 "electric_quadrupole_moment_norm": 31.4830772276, 
			 "total_energy": -1259.08633143, 
			 "HOMO_LUMO_gap": 0.13945, 
			 "cosmo_polarized_energy": -18.84, 
			 "cosmo_cavitation_energy": 35.68, 
			 "cosmo_dispersion_energy": -24.94, 
			 "cosmo_repulsion_energy": 1.91, 
			 "cosmo_total_nonelectrostatic_energy": 12.66, 
			 "SMD_solvation_energy": 7.26 
		},
		"coords": [
			{
				"x": 2.0862298161,
				"y": -4.203043471,
				"z": 3.0872258441,
				"element": "N" 
			},
			{
				"x": 1.5307858457,
				"y": -3.1485210765,
				"z": 2.374193116,
				"element": "C" 
			},
			{
				"x": 0.1748661553,
				"y": -3.175756833,
				"z": 2.0050147632,
				"element": "C" 
			},
			{
				"x": -0.3640427933,
				"y": -2.144843668,
				"z": 1.2442369571,
				"element": "C" 
			},
			{
				"x": -2.0538420698,
				"y": -2.2401790796,
				"z": 0.7887395961,
				"element": "Cl" 
			},
			{
				"x": 0.4152316774,
				"y": -1.0521192216,
				"z": 0.8391188357,
				"element": "C" 
			},
			{
				"x": 1.7636067753,
				"y": -1.0367476978,
				"z": 1.2085842609,
				"element": "C" 
			},
			{
				"x": 2.3218764351,
				"y": -2.0620106982,
				"z": 1.9587356386,
				"element": "C" 
			},
			{
				"x": -0.1293682286,
				"y": 0.0119149374,
				"z": 0.0697614479,
				"element": "N" 
			},
			{
				"x": 0.0753660184,
				"y": 0.1660123135,
				"z": -1.3229319378,
				"element": "C" 
			},
			{
				"x": 0.7479405182,
				"y": -0.558926486,
				"z": -2.0234335979,
				"element": "O" 
			},
			{
				"x": -0.6911295366,
				"y": 1.3884502621,
				"z": -1.7027687253,
				"element": "C" 
			},
			{
				"x": -1.3025675557,
				"y": 1.9042550586,
				"z": -0.5594509454,
				"element": "C" 
			},
			{
				"x": -2.0854036258,
				"y": 3.0492762036,
				"z": -0.6088116717,
				"element": "C" 
			},
			{
				"x": -2.2420304583,
				"y": 3.6696413036,
				"z": -1.8547998429,
				"element": "C" 
			},
			{
				"x": -1.6286296321,
				"y": 3.1510507472,
				"z": -3.0032785819,
				"element": "C" 
			},
			{
				"x": -0.8387108289,
				"y": 1.9960094772,
				"z": -2.9419348588,
				"element": "C" 
			},
			{
				"x": -0.9507757731,
				"y": 1.0362619386,
				"z": 0.6018716399,
				"element": "C" 
			},
			{
				"x": -1.2694883851,
				"y": 1.1535383309,
				"z": 1.7646486892,
				"element": "O" 
			},
			{
				"x": 1.4416213547,
				"y": -4.767599524,
				"z": 3.6216002641,
				"element": "H" 
			},
			{
				"x": 2.935431453,
				"y": -3.995656735,
				"z": 3.5927922211,
				"element": "H" 
			},
			{
				"x": -0.457402463,
				"y": -4.005686964,
				"z": 2.3022146613,
				"element": "H" 
			},
			{
				"x": 2.3754927694,
				"y": -0.1965526076,
				"z": 0.8968492983,
				"element": "H" 
			},
			{
				"x": 3.3738656864,
				"y": -2.0270414094,
				"z": 2.2269933828,
				"element": "H" 
			},
			{
				"x": -2.5552420601,
				"y": 3.4407678829,
				"z": 0.2876435517,
				"element": "H" 
			},
			{
				"x": -2.8485333787,
				"y": 4.5669127712,
				"z": -1.9348759233,
				"element": "H" 
			},
			{
				"x": -1.7695950318,
				"y": 3.654660162,
				"z": -3.9550414549,
				"element": "H" 
			},
			{
				"x": -0.358252684,
				"y": 1.5847340828,
				"z": -3.8237966283,
				"element": "H" 
			}
		],
		 "valence_orbital": [ 
			{
				"type": "occ",
				"energy": -0.27372,
				"method": "rhf"
			},
			{
				"type": "occ",
				"energy": -0.26755,
				"method": "rhf"
			},
			{
				"type": "occ",
				"energy": -0.26178,
				"method": "rhf"
			},
			{
				"type": "occ",
				"energy": -0.24963,
				"method": "rhf"
			},
			{
				"type": "occ",
				"energy": -0.21534,
				"method": "rhf"
			},
			{
				"type": "unocc",
				"energy": -0.07589,
				"method": "rhf"
			},
			{
				"type": "unocc",
				"energy": -0.03765,
				"method": "rhf"
			},
			{
				"type": "unocc",
				"energy": -0.01239,
				"method": "rhf"
			},
			{
				"type": "unocc",
				"energy": -0.00239,
				"method": "rhf"
			},
			{
				"type": "unocc",
				"energy": 0.03135,
				"method": "rhf"
			}
		],
		"cosmo_sigma_profile": { 
			"-0.025": 0.0,
			"-0.024": 0.0,
			"-0.023": 0.0,
			"-0.022": 0.0,
			"-0.021": 0.0,
			"-0.02": 0.0,
			"-0.019": 0.0,
			"-0.018": 0.0,
			"-0.017": 0.0,
			"-0.016": 0.0,
			"-0.015": 0.0,
			"-0.014": 0.127634782417,
			"-0.013": 2.48320607575,
			"-0.012": 2.98364043623,
			"-0.011": 3.3862145666,
			"-0.01": 3.71937606865,
			"-0.009": 3.20687414187,
			"-0.008": 5.57698646434,
			"-0.007": 15.0489566233,
			"-0.006": 16.2357435116,
			"-0.005": 17.293404471,
			"-0.004": 11.8907762796,
			"-0.003": 14.0305120839,
			"-0.002": 14.6639530062,
			"-0.001": 19.7504631571,
			"0.0": 19.5036372731,
			"0.001": 23.6950918537,
			"0.002": 26.3991496908,
			"0.003": 19.2600011847,
			"0.004": 18.9034122382,
			"0.005": 8.4195993186,
			"0.006": 5.97637444749,
			"0.007": 4.89853140676,
			"0.008": 4.73768325232,
			"0.009": 5.27162520531,
			"0.01": 7.00651092469,
			"0.011": 10.6831387718,
			"0.012": 3.68363594047,
			"0.013": 0.364520522508,
			"0.014": 0.0,
			"0.015": 0.0,
			"0.016": 0.0,
			"0.017": 0.0,
			"0.018": 0.0,
			"0.019": 0.0,
			"0.02": 0.0,
			"0.021": 0.0,
			"0.022": 0.0,
			"0.023": 0.0,
			"0.024": 0.0,
			"0.025": 0.0
		}
	}
}
