{
	 "smiles": "CCCCCCCCC(O)CCC", 
	 "Tm": 284.15, 
	 "num_atms": 39, 
	 "gaussian": { 
		 "optdone": 1, 
		 "sigma_profile": "yes", 
		 "theory": "DFT", 
		 "functional": "B3LYP", 
		 "basiset": "6-31G**", 
		 "properties": { 
			 "R2extent": 4631.7762, 
			 "electric_dipole_moment_norm": 1.37230498797, 
			 "electric_quadrupole_moment_norm": 7.03873559739, 
			 "total_energy": -548.199485307, 
			 "HOMO_LUMO_gap": 0.32353, 
			 "cosmo_polarized_energy": -5.95, 
			 "cosmo_cavitation_energy": 38.37, 
			 "cosmo_dispersion_energy": -25.89, 
			 "cosmo_repulsion_energy": 2.14, 
			 "cosmo_total_nonelectrostatic_energy": 14.63, 
			 "SMD_solvation_energy": 5.43 
		},
		"coords": [
			{
				"x": -1.0759746361,
				"y": -0.7564958234,
				"z": 5.144042514,
				"element": "C" 
			},
			{
				"x": -0.5303909668,
				"y": 0.4498449648,
				"z": 4.3702839615,
				"element": "C" 
			},
			{
				"x": -1.3978759647,
				"y": 0.8880143313,
				"z": 3.1785901365,
				"element": "C" 
			},
			{
				"x": -1.4824624919,
				"y": -0.1326484886,
				"z": 2.0345930837,
				"element": "C" 
			},
			{
				"x": -2.3011689525,
				"y": 0.3752538088,
				"z": 0.8391315011,
				"element": "C" 
			},
			{
				"x": -2.4878661218,
				"y": -0.6496517692,
				"z": -0.2939170942,
				"element": "C" 
			},
			{
				"x": -1.2044116391,
				"y": -1.1049284172,
				"z": -1.0101756947,
				"element": "C" 
			},
			{
				"x": -0.4693787544,
				"y": 0.0187942714,
				"z": -1.7546760547,
				"element": "C" 
			},
			{
				"x": 0.6517688209,
				"y": -0.4582399091,
				"z": -2.6971573754,
				"element": "C" 
			},
			{
				"x": 0.1412114505,
				"y": -1.3411870363,
				"z": -3.7028835453,
				"element": "O" 
			},
			{
				"x": 1.7868983532,
				"y": -1.2330570225,
				"z": -2.0175767775,
				"element": "C" 
			},
			{
				"x": 2.5630146125,
				"y": -0.4723658484,
				"z": -0.930991772,
				"element": "C" 
			},
			{
				"x": 3.3136847747,
				"y": 0.7692445848,
				"z": -1.4297163917,
				"element": "C" 
			},
			{
				"x": -1.1200040569,
				"y": -1.6560796744,
				"z": 4.5216529203,
				"element": "H" 
			},
			{
				"x": -2.0891184198,
				"y": -0.5610616473,
				"z": 5.514892237,
				"element": "H" 
			},
			{
				"x": -0.4455124929,
				"y": -0.987805225,
				"z": 6.0090220443,
				"element": "H" 
			},
			{
				"x": -0.4286624245,
				"y": 1.2975544624,
				"z": 5.060076784,
				"element": "H" 
			},
			{
				"x": 0.4849844156,
				"y": 0.2265787482,
				"z": 4.0143386731,
				"element": "H" 
			},
			{
				"x": -2.4127139137,
				"y": 1.1166945719,
				"z": 3.5354075439,
				"element": "H" 
			},
			{
				"x": -0.9989842288,
				"y": 1.8310389471,
				"z": 2.779924557,
				"element": "H" 
			},
			{
				"x": -0.4636729106,
				"y": -0.3874909803,
				"z": 1.7113449698,
				"element": "H" 
			},
			{
				"x": -1.9281705285,
				"y": -1.0682040637,
				"z": 2.3983981427,
				"element": "H" 
			},
			{
				"x": -1.8375421377,
				"y": 1.289795105,
				"z": 0.4445283323,
				"element": "H" 
			},
			{
				"x": -3.2946587637,
				"y": 0.6780692509,
				"z": 1.1973401186,
				"element": "H" 
			},
			{
				"x": -3.1753295432,
				"y": -0.2262122454,
				"z": -1.0395503019,
				"element": "H" 
			},
			{
				"x": -2.9943456426,
				"y": -1.5352252178,
				"z": 0.113910535,
				"element": "H" 
			},
			{
				"x": -1.4609550693,
				"y": -1.8832568623,
				"z": -1.7379328899,
				"element": "H" 
			},
			{
				"x": -0.527619145,
				"y": -1.578427909,
				"z": -0.2885719142,
				"element": "H" 
			},
			{
				"x": -1.197195046,
				"y": 0.581261893,
				"z": -2.3607842024,
				"element": "H" 
			},
			{
				"x": -0.0529136622,
				"y": 0.748324365,
				"z": -1.0488441956,
				"element": "H" 
			},
			{
				"x": 1.0795342557,
				"y": 0.4347732474,
				"z": -3.1820813071,
				"element": "H" 
			},
			{
				"x": -0.5483260457,
				"y": -0.8682234286,
				"z": -4.1869018546,
				"element": "H" 
			},
			{
				"x": 1.369071649,
				"y": -2.1544244809,
				"z": -1.5956880402,
				"element": "H" 
			},
			{
				"x": 2.4784525174,
				"y": -1.5484887452,
				"z": -2.8088084136,
				"element": "H" 
			},
			{
				"x": 1.8851517825,
				"y": -0.1868421743,
				"z": -0.1158810662,
				"element": "H" 
			},
			{
				"x": 3.285872246,
				"y": -1.1665176924,
				"z": -0.4845099426,
				"element": "H" 
			},
			{
				"x": 2.6320200516,
				"y": 1.5427194009,
				"z": -1.7989747458,
				"element": "H" 
			},
			{
				"x": 3.9099600066,
				"y": 1.2161836613,
				"z": -0.6273501854,
				"element": "H" 
			},
			{
				"x": 3.9963286224,
				"y": 0.5139890466,
				"z": -2.2485042898,
				"element": "H" 
			}
		],
		 "valence_orbital": [ 
			{
				"type": "occ",
				"energy": -0.31223,
				"method": "rhf"
			},
			{
				"type": "occ",
				"energy": -0.31179,
				"method": "rhf"
			},
			{
				"type": "occ",
				"energy": -0.2988,
				"method": "rhf"
			},
			{
				"type": "occ",
				"energy": -0.29579,
				"method": "rhf"
			},
			{
				"type": "occ",
				"energy": -0.25842,
				"method": "rhf"
			},
			{
				"type": "unocc",
				"energy": 0.06511,
				"method": "rhf"
			},
			{
				"type": "unocc",
				"energy": 0.08222,
				"method": "rhf"
			},
			{
				"type": "unocc",
				"energy": 0.09429,
				"method": "rhf"
			},
			{
				"type": "unocc",
				"energy": 0.10242,
				"method": "rhf"
			},
			{
				"type": "unocc",
				"energy": 0.10816,
				"method": "rhf"
			}
		],
		"cosmo_sigma_profile": { 
			"-0.025": 0.0,
			"-0.024": 0.0,
			"-0.023": 0.0,
			"-0.022": 0.0,
			"-0.021": 0.0,
			"-0.02": 0.0,
			"-0.019": 0.0,
			"-0.018": 0.0,
			"-0.017": 0.0,
			"-0.016": 0.0,
			"-0.015": 0.284409164566,
			"-0.014": 0.807570128236,
			"-0.013": 0.898740468032,
			"-0.012": 1.40819930758,
			"-0.011": 0.609587877643,
			"-0.01": 0.746225207603,
			"-0.009": 0.905207955783,
			"-0.008": 0.611624727593,
			"-0.007": 0.948397596247,
			"-0.006": 1.80017763128,
			"-0.005": 1.35449264202,
			"-0.004": 1.29273633959,
			"-0.003": 7.49786633383,
			"-0.002": 43.8818242959,
			"-0.001": 62.7983952253,
			"0.0": 63.974282338,
			"0.001": 59.105234319,
			"0.002": 25.3218483484,
			"0.003": 1.96881070998,
			"0.004": 1.13748308162,
			"0.005": 1.14791975692,
			"0.006": 1.93214141802,
			"0.007": 1.29079804611,
			"0.008": 1.79753310777,
			"0.009": 1.54670735354,
			"0.01": 0.784455619609,
			"0.011": 1.33485683446,
			"0.012": 1.0388067077,
			"0.013": 1.79091932218,
			"0.014": 1.30693831242,
			"0.015": 1.45004283242,
			"0.016": 0.0125632736904,
			"0.017": 0.0,
			"0.018": 0.0,
			"0.019": 0.0,
			"0.02": 0.0,
			"0.021": 0.0,
			"0.022": 0.0,
			"0.023": 0.0,
			"0.024": 0.0,
			"0.025": 0.0
		}
	}
}
