{
	 "smiles": "CC1=NN(N=C1C(N)=O)C1=CC=CC=C1", 
	 "Tm": 449.15, 
	 "num_atms": 25, 
	 "gaussian": { 
		 "optdone": 1, 
		 "sigma_profile": "yes", 
		 "theory": "DFT", 
		 "functional": "B3LYP", 
		 "basiset": "6-31G**", 
		 "properties": { 
			 "R2extent": 4152.1412, 
			 "electric_dipole_moment_norm": 3.69958690261, 
			 "electric_quadrupole_moment_norm": 23.0099493209, 
			 "total_energy": -681.310677291, 
			 "HOMO_LUMO_gap": 0.1849, 
			 "cosmo_polarized_energy": -17.53, 
			 "cosmo_cavitation_energy": 29.94, 
			 "cosmo_dispersion_energy": -22.05, 
			 "cosmo_repulsion_energy": 1.73, 
			 "cosmo_total_nonelectrostatic_energy": 9.62, 
			 "SMD_solvation_energy": 4.55 
		},
		"coords": [
			{
				"x": 2.9915870156,
				"y": -2.3491467174,
				"z": 1.0088927643,
				"element": "C" 
			},
			{
				"x": 2.0674607693,
				"y": -1.1954799332,
				"z": 0.7711677443,
				"element": "C" 
			},
			{
				"x": 0.8125844037,
				"y": -1.2253164694,
				"z": 1.2204625093,
				"element": "N" 
			},
			{
				"x": 0.3009062581,
				"y": -0.0436375119,
				"z": 0.844300042,
				"element": "N" 
			},
			{
				"x": 1.133728785,
				"y": 0.7551693912,
				"z": 0.193143111,
				"element": "N" 
			},
			{
				"x": 2.2711551599,
				"y": 0.0540606,
				"z": 0.1233703474,
				"element": "C" 
			},
			{
				"x": 3.4682549126,
				"y": 0.661951045,
				"z": -0.5291914718,
				"element": "C" 
			},
			{
				"x": 4.4701952156,
				"y": -0.2287913001,
				"z": -0.8509805402,
				"element": "N" 
			},
			{
				"x": 3.5743102508,
				"y": 1.8614275741,
				"z": -0.7253106964,
				"element": "O" 
			},
			{
				"x": -1.0441136194,
				"y": 0.3285157545,
				"z": 1.1311881347,
				"element": "C" 
			},
			{
				"x": -1.5034564724,
				"y": 1.5897706384,
				"z": 0.7410643782,
				"element": "C" 
			},
			{
				"x": -2.8203894144,
				"y": 1.9453644841,
				"z": 1.025329234,
				"element": "C" 
			},
			{
				"x": -3.6693853249,
				"y": 1.0575900522,
				"z": 1.6902479126,
				"element": "C" 
			},
			{
				"x": -3.1931677889,
				"y": -0.1978989992,
				"z": 2.0732879066,
				"element": "C" 
			},
			{
				"x": -1.8792825991,
				"y": -0.5724788989,
				"z": 1.7971162149,
				"element": "C" 
			},
			{
				"x": 3.9764587824,
				"y": -2.0075772682,
				"z": 1.3392872645,
				"element": "H" 
			},
			{
				"x": 3.1321841846,
				"y": -2.9518328464,
				"z": 0.1022026896,
				"element": "H" 
			},
			{
				"x": 2.5687790826,
				"y": -3.0046465989,
				"z": 1.7726558898,
				"element": "H" 
			},
			{
				"x": 5.2251980805,
				"y": 0.161459026,
				"z": -1.3974938444,
				"element": "H" 
			},
			{
				"x": 4.2616386488,
				"y": -1.2043084046,
				"z": -0.9980890337,
				"element": "H" 
			},
			{
				"x": -0.8315127184,
				"y": 2.2667762872,
				"z": 0.2280108681,
				"element": "H" 
			},
			{
				"x": -3.1818785788,
				"y": 2.9241537972,
				"z": 0.7247463712,
				"element": "H" 
			},
			{
				"x": -4.6941013169,
				"y": 1.3424398644,
				"z": 1.9085185393,
				"element": "H" 
			},
			{
				"x": -3.8459807882,
				"y": -0.89439083,
				"z": 2.590904467,
				"element": "H" 
			},
			{
				"x": -1.4946729279,
				"y": -1.542172736,
				"z": 2.0875691975,
				"element": "H" 
			}
		],
		 "valence_orbital": [ 
			{
				"type": "occ",
				"energy": -0.29495,
				"method": "rhf"
			},
			{
				"type": "occ",
				"energy": -0.27438,
				"method": "rhf"
			},
			{
				"type": "occ",
				"energy": -0.25929,
				"method": "rhf"
			},
			{
				"type": "occ",
				"energy": -0.25196,
				"method": "rhf"
			},
			{
				"type": "occ",
				"energy": -0.23313,
				"method": "rhf"
			},
			{
				"type": "unocc",
				"energy": -0.04823,
				"method": "rhf"
			},
			{
				"type": "unocc",
				"energy": -0.01243,
				"method": "rhf"
			},
			{
				"type": "unocc",
				"energy": -0.00284,
				"method": "rhf"
			},
			{
				"type": "unocc",
				"energy": 0.02888,
				"method": "rhf"
			},
			{
				"type": "unocc",
				"energy": 0.06062,
				"method": "rhf"
			}
		],
		"cosmo_sigma_profile": { 
			"-0.025": 0.0,
			"-0.024": 0.0,
			"-0.023": 0.0,
			"-0.022": 0.0,
			"-0.021": 0.0,
			"-0.02": 0.0,
			"-0.019": 0.0,
			"-0.018": 0.0,
			"-0.017": 0.0,
			"-0.016": 0.0,
			"-0.015": 0.046761799747,
			"-0.014": 1.1771038141,
			"-0.013": 2.78506588497,
			"-0.012": 3.10833628961,
			"-0.011": 2.76670809262,
			"-0.01": 2.48216656045,
			"-0.009": 2.35791538117,
			"-0.008": 1.71128147233,
			"-0.007": 4.67710936207,
			"-0.006": 12.0470388743,
			"-0.005": 16.4975272714,
			"-0.004": 16.2133768778,
			"-0.003": 15.1963235739,
			"-0.002": 19.7816635425,
			"-0.001": 18.773863715,
			"0.0": 17.5337066045,
			"0.001": 16.3481821954,
			"0.002": 14.2568767012,
			"0.003": 15.4260324369,
			"0.004": 16.3046490442,
			"0.005": 6.28245688456,
			"0.006": 4.19249010909,
			"0.007": 3.87679362339,
			"0.008": 3.3563817114,
			"0.009": 2.89269399492,
			"0.01": 2.45313861883,
			"0.011": 2.81524689193,
			"0.012": 2.95229160732,
			"0.013": 6.16384353919,
			"0.014": 3.71153681672,
			"0.015": 1.40083562017,
			"0.016": 0.0476464273329,
			"0.017": 0.0,
			"0.018": 0.0,
			"0.019": 0.0,
			"0.02": 0.0,
			"0.021": 0.0,
			"0.022": 0.0,
			"0.023": 0.0,
			"0.024": 0.0,
			"0.025": 0.0
		}
	}
}
