{
	 "smiles": "OCNC(=O)CCl", 
	 "Tm": 373.15, 
	 "num_atms": 13, 
	 "gaussian": { 
		 "optdone": 1, 
		 "sigma_profile": "yes", 
		 "theory": "DFT", 
		 "functional": "B3LYP", 
		 "basiset": "6-31G**", 
		 "properties": { 
			 "R2extent": 1146.7811, 
			 "electric_dipole_moment_norm": 2.42929199562, 
			 "electric_quadrupole_moment_norm": 7.10213700727, 
			 "total_energy": -783.327236143, 
			 "HOMO_LUMO_gap": 0.23374, 
			 "cosmo_polarized_energy": -12.97, 
			 "cosmo_cavitation_energy": 18.28, 
			 "cosmo_dispersion_energy": -13.86, 
			 "cosmo_repulsion_energy": 1.19, 
			 "cosmo_total_nonelectrostatic_energy": 5.61, 
			 "SMD_solvation_energy": 3.24 
		},
		"coords": [
			{
				"x": 0.5924650785,
				"y": -2.0460343863,
				"z": -1.5918462197,
				"element": "O" 
			},
			{
				"x": 0.0340752854,
				"y": -2.0800135149,
				"z": -0.3040867323,
				"element": "C" 
			},
			{
				"x": -0.6615059017,
				"y": -0.8620794057,
				"z": 0.0785972797,
				"element": "N" 
			},
			{
				"x": -0.1842055173,
				"y": 0.2215028231,
				"z": 0.7677501583,
				"element": "C" 
			},
			{
				"x": -0.835313682,
				"y": 1.2454608193,
				"z": 0.9063055057,
				"element": "O" 
			},
			{
				"x": 1.189714899,
				"y": 0.104667448,
				"z": 1.4340751472,
				"element": "C" 
			},
			{
				"x": 2.556176583,
				"y": 0.0310876489,
				"z": 0.2292176882,
				"element": "Cl" 
			},
			{
				"x": 1.332080718,
				"y": -1.4209117712,
				"z": -1.5716746587,
				"element": "H" 
			},
			{
				"x": 0.7798499438,
				"y": -2.3054414613,
				"z": 0.4667501762,
				"element": "H" 
			},
			{
				"x": -0.6961958826,
				"y": -2.8928702952,
				"z": -0.3168592469,
				"element": "H" 
			},
			{
				"x": -1.532872072,
				"y": -0.6647140685,
				"z": -0.3995007705,
				"element": "H" 
			},
			{
				"x": 1.3396902435,
				"y": 1.0079246666,
				"z": 2.0199592791,
				"element": "H" 
			},
			{
				"x": 1.2820403042,
				"y": -0.7800785029,
				"z": 2.0662123939,
				"element": "H" 
			}
		],
		 "valence_orbital": [ 
			{
				"type": "occ",
				"energy": -0.33096,
				"method": "rhf"
			},
			{
				"type": "occ",
				"energy": -0.32315,
				"method": "rhf"
			},
			{
				"type": "occ",
				"energy": -0.30482,
				"method": "rhf"
			},
			{
				"type": "occ",
				"energy": -0.27345,
				"method": "rhf"
			},
			{
				"type": "occ",
				"energy": -0.26698,
				"method": "rhf"
			},
			{
				"type": "unocc",
				"energy": -0.03324,
				"method": "rhf"
			},
			{
				"type": "unocc",
				"energy": 0.03853,
				"method": "rhf"
			},
			{
				"type": "unocc",
				"energy": 0.0735,
				"method": "rhf"
			},
			{
				"type": "unocc",
				"energy": 0.08864,
				"method": "rhf"
			},
			{
				"type": "unocc",
				"energy": 0.10351,
				"method": "rhf"
			}
		],
		"cosmo_sigma_profile": { 
			"-0.025": 0.0,
			"-0.024": 0.0,
			"-0.023": 0.0,
			"-0.022": 0.0,
			"-0.021": 0.0,
			"-0.02": 0.0,
			"-0.019": 0.0,
			"-0.018": 0.0,
			"-0.017": 0.0,
			"-0.016": 0.0,
			"-0.015": 0.0829082265676,
			"-0.014": 0.972275804321,
			"-0.013": 1.1666741899,
			"-0.012": 1.19495389747,
			"-0.011": 1.40389092375,
			"-0.01": 4.53345062128,
			"-0.009": 4.8975210654,
			"-0.008": 6.08880990042,
			"-0.007": 8.32486982615,
			"-0.006": 8.91530706007,
			"-0.005": 8.15374694742,
			"-0.004": 8.40557150694,
			"-0.003": 6.56856096883,
			"-0.002": 6.09705580918,
			"-0.001": 7.9391694041,
			"0.0": 8.1172497769,
			"0.001": 5.49382185945,
			"0.002": 6.49718525927,
			"0.003": 5.89226077077,
			"0.004": 7.086979732,
			"0.005": 7.99477228188,
			"0.006": 3.21374394447,
			"0.007": 2.56246946239,
			"0.008": 2.3357421711,
			"0.009": 2.40005582237,
			"0.01": 2.42836745095,
			"0.011": 2.50895153111,
			"0.012": 6.46568183932,
			"0.013": 6.87415207856,
			"0.014": 1.36631776466,
			"0.015": 0.0,
			"0.016": 0.0,
			"0.017": 0.0,
			"0.018": 0.0,
			"0.019": 0.0,
			"0.02": 0.0,
			"0.021": 0.0,
			"0.022": 0.0,
			"0.023": 0.0,
			"0.024": 0.0,
			"0.025": 0.0
		}
	}
}
