{
	 "smiles": "COC(=O)C1=C(O)C(C)=CC=C1", 
	 "Tm": 302.15, 
	 "num_atms": 22, 
	 "gaussian": { 
		 "optdone": 1, 
		 "sigma_profile": "yes", 
		 "theory": "DFT", 
		 "functional": "B3LYP", 
		 "basiset": "6-31G**", 
		 "properties": { 
			 "R2extent": 2680.4829, 
			 "electric_dipole_moment_norm": 2.06661290763, 
			 "electric_quadrupole_moment_norm": 9.62644550392, 
			 "total_energy": -574.684681026, 
			 "HOMO_LUMO_gap": 0.1741, 
			 "cosmo_polarized_energy": -6.61, 
			 "cosmo_cavitation_energy": 25.59, 
			 "cosmo_dispersion_energy": -19.21, 
			 "cosmo_repulsion_energy": 1.52, 
			 "cosmo_total_nonelectrostatic_energy": 7.9, 
			 "SMD_solvation_energy": 6.23 
		},
		"coords": [
			{
				"x": 2.5634881469,
				"y": 2.7086043406,
				"z": 0.6998135108,
				"element": "C" 
			},
			{
				"x": 1.9116748086,
				"y": 1.6028905204,
				"z": 0.0527717293,
				"element": "O" 
			},
			{
				"x": 0.5884167496,
				"y": 1.7361753813,
				"z": -0.1401118145,
				"element": "C" 
			},
			{
				"x": -0.0183475762,
				"y": 2.7494067242,
				"z": 0.2200632588,
				"element": "O" 
			},
			{
				"x": -0.0444281878,
				"y": 0.5886644112,
				"z": -0.802955966,
				"element": "C" 
			},
			{
				"x": -1.4399203581,
				"y": 0.6362974562,
				"z": -1.0499140798,
				"element": "C" 
			},
			{
				"x": -2.1996725594,
				"y": 1.6892203168,
				"z": -0.7005426433,
				"element": "O" 
			},
			{
				"x": -2.0881663522,
				"y": -0.447257134,
				"z": -1.6854497682,
				"element": "C" 
			},
			{
				"x": -3.5715785303,
				"y": -0.3717961574,
				"z": -1.9363135905,
				"element": "C" 
			},
			{
				"x": -1.3210439296,
				"y": -1.5469529737,
				"z": -2.0552961392,
				"element": "C" 
			},
			{
				"x": 0.0615677637,
				"y": -1.6081935328,
				"z": -1.8172434546,
				"element": "C" 
			},
			{
				"x": 0.6933051868,
				"y": -0.5459818735,
				"z": -1.1949895006,
				"element": "C" 
			},
			{
				"x": 3.6135614836,
				"y": 2.4259820978,
				"z": 0.7694347101,
				"element": "H" 
			},
			{
				"x": 2.4488829026,
				"y": 3.6213016631,
				"z": 0.1102439387,
				"element": "H" 
			},
			{
				"x": 2.1428867388,
				"y": 2.8746073442,
				"z": 1.6944391638,
				"element": "H" 
			},
			{
				"x": -1.598402442,
				"y": 2.3476370735,
				"z": -0.2741984768,
				"element": "H" 
			},
			{
				"x": -4.1253287314,
				"y": -0.2453753792,
				"z": -0.9995645998,
				"element": "H" 
			},
			{
				"x": -3.82351973,
				"y": 0.4908336497,
				"z": -2.5628282911,
				"element": "H" 
			},
			{
				"x": -3.9309528275,
				"y": -1.2772663578,
				"z": -2.4321298042,
				"element": "H" 
			},
			{
				"x": -1.815293714,
				"y": -2.3830258615,
				"z": -2.5444965582,
				"element": "H" 
			},
			{
				"x": 0.6277815785,
				"y": -2.483041277,
				"z": -2.1199980889,
				"element": "H" 
			},
			{
				"x": 1.7591895792,
				"y": -0.5678304321,
				"z": -0.9995335359,
				"element": "H" 
			}
		],
		 "valence_orbital": [ 
			{
				"type": "occ",
				"energy": -0.33376,
				"method": "rhf"
			},
			{
				"type": "occ",
				"energy": -0.31243,
				"method": "rhf"
			},
			{
				"type": "occ",
				"energy": -0.28479,
				"method": "rhf"
			},
			{
				"type": "occ",
				"energy": -0.25259,
				"method": "rhf"
			},
			{
				"type": "occ",
				"energy": -0.21938,
				"method": "rhf"
			},
			{
				"type": "unocc",
				"energy": -0.04528,
				"method": "rhf"
			},
			{
				"type": "unocc",
				"energy": 0.00911,
				"method": "rhf"
			},
			{
				"type": "unocc",
				"energy": 0.05554,
				"method": "rhf"
			},
			{
				"type": "unocc",
				"energy": 0.09953,
				"method": "rhf"
			},
			{
				"type": "unocc",
				"energy": 0.10938,
				"method": "rhf"
			}
		],
		"cosmo_sigma_profile": { 
			"-0.025": 0.0,
			"-0.024": 0.0,
			"-0.023": 0.0,
			"-0.022": 0.0,
			"-0.021": 0.0,
			"-0.02": 0.0,
			"-0.019": 0.0,
			"-0.018": 0.0,
			"-0.017": 0.0,
			"-0.016": 0.0,
			"-0.015": 0.0,
			"-0.014": 0.0,
			"-0.013": 0.0,
			"-0.012": 0.0,
			"-0.011": 0.0,
			"-0.01": 0.0,
			"-0.009": 0.0,
			"-0.008": 0.0,
			"-0.007": 1.55139978346,
			"-0.006": 9.87158241244,
			"-0.005": 15.1071967773,
			"-0.004": 19.6322337919,
			"-0.003": 19.9178796677,
			"-0.002": 18.9669548062,
			"-0.001": 16.1144441993,
			"0.0": 17.2265948307,
			"0.001": 16.3073191854,
			"0.002": 14.6469571219,
			"0.003": 13.725635483,
			"0.004": 12.4794547602,
			"0.005": 9.88399562437,
			"0.006": 3.35433152859,
			"0.007": 2.76630018303,
			"0.008": 3.04263255974,
			"0.009": 3.07022374774,
			"0.01": 3.76231111008,
			"0.011": 1.88348877054,
			"0.012": 0.153373666468,
			"0.013": 0.0,
			"0.014": 0.0,
			"0.015": 0.0,
			"0.016": 0.0,
			"0.017": 0.0,
			"0.018": 0.0,
			"0.019": 0.0,
			"0.02": 0.0,
			"0.021": 0.0,
			"0.022": 0.0,
			"0.023": 0.0,
			"0.024": 0.0,
			"0.025": 0.0
		}
	}
}
