{
	 "smiles": "NC1=CC=NN1CC1=CN=CC=C1", 
	 "Tm": 360.15, 
	 "num_atms": 23, 
	 "gaussian": { 
		 "optdone": 1, 
		 "sigma_profile": "yes", 
		 "theory": "DFT", 
		 "functional": "B3LYP", 
		 "basiset": "6-31G**", 
		 "properties": { 
			 "R2extent": 3039.3677, 
			 "electric_dipole_moment_norm": 2.40503124304, 
			 "electric_quadrupole_moment_norm": 21.0062045715, 
			 "total_energy": -567.957073882, 
			 "HOMO_LUMO_gap": 0.1844, 
			 "cosmo_polarized_energy": -15.94, 
			 "cosmo_cavitation_energy": 27.23, 
			 "cosmo_dispersion_energy": -19.47, 
			 "cosmo_repulsion_energy": 1.54, 
			 "cosmo_total_nonelectrostatic_energy": 9.3, 
			 "SMD_solvation_energy": 2.61 
		},
		"coords": [
			{
				"x": 2.5449815846,
				"y": -1.2792767787,
				"z": 1.1586373604,
				"element": "N" 
			},
			{
				"x": 1.7532760475,
				"y": -0.1398224091,
				"z": 0.996981209,
				"element": "C" 
			},
			{
				"x": 1.5887897593,
				"y": 0.9861313753,
				"z": 1.7907849102,
				"element": "C" 
			},
			{
				"x": 0.5804637068,
				"y": 1.7296034029,
				"z": 1.1393936987,
				"element": "C" 
			},
			{
				"x": 0.1502443484,
				"y": 1.1401633489,
				"z": 0.02899498,
				"element": "N" 
			},
			{
				"x": 0.8842404467,
				"y": -0.0134141815,
				"z": -0.047706135,
				"element": "N" 
			},
			{
				"x": 0.5605877368,
				"y": -0.9874380493,
				"z": -1.0772115327,
				"element": "C" 
			},
			{
				"x": -0.4463534765,
				"y": -2.0331863006,
				"z": -0.6372255946,
				"element": "C" 
			},
			{
				"x": -0.2123173424,
				"y": -3.3937688119,
				"z": -0.8548177837,
				"element": "C" 
			},
			{
				"x": -1.0664251252,
				"y": -4.3693190261,
				"z": -0.5234613889,
				"element": "N" 
			},
			{
				"x": -2.2129604608,
				"y": -4.0029161768,
				"z": 0.0601576727,
				"element": "C" 
			},
			{
				"x": -2.5480783704,
				"y": -2.674343291,
				"z": 0.3335334084,
				"element": "C" 
			},
			{
				"x": -1.6501914622,
				"y": -1.6720158523,
				"z": -0.0224035688,
				"element": "C" 
			},
			{
				"x": 3.0508997635,
				"y": -1.5541149308,
				"z": 0.3235553211,
				"element": "H" 
			},
			{
				"x": 3.1915170053,
				"y": -1.1810055229,
				"z": 1.930856953,
				"element": "H" 
			},
			{
				"x": 2.1318540702,
				"y": 1.2328478545,
				"z": 2.6910993719,
				"element": "H" 
			},
			{
				"x": 0.16350884,
				"y": 2.6851367802,
				"z": 1.430516496,
				"element": "H" 
			},
			{
				"x": 1.4786989997,
				"y": -1.4753894229,
				"z": -1.4214284028,
				"element": "H" 
			},
			{
				"x": 0.1697320842,
				"y": -0.4055869167,
				"z": -1.9168924458,
				"element": "H" 
			},
			{
				"x": 0.7188675345,
				"y": -3.7149993363,
				"z": -1.323047154,
				"element": "H" 
			},
			{
				"x": -2.8956993464,
				"y": -4.8086409601,
				"z": 0.3249928492,
				"element": "H" 
			},
			{
				"x": -3.492004594,
				"y": -2.4353688697,
				"z": 0.8137447545,
				"element": "H" 
			},
			{
				"x": -1.8616317496,
				"y": -0.6244759252,
				"z": 0.1729450212,
				"element": "H" 
			}
		],
		 "valence_orbital": [ 
			{
				"type": "occ",
				"energy": -0.28039,
				"method": "rhf"
			},
			{
				"type": "occ",
				"energy": -0.25917,
				"method": "rhf"
			},
			{
				"type": "occ",
				"energy": -0.25348,
				"method": "rhf"
			},
			{
				"type": "occ",
				"energy": -0.23917,
				"method": "rhf"
			},
			{
				"type": "occ",
				"energy": -0.20802,
				"method": "rhf"
			},
			{
				"type": "unocc",
				"energy": -0.02362,
				"method": "rhf"
			},
			{
				"type": "unocc",
				"energy": -0.01002,
				"method": "rhf"
			},
			{
				"type": "unocc",
				"energy": 0.03323,
				"method": "rhf"
			},
			{
				"type": "unocc",
				"energy": 0.05687,
				"method": "rhf"
			},
			{
				"type": "unocc",
				"energy": 0.08283,
				"method": "rhf"
			}
		],
		"cosmo_sigma_profile": { 
			"-0.025": 0.0,
			"-0.024": 0.0,
			"-0.023": 0.0,
			"-0.022": 0.0,
			"-0.021": 0.0,
			"-0.02": 0.0,
			"-0.019": 0.0,
			"-0.018": 0.0,
			"-0.017": 0.0,
			"-0.016": 0.0,
			"-0.015": 0.0,
			"-0.014": 0.0984131260559,
			"-0.013": 2.52461643327,
			"-0.012": 3.81843602988,
			"-0.011": 2.81204330944,
			"-0.01": 3.52535806743,
			"-0.009": 2.85348230823,
			"-0.008": 4.39798997468,
			"-0.007": 7.49780019265,
			"-0.006": 15.3290618589,
			"-0.005": 13.9632430255,
			"-0.004": 14.6061027561,
			"-0.003": 11.6471205574,
			"-0.002": 11.300919906,
			"-0.001": 10.2509807283,
			"0.0": 9.27853653499,
			"0.001": 12.2488843969,
			"0.002": 17.344518812,
			"0.003": 16.1011463373,
			"0.004": 9.15018559887,
			"0.005": 10.1101550708,
			"0.006": 8.2416360607,
			"0.007": 7.44002907077,
			"0.008": 3.79365033802,
			"0.009": 2.84572515019,
			"0.01": 3.17126125229,
			"0.011": 2.59993043802,
			"0.012": 2.03665856044,
			"0.013": 2.56888906676,
			"0.014": 2.1618271915,
			"0.015": 1.62705073187,
			"0.016": 1.67430333234,
			"0.017": 0.419798211305,
			"0.018": 0.0,
			"0.019": 0.0,
			"0.02": 0.0,
			"0.021": 0.0,
			"0.022": 0.0,
			"0.023": 0.0,
			"0.024": 0.0,
			"0.025": 0.0
		}
	}
}
