{
	 "smiles": "O=C1CCCCCCCCCCCCCCCO1", 
	 "Tm": 306.65, 
	 "num_atms": 48, 
	 "gaussian": { 
		 "optdone": 1, 
		 "sigma_profile": "yes", 
		 "theory": "DFT", 
		 "functional": "B3LYP", 
		 "basiset": "6-31G**", 
		 "properties": { 
			 "R2extent": 5739.7861, 
			 "electric_dipole_moment_norm": 1.67124864996, 
			 "electric_quadrupole_moment_norm": 9.24091402189, 
			 "total_energy": -778.265871854, 
			 "HOMO_LUMO_gap": 0.28194, 
			 "cosmo_polarized_energy": -6.14, 
			 "cosmo_cavitation_energy": 43.47, 
			 "cosmo_dispersion_energy": -29.05, 
			 "cosmo_repulsion_energy": 2.24, 
			 "cosmo_total_nonelectrostatic_energy": 16.66, 
			 "SMD_solvation_energy": 5.91 
		},
		"coords": [
			{
				"x": -0.8424679504,
				"y": 2.6446924,
				"z": 1.1852486061,
				"element": "O" 
			},
			{
				"x": -1.1245255601,
				"y": 1.8412351389,
				"z": 0.322675387,
				"element": "C" 
			},
			{
				"x": -0.4043020631,
				"y": 1.6354775021,
				"z": -0.9940747844,
				"element": "C" 
			},
			{
				"x": 1.0173125022,
				"y": 2.203899256,
				"z": -1.1218880374,
				"element": "C" 
			},
			{
				"x": 2.0513784733,
				"y": 1.9436125855,
				"z": 0.0034311786,
				"element": "C" 
			},
			{
				"x": 2.0029834628,
				"y": 0.6374415333,
				"z": 0.825521038,
				"element": "C" 
			},
			{
				"x": 1.8573017564,
				"y": -0.716932321,
				"z": 0.1093100078,
				"element": "C" 
			},
			{
				"x": 2.8620928815,
				"y": -1.0379146667,
				"z": -1.0046267475,
				"element": "C" 
			},
			{
				"x": 2.7500788393,
				"y": -2.4671817021,
				"z": -1.579653275,
				"element": "C" 
			},
			{
				"x": 1.3750882163,
				"y": -2.8433927681,
				"z": -2.1801611658,
				"element": "C" 
			},
			{
				"x": 0.3144023909,
				"y": -3.3139474572,
				"z": -1.1461563054,
				"element": "C" 
			},
			{
				"x": -1.0769262073,
				"y": -2.6681715745,
				"z": -1.3064707417,
				"element": "C" 
			},
			{
				"x": -1.8824393376,
				"y": -2.6156833018,
				"z": 0.0009281676,
				"element": "C" 
			},
			{
				"x": -3.2198234137,
				"y": -1.8692398262,
				"z": -0.1309275183,
				"element": "C" 
			},
			{
				"x": -3.8763020748,
				"y": -1.4842197694,
				"z": 1.2106030239,
				"element": "C" 
			},
			{
				"x": -3.1167865437,
				"y": -0.476915179,
				"z": 2.0993596768,
				"element": "C" 
			},
			{
				"x": -2.9984938395,
				"y": 0.9512982733,
				"z": 1.570290453,
				"element": "C" 
			},
			{
				"x": -2.1687512834,
				"y": 0.9762448053,
				"z": 0.3871721154,
				"element": "O" 
			},
			{
				"x": -1.040549494,
				"y": 2.0871751821,
				"z": -1.7676464099,
				"element": "H" 
			},
			{
				"x": -0.4235336926,
				"y": 0.5641404369,
				"z": -1.205732603,
				"element": "H" 
			},
			{
				"x": 1.4067956585,
				"y": 1.8122215812,
				"z": -2.0694894917,
				"element": "H" 
			},
			{
				"x": 0.9524882192,
				"y": 3.2895081074,
				"z": -1.2566689071,
				"element": "H" 
			},
			{
				"x": 1.9731796989,
				"y": 2.7581851282,
				"z": 0.7306376929,
				"element": "H" 
			},
			{
				"x": 3.0437908889,
				"y": 2.0437872371,
				"z": -0.4540359494,
				"element": "H" 
			},
			{
				"x": 1.1810422045,
				"y": 0.7144646877,
				"z": 1.5475962192,
				"element": "H" 
			},
			{
				"x": 2.9190351417,
				"y": 0.6163457351,
				"z": 1.4320241066,
				"element": "H" 
			},
			{
				"x": 0.844187032,
				"y": -0.8001702511,
				"z": -0.2935017613,
				"element": "H" 
			},
			{
				"x": 1.9295126392,
				"y": -1.4958448163,
				"z": 0.8811720725,
				"element": "H" 
			},
			{
				"x": 2.7407024386,
				"y": -0.318816149,
				"z": -1.8268167091,
				"element": "H" 
			},
			{
				"x": 3.8839816162,
				"y": -0.8940305697,
				"z": -0.6264178119,
				"element": "H" 
			},
			{
				"x": 3.5170192539,
				"y": -2.5735401658,
				"z": -2.3574011701,
				"element": "H" 
			},
			{
				"x": 3.0122246344,
				"y": -3.1957247233,
				"z": -0.7992439398,
				"element": "H" 
			},
			{
				"x": 0.9896701246,
				"y": -1.9779911538,
				"z": -2.7371800233,
				"element": "H" 
			},
			{
				"x": 1.524056428,
				"y": -3.6282242946,
				"z": -2.9309958093,
				"element": "H" 
			},
			{
				"x": 0.6781480758,
				"y": -3.0960457194,
				"z": -0.1371821071,
				"element": "H" 
			},
			{
				"x": 0.2185693816,
				"y": -4.4062672052,
				"z": -1.1853821416,
				"element": "H" 
			},
			{
				"x": -0.9512069149,
				"y": -1.6366916252,
				"z": -1.6635548463,
				"element": "H" 
			},
			{
				"x": -1.6509564945,
				"y": -3.1813624971,
				"z": -2.0900945743,
				"element": "H" 
			},
			{
				"x": -1.2572891685,
				"y": -2.1170850447,
				"z": 0.752678752,
				"element": "H" 
			},
			{
				"x": -2.057770723,
				"y": -3.6319395438,
				"z": 0.3815132804,
				"element": "H" 
			},
			{
				"x": -3.0667941768,
				"y": -0.9637892323,
				"z": -0.7264197443,
				"element": "H" 
			},
			{
				"x": -3.9264238707,
				"y": -2.4939595787,
				"z": -0.6936830454,
				"element": "H" 
			},
			{
				"x": -4.8770923658,
				"y": -1.0781970218,
				"z": 1.0077938803,
				"element": "H" 
			},
			{
				"x": -4.0383740882,
				"y": -2.3960061982,
				"z": 1.8017462909,
				"element": "H" 
			},
			{
				"x": -2.1107864048,
				"y": -0.8448747434,
				"z": 2.3332916953,
				"element": "H" 
			},
			{
				"x": -3.6417135036,
				"y": -0.407643637,
				"z": 3.0617122701,
				"element": "H" 
			},
			{
				"x": -3.9790738288,
				"y": 1.3469541369,
				"z": 1.2797032634,
				"element": "H" 
			},
			{
				"x": -2.5589589587,
				"y": 1.6177190094,
				"z": 2.3161964424,
				"element": "H" 
			}
		],
		 "valence_orbital": [ 
			{
				"type": "occ",
				"energy": -0.30137,
				"method": "rhf"
			},
			{
				"type": "occ",
				"energy": -0.29517,
				"method": "rhf"
			},
			{
				"type": "occ",
				"energy": -0.29141,
				"method": "rhf"
			},
			{
				"type": "occ",
				"energy": -0.2884,
				"method": "rhf"
			},
			{
				"type": "occ",
				"energy": -0.26627,
				"method": "rhf"
			},
			{
				"type": "unocc",
				"energy": 0.01567,
				"method": "rhf"
			},
			{
				"type": "unocc",
				"energy": 0.05938,
				"method": "rhf"
			},
			{
				"type": "unocc",
				"energy": 0.08485,
				"method": "rhf"
			},
			{
				"type": "unocc",
				"energy": 0.09096,
				"method": "rhf"
			},
			{
				"type": "unocc",
				"energy": 0.09818,
				"method": "rhf"
			}
		],
		"cosmo_sigma_profile": { 
			"-0.025": 0.0,
			"-0.024": 0.0,
			"-0.023": 0.0,
			"-0.022": 0.0,
			"-0.021": 0.0,
			"-0.02": 0.0,
			"-0.019": 0.0,
			"-0.018": 0.0,
			"-0.017": 0.0,
			"-0.016": 0.0,
			"-0.015": 0.0,
			"-0.014": 0.0,
			"-0.013": 0.0,
			"-0.012": 0.0,
			"-0.011": 0.0,
			"-0.01": 0.0,
			"-0.009": 0.0,
			"-0.008": 0.0,
			"-0.007": 0.0,
			"-0.006": 1.75761279486,
			"-0.005": 5.41376863286,
			"-0.004": 10.0742483136,
			"-0.003": 22.2497720216,
			"-0.002": 48.8907284579,
			"-0.001": 65.9642026178,
			"0.0": 70.9019632087,
			"0.001": 55.3802148091,
			"0.002": 23.7464767093,
			"0.003": 4.62298420759,
			"0.004": 3.776062302,
			"0.005": 3.06008442238,
			"0.006": 2.57789741608,
			"0.007": 1.85320928415,
			"0.008": 2.18635915255,
			"0.009": 1.3115680939,
			"0.01": 1.84444292487,
			"0.011": 2.53019470694,
			"0.012": 3.99819657111,
			"0.013": 0.926183061646,
			"0.014": 0.0,
			"0.015": 0.0,
			"0.016": 0.0,
			"0.017": 0.0,
			"0.018": 0.0,
			"0.019": 0.0,
			"0.02": 0.0,
			"0.021": 0.0,
			"0.022": 0.0,
			"0.023": 0.0,
			"0.024": 0.0,
			"0.025": 0.0
		}
	}
}
