{
	 "smiles": "ClC1=CC=C(C=C1)C1=NN=NN1", 
	 "Tm": 536.15, 
	 "num_atms": 17, 
	 "gaussian": { 
		 "optdone": 1, 
		 "sigma_profile": "yes", 
		 "theory": "DFT", 
		 "functional": "B3LYP", 
		 "basiset": "6-31G**", 
		 "properties": { 
			 "R2extent": 3489.4935, 
			 "electric_dipole_moment_norm": 4.55359615908, 
			 "electric_quadrupole_moment_norm": 16.309225577, 
			 "total_energy": -948.904567063, 
			 "HOMO_LUMO_gap": 0.18936, 
			 "cosmo_polarized_energy": -17.88, 
			 "cosmo_cavitation_energy": 24.15, 
			 "cosmo_dispersion_energy": -18.24, 
			 "cosmo_repulsion_energy": 1.43, 
			 "cosmo_total_nonelectrostatic_energy": 7.35, 
			 "SMD_solvation_energy": 2.05 
		},
		"coords": [
			{
				"x": -0.6472731658,
				"y": 5.0295143671,
				"z": -1.250943422,
				"element": "Cl" 
			},
			{
				"x": -0.3017808939,
				"y": 3.348462666,
				"z": -0.8964081136,
				"element": "C" 
			},
			{
				"x": 0.9568308221,
				"y": 2.8254339521,
				"z": -1.2001215126,
				"element": "C" 
			},
			{
				"x": 1.2263437927,
				"y": 1.4910073248,
				"z": -0.9169812329,
				"element": "C" 
			},
			{
				"x": 0.2466774432,
				"y": 0.6724845068,
				"z": -0.331484456,
				"element": "C" 
			},
			{
				"x": -1.0106539372,
				"y": 1.2191649548,
				"z": -0.035022293,
				"element": "C" 
			},
			{
				"x": -1.2902355515,
				"y": 2.5543020278,
				"z": -0.3147396961,
				"element": "C" 
			},
			{
				"x": 0.5768388465,
				"y": -0.7249644937,
				"z": -0.0520148964,
				"element": "C" 
			},
			{
				"x": 1.7380679405,
				"y": -1.3156000258,
				"z": -0.300908289,
				"element": "N" 
			},
			{
				"x": 1.6155491283,
				"y": -2.6026543148,
				"z": 0.1094459534,
				"element": "N" 
			},
			{
				"x": 0.4403425356,
				"y": -2.8306431071,
				"z": 0.5973269817,
				"element": "N" 
			},
			{
				"x": -0.2312440954,
				"y": -1.6585832369,
				"z": 0.5043614622,
				"element": "N" 
			},
			{
				"x": 1.7129501266,
				"y": 3.4573534709,
				"z": -1.6520526146,
				"element": "H" 
			},
			{
				"x": 2.1970385787,
				"y": 1.0646854211,
				"z": -1.1446711994,
				"element": "H" 
			},
			{
				"x": -1.7895424702,
				"y": 0.6121908012,
				"z": 0.4179895099,
				"element": "H" 
			},
			{
				"x": -2.2622262857,
				"y": 2.9756263192,
				"z": -0.0851736821,
				"element": "H" 
			},
			{
				"x": -1.1842828144,
				"y": -1.6018806336,
				"z": 0.8306975005,
				"element": "H" 
			}
		],
		 "valence_orbital": [ 
			{
				"type": "occ",
				"energy": -0.31533,
				"method": "rhf"
			},
			{
				"type": "occ",
				"energy": -0.30369,
				"method": "rhf"
			},
			{
				"type": "occ",
				"energy": -0.28918,
				"method": "rhf"
			},
			{
				"type": "occ",
				"energy": -0.28694,
				"method": "rhf"
			},
			{
				"type": "occ",
				"energy": -0.25567,
				"method": "rhf"
			},
			{
				"type": "unocc",
				"energy": -0.06631,
				"method": "rhf"
			},
			{
				"type": "unocc",
				"energy": -0.03653,
				"method": "rhf"
			},
			{
				"type": "unocc",
				"energy": -0.00599,
				"method": "rhf"
			},
			{
				"type": "unocc",
				"energy": 0.01183,
				"method": "rhf"
			},
			{
				"type": "unocc",
				"energy": 0.0421,
				"method": "rhf"
			}
		],
		"cosmo_sigma_profile": { 
			"-0.025": 0.0,
			"-0.024": 0.0,
			"-0.023": 0.0,
			"-0.022": 0.0,
			"-0.021": 0.0,
			"-0.02": 0.109816404198,
			"-0.019": 1.13278906995,
			"-0.018": 2.13873285041,
			"-0.017": 1.25977450304,
			"-0.016": 1.09351133945,
			"-0.015": 1.64253736596,
			"-0.014": 1.49550606395,
			"-0.013": 0.788255377865,
			"-0.012": 1.3405302058,
			"-0.011": 1.01609471244,
			"-0.01": 1.47834307591,
			"-0.009": 1.77808341864,
			"-0.008": 4.60478811714,
			"-0.007": 7.42418195389,
			"-0.006": 7.26460375774,
			"-0.005": 6.73505369144,
			"-0.004": 8.4203553262,
			"-0.003": 10.1853431142,
			"-0.002": 9.95787281022,
			"-0.001": 11.733886602,
			"0.0": 16.5906163872,
			"0.001": 19.7498149121,
			"0.002": 19.9057391583,
			"0.003": 10.2910700912,
			"0.004": 12.3656785304,
			"0.005": 4.56957756413,
			"0.006": 3.39502235998,
			"0.007": 3.38650583498,
			"0.008": 5.02720287418,
			"0.009": 5.03921121083,
			"0.01": 4.61693881794,
			"0.011": 4.42160606551,
			"0.012": 3.29078404338,
			"0.013": 2.35792867744,
			"0.014": 1.05913339433,
			"0.015": 0.0129318586245,
			"0.016": 0.0,
			"0.017": 0.0,
			"0.018": 0.0,
			"0.019": 0.0,
			"0.02": 0.0,
			"0.021": 0.0,
			"0.022": 0.0,
			"0.023": 0.0,
			"0.024": 0.0,
			"0.025": 0.0
		}
	}
}
