{
	 "smiles": "CC1=NN(C=C1C=O)C1=CC=C(F)C=C1", 
	 "Tm": 365.15, 
	 "num_atms": 24, 
	 "gaussian": { 
		 "optdone": 1, 
		 "sigma_profile": "yes", 
		 "theory": "DFT", 
		 "functional": "B3LYP", 
		 "basiset": "6-31G**", 
		 "properties": { 
			 "R2extent": 4457.2107, 
			 "electric_dipole_moment_norm": 1.83707838156, 
			 "electric_quadrupole_moment_norm": 15.0311106013, 
			 "total_energy": -709.132913466, 
			 "HOMO_LUMO_gap": 0.17533, 
			 "cosmo_polarized_energy": -11.03, 
			 "cosmo_cavitation_energy": 29.74, 
			 "cosmo_dispersion_energy": -21.35, 
			 "cosmo_repulsion_energy": 1.62, 
			 "cosmo_total_nonelectrostatic_energy": 10.01, 
			 "SMD_solvation_energy": 6.29 
		},
		"coords": [
			{
				"x": -3.0716440994,
				"y": -0.3884121663,
				"z": 1.8766097798,
				"element": "C" 
			},
			{
				"x": -2.001139211,
				"y": 0.2639847377,
				"z": 1.0568314393,
				"element": "C" 
			},
			{
				"x": -1.3237259901,
				"y": -0.4393398273,
				"z": 0.1604435866,
				"element": "N" 
			},
			{
				"x": -0.4358805075,
				"y": 0.4383195913,
				"z": -0.4055726758,
				"element": "N" 
			},
			{
				"x": -0.5502674564,
				"y": 1.6776602784,
				"z": 0.1248843144,
				"element": "C" 
			},
			{
				"x": -1.5539768322,
				"y": 1.6218459383,
				"z": 1.0815181966,
				"element": "C" 
			},
			{
				"x": -2.0129782517,
				"y": 2.7350837748,
				"z": 1.9042119882,
				"element": "C" 
			},
			{
				"x": -1.557955372,
				"y": 3.8665423241,
				"z": 1.8464564128,
				"element": "O" 
			},
			{
				"x": 0.4496375204,
				"y": -0.0193979879,
				"z": -1.4213581379,
				"element": "C" 
			},
			{
				"x": 0.3953107328,
				"y": -1.3601738142,
				"z": -1.8215286676,
				"element": "C" 
			},
			{
				"x": 1.2542085988,
				"y": -1.8247636454,
				"z": -2.8138275203,
				"element": "C" 
			},
			{
				"x": 2.1585664469,
				"y": -0.9437685831,
				"z": -3.3957111797,
				"element": "C" 
			},
			{
				"x": 2.9905170107,
				"y": -1.3925538472,
				"z": -4.3564758757,
				"element": "F" 
			},
			{
				"x": 2.2265952476,
				"y": 0.3901806622,
				"z": -3.0111720007,
				"element": "C" 
			},
			{
				"x": 1.3666551878,
				"y": 0.8541020928,
				"z": -2.0180942156,
				"element": "C" 
			},
			{
				"x": -4.0443421645,
				"y": 0.0889397755,
				"z": 1.7165113793,
				"element": "H" 
			},
			{
				"x": -2.8483930875,
				"y": -0.3271257638,
				"z": 2.9471416361,
				"element": "H" 
			},
			{
				"x": -3.1537578086,
				"y": -1.4414517861,
				"z": 1.6003826061,
				"element": "H" 
			},
			{
				"x": 0.0543709838,
				"y": 2.517045944,
				"z": -0.1787190539,
				"element": "H" 
			},
			{
				"x": -2.8298434416,
				"y": 2.4877685572,
				"z": 2.6165690372,
				"element": "H" 
			},
			{
				"x": -0.3201783552,
				"y": -2.0200546808,
				"z": -1.3486716279,
				"element": "H" 
			},
			{
				"x": 1.2283402938,
				"y": -2.8591891825,
				"z": -3.1381808386,
				"element": "H" 
			},
			{
				"x": 2.9436745469,
				"y": 1.0507826881,
				"z": -3.4853941402,
				"element": "H" 
			},
			{
				"x": 1.422806008,
				"y": 1.8948749201,
				"z": -1.7211544424,
				"element": "H" 
			}
		],
		 "valence_orbital": [ 
			{
				"type": "occ",
				"energy": -0.29455,
				"method": "rhf"
			},
			{
				"type": "occ",
				"energy": -0.27735,
				"method": "rhf"
			},
			{
				"type": "occ",
				"energy": -0.26475,
				"method": "rhf"
			},
			{
				"type": "occ",
				"energy": -0.25014,
				"method": "rhf"
			},
			{
				"type": "occ",
				"energy": -0.23221,
				"method": "rhf"
			},
			{
				"type": "unocc",
				"energy": -0.05688,
				"method": "rhf"
			},
			{
				"type": "unocc",
				"energy": -0.02656,
				"method": "rhf"
			},
			{
				"type": "unocc",
				"energy": -0.01885,
				"method": "rhf"
			},
			{
				"type": "unocc",
				"energy": 0.03173,
				"method": "rhf"
			},
			{
				"type": "unocc",
				"energy": 0.07078,
				"method": "rhf"
			}
		],
		"cosmo_sigma_profile": { 
			"-0.025": 0.0,
			"-0.024": 0.0,
			"-0.023": 0.0,
			"-0.022": 0.0,
			"-0.021": 0.0,
			"-0.02": 0.0,
			"-0.019": 0.0,
			"-0.018": 0.0,
			"-0.017": 0.0,
			"-0.016": 0.0,
			"-0.015": 0.0,
			"-0.014": 0.0,
			"-0.013": 0.032612578349,
			"-0.012": 1.05383823778,
			"-0.011": 1.79256149433,
			"-0.01": 1.60325353402,
			"-0.009": 1.81841979926,
			"-0.008": 3.709060566,
			"-0.007": 5.99957052621,
			"-0.006": 13.912271644,
			"-0.005": 16.996463155,
			"-0.004": 14.6659534197,
			"-0.003": 13.7033942732,
			"-0.002": 15.5806812105,
			"-0.001": 19.149451479,
			"0.0": 20.822441485,
			"0.001": 23.9638414607,
			"0.002": 22.8510692309,
			"0.003": 15.0622376401,
			"0.004": 14.9443596684,
			"0.005": 5.43199749957,
			"0.006": 3.2587568401,
			"0.007": 1.96426601696,
			"0.008": 3.33119301669,
			"0.009": 3.10809699074,
			"0.01": 4.27259636768,
			"0.011": 3.45400692256,
			"0.012": 4.45396279622,
			"0.013": 1.99314738147,
			"0.014": 0.335262544484,
			"0.015": 0.0,
			"0.016": 0.0,
			"0.017": 0.0,
			"0.018": 0.0,
			"0.019": 0.0,
			"0.02": 0.0,
			"0.021": 0.0,
			"0.022": 0.0,
			"0.023": 0.0,
			"0.024": 0.0,
			"0.025": 0.0
		}
	}
}
