{
	 "smiles": "CCN1CCC2=C3C1CC=C(N3C1=C2C=CC=C1)C(=O)OC", 
	 "Tm": 393.15, 
	 "num_atms": 42, 
	 "gaussian": { 
		 "optdone": 1, 
		 "sigma_profile": "yes", 
		 "theory": "DFT", 
		 "functional": "B3LYP", 
		 "basiset": "6-31G**", 
		 "properties": { 
			 "R2extent": 6788.8644, 
			 "electric_dipole_moment_norm": 1.90378359327, 
			 "electric_quadrupole_moment_norm": 13.2154297683, 
			 "total_energy": -957.908169013, 
			 "HOMO_LUMO_gap": 0.15066, 
			 "cosmo_polarized_energy": -10.96, 
			 "cosmo_cavitation_energy": 42.3, 
			 "cosmo_dispersion_energy": -29.61, 
			 "cosmo_repulsion_energy": 2.23, 
			 "cosmo_total_nonelectrostatic_energy": 14.92, 
			 "SMD_solvation_energy": 6.15 
		},
		"coords": [
			{
				"x": 1.1196486159,
				"y": 1.2442898699,
				"z": 3.6576935316,
				"element": "C" 
			},
			{
				"x": -0.3132781609,
				"y": 1.7066121639,
				"z": 3.3372386723,
				"element": "C" 
			},
			{
				"x": -0.7000132226,
				"y": 1.7736916537,
				"z": 1.9296270064,
				"element": "N" 
			},
			{
				"x": -0.0942275121,
				"y": 2.8384222834,
				"z": 1.1244120054,
				"element": "C" 
			},
			{
				"x": 1.1910418613,
				"y": 2.4517637569,
				"z": 0.3468956386,
				"element": "C" 
			},
			{
				"x": 0.8920398088,
				"y": 1.1889577471,
				"z": -0.403712909,
				"element": "C" 
			},
			{
				"x": -0.0653042069,
				"y": 0.3343462322,
				"z": 0.0494062773,
				"element": "C" 
			},
			{
				"x": -0.9077403645,
				"y": 0.4781922146,
				"z": 1.274848698,
				"element": "C" 
			},
			{
				"x": -2.3801729153,
				"y": 0.1981329473,
				"z": 0.8640782148,
				"element": "C" 
			},
			{
				"x": -2.4428229826,
				"y": -1.100465137,
				"z": 0.1029073617,
				"element": "C" 
			},
			{
				"x": -1.4359234376,
				"y": -1.5149627416,
				"z": -0.6956800763,
				"element": "C" 
			},
			{
				"x": -0.2936526639,
				"y": -0.6999584842,
				"z": -0.8617896495,
				"element": "N" 
			},
			{
				"x": 0.5359396471,
				"y": -0.4708937309,
				"z": -1.9723367371,
				"element": "C" 
			},
			{
				"x": 1.3090471615,
				"y": 0.6946948316,
				"z": -1.6931740262,
				"element": "C" 
			},
			{
				"x": 2.2295486282,
				"y": 1.1588743282,
				"z": -2.6437505206,
				"element": "C" 
			},
			{
				"x": 2.3546162804,
				"y": 0.4825234965,
				"z": -3.8521447518,
				"element": "C" 
			},
			{
				"x": 1.5663428595,
				"y": -0.6493253493,
				"z": -4.1235572232,
				"element": "C" 
			},
			{
				"x": 0.6504749239,
				"y": -1.1387703107,
				"z": -3.1945593984,
				"element": "C" 
			},
			{
				"x": -1.5019911956,
				"y": -2.9058323216,
				"z": -1.2360427517,
				"element": "C" 
			},
			{
				"x": -2.5353839223,
				"y": -3.5230433192,
				"z": -1.39836132,
				"element": "O" 
			},
			{
				"x": -0.2776597043,
				"y": -3.4280237669,
				"z": -1.4563316533,
				"element": "O" 
			},
			{
				"x": -0.2674568017,
				"y": -4.7896607121,
				"z": -1.9172222592,
				"element": "C" 
			},
			{
				"x": 1.2563470915,
				"y": 1.1540659822,
				"z": 4.7414430515,
				"element": "H" 
			},
			{
				"x": 1.8644464422,
				"y": 1.9554917847,
				"z": 3.2878267466,
				"element": "H" 
			},
			{
				"x": 1.3371744367,
				"y": 0.2679266509,
				"z": 3.2115183521,
				"element": "H" 
			},
			{
				"x": -0.4767245355,
				"y": 2.7002740087,
				"z": 3.7728975201,
				"element": "H" 
			},
			{
				"x": -1.0243591172,
				"y": 1.0395814122,
				"z": 3.8412366889,
				"element": "H" 
			},
			{
				"x": -0.8302533961,
				"y": 3.1808733373,
				"z": 0.3840221234,
				"element": "H" 
			},
			{
				"x": 0.0975100329,
				"y": 3.6844872872,
				"z": 1.7921708644,
				"element": "H" 
			},
			{
				"x": 1.4514130407,
				"y": 3.2635022775,
				"z": -0.3445365532,
				"element": "H" 
			},
			{
				"x": 2.0436141618,
				"y": 2.3363499311,
				"z": 1.0283309728,
				"element": "H" 
			},
			{
				"x": -0.6299296624,
				"y": -0.3125708817,
				"z": 1.9879387826,
				"element": "H" 
			},
			{
				"x": -2.7442887212,
				"y": 1.0316866961,
				"z": 0.2469352828,
				"element": "H" 
			},
			{
				"x": -3.0196035114,
				"y": 0.1595722466,
				"z": 1.7512165491,
				"element": "H" 
			},
			{
				"x": -3.2777191321,
				"y": -1.7785981389,
				"z": 0.2388371188,
				"element": "H" 
			},
			{
				"x": 2.8284019367,
				"y": 2.0421105553,
				"z": -2.4388938302,
				"element": "H" 
			},
			{
				"x": 3.0621653425,
				"y": 0.8335896596,
				"z": -4.5976688768,
				"element": "H" 
			},
			{
				"x": 1.6687278192,
				"y": -1.1556948599,
				"z": -5.0790412996,
				"element": "H" 
			},
			{
				"x": 0.0511352056,
				"y": -2.0096835855,
				"z": -3.4241611317,
				"element": "H" 
			},
			{
				"x": -0.720477637,
				"y": -5.4482093188,
				"z": -1.1720803805,
				"element": "H" 
			},
			{
				"x": -0.8224344539,
				"y": -4.8846503099,
				"z": -2.8538274268,
				"element": "H" 
			},
			{
				"x": 0.7827819607,
				"y": -5.039570386,
				"z": -2.0642086838,
				"element": "H" 
			}
		],
		 "valence_orbital": [ 
			{
				"type": "occ",
				"energy": -0.27322,
				"method": "rhf"
			},
			{
				"type": "occ",
				"energy": -0.25559,
				"method": "rhf"
			},
			{
				"type": "occ",
				"energy": -0.21433,
				"method": "rhf"
			},
			{
				"type": "occ",
				"energy": -0.2002,
				"method": "rhf"
			},
			{
				"type": "occ",
				"energy": -0.19349,
				"method": "rhf"
			},
			{
				"type": "unocc",
				"energy": -0.04283,
				"method": "rhf"
			},
			{
				"type": "unocc",
				"energy": -0.00484,
				"method": "rhf"
			},
			{
				"type": "unocc",
				"energy": 0.0241,
				"method": "rhf"
			},
			{
				"type": "unocc",
				"energy": 0.0577,
				"method": "rhf"
			},
			{
				"type": "unocc",
				"energy": 0.07585,
				"method": "rhf"
			}
		],
		"cosmo_sigma_profile": { 
			"-0.025": 0.0,
			"-0.024": 0.0,
			"-0.023": 0.0,
			"-0.022": 0.0,
			"-0.021": 0.0,
			"-0.02": 0.0,
			"-0.019": 0.0,
			"-0.018": 0.0,
			"-0.017": 0.0,
			"-0.016": 0.0,
			"-0.015": 0.0,
			"-0.014": 0.0,
			"-0.013": 0.0,
			"-0.012": 0.0,
			"-0.011": 0.0,
			"-0.01": 0.0,
			"-0.009": 0.0,
			"-0.008": 0.0,
			"-0.007": 1.78713042962,
			"-0.006": 9.23672532399,
			"-0.005": 19.8417378566,
			"-0.004": 34.5539726464,
			"-0.003": 44.0830408021,
			"-0.002": 39.4498737988,
			"-0.001": 34.9931408018,
			"0.0": 30.9634435971,
			"0.001": 21.2381753321,
			"0.002": 15.7069165533,
			"0.003": 12.1872157815,
			"0.004": 13.9090975038,
			"0.005": 14.3834982035,
			"0.006": 13.2886721626,
			"0.007": 10.2802925216,
			"0.008": 3.91643532714,
			"0.009": 2.53887782725,
			"0.01": 2.73642404441,
			"0.011": 3.79346992079,
			"0.012": 4.29790940629,
			"0.013": 0.436295815268,
			"0.014": 0.0778569160797,
			"0.015": 0.0,
			"0.016": 0.0,
			"0.017": 0.0,
			"0.018": 0.0,
			"0.019": 0.0,
			"0.02": 0.0,
			"0.021": 0.0,
			"0.022": 0.0,
			"0.023": 0.0,
			"0.024": 0.0,
			"0.025": 0.0
		}
	}
}
