{
	 "smiles": "CC(C)(C)C(CO)CO", 
	 "Tm": 328.15, 
	 "num_atms": 25, 
	 "gaussian": { 
		 "optdone": 1, 
		 "sigma_profile": "yes", 
		 "theory": "DFT", 
		 "functional": "B3LYP", 
		 "basiset": "6-31G**", 
		 "properties": { 
			 "R2extent": 1447.0335, 
			 "electric_dipole_moment_norm": 2.97062883242, 
			 "electric_quadrupole_moment_norm": 5.500432463, 
			 "total_energy": -426.822423218, 
			 "HOMO_LUMO_gap": 0.31739, 
			 "cosmo_polarized_energy": -10.01, 
			 "cosmo_cavitation_energy": 24.56, 
			 "cosmo_dispersion_energy": -17.83, 
			 "cosmo_repulsion_energy": 1.45, 
			 "cosmo_total_nonelectrostatic_energy": 8.17, 
			 "SMD_solvation_energy": 4.58 
		},
		"coords": [
			{
				"x": 1.9525240025,
				"y": -0.1136995995,
				"z": 1.5484858103,
				"element": "C" 
			},
			{
				"x": 0.7105082951,
				"y": 0.5633612629,
				"z": 0.9258271109,
				"element": "C" 
			},
			{
				"x": -0.5401791467,
				"y": -0.2611899886,
				"z": 1.2965283096,
				"element": "C" 
			},
			{
				"x": 0.5786784304,
				"y": 1.9668360724,
				"z": 1.5542772995,
				"element": "C" 
			},
			{
				"x": 0.9029373966,
				"y": 0.6750669448,
				"z": -0.6338998635,
				"element": "C" 
			},
			{
				"x": 0.1145008604,
				"y": 1.8065912499,
				"z": -1.3107848313,
				"element": "C" 
			},
			{
				"x": -1.2850495419,
				"y": 1.5700966809,
				"z": -1.1709293183,
				"element": "O" 
			},
			{
				"x": 0.6365323959,
				"y": -0.6225870034,
				"z": -1.42715297,
				"element": "C" 
			},
			{
				"x": 1.3978697964,
				"y": -1.7565807628,
				"z": -1.0266447012,
				"element": "O" 
			},
			{
				"x": 2.8635957919,
				"y": 0.4631124034,
				"z": 1.3442240814,
				"element": "H" 
			},
			{
				"x": 1.8432926343,
				"y": -0.1794946071,
				"z": 2.6371556099,
				"element": "H" 
			},
			{
				"x": 2.0863819599,
				"y": -1.1244451841,
				"z": 1.1589748683,
				"element": "H" 
			},
			{
				"x": -1.4401423875,
				"y": 0.1624212698,
				"z": 0.844668795,
				"element": "H" 
			},
			{
				"x": -0.4417266022,
				"y": -1.301246593,
				"z": 0.9719017717,
				"element": "H" 
			},
			{
				"x": -0.6711082503,
				"y": -0.2683686045,
				"z": 2.3849766847,
				"element": "H" 
			},
			{
				"x": 1.4265289034,
				"y": 2.611770407,
				"z": 1.2918440214,
				"element": "H" 
			},
			{
				"x": -0.3443005427,
				"y": 2.4642755585,
				"z": 1.242090305,
				"element": "H" 
			},
			{
				"x": 0.5579790939,
				"y": 1.8847386383,
				"z": 2.6465553019,
				"element": "H" 
			},
			{
				"x": 1.9595241616,
				"y": 0.9470132948,
				"z": -0.7987672135,
				"element": "H" 
			},
			{
				"x": 0.3953204243,
				"y": 2.7749734749,
				"z": -0.8761390732,
				"element": "H" 
			},
			{
				"x": 0.3963897997,
				"y": 1.8386289854,
				"z": -2.3763850849,
				"element": "H" 
			},
			{
				"x": -1.7580278789,
				"y": 2.2844385848,
				"z": -1.6148597322,
				"element": "H" 
			},
			{
				"x": -0.4099140734,
				"y": -0.9145583593,
				"z": -1.321475128,
				"element": "H" 
			},
			{
				"x": 0.8004806222,
				"y": -0.4107107078,
				"z": -2.4966551094,
				"element": "H" 
			},
			{
				"x": 2.3319038552,
				"y": -1.5436434176,
				"z": -1.1514169442,
				"element": "H" 
			}
		],
		 "valence_orbital": [ 
			{
				"type": "occ",
				"energy": -0.31834,
				"method": "rhf"
			},
			{
				"type": "occ",
				"energy": -0.30475,
				"method": "rhf"
			},
			{
				"type": "occ",
				"energy": -0.29299,
				"method": "rhf"
			},
			{
				"type": "occ",
				"energy": -0.26964,
				"method": "rhf"
			},
			{
				"type": "occ",
				"energy": -0.25454,
				"method": "rhf"
			},
			{
				"type": "unocc",
				"energy": 0.06285,
				"method": "rhf"
			},
			{
				"type": "unocc",
				"energy": 0.079,
				"method": "rhf"
			},
			{
				"type": "unocc",
				"energy": 0.10553,
				"method": "rhf"
			},
			{
				"type": "unocc",
				"energy": 0.12003,
				"method": "rhf"
			},
			{
				"type": "unocc",
				"energy": 0.13376,
				"method": "rhf"
			}
		],
		"cosmo_sigma_profile": { 
			"-0.025": 0.0,
			"-0.024": 0.0,
			"-0.023": 0.0,
			"-0.022": 0.0,
			"-0.021": 0.0,
			"-0.02": 0.0,
			"-0.019": 0.0,
			"-0.018": 0.0,
			"-0.017": 0.0,
			"-0.016": 0.174634529759,
			"-0.015": 1.53102455678,
			"-0.014": 1.73201526508,
			"-0.013": 1.90562294295,
			"-0.012": 1.99476329775,
			"-0.011": 1.13283249304,
			"-0.01": 1.91002628763,
			"-0.009": 2.0548595287,
			"-0.008": 1.56799931914,
			"-0.007": 1.82392921425,
			"-0.006": 2.40140544968,
			"-0.005": 2.55062080377,
			"-0.004": 4.26971680307,
			"-0.003": 15.1282043495,
			"-0.002": 25.4085171362,
			"-0.001": 23.5047190662,
			"0.0": 19.5349850166,
			"0.001": 16.947636332,
			"0.002": 23.197391367,
			"0.003": 8.75710876877,
			"0.004": 3.38115161523,
			"0.005": 2.74385890453,
			"0.006": 3.55324100786,
			"0.007": 3.64395098659,
			"0.008": 3.6242132057,
			"0.009": 2.77845188122,
			"0.01": 2.28762917674,
			"0.011": 2.49228347348,
			"0.012": 1.65396116109,
			"0.013": 1.22383582141,
			"0.014": 1.73472877956,
			"0.015": 0.816712071683,
			"0.016": 0.0,
			"0.017": 0.0,
			"0.018": 0.0,
			"0.019": 0.0,
			"0.02": 0.0,
			"0.021": 0.0,
			"0.022": 0.0,
			"0.023": 0.0,
			"0.024": 0.0,
			"0.025": 0.0
		}
	}
}
