{
	 "smiles": "OC(=O)C1=CC=C(C=C1)S(=O)(=O)NC1=CC=CC=C1", 
	 "Tm": 499.15, 
	 "num_atms": 30, 
	 "gaussian": { 
		 "optdone": 1, 
		 "sigma_profile": "yes", 
		 "theory": "DFT", 
		 "functional": "B3LYP", 
		 "basiset": "6-31G**", 
		 "properties": { 
			 "R2extent": 7035.1259, 
			 "electric_dipole_moment_norm": 4.80905977713, 
			 "electric_quadrupole_moment_norm": 34.9446587019, 
			 "total_energy": -1255.78236806, 
			 "HOMO_LUMO_gap": 0.16322, 
			 "cosmo_polarized_energy": -24.81, 
			 "cosmo_cavitation_energy": 36.53, 
			 "cosmo_dispersion_energy": -25.96, 
			 "cosmo_repulsion_energy": 1.95, 
			 "cosmo_total_nonelectrostatic_energy": 12.52, 
			 "SMD_solvation_energy": 6.53 
		},
		"coords": [
			{
				"x": 3.4779151004,
				"y": 4.9211085285,
				"z": 1.5808663251,
				"element": "O" 
			},
			{
				"x": 2.1413218317,
				"y": 4.6979056502,
				"z": 1.4896652861,
				"element": "C" 
			},
			{
				"x": 1.3764345375,
				"y": 5.2850631469,
				"z": 2.2163911438,
				"element": "O" 
			},
			{
				"x": 1.6874202951,
				"y": 3.7020243127,
				"z": 0.4590546271,
				"element": "C" 
			},
			{
				"x": 2.4630549437,
				"y": 3.3483146734,
				"z": -0.6543744866,
				"element": "C" 
			},
			{
				"x": 1.984084486,
				"y": 2.4271110668,
				"z": -1.5840402632,
				"element": "C" 
			},
			{
				"x": 0.7206364032,
				"y": 1.8656974483,
				"z": -1.3919174811,
				"element": "C" 
			},
			{
				"x": -0.0789239568,
				"y": 2.225811665,
				"z": -0.3024558439,
				"element": "C" 
			},
			{
				"x": 0.4095093716,
				"y": 3.1481938841,
				"z": 0.6174920403,
				"element": "C" 
			},
			{
				"x": 0.120572422,
				"y": 0.6491788783,
				"z": -2.5754852387,
				"element": "S" 
			},
			{
				"x": 0.976521166,
				"y": 0.7208343887,
				"z": -3.7592446529,
				"element": "O" 
			},
			{
				"x": -1.3324553694,
				"y": 0.7844976545,
				"z": -2.6372969075,
				"element": "O" 
			},
			{
				"x": 0.4614845683,
				"y": -0.8717131384,
				"z": -1.9110871977,
				"element": "N" 
			},
			{
				"x": -0.0788280417,
				"y": -1.332455804,
				"z": -0.6756190783,
				"element": "C" 
			},
			{
				"x": -1.4659930585,
				"y": -1.4049062817,
				"z": -0.486033429,
				"element": "C" 
			},
			{
				"x": -1.9686098715,
				"y": -1.8891045542,
				"z": 0.7211231074,
				"element": "C" 
			},
			{
				"x": -1.1076927613,
				"y": -2.3315602723,
				"z": 1.7281623556,
				"element": "C" 
			},
			{
				"x": 0.2722659537,
				"y": -2.2769969026,
				"z": 1.5266161717,
				"element": "C" 
			},
			{
				"x": 0.7880661477,
				"y": -1.7662728998,
				"z": 0.3360483745,
				"element": "C" 
			},
			{
				"x": 3.967929342,
				"y": 4.2721975863,
				"z": 1.0574623468,
				"element": "H" 
			},
			{
				"x": 3.4266557983,
				"y": 3.8178276275,
				"z": -0.8357384238,
				"element": "H" 
			},
			{
				"x": 2.5622524267,
				"y": 2.1633399755,
				"z": -2.4626877774,
				"element": "H" 
			},
			{
				"x": -1.0707540059,
				"y": 1.8028933291,
				"z": -0.1927228417,
				"element": "H" 
			},
			{
				"x": -0.1879558245,
				"y": 3.4610461296,
				"z": 1.4666557539,
				"element": "H" 
			},
			{
				"x": 1.4371886152,
				"y": -1.1012169916,
				"z": -2.0716065794,
				"element": "H" 
			},
			{
				"x": -2.1291991193,
				"y": -1.0869230301,
				"z": -1.2812382851,
				"element": "H" 
			},
			{
				"x": -3.0439036015,
				"y": -1.9391085165,
				"z": 0.8652382463,
				"element": "H" 
			},
			{
				"x": -1.5087908585,
				"y": -2.7207348968,
				"z": 2.6588808353,
				"element": "H" 
			},
			{
				"x": 0.9524420899,
				"y": -2.6205010069,
				"z": 2.3004170572,
				"element": "H" 
			},
			{
				"x": 1.86345097,
				"y": -1.7064516505,
				"z": 0.1872748152,
				"element": "H" 
			}
		],
		 "valence_orbital": [ 
			{
				"type": "occ",
				"energy": -0.2936,
				"method": "rhf"
			},
			{
				"type": "occ",
				"energy": -0.29181,
				"method": "rhf"
			},
			{
				"type": "occ",
				"energy": -0.2832,
				"method": "rhf"
			},
			{
				"type": "occ",
				"energy": -0.26692,
				"method": "rhf"
			},
			{
				"type": "occ",
				"energy": -0.24334,
				"method": "rhf"
			},
			{
				"type": "unocc",
				"energy": -0.08012,
				"method": "rhf"
			},
			{
				"type": "unocc",
				"energy": -0.04322,
				"method": "rhf"
			},
			{
				"type": "unocc",
				"energy": -0.02061,
				"method": "rhf"
			},
			{
				"type": "unocc",
				"energy": -0.01838,
				"method": "rhf"
			},
			{
				"type": "unocc",
				"energy": 0.01912,
				"method": "rhf"
			}
		],
		"cosmo_sigma_profile": { 
			"-0.025": 0.0,
			"-0.024": 0.0,
			"-0.023": 0.0,
			"-0.022": 0.0,
			"-0.021": 0.0,
			"-0.02": 0.0,
			"-0.019": 0.495630568232,
			"-0.018": 1.31923641223,
			"-0.017": 1.00710032696,
			"-0.016": 1.54280279469,
			"-0.015": 1.89683969153,
			"-0.014": 2.51627221845,
			"-0.013": 2.91547707058,
			"-0.012": 2.34846753946,
			"-0.011": 2.09774184509,
			"-0.01": 2.64535077638,
			"-0.009": 3.30906313281,
			"-0.008": 6.01542633141,
			"-0.007": 9.54685259541,
			"-0.006": 14.1268173583,
			"-0.005": 16.2302496918,
			"-0.004": 17.9820813978,
			"-0.003": 16.4135951629,
			"-0.002": 15.0747677343,
			"-0.001": 18.0473700961,
			"0.0": 20.9253404998,
			"0.001": 24.087536986,
			"0.002": 13.5909183217,
			"0.003": 14.8350773778,
			"0.004": 15.5960993709,
			"0.005": 13.0366579258,
			"0.006": 6.31833834947,
			"0.007": 6.27535896108,
			"0.008": 6.90028986742,
			"0.009": 9.02288966935,
			"0.01": 12.7982594075,
			"0.011": 10.5819700359,
			"0.012": 3.36083021497,
			"0.013": 0.485556670968,
			"0.014": 0.0,
			"0.015": 0.0,
			"0.016": 0.0,
			"0.017": 0.0,
			"0.018": 0.0,
			"0.019": 0.0,
			"0.02": 0.0,
			"0.021": 0.0,
			"0.022": 0.0,
			"0.023": 0.0,
			"0.024": 0.0,
			"0.0": 0.0
		}
	}
}
