{
	 "smiles": "CC1=CC(=C(C)C=C1)N(=O)=O", 
	 "Tm": 248.15, 
	 "num_atms": 20, 
	 "gaussian": { 
		 "optdone": 1, 
		 "sigma_profile": "yes", 
		 "theory": "DFT", 
		 "functional": "B3LYP", 
		 "basiset": "6-31G**", 
		 "properties": { 
			 "R2extent": 3067.3026, 
			 "electric_dipole_moment_norm": 4.5681715642, 
			 "electric_quadrupole_moment_norm": 19.8013037025, 
			 "total_energy": -515.386558861, 
			 "HOMO_LUMO_gap": 0.17393, 
			 "cosmo_polarized_energy": -7.48, 
			 "cosmo_cavitation_energy": 23.86, 
			 "cosmo_dispersion_energy": -17.61, 
			 "cosmo_repulsion_energy": 1.41, 
			 "cosmo_total_nonelectrostatic_energy": 7.66, 
			 "SMD_solvation_energy": 6.3 
		},
		"coords": [
			{
				"x": -3.9061986038,
				"y": -0.4133129842,
				"z": -1.508210098,
				"element": "C" 
			},
			{
				"x": -2.5125912223,
				"y": 0.1211320166,
				"z": -1.2808963905,
				"element": "C" 
			},
			{
				"x": -2.2774053897,
				"y": 1.4822636604,
				"z": -1.1049007359,
				"element": "C" 
			},
			{
				"x": -0.9812971995,
				"y": 1.9703461786,
				"z": -0.9081740881,
				"element": "C" 
			},
			{
				"x": 0.146960845,
				"y": 1.1286216487,
				"z": -0.8685476776,
				"element": "C" 
			},
			{
				"x": 1.5741983805,
				"y": 1.5680432319,
				"z": -0.6513810247,
				"element": "C" 
			},
			{
				"x": -0.1192785304,
				"y": -0.2397794286,
				"z": -1.0395575462,
				"element": "C" 
			},
			{
				"x": -1.4026858723,
				"y": -0.7352818141,
				"z": -1.2427798032,
				"element": "C" 
			},
			{
				"x": -0.8646485987,
				"y": 3.4312798398,
				"z": -0.7417635624,
				"element": "N" 
			},
			{
				"x": 0.2608863059,
				"y": 3.9324160707,
				"z": -0.7317365154,
				"element": "O" 
			},
			{
				"x": -1.9044839386,
				"y": 4.0813439583,
				"z": -0.6257522867,
				"element": "O" 
			},
			{
				"x": -4.000587871,
				"y": -0.86362648,
				"z": -2.5031402627,
				"element": "H" 
			},
			{
				"x": -4.6546264466,
				"y": 0.3789640583,
				"z": -1.4283448584,
				"element": "H" 
			},
			{
				"x": -4.1579605294,
				"y": -1.1898596061,
				"z": -0.7775847784,
				"element": "H" 
			},
			{
				"x": -3.0926516776,
				"y": 2.1949540567,
				"z": -1.1155403748,
				"element": "H" 
			},
			{
				"x": 2.2208585006,
				"y": 0.6890074283,
				"z": -0.5845194754,
				"element": "H" 
			},
			{
				"x": 1.9263227244,
				"y": 2.2046794638,
				"z": -1.4669552068,
				"element": "H" 
			},
			{
				"x": 1.6841532431,
				"y": 2.1581391401,
				"z": 0.2616827815,
				"element": "H" 
			},
			{
				"x": 0.7174976397,
				"y": -0.93181016,
				"z": -1.0095168361,
				"element": "H" 
			},
			{
				"x": -1.5452617591,
				"y": -1.8055202791,
				"z": -1.3714812601,
				"element": "H" 
			}
		],
		 "valence_orbital": [ 
			{
				"type": "occ",
				"energy": -0.30325,
				"method": "rhf"
			},
			{
				"type": "occ",
				"energy": -0.29985,
				"method": "rhf"
			},
			{
				"type": "occ",
				"energy": -0.28359,
				"method": "rhf"
			},
			{
				"type": "occ",
				"energy": -0.27354,
				"method": "rhf"
			},
			{
				"type": "occ",
				"energy": -0.25645,
				"method": "rhf"
			},
			{
				"type": "unocc",
				"energy": -0.08252,
				"method": "rhf"
			},
			{
				"type": "unocc",
				"energy": -0.01655,
				"method": "rhf"
			},
			{
				"type": "unocc",
				"energy": 0.00107,
				"method": "rhf"
			},
			{
				"type": "unocc",
				"energy": 0.08643,
				"method": "rhf"
			},
			{
				"type": "unocc",
				"energy": 0.10519,
				"method": "rhf"
			}
		],
		"cosmo_sigma_profile": { 
			"-0.025": 0.0,
			"-0.024": 0.0,
			"-0.023": 0.0,
			"-0.022": 0.0,
			"-0.021": 0.0,
			"-0.02": 0.0,
			"-0.019": 0.0,
			"-0.018": 0.0,
			"-0.017": 0.0,
			"-0.016": 0.0,
			"-0.015": 0.0,
			"-0.014": 0.0,
			"-0.013": 0.0,
			"-0.012": 0.0,
			"-0.011": 0.0,
			"-0.01": 0.0,
			"-0.009": 0.0,
			"-0.008": 0.0,
			"-0.007": 2.06359753085,
			"-0.006": 7.89910941426,
			"-0.005": 12.8808415427,
			"-0.004": 19.0833599469,
			"-0.003": 17.0192372349,
			"-0.002": 18.8090272102,
			"-0.001": 21.0780283756,
			"0.0": 22.1415367681,
			"0.001": 12.5743651469,
			"0.002": 12.5607590776,
			"0.003": 10.8556263082,
			"0.004": 3.56874003253,
			"0.005": 3.18542413691,
			"0.006": 3.30500959418,
			"0.007": 4.81870221519,
			"0.008": 7.95408250671,
			"0.009": 4.70532152675,
			"0.01": 4.06080160165,
			"0.011": 0.97203145788,
			"0.012": 0.0,
			"0.013": 0.0,
			"0.014": 0.0,
			"0.015": 0.0,
			"0.016": 0.0,
			"0.017": 0.0,
			"0.018": 0.0,
			"0.019": 0.0,
			"0.02": 0.0,
			"0.021": 0.0,
			"0.022": 0.0,
			"0.023": 0.0,
			"0.024": 0.0,
			"0.025": 0.0
		}
	}
}
