{
	 "smiles": "COC1=CC=C(OC2=CC=C(C=C2)S(N)(=O)=O)C=C1", 
	 "Tm": 443.15, 
	 "num_atms": 32, 
	 "gaussian": { 
		 "optdone": 1, 
		 "sigma_profile": "yes", 
		 "theory": "DFT", 
		 "functional": "B3LYP", 
		 "basiset": "6-31G**", 
		 "properties": { 
			 "R2extent": 9121.9541, 
			 "electric_dipole_moment_norm": 6.99301813525, 
			 "electric_quadrupole_moment_norm": 44.2681032737, 
			 "total_energy": -1256.96048028, 
			 "HOMO_LUMO_gap": 0.19957, 
			 "cosmo_polarized_energy": -21.97, 
			 "cosmo_cavitation_energy": 38.44, 
			 "cosmo_dispersion_energy": -28.12, 
			 "cosmo_repulsion_energy": 2.12, 
			 "cosmo_total_nonelectrostatic_energy": 12.44, 
			 "SMD_solvation_energy": 7.16 
		},
		"coords": [
			{
				"x": -4.5492446739,
				"y": -1.1239580548,
				"z": -4.3473282362,
				"element": "C" 
			},
			{
				"x": -3.1536115984,
				"y": -0.9046510227,
				"z": -4.4855950554,
				"element": "O" 
			},
			{
				"x": -2.3510948409,
				"y": -1.1485467875,
				"z": -3.410887869,
				"element": "C" 
			},
			{
				"x": -0.9802990806,
				"y": -0.9205235382,
				"z": -3.6127527162,
				"element": "C" 
			},
			{
				"x": -0.0738967637,
				"y": -1.1376893079,
				"z": -2.5825706515,
				"element": "C" 
			},
			{
				"x": -0.5326405788,
				"y": -1.5851209657,
				"z": -1.3410542963,
				"element": "C" 
			},
			{
				"x": 0.3863302183,
				"y": -1.8790557665,
				"z": -0.3346738654,
				"element": "O" 
			},
			{
				"x": 0.7106163363,
				"y": -0.9250594286,
				"z": 0.5917288995,
				"element": "C" 
			},
			{
				"x": 1.6121551472,
				"y": -1.330734478,
				"z": 1.587203484,
				"element": "C" 
			},
			{
				"x": 2.0049724541,
				"y": -0.4350161482,
				"z": 2.5725957693,
				"element": "C" 
			},
			{
				"x": 1.5001040236,
				"y": 0.8707981197,
				"z": 2.5615572955,
				"element": "C" 
			},
			{
				"x": 0.5938513527,
				"y": 1.2730834723,
				"z": 1.5790400462,
				"element": "C" 
			},
			{
				"x": 0.1959911795,
				"y": 0.3773395087,
				"z": 0.588090575,
				"element": "C" 
			},
			{
				"x": 2.0290017105,
				"y": 2.0386702193,
				"z": 3.8135990788,
				"element": "S" 
			},
			{
				"x": 3.4144801794,
				"y": 2.8005281204,
				"z": 3.2286082439,
				"element": "N" 
			},
			{
				"x": 1.0141070521,
				"y": 3.0886345591,
				"z": 3.8928859614,
				"element": "O" 
			},
			{
				"x": 2.4727596686,
				"y": 1.268206805,
				"z": 4.9746360902,
				"element": "O" 
			},
			{
				"x": -1.8872332541,
				"y": -1.8184337647,
				"z": -1.131188943,
				"element": "C" 
			},
			{
				"x": -2.8032735733,
				"y": -1.6003617181,
				"z": -2.164518734,
				"element": "C" 
			},
			{
				"x": -4.7728741375,
				"y": -2.1725043981,
				"z": -4.1123746684,
				"element": "H" 
			},
			{
				"x": -4.990601501,
				"y": -0.8708805141,
				"z": -5.3122693014,
				"element": "H" 
			},
			{
				"x": -4.9853005955,
				"y": -0.4811395168,
				"z": -3.5718218242,
				"element": "H" 
			},
			{
				"x": -0.6507708233,
				"y": -0.5771785494,
				"z": -4.5876114348,
				"element": "H" 
			},
			{
				"x": 0.9882814887,
				"y": -0.9734050345,
				"z": -2.7322560958,
				"element": "H" 
			},
			{
				"x": 1.9792236459,
				"y": -2.3513827683,
				"z": 1.5732085919,
				"element": "H" 
			},
			{
				"x": 2.6795236091,
				"y": -0.7454602816,
				"z": 3.3635329739,
				"element": "H" 
			},
			{
				"x": 0.185019431,
				"y": 2.277735879,
				"z": 1.6050443474,
				"element": "H" 
			},
			{
				"x": -0.5129129386,
				"y": 0.6821080558,
				"z": -0.1722817909,
				"element": "H" 
			},
			{
				"x": 4.1908579039,
				"y": 2.1568724184,
				"z": 3.1107607987,
				"element": "H" 
			},
			{
				"x": 3.2319854721,
				"y": 3.3515958529,
				"z": 2.3955640041,
				"element": "H" 
			},
			{
				"x": -2.2240883461,
				"y": -2.1774036843,
				"z": -0.1640420061,
				"element": "H" 
			},
			{
				"x": -3.8548181676,
				"y": -1.7894672828,
				"z": -1.9862286711,
				"element": "H" 
			}
		],
		 "valence_orbital": [ 
			{
				"type": "occ",
				"energy": -0.29776,
				"method": "rhf"
			},
			{
				"type": "occ",
				"energy": -0.27399,
				"method": "rhf"
			},
			{
				"type": "occ",
				"energy": -0.26858,
				"method": "rhf"
			},
			{
				"type": "occ",
				"energy": -0.24116,
				"method": "rhf"
			},
			{
				"type": "occ",
				"energy": -0.22958,
				"method": "rhf"
			},
			{
				"type": "unocc",
				"energy": -0.03001,
				"method": "rhf"
			},
			{
				"type": "unocc",
				"energy": -0.02502,
				"method": "rhf"
			},
			{
				"type": "unocc",
				"energy": -0.01455,
				"method": "rhf"
			},
			{
				"type": "unocc",
				"energy": -0.00171,
				"method": "rhf"
			},
			{
				"type": "unocc",
				"energy": 0.05587,
				"method": "rhf"
			}
		],
		"cosmo_sigma_profile": { 
			"-0.025": 0.0,
			"-0.024": 0.0,
			"-0.023": 0.0,
			"-0.022": 0.0,
			"-0.021": 0.0,
			"-0.02": 0.0,
			"-0.019": 0.0,
			"-0.018": 0.0,
			"-0.017": 0.0,
			"-0.016": 0.0409122513813,
			"-0.015": 1.83476593561,
			"-0.014": 3.07681654465,
			"-0.013": 2.05788768393,
			"-0.012": 2.69359745785,
			"-0.011": 3.343044598,
			"-0.01": 2.4492540596,
			"-0.009": 2.39514732984,
			"-0.008": 1.67076734847,
			"-0.007": 10.4342717831,
			"-0.006": 20.7144529414,
			"-0.005": 23.7845785432,
			"-0.004": 20.7955435134,
			"-0.003": 19.669913426,
			"-0.002": 16.8957735032,
			"-0.001": 14.6647626278,
			"0.0": 16.5778533975,
			"0.001": 18.3063050793,
			"0.002": 25.0738244993,
			"0.003": 24.5986986807,
			"0.004": 15.7155857741,
			"0.005": 7.5607893895,
			"0.006": 6.87039449223,
			"0.007": 5.48025395548,
			"0.008": 7.26482234561,
			"0.009": 7.20627008698,
			"0.01": 7.88034104024,
			"0.011": 10.6654331675,
			"0.012": 6.85997083579,
			"0.013": 0.434733622301,
			"0.014": 0.0,
			"0.015": 0.0,
			"0.016": 0.0,
			"0.017": 0.0,
			"0.018": 0.0,
			"0.019": 0.0,
			"0.02": 0.0,
			"0.021": 0.0,
			"0.022": 0.0,
			"0.023": 0.0,
			"0.024": 0.0,
			"0.025": 0.0
		}
	}
}
