{
	 "smiles": "CC(C)N1C2=C(NC1=C1C=CC=C(C)C1=N)C=CC(F)=C2", 
	 "Tm": 434.15, 
	 "num_atms": 39, 
	 "gaussian": { 
		 "optdone": 1, 
		 "sigma_profile": "yes", 
		 "theory": "DFT", 
		 "functional": "B3LYP", 
		 "basiset": "6-31G**", 
		 "properties": { 
			 "R2extent": 7534.1665, 
			 "electric_dipole_moment_norm": 4.75242530399, 
			 "electric_quadrupole_moment_norm": 18.4431994009, 
			 "total_energy": -922.726336061, 
			 "HOMO_LUMO_gap": 0.10692, 
			 "cosmo_polarized_energy": -18.36, 
			 "cosmo_cavitation_energy": 40.35, 
			 "cosmo_dispersion_energy": -28.55, 
			 "cosmo_repulsion_energy": 2.12, 
			 "cosmo_total_nonelectrostatic_energy": 13.92, 
			 "SMD_solvation_energy": 6.13 
		},
		"coords": [
			{
				"x": -0.9382882197,
				"y": -0.7271987145,
				"z": -1.992552436,
				"element": "C" 
			},
			{
				"x": -0.568782284,
				"y": -1.4094342979,
				"z": -0.6714145747,
				"element": "C" 
			},
			{
				"x": -0.0418805838,
				"y": -2.8418462343,
				"z": -0.8389191021,
				"element": "C" 
			},
			{
				"x": 0.2959394142,
				"y": -0.581632443,
				"z": 0.2172987591,
				"element": "N" 
			},
			{
				"x": -0.003558747,
				"y": -0.5191634079,
				"z": 1.585682694,
				"element": "C" 
			},
			{
				"x": 0.6289724913,
				"y": 0.6189176452,
				"z": 2.114608909,
				"element": "C" 
			},
			{
				"x": 1.2851447792,
				"y": 1.2172687537,
				"z": 1.0530200938,
				"element": "N" 
			},
			{
				"x": 1.1623848069,
				"y": 0.4654783914,
				"z": -0.0964135322,
				"element": "C" 
			},
			{
				"x": 1.9110960141,
				"y": 0.7235117868,
				"z": -1.2614895604,
				"element": "C" 
			},
			{
				"x": 2.3026287836,
				"y": -0.3524428141,
				"z": -2.1246385693,
				"element": "C" 
			},
			{
				"x": 3.2367911304,
				"y": -0.1784177609,
				"z": -3.1043571807,
				"element": "C" 
			},
			{
				"x": 3.8579723115,
				"y": 1.0991615838,
				"z": -3.2675152747,
				"element": "C" 
			},
			{
				"x": 3.5358545743,
				"y": 2.1748819515,
				"z": -2.4900046518,
				"element": "C" 
			},
			{
				"x": 4.1932528219,
				"y": 3.5145331282,
				"z": -2.6693019871,
				"element": "C" 
			},
			{
				"x": 2.4753186643,
				"y": 2.0739623154,
				"z": -1.4793793742,
				"element": "C" 
			},
			{
				"x": 2.1210202212,
				"y": 3.1921658435,
				"z": -0.885353008,
				"element": "N" 
			},
			{
				"x": 0.5055197534,
				"y": 0.9702457007,
				"z": 3.4543469671,
				"element": "C" 
			},
			{
				"x": -0.2720214094,
				"y": 0.1447264705,
				"z": 4.273542948,
				"element": "C" 
			},
			{
				"x": -0.8969810524,
				"y": -0.9758518056,
				"z": 3.730212554,
				"element": "C" 
			},
			{
				"x": -1.6439274862,
				"y": -1.7559043056,
				"z": 4.5405372024,
				"element": "F" 
			},
			{
				"x": -0.7879893481,
				"y": -1.3435369673,
				"z": 2.3888849463,
				"element": "C" 
			},
			{
				"x": -0.1070537178,
				"y": -0.6700167432,
				"z": -2.6946498243,
				"element": "H" 
			},
			{
				"x": -1.3124613984,
				"y": 0.2853668863,
				"z": -1.81928852,
				"element": "H" 
			},
			{
				"x": -1.7397244244,
				"y": -1.3092054005,
				"z": -2.4580688121,
				"element": "H" 
			},
			{
				"x": -1.5012126302,
				"y": -1.4814128944,
				"z": -0.1007066326,
				"element": "H" 
			},
			{
				"x": -0.814630648,
				"y": -3.4570304049,
				"z": -1.3108735545,
				"element": "H" 
			},
			{
				"x": 0.8502693701,
				"y": -2.8903057212,
				"z": -1.4669246344,
				"element": "H" 
			},
			{
				"x": 0.2023159582,
				"y": -3.2871221174,
				"z": 0.1298021651,
				"element": "H" 
			},
			{
				"x": 1.9749389787,
				"y": 1.9581925506,
				"z": 1.1013669978,
				"element": "H" 
			},
			{
				"x": 1.917911053,
				"y": -1.3453641019,
				"z": -1.9320309513,
				"element": "H" 
			},
			{
				"x": 3.5505826626,
				"y": -1.0156657425,
				"z": -3.7196794366,
				"element": "H" 
			},
			{
				"x": 4.620793095,
				"y": 1.2146051827,
				"z": -4.034921879,
				"element": "H" 
			},
			{
				"x": 4.656150137,
				"y": 3.8532442626,
				"z": -1.735518876,
				"element": "H" 
			},
			{
				"x": 3.4524035231,
				"y": 4.2795785919,
				"z": -2.9248609796,
				"element": "H" 
			},
			{
				"x": 4.9578696829,
				"y": 3.4771004508,
				"z": -3.4510527254,
				"element": "H" 
			},
			{
				"x": 1.270025081,
				"y": 3.0628513241,
				"z": -0.3365817495,
				"element": "H" 
			},
			{
				"x": 0.9952839224,
				"y": 1.8509851013,
				"z": 3.855428115,
				"element": "H" 
			},
			{
				"x": -0.3998651643,
				"y": 0.3597917811,
				"z": 5.3280233992,
				"element": "H" 
			},
			{
				"x": -1.2840621167,
				"y": -2.2371178247,
				"z": 2.0314420755,
				"element": "H" 
			}
		],
		 "valence_orbital": [ 
			{
				"type": "occ",
				"energy": -0.26768,
				"method": "rhf"
			},
			{
				"type": "occ",
				"energy": -0.25575,
				"method": "rhf"
			},
			{
				"type": "occ",
				"energy": -0.22593,
				"method": "rhf"
			},
			{
				"type": "occ",
				"energy": -0.22114,
				"method": "rhf"
			},
			{
				"type": "occ",
				"energy": -0.15852,
				"method": "rhf"
			},
			{
				"type": "unocc",
				"energy": -0.0516,
				"method": "rhf"
			},
			{
				"type": "unocc",
				"energy": -0.01292,
				"method": "rhf"
			},
			{
				"type": "unocc",
				"energy": 0.00065,
				"method": "rhf"
			},
			{
				"type": "unocc",
				"energy": 0.0359,
				"method": "rhf"
			},
			{
				"type": "unocc",
				"energy": 0.05472,
				"method": "rhf"
			}
		],
		"cosmo_sigma_profile": { 
			"-0.025": 0.0,
			"-0.024": 0.0,
			"-0.023": 0.0,
			"-0.022": 0.0,
			"-0.021": 0.0,
			"-0.02": 0.0,
			"-0.019": 0.0,
			"-0.018": 0.0,
			"-0.017": 0.0,
			"-0.016": 0.0,
			"-0.015": 0.469469424486,
			"-0.014": 0.964680282227,
			"-0.013": 0.90673570903,
			"-0.012": 0.988025346074,
			"-0.011": 0.745853169893,
			"-0.01": 1.25507020698,
			"-0.009": 1.83657145724,
			"-0.008": 5.35702738617,
			"-0.007": 8.15991160003,
			"-0.006": 10.3875315768,
			"-0.005": 17.7302802316,
			"-0.004": 26.5486812488,
			"-0.003": 24.6946261641,
			"-0.002": 29.0131372979,
			"-0.001": 28.757818575,
			"0.0": 29.432727954,
			"0.001": 27.8569149398,
			"0.002": 23.9459110022,
			"0.003": 16.1204640479,
			"0.004": 19.2413467081,
			"0.005": 10.9205729348,
			"0.006": 9.02718032272,
			"0.007": 8.00314148453,
			"0.008": 3.97917931368,
			"0.009": 1.34878284415,
			"0.01": 1.40231906158,
			"0.011": 1.47273378739,
			"0.012": 1.39824369579,
			"0.013": 1.08314361514,
			"0.014": 1.1090267221,
			"0.015": 1.8172022054,
			"0.016": 0.923318417311,
			"0.017": 0.779671986753,
			"0.018": 1.18162129013,
			"0.019": 0.931158144726,
			"0.02": 0.813789665346,
			"0.021": 0.0233681929668,
			"0.022": 0.0,
			"0.023": 0.0,
			"0.024": 0.0,
			"0.025": 0.0
		}
	}
}
