{
	 "smiles": "FC1=CC(F)=C(C(=O)C2=CN=CC=C2)C(F)=C1", 
	 "Tm": 312.15, 
	 "num_atms": 23, 
	 "gaussian": { 
		 "optdone": 1, 
		 "sigma_profile": "yes", 
		 "theory": "DFT", 
		 "functional": "B3LYP", 
		 "basiset": "6-31G**", 
		 "properties": { 
			 "R2extent": 4928.1897, 
			 "electric_dipole_moment_norm": 4.18035878245, 
			 "electric_quadrupole_moment_norm": 12.4975901801, 
			 "total_energy": -890.352452796, 
			 "HOMO_LUMO_gap": 0.1771, 
			 "cosmo_polarized_energy": -11.08, 
			 "cosmo_cavitation_energy": 29.98, 
			 "cosmo_dispersion_energy": -21.04, 
			 "cosmo_repulsion_energy": 1.55, 
			 "cosmo_total_nonelectrostatic_energy": 10.49, 
			 "SMD_solvation_energy": 5.62 
		},
		"coords": [
			{
				"x": -2.4076834049,
				"y": -0.9749285605,
				"z": 3.2928655536,
				"element": "F" 
			},
			{
				"x": -1.98523889,
				"y": -0.4056474441,
				"z": 2.1540311738,
				"element": "C" 
			},
			{
				"x": -2.7803269748,
				"y": 0.5678722261,
				"z": 1.5589093556,
				"element": "C" 
			},
			{
				"x": -2.3150593269,
				"y": 1.1471087508,
				"z": 0.3854824477,
				"element": "C" 
			},
			{
				"x": -3.0792200501,
				"y": 2.0757100415,
				"z": -0.2025282441,
				"element": "F" 
			},
			{
				"x": -1.1077121381,
				"y": 0.7788686662,
				"z": -0.2263310331,
				"element": "C" 
			},
			{
				"x": -0.6092319169,
				"y": 1.5110683943,
				"z": -1.449220279,
				"element": "C" 
			},
			{
				"x": -0.5918453143,
				"y": 2.7315761001,
				"z": -1.4500118183,
				"element": "O" 
			},
			{
				"x": -0.1673168616,
				"y": 0.7299824086,
				"z": -2.6414878132,
				"element": "C" 
			},
			{
				"x": 0.536905643,
				"y": 1.4012808106,
				"z": -3.6563433209,
				"element": "C" 
			},
			{
				"x": 0.9607582462,
				"y": 0.818980448,
				"z": -4.7795698423,
				"element": "N" 
			},
			{
				"x": 0.6795449697,
				"y": -0.4827615195,
				"z": -4.9385505316,
				"element": "C" 
			},
			{
				"x": -0.0195957348,
				"y": -1.2456598393,
				"z": -4.0016643938,
				"element": "C" 
			},
			{
				"x": -0.4476266071,
				"y": -0.6285077296,
				"z": -2.8298909792,
				"element": "C" 
			},
			{
				"x": -0.3650055458,
				"y": -0.2069193279,
				"z": 0.4327473888,
				"element": "C" 
			},
			{
				"x": 0.8169733726,
				"y": -0.5794398803,
				"z": -0.0929756429,
				"element": "F" 
			},
			{
				"x": -0.7703453179,
				"y": -0.8132710969,
				"z": 1.6148328046,
				"element": "C" 
			},
			{
				"x": -3.7263996741,
				"y": 0.8674112773,
				"z": 1.9914757098,
				"element": "H" 
			},
			{
				"x": 0.7597697341,
				"y": 2.4575403811,
				"z": -3.5299583308,
				"element": "H" 
			},
			{
				"x": 1.0292636149,
				"y": -0.9367815536,
				"z": -5.8640813168,
				"element": "H" 
			},
			{
				"x": -0.223108513,
				"y": -2.2947759081,
				"z": -4.1902464922,
				"element": "H" 
			},
			{
				"x": -1.0045740387,
				"y": -1.1869476979,
				"z": -2.0843358648,
				"element": "H" 
			},
			{
				"x": -0.1574252714,
				"y": -1.562658947,
				"z": 2.0991514691,
				"element": "H" 
			}
		],
		 "valence_orbital": [ 
			{
				"type": "occ",
				"energy": -0.28334,
				"method": "rhf"
			},
			{
				"type": "occ",
				"energy": -0.27469,
				"method": "rhf"
			},
			{
				"type": "occ",
				"energy": -0.27328,
				"method": "rhf"
			},
			{
				"type": "occ",
				"energy": -0.26726,
				"method": "rhf"
			},
			{
				"type": "occ",
				"energy": -0.25683,
				"method": "rhf"
			},
			{
				"type": "unocc",
				"energy": -0.07973,
				"method": "rhf"
			},
			{
				"type": "unocc",
				"energy": -0.03642,
				"method": "rhf"
			},
			{
				"type": "unocc",
				"energy": -0.02801,
				"method": "rhf"
			},
			{
				"type": "unocc",
				"energy": -0.02531,
				"method": "rhf"
			},
			{
				"type": "unocc",
				"energy": 0.02863,
				"method": "rhf"
			}
		],
		"cosmo_sigma_profile": { 
			"-0.025": 0.0,
			"-0.024": 0.0,
			"-0.023": 0.0,
			"-0.022": 0.0,
			"-0.021": 0.0,
			"-0.02": 0.0,
			"-0.019": 0.0,
			"-0.018": 0.0,
			"-0.017": 0.0,
			"-0.016": 0.0,
			"-0.015": 0.0,
			"-0.014": 0.0,
			"-0.013": 0.0,
			"-0.012": 0.0,
			"-0.011": 0.0,
			"-0.01": 0.509852232376,
			"-0.009": 3.41392651066,
			"-0.008": 5.83580630391,
			"-0.007": 11.0810932119,
			"-0.006": 11.2084105188,
			"-0.005": 11.1513612443,
			"-0.004": 10.4084288132,
			"-0.003": 14.2141028319,
			"-0.002": 18.7763284374,
			"-0.001": 28.9284866059,
			"0.0": 27.6125296786,
			"0.001": 19.2689338387,
			"0.002": 15.0158114997,
			"0.003": 27.5138014252,
			"0.004": 8.82648886342,
			"0.005": 3.25103725395,
			"0.006": 2.19672308587,
			"0.007": 4.28613911402,
			"0.008": 3.48333332056,
			"0.009": 3.56887214444,
			"0.01": 4.02298323967,
			"0.011": 4.06555603089,
			"0.012": 1.41832079687,
			"0.013": 0.918718980993,
			"0.014": 0.966189941798,
			"0.015": 0.69489163079,
			"0.016": 0.51606467616,
			"0.017": 0.0,
			"0.018": 0.0,
			"0.019": 0.0,
			"0.02": 0.0,
			"0.021": 0.0,
			"0.022": 0.0,
			"0.023": 0.0,
			"0.024": 0.0,
			"0.025": 0.0
		}
	}
}
