{
	 "smiles": "OC(C1=CC(=CC=C1)C(O)(C(F)(F)F)C(F)(F)F)(C(F)(F)F)C(F)(F)F", 
	 "Tm": 282.65, 
	 "num_atms": 32, 
	 "gaussian": { 
		 "optdone": 1, 
		 "sigma_profile": "yes", 
		 "theory": "DFT", 
		 "functional": "B3LYP", 
		 "basiset": "6-31G**", 
		 "properties": { 
			 "R2extent": 9106.712, 
			 "electric_dipole_moment_norm": 0.829370538421, 
			 "electric_quadrupole_moment_norm": 9.82373672235, 
			 "total_energy": -1809.42530625, 
			 "HOMO_LUMO_gap": 0.23802, 
			 "cosmo_polarized_energy": -8.28, 
			 "cosmo_cavitation_energy": 40.08, 
			 "cosmo_dispersion_energy": -25.8, 
			 "cosmo_repulsion_energy": 1.72, 
			 "cosmo_total_nonelectrostatic_energy": 16.0, 
			 "SMD_solvation_energy": 11.11 
		},
		"coords": [
			{
				"x": -2.0855066809,
				"y": 1.1635694945,
				"z": -1.7509242474,
				"element": "O" 
			},
			{
				"x": -2.2509021192,
				"y": 1.613426154,
				"z": -0.4279852458,
				"element": "C" 
			},
			{
				"x": -1.0570858069,
				"y": 1.1562446551,
				"z": 0.4080652168,
				"element": "C" 
			},
			{
				"x": -0.0496140489,
				"y": 0.4069809376,
				"z": -0.2035196722,
				"element": "C" 
			},
			{
				"x": 1.0568317511,
				"y": -0.0260219174,
				"z": 0.5364555919,
				"element": "C" 
			},
			{
				"x": 1.1519096838,
				"y": 0.2930093127,
				"z": 1.893436159,
				"element": "C" 
			},
			{
				"x": 0.1441277852,
				"y": 1.0404361967,
				"z": 2.5003984954,
				"element": "C" 
			},
			{
				"x": -0.958717478,
				"y": 1.4740152478,
				"z": 1.7685009815,
				"element": "C" 
			},
			{
				"x": 2.1650058511,
				"y": -0.8461296996,
				"z": -0.1212139619,
				"element": "C" 
			},
			{
				"x": 3.1507757591,
				"y": -1.1377844722,
				"z": 0.8406392772,
				"element": "O" 
			},
			{
				"x": 2.8556111762,
				"y": -0.0422418774,
				"z": -1.2589658589,
				"element": "C" 
			},
			{
				"x": 3.9482162205,
				"y": -0.7126772119,
				"z": -1.697647598,
				"element": "F" 
			},
			{
				"x": 3.2687142594,
				"y": 1.1459350636,
				"z": -0.7996258094,
				"element": "F" 
			},
			{
				"x": 2.0577608997,
				"y": 0.1686211199,
				"z": -2.3195488822,
				"element": "F" 
			},
			{
				"x": 1.617950116,
				"y": -2.2035362576,
				"z": -0.6463149473,
				"element": "C" 
			},
			{
				"x": 0.7708511003,
				"y": -2.0694465011,
				"z": -1.6807335257,
				"element": "F" 
			},
			{
				"x": 0.9835002531,
				"y": -2.8562109273,
				"z": 0.3360337004,
				"element": "F" 
			},
			{
				"x": 2.6450559225,
				"y": -2.9849868751,
				"z": -1.058712277,
				"element": "F" 
			},
			{
				"x": -2.3358814255,
				"y": 3.1652733878,
				"z": -0.4759042889,
				"element": "C" 
			},
			{
				"x": -1.1695885439,
				"y": 3.6795533136,
				"z": -0.8850783711,
				"element": "F" 
			},
			{
				"x": -2.6465687908,
				"y": 3.7158411946,
				"z": 0.711313148,
				"element": "F" 
			},
			{
				"x": -3.2854562255,
				"y": 3.5475662663,
				"z": -1.3625928922,
				"element": "F" 
			},
			{
				"x": -3.5735765516,
				"y": 0.9958368725,
				"z": 0.1074429898,
				"element": "C" 
			},
			{
				"x": -4.5888305716,
				"y": 1.2693275195,
				"z": -0.746109607,
				"element": "F" 
			},
			{
				"x": -3.4615018657,
				"y": -0.3356747075,
				"z": 0.1895769518,
				"element": "F" 
			},
			{
				"x": -3.9252582393,
				"y": 1.4652017051,
				"z": 1.3177718901,
				"element": "F" 
			},
			{
				"x": -2.850065603,
				"y": 1.4625727095,
				"z": -2.2642398104,
				"element": "H" 
			},
			{
				"x": -0.1413425683,
				"y": 0.1705563049,
				"z": -1.2532909547,
				"element": "H" 
			},
			{
				"x": 2.0083666353,
				"y": -0.0428565626,
				"z": 2.4637653229,
				"element": "H" 
			},
			{
				"x": 0.2186739585,
				"y": 1.2878395599,
				"z": 3.5547709559,
				"element": "H" 
			},
			{
				"x": -1.7321418424,
				"y": 2.0538670629,
				"z": 2.2558472205,
				"element": "H" 
			},
			{
				"x": 3.8431869895,
				"y": -1.6561070689,
				"z": 0.4053900488,
				"element": "H" 
			}
		],
		 "valence_orbital": [ 
			{
				"type": "occ",
				"energy": -0.35207,
				"method": "rhf"
			},
			{
				"type": "occ",
				"energy": -0.32303,
				"method": "rhf"
			},
			{
				"type": "occ",
				"energy": -0.32103,
				"method": "rhf"
			},
			{
				"type": "occ",
				"energy": -0.27018,
				"method": "rhf"
			},
			{
				"type": "occ",
				"energy": -0.26961,
				"method": "rhf"
			},
			{
				"type": "unocc",
				"energy": -0.03159,
				"method": "rhf"
			},
			{
				"type": "unocc",
				"energy": -0.02474,
				"method": "rhf"
			},
			{
				"type": "unocc",
				"energy": 0.05561,
				"method": "rhf"
			},
			{
				"type": "unocc",
				"energy": 0.06083,
				"method": "rhf"
			},
			{
				"type": "unocc",
				"energy": 0.08793,
				"method": "rhf"
			}
		],
		"cosmo_sigma_profile": { 
			"-0.025": 0.0,
			"-0.024": 0.0,
			"-0.023": 0.0,
			"-0.022": 0.0,
			"-0.021": 0.0,
			"-0.02": 0.0,
			"-0.019": 0.0,
			"-0.018": 0.283122249419,
			"-0.017": 0.854588234321,
			"-0.016": 1.09969680552,
			"-0.015": 0.899390744007,
			"-0.014": 1.02645359107,
			"-0.013": 1.62674610208,
			"-0.012": 1.35503843972,
			"-0.011": 2.3176063344,
			"-0.01": 1.29985607441,
			"-0.009": 1.92445154473,
			"-0.008": 1.49621348451,
			"-0.007": 4.12800553838,
			"-0.006": 7.86586175342,
			"-0.005": 7.5406719919,
			"-0.004": 7.04749466738,
			"-0.003": 8.88177107105,
			"-0.002": 14.3968338581,
			"-0.001": 21.6534443316,
			"0.0": 32.8820926508,
			"0.001": 76.3410191082,
			"0.002": 99.2507008238,
			"0.003": 12.7035430935,
			"0.004": 4.84372796899,
			"0.005": 3.40138835041,
			"0.006": 3.66331549107,
			"0.007": 2.07471537427,
			"0.008": 0.49764877797,
			"0.009": 0.0,
			"0.01": 0.0,
			"0.011": 0.0,
			"0.012": 0.0,
			"0.013": 0.0,
			"0.014": 0.0,
			"0.015": 0.0,
			"0.016": 0.0,
			"0.017": 0.0,
			"0.018": 0.0,
			"0.019": 0.0,
			"0.02": 0.0,
			"0.021": 0.0,
			"0.022": 0.0,
			"0.023": 0.0,
			"0.024": 0.0,
			"0.025": 0.0
		}
	}
}
