{
	 "smiles": "O=C1NC(=CC2=C1C=CC=C2)N1CCOCC1", 
	 "Tm": 486.15, 
	 "num_atms": 31, 
	 "gaussian": { 
		 "optdone": 1, 
		 "sigma_profile": "yes", 
		 "theory": "DFT", 
		 "functional": "B3LYP", 
		 "basiset": "6-31G**", 
		 "properties": { 
			 "R2extent": 5076.1216, 
			 "electric_dipole_moment_norm": 4.07186812286, 
			 "electric_quadrupole_moment_norm": 10.7609831489, 
			 "total_energy": -763.772053768, 
			 "HOMO_LUMO_gap": 0.15972, 
			 "cosmo_polarized_energy": -16.88, 
			 "cosmo_cavitation_energy": 32.96, 
			 "cosmo_dispersion_energy": -24.75, 
			 "cosmo_repulsion_energy": 1.88, 
			 "cosmo_total_nonelectrostatic_energy": 10.09, 
			 "SMD_solvation_energy": 4.74 
		},
		"coords": [
			{
				"x": 3.0685256739,
				"y": 1.1970320679,
				"z": -0.7228540296,
				"element": "O" 
			},
			{
				"x": 1.8519096104,
				"y": 1.2663154121,
				"z": -0.5716817885,
				"element": "C" 
			},
			{
				"x": 1.135225947,
				"y": 0.1096003492,
				"z": -0.2343694749,
				"element": "N" 
			},
			{
				"x": -0.2350724359,
				"y": 0.0171768713,
				"z": -0.0505170117,
				"element": "C" 
			},
			{
				"x": -1.0003354452,
				"y": 1.1462929423,
				"z": -0.1986959163,
				"element": "C" 
			},
			{
				"x": -0.3807910015,
				"y": 2.3914147792,
				"z": -0.5524721572,
				"element": "C" 
			},
			{
				"x": 1.0267408107,
				"y": 2.4677288902,
				"z": -0.7272767516,
				"element": "C" 
			},
			{
				"x": 1.646211927,
				"y": 3.6826494791,
				"z": -1.0632245959,
				"element": "C" 
			},
			{
				"x": 0.8907414547,
				"y": 4.8329306941,
				"z": -1.2228430998,
				"element": "C" 
			},
			{
				"x": -0.5045237188,
				"y": 4.7728933083,
				"z": -1.0476393699,
				"element": "C" 
			},
			{
				"x": -1.129146136,
				"y": 3.5809484846,
				"z": -0.7203528877,
				"element": "C" 
			},
			{
				"x": -0.7235763364,
				"y": -1.2428974861,
				"z": 0.2413167864,
				"element": "N" 
			},
			{
				"x": 0.0833245411,
				"y": -2.2333982606,
				"z": 0.9700126201,
				"element": "C" 
			},
			{
				"x": -0.7890666606,
				"y": -2.9737535971,
				"z": 1.9839199351,
				"element": "C" 
			},
			{
				"x": -1.8903713228,
				"y": -3.6395925218,
				"z": 1.3832065829,
				"element": "O" 
			},
			{
				"x": -2.4566127937,
				"y": -2.9567516719,
				"z": 0.2655991102,
				"element": "C" 
			},
			{
				"x": -2.1674513679,
				"y": -1.4587118802,
				"z": 0.2626029705,
				"element": "C" 
			},
			{
				"x": 1.7064979726,
				"y": -0.7242921372,
				"z": -0.2298363061,
				"element": "H" 
			},
			{
				"x": -2.0653616924,
				"y": 1.1175419608,
				"z": -0.0142700774,
				"element": "H" 
			},
			{
				"x": 2.7239814237,
				"y": 3.6844520483,
				"z": -1.1895440125,
				"element": "H" 
			},
			{
				"x": 1.3680926051,
				"y": 5.7734467587,
				"z": -1.479924559,
				"element": "H" 
			},
			{
				"x": -1.1012622598,
				"y": 5.6727673639,
				"z": -1.1717526892,
				"element": "H" 
			},
			{
				"x": -2.2076223904,
				"y": 3.5478517001,
				"z": -0.5891792458,
				"element": "H" 
			},
			{
				"x": 0.8917673722,
				"y": -1.7333028048,
				"z": 1.5144565105,
				"element": "H" 
			},
			{
				"x": 0.5385396641,
				"y": -2.9594968968,
				"z": 0.2805152011,
				"element": "H" 
			},
			{
				"x": -1.1363508152,
				"y": -2.2608635975,
				"z": 2.7479436906,
				"element": "H" 
			},
			{
				"x": -0.1950039977,
				"y": -3.7409637322,
				"z": 2.4902511015,
				"element": "H" 
			},
			{
				"x": -3.538726746,
				"y": -3.1222981949,
				"z": 0.2971324628,
				"element": "H" 
			},
			{
				"x": -2.0748564641,
				"y": -3.3964299681,
				"z": -0.6679522157,
				"element": "H" 
			},
			{
				"x": -2.6050778232,
				"y": -1.013588145,
				"z": -0.6373041249,
				"element": "H" 
			},
			{
				"x": -2.6449495948,
				"y": -0.9776022159,
				"z": 1.1315333421,
				"element": "H" 
			}
		],
		 "valence_orbital": [ 
			{
				"type": "occ",
				"energy": -0.26877,
				"method": "rhf"
			},
			{
				"type": "occ",
				"energy": -0.25621,
				"method": "rhf"
			},
			{
				"type": "occ",
				"energy": -0.24849,
				"method": "rhf"
			},
			{
				"type": "occ",
				"energy": -0.24632,
				"method": "rhf"
			},
			{
				"type": "occ",
				"energy": -0.18639,
				"method": "rhf"
			},
			{
				"type": "unocc",
				"energy": -0.02667,
				"method": "rhf"
			},
			{
				"type": "unocc",
				"energy": -0.01097,
				"method": "rhf"
			},
			{
				"type": "unocc",
				"energy": 0.05041,
				"method": "rhf"
			},
			{
				"type": "unocc",
				"energy": 0.06492,
				"method": "rhf"
			},
			{
				"type": "unocc",
				"energy": 0.08342,
				"method": "rhf"
			}
		],
		"cosmo_sigma_profile": { 
			"-0.025": 0.0,
			"-0.024": 0.0,
			"-0.023": 0.0,
			"-0.022": 0.0,
			"-0.021": 0.0,
			"-0.02": 0.0,
			"-0.019": 0.0,
			"-0.018": 0.0,
			"-0.017": 0.0,
			"-0.016": 0.0,
			"-0.015": 0.0,
			"-0.014": 0.849222453416,
			"-0.013": 1.35403490576,
			"-0.012": 1.11286020745,
			"-0.011": 0.809631418514,
			"-0.01": 1.37821136663,
			"-0.009": 1.06183056966,
			"-0.008": 1.40986383382,
			"-0.007": 2.54149397073,
			"-0.006": 14.0784468071,
			"-0.005": 31.2944852253,
			"-0.004": 33.1644447377,
			"-0.003": 23.3805109231,
			"-0.002": 13.9735196742,
			"-0.001": 12.6024920761,
			"0.0": 13.8723179371,
			"0.001": 13.5866007455,
			"0.002": 13.0413162374,
			"0.003": 14.8403828237,
			"0.004": 15.1922473745,
			"0.005": 16.8431054553,
			"0.006": 6.67863210869,
			"0.007": 2.85141046289,
			"0.008": 2.40394387761,
			"0.009": 2.52573110953,
			"0.01": 2.17620562657,
			"0.011": 2.80973838055,
			"0.012": 3.3194007097,
			"0.013": 4.4681372083,
			"0.014": 6.56848192826,
			"0.015": 0.731891634894,
			"0.016": 0.0,
			"0.017": 0.0,
			"0.018": 0.0,
			"0.019": 0.0,
			"0.02": 0.0,
			"0.021": 0.0,
			"0.022": 0.0,
			"0.023": 0.0,
			"0.024": 0.0,
			"0.025": 0.0
		}
	}
}
