{
	 "smiles": "OCC1=CC=C2C(=O)C3=C(C=CC=C3)C(=O)C2=C1", 
	 "Tm": 467.15, 
	 "num_atms": 28, 
	 "gaussian": { 
		 "optdone": 1, 
		 "sigma_profile": "yes", 
		 "theory": "DFT", 
		 "functional": "B3LYP", 
		 "basiset": "6-31G**", 
		 "properties": { 
			 "R2extent": 5164.9477, 
			 "electric_dipole_moment_norm": 2.01489531242, 
			 "electric_quadrupole_moment_norm": 26.8510395519, 
			 "total_energy": -803.302795963, 
			 "HOMO_LUMO_gap": 0.15498, 
			 "cosmo_polarized_energy": -13.81, 
			 "cosmo_cavitation_energy": 32.4, 
			 "cosmo_dispersion_energy": -24.09, 
			 "cosmo_repulsion_energy": 1.8, 
			 "cosmo_total_nonelectrostatic_energy": 10.11, 
			 "SMD_solvation_energy": 6.13 
		},
		"coords": [
			{
				"x": 4.0862694988,
				"y": -3.0428453659,
				"z": 1.2798621457,
				"element": "O" 
			},
			{
				"x": 3.8363338113,
				"y": -2.2025716034,
				"z": 0.1673495416,
				"element": "C" 
			},
			{
				"x": 2.4252409507,
				"y": -1.6626582739,
				"z": 0.2395111332,
				"element": "C" 
			},
			{
				"x": 1.5676443994,
				"y": -2.0004691497,
				"z": 1.295246057,
				"element": "C" 
			},
			{
				"x": 0.2720547148,
				"y": -1.4911244162,
				"z": 1.3413419467,
				"element": "C" 
			},
			{
				"x": -0.1921434135,
				"y": -0.6363792311,
				"z": 0.3367390642,
				"element": "C" 
			},
			{
				"x": -1.5815867375,
				"y": -0.1069617878,
				"z": 0.4117945262,
				"element": "C" 
			},
			{
				"x": -2.331256449,
				"y": -0.4035463291,
				"z": 1.3368823316,
				"element": "O" 
			},
			{
				"x": -2.0309425059,
				"y": 0.8019290979,
				"z": -0.684578186,
				"element": "C" 
			},
			{
				"x": -1.1735085909,
				"y": 1.1451684589,
				"z": -1.7485679014,
				"element": "C" 
			},
			{
				"x": -1.628742077,
				"y": 2.0001491034,
				"z": -2.7593750862,
				"element": "C" 
			},
			{
				"x": -2.9237638969,
				"y": 2.5096832231,
				"z": -2.7139368763,
				"element": "C" 
			},
			{
				"x": -3.7758386392,
				"y": 2.1686064016,
				"z": -1.6565923495,
				"element": "C" 
			},
			{
				"x": -3.331154974,
				"y": 1.3188077908,
				"z": -0.6470199647,
				"element": "C" 
			},
			{
				"x": 0.2188108717,
				"y": 0.6141428816,
				"z": -1.8229607624,
				"element": "C" 
			},
			{
				"x": 0.9653946159,
				"y": 0.9132153433,
				"z": -2.749833604,
				"element": "O" 
			},
			{
				"x": 0.6667935449,
				"y": -0.2934387857,
				"z": -0.7276694376,
				"element": "C" 
			},
			{
				"x": 1.9638381515,
				"y": -0.808758853,
				"z": -0.765647545,
				"element": "C" 
			},
			{
				"x": 4.989769487,
				"y": -3.3726319744,
				"z": 1.2118715226,
				"element": "H" 
			},
			{
				"x": 4.5392838711,
				"y": -1.3534381076,
				"z": 0.138475289,
				"element": "H" 
			},
			{
				"x": 3.9590014635,
				"y": -2.7469378637,
				"z": -0.7837505597,
				"element": "H" 
			},
			{
				"x": 1.9292151412,
				"y": -2.6629996004,
				"z": 2.0727180225,
				"element": "H" 
			},
			{
				"x": -0.4026111439,
				"y": -1.7440762031,
				"z": 2.1524769438,
				"element": "H" 
			},
			{
				"x": -0.9480481745,
				"y": 2.2480794568,
				"z": -3.5668320495,
				"element": "H" 
			},
			{
				"x": -3.2728841948,
				"y": 3.1726674634,
				"z": -3.500194514,
				"element": "H" 
			},
			{
				"x": -4.7856102482,
				"y": 2.5672406419,
				"z": -1.6231919838,
				"element": "H" 
			},
			{
				"x": -3.9703531411,
				"y": 1.0384301665,
				"z": 0.1834050148,
				"element": "H" 
			},
			{
				"x": 2.5986936647,
				"y": -0.5238824841,
				"z": -1.6002227188,
				"element": "H" 
			}
		],
		 "valence_orbital": [ 
			{
				"type": "occ",
				"energy": -0.2658,
				"method": "rhf"
			},
			{
				"type": "occ",
				"energy": -0.26496,
				"method": "rhf"
			},
			{
				"type": "occ",
				"energy": -0.26196,
				"method": "rhf"
			},
			{
				"type": "occ",
				"energy": -0.25395,
				"method": "rhf"
			},
			{
				"type": "occ",
				"energy": -0.2534,
				"method": "rhf"
			},
			{
				"type": "unocc",
				"energy": -0.09842,
				"method": "rhf"
			},
			{
				"type": "unocc",
				"energy": -0.05487,
				"method": "rhf"
			},
			{
				"type": "unocc",
				"energy": -0.01795,
				"method": "rhf"
			},
			{
				"type": "unocc",
				"energy": -0.00953,
				"method": "rhf"
			},
			{
				"type": "unocc",
				"energy": 0.05588,
				"method": "rhf"
			}
		],
		"cosmo_sigma_profile": { 
			"-0.025": 0.0,
			"-0.024": 0.0,
			"-0.023": 0.0,
			"-0.022": 0.0,
			"-0.021": 0.0,
			"-0.02": 0.0,
			"-0.019": 0.0,
			"-0.018": 0.0,
			"-0.017": 0.281719404131,
			"-0.016": 0.919060809224,
			"-0.015": 1.3791160372,
			"-0.014": 0.983272730258,
			"-0.013": 0.972445351495,
			"-0.012": 0.593005878831,
			"-0.011": 0.577996222216,
			"-0.01": 0.985138750855,
			"-0.009": 1.14276999346,
			"-0.008": 0.752803789555,
			"-0.007": 7.08881267258,
			"-0.006": 15.5349115159,
			"-0.005": 23.2096952142,
			"-0.004": 18.4359909204,
			"-0.003": 15.7913009456,
			"-0.002": 14.5624562764,
			"-0.001": 14.6181416183,
			"0.0": 20.324522167,
			"0.001": 27.6473114204,
			"0.002": 32.1173369603,
			"0.003": 12.46227302,
			"0.004": 6.22005519535,
			"0.005": 6.62051845852,
			"0.006": 3.37328839063,
			"0.007": 4.8048167576,
			"0.008": 4.16802093163,
			"0.009": 5.75929765043,
			"0.01": 6.01309935948,
			"0.011": 9.53135044261,
			"0.012": 3.40964579145,
			"0.013": 0.0,
			"0.014": 0.0,
			"0.015": 0.0,
			"0.016": 0.0,
			"0.017": 0.0,
			"0.018": 0.0,
			"0.019": 0.0,
			"0.02": 0.0,
			"0.021": 0.0,
			"0.022": 0.0,
			"0.023": 0.0,
			"0.024": 0.0,
			"0.025": 0.0
		}
	}
}
