{
	 "smiles": "CCCCCCC(=O)OCCCCC", 
	 "Tm": 223.15, 
	 "num_atms": 38, 
	 "gaussian": { 
		 "optdone": 1, 
		 "sigma_profile": "yes", 
		 "theory": "DFT", 
		 "functional": "B3LYP", 
		 "basiset": "6-31G**", 
		 "properties": { 
			 "R2extent": 6221.1912, 
			 "electric_dipole_moment_norm": 1.55945952817, 
			 "electric_quadrupole_moment_norm": 9.88178042915, 
			 "total_energy": -622.232613615, 
			 "HOMO_LUMO_gap": 0.28363, 
			 "cosmo_polarized_energy": -6.28, 
			 "cosmo_cavitation_energy": 38.74, 
			 "cosmo_dispersion_energy": -26.85, 
			 "cosmo_repulsion_energy": 2.2, 
			 "cosmo_total_nonelectrostatic_energy": 14.1, 
			 "SMD_solvation_energy": 6.67 
		},
		"coords": [
			{
				"x": 1.8187643214,
				"y": -4.0320874915,
				"z": -2.2516257209,
				"element": "C" 
			},
			{
				"x": 2.3630066085,
				"y": -3.8806312739,
				"z": -0.8259256747,
				"element": "C" 
			},
			{
				"x": 1.9361107085,
				"y": -2.5852672072,
				"z": -0.1151780614,
				"element": "C" 
			},
			{
				"x": 0.429617535,
				"y": -2.4861464229,
				"z": 0.1711582829,
				"element": "C" 
			},
			{
				"x": 0.018742783,
				"y": -1.2697953963,
				"z": 1.0156994663,
				"element": "C" 
			},
			{
				"x": 0.2393556472,
				"y": 0.0739494529,
				"z": 0.3156256108,
				"element": "C" 
			},
			{
				"x": -0.2768126595,
				"y": 1.2524699372,
				"z": 1.1185841339,
				"element": "C" 
			},
			{
				"x": -0.9028198139,
				"y": 1.1793095138,
				"z": 2.1547965859,
				"element": "O" 
			},
			{
				"x": 0.0548276028,
				"y": 2.4211354822,
				"z": 0.5184443964,
				"element": "O" 
			},
			{
				"x": -0.3901501563,
				"y": 3.6372443726,
				"z": 1.1668405026,
				"element": "C" 
			},
			{
				"x": -1.8074591586,
				"y": 4.024906537,
				"z": 0.7541351356,
				"element": "C" 
			},
			{
				"x": -2.0596766824,
				"y": 4.1838978339,
				"z": -0.7560381179,
				"element": "C" 
			},
			{
				"x": -1.1969927724,
				"y": 5.2477025522,
				"z": -1.4720053198,
				"element": "C" 
			},
			{
				"x": 0.0889491625,
				"y": 4.7041860677,
				"z": -2.1110067707,
				"element": "C" 
			},
			{
				"x": 0.7253903247,
				"y": -4.0854763797,
				"z": -2.268950771,
				"element": "H" 
			},
			{
				"x": 2.1189152213,
				"y": -3.1852894029,
				"z": -2.8802312673,
				"element": "H" 
			},
			{
				"x": 2.1980821905,
				"y": -4.9448031516,
				"z": -2.7228798844,
				"element": "H" 
			},
			{
				"x": 2.0489876073,
				"y": -4.7427737756,
				"z": -0.221453333,
				"element": "H" 
			},
			{
				"x": 3.4594193135,
				"y": -3.9173538753,
				"z": -0.8584457422,
				"element": "H" 
			},
			{
				"x": 2.4785611168,
				"y": -2.5099843147,
				"z": 0.8375427214,
				"element": "H" 
			},
			{
				"x": 2.2619095676,
				"y": -1.7270575806,
				"z": -0.7191077847,
				"element": "H" 
			},
			{
				"x": 0.1136536125,
				"y": -3.395853652,
				"z": 0.6995858519,
				"element": "H" 
			},
			{
				"x": -0.1319279829,
				"y": -2.474338546,
				"z": -0.7727482084,
				"element": "H" 
			},
			{
				"x": -1.0396421886,
				"y": -1.3502838385,
				"z": 1.2852524064,
				"element": "H" 
			},
			{
				"x": 0.5683101306,
				"y": -1.274406475,
				"z": 1.9652193184,
				"element": "H" 
			},
			{
				"x": 1.2971598956,
				"y": 0.2576816749,
				"z": 0.0970667617,
				"element": "H" 
			},
			{
				"x": -0.2676559791,
				"y": 0.0945441941,
				"z": -0.6590080141,
				"element": "H" 
			},
			{
				"x": -0.3350326743,
				"y": 3.4986153293,
				"z": 2.2492632401,
				"element": "H" 
			},
			{
				"x": 0.3393755288,
				"y": 4.3915534817,
				"z": 0.8633681367,
				"element": "H" 
			},
			{
				"x": -2.0373502692,
				"y": 4.9723456786,
				"z": 1.2616871685,
				"element": "H" 
			},
			{
				"x": -2.4988370791,
				"y": 3.2796498778,
				"z": 1.1631345164,
				"element": "H" 
			},
			{
				"x": -3.1196773436,
				"y": 4.437759495,
				"z": -0.8771055317,
				"element": "H" 
			},
			{
				"x": -1.9253107889,
				"y": 3.2139086802,
				"z": -1.2510555156,
				"element": "H" 
			},
			{
				"x": -0.9512522247,
				"y": 6.0544593006,
				"z": -0.767155516,
				"element": "H" 
			},
			{
				"x": -1.7963301449,
				"y": 5.7200316165,
				"z": -2.259991345,
				"element": "H" 
			},
			{
				"x": -0.1494428712,
				"y": 3.9781277749,
				"z": -2.8966422831,
				"element": "H" 
			},
			{
				"x": 0.7301162807,
				"y": 4.1928559539,
				"z": -1.3875717867,
				"element": "H" 
			},
			{
				"x": 0.6723156308,
				"y": 5.5092139766,
				"z": -2.5708775874,
				"element": "H" 
			}
		],
		 "valence_orbital": [ 
			{
				"type": "occ",
				"energy": -0.31633,
				"method": "rhf"
			},
			{
				"type": "occ",
				"energy": -0.31231,
				"method": "rhf"
			},
			{
				"type": "occ",
				"energy": -0.30911,
				"method": "rhf"
			},
			{
				"type": "occ",
				"energy": -0.28963,
				"method": "rhf"
			},
			{
				"type": "occ",
				"energy": -0.26669,
				"method": "rhf"
			},
			{
				"type": "unocc",
				"energy": 0.01694,
				"method": "rhf"
			},
			{
				"type": "unocc",
				"energy": 0.0829,
				"method": "rhf"
			},
			{
				"type": "unocc",
				"energy": 0.08978,
				"method": "rhf"
			},
			{
				"type": "unocc",
				"energy": 0.10577,
				"method": "rhf"
			},
			{
				"type": "unocc",
				"energy": 0.11707,
				"method": "rhf"
			}
		],
		"cosmo_sigma_profile": { 
			"-0.025": 0.0,
			"-0.024": 0.0,
			"-0.023": 0.0,
			"-0.022": 0.0,
			"-0.021": 0.0,
			"-0.02": 0.0,
			"-0.019": 0.0,
			"-0.018": 0.0,
			"-0.017": 0.0,
			"-0.016": 0.0,
			"-0.015": 0.0,
			"-0.014": 0.0,
			"-0.013": 0.0,
			"-0.012": 0.0,
			"-0.011": 0.0,
			"-0.01": 0.0,
			"-0.009": 0.0,
			"-0.008": 0.0,
			"-0.007": 0.0,
			"-0.006": 0.321299730409,
			"-0.005": 5.52380921071,
			"-0.004": 12.2962424985,
			"-0.003": 25.6499757404,
			"-0.002": 50.964140147,
			"-0.001": 54.394348822,
			"0.0": 55.0617724821,
			"0.001": 42.8067012197,
			"0.002": 18.7376334394,
			"0.003": 4.75220382219,
			"0.004": 4.15371299656,
			"0.005": 3.02765241893,
			"0.006": 3.71382464847,
			"0.007": 3.61487024896,
			"0.008": 1.91957639361,
			"0.009": 1.52996415837,
			"0.01": 1.91157382899,
			"0.011": 2.19970890028,
			"0.012": 4.09338677317,
			"0.013": 1.54196011627,
			"0.014": 0.0,
			"0.015": 0.0,
			"0.016": 0.0,
			"0.017": 0.0,
			"0.018": 0.0,
			"0.019": 0.0,
			"0.02": 0.0,
			"0.021": 0.0,
			"0.022": 0.0,
			"0.023": 0.0,
			"0.024": 0.0,
			"0.025": 0.0
		}
	}
}
