{
	 "smiles": "NNC(=O)C1=CC(Cl)=CC=C1", 
	 "Tm": 431.15, 
	 "num_atms": 18, 
	 "gaussian": { 
		 "optdone": 1, 
		 "sigma_profile": "yes", 
		 "theory": "DFT", 
		 "functional": "B3LYP", 
		 "basiset": "6-31G**", 
		 "properties": { 
			 "R2extent": 2838.7211, 
			 "electric_dipole_moment_norm": 0.940159805565, 
			 "electric_quadrupole_moment_norm": 10.4343883673, 
			 "total_energy": -915.866609397, 
			 "HOMO_LUMO_gap": 0.20443, 
			 "cosmo_polarized_energy": -11.83, 
			 "cosmo_cavitation_energy": 24.46, 
			 "cosmo_dispersion_energy": -18.22, 
			 "cosmo_repulsion_energy": 1.48, 
			 "cosmo_total_nonelectrostatic_energy": 7.71, 
			 "SMD_solvation_energy": 4.99 
		},
		"coords": [
			{
				"x": 0.1949233881,
				"y": 0.5876250722,
				"z": 3.4914020125,
				"element": "N" 
			},
			{
				"x": -0.0248579872,
				"y": -0.0306482038,
				"z": 2.2394103119,
				"element": "N" 
			},
			{
				"x": 1.0488119958,
				"y": -0.3656825512,
				"z": 1.4478540956,
				"element": "C" 
			},
			{
				"x": 2.2029343957,
				"y": -0.2619396896,
				"z": 1.8523041062,
				"element": "O" 
			},
			{
				"x": 0.7219416694,
				"y": -0.8539432884,
				"z": 0.0660809687,
				"element": "C" 
			},
			{
				"x": -0.5254339772,
				"y": -1.400478452,
				"z": -0.2652746806,
				"element": "C" 
			},
			{
				"x": -0.7527876386,
				"y": -1.8355372526,
				"z": -1.5692451959,
				"element": "C" 
			},
			{
				"x": -2.3150746894,
				"y": -2.5280643145,
				"z": -1.9817298014,
				"element": "Cl" 
			},
			{
				"x": 0.2356231468,
				"y": -1.742500634,
				"z": -2.5487241393,
				"element": "C" 
			},
			{
				"x": 1.4797323816,
				"y": -1.2096313528,
				"z": -2.2042007293,
				"element": "C" 
			},
			{
				"x": 1.7272776761,
				"y": -0.7727980675,
				"z": -0.9051905673,
				"element": "C" 
			},
			{
				"x": 1.1034652601,
				"y": 1.0507250612,
				"z": 3.4262734355,
				"element": "H" 
			},
			{
				"x": 0.3219656401,
				"y": -0.1566018473,
				"z": 4.1766657416,
				"element": "H" 
			},
			{
				"x": -0.8876476558,
				"y": 0.2512968759,
				"z": 1.7955013308,
				"element": "H" 
			},
			{
				"x": -1.3020711689,
				"y": -1.5219249818,
				"z": 0.4815042411,
				"element": "H" 
			},
			{
				"x": 0.0346459219,
				"y": -2.088468091,
				"z": -3.5565585584,
				"element": "H" 
			},
			{
				"x": 2.2573442889,
				"y": -1.1400796094,
				"z": -2.9587804301,
				"element": "H" 
			},
			{
				"x": 2.6912073526,
				"y": -0.3682486733,
				"z": -0.6174921415,
				"element": "H" 
			}
		],
		 "valence_orbital": [ 
			{
				"type": "occ",
				"energy": -0.29651,
				"method": "rhf"
			},
			{
				"type": "occ",
				"energy": -0.27704,
				"method": "rhf"
			},
			{
				"type": "occ",
				"energy": -0.26791,
				"method": "rhf"
			},
			{
				"type": "occ",
				"energy": -0.25822,
				"method": "rhf"
			},
			{
				"type": "occ",
				"energy": -0.25557,
				"method": "rhf"
			},
			{
				"type": "unocc",
				"energy": -0.05114,
				"method": "rhf"
			},
			{
				"type": "unocc",
				"energy": -0.02482,
				"method": "rhf"
			},
			{
				"type": "unocc",
				"energy": 0.02078,
				"method": "rhf"
			},
			{
				"type": "unocc",
				"energy": 0.04326,
				"method": "rhf"
			},
			{
				"type": "unocc",
				"energy": 0.08779,
				"method": "rhf"
			}
		],
		"cosmo_sigma_profile": { 
			"-0.025": 0.0,
			"-0.024": 0.0,
			"-0.023": 0.0,
			"-0.022": 0.0,
			"-0.021": 0.0,
			"-0.02": 0.0,
			"-0.019": 0.0,
			"-0.018": 0.0,
			"-0.017": 0.0,
			"-0.016": 0.0,
			"-0.015": 0.166548739175,
			"-0.014": 1.28955991021,
			"-0.013": 0.894571292723,
			"-0.012": 1.41245782787,
			"-0.011": 3.09069392087,
			"-0.01": 3.76740821099,
			"-0.009": 3.61644983287,
			"-0.008": 4.69909917966,
			"-0.007": 7.62487448023,
			"-0.006": 9.61972833151,
			"-0.005": 9.84936208634,
			"-0.004": 8.17106873834,
			"-0.003": 9.19894164979,
			"-0.002": 9.98455582803,
			"-0.001": 11.8646676677,
			"0.0": 14.3997769396,
			"0.001": 17.7512124762,
			"0.002": 21.4131145091,
			"0.003": 16.112421978,
			"0.004": 12.6700390515,
			"0.005": 6.98248743979,
			"0.006": 2.32820469641,
			"0.007": 1.11832404544,
			"0.008": 1.84322488994,
			"0.009": 2.46786852689,
			"0.01": 1.80708624894,
			"0.011": 2.39045849619,
			"0.012": 3.51327605117,
			"0.013": 4.98120994597,
			"0.014": 0.9162369069,
			"0.015": 0.536407506723,
			"0.016": 0.78546452986,
			"0.017": 0.162662051138,
			"0.018": 0.0,
			"0.019": 0.0,
			"0.02": 0.0,
			"0.021": 0.0,
			"0.022": 0.0,
			"0.023": 0.0,
			"0.024": 0.0,
			"0.025": 0.0
		}
	}
}
