{
	 "smiles": "OC(=O)C1=CSC=N1", 
	 "Tm": 469.15, 
	 "num_atms": 11, 
	 "gaussian": { 
		 "optdone": 1, 
		 "sigma_profile": "yes", 
		 "theory": "DFT", 
		 "functional": "B3LYP", 
		 "basiset": "6-31G**", 
		 "properties": { 
			 "R2extent": 2572.7391, 
			 "electric_dipole_moment_norm": 5.51915013204, 
			 "electric_quadrupole_moment_norm": 12.0937612904, 
			 "total_energy": -757.601865004, 
			 "HOMO_LUMO_gap": 0.21066, 
			 "cosmo_polarized_energy": -18.63, 
			 "cosmo_cavitation_energy": 17.84, 
			 "cosmo_dispersion_energy": -13.96, 
			 "cosmo_repulsion_energy": 1.11, 
			 "cosmo_total_nonelectrostatic_energy": 4.98, 
			 "SMD_solvation_energy": 3.25 
		},
		"coords": [
			{
				"x": -0.8225510679,
				"y": -0.8636256801,
				"z": 0.0240935076,
				"element": "O" 
			},
			{
				"x": -0.8938849773,
				"y": -0.491554354,
				"z": 1.3330235863,
				"element": "C" 
			},
			{
				"x": -1.8454827734,
				"y": 0.1113727825,
				"z": 1.7540822395,
				"element": "O" 
			},
			{
				"x": 0.2990098786,
				"y": -0.8528920723,
				"z": 2.1649669984,
				"element": "C" 
			},
			{
				"x": 1.5845148692,
				"y": -0.9884262035,
				"z": 1.6977854092,
				"element": "C" 
			},
			{
				"x": 2.6607014948,
				"y": -1.3254608648,
				"z": 3.0045672684,
				"element": "S" 
			},
			{
				"x": 1.2833760974,
				"y": -1.264479143,
				"z": 4.0889402044,
				"element": "C" 
			},
			{
				"x": 0.1452923906,
				"y": -1.0065348502,
				"z": 3.5258797159,
				"element": "N" 
			},
			{
				"x": -0.1061204434,
				"y": -1.5019537307,
				"z": -0.0999451835,
				"element": "H" 
			},
			{
				"x": 1.9570210076,
				"y": -0.860672174,
				"z": 0.6906870671,
				"element": "H" 
			},
			{
				"x": 1.4141235238,
				"y": -1.4364737098,
				"z": 5.1508191868,
				"element": "H" 
			}
		],
		 "valence_orbital": [ 
			{
				"type": "occ",
				"energy": -0.32357,
				"method": "rhf"
			},
			{
				"type": "occ",
				"energy": -0.31113,
				"method": "rhf"
			},
			{
				"type": "occ",
				"energy": -0.29691,
				"method": "rhf"
			},
			{
				"type": "occ",
				"energy": -0.28328,
				"method": "rhf"
			},
			{
				"type": "occ",
				"energy": -0.27321,
				"method": "rhf"
			},
			{
				"type": "unocc",
				"energy": -0.06255,
				"method": "rhf"
			},
			{
				"type": "unocc",
				"energy": -0.02053,
				"method": "rhf"
			},
			{
				"type": "unocc",
				"energy": -0.00686,
				"method": "rhf"
			},
			{
				"type": "unocc",
				"energy": 0.04789,
				"method": "rhf"
			},
			{
				"type": "unocc",
				"energy": 0.07807,
				"method": "rhf"
			}
		],
		"cosmo_sigma_profile": { 
			"-0.025": 0.0,
			"-0.024": 0.0,
			"-0.023": 0.0,
			"-0.022": 0.0,
			"-0.021": 0.0,
			"-0.02": 0.0,
			"-0.019": 0.446306549893,
			"-0.018": 1.31281627904,
			"-0.017": 1.08340708199,
			"-0.016": 0.66661354782,
			"-0.015": 1.53878067559,
			"-0.014": 1.00877166174,
			"-0.013": 1.28592813942,
			"-0.012": 1.86270595601,
			"-0.011": 3.36278366885,
			"-0.01": 4.96653615301,
			"-0.009": 3.59973377246,
			"-0.008": 4.66382260404,
			"-0.007": 3.88178981373,
			"-0.006": 4.60335714924,
			"-0.005": 4.3382053812,
			"-0.004": 5.79149678927,
			"-0.003": 5.940125782,
			"-0.002": 8.22493526861,
			"-0.001": 13.092452735,
			"0.0": 13.6510940481,
			"0.001": 9.52838336382,
			"0.002": 4.3569069172,
			"0.003": 3.02675415475,
			"0.004": 2.69986097194,
			"0.005": 2.79430090862,
			"0.006": 2.74558364858,
			"0.007": 3.76847410361,
			"0.008": 4.27198596386,
			"0.009": 4.1348331963,
			"0.01": 6.1744561993,
			"0.011": 7.26042872644,
			"0.012": 5.18259609531,
			"0.013": 2.71362178579,
			"0.014": 1.8900445085,
			"0.015": 0.399684732977,
			"0.016": 0.0,
			"0.017": 0.0,
			"0.018": 0.0,
			"0.019": 0.0,
			"0.02": 0.0,
			"0.021": 0.0,
			"0.022": 0.0,
			"0.023": 0.0,
			"0.024": 0.0,
			"0.025": 0.0
		}
	}
}
