{
	 "smiles": "CC1=CSC(=O)N1", 
	 "Tm": 372.15, 
	 "num_atms": 12, 
	 "gaussian": { 
		 "optdone": 1, 
		 "sigma_profile": "yes", 
		 "theory": "DFT", 
		 "functional": "B3LYP", 
		 "basiset": "6-31G**", 
		 "properties": { 
			 "R2extent": 1577.7084, 
			 "electric_dipole_moment_norm": 4.77121274625, 
			 "electric_quadrupole_moment_norm": 17.0336634782, 
			 "total_energy": -683.610229965, 
			 "HOMO_LUMO_gap": 0.22006, 
			 "cosmo_polarized_energy": -11.48, 
			 "cosmo_cavitation_energy": 17.7, 
			 "cosmo_dispersion_energy": -13.94, 
			 "cosmo_repulsion_energy": 1.14, 
			 "cosmo_total_nonelectrostatic_energy": 4.9, 
			 "SMD_solvation_energy": 4.18 
		},
		"coords": [
			{
				"x": -0.3365403695,
				"y": 1.6949205487,
				"z": -1.4416174631,
				"element": "C" 
			},
			{
				"x": 0.7479830237,
				"y": 0.7814918622,
				"z": -0.9654459949,
				"element": "C" 
			},
			{
				"x": 0.8923786081,
				"y": -0.537333431,
				"z": -1.2040999872,
				"element": "C" 
			},
			{
				"x": 2.329622507,
				"y": -1.2057571536,
				"z": -0.4361579254,
				"element": "S" 
			},
			{
				"x": 2.7596143205,
				"y": 0.4195035215,
				"z": 0.2541021501,
				"element": "C" 
			},
			{
				"x": 3.7183393348,
				"y": 0.6832393051,
				"z": 0.945411877,
				"element": "O" 
			},
			{
				"x": 1.7736553845,
				"y": 1.2932644441,
				"z": -0.1679877633,
				"element": "N" 
			},
			{
				"x": -0.8780641214,
				"y": 2.1456949854,
				"z": -0.601065915,
				"element": "H" 
			},
			{
				"x": 0.0673192882,
				"y": 2.5117278432,
				"z": -2.0521031495,
				"element": "H" 
			},
			{
				"x": -1.0552034269,
				"y": 1.1416525915,
				"z": -2.0493954669,
				"element": "H" 
			},
			{
				"x": 0.2331045004,
				"y": -1.1599480571,
				"z": -1.7906937542,
				"element": "H" 
			},
			{
				"x": 1.8366909507,
				"y": 2.2606435399,
				"z": 0.1171533923,
				"element": "H" 
			}
		],
		 "valence_orbital": [ 
			{
				"type": "occ",
				"energy": -0.35595,
				"method": "rhf"
			},
			{
				"type": "occ",
				"energy": -0.33636,
				"method": "rhf"
			},
			{
				"type": "occ",
				"energy": -0.2942,
				"method": "rhf"
			},
			{
				"type": "occ",
				"energy": -0.2666,
				"method": "rhf"
			},
			{
				"type": "occ",
				"energy": -0.21242,
				"method": "rhf"
			},
			{
				"type": "unocc",
				"energy": 0.00764,
				"method": "rhf"
			},
			{
				"type": "unocc",
				"energy": 0.01562,
				"method": "rhf"
			},
			{
				"type": "unocc",
				"energy": 0.03738,
				"method": "rhf"
			},
			{
				"type": "unocc",
				"energy": 0.07295,
				"method": "rhf"
			},
			{
				"type": "unocc",
				"energy": 0.08604,
				"method": "rhf"
			}
		],
		"cosmo_sigma_profile": { 
			"-0.025": 0.0,
			"-0.024": 0.0,
			"-0.023": 0.0,
			"-0.022": 0.0,
			"-0.021": 0.0,
			"-0.02": 0.0,
			"-0.019": 0.0,
			"-0.018": 0.0,
			"-0.017": 0.200969481234,
			"-0.016": 0.963425195965,
			"-0.015": 1.13807295555,
			"-0.014": 1.31621557497,
			"-0.013": 0.795656122958,
			"-0.012": 0.782819280532,
			"-0.011": 1.24881846317,
			"-0.01": 1.30362248616,
			"-0.009": 1.24692873993,
			"-0.008": 2.73500982331,
			"-0.007": 4.0807311169,
			"-0.006": 7.69790843511,
			"-0.005": 9.30828028415,
			"-0.004": 7.44463726714,
			"-0.003": 8.00968342914,
			"-0.002": 9.12093466093,
			"-0.001": 10.091801263,
			"0.0": 11.0375460872,
			"0.001": 10.4693902038,
			"0.002": 10.4221646401,
			"0.003": 8.91011817106,
			"0.004": 8.80636346999,
			"0.005": 5.55211374064,
			"0.006": 2.78722755346,
			"0.007": 1.30250558969,
			"0.008": 1.09887078524,
			"0.009": 1.63764180823,
			"0.01": 1.73912597122,
			"0.011": 2.13520106221,
			"0.012": 5.82392265491,
			"0.013": 3.93796661317,
			"0.014": 0.167447511025,
			"0.015": 0.0,
			"0.016": 0.0,
			"0.017": 0.0,
			"0.018": 0.0,
			"0.019": 0.0,
			"0.02": 0.0,
			"0.021": 0.0,
			"0.022": 0.0,
			"0.023": 0.0,
			"0.024": 0.0,
			"0.025": 0.0
		}
	}
}
