{
	 "smiles": "S=C=NC1=CC=C(C=C1)N1CCOCC1", 
	 "Tm": 357.65, 
	 "num_atms": 27, 
	 "gaussian": { 
		 "optdone": 1, 
		 "sigma_profile": "yes", 
		 "theory": "DFT", 
		 "functional": "B3LYP", 
		 "basiset": "6-31G**", 
		 "properties": { 
			 "R2extent": 6364.8825, 
			 "electric_dipole_moment_norm": 5.60919859784, 
			 "electric_quadrupole_moment_norm": 33.050053395, 
			 "total_energy": -1009.28606747, 
			 "HOMO_LUMO_gap": 0.16613, 
			 "cosmo_polarized_energy": -11.03, 
			 "cosmo_cavitation_energy": 32.45, 
			 "cosmo_dispersion_energy": -24.52, 
			 "cosmo_repulsion_energy": 1.88, 
			 "cosmo_total_nonelectrostatic_energy": 9.81, 
			 "SMD_solvation_energy": 5.0 
		},
		"coords": [
			{
				"x": 0.8408870093,
				"y": 1.0278983233,
				"z": -6.2468596464,
				"element": "S" 
			},
			{
				"x": 0.6693875931,
				"y": 0.8926946873,
				"z": -4.6629672869,
				"element": "C" 
			},
			{
				"x": 0.5422193877,
				"y": 0.7924277713,
				"z": -3.4885038717,
				"element": "N" 
			},
			{
				"x": 0.3948746229,
				"y": 0.6768172501,
				"z": -2.1282526033,
				"element": "C" 
			},
			{
				"x": 1.2881822515,
				"y": -0.1033707225,
				"z": -1.3772724073,
				"element": "C" 
			},
			{
				"x": 1.1420861875,
				"y": -0.2174607536,
				"z": -0.0023010775,
				"element": "C" 
			},
			{
				"x": 0.090380854,
				"y": 0.4379527301,
				"z": 0.6814704526,
				"element": "C" 
			},
			{
				"x": -0.8034365953,
				"y": 1.2172691395,
				"z": -0.0911753203,
				"element": "C" 
			},
			{
				"x": -0.6516550129,
				"y": 1.3368320976,
				"z": -1.4650581366,
				"element": "C" 
			},
			{
				"x": -0.0582285969,
				"y": 0.3215134386,
				"z": 2.0513258825,
				"element": "N" 
			},
			{
				"x": 0.6576575406,
				"y": -0.6922294098,
				"z": 2.8206086984,
				"element": "C" 
			},
			{
				"x": -0.1351999331,
				"y": -1.0423768841,
				"z": 4.078679849,
				"element": "C" 
			},
			{
				"x": -0.373044363,
				"y": 0.0755270526,
				"z": 4.9264671766,
				"element": "O" 
			},
			{
				"x": -0.4416469732,
				"y": 1.3242402878,
				"z": 4.2476232812,
				"element": "C" 
			},
			{
				"x": -0.9397828618,
				"y": 1.2057740594,
				"z": 2.808245402,
				"element": "C" 
			},
			{
				"x": 2.1052820389,
				"y": -0.6086773532,
				"z": -1.8815576427,
				"element": "H" 
			},
			{
				"x": 1.8703169186,
				"y": -0.8016181991,
				"z": 0.5473937947,
				"element": "H" 
			},
			{
				"x": -1.6422955283,
				"y": 1.714675531,
				"z": 0.380657918,
				"element": "H" 
			},
			{
				"x": -1.3517754646,
				"y": 1.9339216632,
				"z": -2.0400434212,
				"element": "H" 
			},
			{
				"x": 0.7610387188,
				"y": -1.6032339677,
				"z": 2.2208865436,
				"element": "H" 
			},
			{
				"x": 1.6726765669,
				"y": -0.3622975571,
				"z": 3.093962429,
				"element": "H" 
			},
			{
				"x": 0.4180927414,
				"y": -1.779810146,
				"z": 4.6694005463,
				"element": "H" 
			},
			{
				"x": -1.0911446759,
				"y": -1.5000982118,
				"z": 3.7804946364,
				"element": "H" 
			},
			{
				"x": -1.1211854806,
				"y": 1.963034309,
				"z": 4.8212166892,
				"element": "H" 
			},
			{
				"x": 0.5482268144,
				"y": 1.8063357181,
				"z": 4.242705535,
				"element": "H" 
			},
			{
				"x": -0.9276092435,
				"y": 2.2062825968,
				"z": 2.3619467109,
				"element": "H" 
			},
			{
				"x": -1.9840045164,
				"y": 0.854576549,
				"z": 2.7982058682,
				"element": "H" 
			}
		],
		 "valence_orbital": [ 
			{
				"type": "occ",
				"energy": -0.26644,
				"method": "rhf"
			},
			{
				"type": "occ",
				"energy": -0.26402,
				"method": "rhf"
			},
			{
				"type": "occ",
				"energy": -0.24798,
				"method": "rhf"
			},
			{
				"type": "occ",
				"energy": -0.24044,
				"method": "rhf"
			},
			{
				"type": "occ",
				"energy": -0.19526,
				"method": "rhf"
			},
			{
				"type": "unocc",
				"energy": -0.02913,
				"method": "rhf"
			},
			{
				"type": "unocc",
				"energy": -0.01596,
				"method": "rhf"
			},
			{
				"type": "unocc",
				"energy": 0.01601,
				"method": "rhf"
			},
			{
				"type": "unocc",
				"energy": 0.06005,
				"method": "rhf"
			},
			{
				"type": "unocc",
				"energy": 0.06666,
				"method": "rhf"
			}
		],
		"cosmo_sigma_profile": { 
			"-0.025": 0.0,
			"-0.024": 0.0,
			"-0.023": 0.0,
			"-0.022": 0.0,
			"-0.021": 0.0,
			"-0.02": 0.0,
			"-0.019": 0.0,
			"-0.018": 0.0,
			"-0.017": 0.0,
			"-0.016": 0.0,
			"-0.015": 0.0,
			"-0.014": 0.0,
			"-0.013": 0.0,
			"-0.012": 0.0,
			"-0.011": 0.0,
			"-0.01": 0.0,
			"-0.009": 0.0,
			"-0.008": 0.0,
			"-0.007": 3.6425629765,
			"-0.006": 15.7381050675,
			"-0.005": 23.8224291282,
			"-0.004": 33.2396887003,
			"-0.003": 23.8906646896,
			"-0.002": 14.909015381,
			"-0.001": 14.8059110835,
			"0.0": 20.8847043624,
			"0.001": 16.4257198398,
			"0.002": 14.7714070609,
			"0.003": 15.292668355,
			"0.004": 17.59542801,
			"0.005": 13.3668212352,
			"0.006": 9.21847180093,
			"0.007": 14.4936855738,
			"0.008": 2.33727701242,
			"0.009": 1.14666286531,
			"0.01": 0.939069925274,
			"0.011": 1.4188155656,
			"0.012": 1.26171043321,
			"0.013": 1.84684349286,
			"0.014": 0.446321593671,
			"0.015": 0.0,
			"0.016": 0.0,
			"0.017": 0.0,
			"0.018": 0.0,
			"0.019": 0.0,
			"0.02": 0.0,
			"0.021": 0.0,
			"0.022": 0.0,
			"0.023": 0.0,
			"0.024": 0.0,
			"0.025": 0.0
		}
	}
}
