{
	 "smiles": "CCCCCCCCCCCCCCCCCCCCC=C", 
	 "Tm": 311.15, 
	 "num_atms": 66, 
	 "gaussian": { 
		 "optdone": 1, 
		 "sigma_profile": "yes", 
		 "theory": "DFT", 
		 "functional": "B3LYP", 
		 "basiset": "6-31G**", 
		 "properties": { 
			 "R2extent": 12671.3918, 
			 "electric_dipole_moment_norm": 0.45044168324, 
			 "electric_quadrupole_moment_norm": 2.50146641592, 
			 "total_energy": -864.898212089, 
			 "HOMO_LUMO_gap": 0.27233, 
			 "cosmo_polarized_energy": -2.42, 
			 "cosmo_cavitation_energy": 63.83, 
			 "cosmo_dispersion_energy": -37.94, 
			 "cosmo_repulsion_energy": 2.99, 
			 "cosmo_total_nonelectrostatic_energy": 28.88, 
			 "SMD_solvation_energy": 8.37 
		},
		"coords": [
			{
				"x": -0.2876539721,
				"y": -4.907409148,
				"z": -0.5196218778,
				"element": "C" 
			},
			{
				"x": 1.1063243952,
				"y": -4.302758201,
				"z": -0.7283610674,
				"element": "C" 
			},
			{
				"x": 1.0967290419,
				"y": -2.8038734039,
				"z": -1.0782800923,
				"element": "C" 
			},
			{
				"x": 0.5180813489,
				"y": -1.8667298731,
				"z": -0.0044345274,
				"element": "C" 
			},
			{
				"x": 1.3390939519,
				"y": -1.7757563104,
				"z": 1.2890149155,
				"element": "C" 
			},
			{
				"x": 0.7155751264,
				"y": -0.8245711626,
				"z": 2.3212736396,
				"element": "C" 
			},
			{
				"x": 1.5515768321,
				"y": -0.6481179448,
				"z": 3.6030001005,
				"element": "C" 
			},
			{
				"x": 2.8253904027,
				"y": 0.2175969631,
				"z": 3.4579525108,
				"element": "C" 
			},
			{
				"x": 2.6607215026,
				"y": 1.7010743949,
				"z": 3.8354288018,
				"element": "C" 
			},
			{
				"x": 1.7166458153,
				"y": 2.5277023328,
				"z": 2.9495596308,
				"element": "C" 
			},
			{
				"x": 1.6643130175,
				"y": 4.0027222389,
				"z": 3.3725109639,
				"element": "C" 
			},
			{
				"x": 0.8042113386,
				"y": 4.9279423433,
				"z": 2.4935380251,
				"element": "C" 
			},
			{
				"x": -0.7049597242,
				"y": 4.5910306041,
				"z": 2.444314914,
				"element": "C" 
			},
			{
				"x": -1.1466093589,
				"y": 3.7907718952,
				"z": 1.208625999,
				"element": "C" 
			},
			{
				"x": -2.6421420327,
				"y": 3.4426150694,
				"z": 1.2237085497,
				"element": "C" 
			},
			{
				"x": -3.1811455538,
				"y": 2.835425078,
				"z": -0.082158767,
				"element": "C" 
			},
			{
				"x": -2.5590217581,
				"y": 1.4887745347,
				"z": -0.4773050615,
				"element": "C" 
			},
			{
				"x": -3.20828722,
				"y": 0.864978502,
				"z": -1.7202252978,
				"element": "C" 
			},
			{
				"x": -2.5501528216,
				"y": -0.4500407581,
				"z": -2.1556483509,
				"element": "C" 
			},
			{
				"x": -3.2274398697,
				"y": -1.1025728708,
				"z": -3.3760692971,
				"element": "C" 
			},
			{
				"x": -2.5144852581,
				"y": -2.3401300629,
				"z": -3.8488282333,
				"element": "C" 
			},
			{
				"x": -3.0294882152,
				"y": -3.5706542882,
				"z": -3.8669992109,
				"element": "C" 
			},
			{
				"x": -0.9326460349,
				"y": -4.7218955253,
				"z": -1.3865356589,
				"element": "H" 
			},
			{
				"x": -0.7888146822,
				"y": -4.4849439882,
				"z": 0.3576304749,
				"element": "H" 
			},
			{
				"x": -0.228962407,
				"y": -5.9908174152,
				"z": -0.3705657028,
				"element": "H" 
			},
			{
				"x": 1.7189950165,
				"y": -4.4757525432,
				"z": 0.1658779612,
				"element": "H" 
			},
			{
				"x": 1.6098018999,
				"y": -4.8405343495,
				"z": -1.5421704829,
				"element": "H" 
			},
			{
				"x": 2.1231039034,
				"y": -2.4863797418,
				"z": -1.3095119991,
				"element": "H" 
			},
			{
				"x": 0.5205216666,
				"y": -2.6697180122,
				"z": -2.0040687966,
				"element": "H" 
			},
			{
				"x": -0.5090673636,
				"y": -2.1702629259,
				"z": 0.2384092487,
				"element": "H" 
			},
			{
				"x": 0.4327529575,
				"y": -0.859212394,
				"z": -0.4337217119,
				"element": "H" 
			},
			{
				"x": 2.3586240003,
				"y": -1.4481559555,
				"z": 1.0418838798,
				"element": "H" 
			},
			{
				"x": 1.4432537029,
				"y": -2.7703809728,
				"z": 1.7435287576,
				"element": "H" 
			},
			{
				"x": -0.2765574534,
				"y": -1.2101624107,
				"z": 2.5935502975,
				"element": "H" 
			},
			{
				"x": 0.5399370304,
				"y": 0.1515771332,
				"z": 1.8514695977,
				"element": "H" 
			},
			{
				"x": 0.9198345232,
				"y": -0.2171745274,
				"z": 4.3915041073,
				"element": "H" 
			},
			{
				"x": 1.8315629431,
				"y": -1.6468091972,
				"z": 3.9638284587,
				"element": "H" 
			},
			{
				"x": 3.2129081908,
				"y": 0.144215059,
				"z": 2.4326460908,
				"element": "H" 
			},
			{
				"x": 3.6122671398,
				"y": -0.1982261399,
				"z": 4.0993883082,
				"element": "H" 
			},
			{
				"x": 2.3154062727,
				"y": 1.7630556288,
				"z": 4.8778534551,
				"element": "H" 
			},
			{
				"x": 3.6526905746,
				"y": 2.1740799562,
				"z": 3.8209462661,
				"element": "H" 
			},
			{
				"x": 0.7071549656,
				"y": 2.1009456306,
				"z": 2.9859221887,
				"element": "H" 
			},
			{
				"x": 2.0442986598,
				"y": 2.4577998589,
				"z": 1.9019891205,
				"element": "H" 
			},
			{
				"x": 1.3002287231,
				"y": 4.0614182236,
				"z": 4.408592573,
				"element": "H" 
			},
			{
				"x": 2.6894039397,
				"y": 4.3984861069,
				"z": 3.3931032384,
				"element": "H" 
			},
			{
				"x": 0.9304413429,
				"y": 5.9499445045,
				"z": 2.8716573714,
				"element": "H" 
			},
			{
				"x": 1.2081630167,
				"y": 4.9388229854,
				"z": 1.4713269518,
				"element": "H" 
			},
			{
				"x": -1.2854123903,
				"y": 5.5226623225,
				"z": 2.4667426719,
				"element": "H" 
			},
			{
				"x": -0.9894021294,
				"y": 4.0457246012,
				"z": 3.3557082094,
				"element": "H" 
			},
			{
				"x": -0.9208494646,
				"y": 4.3806021248,
				"z": 0.3080430302,
				"element": "H" 
			},
			{
				"x": -0.5495466564,
				"y": 2.8746514881,
				"z": 1.1265536547,
				"element": "H" 
			},
			{
				"x": -3.2137453473,
				"y": 4.3548933892,
				"z": 1.4439756871,
				"element": "H" 
			},
			{
				"x": -2.844133633,
				"y": 2.7531060021,
				"z": 2.0561148105,
				"element": "H" 
			},
			{
				"x": -3.032984434,
				"y": 3.5537314319,
				"z": -0.9014856959,
				"element": "H" 
			},
			{
				"x": -4.2682641753,
				"y": 2.7079385717,
				"z": 0.0134522405,
				"element": "H" 
			},
			{
				"x": -2.6425051446,
				"y": 0.787592865,
				"z": 0.3655695675,
				"element": "H" 
			},
			{
				"x": -1.4838174021,
				"y": 1.6150389399,
				"z": -0.6609393743,
				"element": "H" 
			},
			{
				"x": -3.1671359961,
				"y": 1.5831502705,
				"z": -2.5519103967,
				"element": "H" 
			},
			{
				"x": -4.2760464798,
				"y": 0.6921066099,
				"z": -1.523228535,
				"element": "H" 
			},
			{
				"x": -1.4913092701,
				"y": -0.2660675063,
				"z": -2.385615114,
				"element": "H" 
			},
			{
				"x": -2.5590516004,
				"y": -1.1633468578,
				"z": -1.3213593806,
				"element": "H" 
			},
			{
				"x": -3.258147581,
				"y": -0.3675474981,
				"z": -4.1945141708,
				"element": "H" 
			},
			{
				"x": -4.2702155671,
				"y": -1.3450758301,
				"z": -3.1350534385,
				"element": "H" 
			},
			{
				"x": -1.4881930798,
				"y": -2.1933893908,
				"z": -4.1905916901,
				"element": "H" 
			},
			{
				"x": -4.0473256786,
				"y": -3.7669380798,
				"z": -3.5370159469,
				"element": "H" 
			},
			{
				"x": -2.458593487,
				"y": -4.4252723747,
				"z": -4.2184763916,
				"element": "H" 
			}
		],
		 "valence_orbital": [ 
			{
				"type": "occ",
				"energy": -0.30145,
				"method": "rhf"
			},
			{
				"type": "occ",
				"energy": -0.29555,
				"method": "rhf"
			},
			{
				"type": "occ",
				"energy": -0.29384,
				"method": "rhf"
			},
			{
				"type": "occ",
				"energy": -0.29168,
				"method": "rhf"
			},
			{
				"type": "occ",
				"energy": -0.24997,
				"method": "rhf"
			},
			{
				"type": "unocc",
				"energy": 0.02236,
				"method": "rhf"
			},
			{
				"type": "unocc",
				"energy": 0.0691,
				"method": "rhf"
			},
			{
				"type": "unocc",
				"energy": 0.08108,
				"method": "rhf"
			},
			{
				"type": "unocc",
				"energy": 0.08974,
				"method": "rhf"
			},
			{
				"type": "unocc",
				"energy": 0.09557,
				"method": "rhf"
			}
		],
		"cosmo_sigma_profile": { 
			"-0.025": 0.0,
			"-0.024": 0.0,
			"-0.023": 0.0,
			"-0.022": 0.0,
			"-0.021": 0.0,
			"-0.02": 0.0,
			"-0.019": 0.0,
			"-0.018": 0.0,
			"-0.017": 0.0,
			"-0.016": 0.0,
			"-0.015": 0.0,
			"-0.014": 0.0,
			"-0.013": 0.0,
			"-0.012": 0.0,
			"-0.011": 0.0,
			"-0.01": 0.0,
			"-0.009": 0.0,
			"-0.008": 0.0,
			"-0.007": 0.0,
			"-0.006": 0.0,
			"-0.005": 1.144578993,
			"-0.004": 5.03276818589,
			"-0.003": 10.4112055891,
			"-0.002": 51.78725051,
			"-0.001": 119.415437523,
			"0.0": 127.995506699,
			"0.001": 103.197244265,
			"0.002": 51.2013659765,
			"0.003": 6.40226961643,
			"0.004": 4.2459233079,
			"0.005": 2.8759037272,
			"0.006": 2.45008741406,
			"0.007": 1.30193706039,
			"0.008": 0.24772997384,
			"0.009": 0.0,
			"0.01": 0.0,
			"0.011": 0.0,
			"0.012": 0.0,
			"0.013": 0.0,
			"0.014": 0.0,
			"0.015": 0.0,
			"0.016": 0.0,
			"0.017": 0.0,
			"0.018": 0.0,
			"0.019": 0.0,
			"0.02": 0.0,
			"0.021": 0.0,
			"0.022": 0.0,
			"0.023": 0.0,
			"0.024": 0.0,
			"0.025": 0.0
		}
	}
}
