{
	 "smiles": "CCOC(=O)C(=CC1=CC=C(Cl)C=C1)C#N", 
	 "Tm": 411.15, 
	 "num_atms": 26, 
	 "gaussian": { 
		 "optdone": 1, 
		 "sigma_profile": "yes", 
		 "theory": "DFT", 
		 "functional": "B3LYP", 
		 "basiset": "6-31G**", 
		 "properties": { 
			 "R2extent": 7031.4169, 
			 "electric_dipole_moment_norm": 2.45450985331, 
			 "electric_quadrupole_moment_norm": 13.944515836, 
			 "total_energy": -1128.6828949, 
			 "HOMO_LUMO_gap": 0.1517, 
			 "cosmo_polarized_energy": -11.56, 
			 "cosmo_cavitation_energy": 34.03, 
			 "cosmo_dispersion_energy": -24.0, 
			 "cosmo_repulsion_energy": 1.89, 
			 "cosmo_total_nonelectrostatic_energy": 11.91, 
			 "SMD_solvation_energy": 7.83 
		},
		"coords": [
			{
				"x": 0.6718390555,
				"y": 2.0277228736,
				"z": 5.1282832042,
				"element": "C" 
			},
			{
				"x": -0.1115869915,
				"y": 0.8245448928,
				"z": 4.6273197957,
				"element": "C" 
			},
			{
				"x": -0.5097843549,
				"y": 0.9975772851,
				"z": 3.2429339548,
				"element": "O" 
			},
			{
				"x": 0.3850225527,
				"y": 0.6437688857,
				"z": 2.3066482055,
				"element": "C" 
			},
			{
				"x": 1.4882487579,
				"y": 0.187346733,
				"z": 2.5358075454,
				"element": "O" 
			},
			{
				"x": -0.1512964899,
				"y": 0.8772742533,
				"z": 0.9253158431,
				"element": "C" 
			},
			{
				"x": 0.6606729159,
				"y": 0.5518837958,
				"z": -0.1173094017,
				"element": "C" 
			},
			{
				"x": 0.4799075452,
				"y": 0.6381088758,
				"z": -1.557102488,
				"element": "C" 
			},
			{
				"x": -0.679571655,
				"y": 1.1204766655,
				"z": -2.2025036507,
				"element": "C" 
			},
			{
				"x": -0.7560138885,
				"y": 1.1634275867,
				"z": -3.5892809644,
				"element": "C" 
			},
			{
				"x": 0.3274563338,
				"y": 0.7240378275,
				"z": -4.3548730765,
				"element": "C" 
			},
			{
				"x": 0.2265205309,
				"y": 0.7800926586,
				"z": -6.1014739533,
				"element": "Cl" 
			},
			{
				"x": 1.4885865741,
				"y": 0.2412568702,
				"z": -3.7493979967,
				"element": "C" 
			},
			{
				"x": 1.5544325302,
				"y": 0.2026953414,
				"z": -2.3620332796,
				"element": "C" 
			},
			{
				"x": -1.4653806523,
				"y": 1.4214751384,
				"z": 0.7986007339,
				"element": "C" 
			},
			{
				"x": -2.5356063672,
				"y": 1.8659197149,
				"z": 0.6833265364,
				"element": "N" 
			},
			{
				"x": 0.0963383909,
				"y": 2.948549291,
				"z": 4.9978085772,
				"element": "H" 
			},
			{
				"x": 1.61984081,
				"y": 2.1212525534,
				"z": 4.5929203271,
				"element": "H" 
			},
			{
				"x": 0.8906432545,
				"y": 1.9065486145,
				"z": 6.19431562,
				"element": "H" 
			},
			{
				"x": -1.0563044366,
				"y": 0.7070528426,
				"z": 5.1621219495,
				"element": "H" 
			},
			{
				"x": 0.47302653,
				"y": -0.0945242737,
				"z": 4.7101516775,
				"element": "H" 
			},
			{
				"x": 1.6209313704,
				"y": 0.1533008911,
				"z": 0.204918473,
				"element": "H" 
			},
			{
				"x": -1.5274332885,
				"y": 1.4643722026,
				"z": -1.6238691844,
				"element": "H" 
			},
			{
				"x": -1.6493563157,
				"y": 1.5349562792,
				"z": -4.0784647192,
				"element": "H" 
			},
			{
				"x": 2.3210049007,
				"y": -0.0962892843,
				"z": -4.3562595488,
				"element": "H" 
			},
			{
				"x": 2.4555623872,
				"y": -0.1721285144,
				"z": -1.8849041801,
				"element": "H" 
			}
		],
		 "valence_orbital": [ 
			{
				"type": "occ",
				"energy": -0.3121,
				"method": "rhf"
			},
			{
				"type": "occ",
				"energy": -0.30275,
				"method": "rhf"
			},
			{
				"type": "occ",
				"energy": -0.28759,
				"method": "rhf"
			},
			{
				"type": "occ",
				"energy": -0.28316,
				"method": "rhf"
			},
			{
				"type": "occ",
				"energy": -0.24923,
				"method": "rhf"
			},
			{
				"type": "unocc",
				"energy": -0.09753,
				"method": "rhf"
			},
			{
				"type": "unocc",
				"energy": -0.03107,
				"method": "rhf"
			},
			{
				"type": "unocc",
				"energy": -0.00149,
				"method": "rhf"
			},
			{
				"type": "unocc",
				"energy": 0.01563,
				"method": "rhf"
			},
			{
				"type": "unocc",
				"energy": 0.01807,
				"method": "rhf"
			}
		],
		"cosmo_sigma_profile": { 
			"-0.025": 0.0,
			"-0.024": 0.0,
			"-0.023": 0.0,
			"-0.022": 0.0,
			"-0.021": 0.0,
			"-0.02": 0.0,
			"-0.019": 0.0,
			"-0.018": 0.0,
			"-0.017": 0.0,
			"-0.016": 0.0,
			"-0.015": 0.0,
			"-0.014": 0.0,
			"-0.013": 0.0,
			"-0.012": 0.0,
			"-0.011": 0.0,
			"-0.01": 0.735732297881,
			"-0.009": 2.05200108532,
			"-0.008": 5.90391263279,
			"-0.007": 6.82552220245,
			"-0.006": 11.0099699019,
			"-0.005": 12.0966479432,
			"-0.004": 21.7042550235,
			"-0.003": 25.3875191568,
			"-0.002": 27.8235822142,
			"-0.001": 25.6964927263,
			"0.0": 28.4349298505,
			"0.001": 25.7023662154,
			"0.002": 17.0237397567,
			"0.003": 12.7025148589,
			"0.004": 12.904239036,
			"0.005": 4.30371609864,
			"0.006": 4.37941187137,
			"0.007": 6.71621907654,
			"0.008": 5.17524615091,
			"0.009": 4.66302556014,
			"0.01": 4.45442483285,
			"0.011": 6.49863620312,
			"0.012": 3.08748158664,
			"0.013": 0.65704889004,
			"0.014": 0.0,
			"0.015": 0.0,
			"0.016": 0.0,
			"0.017": 0.0,
			"0.018": 0.0,
			"0.019": 0.0,
			"0.02": 0.0,
			"0.021": 0.0,
			"0.022": 0.0,
			"0.023": 0.0,
			"0.024": 0.0,
			"0.025": 0.0
		}
	}
}
