{
	 "smiles": "COC1=C(C=CC=C1)N1C=C(N=C1S)C1=C(Cl)C=C(Cl)C=C1", 
	 "Tm": 518.15, 
	 "num_atms": 34, 
	 "gaussian": { 
		 "optdone": 1, 
		 "sigma_profile": "yes", 
		 "theory": "DFT", 
		 "functional": "B3LYP", 
		 "basiset": "6-31G**", 
		 "properties": { 
			 "R2extent": 11624.597, 
			 "electric_dipole_moment_norm": 4.74620119569, 
			 "electric_quadrupole_moment_norm": 5.75311493367, 
			 "total_energy": -2120.20785878, 
			 "HOMO_LUMO_gap": 0.17657, 
			 "cosmo_polarized_energy": -12.63, 
			 "cosmo_cavitation_energy": 44.06, 
			 "cosmo_dispersion_energy": -30.71, 
			 "cosmo_repulsion_energy": 2.33, 
			 "cosmo_total_nonelectrostatic_energy": 15.69, 
			 "SMD_solvation_energy": 6.02 
		},
		"coords": [
			{
				"x": 0.0819863126,
				"y": 2.8552912297,
				"z": -0.981975261,
				"element": "C" 
			},
			{
				"x": -1.1433398831,
				"y": 2.1624751564,
				"z": -0.707392276,
				"element": "O" 
			},
			{
				"x": -1.4777717516,
				"y": 2.0615836723,
				"z": 0.6203862415,
				"element": "C" 
			},
			{
				"x": -0.8691887522,
				"y": 1.1103099629,
				"z": 1.4623863948,
				"element": "C" 
			},
			{
				"x": -1.2831281263,
				"y": 0.9942702388,
				"z": 2.7931743561,
				"element": "C" 
			},
			{
				"x": -2.281913299,
				"y": 1.8277379154,
				"z": 3.2955289843,
				"element": "C" 
			},
			{
				"x": -2.8911411264,
				"y": 2.7644901476,
				"z": 2.4596971524,
				"element": "C" 
			},
			{
				"x": -2.4907038265,
				"y": 2.8771955333,
				"z": 1.1282898588,
				"element": "C" 
			},
			{
				"x": 0.1484344978,
				"y": 0.250337147,
				"z": 0.9539816284,
				"element": "N" 
			},
			{
				"x": 0.0454485293,
				"y": -0.5728721758,
				"z": -0.1602836832,
				"element": "C" 
			},
			{
				"x": 1.2602741689,
				"y": -1.202178272,
				"z": -0.2847761789,
				"element": "C" 
			},
			{
				"x": 2.11549988,
				"y": -0.7902324239,
				"z": 0.7261258318,
				"element": "N" 
			},
			{
				"x": 1.4287204546,
				"y": 0.0669548699,
				"z": 1.4388879308,
				"element": "C" 
			},
			{
				"x": 2.0475876838,
				"y": 0.9547590067,
				"z": 2.8457753474,
				"element": "S" 
			},
			{
				"x": 1.6250327236,
				"y": -2.2129794942,
				"z": -1.291908267,
				"element": "C" 
			},
			{
				"x": 2.845986495,
				"y": -2.2314522516,
				"z": -1.9927714467,
				"element": "C" 
			},
			{
				"x": 4.0557828915,
				"y": -0.9821874532,
				"z": -1.7608807466,
				"element": "Cl" 
			},
			{
				"x": 3.1346826675,
				"y": -3.2149852655,
				"z": -2.9398563527,
				"element": "C" 
			},
			{
				"x": 2.1864742425,
				"y": -4.1979099348,
				"z": -3.2101556009,
				"element": "C" 
			},
			{
				"x": 2.5510139369,
				"y": -5.4351682967,
				"z": -4.401890625,
				"element": "Cl" 
			},
			{
				"x": 0.9589959194,
				"y": -4.2112066395,
				"z": -2.5514704717,
				"element": "C" 
			},
			{
				"x": 0.7012837657,
				"y": -3.2276748772,
				"z": -1.6018333808,
				"element": "C" 
			},
			{
				"x": 0.1859318293,
				"y": 2.8693381007,
				"z": -2.067963799,
				"element": "H" 
			},
			{
				"x": 0.0383523965,
				"y": 3.8839390739,
				"z": -0.6041371473,
				"element": "H" 
			},
			{
				"x": 0.9445007555,
				"y": 2.3431335601,
				"z": -0.5429286002,
				"element": "H" 
			},
			{
				"x": -0.8256490006,
				"y": 0.2386402819,
				"z": 3.4234051932,
				"element": "H" 
			},
			{
				"x": -2.593245682,
				"y": 1.729721728,
				"z": 4.3305227416,
				"element": "H" 
			},
			{
				"x": -3.6788103904,
				"y": 3.4069726783,
				"z": 2.8414030584,
				"element": "H" 
			},
			{
				"x": -2.9532810527,
				"y": 3.5932300779,
				"z": 0.4567355349,
				"element": "H" 
			},
			{
				"x": -0.8531107928,
				"y": -0.5956527944,
				"z": -0.7546537259,
				"element": "H" 
			},
			{
				"x": 3.2925739812,
				"y": 0.4764724186,
				"z": 2.6648955164,
				"element": "H" 
			},
			{
				"x": 4.0817362436,
				"y": -3.2014703178,
				"z": -3.4648201355,
				"element": "H" 
			},
			{
				"x": 0.2290966834,
				"y": -4.9834632094,
				"z": -2.7653556057,
				"element": "H" 
			},
			{
				"x": -0.2380123748,
				"y": -3.2481193935,
				"z": -1.0583424666,
				"element": "H" 
			}
		],
		 "valence_orbital": [ 
			{
				"type": "occ",
				"energy": -0.26419,
				"method": "rhf"
			},
			{
				"type": "occ",
				"energy": -0.2571,
				"method": "rhf"
			},
			{
				"type": "occ",
				"energy": -0.25108,
				"method": "rhf"
			},
			{
				"type": "occ",
				"energy": -0.24439,
				"method": "rhf"
			},
			{
				"type": "occ",
				"energy": -0.20963,
				"method": "rhf"
			},
			{
				"type": "unocc",
				"energy": -0.03306,
				"method": "rhf"
			},
			{
				"type": "unocc",
				"energy": -0.02433,
				"method": "rhf"
			},
			{
				"type": "unocc",
				"energy": -0.02139,
				"method": "rhf"
			},
			{
				"type": "unocc",
				"energy": -0.01876,
				"method": "rhf"
			},
			{
				"type": "unocc",
				"energy": 0.01252,
				"method": "rhf"
			}
		],
		"cosmo_sigma_profile": { 
			"-0.025": 0.0,
			"-0.024": 0.0,
			"-0.023": 0.0,
			"-0.022": 0.0,
			"-0.021": 0.0,
			"-0.02": 0.0,
			"-0.019": 0.0,
			"-0.018": 0.0,
			"-0.017": 0.0,
			"-0.016": 0.0,
			"-0.015": 0.0,
			"-0.014": 0.0,
			"-0.013": 0.0,
			"-0.012": 0.455466540306,
			"-0.011": 1.5467008574,
			"-0.01": 1.51449832775,
			"-0.009": 1.00963747364,
			"-0.008": 4.73697814026,
			"-0.007": 10.640020302,
			"-0.006": 18.8544927201,
			"-0.005": 22.1244425279,
			"-0.004": 22.1596059187,
			"-0.003": 25.1958035039,
			"-0.002": 24.9193872898,
			"-0.001": 22.3194412368,
			"0.0": 25.5784720867,
			"0.001": 35.4592008143,
			"0.002": 43.8636372587,
			"0.003": 33.101074555,
			"0.004": 29.0251799602,
			"0.005": 14.1846993887,
			"0.006": 5.49500040103,
			"0.007": 4.90285855208,
			"0.008": 3.37069536731,
			"0.009": 2.02731558385,
			"0.01": 2.63829865508,
			"0.011": 2.09446210557,
			"0.012": 0.762058005194,
			"0.013": 1.05343099684,
			"0.014": 1.0927368739,
			"0.015": 0.41097769267,
			"0.016": 0.165801805277,
			"0.017": 0.0,
			"0.018": 0.0,
			"0.019": 0.0,
			"0.02": 0.0,
			"0.021": 0.0,
			"0.022": 0.0,
			"0.023": 0.0,
			"0.024": 0.0,
			"0.025": 0.0
		}
	}
}
