{
	 "smiles": "ClCC1=NN(C=N1)C1=CC=CC=C1", 
	 "Tm": 357.15, 
	 "num_atms": 21, 
	 "gaussian": { 
		 "optdone": 1, 
		 "sigma_profile": "yes", 
		 "theory": "DFT", 
		 "functional": "B3LYP", 
		 "basiset": "6-31G**", 
		 "properties": { 
			 "R2extent": 4786.7778, 
			 "electric_dipole_moment_norm": 4.61512193772, 
			 "electric_quadrupole_moment_norm": 14.2131284621, 
			 "total_energy": -972.215616376, 
			 "HOMO_LUMO_gap": 0.20285, 
			 "cosmo_polarized_energy": -11.54, 
			 "cosmo_cavitation_energy": 27.64, 
			 "cosmo_dispersion_energy": -20.43, 
			 "cosmo_repulsion_energy": 1.62, 
			 "cosmo_total_nonelectrostatic_energy": 8.82, 
			 "SMD_solvation_energy": 2.09 
		},
		"coords": [
			{
				"x": 5.4954223716,
				"y": 1.9468838462,
				"z": 0.6200164855,
				"element": "Cl" 
			},
			{
				"x": 4.6348926248,
				"y": 0.3627869238,
				"z": 0.9280679972,
				"element": "C" 
			},
			{
				"x": 3.1625370832,
				"y": 0.4827196939,
				"z": 0.7633486764,
				"element": "C" 
			},
			{
				"x": 2.5552436313,
				"y": 0.1388371934,
				"z": -0.3653485528,
				"element": "N" 
			},
			{
				"x": 1.2490566281,
				"y": 0.3962651289,
				"z": -0.0933046064,
				"element": "N" 
			},
			{
				"x": 1.1459883288,
				"y": 0.8841172365,
				"z": 1.1741620578,
				"element": "C" 
			},
			{
				"x": 2.3315874662,
				"y": 0.9463292233,
				"z": 1.7444941328,
				"element": "N" 
			},
			{
				"x": 0.2322369371,
				"y": 0.1775637674,
				"z": -1.0636387902,
				"element": "C" 
			},
			{
				"x": -1.0857630178,
				"y": -0.0504019964,
				"z": -0.6556628302,
				"element": "C" 
			},
			{
				"x": -2.0771889228,
				"y": -0.2362399266,
				"z": -1.6185196236,
				"element": "C" 
			},
			{
				"x": -1.7560358983,
				"y": -0.2148178296,
				"z": -2.9766391694,
				"element": "C" 
			},
			{
				"x": -0.4327245826,
				"y": -0.0040677393,
				"z": -3.3709474907,
				"element": "C" 
			},
			{
				"x": 0.5663991892,
				"y": 0.1979098578,
				"z": -2.4209500404,
				"element": "C" 
			},
			{
				"x": 5.0450906025,
				"y": -0.3518382908,
				"z": 0.2166716323,
				"element": "H" 
			},
			{
				"x": 4.8868854296,
				"y": 0.0804563172,
				"z": 1.9491125684,
				"element": "H" 
			},
			{
				"x": 0.208314775,
				"y": 1.1881229703,
				"z": 1.6156500715,
				"element": "H" 
			},
			{
				"x": -1.3343355363,
				"y": -0.1051374197,
				"z": 0.3989965917,
				"element": "H" 
			},
			{
				"x": -3.1004928268,
				"y": -0.4128480535,
				"z": -1.3015676567,
				"element": "H" 
			},
			{
				"x": -2.5303596356,
				"y": -0.3670045369,
				"z": -3.722116027,
				"element": "H" 
			},
			{
				"x": -0.1742632196,
				"y": 0.01058989,
				"z": -4.4254218212,
				"element": "H" 
			},
			{
				"x": 1.5967085723,
				"y": 0.3681737441,
				"z": -2.708903605,
				"element": "H" 
			}
		],
		 "valence_orbital": [ 
			{
				"type": "occ",
				"energy": -0.29118,
				"method": "rhf"
			},
			{
				"type": "occ",
				"energy": -0.28724,
				"method": "rhf"
			},
			{
				"type": "occ",
				"energy": -0.2836,
				"method": "rhf"
			},
			{
				"type": "occ",
				"energy": -0.27047,
				"method": "rhf"
			},
			{
				"type": "occ",
				"energy": -0.24648,
				"method": "rhf"
			},
			{
				"type": "unocc",
				"energy": -0.04363,
				"method": "rhf"
			},
			{
				"type": "unocc",
				"energy": -0.02194,
				"method": "rhf"
			},
			{
				"type": "unocc",
				"energy": -0.00319,
				"method": "rhf"
			},
			{
				"type": "unocc",
				"energy": 0.02274,
				"method": "rhf"
			},
			{
				"type": "unocc",
				"energy": 0.0711,
				"method": "rhf"
			}
		],
		"cosmo_sigma_profile": { 
			"-0.025": 0.0,
			"-0.024": 0.0,
			"-0.023": 0.0,
			"-0.022": 0.0,
			"-0.021": 0.0,
			"-0.02": 0.0,
			"-0.019": 0.0,
			"-0.018": 0.0,
			"-0.017": 0.0,
			"-0.016": 0.0,
			"-0.015": 0.0,
			"-0.014": 0.0,
			"-0.013": 0.0,
			"-0.012": 0.101668993822,
			"-0.011": 2.15299498416,
			"-0.01": 2.61001936681,
			"-0.009": 3.02472427827,
			"-0.008": 6.11299320783,
			"-0.007": 7.23908750197,
			"-0.006": 15.1103126984,
			"-0.005": 16.1392246512,
			"-0.004": 13.742411824,
			"-0.003": 11.4228721046,
			"-0.002": 13.9638694156,
			"-0.001": 13.9065883021,
			"0.0": 12.7551857535,
			"0.001": 12.7619629226,
			"0.002": 15.0176316244,
			"0.003": 18.0534611022,
			"0.004": 18.5136789123,
			"0.005": 10.535984988,
			"0.006": 15.1443195317,
			"0.007": 4.16954546192,
			"0.008": 2.13849078065,
			"0.009": 2.25795195181,
			"0.01": 1.44765664441,
			"0.011": 1.54028891269,
			"0.012": 1.69029856738,
			"0.013": 0.965572008689,
			"0.014": 1.15103927042,
			"0.015": 0.622034821279,
			"0.016": 0.357267252258,
			"0.017": 0.0,
			"0.018": 0.0,
			"0.019": 0.0,
			"0.02": 0.0,
			"0.021": 0.0,
			"0.022": 0.0,
			"0.023": 0.0,
			"0.024": 0.0,
			"0.025": 0.0
		}
	}
}
