{
	 "smiles": "CC1=CC(=CC(C)=C1)C1=NNC(N)=C1", 
	 "Tm": 349.15, 
	 "num_atms": 27, 
	 "gaussian": { 
		 "optdone": 1, 
		 "sigma_profile": "yes", 
		 "theory": "DFT", 
		 "functional": "B3LYP", 
		 "basiset": "6-31G**", 
		 "properties": { 
			 "R2extent": 3888.9011, 
			 "electric_dipole_moment_norm": 3.3116591295, 
			 "electric_quadrupole_moment_norm": 16.4098929966, 
			 "total_energy": -591.25828051, 
			 "HOMO_LUMO_gap": 0.19141, 
			 "cosmo_polarized_energy": -15.94, 
			 "cosmo_cavitation_energy": 30.7, 
			 "cosmo_dispersion_energy": -22.58, 
			 "cosmo_repulsion_energy": 1.8, 
			 "cosmo_total_nonelectrostatic_energy": 9.91, 
			 "SMD_solvation_energy": 4.4 
		},
		"coords": [
			{
				"x": -3.8873618507,
				"y": -0.292341774,
				"z": -0.866922868,
				"element": "C" 
			},
			{
				"x": -2.4452635861,
				"y": -0.744922819,
				"z": -0.8299836923,
				"element": "C" 
			},
			{
				"x": -1.5994283997,
				"y": -0.3362893146,
				"z": 0.2086552585,
				"element": "C" 
			},
			{
				"x": -0.2684346447,
				"y": -0.7655671487,
				"z": 0.2731900312,
				"element": "C" 
			},
			{
				"x": 0.2147143036,
				"y": -1.6238119185,
				"z": -0.7292935019,
				"element": "C" 
			},
			{
				"x": -0.6062354863,
				"y": -2.0468329117,
				"z": -1.773860294,
				"element": "C" 
			},
			{
				"x": -0.0847463172,
				"y": -2.9810381766,
				"z": -2.8419341921,
				"element": "C" 
			},
			{
				"x": -1.9343060576,
				"y": -1.5951542277,
				"z": -1.8138800821,
				"element": "C" 
			},
			{
				"x": 0.6185973214,
				"y": -0.3287549195,
				"z": 1.3659564463,
				"element": "C" 
			},
			{
				"x": 1.8398299153,
				"y": -0.8537806997,
				"z": 1.5000104211,
				"element": "N" 
			},
			{
				"x": 2.364675649,
				"y": -0.2209540478,
				"z": 2.5803477058,
				"element": "N" 
			},
			{
				"x": 1.5163967998,
				"y": 0.6895444466,
				"z": 3.1325478183,
				"element": "C" 
			},
			{
				"x": 1.8675087818,
				"y": 1.395653771,
				"z": 4.2889229909,
				"element": "N" 
			},
			{
				"x": 0.3654709703,
				"y": 0.6523915549,
				"z": 2.3676922231,
				"element": "C" 
			},
			{
				"x": -3.9878976778,
				"y": 0.7538446703,
				"z": -0.5595926877,
				"element": "H" 
			},
			{
				"x": -4.3120246476,
				"y": -0.3913837123,
				"z": -1.8702367115,
				"element": "H" 
			},
			{
				"x": -4.5095355969,
				"y": -0.8890631338,
				"z": -0.1878972426,
				"element": "H" 
			},
			{
				"x": -1.9920479081,
				"y": 0.322413,
				"z": 0.9788544771,
				"element": "H" 
			},
			{
				"x": 1.2484833676,
				"y": -1.9502587912,
				"z": -0.6788523884,
				"element": "H" 
			},
			{
				"x": -0.517652804,
				"y": -3.9838395936,
				"z": -2.739369965,
				"element": "H" 
			},
			{
				"x": -0.3387021793,
				"y": -2.6235460694,
				"z": -3.8460109072,
				"element": "H" 
			},
			{
				"x": 1.0023578972,
				"y": -3.0838283063,
				"z": -2.7850711467,
				"element": "H" 
			},
			{
				"x": -2.5806352927,
				"y": -1.9125150575,
				"z": -2.6302589365,
				"element": "H" 
			},
			{
				"x": 3.2568858677,
				"y": -0.5182982367,
				"z": 2.9424336698,
				"element": "H" 
			},
			{
				"x": 2.7282756104,
				"y": 1.9248797296,
				"z": 4.1906939334,
				"element": "H" 
			},
			{
				"x": 1.1258392839,
				"y": 2.0177586386,
				"z": 4.584881936,
				"element": "H" 
			},
			{
				"x": -0.5106633193,
				"y": 1.2693950478,
				"z": 2.4964777046,
				"element": "H" 
			}
		],
		 "valence_orbital": [ 
			{
				"type": "occ",
				"energy": -0.27547,
				"method": "rhf"
			},
			{
				"type": "occ",
				"energy": -0.26736,
				"method": "rhf"
			},
			{
				"type": "occ",
				"energy": -0.2234,
				"method": "rhf"
			},
			{
				"type": "occ",
				"energy": -0.21606,
				"method": "rhf"
			},
			{
				"type": "occ",
				"energy": -0.19932,
				"method": "rhf"
			},
			{
				"type": "unocc",
				"energy": -0.00791,
				"method": "rhf"
			},
			{
				"type": "unocc",
				"energy": 0.01589,
				"method": "rhf"
			},
			{
				"type": "unocc",
				"energy": 0.0471,
				"method": "rhf"
			},
			{
				"type": "unocc",
				"energy": 0.06772,
				"method": "rhf"
			},
			{
				"type": "unocc",
				"energy": 0.09693,
				"method": "rhf"
			}
		],
		"cosmo_sigma_profile": { 
			"-0.025": 0.0,
			"-0.024": 0.0,
			"-0.023": 0.0,
			"-0.022": 0.0,
			"-0.021": 0.0,
			"-0.02": 0.0,
			"-0.019": 0.0,
			"-0.018": 0.0,
			"-0.017": 0.000714284653138,
			"-0.016": 0.901461268381,
			"-0.015": 1.2314748637,
			"-0.014": 1.05445439642,
			"-0.013": 3.84357154329,
			"-0.012": 4.46557374378,
			"-0.011": 3.10234002894,
			"-0.01": 4.02253450199,
			"-0.009": 3.80054196168,
			"-0.008": 2.78320920155,
			"-0.007": 2.7455201595,
			"-0.006": 5.38035115962,
			"-0.005": 5.93309409758,
			"-0.004": 16.0271062745,
			"-0.003": 21.24440228,
			"-0.002": 18.5034599539,
			"-0.001": 18.2527453151,
			"0.0": 22.4870396545,
			"0.001": 15.5479212603,
			"0.002": 10.064609004,
			"0.003": 9.31250621941,
			"0.004": 13.1788490938,
			"0.005": 17.1057034323,
			"0.006": 17.6107199203,
			"0.007": 7.67725363938,
			"0.008": 2.5311361376,
			"0.009": 2.74636753875,
			"0.01": 2.43945229432,
			"0.011": 2.27540018548,
			"0.012": 1.56994167896,
			"0.013": 1.93103945847,
			"0.014": 1.78722397441,
			"0.015": 1.05790591297,
			"0.016": 0.0884645414467,
			"0.017": 0.0,
			"0.018": 0.0,
			"0.019": 0.0,
			"0.02": 0.0,
			"0.021": 0.0,
			"0.022": 0.0,
			"0.023": 0.0,
			"0.024": 0.0,
			"0.025": 0.0
		}
	}
}
