{
	 "smiles": "ClCC1CC1", 
	 "Tm": 182.15, 
	 "num_atms": 12, 
	 "gaussian": { 
		 "optdone": 1, 
		 "sigma_profile": "yes", 
		 "theory": "DFT", 
		 "functional": "B3LYP", 
		 "basiset": "6-31G**", 
		 "properties": { 
			 "R2extent": 663.1324, 
			 "electric_dipole_moment_norm": 2.10257052438, 
			 "electric_quadrupole_moment_norm": 3.30773905712, 
			 "total_energy": -616.809567975, 
			 "HOMO_LUMO_gap": 0.30755, 
			 "cosmo_polarized_energy": -3.6, 
			 "cosmo_cavitation_energy": 16.13, 
			 "cosmo_dispersion_energy": -12.37, 
			 "cosmo_repulsion_energy": 1.09, 
			 "cosmo_total_nonelectrostatic_energy": 4.85, 
			 "SMD_solvation_energy": 2.26 
		},
		"coords": [
			{
				"x": -0.785658858,
				"y": 1.3707857316,
				"z": 0.1636451716,
				"element": "Cl" 
			},
			{
				"x": -1.1132237064,
				"y": 0.3874533981,
				"z": -1.3342714296,
				"element": "C" 
			},
			{
				"x": -0.5368490664,
				"y": -1.0108848654,
				"z": -1.2981780588,
				"element": "C" 
			},
			{
				"x": -0.4912890058,
				"y": -1.8588937236,
				"z": -0.0544353227,
				"element": "C" 
			},
			{
				"x": 0.7907148784,
				"y": -1.3463797887,
				"z": -0.6712120181,
				"element": "C" 
			},
			{
				"x": -2.2004306249,
				"y": 0.3631978501,
				"z": -1.4349912827,
				"element": "H" 
			},
			{
				"x": -0.6932385349,
				"y": 0.9656982244,
				"z": -2.1601052465,
				"element": "H" 
			},
			{
				"x": -0.7719814287,
				"y": -1.5365646962,
				"z": -2.223714949,
				"element": "H" 
			},
			{
				"x": -0.8091212449,
				"y": -1.4049003012,
				"z": 0.8786458449,
				"element": "H" 
			},
			{
				"x": -0.7298280759,
				"y": -2.9138714374,
				"z": -0.1488942973,
				"element": "H" 
			},
			{
				"x": 1.314164907,
				"y": -0.5560402959,
				"z": -0.1428796675,
				"element": "H" 
			},
			{
				"x": 1.4360407604,
				"y": -2.0480000959,
				"z": -1.1909087444,
				"element": "H" 
			}
		],
		 "valence_orbital": [ 
			{
				"type": "occ",
				"energy": -0.36559,
				"method": "rhf"
			},
			{
				"type": "occ",
				"energy": -0.30446,
				"method": "rhf"
			},
			{
				"type": "occ",
				"energy": -0.3023,
				"method": "rhf"
			},
			{
				"type": "occ",
				"energy": -0.29276,
				"method": "rhf"
			},
			{
				"type": "occ",
				"energy": -0.28089,
				"method": "rhf"
			},
			{
				"type": "unocc",
				"energy": 0.02666,
				"method": "rhf"
			},
			{
				"type": "unocc",
				"energy": 0.08817,
				"method": "rhf"
			},
			{
				"type": "unocc",
				"energy": 0.12361,
				"method": "rhf"
			},
			{
				"type": "unocc",
				"energy": 0.12876,
				"method": "rhf"
			},
			{
				"type": "unocc",
				"energy": 0.1303,
				"method": "rhf"
			}
		],
		"cosmo_sigma_profile": { 
			"-0.025": 0.0,
			"-0.024": 0.0,
			"-0.023": 0.0,
			"-0.022": 0.0,
			"-0.021": 0.0,
			"-0.02": 0.0,
			"-0.019": 0.0,
			"-0.018": 0.0,
			"-0.017": 0.0,
			"-0.016": 0.0,
			"-0.015": 0.0,
			"-0.014": 0.0,
			"-0.013": 0.0,
			"-0.012": 0.0,
			"-0.011": 0.0,
			"-0.01": 0.0,
			"-0.009": 0.0,
			"-0.008": 0.0,
			"-0.007": 1.88190419428,
			"-0.006": 5.55778659385,
			"-0.005": 8.92910146192,
			"-0.004": 13.3251890479,
			"-0.003": 11.20180051,
			"-0.002": 9.03543030401,
			"-0.001": 8.57963622268,
			"0.0": 10.9657243049,
			"0.001": 12.8847706933,
			"0.002": 9.56224665837,
			"0.003": 9.34353205515,
			"0.004": 8.78853598688,
			"0.005": 7.97216370819,
			"0.006": 6.72108192746,
			"0.007": 4.12612064308,
			"0.008": 0.0,
			"0.009": 0.0,
			"0.01": 0.0,
			"0.011": 0.0,
			"0.012": 0.0,
			"0.013": 0.0,
			"0.014": 0.0,
			"0.015": 0.0,
			"0.016": 0.0,
			"0.017": 0.0,
			"0.018": 0.0,
			"0.019": 0.0,
			"0.02": 0.0,
			"0.021": 0.0,
			"0.022": 0.0,
			"0.023": 0.0,
			"0.024": 0.0,
			"0.025": 0.0
		}
	}
}
