{
	 "smiles": "OC(=O)C1=CC2=C(C=C1)N=C(Cl)C=C2", 
	 "Tm": 502.15, 
	 "num_atms": 20, 
	 "gaussian": { 
		 "optdone": 1, 
		 "sigma_profile": "yes", 
		 "theory": "DFT", 
		 "functional": "B3LYP", 
		 "basiset": "6-31G**", 
		 "properties": { 
			 "R2extent": 4200.6375, 
			 "electric_dipole_moment_norm": 1.67931970155, 
			 "electric_quadrupole_moment_norm": 30.6521725251, 
			 "total_energy": -1050.08823691, 
			 "HOMO_LUMO_gap": 0.17397, 
			 "cosmo_polarized_energy": -16.41, 
			 "cosmo_cavitation_energy": 27.07, 
			 "cosmo_dispersion_energy": -20.35, 
			 "cosmo_repulsion_energy": 1.58, 
			 "cosmo_total_nonelectrostatic_energy": 8.3, 
			 "SMD_solvation_energy": 3.84 
		},
		"coords": [
			{
				"x": -2.5422216937,
				"y": -3.7411893214,
				"z": 1.8046442058,
				"element": "O" 
			},
			{
				"x": -2.4766785825,
				"y": -2.4054317818,
				"z": 1.5622571916,
				"element": "C" 
			},
			{
				"x": -3.4559672073,
				"y": -1.7146570928,
				"z": 1.7174600917,
				"element": "O" 
			},
			{
				"x": -1.1548761117,
				"y": -1.8647084899,
				"z": 1.1004260707,
				"element": "C" 
			},
			{
				"x": -1.15604364,
				"y": -0.6311346747,
				"z": 0.4737034049,
				"element": "C" 
			},
			{
				"x": 0.0469742401,
				"y": -0.0578423568,
				"z": 0.0048033777,
				"element": "C" 
			},
			{
				"x": 1.278886909,
				"y": -0.7580001602,
				"z": 0.1985114455,
				"element": "C" 
			},
			{
				"x": 1.264297893,
				"y": -2.0091598868,
				"z": 0.8649649706,
				"element": "C" 
			},
			{
				"x": 0.0757603517,
				"y": -2.5473927755,
				"z": 1.3034104824,
				"element": "C" 
			},
			{
				"x": 2.4767636963,
				"y": -0.2587426486,
				"z": -0.2304846371,
				"element": "N" 
			},
			{
				"x": 2.4678866341,
				"y": 0.8941197539,
				"z": -0.8319869684,
				"element": "C" 
			},
			{
				"x": 4.0172308773,
				"y": 1.5270644906,
				"z": -1.3819654893,
				"element": "Cl" 
			},
			{
				"x": 1.3147827938,
				"y": 1.687498404,
				"z": -1.083505783,
				"element": "C" 
			},
			{
				"x": 0.1059141199,
				"y": 1.1986376555,
				"z": -0.6588506931,
				"element": "C" 
			},
			{
				"x": -1.7441118008,
				"y": -4.1843088853,
				"z": 1.4855767454,
				"element": "H" 
			},
			{
				"x": -2.1001457993,
				"y": -0.1104904877,
				"z": 0.3469258803,
				"element": "H" 
			},
			{
				"x": 2.2118976368,
				"y": -2.5127686945,
				"z": 1.0219566388,
				"element": "H" 
			},
			{
				"x": 0.0978466207,
				"y": -3.4888419891,
				"z": 1.8469103156,
				"element": "H" 
			},
			{
				"x": 1.408217067,
				"y": 2.6390180319,
				"z": -1.592286139,
				"element": "H" 
			},
			{
				"x": -0.8088140046,
				"y": 1.7613309091,
				"z": -0.8232711111,
				"element": "H" 
			}
		],
		 "valence_orbital": [ 
			{
				"type": "occ",
				"energy": -0.32037,
				"method": "rhf"
			},
			{
				"type": "occ",
				"energy": -0.28958,
				"method": "rhf"
			},
			{
				"type": "occ",
				"energy": -0.28251,
				"method": "rhf"
			},
			{
				"type": "occ",
				"energy": -0.27224,
				"method": "rhf"
			},
			{
				"type": "occ",
				"energy": -0.25796,
				"method": "rhf"
			},
			{
				"type": "unocc",
				"energy": -0.08399,
				"method": "rhf"
			},
			{
				"type": "unocc",
				"energy": -0.05978,
				"method": "rhf"
			},
			{
				"type": "unocc",
				"energy": -0.01194,
				"method": "rhf"
			},
			{
				"type": "unocc",
				"energy": 0.01749,
				"method": "rhf"
			},
			{
				"type": "unocc",
				"energy": 0.02254,
				"method": "rhf"
			}
		],
		"cosmo_sigma_profile": { 
			"-0.025": 0.0,
			"-0.024": 0.0,
			"-0.023": 0.0,
			"-0.022": 0.0,
			"-0.021": 0.0,
			"-0.02": 0.0169621139513,
			"-0.019": 0.521932841157,
			"-0.018": 1.17358148593,
			"-0.017": 0.687684177052,
			"-0.016": 1.22570395381,
			"-0.015": 0.929902171711,
			"-0.014": 0.64801586174,
			"-0.013": 1.16207860212,
			"-0.012": 1.51819756756,
			"-0.011": 1.19584377387,
			"-0.01": 0.884202399298,
			"-0.009": 4.06730549277,
			"-0.008": 8.27638197982,
			"-0.007": 8.9709984007,
			"-0.006": 8.54503369351,
			"-0.005": 6.8217188965,
			"-0.004": 7.99779642257,
			"-0.003": 10.7523065596,
			"-0.002": 13.7292162654,
			"-0.001": 20.1947175637,
			"0.0": 22.9951345121,
			"0.001": 19.812142278,
			"0.002": 13.9897347921,
			"0.003": 10.1380201418,
			"0.004": 12.3382797246,
			"0.005": 6.07261041188,
			"0.006": 4.95148876402,
			"0.007": 3.76356769259,
			"0.008": 3.84103461175,
			"0.009": 4.48222775684,
			"0.01": 6.07573988448,
			"0.011": 6.03003702547,
			"0.012": 5.08383169077,
			"0.013": 1.90520644683,
			"0.014": 0.129766525037,
			"0.015": 0.0,
			"0.016": 0.0,
			"0.017": 0.0,
			"0.018": 0.0,
			"0.019": 0.0,
			"0.02": 0.0,
			"0.021": 0.0,
			"0.022": 0.0,
			"0.023": 0.0,
			"0.024": 0.0,
			"0.025": 0.0
		}
	}
}
