{
	 "smiles": "[O-][N+](=O)C1=CC(Cl)=C(C=C1)N=C=S", 
	 "Tm": 370.15, 
	 "num_atms": 16, 
	 "gaussian": { 
		 "optdone": 1, 
		 "sigma_profile": "yes", 
		 "theory": "DFT", 
		 "functional": "B3LYP", 
		 "basiset": "6-31G**", 
		 "properties": { 
			 "R2extent": 5556.4811, 
			 "electric_dipole_moment_norm": 1.79197823927, 
			 "electric_quadrupole_moment_norm": 17.2510667244, 
			 "total_energy": -1386.77026815, 
			 "HOMO_LUMO_gap": 0.14477, 
			 "cosmo_polarized_energy": -8.77, 
			 "cosmo_cavitation_energy": 27.01, 
			 "cosmo_dispersion_energy": -19.94, 
			 "cosmo_repulsion_energy": 1.55, 
			 "cosmo_total_nonelectrostatic_energy": 8.62, 
			 "SMD_solvation_energy": 7.26 
		},
		"coords": [
			{
				"x": 2.3656248544,
				"y": 3.1251036428,
				"z": 1.8040157861,
				"element": "O" 
			},
			{
				"x": 2.6489581867,
				"y": 1.9539992667,
				"z": 1.5575165442,
				"element": "N" 
			},
			{
				"x": 3.7614611357,
				"y": 1.5506523415,
				"z": 1.22225812,
				"element": "O" 
			},
			{
				"x": 1.5748904224,
				"y": 0.9559859547,
				"z": 1.6720561619,
				"element": "C" 
			},
			{
				"x": 0.3051713702,
				"y": 1.3852316299,
				"z": 2.0504963682,
				"element": "C" 
			},
			{
				"x": -0.7128186139,
				"y": 0.446934527,
				"z": 2.1601424355,
				"element": "C" 
			},
			{
				"x": -2.3092382776,
				"y": 0.9556942254,
				"z": 2.6313288551,
				"element": "Cl" 
			},
			{
				"x": -0.4589713836,
				"y": -0.919606802,
				"z": 1.8912035043,
				"element": "C" 
			},
			{
				"x": 0.8387352378,
				"y": -1.3145634951,
				"z": 1.5107037424,
				"element": "C" 
			},
			{
				"x": 1.8586070565,
				"y": -0.3813640713,
				"z": 1.3999053798,
				"element": "C" 
			},
			{
				"x": -1.4477401427,
				"y": -1.8448817405,
				"z": 1.9946208414,
				"element": "N" 
			},
			{
				"x": -2.3137475626,
				"y": -2.6552022779,
				"z": 2.0976651795,
				"element": "C" 
			},
			{
				"x": -3.4610903228,
				"y": -3.7406610292,
				"z": 2.2292099822,
				"element": "S" 
			},
			{
				"x": 0.1268672154,
				"y": 2.4331862688,
				"z": 2.252858948,
				"element": "H" 
			},
			{
				"x": 1.0211663736,
				"y": -2.3635165006,
				"z": 1.3069321965,
				"element": "H" 
			},
			{
				"x": 2.8612244507,
				"y": -0.6670919402,
				"z": 1.109085955,
				"element": "H" 
			}
		],
		 "valence_orbital": [ 
			{
				"type": "occ",
				"energy": -0.32208,
				"method": "rhf"
			},
			{
				"type": "occ",
				"energy": -0.30665,
				"method": "rhf"
			},
			{
				"type": "occ",
				"energy": -0.29128,
				"method": "rhf"
			},
			{
				"type": "occ",
				"energy": -0.27508,
				"method": "rhf"
			},
			{
				"type": "occ",
				"energy": -0.25797,
				"method": "rhf"
			},
			{
				"type": "unocc",
				"energy": -0.1132,
				"method": "rhf"
			},
			{
				"type": "unocc",
				"energy": -0.05421,
				"method": "rhf"
			},
			{
				"type": "unocc",
				"energy": -0.04993,
				"method": "rhf"
			},
			{
				"type": "unocc",
				"energy": -0.0203,
				"method": "rhf"
			},
			{
				"type": "unocc",
				"energy": -0.00034,
				"method": "rhf"
			}
		],
		"cosmo_sigma_profile": { 
			"-0.025": 0.0,
			"-0.024": 0.0,
			"-0.023": 0.0,
			"-0.022": 0.0,
			"-0.021": 0.0,
			"-0.02": 0.0,
			"-0.019": 0.0,
			"-0.018": 0.0,
			"-0.017": 0.0,
			"-0.016": 0.0,
			"-0.015": 0.0,
			"-0.014": 0.0,
			"-0.013": 0.0,
			"-0.012": 0.0,
			"-0.011": 0.0,
			"-0.01": 0.401620238858,
			"-0.009": 3.97016985828,
			"-0.008": 5.58931988097,
			"-0.007": 6.24030986026,
			"-0.006": 6.85235026742,
			"-0.005": 6.52849843006,
			"-0.004": 12.5419883085,
			"-0.003": 20.9543984735,
			"-0.002": 28.4823043139,
			"-0.001": 20.3488380211,
			"0.0": 16.6247403229,
			"0.001": 15.6264097229,
			"0.002": 13.8463252906,
			"0.003": 16.5996017364,
			"0.004": 14.9734795684,
			"0.005": 11.0743444966,
			"0.006": 4.78480482968,
			"0.007": 9.09431736267,
			"0.008": 5.67390111294,
			"0.009": 3.67718836567,
			"0.01": 1.12184659131,
			"0.011": 0.0,
			"0.012": 0.0,
			"0.013": 0.0,
			"0.014": 0.0,
			"0.015": 0.0,
			"0.016": 0.0,
			"0.017": 0.0,
			"0.018": 0.0,
			"0.019": 0.0,
			"0.02": 0.0,
			"0.021": 0.0,
			"0.022": 0.0,
			"0.023": 0.0,
			"0.024": 0.0,
			"0.025": 0.0
		}
	}
}
