{
	 "smiles": "OC(=O)C1=C(F)C=C(Cl)C=C1", 
	 "Tm": 478.15, 
	 "num_atms": 15, 
	 "gaussian": { 
		 "optdone": 1, 
		 "sigma_profile": "yes", 
		 "theory": "DFT", 
		 "functional": "B3LYP", 
		 "basiset": "6-31G**", 
		 "properties": { 
			 "R2extent": 2450.4099, 
			 "electric_dipole_moment_norm": 4.242424116, 
			 "electric_quadrupole_moment_norm": 16.6277697416, 
			 "total_energy": -979.629944328, 
			 "HOMO_LUMO_gap": 0.20413, 
			 "cosmo_polarized_energy": -14.56, 
			 "cosmo_cavitation_energy": 22.5, 
			 "cosmo_dispersion_energy": -16.63, 
			 "cosmo_repulsion_energy": 1.32, 
			 "cosmo_total_nonelectrostatic_energy": 7.18, 
			 "SMD_solvation_energy": 5.24 
		},
		"coords": [
			{
				"x": 0.3493628406,
				"y": -2.4853974892,
				"z": -1.7270457521,
				"element": "O" 
			},
			{
				"x": 0.8223302981,
				"y": -2.1810213787,
				"z": -0.4857434988,
				"element": "C" 
			},
			{
				"x": 1.3297623019,
				"y": -3.0314149727,
				"z": 0.1996679291,
				"element": "O" 
			},
			{
				"x": 0.624841859,
				"y": -0.7569483121,
				"z": -0.0572538687,
				"element": "C" 
			},
			{
				"x": 1.5578016032,
				"y": -0.1192351022,
				"z": 0.7719590572,
				"element": "C" 
			},
			{
				"x": 2.6796596075,
				"y": -0.7530174883,
				"z": 1.1277048374,
				"element": "F" 
			},
			{
				"x": 1.3810995568,
				"y": 1.1847840896,
				"z": 1.2206222138,
				"element": "C" 
			},
			{
				"x": 0.2243480382,
				"y": 1.8659569641,
				"z": 0.84638671,
				"element": "C" 
			},
			{
				"x": -0.0190594088,
				"y": 3.5045338605,
				"z": 1.4108656883,
				"element": "Cl" 
			},
			{
				"x": -0.7404952426,
				"y": 1.267284113,
				"z": 0.0347124841,
				"element": "C" 
			},
			{
				"x": -0.5256119288,
				"y": -0.0343533857,
				"z": -0.410372538,
				"element": "C" 
			},
			{
				"x": 0.1367429473,
				"y": -1.6752613173,
				"z": -2.2113904841,
				"element": "H" 
			},
			{
				"x": 2.1369008361,
				"y": 1.643675459,
				"z": 1.8460763458,
				"element": "H" 
			},
			{
				"x": -1.6404224848,
				"y": 1.8071947164,
				"z": -0.2345163271,
				"element": "H" 
			},
			{
				"x": -1.2895608238,
				"y": -0.5133797563,
				"z": -1.0163727968,
				"element": "H" 
			}
		],
		 "valence_orbital": [ 
			{
				"type": "occ",
				"energy": -0.33491,
				"method": "rhf"
			},
			{
				"type": "occ",
				"energy": -0.32438,
				"method": "rhf"
			},
			{
				"type": "occ",
				"energy": -0.28683,
				"method": "rhf"
			},
			{
				"type": "occ",
				"energy": -0.28314,
				"method": "rhf"
			},
			{
				"type": "occ",
				"energy": -0.26805,
				"method": "rhf"
			},
			{
				"type": "unocc",
				"energy": -0.06392,
				"method": "rhf"
			},
			{
				"type": "unocc",
				"energy": -0.03727,
				"method": "rhf"
			},
			{
				"type": "unocc",
				"energy": 0.0061,
				"method": "rhf"
			},
			{
				"type": "unocc",
				"energy": 0.02418,
				"method": "rhf"
			},
			{
				"type": "unocc",
				"energy": 0.06353,
				"method": "rhf"
			}
		],
		"cosmo_sigma_profile": { 
			"-0.025": 0.0,
			"-0.024": 0.0,
			"-0.023": 0.0,
			"-0.022": 0.0,
			"-0.021": 0.0,
			"-0.02": 0.0,
			"-0.019": 0.373254718288,
			"-0.018": 1.0244688709,
			"-0.017": 1.07673692038,
			"-0.016": 0.895374537184,
			"-0.015": 1.09180585521,
			"-0.014": 1.23080610174,
			"-0.013": 0.834192388106,
			"-0.012": 0.782992951076,
			"-0.011": 1.32974019184,
			"-0.01": 1.7257889374,
			"-0.009": 3.91136157415,
			"-0.008": 6.06115139583,
			"-0.007": 6.02650658468,
			"-0.006": 6.14023173559,
			"-0.005": 6.21032306146,
			"-0.004": 5.85708430961,
			"-0.003": 7.63732655533,
			"-0.002": 10.2851115096,
			"-0.001": 16.0154696714,
			"0.0": 20.7246288364,
			"0.001": 14.1147083602,
			"0.002": 10.5816258881,
			"0.003": 16.2576143376,
			"0.004": 11.5266075521,
			"0.005": 3.01305294141,
			"0.006": 2.54802184406,
			"0.007": 3.38912100128,
			"0.008": 3.16584565851,
			"0.009": 3.99094094382,
			"0.01": 6.13542507874,
			"0.011": 5.97799351101,
			"0.012": 3.24789294846,
			"0.013": 0.413391621542,
			"0.014": 0.0,
			"0.015": 0.0,
			"0.016": 0.0,
			"0.017": 0.0,
			"0.018": 0.0,
			"0.019": 0.0,
			"0.02": 0.0,
			"0.021": 0.0,
			"0.022": 0.0,
			"0.023": 0.0,
			"0.024": 0.0,
			"0.025": 0.0
		}
	}
}
