{
	 "smiles": "CC#CC1(O)CCCCC1", 
	 "Tm": 321.15, 
	 "num_atms": 24, 
	 "gaussian": { 
		 "optdone": 1, 
		 "sigma_profile": "yes", 
		 "theory": "DFT", 
		 "functional": "B3LYP", 
		 "basiset": "6-31G**", 
		 "properties": { 
			 "R2extent": 1885.3005, 
			 "electric_dipole_moment_norm": 1.73304081314, 
			 "electric_quadrupole_moment_norm": 5.29365278234, 
			 "total_energy": -426.559553907, 
			 "HOMO_LUMO_gap": 0.28854, 
			 "cosmo_polarized_energy": -6.81, 
			 "cosmo_cavitation_energy": 25.84, 
			 "cosmo_dispersion_energy": -18.72, 
			 "cosmo_repulsion_energy": 1.57, 
			 "cosmo_total_nonelectrostatic_energy": 8.69, 
			 "SMD_solvation_energy": 4.31 
		},
		"coords": [
			{
				"x": -1.7613890168,
				"y": -3.1969237711,
				"z": 1.2271854783,
				"element": "C" 
			},
			{
				"x": -0.9400515424,
				"y": -2.0827215989,
				"z": 0.762103803,
				"element": "C" 
			},
			{
				"x": -0.2671380555,
				"y": -1.1507723842,
				"z": 0.3817889477,
				"element": "C" 
			},
			{
				"x": 0.5849324396,
				"y": -0.0397576095,
				"z": -0.0822854141,
				"element": "C" 
			},
			{
				"x": 1.6377101329,
				"y": 0.2032076885,
				"z": 0.8683200807,
				"element": "O" 
			},
			{
				"x": 1.1915506817,
				"y": -0.3905242434,
				"z": -1.4741142277,
				"element": "C" 
			},
			{
				"x": 1.6042650012,
				"y": 0.8773968019,
				"z": -2.2266754745,
				"element": "C" 
			},
			{
				"x": 0.3628531807,
				"y": 1.7280369111,
				"z": -2.5890582069,
				"element": "C" 
			},
			{
				"x": -0.770644441,
				"y": 1.5599794243,
				"z": -1.5487613636,
				"element": "C" 
			},
			{
				"x": -0.2028054132,
				"y": 1.2991999611,
				"z": -0.1498870232,
				"element": "C" 
			},
			{
				"x": -1.5588015771,
				"y": -4.1106905867,
				"z": 0.6570849081,
				"element": "H" 
			},
			{
				"x": -1.5709816949,
				"y": -3.4146794043,
				"z": 2.2842340055,
				"element": "H" 
			},
			{
				"x": -2.8287476572,
				"y": -2.9707597614,
				"z": 1.1242554249,
				"element": "H" 
			},
			{
				"x": 2.0345393453,
				"y": -0.6529407306,
				"z": 1.0802026389,
				"element": "H" 
			},
			{
				"x": 0.4572008296,
				"y": -0.9537139588,
				"z": -2.0618002828,
				"element": "H" 
			},
			{
				"x": 2.0443386283,
				"y": -1.0603269806,
				"z": -1.3130652958,
				"element": "H" 
			},
			{
				"x": 2.2836089465,
				"y": 1.4505858818,
				"z": -1.5852203676,
				"element": "H" 
			},
			{
				"x": 2.1705884584,
				"y": 0.6225283095,
				"z": -3.1290456075,
				"element": "H" 
			},
			{
				"x": -0.0091574174,
				"y": 1.4466270133,
				"z": -3.5814005019,
				"element": "H" 
			},
			{
				"x": 0.6530220904,
				"y": 2.7831913486,
				"z": -2.6570281806,
				"element": "H" 
			},
			{
				"x": -1.4099314535,
				"y": 2.449339046,
				"z": -1.5362027031,
				"element": "H" 
			},
			{
				"x": -1.4216273696,
				"y": 0.7225516379,
				"z": -1.8303092161,
				"element": "H" 
			},
			{
				"x": -0.9872978211,
				"y": 1.3004312504,
				"z": 0.6115482246,
				"element": "H" 
			},
			{
				"x": 0.5065637253,
				"y": 2.0899357553,
				"z": 0.1190303538,
				"element": "H" 
			}
		],
		 "valence_orbital": [ 
			{
				"type": "occ",
				"energy": -0.31025,
				"method": "rhf"
			},
			{
				"type": "occ",
				"energy": -0.30001,
				"method": "rhf"
			},
			{
				"type": "occ",
				"energy": -0.27172,
				"method": "rhf"
			},
			{
				"type": "occ",
				"energy": -0.24988,
				"method": "rhf"
			},
			{
				"type": "occ",
				"energy": -0.24365,
				"method": "rhf"
			},
			{
				"type": "unocc",
				"energy": 0.04489,
				"method": "rhf"
			},
			{
				"type": "unocc",
				"energy": 0.06176,
				"method": "rhf"
			},
			{
				"type": "unocc",
				"energy": 0.08331,
				"method": "rhf"
			},
			{
				"type": "unocc",
				"energy": 0.11137,
				"method": "rhf"
			},
			{
				"type": "unocc",
				"energy": 0.11293,
				"method": "rhf"
			}
		],
		"cosmo_sigma_profile": { 
			"-0.025": 0.0,
			"-0.024": 0.0,
			"-0.023": 0.0,
			"-0.022": 0.0,
			"-0.021": 0.0,
			"-0.02": 0.0,
			"-0.019": 0.0,
			"-0.018": 0.0,
			"-0.017": 0.0,
			"-0.016": 0.0,
			"-0.015": 0.338664056696,
			"-0.014": 0.887433295225,
			"-0.013": 0.781502260068,
			"-0.012": 0.681473429206,
			"-0.011": 0.872065182543,
			"-0.01": 0.812199872195,
			"-0.009": 0.824178974205,
			"-0.008": 0.817485261611,
			"-0.007": 0.853546088827,
			"-0.006": 4.11015619961,
			"-0.005": 6.86883663993,
			"-0.004": 6.74577628689,
			"-0.003": 15.7021810985,
			"-0.002": 29.4601957746,
			"-0.001": 34.0825380903,
			"0.0": 27.108595321,
			"0.001": 21.4249795773,
			"0.002": 8.32795511273,
			"0.003": 5.29908407345,
			"0.004": 5.84810943134,
			"0.005": 6.08146870731,
			"0.006": 6.94023171307,
			"0.007": 5.18166730269,
			"0.008": 2.56147287925,
			"0.009": 1.55037034135,
			"0.01": 1.35046621647,
			"0.011": 1.05644896567,
			"0.012": 1.11220851176,
			"0.013": 1.98731030544,
			"0.014": 1.04829467655,
			"0.015": 0.0140391342327,
			"0.016": 0.0,
			"0.017": 0.0,
			"0.018": 0.0,
			"0.019": 0.0,
			"0.02": 0.0,
			"0.021": 0.0,
			"0.022": 0.0,
			"0.023": 0.0,
			"0.024": 0.0,
			"0.025": 0.0
		}
	}
}
