{
	 "smiles": "O=C(NC1=CC=C(C=CC2=CC=C(NC(=O)C3=CC=CC=C3)C=C2)C=C1)C1=CC=CC=C1", 
	 "Tm": 625.15, 
	 "num_atms": 54, 
	 "gaussian": { 
		 "optdone": 1, 
		 "sigma_profile": "yes", 
		 "theory": "DFT", 
		 "functional": "B3LYP", 
		 "basiset": "6-31G**", 
		 "properties": { 
			 "R2extent": 29526.9409, 
			 "electric_dipole_moment_norm": 0.376400770456, 
			 "electric_quadrupole_moment_norm": 69.7670391692, 
			 "total_energy": -1340.21502705, 
			 "HOMO_LUMO_gap": 0.13575, 
			 "cosmo_polarized_energy": -23.08, 
			 "cosmo_cavitation_energy": 59.81, 
			 "cosmo_dispersion_energy": -41.38, 
			 "cosmo_repulsion_energy": 3.08, 
			 "cosmo_total_nonelectrostatic_energy": 21.5, 
			 "SMD_solvation_energy": 10.89 
		},
		"coords": [
			{
				"x": 8.3003224699,
				"y": 0.5588562536,
				"z": 1.6506714707,
				"element": "O" 
			},
			{
				"x": 7.2600322014,
				"y": 0.0816774849,
				"z": 1.2112076945,
				"element": "C" 
			},
			{
				"x": 6.1000713697,
				"y": 0.1668859457,
				"z": 1.969107611,
				"element": "N" 
			},
			{
				"x": 4.7361438147,
				"y": 0.1512420157,
				"z": 1.5958129407,
				"element": "C" 
			},
			{
				"x": 3.788249118,
				"y": -0.2509822663,
				"z": 2.551894135,
				"element": "C" 
			},
			{
				"x": 2.4323034683,
				"y": -0.2440288697,
				"z": 2.2565224165,
				"element": "C" 
			},
			{
				"x": 1.9618107115,
				"y": 0.1531580718,
				"z": 0.9887282633,
				"element": "C" 
			},
			{
				"x": 0.5475682458,
				"y": 0.1766329132,
				"z": 0.6144210504,
				"element": "C" 
			},
			{
				"x": -0.510064669,
				"y": -0.0877895575,
				"z": 1.4106355394,
				"element": "C" 
			},
			{
				"x": -1.9232327145,
				"y": -0.072297391,
				"z": 1.0320845664,
				"element": "C" 
			},
			{
				"x": -2.3792542957,
				"y": 0.0990027795,
				"z": -0.2908498502,
				"element": "C" 
			},
			{
				"x": -3.7321821313,
				"y": 0.1035297457,
				"z": -0.6012796678,
				"element": "C" 
			},
			{
				"x": -4.6944694529,
				"y": -0.0412441196,
				"z": 0.4123493741,
				"element": "C" 
			},
			{
				"x": -6.0833579307,
				"y": -0.074626889,
				"z": 0.1483799041,
				"element": "N" 
			},
			{
				"x": -6.8355714442,
				"y": 0.4758625244,
				"z": -0.8801202565,
				"element": "C" 
			},
			{
				"x": -7.9160740849,
				"y": -0.0264983041,
				"z": -1.1686854631,
				"element": "O" 
			},
			{
				"x": -6.3532025422,
				"y": 1.7199736255,
				"z": -1.5635228932,
				"element": "C" 
			},
			{
				"x": -5.631393208,
				"y": 2.7241021459,
				"z": -0.9021081625,
				"element": "C" 
			},
			{
				"x": -5.2972824418,
				"y": 3.901159676,
				"z": -1.5711982862,
				"element": "C" 
			},
			{
				"x": -5.670106094,
				"y": 4.080225818,
				"z": -2.9052145972,
				"element": "C" 
			},
			{
				"x": -6.3969690102,
				"y": 3.0864331916,
				"z": -3.5658404115,
				"element": "C" 
			},
			{
				"x": -6.7494086598,
				"y": 1.9182125389,
				"z": -2.8936878696,
				"element": "C" 
			},
			{
				"x": -4.2591131399,
				"y": -0.2242390723,
				"z": 1.7320201469,
				"element": "C" 
			},
			{
				"x": -2.9011406743,
				"y": -0.2481493898,
				"z": 2.0289504423,
				"element": "C" 
			},
			{
				"x": 2.9262263393,
				"y": 0.5505685774,
				"z": 0.0432389665,
				"element": "C" 
			},
			{
				"x": 4.2856137251,
				"y": 0.5680417903,
				"z": 0.3358111156,
				"element": "C" 
			},
			{
				"x": 7.2388910382,
				"y": -0.6626152148,
				"z": -0.089939092,
				"element": "C" 
			},
			{
				"x": 6.432292142,
				"y": -1.787922377,
				"z": -0.3130181451,
				"element": "C" 
			},
			{
				"x": 6.532184523,
				"y": -2.4931626598,
				"z": -1.5118941191,
				"element": "C" 
			},
			{
				"x": 7.4271946981,
				"y": -2.075438917,
				"z": -2.4994250502,
				"element": "C" 
			},
			{
				"x": 8.2392240252,
				"y": -0.9600824642,
				"z": -2.2783319874,
				"element": "C" 
			},
			{
				"x": 8.1558448451,
				"y": -0.2657781647,
				"z": -1.0734206017,
				"element": "C" 
			},
			{
				"x": 6.3020441211,
				"y": 0.533405979,
				"z": 2.8922501761,
				"element": "H" 
			},
			{
				"x": 4.12910638,
				"y": -0.58068647,
				"z": 3.5297156897,
				"element": "H" 
			},
			{
				"x": 1.7321409343,
				"y": -0.5686211888,
				"z": 3.0197435215,
				"element": "H" 
			},
			{
				"x": 0.3646211738,
				"y": 0.4508031072,
				"z": -0.4232792569,
				"element": "H" 
			},
			{
				"x": -0.3300263399,
				"y": -0.3312929797,
				"z": 2.4565507487,
				"element": "H" 
			},
			{
				"x": -1.6640395145,
				"y": 0.2022240207,
				"z": -1.100764631,
				"element": "H" 
			},
			{
				"x": -4.0475902754,
				"y": 0.207187039,
				"z": -1.6330310322,
				"element": "H" 
			},
			{
				"x": -6.609567484,
				"y": -0.7929079832,
				"z": 0.6324995949,
				"element": "H" 
			},
			{
				"x": -5.3445355738,
				"y": 2.5933881861,
				"z": 0.135682134,
				"element": "H" 
			},
			{
				"x": -4.747936284,
				"y": 4.679575967,
				"z": -1.0498453553,
				"element": "H" 
			},
			{
				"x": -5.40200518,
				"y": 4.9951883082,
				"z": -3.4258603667,
				"element": "H" 
			},
			{
				"x": -6.6970842503,
				"y": 3.2271640567,
				"z": -4.6001089251,
				"element": "H" 
			},
			{
				"x": -7.3404273467,
				"y": 1.1487977339,
				"z": -3.3791467011,
				"element": "H" 
			},
			{
				"x": -4.9931083996,
				"y": -0.3412441331,
				"z": 2.5246845435,
				"element": "H" 
			},
			{
				"x": -2.5869876863,
				"y": -0.3920661206,
				"z": 3.0595626465,
				"element": "H" 
			},
			{
				"x": 2.5971181068,
				"y": 0.8754519267,
				"z": -0.9405121422,
				"element": "H" 
			},
			{
				"x": 4.9950386717,
				"y": 0.9095445087,
				"z": -0.4088966715,
				"element": "H" 
			},
			{
				"x": 5.7397364571,
				"y": -2.1203655458,
				"z": 0.4526286654,
				"element": "H" 
			},
			{
				"x": 5.9127567736,
				"y": -3.3704349013,
				"z": -1.673852123,
				"element": "H" 
			},
			{
				"x": 7.4973523725,
				"y": -2.6225626957,
				"z": -3.4352856616,
				"element": "H" 
			},
			{
				"x": 8.9433764107,
				"y": -0.6389083135,
				"z": -3.040299329,
				"element": "H" 
			},
			{
				"x": 8.7997666908,
				"y": 0.583350057,
				"z": -0.8701347089,
				"element": "H" 
			}
		],
		 "valence_orbital": [ 
			{
				"type": "occ",
				"energy": -0.25578,
				"method": "rhf"
			},
			{
				"type": "occ",
				"energy": -0.24906,
				"method": "rhf"
			},
			{
				"type": "occ",
				"energy": -0.24877,
				"method": "rhf"
			},
			{
				"type": "occ",
				"energy": -0.23691,
				"method": "rhf"
			},
			{
				"type": "occ",
				"energy": -0.1982,
				"method": "rhf"
			},
			{
				"type": "unocc",
				"energy": -0.06245,
				"method": "rhf"
			},
			{
				"type": "unocc",
				"energy": -0.04149,
				"method": "rhf"
			},
			{
				"type": "unocc",
				"energy": -0.03476,
				"method": "rhf"
			},
			{
				"type": "unocc",
				"energy": -0.01706,
				"method": "rhf"
			},
			{
				"type": "unocc",
				"energy": -0.01661,
				"method": "rhf"
			}
		],
		"cosmo_sigma_profile": { 
			"-0.025": 0.0,
			"-0.024": 0.0,
			"-0.023": 0.0,
			"-0.022": 0.0,
			"-0.021": 0.0,
			"-0.02": 0.0,
			"-0.019": 0.0,
			"-0.018": 0.0,
			"-0.017": 0.0,
			"-0.016": 0.0,
			"-0.015": 0.0648150098781,
			"-0.014": 1.41337022043,
			"-0.013": 2.28882695006,
			"-0.012": 2.24762017425,
			"-0.011": 1.21074297002,
			"-0.01": 2.4187757441,
			"-0.009": 2.65956222492,
			"-0.008": 3.53788603587,
			"-0.007": 9.32029893348,
			"-0.006": 33.0075692429,
			"-0.005": 39.7772230059,
			"-0.004": 42.1120537519,
			"-0.003": 28.6687263215,
			"-0.002": 30.2004248676,
			"-0.001": 30.7478257977,
			"0.0": 28.8923916574,
			"0.001": 31.9418187876,
			"0.002": 33.4555426818,
			"0.003": 36.6454149486,
			"0.004": 53.1102648327,
			"0.005": 27.0919731112,
			"0.006": 3.81338648752,
			"0.007": 3.15443783202,
			"0.008": 3.68398451521,
			"0.009": 2.93026725822,
			"0.01": 1.84266237133,
			"0.011": 3.78952667868,
			"0.012": 6.22421305614,
			"0.013": 10.5279892212,
			"0.014": 2.85636063574,
			"0.015": 0.0,
			"0.016": 0.0,
			"0.017": 0.0,
			"0.018": 0.0,
			"0.019": 0.0,
			"0.02": 0.0,
			"0.021": 0.0,
			"0.022": 0.0,
			"0.023": 0.0,
			"0.024": 0.0,
			"0.025": 0.0
		}
	}
}
