{
	 "smiles": "CC1=CC(NC(=O)C2=CC=CC=C2)=CC=C1", 
	 "Tm": 398.15, 
	 "num_atms": 29, 
	 "gaussian": { 
		 "optdone": 1, 
		 "sigma_profile": "yes", 
		 "theory": "DFT", 
		 "functional": "B3LYP", 
		 "basiset": "6-31G**", 
		 "properties": { 
			 "R2extent": 4456.4313, 
			 "electric_dipole_moment_norm": 3.45490649656, 
			 "electric_quadrupole_moment_norm": 14.2739110268, 
			 "total_energy": -671.321738405, 
			 "HOMO_LUMO_gap": 0.18444, 
			 "cosmo_polarized_energy": -11.33, 
			 "cosmo_cavitation_energy": 32.93, 
			 "cosmo_dispersion_energy": -23.26, 
			 "cosmo_repulsion_energy": 1.83, 
			 "cosmo_total_nonelectrostatic_energy": 11.5, 
			 "SMD_solvation_energy": 6.22 
		},
		"coords": [
			{
				"x": 1.9371919539,
				"y": -2.1299669489,
				"z": 2.9714694647,
				"element": "C" 
			},
			{
				"x": 1.1884441025,
				"y": -1.1277301713,
				"z": 2.1241094081,
				"element": "C" 
			},
			{
				"x": 0.5571883645,
				"y": -1.5256404199,
				"z": 0.9413581583,
				"element": "C" 
			},
			{
				"x": -0.1717946423,
				"y": -0.6167061715,
				"z": 0.1618906964,
				"element": "C" 
			},
			{
				"x": -0.8255878946,
				"y": -1.107189142,
				"z": -0.9974632576,
				"element": "N" 
			},
			{
				"x": -1.1876077213,
				"y": -0.4762463914,
				"z": -2.1773618106,
				"element": "C" 
			},
			{
				"x": -2.1098793326,
				"y": -0.9311205983,
				"z": -2.8459356959,
				"element": "O" 
			},
			{
				"x": -0.3941251333,
				"y": 0.7022950834,
				"z": -2.6582561079,
				"element": "C" 
			},
			{
				"x": -1.0596832101,
				"y": 1.6416944279,
				"z": -3.4582039505,
				"element": "C" 
			},
			{
				"x": -0.3670188043,
				"y": 2.7232235961,
				"z": -3.997938242,
				"element": "C" 
			},
			{
				"x": 1.0041654179,
				"y": 2.8599858463,
				"z": -3.7668447942,
				"element": "C" 
			},
			{
				"x": 1.6787072745,
				"y": 1.9118483022,
				"z": -2.9944416903,
				"element": "C" 
			},
			{
				"x": 0.9836858388,
				"y": 0.8392801484,
				"z": -2.4363687092,
				"element": "C" 
			},
			{
				"x": -0.2745248163,
				"y": 0.7183446872,
				"z": 0.5740200299,
				"element": "C" 
			},
			{
				"x": 0.3761591484,
				"y": 1.1258217157,
				"z": 1.7374393996,
				"element": "C" 
			},
			{
				"x": 1.099448382,
				"y": 0.2167738001,
				"z": 2.5092887669,
				"element": "C" 
			},
			{
				"x": 2.2942611321,
				"y": -2.9743295485,
				"z": 2.3746235749,
				"element": "H" 
			},
			{
				"x": 2.8014140801,
				"y": -1.6714906205,
				"z": 3.4616746592,
				"element": "H" 
			},
			{
				"x": 1.2942532426,
				"y": -2.5371568845,
				"z": 3.7618375773,
				"element": "H" 
			},
			{
				"x": 0.6349071238,
				"y": -2.5581865765,
				"z": 0.6087952345,
				"element": "H" 
			},
			{
				"x": -1.3340782994,
				"y": -1.9764515068,
				"z": -0.8847850181,
				"element": "H" 
			},
			{
				"x": -2.1177084403,
				"y": 1.5003704947,
				"z": -3.6520367305,
				"element": "H" 
			},
			{
				"x": -0.8927035818,
				"y": 3.4533291711,
				"z": -4.6064495071,
				"element": "H" 
			},
			{
				"x": 1.5470547752,
				"y": 3.6984758638,
				"z": -4.1939349464,
				"element": "H" 
			},
			{
				"x": 2.7478026892,
				"y": 2.0059768546,
				"z": -2.8276514167,
				"element": "H" 
			},
			{
				"x": 1.5138611002,
				"y": 0.1034233066,
				"z": -1.8416985341,
				"element": "H" 
			},
			{
				"x": -0.8566959687,
				"y": 1.4243803042,
				"z": -0.0065881066,
				"element": "H" 
			},
			{
				"x": 0.3034513505,
				"y": 2.1632554515,
				"z": 2.0512998159,
				"element": "H" 
			},
			{
				"x": 1.5943118686,
				"y": 0.5497359262,
				"z": 3.4177517321,
				"element": "H" 
			}
		],
		 "valence_orbital": [ 
			{
				"type": "occ",
				"energy": -0.2626,
				"method": "rhf"
			},
			{
				"type": "occ",
				"energy": -0.2579,
				"method": "rhf"
			},
			{
				"type": "occ",
				"energy": -0.24793,
				"method": "rhf"
			},
			{
				"type": "occ",
				"energy": -0.24405,
				"method": "rhf"
			},
			{
				"type": "occ",
				"energy": -0.22301,
				"method": "rhf"
			},
			{
				"type": "unocc",
				"energy": -0.03857,
				"method": "rhf"
			},
			{
				"type": "unocc",
				"energy": -0.01183,
				"method": "rhf"
			},
			{
				"type": "unocc",
				"energy": -0.00224,
				"method": "rhf"
			},
			{
				"type": "unocc",
				"energy": 0.00174,
				"method": "rhf"
			},
			{
				"type": "unocc",
				"energy": 0.05774,
				"method": "rhf"
			}
		],
		"cosmo_sigma_profile": { 
			"-0.025": 0.0,
			"-0.024": 0.0,
			"-0.023": 0.0,
			"-0.022": 0.0,
			"-0.021": 0.0,
			"-0.02": 0.0,
			"-0.019": 0.0,
			"-0.018": 0.0,
			"-0.017": 0.0,
			"-0.016": 0.0,
			"-0.015": 0.0,
			"-0.014": 0.674520073265,
			"-0.013": 1.01124367478,
			"-0.012": 0.589695295286,
			"-0.011": 1.0342275459,
			"-0.01": 1.30728665962,
			"-0.009": 0.905036515586,
			"-0.008": 1.20646783704,
			"-0.007": 1.80444461013,
			"-0.006": 10.881616195,
			"-0.005": 20.6155489163,
			"-0.004": 26.8849247744,
			"-0.003": 20.8926524563,
			"-0.002": 21.49462936,
			"-0.001": 21.131208435,
			"0.0": 22.2690285478,
			"0.001": 18.9780763079,
			"0.002": 16.3878878699,
			"0.003": 16.9529670102,
			"0.004": 20.4488023561,
			"0.005": 14.2010341647,
			"0.006": 5.21942847005,
			"0.007": 1.12054731373,
			"0.008": 1.56598364835,
			"0.009": 1.85502329805,
			"0.01": 1.4173405719,
			"0.011": 1.83907206225,
			"0.012": 2.39169270115,
			"0.013": 5.42981867112,
			"0.014": 2.03557461124,
			"0.015": 0.0,
			"0.016": 0.0,
			"0.017": 0.0,
			"0.018": 0.0,
			"0.019": 0.0,
			"0.02": 0.0,
			"0.021": 0.0,
			"0.022": 0.0,
			"0.023": 0.0,
			"0.024": 0.0,
			"0.025": 0.0
		}
	}
}
