{
	 "smiles": "COC(=O)CCCCCCC(=O)OC", 
	 "Tm": 270.05, 
	 "num_atms": 32, 
	 "gaussian": { 
		 "optdone": 1, 
		 "sigma_profile": "yes", 
		 "theory": "DFT", 
		 "functional": "B3LYP", 
		 "basiset": "6-31G**", 
		 "properties": { 
			 "R2extent": 5467.4626, 
			 "electric_dipole_moment_norm": 0.00022360679775, 
			 "electric_quadrupole_moment_norm": 17.2871058891, 
			 "total_energy": -692.838767942, 
			 "HOMO_LUMO_gap": 0.27678, 
			 "cosmo_polarized_energy": -11.46, 
			 "cosmo_cavitation_energy": 35.12, 
			 "cosmo_dispersion_energy": -23.85, 
			 "cosmo_repulsion_energy": 1.93, 
			 "cosmo_total_nonelectrostatic_energy": 13.2, 
			 "SMD_solvation_energy": 8.19 
		},
		"coords": [
			{
				"x": -4.8509330914,
				"y": 2.3228485105,
				"z": -2.7203911297,
				"element": "C" 
			},
			{
				"x": -4.5350036688,
				"y": 1.0574491086,
				"z": -2.1186490015,
				"element": "O" 
			},
			{
				"x": -3.2393606048,
				"y": 0.6762591863,
				"z": -2.2172518611,
				"element": "C" 
			},
			{
				"x": -2.3932931839,
				"y": 1.3401152251,
				"z": -2.7803988912,
				"element": "O" 
			},
			{
				"x": -2.9946256822,
				"y": -0.6341684811,
				"z": -1.5024679835,
				"element": "C" 
			},
			{
				"x": -2.7961683633,
				"y": -0.4379649436,
				"z": 0.0195333691,
				"element": "C" 
			},
			{
				"x": -1.6700573855,
				"y": 0.5284847709,
				"z": 0.4238618667,
				"element": "C" 
			},
			{
				"x": -0.2765812419,
				"y": 0.1231265754,
				"z": -0.0763419252,
				"element": "C" 
			},
			{
				"x": 0.8495272591,
				"y": 1.0895693353,
				"z": 0.3280046757,
				"element": "C" 
			},
			{
				"x": 1.0479841859,
				"y": 1.285753161,
				"z": 1.850008421,
				"element": "C" 
			},
			{
				"x": 1.2927560986,
				"y": -0.0246811454,
				"z": 2.5647654114,
				"element": "C" 
			},
			{
				"x": 0.4466837477,
				"y": -0.6886294958,
				"z": 3.1277980402,
				"element": "O" 
			},
			{
				"x": 2.5884438649,
				"y": -0.4057497041,
				"z": 2.4662979436,
				"element": "O" 
			},
			{
				"x": 2.9044153374,
				"y": -1.671145781,
				"z": 3.0680247135,
				"element": "C" 
			},
			{
				"x": -4.6341128346,
				"y": 2.3054256296,
				"z": -3.7915253727,
				"element": "H" 
			},
			{
				"x": -5.9166496809,
				"y": 2.4742597001,
				"z": -2.5485158298,
				"element": "H" 
			},
			{
				"x": -4.2701904354,
				"y": 3.1259792098,
				"z": -2.2593173677,
				"element": "H" 
			},
			{
				"x": -2.1096638672,
				"y": -1.0886651609,
				"z": -1.9534401176,
				"element": "H" 
			},
			{
				"x": -3.8475655466,
				"y": -1.299254537,
				"z": -1.6683874112,
				"element": "H" 
			},
			{
				"x": -3.7409867934,
				"y": -0.0857268978,
				"z": 0.4494316243,
				"element": "H" 
			},
			{
				"x": -2.6029418927,
				"y": -1.423888481,
				"z": 0.46003786,
				"element": "H" 
			},
			{
				"x": -1.6627513527,
				"y": 0.5798892701,
				"z": 1.5183040732,
				"element": "H" 
			},
			{
				"x": -1.9011818215,
				"y": 1.5391669097,
				"z": 0.0605362778,
				"element": "H" 
			},
			{
				"x": -0.2838789281,
				"y": 0.0717359447,
				"z": -1.1707848885,
				"element": "H" 
			},
			{
				"x": -0.0454625311,
				"y": -0.8875586012,
				"z": 0.286976515,
				"element": "H" 
			},
			{
				"x": 0.6563005884,
				"y": 2.0755008531,
				"z": -0.1124822962,
				"element": "H" 
			},
			{
				"x": 1.7943474128,
				"y": 0.7373412659,
				"z": -0.1018995449,
				"element": "H" 
			},
			{
				"x": 0.1630102581,
				"y": 1.7402237664,
				"z": 2.3009857288,
				"element": "H" 
			},
			{
				"x": 1.9009090174,
				"y": 1.9508551228,
				"z": 2.015935536,
				"element": "H" 
			},
			{
				"x": 3.9701672803,
				"y": -1.8224509846,
				"z": 2.8962756178,
				"element": "H" 
			},
			{
				"x": 2.3238043065,
				"y": -2.4743099625,
				"z": 2.6068433877,
				"element": "H" 
			},
			{
				"x": 2.6874595489,
				"y": -1.6537893693,
				"z": 4.1391325589,
				"element": "H" 
			}
		],
		 "valence_orbital": [ 
			{
				"type": "occ",
				"energy": -0.31144,
				"method": "rhf"
			},
			{
				"type": "occ",
				"energy": -0.29799,
				"method": "rhf"
			},
			{
				"type": "occ",
				"energy": -0.29727,
				"method": "rhf"
			},
			{
				"type": "occ",
				"energy": -0.26462,
				"method": "rhf"
			},
			{
				"type": "occ",
				"energy": -0.26454,
				"method": "rhf"
			},
			{
				"type": "unocc",
				"energy": 0.01224,
				"method": "rhf"
			},
			{
				"type": "unocc",
				"energy": 0.01417,
				"method": "rhf"
			},
			{
				"type": "unocc",
				"energy": 0.08932,
				"method": "rhf"
			},
			{
				"type": "unocc",
				"energy": 0.10454,
				"method": "rhf"
			},
			{
				"type": "unocc",
				"energy": 0.11421,
				"method": "rhf"
			}
		],
		"cosmo_sigma_profile": { 
			"-0.025": 0.0,
			"-0.024": 0.0,
			"-0.023": 0.0,
			"-0.022": 0.0,
			"-0.021": 0.0,
			"-0.02": 0.0,
			"-0.019": 0.0,
			"-0.018": 0.0,
			"-0.017": 0.0,
			"-0.016": 0.0,
			"-0.015": 0.0,
			"-0.014": 0.0,
			"-0.013": 0.0,
			"-0.012": 0.0,
			"-0.011": 0.0,
			"-0.01": 0.0,
			"-0.009": 0.0,
			"-0.008": 0.0,
			"-0.007": 0.874166776686,
			"-0.006": 7.1616489043,
			"-0.005": 17.7068078272,
			"-0.004": 25.8613193886,
			"-0.003": 42.9257970485,
			"-0.002": 44.0780525628,
			"-0.001": 32.1927438972,
			"0.0": 21.1174606254,
			"0.001": 11.330634572,
			"0.002": 8.46198323172,
			"0.003": 6.57778110041,
			"0.004": 7.51688976196,
			"0.005": 6.64224184602,
			"0.006": 6.24940908259,
			"0.007": 4.76400908592,
			"0.008": 5.15766679401,
			"0.009": 5.38169626112,
			"0.01": 3.52371634195,
			"0.011": 3.9945094135,
			"0.012": 9.04801118506,
			"0.013": 2.57307413689,
			"0.014": 0.0,
			"0.015": 0.0,
			"0.016": 0.0,
			"0.017": 0.0,
			"0.018": 0.0,
			"0.019": 0.0,
			"0.02": 0.0,
			"0.021": 0.0,
			"0.022": 0.0,
			"0.023": 0.0,
			"0.024": 0.0,
			"0.025": 0.0
		}
	}
}
