{
	 "smiles": "CN1C=CC(=CC1=O)C(=O)N1CCC[C@H]1C(O)=O", 
	 "Tm": 423.15, 
	 "num_atms": 32, 
	 "gaussian": { 
		 "optdone": 1, 
		 "sigma_profile": "yes", 
		 "theory": "DFT", 
		 "functional": "B3LYP", 
		 "basiset": "6-31G**", 
		 "properties": { 
			 "R2extent": 5489.4622, 
			 "electric_dipole_moment_norm": 4.45956072388, 
			 "electric_quadrupole_moment_norm": 29.1706892896, 
			 "total_energy": -876.139257537, 
			 "HOMO_LUMO_gap": 0.16213, 
			 "cosmo_polarized_energy": -23.79, 
			 "cosmo_cavitation_energy": 35.53, 
			 "cosmo_dispersion_energy": -24.97, 
			 "cosmo_repulsion_energy": 1.95, 
			 "cosmo_total_nonelectrostatic_energy": 12.5, 
			 "SMD_solvation_energy": 7.86 
		},
		"coords": [
			{
				"x": 4.3363926364,
				"y": -2.2623287915,
				"z": -1.8481783342,
				"element": "C" 
			},
			{
				"x": 3.1638841516,
				"y": -1.5465365442,
				"z": -1.3399789864,
				"element": "N" 
			},
			{
				"x": 3.0434839354,
				"y": -1.313447856,
				"z": 0.0022398024,
				"element": "C" 
			},
			{
				"x": 1.9810297748,
				"y": -0.647471015,
				"z": 0.5343747266,
				"element": "C" 
			},
			{
				"x": 0.9539699819,
				"y": -0.1928168098,
				"z": -0.3464512059,
				"element": "C" 
			},
			{
				"x": 1.0719346009,
				"y": -0.4015892949,
				"z": -1.694148213,
				"element": "C" 
			},
			{
				"x": 2.1987771435,
				"y": -1.1004985795,
				"z": -2.2840836165,
				"element": "C" 
			},
			{
				"x": 2.3431648445,
				"y": -1.3152378202,
				"z": -3.4865774651,
				"element": "O" 
			},
			{
				"x": -0.1570848486,
				"y": 0.6285274196,
				"z": 0.2576010019,
				"element": "C" 
			},
			{
				"x": 0.1224903411,
				"y": 1.5545384268,
				"z": 1.0183038224,
				"element": "O" 
			},
			{
				"x": -1.4524160881,
				"y": 0.3441960823,
				"z": -0.0658551835,
				"element": "N" 
			},
			{
				"x": -2.0059366585,
				"y": -0.8674584385,
				"z": -0.6922664781,
				"element": "C" 
			},
			{
				"x": -3.399890327,
				"y": -0.4014652508,
				"z": -1.1213241352,
				"element": "C" 
			},
			{
				"x": -3.8275343673,
				"y": 0.5198881569,
				"z": 0.0338196032,
				"element": "C" 
			},
			{
				"x": -2.5076295815,
				"y": 1.1974371671,
				"z": 0.4978002239,
				"element": "C" 
			},
			{
				"x": -2.4714508802,
				"y": 1.3228819273,
				"z": 2.0171388346,
				"element": "C" 
			},
			{
				"x": -2.1227823721,
				"y": 0.1609973543,
				"z": 2.6217005612,
				"element": "O" 
			},
			{
				"x": -2.813773127,
				"y": 2.3095192104,
				"z": 2.6249153115,
				"element": "O" 
			},
			{
				"x": 5.2508462031,
				"y": -1.7074613981,
				"z": -1.6182264387,
				"element": "H" 
			},
			{
				"x": 4.3958726919,
				"y": -3.2593612143,
				"z": -1.4020892839,
				"element": "H" 
			},
			{
				"x": 4.2199187157,
				"y": -2.3463730555,
				"z": -2.9272296568,
				"element": "H" 
			},
			{
				"x": 3.8552596903,
				"y": -1.6914228601,
				"z": 0.6151922501,
				"element": "H" 
			},
			{
				"x": 1.9225133708,
				"y": -0.4497161996,
				"z": 1.5962725657,
				"element": "H" 
			},
			{
				"x": 0.3389269593,
				"y": -0.0321112294,
				"z": -2.401949991,
				"element": "H" 
			},
			{
				"x": -2.0728690676,
				"y": -1.6809843275,
				"z": 0.0437013467,
				"element": "H" 
			},
			{
				"x": -1.3878891818,
				"y": -1.2070408646,
				"z": -1.5215205167,
				"element": "H" 
			},
			{
				"x": -4.0907989399,
				"y": -1.2339664189,
				"z": -1.2779691332,
				"element": "H" 
			},
			{
				"x": -3.3288087833,
				"y": 0.1626389607,
				"z": -2.0575893783,
				"element": "H" 
			},
			{
				"x": -4.5779839743,
				"y": 1.2596630078,
				"z": -0.2516703729,
				"element": "H" 
			},
			{
				"x": -4.2432188488,
				"y": -0.0791850275,
				"z": 0.8503732551,
				"element": "H" 
			},
			{
				"x": -2.4084205812,
				"y": 2.2159392171,
				"z": 0.1135763147,
				"element": "H" 
			},
			{
				"x": -2.1547774142,
				"y": 0.3394460659,
				"z": 3.5762987694,
				"element": "H" 
			}
		],
		 "valence_orbital": [ 
			{
				"type": "occ",
				"energy": -0.28124,
				"method": "rhf"
			},
			{
				"type": "occ",
				"energy": -0.26334,
				"method": "rhf"
			},
			{
				"type": "occ",
				"energy": -0.24925,
				"method": "rhf"
			},
			{
				"type": "occ",
				"energy": -0.24635,
				"method": "rhf"
			},
			{
				"type": "occ",
				"energy": -0.21883,
				"method": "rhf"
			},
			{
				"type": "unocc",
				"energy": -0.0567,
				"method": "rhf"
			},
			{
				"type": "unocc",
				"energy": 0.00362,
				"method": "rhf"
			},
			{
				"type": "unocc",
				"energy": 0.01143,
				"method": "rhf"
			},
			{
				"type": "unocc",
				"energy": 0.03156,
				"method": "rhf"
			},
			{
				"type": "unocc",
				"energy": 0.06348,
				"method": "rhf"
			}
		],
		"cosmo_sigma_profile": { 
			"-0.025": 0.0,
			"-0.024": 0.0,
			"-0.023": 0.0,
			"-0.022": 0.0,
			"-0.021": 0.0,
			"-0.02": 0.0,
			"-0.019": 0.129037899816,
			"-0.018": 0.782984512428,
			"-0.017": 0.879385381532,
			"-0.016": 0.644361986761,
			"-0.015": 0.746242455612,
			"-0.014": 1.04681105042,
			"-0.013": 0.671125391052,
			"-0.012": 0.418724383007,
			"-0.011": 0.875589975427,
			"-0.01": 0.591717515898,
			"-0.009": 3.25719343241,
			"-0.008": 3.42614386004,
			"-0.007": 9.52844119032,
			"-0.006": 15.7691580936,
			"-0.005": 22.7151614022,
			"-0.004": 30.2963851856,
			"-0.003": 30.891621076,
			"-0.002": 24.8387230089,
			"-0.001": 21.7526380574,
			"0.0": 12.8899909025,
			"0.001": 10.8281667529,
			"0.002": 9.15752952468,
			"0.003": 8.08759486474,
			"0.004": 6.65417864355,
			"0.005": 4.95590915388,
			"0.006": 5.52551771473,
			"0.007": 6.413550576,
			"0.008": 5.63753858526,
			"0.009": 4.74199031103,
			"0.01": 4.97958384113,
			"0.011": 8.30287242332,
			"0.012": 8.95028000869,
			"0.013": 5.93772949073,
			"0.014": 6.19265645709,
			"0.015": 2.03242690682,
			"0.016": 0.0719535764489,
			"0.017": 0.0,
			"0.018": 0.0,
			"0.019": 0.0,
			"0.02": 0.0,
			"0.021": 0.0,
			"0.022": 0.0,
			"0.023": 0.0,
			"0.024": 0.0,
			"0.025": 0.0
		}
	}
}
