{
	 "smiles": "CN(C)C(=O)C1=C(N)C=C(Cl)C=C1", 
	 "Tm": 339.15, 
	 "num_atms": 24, 
	 "gaussian": { 
		 "optdone": 1, 
		 "sigma_profile": "yes", 
		 "theory": "DFT", 
		 "functional": "B3LYP", 
		 "basiset": "6-31G**", 
		 "properties": { 
			 "R2extent": 3964.7926, 
			 "electric_dipole_moment_norm": 2.43509700833, 
			 "electric_quadrupole_moment_norm": 13.0962404441, 
			 "total_energy": -994.526490239, 
			 "HOMO_LUMO_gap": 0.17631, 
			 "cosmo_polarized_energy": -10.79, 
			 "cosmo_cavitation_energy": 28.7, 
			 "cosmo_dispersion_energy": -21.24, 
			 "cosmo_repulsion_energy": 1.69, 
			 "cosmo_total_nonelectrostatic_energy": 9.15, 
			 "SMD_solvation_energy": 4.93 
		},
		"coords": [
			{
				"x": -1.5171267927,
				"y": -0.6901196894,
				"z": 1.1914469412,
				"element": "C" 
			},
			{
				"x": -1.8496518104,
				"y": 0.7201114554,
				"z": 1.0263667853,
				"element": "N" 
			},
			{
				"x": -3.1464977257,
				"y": 1.1093959956,
				"z": 1.5680454341,
				"element": "C" 
			},
			{
				"x": -1.2453331556,
				"y": 1.5761808034,
				"z": 0.1344167607,
				"element": "C" 
			},
			{
				"x": -1.8350635063,
				"y": 2.5904541398,
				"z": -0.2645119489,
				"element": "O" 
			},
			{
				"x": 0.1575004539,
				"y": 1.2893106557,
				"z": -0.3049818232,
				"element": "C" 
			},
			{
				"x": 0.5568587589,
				"y": 1.6249509044,
				"z": -1.6301683473,
				"element": "C" 
			},
			{
				"x": -0.3445906619,
				"y": 2.1274791388,
				"z": -2.5416034163,
				"element": "N" 
			},
			{
				"x": 1.8910416017,
				"y": 1.3815376089,
				"z": -2.0148449397,
				"element": "C" 
			},
			{
				"x": 2.802568838,
				"y": 0.8788759398,
				"z": -1.0984010954,
				"element": "C" 
			},
			{
				"x": 4.4621524841,
				"y": 0.6078958365,
				"z": -1.6148652922,
				"element": "Cl" 
			},
			{
				"x": 2.4473919356,
				"y": 0.600428608,
				"z": 0.2227507926,
				"element": "C" 
			},
			{
				"x": 1.1229011008,
				"y": 0.8119008283,
				"z": 0.592306918,
				"element": "C" 
			},
			{
				"x": -2.3849847334,
				"y": -1.3052804348,
				"z": 0.9197875703,
				"element": "H" 
			},
			{
				"x": -0.6864276762,
				"y": -0.9705697271,
				"z": 0.5475709294,
				"element": "H" 
			},
			{
				"x": -1.2536391528,
				"y": -0.9199435801,
				"z": 2.2316913472,
				"element": "H" 
			},
			{
				"x": -3.217711142,
				"y": 0.777337863,
				"z": 2.609298301,
				"element": "H" 
			},
			{
				"x": -3.246485003,
				"y": 2.191772489,
				"z": 1.5149397943,
				"element": "H" 
			},
			{
				"x": -3.9705187871,
				"y": 0.6545927134,
				"z": 1.0012861674,
				"element": "H" 
			},
			{
				"x": -1.1269129091,
				"y": 2.616834023,
				"z": -2.1201406701,
				"element": "H" 
			},
			{
				"x": 0.0482993391,
				"y": 2.5596780066,
				"z": -3.3643240872,
				"element": "H" 
			},
			{
				"x": 2.2079217059,
				"y": 1.6067544538,
				"z": -3.0278694294,
				"element": "H" 
			},
			{
				"x": 3.1818542719,
				"y": 0.2373200443,
				"z": 0.9310239551,
				"element": "H" 
			},
			{
				"x": 0.8304525661,
				"y": 0.6193019236,
				"z": 1.6197793531,
				"element": "H" 
			}
		],
		 "valence_orbital": [ 
			{
				"type": "occ",
				"energy": -0.30426,
				"method": "rhf"
			},
			{
				"type": "occ",
				"energy": -0.26291,
				"method": "rhf"
			},
			{
				"type": "occ",
				"energy": -0.24629,
				"method": "rhf"
			},
			{
				"type": "occ",
				"energy": -0.24138,
				"method": "rhf"
			},
			{
				"type": "occ",
				"energy": -0.2097,
				"method": "rhf"
			},
			{
				"type": "unocc",
				"energy": -0.03339,
				"method": "rhf"
			},
			{
				"type": "unocc",
				"energy": 0.00184,
				"method": "rhf"
			},
			{
				"type": "unocc",
				"energy": 0.03163,
				"method": "rhf"
			},
			{
				"type": "unocc",
				"energy": 0.04495,
				"method": "rhf"
			},
			{
				"type": "unocc",
				"energy": 0.08649,
				"method": "rhf"
			}
		],
		"cosmo_sigma_profile": { 
			"-0.025": 0.0,
			"-0.024": 0.0,
			"-0.023": 0.0,
			"-0.022": 0.0,
			"-0.021": 0.0,
			"-0.02": 0.0,
			"-0.019": 0.0,
			"-0.018": 0.0,
			"-0.017": 0.0,
			"-0.016": 0.0,
			"-0.015": 0.0,
			"-0.014": 0.00391670039832,
			"-0.013": 1.08728943486,
			"-0.012": 1.83146148532,
			"-0.011": 1.29487155672,
			"-0.01": 1.24963891718,
			"-0.009": 1.91164641552,
			"-0.008": 2.24065691141,
			"-0.007": 4.59058235674,
			"-0.006": 6.46309976767,
			"-0.005": 13.8884909469,
			"-0.004": 20.7408258016,
			"-0.003": 21.8596498378,
			"-0.002": 23.2978400647,
			"-0.001": 15.1132489929,
			"0.0": 11.8881002495,
			"0.001": 13.47390017,
			"0.002": 17.2556681787,
			"0.003": 19.333031809,
			"0.004": 20.5927658555,
			"0.005": 11.7418842989,
			"0.006": 2.75000015733,
			"0.007": 2.1048067948,
			"0.008": 1.53626429963,
			"0.009": 1.86357826436,
			"0.01": 3.11756501392,
			"0.011": 2.06109218321,
			"0.012": 2.69998380136,
			"0.013": 3.31699018475,
			"0.014": 0.633266669452,
			"0.015": 0.0,
			"0.016": 0.0,
			"0.017": 0.0,
			"0.018": 0.0,
			"0.019": 0.0,
			"0.02": 0.0,
			"0.021": 0.0,
			"0.022": 0.0,
			"0.023": 0.0,
			"0.024": 0.0,
			"0.025": 0.0
		}
	}
}
