{
	 "smiles": "COC(=O)C1=C(O)C=CC(=C1)C(C)=O", 
	 "Tm": 333.65, 
	 "num_atms": 24, 
	 "gaussian": { 
		 "optdone": 1, 
		 "sigma_profile": "yes", 
		 "theory": "DFT", 
		 "functional": "B3LYP", 
		 "basiset": "6-31G**", 
		 "properties": { 
			 "R2extent": 4157.4657, 
			 "electric_dipole_moment_norm": 3.67642520528, 
			 "electric_quadrupole_moment_norm": 11.1535883002, 
			 "total_energy": -687.991581165, 
			 "HOMO_LUMO_gap": 0.18652, 
			 "cosmo_polarized_energy": -19.35, 
			 "cosmo_cavitation_energy": 28.95, 
			 "cosmo_dispersion_energy": -21.03, 
			 "cosmo_repulsion_energy": 1.66, 
			 "cosmo_total_nonelectrostatic_energy": 9.58, 
			 "SMD_solvation_energy": 7.69 
		},
		"coords": [
			{
				"x": 5.3283595844,
				"y": 0.3261322444,
				"z": -1.3394154229,
				"element": "C" 
			},
			{
				"x": 3.9430116924,
				"y": 0.0803272383,
				"z": -1.0621627368,
				"element": "O" 
			},
			{
				"x": 3.607776506,
				"y": 0.1055339876,
				"z": 0.2532372331,
				"element": "C" 
			},
			{
				"x": 4.4180864138,
				"y": 0.3193441998,
				"z": 1.1301305587,
				"element": "O" 
			},
			{
				"x": 2.1508177503,
				"y": -0.1588624157,
				"z": 0.4460715125,
				"element": "C" 
			},
			{
				"x": 1.572174359,
				"y": -0.1866735579,
				"z": 1.740596763,
				"element": "C" 
			},
			{
				"x": 2.3463058677,
				"y": 0.0283094492,
				"z": 2.8253535243,
				"element": "O" 
			},
			{
				"x": 0.1974525824,
				"y": -0.4385292031,
				"z": 1.877672911,
				"element": "C" 
			},
			{
				"x": -0.601847997,
				"y": -0.6603211128,
				"z": 0.7657370902,
				"element": "C" 
			},
			{
				"x": -0.0500967031,
				"y": -0.6374262681,
				"z": -0.5247126972,
				"element": "C" 
			},
			{
				"x": 1.3206308924,
				"y": -0.3859887724,
				"z": -0.6552061046,
				"element": "C" 
			},
			{
				"x": -0.851836494,
				"y": -0.8676533241,
				"z": -1.7650982019,
				"element": "C" 
			},
			{
				"x": -2.3418607825,
				"y": -1.1413658415,
				"z": -1.6318599496,
				"element": "C" 
			},
			{
				"x": -0.3233267876,
				"y": -0.8371565636,
				"z": -2.8669462908,
				"element": "O" 
			},
			{
				"x": 5.9582611412,
				"y": -0.4274168888,
				"z": -0.8595751309,
				"element": "H" 
			},
			{
				"x": 5.626147094,
				"y": 1.3132054928,
				"z": -0.976297262,
				"element": "H" 
			},
			{
				"x": 5.4242036257,
				"y": 0.2716768025,
				"z": -2.4238286001,
				"element": "H" 
			},
			{
				"x": 1.7958495625,
				"y": -0.0265040086,
				"z": 3.6188210122,
				"element": "H" 
			},
			{
				"x": -0.237959059,
				"y": -0.4580298522,
				"z": 2.8745945581,
				"element": "H" 
			},
			{
				"x": -1.6601292272,
				"y": -0.8516426382,
				"z": 0.9113673805,
				"element": "H" 
			},
			{
				"x": 1.7420939771,
				"y": -0.3692356996,
				"z": -1.6523197048,
				"element": "H" 
			},
			{
				"x": -2.5262766815,
				"y": -2.0387834372,
				"z": -1.0307122405,
				"element": "H" 
			},
			{
				"x": -2.8541355166,
				"y": -0.3068188303,
				"z": -1.1400788098,
				"element": "H" 
			},
			{
				"x": -2.7597018006,
				"y": -1.2834210008,
				"z": -2.6287693917,
				"element": "H" 
			}
		],
		 "valence_orbital": [ 
			{
				"type": "occ",
				"energy": -0.29555,
				"method": "rhf"
			},
			{
				"type": "occ",
				"energy": -0.27147,
				"method": "rhf"
			},
			{
				"type": "occ",
				"energy": -0.26499,
				"method": "rhf"
			},
			{
				"type": "occ",
				"energy": -0.24709,
				"method": "rhf"
			},
			{
				"type": "occ",
				"energy": -0.24112,
				"method": "rhf"
			},
			{
				"type": "unocc",
				"energy": -0.0546,
				"method": "rhf"
			},
			{
				"type": "unocc",
				"energy": -0.04317,
				"method": "rhf"
			},
			{
				"type": "unocc",
				"energy": 0.02384,
				"method": "rhf"
			},
			{
				"type": "unocc",
				"energy": 0.05667,
				"method": "rhf"
			},
			{
				"type": "unocc",
				"energy": 0.07383,
				"method": "rhf"
			}
		],
		"cosmo_sigma_profile": { 
			"-0.025": 0.0,
			"-0.024": 0.0,
			"-0.023": 0.0,
			"-0.022": 0.0,
			"-0.021": 0.0,
			"-0.02": 0.0,
			"-0.019": 0.564769883519,
			"-0.018": 1.22827886876,
			"-0.017": 1.46123074183,
			"-0.016": 1.02890847331,
			"-0.015": 1.00978328111,
			"-0.014": 0.605837167971,
			"-0.013": 0.709344329267,
			"-0.012": 1.66770099363,
			"-0.011": 1.30008641678,
			"-0.01": 0.627551605492,
			"-0.009": 1.22331562959,
			"-0.008": 1.97394616449,
			"-0.007": 6.96381208858,
			"-0.006": 13.9044834257,
			"-0.005": 16.1367836596,
			"-0.004": 15.4089100382,
			"-0.003": 17.890774009,
			"-0.002": 15.2349278478,
			"-0.001": 17.8892500929,
			"0.0": 17.3908225885,
			"0.001": 18.0982365347,
			"0.002": 15.8713529055,
			"0.003": 10.56177494,
			"0.004": 5.83253980312,
			"0.005": 5.66659916588,
			"0.006": 4.22854794405,
			"0.007": 2.52231885942,
			"0.008": 4.41527845457,
			"0.009": 3.28017610287,
			"0.01": 3.70404343658,
			"0.011": 5.71098721855,
			"0.012": 8.37348758738,
			"0.013": 4.36300832665,
			"0.014": 1.54078580214,
			"0.015": 1.51116354399,
			"0.016": 0.567456848669,
			"0.017": 0.0,
			"0.018": 0.0,
			"0.019": 0.0,
			"0.02": 0.0,
			"0.021": 0.0,
			"0.022": 0.0,
			"0.023": 0.0,
			"0.024": 0.0,
			"0.025": 0.0
		}
	}
}
