{
	 "smiles": "CC(C)(C)OC(=O)N1C(CO)CC2=C1C=CC=C2", 
	 "Tm": 359.65, 
	 "num_atms": 37, 
	 "gaussian": { 
		 "optdone": 1, 
		 "sigma_profile": "yes", 
		 "theory": "DFT", 
		 "functional": "B3LYP", 
		 "basiset": "6-31G**", 
		 "properties": { 
			 "R2extent": 5342.283, 
			 "electric_dipole_moment_norm": 1.68354791438, 
			 "electric_quadrupole_moment_norm": 9.35395402918, 
			 "total_energy": -825.397149681, 
			 "HOMO_LUMO_gap": 0.20431, 
			 "cosmo_polarized_energy": -11.43, 
			 "cosmo_cavitation_energy": 38.18, 
			 "cosmo_dispersion_energy": -26.48, 
			 "cosmo_repulsion_energy": 2.06, 
			 "cosmo_total_nonelectrostatic_energy": 13.76, 
			 "SMD_solvation_energy": 6.95 
		},
		"coords": [
			{
				"x": 3.3484691143,
				"y": -2.8697191361,
				"z": 0.8148360104,
				"element": "C" 
			},
			{
				"x": 3.4743158631,
				"y": -1.3594317095,
				"z": 0.597697061,
				"element": "C" 
			},
			{
				"x": 3.7845532114,
				"y": -0.6452903603,
				"z": 1.9173067724,
				"element": "C" 
			},
			{
				"x": 4.5094155644,
				"y": -1.0533394266,
				"z": -0.4897514635,
				"element": "C" 
			},
			{
				"x": 2.1255751628,
				"y": -0.9903619903,
				"z": 0.1274441192,
				"element": "O" 
			},
			{
				"x": 1.8318324253,
				"y": 0.2892595289,
				"z": -0.1856008475,
				"element": "C" 
			},
			{
				"x": 2.5967805748,
				"y": 1.240812469,
				"z": -0.1024041432,
				"element": "O" 
			},
			{
				"x": 0.5361818977,
				"y": 0.4268608973,
				"z": -0.6279609408,
				"element": "N" 
			},
			{
				"x": 0.0727386124,
				"y": 1.7634939845,
				"z": -1.0766835827,
				"element": "C" 
			},
			{
				"x": -0.275862023,
				"y": 2.6323015241,
				"z": 0.1355653315,
				"element": "C" 
			},
			{
				"x": -0.7395443157,
				"y": 3.8795323186,
				"z": -0.3674477672,
				"element": "O" 
			},
			{
				"x": -1.1588331738,
				"y": 1.455732665,
				"z": -1.9600435476,
				"element": "C" 
			},
			{
				"x": -1.524381317,
				"y": 0.0412134291,
				"z": -1.5745639228,
				"element": "C" 
			},
			{
				"x": -0.4859368143,
				"y": -0.5363239104,
				"z": -0.8246297979,
				"element": "C" 
			},
			{
				"x": -0.5748246595,
				"y": -1.8540316253,
				"z": -0.3724839078,
				"element": "C" 
			},
			{
				"x": -1.7257723717,
				"y": -2.5835127607,
				"z": -0.6916200273,
				"element": "C" 
			},
			{
				"x": -2.763038563,
				"y": -2.0190458948,
				"z": -1.4350869783,
				"element": "C" 
			},
			{
				"x": -2.6610009173,
				"y": -0.6954259362,
				"z": -1.8803779504,
				"element": "C" 
			},
			{
				"x": 4.3042616726,
				"y": -3.2794468129,
				"z": 1.1546041674,
				"element": "H" 
			},
			{
				"x": 3.0673813917,
				"y": -3.3719904477,
				"z": -0.1152507592,
				"element": "H" 
			},
			{
				"x": 2.5909497416,
				"y": -3.0917355496,
				"z": 1.5725532643,
				"element": "H" 
			},
			{
				"x": 3.8625568487,
				"y": 0.4319049967,
				"z": 1.7706507046,
				"element": "H" 
			},
			{
				"x": 4.7318572258,
				"y": -1.018057645,
				"z": 2.3203479535,
				"element": "H" 
			},
			{
				"x": 2.9998564105,
				"y": -0.8491122259,
				"z": 2.6528888583,
				"element": "H" 
			},
			{
				"x": 4.2320742442,
				"y": -1.5459198302,
				"z": -1.4270523279,
				"element": "H" 
			},
			{
				"x": 5.4875662135,
				"y": -1.4365521638,
				"z": -0.1813550574,
				"element": "H" 
			},
			{
				"x": 4.5895052832,
				"y": 0.019812927,
				"z": -0.662974721,
				"element": "H" 
			},
			{
				"x": 0.8763345148,
				"y": 2.2539179307,
				"z": -1.6283294643,
				"element": "H" 
			},
			{
				"x": -1.0486768717,
				"y": 2.1232146479,
				"z": 0.7344836278,
				"element": "H" 
			},
			{
				"x": 0.6238974525,
				"y": 2.7491538971,
				"z": 0.7525894024,
				"element": "H" 
			},
			{
				"x": -0.9037659784,
				"y": 4.4639192471,
				"z": 0.3819295355,
				"element": "H" 
			},
			{
				"x": -0.9037397915,
				"y": 1.5154204455,
				"z": -3.0255220594,
				"element": "H" 
			},
			{
				"x": -1.9540282441,
				"y": 2.1838626108,
				"z": -1.7791746805,
				"element": "H" 
			},
			{
				"x": 0.2211591513,
				"y": -2.2973942375,
				"z": 0.2077854301,
				"element": "H" 
			},
			{
				"x": -1.8083915649,
				"y": -3.6098029074,
				"z": -0.3447930809,
				"element": "H" 
			},
			{
				"x": -3.6481842785,
				"y": -2.6037519769,
				"z": -1.6667301498,
				"element": "H" 
			},
			{
				"x": -3.4625816924,
				"y": -0.2466669722,
				"z": -2.4613450611,
				"element": "H" 
			}
		],
		 "valence_orbital": [ 
			{
				"type": "occ",
				"energy": -0.29084,
				"method": "rhf"
			},
			{
				"type": "occ",
				"energy": -0.27067,
				"method": "rhf"
			},
			{
				"type": "occ",
				"energy": -0.26332,
				"method": "rhf"
			},
			{
				"type": "occ",
				"energy": -0.24216,
				"method": "rhf"
			},
			{
				"type": "occ",
				"energy": -0.20543,
				"method": "rhf"
			},
			{
				"type": "unocc",
				"energy": -0.00112,
				"method": "rhf"
			},
			{
				"type": "unocc",
				"energy": 0.00391,
				"method": "rhf"
			},
			{
				"type": "unocc",
				"energy": 0.06425,
				"method": "rhf"
			},
			{
				"type": "unocc",
				"energy": 0.07374,
				"method": "rhf"
			},
			{
				"type": "unocc",
				"energy": 0.08125,
				"method": "rhf"
			}
		],
		"cosmo_sigma_profile": { 
			"-0.025": 0.0,
			"-0.024": 0.0,
			"-0.023": 0.0,
			"-0.022": 0.0,
			"-0.021": 0.0,
			"-0.02": 0.0,
			"-0.019": 0.0,
			"-0.018": 0.0,
			"-0.017": 0.0,
			"-0.016": 0.592824345145,
			"-0.015": 1.25206880687,
			"-0.014": 1.00277049473,
			"-0.013": 0.996181419307,
			"-0.012": 0.687494451368,
			"-0.011": 1.02473337404,
			"-0.01": 0.876019316905,
			"-0.009": 0.674419091483,
			"-0.008": 0.736956417258,
			"-0.007": 1.04510357508,
			"-0.006": 2.82664819719,
			"-0.005": 10.4259243464,
			"-0.004": 27.737098579,
			"-0.003": 36.3454476454,
			"-0.002": 33.392689324,
			"-0.001": 33.6369881705,
			"0.0": 35.7422842296,
			"0.001": 25.0089378702,
			"0.002": 13.832893541,
			"0.003": 13.2141387833,
			"0.004": 11.3648909874,
			"0.005": 13.224239535,
			"0.006": 11.2737439957,
			"0.007": 4.91386096196,
			"0.008": 2.44542132309,
			"0.009": 2.41956468905,
			"0.01": 2.49758177508,
			"0.011": 3.38041782703,
			"0.012": 2.7324567227,
			"0.013": 3.39964853667,
			"0.014": 0.510697967632,
			"0.015": 0.0,
			"0.016": 0.0,
			"0.017": 0.0,
			"0.018": 0.0,
			"0.019": 0.0,
			"0.02": 0.0,
			"0.021": 0.0,
			"0.022": 0.0,
			"0.023": 0.0,
			"0.024": 0.0,
			"0.025": 0.0
		}
	}
}
