{
	 "smiles": "CC1=C(Br)SC(=N1)C1=CC=C(C=C1)C(F)(F)F", 
	 "Tm": 341.65, 
	 "num_atms": 24, 
	 "gaussian": { 
		 "optdone": 1, 
		 "sigma_profile": "yes", 
		 "theory": "DFT", 
		 "functional": "B3LYP", 
		 "basiset": "6-31G**", 
		 "properties": { 
			 "R2extent": 10448.6015, 
			 "electric_dipole_moment_norm": 2.10134844564, 
			 "electric_quadrupole_moment_norm": 10.6059976372, 
			 "total_energy": -3747.26022579, 
			 "HOMO_LUMO_gap": 0.15515, 
			 "cosmo_polarized_energy": -5.32, 
			 "cosmo_cavitation_energy": 34.18, 
			 "cosmo_dispersion_energy": -25.3, 
			 "cosmo_repulsion_energy": 1.85, 
			 "cosmo_total_nonelectrostatic_energy": 10.72, 
			 "SMD_solvation_energy": 4.32 
		},
		"coords": [
			{
				"x": 3.3095877284,
				"y": 3.249362796,
				"z": 1.325490179,
				"element": "C" 
			},
			{
				"x": 2.8562112503,
				"y": 1.8388313971,
				"z": 1.0878977213,
				"element": "C" 
			},
			{
				"x": 3.2577804186,
				"y": 0.7291426685,
				"z": 1.7894478718,
				"element": "C" 
			},
			{
				"x": 4.4734951973,
				"y": 0.6778444433,
				"z": 3.2239429078,
				"element": "Br" 
			},
			{
				"x": 2.4930857877,
				"y": -0.7132521378,
				"z": 1.1936633017,
				"element": "S" 
			},
			{
				"x": 1.6569602792,
				"y": 0.2885545412,
				"z": 0.0057381429,
				"element": "C" 
			},
			{
				"x": 1.9546470648,
				"y": 1.5603910653,
				"z": 0.089629739,
				"element": "N" 
			},
			{
				"x": 0.7197102957,
				"y": -0.2660560512,
				"z": -0.9786349638,
				"element": "C" 
			},
			{
				"x": 0.4165836487,
				"y": -1.6359741339,
				"z": -1.0342018087,
				"element": "C" 
			},
			{
				"x": -0.4773987351,
				"y": -2.1264859471,
				"z": -1.9802360801,
				"element": "C" 
			},
			{
				"x": -1.0843513059,
				"y": -1.2528699728,
				"z": -2.8858776093,
				"element": "C" 
			},
			{
				"x": -0.7915357532,
				"y": 0.1142104154,
				"z": -2.8391328408,
				"element": "C" 
			},
			{
				"x": 0.1014436709,
				"y": 0.6043735887,
				"z": -1.8945184219,
				"element": "C" 
			},
			{
				"x": -2.0068473783,
				"y": -1.7881776373,
				"z": -3.9469775381,
				"element": "C" 
			},
			{
				"x": -2.63200476,
				"y": -2.9177457796,
				"z": -3.5475830625,
				"element": "F" 
			},
			{
				"x": -1.3360423697,
				"y": -2.0911701112,
				"z": -5.0830107247,
				"element": "F" 
			},
			{
				"x": -2.9597158866,
				"y": -0.8908745098,
				"z": -4.2827583029,
				"element": "F" 
			},
			{
				"x": 2.8173550352,
				"y": 3.9110316234,
				"z": 0.6112796511,
				"element": "H" 
			},
			{
				"x": 3.0644911788,
				"y": 3.5810534289,
				"z": 2.3398006582,
				"element": "H" 
			},
			{
				"x": 4.393680104,
				"y": 3.3449296374,
				"z": 1.2049763197,
				"element": "H" 
			},
			{
				"x": 0.8760866379,
				"y": -2.3284719766,
				"z": -0.3346768804,
				"element": "H" 
			},
			{
				"x": -0.7113248206,
				"y": -3.1848573184,
				"z": -2.0111678669,
				"element": "H" 
			},
			{
				"x": -1.2705892439,
				"y": 0.7919817504,
				"z": -3.5374750313,
				"element": "H" 
			},
			{
				"x": 0.3340919558,
				"y": 1.6618282202,
				"z": -1.8455153611,
				"element": "H" 
			}
		],
		 "valence_orbital": [ 
			{
				"type": "occ",
				"energy": -0.29054,
				"method": "rhf"
			},
			{
				"type": "occ",
				"energy": -0.28844,
				"method": "rhf"
			},
			{
				"type": "occ",
				"energy": -0.28325,
				"method": "rhf"
			},
			{
				"type": "occ",
				"energy": -0.27404,
				"method": "rhf"
			},
			{
				"type": "occ",
				"energy": -0.22913,
				"method": "rhf"
			},
			{
				"type": "unocc",
				"energy": -0.07398,
				"method": "rhf"
			},
			{
				"type": "unocc",
				"energy": -0.02386,
				"method": "rhf"
			},
			{
				"type": "unocc",
				"energy": -0.01228,
				"method": "rhf"
			},
			{
				"type": "unocc",
				"energy": -0.00305,
				"method": "rhf"
			},
			{
				"type": "unocc",
				"energy": 0.00266,
				"method": "rhf"
			}
		],
		"cosmo_sigma_profile": { 
			"-0.025": 0.0,
			"-0.024": 0.0,
			"-0.023": 0.0,
			"-0.022": 0.0,
			"-0.021": 0.0,
			"-0.02": 0.0,
			"-0.019": 0.0,
			"-0.018": 0.0,
			"-0.017": 0.0,
			"-0.016": 0.0,
			"-0.015": 0.0,
			"-0.014": 0.0,
			"-0.013": 0.0,
			"-0.012": 0.0,
			"-0.011": 0.0,
			"-0.01": 0.0,
			"-0.009": 0.0,
			"-0.008": 2.023173742,
			"-0.007": 6.01719963927,
			"-0.006": 8.64952916249,
			"-0.005": 12.6372673505,
			"-0.004": 13.0385504633,
			"-0.003": 16.2605820631,
			"-0.002": 20.766307588,
			"-0.001": 28.7418725158,
			"0.0": 33.7550680692,
			"0.001": 35.1509449878,
			"0.002": 46.1497455807,
			"0.003": 42.642451656,
			"0.004": 6.08193448251,
			"0.005": 2.02460108989,
			"0.006": 1.14692285058,
			"0.007": 1.90797544666,
			"0.008": 1.23722396103,
			"0.009": 1.01197658551,
			"0.01": 1.27127376578,
			"0.011": 0.0305494598437,
			"0.012": 0.0,
			"0.013": 0.0,
			"0.014": 0.0,
			"0.015": 0.0,
			"0.016": 0.0,
			"0.017": 0.0,
			"0.018": 0.0,
			"0.019": 0.0,
			"0.02": 0.0,
			"0.021": 0.0,
			"0.022": 0.0,
			"0.023": 0.0,
			"0.024": 0.0,
			"0.025": 0.0
		}
	}
}
