{
	 "smiles": "CCCN(CCC)C(=O)CC1=C(N=C2C=CC(Cl)=CN12)C1=CC=C(Cl)C=C1", 
	 "Tm": 413.15, 
	 "num_atms": 50, 
	 "gaussian": { 
		 "optdone": 1, 
		 "sigma_profile": "yes", 
		 "theory": "DFT", 
		 "functional": "B3LYP", 
		 "basiset": "6-31G**", 
		 "properties": { 
			 "R2extent": 15152.0477, 
			 "electric_dipole_moment_norm": 4.72441965325, 
			 "electric_quadrupole_moment_norm": 21.3099045167, 
			 "total_energy": -1973.99573028, 
			 "HOMO_LUMO_gap": 0.16321, 
			 "cosmo_polarized_energy": -17.93, 
			 "cosmo_cavitation_energy": 55.78, 
			 "cosmo_dispersion_energy": -36.65, 
			 "cosmo_repulsion_energy": 2.8, 
			 "cosmo_total_nonelectrostatic_energy": 21.93, 
			 "SMD_solvation_energy": 6.93 
		},
		"coords": [
			{
				"x": -2.0965212501,
				"y": -1.6649067561,
				"z": -3.3941761994,
				"element": "C" 
			},
			{
				"x": -1.2003562921,
				"y": -0.6542919806,
				"z": -4.1156545153,
				"element": "C" 
			},
			{
				"x": 0.0121750576,
				"y": -0.186426047,
				"z": -3.2953663906,
				"element": "C" 
			},
			{
				"x": -0.3344918414,
				"y": 0.517817882,
				"z": -2.0512254863,
				"element": "N" 
			},
			{
				"x": -0.7282245333,
				"y": 1.9245707391,
				"z": -2.1695039887,
				"element": "C" 
			},
			{
				"x": 0.4473188085,
				"y": 2.9149656695,
				"z": -2.1775114169,
				"element": "C" 
			},
			{
				"x": -0.0168175613,
				"y": 4.3579922381,
				"z": -2.3993759458,
				"element": "C" 
			},
			{
				"x": -0.2357165998,
				"y": -0.1664715169,
				"z": -0.8676146792,
				"element": "C" 
			},
			{
				"x": 0.0827793236,
				"y": -1.3530864504,
				"z": -0.8152745682,
				"element": "O" 
			},
			{
				"x": -0.5913280492,
				"y": 0.5919096209,
				"z": 0.4255885833,
				"element": "C" 
			},
			{
				"x": -0.1118268125,
				"y": -0.0671995513,
				"z": 1.6774360308,
				"element": "C" 
			},
			{
				"x": 0.8015863198,
				"y": 0.3477674543,
				"z": 2.6492867881,
				"element": "C" 
			},
			{
				"x": 0.7563948036,
				"y": -0.4491556149,
				"z": 3.760308242,
				"element": "N" 
			},
			{
				"x": -0.1559201953,
				"y": -1.3760282912,
				"z": 3.4973372303,
				"element": "C" 
			},
			{
				"x": -0.6199115991,
				"y": -2.4592711363,
				"z": 4.2775775481,
				"element": "C" 
			},
			{
				"x": -1.5931798955,
				"y": -3.2929637099,
				"z": 3.7846313285,
				"element": "C" 
			},
			{
				"x": -2.1098604626,
				"y": -3.0651077606,
				"z": 2.4790428045,
				"element": "C" 
			},
			{
				"x": -3.3255541018,
				"y": -4.1508458343,
				"z": 1.834331183,
				"element": "Cl" 
			},
			{
				"x": -1.6658640291,
				"y": -2.032388539,
				"z": 1.7003400758,
				"element": "C" 
			},
			{
				"x": -0.7155850075,
				"y": -1.1869100587,
				"z": 2.2186515032,
				"element": "N" 
			},
			{
				"x": 1.7216092831,
				"y": 1.4949913622,
				"z": 2.5949689357,
				"element": "C" 
			},
			{
				"x": 2.3399974032,
				"y": 1.8998964529,
				"z": 1.4006418332,
				"element": "C" 
			},
			{
				"x": 3.2076766569,
				"y": 2.9916943031,
				"z": 1.3720207829,
				"element": "C" 
			},
			{
				"x": 3.4702029096,
				"y": 3.6811695993,
				"z": 2.5542615793,
				"element": "C" 
			},
			{
				"x": 4.5601293512,
				"y": 5.0614439505,
				"z": 2.5274893596,
				"element": "Cl" 
			},
			{
				"x": 2.8922322121,
				"y": 3.2842009129,
				"z": 3.7611016919,
				"element": "C" 
			},
			{
				"x": 2.0267796293,
				"y": 2.1942527762,
				"z": 3.7748452524,
				"element": "C" 
			},
			{
				"x": -1.5274990581,
				"y": -2.5421148196,
				"z": -3.0729467072,
				"element": "H" 
			},
			{
				"x": -2.551377419,
				"y": -1.2239119765,
				"z": -2.5013551832,
				"element": "H" 
			},
			{
				"x": -2.9085820103,
				"y": -2.0007757995,
				"z": -4.0469123982,
				"element": "H" 
			},
			{
				"x": -1.7968614589,
				"y": 0.2133646097,
				"z": -4.428862266,
				"element": "H" 
			},
			{
				"x": -0.8101846515,
				"y": -1.0975231211,
				"z": -5.0410928432,
				"element": "H" 
			},
			{
				"x": 0.6243486543,
				"y": -1.0443704491,
				"z": -3.0129165002,
				"element": "H" 
			},
			{
				"x": 0.6298402967,
				"y": 0.4859569612,
				"z": -3.9027523559,
				"element": "H" 
			},
			{
				"x": -1.4289013545,
				"y": 2.1813152641,
				"z": -1.3701925076,
				"element": "H" 
			},
			{
				"x": -1.2940736941,
				"y": 2.0284486884,
				"z": -3.1025310828,
				"element": "H" 
			},
			{
				"x": 1.1554224349,
				"y": 2.6258802969,
				"z": -2.9636650735,
				"element": "H" 
			},
			{
				"x": 0.9926898173,
				"y": 2.8408715883,
				"z": -1.229055336,
				"element": "H" 
			},
			{
				"x": -0.7069907746,
				"y": 4.6810386382,
				"z": -1.6118011106,
				"element": "H" 
			},
			{
				"x": -0.5341657265,
				"y": 4.4675256389,
				"z": -3.3592315472,
				"element": "H" 
			},
			{
				"x": 0.8310781199,
				"y": 5.0489761336,
				"z": -2.3985411361,
				"element": "H" 
			},
			{
				"x": -0.2034509325,
				"y": 1.6123325485,
				"z": 0.4117086248,
				"element": "H" 
			},
			{
				"x": -1.6887281641,
				"y": 0.6872099734,
				"z": 0.4575944392,
				"element": "H" 
			},
			{
				"x": -0.1873421627,
				"y": -2.6003492108,
				"z": 5.2610191735,
				"element": "H" 
			},
			{
				"x": -1.9654920069,
				"y": -4.1281429121,
				"z": 4.365914502,
				"element": "H" 
			},
			{
				"x": -1.9775001084,
				"y": -1.8693615968,
				"z": 0.6795694917,
				"element": "H" 
			},
			{
				"x": 2.1806596331,
				"y": 1.3305296781,
				"z": 0.4904271386,
				"element": "H" 
			},
			{
				"x": 3.6902711935,
				"y": 3.2916690174,
				"z": 0.4483291407,
				"element": "H" 
			},
			{
				"x": 3.1182784149,
				"y": 3.8236490411,
				"z": 4.6743545524,
				"element": "H" 
			},
			{
				"x": 1.5759374295,
				"y": 1.8667620941,
				"z": 4.7053814221,
				"element": "H" 
			}
		],
		 "valence_orbital": [ 
			{
				"type": "occ",
				"energy": -0.26227,
				"method": "rhf"
			},
			{
				"type": "occ",
				"energy": -0.25822,
				"method": "rhf"
			},
			{
				"type": "occ",
				"energy": -0.24669,
				"method": "rhf"
			},
			{
				"type": "occ",
				"energy": -0.22364,
				"method": "rhf"
			},
			{
				"type": "occ",
				"energy": -0.20939,
				"method": "rhf"
			},
			{
				"type": "unocc",
				"energy": -0.04618,
				"method": "rhf"
			},
			{
				"type": "unocc",
				"energy": -0.02097,
				"method": "rhf"
			},
			{
				"type": "unocc",
				"energy": -0.0138,
				"method": "rhf"
			},
			{
				"type": "unocc",
				"energy": 0.00204,
				"method": "rhf"
			},
			{
				"type": "unocc",
				"energy": 0.01416,
				"method": "rhf"
			}
		],
		"cosmo_sigma_profile": { 
			"-0.025": 0.0,
			"-0.024": 0.0,
			"-0.023": 0.0,
			"-0.022": 0.0,
			"-0.021": 0.0,
			"-0.02": 0.0,
			"-0.019": 0.0,
			"-0.018": 0.0,
			"-0.017": 0.0,
			"-0.016": 0.0,
			"-0.015": 0.0,
			"-0.014": 0.0,
			"-0.013": 0.0,
			"-0.012": 0.0,
			"-0.011": 0.0,
			"-0.01": 0.0617095728404,
			"-0.009": 1.18866806126,
			"-0.008": 5.95680739683,
			"-0.007": 12.9832318692,
			"-0.006": 16.4096810699,
			"-0.005": 22.4899931415,
			"-0.004": 25.1976780715,
			"-0.003": 36.8203951758,
			"-0.002": 42.3994034324,
			"-0.001": 46.4458882638,
			"0.0": 47.5170355929,
			"0.001": 49.0186161906,
			"0.002": 37.0241124647,
			"0.003": 31.1274562714,
			"0.004": 28.5117593031,
			"0.005": 13.7769496694,
			"0.006": 3.54324235182,
			"0.007": 3.26611918527,
			"0.008": 4.22639279238,
			"0.009": 3.50860061433,
			"0.01": 2.36060356152,
			"0.011": 2.28889080931,
			"0.012": 3.01208349161,
			"0.013": 3.29637596017,
			"0.014": 2.96893498786,
			"0.015": 0.641384160676,
			"0.016": 0.666574324242,
			"0.017": 0.112781378638,
			"0.018": 0.0,
			"0.019": 0.0,
			"0.02": 0.0,
			"0.021": 0.0,
			"0.022": 0.0,
			"0.023": 0.0,
			"0.024": 0.0,
			"0.025": 0.0
		}
	}
}
