{
	 "smiles": "OC1=NNC2=NC3=CC=CC=C3N=C12", 
	 "Tm": 577.15, 
	 "num_atms": 20, 
	 "gaussian": { 
		 "optdone": 1, 
		 "sigma_profile": "yes", 
		 "theory": "DFT", 
		 "functional": "B3LYP", 
		 "basiset": "6-31G**", 
		 "properties": { 
			 "R2extent": 4232.3266, 
			 "electric_dipole_moment_norm": 2.82305044943, 
			 "electric_quadrupole_moment_norm": 15.884527478, 
			 "total_energy": -640.77751451, 
			 "HOMO_LUMO_gap": 0.13176, 
			 "cosmo_polarized_energy": -13.11, 
			 "cosmo_cavitation_energy": 24.97, 
			 "cosmo_dispersion_energy": -19.29, 
			 "cosmo_repulsion_energy": 1.49, 
			 "cosmo_total_nonelectrostatic_energy": 7.17, 
			 "SMD_solvation_energy": 0.18 
		},
		"coords": [
			{
				"x": 1.9980851116,
				"y": 2.1141328938,
				"z": 4.9999501689,
				"element": "O" 
			},
			{
				"x": 2.0354815992,
				"y": 1.0285750735,
				"z": 4.2034629285,
				"element": "C" 
			},
			{
				"x": 2.62693699,
				"y": -0.0779942643,
				"z": 4.5769711486,
				"element": "N" 
			},
			{
				"x": 2.4755106926,
				"y": -0.9715932475,
				"z": 3.5308946679,
				"element": "N" 
			},
			{
				"x": 1.7873857057,
				"y": -0.4375785208,
				"z": 2.4878759708,
				"element": "C" 
			},
			{
				"x": 1.4491222887,
				"y": -0.9722996637,
				"z": 1.331320744,
				"element": "N" 
			},
			{
				"x": 0.7535770905,
				"y": -0.1203890984,
				"z": 0.5291090559,
				"element": "C" 
			},
			{
				"x": 0.3289981409,
				"y": -0.5772723706,
				"z": -0.7499146757,
				"element": "C" 
			},
			{
				"x": -0.3750184164,
				"y": 0.2503666758,
				"z": -1.590223388,
				"element": "C" 
			},
			{
				"x": -0.6963537073,
				"y": 1.5810674015,
				"z": -1.203805538,
				"element": "C" 
			},
			{
				"x": -0.3059123343,
				"y": 2.0615656242,
				"z": 0.0212583729,
				"element": "C" 
			},
			{
				"x": 0.4252632087,
				"y": 1.237346577,
				"z": 0.9223415727,
				"element": "C" 
			},
			{
				"x": 0.7958653114,
				"y": 1.7467136707,
				"z": 2.1277433784,
				"element": "N" 
			},
			{
				"x": 1.4676095898,
				"y": 0.9027643661,
				"z": 2.8852574681,
				"element": "C" 
			},
			{
				"x": 1.5149121157,
				"y": 2.8036579541,
				"z": 4.5215356947,
				"element": "H" 
			},
			{
				"x": 2.8639580732,
				"y": -1.8964878414,
				"z": 3.6162651358,
				"element": "H" 
			},
			{
				"x": 0.5832739071,
				"y": -1.5951169824,
				"z": -1.0272448628,
				"element": "H" 
			},
			{
				"x": -0.692727248,
				"y": -0.1116619197,
				"z": -2.5636985782,
				"element": "H" 
			},
			{
				"x": -1.2538305636,
				"y": 2.2155035402,
				"z": -1.8861269961,
				"element": "H" 
			},
			{
				"x": -0.5365375555,
				"y": 3.0721001319,
				"z": 0.3433277319,
				"element": "H" 
			}
		],
		 "valence_orbital": [ 
			{
				"type": "occ",
				"energy": -0.30889,
				"method": "rhf"
			},
			{
				"type": "occ",
				"energy": -0.26161,
				"method": "rhf"
			},
			{
				"type": "occ",
				"energy": -0.26151,
				"method": "rhf"
			},
			{
				"type": "occ",
				"energy": -0.25653,
				"method": "rhf"
			},
			{
				"type": "occ",
				"energy": -0.22029,
				"method": "rhf"
			},
			{
				"type": "unocc",
				"energy": -0.08853,
				"method": "rhf"
			},
			{
				"type": "unocc",
				"energy": -0.01658,
				"method": "rhf"
			},
			{
				"type": "unocc",
				"energy": 0.0017,
				"method": "rhf"
			},
			{
				"type": "unocc",
				"energy": 0.05,
				"method": "rhf"
			},
			{
				"type": "unocc",
				"energy": 0.06457,
				"method": "rhf"
			}
		],
		"cosmo_sigma_profile": { 
			"-0.025": 0.0,
			"-0.024": 0.0,
			"-0.023": 0.0,
			"-0.022": 0.0,
			"-0.021": 0.0,
			"-0.02": 0.0,
			"-0.019": 0.0,
			"-0.018": 0.388743985109,
			"-0.017": 1.25302764072,
			"-0.016": 2.37410951931,
			"-0.015": 2.17995257668,
			"-0.014": 0.943771503825,
			"-0.013": 1.51231108664,
			"-0.012": 1.52516503069,
			"-0.011": 2.70676987917,
			"-0.01": 1.29510080682,
			"-0.009": 0.888367544578,
			"-0.008": 1.92911473929,
			"-0.007": 4.48508953713,
			"-0.006": 10.111766176,
			"-0.005": 10.3584167565,
			"-0.004": 9.68923017259,
			"-0.003": 13.1659840418,
			"-0.002": 12.7652962778,
			"-0.001": 12.2718772053,
			"0.0": 14.8646604544,
			"0.001": 14.6046175909,
			"0.002": 18.1115589404,
			"0.003": 15.6823767344,
			"0.004": 9.18696253993,
			"0.005": 3.8801088602,
			"0.006": 5.9040433398,
			"0.007": 5.41369229604,
			"0.008": 4.68764315896,
			"0.009": 5.57288994828,
			"0.01": 5.70156934535,
			"0.011": 2.70872202832,
			"0.012": 2.13057426883,
			"0.013": 2.13578435819,
			"0.014": 1.12565456979,
			"0.015": 0.132276026201,
			"0.016": 0.0,
			"0.017": 0.0,
			"0.018": 0.0,
			"0.019": 0.0,
			"0.02": 0.0,
			"0.021": 0.0,
			"0.022": 0.0,
			"0.023": 0.0,
			"0.024": 0.0,
			"0.025": 0.0
		}
	}
}
