{
	 "smiles": "CC(CCC1=C(C2=CC=C(C)O2)C2=C(O1)C=CC(=C2)[N+]([O-])=O)=NO", 
	 "Tm": 433.15, 
	 "num_atms": 40, 
	 "gaussian": { 
		 "optdone": 1, 
		 "sigma_profile": "yes", 
		 "theory": "DFT", 
		 "functional": "B3LYP", 
		 "basiset": "6-31G**", 
		 "properties": { 
			 "R2extent": 10567.6388, 
			 "electric_dipole_moment_norm": 5.64816470192, 
			 "electric_quadrupole_moment_norm": 33.7516815166, 
			 "total_energy": -1142.91395535, 
			 "HOMO_LUMO_gap": 0.12507, 
			 "cosmo_polarized_energy": -15.19, 
			 "cosmo_cavitation_energy": 46.02, 
			 "cosmo_dispersion_energy": -31.0, 
			 "cosmo_repulsion_energy": 2.34, 
			 "cosmo_total_nonelectrostatic_energy": 17.36, 
			 "SMD_solvation_energy": 10.43 
		},
		"coords": [
			{
				"x": -1.5444587772,
				"y": -3.107357519,
				"z": 3.4298413038,
				"element": "C" 
			},
			{
				"x": -1.0340875459,
				"y": -1.6973808776,
				"z": 3.5447630527,
				"element": "C" 
			},
			{
				"x": -0.8390471998,
				"y": -0.8805054656,
				"z": 2.2889784058,
				"element": "C" 
			},
			{
				"x": 0.6569059634,
				"y": -0.8208275547,
				"z": 1.8685849516,
				"element": "C" 
			},
			{
				"x": 0.867454627,
				"y": -0.0549444741,
				"z": 0.6103272952,
				"element": "C" 
			},
			{
				"x": 1.0105525097,
				"y": -0.4180686688,
				"z": -0.7059402413,
				"element": "C" 
			},
			{
				"x": 1.0154381091,
				"y": -1.753696607,
				"z": -1.2640562449,
				"element": "C" 
			},
			{
				"x": 1.4799724947,
				"y": -2.2761055203,
				"z": -2.4419516001,
				"element": "C" 
			},
			{
				"x": 1.1885502306,
				"y": -3.6762652054,
				"z": -2.4139101312,
				"element": "C" 
			},
			{
				"x": 0.5682114653,
				"y": -3.9284729968,
				"z": -1.225841757,
				"element": "C" 
			},
			{
				"x": 0.0198890152,
				"y": -5.1565276009,
				"z": -0.5901671803,
				"element": "C" 
			},
			{
				"x": 0.4534817823,
				"y": -2.7624434271,
				"z": -0.513384893,
				"element": "O" 
			},
			{
				"x": 1.1564271202,
				"y": 0.8241695427,
				"z": -1.4459274869,
				"element": "C" 
			},
			{
				"x": 1.084096013,
				"y": 1.850336881,
				"z": -0.4829782027,
				"element": "C" 
			},
			{
				"x": 0.9037849463,
				"y": 1.321250434,
				"z": 0.7552590079,
				"element": "O" 
			},
			{
				"x": 1.1795401231,
				"y": 3.205530449,
				"z": -0.7827044597,
				"element": "C" 
			},
			{
				"x": 1.3482263227,
				"y": 3.5423024275,
				"z": -2.1208701527,
				"element": "C" 
			},
			{
				"x": 1.4074378425,
				"y": 2.5277761924,
				"z": -3.0905269797,
				"element": "C" 
			},
			{
				"x": 1.3123563261,
				"y": 1.1710983101,
				"z": -2.7898652342,
				"element": "C" 
			},
			{
				"x": 1.5740441426,
				"y": 2.9178158407,
				"z": -4.4973588479,
				"element": "N" 
			},
			{
				"x": 1.6527616724,
				"y": 4.1195259187,
				"z": -4.7547872154,
				"element": "O" 
			},
			{
				"x": 1.626526031,
				"y": 2.0204028416,
				"z": -5.3397193132,
				"element": "O" 
			},
			{
				"x": -0.7727904128,
				"y": -1.2798125219,
				"z": 4.7292157254,
				"element": "N" 
			},
			{
				"x": -0.2900419441,
				"y": 0.0486350696,
				"z": 4.7167274996,
				"element": "O" 
			},
			{
				"x": -2.548869253,
				"y": -3.119453761,
				"z": 2.9891348327,
				"element": "H" 
			},
			{
				"x": -1.5816452327,
				"y": -3.5842274405,
				"z": 4.4110168013,
				"element": "H" 
			},
			{
				"x": -0.8992169246,
				"y": -3.6988506037,
				"z": 2.7684596721,
				"element": "H" 
			},
			{
				"x": -1.1955822241,
				"y": 0.1393279697,
				"z": 2.4605379907,
				"element": "H" 
			},
			{
				"x": -1.420594624,
				"y": -1.3184317947,
				"z": 1.472338065,
				"element": "H" 
			},
			{
				"x": 1.224699314,
				"y": -0.3475226909,
				"z": 2.6747577258,
				"element": "H" 
			},
			{
				"x": 1.0378395927,
				"y": -1.834198074,
				"z": 1.7249711418,
				"element": "H" 
			},
			{
				"x": 1.995296763,
				"y": -1.7382086182,
				"z": -3.2235577913,
				"element": "H" 
			},
			{
				"x": 1.4150090882,
				"y": -4.4035811642,
				"z": -3.1803792398,
				"element": "H" 
			},
			{
				"x": -1.0521678596,
				"y": -5.0585395864,
				"z": -0.3828380247,
				"element": "H" 
			},
			{
				"x": 0.1615329161,
				"y": -6.0117636458,
				"z": -1.2546669685,
				"element": "H" 
			},
			{
				"x": 0.5209926605,
				"y": -5.3767251935,
				"z": 0.3600971977,
				"element": "H" 
			},
			{
				"x": 1.1208229778,
				"y": 3.9590669064,
				"z": -0.0057513065,
				"element": "H" 
			},
			{
				"x": 1.4320236972,
				"y": 4.5733332631,
				"z": -2.4383430731,
				"element": "H" 
			},
			{
				"x": 1.3475368139,
				"y": 0.4436198084,
				"z": -3.5892555194,
				"element": "H" 
			},
			{
				"x": -0.1663085629,
				"y": 0.2245191571,
				"z": 5.6583711942,
				"element": "H" 
			}
		],
		 "valence_orbital": [ 
			{
				"type": "occ",
				"energy": -0.27419,
				"method": "rhf"
			},
			{
				"type": "occ",
				"energy": -0.26593,
				"method": "rhf"
			},
			{
				"type": "occ",
				"energy": -0.25644,
				"method": "rhf"
			},
			{
				"type": "occ",
				"energy": -0.24939,
				"method": "rhf"
			},
			{
				"type": "occ",
				"energy": -0.20575,
				"method": "rhf"
			},
			{
				"type": "unocc",
				"energy": -0.08068,
				"method": "rhf"
			},
			{
				"type": "unocc",
				"energy": -0.04237,
				"method": "rhf"
			},
			{
				"type": "unocc",
				"energy": -0.01288,
				"method": "rhf"
			},
			{
				"type": "unocc",
				"energy": 0.00502,
				"method": "rhf"
			},
			{
				"type": "unocc",
				"energy": 0.01584,
				"method": "rhf"
			}
		],
		"cosmo_sigma_profile": { 
			"-0.025": 0.0,
			"-0.024": 0.0,
			"-0.023": 0.0,
			"-0.022": 0.0,
			"-0.021": 0.0,
			"-0.02": 0.0,
			"-0.019": 0.0,
			"-0.018": 0.00194299730977,
			"-0.017": 0.631475630156,
			"-0.016": 0.820317521708,
			"-0.015": 1.08776844064,
			"-0.014": 0.689043865481,
			"-0.013": 0.906625572775,
			"-0.012": 0.767231535944,
			"-0.011": 0.330019798989,
			"-0.01": 0.380049517808,
			"-0.009": 1.35739332436,
			"-0.008": 4.86997734342,
			"-0.007": 7.22341553512,
			"-0.006": 10.1150324118,
			"-0.005": 18.1574589345,
			"-0.004": 28.2932863856,
			"-0.003": 30.1160417353,
			"-0.002": 34.3915757975,
			"-0.001": 41.9829237609,
			"0.0": 38.1790119669,
			"0.001": 29.6284946941,
			"0.002": 24.5063389336,
			"0.003": 15.4642257373,
			"0.004": 14.4237489321,
			"0.005": 12.5310871179,
			"0.006": 12.0379917677,
			"0.007": 10.1190759108,
			"0.008": 12.0946984414,
			"0.009": 7.43014994995,
			"0.01": 4.65170627688,
			"0.011": 1.1618462139,
			"0.012": 1.00630698177,
			"0.013": 0.939735935749,
			"0.014": 0.503660260335,
			"0.015": 0.0344220421884,
			"0.016": 0.0,
			"0.017": 0.0,
			"0.018": 0.0,
			"0.019": 0.0,
			"0.02": 0.0,
			"0.021": 0.0,
			"0.022": 0.0,
			"0.023": 0.0,
			"0.024": 0.0,
			"0.025": 0.0
		}
	}
}
