{
	 "smiles": "OC(=O)C1=CC(OC2=CC=C(C=C2)C#N)=CC=C1", 
	 "Tm": 438.15, 
	 "num_atms": 27, 
	 "gaussian": { 
		 "optdone": 1, 
		 "sigma_profile": "yes", 
		 "theory": "DFT", 
		 "functional": "B3LYP", 
		 "basiset": "6-31G**", 
		 "properties": { 
			 "R2extent": 5987.6393, 
			 "electric_dipole_moment_norm": 4.21382983638, 
			 "electric_quadrupole_moment_norm": 32.4005050498, 
			 "total_energy": -819.318187951, 
			 "HOMO_LUMO_gap": 0.18396, 
			 "cosmo_polarized_energy": -21.47, 
			 "cosmo_cavitation_energy": 34.17, 
			 "cosmo_dispersion_energy": -23.64, 
			 "cosmo_repulsion_energy": 1.82, 
			 "cosmo_total_nonelectrostatic_energy": 12.35, 
			 "SMD_solvation_energy": 8.62 
		},
		"coords": [
			{
				"x": 0.2015656905,
				"y": -3.7801610215,
				"z": -0.0306319533,
				"element": "O" 
			},
			{
				"x": 0.4335635585,
				"y": -3.4954051433,
				"z": 1.2777920472,
				"element": "C" 
			},
			{
				"x": 0.6863897857,
				"y": -4.3839316046,
				"z": 2.0555603756,
				"element": "O" 
			},
			{
				"x": 0.3576410997,
				"y": -2.050597777,
				"z": 1.6831676073,
				"element": "C" 
			},
			{
				"x": 0.5065746328,
				"y": -1.0013878095,
				"z": 0.7671037922,
				"element": "C" 
			},
			{
				"x": 0.4437451669,
				"y": 0.3183159841,
				"z": 1.2186174707,
				"element": "C" 
			},
			{
				"x": 0.6789560797,
				"y": 1.3805055541,
				"z": 0.3616296486,
				"element": "O" 
			},
			{
				"x": -0.0787706333,
				"y": 1.5492723834,
				"z": -0.7714031186,
				"element": "C" 
			},
			{
				"x": -1.378500347,
				"y": 1.0482079899,
				"z": -0.9123294562,
				"element": "C" 
			},
			{
				"x": -2.0897159641,
				"y": 1.3118543248,
				"z": -2.0785320995,
				"element": "C" 
			},
			{
				"x": -1.5154128125,
				"y": 2.0767300319,
				"z": -3.1072864078,
				"element": "C" 
			},
			{
				"x": -0.2116490739,
				"y": 2.5810584651,
				"z": -2.9477651463,
				"element": "C" 
			},
			{
				"x": 0.5026269588,
				"y": 2.3174446793,
				"z": -1.7873381978,
				"element": "C" 
			},
			{
				"x": -2.2521061459,
				"y": 2.3425074036,
				"z": -4.3065774698,
				"element": "C" 
			},
			{
				"x": -2.8503957768,
				"y": 2.5574455324,
				"z": -5.2811301515,
				"element": "N" 
			},
			{
				"x": 0.2446293943,
				"y": 0.6048910232,
				"z": 2.5682637582,
				"element": "C" 
			},
			{
				"x": 0.1157723926,
				"y": -0.4462399194,
				"z": 3.4787467809,
				"element": "C" 
			},
			{
				"x": 0.175642195,
				"y": -1.767637034,
				"z": 3.0438121833,
				"element": "C" 
			},
			{
				"x": -0.1488104143,
				"y": -3.0047527965,
				"z": -0.4900866055,
				"element": "H" 
			},
			{
				"x": 0.7201579294,
				"y": -1.1835166463,
				"z": -0.2821729366,
				"element": "H" 
			},
			{
				"x": -1.8316701375,
				"y": 0.4698268151,
				"z": -0.1155764084,
				"element": "H" 
			},
			{
				"x": -3.0991933549,
				"y": 0.9316399673,
				"z": -2.1940840816,
				"element": "H" 
			},
			{
				"x": 0.2347274495,
				"y": 3.173547138,
				"z": -3.7391276664,
				"element": "H" 
			},
			{
				"x": 1.5090027505,
				"y": 2.6962570927,
				"z": -1.6468555358,
				"element": "H" 
			},
			{
				"x": 0.2080069497,
				"y": 1.6412742779,
				"z": 2.8866077483,
				"element": "H" 
			},
			{
				"x": -0.0316810035,
				"y": -0.2277485659,
				"z": 4.5317641049,
				"element": "H" 
			},
			{
				"x": 0.08810363,
				"y": -2.5967003448,
				"z": 3.736731718,
				"element": "H" 
			}
		],
		 "valence_orbital": [ 
			{
				"type": "occ",
				"energy": -0.29315,
				"method": "rhf"
			},
			{
				"type": "occ",
				"energy": -0.28934,
				"method": "rhf"
			},
			{
				"type": "occ",
				"energy": -0.28559,
				"method": "rhf"
			},
			{
				"type": "occ",
				"energy": -0.27507,
				"method": "rhf"
			},
			{
				"type": "occ",
				"energy": -0.25109,
				"method": "rhf"
			},
			{
				"type": "unocc",
				"energy": -0.06713,
				"method": "rhf"
			},
			{
				"type": "unocc",
				"energy": -0.05549,
				"method": "rhf"
			},
			{
				"type": "unocc",
				"energy": -0.03924,
				"method": "rhf"
			},
			{
				"type": "unocc",
				"energy": -0.03186,
				"method": "rhf"
			},
			{
				"type": "unocc",
				"energy": 0.03157,
				"method": "rhf"
			}
		],
		"cosmo_sigma_profile": { 
			"-0.025": 0.0,
			"-0.024": 0.0,
			"-0.023": 0.0,
			"-0.022": 0.0,
			"-0.021": 0.0,
			"-0.02": 0.0,
			"-0.019": 0.168821026516,
			"-0.018": 1.12012111662,
			"-0.017": 1.09900987589,
			"-0.016": 0.911741614992,
			"-0.015": 0.902871321176,
			"-0.014": 0.888208463244,
			"-0.013": 1.58904227715,
			"-0.012": 1.05433599389,
			"-0.011": 0.84912504834,
			"-0.01": 1.26083287771,
			"-0.009": 1.69717015484,
			"-0.008": 7.95486453255,
			"-0.007": 15.3632508255,
			"-0.006": 16.9650241881,
			"-0.005": 15.3878914139,
			"-0.004": 13.9176551482,
			"-0.003": 15.2850601879,
			"-0.002": 14.9369744385,
			"-0.001": 19.9597322343,
			"0.0": 18.5814058541,
			"0.001": 27.0507906415,
			"0.002": 25.1345876607,
			"0.003": 10.5059102007,
			"0.004": 5.83015324914,
			"0.005": 6.20200517709,
			"0.006": 5.6457783826,
			"0.007": 6.06487707546,
			"0.008": 6.81821402462,
			"0.009": 7.31561972741,
			"0.01": 7.73256435379,
			"0.011": 8.81624767812,
			"0.012": 6.25736400163,
			"0.013": 2.97359704726,
			"0.014": 0.185450015483,
			"0.015": 0.0,
			"0.016": 0.0,
			"0.017": 0.0,
			"0.018": 0.0,
			"0.019": 0.0,
			"0.02": 0.0,
			"0.021": 0.0,
			"0.022": 0.0,
			"0.023": 0.0,
			"0.024": 0.0,
			"0.025": 0.0
		}
	}
}
