{
	 "smiles": "ClC1=NC(=CC=C1)C(Cl)(Cl)Cl", 
	 "Tm": 336.15, 
	 "num_atms": 14, 
	 "gaussian": { 
		 "optdone": 1, 
		 "sigma_profile": "yes", 
		 "theory": "DFT", 
		 "functional": "B3LYP", 
		 "basiset": "6-31G**", 
		 "properties": { 
			 "R2extent": 3487.6909, 
			 "electric_dipole_moment_norm": 3.93654763086, 
			 "electric_quadrupole_moment_norm": 5.07153386166, 
			 "total_energy": -2125.94261491, 
			 "HOMO_LUMO_gap": 0.20525, 
			 "cosmo_polarized_energy": -7.33, 
			 "cosmo_cavitation_energy": 25.71, 
			 "cosmo_dispersion_energy": -19.14, 
			 "cosmo_repulsion_energy": 1.56, 
			 "cosmo_total_nonelectrostatic_energy": 8.13, 
			 "SMD_solvation_energy": 2.1 
		},
		"coords": [
			{
				"x": 2.1319499143,
				"y": -1.8344635419,
				"z": -0.8937202833,
				"element": "Cl" 
			},
			{
				"x": 0.6931251935,
				"y": -0.8327729552,
				"z": -0.781398577,
				"element": "C" 
			},
			{
				"x": 0.260386401,
				"y": -0.5514925981,
				"z": 0.4351474247,
				"element": "N" 
			},
			{
				"x": -0.827567796,
				"y": 0.2057500821,
				"z": 0.5535468159,
				"element": "C" 
			},
			{
				"x": -1.5274416569,
				"y": 0.7121784775,
				"z": -0.5462947739,
				"element": "C" 
			},
			{
				"x": -1.0532816222,
				"y": 0.4028240899,
				"z": -1.8187795199,
				"element": "C" 
			},
			{
				"x": 0.0851868465,
				"y": -0.3888183644,
				"z": -1.9564223792,
				"element": "C" 
			},
			{
				"x": -1.3155013388,
				"y": 0.5186905417,
				"z": 1.9762077803,
				"element": "C" 
			},
			{
				"x": -1.3551556267,
				"y": 2.3190735838,
				"z": 2.203735035,
				"element": "Cl" 
			},
			{
				"x": -3.0058080724,
				"y": -0.1146821337,
				"z": 2.169873206,
				"element": "Cl" 
			},
			{
				"x": -0.2834246193,
				"y": -0.1982925874,
				"z": 3.2356083503,
				"element": "Cl" 
			},
			{
				"x": -2.4099433275,
				"y": 1.3254315827,
				"z": -0.4103938728,
				"element": "H" 
			},
			{
				"x": -1.5670931198,
				"y": 0.7760578121,
				"z": -2.6991399653,
				"element": "H" 
			},
			{
				"x": 0.4887688243,
				"y": -0.6537839891,
				"z": -2.9259692407,
				"element": "H" 
			}
		],
		 "valence_orbital": [ 
			{
				"type": "occ",
				"energy": -0.32336,
				"method": "rhf"
			},
			{
				"type": "occ",
				"energy": -0.31677,
				"method": "rhf"
			},
			{
				"type": "occ",
				"energy": -0.30832,
				"method": "rhf"
			},
			{
				"type": "occ",
				"energy": -0.29323,
				"method": "rhf"
			},
			{
				"type": "occ",
				"energy": -0.27344,
				"method": "rhf"
			},
			{
				"type": "unocc",
				"energy": -0.06819,
				"method": "rhf"
			},
			{
				"type": "unocc",
				"energy": -0.05044,
				"method": "rhf"
			},
			{
				"type": "unocc",
				"energy": -0.04489,
				"method": "rhf"
			},
			{
				"type": "unocc",
				"energy": -0.00151,
				"method": "rhf"
			},
			{
				"type": "unocc",
				"energy": 0.01531,
				"method": "rhf"
			}
		],
		"cosmo_sigma_profile": { 
			"-0.025": 0.0,
			"-0.024": 0.0,
			"-0.023": 0.0,
			"-0.022": 0.0,
			"-0.021": 0.0,
			"-0.02": 0.0,
			"-0.019": 0.0,
			"-0.018": 0.0,
			"-0.017": 0.0,
			"-0.016": 0.0,
			"-0.015": 0.0,
			"-0.014": 0.0,
			"-0.013": 0.0,
			"-0.012": 0.0,
			"-0.011": 0.0,
			"-0.01": 0.0570294284538,
			"-0.009": 3.67991270131,
			"-0.008": 7.31804630867,
			"-0.007": 6.27820363762,
			"-0.006": 4.67964932433,
			"-0.005": 5.55864182723,
			"-0.004": 7.29019247804,
			"-0.003": 11.6802832809,
			"-0.002": 18.9601646004,
			"-0.001": 22.433761492,
			"0.0": 23.2442479938,
			"0.001": 20.085388146,
			"0.002": 24.6768675832,
			"0.003": 34.381067583,
			"0.004": 12.1731719087,
			"0.005": 3.99131086527,
			"0.006": 2.84131613605,
			"0.007": 1.1973142536,
			"0.008": 1.69663910731,
			"0.009": 1.13647326284,
			"0.01": 1.55998987671,
			"0.011": 0.941661220335,
			"0.012": 0.0868969812064,
			"0.013": 0.0,
			"0.014": 0.0,
			"0.015": 0.0,
			"0.016": 0.0,
			"0.017": 0.0,
			"0.018": 0.0,
			"0.019": 0.0,
			"0.02": 0.0,
			"0.021": 0.0,
			"0.022": 0.0,
			"0.023": 0.0,
			"0.024": 0.0,
			"0.025": 0.0
		}
	}
}
