{
	 "smiles": "COC1=C(C=C(N)C=C1)S(=O)(=O)N(C)C", 
	 "Tm": 418.15, 
	 "num_atms": 29, 
	 "gaussian": { 
		 "optdone": 1, 
		 "sigma_profile": "yes", 
		 "theory": "DFT", 
		 "functional": "B3LYP", 
		 "basiset": "6-31G**", 
		 "properties": { 
			 "R2extent": 3678.2618, 
			 "electric_dipole_moment_norm": 6.06062189301, 
			 "electric_quadrupole_moment_norm": 16.7512992633, 
			 "total_energy": -1084.6653468, 
			 "HOMO_LUMO_gap": 0.17166, 
			 "cosmo_polarized_energy": -20.36, 
			 "cosmo_cavitation_energy": 33.14, 
			 "cosmo_dispersion_energy": -23.53, 
			 "cosmo_repulsion_energy": 1.81, 
			 "cosmo_total_nonelectrostatic_energy": 11.42, 
			 "SMD_solvation_energy": 5.86 
		},
		"coords": [
			{
				"x": -2.2410384155,
				"y": -1.2357201382,
				"z": -1.3470463204,
				"element": "C" 
			},
			{
				"x": -1.2952580137,
				"y": -0.391500619,
				"z": -0.7122198676,
				"element": "O" 
			},
			{
				"x": -0.0265252287,
				"y": -0.8523648323,
				"z": -0.5476144484,
				"element": "C" 
			},
			{
				"x": 0.8855462577,
				"y": -0.029541487,
				"z": 0.1441465197,
				"element": "C" 
			},
			{
				"x": 2.2034317722,
				"y": -0.4278996896,
				"z": 0.3537770605,
				"element": "C" 
			},
			{
				"x": 2.6680673219,
				"y": -1.6628549446,
				"z": -0.1241532737,
				"element": "C" 
			},
			{
				"x": 3.9745994946,
				"y": -2.0890874456,
				"z": 0.1424571087,
				"element": "N" 
			},
			{
				"x": 1.7624571732,
				"y": -2.4772394001,
				"z": -0.8167417481,
				"element": "C" 
			},
			{
				"x": 0.4412431089,
				"y": -2.081051316,
				"z": -1.0261845883,
				"element": "C" 
			},
			{
				"x": 0.3801781726,
				"y": 1.5455916508,
				"z": 0.8472234273,
				"element": "S" 
			},
			{
				"x": -0.8196036705,
				"y": 1.36430983,
				"z": 1.6669673002,
				"element": "O" 
			},
			{
				"x": 1.5878204397,
				"y": 2.1455490692,
				"z": 1.436903531,
				"element": "O" 
			},
			{
				"x": -0.078707855,
				"y": 2.415554409,
				"z": -0.5349777857,
				"element": "N" 
			},
			{
				"x": 1.027047465,
				"y": 3.0607047962,
				"z": -1.2447488586,
				"element": "C" 
			},
			{
				"x": -1.2955229819,
				"y": 3.2220712305,
				"z": -0.4147063084,
				"element": "C" 
			},
			{
				"x": -3.1841356701,
				"y": -0.687936494,
				"z": -1.3367357909,
				"element": "H" 
			},
			{
				"x": -2.3669989428,
				"y": -2.1811800194,
				"z": -0.8043180576,
				"element": "H" 
			},
			{
				"x": -1.9602470828,
				"y": -1.4511917896,
				"z": -2.3864473291,
				"element": "H" 
			},
			{
				"x": 2.8587375868,
				"y": 0.2384237683,
				"z": 0.9052852972,
				"element": "H" 
			},
			{
				"x": 4.3498278751,
				"y": -2.7496333497,
				"z": -0.5246447427,
				"element": "H" 
			},
			{
				"x": 4.6310651685,
				"y": -1.3443667346,
				"z": 0.3336338308,
				"element": "H" 
			},
			{
				"x": 2.0898434045,
				"y": -3.4425720447,
				"z": -1.1947584972,
				"element": "H" 
			},
			{
				"x": -0.2223761097,
				"y": -2.7443120116,
				"z": -1.5678183418,
				"element": "H" 
			},
			{
				"x": 1.8507357784,
				"y": 2.3552689924,
				"z": -1.3734808298,
				"element": "H" 
			},
			{
				"x": 1.4066582947,
				"y": 3.9516942543,
				"z": -0.7268522008,
				"element": "H" 
			},
			{
				"x": 0.6685410881,
				"y": 3.34816601,
				"z": -2.2378209929,
				"element": "H" 
			},
			{
				"x": -2.0558169341,
				"y": 2.6513846244,
				"z": 0.1160062691,
				"element": "H" 
			},
			{
				"x": -1.127840363,
				"y": 4.1731359207,
				"z": 0.1117800015,
				"element": "H" 
			},
			{
				"x": -1.6530291341,
				"y": 3.4404977604,
				"z": -1.426010364,
				"element": "H" 
			}
		],
		 "valence_orbital": [ 
			{
				"type": "occ",
				"energy": -0.28687,
				"method": "rhf"
			},
			{
				"type": "occ",
				"energy": -0.28469,
				"method": "rhf"
			},
			{
				"type": "occ",
				"energy": -0.26559,
				"method": "rhf"
			},
			{
				"type": "occ",
				"energy": -0.23671,
				"method": "rhf"
			},
			{
				"type": "occ",
				"energy": -0.19772,
				"method": "rhf"
			},
			{
				"type": "unocc",
				"energy": -0.02606,
				"method": "rhf"
			},
			{
				"type": "unocc",
				"energy": 0.013,
				"method": "rhf"
			},
			{
				"type": "unocc",
				"energy": 0.06728,
				"method": "rhf"
			},
			{
				"type": "unocc",
				"energy": 0.07709,
				"method": "rhf"
			},
			{
				"type": "unocc",
				"energy": 0.08736,
				"method": "rhf"
			}
		],
		"cosmo_sigma_profile": { 
			"-0.025": 0.0,
			"-0.024": 0.0,
			"-0.023": 0.0,
			"-0.022": 0.0,
			"-0.021": 0.0,
			"-0.02": 0.0,
			"-0.019": 0.0,
			"-0.018": 0.0,
			"-0.017": 0.0,
			"-0.016": 0.0,
			"-0.015": 0.0,
			"-0.014": 0.0,
			"-0.013": 0.632380159993,
			"-0.012": 2.95891683209,
			"-0.011": 3.0786182428,
			"-0.01": 3.11421408715,
			"-0.009": 3.44380862887,
			"-0.008": 2.72695941709,
			"-0.007": 6.45610713776,
			"-0.006": 15.068897688,
			"-0.005": 21.2861323071,
			"-0.004": 25.1580123359,
			"-0.003": 24.7041490926,
			"-0.002": 24.5169957028,
			"-0.001": 12.8777910248,
			"0.0": 10.1846226918,
			"0.001": 10.3973050667,
			"0.002": 11.8493479271,
			"0.003": 12.1185881657,
			"0.004": 13.4040713452,
			"0.005": 8.40221997556,
			"0.006": 4.91037251688,
			"0.007": 5.75696137661,
			"0.008": 4.71701824281,
			"0.009": 4.90447151267,
			"0.01": 7.79114300552,
			"0.011": 10.150050244,
			"0.012": 8.31706075947,
			"0.013": 1.30481265876,
			"0.014": 0.956176127176,
			"0.015": 0.201312701039,
			"0.016": 0.0,
			"0.017": 0.0,
			"0.018": 0.0,
			"0.019": 0.0,
			"0.02": 0.0,
			"0.021": 0.0,
			"0.022": 0.0,
			"0.023": 0.0,
			"0.024": 0.0,
			"0.025": 0.0
		}
	}
}
