{
	 "smiles": "NC1=CC(CS(=O)C2CCCCC2)=CC=C1", 
	 "Tm": 362.15, 
	 "num_atms": 35, 
	 "gaussian": { 
		 "optdone": 1, 
		 "sigma_profile": "yes", 
		 "theory": "DFT", 
		 "functional": "B3LYP", 
		 "basiset": "6-31G**", 
		 "properties": { 
			 "R2extent": 4993.0433, 
			 "electric_dipole_moment_norm": 4.79881156538, 
			 "electric_quadrupole_moment_norm": 11.5072870356, 
			 "total_energy": -1034.97394913, 
			 "HOMO_LUMO_gap": 0.1948, 
			 "cosmo_polarized_energy": -17.3, 
			 "cosmo_cavitation_energy": 36.29, 
			 "cosmo_dispersion_energy": -26.11, 
			 "cosmo_repulsion_energy": 2.01, 
			 "cosmo_total_nonelectrostatic_energy": 12.19, 
			 "SMD_solvation_energy": 4.51 
		},
		"coords": [
			{
				"x": 0.3997671703,
				"y": 0.6936270928,
				"z": 5.0780556308,
				"element": "N" 
			},
			{
				"x": -0.019948497,
				"y": 1.225817516,
				"z": 3.854854047,
				"element": "C" 
			},
			{
				"x": 0.8395359308,
				"y": 1.2279045546,
				"z": 2.7439314395,
				"element": "C" 
			},
			{
				"x": 0.418511137,
				"y": 1.7152519498,
				"z": 1.5000808029,
				"element": "C" 
			},
			{
				"x": 1.3580662046,
				"y": 1.7007920985,
				"z": 0.3312977763,
				"element": "C" 
			},
			{
				"x": 0.8724580605,
				"y": 0.5733483454,
				"z": -1.094419435,
				"element": "S" 
			},
			{
				"x": -0.5320278145,
				"y": 0.963551457,
				"z": -1.5211017926,
				"element": "O" 
			},
			{
				"x": 0.7382000324,
				"y": -1.0379336079,
				"z": -0.1384952002,
				"element": "C" 
			},
			{
				"x": -0.2687413362,
				"y": -1.9491103363,
				"z": -0.8559121075,
				"element": "C" 
			},
			{
				"x": 0.2791272689,
				"y": -2.5640538984,
				"z": -2.1529738446,
				"element": "C" 
			},
			{
				"x": 1.6302418518,
				"y": -3.2581782784,
				"z": -1.9262574428,
				"element": "C" 
			},
			{
				"x": 2.6515117118,
				"y": -2.2922327146,
				"z": -1.307514431,
				"element": "C" 
			},
			{
				"x": 2.1286720139,
				"y": -1.6806225967,
				"z": 0.0036668426,
				"element": "C" 
			},
			{
				"x": -0.8899774982,
				"y": 2.2027524796,
				"z": 1.3540297326,
				"element": "C" 
			},
			{
				"x": -1.7473588012,
				"y": 2.192600367,
				"z": 2.4539972972,
				"element": "C" 
			},
			{
				"x": -1.3262699719,
				"y": 1.7164065933,
				"z": 3.6936543049,
				"element": "C" 
			},
			{
				"x": -0.1067264249,
				"y": 1.0332785263,
				"z": 5.8843909936,
				"element": "H" 
			},
			{
				"x": 1.3987350751,
				"y": 0.713993407,
				"z": 5.2320349252,
				"element": "H" 
			},
			{
				"x": 1.8542016924,
				"y": 0.8507826476,
				"z": 2.8585953908,
				"element": "H" 
			},
			{
				"x": 1.4034861517,
				"y": 2.674547055,
				"z": -0.1659266213,
				"element": "H" 
			},
			{
				"x": 2.3765241196,
				"y": 1.4155302717,
				"z": 0.6128784117,
				"element": "H" 
			},
			{
				"x": 0.3386056453,
				"y": -0.7646182019,
				"z": 0.8423122953,
				"element": "H" 
			},
			{
				"x": -0.5343205021,
				"y": -2.752642426,
				"z": -0.1549530118,
				"element": "H" 
			},
			{
				"x": -1.1808736399,
				"y": -1.3773966648,
				"z": -1.0523094072,
				"element": "H" 
			},
			{
				"x": 0.3941343872,
				"y": -1.777867443,
				"z": -2.9110975782,
				"element": "H" 
			},
			{
				"x": -0.4522933793,
				"y": -3.2734533092,
				"z": -2.557257029,
				"element": "H" 
			},
			{
				"x": 2.0164491287,
				"y": -3.6604737275,
				"z": -2.870260557,
				"element": "H" 
			},
			{
				"x": 1.4900193493,
				"y": -4.1174979875,
				"z": -1.2543447694,
				"element": "H" 
			},
			{
				"x": 2.8682697497,
				"y": -1.490296393,
				"z": -2.025108273,
				"element": "H" 
			},
			{
				"x": 3.6013181252,
				"y": -2.8060454923,
				"z": -1.1176739827,
				"element": "H" 
			},
			{
				"x": 2.0452530935,
				"y": -2.471240365,
				"z": 0.7622575187,
				"element": "H" 
			},
			{
				"x": 2.8530826956,
				"y": -0.9588279424,
				"z": 0.4024380999,
				"element": "H" 
			},
			{
				"x": -1.2279883807,
				"y": 2.5541488201,
				"z": 0.3865034809,
				"element": "H" 
			},
			{
				"x": -2.7617001401,
				"y": 2.5669653383,
				"z": 2.3468259119,
				"element": "H" 
			},
			{
				"x": -2.0064442093,
				"y": 1.7196928647,
				"z": 4.5420005818,
				"element": "H" 
			}
		],
		 "valence_orbital": [ 
			{
				"type": "occ",
				"energy": -0.30069,
				"method": "rhf"
			},
			{
				"type": "occ",
				"energy": -0.25825,
				"method": "rhf"
			},
			{
				"type": "occ",
				"energy": -0.23622,
				"method": "rhf"
			},
			{
				"type": "occ",
				"energy": -0.20895,
				"method": "rhf"
			},
			{
				"type": "occ",
				"energy": -0.20245,
				"method": "rhf"
			},
			{
				"type": "unocc",
				"energy": -0.00765,
				"method": "rhf"
			},
			{
				"type": "unocc",
				"energy": 0.01344,
				"method": "rhf"
			},
			{
				"type": "unocc",
				"energy": 0.05236,
				"method": "rhf"
			},
			{
				"type": "unocc",
				"energy": 0.05536,
				"method": "rhf"
			},
			{
				"type": "unocc",
				"energy": 0.07393,
				"method": "rhf"
			}
		],
		"cosmo_sigma_profile": { 
			"-0.025": 0.0,
			"-0.024": 0.0,
			"-0.023": 0.0,
			"-0.022": 0.0,
			"-0.021": 0.0,
			"-0.02": 0.0,
			"-0.019": 0.0,
			"-0.018": 0.0,
			"-0.017": 0.0,
			"-0.016": 0.0,
			"-0.015": 0.0,
			"-0.014": 0.0,
			"-0.013": 0.176595056614,
			"-0.012": 2.26239304521,
			"-0.011": 2.6536972949,
			"-0.01": 2.74109014069,
			"-0.009": 3.52938896246,
			"-0.008": 3.27581065986,
			"-0.007": 7.5258008349,
			"-0.006": 10.2560825076,
			"-0.005": 11.1472789035,
			"-0.004": 13.4511300235,
			"-0.003": 25.9379188019,
			"-0.002": 34.193292962,
			"-0.001": 36.4016028618,
			"0.0": 31.4302468206,
			"0.001": 21.5905261858,
			"0.002": 8.49492436426,
			"0.003": 9.53760719358,
			"0.004": 9.62760507291,
			"0.005": 8.64850074629,
			"0.006": 10.4043162747,
			"0.007": 7.0271077427,
			"0.008": 2.40976499482,
			"0.009": 2.67228352837,
			"0.01": 2.21708709721,
			"0.011": 2.77500057904,
			"0.012": 2.26669168702,
			"0.013": 1.7640309542,
			"0.014": 3.87144772909,
			"0.015": 3.31919976588,
			"0.016": 2.09780673803,
			"0.017": 0.289037699675,
			"0.018": 0.0,
			"0.019": 0.0,
			"0.02": 0.0,
			"0.021": 0.0,
			"0.022": 0.0,
			"0.023": 0.0,
			"0.024": 0.0,
			"0.025": 0.0
		}
	}
}
