{
	 "smiles": "NC(=O)C1=CNCCC1", 
	 "Tm": 477.15, 
	 "num_atms": 19, 
	 "gaussian": { 
		 "optdone": 1, 
		 "sigma_profile": "yes", 
		 "theory": "DFT", 
		 "functional": "B3LYP", 
		 "basiset": "6-31G**", 
		 "properties": { 
			 "R2extent": 2534.7141, 
			 "electric_dipole_moment_norm": 4.80632426705, 
			 "electric_quadrupole_moment_norm": 13.1835057147, 
			 "total_energy": -419.400997827, 
			 "HOMO_LUMO_gap": 0.19375, 
			 "cosmo_polarized_energy": -16.23, 
			 "cosmo_cavitation_energy": 21.48, 
			 "cosmo_dispersion_energy": -16.38, 
			 "cosmo_repulsion_energy": 1.37, 
			 "cosmo_total_nonelectrostatic_energy": 6.47, 
			 "SMD_solvation_energy": 3.37 
		},
		"coords": [
			{
				"x": 1.2918869102,
				"y": 4.5452466181,
				"z": -0.9766012283,
				"element": "N" 
			},
			{
				"x": 0.5663214522,
				"y": 3.5382355343,
				"z": -0.3398603024,
				"element": "C" 
			},
			{
				"x": -0.4884825626,
				"y": 3.7957052048,
				"z": 0.2365987935,
				"element": "O" 
			},
			{
				"x": 1.0889360331,
				"y": 2.1623135465,
				"z": -0.4248896957,
				"element": "C" 
			},
			{
				"x": 2.0338255542,
				"y": 1.7950537214,
				"z": -1.3265645139,
				"element": "C" 
			},
			{
				"x": 2.5473978282,
				"y": 0.5237215365,
				"z": -1.4353674282,
				"element": "N" 
			},
			{
				"x": 1.8728659839,
				"y": -0.5768740381,
				"z": -0.7501683249,
				"element": "C" 
			},
			{
				"x": 1.3842704033,
				"y": -0.1017745067,
				"z": 0.6223911479,
				"element": "C" 
			},
			{
				"x": 0.4720424926,
				"y": 1.12904412,
				"z": 0.4936360752,
				"element": "C" 
			},
			{
				"x": 2.299118469,
				"y": 4.4719703143,
				"z": -0.962809605,
				"element": "H" 
			},
			{
				"x": 0.9403212436,
				"y": 5.4681150353,
				"z": -0.7577273802,
				"element": "H" 
			},
			{
				"x": 2.4531976401,
				"y": 2.5117122369,
				"z": -2.0271511094,
				"element": "H" 
			},
			{
				"x": 3.0001473778,
				"y": 0.2979904404,
				"z": -2.3086499273,
				"element": "H" 
			},
			{
				"x": 2.5792084031,
				"y": -1.407523359,
				"z": -0.6461536268,
				"element": "H" 
			},
			{
				"x": 1.0170105612,
				"y": -0.9412289548,
				"z": -1.3407865274,
				"element": "H" 
			},
			{
				"x": 2.2576666495,
				"y": 0.1482632681,
				"z": 1.2362640367,
				"element": "H" 
			},
			{
				"x": 0.8606548775,
				"y": -0.923090395,
				"z": 1.1226758898,
				"element": "H" 
			},
			{
				"x": 0.2879005152,
				"y": 1.5732587424,
				"z": 1.477111462,
				"element": "H" 
			},
			{
				"x": -0.5172898322,
				"y": 0.8346609346,
				"z": 0.1183522645,
				"element": "H" 
			}
		],
		 "valence_orbital": [ 
			{
				"type": "occ",
				"energy": -0.3316,
				"method": "rhf"
			},
			{
				"type": "occ",
				"energy": -0.31152,
				"method": "rhf"
			},
			{
				"type": "occ",
				"energy": -0.25702,
				"method": "rhf"
			},
			{
				"type": "occ",
				"energy": -0.22922,
				"method": "rhf"
			},
			{
				"type": "occ",
				"energy": -0.19861,
				"method": "rhf"
			},
			{
				"type": "unocc",
				"energy": -0.00486,
				"method": "rhf"
			},
			{
				"type": "unocc",
				"energy": 0.06835,
				"method": "rhf"
			},
			{
				"type": "unocc",
				"energy": 0.0882,
				"method": "rhf"
			},
			{
				"type": "unocc",
				"energy": 0.10087,
				"method": "rhf"
			},
			{
				"type": "unocc",
				"energy": 0.11697,
				"method": "rhf"
			}
		],
		"cosmo_sigma_profile": { 
			"-0.025": 0.0,
			"-0.024": 0.0,
			"-0.023": 0.0,
			"-0.022": 0.0,
			"-0.021": 0.0,
			"-0.02": 0.0,
			"-0.019": 0.0,
			"-0.018": 0.0,
			"-0.017": 0.0,
			"-0.016": 0.0,
			"-0.015": 0.0,
			"-0.014": 0.283829849944,
			"-0.013": 2.36552117753,
			"-0.012": 3.67759343925,
			"-0.011": 2.90618472749,
			"-0.01": 4.86338869256,
			"-0.009": 3.75219748619,
			"-0.008": 4.46312072728,
			"-0.007": 5.6328339761,
			"-0.006": 3.06433272153,
			"-0.005": 4.14939589224,
			"-0.004": 7.71146599132,
			"-0.003": 14.3308140591,
			"-0.002": 19.7302346943,
			"-0.001": 15.0633498308,
			"0.0": 11.6220867304,
			"0.001": 8.49572776423,
			"0.002": 6.71382286372,
			"0.003": 4.93559785271,
			"0.004": 6.08785302923,
			"0.005": 5.93953880017,
			"0.006": 4.07817923508,
			"0.007": 3.41390850241,
			"0.008": 2.5205407901,
			"0.009": 2.7065812643,
			"0.01": 2.84267353099,
			"0.011": 1.52375299469,
			"0.012": 2.48045147216,
			"0.013": 1.89454023593,
			"0.014": 3.07894456809,
			"0.015": 5.95318335342,
			"0.016": 1.18259163864,
			"0.017": 0.0,
			"0.018": 0.0,
			"0.019": 0.0,
			"0.02": 0.0,
			"0.021": 0.0,
			"0.022": 0.0,
			"0.023": 0.0,
			"0.024": 0.0,
			"0.025": 0.0
		}
	}
}
