{
	 "smiles": "CC(C)(C)C1=CC(C=O)=C(O)C(=C1)C(C)(C)C", 
	 "Tm": 333.15, 
	 "num_atms": 39, 
	 "gaussian": { 
		 "optdone": 1, 
		 "sigma_profile": "yes", 
		 "theory": "DFT", 
		 "functional": "B3LYP", 
		 "basiset": "6-31G**", 
		 "properties": { 
			 "R2extent": 5862.7308, 
			 "electric_dipole_moment_norm": 5.36191528933, 
			 "electric_quadrupole_moment_norm": 21.2855557858, 
			 "total_energy": -735.315607187, 
			 "HOMO_LUMO_gap": 0.17293, 
			 "cosmo_polarized_energy": -10.8, 
			 "cosmo_cavitation_energy": 38.42, 
			 "cosmo_dispersion_energy": -26.17, 
			 "cosmo_repulsion_energy": 2.01, 
			 "cosmo_total_nonelectrostatic_energy": 14.26, 
			 "SMD_solvation_energy": 7.96 
		},
		"coords": [
			{
				"x": -1.5097383796,
				"y": -1.1862243724,
				"z": -1.349471933,
				"element": "C" 
			},
			{
				"x": -1.8826892191,
				"y": -1.2472376203,
				"z": 0.150972637,
				"element": "C" 
			},
			{
				"x": -1.3456236291,
				"y": -2.564829502,
				"z": 0.7589524619,
				"element": "C" 
			},
			{
				"x": -3.4187926507,
				"y": -1.2564344244,
				"z": 0.2645139452,
				"element": "C" 
			},
			{
				"x": -1.2606893964,
				"y": -0.0469267033,
				"z": 0.887504518,
				"element": "C" 
			},
			{
				"x": -2.0109983035,
				"y": 0.9037441689,
				"z": 1.5674284937,
				"element": "C" 
			},
			{
				"x": -1.4020456869,
				"y": 1.982169065,
				"z": 2.2255552212,
				"element": "C" 
			},
			{
				"x": -2.2623405645,
				"y": 2.9592551229,
				"z": 2.930977396,
				"element": "C" 
			},
			{
				"x": -3.4798012576,
				"y": 2.8778161599,
				"z": 2.9718262056,
				"element": "O" 
			},
			{
				"x": -0.0024222074,
				"y": 2.1210401915,
				"z": 2.20809913,
				"element": "C" 
			},
			{
				"x": 0.495020719,
				"y": 3.2049590099,
				"z": 2.8790602333,
				"element": "O" 
			},
			{
				"x": 0.8066718254,
				"y": 1.1770038023,
				"z": 1.5277299592,
				"element": "C" 
			},
			{
				"x": 0.1372631174,
				"y": 0.125932287,
				"z": 0.8920026084,
				"element": "C" 
			},
			{
				"x": 2.3494112772,
				"y": 1.2925027688,
				"z": 1.4842621948,
				"element": "C" 
			},
			{
				"x": 2.9955746737,
				"y": 0.1434319695,
				"z": 0.6822340397,
				"element": "C" 
			},
			{
				"x": 2.7772363267,
				"y": 2.6086873719,
				"z": 0.7803768858,
				"element": "C" 
			},
			{
				"x": 2.9417906099,
				"y": 1.2099593756,
				"z": 2.9170809939,
				"element": "C" 
			},
			{
				"x": -1.8864378159,
				"y": -0.2665346121,
				"z": -1.8089303549,
				"element": "H" 
			},
			{
				"x": -0.4265411869,
				"y": -1.2173042177,
				"z": -1.5037870504,
				"element": "H" 
			},
			{
				"x": -1.9446725067,
				"y": -2.0369577887,
				"z": -1.8861849018,
				"element": "H" 
			},
			{
				"x": -1.6036741933,
				"y": -2.6394506372,
				"z": 1.8204046406,
				"element": "H" 
			},
			{
				"x": -1.7791681967,
				"y": -3.4286116161,
				"z": 0.2423407822,
				"element": "H" 
			},
			{
				"x": -0.2570568482,
				"y": -2.6412773947,
				"z": 0.6737022696,
				"element": "H" 
			},
			{
				"x": -3.8648036109,
				"y": -0.3580897225,
				"z": -0.1741959072,
				"element": "H" 
			},
			{
				"x": -3.8232366716,
				"y": -2.1218760775,
				"z": -0.2704190824,
				"element": "H" 
			},
			{
				"x": -3.7495687967,
				"y": -1.3266317449,
				"z": 1.3057004276,
				"element": "H" 
			},
			{
				"x": -3.092210849,
				"y": 0.8593319593,
				"z": 1.6221009102,
				"element": "H" 
			},
			{
				"x": -1.7348622839,
				"y": 3.790381481,
				"z": 3.4335357551,
				"element": "H" 
			},
			{
				"x": 1.454882317,
				"y": 3.2213255525,
				"z": 2.815091515,
				"element": "H" 
			},
			{
				"x": 0.7337996023,
				"y": -0.6081397938,
				"z": 0.3655416606,
				"element": "H" 
			},
			{
				"x": 2.7790801025,
				"y": -0.8351706152,
				"z": 1.1215416859,
				"element": "H" 
			},
			{
				"x": 2.6650749833,
				"y": 0.1353683391,
				"z": -0.3609419314,
				"element": "H" 
			},
			{
				"x": 4.0827919505,
				"y": 0.2703387946,
				"z": 0.6817513701,
				"element": "H" 
			},
			{
				"x": 2.4204605792,
				"y": 2.616642236,
				"z": -0.254061757,
				"element": "H" 
			},
			{
				"x": 2.3891602297,
				"y": 3.5184056025,
				"z": 1.249357101,
				"element": "H" 
			},
			{
				"x": 3.8692501149,
				"y": 2.6916471442,
				"z": 0.7644744947,
				"element": "H" 
			},
			{
				"x": 4.0323297465,
				"y": 1.305498609,
				"z": 2.8818866833,
				"element": "H" 
			},
			{
				"x": 2.6995828368,
				"y": 0.2439848068,
				"z": 3.3705565209,
				"element": "H" 
			},
			{
				"x": 2.5704932424,
				"y": 1.9770710246,
				"z": 3.6039301778,
				"element": "H" 
			}
		],
		 "valence_orbital": [ 
			{
				"type": "occ",
				"energy": -0.31802,
				"method": "rhf"
			},
			{
				"type": "occ",
				"energy": -0.31653,
				"method": "rhf"
			},
			{
				"type": "occ",
				"energy": -0.25003,
				"method": "rhf"
			},
			{
				"type": "occ",
				"energy": -0.23784,
				"method": "rhf"
			},
			{
				"type": "occ",
				"energy": -0.22282,
				"method": "rhf"
			},
			{
				"type": "unocc",
				"energy": -0.04989,
				"method": "rhf"
			},
			{
				"type": "unocc",
				"energy": 0.00438,
				"method": "rhf"
			},
			{
				"type": "unocc",
				"energy": 0.0456,
				"method": "rhf"
			},
			{
				"type": "unocc",
				"energy": 0.05249,
				"method": "rhf"
			},
			{
				"type": "unocc",
				"energy": 0.07516,
				"method": "rhf"
			}
		],
		"cosmo_sigma_profile": { 
			"-0.025": 0.0,
			"-0.024": 0.0,
			"-0.023": 0.0,
			"-0.022": 0.0,
			"-0.021": 0.0,
			"-0.02": 0.0,
			"-0.019": 0.0,
			"-0.018": 0.0,
			"-0.017": 0.0,
			"-0.016": 0.122846188193,
			"-0.015": 0.554565208966,
			"-0.014": 0.732659695813,
			"-0.013": 0.735453784612,
			"-0.012": 0.557431829997,
			"-0.011": 0.516877076078,
			"-0.01": 0.990771542036,
			"-0.009": 0.693727251287,
			"-0.008": 0.71381889536,
			"-0.007": 1.19633045738,
			"-0.006": 1.88209565878,
			"-0.005": 6.22112340263,
			"-0.004": 12.710803419,
			"-0.003": 39.6529641342,
			"-0.002": 43.2721372472,
			"-0.001": 37.7504432863,
			"0.0": 40.9894494509,
			"0.001": 39.6082337447,
			"0.002": 19.4324883495,
			"0.003": 11.1208521527,
			"0.004": 11.2182203608,
			"0.005": 5.04141704007,
			"0.006": 3.23737723856,
			"0.007": 3.4942481847,
			"0.008": 2.71977681433,
			"0.009": 2.09837298343,
			"0.01": 2.31029901337,
			"0.011": 3.07937425458,
			"0.012": 4.5361390614,
			"0.013": 1.89527415856,
			"0.014": 0.308002208576,
			"0.015": 0.0,
			"0.016": 0.0,
			"0.017": 0.0,
			"0.018": 0.0,
			"0.019": 0.0,
			"0.02": 0.0,
			"0.021": 0.0,
			"0.022": 0.0,
			"0.023": 0.0,
			"0.024": 0.0,
			"0.025": 0.0
		}
	}
}
