{
	 "smiles": "CCOC(=O)C12CCC(CC1=O)(C(=O)OCC)C(=O)C2", 
	 "Tm": 385.15, 
	 "num_atms": 38, 
	 "gaussian": { 
		 "optdone": 1, 
		 "sigma_profile": "yes", 
		 "theory": "DFT", 
		 "functional": "B3LYP", 
		 "basiset": "6-31G**", 
		 "properties": { 
			 "R2extent": 6844.4699, 
			 "electric_dipole_moment_norm": 1.7805921515, 
			 "electric_quadrupole_moment_norm": 17.7282772372, 
			 "total_energy": -995.703986881, 
			 "HOMO_LUMO_gap": 0.21283, 
			 "cosmo_polarized_energy": -18.74, 
			 "cosmo_cavitation_energy": 40.58, 
			 "cosmo_dispersion_energy": -27.52, 
			 "cosmo_repulsion_energy": 2.15, 
			 "cosmo_total_nonelectrostatic_energy": 15.21, 
			 "SMD_solvation_energy": 9.58 
		},
		"coords": [
			{
				"x": -1.6108843698,
				"y": 2.9982058552,
				"z": 3.9773986526,
				"element": "C" 
			},
			{
				"x": -2.2778569871,
				"y": 3.0158682105,
				"z": 2.6159001781,
				"element": "C" 
			},
			{
				"x": -1.6659986208,
				"y": 1.9720554053,
				"z": 1.8179958086,
				"element": "O" 
			},
			{
				"x": -2.1148519962,
				"y": 1.8566781598,
				"z": 0.555818965,
				"element": "C" 
			},
			{
				"x": -3.0175353324,
				"y": 2.5173377685,
				"z": 0.0903093399,
				"element": "O" 
			},
			{
				"x": -1.3343884613,
				"y": 0.7972779869,
				"z": -0.2145687262,
				"element": "C" 
			},
			{
				"x": -2.0646433931,
				"y": 0.403736912,
				"z": -1.5264784074,
				"element": "C" 
			},
			{
				"x": -1.2130809122,
				"y": -0.5934183237,
				"z": -2.3602839297,
				"element": "C" 
			},
			{
				"x": 0.0900810143,
				"y": -0.9760884673,
				"z": -1.6086856164,
				"element": "C" 
			},
			{
				"x": 0.8999255851,
				"y": 0.3181357875,
				"z": -1.3500787027,
				"element": "C" 
			},
			{
				"x": 0.0428606411,
				"y": 1.3523828569,
				"z": -0.6215746241,
				"element": "C" 
			},
			{
				"x": 0.4123456883,
				"y": 2.4871807978,
				"z": -0.4123128258,
				"element": "O" 
			},
			{
				"x": 0.8749815423,
				"y": -2.0406636204,
				"z": -2.3669214699,
				"element": "C" 
			},
			{
				"x": 0.415844121,
				"y": -2.7197185545,
				"z": -3.2594942939,
				"element": "O" 
			},
			{
				"x": 2.1356534052,
				"y": -2.1325709622,
				"z": -1.9051604274,
				"element": "O" 
			},
			{
				"x": 2.9557951327,
				"y": -3.195789037,
				"z": -2.4562919542,
				"element": "C" 
			},
			{
				"x": 2.7322140225,
				"y": -4.4962822536,
				"z": -1.7008670313,
				"element": "C" 
			},
			{
				"x": -0.3346987987,
				"y": -1.5263006589,
				"z": -0.234707217,
				"element": "C" 
			},
			{
				"x": -0.1254160074,
				"y": -2.6582164583,
				"z": 0.1442980996,
				"element": "O" 
			},
			{
				"x": -1.0812839714,
				"y": -0.4915595273,
				"z": 0.6058223351,
				"element": "C" 
			},
			{
				"x": -1.75407512,
				"y": 2.0335038335,
				"z": 4.4729308231,
				"element": "H" 
			},
			{
				"x": -0.5372625323,
				"y": 3.1858670716,
				"z": 3.887942651,
				"element": "H" 
			},
			{
				"x": -2.0450802021,
				"y": 3.7773486054,
				"z": 4.6114928279,
				"element": "H" 
			},
			{
				"x": -2.1396249762,
				"y": 3.9702787257,
				"z": 2.0996192823,
				"element": "H" 
			},
			{
				"x": -3.3535282024,
				"y": 2.8240359255,
				"z": 2.6785255573,
				"element": "H" 
			},
			{
				"x": -2.2950514784,
				"y": 1.3082387145,
				"z": -2.0925564081,
				"element": "H" 
			},
			{
				"x": -3.0273529748,
				"y": -0.0398600565,
				"z": -1.2531942684,
				"element": "H" 
			},
			{
				"x": -1.7709588749,
				"y": -1.5020502253,
				"z": -2.5942327519,
				"element": "H" 
			},
			{
				"x": -0.9277037683,
				"y": -0.153219023,
				"z": -3.3210639828,
				"element": "H" 
			},
			{
				"x": 1.7979734224,
				"y": 0.1183299509,
				"z": -0.7564055278,
				"element": "H" 
			},
			{
				"x": 1.2414393694,
				"y": 0.7599539963,
				"z": -2.2931529209,
				"element": "H" 
			},
			{
				"x": 2.7208981726,
				"y": -3.3039631977,
				"z": -3.5175657935,
				"element": "H" 
			},
			{
				"x": 3.9800696123,
				"y": -2.8327302138,
				"z": -2.3445572352,
				"element": "H" 
			},
			{
				"x": 2.9322463019,
				"y": -4.3659855827,
				"z": -0.6339444112,
				"element": "H" 
			},
			{
				"x": 1.7021345229,
				"y": -4.8389549988,
				"z": -1.8220651447,
				"element": "H" 
			},
			{
				"x": 3.4035210134,
				"y": -5.2692836954,
				"z": -2.0896369395,
				"element": "H" 
			},
			{
				"x": -2.0269983825,
				"y": -0.9370339562,
				"z": 0.9352645846,
				"element": "H" 
			},
			{
				"x": -0.5020082053,
				"y": -0.2841277513,
				"z": 1.5115815049,
				"element": "H" 
			}
		],
		 "valence_orbital": [ 
			{
				"type": "occ",
				"energy": -0.3044,
				"method": "rhf"
			},
			{
				"type": "occ",
				"energy": -0.28993,
				"method": "rhf"
			},
			{
				"type": "occ",
				"energy": -0.2813,
				"method": "rhf"
			},
			{
				"type": "occ",
				"energy": -0.25978,
				"method": "rhf"
			},
			{
				"type": "occ",
				"energy": -0.25152,
				"method": "rhf"
			},
			{
				"type": "unocc",
				"energy": -0.03869,
				"method": "rhf"
			},
			{
				"type": "unocc",
				"energy": -0.03025,
				"method": "rhf"
			},
			{
				"type": "unocc",
				"energy": 0.00109,
				"method": "rhf"
			},
			{
				"type": "unocc",
				"energy": 0.0021,
				"method": "rhf"
			},
			{
				"type": "unocc",
				"energy": 0.06944,
				"method": "rhf"
			}
		],
		"cosmo_sigma_profile": { 
			"-0.025": 0.0,
			"-0.024": 0.0,
			"-0.023": 0.0,
			"-0.022": 0.0,
			"-0.021": 0.0,
			"-0.02": 0.0,
			"-0.019": 0.0,
			"-0.018": 0.0,
			"-0.017": 0.0,
			"-0.016": 0.0,
			"-0.015": 0.0,
			"-0.014": 0.0,
			"-0.013": 0.0,
			"-0.012": 0.0,
			"-0.011": 0.309725520364,
			"-0.01": 0.971529738039,
			"-0.009": 2.411487254,
			"-0.008": 10.4478955161,
			"-0.007": 10.1166119352,
			"-0.006": 15.3062956081,
			"-0.005": 25.1271943243,
			"-0.004": 34.8477392686,
			"-0.003": 29.7048042507,
			"-0.002": 28.532574629,
			"-0.001": 23.8646198125,
			"0.0": 20.3677645882,
			"0.001": 12.6483187552,
			"0.002": 9.36970119493,
			"0.003": 10.3258908919,
			"0.004": 9.7582185328,
			"0.005": 10.5023292015,
			"0.006": 8.84391531549,
			"0.007": 8.09603576668,
			"0.008": 8.1532697306,
			"0.009": 7.48930423731,
			"0.01": 10.8867135631,
			"0.011": 13.7419937064,
			"0.012": 5.54768916598,
			"0.013": 0.00223882887758,
			"0.014": 0.0,
			"0.015": 0.0,
			"0.016": 0.0,
			"0.017": 0.0,
			"0.018": 0.0,
			"0.019": 0.0,
			"0.02": 0.0,
			"0.021": 0.0,
			"0.022": 0.0,
			"0.023": 0.0,
			"0.024": 0.0,
			"0.025": 0.0
		}
	}
}
