{
	 "smiles": "CCOC(=O)C1=C(C)C2=C(SC(C#N)=C2C)S1", 
	 "Tm": 429.15, 
	 "num_atms": 28, 
	 "gaussian": { 
		 "optdone": 1, 
		 "sigma_profile": "yes", 
		 "theory": "DFT", 
		 "functional": "B3LYP", 
		 "basiset": "6-31G**", 
		 "properties": { 
			 "R2extent": 7220.2186, 
			 "electric_dipole_moment_norm": 4.36556003509, 
			 "electric_quadrupole_moment_norm": 26.4046232137, 
			 "total_energy": -1465.47554362, 
			 "HOMO_LUMO_gap": 0.17681, 
			 "cosmo_polarized_energy": -11.21, 
			 "cosmo_cavitation_energy": 35.93, 
			 "cosmo_dispersion_energy": -26.18, 
			 "cosmo_repulsion_energy": 1.95, 
			 "cosmo_total_nonelectrostatic_energy": 11.69, 
			 "SMD_solvation_energy": 7.65 
		},
		"coords": [
			{
				"x": -3.0170978399,
				"y": 3.5392655885,
				"z": -2.2133200954,
				"element": "C" 
			},
			{
				"x": -1.934883591,
				"y": 3.7952979891,
				"z": -1.175851633,
				"element": "C" 
			},
			{
				"x": -1.7783035469,
				"y": 2.6613848857,
				"z": -0.2876388918,
				"element": "O" 
			},
			{
				"x": -0.9552779709,
				"y": 1.6683073404,
				"z": -0.7016721095,
				"element": "C" 
			},
			{
				"x": -0.3495452191,
				"y": 1.6913783859,
				"z": -1.7582869637,
				"element": "O" 
			},
			{
				"x": -0.9025996244,
				"y": 0.5872024695,
				"z": 0.2977931895,
				"element": "C" 
			},
			{
				"x": -0.1824237242,
				"y": -0.5895259917,
				"z": 0.2487927759,
				"element": "C" 
			},
			{
				"x": 0.7211936146,
				"y": -1.0052808444,
				"z": -0.8799444548,
				"element": "C" 
			},
			{
				"x": -0.4072424853,
				"y": -1.3818061501,
				"z": 1.4318595797,
				"element": "C" 
			},
			{
				"x": -1.2898049046,
				"y": -0.7648168869,
				"z": 2.3212721399,
				"element": "C" 
			},
			{
				"x": -1.5870642392,
				"y": -1.6819468879,
				"z": 3.7535874383,
				"element": "S" 
			},
			{
				"x": -0.4942497033,
				"y": -2.9406190532,
				"z": 3.1505665951,
				"element": "C" 
			},
			{
				"x": -0.269724554,
				"y": -4.0986374019,
				"z": 3.9324208746,
				"element": "C" 
			},
			{
				"x": -0.0839401227,
				"y": -5.0531877414,
				"z": 4.5752924104,
				"element": "N" 
			},
			{
				"x": 0.0574670899,
				"y": -2.6546009791,
				"z": 1.9185760339,
				"element": "C" 
			},
			{
				"x": 1.0120758911,
				"y": -3.5752930447,
				"z": 1.2126905125,
				"element": "C" 
			},
			{
				"x": -1.8683033023,
				"y": 0.7629136416,
				"z": 1.7741217721,
				"element": "S" 
			},
			{
				"x": -3.1663367047,
				"y": 4.4381829572,
				"z": -2.8206186622,
				"element": "H" 
			},
			{
				"x": -2.7276285687,
				"y": 2.7215417971,
				"z": -2.87775692,
				"element": "H" 
			},
			{
				"x": -3.96690188,
				"y": 3.2877775552,
				"z": -1.7325988345,
				"element": "H" 
			},
			{
				"x": -2.2001718197,
				"y": 4.6212096269,
				"z": -0.5121466729,
				"element": "H" 
			},
			{
				"x": -0.9726231875,
				"y": 4.0029611305,
				"z": -1.6492683402,
				"element": "H" 
			},
			{
				"x": 0.7297698852,
				"y": -0.2528429245,
				"z": -1.6655333946,
				"element": "H" 
			},
			{
				"x": 1.7455283091,
				"y": -1.150378524,
				"z": -0.5193434975,
				"element": "H" 
			},
			{
				"x": 0.3906969941,
				"y": -1.9586874055,
				"z": -1.3065591387,
				"element": "H" 
			},
			{
				"x": 0.6155400497,
				"y": -3.8841801253,
				"z": 0.23998405,
				"element": "H" 
			},
			{
				"x": 1.9732263656,
				"y": -3.0832321662,
				"z": 1.0314398201,
				"element": "H" 
			},
			{
				"x": 1.1970247893,
				"y": -4.4738872409,
				"z": 1.8046424168,
				"element": "H" 
			}
		],
		 "valence_orbital": [ 
			{
				"type": "occ",
				"energy": -0.31029,
				"method": "rhf"
			},
			{
				"type": "occ",
				"energy": -0.29443,
				"method": "rhf"
			},
			{
				"type": "occ",
				"energy": -0.28497,
				"method": "rhf"
			},
			{
				"type": "occ",
				"energy": -0.24463,
				"method": "rhf"
			},
			{
				"type": "occ",
				"energy": -0.23895,
				"method": "rhf"
			},
			{
				"type": "unocc",
				"energy": -0.06214,
				"method": "rhf"
			},
			{
				"type": "unocc",
				"energy": -0.05743,
				"method": "rhf"
			},
			{
				"type": "unocc",
				"energy": -0.01683,
				"method": "rhf"
			},
			{
				"type": "unocc",
				"energy": 0.00283,
				"method": "rhf"
			},
			{
				"type": "unocc",
				"energy": 0.01479,
				"method": "rhf"
			}
		],
		"cosmo_sigma_profile": { 
			"-0.025": 0.0,
			"-0.024": 0.0,
			"-0.023": 0.0,
			"-0.022": 0.0,
			"-0.021": 0.0,
			"-0.02": 0.0,
			"-0.019": 0.0,
			"-0.018": 0.0,
			"-0.017": 0.0,
			"-0.016": 0.0,
			"-0.015": 0.0,
			"-0.014": 0.0,
			"-0.013": 0.0,
			"-0.012": 0.0,
			"-0.011": 0.0,
			"-0.01": 0.0,
			"-0.009": 0.373697396114,
			"-0.008": 0.911874342668,
			"-0.007": 3.1989697122,
			"-0.006": 11.8842704155,
			"-0.005": 15.6887585755,
			"-0.004": 25.0554594274,
			"-0.003": 26.4048002023,
			"-0.002": 32.2451903453,
			"-0.001": 34.4282974108,
			"0.0": 42.0018591545,
			"0.001": 25.4037791181,
			"0.002": 14.9253876273,
			"0.003": 12.3533445564,
			"0.004": 7.92288099996,
			"0.005": 5.97048320271,
			"0.006": 4.25124561342,
			"0.007": 4.32447997653,
			"0.008": 5.03038911551,
			"0.009": 4.40193729715,
			"0.01": 5.12209951788,
			"0.011": 5.6379433449,
			"0.012": 3.43339981416,
			"0.013": 1.07653677478,
			"0.014": 0.0,
			"0.015": 0.0,
			"0.016": 0.0,
			"0.017": 0.0,
			"0.018": 0.0,
			"0.019": 0.0,
			"0.02": 0.0,
			"0.021": 0.0,
			"0.022": 0.0,
			"0.023": 0.0,
			"0.024": 0.0,
			"0.025": 0.0
		}
	}
}
