{
	 "smiles": "ClC(=O)C1=CC=C(C=C1)C1=NC=CC=N1", 
	 "Tm": 447.15, 
	 "num_atms": 22, 
	 "gaussian": { 
		 "optdone": 1, 
		 "sigma_profile": "yes", 
		 "theory": "DFT", 
		 "functional": "B3LYP", 
		 "basiset": "6-31G**", 
		 "properties": { 
			 "R2extent": 7149.4713, 
			 "electric_dipole_moment_norm": 6.53814042293, 
			 "electric_quadrupole_moment_norm": 21.0696469643, 
			 "total_energy": -1068.31879186, 
			 "HOMO_LUMO_gap": 0.16884, 
			 "cosmo_polarized_energy": -8.94, 
			 "cosmo_cavitation_energy": 29.28, 
			 "cosmo_dispersion_energy": -21.86, 
			 "cosmo_repulsion_energy": 1.68, 
			 "cosmo_total_nonelectrostatic_energy": 9.1, 
			 "SMD_solvation_energy": 3.63 
		},
		"coords": [
			{
				"x": -1.8010989551,
				"y": -3.6181407493,
				"z": -4.8209285025,
				"element": "Cl" 
			},
			{
				"x": -0.7212832296,
				"y": -2.1665748481,
				"z": -5.126806921,
				"element": "C" 
			},
			{
				"x": -0.3465222703,
				"y": -1.9592427267,
				"z": -6.2416985983,
				"element": "O" 
			},
			{
				"x": -0.3987372672,
				"y": -1.3550474665,
				"z": -3.9302723758,
				"element": "C" 
			},
			{
				"x": -0.8625784976,
				"y": -1.6391356512,
				"z": -2.637733492,
				"element": "C" 
			},
			{
				"x": -0.5055778404,
				"y": -0.8177062239,
				"z": -1.5746789922,
				"element": "C" 
			},
			{
				"x": 0.3187152358,
				"y": 0.2994636004,
				"z": -1.7812850438,
				"element": "C" 
			},
			{
				"x": 0.7820997998,
				"y": 0.5818267828,
				"z": -3.0773754176,
				"element": "C" 
			},
			{
				"x": 0.4278837426,
				"y": -0.2357569524,
				"z": -4.1407253593,
				"element": "C" 
			},
			{
				"x": 0.6976399563,
				"y": 1.1748499738,
				"z": -0.6408386206,
				"element": "C" 
			},
			{
				"x": 1.4901237912,
				"y": 2.228235802,
				"z": -0.9075427673,
				"element": "N" 
			},
			{
				"x": 1.8241911224,
				"y": 3.007197726,
				"z": 0.1231603197,
				"element": "C" 
			},
			{
				"x": 1.3839473471,
				"y": 2.7591975226,
				"z": 1.4221166456,
				"element": "C" 
			},
			{
				"x": 0.5672445165,
				"y": 1.6421551428,
				"z": 1.5895394667,
				"element": "C" 
			},
			{
				"x": 0.2204789828,
				"y": 0.8494011422,
				"z": 0.5737405881,
				"element": "N" 
			},
			{
				"x": -1.4990347338,
				"y": -2.4992083006,
				"z": -2.469725632,
				"element": "H" 
			},
			{
				"x": -0.8582462639,
				"y": -1.0279171397,
				"z": -0.5720122016,
				"element": "H" 
			},
			{
				"x": 1.4180371079,
				"y": 1.4459302302,
				"z": -3.2290229572,
				"element": "H" 
			},
			{
				"x": 0.7803703899,
				"y": -0.0261960758,
				"z": -5.1445070202,
				"element": "H" 
			},
			{
				"x": 2.4659012311,
				"y": 3.8578740302,
				"z": -0.1005820423,
				"element": "H" 
			},
			{
				"x": 1.6605135521,
				"y": 3.3976467383,
				"z": 2.2534765702,
				"element": "H" 
			},
			{
				"x": 0.1771322826,
				"y": 1.372347443,
				"z": 2.5696023533,
				"element": "H" 
			}
		],
		 "valence_orbital": [ 
			{
				"type": "occ",
				"energy": -0.31541,
				"method": "rhf"
			},
			{
				"type": "occ",
				"energy": -0.29019,
				"method": "rhf"
			},
			{
				"type": "occ",
				"energy": -0.27125,
				"method": "rhf"
			},
			{
				"type": "occ",
				"energy": -0.26454,
				"method": "rhf"
			},
			{
				"type": "occ",
				"energy": -0.25989,
				"method": "rhf"
			},
			{
				"type": "unocc",
				"energy": -0.09105,
				"method": "rhf"
			},
			{
				"type": "unocc",
				"energy": -0.05585,
				"method": "rhf"
			},
			{
				"type": "unocc",
				"energy": -0.0324,
				"method": "rhf"
			},
			{
				"type": "unocc",
				"energy": -0.01658,
				"method": "rhf"
			},
			{
				"type": "unocc",
				"energy": 0.02222,
				"method": "rhf"
			}
		],
		"cosmo_sigma_profile": { 
			"-0.025": 0.0,
			"-0.024": 0.0,
			"-0.023": 0.0,
			"-0.022": 0.0,
			"-0.021": 0.0,
			"-0.02": 0.0,
			"-0.019": 0.0,
			"-0.018": 0.0,
			"-0.017": 0.0,
			"-0.016": 0.0,
			"-0.015": 0.0,
			"-0.014": 0.0,
			"-0.013": 0.0,
			"-0.012": 0.0,
			"-0.011": 0.0,
			"-0.01": 0.0,
			"-0.009": 0.383200710323,
			"-0.008": 6.37713981617,
			"-0.007": 10.0595186994,
			"-0.006": 11.7267852395,
			"-0.005": 11.1610635239,
			"-0.004": 12.218151674,
			"-0.003": 12.3865420334,
			"-0.002": 18.3806355428,
			"-0.001": 24.9561377799,
			"0.0": 24.3589285448,
			"0.001": 26.7366050388,
			"0.002": 22.5186221017,
			"0.003": 11.6761493785,
			"0.004": 11.2048849228,
			"0.005": 9.35846315868,
			"0.006": 6.63003187908,
			"0.007": 5.72097190712,
			"0.008": 5.78675484833,
			"0.009": 5.02557640623,
			"0.01": 2.54507329441,
			"0.011": 0.36876435817,
			"0.012": 0.0,
			"0.013": 0.0,
			"0.014": 0.0,
			"0.015": 0.0,
			"0.016": 0.0,
			"0.017": 0.0,
			"0.018": 0.0,
			"0.019": 0.0,
			"0.02": 0.0,
			"0.021": 0.0,
			"0.022": 0.0,
			"0.023": 0.0,
			"0.024": 0.0,
			"0.025": 0.0
		}
	}
}
