{
	 "smiles": "COC1=CC=C(C=C1Cl)C(O)=O", 
	 "Tm": 490.15, 
	 "num_atms": 19, 
	 "gaussian": { 
		 "optdone": 1, 
		 "sigma_profile": "yes", 
		 "theory": "DFT", 
		 "functional": "B3LYP", 
		 "basiset": "6-31G**", 
		 "properties": { 
			 "R2extent": 3660.4244, 
			 "electric_dipole_moment_norm": 6.68976032306, 
			 "electric_quadrupole_moment_norm": 15.244340804, 
			 "total_energy": -994.927489269, 
			 "HOMO_LUMO_gap": 0.1943, 
			 "cosmo_polarized_energy": -17.2, 
			 "cosmo_cavitation_energy": 25.49, 
			 "cosmo_dispersion_energy": -18.99, 
			 "cosmo_repulsion_energy": 1.52, 
			 "cosmo_total_nonelectrostatic_energy": 8.01, 
			 "SMD_solvation_energy": 6.14 
		},
		"coords": [
			{
				"x": 0.0437629377,
				"y": -1.6859056926,
				"z": -1.8771396698,
				"element": "C" 
			},
			{
				"x": 1.0456207407,
				"y": -1.4098650063,
				"z": -0.9049775733,
				"element": "O" 
			},
			{
				"x": 0.9309566585,
				"y": -0.2957750371,
				"z": -0.1517591978,
				"element": "C" 
			},
			{
				"x": -0.116549123,
				"y": 0.6299547275,
				"z": -0.2514841821,
				"element": "C" 
			},
			{
				"x": -0.1512229211,
				"y": 1.7491155306,
				"z": 0.578745738,
				"element": "C" 
			},
			{
				"x": 0.8544376362,
				"y": 1.9732184364,
				"z": 1.524155935,
				"element": "C" 
			},
			{
				"x": 1.9182431758,
				"y": 1.0613556415,
				"z": 1.610421835,
				"element": "C" 
			},
			{
				"x": 1.952414154,
				"y": -0.0573222083,
				"z": 0.7960445344,
				"element": "C" 
			},
			{
				"x": 3.2744464784,
				"y": -1.1922694065,
				"z": 0.9309900021,
				"element": "Cl" 
			},
			{
				"x": 0.8916863778,
				"y": 3.1615255867,
				"z": 2.4318857851,
				"element": "C" 
			},
			{
				"x": -0.2813906025,
				"y": 3.8271390011,
				"z": 2.6187310636,
				"element": "O" 
			},
			{
				"x": 1.8950694303,
				"y": 3.5417659504,
				"z": 2.9883197485,
				"element": "O" 
			},
			{
				"x": -0.9413986556,
				"y": -1.8124508496,
				"z": -1.4123024323,
				"element": "H" 
			},
			{
				"x": -0.0080898978,
				"y": -0.8947094241,
				"z": -2.6346368126,
				"element": "H" 
			},
			{
				"x": 0.3429094151,
				"y": -2.6209638543,
				"z": -2.3509924388,
				"element": "H" 
			},
			{
				"x": -0.9019310222,
				"y": 0.4853871481,
				"z": -0.9829899847,
				"element": "H" 
			},
			{
				"x": -0.9594627296,
				"y": 2.4630903207,
				"z": 0.4421571597,
				"element": "H" 
			},
			{
				"x": 2.7117427307,
				"y": 1.2462560674,
				"z": 2.324985647,
				"element": "H" 
			},
			{
				"x": -1.0188447833,
				"y": 3.3096530683,
				"z": 2.267744843,
				"element": "H" 
			}
		],
		 "valence_orbital": [ 
			{
				"type": "occ",
				"energy": -0.31566,
				"method": "rhf"
			},
			{
				"type": "occ",
				"energy": -0.31526,
				"method": "rhf"
			},
			{
				"type": "occ",
				"energy": -0.27649,
				"method": "rhf"
			},
			{
				"type": "occ",
				"energy": -0.26685,
				"method": "rhf"
			},
			{
				"type": "occ",
				"energy": -0.24383,
				"method": "rhf"
			},
			{
				"type": "unocc",
				"energy": -0.04953,
				"method": "rhf"
			},
			{
				"type": "unocc",
				"energy": -0.03084,
				"method": "rhf"
			},
			{
				"type": "unocc",
				"energy": 0.02318,
				"method": "rhf"
			},
			{
				"type": "unocc",
				"energy": 0.04925,
				"method": "rhf"
			},
			{
				"type": "unocc",
				"energy": 0.05977,
				"method": "rhf"
			}
		],
		"cosmo_sigma_profile": { 
			"-0.025": 0.0,
			"-0.024": 0.0,
			"-0.023": 0.0,
			"-0.022": 0.0,
			"-0.021": 0.0,
			"-0.02": 0.0,
			"-0.019": 0.445081686804,
			"-0.018": 0.944459223306,
			"-0.017": 0.798661719254,
			"-0.016": 0.976760682395,
			"-0.015": 0.990370818862,
			"-0.014": 0.817519208228,
			"-0.013": 1.67656446996,
			"-0.012": 0.667029134749,
			"-0.011": 1.11260967141,
			"-0.01": 1.35862255871,
			"-0.009": 1.3852701026,
			"-0.008": 4.31226046694,
			"-0.007": 8.42203399537,
			"-0.006": 13.0980481571,
			"-0.005": 11.7770216953,
			"-0.004": 13.1346397634,
			"-0.003": 10.9974360564,
			"-0.002": 10.1423015067,
			"-0.001": 9.70246192752,
			"0.0": 13.9816657709,
			"0.001": 18.6095061398,
			"0.002": 17.2808644339,
			"0.003": 9.60788023151,
			"0.004": 11.763472018,
			"0.005": 6.79854417042,
			"0.006": 4.83664011436,
			"0.007": 4.12428320543,
			"0.008": 3.93417386583,
			"0.009": 5.60634390483,
			"0.01": 5.06039132975,
			"0.011": 5.26150251204,
			"0.012": 4.74408342433,
			"0.013": 1.78011615061,
			"0.014": 0.102514807189,
			"0.015": 0.0,
			"0.016": 0.0,
			"0.017": 0.0,
			"0.018": 0.0,
			"0.019": 0.0,
			"0.02": 0.0,
			"0.021": 0.0,
			"0.022": 0.0,
			"0.023": 0.0,
			"0.024": 0.0,
			"0.025": 0.0
		}
	}
}
