{
	 "smiles": "[O-][N+](=O)C1=CC(=C(C=C/C2=CC=CC=C2)C=C1C(Br)C(Br)C1=CC=CC=C1)[N+]([O-])=O", 
	 "Tm": 485.15, 
	 "num_atms": 46, 
	 "gaussian": { 
		 "optdone": 1, 
		 "sigma_profile": "yes", 
		 "theory": "DFT", 
		 "functional": "B3LYP", 
		 "basiset": "6-31G**", 
		 "properties": { 
			 "R2extent": 14626.7181, 
			 "electric_dipole_moment_norm": 4.07147504598, 
			 "electric_quadrupole_moment_norm": 26.8818603945, 
			 "total_energy": -6400.96323867, 
			 "HOMO_LUMO_gap": 0.12236, 
			 "cosmo_polarized_energy": -17.25, 
			 "cosmo_cavitation_energy": 54.37, 
			 "cosmo_dispersion_energy": -34.49, 
			 "cosmo_repulsion_energy": 2.59, 
			 "cosmo_total_nonelectrostatic_energy": 22.46, 
			 "SMD_solvation_energy": 10.49 
		},
		"coords": [
			{
				"x": -1.4675466022,
				"y": -4.4027639965,
				"z": -0.3566414869,
				"element": "O" 
			},
			{
				"x": -1.1130990831,
				"y": -4.2040069177,
				"z": -1.5200696145,
				"element": "N" 
			},
			{
				"x": -1.4543810853,
				"y": -4.9012530494,
				"z": -2.4715327562,
				"element": "O" 
			},
			{
				"x": -0.2371674216,
				"y": -3.0475245195,
				"z": -1.8109399458,
				"element": "C" 
			},
			{
				"x": -0.2270454498,
				"y": -2.6485110507,
				"z": -3.1418333054,
				"element": "C" 
			},
			{
				"x": 0.5671778407,
				"y": -1.5840856911,
				"z": -3.5429289557,
				"element": "C" 
			},
			{
				"x": 1.3822448506,
				"y": -0.8813700991,
				"z": -2.6309318342,
				"element": "C" 
			},
			{
				"x": 2.357094677,
				"y": 0.1676040083,
				"z": -2.9958027811,
				"element": "C" 
			},
			{
				"x": 2.5167279902,
				"y": 1.3698294548,
				"z": -2.4106257259,
				"element": "C" 
			},
			{
				"x": 1.6404234253,
				"y": 2.0584313448,
				"z": -1.4481930463,
				"element": "C" 
			},
			{
				"x": 0.2379221242,
				"y": 1.9723015642,
				"z": -1.5152373943,
				"element": "C" 
			},
			{
				"x": -0.5619202136,
				"y": 2.6733513645,
				"z": -0.6146900773,
				"element": "C" 
			},
			{
				"x": 0.0213012238,
				"y": 3.4724189614,
				"z": 0.3712809442,
				"element": "C" 
			},
			{
				"x": 1.4120510547,
				"y": 3.5804050606,
				"z": 0.439519991,
				"element": "C" 
			},
			{
				"x": 2.2122003711,
				"y": 2.8910958895,
				"z": -0.4696074383,
				"element": "C" 
			},
			{
				"x": 1.3400644983,
				"y": -1.324017812,
				"z": -1.2962266493,
				"element": "C" 
			},
			{
				"x": 0.5535964748,
				"y": -2.3877917705,
				"z": -0.8405102645,
				"element": "C" 
			},
			{
				"x": 0.6585717871,
				"y": -2.8327660361,
				"z": 0.6073088359,
				"element": "C" 
			},
			{
				"x": 2.5640109555,
				"y": -3.2526746476,
				"z": 1.0403201747,
				"element": "Br" 
			},
			{
				"x": 0.0400621636,
				"y": -1.945814389,
				"z": 1.7089259884,
				"element": "C" 
			},
			{
				"x": 0.9409796339,
				"y": -0.1761115907,
				"z": 1.9280282551,
				"element": "Br" 
			},
			{
				"x": -1.4547522027,
				"y": -1.7744330758,
				"z": 1.5584103441,
				"element": "C" 
			},
			{
				"x": -2.0232584243,
				"y": -0.9079005272,
				"z": 0.6147267602,
				"element": "C" 
			},
			{
				"x": -3.407936383,
				"y": -0.8272362048,
				"z": 0.4795300022,
				"element": "C" 
			},
			{
				"x": -4.2424147183,
				"y": -1.6055828986,
				"z": 1.2856432162,
				"element": "C" 
			},
			{
				"x": -3.6839179145,
				"y": -2.4617329266,
				"z": 2.2343906309,
				"element": "C" 
			},
			{
				"x": -2.2978246396,
				"y": -2.543519314,
				"z": 2.3704375959,
				"element": "C" 
			},
			{
				"x": 0.4908101395,
				"y": -1.2160244361,
				"z": -4.9701913899,
				"element": "N" 
			},
			{
				"x": -0.3397793092,
				"y": -1.8004330512,
				"z": -5.6635152328,
				"element": "O" 
			},
			{
				"x": 1.2555711168,
				"y": -0.3458422391,
				"z": -5.3837939389,
				"element": "O" 
			},
			{
				"x": -0.8358298398,
				"y": -3.1685974419,
				"z": -3.8674556442,
				"element": "H" 
			},
			{
				"x": 3.0457166206,
				"y": -0.1016942459,
				"z": -3.789843029,
				"element": "H" 
			},
			{
				"x": 3.3945659977,
				"y": 1.9373486503,
				"z": -2.7167876855,
				"element": "H" 
			},
			{
				"x": -0.2228206473,
				"y": 1.3832671056,
				"z": -2.3017607914,
				"element": "H" 
			},
			{
				"x": -1.6434966542,
				"y": 2.6072762976,
				"z": -0.690226337,
				"element": "H" 
			},
			{
				"x": -0.6038058271,
				"y": 4.0173998571,
				"z": 1.0722074675,
				"element": "H" 
			},
			{
				"x": 1.8733163017,
				"y": 4.209296628,
				"z": 1.195427488,
				"element": "H" 
			},
			{
				"x": 3.2937389261,
				"y": 2.9871916584,
				"z": -0.41977809,
				"element": "H" 
			},
			{
				"x": 1.9991967331,
				"y": -0.8393771623,
				"z": -0.5890183866,
				"element": "H" 
			},
			{
				"x": 0.1754027236,
				"y": -3.7965721094,
				"z": 0.7222823869,
				"element": "H" 
			},
			{
				"x": 0.2584289727,
				"y": -2.4387293494,
				"z": 2.6550850345,
				"element": "H" 
			},
			{
				"x": -1.381288458,
				"y": -0.2740443234,
				"z": 0.0120692704,
				"element": "H" 
			},
			{
				"x": -3.8381709795,
				"y": -0.1493676608,
				"z": -0.2521786738,
				"element": "H" 
			},
			{
				"x": -5.32106208,
				"y": -1.5381104208,
				"z": 1.1792160964,
				"element": "H" 
			},
			{
				"x": -4.3239883864,
				"y": -3.0647896837,
				"z": 2.8713467923,
				"element": "H" 
			},
			{
				"x": -1.8684702832,
				"y": -3.2140392042,
				"z": 3.1104632,
				"element": "H" 
			}
		],
		 "valence_orbital": [ 
			{
				"type": "occ",
				"energy": -0.28047,
				"method": "rhf"
			},
			{
				"type": "occ",
				"energy": -0.26387,
				"method": "rhf"
			},
			{
				"type": "occ",
				"energy": -0.26241,
				"method": "rhf"
			},
			{
				"type": "occ",
				"energy": -0.2547,
				"method": "rhf"
			},
			{
				"type": "occ",
				"energy": -0.23795,
				"method": "rhf"
			},
			{
				"type": "unocc",
				"energy": -0.11559,
				"method": "rhf"
			},
			{
				"type": "unocc",
				"energy": -0.10165,
				"method": "rhf"
			},
			{
				"type": "unocc",
				"energy": -0.05523,
				"method": "rhf"
			},
			{
				"type": "unocc",
				"energy": -0.04709,
				"method": "rhf"
			},
			{
				"type": "unocc",
				"energy": -0.03405,
				"method": "rhf"
			}
		],
		"cosmo_sigma_profile": { 
			"-0.025": 0.0,
			"-0.024": 0.0,
			"-0.023": 0.0,
			"-0.022": 0.0,
			"-0.021": 0.0,
			"-0.02": 0.0,
			"-0.019": 0.0,
			"-0.018": 0.0,
			"-0.017": 0.0,
			"-0.016": 0.0,
			"-0.015": 0.0,
			"-0.014": 0.0,
			"-0.013": 0.0,
			"-0.012": 0.0954173035445,
			"-0.011": 0.342078098044,
			"-0.01": 1.61674064125,
			"-0.009": 3.58232100144,
			"-0.008": 4.38694296572,
			"-0.007": 11.6376649041,
			"-0.006": 28.6917134092,
			"-0.005": 30.5963620526,
			"-0.004": 38.285606889,
			"-0.003": 37.3157602884,
			"-0.002": 28.4821421472,
			"-0.001": 24.8510906588,
			"0.0": 25.3403273732,
			"0.001": 27.4091560631,
			"0.002": 32.4539818757,
			"0.003": 29.2689588319,
			"0.004": 32.1938196748,
			"0.005": 33.8439366457,
			"0.006": 17.4552345627,
			"0.007": 17.001596838,
			"0.008": 9.3293694362,
			"0.009": 6.57924082505,
			"0.01": 0.990895829241,
			"0.011": 0.0,
			"0.012": 0.0,
			"0.013": 0.0,
			"0.014": 0.0,
			"0.015": 0.0,
			"0.016": 0.0,
			"0.017": 0.0,
			"0.018": 0.0,
			"0.019": 0.0,
			"0.02": 0.0,
			"0.021": 0.0,
			"0.022": 0.0,
			"0.023": 0.0,
			"0.024": 0.0,
			"0.025": 0.0
		}
	}
}
