{
	 "smiles": "CN1C=C(NC(=O)OC(C)(C)C)C=C1C(O)=O", 
	 "Tm": 413.15, 
	 "num_atms": 33, 
	 "gaussian": { 
		 "optdone": 1, 
		 "sigma_profile": "yes", 
		 "theory": "DFT", 
		 "functional": "B3LYP", 
		 "basiset": "6-31G**", 
		 "properties": { 
			 "R2extent": 6164.8613, 
			 "electric_dipole_moment_norm": 6.2611228362, 
			 "electric_quadrupole_moment_norm": 24.1699933542, 
			 "total_energy": -839.240879601, 
			 "HOMO_LUMO_gap": 0.17849, 
			 "cosmo_polarized_energy": -22.26, 
			 "cosmo_cavitation_energy": 36.38, 
			 "cosmo_dispersion_energy": -25.26, 
			 "cosmo_repulsion_energy": 1.95, 
			 "cosmo_total_nonelectrostatic_energy": 13.07, 
			 "SMD_solvation_energy": 8.59 
		},
		"coords": [
			{
				"x": -0.2762151957,
				"y": 1.5562247058,
				"z": 3.3368943225,
				"element": "C" 
			},
			{
				"x": 0.1251071255,
				"y": 0.3004399588,
				"z": 2.7178108786,
				"element": "N" 
			},
			{
				"x": 0.3327279572,
				"y": 0.1726421302,
				"z": 1.3646980693,
				"element": "C" 
			},
			{
				"x": 0.6023708363,
				"y": -1.1601266918,
				"z": 1.0831854089,
				"element": "C" 
			},
			{
				"x": 0.885712717,
				"y": -1.7751166551,
				"z": -0.1444700129,
				"element": "N" 
			},
			{
				"x": 0.9891674019,
				"y": -1.2581972615,
				"z": -1.414671351,
				"element": "C" 
			},
			{
				"x": 1.2497458315,
				"y": -1.9627699989,
				"z": -2.3762171405,
				"element": "O" 
			},
			{
				"x": 0.7701506383,
				"y": 0.0741631787,
				"z": -1.4293699828,
				"element": "O" 
			},
			{
				"x": 0.8354796351,
				"y": 0.8281524614,
				"z": -2.6966242988,
				"element": "C" 
			},
			{
				"x": -0.2405287123,
				"y": 0.32163713,
				"z": -3.6622553552,
				"element": "C" 
			},
			{
				"x": 0.5313771688,
				"y": 2.2600180229,
				"z": -2.2483010461,
				"element": "C" 
			},
			{
				"x": 2.2447992241,
				"y": 0.7331371535,
				"z": -3.2897028808,
				"element": "C" 
			},
			{
				"x": 0.5392990055,
				"y": -1.8632542883,
				"z": 2.3078718558,
				"element": "C" 
			},
			{
				"x": 0.2514877387,
				"y": -0.948121473,
				"z": 3.3108931137,
				"element": "C" 
			},
			{
				"x": 0.1124925336,
				"y": -1.288634323,
				"z": 4.7359772926,
				"element": "C" 
			},
			{
				"x": 0.2666677514,
				"y": -0.2784970493,
				"z": 5.6510633489,
				"element": "O" 
			},
			{
				"x": -0.1240629504,
				"y": -2.4097891621,
				"z": 5.1223851716,
				"element": "O" 
			},
			{
				"x": -0.7303382457,
				"y": 2.1934083462,
				"z": 2.5764254528,
				"element": "H" 
			},
			{
				"x": 0.5798975709,
				"y": 2.0997405995,
				"z": 3.7595044765,
				"element": "H" 
			},
			{
				"x": -1.0131540792,
				"y": 1.3775929144,
				"z": 4.1215918074,
				"element": "H" 
			},
			{
				"x": 0.2595518817,
				"y": 1.0200036484,
				"z": 0.7057631025,
				"element": "H" 
			},
			{
				"x": 1.0444963805,
				"y": -2.7716839848,
				"z": -0.1263667392,
				"element": "H" 
			},
			{
				"x": -0.0381203694,
				"y": -0.7045212482,
				"z": -3.9688346538,
				"element": "H" 
			},
			{
				"x": -0.2629944459,
				"y": 0.9596484037,
				"z": -4.5516724937,
				"element": "H" 
			},
			{
				"x": -1.2266883467,
				"y": 0.3636645949,
				"z": -3.1890397978,
				"element": "H" 
			},
			{
				"x": 0.5504973687,
				"y": 2.9341903507,
				"z": -3.1094952838,
				"element": "H" 
			},
			{
				"x": 1.275975132,
				"y": 2.6061348442,
				"z": -1.5249221666,
				"element": "H" 
			},
			{
				"x": -0.4596493491,
				"y": 2.3199300008,
				"z": -1.7880202327,
				"element": "H" 
			},
			{
				"x": 2.9889206424,
				"y": 1.0611222507,
				"z": -2.556927514,
				"element": "H" 
			},
			{
				"x": 2.472686099,
				"y": -0.2885951063,
				"z": -3.5931691809,
				"element": "H" 
			},
			{
				"x": 2.3180200546,
				"y": 1.3874761079,
				"z": -4.1643987214,
				"element": "H" 
			},
			{
				"x": 0.691333911,
				"y": -2.9203310149,
				"z": 2.4728273153,
				"element": "H" 
			},
			{
				"x": 0.7191870885,
				"y": 0.4745114546,
				"z": 5.2490672354,
				"element": "H" 
			}
		],
		 "valence_orbital": [ 
			{
				"type": "occ",
				"energy": -0.29603,
				"method": "rhf"
			},
			{
				"type": "occ",
				"energy": -0.27374,
				"method": "rhf"
			},
			{
				"type": "occ",
				"energy": -0.27053,
				"method": "rhf"
			},
			{
				"type": "occ",
				"energy": -0.24068,
				"method": "rhf"
			},
			{
				"type": "occ",
				"energy": -0.20992,
				"method": "rhf"
			},
			{
				"type": "unocc",
				"energy": -0.03143,
				"method": "rhf"
			},
			{
				"type": "unocc",
				"energy": 0.02717,
				"method": "rhf"
			},
			{
				"type": "unocc",
				"energy": 0.04327,
				"method": "rhf"
			},
			{
				"type": "unocc",
				"energy": 0.07261,
				"method": "rhf"
			},
			{
				"type": "unocc",
				"energy": 0.07751,
				"method": "rhf"
			}
		],
		"cosmo_sigma_profile": { 
			"-0.025": 0.0,
			"-0.024": 0.0,
			"-0.023": 0.0,
			"-0.022": 0.0,
			"-0.021": 0.0,
			"-0.02": 0.0,
			"-0.019": 0.0,
			"-0.018": 0.142029539043,
			"-0.017": 1.14368397753,
			"-0.016": 1.04617620865,
			"-0.015": 1.89408963714,
			"-0.014": 1.44355430206,
			"-0.013": 1.86491925203,
			"-0.012": 2.28052850998,
			"-0.011": 2.37332999976,
			"-0.01": 2.00549687444,
			"-0.009": 1.75084865169,
			"-0.008": 5.14328381098,
			"-0.007": 9.59351222049,
			"-0.006": 9.91302598107,
			"-0.005": 9.55325833837,
			"-0.004": 22.5218498092,
			"-0.003": 25.4064879748,
			"-0.002": 20.4831991235,
			"-0.001": 22.9771895809,
			"0.0": 30.0881774806,
			"0.001": 22.4614115164,
			"0.002": 11.9003855502,
			"0.003": 12.8219480209,
			"0.004": 13.1885423011,
			"0.005": 8.92992737849,
			"0.006": 4.89427929983,
			"0.007": 4.45083191725,
			"0.008": 3.36571799951,
			"0.009": 4.40142640518,
			"0.01": 5.53455126509,
			"0.011": 6.56266002707,
			"0.012": 8.13464322556,
			"0.013": 6.88199251198,
			"0.014": 1.2752975182,
			"0.015": 0.0,
			"0.016": 0.0,
			"0.017": 0.0,
			"0.018": 0.0,
			"0.019": 0.0,
			"0.02": 0.0,
			"0.021": 0.0,
			"0.022": 0.0,
			"0.023": 0.0,
			"0.024": 0.0,
			"0.025": 0.0
		}
	}
}
