{
	 "smiles": "NNC(=O)C1=C(N(N=C1)C1=CC=CC=C1)C(F)(F)F", 
	 "Tm": 427.15, 
	 "num_atms": 28, 
	 "gaussian": { 
		 "optdone": 1, 
		 "sigma_profile": "yes", 
		 "theory": "DFT", 
		 "functional": "B3LYP", 
		 "basiset": "6-31G**", 
		 "properties": { 
			 "R2extent": 5344.0826, 
			 "electric_dipole_moment_norm": 3.88224241644, 
			 "electric_quadrupole_moment_norm": 13.2503298099, 
			 "total_energy": -1018.29374746, 
			 "HOMO_LUMO_gap": 0.19614, 
			 "cosmo_polarized_energy": -16.92, 
			 "cosmo_cavitation_energy": 34.1, 
			 "cosmo_dispersion_energy": -23.63, 
			 "cosmo_repulsion_energy": 1.78, 
			 "cosmo_total_nonelectrostatic_energy": 12.25, 
			 "SMD_solvation_energy": 7.1 
		},
		"coords": [
			{
				"x": -3.4502551427,
				"y": 0.2245448005,
				"z": -2.1439859486,
				"element": "N" 
			},
			{
				"x": -3.9301460515,
				"y": 0.3998164986,
				"z": -0.8313724293,
				"element": "N" 
			},
			{
				"x": -3.1688337879,
				"y": 0.4689233373,
				"z": 0.3151419217,
				"element": "C" 
			},
			{
				"x": -3.6560858602,
				"y": 0.2553409067,
				"z": 1.4157541758,
				"element": "O" 
			},
			{
				"x": -1.7433359484,
				"y": 0.8834015679,
				"z": 0.1392649383,
				"element": "C" 
			},
			{
				"x": -0.6274023536,
				"y": 0.3557556214,
				"z": 0.7777708662,
				"element": "C" 
			},
			{
				"x": 0.439262538,
				"y": 1.1494270542,
				"z": 0.4441034236,
				"element": "N" 
			},
			{
				"x": 0.0675533736,
				"y": 2.1577648346,
				"z": -0.3812710415,
				"element": "N" 
			},
			{
				"x": -1.2359810121,
				"y": 1.9981990521,
				"z": -0.5684253291,
				"element": "C" 
			},
			{
				"x": 1.8160666008,
				"y": 1.0714160792,
				"z": 0.8328705262,
				"element": "C" 
			},
			{
				"x": 2.1687589829,
				"y": 0.8463497211,
				"z": 2.165194562,
				"element": "C" 
			},
			{
				"x": 3.5187484453,
				"y": 0.8032725095,
				"z": 2.5124639269,
				"element": "C" 
			},
			{
				"x": 4.504827637,
				"y": 1.0032812019,
				"z": 1.5452410894,
				"element": "C" 
			},
			{
				"x": 4.1383085562,
				"y": 1.2467815687,
				"z": 0.2196359754,
				"element": "C" 
			},
			{
				"x": 2.7935470693,
				"y": 1.2797919469,
				"z": -0.143434556,
				"element": "C" 
			},
			{
				"x": -0.5318078871,
				"y": -0.8943021594,
				"z": 1.6036051121,
				"element": "C" 
			},
			{
				"x": 0.6108428779,
				"y": -1.5693003248,
				"z": 1.3450607349,
				"element": "F" 
			},
			{
				"x": -1.5548527682,
				"y": -1.7191908354,
				"z": 1.3333746241,
				"element": "F" 
			},
			{
				"x": -0.5508081269,
				"y": -0.6369977924,
				"z": 2.9306963046,
				"element": "F" 
			},
			{
				"x": -3.1372193516,
				"y": 1.114572941,
				"z": -2.5198971224,
				"element": "H" 
			},
			{
				"x": -2.6617496035,
				"y": -0.4181865311,
				"z": -2.1499618378,
				"element": "H" 
			},
			{
				"x": -4.8682185305,
				"y": 0.0495585459,
				"z": -0.6791933944,
				"element": "H" 
			},
			{
				"x": -1.7798365141,
				"y": 2.7115620835,
				"z": -1.1730656932,
				"element": "H" 
			},
			{
				"x": 1.4021084699,
				"y": 0.7112830312,
				"z": 2.91833596,
				"element": "H" 
			},
			{
				"x": 3.7961767536,
				"y": 0.6256293472,
				"z": 3.5468990689,
				"element": "H" 
			},
			{
				"x": 5.5538935782,
				"y": 0.9745416761,
				"z": 1.8236131775,
				"element": "H" 
			},
			{
				"x": 4.9002977013,
				"y": 1.4074736275,
				"z": -0.5369224931,
				"element": "H" 
			},
			{
				"x": 2.4901403544,
				"y": 1.4721896902,
				"z": -1.1657965423,
				"element": "H" 
			}
		],
		 "valence_orbital": [ 
			{
				"type": "occ",
				"energy": -0.28116,
				"method": "rhf"
			},
			{
				"type": "occ",
				"energy": -0.26742,
				"method": "rhf"
			},
			{
				"type": "occ",
				"energy": -0.26215,
				"method": "rhf"
			},
			{
				"type": "occ",
				"energy": -0.25859,
				"method": "rhf"
			},
			{
				"type": "occ",
				"energy": -0.24437,
				"method": "rhf"
			},
			{
				"type": "unocc",
				"energy": -0.04823,
				"method": "rhf"
			},
			{
				"type": "unocc",
				"energy": -0.01789,
				"method": "rhf"
			},
			{
				"type": "unocc",
				"energy": -0.01026,
				"method": "rhf"
			},
			{
				"type": "unocc",
				"energy": 0.00469,
				"method": "rhf"
			},
			{
				"type": "unocc",
				"energy": 0.0581,
				"method": "rhf"
			}
		],
		"cosmo_sigma_profile": { 
			"-0.025": 0.0,
			"-0.024": 0.0,
			"-0.023": 0.0,
			"-0.022": 0.0,
			"-0.021": 0.0,
			"-0.02": 0.0,
			"-0.019": 0.0,
			"-0.018": 0.0,
			"-0.017": 0.0,
			"-0.016": 0.0,
			"-0.015": 0.0,
			"-0.014": 0.446690299207,
			"-0.013": 0.874665064932,
			"-0.012": 3.34712191465,
			"-0.011": 4.67063862428,
			"-0.01": 4.57931737164,
			"-0.009": 5.30388648858,
			"-0.008": 4.28874948134,
			"-0.007": 6.80116744416,
			"-0.006": 15.070674294,
			"-0.005": 15.7356965847,
			"-0.004": 15.7323032676,
			"-0.003": 13.731454856,
			"-0.002": 16.3740477565,
			"-0.001": 14.2341982566,
			"0.0": 16.0167411033,
			"0.001": 21.7084138459,
			"0.002": 34.1070574063,
			"0.003": 22.3279267934,
			"0.004": 17.5920323259,
			"0.005": 5.97255796746,
			"0.006": 4.19729695466,
			"0.007": 3.45884844437,
			"0.008": 3.50155429203,
			"0.009": 2.53820064702,
			"0.01": 4.22395954423,
			"0.011": 4.12301216314,
			"0.012": 4.16906326918,
			"0.013": 5.82217996045,
			"0.014": 0.942455307393,
			"0.015": 1.15872239305,
			"0.016": 0.111171738085,
			"0.017": 0.0,
			"0.018": 0.0,
			"0.019": 0.0,
			"0.02": 0.0,
			"0.021": 0.0,
			"0.022": 0.0,
			"0.023": 0.0,
			"0.024": 0.0,
			"0.025": 0.0
		}
	}
}
