{
	 "smiles": "[O-][N+](=O)C1=CC=C(NN=CC2=CC=CC3=C(Br)C=CC=C23)C=C1", 
	 "Tm": 541.15, 
	 "num_atms": 35, 
	 "gaussian": { 
		 "optdone": 1, 
		 "sigma_profile": "yes", 
		 "theory": "DFT", 
		 "functional": "B3LYP", 
		 "basiset": "6-31G**", 
		 "properties": { 
			 "R2extent": 18151.8584, 
			 "electric_dipole_moment_norm": 6.74973226506, 
			 "electric_quadrupole_moment_norm": 49.6860556291, 
			 "total_energy": -3541.02940453, 
			 "HOMO_LUMO_gap": 0.12568, 
			 "cosmo_polarized_energy": -18.29, 
			 "cosmo_cavitation_energy": 43.02, 
			 "cosmo_dispersion_energy": -31.54, 
			 "cosmo_repulsion_energy": 2.33, 
			 "cosmo_total_nonelectrostatic_energy": 13.81, 
			 "SMD_solvation_energy": 8.01 
		},
		"coords": [
			{
				"x": 2.3942081404,
				"y": -7.0152925423,
				"z": -0.9184544432,
				"element": "O" 
			},
			{
				"x": 1.6072096189,
				"y": -6.7988602432,
				"z": 0.0067051988,
				"element": "N" 
			},
			{
				"x": 1.2818555071,
				"y": -7.6346908183,
				"z": 0.8543688134,
				"element": "O" 
			},
			{
				"x": 1.022750883,
				"y": -5.4676804914,
				"z": 0.1056128035,
				"element": "C" 
			},
			{
				"x": 0.1285164659,
				"y": -5.1869809471,
				"z": 1.1414113595,
				"element": "C" 
			},
			{
				"x": -0.4245898461,
				"y": -3.9208250257,
				"z": 1.2337748357,
				"element": "C" 
			},
			{
				"x": -0.0895446643,
				"y": -2.924531914,
				"z": 0.2926714076,
				"element": "C" 
			},
			{
				"x": -0.6630963585,
				"y": -1.6752153575,
				"z": 0.4226527391,
				"element": "N" 
			},
			{
				"x": -0.375484253,
				"y": -0.6547926183,
				"z": -0.4142970174,
				"element": "N" 
			},
			{
				"x": -1.0021360678,
				"y": 0.4556146933,
				"z": -0.2185857422,
				"element": "C" 
			},
			{
				"x": -0.8607413083,
				"y": 1.6893662092,
				"z": -0.9909212102,
				"element": "C" 
			},
			{
				"x": -1.74020496,
				"y": 2.7062357613,
				"z": -0.6329305477,
				"element": "C" 
			},
			{
				"x": -1.7486892257,
				"y": 3.9498942289,
				"z": -1.2877917256,
				"element": "C" 
			},
			{
				"x": -0.8680903882,
				"y": 4.1943829118,
				"z": -2.3148958289,
				"element": "C" 
			},
			{
				"x": 0.0641486827,
				"y": 3.2038642715,
				"z": -2.7221540167,
				"element": "C" 
			},
			{
				"x": 1.0009889678,
				"y": 3.4203835739,
				"z": -3.7752690956,
				"element": "C" 
			},
			{
				"x": 1.0360214136,
				"y": 5.0910474187,
				"z": -4.7169806305,
				"element": "Br" 
			},
			{
				"x": 1.9089031391,
				"y": 2.4615540547,
				"z": -4.157316346,
				"element": "C" 
			},
			{
				"x": 1.9240186477,
				"y": 1.2203314495,
				"z": -3.4890080342,
				"element": "C" 
			},
			{
				"x": 1.0382366287,
				"y": 0.9557026962,
				"z": -2.4681997128,
				"element": "C" 
			},
			{
				"x": 0.0856221259,
				"y": 1.9240919008,
				"z": -2.0571012665,
				"element": "C" 
			},
			{
				"x": 0.8113612253,
				"y": -3.226361094,
				"z": -0.7484772857,
				"element": "C" 
			},
			{
				"x": 1.3638677572,
				"y": -4.4943052957,
				"z": -0.83669319,
				"element": "C" 
			},
			{
				"x": -0.1160449624,
				"y": -5.9634917771,
				"z": 1.8552197746,
				"element": "H" 
			},
			{
				"x": -1.1192642469,
				"y": -3.6923569019,
				"z": 2.0377434804,
				"element": "H" 
			},
			{
				"x": -1.3349922515,
				"y": -1.5266682625,
				"z": 1.1721724709,
				"element": "H" 
			},
			{
				"x": -1.7383656228,
				"y": 0.5195415058,
				"z": 0.595694521,
				"element": "H" 
			},
			{
				"x": -2.4473817871,
				"y": 2.5309715829,
				"z": 0.1736243695,
				"element": "H" 
			},
			{
				"x": -2.454949069,
				"y": 4.7147395514,
				"z": -0.9803527902,
				"element": "H" 
			},
			{
				"x": -0.8720651709,
				"y": 5.1495161818,
				"z": -2.8257495609,
				"element": "H" 
			},
			{
				"x": 2.6069789047,
				"y": 2.6619258858,
				"z": -4.9617215969,
				"element": "H" 
			},
			{
				"x": 2.6477380392,
				"y": 0.4682626301,
				"z": -3.7886129507,
				"element": "H" 
			},
			{
				"x": 1.059828662,
				"y": 0.0024540052,
				"z": -1.9611440766,
				"element": "H" 
			},
			{
				"x": 1.058843073,
				"y": -2.4641929382,
				"z": -1.4754484989,
				"element": "H" 
			},
			{
				"x": 2.0575423003,
				"y": -4.7490342856,
				"z": -1.6283462067,
				"element": "H" 
			}
		],
		 "valence_orbital": [ 
			{
				"type": "occ",
				"energy": -0.27785,
				"method": "rhf"
			},
			{
				"type": "occ",
				"energy": -0.27649,
				"method": "rhf"
			},
			{
				"type": "occ",
				"energy": -0.26385,
				"method": "rhf"
			},
			{
				"type": "occ",
				"energy": -0.23949,
				"method": "rhf"
			},
			{
				"type": "occ",
				"energy": -0.21129,
				"method": "rhf"
			},
			{
				"type": "unocc",
				"energy": -0.08561,
				"method": "rhf"
			},
			{
				"type": "unocc",
				"energy": -0.06695,
				"method": "rhf"
			},
			{
				"type": "unocc",
				"energy": -0.0301,
				"method": "rhf"
			},
			{
				"type": "unocc",
				"energy": -0.02515,
				"method": "rhf"
			},
			{
				"type": "unocc",
				"energy": -0.01749,
				"method": "rhf"
			}
		],
		"cosmo_sigma_profile": { 
			"-0.025": 0.0,
			"-0.024": 0.0,
			"-0.023": 0.0,
			"-0.022": 0.0,
			"-0.021": 0.0,
			"-0.02": 0.0,
			"-0.019": 0.0,
			"-0.018": 0.0,
			"-0.017": 0.0,
			"-0.016": 0.47878666754,
			"-0.015": 1.68051467674,
			"-0.014": 1.98972596738,
			"-0.013": 2.02311113752,
			"-0.012": 1.47815602969,
			"-0.011": 1.77474540919,
			"-0.01": 1.3893140289,
			"-0.009": 2.23807465094,
			"-0.008": 5.39422155329,
			"-0.007": 10.7468141657,
			"-0.006": 16.2738092813,
			"-0.005": 19.8843764499,
			"-0.004": 17.53899251,
			"-0.003": 16.751077113,
			"-0.002": 17.2588450653,
			"-0.001": 19.8565633728,
			"0.0": 25.0560035325,
			"0.001": 36.5502118296,
			"0.002": 52.8481963381,
			"0.003": 40.9917586622,
			"0.004": 20.5883536599,
			"0.005": 6.54827239809,
			"0.006": 3.89438597197,
			"0.007": 3.40597249908,
			"0.008": 7.95124152994,
			"0.009": 8.19857856052,
			"0.01": 4.19007589909,
			"0.011": 3.11373776298,
			"0.012": 0.174599106811,
			"0.013": 0.0,
			"0.014": 0.0,
			"0.015": 0.0,
			"0.016": 0.0,
			"0.017": 0.0,
			"0.018": 0.0,
			"0.019": 0.0,
			"0.02": 0.0,
			"0.021": 0.0,
			"0.022": 0.0,
			"0.023": 0.0,
			"0.024": 0.0,
			"0.025": 0.0
		}
	}
}
