{
	 "smiles": "CCCOC1CCC2C3C(CCC12C)C1(C)CCC(CC1CC3=O)OCCC", 
	 "Tm": 435.15, 
	 "num_atms": 70, 
	 "gaussian": { 
		 "optdone": 1, 
		 "sigma_profile": "yes", 
		 "theory": "DFT", 
		 "functional": "B3LYP", 
		 "basiset": "6-31G**", 
		 "properties": { 
			 "R2extent": 17830.4984, 
			 "electric_dipole_moment_norm": 3.00589001129, 
			 "electric_quadrupole_moment_norm": 22.1105759837, 
			 "total_energy": -1203.65519705, 
			 "HOMO_LUMO_gap": 0.21942, 
			 "cosmo_polarized_energy": -12.38, 
			 "cosmo_cavitation_energy": 59.8, 
			 "cosmo_dispersion_energy": -40.66, 
			 "cosmo_repulsion_energy": 3.03, 
			 "cosmo_total_nonelectrostatic_energy": 22.17, 
			 "SMD_solvation_energy": 8.74 
		},
		"coords": [
			{
				"x": -0.4483851474,
				"y": 7.2931153458,
				"z": -4.4735143618,
				"element": "C" 
			},
			{
				"x": 0.6388521979,
				"y": 6.2811983749,
				"z": -4.8454292468,
				"element": "C" 
			},
			{
				"x": 1.4289783183,
				"y": 5.7747309949,
				"z": -3.6341240756,
				"element": "C" 
			},
			{
				"x": 0.6180643643,
				"y": 5.099196265,
				"z": -2.6809196907,
				"element": "O" 
			},
			{
				"x": 0.3745087111,
				"y": 3.7096151369,
				"z": -2.9254517255,
				"element": "C" 
			},
			{
				"x": -1.1384318039,
				"y": 3.4492413019,
				"z": -2.8118889235,
				"element": "C" 
			},
			{
				"x": -1.3996834671,
				"y": 3.1569893469,
				"z": -1.3130253688,
				"element": "C" 
			},
			{
				"x": -0.003425795,
				"y": 3.0213693313,
				"z": -0.6328321269,
				"element": "C" 
			},
			{
				"x": 0.0130216218,
				"y": 1.9342436155,
				"z": 0.4639173245,
				"element": "C" 
			},
			{
				"x": 0.0630585932,
				"y": 0.4802338558,
				"z": -0.09283256,
				"element": "C" 
			},
			{
				"x": 1.2292822257,
				"y": 0.3684610079,
				"z": -1.0966262131,
				"element": "C" 
			},
			{
				"x": 1.054113942,
				"y": 1.3604664761,
				"z": -2.2570604338,
				"element": "C" 
			},
			{
				"x": 1.0160315037,
				"y": 2.8397913067,
				"z": -1.8028749075,
				"element": "C" 
			},
			{
				"x": 2.439055223,
				"y": 3.3184763387,
				"z": -1.4759653849,
				"element": "C" 
			},
			{
				"x": 0.02780712,
				"y": -0.6177101639,
				"z": 1.0263948169,
				"element": "C" 
			},
			{
				"x": 0.2628049577,
				"y": -2.0085246458,
				"z": 0.3876026509,
				"element": "C" 
			},
			{
				"x": -1.3939734586,
				"y": -0.6392778975,
				"z": 1.6903416611,
				"element": "C" 
			},
			{
				"x": -1.4178879015,
				"y": -0.8788166782,
				"z": 3.2162179231,
				"element": "C" 
			},
			{
				"x": -0.3257628204,
				"y": -1.8195687873,
				"z": 3.7249285329,
				"element": "C" 
			},
			{
				"x": 1.0926348612,
				"y": -1.3830395976,
				"z": 3.2570719127,
				"element": "C" 
			},
			{
				"x": 1.1322822554,
				"y": -0.3587048171,
				"z": 2.0903068314,
				"element": "C" 
			},
			{
				"x": 1.1308270109,
				"y": 1.0935259565,
				"z": 2.6225515871,
				"element": "C" 
			},
			{
				"x": 1.077695242,
				"y": 2.155383285,
				"z": 1.5369143223,
				"element": "C" 
			},
			{
				"x": 1.7962131744,
				"y": 3.1386955814,
				"z": 1.5801426527,
				"element": "O" 
			},
			{
				"x": -0.6575897653,
				"y": -3.1377118752,
				"z": 3.2645522119,
				"element": "O" 
			},
			{
				"x": -0.1092660042,
				"y": -4.2073150285,
				"z": 4.0313625317,
				"element": "C" 
			},
			{
				"x": -0.9783601733,
				"y": -4.5827085967,
				"z": 5.2360780694,
				"element": "C" 
			},
			{
				"x": -2.3833818596,
				"y": -5.0439123447,
				"z": 4.8391691793,
				"element": "C" 
			},
			{
				"x": -1.0280555144,
				"y": 7.5987577747,
				"z": -5.3504054998,
				"element": "H" 
			},
			{
				"x": -0.0106146233,
				"y": 8.1953254363,
				"z": -4.0306887954,
				"element": "H" 
			},
			{
				"x": -1.1368533669,
				"y": 6.8665785807,
				"z": -3.7385212065,
				"element": "H" 
			},
			{
				"x": 0.1918944461,
				"y": 5.4245523135,
				"z": -5.3672393062,
				"element": "H" 
			},
			{
				"x": 1.3500105038,
				"y": 6.7325376494,
				"z": -5.5508043685,
				"element": "H" 
			},
			{
				"x": 1.8737185089,
				"y": 6.6240545753,
				"z": -3.1005448064,
				"element": "H" 
			},
			{
				"x": 2.2558107619,
				"y": 5.1291328605,
				"z": -3.9650215879,
				"element": "H" 
			},
			{
				"x": 0.7695398508,
				"y": 3.433490467,
				"z": -3.9138233371,
				"element": "H" 
			},
			{
				"x": -1.4227501236,
				"y": 2.5926346366,
				"z": -3.4318118572,
				"element": "H" 
			},
			{
				"x": -1.6954036198,
				"y": 4.3128595134,
				"z": -3.1824749584,
				"element": "H" 
			},
			{
				"x": -1.9944609364,
				"y": 2.2441401808,
				"z": -1.1957634555,
				"element": "H" 
			},
			{
				"x": -1.9722812203,
				"y": 3.9608701781,
				"z": -0.8403125089,
				"element": "H" 
			},
			{
				"x": 0.2364069565,
				"y": 3.9718836586,
				"z": -0.1482321816,
				"element": "H" 
			},
			{
				"x": -0.9299718177,
				"y": 2.0356195414,
				"z": 1.0261280288,
				"element": "H" 
			},
			{
				"x": -0.8580362797,
				"y": 0.3308429698,
				"z": -0.6769499008,
				"element": "H" 
			},
			{
				"x": 1.2779887436,
				"y": -0.6419317218,
				"z": -1.5110358911,
				"element": "H" 
			},
			{
				"x": 2.1894262089,
				"y": 0.5423244199,
				"z": -0.5931026401,
				"element": "H" 
			},
			{
				"x": 0.1271432948,
				"y": 1.0975562717,
				"z": -2.783402798,
				"element": "H" 
			},
			{
				"x": 1.8647012557,
				"y": 1.2281651318,
				"z": -2.9853719353,
				"element": "H" 
			},
			{
				"x": 3.0721022784,
				"y": 3.2604237031,
				"z": -2.370642492,
				"element": "H" 
			},
			{
				"x": 2.9077567649,
				"y": 2.7147244214,
				"z": -0.6971056769,
				"element": "H" 
			},
			{
				"x": 2.4301782058,
				"y": 4.3513907814,
				"z": -1.1254850697,
				"element": "H" 
			},
			{
				"x": -0.3816592557,
				"y": -2.1375412861,
				"z": -0.4901423639,
				"element": "H" 
			},
			{
				"x": 1.2995348183,
				"y": -2.1457729402,
				"z": 0.0643206398,
				"element": "H" 
			},
			{
				"x": 0.0190808326,
				"y": -2.8011696753,
				"z": 1.0968182297,
				"element": "H" 
			},
			{
				"x": -1.9289569262,
				"y": 0.2951465287,
				"z": 1.4892044468,
				"element": "H" 
			},
			{
				"x": -1.9798264103,
				"y": -1.4235269507,
				"z": 1.2002904286,
				"element": "H" 
			},
			{
				"x": -1.3100183765,
				"y": 0.0722298422,
				"z": 3.7496538558,
				"element": "H" 
			},
			{
				"x": -2.3908751344,
				"y": -1.2844946195,
				"z": 3.5121131286,
				"element": "H" 
			},
			{
				"x": -0.3545228218,
				"y": -1.8178640987,
				"z": 4.8238176757,
				"element": "H" 
			},
			{
				"x": 1.6443133358,
				"y": -0.958322434,
				"z": 4.1044277618,
				"element": "H" 
			},
			{
				"x": 1.6376870593,
				"y": -2.2862355498,
				"z": 2.9658203599,
				"element": "H" 
			},
			{
				"x": 2.0991001092,
				"y": -0.4930299015,
				"z": 1.5874962441,
				"element": "H" 
			},
			{
				"x": 0.2593760731,
				"y": 1.2645243793,
				"z": 3.2679093787,
				"element": "H" 
			},
			{
				"x": 2.0180973772,
				"y": 1.2835161972,
				"z": 3.2342351348,
				"element": "H" 
			},
			{
				"x": 0.9136726606,
				"y": -3.9680654807,
				"z": 4.3580845969,
				"element": "H" 
			},
			{
				"x": -0.0389075986,
				"y": -5.0610102073,
				"z": 3.3465486073,
				"element": "H" 
			},
			{
				"x": -0.4603822462,
				"y": -5.3759285789,
				"z": 5.7917824054,
				"element": "H" 
			},
			{
				"x": -1.0451405594,
				"y": -3.7267749451,
				"z": 5.9201983588,
				"element": "H" 
			},
			{
				"x": -2.8906456314,
				"y": -4.2710369406,
				"z": 4.2550455667,
				"element": "H" 
			},
			{
				"x": -2.9944704299,
				"y": -5.2657901382,
				"z": 5.719689787,
				"element": "H" 
			},
			{
				"x": -2.3411902801,
				"y": -5.9503296333,
				"z": 4.2240908129,
				"element": "H" 
			}
		],
		 "valence_orbital": [ 
			{
				"type": "occ",
				"energy": -0.28387,
				"method": "rhf"
			},
			{
				"type": "occ",
				"energy": -0.2749,
				"method": "rhf"
			},
			{
				"type": "occ",
				"energy": -0.24968,
				"method": "rhf"
			},
			{
				"type": "occ",
				"energy": -0.23218,
				"method": "rhf"
			},
			{
				"type": "occ",
				"energy": -0.22904,
				"method": "rhf"
			},
			{
				"type": "unocc",
				"energy": -0.00962,
				"method": "rhf"
			},
			{
				"type": "unocc",
				"energy": 0.07007,
				"method": "rhf"
			},
			{
				"type": "unocc",
				"energy": 0.07463,
				"method": "rhf"
			},
			{
				"type": "unocc",
				"energy": 0.08388,
				"method": "rhf"
			},
			{
				"type": "unocc",
				"energy": 0.09251,
				"method": "rhf"
			}
		],
		"cosmo_sigma_profile": { 
			"-0.025": 0.0,
			"-0.024": 0.0,
			"-0.023": 0.0,
			"-0.022": 0.0,
			"-0.021": 0.0,
			"-0.02": 0.0,
			"-0.019": 0.0,
			"-0.018": 0.0,
			"-0.017": 0.0,
			"-0.016": 0.0,
			"-0.015": 0.0,
			"-0.014": 0.0,
			"-0.013": 0.0,
			"-0.012": 0.0,
			"-0.011": 0.0,
			"-0.01": 0.0,
			"-0.009": 0.0,
			"-0.008": 0.0,
			"-0.007": 0.647304549765,
			"-0.006": 3.88914265095,
			"-0.005": 5.75280584041,
			"-0.004": 11.9944589772,
			"-0.003": 58.4658883905,
			"-0.002": 88.6566349455,
			"-0.001": 78.1944301137,
			"0.0": 65.7646208632,
			"0.001": 53.1045909801,
			"0.002": 30.9881248662,
			"0.003": 12.4587798923,
			"0.004": 7.52315808563,
			"0.005": 4.96390289897,
			"0.006": 5.55739073391,
			"0.007": 4.18847553694,
			"0.008": 5.47188852917,
			"0.009": 4.07687456125,
			"0.01": 3.41436754484,
			"0.011": 3.73379358884,
			"0.012": 4.35532175193,
			"0.013": 3.32620936364,
			"0.014": 0.947219262968,
			"0.015": 0.0,
			"0.016": 0.0,
			"0.017": 0.0,
			"0.018": 0.0,
			"0.019": 0.0,
			"0.02": 0.0,
			"0.021": 0.0,
			"0.022": 0.0,
			"0.023": 0.0,
			"0.024": 0.0,
			"0.025": 0.0
		}
	}
}
