{
	 "smiles": "OC(=O)C1=CC(NC2CCCC2)=NC=C1", 
	 "Tm": 570.15, 
	 "num_atms": 29, 
	 "gaussian": { 
		 "optdone": 1, 
		 "sigma_profile": "yes", 
		 "theory": "DFT", 
		 "functional": "B3LYP", 
		 "basiset": "6-31G**", 
		 "properties": { 
			 "R2extent": 3941.7171, 
			 "electric_dipole_moment_norm": 5.4502087749, 
			 "electric_quadrupole_moment_norm": 13.9369712413, 
			 "total_energy": -687.57162524, 
			 "HOMO_LUMO_gap": 0.15782, 
			 "cosmo_polarized_energy": -16.05, 
			 "cosmo_cavitation_energy": 31.14, 
			 "cosmo_dispersion_energy": -22.59, 
			 "cosmo_repulsion_energy": 1.77, 
			 "cosmo_total_nonelectrostatic_energy": 10.32, 
			 "SMD_solvation_energy": 3.89 
		},
		"coords": [
			{
				"x": -0.4888020076,
				"y": 2.3189284977,
				"z": 2.7182078343,
				"element": "O" 
			},
			{
				"x": 0.8688463422,
				"y": 2.3839659394,
				"z": 2.6689616722,
				"element": "C" 
			},
			{
				"x": 1.4496373977,
				"y": 3.345515055,
				"z": 3.1104204857,
				"element": "O" 
			},
			{
				"x": 1.5695188617,
				"y": 1.2085384717,
				"z": 2.0458007577,
				"element": "C" 
			},
			{
				"x": 0.9467024284,
				"y": 0.3945731247,
				"z": 1.0987782716,
				"element": "C" 
			},
			{
				"x": 1.6774428983,
				"y": -0.6841918078,
				"z": 0.5472087234,
				"element": "C" 
			},
			{
				"x": 1.1775359079,
				"y": -1.5539655704,
				"z": -0.3858007564,
				"element": "N" 
			},
			{
				"x": -0.0855503278,
				"y": -1.5017002843,
				"z": -1.1068783287,
				"element": "C" 
			},
			{
				"x": -0.2968690978,
				"y": -0.2705382801,
				"z": -2.0287942018,
				"element": "C" 
			},
			{
				"x": -1.8219042162,
				"y": -0.1879111787,
				"z": -2.1806366688,
				"element": "C" 
			},
			{
				"x": -2.3394152608,
				"y": -0.5031012228,
				"z": -0.7625486652,
				"element": "C" 
			},
			{
				"x": -1.3775154352,
				"y": -1.5883791861,
				"z": -0.2221545921,
				"element": "C" 
			},
			{
				"x": 2.947745392,
				"y": -0.944103362,
				"z": 0.9246696332,
				"element": "N" 
			},
			{
				"x": 3.5195387296,
				"y": -0.1441130856,
				"z": 1.826186004,
				"element": "C" 
			},
			{
				"x": 2.8928093942,
				"y": 0.9509631162,
				"z": 2.4167069023,
				"element": "C" 
			},
			{
				"x": -0.7812167097,
				"y": 1.4282592194,
				"z": 2.4778226513,
				"element": "H" 
			},
			{
				"x": -0.0554259581,
				"y": 0.6122915997,
				"z": 0.7505571991,
				"element": "H" 
			},
			{
				"x": 1.8696120144,
				"y": -2.2223722749,
				"z": -0.6913324378,
				"element": "H" 
			},
			{
				"x": -0.0659125998,
				"y": -2.3888325503,
				"z": -1.74721615,
				"element": "H" 
			},
			{
				"x": 0.0848538457,
				"y": 0.635321092,
				"z": -1.5449144602,
				"element": "H" 
			},
			{
				"x": 0.2367434228,
				"y": -0.3771005584,
				"z": -2.9780013344,
				"element": "H" 
			},
			{
				"x": -2.1714362214,
				"y": -0.9528985584,
				"z": -2.8861824015,
				"element": "H" 
			},
			{
				"x": -2.1656461755,
				"y": 0.7804540438,
				"z": -2.5563992171,
				"element": "H" 
			},
			{
				"x": -3.385866082,
				"y": -0.8216523958,
				"z": -0.7501653652,
				"element": "H" 
			},
			{
				"x": -2.2805048071,
				"y": 0.4042594861,
				"z": -0.1471899444,
				"element": "H" 
			},
			{
				"x": -1.1430714524,
				"y": -1.4537719209,
				"z": 0.8369740268,
				"element": "H" 
			},
			{
				"x": -1.818983301,
				"y": -2.585354614,
				"z": -0.3141960378,
				"element": "H" 
			},
			{
				"x": 4.5455352628,
				"y": -0.394263029,
				"z": 2.0915167486,
				"element": "H" 
			},
			{
				"x": 3.3948977548,
				"y": 1.5854802339,
				"z": 3.1361996513,
				"element": "H" 
			}
		],
		 "valence_orbital": [ 
			{
				"type": "occ",
				"energy": -0.30567,
				"method": "rhf"
			},
			{
				"type": "occ",
				"energy": -0.29005,
				"method": "rhf"
			},
			{
				"type": "occ",
				"energy": -0.27582,
				"method": "rhf"
			},
			{
				"type": "occ",
				"energy": -0.26564,
				"method": "rhf"
			},
			{
				"type": "occ",
				"energy": -0.21431,
				"method": "rhf"
			},
			{
				"type": "unocc",
				"energy": -0.05649,
				"method": "rhf"
			},
			{
				"type": "unocc",
				"energy": -0.00551,
				"method": "rhf"
			},
			{
				"type": "unocc",
				"energy": 0.04006,
				"method": "rhf"
			},
			{
				"type": "unocc",
				"energy": 0.04932,
				"method": "rhf"
			},
			{
				"type": "unocc",
				"energy": 0.0558,
				"method": "rhf"
			}
		],
		"cosmo_sigma_profile": { 
			"-0.025": 0.0,
			"-0.024": 0.0,
			"-0.023": 0.0,
			"-0.022": 0.0,
			"-0.021": 0.0,
			"-0.02": 0.0,
			"-0.019": 0.0,
			"-0.018": 0.00441670198211,
			"-0.017": 0.437045637818,
			"-0.016": 1.11010007315,
			"-0.015": 1.03226663245,
			"-0.014": 0.968768061335,
			"-0.013": 1.49800011017,
			"-0.012": 1.91786992877,
			"-0.011": 2.78891799077,
			"-0.01": 1.72257316235,
			"-0.009": 2.17008347828,
			"-0.008": 3.01671459811,
			"-0.007": 5.3579278635,
			"-0.006": 7.58854175545,
			"-0.005": 9.19495740314,
			"-0.004": 11.7656751138,
			"-0.003": 21.7172444932,
			"-0.002": 23.8221622888,
			"-0.001": 24.8030149429,
			"0.0": 23.3902451716,
			"0.001": 25.4722857798,
			"0.002": 15.223589495,
			"0.003": 11.5891150306,
			"0.004": 6.01296986966,
			"0.005": 5.60501033181,
			"0.006": 4.59052339203,
			"0.007": 3.6943718817,
			"0.008": 3.29191234889,
			"0.009": 5.38944830321,
			"0.01": 6.31496874109,
			"0.011": 6.3295150158,
			"0.012": 4.74535494115,
			"0.013": 1.52447149226,
			"0.014": 0.862240259551,
			"0.015": 0.410811324904,
			"0.016": 0.0,
			"0.017": 0.0,
			"0.018": 0.0,
			"0.019": 0.0,
			"0.02": 0.0,
			"0.021": 0.0,
			"0.022": 0.0,
			"0.023": 0.0,
			"0.024": 0.0,
			"0.025": 0.0
		}
	}
}
