{
	 "smiles": "CC(=O)N1C2C(N(C(C)=O)C1=O)N(C(C)=O)C(=O)N2C(C)=O", 
	 "Tm": 509.15, 
	 "num_atms": 36, 
	 "gaussian": { 
		 "optdone": 1, 
		 "sigma_profile": "yes", 
		 "theory": "DFT", 
		 "functional": "B3LYP", 
		 "basiset": "6-31G**", 
		 "properties": { 
			 "R2extent": 6011.3219, 
			 "electric_dipole_moment_norm": 4.30411550147, 
			 "electric_quadrupole_moment_norm": 26.1242070356, 
			 "total_energy": -1136.13546734, 
			 "HOMO_LUMO_gap": 0.22011, 
			 "cosmo_polarized_energy": -31.1, 
			 "cosmo_cavitation_energy": 39.26, 
			 "cosmo_dispersion_energy": -27.13, 
			 "cosmo_repulsion_energy": 2.05, 
			 "cosmo_total_nonelectrostatic_energy": 14.17, 
			 "SMD_solvation_energy": 10.44 
		},
		"coords": [
			{
				"x": 0.3226476479,
				"y": -3.4940855584,
				"z": 2.4456413424,
				"element": "C" 
			},
			{
				"x": -0.7286181479,
				"y": -2.582349048,
				"z": 1.8676100885,
				"element": "C" 
			},
			{
				"x": -1.8883317872,
				"y": -2.9257592886,
				"z": 1.7079205677,
				"element": "O" 
			},
			{
				"x": -0.3535795057,
				"y": -1.2854257887,
				"z": 1.4721031271,
				"element": "N" 
			},
			{
				"x": -1.3310243446,
				"y": -0.3872825269,
				"z": 0.8330196521,
				"element": "C" 
			},
			{
				"x": -0.448668042,
				"y": 0.8470280684,
				"z": 0.5269632648,
				"element": "C" 
			},
			{
				"x": 0.6625807113,
				"y": 0.7331402865,
				"z": 1.4462567759,
				"element": "N" 
			},
			{
				"x": 1.4204524712,
				"y": 1.8165465013,
				"z": 2.0103643135,
				"element": "C" 
			},
			{
				"x": 0.7517316563,
				"y": 3.1751983359,
				"z": 1.986298506,
				"element": "C" 
			},
			{
				"x": 2.4880366496,
				"y": 1.6094026164,
				"z": 2.5306126949,
				"element": "O" 
			},
			{
				"x": 0.817992165,
				"y": -0.5978216602,
				"z": 1.8825271712,
				"element": "C" 
			},
			{
				"x": 1.7226198117,
				"y": -1.0652345761,
				"z": 2.5254249532,
				"element": "O" 
			},
			{
				"x": -0.0909136418,
				"y": 0.6000977611,
				"z": -0.8807058581,
				"element": "N" 
			},
			{
				"x": 0.7763303395,
				"y": 1.4748298665,
				"z": -1.5602133102,
				"element": "C" 
			},
			{
				"x": 1.1769252646,
				"y": 1.141979477,
				"z": -2.9741803749,
				"element": "C" 
			},
			{
				"x": 1.1871037336,
				"y": 2.4602810656,
				"z": -0.9698158254,
				"element": "O" 
			},
			{
				"x": -0.9278237499,
				"y": -0.37459586,
				"z": -1.4835775516,
				"element": "C" 
			},
			{
				"x": -0.9268327691,
				"y": -0.6839045037,
				"z": -2.6473739237,
				"element": "O" 
			},
			{
				"x": -1.7845596263,
				"y": -0.8375979463,
				"z": -0.4648505666,
				"element": "N" 
			},
			{
				"x": -3.022979192,
				"y": -1.508080634,
				"z": -0.7530244832,
				"element": "C" 
			},
			{
				"x": -4.11471464,
				"y": -1.3582197372,
				"z": 0.2858890693,
				"element": "C" 
			},
			{
				"x": -3.1764586205,
				"y": -2.0837150002,
				"z": -1.8010892881,
				"element": "O" 
			},
			{
				"x": 0.6634036561,
				"y": -3.1266380024,
				"z": 3.4164403759,
				"element": "H" 
			},
			{
				"x": -0.1291553884,
				"y": -4.4805478599,
				"z": 2.5498511511,
				"element": "H" 
			},
			{
				"x": 1.2070200334,
				"y": -3.5386852883,
				"z": 1.8061574815,
				"element": "H" 
			},
			{
				"x": -2.166700164,
				"y": -0.1832037741,
				"z": 1.5023740739,
				"element": "H" 
			},
			{
				"x": -0.9637590151,
				"y": 1.801512755,
				"z": 0.6351877052,
				"element": "H" 
			},
			{
				"x": -0.2371675507,
				"y": 3.1378791317,
				"z": 2.4568030526,
				"element": "H" 
			},
			{
				"x": 1.3894920612,
				"y": 3.8565663865,
				"z": 2.548833466,
				"element": "H" 
			},
			{
				"x": 0.646878836,
				"y": 3.5338331168,
				"z": 0.9613012714,
				"element": "H" 
			},
			{
				"x": 1.5418400874,
				"y": 0.1156040836,
				"z": -3.054180561,
				"element": "H" 
			},
			{
				"x": 0.3201216061,
				"y": 1.2170843144,
				"z": -3.6478769143,
				"element": "H" 
			},
			{
				"x": 1.9518028138,
				"y": 1.8515226325,
				"z": -3.2643691654,
				"element": "H" 
			},
			{
				"x": -3.8376649831,
				"y": -1.8666936658,
				"z": 1.2105282098,
				"element": "H" 
			},
			{
				"x": -4.3133869445,
				"y": -0.3025485757,
				"z": 0.50219756,
				"element": "H" 
			},
			{
				"x": -5.0145414317,
				"y": -1.8137171043,
				"z": -0.1267480513,
				"element": "H" 
			}
		],
		 "valence_orbital": [ 
			{
				"type": "occ",
				"energy": -0.29925,
				"method": "rhf"
			},
			{
				"type": "occ",
				"energy": -0.2885,
				"method": "rhf"
			},
			{
				"type": "occ",
				"energy": -0.28593,
				"method": "rhf"
			},
			{
				"type": "occ",
				"energy": -0.26904,
				"method": "rhf"
			},
			{
				"type": "occ",
				"energy": -0.26789,
				"method": "rhf"
			},
			{
				"type": "unocc",
				"energy": -0.04778,
				"method": "rhf"
			},
			{
				"type": "unocc",
				"energy": -0.04185,
				"method": "rhf"
			},
			{
				"type": "unocc",
				"energy": -0.01148,
				"method": "rhf"
			},
			{
				"type": "unocc",
				"energy": -0.00553,
				"method": "rhf"
			},
			{
				"type": "unocc",
				"energy": 0.02123,
				"method": "rhf"
			}
		],
		"cosmo_sigma_profile": { 
			"-0.025": 0.0,
			"-0.024": 0.0,
			"-0.023": 0.0,
			"-0.022": 0.0,
			"-0.021": 0.0,
			"-0.02": 0.0,
			"-0.019": 0.0,
			"-0.018": 0.0,
			"-0.017": 0.0,
			"-0.016": 0.0,
			"-0.015": 0.0,
			"-0.014": 0.0,
			"-0.013": 0.0,
			"-0.012": 2.00793585985,
			"-0.011": 8.30933988186,
			"-0.01": 6.24755578041,
			"-0.009": 5.43096750715,
			"-0.008": 5.91739596971,
			"-0.007": 11.2790094157,
			"-0.006": 22.6509173063,
			"-0.005": 25.7912577062,
			"-0.004": 23.2102404258,
			"-0.003": 24.0381735128,
			"-0.002": 29.2458582353,
			"-0.001": 20.6525207447,
			"0.0": 9.55433117206,
			"0.001": 8.79834074867,
			"0.002": 9.98157990951,
			"0.003": 8.58374336096,
			"0.004": 8.20448729021,
			"0.005": 7.79802017251,
			"0.006": 6.67581797305,
			"0.007": 6.70940971011,
			"0.008": 7.8016716794,
			"0.009": 8.71318406043,
			"0.01": 11.0316929748,
			"0.011": 14.7123118732,
			"0.012": 9.59784701614,
			"0.013": 3.90327196722,
			"0.014": 2.63806538202,
			"0.015": 2.22382120867,
			"0.016": 0.185663085175,
			"0.017": 0.0,
			"0.018": 0.0,
			"0.019": 0.0,
			"0.02": 0.0,
			"0.021": 0.0,
			"0.022": 0.0,
			"0.023": 0.0,
			"0.024": 0.0,
			"0.025": 0.0
		}
	}
}
