{
	 "smiles": "CC(C)(C)NCC(O)COC1=CC=CC2=C1CC(O)C(O)C2", 
	 "Tm": 397.15, 
	 "num_atms": 49, 
	 "gaussian": { 
		 "optdone": 1, 
		 "sigma_profile": "yes", 
		 "theory": "DFT", 
		 "functional": "B3LYP", 
		 "basiset": "6-31G**", 
		 "properties": { 
			 "R2extent": 8609.4778, 
			 "electric_dipole_moment_norm": 4.25407688224, 
			 "electric_quadrupole_moment_norm": 8.90425281368, 
			 "total_energy": -1019.71333441, 
			 "HOMO_LUMO_gap": 0.21157, 
			 "cosmo_polarized_energy": -17.37, 
			 "cosmo_cavitation_energy": 45.88, 
			 "cosmo_dispersion_energy": -31.12, 
			 "cosmo_repulsion_energy": 2.33, 
			 "cosmo_total_nonelectrostatic_energy": 17.09, 
			 "SMD_solvation_energy": 6.51 
		},
		"coords": [
			{
				"x": -1.9450849926,
				"y": 3.1351492986,
				"z": 3.2867429179,
				"element": "C" 
			},
			{
				"x": -1.0428192045,
				"y": 2.7647932436,
				"z": 2.0884906147,
				"element": "C" 
			},
			{
				"x": -1.2313906543,
				"y": 3.7961108537,
				"z": 0.9629226422,
				"element": "C" 
			},
			{
				"x": 0.4353208008,
				"y": 2.7547970576,
				"z": 2.5178640333,
				"element": "C" 
			},
			{
				"x": -1.3892748883,
				"y": 1.4532635635,
				"z": 1.493098612,
				"element": "N" 
			},
			{
				"x": -1.2815432603,
				"y": 0.2647917968,
				"z": 2.3231388674,
				"element": "C" 
			},
			{
				"x": -1.6126997929,
				"y": -0.9968793777,
				"z": 1.5190205961,
				"element": "C" 
			},
			{
				"x": -0.871995363,
				"y": -0.9638239855,
				"z": 0.2995616826,
				"element": "O" 
			},
			{
				"x": -1.3452961557,
				"y": -2.2822941625,
				"z": 2.3191234455,
				"element": "C" 
			},
			{
				"x": 0.0420138824,
				"y": -2.5018927714,
				"z": 2.5840666586,
				"element": "O" 
			},
			{
				"x": 0.7406704139,
				"y": -3.2028335316,
				"z": 1.6105200354,
				"element": "C" 
			},
			{
				"x": 0.421457719,
				"y": -4.5387893381,
				"z": 1.3390323167,
				"element": "C" 
			},
			{
				"x": 1.1115845842,
				"y": -5.2264632484,
				"z": 0.3414510255,
				"element": "C" 
			},
			{
				"x": 2.0994976539,
				"y": -4.5768214332,
				"z": -0.4007920725,
				"element": "C" 
			},
			{
				"x": 2.4360112527,
				"y": -3.2512402072,
				"z": -0.1149732936,
				"element": "C" 
			},
			{
				"x": 1.7812857374,
				"y": -2.5622686014,
				"z": 0.9246594018,
				"element": "C" 
			},
			{
				"x": 2.2412525017,
				"y": -1.1621468415,
				"z": 1.2552700484,
				"element": "C" 
			},
			{
				"x": 2.5186632918,
				"y": -0.2742355882,
				"z": 0.0135514418,
				"element": "C" 
			},
			{
				"x": 1.5551860916,
				"y": 0.754286704,
				"z": -0.1883247308,
				"element": "O" 
			},
			{
				"x": 2.693807246,
				"y": -1.102297617,
				"z": -1.2723309902,
				"element": "C" 
			},
			{
				"x": 3.4380586288,
				"y": -0.3826058807,
				"z": -2.2412919775,
				"element": "O" 
			},
			{
				"x": 3.3830324212,
				"y": -2.4394840325,
				"z": -0.9724194225,
				"element": "C" 
			},
			{
				"x": -1.844284991,
				"y": 2.4149713124,
				"z": 4.1055827623,
				"element": "H" 
			},
			{
				"x": -1.6844079382,
				"y": 4.1217556224,
				"z": 3.6852442025,
				"element": "H" 
			},
			{
				"x": -3.0002641387,
				"y": 3.1644892983,
				"z": 2.9887686944,
				"element": "H" 
			},
			{
				"x": -0.9885564297,
				"y": 4.8047396823,
				"z": 1.3119459491,
				"element": "H" 
			},
			{
				"x": -2.2706450473,
				"y": 3.8084666213,
				"z": 0.610871749,
				"element": "H" 
			},
			{
				"x": -0.5865788962,
				"y": 3.5513455287,
				"z": 0.1144624764,
				"element": "H" 
			},
			{
				"x": 0.7559425428,
				"y": 3.767949167,
				"z": 2.7811123819,
				"element": "H" 
			},
			{
				"x": 0.6015365195,
				"y": 2.1261373176,
				"z": 3.3993820406,
				"element": "H" 
			},
			{
				"x": 1.0601186797,
				"y": 2.3816918887,
				"z": 1.7014513029,
				"element": "H" 
			},
			{
				"x": -2.3270856052,
				"y": 1.5099958528,
				"z": 1.1005715814,
				"element": "H" 
			},
			{
				"x": -0.2572480848,
				"y": 0.1807215206,
				"z": 2.6947434508,
				"element": "H" 
			},
			{
				"x": -1.9405324931,
				"y": 0.2577071495,
				"z": 3.2125171968,
				"element": "H" 
			},
			{
				"x": -2.6955614644,
				"y": -0.9888894516,
				"z": 1.2928397302,
				"element": "H" 
			},
			{
				"x": -0.8868279902,
				"y": -1.8419899305,
				"z": -0.1030442939,
				"element": "H" 
			},
			{
				"x": -1.8480484776,
				"y": -2.2162357622,
				"z": 3.2900901244,
				"element": "H" 
			},
			{
				"x": -1.7670779839,
				"y": -3.143401273,
				"z": 1.7833083594,
				"element": "H" 
			},
			{
				"x": -0.3566586416,
				"y": -5.0301442092,
				"z": 1.9154783437,
				"element": "H" 
			},
			{
				"x": 0.8658118606,
				"y": -6.263806454,
				"z": 0.1332396571,
				"element": "H" 
			},
			{
				"x": 2.604114597,
				"y": -5.0958956955,
				"z": -1.211220114,
				"element": "H" 
			},
			{
				"x": 3.1741694728,
				"y": -1.2489123551,
				"z": 1.8292041787,
				"element": "H" 
			},
			{
				"x": 1.5312742961,
				"y": -0.6611362091,
				"z": 1.9107881039,
				"element": "H" 
			},
			{
				"x": 3.4678607533,
				"y": 0.2532507021,
				"z": 0.1667652019,
				"element": "H" 
			},
			{
				"x": 0.662778072,
				"y": 0.379216291,
				"z": -0.0717416065,
				"element": "H" 
			},
			{
				"x": 1.6844942124,
				"y": -1.3266392389,
				"z": -1.6593869067,
				"element": "H" 
			},
			{
				"x": 3.0203771425,
				"y": 0.4891055376,
				"z": -2.3004057937,
				"element": "H" 
			},
			{
				"x": 4.338805359,
				"y": -2.2469861483,
				"z": -0.4638137396,
				"element": "H" 
			},
			{
				"x": 3.6148567604,
				"y": -2.9589226658,
				"z": -1.9067368859,
				"element": "H" 
			}
		],
		 "valence_orbital": [ 
			{
				"type": "occ",
				"energy": -0.27004,
				"method": "rhf"
			},
			{
				"type": "occ",
				"energy": -0.24781,
				"method": "rhf"
			},
			{
				"type": "occ",
				"energy": -0.23322,
				"method": "rhf"
			},
			{
				"type": "occ",
				"energy": -0.22657,
				"method": "rhf"
			},
			{
				"type": "occ",
				"energy": -0.21557,
				"method": "rhf"
			},
			{
				"type": "unocc",
				"energy": -0.004,
				"method": "rhf"
			},
			{
				"type": "unocc",
				"energy": 0.00229,
				"method": "rhf"
			},
			{
				"type": "unocc",
				"energy": 0.05465,
				"method": "rhf"
			},
			{
				"type": "unocc",
				"energy": 0.07871,
				"method": "rhf"
			},
			{
				"type": "unocc",
				"energy": 0.09261,
				"method": "rhf"
			}
		],
		"cosmo_sigma_profile": { 
			"-0.025": 0.0,
			"-0.024": 0.0,
			"-0.023": 0.0,
			"-0.022": 0.0,
			"-0.021": 0.0,
			"-0.02": 0.0,
			"-0.019": 0.0,
			"-0.018": 0.0,
			"-0.017": 0.0,
			"-0.016": 0.0,
			"-0.015": 0.0505289352658,
			"-0.014": 0.745937682948,
			"-0.013": 1.57262395121,
			"-0.012": 1.20510557592,
			"-0.011": 2.13111669874,
			"-0.01": 1.43618632628,
			"-0.009": 1.60802581058,
			"-0.008": 3.03253103637,
			"-0.007": 3.99933367773,
			"-0.006": 9.49406922514,
			"-0.005": 21.6245410215,
			"-0.004": 30.149761559,
			"-0.003": 33.7769132752,
			"-0.002": 42.882420466,
			"-0.001": 32.0472033174,
			"0.0": 28.8120507847,
			"0.001": 30.0047526068,
			"0.002": 27.0045578471,
			"0.003": 13.3930481416,
			"0.004": 12.9562529401,
			"0.005": 13.5177297139,
			"0.006": 8.92107353796,
			"0.007": 4.56814490039,
			"0.008": 5.76809087632,
			"0.009": 4.76859207792,
			"0.01": 5.09822146794,
			"0.011": 4.60707964802,
			"0.012": 3.05421794826,
			"0.013": 3.51566759554,
			"0.014": 3.11678334704,
			"0.015": 0.303294650195,
			"0.016": 0.0,
			"0.017": 0.0,
			"0.018": 0.0,
			"0.019": 0.0,
			"0.02": 0.0,
			"0.021": 0.0,
			"0.022": 0.0,
			"0.023": 0.0,
			"0.024": 0.0,
			"0.025": 0.0
		}
	}
}
