{
	 "smiles": "CCOC(=O)C1=CC2=C(N1)C=CC(O)=C2", 
	 "Tm": 423.65, 
	 "num_atms": 26, 
	 "gaussian": { 
		 "optdone": 1, 
		 "sigma_profile": "yes", 
		 "theory": "DFT", 
		 "functional": "B3LYP", 
		 "basiset": "6-31G**", 
		 "properties": { 
			 "R2extent": 4764.7014, 
			 "electric_dipole_moment_norm": 1.89879861228, 
			 "electric_quadrupole_moment_norm": 19.8461954362, 
			 "total_energy": -706.242882983, 
			 "HOMO_LUMO_gap": 0.15808, 
			 "cosmo_polarized_energy": -14.67, 
			 "cosmo_cavitation_energy": 30.7, 
			 "cosmo_dispersion_energy": -22.63, 
			 "cosmo_repulsion_energy": 1.78, 
			 "cosmo_total_nonelectrostatic_energy": 9.86, 
			 "SMD_solvation_energy": 6.25 
		},
		"coords": [
			{
				"x": 3.7546221301,
				"y": 2.3154875389,
				"z": 1.8600790694,
				"element": "C" 
			},
			{
				"x": 3.052378989,
				"y": 1.0680263194,
				"z": 2.3751471436,
				"element": "C" 
			},
			{
				"x": 2.3001021322,
				"y": 0.4149431277,
				"z": 1.3253445165,
				"element": "O" 
			},
			{
				"x": 1.0369423962,
				"y": 0.8786369231,
				"z": 1.1104864748,
				"element": "C" 
			},
			{
				"x": 0.5239723533,
				"y": 1.7810286234,
				"z": 1.7433180804,
				"element": "O" 
			},
			{
				"x": 0.3866665403,
				"y": 0.1428687857,
				"z": 0.0241635439,
				"element": "C" 
			},
			{
				"x": -0.8858047699,
				"y": 0.3187136857,
				"z": -0.4826319997,
				"element": "C" 
			},
			{
				"x": -1.0558857538,
				"y": -0.6352573489,
				"z": -1.5295672825,
				"element": "C" 
			},
			{
				"x": 0.1600859159,
				"y": -1.3741133362,
				"z": -1.6179286258,
				"element": "C" 
			},
			{
				"x": 1.017171143,
				"y": -0.8798277372,
				"z": -0.6626474941,
				"element": "N" 
			},
			{
				"x": 0.331194888,
				"y": -2.4018743307,
				"z": -2.5562826646,
				"element": "C" 
			},
			{
				"x": -0.7237240625,
				"y": -2.6856105521,
				"z": -3.4063401084,
				"element": "C" 
			},
			{
				"x": -1.9399449098,
				"y": -1.9616723056,
				"z": -3.3329939468,
				"element": "C" 
			},
			{
				"x": -2.9103933091,
				"y": -2.3346170552,
				"z": -4.2271374654,
				"element": "O" 
			},
			{
				"x": -2.1161303695,
				"y": -0.9442676444,
				"z": -2.407899678,
				"element": "C" 
			},
			{
				"x": 4.4029468096,
				"y": 2.0774035567,
				"z": 1.0115280395,
				"element": "H" 
			},
			{
				"x": 4.3726043451,
				"y": 2.7482006881,
				"z": 2.6539533289,
				"element": "H" 
			},
			{
				"x": 3.0231363103,
				"y": 3.0647489465,
				"z": 1.5481180525,
				"element": "H" 
			},
			{
				"x": 3.7681308655,
				"y": 0.3125474351,
				"z": 2.7087028815,
				"element": "H" 
			},
			{
				"x": 2.3714685808,
				"y": 1.3100061755,
				"z": 3.1944316459,
				"element": "H" 
			},
			{
				"x": -1.5946059694,
				"y": 1.0522136554,
				"z": -0.127760329,
				"element": "H" 
			},
			{
				"x": 1.9559253338,
				"y": -1.1869386883,
				"z": -0.4661305104,
				"element": "H" 
			},
			{
				"x": 1.259408533,
				"y": -2.961964795,
				"z": -2.6196549856,
				"element": "H" 
			},
			{
				"x": -0.6443618918,
				"y": -3.4708065836,
				"z": -4.1505447636,
				"element": "H" 
			},
			{
				"x": -3.6903922893,
				"y": -1.78177636,
				"z": -4.0907141161,
				"element": "H" 
			},
			{
				"x": -3.052913941,
				"y": -0.3935987241,
				"z": -2.3583388071,
				"element": "H" 
			}
		],
		 "valence_orbital": [ 
			{
				"type": "occ",
				"energy": -0.29979,
				"method": "rhf"
			},
			{
				"type": "occ",
				"energy": -0.28257,
				"method": "rhf"
			},
			{
				"type": "occ",
				"energy": -0.27491,
				"method": "rhf"
			},
			{
				"type": "occ",
				"energy": -0.21495,
				"method": "rhf"
			},
			{
				"type": "occ",
				"energy": -0.20329,
				"method": "rhf"
			},
			{
				"type": "unocc",
				"energy": -0.04521,
				"method": "rhf"
			},
			{
				"type": "unocc",
				"energy": 0.0206,
				"method": "rhf"
			},
			{
				"type": "unocc",
				"energy": 0.03848,
				"method": "rhf"
			},
			{
				"type": "unocc",
				"energy": 0.07347,
				"method": "rhf"
			},
			{
				"type": "unocc",
				"energy": 0.0905,
				"method": "rhf"
			}
		],
		"cosmo_sigma_profile": { 
			"-0.025": 0.0,
			"-0.024": 0.0,
			"-0.023": 0.0,
			"-0.022": 0.0,
			"-0.021": 0.0,
			"-0.02": 0.0,
			"-0.019": 0.0,
			"-0.018": 0.0883298306717,
			"-0.017": 0.814672448954,
			"-0.016": 1.07649196856,
			"-0.015": 1.88933182495,
			"-0.014": 2.27115656752,
			"-0.013": 1.51664030023,
			"-0.012": 1.9629153995,
			"-0.011": 1.40425193261,
			"-0.01": 2.3355151717,
			"-0.009": 1.95061364552,
			"-0.008": 2.54857354899,
			"-0.007": 4.59161711779,
			"-0.006": 8.52576332879,
			"-0.005": 11.5343201548,
			"-0.004": 18.4762572385,
			"-0.003": 18.7383518063,
			"-0.002": 17.0393339206,
			"-0.001": 18.4581724996,
			"0.0": 18.1368024122,
			"0.001": 11.8060188301,
			"0.002": 12.3582256724,
			"0.003": 19.6550412848,
			"0.004": 19.3652981417,
			"0.005": 19.082204031,
			"0.006": 5.36981827874,
			"0.007": 3.07071103779,
			"0.008": 2.63119170269,
			"0.009": 3.03182214455,
			"0.01": 3.21431001522,
			"0.011": 4.42034818762,
			"0.012": 6.16205606336,
			"0.013": 0.697244060154,
			"0.014": 0.0,
			"0.015": 0.0,
			"0.016": 0.0,
			"0.017": 0.0,
			"0.018": 0.0,
			"0.019": 0.0,
			"0.02": 0.0,
			"0.021": 0.0,
			"0.022": 0.0,
			"0.023": 0.0,
			"0.024": 0.0,
			"0.025": 0.0
		}
	}
}
