{
	 "smiles": "CN(C)C=C(C=O)C1=CC=CC=C1[N+]([O-])=O", 
	 "Tm": 393.15, 
	 "num_atms": 28, 
	 "gaussian": { 
		 "optdone": 1, 
		 "sigma_profile": "yes", 
		 "theory": "DFT", 
		 "functional": "B3LYP", 
		 "basiset": "6-31G**", 
		 "properties": { 
			 "R2extent": 3779.1143, 
			 "electric_dipole_moment_norm": 5.44376515015, 
			 "electric_quadrupole_moment_norm": 22.3098215338, 
			 "total_energy": -761.444625071, 
			 "HOMO_LUMO_gap": 0.12477, 
			 "cosmo_polarized_energy": -16.46, 
			 "cosmo_cavitation_energy": 32.07, 
			 "cosmo_dispersion_energy": -21.82, 
			 "cosmo_repulsion_energy": 1.7, 
			 "cosmo_total_nonelectrostatic_energy": 11.95, 
			 "SMD_solvation_energy": 8.98 
		},
		"coords": [
			{
				"x": 1.2952723816,
				"y": 0.8459276272,
				"z": 1.9404150944,
				"element": "C" 
			},
			{
				"x": 0.4927360452,
				"y": 1.9355737803,
				"z": 1.3961129482,
				"element": "N" 
			},
			{
				"x": 0.6260349406,
				"y": 3.2199507388,
				"z": 2.074007211,
				"element": "C" 
			},
			{
				"x": -0.3880480595,
				"y": 1.7989212917,
				"z": 0.3834331791,
				"element": "C" 
			},
			{
				"x": -0.8644842531,
				"y": 0.696570262,
				"z": -0.2876579107,
				"element": "C" 
			},
			{
				"x": -1.6985905682,
				"y": 1.0052449338,
				"z": -1.4575218308,
				"element": "C" 
			},
			{
				"x": -1.9337257873,
				"y": 2.1248197975,
				"z": -1.8947450348,
				"element": "O" 
			},
			{
				"x": -0.687683817,
				"y": -0.735514678,
				"z": 0.0525457356,
				"element": "C" 
			},
			{
				"x": -0.1263383637,
				"y": -1.6102013366,
				"z": -0.8969854346,
				"element": "C" 
			},
			{
				"x": 0.0491592094,
				"y": -2.9697333289,
				"z": -0.642137752,
				"element": "C" 
			},
			{
				"x": -0.3087793911,
				"y": -3.5057019804,
				"z": 0.5964524549,
				"element": "C" 
			},
			{
				"x": -0.862983163,
				"y": -2.6734269961,
				"z": 1.5647272712,
				"element": "C" 
			},
			{
				"x": -1.0746036517,
				"y": -1.3264722536,
				"z": 1.2726915703,
				"element": "C" 
			},
			{
				"x": -1.7593992293,
				"y": -0.544156731,
				"z": 2.3188847656,
				"element": "N" 
			},
			{
				"x": -2.651273486,
				"y": 0.2241662113,
				"z": 1.977183931,
				"element": "O" 
			},
			{
				"x": -1.4057238979,
				"y": -0.7400030302,
				"z": 3.4865583654,
				"element": "O" 
			},
			{
				"x": 2.2469037004,
				"y": 1.2571000971,
				"z": 2.290268852,
				"element": "H" 
			},
			{
				"x": 1.5028918247,
				"y": 0.1122849143,
				"z": 1.1617092651,
				"element": "H" 
			},
			{
				"x": 0.8047541475,
				"y": 0.3445513818,
				"z": 2.78339009,
				"element": "H" 
			},
			{
				"x": 1.6795127629,
				"y": 3.5194822015,
				"z": 2.1201281609,
				"element": "H" 
			},
			{
				"x": 0.2368915225,
				"y": 3.1665277079,
				"z": 3.0987277329,
				"element": "H" 
			},
			{
				"x": 0.0648626391,
				"y": 3.9833561223,
				"z": 1.533209819,
				"element": "H" 
			},
			{
				"x": -0.7728503564,
				"y": 2.7421703862,
				"z": -0.0008535652,
				"element": "H" 
			},
			{
				"x": -2.1378036906,
				"y": 0.109324422,
				"z": -1.9480811165,
				"element": "H" 
			},
			{
				"x": 0.1970958629,
				"y": -1.1932643734,
				"z": -1.845851323,
				"element": "H" 
			},
			{
				"x": 0.4832334435,
				"y": -3.6072088985,
				"z": -1.4067192176,
				"element": "H" 
			},
			{
				"x": -0.1603334348,
				"y": -4.5596422819,
				"z": 0.8081317769,
				"element": "H" 
			},
			{
				"x": -1.1550273308,
				"y": -3.0514459871,
				"z": 2.5375749618,
				"element": "H" 
			}
		],
		 "valence_orbital": [ 
			{
				"type": "occ",
				"energy": -0.30251,
				"method": "rhf"
			},
			{
				"type": "occ",
				"energy": -0.27724,
				"method": "rhf"
			},
			{
				"type": "occ",
				"energy": -0.27033,
				"method": "rhf"
			},
			{
				"type": "occ",
				"energy": -0.23263,
				"method": "rhf"
			},
			{
				"type": "occ",
				"energy": -0.20806,
				"method": "rhf"
			},
			{
				"type": "unocc",
				"energy": -0.08329,
				"method": "rhf"
			},
			{
				"type": "unocc",
				"energy": -0.03832,
				"method": "rhf"
			},
			{
				"type": "unocc",
				"energy": -0.01995,
				"method": "rhf"
			},
			{
				"type": "unocc",
				"energy": -0.01406,
				"method": "rhf"
			},
			{
				"type": "unocc",
				"energy": 0.07394,
				"method": "rhf"
			}
		],
		"cosmo_sigma_profile": { 
			"-0.025": 0.0,
			"-0.024": 0.0,
			"-0.023": 0.0,
			"-0.022": 0.0,
			"-0.021": 0.0,
			"-0.02": 0.0,
			"-0.019": 0.0,
			"-0.018": 0.0,
			"-0.017": 0.0,
			"-0.016": 0.0,
			"-0.015": 0.0,
			"-0.014": 0.0,
			"-0.013": 0.0,
			"-0.012": 0.0,
			"-0.011": 0.0,
			"-0.01": 0.0,
			"-0.009": 0.438551664458,
			"-0.008": 2.74914020926,
			"-0.007": 11.329373518,
			"-0.006": 17.4036427084,
			"-0.005": 22.9947731528,
			"-0.004": 24.4227264636,
			"-0.003": 29.5484981368,
			"-0.002": 19.4458414427,
			"-0.001": 13.9666896539,
			"0.0": 13.5101982588,
			"0.001": 14.0461380509,
			"0.002": 14.9271017675,
			"0.003": 11.5159617185,
			"0.004": 6.08189601496,
			"0.005": 5.30362743115,
			"0.006": 6.10221832773,
			"0.007": 10.0790684585,
			"0.008": 9.09006260833,
			"0.009": 5.67990580819,
			"0.01": 4.07104630749,
			"0.011": 1.34593135172,
			"0.012": 3.19295585237,
			"0.013": 4.59945822318,
			"0.014": 2.72961761543,
			"0.015": 0.700796903447,
			"0.016": 0.0,
			"0.017": 0.0,
			"0.018": 0.0,
			"0.019": 0.0,
			"0.02": 0.0,
			"0.021": 0.0,
			"0.022": 0.0,
			"0.023": 0.0,
			"0.024": 0.0,
			"0.025": 0.0
		}
	}
}
