{
	 "smiles": "COC1=C2C=CC=CC2=C(C=C1)[N+]([O-])=O", 
	 "Tm": 356.15, 
	 "num_atms": 24, 
	 "gaussian": { 
		 "optdone": 1, 
		 "sigma_profile": "yes", 
		 "theory": "DFT", 
		 "functional": "B3LYP", 
		 "basiset": "6-31G**", 
		 "properties": { 
			 "R2extent": 3599.5463, 
			 "electric_dipole_moment_norm": 6.10331523928, 
			 "electric_quadrupole_moment_norm": 16.3870914414, 
			 "total_energy": -704.914014269, 
			 "HOMO_LUMO_gap": 0.14293, 
			 "cosmo_polarized_energy": -10.91, 
			 "cosmo_cavitation_energy": 28.11, 
			 "cosmo_dispersion_energy": -21.07, 
			 "cosmo_repulsion_energy": 1.61, 
			 "cosmo_total_nonelectrostatic_energy": 8.64, 
			 "SMD_solvation_energy": 7.52 
		},
		"coords": [
			{
				"x": 0.9203127373,
				"y": -2.6503273782,
				"z": -1.889160517,
				"element": "C" 
			},
			{
				"x": -0.2604031373,
				"y": -1.987921991,
				"z": -1.448921611,
				"element": "O" 
			},
			{
				"x": -0.1697623064,
				"y": -1.0967859882,
				"z": -0.4345492568,
				"element": "C" 
			},
			{
				"x": -1.4086906642,
				"y": -0.4818880136,
				"z": -0.0487982556,
				"element": "C" 
			},
			{
				"x": -2.6125529658,
				"y": -0.841585791,
				"z": -0.7057221962,
				"element": "C" 
			},
			{
				"x": -3.8117215131,
				"y": -0.2744247486,
				"z": -0.3383764836,
				"element": "C" 
			},
			{
				"x": -3.8433603157,
				"y": 0.672629822,
				"z": 0.7052463265,
				"element": "C" 
			},
			{
				"x": -2.6899306492,
				"y": 1.0508140326,
				"z": 1.3602290535,
				"element": "C" 
			},
			{
				"x": -1.430413736,
				"y": 0.4929440427,
				"z": 1.0069953135,
				"element": "C" 
			},
			{
				"x": -0.1739009593,
				"y": 0.7945482795,
				"z": 1.6389206489,
				"element": "C" 
			},
			{
				"x": 0.9921597566,
				"y": 0.1663249511,
				"z": 1.2521080969,
				"element": "C" 
			},
			{
				"x": 1.0104489873,
				"y": -0.7756650402,
				"z": 0.2133568967,
				"element": "C" 
			},
			{
				"x": -0.028593957,
				"y": 1.7795506148,
				"z": 2.7151872478,
				"element": "N" 
			},
			{
				"x": -0.9294827372,
				"y": 2.6024893091,
				"z": 2.9025582396,
				"element": "O" 
			},
			{
				"x": 1.0111086055,
				"y": 1.7530336953,
				"z": 3.3800687748,
				"element": "O" 
			},
			{
				"x": 1.6607336698,
				"y": -1.9354117147,
				"z": -2.2665916129,
				"element": "H" 
			},
			{
				"x": 0.6068732233,
				"y": -3.3096894622,
				"z": -2.69892651,
				"element": "H" 
			},
			{
				"x": 1.3658414155,
				"y": -3.2467033378,
				"z": -1.0844221822,
				"element": "H" 
			},
			{
				"x": -2.5664869753,
				"y": -1.5767694034,
				"z": -1.499867045,
				"element": "H" 
			},
			{
				"x": -4.7285303335,
				"y": -0.5577287659,
				"z": -0.8465361205,
				"element": "H" 
			},
			{
				"x": -4.7894040186,
				"y": 1.1163896427,
				"z": 1.0017339651,
				"element": "H" 
			},
			{
				"x": -2.7319345945,
				"y": 1.783160587,
				"z": 2.1511927865,
				"element": "H" 
			},
			{
				"x": 1.9077386485,
				"y": 0.4231841156,
				"z": 1.7690515845,
				"element": "H" 
			},
			{
				"x": 1.9509518192,
				"y": -1.2323674575,
				"z": -0.0659771433,
				"element": "H" 
			}
		],
		 "valence_orbital": [ 
			{
				"type": "occ",
				"energy": -0.29394,
				"method": "rhf"
			},
			{
				"type": "occ",
				"energy": -0.28008,
				"method": "rhf"
			},
			{
				"type": "occ",
				"energy": -0.27159,
				"method": "rhf"
			},
			{
				"type": "occ",
				"energy": -0.26068,
				"method": "rhf"
			},
			{
				"type": "occ",
				"energy": -0.22469,
				"method": "rhf"
			},
			{
				"type": "unocc",
				"energy": -0.08176,
				"method": "rhf"
			},
			{
				"type": "unocc",
				"energy": -0.0298,
				"method": "rhf"
			},
			{
				"type": "unocc",
				"energy": -0.02522,
				"method": "rhf"
			},
			{
				"type": "unocc",
				"energy": 0.0366,
				"method": "rhf"
			},
			{
				"type": "unocc",
				"energy": 0.08039,
				"method": "rhf"
			}
		],
		"cosmo_sigma_profile": { 
			"-0.025": 0.0,
			"-0.024": 0.0,
			"-0.023": 0.0,
			"-0.022": 0.0,
			"-0.021": 0.0,
			"-0.02": 0.0,
			"-0.019": 0.0,
			"-0.018": 0.0,
			"-0.017": 0.0,
			"-0.016": 0.0,
			"-0.015": 0.0,
			"-0.014": 0.0,
			"-0.013": 0.0,
			"-0.012": 0.0,
			"-0.011": 0.0,
			"-0.01": 0.0,
			"-0.009": 0.0137921211053,
			"-0.008": 1.62187575304,
			"-0.007": 8.06148972709,
			"-0.006": 17.4633795381,
			"-0.005": 17.8698241352,
			"-0.004": 19.4501607639,
			"-0.003": 14.3784332916,
			"-0.002": 12.9122863797,
			"-0.001": 11.9702541265,
			"0.0": 17.9544757122,
			"0.001": 21.2956499767,
			"0.002": 19.6025288843,
			"0.003": 16.484958253,
			"0.004": 14.1469921754,
			"0.005": 4.63165722126,
			"0.006": 4.14529407879,
			"0.007": 4.39951241713,
			"0.008": 7.43739418709,
			"0.009": 5.19907981206,
			"0.01": 4.38252374562,
			"0.011": 2.41652533172,
			"0.012": 0.0384218114151,
			"0.013": 0.0,
			"0.014": 0.0,
			"0.015": 0.0,
			"0.016": 0.0,
			"0.017": 0.0,
			"0.018": 0.0,
			"0.019": 0.0,
			"0.02": 0.0,
			"0.021": 0.0,
			"0.022": 0.0,
			"0.023": 0.0,
			"0.024": 0.0,
			"0.025": 0.0
		}
	}
}
