{
	 "smiles": "CC(=CCO)C=CC=C(C)C=CC1=C(C)CCCC1(C)C", 
	 "Tm": 336.35, 
	 "num_atms": 51, 
	 "gaussian": { 
		 "optdone": 1, 
		 "sigma_profile": "yes", 
		 "theory": "DFT", 
		 "functional": "B3LYP", 
		 "basiset": "6-31G**", 
		 "properties": { 
			 "R2extent": 7415.954, 
			 "electric_dipole_moment_norm": 1.8268284019, 
			 "electric_quadrupole_moment_norm": 10.2349343716, 
			 "total_energy": -855.365609358, 
			 "HOMO_LUMO_gap": 0.14898, 
			 "cosmo_polarized_energy": -7.98, 
			 "cosmo_cavitation_energy": 49.02, 
			 "cosmo_dispersion_energy": -31.01, 
			 "cosmo_repulsion_energy": 2.4, 
			 "cosmo_total_nonelectrostatic_energy": 20.41, 
			 "SMD_solvation_energy": 8.05 
		},
		"coords": [
			{
				"x": 2.3523977774,
				"y": -0.5285195594,
				"z": -3.6624441561,
				"element": "C" 
			},
			{
				"x": 0.9029064108,
				"y": -0.3199537057,
				"z": -3.2761349799,
				"element": "C" 
			},
			{
				"x": 0.1264676491,
				"y": 0.6509863719,
				"z": -3.808999202,
				"element": "C" 
			},
			{
				"x": 0.5601668288,
				"y": 1.7242509328,
				"z": -4.7805563714,
				"element": "C" 
			},
			{
				"x": 1.7575005,
				"y": 2.4176451756,
				"z": -4.422302783,
				"element": "O" 
			},
			{
				"x": 0.3694203489,
				"y": -1.2917611548,
				"z": -2.3120407053,
				"element": "C" 
			},
			{
				"x": -0.611094969,
				"y": -1.0772789928,
				"z": -1.4038822769,
				"element": "C" 
			},
			{
				"x": -1.1089645221,
				"y": -2.1125172571,
				"z": -0.5271745875,
				"element": "C" 
			},
			{
				"x": -2.0402721592,
				"y": -2.0009356935,
				"z": 0.454267841,
				"element": "C" 
			},
			{
				"x": -2.5441599463,
				"y": -3.245987053,
				"z": 1.1528534213,
				"element": "C" 
			},
			{
				"x": -2.7169768705,
				"y": -0.7626630255,
				"z": 0.8903326141,
				"element": "C" 
			},
			{
				"x": -2.2435308065,
				"y": 0.4402150899,
				"z": 1.2739270271,
				"element": "C" 
			},
			{
				"x": -0.8467215125,
				"y": 0.9667116069,
				"z": 1.3994903381,
				"element": "C" 
			},
			{
				"x": -0.4330008716,
				"y": 1.9424320063,
				"z": 0.5609275681,
				"element": "C" 
			},
			{
				"x": -1.2750517664,
				"y": 2.4650475288,
				"z": -0.5788111891,
				"element": "C" 
			},
			{
				"x": 0.9225534149,
				"y": 2.6132088336,
				"z": 0.6633051041,
				"element": "C" 
			},
			{
				"x": 1.5897258163,
				"y": 2.4415773145,
				"z": 2.0284996279,
				"element": "C" 
			},
			{
				"x": 1.4465307531,
				"y": 0.9949093607,
				"z": 2.4965167265,
				"element": "C" 
			},
			{
				"x": -0.0246330169,
				"y": 0.5378155754,
				"z": 2.6376007239,
				"element": "C" 
			},
			{
				"x": -0.6704076707,
				"y": 1.1842870109,
				"z": 3.8904209786,
				"element": "C" 
			},
			{
				"x": -0.0137418029,
				"y": -0.9887041856,
				"z": 2.8536580046,
				"element": "C" 
			},
			{
				"x": 2.4698048459,
				"y": -1.501158707,
				"z": -4.1581468434,
				"element": "H" 
			},
			{
				"x": 2.9924209865,
				"y": -0.5546841004,
				"z": -2.772199045,
				"element": "H" 
			},
			{
				"x": 2.7204739426,
				"y": 0.256441979,
				"z": -4.3217904313,
				"element": "H" 
			},
			{
				"x": -0.9290760967,
				"y": 0.6577275562,
				"z": -3.5441939775,
				"element": "H" 
			},
			{
				"x": 0.7661626792,
				"y": 1.2975480427,
				"z": -5.7709143763,
				"element": "H" 
			},
			{
				"x": -0.2700593556,
				"y": 2.4346417315,
				"z": -4.9148356391,
				"element": "H" 
			},
			{
				"x": 1.6853491984,
				"y": 2.6345395236,
				"z": -3.4832233235,
				"element": "H" 
			},
			{
				"x": 0.8522812122,
				"y": -2.2708738988,
				"z": -2.3199049964,
				"element": "H" 
			},
			{
				"x": -1.0557673072,
				"y": -0.0920576706,
				"z": -1.3195617214,
				"element": "H" 
			},
			{
				"x": -0.7132269978,
				"y": -3.1110601232,
				"z": -0.7158750739,
				"element": "H" 
			},
			{
				"x": -2.3685541612,
				"y": -3.1997954108,
				"z": 2.2347990597,
				"element": "H" 
			},
			{
				"x": -3.6288300253,
				"y": -3.35486932,
				"z": 1.0187004269,
				"element": "H" 
			},
			{
				"x": -2.0640797249,
				"y": -4.149322915,
				"z": 0.7673168904,
				"element": "H" 
			},
			{
				"x": -3.7996872427,
				"y": -0.8833179923,
				"z": 0.9819585006,
				"element": "H" 
			},
			{
				"x": -3.015706419,
				"y": 1.156524596,
				"z": 1.5636608539,
				"element": "H" 
			},
			{
				"x": -2.2202313194,
				"y": 1.9311639074,
				"z": -0.6937304905,
				"element": "H" 
			},
			{
				"x": -0.7297022988,
				"y": 2.3909394911,
				"z": -1.5295809929,
				"element": "H" 
			},
			{
				"x": -1.5000159247,
				"y": 3.5302721253,
				"z": -0.4318352236,
				"element": "H" 
			},
			{
				"x": 0.8149450385,
				"y": 3.6796583867,
				"z": 0.4222944406,
				"element": "H" 
			},
			{
				"x": 1.5726527306,
				"y": 2.2008537368,
				"z": -0.1253615471,
				"element": "H" 
			},
			{
				"x": 2.6473694295,
				"y": 2.724971988,
				"z": 1.9744287172,
				"element": "H" 
			},
			{
				"x": 1.1239182935,
				"y": 3.1200285679,
				"z": 2.7535473232,
				"element": "H" 
			},
			{
				"x": 1.948385544,
				"y": 0.3381801757,
				"z": 1.772776187,
				"element": "H" 
			},
			{
				"x": 1.9550248234,
				"y": 0.8462441731,
				"z": 3.4575663325,
				"element": "H" 
			},
			{
				"x": -0.1283657231,
				"y": 0.8892431067,
				"z": 4.7967432393,
				"element": "H" 
			},
			{
				"x": -1.7097772457,
				"y": 0.8589147698,
				"z": 4.0036148458,
				"element": "H" 
			},
			{
				"x": -0.6703138946,
				"y": 2.2767164023,
				"z": 3.8324068138,
				"element": "H" 
			},
			{
				"x": 0.3887873563,
				"y": -1.5150198937,
				"z": 1.9848267779,
				"element": "H" 
			},
			{
				"x": 0.6135817308,
				"y": -1.2287591403,
				"z": 3.7201705717,
				"element": "H" 
			},
			{
				"x": -1.0157776593,
				"y": -1.3753572679,
				"z": 3.0536889773,
				"element": "H" 
			}
		],
		 "valence_orbital": [ 
			{
				"type": "occ",
				"energy": -0.27368,
				"method": "rhf"
			},
			{
				"type": "occ",
				"energy": -0.26553,
				"method": "rhf"
			},
			{
				"type": "occ",
				"energy": -0.2493,
				"method": "rhf"
			},
			{
				"type": "occ",
				"energy": -0.21948,
				"method": "rhf"
			},
			{
				"type": "occ",
				"energy": -0.19501,
				"method": "rhf"
			},
			{
				"type": "unocc",
				"energy": -0.04603,
				"method": "rhf"
			},
			{
				"type": "unocc",
				"energy": -0.00113,
				"method": "rhf"
			},
			{
				"type": "unocc",
				"energy": 0.02877,
				"method": "rhf"
			},
			{
				"type": "unocc",
				"energy": 0.04491,
				"method": "rhf"
			},
			{
				"type": "unocc",
				"energy": 0.07323,
				"method": "rhf"
			}
		],
		"cosmo_sigma_profile": { 
			"-0.025": 0.0,
			"-0.024": 0.0,
			"-0.023": 0.0,
			"-0.022": 0.0,
			"-0.021": 0.0,
			"-0.02": 0.0,
			"-0.019": 0.0,
			"-0.018": 0.0,
			"-0.017": 0.0,
			"-0.016": 0.0,
			"-0.015": 0.0,
			"-0.014": 0.0,
			"-0.013": 0.248372902608,
			"-0.012": 1.02246999674,
			"-0.011": 1.09422465959,
			"-0.01": 0.791536619752,
			"-0.009": 0.633708148971,
			"-0.008": 0.853333347012,
			"-0.007": 1.1545700379,
			"-0.006": 1.04845152382,
			"-0.005": 3.97041288105,
			"-0.004": 23.5744116184,
			"-0.003": 35.9416868616,
			"-0.002": 51.9591646058,
			"-0.001": 57.07260713,
			"0.0": 58.2184812017,
			"0.001": 52.3815077085,
			"0.002": 31.3453778964,
			"0.003": 15.9165604606,
			"0.004": 12.8107774881,
			"0.005": 10.0387336525,
			"0.006": 7.10774213669,
			"0.007": 3.34061057714,
			"0.008": 1.35036815007,
			"0.009": 1.02928497553,
			"0.01": 1.45283274482,
			"0.011": 1.18732865264,
			"0.012": 0.832483790001,
			"0.013": 1.28443293142,
			"0.014": 1.94945991837,
			"0.015": 0.628444191205,
			"0.016": 0.0,
			"0.017": 0.0,
			"0.018": 0.0,
			"0.019": 0.0,
			"0.02": 0.0,
			"0.021": 0.0,
			"0.022": 0.0,
			"0.023": 0.0,
			"0.024": 0.0,
			"0.025": 0.0
		}
	}
}
