{
	 "smiles": "CC(=O)C(=CC1=CC=C(O1)C1=CC=CC=C1[N+]([O-])=O)C(C)=O", 
	 "Tm": 401.15, 
	 "num_atms": 35, 
	 "gaussian": { 
		 "optdone": 1, 
		 "sigma_profile": "yes", 
		 "theory": "DFT", 
		 "functional": "B3LYP", 
		 "basiset": "6-31G**", 
		 "properties": { 
			 "R2extent": 8638.7152, 
			 "electric_dipole_moment_norm": 2.91553801896, 
			 "electric_quadrupole_moment_norm": 23.0218525328, 
			 "total_energy": -1048.26979258, 
			 "HOMO_LUMO_gap": 0.12015, 
			 "cosmo_polarized_energy": -16.55, 
			 "cosmo_cavitation_energy": 41.29, 
			 "cosmo_dispersion_energy": -27.62, 
			 "cosmo_repulsion_energy": 2.08, 
			 "cosmo_total_nonelectrostatic_energy": 15.74, 
			 "SMD_solvation_energy": 10.71 
		},
		"coords": [
			{
				"x": 0.4873840357,
				"y": -2.6959343409,
				"z": -0.0267144414,
				"element": "C" 
			},
			{
				"x": 1.3960510563,
				"y": -1.565742828,
				"z": 0.4160879123,
				"element": "C" 
			},
			{
				"x": 2.1794555271,
				"y": -1.0270893616,
				"z": -0.3481708224,
				"element": "O" 
			},
			{
				"x": 1.3629361163,
				"y": -1.192776137,
				"z": 1.8793367647,
				"element": "C" 
			},
			{
				"x": 0.3581300706,
				"y": -0.4881477039,
				"z": 2.4590368006,
				"element": "C" 
			},
			{
				"x": -0.7956427442,
				"y": 0.0912168737,
				"z": 1.846066771,
				"element": "C" 
			},
			{
				"x": -1.8745224983,
				"y": 0.7681081041,
				"z": 2.3762864984,
				"element": "C" 
			},
			{
				"x": -2.7090673138,
				"y": 1.1316606789,
				"z": 1.293621991,
				"element": "C" 
			},
			{
				"x": -2.1000263788,
				"y": 0.6744047061,
				"z": 0.1434427082,
				"element": "C" 
			},
			{
				"x": -0.9343005463,
				"y": 0.0389702042,
				"z": 0.4851955682,
				"element": "O" 
			},
			{
				"x": -2.3134892753,
				"y": 0.8119179654,
				"z": -1.2977880017,
				"element": "C" 
			},
			{
				"x": -1.1941875702,
				"y": 0.6237759516,
				"z": -2.1390167547,
				"element": "C" 
			},
			{
				"x": -1.2673835925,
				"y": 0.8001978309,
				"z": -3.5162633463,
				"element": "C" 
			},
			{
				"x": -2.4622648173,
				"y": 1.2009971919,
				"z": -4.1161940919,
				"element": "C" 
			},
			{
				"x": -3.5825682803,
				"y": 1.405619297,
				"z": -3.319139509,
				"element": "C" 
			},
			{
				"x": -3.5137360088,
				"y": 1.1942927106,
				"z": -1.9418556982,
				"element": "C" 
			},
			{
				"x": -4.7937153201,
				"y": 1.3497260988,
				"z": -1.2283219769,
				"element": "N" 
			},
			{
				"x": -5.5799180269,
				"y": 2.1924938826,
				"z": -1.6585408712,
				"element": "O" 
			},
			{
				"x": -5.0199319376,
				"y": 0.6055489894,
				"z": -0.2749529987,
				"element": "O" 
			},
			{
				"x": 2.5278314768,
				"y": -1.5628031793,
				"z": 2.759162317,
				"element": "C" 
			},
			{
				"x": 3.7317328246,
				"y": -2.2124209473,
				"z": 2.1082021592,
				"element": "C" 
			},
			{
				"x": 2.498370448,
				"y": -1.3390266501,
				"z": 3.9604123166,
				"element": "O" 
			},
			{
				"x": 0.8249369753,
				"y": -3.6295753772,
				"z": 0.4409884119,
				"element": "H" 
			},
			{
				"x": 0.5311039703,
				"y": -2.803290194,
				"z": -1.1120464019,
				"element": "H" 
			},
			{
				"x": -0.5426398458,
				"y": -2.5298132852,
				"z": 0.2978772896,
				"element": "H" 
			},
			{
				"x": 0.4667411708,
				"y": -0.2964468423,
				"z": 3.5248807019,
				"element": "H" 
			},
			{
				"x": -2.041400793,
				"y": 0.9695741131,
				"z": 3.4247961283,
				"element": "H" 
			},
			{
				"x": -3.6466721789,
				"y": 1.6589192213,
				"z": 1.3550789703,
				"element": "H" 
			},
			{
				"x": -0.248223703,
				"y": 0.3496607365,
				"z": -1.6879590138,
				"element": "H" 
			},
			{
				"x": -0.3791378121,
				"y": 0.6378196005,
				"z": -4.1189366895,
				"element": "H" 
			},
			{
				"x": -2.5242623175,
				"y": 1.3516657285,
				"z": -5.1888009635,
				"element": "H" 
			},
			{
				"x": -4.5294566642,
				"y": 1.7156504464,
				"z": -3.743289992,
				"element": "H" 
			},
			{
				"x": 4.1381133349,
				"y": -1.5634785678,
				"z": 1.3266531258,
				"element": "H" 
			},
			{
				"x": 4.4859120011,
				"y": -2.4089817261,
				"z": 2.8704026851,
				"element": "H" 
			},
			{
				"x": 3.4504486169,
				"y": -3.1542931906,
				"z": 1.6215624529,
				"element": "H" 
			}
		],
		 "valence_orbital": [ 
			{
				"type": "occ",
				"energy": -0.28574,
				"method": "rhf"
			},
			{
				"type": "occ",
				"energy": -0.28043,
				"method": "rhf"
			},
			{
				"type": "occ",
				"energy": -0.26541,
				"method": "rhf"
			},
			{
				"type": "occ",
				"energy": -0.24935,
				"method": "rhf"
			},
			{
				"type": "occ",
				"energy": -0.22229,
				"method": "rhf"
			},
			{
				"type": "unocc",
				"energy": -0.10214,
				"method": "rhf"
			},
			{
				"type": "unocc",
				"energy": -0.08209,
				"method": "rhf"
			},
			{
				"type": "unocc",
				"energy": -0.03989,
				"method": "rhf"
			},
			{
				"type": "unocc",
				"energy": -0.02938,
				"method": "rhf"
			},
			{
				"type": "unocc",
				"energy": -0.01773,
				"method": "rhf"
			}
		],
		"cosmo_sigma_profile": { 
			"-0.025": 0.0,
			"-0.024": 0.0,
			"-0.023": 0.0,
			"-0.022": 0.0,
			"-0.021": 0.0,
			"-0.02": 0.0,
			"-0.019": 0.0,
			"-0.018": 0.0,
			"-0.017": 0.0,
			"-0.016": 0.0,
			"-0.015": 0.0,
			"-0.014": 0.0,
			"-0.013": 0.0,
			"-0.012": 0.0,
			"-0.011": 0.0,
			"-0.01": 0.25713683755,
			"-0.009": 2.64669145739,
			"-0.008": 9.37544187517,
			"-0.007": 15.2932051948,
			"-0.006": 18.339833595,
			"-0.005": 19.0370979782,
			"-0.004": 21.8810675915,
			"-0.003": 22.6669000887,
			"-0.002": 25.4247325473,
			"-0.001": 35.292349962,
			"0.0": 33.1507099295,
			"0.001": 27.1645227994,
			"0.002": 22.2653790351,
			"0.003": 8.80585105738,
			"0.004": 6.4459016595,
			"0.005": 7.14391570473,
			"0.006": 7.07856630814,
			"0.007": 11.8403351922,
			"0.008": 10.3674344965,
			"0.009": 6.31833994839,
			"0.01": 5.76088333283,
			"0.011": 6.6220514641,
			"0.012": 6.05859430676,
			"0.013": 1.83012545707,
			"0.014": 0.0318680588142,
			"0.015": 0.0,
			"0.016": 0.0,
			"0.017": 0.0,
			"0.018": 0.0,
			"0.019": 0.0,
			"0.02": 0.0,
			"0.021": 0.0,
			"0.022": 0.0,
			"0.023": 0.0,
			"0.024": 0.0,
			"0.025": 0.0
		}
	}
}
