{
	 "smiles": "CC1(NC(=O)NC1=O)C1=CC(=CC=C1)C#N", 
	 "Tm": 476.15, 
	 "num_atms": 25, 
	 "gaussian": { 
		 "optdone": 1, 
		 "sigma_profile": "yes", 
		 "theory": "DFT", 
		 "functional": "B3LYP", 
		 "basiset": "6-31G**", 
		 "properties": { 
			 "R2extent": 4144.5271, 
			 "electric_dipole_moment_norm": 4.47418308633, 
			 "electric_quadrupole_moment_norm": 26.7129628986, 
			 "total_energy": -739.323019336, 
			 "HOMO_LUMO_gap": 0.21105, 
			 "cosmo_polarized_energy": -21.82, 
			 "cosmo_cavitation_energy": 30.78, 
			 "cosmo_dispersion_energy": -21.2, 
			 "cosmo_repulsion_energy": 1.66, 
			 "cosmo_total_nonelectrostatic_energy": 11.25, 
			 "SMD_solvation_energy": 8.39 
		},
		"coords": [
			{
				"x": 1.8012679875,
				"y": -0.6583998703,
				"z": -1.7574481909,
				"element": "C" 
			},
			{
				"x": 1.1925515455,
				"y": -1.2243322243,
				"z": -0.4572438401,
				"element": "C" 
			},
			{
				"x": 2.1955060648,
				"y": -1.3426550554,
				"z": 0.5993021037,
				"element": "N" 
			},
			{
				"x": 2.5198792449,
				"y": -2.6458965604,
				"z": 0.9078748626,
				"element": "C" 
			},
			{
				"x": 3.391648377,
				"y": -3.0493855201,
				"z": 1.6455467609,
				"element": "O" 
			},
			{
				"x": 1.6140310849,
				"y": -3.4412356232,
				"z": 0.1766966453,
				"element": "N" 
			},
			{
				"x": 0.8157055637,
				"y": -2.7172456004,
				"z": -0.678215774,
				"element": "C" 
			},
			{
				"x": -0.001934435,
				"y": -3.1455960286,
				"z": -1.4635306398,
				"element": "O" 
			},
			{
				"x": -0.0416722804,
				"y": -0.4236617585,
				"z": -0.0219173819,
				"element": "C" 
			},
			{
				"x": -1.1474640886,
				"y": -0.3390722126,
				"z": -0.8758600835,
				"element": "C" 
			},
			{
				"x": -2.272198956,
				"y": 0.4107071333,
				"z": -0.5011755505,
				"element": "C" 
			},
			{
				"x": -2.2999669097,
				"y": 1.0835724585,
				"z": 0.7321354617,
				"element": "C" 
			},
			{
				"x": -1.2035198335,
				"y": 0.9869128909,
				"z": 1.5814947437,
				"element": "C" 
			},
			{
				"x": -0.0848263895,
				"y": 0.2364989302,
				"z": 1.211062521,
				"element": "C" 
			},
			{
				"x": -3.400111685,
				"y": 0.4923623373,
				"z": -1.3850089058,
				"element": "C" 
			},
			{
				"x": -4.3150068815,
				"y": 0.5669700581,
				"z": -2.0993007307,
				"element": "N" 
			},
			{
				"x": 2.0969754883,
				"y": 0.3848260982,
				"z": -1.6102703737,
				"element": "H" 
			},
			{
				"x": 2.6813848596,
				"y": -1.2383847177,
				"z": -2.0504241829,
				"element": "H" 
			},
			{
				"x": 1.073990651,
				"y": -0.699425392,
				"z": -2.5704643466,
				"element": "H" 
			},
			{
				"x": 2.8816317069,
				"y": -0.6252831786,
				"z": 0.7833007379,
				"element": "H" 
			},
			{
				"x": 1.6120924951,
				"y": -4.4497721837,
				"z": 0.2371230627,
				"element": "H" 
			},
			{
				"x": -1.1565355699,
				"y": -0.877978349,
				"z": -1.8156684559,
				"element": "H" 
			},
			{
				"x": -3.1731280075,
				"y": 1.6638535839,
				"z": 1.0100533379,
				"element": "H" 
			},
			{
				"x": -1.2170444319,
				"y": 1.4944374533,
				"z": 2.5410021914,
				"element": "H" 
			},
			{
				"x": 0.7558443994,
				"y": 0.1532833311,
				"z": 1.8907360274,
				"element": "H" 
			}
		],
		 "valence_orbital": [ 
			{
				"type": "occ",
				"energy": -0.30268,
				"method": "rhf"
			},
			{
				"type": "occ",
				"energy": -0.2886,
				"method": "rhf"
			},
			{
				"type": "occ",
				"energy": -0.28106,
				"method": "rhf"
			},
			{
				"type": "occ",
				"energy": -0.27528,
				"method": "rhf"
			},
			{
				"type": "occ",
				"energy": -0.26791,
				"method": "rhf"
			},
			{
				"type": "unocc",
				"energy": -0.05686,
				"method": "rhf"
			},
			{
				"type": "unocc",
				"energy": -0.04024,
				"method": "rhf"
			},
			{
				"type": "unocc",
				"energy": -0.01693,
				"method": "rhf"
			},
			{
				"type": "unocc",
				"energy": 0.03472,
				"method": "rhf"
			},
			{
				"type": "unocc",
				"energy": 0.04251,
				"method": "rhf"
			}
		],
		"cosmo_sigma_profile": { 
			"-0.025": 0.0,
			"-0.024": 0.0,
			"-0.023": 0.0,
			"-0.022": 0.0,
			"-0.021": 0.0,
			"-0.02": 0.0,
			"-0.019": 0.0,
			"-0.018": 0.0105193660176,
			"-0.017": 0.939512124699,
			"-0.016": 1.35467275593,
			"-0.015": 1.89743417656,
			"-0.014": 2.43202890576,
			"-0.013": 2.17684451661,
			"-0.012": 1.69596172798,
			"-0.011": 1.83768112266,
			"-0.01": 2.73260945335,
			"-0.009": 2.02438472334,
			"-0.008": 4.30595575499,
			"-0.007": 10.5301165962,
			"-0.006": 15.474652451,
			"-0.005": 15.7056110376,
			"-0.004": 14.2787415761,
			"-0.003": 16.0507428534,
			"-0.002": 19.1777610437,
			"-0.001": 18.4319865309,
			"0.0": 13.6817272536,
			"0.001": 14.6744286865,
			"0.002": 15.3766025993,
			"0.003": 7.84523402278,
			"0.004": 4.19899521857,
			"0.005": 5.55417058579,
			"0.006": 4.42517959584,
			"0.007": 5.29386144451,
			"0.008": 6.33499714675,
			"0.009": 6.1287465059,
			"0.01": 6.8018952394,
			"0.011": 9.14131137262,
			"0.012": 10.5838718702,
			"0.013": 5.58336243228,
			"0.014": 0.187125075161,
			"0.015": 0.0,
			"0.016": 0.0,
			"0.017": 0.0,
			"0.018": 0.0,
			"0.019": 0.0,
			"0.02": 0.0,
			"0.021": 0.0,
			"0.022": 0.0,
			"0.023": 0.0,
			"0.024": 0.0,
			"0.025": 0.0
		}
	}
}
