{
	 "smiles": "NC1=CC2=C(OCCCO2)C=C1", 
	 "Tm": 354.65, 
	 "num_atms": 23, 
	 "gaussian": { 
		 "optdone": 1, 
		 "sigma_profile": "yes", 
		 "theory": "DFT", 
		 "functional": "B3LYP", 
		 "basiset": "6-31G**", 
		 "properties": { 
			 "R2extent": 2326.6874, 
			 "electric_dipole_moment_norm": 3.12813346742, 
			 "electric_quadrupole_moment_norm": 10.7872451085, 
			 "total_energy": -554.764395132, 
			 "HOMO_LUMO_gap": 0.1975, 
			 "cosmo_polarized_energy": -12.03, 
			 "cosmo_cavitation_energy": 25.35, 
			 "cosmo_dispersion_energy": -19.34, 
			 "cosmo_repulsion_energy": 1.55, 
			 "cosmo_total_nonelectrostatic_energy": 7.55, 
			 "SMD_solvation_energy": 4.27 
		},
		"coords": [
			{
				"x": 2.1631571012,
				"y": -2.8764072104,
				"z": 0.7786144153,
				"element": "N" 
			},
			{
				"x": 1.1965800239,
				"y": -1.8846652368,
				"z": 0.9868536893,
				"element": "C" 
			},
			{
				"x": 0.5028658135,
				"y": -1.3239750382,
				"z": -0.0948782225,
				"element": "C" 
			},
			{
				"x": -0.5136456462,
				"y": -0.3872907783,
				"z": 0.1003874593,
				"element": "C" 
			},
			{
				"x": -0.84764111,
				"y": 0.0273981495,
				"z": 1.4035067489,
				"element": "C" 
			},
			{
				"x": -1.895337356,
				"y": 0.8795888571,
				"z": 1.6868012193,
				"element": "O" 
			},
			{
				"x": -1.8526046975,
				"y": 2.1811378585,
				"z": 1.1019745106,
				"element": "C" 
			},
			{
				"x": -2.2374526013,
				"y": 2.1818907513,
				"z": -0.3742025755,
				"element": "C" 
			},
			{
				"x": -1.2379366279,
				"y": 1.447803714,
				"z": -1.2624531816,
				"element": "C" 
			},
			{
				"x": -1.1875766467,
				"y": 0.0392793963,
				"z": -1.0210070526,
				"element": "O" 
			},
			{
				"x": -0.1419387816,
				"y": -0.5202048628,
				"z": 2.4770231828,
				"element": "C" 
			},
			{
				"x": 0.8607883258,
				"y": -1.4656188705,
				"z": 2.2848268223,
				"element": "C" 
			},
			{
				"x": 2.85800996,
				"y": -2.9461039371,
				"z": 1.5098150921,
				"element": "H" 
			},
			{
				"x": 2.5923404566,
				"y": -2.8621128068,
				"z": -0.1366353091,
				"element": "H" 
			},
			{
				"x": 0.7255120655,
				"y": -1.6220209581,
				"z": -1.1153498315,
				"element": "H" 
			},
			{
				"x": -0.8524239687,
				"y": 2.6203556679,
				"z": 1.239236414,
				"element": "H" 
			},
			{
				"x": -2.5670369133,
				"y": 2.7770009952,
				"z": 1.6781777608,
				"element": "H" 
			},
			{
				"x": -2.3103578226,
				"y": 3.222594889,
				"z": -0.7191991877,
				"element": "H" 
			},
			{
				"x": -3.2269600727,
				"y": 1.725257529,
				"z": -0.489364155,
				"element": "H" 
			},
			{
				"x": -1.5276487284,
				"y": 1.5416430114,
				"z": -2.3132416284,
				"element": "H" 
			},
			{
				"x": -0.2319193616,
				"y": 1.8788979312,
				"z": -1.1466038505,
				"element": "H" 
			},
			{
				"x": -0.4140837937,
				"y": -0.1979833545,
				"z": 3.477311905,
				"element": "H" 
			},
			{
				"x": 1.3818103818,
				"y": -1.885465697,
				"z": 3.1412057746,
				"element": "H" 
			}
		],
		 "valence_orbital": [ 
			{
				"type": "occ",
				"energy": -0.28972,
				"method": "rhf"
			},
			{
				"type": "occ",
				"energy": -0.28263,
				"method": "rhf"
			},
			{
				"type": "occ",
				"energy": -0.26342,
				"method": "rhf"
			},
			{
				"type": "occ",
				"energy": -0.22729,
				"method": "rhf"
			},
			{
				"type": "occ",
				"energy": -0.18831,
				"method": "rhf"
			},
			{
				"type": "unocc",
				"energy": 0.00919,
				"method": "rhf"
			},
			{
				"type": "unocc",
				"energy": 0.02705,
				"method": "rhf"
			},
			{
				"type": "unocc",
				"energy": 0.08374,
				"method": "rhf"
			},
			{
				"type": "unocc",
				"energy": 0.09302,
				"method": "rhf"
			},
			{
				"type": "unocc",
				"energy": 0.1115,
				"method": "rhf"
			}
		],
		"cosmo_sigma_profile": { 
			"-0.025": 0.0,
			"-0.024": 0.0,
			"-0.023": 0.0,
			"-0.022": 0.0,
			"-0.021": 0.0,
			"-0.02": 0.0,
			"-0.019": 0.0,
			"-0.018": 0.0,
			"-0.017": 0.0,
			"-0.016": 0.0,
			"-0.015": 0.0,
			"-0.014": 0.0,
			"-0.013": 0.0591817120158,
			"-0.012": 2.01698293289,
			"-0.011": 2.64971981243,
			"-0.01": 3.1490360724,
			"-0.009": 3.70894145453,
			"-0.008": 2.78642893109,
			"-0.007": 2.28671854243,
			"-0.006": 5.3025934452,
			"-0.005": 15.5382067475,
			"-0.004": 25.0301553102,
			"-0.003": 18.9893931964,
			"-0.002": 15.8083683877,
			"-0.001": 11.4669812588,
			"0.0": 8.27574133186,
			"0.001": 6.55474754095,
			"0.002": 7.93432663645,
			"0.003": 7.54279206489,
			"0.004": 9.41242694693,
			"0.005": 12.3200234302,
			"0.006": 13.3830038598,
			"0.007": 6.71606863542,
			"0.008": 3.32690312881,
			"0.009": 2.83111394704,
			"0.01": 4.00963777301,
			"0.011": 3.36492416259,
			"0.012": 2.70049914583,
			"0.013": 0.925193154658,
			"0.014": 0.84976939279,
			"0.015": 0.435406097764,
			"0.016": 0.0340098584014,
			"0.017": 0.0,
			"0.018": 0.0,
			"0.019": 0.0,
			"0.02": 0.0,
			"0.021": 0.0,
			"0.022": 0.0,
			"0.023": 0.0,
			"0.024": 0.0,
			"0.025": 0.0
		}
	}
}
