{
	 "smiles": "CCCOCCC", 
	 "Tm": 151.15, 
	 "num_atms": 21, 
	 "gaussian": { 
		 "optdone": 1, 
		 "sigma_profile": "yes", 
		 "theory": "DFT", 
		 "functional": "B3LYP", 
		 "basiset": "6-31G**", 
		 "properties": { 
			 "R2extent": 1692.1962, 
			 "electric_dipole_moment_norm": 1.128444416, 
			 "electric_quadrupole_moment_norm": 2.23892145463, 
			 "total_energy": -312.302476474, 
			 "HOMO_LUMO_gap": 0.33719, 
			 "cosmo_polarized_energy": -3.32, 
			 "cosmo_cavitation_energy": 22.69, 
			 "cosmo_dispersion_energy": -16.53, 
			 "cosmo_repulsion_energy": 1.44, 
			 "cosmo_total_nonelectrostatic_energy": 7.61, 
			 "SMD_solvation_energy": 3.98 
		},
		"coords": [
			{
				"x": 2.890363773,
				"y": 2.3575166091,
				"z": 1.3058210217,
				"element": "C" 
			},
			{
				"x": 2.3268744081,
				"y": 2.1396945913,
				"z": -0.1016800414,
				"element": "C" 
			},
			{
				"x": 0.8516010059,
				"y": 1.7536441258,
				"z": -0.1052036559,
				"element": "C" 
			},
			{
				"x": 0.7101414217,
				"y": 0.5099284045,
				"z": 0.5635156807,
				"element": "O" 
			},
			{
				"x": -0.6081576813,
				"y": -0.0137847914,
				"z": 0.5765808083,
				"element": "C" 
			},
			{
				"x": -1.520874282,
				"y": 0.6269124861,
				"z": 1.6271900649,
				"element": "C" 
			},
			{
				"x": -2.9019819291,
				"y": -0.0352459467,
				"z": 1.6704749782,
				"element": "C" 
			},
			{
				"x": 3.9546703232,
				"y": 2.6114484412,
				"z": 1.2719098952,
				"element": "H" 
			},
			{
				"x": 2.7717352943,
				"y": 1.4544883146,
				"z": 1.910156375,
				"element": "H" 
			},
			{
				"x": 2.3682205087,
				"y": 3.1746277031,
				"z": 1.817543062,
				"element": "H" 
			},
			{
				"x": 2.4414038035,
				"y": 3.0513879153,
				"z": -0.7021026657,
				"element": "H" 
			},
			{
				"x": 2.890855236,
				"y": 1.3500142097,
				"z": -0.6127335275,
				"element": "H" 
			},
			{
				"x": 0.2586953892,
				"y": 2.5409274311,
				"z": 0.3892210298,
				"element": "H" 
			},
			{
				"x": 0.480076151,
				"y": 1.6679359491,
				"z": -1.1408356734,
				"element": "H" 
			},
			{
				"x": -1.0645711815,
				"y": 0.0739854435,
				"z": -0.4246540444,
				"element": "H" 
			},
			{
				"x": -0.500485746,
				"y": -1.0839330406,
				"z": 0.7910462533,
				"element": "H" 
			},
			{
				"x": -1.0296004735,
				"y": 0.5469804141,
				"z": 2.6043143715,
				"element": "H" 
			},
			{
				"x": -1.6340423503,
				"y": 1.6979569638,
				"z": 1.4198572733,
				"element": "H" 
			},
			{
				"x": -3.4186792296,
				"y": 0.0541889045,
				"z": 0.7079020421,
				"element": "H" 
			},
			{
				"x": -3.5394046996,
				"y": 0.4251705334,
				"z": 2.4314307782,
				"element": "H" 
			},
			{
				"x": -2.8244397416,
				"y": -1.1031446615,
				"z": 1.905045974,
				"element": "H" 
			}
		],
		 "valence_orbital": [ 
			{
				"type": "occ",
				"energy": -0.33716,
				"method": "rhf"
			},
			{
				"type": "occ",
				"energy": -0.33372,
				"method": "rhf"
			},
			{
				"type": "occ",
				"energy": -0.32479,
				"method": "rhf"
			},
			{
				"type": "occ",
				"energy": -0.299,
				"method": "rhf"
			},
			{
				"type": "occ",
				"energy": -0.24477,
				"method": "rhf"
			},
			{
				"type": "unocc",
				"energy": 0.09242,
				"method": "rhf"
			},
			{
				"type": "unocc",
				"energy": 0.09865,
				"method": "rhf"
			},
			{
				"type": "unocc",
				"energy": 0.12426,
				"method": "rhf"
			},
			{
				"type": "unocc",
				"energy": 0.12617,
				"method": "rhf"
			},
			{
				"type": "unocc",
				"energy": 0.13908,
				"method": "rhf"
			}
		],
		"cosmo_sigma_profile": { 
			"-0.025": 0.0,
			"-0.024": 0.0,
			"-0.023": 0.0,
			"-0.022": 0.0,
			"-0.021": 0.0,
			"-0.02": 0.0,
			"-0.019": 0.0,
			"-0.018": 0.0,
			"-0.017": 0.0,
			"-0.016": 0.0,
			"-0.015": 0.0,
			"-0.014": 0.0,
			"-0.013": 0.0,
			"-0.012": 0.0,
			"-0.011": 0.0,
			"-0.01": 0.0,
			"-0.009": 0.0,
			"-0.008": 0.0,
			"-0.007": 0.0,
			"-0.006": 0.0,
			"-0.005": 0.0,
			"-0.004": 1.56318697286,
			"-0.003": 22.2644197231,
			"-0.002": 37.2738911812,
			"-0.001": 31.6781040685,
			"0.0": 27.5643172765,
			"0.001": 25.0237722508,
			"0.002": 10.7990068416,
			"0.003": 2.26654786402,
			"0.004": 2.51775720471,
			"0.005": 1.96480348317,
			"0.006": 1.7451683553,
			"0.007": 1.59711299684,
			"0.008": 1.90160436391,
			"0.009": 1.89605335662,
			"0.01": 1.32198108832,
			"0.011": 1.1822617257,
			"0.012": 0.803463067083,
			"0.013": 1.09538932663,
			"0.014": 0.190991924069,
			"0.015": 0.0,
			"0.016": 0.0,
			"0.017": 0.0,
			"0.018": 0.0,
			"0.019": 0.0,
			"0.02": 0.0,
			"0.021": 0.0,
			"0.022": 0.0,
			"0.023": 0.0,
			"0.024": 0.0,
			"0.025": 0.0
		}
	}
}
