{
	 "smiles": "CCCCC1=CC=CC=C1O", 
	 "Tm": 253.15, 
	 "num_atms": 25, 
	 "gaussian": { 
		 "optdone": 1, 
		 "sigma_profile": "yes", 
		 "theory": "DFT", 
		 "functional": "B3LYP", 
		 "basiset": "6-31G**", 
		 "properties": { 
			 "R2extent": 1886.8732, 
			 "electric_dipole_moment_norm": 1.19405106675, 
			 "electric_quadrupole_moment_norm": 6.94890363798, 
			 "total_energy": -464.734738492, 
			 "HOMO_LUMO_gap": 0.21556, 
			 "cosmo_polarized_energy": -7.18, 
			 "cosmo_cavitation_energy": 26.76, 
			 "cosmo_dispersion_energy": -19.05, 
			 "cosmo_repulsion_energy": 1.55, 
			 "cosmo_total_nonelectrostatic_energy": 9.26, 
			 "SMD_solvation_energy": 4.57 
		},
		"coords": [
			{
				"x": -1.6522831914,
				"y": -1.484358629,
				"z": -0.8822744655,
				"element": "C" 
			},
			{
				"x": -2.4210740432,
				"y": -0.587323297,
				"z": 0.0968602669,
				"element": "C" 
			},
			{
				"x": -2.0538424042,
				"y": 0.9097987954,
				"z": 0.0412510946,
				"element": "C" 
			},
			{
				"x": -0.8418467476,
				"y": 1.3539248601,
				"z": 0.8946787215,
				"element": "C" 
			},
			{
				"x": 0.5100268196,
				"y": 0.814954738,
				"z": 0.474338463,
				"element": "C" 
			},
			{
				"x": 1.2159291071,
				"y": 1.3860514664,
				"z": -0.5901923859,
				"element": "C" 
			},
			{
				"x": 2.4649020147,
				"y": 0.9105201083,
				"z": -0.9942448779,
				"element": "C" 
			},
			{
				"x": 3.0391622925,
				"y": -0.1635080084,
				"z": -0.3153682611,
				"element": "C" 
			},
			{
				"x": 2.3636576209,
				"y": -0.7494482559,
				"z": 0.7551613333,
				"element": "C" 
			},
			{
				"x": 1.1106354221,
				"y": -0.2663886361,
				"z": 1.1455070267,
				"element": "C" 
			},
			{
				"x": 0.4178800537,
				"y": -0.8274550278,
				"z": 2.1891736663,
				"element": "O" 
			},
			{
				"x": -1.9957882667,
				"y": -2.5224483098,
				"z": -0.8112167259,
				"element": "H" 
			},
			{
				"x": -0.5764180707,
				"y": -1.4751583783,
				"z": -0.692729302,
				"element": "H" 
			},
			{
				"x": -1.8077803705,
				"y": -1.1555952046,
				"z": -1.9166255409,
				"element": "H" 
			},
			{
				"x": -2.2810634278,
				"y": -0.9546285587,
				"z": 1.1211999608,
				"element": "H" 
			},
			{
				"x": -3.4930286693,
				"y": -0.6857875682,
				"z": -0.1185573576,
				"element": "H" 
			},
			{
				"x": -1.8934610578,
				"y": 1.2085495626,
				"z": -1.0039788073,
				"element": "H" 
			},
			{
				"x": -2.9139789131,
				"y": 1.4940833251,
				"z": 0.393125366,
				"element": "H" 
			},
			{
				"x": -1.0298926008,
				"y": 1.0831988234,
				"z": 1.9381101745,
				"element": "H" 
			},
			{
				"x": -0.7952849001,
				"y": 2.4498219549,
				"z": 0.8590289516,
				"element": "H" 
			},
			{
				"x": 0.76995434,
				"y": 2.2304802543,
				"z": -1.1111360222,
				"element": "H" 
			},
			{
				"x": 2.9847230086,
				"y": 1.3777129904,
				"z": -1.8249874576,
				"element": "H" 
			},
			{
				"x": 4.0117136597,
				"y": -0.5466033333,
				"z": -0.610463159,
				"element": "H" 
			},
			{
				"x": 2.8082403555,
				"y": -1.5858900924,
				"z": 1.2917942614,
				"element": "H" 
			},
			{
				"x": 0.9433179687,
				"y": -1.5466035798,
				"z": 2.5623450762,
				"element": "H" 
			}
		],
		 "valence_orbital": [ 
			{
				"type": "occ",
				"energy": -0.31546,
				"method": "rhf"
			},
			{
				"type": "occ",
				"energy": -0.31068,
				"method": "rhf"
			},
			{
				"type": "occ",
				"energy": -0.30828,
				"method": "rhf"
			},
			{
				"type": "occ",
				"energy": -0.23991,
				"method": "rhf"
			},
			{
				"type": "occ",
				"energy": -0.21445,
				"method": "rhf"
			},
			{
				"type": "unocc",
				"energy": 0.00111,
				"method": "rhf"
			},
			{
				"type": "unocc",
				"energy": 0.01743,
				"method": "rhf"
			},
			{
				"type": "unocc",
				"energy": 0.06913,
				"method": "rhf"
			},
			{
				"type": "unocc",
				"energy": 0.09911,
				"method": "rhf"
			},
			{
				"type": "unocc",
				"energy": 0.10461,
				"method": "rhf"
			}
		],
		"cosmo_sigma_profile": { 
			"-0.025": 0.0,
			"-0.024": 0.0,
			"-0.023": 0.0,
			"-0.022": 0.0,
			"-0.021": 0.0,
			"-0.02": 0.0,
			"-0.019": 0.0,
			"-0.018": 0.0483453194488,
			"-0.017": 0.994382069166,
			"-0.016": 1.08403572814,
			"-0.015": 1.02331342119,
			"-0.014": 0.906208706591,
			"-0.013": 1.00727448479,
			"-0.012": 0.660937362443,
			"-0.011": 1.17247639609,
			"-0.01": 1.2623606624,
			"-0.009": 0.918761376159,
			"-0.008": 1.19509794875,
			"-0.007": 1.20601008177,
			"-0.006": 2.09674474741,
			"-0.005": 6.85689760041,
			"-0.004": 8.70670113594,
			"-0.003": 12.928892992,
			"-0.002": 20.2212524248,
			"-0.001": 24.2185214656,
			"0.0": 26.4595161482,
			"0.001": 26.7394061378,
			"0.002": 17.9082104059,
			"0.003": 11.3268709764,
			"0.004": 11.2497988821,
			"0.005": 10.1045543118,
			"0.006": 9.96241387187,
			"0.007": 5.18820681916,
			"0.008": 1.26079374447,
			"0.009": 1.60322173747,
			"0.01": 0.91513553761,
			"0.011": 0.0105134561315,
			"0.012": 0.0,
			"0.013": 0.0,
			"0.014": 0.0,
			"0.015": 0.0,
			"0.016": 0.0,
			"0.017": 0.0,
			"0.018": 0.0,
			"0.019": 0.0,
			"0.02": 0.0,
			"0.021": 0.0,
			"0.022": 0.0,
			"0.023": 0.0,
			"0.024": 0.0,
			"0.025": 0.0
		}
	}
}
