{
	 "smiles": "[O-][N+](=O)C1=CC=C(C=CC2=CC3=C(OCO3)C=C2)C(=C1)[N+]([O-])=O", 
	 "Tm": 451.15, 
	 "num_atms": 33, 
	 "gaussian": { 
		 "optdone": 1, 
		 "sigma_profile": "yes", 
		 "theory": "DFT", 
		 "functional": "B3LYP", 
		 "basiset": "6-31G**", 
		 "properties": { 
			 "R2extent": 12654.3419, 
			 "electric_dipole_moment_norm": 7.9884286421, 
			 "electric_quadrupole_moment_norm": 14.7955614044, 
			 "total_energy": -1138.22500237, 
			 "HOMO_LUMO_gap": 0.10511, 
			 "cosmo_polarized_energy": -16.22, 
			 "cosmo_cavitation_energy": 40.02, 
			 "cosmo_dispersion_energy": -29.21, 
			 "cosmo_repulsion_energy": 2.17, 
			 "cosmo_total_nonelectrostatic_energy": 12.97, 
			 "SMD_solvation_energy": 11.79 
		},
		"coords": [
			{
				"x": -3.321404484,
				"y": 5.533236204,
				"z": 3.1119456197,
				"element": "O" 
			},
			{
				"x": -3.642762484,
				"y": 4.4694330914,
				"z": 2.5845662157,
				"element": "N" 
			},
			{
				"x": -4.7939363134,
				"y": 4.0397502916,
				"z": 2.5037433971,
				"element": "O" 
			},
			{
				"x": -2.5757154487,
				"y": 3.645130262,
				"z": 2.007750204,
				"element": "C" 
			},
			{
				"x": -2.8979464916,
				"y": 2.4388252951,
				"z": 1.3822221827,
				"element": "C" 
			},
			{
				"x": -1.8801054172,
				"y": 1.676658848,
				"z": 0.8374944361,
				"element": "C" 
			},
			{
				"x": -0.5168642368,
				"y": 2.0625489666,
				"z": 0.8842344659,
				"element": "C" 
			},
			{
				"x": 0.5124556472,
				"y": 1.1924889387,
				"z": 0.3207176995,
				"element": "C" 
			},
			{
				"x": 0.3683839866,
				"y": -0.146293118,
				"z": 0.1711478604,
				"element": "C" 
			},
			{
				"x": 1.3418392423,
				"y": -1.0759103369,
				"z": -0.3926603801,
				"element": "C" 
			},
			{
				"x": 1.0336437609,
				"y": -2.4624097961,
				"z": -0.3516140041,
				"element": "C" 
			},
			{
				"x": 1.9520178862,
				"y": -3.3411818245,
				"z": -0.8788536717,
				"element": "C" 
			},
			{
				"x": 3.1504332322,
				"y": -2.9055752125,
				"z": -1.4424738666,
				"element": "C" 
			},
			{
				"x": 3.8676053069,
				"y": -3.9768785948,
				"z": -1.8960317432,
				"element": "O" 
			},
			{
				"x": 3.1067790229,
				"y": -5.1437954021,
				"z": -1.5464150137,
				"element": "C" 
			},
			{
				"x": 1.874193571,
				"y": -4.7091305034,
				"z": -0.9602176485,
				"element": "O" 
			},
			{
				"x": 3.4798817938,
				"y": -1.5622182221,
				"z": -1.5031968937,
				"element": "C" 
			},
			{
				"x": 2.5566921436,
				"y": -0.6554901287,
				"z": -0.9697920661,
				"element": "C" 
			},
			{
				"x": -0.2571358642,
				"y": 3.3078467766,
				"z": 1.5198427683,
				"element": "C" 
			},
			{
				"x": -1.2641514613,
				"y": 4.084022471,
				"z": 2.0883879406,
				"element": "C" 
			},
			{
				"x": 1.1007853868,
				"y": 3.8721220236,
				"z": 1.6558414393,
				"element": "N" 
			},
			{
				"x": 1.2991907563,
				"y": 4.6316491959,
				"z": 2.6019489768,
				"element": "O" 
			},
			{
				"x": 1.9510272922,
				"y": 3.5809216436,
				"z": 0.8131417603,
				"element": "O" 
			},
			{
				"x": -3.934024372,
				"y": 2.1297758375,
				"z": 1.3221008453,
				"element": "H" 
			},
			{
				"x": -2.1376589467,
				"y": 0.7587189929,
				"z": 0.3227852586,
				"element": "H" 
			},
			{
				"x": 1.4432610754,
				"y": 1.6691569386,
				"z": 0.0516801171,
				"element": "H" 
			},
			{
				"x": -0.5465009959,
				"y": -0.6189210725,
				"z": 0.524787788,
				"element": "H" 
			},
			{
				"x": 0.1057154489,
				"y": -2.8176890401,
				"z": 0.0835100009,
				"element": "H" 
			},
			{
				"x": 2.8984496289,
				"y": -5.7252208931,
				"z": -2.4510936895,
				"element": "H" 
			},
			{
				"x": 3.6711821835,
				"y": -5.7406905359,
				"z": -0.8189142479,
				"element": "H" 
			},
			{
				"x": 4.4114264302,
				"y": -1.2310611565,
				"z": -1.9473759191,
				"element": "H" 
			},
			{
				"x": 2.7922005478,
				"y": 0.4020294716,
				"z": -1.0110886326,
				"element": "H" 
			},
			{
				"x": -1.0235578279,
				"y": 5.0125505883,
				"z": 2.5872788002,
				"element": "H" 
			}
		],
		 "valence_orbital": [ 
			{
				"type": "occ",
				"energy": -0.29724,
				"method": "rhf"
			},
			{
				"type": "occ",
				"energy": -0.28962,
				"method": "rhf"
			},
			{
				"type": "occ",
				"energy": -0.28162,
				"method": "rhf"
			},
			{
				"type": "occ",
				"energy": -0.25556,
				"method": "rhf"
			},
			{
				"type": "occ",
				"energy": -0.21584,
				"method": "rhf"
			},
			{
				"type": "unocc",
				"energy": -0.11073,
				"method": "rhf"
			},
			{
				"type": "unocc",
				"energy": -0.09306,
				"method": "rhf"
			},
			{
				"type": "unocc",
				"energy": -0.05518,
				"method": "rhf"
			},
			{
				"type": "unocc",
				"energy": -0.02502,
				"method": "rhf"
			},
			{
				"type": "unocc",
				"energy": -0.01716,
				"method": "rhf"
			}
		],
		"cosmo_sigma_profile": { 
			"-0.025": 0.0,
			"-0.024": 0.0,
			"-0.023": 0.0,
			"-0.022": 0.0,
			"-0.021": 0.0,
			"-0.02": 0.0,
			"-0.019": 0.0,
			"-0.018": 0.0,
			"-0.017": 0.0,
			"-0.016": 0.0,
			"-0.015": 0.0,
			"-0.014": 0.0,
			"-0.013": 0.0,
			"-0.012": 0.0,
			"-0.011": 0.0,
			"-0.01": 0.0637645983339,
			"-0.009": 2.15194367463,
			"-0.008": 13.5298428812,
			"-0.007": 20.7910898026,
			"-0.006": 19.1816945575,
			"-0.005": 19.0929573224,
			"-0.004": 14.6941321846,
			"-0.003": 19.9179254391,
			"-0.002": 24.6551941636,
			"-0.001": 23.0291638767,
			"0.0": 22.9495551269,
			"0.001": 20.5899671583,
			"0.002": 21.4740649025,
			"0.003": 20.9642628472,
			"0.004": 12.4826746117,
			"0.005": 9.43915706875,
			"0.006": 10.0466988182,
			"0.007": 18.6166631296,
			"0.008": 14.98664523,
			"0.009": 10.8875531244,
			"0.01": 3.60309736815,
			"0.011": 0.00211022585176,
			"0.012": 0.0,
			"0.013": 0.0,
			"0.014": 0.0,
			"0.015": 0.0,
			"0.016": 0.0,
			"0.017": 0.0,
			"0.018": 0.0,
			"0.019": 0.0,
			"0.02": 0.0,
			"0.021": 0.0,
			"0.022": 0.0,
			"0.023": 0.0,
			"0.024": 0.0,
			"0.025": 0.0
		}
	}
}
