{
	 "smiles": "CC1=CC2=C(C=C1)N=CN=C2Cl", 
	 "Tm": 379.15, 
	 "num_atms": 19, 
	 "gaussian": { 
		 "optdone": 1, 
		 "sigma_profile": "yes", 
		 "theory": "DFT", 
		 "functional": "B3LYP", 
		 "basiset": "6-31G**", 
		 "properties": { 
			 "R2extent": 2887.2895, 
			 "electric_dipole_moment_norm": 3.64788954877, 
			 "electric_quadrupole_moment_norm": 6.10997701796, 
			 "total_energy": -916.884095645, 
			 "HOMO_LUMO_gap": 0.175, 
			 "cosmo_polarized_energy": -7.12, 
			 "cosmo_cavitation_energy": 24.83, 
			 "cosmo_dispersion_energy": -18.75, 
			 "cosmo_repulsion_energy": 1.47, 
			 "cosmo_total_nonelectrostatic_energy": 7.55, 
			 "SMD_solvation_energy": 1.11 
		},
		"coords": [
			{
				"x": 0.44012603,
				"y": -1.4707282816,
				"z": 2.7068425971,
				"element": "C" 
			},
			{
				"x": 0.3926988111,
				"y": -0.8227574747,
				"z": 1.3452708829,
				"element": "C" 
			},
			{
				"x": 1.1732020158,
				"y": 0.2748910082,
				"z": 1.0398121697,
				"element": "C" 
			},
			{
				"x": 1.1165873722,
				"y": 0.8713701275,
				"z": -0.2434852806,
				"element": "C" 
			},
			{
				"x": 0.2432814182,
				"y": 0.3368185338,
				"z": -1.2409453758,
				"element": "C" 
			},
			{
				"x": -0.5512982495,
				"y": -0.7906795053,
				"z": -0.910566929,
				"element": "C" 
			},
			{
				"x": -0.4739590656,
				"y": -1.3472909867,
				"z": 0.3438908387,
				"element": "C" 
			},
			{
				"x": 0.1540967524,
				"y": 0.8770286672,
				"z": -2.4912697322,
				"element": "N" 
			},
			{
				"x": 0.9153526262,
				"y": 1.9178913023,
				"z": -2.7318192705,
				"element": "C" 
			},
			{
				"x": 1.7846696024,
				"y": 2.5176696608,
				"z": -1.8696535843,
				"element": "N" 
			},
			{
				"x": 1.8679068256,
				"y": 2.0007351029,
				"z": -0.6780880717,
				"element": "C" 
			},
			{
				"x": 2.9913077871,
				"y": 2.7737511212,
				"z": 0.4401741008,
				"element": "Cl" 
			},
			{
				"x": 1.1465208635,
				"y": -0.962868551,
				"z": 3.3679843778,
				"element": "H" 
			},
			{
				"x": 0.741725521,
				"y": -2.5220494243,
				"z": 2.633548636,
				"element": "H" 
			},
			{
				"x": -0.5450611973,
				"y": -1.4529693262,
				"z": 3.187153778,
				"element": "H" 
			},
			{
				"x": 1.8417700757,
				"y": 0.694190676,
				"z": 1.783863587,
				"element": "H" 
			},
			{
				"x": -1.2100279154,
				"y": -1.1872586904,
				"z": -1.6757453612,
				"element": "H" 
			},
			{
				"x": -1.0879671137,
				"y": -2.2114788668,
				"z": 0.5855553824,
				"element": "H" 
			},
			{
				"x": 0.8608678402,
				"y": 2.3649349072,
				"z": -3.721622745,
				"element": "H" 
			}
		],
		 "valence_orbital": [ 
			{
				"type": "occ",
				"energy": -0.31065,
				"method": "rhf"
			},
			{
				"type": "occ",
				"energy": -0.30553,
				"method": "rhf"
			},
			{
				"type": "occ",
				"energy": -0.27664,
				"method": "rhf"
			},
			{
				"type": "occ",
				"energy": -0.26352,
				"method": "rhf"
			},
			{
				"type": "occ",
				"energy": -0.24754,
				"method": "rhf"
			},
			{
				"type": "unocc",
				"energy": -0.07254,
				"method": "rhf"
			},
			{
				"type": "unocc",
				"energy": -0.03982,
				"method": "rhf"
			},
			{
				"type": "unocc",
				"energy": 0.0073,
				"method": "rhf"
			},
			{
				"type": "unocc",
				"energy": 0.02773,
				"method": "rhf"
			},
			{
				"type": "unocc",
				"energy": 0.06282,
				"method": "rhf"
			}
		],
		"cosmo_sigma_profile": { 
			"-0.025": 0.0,
			"-0.024": 0.0,
			"-0.023": 0.0,
			"-0.022": 0.0,
			"-0.021": 0.0,
			"-0.02": 0.0,
			"-0.019": 0.0,
			"-0.018": 0.0,
			"-0.017": 0.0,
			"-0.016": 0.0,
			"-0.015": 0.0,
			"-0.014": 0.0,
			"-0.013": 0.0,
			"-0.012": 0.0,
			"-0.011": 0.0,
			"-0.01": 0.0,
			"-0.009": 0.0178428823884,
			"-0.008": 1.30926070934,
			"-0.007": 5.0515499063,
			"-0.006": 7.15571716029,
			"-0.005": 12.2323222661,
			"-0.004": 15.4029301254,
			"-0.003": 15.6563899173,
			"-0.002": 20.2153130597,
			"-0.001": 23.3185651219,
			"0.0": 20.1993987263,
			"0.001": 19.528621589,
			"0.002": 19.6159981334,
			"0.003": 12.270340534,
			"0.004": 7.07133729425,
			"0.005": 4.14479208139,
			"0.006": 3.6146117531,
			"0.007": 2.83973912516,
			"0.008": 1.95117652018,
			"0.009": 2.06212233161,
			"0.01": 2.14015087208,
			"0.011": 1.31949387632,
			"0.012": 2.01026593689,
			"0.013": 1.59588928269,
			"0.014": 0.961765260122,
			"0.015": 0.392516300724,
			"0.016": 0.0,
			"0.017": 0.0,
			"0.018": 0.0,
			"0.019": 0.0,
			"0.02": 0.0,
			"0.021": 0.0,
			"0.022": 0.0,
			"0.023": 0.0,
			"0.024": 0.0,
			"0.025": 0.0
		}
	}
}
