{
	 "smiles": "O=C1NC(=O)C2=C1C=CC=N2", 
	 "Tm": 515.15, 
	 "num_atms": 15, 
	 "gaussian": { 
		 "optdone": 1, 
		 "sigma_profile": "yes", 
		 "theory": "DFT", 
		 "functional": "B3LYP", 
		 "basiset": "6-31G**", 
		 "properties": { 
			 "R2extent": 1677.9728, 
			 "electric_dipole_moment_norm": 3.24147760134, 
			 "electric_quadrupole_moment_norm": 12.933518512, 
			 "total_energy": -529.119333238, 
			 "HOMO_LUMO_gap": 0.18185, 
			 "cosmo_polarized_energy": -14.85, 
			 "cosmo_cavitation_energy": 20.63, 
			 "cosmo_dispersion_energy": -15.45, 
			 "cosmo_repulsion_energy": 1.23, 
			 "cosmo_total_nonelectrostatic_energy": 6.41, 
			 "SMD_solvation_energy": 3.56 
		},
		"coords": [
			{
				"x": -2.3925965817,
				"y": -0.5733227196,
				"z": 1.3749128339,
				"element": "O" 
			},
			{
				"x": -1.3946197995,
				"y": -0.9955461578,
				"z": 0.8303879664,
				"element": "C" 
			},
			{
				"x": -1.1213686092,
				"y": -2.3346533187,
				"z": 0.5258267191,
				"element": "N" 
			},
			{
				"x": 0.1170402827,
				"y": -2.5384020713,
				"z": -0.1093031187,
				"element": "C" 
			},
			{
				"x": 0.5649208089,
				"y": -3.602780167,
				"z": -0.4648774113,
				"element": "O" 
			},
			{
				"x": 0.7028016559,
				"y": -1.1503440366,
				"z": -0.2210062875,
				"element": "C" 
			},
			{
				"x": -0.2004151558,
				"y": -0.2445796847,
				"z": 0.3383880224,
				"element": "C" 
			},
			{
				"x": 0.1070082683,
				"y": 1.1086348597,
				"z": 0.3591251761,
				"element": "C" 
			},
			{
				"x": 1.3369848182,
				"y": 1.4649330219,
				"z": -0.200629603,
				"element": "C" 
			},
			{
				"x": 2.1708724274,
				"y": 0.4723622107,
				"z": -0.7369662665,
				"element": "C" 
			},
			{
				"x": 1.8761227711,
				"y": -0.8383205189,
				"z": -0.7585142168,
				"element": "N" 
			},
			{
				"x": -1.7574522302,
				"y": -3.0896864875,
				"z": 0.7427236411,
				"element": "H" 
			},
			{
				"x": -0.5718838132,
				"y": 1.8400609352,
				"z": 0.7860455992,
				"element": "H" 
			},
			{
				"x": 1.6572827545,
				"y": 2.50143767,
				"z": -0.2264668123,
				"element": "H" 
			},
			{
				"x": 3.1281024025,
				"y": 0.7501064645,
				"z": -1.1725462421,
				"element": "H" 
			}
		],
		 "valence_orbital": [ 
			{
				"type": "occ",
				"energy": -0.3156,
				"method": "rhf"
			},
			{
				"type": "occ",
				"energy": -0.30198,
				"method": "rhf"
			},
			{
				"type": "occ",
				"energy": -0.28897,
				"method": "rhf"
			},
			{
				"type": "occ",
				"energy": -0.27705,
				"method": "rhf"
			},
			{
				"type": "occ",
				"energy": -0.27458,
				"method": "rhf"
			},
			{
				"type": "unocc",
				"energy": -0.09273,
				"method": "rhf"
			},
			{
				"type": "unocc",
				"energy": -0.06522,
				"method": "rhf"
			},
			{
				"type": "unocc",
				"energy": 0.01477,
				"method": "rhf"
			},
			{
				"type": "unocc",
				"energy": 0.06618,
				"method": "rhf"
			},
			{
				"type": "unocc",
				"energy": 0.08012,
				"method": "rhf"
			}
		],
		"cosmo_sigma_profile": { 
			"-0.025": 0.0,
			"-0.024": 0.0,
			"-0.023": 0.0,
			"-0.022": 0.0,
			"-0.021": 0.0,
			"-0.02": 0.0,
			"-0.019": 0.0,
			"-0.018": 0.0,
			"-0.017": 0.758972057523,
			"-0.016": 1.49089918139,
			"-0.015": 0.812411696093,
			"-0.014": 0.753805776957,
			"-0.013": 0.614476629262,
			"-0.012": 1.22132335287,
			"-0.011": 1.12973678075,
			"-0.01": 0.579053093272,
			"-0.009": 2.45406503477,
			"-0.008": 7.6781098364,
			"-0.007": 10.5418883099,
			"-0.006": 9.18268862598,
			"-0.005": 7.72088204415,
			"-0.004": 9.14942287624,
			"-0.003": 12.5015043759,
			"-0.002": 14.7225037227,
			"-0.001": 12.366807977,
			"0.0": 11.9322822369,
			"0.001": 5.07923802062,
			"0.002": 4.04905082669,
			"0.003": 3.12766264345,
			"0.004": 4.06100385594,
			"0.005": 2.98870995517,
			"0.006": 2.31426840767,
			"0.007": 3.65034828112,
			"0.008": 5.12204024158,
			"0.009": 5.69237512849,
			"0.01": 8.37674222423,
			"0.011": 10.7899773931,
			"0.012": 3.97527247497,
			"0.013": 1.06902546689,
			"0.014": 0.951738927361,
			"0.015": 0.233261360652,
			"0.016": 0.0,
			"0.017": 0.0,
			"0.018": 0.0,
			"0.019": 0.0,
			"0.02": 0.0,
			"0.021": 0.0,
			"0.022": 0.0,
			"0.023": 0.0,
			"0.024": 0.0,
			"0.025": 0.0
		}
	}
}
