{
	 "smiles": "OC(=O)C1=CC=C(C=C1)S(=O)(=O)C(F)(F)F", 
	 "Tm": 518.15, 
	 "num_atms": 21, 
	 "gaussian": { 
		 "optdone": 1, 
		 "sigma_profile": "yes", 
		 "theory": "DFT", 
		 "functional": "B3LYP", 
		 "basiset": "6-31G**", 
		 "properties": { 
			 "R2extent": 5600.6672, 
			 "electric_dipole_moment_norm": 3.42837382151, 
			 "electric_quadrupole_moment_norm": 18.1850767851, 
			 "total_energy": -1306.38590665, 
			 "HOMO_LUMO_gap": 0.19842, 
			 "cosmo_polarized_energy": -18.84, 
			 "cosmo_cavitation_energy": 29.58, 
			 "cosmo_dispersion_energy": -21.14, 
			 "cosmo_repulsion_energy": 1.54, 
			 "cosmo_total_nonelectrostatic_energy": 9.97, 
			 "SMD_solvation_energy": 6.71 
		},
		"coords": [
			{
				"x": 0.3946436967,
				"y": -3.5627754111,
				"z": 2.8417493987,
				"element": "O" 
			},
			{
				"x": 1.5896405471,
				"y": -3.0047661679,
				"z": 2.5247660756,
				"element": "C" 
			},
			{
				"x": 2.6120879433,
				"y": -3.440043172,
				"z": 2.9954852336,
				"element": "O" 
			},
			{
				"x": 1.5654914299,
				"y": -1.839145704,
				"z": 1.5720140519,
				"element": "C" 
			},
			{
				"x": 2.6746160357,
				"y": -0.9817260466,
				"z": 1.5786037494,
				"element": "C" 
			},
			{
				"x": 2.7218043152,
				"y": 0.1122660495,
				"z": 0.7205059797,
				"element": "C" 
			},
			{
				"x": 1.653368703,
				"y": 0.3251365,
				"z": -0.1550449165,
				"element": "C" 
			},
			{
				"x": 0.5528185127,
				"y": -0.531371215,
				"z": -0.2019073906,
				"element": "C" 
			},
			{
				"x": 0.5147628008,
				"y": -1.6176744413,
				"z": 0.6701492527,
				"element": "C" 
			},
			{
				"x": 1.7070486466,
				"y": 1.7258493633,
				"z": -1.2749540611,
				"element": "S" 
			},
			{
				"x": 0.7835582661,
				"y": 1.482938132,
				"z": -2.3855438453,
				"element": "O" 
			},
			{
				"x": 3.1009365714,
				"y": 2.1278929238,
				"z": -1.4725132206,
				"element": "O" 
			},
			{
				"x": 0.9202180408,
				"y": 3.0768302347,
				"z": -0.2329953221,
				"element": "C" 
			},
			{
				"x": -0.3203447587,
				"y": 2.7149097665,
				"z": 0.1080521278,
				"element": "F" 
			},
			{
				"x": 1.6429449794,
				"y": 3.2680873075,
				"z": 0.8743477033,
				"element": "F" 
			},
			{
				"x": 0.8811988985,
				"y": 4.1989624134,
				"z": -0.9440136639,
				"element": "F" 
			},
			{
				"x": -0.3361147153,
				"y": -3.0120843435,
				"z": 2.5283630596,
				"element": "H" 
			},
			{
				"x": 3.4900320388,
				"y": -1.1945840738,
				"z": 2.2608981336,
				"element": "H" 
			},
			{
				"x": 3.5749311763,
				"y": 0.7814904357,
				"z": 0.7091409824,
				"element": "H" 
			},
			{
				"x": -0.2394845393,
				"y": -0.3584869151,
				"z": -0.9216258963,
				"element": "H" 
			},
			{
				"x": -0.3211585891,
				"y": -2.3092056362,
				"z": 0.6071225679,
				"element": "H" 
			}
		],
		 "valence_orbital": [ 
			{
				"type": "occ",
				"energy": -0.33395,
				"method": "rhf"
			},
			{
				"type": "occ",
				"energy": -0.31977,
				"method": "rhf"
			},
			{
				"type": "occ",
				"energy": -0.31004,
				"method": "rhf"
			},
			{
				"type": "occ",
				"energy": -0.30407,
				"method": "rhf"
			},
			{
				"type": "occ",
				"energy": -0.29313,
				"method": "rhf"
			},
			{
				"type": "unocc",
				"energy": -0.09471,
				"method": "rhf"
			},
			{
				"type": "unocc",
				"energy": -0.05455,
				"method": "rhf"
			},
			{
				"type": "unocc",
				"energy": 0.00027,
				"method": "rhf"
			},
			{
				"type": "unocc",
				"energy": 0.026,
				"method": "rhf"
			},
			{
				"type": "unocc",
				"energy": 0.04178,
				"method": "rhf"
			}
		],
		"cosmo_sigma_profile": { 
			"-0.025": 0.0,
			"-0.024": 0.0,
			"-0.023": 0.0,
			"-0.022": 0.0,
			"-0.021": 0.0,
			"-0.02": 0.25768461528,
			"-0.019": 0.813849065823,
			"-0.018": 0.815646898824,
			"-0.017": 1.38946214997,
			"-0.016": 1.02117216799,
			"-0.015": 1.1542642482,
			"-0.014": 1.25723982419,
			"-0.013": 1.17888301852,
			"-0.012": 1.12831222626,
			"-0.011": 1.53471519103,
			"-0.01": 1.02552319239,
			"-0.009": 4.09806920963,
			"-0.008": 6.78498096598,
			"-0.007": 6.72505445439,
			"-0.006": 7.4717589214,
			"-0.005": 9.75082959647,
			"-0.004": 9.61445384344,
			"-0.003": 11.4634896848,
			"-0.002": 16.9845572212,
			"-0.001": 27.2947927605,
			"0.0": 35.2080196575,
			"0.001": 22.7939111296,
			"0.002": 4.535649881,
			"0.003": 4.78004856113,
			"0.004": 4.99142397535,
			"0.005": 4.11471582428,
			"0.006": 5.77186804569,
			"0.007": 5.33907802937,
			"0.008": 8.98529945132,
			"0.009": 13.2039816663,
			"0.01": 9.48634634072,
			"0.011": 5.06732922834,
			"0.012": 2.19240254545,
			"0.013": 0.200657767666,
			"0.014": 0.0,
			"0.015": 0.0,
			"0.016": 0.0,
			"0.017": 0.0,
			"0.018": 0.0,
			"0.019": 0.0,
			"0.02": 0.0,
			"0.021": 0.0,
			"0.022": 0.0,
			"0.023": 0.0,
			"0.024": 0.0,
			"0.025": 0.0
		}
	}
}
