{
	 "smiles": "NC1=NN=C(CC2=CSC=C2)O1", 
	 "Tm": 425.15, 
	 "num_atms": 19, 
	 "gaussian": { 
		 "optdone": 1, 
		 "sigma_profile": "yes", 
		 "theory": "DFT", 
		 "functional": "B3LYP", 
		 "basiset": "6-31G**", 
		 "properties": { 
			 "R2extent": 3654.5562, 
			 "electric_dipole_moment_norm": 4.16368733937, 
			 "electric_quadrupole_moment_norm": 12.0018747044, 
			 "total_energy": -908.584771828, 
			 "HOMO_LUMO_gap": 0.21689, 
			 "cosmo_polarized_energy": -17.45, 
			 "cosmo_cavitation_energy": 25.87, 
			 "cosmo_dispersion_energy": -19.47, 
			 "cosmo_repulsion_energy": 1.53, 
			 "cosmo_total_nonelectrostatic_energy": 7.94, 
			 "SMD_solvation_energy": 2.92 
		},
		"coords": [
			{
				"x": -0.7988921459,
				"y": -1.2429665807,
				"z": -2.1527411805,
				"element": "N" 
			},
			{
				"x": 0.2726763335,
				"y": -0.4256850511,
				"z": -1.9092315313,
				"element": "C" 
			},
			{
				"x": 0.7384344136,
				"y": 0.5406536736,
				"z": -2.6406673403,
				"element": "N" 
			},
			{
				"x": 1.7790580252,
				"y": 1.1089814007,
				"z": -1.8852783773,
				"element": "N" 
			},
			{
				"x": 1.861068192,
				"y": 0.439285384,
				"z": -0.7874523723,
				"element": "C" 
			},
			{
				"x": 2.8041888507,
				"y": 0.6174593992,
				"z": 0.3560736925,
				"element": "C" 
			},
			{
				"x": 2.1350907268,
				"y": 1.0402683855,
				"z": 1.6487044974,
				"element": "C" 
			},
			{
				"x": 2.2533212732,
				"y": 2.2906550111,
				"z": 2.1953288885,
				"element": "C" 
			},
			{
				"x": 1.3655682935,
				"y": 2.4408038581,
				"z": 3.67631008,
				"element": "S" 
			},
			{
				"x": 0.8209843644,
				"y": 0.7975552645,
				"z": 3.5653437646,
				"element": "C" 
			},
			{
				"x": 1.3051904309,
				"y": 0.183284187,
				"z": 2.4457066178,
				"element": "C" 
			},
			{
				"x": 0.9213794087,
				"y": -0.572640929,
				"z": -0.7228624082,
				"element": "O" 
			},
			{
				"x": -1.1050267938,
				"y": -1.212154315,
				"z": -3.115564097,
				"element": "H" 
			},
			{
				"x": -0.7269178451,
				"y": -2.1773629275,
				"z": -1.7741196662,
				"element": "H" 
			},
			{
				"x": 3.5296237064,
				"y": 1.3702122701,
				"z": 0.0397925959,
				"element": "H" 
			},
			{
				"x": 3.3543277038,
				"y": -0.3199739984,
				"z": 0.5126890967,
				"element": "H" 
			},
			{
				"x": 2.8097350654,
				"y": 3.13340061,
				"z": 1.8082520644,
				"element": "H" 
			},
			{
				"x": 0.1795818465,
				"y": 0.3856828701,
				"z": 4.3319299769,
				"element": "H" 
			},
			{
				"x": 1.0810081503,
				"y": -0.8445585122,
				"z": 2.1835856985,
				"element": "H" 
			}
		],
		 "valence_orbital": [ 
			{
				"type": "occ",
				"energy": -0.30973,
				"method": "rhf"
			},
			{
				"type": "occ",
				"energy": -0.26823,
				"method": "rhf"
			},
			{
				"type": "occ",
				"energy": -0.25016,
				"method": "rhf"
			},
			{
				"type": "occ",
				"energy": -0.23822,
				"method": "rhf"
			},
			{
				"type": "occ",
				"energy": -0.23076,
				"method": "rhf"
			},
			{
				"type": "unocc",
				"energy": -0.01387,
				"method": "rhf"
			},
			{
				"type": "unocc",
				"energy": 0.00863,
				"method": "rhf"
			},
			{
				"type": "unocc",
				"energy": 0.03109,
				"method": "rhf"
			},
			{
				"type": "unocc",
				"energy": 0.0511,
				"method": "rhf"
			},
			{
				"type": "unocc",
				"energy": 0.06391,
				"method": "rhf"
			}
		],
		"cosmo_sigma_profile": { 
			"-0.025": 0.0,
			"-0.024": 0.0,
			"-0.023": 0.0,
			"-0.022": 0.0,
			"-0.021": 0.0,
			"-0.02": 0.0,
			"-0.019": 0.0,
			"-0.018": 0.0,
			"-0.017": 0.0,
			"-0.016": 0.111395091726,
			"-0.015": 1.80577619059,
			"-0.014": 2.92454164158,
			"-0.013": 2.00788108175,
			"-0.012": 3.17347336582,
			"-0.011": 2.23018808237,
			"-0.01": 1.64603972826,
			"-0.009": 1.75650399335,
			"-0.008": 6.19416447774,
			"-0.007": 9.99562803383,
			"-0.006": 10.8142668021,
			"-0.005": 11.8860425975,
			"-0.004": 11.7550349306,
			"-0.003": 12.9609366656,
			"-0.002": 9.92691786617,
			"-0.001": 9.81320536712,
			"0.0": 9.72087478665,
			"0.001": 11.3355859636,
			"0.002": 13.7955712765,
			"0.003": 15.3487567585,
			"0.004": 18.5679206139,
			"0.005": 11.3182687721,
			"0.006": 3.87579940257,
			"0.007": 1.89743392149,
			"0.008": 1.69254311929,
			"0.009": 2.86863145273,
			"0.01": 3.16416156267,
			"0.011": 2.75021918543,
			"0.012": 3.14276871823,
			"0.013": 3.70384111889,
			"0.014": 2.65250529611,
			"0.015": 2.74369391061,
			"0.016": 1.60426224551,
			"0.017": 0.173101034109,
			"0.018": 0.0,
			"0.019": 0.0,
			"0.02": 0.0,
			"0.021": 0.0,
			"0.022": 0.0,
			"0.023": 0.0,
			"0.024": 0.0,
			"0.025": 0.0
		}
	}
}
