{
	 "smiles": "COC1=CC2=C(C=C1)C(C)=CC(S)=N2", 
	 "Tm": 507.15, 
	 "num_atms": 25, 
	 "gaussian": { 
		 "optdone": 1, 
		 "sigma_profile": "yes", 
		 "theory": "DFT", 
		 "functional": "B3LYP", 
		 "basiset": "6-31G**", 
		 "properties": { 
			 "R2extent": 3920.7369, 
			 "electric_dipole_moment_norm": 1.73295195548, 
			 "electric_quadrupole_moment_norm": 16.3135083207, 
			 "total_energy": -953.96955132, 
			 "HOMO_LUMO_gap": 0.17083, 
			 "cosmo_polarized_energy": -8.92, 
			 "cosmo_cavitation_energy": 30.2, 
			 "cosmo_dispersion_energy": -22.86, 
			 "cosmo_repulsion_energy": 1.73, 
			 "cosmo_total_nonelectrostatic_energy": 9.07, 
			 "SMD_solvation_energy": 3.88 
		},
		"coords": [
			{
				"x": -0.5490239821,
				"y": -2.7391293704,
				"z": 3.7863403201,
				"element": "C" 
			},
			{
				"x": -1.2821149697,
				"y": -2.6923090421,
				"z": 2.5705722135,
				"element": "O" 
			},
			{
				"x": -0.8122068701,
				"y": -1.8960738842,
				"z": 1.5717101485,
				"element": "C" 
			},
			{
				"x": 0.3306020642,
				"y": -1.1216695748,
				"z": 1.6437882751,
				"element": "C" 
			},
			{
				"x": 0.7241741661,
				"y": -0.3285190073,
				"z": 0.5352840698,
				"element": "C" 
			},
			{
				"x": -0.0617981181,
				"y": -0.3294703016,
				"z": -0.6590077546,
				"element": "C" 
			},
			{
				"x": -1.229158648,
				"y": -1.1391575915,
				"z": -0.6925751934,
				"element": "C" 
			},
			{
				"x": -1.598248142,
				"y": -1.9019305298,
				"z": 0.3879555814,
				"element": "C" 
			},
			{
				"x": 0.3733422861,
				"y": 0.4850846949,
				"z": -1.7504181965,
				"element": "C" 
			},
			{
				"x": -0.3998346659,
				"y": 0.5390004733,
				"z": -3.0433647302,
				"element": "C" 
			},
			{
				"x": 1.5247702495,
				"y": 1.2232764325,
				"z": -1.5871242902,
				"element": "C" 
			},
			{
				"x": 2.2309642959,
				"y": 1.151047131,
				"z": -0.3566102557,
				"element": "C" 
			},
			{
				"x": 3.7190692799,
				"y": 2.1340294537,
				"z": -0.2075945289,
				"element": "S" 
			},
			{
				"x": 1.8636610369,
				"y": 0.4157123865,
				"z": 0.6674240677,
				"element": "N" 
			},
			{
				"x": -0.4950843186,
				"y": -1.7514388594,
				"z": 4.2610917265,
				"element": "H" 
			},
			{
				"x": 0.4692195779,
				"y": -3.1154769924,
				"z": 3.6270645794,
				"element": "H" 
			},
			{
				"x": -1.0906263729,
				"y": -3.4253280387,
				"z": 4.4388986149,
				"element": "H" 
			},
			{
				"x": 0.9601101152,
				"y": -1.0853516386,
				"z": 2.5235047771,
				"element": "H" 
			},
			{
				"x": -1.84257533,
				"y": -1.1571544967,
				"z": -1.5875240974,
				"element": "H" 
			},
			{
				"x": -2.4881635732,
				"y": -2.5221708514,
				"z": 0.3688003942,
				"element": "H" 
			},
			{
				"x": 0.08032013,
				"y": 1.210360247,
				"z": -3.7590399171,
				"element": "H" 
			},
			{
				"x": -0.4723482372,
				"y": -0.4520613518,
				"z": -3.505468782,
				"element": "H" 
			},
			{
				"x": -1.4235840507,
				"y": 0.8945445089,
				"z": -2.8804736675,
				"element": "H" 
			},
			{
				"x": 1.8944928601,
				"y": 1.8564848932,
				"z": -2.3876629636,
				"element": "H" 
			},
			{
				"x": 3.9827412167,
				"y": 1.7360013096,
				"z": 1.051229609,
				"element": "H" 
			}
		],
		 "valence_orbital": [ 
			{
				"type": "occ",
				"energy": -0.29022,
				"method": "rhf"
			},
			{
				"type": "occ",
				"energy": -0.26596,
				"method": "rhf"
			},
			{
				"type": "occ",
				"energy": -0.25612,
				"method": "rhf"
			},
			{
				"type": "occ",
				"energy": -0.22167,
				"method": "rhf"
			},
			{
				"type": "occ",
				"energy": -0.21625,
				"method": "rhf"
			},
			{
				"type": "unocc",
				"energy": -0.04542,
				"method": "rhf"
			},
			{
				"type": "unocc",
				"energy": -0.00888,
				"method": "rhf"
			},
			{
				"type": "unocc",
				"energy": 0.02317,
				"method": "rhf"
			},
			{
				"type": "unocc",
				"energy": 0.02555,
				"method": "rhf"
			},
			{
				"type": "unocc",
				"energy": 0.08404,
				"method": "rhf"
			}
		],
		"cosmo_sigma_profile": { 
			"-0.025": 0.0,
			"-0.024": 0.0,
			"-0.023": 0.0,
			"-0.022": 0.0,
			"-0.021": 0.0,
			"-0.02": 0.0,
			"-0.019": 0.0,
			"-0.018": 0.0,
			"-0.017": 0.0,
			"-0.016": 0.0,
			"-0.015": 0.0,
			"-0.014": 0.0,
			"-0.013": 0.0,
			"-0.012": 0.0,
			"-0.011": 0.200039713989,
			"-0.01": 1.26413452822,
			"-0.009": 1.0738045339,
			"-0.008": 1.16400695634,
			"-0.007": 3.12639245808,
			"-0.006": 12.9812385664,
			"-0.005": 24.6059596805,
			"-0.004": 22.2549420141,
			"-0.003": 20.1483259309,
			"-0.002": 14.1608585051,
			"-0.001": 15.3556388975,
			"0.0": 14.0084922637,
			"0.001": 13.0711253372,
			"0.002": 23.0372277371,
			"0.003": 25.1009494763,
			"0.004": 19.2628265251,
			"0.005": 7.60942816397,
			"0.006": 6.32698977979,
			"0.007": 6.20633119557,
			"0.008": 4.59548132209,
			"0.009": 3.03613322499,
			"0.01": 2.27345289979,
			"0.011": 0.83217463073,
			"0.012": 0.842497593036,
			"0.013": 0.704454023617,
			"0.014": 0.0,
			"0.015": 0.0,
			"0.016": 0.0,
			"0.017": 0.0,
			"0.018": 0.0,
			"0.019": 0.0,
			"0.02": 0.0,
			"0.021": 0.0,
			"0.022": 0.0,
			"0.023": 0.0,
			"0.024": 0.0,
			"0.025": 0.0
		}
	}
}
