{
	 "smiles": "OC(=O)C1=CC(OC2CCCCC2)=NC=C1", 
	 "Tm": 397.15, 
	 "num_atms": 31, 
	 "gaussian": { 
		 "optdone": 1, 
		 "sigma_profile": "yes", 
		 "theory": "DFT", 
		 "functional": "B3LYP", 
		 "basiset": "6-31G**", 
		 "properties": { 
			 "R2extent": 4945.5484, 
			 "electric_dipole_moment_norm": 4.25560570307, 
			 "electric_quadrupole_moment_norm": 17.4325044704, 
			 "total_energy": -746.764362493, 
			 "HOMO_LUMO_gap": 0.17893, 
			 "cosmo_polarized_energy": -13.42, 
			 "cosmo_cavitation_energy": 33.3, 
			 "cosmo_dispersion_energy": -24.27, 
			 "cosmo_repulsion_energy": 1.91, 
			 "cosmo_total_nonelectrostatic_energy": 10.94, 
			 "SMD_solvation_energy": 5.56 
		},
		"coords": [
			{
				"x": 2.2258169831,
				"y": 3.4876952716,
				"z": -2.2970909728,
				"element": "O" 
			},
			{
				"x": 1.8589590383,
				"y": 2.3959278095,
				"z": -3.014783,
				"element": "C" 
			},
			{
				"x": 1.8139679607,
				"y": 2.4425483415,
				"z": -4.2201303343,
				"element": "O" 
			},
			{
				"x": 1.521427303,
				"y": 1.1564408505,
				"z": -2.2313018402,
				"element": "C" 
			},
			{
				"x": 1.1147859538,
				"y": 1.1935220336,
				"z": -0.9024585912,
				"element": "C" 
			},
			{
				"x": 0.8062664571,
				"y": -0.0262677696,
				"z": -0.2656405918,
				"element": "C" 
			},
			{
				"x": 0.422900516,
				"y": 0.0567946652,
				"z": 1.022519325,
				"element": "O" 
			},
			{
				"x": 0.0861983424,
				"y": -1.1641479956,
				"z": 1.7456802556,
				"element": "C" 
			},
			{
				"x": -1.3623099327,
				"y": -1.5723213909,
				"z": 1.4499089463,
				"element": "C" 
			},
			{
				"x": -2.376395595,
				"y": -0.5480932148,
				"z": 1.9825973987,
				"element": "C" 
			},
			{
				"x": -2.1616822823,
				"y": -0.2694259756,
				"z": 3.4787493776,
				"element": "C" 
			},
			{
				"x": -0.7183923461,
				"y": 0.1765069627,
				"z": 3.7609312976,
				"element": "C" 
			},
			{
				"x": 0.2993719904,
				"y": -0.8445055681,
				"z": 3.227098159,
				"element": "C" 
			},
			{
				"x": 0.8867710411,
				"y": -1.2064160435,
				"z": -0.8726856825,
				"element": "N" 
			},
			{
				"x": 1.274455965,
				"y": -1.2213333425,
				"z": -2.1598778697,
				"element": "C" 
			},
			{
				"x": 1.5926303206,
				"y": -0.0838071945,
				"z": -2.8865629071,
				"element": "C" 
			},
			{
				"x": 2.3522780059,
				"y": 3.2499596405,
				"z": -1.3676682514,
				"element": "H" 
			},
			{
				"x": 0.9857470751,
				"y": 2.1151206002,
				"z": -0.3436404123,
				"element": "H" 
			},
			{
				"x": 0.7709855705,
				"y": -1.9480035487,
				"z": 1.4123167249,
				"element": "H" 
			},
			{
				"x": -1.4818858,
				"y": -1.7301225425,
				"z": 0.3738288215,
				"element": "H" 
			},
			{
				"x": -1.5321658892,
				"y": -2.5455705128,
				"z": 1.9309031214,
				"element": "H" 
			},
			{
				"x": -2.2710049939,
				"y": 0.3886238882,
				"z": 1.4207384632,
				"element": "H" 
			},
			{
				"x": -3.3957222447,
				"y": -0.908596329,
				"z": 1.8023408482,
				"element": "H" 
			},
			{
				"x": -2.8685084134,
				"y": 0.4922828625,
				"z": 3.8284752811,
				"element": "H" 
			},
			{
				"x": -2.3782845932,
				"y": -1.1825795257,
				"z": 4.0521875365,
				"element": "H" 
			},
			{
				"x": -0.5656216638,
				"y": 0.3232401274,
				"z": 4.8364827012,
				"element": "H" 
			},
			{
				"x": -0.5367193281,
				"y": 1.146175304,
				"z": 3.2812124422,
				"element": "H" 
			},
			{
				"x": 1.324911241,
				"y": -0.4894016817,
				"z": 3.377064388,
				"element": "H" 
			},
			{
				"x": 0.2030555051,
				"y": -1.7869783596,
				"z": 3.7826038925,
				"element": "H" 
			},
			{
				"x": 1.3254908919,
				"y": -2.2037518436,
				"z": -2.6244815772,
				"element": "H" 
			},
			{
				"x": 1.8874729216,
				"y": -0.1305155186,
				"z": -3.9276169497,
				"element": "H" 
			}
		],
		 "valence_orbital": [ 
			{
				"type": "occ",
				"energy": -0.30458,
				"method": "rhf"
			},
			{
				"type": "occ",
				"energy": -0.29996,
				"method": "rhf"
			},
			{
				"type": "occ",
				"energy": -0.28387,
				"method": "rhf"
			},
			{
				"type": "occ",
				"energy": -0.27473,
				"method": "rhf"
			},
			{
				"type": "occ",
				"energy": -0.2438,
				"method": "rhf"
			},
			{
				"type": "unocc",
				"energy": -0.06487,
				"method": "rhf"
			},
			{
				"type": "unocc",
				"energy": -0.01672,
				"method": "rhf"
			},
			{
				"type": "unocc",
				"energy": 0.04129,
				"method": "rhf"
			},
			{
				"type": "unocc",
				"energy": 0.06106,
				"method": "rhf"
			},
			{
				"type": "unocc",
				"energy": 0.07978,
				"method": "rhf"
			}
		],
		"cosmo_sigma_profile": { 
			"-0.025": 0.0,
			"-0.024": 0.0,
			"-0.023": 0.0,
			"-0.022": 0.0,
			"-0.021": 0.0,
			"-0.02": 0.0,
			"-0.019": 0.503591029569,
			"-0.018": 0.852295089118,
			"-0.017": 0.823430518274,
			"-0.016": 1.1695484221,
			"-0.015": 1.15754239806,
			"-0.014": 1.09303863038,
			"-0.013": 0.752565689532,
			"-0.012": 1.39083022956,
			"-0.011": 1.55928774318,
			"-0.01": 1.18652851759,
			"-0.009": 1.18454953898,
			"-0.008": 1.61245846548,
			"-0.007": 4.01172575077,
			"-0.006": 5.89395706246,
			"-0.005": 5.47826347186,
			"-0.004": 10.0576061914,
			"-0.003": 20.1297453484,
			"-0.002": 28.2364677564,
			"-0.001": 33.2083337615,
			"0.0": 42.7972833504,
			"0.001": 30.3859412081,
			"0.002": 13.5001752842,
			"0.003": 6.98446274167,
			"0.004": 6.41826829895,
			"0.005": 5.63067972765,
			"0.006": 5.78275298309,
			"0.007": 4.7904309543,
			"0.008": 4.88283003748,
			"0.009": 4.8706829578,
			"0.01": 5.73748430955,
			"0.011": 6.14065674918,
			"0.012": 3.10814426791,
			"0.013": 0.520812797199,
			"0.014": 0.0,
			"0.015": 0.0,
			"0.016": 0.0,
			"0.017": 0.0,
			"0.018": 0.0,
			"0.019": 0.0,
			"0.02": 0.0,
			"0.021": 0.0,
			"0.022": 0.0,
			"0.023": 0.0,
			"0.024": 0.0,
			"0.025": 0.0
		}
	}
}
