{
	 "smiles": "CC(Cl)C(=O)NC1=C(Cl)C=C(C)C=C1C", 
	 "Tm": 431.15, 
	 "num_atms": 28, 
	 "gaussian": { 
		 "optdone": 1, 
		 "sigma_profile": "yes", 
		 "theory": "DFT", 
		 "functional": "B3LYP", 
		 "basiset": "6-31G**", 
		 "properties": { 
			 "R2extent": 5314.8213, 
			 "electric_dipole_moment_norm": 2.02040572658, 
			 "electric_quadrupole_moment_norm": 10.0796989553, 
			 "total_energy": -1477.40479169, 
			 "HOMO_LUMO_gap": 0.21465, 
			 "cosmo_polarized_energy": -9.25, 
			 "cosmo_cavitation_energy": 34.47, 
			 "cosmo_dispersion_energy": -24.17, 
			 "cosmo_repulsion_energy": 1.9, 
			 "cosmo_total_nonelectrostatic_energy": 12.21, 
			 "SMD_solvation_energy": 5.92 
		},
		"coords": [
			{
				"x": 4.436206991,
				"y": 2.5975042283,
				"z": -1.0482562993,
				"element": "C" 
			},
			{
				"x": 3.1282570671,
				"y": 2.8482726064,
				"z": -0.3027424029,
				"element": "C" 
			},
			{
				"x": 2.1780574239,
				"y": 4.1783723105,
				"z": -1.1390650258,
				"element": "Cl" 
			},
			{
				"x": 2.3500840279,
				"y": 1.5348690631,
				"z": -0.1004279641,
				"element": "C" 
			},
			{
				"x": 2.8974008755,
				"y": 0.6610228465,
				"z": 0.557533763,
				"element": "O" 
			},
			{
				"x": 1.1249666441,
				"y": 1.4207054106,
				"z": -0.6918238315,
				"element": "N" 
			},
			{
				"x": 0.2505985982,
				"y": 0.315501528,
				"z": -0.5175723929,
				"element": "C" 
			},
			{
				"x": -1.0339575144,
				"y": 0.5267065838,
				"z": 0.0078434022,
				"element": "C" 
			},
			{
				"x": -1.5295590827,
				"y": 2.1529130541,
				"z": 0.4694477423,
				"element": "Cl" 
			},
			{
				"x": -1.9435830368,
				"y": -0.5124790577,
				"z": 0.1699636916,
				"element": "C" 
			},
			{
				"x": -1.5818615472,
				"y": -1.8148041144,
				"z": -0.1862917355,
				"element": "C" 
			},
			{
				"x": -2.5370794143,
				"y": -2.9655187494,
				"z": 0.0242864275,
				"element": "C" 
			},
			{
				"x": -0.3101119607,
				"y": -2.0222719013,
				"z": -0.7289971259,
				"element": "C" 
			},
			{
				"x": 0.6121358511,
				"y": -0.9876291013,
				"z": -0.9174745057,
				"element": "C" 
			},
			{
				"x": 1.944219949,
				"y": -1.2725999913,
				"z": -1.5620854099,
				"element": "C" 
			},
			{
				"x": 4.2439288683,
				"y": 2.2659290955,
				"z": -2.0722999882,
				"element": "H" 
			},
			{
				"x": 5.0408624171,
				"y": 3.5061640896,
				"z": -1.0811036995,
				"element": "H" 
			},
			{
				"x": 4.9869616745,
				"y": 1.8153210624,
				"z": -0.5198364576,
				"element": "H" 
			},
			{
				"x": 3.3271130102,
				"y": 3.2406842275,
				"z": 0.6959543068,
				"element": "H" 
			},
			{
				"x": 0.7183570268,
				"y": 2.2778685859,
				"z": -1.0468480872,
				"element": "H" 
			},
			{
				"x": -2.9256434145,
				"y": -0.3010182114,
				"z": 0.579394262,
				"element": "H" 
			},
			{
				"x": -2.3951499375,
				"y": -3.4184268574,
				"z": 1.0133133509,
				"element": "H" 
			},
			{
				"x": -2.3821290594,
				"y": -3.7527974466,
				"z": -0.7193233525,
				"element": "H" 
			},
			{
				"x": -3.5791484533,
				"y": -2.638840251,
				"z": -0.0382564175,
				"element": "H" 
			},
			{
				"x": -0.0262764745,
				"y": -3.0256237527,
				"z": -1.036862929,
				"element": "H" 
			},
			{
				"x": 1.9362290892,
				"y": -2.2542661529,
				"z": -2.0422167776,
				"element": "H" 
			},
			{
				"x": 2.7475069747,
				"y": -1.2443975755,
				"z": -0.8202978773,
				"element": "H" 
			},
			{
				"x": 2.1822134065,
				"y": -0.5203615295,
				"z": -2.3217546665,
				"element": "H" 
			}
		],
		 "valence_orbital": [ 
			{
				"type": "occ",
				"energy": -0.30938,
				"method": "rhf"
			},
			{
				"type": "occ",
				"energy": -0.291,
				"method": "rhf"
			},
			{
				"type": "occ",
				"energy": -0.26391,
				"method": "rhf"
			},
			{
				"type": "occ",
				"energy": -0.24646,
				"method": "rhf"
			},
			{
				"type": "occ",
				"energy": -0.23562,
				"method": "rhf"
			},
			{
				"type": "unocc",
				"energy": -0.02097,
				"method": "rhf"
			},
			{
				"type": "unocc",
				"energy": -0.01143,
				"method": "rhf"
			},
			{
				"type": "unocc",
				"energy": 0.01141,
				"method": "rhf"
			},
			{
				"type": "unocc",
				"energy": 0.01724,
				"method": "rhf"
			},
			{
				"type": "unocc",
				"energy": 0.02598,
				"method": "rhf"
			}
		],
		"cosmo_sigma_profile": { 
			"-0.025": 0.0,
			"-0.024": 0.0,
			"-0.023": 0.0,
			"-0.022": 0.0,
			"-0.021": 0.0,
			"-0.02": 0.0,
			"-0.019": 0.0,
			"-0.018": 0.0,
			"-0.017": 0.0,
			"-0.016": 0.0,
			"-0.015": 0.0,
			"-0.014": 0.0,
			"-0.013": 0.0,
			"-0.012": 0.0595327182797,
			"-0.011": 0.424695355878,
			"-0.01": 0.665751644888,
			"-0.009": 1.50199232168,
			"-0.008": 2.99536334422,
			"-0.007": 3.92778900636,
			"-0.006": 6.04264403278,
			"-0.005": 16.6733940883,
			"-0.004": 23.1997354071,
			"-0.003": 21.8954022284,
			"-0.002": 26.1991185655,
			"-0.001": 31.598374496,
			"0.0": 29.2111683103,
			"0.001": 21.4841266719,
			"0.002": 19.5825504527,
			"0.003": 20.6582757531,
			"0.004": 20.5227087226,
			"0.005": 11.9163279497,
			"0.006": 4.52321732985,
			"0.007": 1.57533153677,
			"0.008": 2.04303863726,
			"0.009": 1.15472735818,
			"0.01": 1.74638205341,
			"0.011": 2.33110494383,
			"0.012": 3.09514873169,
			"0.013": 2.08597039099,
			"0.014": 0.0423570933043,
			"0.015": 0.0,
			"0.016": 0.0,
			"0.017": 0.0,
			"0.018": 0.0,
			"0.019": 0.0,
			"0.02": 0.0,
			"0.021": 0.0,
			"0.022": 0.0,
			"0.023": 0.0,
			"0.024": 0.0,
			"0.025": 0.0
		}
	}
}
