{
	 "smiles": "S=C=NC1=CC=C(C=C1)C#N", 
	 "Tm": 393.15, 
	 "num_atms": 15, 
	 "gaussian": { 
		 "optdone": 1, 
		 "sigma_profile": "yes", 
		 "theory": "DFT", 
		 "functional": "B3LYP", 
		 "basiset": "6-31G**", 
		 "properties": { 
			 "R2extent": 3986.6176, 
			 "electric_dipole_moment_norm": 1.36567076926, 
			 "electric_quadrupole_moment_norm": 25.1889228537, 
			 "total_energy": -814.928181957, 
			 "HOMO_LUMO_gap": 0.16466, 
			 "cosmo_polarized_energy": -10.33, 
			 "cosmo_cavitation_energy": 24.38, 
			 "cosmo_dispersion_energy": -17.56, 
			 "cosmo_repulsion_energy": 1.38, 
			 "cosmo_total_nonelectrostatic_energy": 8.21, 
			 "SMD_solvation_energy": 6.25 
		},
		"coords": [
			{
				"x": 3.4134580737,
				"y": -4.9689931079,
				"z": 0.7865244554,
				"element": "S" 
			},
			{
				"x": 2.4505908347,
				"y": -3.7050317178,
				"z": 0.8238335194,
				"element": "C" 
			},
			{
				"x": 1.730361459,
				"y": -2.7596839135,
				"z": 0.8517397254,
				"element": "N" 
			},
			{
				"x": 0.9035017153,
				"y": -1.6712304605,
				"z": 0.8838384691,
				"element": "C" 
			},
			{
				"x": 0.4654419533,
				"y": -1.0876143415,
				"z": -0.3187823252,
				"element": "C" 
			},
			{
				"x": -0.3738344307,
				"y": 0.0170818577,
				"z": -0.2830169747,
				"element": "C" 
			},
			{
				"x": -0.7868997287,
				"y": 0.5537637307,
				"z": 0.9494079107,
				"element": "C" 
			},
			{
				"x": -0.3459752461,
				"y": -0.0334171831,
				"z": 2.14870793,
				"element": "C" 
			},
			{
				"x": 0.493377551,
				"y": -1.138249123,
				"z": 2.1193636184,
				"element": "C" 
			},
			{
				"x": -1.6531793967,
				"y": 1.6943556574,
				"z": 0.9829936951,
				"element": "C" 
			},
			{
				"x": -2.3566551611,
				"y": 2.6205663499,
				"z": 1.0102557143,
				"element": "N" 
			},
			{
				"x": 0.7895115442,
				"y": -1.5084672115,
				"z": -1.2639271412,
				"element": "H" 
			},
			{
				"x": -0.7146113456,
				"y": 0.4711216561,
				"z": -1.2071101894,
				"element": "H" 
			},
			{
				"x": -0.6652887319,
				"y": 0.3817101049,
				"z": 3.0984119588,
				"element": "H" 
			},
			{
				"x": 0.8388009096,
				"y": -1.5978122978,
				"z": 3.0385596339,
				"element": "H" 
			}
		],
		 "valence_orbital": [ 
			{
				"type": "occ",
				"energy": -0.3414,
				"method": "rhf"
			},
			{
				"type": "occ",
				"energy": -0.30353,
				"method": "rhf"
			},
			{
				"type": "occ",
				"energy": -0.2966,
				"method": "rhf"
			},
			{
				"type": "occ",
				"energy": -0.26775,
				"method": "rhf"
			},
			{
				"type": "occ",
				"energy": -0.24859,
				"method": "rhf"
			},
			{
				"type": "unocc",
				"energy": -0.08393,
				"method": "rhf"
			},
			{
				"type": "unocc",
				"energy": -0.04358,
				"method": "rhf"
			},
			{
				"type": "unocc",
				"energy": -0.01203,
				"method": "rhf"
			},
			{
				"type": "unocc",
				"energy": 0.00463,
				"method": "rhf"
			},
			{
				"type": "unocc",
				"energy": 0.02572,
				"method": "rhf"
			}
		],
		"cosmo_sigma_profile": { 
			"-0.025": 0.0,
			"-0.024": 0.0,
			"-0.023": 0.0,
			"-0.022": 0.0,
			"-0.021": 0.0,
			"-0.02": 0.0,
			"-0.019": 0.0,
			"-0.018": 0.0,
			"-0.017": 0.0,
			"-0.016": 0.0,
			"-0.015": 0.0,
			"-0.014": 0.0,
			"-0.013": 0.0,
			"-0.012": 0.0,
			"-0.011": 0.0,
			"-0.01": 0.0,
			"-0.009": 3.48275763771,
			"-0.008": 9.0663123679,
			"-0.007": 10.9919253988,
			"-0.006": 8.36347294097,
			"-0.005": 6.88715705739,
			"-0.004": 9.02784342998,
			"-0.003": 10.6365535979,
			"-0.002": 21.3079946754,
			"-0.001": 19.2092184313,
			"0.0": 20.7082966886,
			"0.001": 16.64324146,
			"0.002": 7.40353980884,
			"0.003": 8.39570501064,
			"0.004": 8.75340485237,
			"0.005": 15.8657302372,
			"0.006": 6.72671141699,
			"0.007": 2.87527437954,
			"0.008": 3.56291945434,
			"0.009": 3.26084937215,
			"0.01": 3.20870048588,
			"0.011": 2.59698242429,
			"0.012": 2.38398044939,
			"0.013": 1.11488632143,
			"0.014": 0.0,
			"0.015": 0.0,
			"0.016": 0.0,
			"0.017": 0.0,
			"0.018": 0.0,
			"0.019": 0.0,
			"0.02": 0.0,
			"0.021": 0.0,
			"0.022": 0.0,
			"0.023": 0.0,
			"0.024": 0.0,
			"0.025": 0.0
		}
	}
}
