{
	 "smiles": "BrC1=C(C2=CC=CC=C2C1=O)C1=CC=CC=C1", 
	 "Tm": 384.15, 
	 "num_atms": 26, 
	 "gaussian": { 
		 "optdone": 1, 
		 "sigma_profile": "yes", 
		 "theory": "DFT", 
		 "functional": "B3LYP", 
		 "basiset": "6-31G**", 
		 "properties": { 
			 "R2extent": 5831.2836, 
			 "electric_dipole_moment_norm": 4.64479524952, 
			 "electric_quadrupole_moment_norm": 16.7117739815, 
			 "total_energy": -3223.63418702, 
			 "HOMO_LUMO_gap": 0.12535, 
			 "cosmo_polarized_energy": -9.82, 
			 "cosmo_cavitation_energy": 32.78, 
			 "cosmo_dispersion_energy": -23.87, 
			 "cosmo_repulsion_energy": 1.83, 
			 "cosmo_total_nonelectrostatic_energy": 10.73, 
			 "SMD_solvation_energy": 4.7 
		},
		"coords": [
			{
				"x": 2.4783134004,
				"y": 2.3083890893,
				"z": -1.7815061384,
				"element": "Br" 
			},
			{
				"x": 1.4826168875,
				"y": 0.9121596416,
				"z": -1.0156272427,
				"element": "C" 
			},
			{
				"x": 0.6092671671,
				"y": 0.9524854201,
				"z": 0.0254328071,
				"element": "C" 
			},
			{
				"x": 0.1216194454,
				"y": -0.4478169818,
				"z": 0.2610801878,
				"element": "C" 
			},
			{
				"x": -0.8222301489,
				"y": -0.947671965,
				"z": 1.1469034054,
				"element": "C" 
			},
			{
				"x": -1.0983814976,
				"y": -2.3288211825,
				"z": 1.1211289024,
				"element": "C" 
			},
			{
				"x": -0.4571662968,
				"y": -3.1804291708,
				"z": 0.2241765124,
				"element": "C" 
			},
			{
				"x": 0.4825612539,
				"y": -2.6677077152,
				"z": -0.6879969131,
				"element": "C" 
			},
			{
				"x": 0.7522440621,
				"y": -1.3130291546,
				"z": -0.6507483201,
				"element": "C" 
			},
			{
				"x": 1.6594604773,
				"y": -0.4946955116,
				"z": -1.5133584626,
				"element": "C" 
			},
			{
				"x": 2.3798175814,
				"y": -0.875554238,
				"z": -2.4136508638,
				"element": "O" 
			},
			{
				"x": 0.1751248958,
				"y": 2.1090294457,
				"z": 0.8239514972,
				"element": "C" 
			},
			{
				"x": -0.1832644824,
				"y": 3.3220662898,
				"z": 0.2099930267,
				"element": "C" 
			},
			{
				"x": -0.5980259999,
				"y": 4.4081815902,
				"z": 0.9775992768,
				"element": "C" 
			},
			{
				"x": -0.6502516084,
				"y": 4.3084987919,
				"z": 2.3696706999,
				"element": "C" 
			},
			{
				"x": -0.2892705593,
				"y": 3.1118313003,
				"z": 2.9918689849,
				"element": "C" 
			},
			{
				"x": 0.1117871216,
				"y": 2.018090775,
				"z": 2.2268904276,
				"element": "C" 
			},
			{
				"x": -1.3478826296,
				"y": -0.2993054392,
				"z": 1.839702462,
				"element": "H" 
			},
			{
				"x": -1.8312739204,
				"y": -2.733416215,
				"z": 1.8132974671,
				"element": "H" 
			},
			{
				"x": -0.6893090283,
				"y": -4.2409959705,
				"z": 0.224904365,
				"element": "H" 
			},
			{
				"x": 0.9843573223,
				"y": -3.3069935056,
				"z": -1.4081713433,
				"element": "H" 
			},
			{
				"x": -0.146774766,
				"y": 3.4041138723,
				"z": -0.8704326993,
				"element": "H" 
			},
			{
				"x": -0.8806524694,
				"y": 5.3349081055,
				"z": 0.4869328569,
				"element": "H" 
			},
			{
				"x": -0.9693670583,
				"y": 5.1584009834,
				"z": 2.9658111743,
				"element": "H" 
			},
			{
				"x": -0.318528854,
				"y": 3.0291938721,
				"z": 4.0744034136,
				"element": "H" 
			},
			{
				"x": 0.4067097045,
				"y": 1.0960878725,
				"z": 2.7175445164,
				"element": "H" 
			}
		],
		 "valence_orbital": [ 
			{
				"type": "occ",
				"energy": -0.26862,
				"method": "rhf"
			},
			{
				"type": "occ",
				"energy": -0.26552,
				"method": "rhf"
			},
			{
				"type": "occ",
				"energy": -0.26185,
				"method": "rhf"
			},
			{
				"type": "occ",
				"energy": -0.25779,
				"method": "rhf"
			},
			{
				"type": "occ",
				"energy": -0.22415,
				"method": "rhf"
			},
			{
				"type": "unocc",
				"energy": -0.0988,
				"method": "rhf"
			},
			{
				"type": "unocc",
				"energy": -0.02659,
				"method": "rhf"
			},
			{
				"type": "unocc",
				"energy": -0.0189,
				"method": "rhf"
			},
			{
				"type": "unocc",
				"energy": -0.01373,
				"method": "rhf"
			},
			{
				"type": "unocc",
				"energy": 0.01875,
				"method": "rhf"
			}
		],
		"cosmo_sigma_profile": { 
			"-0.025": 0.0,
			"-0.024": 0.0,
			"-0.023": 0.0,
			"-0.022": 0.0,
			"-0.021": 0.0,
			"-0.02": 0.0,
			"-0.019": 0.0,
			"-0.018": 0.0,
			"-0.017": 0.0,
			"-0.016": 0.0,
			"-0.015": 0.0,
			"-0.014": 0.0,
			"-0.013": 0.0,
			"-0.012": 0.0,
			"-0.011": 0.0,
			"-0.01": 0.0,
			"-0.009": 0.0,
			"-0.008": 0.0380091997001,
			"-0.007": 5.04527888162,
			"-0.006": 17.2878491007,
			"-0.005": 21.7667678089,
			"-0.004": 22.6126780387,
			"-0.003": 18.0502176138,
			"-0.002": 18.4632138029,
			"-0.001": 21.639483931,
			"0.0": 21.3690451799,
			"0.001": 22.20269317,
			"0.002": 24.0224865061,
			"0.003": 27.0753667263,
			"0.004": 22.8588891159,
			"0.005": 6.48094213172,
			"0.006": 2.07008029846,
			"0.007": 2.05495454726,
			"0.008": 2.37574147128,
			"0.009": 2.73279682838,
			"0.01": 3.69344771899,
			"0.011": 4.76584680895,
			"0.012": 1.3676944253,
			"0.013": 0.0,
			"0.014": 0.0,
			"0.015": 0.0,
			"0.016": 0.0,
			"0.017": 0.0,
			"0.018": 0.0,
			"0.019": 0.0,
			"0.02": 0.0,
			"0.021": 0.0,
			"0.022": 0.0,
			"0.023": 0.0,
			"0.024": 0.0,
			"0.025": 0.0
		}
	}
}
