{
	 "smiles": "CN1N=CC(Cl)=C(Cl)C1=O", 
	 "Tm": 361.15, 
	 "num_atms": 14, 
	 "gaussian": { 
		 "optdone": 1, 
		 "sigma_profile": "yes", 
		 "theory": "DFT", 
		 "functional": "B3LYP", 
		 "basiset": "6-31G**", 
		 "properties": { 
			 "R2extent": 2290.8699, 
			 "electric_dipole_moment_norm": 2.8195764079, 
			 "electric_quadrupole_moment_norm": 6.86653275096, 
			 "total_energy": -1298.02099802, 
			 "HOMO_LUMO_gap": 0.17039, 
			 "cosmo_polarized_energy": -8.83, 
			 "cosmo_cavitation_energy": 22.2, 
			 "cosmo_dispersion_energy": -16.83, 
			 "cosmo_repulsion_energy": 1.36, 
			 "cosmo_total_nonelectrostatic_energy": 6.72, 
			 "SMD_solvation_energy": 3.53 
		},
		"coords": [
			{
				"x": -1.383324055,
				"y": 0.7823307458,
				"z": -2.1317871352,
				"element": "C" 
			},
			{
				"x": -0.986225855,
				"y": 0.5350314314,
				"z": -0.7443975229,
				"element": "N" 
			},
			{
				"x": -0.745172944,
				"y": 1.6146766458,
				"z": 0.0086815393,
				"element": "N" 
			},
			{
				"x": -0.3890714272,
				"y": 1.4297139454,
				"z": 1.2501086103,
				"element": "C" 
			},
			{
				"x": -0.2474191252,
				"y": 0.1331736398,
				"z": 1.8327179095,
				"element": "C" 
			},
			{
				"x": 0.233833631,
				"y": 0.0400635829,
				"z": 3.499288347,
				"element": "Cl" 
			},
			{
				"x": -0.4933478624,
				"y": -0.9703005916,
				"z": 1.0646121595,
				"element": "C" 
			},
			{
				"x": -0.3600019063,
				"y": -2.5860076311,
				"z": 1.641972574,
				"element": "Cl" 
			},
			{
				"x": -0.8967508844,
				"y": -0.8101928332,
				"z": -0.3383333106,
				"element": "C" 
			},
			{
				"x": -1.1427625045,
				"y": -1.7157852207,
				"z": -1.1211423308,
				"element": "O" 
			},
			{
				"x": -2.3676465845,
				"y": 0.3469235022,
				"z": -2.318729145,
				"element": "H" 
			},
			{
				"x": -1.4025038116,
				"y": 1.860752503,
				"z": -2.2749035939,
				"element": "H" 
			},
			{
				"x": -0.6687894377,
				"y": 0.3119383128,
				"z": -2.8112217461,
				"element": "H" 
			},
			{
				"x": -0.1996172333,
				"y": 2.3198819675,
				"z": 1.8390336449,
				"element": "H" 
			}
		],
		 "valence_orbital": [ 
			{
				"type": "occ",
				"energy": -0.33074,
				"method": "rhf"
			},
			{
				"type": "occ",
				"energy": -0.32222,
				"method": "rhf"
			},
			{
				"type": "occ",
				"energy": -0.29293,
				"method": "rhf"
			},
			{
				"type": "occ",
				"energy": -0.27183,
				"method": "rhf"
			},
			{
				"type": "occ",
				"energy": -0.2493,
				"method": "rhf"
			},
			{
				"type": "unocc",
				"energy": -0.07891,
				"method": "rhf"
			},
			{
				"type": "unocc",
				"energy": -0.0202,
				"method": "rhf"
			},
			{
				"type": "unocc",
				"energy": -0.01152,
				"method": "rhf"
			},
			{
				"type": "unocc",
				"energy": 0.05216,
				"method": "rhf"
			},
			{
				"type": "unocc",
				"energy": 0.09832,
				"method": "rhf"
			}
		],
		"cosmo_sigma_profile": { 
			"-0.025": 0.0,
			"-0.024": 0.0,
			"-0.023": 0.0,
			"-0.022": 0.0,
			"-0.021": 0.0,
			"-0.02": 0.0,
			"-0.019": 0.0,
			"-0.018": 0.0,
			"-0.017": 0.0,
			"-0.016": 0.0,
			"-0.015": 0.0,
			"-0.014": 0.0,
			"-0.013": 0.0,
			"-0.012": 0.0,
			"-0.011": 0.0,
			"-0.01": 0.914049087179,
			"-0.009": 1.76658168849,
			"-0.008": 1.35231241024,
			"-0.007": 4.54788804548,
			"-0.006": 8.8284306781,
			"-0.005": 12.3810349933,
			"-0.004": 16.2350851617,
			"-0.003": 22.8859813835,
			"-0.002": 14.0557258366,
			"-0.001": 13.4551347205,
			"0.0": 9.93898542703,
			"0.001": 12.6576636153,
			"0.002": 17.7724070261,
			"0.003": 14.4994318633,
			"0.004": 4.83718785109,
			"0.005": 3.22025049562,
			"0.006": 2.73696880707,
			"0.007": 2.46087756571,
			"0.008": 2.76954441112,
			"0.009": 2.2859568263,
			"0.01": 2.75597578279,
			"0.011": 2.44961732742,
			"0.012": 4.77755342634,
			"0.013": 3.09809482683,
			"0.014": 0.194907407943,
			"0.015": 0.0,
			"0.016": 0.0,
			"0.017": 0.0,
			"0.018": 0.0,
			"0.019": 0.0,
			"0.02": 0.0,
			"0.021": 0.0,
			"0.022": 0.0,
			"0.023": 0.0,
			"0.024": 0.0,
			"0.025": 0.0
		}
	}
}
