{
	 "smiles": "CC1=CC=C(F)C(=C1)C#N", 
	 "Tm": 324.15, 
	 "num_atms": 16, 
	 "gaussian": { 
		 "optdone": 1, 
		 "sigma_profile": "yes", 
		 "theory": "DFT", 
		 "functional": "B3LYP", 
		 "basiset": "6-31G**", 
		 "properties": { 
			 "R2extent": 2122.256, 
			 "electric_dipole_moment_norm": 5.5780056669, 
			 "electric_quadrupole_moment_norm": 14.6984845141, 
			 "total_energy": -463.040853574, 
			 "HOMO_LUMO_gap": 0.20081, 
			 "cosmo_polarized_energy": -8.67, 
			 "cosmo_cavitation_energy": 21.79, 
			 "cosmo_dispersion_energy": -15.29, 
			 "cosmo_repulsion_energy": 1.22, 
			 "cosmo_total_nonelectrostatic_energy": 7.73, 
			 "SMD_solvation_energy": 5.73 
		},
		"coords": [
			{
				"x": -0.6753445457,
				"y": 0.9979101325,
				"z": -2.462807139,
				"element": "C" 
			},
			{
				"x": -1.1554026455,
				"y": 0.3893388449,
				"z": -1.1660774029,
				"element": "C" 
			},
			{
				"x": -1.8476171118,
				"y": -0.8335115297,
				"z": -1.161317926,
				"element": "C" 
			},
			{
				"x": -2.298796051,
				"y": -1.4129443381,
				"z": 0.0221967458,
				"element": "C" 
			},
			{
				"x": -2.0567307398,
				"y": -0.7632153755,
				"z": 1.2251480143,
				"element": "C" 
			},
			{
				"x": -2.4860373723,
				"y": -1.3105232655,
				"z": 2.3724845622,
				"element": "F" 
			},
			{
				"x": -1.3712798266,
				"y": 0.4563019641,
				"z": 1.2665809784,
				"element": "C" 
			},
			{
				"x": -0.9259402414,
				"y": 1.0205641984,
				"z": 0.0565386896,
				"element": "C" 
			},
			{
				"x": -1.132169311,
				"y": 1.1096521705,
				"z": 2.5165879047,
				"element": "C" 
			},
			{
				"x": -0.9282710513,
				"y": 1.655743611,
				"z": 3.5228755197,
				"element": "N" 
			},
			{
				"x": -0.1624014609,
				"y": 1.9476638686,
				"z": -2.2919543005,
				"element": "H" 
			},
			{
				"x": 0.0217666466,
				"y": 0.3299608786,
				"z": -2.9809390384,
				"element": "H" 
			},
			{
				"x": -1.5107034214,
				"y": 1.1871531575,
				"z": -3.1460661336,
				"element": "H" 
			},
			{
				"x": -2.0374115784,
				"y": -1.3424611139,
				"z": -2.1026408891,
				"element": "H" 
			},
			{
				"x": -2.8333034847,
				"y": -2.3563988817,
				"z": 0.0293394506,
				"element": "H" 
			},
			{
				"x": -0.3947578049,
				"y": 1.9663656784,
				"z": 0.0918509641,
				"element": "H" 
			}
		],
		 "valence_orbital": [ 
			{
				"type": "occ",
				"energy": -0.35709,
				"method": "rhf"
			},
			{
				"type": "occ",
				"energy": -0.34516,
				"method": "rhf"
			},
			{
				"type": "occ",
				"energy": -0.33228,
				"method": "rhf"
			},
			{
				"type": "occ",
				"energy": -0.27611,
				"method": "rhf"
			},
			{
				"type": "occ",
				"energy": -0.25776,
				"method": "rhf"
			},
			{
				"type": "unocc",
				"energy": -0.05695,
				"method": "rhf"
			},
			{
				"type": "unocc",
				"energy": -0.02037,
				"method": "rhf"
			},
			{
				"type": "unocc",
				"energy": 0.03203,
				"method": "rhf"
			},
			{
				"type": "unocc",
				"energy": 0.06712,
				"method": "rhf"
			},
			{
				"type": "unocc",
				"energy": 0.07384,
				"method": "rhf"
			}
		],
		"cosmo_sigma_profile": { 
			"-0.025": 0.0,
			"-0.024": 0.0,
			"-0.023": 0.0,
			"-0.022": 0.0,
			"-0.021": 0.0,
			"-0.02": 0.0,
			"-0.019": 0.0,
			"-0.018": 0.0,
			"-0.017": 0.0,
			"-0.016": 0.0,
			"-0.015": 0.0,
			"-0.014": 0.0,
			"-0.013": 0.0,
			"-0.012": 0.0,
			"-0.011": 0.0,
			"-0.01": 0.0,
			"-0.009": 0.153696710739,
			"-0.008": 3.50305080393,
			"-0.007": 6.94057921703,
			"-0.006": 7.12763726541,
			"-0.005": 9.98950251713,
			"-0.004": 12.4848881904,
			"-0.003": 12.4428706596,
			"-0.002": 16.1857383667,
			"-0.001": 20.0768712493,
			"0.0": 18.238041198,
			"0.001": 13.230428985,
			"0.002": 13.5390381136,
			"0.003": 13.1397507403,
			"0.004": 4.39858009136,
			"0.005": 2.86030456642,
			"0.006": 2.27981273725,
			"0.007": 3.25447478104,
			"0.008": 3.3967047375,
			"0.009": 3.45447453519,
			"0.01": 2.90030110467,
			"0.011": 2.73772597198,
			"0.012": 2.36504688617,
			"0.013": 1.10218011533,
			"0.014": 0.0,
			"0.015": 0.0,
			"0.016": 0.0,
			"0.017": 0.0,
			"0.018": 0.0,
			"0.019": 0.0,
			"0.02": 0.0,
			"0.021": 0.0,
			"0.022": 0.0,
			"0.023": 0.0,
			"0.024": 0.0,
			"0.025": 0.0
		}
	}
}
