{
	 "smiles": "CCCOC1=C(OCC)C=C(C=CC(O)=O)C=C1", 
	 "Tm": 423.15, 
	 "num_atms": 36, 
	 "gaussian": { 
		 "optdone": 1, 
		 "sigma_profile": "yes", 
		 "theory": "DFT", 
		 "functional": "B3LYP", 
		 "basiset": "6-31G**", 
		 "properties": { 
			 "R2extent": 7541.0631, 
			 "electric_dipole_moment_norm": 3.40758006362, 
			 "electric_quadrupole_moment_norm": 19.6678407546, 
			 "total_energy": -845.216455742, 
			 "HOMO_LUMO_gap": 0.16161, 
			 "cosmo_polarized_energy": -12.56, 
			 "cosmo_cavitation_energy": 39.95, 
			 "cosmo_dispersion_energy": -27.07, 
			 "cosmo_repulsion_energy": 2.15, 
			 "cosmo_total_nonelectrostatic_energy": 15.03, 
			 "SMD_solvation_energy": 8.55 
		},
		"coords": [
			{
				"x": 0.0805320137,
				"y": -5.3387782218,
				"z": -0.2824982637,
				"element": "C" 
			},
			{
				"x": 1.0575142677,
				"y": -4.1607192203,
				"z": -0.3411696903,
				"element": "C" 
			},
			{
				"x": 0.508379763,
				"y": -2.9473836566,
				"z": -1.0776745244,
				"element": "C" 
			},
			{
				"x": -0.6547447045,
				"y": -2.4769000645,
				"z": -0.3613261148,
				"element": "O" 
			},
			{
				"x": -1.2971241556,
				"y": -1.3964576102,
				"z": -0.9098140327,
				"element": "C" 
			},
			{
				"x": -0.7125742152,
				"y": -0.1132040994,
				"z": -0.9247089045,
				"element": "C" 
			},
			{
				"x": 0.5617587912,
				"y": 0.0897721563,
				"z": -0.4417313615,
				"element": "O" 
			},
			{
				"x": 0.6707078565,
				"y": 0.0758455102,
				"z": 0.9957900998,
				"element": "C" 
			},
			{
				"x": 2.1223125106,
				"y": 0.3376754417,
				"z": 1.3530315609,
				"element": "C" 
			},
			{
				"x": -1.4047427697,
				"y": 0.9648208796,
				"z": -1.4666645393,
				"element": "C" 
			},
			{
				"x": -2.6973926114,
				"y": 0.8067218612,
				"z": -1.9995739259,
				"element": "C" 
			},
			{
				"x": -3.4872909444,
				"y": 1.8689924714,
				"z": -2.633108957,
				"element": "C" 
			},
			{
				"x": -3.5088251353,
				"y": 3.2202475636,
				"z": -2.570500881,
				"element": "C" 
			},
			{
				"x": -2.7915727441,
				"y": 4.2078365422,
				"z": -1.7438774147,
				"element": "C" 
			},
			{
				"x": -2.0701295296,
				"y": 3.7127974621,
				"z": -0.7039548303,
				"element": "O" 
			},
			{
				"x": -2.8683251098,
				"y": 5.4066681797,
				"z": -1.9431597555,
				"element": "O" 
			},
			{
				"x": -3.2638441233,
				"y": -0.4835355617,
				"z": -1.9811099872,
				"element": "C" 
			},
			{
				"x": -2.5800386765,
				"y": -1.5642831148,
				"z": -1.4352436966,
				"element": "C" 
			},
			{
				"x": -0.8457048034,
				"y": -5.0490501902,
				"z": 0.2206270275,
				"element": "H" 
			},
			{
				"x": -0.1784565454,
				"y": -5.6862242316,
				"z": -1.2894013739,
				"element": "H" 
			},
			{
				"x": 0.5142942359,
				"y": -6.1841577245,
				"z": 0.2606301733,
				"element": "H" 
			},
			{
				"x": 1.9840904219,
				"y": -4.4612474683,
				"z": -0.8469547839,
				"element": "H" 
			},
			{
				"x": 1.3403401577,
				"y": -3.855546634,
				"z": 0.6738404148,
				"element": "H" 
			},
			{
				"x": 1.2520212323,
				"y": -2.1459084884,
				"z": -1.1355165936,
				"element": "H" 
			},
			{
				"x": 0.2069857819,
				"y": -3.2165530982,
				"z": -2.1004257221,
				"element": "H" 
			},
			{
				"x": 0.0167702644,
				"y": 0.855473613,
				"z": 1.4103367046,
				"element": "H" 
			},
			{
				"x": 0.3332190589,
				"y": -0.8934924933,
				"z": 1.381120354,
				"element": "H" 
			},
			{
				"x": 2.77071243,
				"y": -0.4438976218,
				"z": 0.9461054243,
				"element": "H" 
			},
			{
				"x": 2.4517571128,
				"y": 1.2999612687,
				"z": 0.9507015613,
				"element": "H" 
			},
			{
				"x": 2.2445734038,
				"y": 0.3552806313,
				"z": 2.4406174096,
				"element": "H" 
			},
			{
				"x": -0.9168157067,
				"y": 1.9289742611,
				"z": -1.465908547,
				"element": "H" 
			},
			{
				"x": -4.2315367222,
				"y": 1.462337122,
				"z": -3.3187338454,
				"element": "H" 
			},
			{
				"x": -4.2032347006,
				"y": 3.7278883428,
				"z": -3.2327584402,
				"element": "H" 
			},
			{
				"x": -1.7006529104,
				"y": 4.4944492865,
				"z": -0.2598691222,
				"element": "H" 
			},
			{
				"x": -4.253874476,
				"y": -0.6364297968,
				"z": -2.4021270015,
				"element": "H" 
			},
			{
				"x": -3.0177887185,
				"y": -2.5571732969,
				"z": -1.4168884206,
				"element": "H" 
			}
		],
		 "valence_orbital": [ 
			{
				"type": "occ",
				"energy": -0.28501,
				"method": "rhf"
			},
			{
				"type": "occ",
				"energy": -0.27066,
				"method": "rhf"
			},
			{
				"type": "occ",
				"energy": -0.26372,
				"method": "rhf"
			},
			{
				"type": "occ",
				"energy": -0.24684,
				"method": "rhf"
			},
			{
				"type": "occ",
				"energy": -0.22489,
				"method": "rhf"
			},
			{
				"type": "unocc",
				"energy": -0.06328,
				"method": "rhf"
			},
			{
				"type": "unocc",
				"energy": -0.00395,
				"method": "rhf"
			},
			{
				"type": "unocc",
				"energy": 0.01736,
				"method": "rhf"
			},
			{
				"type": "unocc",
				"energy": 0.07705,
				"method": "rhf"
			},
			{
				"type": "unocc",
				"energy": 0.07817,
				"method": "rhf"
			}
		],
		"cosmo_sigma_profile": { 
			"-0.025": 0.0,
			"-0.024": 0.0,
			"-0.023": 0.0,
			"-0.022": 0.0,
			"-0.021": 0.0,
			"-0.02": 0.0,
			"-0.019": 0.0,
			"-0.018": 0.370795239945,
			"-0.017": 0.828599744619,
			"-0.016": 0.691943309466,
			"-0.015": 1.24767800587,
			"-0.014": 0.613223927215,
			"-0.013": 0.53238199691,
			"-0.012": 0.697623337686,
			"-0.011": 0.717748031993,
			"-0.01": 0.912441504436,
			"-0.009": 0.391270442142,
			"-0.008": 0.477461033423,
			"-0.007": 5.96391837912,
			"-0.006": 9.39992662457,
			"-0.005": 8.48569149959,
			"-0.004": 17.5341689587,
			"-0.003": 33.947738009,
			"-0.002": 39.0112239113,
			"-0.001": 35.5820854868,
			"0.0": 34.3325649057,
			"0.001": 27.2195290176,
			"0.002": 22.7527413424,
			"0.003": 19.7976797627,
			"0.004": 13.0457556368,
			"0.005": 6.74601604863,
			"0.006": 5.62638281695,
			"0.007": 5.55322968952,
			"0.008": 2.96339213506,
			"0.009": 3.81818387533,
			"0.01": 3.62051362994,
			"0.011": 3.66863867116,
			"0.012": 5.63650641657,
			"0.013": 2.40297457034,
			"0.014": 0.103789650417,
			"0.015": 0.0,
			"0.016": 0.0,
			"0.017": 0.0,
			"0.018": 0.0,
			"0.019": 0.0,
			"0.02": 0.0,
			"0.021": 0.0,
			"0.022": 0.0,
			"0.023": 0.0,
			"0.024": 0.0,
			"0.025": 0.0
		}
	}
}
