{
	 "smiles": "C1CC2OC1C1CNCC21", 
	 "Tm": 327.15, 
	 "num_atms": 23, 
	 "gaussian": { 
		 "optdone": 1, 
		 "sigma_profile": "yes", 
		 "theory": "DFT", 
		 "functional": "B3LYP", 
		 "basiset": "6-31G**", 
		 "properties": { 
			 "R2extent": 1776.2135, 
			 "electric_dipole_moment_norm": 2.24783544549, 
			 "electric_quadrupole_moment_norm": 9.60082953083, 
			 "total_energy": -442.635289083, 
			 "HOMO_LUMO_gap": 0.27577, 
			 "cosmo_polarized_energy": -8.8, 
			 "cosmo_cavitation_energy": 22.57, 
			 "cosmo_dispersion_energy": -17.79, 
			 "cosmo_repulsion_energy": 1.44, 
			 "cosmo_total_nonelectrostatic_energy": 6.22, 
			 "SMD_solvation_energy": 0.72 
		},
		"coords": [
			{
				"x": 0.777599275,
				"y": 3.1784124261,
				"z": -1.0850915695,
				"element": "C" 
			},
			{
				"x": 1.999783438,
				"y": 2.2634483424,
				"z": -1.4068469748,
				"element": "C" 
			},
			{
				"x": 1.2857933767,
				"y": 0.9373578489,
				"z": -1.7665298834,
				"element": "C" 
			},
			{
				"x": 0.0912579353,
				"y": 1.3990795414,
				"z": -2.4152526171,
				"element": "O" 
			},
			{
				"x": -0.3947209763,
				"y": 2.1954039035,
				"z": -1.3240619226,
				"element": "C" 
			},
			{
				"x": -0.4704743524,
				"y": 1.1924167306,
				"z": -0.1474740219,
				"element": "C" 
			},
			{
				"x": -1.6816933639,
				"y": 0.2384044073,
				"z": -0.1565629304,
				"element": "C" 
			},
			{
				"x": -1.2457234523,
				"y": -0.8938808884,
				"z": -0.9743293139,
				"element": "N" 
			},
			{
				"x": 0.1576524712,
				"y": -1.138417481,
				"z": -0.6402448356,
				"element": "C" 
			},
			{
				"x": 0.7616639239,
				"y": 0.2701308912,
				"z": -0.4717535148,
				"element": "C" 
			},
			{
				"x": 0.7947886639,
				"y": 3.5811701054,
				"z": -0.0678229656,
				"element": "H" 
			},
			{
				"x": 0.7174110405,
				"y": 4.0198976378,
				"z": -1.7801513472,
				"element": "H" 
			},
			{
				"x": 2.6945174498,
				"y": 2.1589022639,
				"z": -0.5679426459,
				"element": "H" 
			},
			{
				"x": 2.5620392115,
				"y": 2.6390199236,
				"z": -2.2657121884,
				"element": "H" 
			},
			{
				"x": 1.8346493285,
				"y": 0.2753509282,
				"z": -2.4394859721,
				"element": "H" 
			},
			{
				"x": -1.3449612635,
				"y": 2.6557784475,
				"z": -1.6023966695,
				"element": "H" 
			},
			{
				"x": -0.388142144,
				"y": 1.7070060353,
				"z": 0.8140224825,
				"element": "H" 
			},
			{
				"x": -1.9228079359,
				"y": -0.0399354531,
				"z": 0.8871472903,
				"element": "H" 
			},
			{
				"x": -2.5789822822,
				"y": 0.700869975,
				"z": -0.5859732101,
				"element": "H" 
			},
			{
				"x": -1.823882293,
				"y": -1.7164644347,
				"z": -0.8313625787,
				"element": "H" 
			},
			{
				"x": 0.6479609275,
				"y": -1.7148619635,
				"z": -1.4344164934,
				"element": "H" 
			},
			{
				"x": 0.2936395798,
				"y": -1.6988419866,
				"z": 0.3044178124,
				"element": "H" 
			},
			{
				"x": 1.5263314421,
				"y": 0.2741527991,
				"z": 0.3101240697,
				"element": "H" 
			}
		],
		 "valence_orbital": [ 
			{
				"type": "occ",
				"energy": -0.3291,
				"method": "rhf"
			},
			{
				"type": "occ",
				"energy": -0.30347,
				"method": "rhf"
			},
			{
				"type": "occ",
				"energy": -0.29462,
				"method": "rhf"
			},
			{
				"type": "occ",
				"energy": -0.24939,
				"method": "rhf"
			},
			{
				"type": "occ",
				"energy": -0.20439,
				"method": "rhf"
			},
			{
				"type": "unocc",
				"energy": 0.07138,
				"method": "rhf"
			},
			{
				"type": "unocc",
				"energy": 0.09688,
				"method": "rhf"
			},
			{
				"type": "unocc",
				"energy": 0.10627,
				"method": "rhf"
			},
			{
				"type": "unocc",
				"energy": 0.13234,
				"method": "rhf"
			},
			{
				"type": "unocc",
				"energy": 0.13588,
				"method": "rhf"
			}
		],
		"cosmo_sigma_profile": { 
			"-0.025": 0.0,
			"-0.024": 0.0,
			"-0.023": 0.0,
			"-0.022": 0.0,
			"-0.021": 0.0,
			"-0.02": 0.0,
			"-0.019": 0.0,
			"-0.018": 0.0,
			"-0.017": 0.0,
			"-0.016": 0.0,
			"-0.015": 0.0,
			"-0.014": 0.0,
			"-0.013": 0.0,
			"-0.012": 0.0,
			"-0.011": 0.0,
			"-0.01": 0.474020348865,
			"-0.009": 1.44355011936,
			"-0.008": 1.20996020712,
			"-0.007": 0.870472871072,
			"-0.006": 0.975553545094,
			"-0.005": 3.57054687162,
			"-0.004": 10.4860470849,
			"-0.003": 27.7031785993,
			"-0.002": 32.5952385221,
			"-0.001": 36.4768349452,
			"0.0": 20.5712172456,
			"0.001": 9.82269905115,
			"0.002": 2.9576092951,
			"0.003": 2.00890516788,
			"0.004": 1.50400923604,
			"0.005": 1.30673627143,
			"0.006": 1.2059554592,
			"0.007": 1.14070775173,
			"0.008": 2.10356243527,
			"0.009": 1.20052862854,
			"0.01": 1.12240352204,
			"0.011": 1.36796336045,
			"0.012": 1.96797587026,
			"0.013": 1.78064531253,
			"0.014": 2.25846853994,
			"0.015": 1.27314159394,
			"0.016": 1.18831254599,
			"0.017": 0.580798711289,
			"0.018": 0.829051503955,
			"0.019": 0.571640861972,
			"0.02": 1.02735645381,
			"0.021": 0.337557676563,
			"0.022": 0.0386975456509,
			"0.023": 0.0,
			"0.024": 0.0,
			"0.025": 0.0
		}
	}
}
