{
	 "smiles": "CC1=CC2=C(C=C1Cl)C(=O)C=CO2", 
	 "Tm": 444.15, 
	 "num_atms": 20, 
	 "gaussian": { 
		 "optdone": 1, 
		 "sigma_profile": "yes", 
		 "theory": "DFT", 
		 "functional": "B3LYP", 
		 "basiset": "6-31G**", 
		 "properties": { 
			 "R2extent": 2952.5619, 
			 "electric_dipole_moment_norm": 4.45077075572, 
			 "electric_quadrupole_moment_norm": 12.5702015226, 
			 "total_energy": -995.919545056, 
			 "HOMO_LUMO_gap": 0.18004, 
			 "cosmo_polarized_energy": -10.23, 
			 "cosmo_cavitation_energy": 26.12, 
			 "cosmo_dispersion_energy": -19.56, 
			 "cosmo_repulsion_energy": 1.52, 
			 "cosmo_total_nonelectrostatic_energy": 8.08, 
			 "SMD_solvation_energy": 5.59 
		},
		"coords": [
			{
				"x": 2.6541028669,
				"y": -0.6801239402,
				"z": -1.5320006809,
				"element": "C" 
			},
			{
				"x": 1.4200898481,
				"y": -0.535973915,
				"z": -0.6816374326,
				"element": "C" 
			},
			{
				"x": 0.1720969053,
				"y": -0.3351901441,
				"z": -1.268228613,
				"element": "C" 
			},
			{
				"x": -0.9727835084,
				"y": -0.201448293,
				"z": -0.4790002111,
				"element": "C" 
			},
			{
				"x": -0.9084717308,
				"y": -0.2637237628,
				"z": 0.9180647872,
				"element": "C" 
			},
			{
				"x": 0.3436218101,
				"y": -0.4655743534,
				"z": 1.5171643173,
				"element": "C" 
			},
			{
				"x": 1.4742960567,
				"y": -0.5974170671,
				"z": 0.731139756,
				"element": "C" 
			},
			{
				"x": 3.0257240628,
				"y": -0.8493432529,
				"z": 1.5235107187,
				"element": "Cl" 
			},
			{
				"x": -2.1357461766,
				"y": -0.1193560328,
				"z": 1.7386885952,
				"element": "C" 
			},
			{
				"x": -2.1267940579,
				"y": -0.1671875564,
				"z": 2.9661660916,
				"element": "O" 
			},
			{
				"x": -3.3441453298,
				"y": 0.0840692024,
				"z": 0.937929559,
				"element": "C" 
			},
			{
				"x": -3.2915135906,
				"y": 0.1276272057,
				"z": -0.4077588489,
				"element": "C" 
			},
			{
				"x": -2.1599221653,
				"y": -0.0065202211,
				"z": -1.1404287427,
				"element": "O" 
			},
			{
				"x": 3.3909058995,
				"y": 0.0934690591,
				"z": -1.2914278904,
				"element": "H" 
			},
			{
				"x": 3.1421850741,
				"y": -1.6447982479,
				"z": -1.3576968155,
				"element": "H" 
			},
			{
				"x": 2.4065564873,
				"y": -0.6042513591,
				"z": -2.5931063366,
				"element": "H" 
			},
			{
				"x": 0.0736262027,
				"y": -0.2800821458,
				"z": -2.3474683044,
				"element": "H" 
			},
			{
				"x": 0.3913846265,
				"y": -0.5135071009,
				"z": 2.5992152454,
				"element": "H" 
			},
			{
				"x": -4.2935492959,
				"y": 0.200655231,
				"z": 1.4468616183,
				"element": "H" 
			},
			{
				"x": -4.1509639847,
				"y": 0.2750766945,
				"z": -1.0518868127,
				"element": "H" 
			}
		],
		 "valence_orbital": [ 
			{
				"type": "occ",
				"energy": -0.3186,
				"method": "rhf"
			},
			{
				"type": "occ",
				"energy": -0.27746,
				"method": "rhf"
			},
			{
				"type": "occ",
				"energy": -0.26803,
				"method": "rhf"
			},
			{
				"type": "occ",
				"energy": -0.24764,
				"method": "rhf"
			},
			{
				"type": "occ",
				"energy": -0.24136,
				"method": "rhf"
			},
			{
				"type": "unocc",
				"energy": -0.06132,
				"method": "rhf"
			},
			{
				"type": "unocc",
				"energy": -0.02987,
				"method": "rhf"
			},
			{
				"type": "unocc",
				"energy": -0.00803,
				"method": "rhf"
			},
			{
				"type": "unocc",
				"energy": 0.02618,
				"method": "rhf"
			},
			{
				"type": "unocc",
				"energy": 0.07517,
				"method": "rhf"
			}
		],
		"cosmo_sigma_profile": { 
			"-0.025": 0.0,
			"-0.024": 0.0,
			"-0.023": 0.0,
			"-0.022": 0.0,
			"-0.021": 0.0,
			"-0.02": 0.0,
			"-0.019": 0.0,
			"-0.018": 0.0,
			"-0.017": 0.0,
			"-0.016": 0.0,
			"-0.015": 0.0,
			"-0.014": 0.0,
			"-0.013": 0.0,
			"-0.012": 0.0,
			"-0.011": 0.178190915569,
			"-0.01": 2.26501339178,
			"-0.009": 2.13582301094,
			"-0.008": 4.35380203699,
			"-0.007": 6.21109417155,
			"-0.006": 7.0354243517,
			"-0.005": 10.3100421368,
			"-0.004": 10.9394127617,
			"-0.003": 15.1338337694,
			"-0.002": 19.2214954191,
			"-0.001": 23.2455685675,
			"0.0": 23.4290334689,
			"0.001": 26.8895563236,
			"0.002": 15.1460801229,
			"0.003": 9.65605196038,
			"0.004": 10.952820769,
			"0.005": 5.15382484779,
			"0.006": 2.46113570192,
			"0.007": 1.99185046432,
			"0.008": 1.29697937806,
			"0.009": 0.717482893544,
			"0.01": 1.316258725,
			"0.011": 2.35740532447,
			"0.012": 3.10773365387,
			"0.013": 4.8196425763,
			"0.014": 1.64878468033,
			"0.015": 0.163458217497,
			"0.016": 0.0,
			"0.017": 0.0,
			"0.018": 0.0,
			"0.019": 0.0,
			"0.02": 0.0,
			"0.021": 0.0,
			"0.022": 0.0,
			"0.023": 0.0,
			"0.024": 0.0,
			"0.025": 0.0
		}
	}
}
