{
	 "smiles": "CCCCCCCCCCCCOC1=C(OCCCCCCCCCCCC)C=C(C=C1)C(C)=O", 
	 "Tm": 337.65, 
	 "num_atms": 91, 
	 "gaussian": { 
		 "optdone": 1, 
		 "sigma_profile": "yes", 
		 "theory": "DFT", 
		 "functional": "B3LYP", 
		 "basiset": "6-31G**", 
		 "properties": { 
			 "R2extent": 31924.7402, 
			 "electric_dipole_moment_norm": 3.2544301959, 
			 "electric_quadrupole_moment_norm": 27.7467605221, 
			 "total_energy": -1478.87107106, 
			 "HOMO_LUMO_gap": 0.18251, 
			 "cosmo_polarized_energy": -11.07, 
			 "cosmo_cavitation_energy": 87.46, 
			 "cosmo_dispersion_energy": -53.46, 
			 "cosmo_repulsion_energy": 4.27, 
			 "cosmo_total_nonelectrostatic_energy": 38.26, 
			 "SMD_solvation_energy": 12.53 
		},
		"coords": [
			{
				"x": 0.1002882472,
				"y": 4.5366374408,
				"z": 6.8591132245,
				"element": "C" 
			},
			{
				"x": 1.5214009589,
				"y": 4.817961792,
				"z": 6.3523136853,
				"element": "C" 
			},
			{
				"x": 2.5399049006,
				"y": 3.6791307338,
				"z": 6.5811642442,
				"element": "C" 
			},
			{
				"x": 2.6615140602,
				"y": 2.635309237,
				"z": 5.4560946152,
				"element": "C" 
			},
			{
				"x": 1.4180434789,
				"y": 1.7771974419,
				"z": 5.182489509,
				"element": "C" 
			},
			{
				"x": 1.6766243393,
				"y": 0.672227186,
				"z": 4.1479175082,
				"element": "C" 
			},
			{
				"x": 0.4823975936,
				"y": -0.2650188238,
				"z": 3.8944913986,
				"element": "C" 
			},
			{
				"x": -0.7781196278,
				"y": 0.3891845633,
				"z": 3.3009589111,
				"element": "C" 
			},
			{
				"x": -0.5882728994,
				"y": 0.9910985629,
				"z": 1.9015640014,
				"element": "C" 
			},
			{
				"x": -1.8930935162,
				"y": 1.5554254494,
				"z": 1.3206680118,
				"element": "C" 
			},
			{
				"x": -1.7785433286,
				"y": 2.2256174374,
				"z": -0.0588673624,
				"element": "C" 
			},
			{
				"x": -1.5027195682,
				"y": 1.2912218063,
				"z": -1.2374004494,
				"element": "C" 
			},
			{
				"x": -0.1441805158,
				"y": 0.7843792919,
				"z": -1.258594459,
				"element": "O" 
			},
			{
				"x": 0.8043301763,
				"y": 1.585398418,
				"z": -1.8402722774,
				"element": "C" 
			},
			{
				"x": 0.7690928049,
				"y": 1.9081782219,
				"z": -3.2182841325,
				"element": "C" 
			},
			{
				"x": -0.2644813787,
				"y": 1.4893773025,
				"z": -4.0241419418,
				"element": "O" 
			},
			{
				"x": -0.3086240209,
				"y": 0.0731768398,
				"z": -4.3176440934,
				"element": "C" 
			},
			{
				"x": 0.6782174299,
				"y": -0.3006336634,
				"z": -5.4213628109,
				"element": "C" 
			},
			{
				"x": 0.5657581854,
				"y": -1.7497319806,
				"z": -5.9315837728,
				"element": "C" 
			},
			{
				"x": 0.9240204637,
				"y": -2.85140042,
				"z": -4.9073533132,
				"element": "C" 
			},
			{
				"x": -0.2495849621,
				"y": -3.4224665557,
				"z": -4.0867043485,
				"element": "C" 
			},
			{
				"x": -1.1942705246,
				"y": -4.32137466,
				"z": -4.8999448806,
				"element": "C" 
			},
			{
				"x": -2.4150325564,
				"y": -4.8416380796,
				"z": -4.1218252969,
				"element": "C" 
			},
			{
				"x": -2.0817221989,
				"y": -5.820972573,
				"z": -2.9853541529,
				"element": "C" 
			},
			{
				"x": -3.3241108295,
				"y": -6.3934534244,
				"z": -2.2752096524,
				"element": "C" 
			},
			{
				"x": -4.0915772568,
				"y": -5.410739907,
				"z": -1.3591877329,
				"element": "C" 
			},
			{
				"x": -3.7074246383,
				"y": -5.462575879,
				"z": 0.130648135,
				"element": "C" 
			},
			{
				"x": -2.2619084895,
				"y": -5.0694797851,
				"z": 0.4564707645,
				"element": "C" 
			},
			{
				"x": 1.7669781932,
				"y": 2.7124489172,
				"z": -3.7562719107,
				"element": "C" 
			},
			{
				"x": 2.8285587063,
				"y": 3.184063799,
				"z": -2.9681042732,
				"element": "C" 
			},
			{
				"x": 2.8796209417,
				"y": 2.8221836322,
				"z": -1.6143587479,
				"element": "C" 
			},
			{
				"x": 1.8737522093,
				"y": 2.0342175273,
				"z": -1.0598169215,
				"element": "C" 
			},
			{
				"x": 3.8658293775,
				"y": 4.0397930101,
				"z": -3.6244829649,
				"element": "C" 
			},
			{
				"x": 5.0290061399,
				"y": 4.5513032579,
				"z": -2.7890010684,
				"element": "C" 
			},
			{
				"x": 3.783958938,
				"y": 4.3248576448,
				"z": -4.8106451404,
				"element": "O" 
			},
			{
				"x": -0.3538852161,
				"y": 3.6718075972,
				"z": 6.3673111797,
				"element": "H" 
			},
			{
				"x": 0.1052283028,
				"y": 4.3352476599,
				"z": 7.9365985384,
				"element": "H" 
			},
			{
				"x": -0.5555931925,
				"y": 5.3971557658,
				"z": 6.6874851632,
				"element": "H" 
			},
			{
				"x": 1.4916922824,
				"y": 5.0691648972,
				"z": 5.2828875253,
				"element": "H" 
			},
			{
				"x": 1.8867696339,
				"y": 5.7208435022,
				"z": 6.8576830193,
				"element": "H" 
			},
			{
				"x": 2.3084197952,
				"y": 3.1709226691,
				"z": 7.5282395911,
				"element": "H" 
			},
			{
				"x": 3.5337835098,
				"y": 4.1237363373,
				"z": 6.71866028,
				"element": "H" 
			},
			{
				"x": 2.9522298059,
				"y": 3.1482295692,
				"z": 4.5275770746,
				"element": "H" 
			},
			{
				"x": 3.4983378976,
				"y": 1.9661404185,
				"z": 5.7011820286,
				"element": "H" 
			},
			{
				"x": 1.0751484106,
				"y": 1.3194679479,
				"z": 6.1219589862,
				"element": "H" 
			},
			{
				"x": 0.5980763003,
				"y": 2.4175687812,
				"z": 4.8370362942,
				"element": "H" 
			},
			{
				"x": 2.0005071156,
				"y": 1.1299443284,
				"z": 3.2031572499,
				"element": "H" 
			},
			{
				"x": 2.5258666017,
				"y": 0.0636725855,
				"z": 4.4876117937,
				"element": "H" 
			},
			{
				"x": 0.8067699753,
				"y": -1.0718496801,
				"z": 3.2231900696,
				"element": "H" 
			},
			{
				"x": 0.2119491641,
				"y": -0.7509500761,
				"z": 4.8420272765,
				"element": "H" 
			},
			{
				"x": -1.5685147315,
				"y": -0.3725080828,
				"z": 3.252179862,
				"element": "H" 
			},
			{
				"x": -1.1555973968,
				"y": 1.1633558679,
				"z": 3.9828550576,
				"element": "H" 
			},
			{
				"x": -0.1793410658,
				"y": 0.2314423997,
				"z": 1.2255169162,
				"element": "H" 
			},
			{
				"x": 0.1567610681,
				"y": 1.797804069,
				"z": 1.9393386884,
				"element": "H" 
			},
			{
				"x": -2.6414883596,
				"y": 0.7513253547,
				"z": 1.2626448124,
				"element": "H" 
			},
			{
				"x": -2.3017197755,
				"y": 2.2915044377,
				"z": 2.0265767106,
				"element": "H" 
			},
			{
				"x": -2.7278235067,
				"y": 2.7326381452,
				"z": -0.2799252117,
				"element": "H" 
			},
			{
				"x": -1.0135727177,
				"y": 3.0132058734,
				"z": -0.0409412231,
				"element": "H" 
			},
			{
				"x": -2.1323886359,
				"y": 0.3974229998,
				"z": -1.1737136195,
				"element": "H" 
			},
			{
				"x": -1.7135140065,
				"y": 1.789785319,
				"z": -2.1871363608,
				"element": "H" 
			},
			{
				"x": -0.1336041156,
				"y": -0.4938420968,
				"z": -3.3983828778,
				"element": "H" 
			},
			{
				"x": -1.3376198116,
				"y": -0.1113935866,
				"z": -4.6433531684,
				"element": "H" 
			},
			{
				"x": 1.7002927704,
				"y": -0.120217969,
				"z": -5.0644277679,
				"element": "H" 
			},
			{
				"x": 0.5142494062,
				"y": 0.3880622435,
				"z": -6.2591714487,
				"element": "H" 
			},
			{
				"x": 1.2370018227,
				"y": -1.8370410624,
				"z": -6.7939044694,
				"element": "H" 
			},
			{
				"x": -0.4439925594,
				"y": -1.9189842352,
				"z": -6.329258127,
				"element": "H" 
			},
			{
				"x": 1.39990248,
				"y": -3.687751101,
				"z": -5.4360962139,
				"element": "H" 
			},
			{
				"x": 1.6897914436,
				"y": -2.461968884,
				"z": -4.2232244636,
				"element": "H" 
			},
			{
				"x": -0.830610819,
				"y": -2.6078010842,
				"z": -3.6341064272,
				"element": "H" 
			},
			{
				"x": 0.1638364269,
				"y": -3.9963381435,
				"z": -3.2484646321,
				"element": "H" 
			},
			{
				"x": -0.6237022955,
				"y": -5.1751928227,
				"z": -5.2935731897,
				"element": "H" 
			},
			{
				"x": -1.5539751881,
				"y": -3.7704638797,
				"z": -5.7786459409,
				"element": "H" 
			},
			{
				"x": -3.0919036832,
				"y": -5.3452431512,
				"z": -4.8257777861,
				"element": "H" 
			},
			{
				"x": -2.9771109412,
				"y": -3.9843661451,
				"z": -3.7260437965,
				"element": "H" 
			},
			{
				"x": -1.4267152314,
				"y": -5.3357699462,
				"z": -2.2530207751,
				"element": "H" 
			},
			{
				"x": -1.5019468655,
				"y": -6.654135859,
				"z": -3.4067991766,
				"element": "H" 
			},
			{
				"x": -4.0063368128,
				"y": -6.7749984985,
				"z": -3.0465952835,
				"element": "H" 
			},
			{
				"x": -3.0289561267,
				"y": -7.2707037957,
				"z": -1.6836747058,
				"element": "H" 
			},
			{
				"x": -3.9701169224,
				"y": -4.3830750618,
				"z": -1.7277047506,
				"element": "H" 
			},
			{
				"x": -5.1654653677,
				"y": -5.6235502075,
				"z": -1.430562527,
				"element": "H" 
			},
			{
				"x": -3.898198645,
				"y": -6.4765306586,
				"z": 0.5089651276,
				"element": "H" 
			},
			{
				"x": -4.3872599833,
				"y": -4.8023918809,
				"z": 0.6852993755,
				"element": "H" 
			},
			{
				"x": -1.5406202714,
				"y": -5.7638022295,
				"z": 0.0136881672,
				"element": "H" 
			},
			{
				"x": -2.0913956815,
				"y": -5.0691979926,
				"z": 1.538442061,
				"element": "H" 
			},
			{
				"x": -2.0282334012,
				"y": -4.0651815333,
				"z": 0.084045731,
				"element": "H" 
			},
			{
				"x": 1.7318348455,
				"y": 2.9757864676,
				"z": -4.8075423515,
				"element": "H" 
			},
			{
				"x": 3.6930311968,
				"y": 3.1612265226,
				"z": -0.9816587076,
				"element": "H" 
			},
			{
				"x": 1.8919510896,
				"y": 1.7568401305,
				"z": -0.0112397786,
				"element": "H" 
			},
			{
				"x": 5.60697481,
				"y": 3.7210657019,
				"z": -2.3682957283,
				"element": "H" 
			},
			{
				"x": 5.6755445533,
				"y": 5.1553852276,
				"z": -3.4260547183,
				"element": "H" 
			},
			{
				"x": 4.6739217858,
				"y": 5.159893083,
				"z": -1.9500456577,
				"element": "H" 
			}
		],
		 "valence_orbital": [ 
			{
				"type": "occ",
				"energy": -0.29407,
				"method": "rhf"
			},
			{
				"type": "occ",
				"energy": -0.26698,
				"method": "rhf"
			},
			{
				"type": "occ",
				"energy": -0.24623,
				"method": "rhf"
			},
			{
				"type": "occ",
				"energy": -0.24284,
				"method": "rhf"
			},
			{
				"type": "occ",
				"energy": -0.23137,
				"method": "rhf"
			},
			{
				"type": "unocc",
				"energy": -0.04886,
				"method": "rhf"
			},
			{
				"type": "unocc",
				"energy": -0.00504,
				"method": "rhf"
			},
			{
				"type": "unocc",
				"energy": 0.0445,
				"method": "rhf"
			},
			{
				"type": "unocc",
				"energy": 0.07049,
				"method": "rhf"
			},
			{
				"type": "unocc",
				"energy": 0.07857,
				"method": "rhf"
			}
		],
		"cosmo_sigma_profile": { 
			"-0.025": 0.0,
			"-0.024": 0.0,
			"-0.023": 0.0,
			"-0.022": 0.0,
			"-0.021": 0.0,
			"-0.02": 0.0,
			"-0.019": 0.0,
			"-0.018": 0.0,
			"-0.017": 0.0,
			"-0.016": 0.0,
			"-0.015": 0.0,
			"-0.014": 0.0,
			"-0.013": 0.0,
			"-0.012": 0.0,
			"-0.011": 0.0,
			"-0.01": 0.0,
			"-0.009": 0.0,
			"-0.008": 0.0,
			"-0.007": 0.713815146971,
			"-0.006": 7.89518933424,
			"-0.005": 11.2098289539,
			"-0.004": 17.0787293889,
			"-0.003": 33.1648701332,
			"-0.002": 94.5917469498,
			"-0.001": 137.441006226,
			"0.0": 144.256909955,
			"0.001": 113.795861572,
			"0.002": 55.6076460224,
			"0.003": 16.3445390994,
			"0.004": 8.96103874968,
			"0.005": 4.33897288186,
			"0.006": 4.05140432627,
			"0.007": 3.59994019841,
			"0.008": 2.9093034337,
			"0.009": 3.2652335369,
			"0.01": 3.36511487736,
			"0.011": 3.9066515276,
			"0.012": 4.88012101095,
			"0.013": 1.9769777817,
			"0.014": 0.343831354918,
			"0.015": 0.0,
			"0.016": 0.0,
			"0.017": 0.0,
			"0.018": 0.0,
			"0.019": 0.0,
			"0.02": 0.0,
			"0.021": 0.0,
			"0.022": 0.0,
			"0.023": 0.0,
			"0.024": 0.0,
			"0.025": 0.0
		}
	}
}
