{
	 "smiles": "O=C1NC(CNCC2CCCO2)=NC2=C1C=CC=C2", 
	 "Tm": 403.15, 
	 "num_atms": 36, 
	 "gaussian": { 
		 "optdone": 1, 
		 "sigma_profile": "yes", 
		 "theory": "DFT", 
		 "functional": "B3LYP", 
		 "basiset": "6-31G**", 
		 "properties": { 
			 "R2extent": 7051.979, 
			 "electric_dipole_moment_norm": 2.52709645839, 
			 "electric_quadrupole_moment_norm": 16.0762305467, 
			 "total_energy": -858.459268966, 
			 "HOMO_LUMO_gap": 0.18821, 
			 "cosmo_polarized_energy": -16.93, 
			 "cosmo_cavitation_energy": 38.5, 
			 "cosmo_dispersion_energy": -27.65, 
			 "cosmo_repulsion_energy": 2.15, 
			 "cosmo_total_nonelectrostatic_energy": 13.0, 
			 "SMD_solvation_energy": 4.0 
		},
		"coords": [
			{
				"x": -0.1197119459,
				"y": 1.6739657598,
				"z": 4.3348314107,
				"element": "O" 
			},
			{
				"x": -0.2029840846,
				"y": 1.5646030696,
				"z": 3.1194688937,
				"element": "C" 
			},
			{
				"x": -0.1522060856,
				"y": 0.3016112656,
				"z": 2.5080802404,
				"element": "N" 
			},
			{
				"x": -0.2434971648,
				"y": 0.0834840217,
				"z": 1.1517285919,
				"element": "C" 
			},
			{
				"x": -0.2389622521,
				"y": -1.3719761734,
				"z": 0.6924116843,
				"element": "C" 
			},
			{
				"x": 0.0422896266,
				"y": -1.591473994,
				"z": -0.7091264047,
				"element": "N" 
			},
			{
				"x": 1.4328133734,
				"y": -1.3578292893,
				"z": -1.0987774119,
				"element": "C" 
			},
			{
				"x": 1.6382312385,
				"y": -1.7237436095,
				"z": -2.5673180827,
				"element": "C" 
			},
			{
				"x": 1.2490081643,
				"y": -3.1803039198,
				"z": -2.9456187014,
				"element": "C" 
			},
			{
				"x": 0.0697812138,
				"y": -3.0082835718,
				"z": -3.9230207813,
				"element": "C" 
			},
			{
				"x": 0.315533325,
				"y": -1.6001509927,
				"z": -4.4696344804,
				"element": "C" 
			},
			{
				"x": 0.8007838755,
				"y": -0.8595264126,
				"z": -3.3541017553,
				"element": "O" 
			},
			{
				"x": -0.3824547079,
				"y": 1.0350472255,
				"z": 0.2879850719,
				"element": "N" 
			},
			{
				"x": -0.4343939688,
				"y": 2.3399983534,
				"z": 0.7666506974,
				"element": "C" 
			},
			{
				"x": -0.3544712426,
				"y": 2.6516479141,
				"z": 2.1460108689,
				"element": "C" 
			},
			{
				"x": -0.4153845928,
				"y": 3.9846526822,
				"z": 2.5810222787,
				"element": "C" 
			},
			{
				"x": -0.5549659879,
				"y": 5.0082916692,
				"z": 1.6562355335,
				"element": "C" 
			},
			{
				"x": -0.6339665048,
				"y": 4.7063468357,
				"z": 0.2846947762,
				"element": "C" 
			},
			{
				"x": -0.5748202084,
				"y": 3.3931823069,
				"z": -0.1577119831,
				"element": "C" 
			},
			{
				"x": -0.0391516605,
				"y": -0.4777979381,
				"z": 3.1461947052,
				"element": "H" 
			},
			{
				"x": 0.4820341014,
				"y": -1.9373854727,
				"z": 1.2983892313,
				"element": "H" 
			},
			{
				"x": -1.2292031388,
				"y": -1.7885583401,
				"z": 0.930702503,
				"element": "H" 
			},
			{
				"x": -0.5360641274,
				"y": -0.9658344899,
				"z": -1.2660171981,
				"element": "H" 
			},
			{
				"x": 2.0829709397,
				"y": -1.9980957481,
				"z": -0.4875726189,
				"element": "H" 
			},
			{
				"x": 1.75446096,
				"y": -0.3156619138,
				"z": -0.9452033768,
				"element": "H" 
			},
			{
				"x": 2.6919148857,
				"y": -1.5326498313,
				"z": -2.8248160383,
				"element": "H" 
			},
			{
				"x": 2.0908677861,
				"y": -3.6842060101,
				"z": -3.4312267554,
				"element": "H" 
			},
			{
				"x": 0.9646025311,
				"y": -3.7578413176,
				"z": -2.0636297755,
				"element": "H" 
			},
			{
				"x": 0.0382124028,
				"y": -3.7733377186,
				"z": -4.7044249352,
				"element": "H" 
			},
			{
				"x": -0.8780384292,
				"y": -3.0316148458,
				"z": -3.3765833917,
				"element": "H" 
			},
			{
				"x": -0.5820429745,
				"y": -1.0970898202,
				"z": -4.8412848511,
				"element": "H" 
			},
			{
				"x": 1.0633484486,
				"y": -1.6173907173,
				"z": -5.2806374795,
				"element": "H" 
			},
			{
				"x": -0.3501326095,
				"y": 4.1806757038,
				"z": 3.6462847581,
				"element": "H" 
			},
			{
				"x": -0.6028393691,
				"y": 6.0409844194,
				"z": 1.9878814294,
				"element": "H" 
			},
			{
				"x": -0.7422796461,
				"y": 5.5110761018,
				"z": -0.4370888057,
				"element": "H" 
			},
			{
				"x": -0.6328821711,
				"y": 3.1430847978,
				"z": -1.2118778475,
				"element": "H" 
			}
		],
		 "valence_orbital": [ 
			{
				"type": "occ",
				"energy": -0.26463,
				"method": "rhf"
			},
			{
				"type": "occ",
				"energy": -0.259,
				"method": "rhf"
			},
			{
				"type": "occ",
				"energy": -0.24853,
				"method": "rhf"
			},
			{
				"type": "occ",
				"energy": -0.22999,
				"method": "rhf"
			},
			{
				"type": "occ",
				"energy": -0.22815,
				"method": "rhf"
			},
			{
				"type": "unocc",
				"energy": -0.03994,
				"method": "rhf"
			},
			{
				"type": "unocc",
				"energy": -0.03306,
				"method": "rhf"
			},
			{
				"type": "unocc",
				"energy": 0.0293,
				"method": "rhf"
			},
			{
				"type": "unocc",
				"energy": 0.07172,
				"method": "rhf"
			},
			{
				"type": "unocc",
				"energy": 0.07655,
				"method": "rhf"
			}
		],
		"cosmo_sigma_profile": { 
			"-0.025": 0.0,
			"-0.024": 0.0,
			"-0.023": 0.0,
			"-0.022": 0.0,
			"-0.021": 0.0,
			"-0.02": 0.0,
			"-0.019": 0.0,
			"-0.018": 0.0,
			"-0.017": 0.0,
			"-0.016": 0.706212152095,
			"-0.015": 1.30115940561,
			"-0.014": 1.62239845013,
			"-0.013": 1.22503510257,
			"-0.012": 1.1380702783,
			"-0.011": 1.05619512108,
			"-0.01": 1.09053705811,
			"-0.009": 1.42767338467,
			"-0.008": 1.41292153831,
			"-0.007": 3.93883259704,
			"-0.006": 13.3951732806,
			"-0.005": 15.1822981086,
			"-0.004": 20.8861083061,
			"-0.003": 32.9213850582,
			"-0.002": 38.1636572259,
			"-0.001": 29.8485343595,
			"0.0": 22.040276627,
			"0.001": 18.7956061094,
			"0.002": 17.0328617995,
			"0.003": 18.8367258011,
			"0.004": 14.3964206722,
			"0.005": 5.02243649118,
			"0.006": 4.98421825874,
			"0.007": 5.13402963068,
			"0.008": 5.04520256196,
			"0.009": 4.71197497477,
			"0.01": 4.41533194385,
			"0.011": 3.86185709924,
			"0.012": 4.90140643897,
			"0.013": 7.20713801058,
			"0.014": 1.61576127404,
			"0.015": 0.0897050467904,
			"0.016": 0.0,
			"0.017": 0.0,
			"0.018": 0.0,
			"0.019": 0.0,
			"0.02": 0.0,
			"0.021": 0.0,
			"0.022": 0.0,
			"0.023": 0.0,
			"0.024": 0.0,
			"0.025": 0.0
		}
	}
}
