{
	 "smiles": "COC1=CC(O)=CC(O)=C1", 
	 "Tm": 353.45, 
	 "num_atms": 18, 
	 "gaussian": { 
		 "optdone": 1, 
		 "sigma_profile": "yes", 
		 "theory": "DFT", 
		 "functional": "B3LYP", 
		 "basiset": "6-31G**", 
		 "properties": { 
			 "R2extent": 1982.9432, 
			 "electric_dipole_moment_norm": 2.5861008391, 
			 "electric_quadrupole_moment_norm": 13.7057242446, 
			 "total_energy": -497.215260556, 
			 "HOMO_LUMO_gap": 0.22888, 
			 "cosmo_polarized_energy": -14.47, 
			 "cosmo_cavitation_energy": 22.05, 
			 "cosmo_dispersion_energy": -16.65, 
			 "cosmo_repulsion_energy": 1.35, 
			 "cosmo_total_nonelectrostatic_energy": 6.75, 
			 "SMD_solvation_energy": 5.31 
		},
		"coords": [
			{
				"x": 1.8845629495,
				"y": -3.5202261303,
				"z": 0.755578506,
				"element": "C" 
			},
			{
				"x": 1.8322275412,
				"y": -2.4706578332,
				"z": -0.1954593082,
				"element": "O" 
			},
			{
				"x": 0.701485556,
				"y": -1.7096667125,
				"z": -0.2652867671,
				"element": "C" 
			},
			{
				"x": 0.722775715,
				"y": -0.6942810999,
				"z": -1.2261481202,
				"element": "C" 
			},
			{
				"x": -0.3924870366,
				"y": 0.1306441674,
				"z": -1.3645303476,
				"element": "C" 
			},
			{
				"x": -0.327175108,
				"y": 1.1086990337,
				"z": -2.315517534,
				"element": "O" 
			},
			{
				"x": -1.5260160804,
				"y": -0.0406255498,
				"z": -0.5616984876,
				"element": "C" 
			},
			{
				"x": -1.5251284981,
				"y": -1.0595216615,
				"z": 0.3898587182,
				"element": "C" 
			},
			{
				"x": -2.6512263534,
				"y": -1.1933539136,
				"z": 1.1534402939,
				"element": "O" 
			},
			{
				"x": -0.4200191803,
				"y": -1.9045609197,
				"z": 0.5528209906,
				"element": "C" 
			},
			{
				"x": 2.8638252008,
				"y": -3.9864767234,
				"z": 0.6360469078,
				"element": "H" 
			},
			{
				"x": 1.7890557154,
				"y": -3.1436470689,
				"z": 1.7824668904,
				"element": "H" 
			},
			{
				"x": 1.1046224289,
				"y": -4.2716349127,
				"z": 0.5752686727,
				"element": "H" 
			},
			{
				"x": 1.595179885,
				"y": -0.5539954584,
				"z": -1.8519923006,
				"element": "H" 
			},
			{
				"x": -1.1550950971,
				"y": 1.6058584935,
				"z": -2.3106526362,
				"element": "H" 
			},
			{
				"x": -2.3999742621,
				"y": 0.5958132786,
				"z": -0.6608158203,
				"element": "H" 
			},
			{
				"x": -2.5285676055,
				"y": -1.9268754141,
				"z": 1.7692864182,
				"element": "H" 
			},
			{
				"x": -0.4473457703,
				"y": -2.6886915751,
				"z": 1.3010339241,
				"element": "H" 
			}
		],
		 "valence_orbital": [ 
			{
				"type": "occ",
				"energy": -0.35089,
				"method": "rhf"
			},
			{
				"type": "occ",
				"energy": -0.32957,
				"method": "rhf"
			},
			{
				"type": "occ",
				"energy": -0.27783,
				"method": "rhf"
			},
			{
				"type": "occ",
				"energy": -0.21548,
				"method": "rhf"
			},
			{
				"type": "occ",
				"energy": -0.2079,
				"method": "rhf"
			},
			{
				"type": "unocc",
				"energy": 0.02098,
				"method": "rhf"
			},
			{
				"type": "unocc",
				"energy": 0.02492,
				"method": "rhf"
			},
			{
				"type": "unocc",
				"energy": 0.06784,
				"method": "rhf"
			},
			{
				"type": "unocc",
				"energy": 0.07612,
				"method": "rhf"
			},
			{
				"type": "unocc",
				"energy": 0.09815,
				"method": "rhf"
			}
		],
		"cosmo_sigma_profile": { 
			"-0.025": 0.0,
			"-0.024": 0.0,
			"-0.023": 0.0,
			"-0.022": 0.0,
			"-0.021": 0.0,
			"-0.02": 0.0,
			"-0.019": 0.0,
			"-0.018": 0.730631170189,
			"-0.017": 2.31566466553,
			"-0.016": 1.60623209401,
			"-0.015": 2.16621851964,
			"-0.014": 2.73013545316,
			"-0.013": 1.28810310563,
			"-0.012": 1.03855262921,
			"-0.011": 1.40485254152,
			"-0.01": 2.83835989544,
			"-0.009": 2.83621881776,
			"-0.008": 2.0361738316,
			"-0.007": 2.27403405091,
			"-0.006": 7.20876625569,
			"-0.005": 12.6509749619,
			"-0.004": 10.9651138631,
			"-0.003": 11.8351592085,
			"-0.002": 8.30088823677,
			"-0.001": 6.36345182214,
			"0.0": 5.90572576081,
			"0.001": 5.5086797485,
			"0.002": 6.46215535801,
			"0.003": 7.89431382476,
			"0.004": 12.6262393909,
			"0.005": 22.0360708391,
			"0.006": 8.74241248475,
			"0.007": 4.60361810414,
			"0.008": 4.99622648219,
			"0.009": 3.67586256847,
			"0.01": 5.21984250722,
			"0.011": 4.53733147969,
			"0.012": 1.73665712577,
			"0.013": 0.0,
			"0.014": 0.0,
			"0.015": 0.0,
			"0.016": 0.0,
			"0.017": 0.0,
			"0.018": 0.0,
			"0.019": 0.0,
			"0.02": 0.0,
			"0.021": 0.0,
			"0.022": 0.0,
			"0.023": 0.0,
			"0.024": 0.0,
			"0.025": 0.0
		}
	}
}
