{
	 "smiles": "CN1N=CC2=C1N=CN=C2NNC1=CC(=O)C2=CC=CC=C2C1=O", 
	 "Tm": 499.15, 
	 "num_atms": 36, 
	 "gaussian": { 
		 "optdone": 1, 
		 "sigma_profile": "yes", 
		 "theory": "DFT", 
		 "functional": "B3LYP", 
		 "basiset": "6-31G**", 
		 "properties": { 
			 "R2extent": 11184.6781, 
			 "electric_dipole_moment_norm": 1.77015882056, 
			 "electric_quadrupole_moment_norm": 21.6822179034, 
			 "total_energy": -1095.85489571, 
			 "HOMO_LUMO_gap": 0.12657, 
			 "cosmo_polarized_energy": -20.32, 
			 "cosmo_cavitation_energy": 42.16, 
			 "cosmo_dispersion_energy": -30.31, 
			 "cosmo_repulsion_energy": 2.25, 
			 "cosmo_total_nonelectrostatic_energy": 14.1, 
			 "SMD_solvation_energy": 5.12 
		},
		"coords": [
			{
				"x": -4.6027822655,
				"y": -4.8741993704,
				"z": 1.8641712571,
				"element": "C" 
			},
			{
				"x": -3.6393896743,
				"y": -4.2743532515,
				"z": 0.9615266015,
				"element": "N" 
			},
			{
				"x": -2.8135998114,
				"y": -5.0493021447,
				"z": 0.2040920153,
				"element": "N" 
			},
			{
				"x": -2.0573287145,
				"y": -4.2212967676,
				"z": -0.4995824728,
				"element": "C" 
			},
			{
				"x": -2.3829233717,
				"y": -2.8660311577,
				"z": -0.2100667853,
				"element": "C" 
			},
			{
				"x": -3.4165626179,
				"y": -2.9501191122,
				"z": 0.747614232,
				"element": "C" 
			},
			{
				"x": -4.0490083797,
				"y": -1.9153734212,
				"z": 1.3305158395,
				"element": "N" 
			},
			{
				"x": -3.5946421093,
				"y": -0.7443824065,
				"z": 0.9030190115,
				"element": "C" 
			},
			{
				"x": -2.6243500004,
				"y": -0.5013133895,
				"z": -0.0063248825,
				"element": "N" 
			},
			{
				"x": -2.0127769956,
				"y": -1.546458136,
				"z": -0.5613820496,
				"element": "C" 
			},
			{
				"x": -1.0062149309,
				"y": -1.3048228528,
				"z": -1.4765085295,
				"element": "N" 
			},
			{
				"x": -0.8173953827,
				"y": -0.0207748884,
				"z": -1.9658729731,
				"element": "N" 
			},
			{
				"x": 0.2416281939,
				"y": 0.7258248078,
				"z": -1.5048172677,
				"element": "C" 
			},
			{
				"x": 1.3428453169,
				"y": 0.246971442,
				"z": -0.8698149325,
				"element": "C" 
			},
			{
				"x": 2.453402628,
				"y": 1.1127098447,
				"z": -0.4834869061,
				"element": "C" 
			},
			{
				"x": 3.4480427471,
				"y": 0.6695839755,
				"z": 0.0890150637,
				"element": "O" 
			},
			{
				"x": 2.3476954639,
				"y": 2.5741463353,
				"z": -0.8108251568,
				"element": "C" 
			},
			{
				"x": 3.3915461179,
				"y": 3.4352319785,
				"z": -0.4691447802,
				"element": "C" 
			},
			{
				"x": 3.3008160641,
				"y": 4.7955744248,
				"z": -0.7658213597,
				"element": "C" 
			},
			{
				"x": 2.1649209784,
				"y": 5.3049025235,
				"z": -1.4045489709,
				"element": "C" 
			},
			{
				"x": 1.1172882138,
				"y": 4.4530036696,
				"z": -1.7478807821,
				"element": "C" 
			},
			{
				"x": 1.2058460086,
				"y": 3.0871930878,
				"z": -1.4540227393,
				"element": "C" 
			},
			{
				"x": 0.087977347,
				"y": 2.1879893643,
				"z": -1.8195943374,
				"element": "C" 
			},
			{
				"x": -0.9453979403,
				"y": 2.5846000981,
				"z": -2.3502751108,
				"element": "O" 
			},
			{
				"x": -4.0896187465,
				"y": -5.4878879598,
				"z": 2.6089043503,
				"element": "H" 
			},
			{
				"x": -5.1401438471,
				"y": -4.0641711503,
				"z": 2.3583618539,
				"element": "H" 
			},
			{
				"x": -5.3044655378,
				"y": -5.4989228346,
				"z": 1.3055998152,
				"element": "H" 
			},
			{
				"x": -1.3130199413,
				"y": -4.6254521566,
				"z": -1.172916052,
				"element": "H" 
			},
			{
				"x": -4.0604482321,
				"y": 0.1411864991,
				"z": 1.3297351417,
				"element": "H" 
			},
			{
				"x": -0.8172143815,
				"y": -2.0355125525,
				"z": -2.1504648714,
				"element": "H" 
			},
			{
				"x": -1.6628369332,
				"y": 0.5227765755,
				"z": -2.1240744772,
				"element": "H" 
			},
			{
				"x": 1.4369858859,
				"y": -0.8043120565,
				"z": -0.6225126016,
				"element": "H" 
			},
			{
				"x": 4.2598737963,
				"y": 3.0158517543,
				"z": 0.0279003145,
				"element": "H" 
			},
			{
				"x": 4.1157164228,
				"y": 5.4621207599,
				"z": -0.4984828922,
				"element": "H" 
			},
			{
				"x": 2.0984318792,
				"y": 6.3645267844,
				"z": -1.6325223277,
				"element": "H" 
			},
			{
				"x": 0.22450275,
				"y": 4.8219916836,
				"z": -2.2417122377,
				"element": "H" 
			}
		],
		 "valence_orbital": [ 
			{
				"type": "occ",
				"energy": -0.26753,
				"method": "rhf"
			},
			{
				"type": "occ",
				"energy": -0.26632,
				"method": "rhf"
			},
			{
				"type": "occ",
				"energy": -0.25081,
				"method": "rhf"
			},
			{
				"type": "occ",
				"energy": -0.24504,
				"method": "rhf"
			},
			{
				"type": "occ",
				"energy": -0.23209,
				"method": "rhf"
			},
			{
				"type": "unocc",
				"energy": -0.10552,
				"method": "rhf"
			},
			{
				"type": "unocc",
				"energy": -0.04678,
				"method": "rhf"
			},
			{
				"type": "unocc",
				"energy": -0.03672,
				"method": "rhf"
			},
			{
				"type": "unocc",
				"energy": -0.01009,
				"method": "rhf"
			},
			{
				"type": "unocc",
				"energy": -0.00601,
				"method": "rhf"
			}
		],
		"cosmo_sigma_profile": { 
			"-0.025": 0.0,
			"-0.024": 0.0,
			"-0.023": 0.0,
			"-0.022": 0.0,
			"-0.021": 0.0,
			"-0.02": 0.0,
			"-0.019": 0.0,
			"-0.018": 0.0,
			"-0.017": 0.0,
			"-0.016": 0.587532979254,
			"-0.015": 1.49901396846,
			"-0.014": 1.49897755174,
			"-0.013": 1.26711790817,
			"-0.012": 1.37260222945,
			"-0.011": 2.23352283834,
			"-0.01": 2.427483259,
			"-0.009": 2.75520933972,
			"-0.008": 4.28695653367,
			"-0.007": 10.6039579543,
			"-0.006": 18.4020221482,
			"-0.005": 22.2516789522,
			"-0.004": 22.2171238703,
			"-0.003": 23.9799077698,
			"-0.002": 21.8282512161,
			"-0.001": 24.4896965453,
			"0.0": 31.1800290875,
			"0.001": 31.78898893,
			"0.002": 28.2181867622,
			"0.003": 15.3873333528,
			"0.004": 9.78203130042,
			"0.005": 7.53400917764,
			"0.006": 7.19704001774,
			"0.007": 8.26271643619,
			"0.008": 6.76604084526,
			"0.009": 7.00076908646,
			"0.01": 7.02983304658,
			"0.011": 6.21674123373,
			"0.012": 6.44124439947,
			"0.013": 3.91623203887,
			"0.014": 1.40743805653,
			"0.015": 0.195831391535,
			"0.016": 0.0,
			"0.017": 0.0,
			"0.018": 0.0,
			"0.019": 0.0,
			"0.02": 0.0,
			"0.021": 0.0,
			"0.022": 0.0,
			"0.023": 0.0,
			"0.024": 0.0,
			"0.025": 0.0
		}
	}
}
