{
	 "smiles": "CC(Cl)C(=O)C1=CC=C(CCNC(C)=O)C=C1", 
	 "Tm": 360.15, 
	 "num_atms": 33, 
	 "gaussian": { 
		 "optdone": 1, 
		 "sigma_profile": "yes", 
		 "theory": "DFT", 
		 "functional": "B3LYP", 
		 "basiset": "6-31G**", 
		 "properties": { 
			 "R2extent": 7988.4368, 
			 "electric_dipole_moment_norm": 3.225811036, 
			 "electric_quadrupole_moment_norm": 25.4106222988, 
			 "total_energy": -1170.45250088, 
			 "HOMO_LUMO_gap": 0.17233, 
			 "cosmo_polarized_energy": -18.08, 
			 "cosmo_cavitation_energy": 38.62, 
			 "cosmo_dispersion_energy": -26.61, 
			 "cosmo_repulsion_energy": 2.1, 
			 "cosmo_total_nonelectrostatic_energy": 14.1, 
			 "SMD_solvation_energy": 7.0 
		},
		"coords": [
			{
				"x": -1.1900990569,
				"y": -5.2162645338,
				"z": 0.1434628274,
				"element": "C" 
			},
			{
				"x": -1.8526784809,
				"y": -3.8523990692,
				"z": 0.0842682935,
				"element": "C" 
			},
			{
				"x": -3.5106168806,
				"y": -3.9888241947,
				"z": -0.6989380847,
				"element": "Cl" 
			},
			{
				"x": -1.0368789646,
				"y": -2.8285439614,
				"z": -0.7307470498,
				"element": "C" 
			},
			{
				"x": -0.1320097594,
				"y": -3.2292943925,
				"z": -1.4449984441,
				"element": "O" 
			},
			{
				"x": -1.341975476,
				"y": -1.3722683656,
				"z": -0.6063171795,
				"element": "C" 
			},
			{
				"x": -2.3551971991,
				"y": -0.8543992124,
				"z": 0.2166679469,
				"element": "C" 
			},
			{
				"x": -2.5634327506,
				"y": 0.5198520828,
				"z": 0.2970631626,
				"element": "C" 
			},
			{
				"x": -1.7757283214,
				"y": 1.4186867063,
				"z": -0.4378502858,
				"element": "C" 
			},
			{
				"x": -1.9772204591,
				"y": 2.910166025,
				"z": -0.3057712724,
				"element": "C" 
			},
			{
				"x": -1.1847549709,
				"y": 3.5292677384,
				"z": 0.8701012239,
				"element": "C" 
			},
			{
				"x": 0.2557684954,
				"y": 3.4018419025,
				"z": 0.7344162661,
				"element": "N" 
			},
			{
				"x": 1.0323063268,
				"y": 4.4251806383,
				"z": 0.253939927,
				"element": "C" 
			},
			{
				"x": 2.5153249066,
				"y": 4.1123920412,
				"z": 0.1216805461,
				"element": "C" 
			},
			{
				"x": 0.5725156883,
				"y": 5.5222467269,
				"z": -0.0373642307,
				"element": "O" 
			},
			{
				"x": -0.7682673956,
				"y": 0.8939471331,
				"z": -1.2644384833,
				"element": "C" 
			},
			{
				"x": -0.5534862147,
				"y": -0.4769677038,
				"z": -1.3475837996,
				"element": "C" 
			},
			{
				"x": -0.229713945,
				"y": -5.1285811592,
				"z": 0.6621583957,
				"element": "H" 
			},
			{
				"x": -0.9959388645,
				"y": -5.5938020871,
				"z": -0.8612153014,
				"element": "H" 
			},
			{
				"x": -1.8206600739,
				"y": -5.923157484,
				"z": 0.6867382988,
				"element": "H" 
			},
			{
				"x": -2.0531608253,
				"y": -3.4680178913,
				"z": 1.0864948913,
				"element": "H" 
			},
			{
				"x": -3.0027591985,
				"y": -1.5169113162,
				"z": 0.7803750672,
				"element": "H" 
			},
			{
				"x": -3.3581193006,
				"y": 0.9024273352,
				"z": 0.9327140247,
				"element": "H" 
			},
			{
				"x": -1.6738133793,
				"y": 3.4188137069,
				"z": -1.2265885628,
				"element": "H" 
			},
			{
				"x": -3.0397614632,
				"y": 3.1296772734,
				"z": -0.1475326506,
				"element": "H" 
			},
			{
				"x": -1.3964084155,
				"y": 4.5992686944,
				"z": 0.9224740212,
				"element": "H" 
			},
			{
				"x": -1.4966227957,
				"y": 3.0665427305,
				"z": 1.8135092108,
				"element": "H" 
			},
			{
				"x": 0.6747718818,
				"y": 2.4958449478,
				"z": 0.8789438786,
				"element": "H" 
			},
			{
				"x": 2.7841917854,
				"y": 3.0962190815,
				"z": 0.4235711498,
				"element": "H" 
			},
			{
				"x": 2.816419659,
				"y": 4.2674115796,
				"z": -0.9179897887,
				"element": "H" 
			},
			{
				"x": 3.0779876562,
				"y": 4.8245283679,
				"z": 0.7313180347,
				"element": "H" 
			},
			{
				"x": -0.1570422955,
				"y": 1.5719846709,
				"z": -1.8539584384,
				"element": "H" 
			},
			{
				"x": 0.2222600872,
				"y": -0.8848680112,
				"z": -1.9869035946,
				"element": "H" 
			}
		],
		 "valence_orbital": [ 
			{
				"type": "occ",
				"energy": -0.26987,
				"method": "rhf"
			},
			{
				"type": "occ",
				"energy": -0.26598,
				"method": "rhf"
			},
			{
				"type": "occ",
				"energy": -0.26225,
				"method": "rhf"
			},
			{
				"type": "occ",
				"energy": -0.25361,
				"method": "rhf"
			},
			{
				"type": "occ",
				"energy": -0.24673,
				"method": "rhf"
			},
			{
				"type": "unocc",
				"energy": -0.0744,
				"method": "rhf"
			},
			{
				"type": "unocc",
				"energy": -0.02016,
				"method": "rhf"
			},
			{
				"type": "unocc",
				"energy": -0.00249,
				"method": "rhf"
			},
			{
				"type": "unocc",
				"energy": 0.02789,
				"method": "rhf"
			},
			{
				"type": "unocc",
				"energy": 0.04786,
				"method": "rhf"
			}
		],
		"cosmo_sigma_profile": { 
			"-0.025": 0.0,
			"-0.024": 0.0,
			"-0.023": 0.0,
			"-0.022": 0.0,
			"-0.021": 0.0,
			"-0.02": 0.0,
			"-0.019": 0.0,
			"-0.018": 0.0,
			"-0.017": 0.0,
			"-0.016": 0.0,
			"-0.015": 0.0,
			"-0.014": 0.0038176379605,
			"-0.013": 0.72746182956,
			"-0.012": 1.12397607498,
			"-0.011": 1.21121670115,
			"-0.01": 1.28307451769,
			"-0.009": 3.38079035282,
			"-0.008": 5.19514966966,
			"-0.007": 5.14012414504,
			"-0.006": 11.5791808594,
			"-0.005": 25.5301921186,
			"-0.004": 29.2015421724,
			"-0.003": 25.8157785006,
			"-0.002": 27.1340702917,
			"-0.001": 29.1558756773,
			"0.0": 18.6880957179,
			"0.001": 17.735604767,
			"0.002": 17.0287291877,
			"0.003": 19.2163781236,
			"0.004": 16.2079029538,
			"0.005": 12.4077523392,
			"0.006": 8.32265481925,
			"0.007": 2.28036242648,
			"0.008": 2.85920222274,
			"0.009": 4.03019455984,
			"0.01": 3.34854344765,
			"0.011": 5.29081967047,
			"0.012": 2.40571388693,
			"0.013": 2.17242017288,
			"0.014": 5.40521356551,
			"0.015": 2.66144771369,
			"0.016": 0.273991620346,
			"0.017": 0.0,
			"0.018": 0.0,
			"0.019": 0.0,
			"0.02": 0.0,
			"0.021": 0.0,
			"0.022": 0.0,
			"0.023": 0.0,
			"0.024": 0.0,
			"0.025": 0.0
		}
	}
}
