{
	 "smiles": "OC1=C(F)C(F)=C(F)C(F)=C1F", 
	 "Tm": 307.05, 
	 "num_atms": 13, 
	 "gaussian": { 
		 "optdone": 1, 
		 "sigma_profile": "yes", 
		 "theory": "DFT", 
		 "functional": "B3LYP", 
		 "basiset": "6-31G**", 
		 "properties": { 
			 "R2extent": 3579.283, 
			 "electric_dipole_moment_norm": 1.93144404268, 
			 "electric_quadrupole_moment_norm": 5.12117642442, 
			 "total_energy": -803.585092464, 
			 "HOMO_LUMO_gap": 0.22602, 
			 "cosmo_polarized_energy": -5.92, 
			 "cosmo_cavitation_energy": 20.85, 
			 "cosmo_dispersion_energy": -14.84, 
			 "cosmo_repulsion_energy": 1.08, 
			 "cosmo_total_nonelectrostatic_energy": 7.09, 
			 "SMD_solvation_energy": 6.52 
		},
		"coords": [
			{
				"x": 1.0533329738,
				"y": 0.5643238565,
				"z": -0.1813754834,
				"element": "O" 
			},
			{
				"x": -0.0159699978,
				"y": 0.7008599772,
				"z": -1.001772706,
				"element": "C" 
			},
			{
				"x": -0.580067863,
				"y": 1.9463326507,
				"z": -1.2875673034,
				"element": "C" 
			},
			{
				"x": -0.0207819061,
				"y": 3.0344396812,
				"z": -0.7132196055,
				"element": "F" 
			},
			{
				"x": -1.677500706,
				"y": 2.0802657309,
				"z": -2.1302286731,
				"element": "C" 
			},
			{
				"x": -2.1920961245,
				"y": 3.2883263516,
				"z": -2.3819084691,
				"element": "F" 
			},
			{
				"x": -2.2362834968,
				"y": 0.943230991,
				"z": -2.7102267415,
				"element": "C" 
			},
			{
				"x": -3.2927237367,
				"y": 1.0525248588,
				"z": -3.5238516242,
				"element": "F" 
			},
			{
				"x": -1.6875650417,
				"y": -0.3094346916,
				"z": -2.4374054399,
				"element": "C" 
			},
			{
				"x": -2.2216616575,
				"y": -1.4018233499,
				"z": -2.9924725306,
				"element": "F" 
			},
			{
				"x": -0.5874134382,
				"y": -0.4311240376,
				"z": -1.5910954885,
				"element": "C" 
			},
			{
				"x": -0.0754382105,
				"y": -1.6415448632,
				"z": -1.3417594347,
				"element": "F" 
			},
			{
				"x": 1.307269205,
				"y": 1.4461228447,
				"z": 0.1281835,
				"element": "H" 
			}
		],
		 "valence_orbital": [ 
			{
				"type": "occ",
				"energy": -0.40412,
				"method": "rhf"
			},
			{
				"type": "occ",
				"energy": -0.38207,
				"method": "rhf"
			},
			{
				"type": "occ",
				"energy": -0.33841,
				"method": "rhf"
			},
			{
				"type": "occ",
				"energy": -0.26138,
				"method": "rhf"
			},
			{
				"type": "occ",
				"energy": -0.24646,
				"method": "rhf"
			},
			{
				"type": "unocc",
				"energy": -0.02044,
				"method": "rhf"
			},
			{
				"type": "unocc",
				"energy": -0.01544,
				"method": "rhf"
			},
			{
				"type": "unocc",
				"energy": -0.00445,
				"method": "rhf"
			},
			{
				"type": "unocc",
				"energy": 0.068,
				"method": "rhf"
			},
			{
				"type": "unocc",
				"energy": 0.10074,
				"method": "rhf"
			}
		],
		"cosmo_sigma_profile": { 
			"-0.025": 0.0,
			"-0.024": 0.0,
			"-0.023": 0.0,
			"-0.022": 0.0,
			"-0.021": 0.0,
			"-0.02": 0.0,
			"-0.019": 0.0342816084039,
			"-0.018": 0.505261859914,
			"-0.017": 0.834006712365,
			"-0.016": 0.359867621549,
			"-0.015": 0.95078650683,
			"-0.014": 0.821474069116,
			"-0.013": 0.815422930056,
			"-0.012": 0.901425210968,
			"-0.011": 1.3070081441,
			"-0.01": 0.903251874813,
			"-0.009": 0.639797753179,
			"-0.008": 1.00446078476,
			"-0.007": 1.11691961463,
			"-0.006": 1.70858768403,
			"-0.005": 1.84326446383,
			"-0.004": 4.13886222658,
			"-0.003": 23.2417259767,
			"-0.002": 15.2102490217,
			"-0.001": 9.97523959482,
			"0.0": 9.43354128907,
			"0.001": 11.2869996683,
			"0.002": 33.7995872618,
			"0.003": 36.2217609745,
			"0.004": 2.966785508,
			"0.005": 1.83499234849,
			"0.006": 1.77617925044,
			"0.007": 1.60787858232,
			"0.008": 2.15876323169,
			"0.009": 1.77660557505,
			"0.01": 0.255069460081,
			"0.011": 0.0,
			"0.012": 0.0,
			"0.013": 0.0,
			"0.014": 0.0,
			"0.015": 0.0,
			"0.016": 0.0,
			"0.017": 0.0,
			"0.018": 0.0,
			"0.019": 0.0,
			"0.02": 0.0,
			"0.021": 0.0,
			"0.022": 0.0,
			"0.023": 0.0,
			"0.024": 0.0,
			"0.025": 0.0
		}
	}
}
