{
	 "smiles": "NC1=NN(C=N1)C1=NC=CC=C1", 
	 "Tm": 448.15, 
	 "num_atms": 19, 
	 "gaussian": { 
		 "optdone": 1, 
		 "sigma_profile": "yes", 
		 "theory": "DFT", 
		 "functional": "B3LYP", 
		 "basiset": "6-31G**", 
		 "properties": { 
			 "R2extent": 2439.6015, 
			 "electric_dipole_moment_norm": 2.61635798392, 
			 "electric_quadrupole_moment_norm": 12.0331465295, 
			 "total_energy": -544.712151981, 
			 "HOMO_LUMO_gap": 0.17225, 
			 "cosmo_polarized_energy": -12.13, 
			 "cosmo_cavitation_energy": 23.93, 
			 "cosmo_dispersion_energy": -18.15, 
			 "cosmo_repulsion_energy": 1.44, 
			 "cosmo_total_nonelectrostatic_energy": 7.22, 
			 "SMD_solvation_energy": 0.97 
		},
		"coords": [
			{
				"x": -4.3813652158,
				"y": 0.912974126,
				"z": -1.0085487246,
				"element": "N" 
			},
			{
				"x": -3.0193954497,
				"y": 0.7602093075,
				"z": -1.1327089005,
				"element": "C" 
			},
			{
				"x": -2.1914866488,
				"y": 0.76287913,
				"z": -0.0966733266,
				"element": "N" 
			},
			{
				"x": -0.9811798895,
				"y": 0.5177463138,
				"z": -0.7054655434,
				"element": "N" 
			},
			{
				"x": -1.1636186346,
				"y": 0.3945095249,
				"z": -2.0457254315,
				"element": "C" 
			},
			{
				"x": -2.4348136984,
				"y": 0.5413514649,
				"z": -2.3569032851,
				"element": "N" 
			},
			{
				"x": 0.2169660208,
				"y": 0.4273405802,
				"z": 0.0294528378,
				"element": "C" 
			},
			{
				"x": 1.3164178735,
				"y": 0.2038529968,
				"z": -0.6926496231,
				"element": "N" 
			},
			{
				"x": 2.4750132592,
				"y": 0.1110923908,
				"z": -0.0300877801,
				"element": "C" 
			},
			{
				"x": 2.5848344666,
				"y": 0.235839923,
				"z": 1.3538721498,
				"element": "C" 
			},
			{
				"x": 1.4181128829,
				"y": 0.4698168623,
				"z": 2.0863797353,
				"element": "C" 
			},
			{
				"x": 0.2004485072,
				"y": 0.5697019003,
				"z": 1.4226148793,
				"element": "C" 
			},
			{
				"x": -4.6814105909,
				"y": 1.3817773558,
				"z": -0.1659434048,
				"element": "H" 
			},
			{
				"x": -4.8309703084,
				"y": 1.2425849242,
				"z": -1.850514875,
				"element": "H" 
			},
			{
				"x": -0.34476443,
				"y": 0.2032640949,
				"z": -2.7217755596,
				"element": "H" 
			},
			{
				"x": 3.356157411,
				"y": -0.0719729263,
				"z": -0.6417518177,
				"element": "H" 
			},
			{
				"x": 3.5512984603,
				"y": 0.1519292545,
				"z": 1.8390652611,
				"element": "H" 
			},
			{
				"x": 1.4555647356,
				"y": 0.5730680527,
				"z": 3.1668868478,
				"element": "H" 
			},
			{
				"x": -0.7358087511,
				"y": 0.7483347237,
				"z": 1.9348765608,
				"element": "H" 
			}
		],
		 "valence_orbital": [ 
			{
				"type": "occ",
				"energy": -0.29325,
				"method": "rhf"
			},
			{
				"type": "occ",
				"energy": -0.27736,
				"method": "rhf"
			},
			{
				"type": "occ",
				"energy": -0.2711,
				"method": "rhf"
			},
			{
				"type": "occ",
				"energy": -0.25951,
				"method": "rhf"
			},
			{
				"type": "occ",
				"energy": -0.21148,
				"method": "rhf"
			},
			{
				"type": "unocc",
				"energy": -0.03923,
				"method": "rhf"
			},
			{
				"type": "unocc",
				"energy": -0.02518,
				"method": "rhf"
			},
			{
				"type": "unocc",
				"energy": 0.03784,
				"method": "rhf"
			},
			{
				"type": "unocc",
				"energy": 0.07332,
				"method": "rhf"
			},
			{
				"type": "unocc",
				"energy": 0.09434,
				"method": "rhf"
			}
		],
		"cosmo_sigma_profile": { 
			"-0.025": 0.0,
			"-0.024": 0.0,
			"-0.023": 0.0,
			"-0.022": 0.0,
			"-0.021": 0.0,
			"-0.02": 0.0,
			"-0.019": 0.0,
			"-0.018": 0.0,
			"-0.017": 0.0,
			"-0.016": 0.0,
			"-0.015": 0.0,
			"-0.014": 0.447580673803,
			"-0.013": 2.1818203019,
			"-0.012": 2.5615145728,
			"-0.011": 2.18994473495,
			"-0.01": 2.37620891683,
			"-0.009": 3.35023770586,
			"-0.008": 2.89258260639,
			"-0.007": 8.39545863858,
			"-0.006": 12.4135425097,
			"-0.005": 10.744769706,
			"-0.004": 8.29969179021,
			"-0.003": 7.93316021496,
			"-0.002": 9.06520172851,
			"-0.001": 15.0204525983,
			"0.0": 15.4894363339,
			"0.001": 16.8907311256,
			"0.002": 17.475983676,
			"0.003": 10.1115837791,
			"0.004": 5.4443590931,
			"0.005": 6.15146371881,
			"0.006": 5.91021514629,
			"0.007": 4.38940219111,
			"0.008": 4.31227775323,
			"0.009": 3.75174241866,
			"0.01": 4.90078435771,
			"0.011": 3.61601159696,
			"0.012": 2.34887833682,
			"0.013": 1.17287611602,
			"0.014": 1.17409602246,
			"0.015": 0.94642336517,
			"0.016": 0.594330593095,
			"0.017": 0.0232503292045,
			"0.018": 0.0,
			"0.019": 0.0,
			"0.02": 0.0,
			"0.021": 0.0,
			"0.022": 0.0,
			"0.023": 0.0,
			"0.024": 0.0,
			"0.025": 0.0
		}
	}
}
