{
	 "smiles": "CC1=CC=CC(C)=C1N(CN1C=CC=N1)C(=O)CCl", 
	 "Tm": 358.15, 
	 "num_atms": 35, 
	 "gaussian": { 
		 "optdone": 1, 
		 "sigma_profile": "yes", 
		 "theory": "DFT", 
		 "functional": "B3LYP", 
		 "basiset": "6-31G**", 
		 "properties": { 
			 "R2extent": 5653.1046, 
			 "electric_dipole_moment_norm": 4.1797487257, 
			 "electric_quadrupole_moment_norm": 12.1669954964, 
			 "total_energy": -1242.79630222, 
			 "HOMO_LUMO_gap": 0.21474, 
			 "cosmo_polarized_energy": -13.74, 
			 "cosmo_cavitation_energy": 38.55, 
			 "cosmo_dispersion_energy": -25.86, 
			 "cosmo_repulsion_energy": 1.98, 
			 "cosmo_total_nonelectrostatic_energy": 14.68, 
			 "SMD_solvation_energy": 7.11 
		},
		"coords": [
			{
				"x": 1.9590575587,
				"y": 2.3879517717,
				"z": 0.0182845775,
				"element": "C" 
			},
			{
				"x": 1.8202308665,
				"y": 1.0278368782,
				"z": -0.6195261298,
				"element": "C" 
			},
			{
				"x": 2.5181531689,
				"y": 0.7327999118,
				"z": -1.7969162097,
				"element": "C" 
			},
			{
				"x": 2.4512289857,
				"y": -0.5310288046,
				"z": -2.3782916709,
				"element": "C" 
			},
			{
				"x": 1.6916682291,
				"y": -1.5323073939,
				"z": -1.7786710551,
				"element": "C" 
			},
			{
				"x": 0.9776449643,
				"y": -1.2839117759,
				"z": -0.6006128048,
				"element": "C" 
			},
			{
				"x": 0.1852336663,
				"y": -2.3947199278,
				"z": 0.0496154088,
				"element": "C" 
			},
			{
				"x": 1.0378056741,
				"y": 0.0082500114,
				"z": -0.0432737577,
				"element": "C" 
			},
			{
				"x": 0.2508013654,
				"y": 0.2824766459,
				"z": 1.1392338512,
				"element": "N" 
			},
			{
				"x": -1.1788550052,
				"y": 0.4905555195,
				"z": 0.9527236896,
				"element": "C" 
			},
			{
				"x": -1.5427411428,
				"y": 1.8450159113,
				"z": 0.559752916,
				"element": "N" 
			},
			{
				"x": -1.77503519,
				"y": 2.3268875844,
				"z": -0.6930803707,
				"element": "C" 
			},
			{
				"x": -2.0042186682,
				"y": 3.6820858154,
				"z": -0.5632570218,
				"element": "C" 
			},
			{
				"x": -1.880021866,
				"y": 3.9295226086,
				"z": 0.8224474231,
				"element": "C" 
			},
			{
				"x": -1.5978779996,
				"y": 2.8180044519,
				"z": 1.5008477066,
				"element": "N" 
			},
			{
				"x": 0.8988732655,
				"y": 0.4404455561,
				"z": 2.3530741717,
				"element": "C" 
			},
			{
				"x": 2.1103767356,
				"y": 0.3356064249,
				"z": 2.4592241396,
				"element": "O" 
			},
			{
				"x": 0.0570898154,
				"y": 0.7806962426,
				"z": 3.5845865412,
				"element": "C" 
			},
			{
				"x": -0.8969810391,
				"y": -0.6541441312,
				"z": 4.1800615946,
				"element": "Cl" 
			},
			{
				"x": 1.0049343412,
				"y": 2.7791703909,
				"z": 0.3800955039,
				"element": "H" 
			},
			{
				"x": 2.3757709024,
				"y": 3.1065900896,
				"z": -0.6920799402,
				"element": "H" 
			},
			{
				"x": 2.6321476825,
				"y": 2.3273267082,
				"z": 0.8804328972,
				"element": "H" 
			},
			{
				"x": 3.1244051369,
				"y": 1.5090283304,
				"z": -2.255918726,
				"element": "H" 
			},
			{
				"x": 3.0007731251,
				"y": -0.738838661,
				"z": -3.2920185219,
				"element": "H" 
			},
			{
				"x": 1.6573300151,
				"y": -2.5258398943,
				"z": -2.2175896408,
				"element": "H" 
			},
			{
				"x": 0.2793302974,
				"y": -2.3749259542,
				"z": 1.1385971651,
				"element": "H" 
			},
			{
				"x": -0.8863027471,
				"y": -2.3339537895,
				"z": -0.1827563808,
				"element": "H" 
			},
			{
				"x": 0.5315817739,
				"y": -3.3683201303,
				"z": -0.3064584076,
				"element": "H" 
			},
			{
				"x": -1.7188833537,
				"y": 0.2508810048,
				"z": 1.8667953819,
				"element": "H" 
			},
			{
				"x": -1.5273660894,
				"y": -0.176120145,
				"z": 0.1632604899,
				"element": "H" 
			},
			{
				"x": -1.756580648,
				"y": 1.6794840321,
				"z": -1.5575946009,
				"element": "H" 
			},
			{
				"x": -2.2347836299,
				"y": 4.3854489282,
				"z": -1.3490250392,
				"element": "H" 
			},
			{
				"x": -1.9926759547,
				"y": 4.8658220545,
				"z": 1.3527761228,
				"element": "H" 
			},
			{
				"x": 0.7534643857,
				"y": 1.0385463119,
				"z": 4.3785978086,
				"element": "H" 
			},
			{
				"x": -0.6485786218,
				"y": 1.5919774234,
				"z": 3.3993628885,
				"element": "H" 
			}
		],
		 "valence_orbital": [ 
			{
				"type": "occ",
				"energy": -0.26611,
				"method": "rhf"
			},
			{
				"type": "occ",
				"energy": -0.2596,
				"method": "rhf"
			},
			{
				"type": "occ",
				"energy": -0.25664,
				"method": "rhf"
			},
			{
				"type": "occ",
				"energy": -0.24355,
				"method": "rhf"
			},
			{
				"type": "occ",
				"energy": -0.2412,
				"method": "rhf"
			},
			{
				"type": "unocc",
				"energy": -0.02646,
				"method": "rhf"
			},
			{
				"type": "unocc",
				"energy": -0.01046,
				"method": "rhf"
			},
			{
				"type": "unocc",
				"energy": -0.00235,
				"method": "rhf"
			},
			{
				"type": "unocc",
				"energy": 0.00587,
				"method": "rhf"
			},
			{
				"type": "unocc",
				"energy": 0.05333,
				"method": "rhf"
			}
		],
		"cosmo_sigma_profile": { 
			"-0.025": 0.0,
			"-0.024": 0.0,
			"-0.023": 0.0,
			"-0.022": 0.0,
			"-0.021": 0.0,
			"-0.02": 0.0,
			"-0.019": 0.0,
			"-0.018": 0.0,
			"-0.017": 0.0,
			"-0.016": 0.0,
			"-0.015": 0.0,
			"-0.014": 0.0,
			"-0.013": 0.0,
			"-0.012": 0.0,
			"-0.011": 0.136229270609,
			"-0.01": 1.14895486104,
			"-0.009": 3.66472338459,
			"-0.008": 6.15026488428,
			"-0.007": 8.26243750066,
			"-0.006": 13.237674836,
			"-0.005": 20.865624227,
			"-0.004": 23.3671138718,
			"-0.003": 22.06212347,
			"-0.002": 23.8714522084,
			"-0.001": 26.7178521748,
			"0.0": 26.2453363765,
			"0.001": 23.5897678124,
			"0.002": 20.7948111168,
			"0.003": 20.0221024882,
			"0.004": 18.4617147067,
			"0.005": 19.2238914578,
			"0.006": 9.538326726,
			"0.007": 3.56535786699,
			"0.008": 2.82090289472,
			"0.009": 2.09463985224,
			"0.01": 2.98438429656,
			"0.011": 2.80347495562,
			"0.012": 4.18596360142,
			"0.013": 2.97299887641,
			"0.014": 0.110594105375,
			"0.015": 0.0,
			"0.016": 0.0,
			"0.017": 0.0,
			"0.018": 0.0,
			"0.019": 0.0,
			"0.02": 0.0,
			"0.021": 0.0,
			"0.022": 0.0,
			"0.023": 0.0,
			"0.024": 0.0,
			"0.025": 0.0
		}
	}
}
