{
	 "smiles": "CC1=C(C=CC(Cl)=N1)C(O)=O", 
	 "Tm": 423.15, 
	 "num_atms": 17, 
	 "gaussian": { 
		 "optdone": 1, 
		 "sigma_profile": "yes", 
		 "theory": "DFT", 
		 "functional": "B3LYP", 
		 "basiset": "6-31G**", 
		 "properties": { 
			 "R2extent": 2298.1922, 
			 "electric_dipole_moment_norm": 1.97096246793, 
			 "electric_quadrupole_moment_norm": 12.6038113521, 
			 "total_energy": -935.772342235, 
			 "HOMO_LUMO_gap": 0.19848, 
			 "cosmo_polarized_energy": -9.9, 
			 "cosmo_cavitation_energy": 23.47, 
			 "cosmo_dispersion_energy": -17.66, 
			 "cosmo_repulsion_energy": 1.43, 
			 "cosmo_total_nonelectrostatic_energy": 7.24, 
			 "SMD_solvation_energy": 3.87 
		},
		"coords": [
			{
				"x": -2.1970628731,
				"y": -0.3883696659,
				"z": 1.4271078425,
				"element": "C" 
			},
			{
				"x": -0.8644924236,
				"y": -0.3066339166,
				"z": 0.7263476906,
				"element": "C" 
			},
			{
				"x": -0.4502941309,
				"y": 0.7536774207,
				"z": -0.1137465251,
				"element": "C" 
			},
			{
				"x": 0.8254876339,
				"y": 0.6843344808,
				"z": -0.6960621802,
				"element": "C" 
			},
			{
				"x": 1.6536832447,
				"y": -0.3980613018,
				"z": -0.4503474459,
				"element": "C" 
			},
			{
				"x": 1.1421553684,
				"y": -1.3857910149,
				"z": 0.3938109299,
				"element": "C" 
			},
			{
				"x": 2.1414223918,
				"y": -2.7900030556,
				"z": 0.7492836702,
				"element": "Cl" 
			},
			{
				"x": -0.0490229467,
				"y": -1.3539374089,
				"z": 0.9572231529,
				"element": "N" 
			},
			{
				"x": -1.2387423483,
				"y": 1.9703981145,
				"z": -0.4596965123,
				"element": "C" 
			},
			{
				"x": -2.4668883376,
				"y": 2.0305726721,
				"z": 0.1055078575,
				"element": "O" 
			},
			{
				"x": -0.8307240198,
				"y": 2.8528857425,
				"z": -1.1903463478,
				"element": "O" 
			},
			{
				"x": -3.024903395,
				"y": -0.3717688565,
				"z": 0.7130653345,
				"element": "H" 
			},
			{
				"x": -2.2264084707,
				"y": -1.3155752558,
				"z": 1.9996747207,
				"element": "H" 
			},
			{
				"x": -2.3481062509,
				"y": 0.4619291362,
				"z": 2.0976154983,
				"element": "H" 
			},
			{
				"x": 1.1396199272,
				"y": 1.4989947641,
				"z": -1.3395715283,
				"element": "H" 
			},
			{
				"x": 2.6425454441,
				"y": -0.4820181574,
				"z": -0.8835821242,
				"element": "H" 
			},
			{
				"x": -2.8546688134,
				"y": 2.8655663025,
				"z": -0.2068840333,
				"element": "H" 
			}
		],
		 "valence_orbital": [ 
			{
				"type": "occ",
				"energy": -0.32011,
				"method": "rhf"
			},
			{
				"type": "occ",
				"energy": -0.30278,
				"method": "rhf"
			},
			{
				"type": "occ",
				"energy": -0.29825,
				"method": "rhf"
			},
			{
				"type": "occ",
				"energy": -0.27633,
				"method": "rhf"
			},
			{
				"type": "occ",
				"energy": -0.26571,
				"method": "rhf"
			},
			{
				"type": "unocc",
				"energy": -0.06723,
				"method": "rhf"
			},
			{
				"type": "unocc",
				"energy": -0.03881,
				"method": "rhf"
			},
			{
				"type": "unocc",
				"energy": 0.02848,
				"method": "rhf"
			},
			{
				"type": "unocc",
				"energy": 0.03489,
				"method": "rhf"
			},
			{
				"type": "unocc",
				"energy": 0.06836,
				"method": "rhf"
			}
		],
		"cosmo_sigma_profile": { 
			"-0.025": 0.0,
			"-0.024": 0.0,
			"-0.023": 0.0,
			"-0.022": 0.0,
			"-0.021": 0.0,
			"-0.02": 0.0,
			"-0.019": 0.221876222751,
			"-0.018": 0.85582973641,
			"-0.017": 0.879340239805,
			"-0.016": 0.638986237403,
			"-0.015": 1.28563496978,
			"-0.014": 0.614526325076,
			"-0.013": 0.153496577372,
			"-0.012": 0.486415069775,
			"-0.011": 1.26286435964,
			"-0.01": 0.569233535531,
			"-0.009": 1.12576433189,
			"-0.008": 3.14485256294,
			"-0.007": 4.6002017666,
			"-0.006": 4.36531715696,
			"-0.005": 5.4735497263,
			"-0.004": 10.96598579,
			"-0.003": 13.5893503362,
			"-0.002": 17.7493909299,
			"-0.001": 26.9011838349,
			"0.0": 19.7457941202,
			"0.001": 10.8457614114,
			"0.002": 9.6285531311,
			"0.003": 11.5723758804,
			"0.004": 13.8126069623,
			"0.005": 5.80302194837,
			"0.006": 3.74737209614,
			"0.007": 2.13818762075,
			"0.008": 3.83946277934,
			"0.009": 2.46698810787,
			"0.01": 3.25158691524,
			"0.011": 5.06283811884,
			"0.012": 2.88006553978,
			"0.013": 0.459311089288,
			"0.014": 0.0559238787614,
			"0.015": 0.0,
			"0.016": 0.0,
			"0.017": 0.0,
			"0.018": 0.0,
			"0.019": 0.0,
			"0.02": 0.0,
			"0.021": 0.0,
			"0.022": 0.0,
			"0.023": 0.0,
			"0.024": 0.0,
			"0.025": 0.0
		}
	}
}
