{
	 "smiles": "CCCCC(O)CCC", 
	 "Tm": 232.25, 
	 "num_atms": 27, 
	 "gaussian": { 
		 "optdone": 1, 
		 "sigma_profile": "yes", 
		 "theory": "DFT", 
		 "functional": "B3LYP", 
		 "basiset": "6-31G**", 
		 "properties": { 
			 "R2extent": 1785.8849, 
			 "electric_dipole_moment_norm": 1.51540860826, 
			 "electric_quadrupole_moment_norm": 4.37743619828, 
			 "total_energy": -390.934823603, 
			 "HOMO_LUMO_gap": 0.32183, 
			 "cosmo_polarized_energy": -5.58, 
			 "cosmo_cavitation_energy": 26.9, 
			 "cosmo_dispersion_energy": -19.14, 
			 "cosmo_repulsion_energy": 1.59, 
			 "cosmo_total_nonelectrostatic_energy": 9.35, 
			 "SMD_solvation_energy": 4.18 
		},
		"coords": [
			{
				"x": 1.2691339112,
				"y": -0.4383593938,
				"z": 3.059476744,
				"element": "C" 
			},
			{
				"x": 1.3141041075,
				"y": -1.0676463209,
				"z": 1.6620653054,
				"element": "C" 
			},
			{
				"x": -0.0603083307,
				"y": -1.2113177923,
				"z": 0.9819670131,
				"element": "C" 
			},
			{
				"x": -0.827823701,
				"y": 0.0970691379,
				"z": 0.720648231,
				"element": "C" 
			},
			{
				"x": -0.1396327001,
				"y": 1.1190221913,
				"z": -0.1991674508,
				"element": "C" 
			},
			{
				"x": -0.9369689427,
				"y": 2.3044343704,
				"z": -0.3009608716,
				"element": "O" 
			},
			{
				"x": 0.1300227697,
				"y": 0.6691674675,
				"z": -1.6438976983,
				"element": "C" 
			},
			{
				"x": -1.1117533833,
				"y": 0.3442774923,
				"z": -2.502245908,
				"element": "C" 
			},
			{
				"x": -1.5668428588,
				"y": -1.1210029324,
				"z": -2.4832834296,
				"element": "C" 
			},
			{
				"x": 2.2625063673,
				"y": -0.4314863204,
				"z": 3.519865632,
				"element": "H" 
			},
			{
				"x": 0.5992366089,
				"y": -0.9974584159,
				"z": 3.7233424664,
				"element": "H" 
			},
			{
				"x": 0.9163353446,
				"y": 0.598106544,
				"z": 3.032184178,
				"element": "H" 
			},
			{
				"x": 1.7610787535,
				"y": -2.0671305863,
				"z": 1.7371749512,
				"element": "H" 
			},
			{
				"x": 1.9915002533,
				"y": -0.4874904742,
				"z": 1.0225910301,
				"element": "H" 
			},
			{
				"x": -0.6923346049,
				"y": -1.8563768696,
				"z": 1.6074520752,
				"element": "H" 
			},
			{
				"x": 0.0704043428,
				"y": -1.7496865605,
				"z": 0.0356255262,
				"element": "H" 
			},
			{
				"x": -1.0203714167,
				"y": 0.5958561066,
				"z": 1.6823589478,
				"element": "H" 
			},
			{
				"x": -1.8154668309,
				"y": -0.1341332661,
				"z": 0.3058130146,
				"element": "H" 
			},
			{
				"x": 0.8375987175,
				"y": 1.3789444584,
				"z": 0.2418416519,
				"element": "H" 
			},
			{
				"x": -1.1657077842,
				"y": 2.5852274389,
				"z": 0.5942866076,
				"element": "H" 
			},
			{
				"x": 0.6736649639,
				"y": 1.4968987268,
				"z": -2.1137821797,
				"element": "H" 
			},
			{
				"x": 0.8218159784,
				"y": -0.1829242483,
				"z": -1.6327586358,
				"element": "H" 
			},
			{
				"x": -1.9312909124,
				"y": 1.0022208775,
				"z": -2.1932127015,
				"element": "H" 
			},
			{
				"x": -0.8874352674,
				"y": 0.6140567822,
				"z": -3.5414818576,
				"element": "H" 
			},
			{
				"x": -1.8826489865,
				"y": -1.4500280072,
				"z": -1.4887580932,
				"element": "H" 
			},
			{
				"x": -0.7603615652,
				"y": -1.7886259227,
				"z": -2.8095603653,
				"element": "H" 
			},
			{
				"x": -2.4138548339,
				"y": -1.2745144834,
				"z": -3.1609841832,
				"element": "H" 
			}
		],
		 "valence_orbital": [ 
			{
				"type": "occ",
				"energy": -0.3268,
				"method": "rhf"
			},
			{
				"type": "occ",
				"energy": -0.31571,
				"method": "rhf"
			},
			{
				"type": "occ",
				"energy": -0.31205,
				"method": "rhf"
			},
			{
				"type": "occ",
				"energy": -0.30019,
				"method": "rhf"
			},
			{
				"type": "occ",
				"energy": -0.25501,
				"method": "rhf"
			},
			{
				"type": "unocc",
				"energy": 0.06682,
				"method": "rhf"
			},
			{
				"type": "unocc",
				"energy": 0.08985,
				"method": "rhf"
			},
			{
				"type": "unocc",
				"energy": 0.10312,
				"method": "rhf"
			},
			{
				"type": "unocc",
				"energy": 0.1112,
				"method": "rhf"
			},
			{
				"type": "unocc",
				"energy": 0.12598,
				"method": "rhf"
			}
		],
		"cosmo_sigma_profile": { 
			"-0.025": 0.0,
			"-0.024": 0.0,
			"-0.023": 0.0,
			"-0.022": 0.0,
			"-0.021": 0.0,
			"-0.02": 0.0,
			"-0.019": 0.0,
			"-0.018": 0.0,
			"-0.017": 0.0,
			"-0.016": 0.0,
			"-0.015": 0.112210257641,
			"-0.014": 0.924703676847,
			"-0.013": 0.903530998058,
			"-0.012": 0.771430386022,
			"-0.011": 1.05607159157,
			"-0.01": 1.40460284615,
			"-0.009": 0.769078118456,
			"-0.008": 0.474434519052,
			"-0.007": 1.34300567761,
			"-0.006": 0.723466831069,
			"-0.005": 1.19084951507,
			"-0.004": 1.58995611616,
			"-0.003": 8.70382776222,
			"-0.002": 34.4212441131,
			"-0.001": 37.8797912185,
			"0.0": 41.3189797132,
			"0.001": 35.8801709161,
			"0.002": 16.4118532246,
			"0.003": 2.8695270423,
			"0.004": 2.16665073368,
			"0.005": 1.52560226488,
			"0.006": 1.24624047671,
			"0.007": 1.77234557067,
			"0.008": 1.07281246937,
			"0.009": 1.18665742023,
			"0.01": 2.38230069989,
			"0.011": 1.20178370753,
			"0.012": 0.776495342898,
			"0.013": 1.55820558787,
			"0.014": 1.14600957084,
			"0.015": 1.00757863494,
			"0.016": 0.0149562947746,
			"0.017": 0.0,
			"0.018": 0.0,
			"0.019": 0.0,
			"0.02": 0.0,
			"0.021": 0.0,
			"0.022": 0.0,
			"0.023": 0.0,
			"0.024": 0.0,
			"0.025": 0.0
		}
	}
}
