{
	 "smiles": "CC1=C2N=CC(C)=C(N)N2N=C1", 
	 "Tm": 513.15, 
	 "num_atms": 22, 
	 "gaussian": { 
		 "optdone": 1, 
		 "sigma_profile": "yes", 
		 "theory": "DFT", 
		 "functional": "B3LYP", 
		 "basiset": "6-31G**", 
		 "properties": { 
			 "R2extent": 2181.1428, 
			 "electric_dipole_moment_norm": 3.3939542189, 
			 "electric_quadrupole_moment_norm": 9.06568637777, 
			 "total_energy": -529.879533878, 
			 "HOMO_LUMO_gap": 0.17309, 
			 "cosmo_polarized_energy": -12.14, 
			 "cosmo_cavitation_energy": 25.33, 
			 "cosmo_dispersion_energy": -19.04, 
			 "cosmo_repulsion_energy": 1.51, 
			 "cosmo_total_nonelectrostatic_energy": 7.8, 
			 "SMD_solvation_energy": 2.27 
		},
		"coords": [
			{
				"x": 3.2242576767,
				"y": 1.5125404491,
				"z": -2.0154613606,
				"element": "C" 
			},
			{
				"x": 1.8824460151,
				"y": 1.0698843388,
				"z": -1.5193660529,
				"element": "C" 
			},
			{
				"x": 1.6115035035,
				"y": 0.377336261,
				"z": -0.330805386,
				"element": "C" 
			},
			{
				"x": 2.389933509,
				"y": -0.0716662917,
				"z": 0.6750235493,
				"element": "N" 
			},
			{
				"x": 1.7580525747,
				"y": -0.6845153875,
				"z": 1.663113688,
				"element": "C" 
			},
			{
				"x": 0.3615061161,
				"y": -0.9089771712,
				"z": 1.7531884934,
				"element": "C" 
			},
			{
				"x": -0.2628615911,
				"y": -1.6310118433,
				"z": 2.9183760191,
				"element": "C" 
			},
			{
				"x": -0.4231837517,
				"y": -0.4429143817,
				"z": 0.7019914867,
				"element": "C" 
			},
			{
				"x": -1.7683852314,
				"y": -0.5855079182,
				"z": 0.5571207009,
				"element": "N" 
			},
			{
				"x": 0.2236622007,
				"y": 0.1954990365,
				"z": -0.3183803268,
				"element": "N" 
			},
			{
				"x": -0.3974642985,
				"y": 0.7219942597,
				"z": -1.4013458892,
				"element": "N" 
			},
			{
				"x": 0.6209525932,
				"y": 1.2427063541,
				"z": -2.109710981,
				"element": "C" 
			},
			{
				"x": 3.9030781844,
				"y": 0.6641092137,
				"z": -2.1570881281,
				"element": "H" 
			},
			{
				"x": 3.1308934667,
				"y": 2.0308248028,
				"z": -2.9742817558,
				"element": "H" 
			},
			{
				"x": 3.7109598391,
				"y": 2.1957490234,
				"z": -1.3103551322,
				"element": "H" 
			},
			{
				"x": 2.3838265735,
				"y": -1.0484139674,
				"z": 2.4784943155,
				"element": "H" 
			},
			{
				"x": 0.5061326718,
				"y": -1.9504919391,
				"z": 3.6264753388,
				"element": "H" 
			},
			{
				"x": -0.9676734616,
				"y": -0.9972293715,
				"z": 3.4744304505,
				"element": "H" 
			},
			{
				"x": -0.8099444633,
				"y": -2.5279755907,
				"z": 2.6009208327,
				"element": "H" 
			},
			{
				"x": -2.1831212536,
				"y": -0.0409209346,
				"z": -0.1883829069,
				"element": "H" 
			},
			{
				"x": -2.3234974451,
				"y": -0.7736015542,
				"z": 1.3754128164,
				"element": "H" 
			},
			{
				"x": 0.4014265719,
				"y": 1.7382826121,
				"z": -3.0476697719,
				"element": "H" 
			}
		],
		 "valence_orbital": [ 
			{
				"type": "occ",
				"energy": -0.30308,
				"method": "rhf"
			},
			{
				"type": "occ",
				"energy": -0.26189,
				"method": "rhf"
			},
			{
				"type": "occ",
				"energy": -0.2528,
				"method": "rhf"
			},
			{
				"type": "occ",
				"energy": -0.24331,
				"method": "rhf"
			},
			{
				"type": "occ",
				"energy": -0.19247,
				"method": "rhf"
			},
			{
				"type": "unocc",
				"energy": -0.01938,
				"method": "rhf"
			},
			{
				"type": "unocc",
				"energy": 0.00479,
				"method": "rhf"
			},
			{
				"type": "unocc",
				"energy": 0.06389,
				"method": "rhf"
			},
			{
				"type": "unocc",
				"energy": 0.08004,
				"method": "rhf"
			},
			{
				"type": "unocc",
				"energy": 0.11711,
				"method": "rhf"
			}
		],
		"cosmo_sigma_profile": { 
			"-0.025": 0.0,
			"-0.024": 0.0,
			"-0.023": 0.0,
			"-0.022": 0.0,
			"-0.021": 0.0,
			"-0.02": 0.0,
			"-0.019": 0.0,
			"-0.018": 0.0,
			"-0.017": 0.0,
			"-0.016": 0.0,
			"-0.015": 0.279801578122,
			"-0.014": 1.03101315371,
			"-0.013": 1.56781985242,
			"-0.012": 1.90001694106,
			"-0.011": 2.74899172346,
			"-0.01": 1.84493020636,
			"-0.009": 2.17044711643,
			"-0.008": 2.06726615632,
			"-0.007": 4.06054084752,
			"-0.006": 6.62223415208,
			"-0.005": 8.42863112273,
			"-0.004": 14.6636475787,
			"-0.003": 14.2820683178,
			"-0.002": 15.1278332868,
			"-0.001": 19.6677192004,
			"0.0": 21.8664823808,
			"0.001": 14.3714617927,
			"0.002": 13.2076362728,
			"0.003": 9.95872563929,
			"0.004": 10.4515258334,
			"0.005": 7.68717146088,
			"0.006": 5.03086258999,
			"0.007": 4.114485419,
			"0.008": 3.95838535239,
			"0.009": 2.43338542874,
			"0.01": 2.48592773327,
			"0.011": 2.75012931559,
			"0.012": 2.60951539614,
			"0.013": 1.01750803278,
			"0.014": 1.15014660611,
			"0.015": 0.61023681114,
			"0.016": 0.943691277652,
			"0.017": 0.141713015308,
			"0.018": 0.0,
			"0.019": 0.0,
			"0.02": 0.0,
			"0.021": 0.0,
			"0.022": 0.0,
			"0.023": 0.0,
			"0.024": 0.0,
			"0.025": 0.0
		}
	}
}
