{
	 "smiles": "OC(=O)C1=C(Br)C(=CC=C1)[N+]([O-])=O", 
	 "Tm": 458.15, 
	 "num_atms": 17, 
	 "gaussian": { 
		 "optdone": 1, 
		 "sigma_profile": "yes", 
		 "theory": "DFT", 
		 "functional": "B3LYP", 
		 "basiset": "6-31G**", 
		 "properties": { 
			 "R2extent": 4331.4256, 
			 "electric_dipole_moment_norm": 2.24096537233, 
			 "electric_quadrupole_moment_norm": 21.537463892, 
			 "total_energy": -3196.09254423, 
			 "HOMO_LUMO_gap": 0.18362, 
			 "cosmo_polarized_energy": -13.75, 
			 "cosmo_cavitation_energy": 24.65, 
			 "cosmo_dispersion_energy": -18.73, 
			 "cosmo_repulsion_energy": 1.45, 
			 "cosmo_total_nonelectrostatic_energy": 7.37, 
			 "SMD_solvation_energy": 6.82 
		},
		"coords": [
			{
				"x": -3.2796478995,
				"y": 1.2173582386,
				"z": 0.4885747939,
				"element": "O" 
			},
			{
				"x": -2.1844219276,
				"y": 0.5747584888,
				"z": 0.9132183336,
				"element": "C" 
			},
			{
				"x": -2.0609520457,
				"y": 0.2892426587,
				"z": 2.0823186988,
				"element": "O" 
			},
			{
				"x": -1.1139798528,
				"y": 0.1458593614,
				"z": -0.0886843093,
				"element": "C" 
			},
			{
				"x": -0.8483706812,
				"y": 0.6558020078,
				"z": -1.3744846034,
				"element": "C" 
			},
			{
				"x": -1.9168156109,
				"y": 2.0500046193,
				"z": -2.1399375934,
				"element": "Br" 
			},
			{
				"x": 0.1993798999,
				"y": 0.1020507925,
				"z": -2.1270319845,
				"element": "C" 
			},
			{
				"x": 0.9644518103,
				"y": -0.956470593,
				"z": -1.642094103,
				"element": "C" 
			},
			{
				"x": 0.722204945,
				"y": -1.4466971703,
				"z": -0.3650524863,
				"element": "C" 
			},
			{
				"x": -0.2966009985,
				"y": -0.8901495066,
				"z": 0.3966537965,
				"element": "C" 
			},
			{
				"x": 0.5848954725,
				"y": 0.5936018062,
				"z": -3.466984935,
				"element": "N" 
			},
			{
				"x": 0.9230494393,
				"y": -0.2593769251,
				"z": -4.2846173762,
				"element": "O" 
			},
			{
				"x": 0.5827000056,
				"y": 1.8043756033,
				"z": -3.6611275307,
				"element": "O" 
			},
			{
				"x": -3.2283339477,
				"y": 1.4313859587,
				"z": -0.4601653345,
				"element": "H" 
			},
			{
				"x": 1.7397854455,
				"y": -1.3669790095,
				"z": -2.277679156,
				"element": "H" 
			},
			{
				"x": 1.3244195769,
				"y": -2.2565924829,
				"z": 0.0321009223,
				"element": "H" 
			},
			{
				"x": -0.5005636311,
				"y": -1.2403738479,
				"z": 1.4015928672,
				"element": "H" 
			}
		],
		 "valence_orbital": [ 
			{
				"type": "occ",
				"energy": -0.32659,
				"method": "rhf"
			},
			{
				"type": "occ",
				"energy": -0.30988,
				"method": "rhf"
			},
			{
				"type": "occ",
				"energy": -0.29636,
				"method": "rhf"
			},
			{
				"type": "occ",
				"energy": -0.2903,
				"method": "rhf"
			},
			{
				"type": "occ",
				"energy": -0.28914,
				"method": "rhf"
			},
			{
				"type": "unocc",
				"energy": -0.10552,
				"method": "rhf"
			},
			{
				"type": "unocc",
				"energy": -0.08005,
				"method": "rhf"
			},
			{
				"type": "unocc",
				"energy": -0.04346,
				"method": "rhf"
			},
			{
				"type": "unocc",
				"energy": -0.03755,
				"method": "rhf"
			},
			{
				"type": "unocc",
				"energy": 0.02435,
				"method": "rhf"
			}
		],
		"cosmo_sigma_profile": { 
			"-0.025": 0.0,
			"-0.024": 0.0,
			"-0.023": 0.0,
			"-0.022": 0.0,
			"-0.021": 0.0,
			"-0.02": 0.0,
			"-0.019": 0.0,
			"-0.018": 0.0,
			"-0.017": 0.0,
			"-0.016": 0.0,
			"-0.015": 0.0,
			"-0.014": 0.0592048924896,
			"-0.013": 0.310709083861,
			"-0.012": 1.31945847973,
			"-0.011": 1.13084543012,
			"-0.01": 1.38260041203,
			"-0.009": 4.09178858319,
			"-0.008": 9.35264263084,
			"-0.007": 10.7664707117,
			"-0.006": 10.4651969136,
			"-0.005": 9.70718681109,
			"-0.004": 11.7210419286,
			"-0.003": 15.1871682482,
			"-0.002": 15.9357633705,
			"-0.001": 15.1618021477,
			"0.0": 14.5498922408,
			"0.001": 8.81207613045,
			"0.002": 7.818947668,
			"0.003": 4.73847660181,
			"0.004": 6.75939562943,
			"0.005": 5.61833609328,
			"0.006": 8.8020207913,
			"0.007": 12.7613795124,
			"0.008": 7.27874810094,
			"0.009": 5.91989153283,
			"0.01": 5.1576601306,
			"0.011": 4.89086684014,
			"0.012": 2.10817041037,
			"0.013": 0.365222552014,
			"0.014": 0.0,
			"0.015": 0.0,
			"0.016": 0.0,
			"0.017": 0.0,
			"0.018": 0.0,
			"0.019": 0.0,
			"0.02": 0.0,
			"0.021": 0.0,
			"0.022": 0.0,
			"0.023": 0.0,
			"0.024": 0.0,
			"0.025": 0.0
		}
	}
}
