{
	 "smiles": "C[Si]1(C)O[Si](C)(C)O[Si](C)(C)O[Si](C)(C)O[Si](C)(C)O[Si](C)(C)O[Si](C)(C)O1", 
	 "Tm": 247.15, 
	 "num_atms": 70, 
	 "gaussian": { 
		 "optdone": 1, 
		 "sigma_profile": "yes", 
		 "theory": "DFT", 
		 "functional": "B3LYP", 
		 "basiset": "6-31G**", 
		 "properties": { 
			 "R2extent": 16457.0416, 
			 "electric_dipole_moment_norm": 1.17663578052, 
			 "electric_quadrupole_moment_norm": 3.41050585251, 
			 "total_energy": -3112.74540275, 
			 "HOMO_LUMO_gap": 0.30171, 
			 "cosmo_polarized_energy": -9.65, 
			 "cosmo_cavitation_energy": 82.82, 
			 "cosmo_dispersion_energy": -33.56, 
			 "cosmo_repulsion_energy": 3.05, 
			 "cosmo_total_nonelectrostatic_energy": 52.31, 
			 "SMD_solvation_energy": 18.51 
		},
		"coords": [
			{
				"x": -4.5160862935,
				"y": 4.0364131031,
				"z": 1.497088344,
				"element": "C" 
			},
			{
				"x": -3.369908193,
				"y": 2.8950152657,
				"z": 0.5502816468,
				"element": "Si" 
			},
			{
				"x": -3.3584057759,
				"y": 3.2468415341,
				"z": -1.290290021,
				"element": "C" 
			},
			{
				"x": -3.8868325869,
				"y": 1.3360124413,
				"z": 0.7626445007,
				"element": "O" 
			},
			{
				"x": -3.8512636191,
				"y": -0.1675040406,
				"z": 1.4435052012,
				"element": "Si" 
			},
			{
				"x": -3.4972466192,
				"y": -0.0505248591,
				"z": 3.2800287639,
				"element": "C" 
			},
			{
				"x": -5.5108578591,
				"y": -0.9715863171,
				"z": 1.0923259231,
				"element": "C" 
			},
			{
				"x": -2.6342598372,
				"y": -1.0638113439,
				"z": 0.7626319,
				"element": "O" 
			},
			{
				"x": -2.0956144037,
				"y": -2.0166065585,
				"z": -0.4799981066,
				"element": "Si" 
			},
			{
				"x": -2.7726700516,
				"y": -1.4002126079,
				"z": -2.1153283863,
				"element": "C" 
			},
			{
				"x": -2.60895581,
				"y": -3.79151237,
				"z": -0.1352717423,
				"element": "C" 
			},
			{
				"x": -0.4468639285,
				"y": -1.9119766666,
				"z": -0.5324309507,
				"element": "O" 
			},
			{
				"x": 1.0518197932,
				"y": -2.4980478131,
				"z": -0.1400694268,
				"element": "Si" 
			},
			{
				"x": 1.1829868942,
				"y": -2.71314196,
				"z": 1.7195681203,
				"element": "C" 
			},
			{
				"x": 1.3454436945,
				"y": -4.1080781259,
				"z": -1.0575166137,
				"element": "C" 
			},
			{
				"x": 2.1723086412,
				"y": -1.4094350165,
				"z": -0.6587763229,
				"element": "O" 
			},
			{
				"x": 3.2745797692,
				"y": -0.1896700674,
				"z": -0.7955533738,
				"element": "Si" 
			},
			{
				"x": 4.3177074722,
				"y": -0.5303758379,
				"z": -2.3167561377,
				"element": "C" 
			},
			{
				"x": 4.3106186195,
				"y": -0.0921963584,
				"z": 0.7641552233,
				"element": "C" 
			},
			{
				"x": 2.5044758414,
				"y": 1.2632182734,
				"z": -0.9725809334,
				"element": "O" 
			},
			{
				"x": 1.277765657,
				"y": 2.150179077,
				"z": -1.6516017904,
				"element": "Si" 
			},
			{
				"x": 0.4058723993,
				"y": 1.152313847,
				"z": -2.9758138201,
				"element": "C" 
			},
			{
				"x": 2.0298088962,
				"y": 3.7338899198,
				"z": -2.3173488009,
				"element": "C" 
			},
			{
				"x": 0.1671212001,
				"y": 2.5278387768,
				"z": -0.4868454573,
				"element": "O" 
			},
			{
				"x": -0.220695326,
				"y": 2.8317040605,
				"z": 1.0943201575,
				"element": "Si" 
			},
			{
				"x": 0.6352134299,
				"y": 4.3973060665,
				"z": 1.6717101991,
				"element": "C" 
			},
			{
				"x": 0.2249560901,
				"y": 1.3475581862,
				"z": 2.148243973,
				"element": "C" 
			},
			{
				"x": -1.8525584729,
				"y": 3.0909926713,
				"z": 1.1821731388,
				"element": "O" 
			},
			{
				"x": -4.4869449645,
				"y": 3.8127296818,
				"z": 2.568626422,
				"element": "H" 
			},
			{
				"x": -4.2254021356,
				"y": 5.0844270928,
				"z": 1.36796573,
				"element": "H" 
			},
			{
				"x": -5.5520117328,
				"y": 3.9282632192,
				"z": 1.158439971,
				"element": "H" 
			},
			{
				"x": -2.6442395073,
				"y": 2.5902848618,
				"z": -1.7969785861,
				"element": "H" 
			},
			{
				"x": -3.063544622,
				"y": 4.2816726297,
				"z": -1.4949234893,
				"element": "H" 
			},
			{
				"x": -4.3469388466,
				"y": 3.0819113762,
				"z": -1.7318202655,
				"element": "H" 
			},
			{
				"x": -3.4786360453,
				"y": -1.0438780595,
				"z": 3.7411544781,
				"element": "H" 
			},
			{
				"x": -4.2601263432,
				"y": 0.5449221052,
				"z": 3.7931730287,
				"element": "H" 
			},
			{
				"x": -2.5255297946,
				"y": 0.4196198798,
				"z": 3.4595250691,
				"element": "H" 
			},
			{
				"x": -5.7092597417,
				"y": -1.0112501387,
				"z": 0.0158846703,
				"element": "H" 
			},
			{
				"x": -6.3253010765,
				"y": -0.403952535,
				"z": 1.5551635462,
				"element": "H" 
			},
			{
				"x": -5.5519097104,
				"y": -1.9945318052,
				"z": 1.4821495088,
				"element": "H" 
			},
			{
				"x": -3.8665400657,
				"y": -1.4573160925,
				"z": -2.1392451348,
				"element": "H" 
			},
			{
				"x": -2.4883355325,
				"y": -0.357449485,
				"z": -2.2866843311,
				"element": "H" 
			},
			{
				"x": -2.3879710271,
				"y": -1.9949000584,
				"z": -2.9508159046,
				"element": "H" 
			},
			{
				"x": -3.700005266,
				"y": -3.887541094,
				"z": -0.1079262181,
				"element": "H" 
			},
			{
				"x": -2.234729715,
				"y": -4.474340399,
				"z": -0.9058849363,
				"element": "H" 
			},
			{
				"x": -2.2245307075,
				"y": -4.1319264917,
				"z": 0.8324311874,
				"element": "H" 
			},
			{
				"x": 0.4587119938,
				"y": -3.4492205302,
				"z": 2.0860249585,
				"element": "H" 
			},
			{
				"x": 2.182008371,
				"y": -3.0561409767,
				"z": 2.0101552649,
				"element": "H" 
			},
			{
				"x": 0.9864410041,
				"y": -1.7682881967,
				"z": 2.2360656224,
				"element": "H" 
			},
			{
				"x": 0.6182912418,
				"y": -4.8740197143,
				"z": -0.7664487778,
				"element": "H" 
			},
			{
				"x": 1.2613404613,
				"y": -3.9578466677,
				"z": -2.1389122857,
				"element": "H" 
			},
			{
				"x": 2.3465249553,
				"y": -4.5025463825,
				"z": -0.8522334545,
				"element": "H" 
			},
			{
				"x": 3.6898111959,
				"y": -0.5992638995,
				"z": -3.2114193155,
				"element": "H" 
			},
			{
				"x": 5.0518395437,
				"y": 0.2656053263,
				"z": -2.4814148855,
				"element": "H" 
			},
			{
				"x": 4.8617506874,
				"y": -1.4762090696,
				"z": -2.220554928,
				"element": "H" 
			},
			{
				"x": 3.6814529051,
				"y": 0.0829917444,
				"z": 1.6430178181,
				"element": "H" 
			},
			{
				"x": 4.8672577912,
				"y": -1.0208638641,
				"z": 0.9307149908,
				"element": "H" 
			},
			{
				"x": 5.0344587566,
				"y": 0.7274562926,
				"z": 0.7035612674,
				"element": "H" 
			},
			{
				"x": -0.444075762,
				"y": 1.7049219156,
				"z": -3.3908771514,
				"element": "H" 
			},
			{
				"x": 1.0804871977,
				"y": 0.9072235138,
				"z": -3.8037448726,
				"element": "H" 
			},
			{
				"x": 0.0312202414,
				"y": 0.2139777911,
				"z": -2.5549637335,
				"element": "H" 
			},
			{
				"x": 2.5474102198,
				"y": 4.2824692459,
				"z": -1.523495476,
				"element": "H" 
			},
			{
				"x": 1.2604864426,
				"y": 4.3926377193,
				"z": -2.7341601614,
				"element": "H" 
			},
			{
				"x": 2.7589300939,
				"y": 3.5242925416,
				"z": -3.1075333935,
				"element": "H" 
			},
			{
				"x": 0.3412386364,
				"y": 4.6525213716,
				"z": 2.6954659206,
				"element": "H" 
			},
			{
				"x": 0.3737319142,
				"y": 5.2435806128,
				"z": 1.0279842784,
				"element": "H" 
			},
			{
				"x": 1.7248538222,
				"y": 4.284233259,
				"z": 1.6533097582,
				"element": "H" 
			},
			{
				"x": -0.0502152339,
				"y": 1.5043080238,
				"z": 3.1969633334,
				"element": "H" 
			},
			{
				"x": -0.2971845612,
				"y": 0.4563382446,
				"z": 1.7849229723,
				"element": "H" 
			},
			{
				"x": 1.3019252947,
				"y": 1.1521937316,
				"z": 2.1063422968,
				"element": "H" 
			}
		],
		 "valence_orbital": [ 
			{
				"type": "occ",
				"energy": -0.278,
				"method": "rhf"
			},
			{
				"type": "occ",
				"energy": -0.27124,
				"method": "rhf"
			},
			{
				"type": "occ",
				"energy": -0.26735,
				"method": "rhf"
			},
			{
				"type": "occ",
				"energy": -0.26639,
				"method": "rhf"
			},
			{
				"type": "occ",
				"energy": -0.26192,
				"method": "rhf"
			},
			{
				"type": "unocc",
				"energy": 0.03979,
				"method": "rhf"
			},
			{
				"type": "unocc",
				"energy": 0.06091,
				"method": "rhf"
			},
			{
				"type": "unocc",
				"energy": 0.06326,
				"method": "rhf"
			},
			{
				"type": "unocc",
				"energy": 0.06937,
				"method": "rhf"
			},
			{
				"type": "unocc",
				"energy": 0.0825,
				"method": "rhf"
			}
		],
		"cosmo_sigma_profile": { 
			"-0.025": 0.0,
			"-0.024": 0.0,
			"-0.023": 0.0,
			"-0.022": 0.0,
			"-0.021": 0.0,
			"-0.02": 0.0,
			"-0.019": 0.0,
			"-0.018": 0.0,
			"-0.017": 0.0,
			"-0.016": 0.0,
			"-0.015": 0.0,
			"-0.014": 0.0,
			"-0.013": 0.0,
			"-0.012": 0.0,
			"-0.011": 0.0,
			"-0.01": 0.0,
			"-0.009": 0.0,
			"-0.008": 0.0,
			"-0.007": 0.0,
			"-0.006": 0.0,
			"-0.005": 0.459824618707,
			"-0.004": 38.0181392262,
			"-0.003": 73.525444852,
			"-0.002": 79.0076498807,
			"-0.001": 91.537749411,
			"0.0": 81.0712709919,
			"0.001": 98.4681854554,
			"0.002": 57.6033432247,
			"0.003": 36.2584301069,
			"0.004": 20.4300804475,
			"0.005": 12.6475649314,
			"0.006": 7.55071130434,
			"0.007": 5.58227571606,
			"0.008": 3.52121447704,
			"0.009": 2.51101654624,
			"0.01": 0.645747917105,
			"0.011": 0.0,
			"0.012": 0.0,
			"0.013": 0.0,
			"0.014": 0.0,
			"0.015": 0.0,
			"0.016": 0.0,
			"0.017": 0.0,
			"0.018": 0.0,
			"0.019": 0.0,
			"0.02": 0.0,
			"0.021": 0.0,
			"0.022": 0.0,
			"0.023": 0.0,
			"0.024": 0.0,
			"0.025": 0.0
		}
	}
}
