{
	 "smiles": "CC1=C(N=NN1C1=C2C=CC=NC2=CC=C1)C(O)=O", 
	 "Tm": 483.15, 
	 "num_atms": 29, 
	 "gaussian": { 
		 "optdone": 1, 
		 "sigma_profile": "yes", 
		 "theory": "DFT", 
		 "functional": "B3LYP", 
		 "basiset": "6-31G**", 
		 "properties": { 
			 "R2extent": 5716.9731, 
			 "electric_dipole_moment_norm": 6.8304921543, 
			 "electric_quadrupole_moment_norm": 37.2120691463, 
			 "total_energy": -870.832485886, 
			 "HOMO_LUMO_gap": 0.17453, 
			 "cosmo_polarized_energy": -26.43, 
			 "cosmo_cavitation_energy": 34.29, 
			 "cosmo_dispersion_energy": -24.27, 
			 "cosmo_repulsion_energy": 1.83, 
			 "cosmo_total_nonelectrostatic_energy": 11.85, 
			 "SMD_solvation_energy": 4.14 
		},
		"coords": [
			{
				"x": 0.7282398736,
				"y": -0.7102463706,
				"z": 2.6552020134,
				"element": "C" 
			},
			{
				"x": 0.9340720112,
				"y": -1.1910228886,
				"z": 1.2535228103,
				"element": "C" 
			},
			{
				"x": 0.8247898406,
				"y": -2.4451634001,
				"z": 0.6635136424,
				"element": "C" 
			},
			{
				"x": 1.0306839505,
				"y": -2.3202305169,
				"z": -0.6846558568,
				"element": "N" 
			},
			{
				"x": 1.2785346697,
				"y": -1.0860249263,
				"z": -0.9694178635,
				"element": "N" 
			},
			{
				"x": 1.2176974414,
				"y": -0.3696365279,
				"z": 0.2024612901,
				"element": "N" 
			},
			{
				"x": 1.4212653947,
				"y": 1.0455068527,
				"z": 0.20115865,
				"element": "C" 
			},
			{
				"x": 0.5331702633,
				"y": 1.8838001138,
				"z": -0.5368644919,
				"element": "C" 
			},
			{
				"x": -0.5673546308,
				"y": 1.4132370143,
				"z": -1.3002231338,
				"element": "C" 
			},
			{
				"x": -1.3557533553,
				"y": 2.3249363116,
				"z": -1.9602314746,
				"element": "C" 
			},
			{
				"x": -1.0448217502,
				"y": 3.7044254765,
				"z": -1.8614250251,
				"element": "C" 
			},
			{
				"x": -0.03553048,
				"y": 4.1856981794,
				"z": -1.1652542224,
				"element": "N" 
			},
			{
				"x": 0.7590636089,
				"y": 3.2980473471,
				"z": -0.4992616351,
				"element": "C" 
			},
			{
				"x": 1.8420705272,
				"y": 3.8171932682,
				"z": 0.2591847528,
				"element": "C" 
			},
			{
				"x": 2.6778477058,
				"y": 2.9743950708,
				"z": 0.9545738782,
				"element": "C" 
			},
			{
				"x": 2.4701284035,
				"y": 1.5763877641,
				"z": 0.9218370333,
				"element": "C" 
			},
			{
				"x": 0.4560057436,
				"y": -3.7560138597,
				"z": 1.2595254597,
				"element": "C" 
			},
			{
				"x": 0.8105540628,
				"y": -3.9216796735,
				"z": 2.5717315401,
				"element": "O" 
			},
			{
				"x": -0.1375512537,
				"y": -4.6236038295,
				"z": 0.6749958402,
				"element": "O" 
			},
			{
				"x": 0.1649612433,
				"y": -1.4516316484,
				"z": 3.2255457959,
				"element": "H" 
			},
			{
				"x": 0.1689266937,
				"y": 0.2293492084,
				"z": 2.6669842064,
				"element": "H" 
			},
			{
				"x": 1.6767875661,
				"y": -0.5266892736,
				"z": 3.1731890907,
				"element": "H" 
			},
			{
				"x": -0.7620573102,
				"y": 0.3495270322,
				"z": -1.3713721384,
				"element": "H" 
			},
			{
				"x": -2.2039398378,
				"y": 2.0033713539,
				"z": -2.5557150739,
				"element": "H" 
			},
			{
				"x": -1.6622864841,
				"y": 4.4335295603,
				"z": -2.3846293954,
				"element": "H" 
			},
			{
				"x": 1.979105961,
				"y": 4.893217713,
				"z": 0.2621002849,
				"element": "H" 
			},
			{
				"x": 3.5093983949,
				"y": 3.3735174135,
				"z": 1.5265047733,
				"element": "H" 
			},
			{
				"x": 3.1463383078,
				"y": 0.912187003,
				"z": 1.4501412002,
				"element": "H" 
			},
			{
				"x": 1.4672534385,
				"y": -3.2576837676,
				"z": 2.822878049,
				"element": "H" 
			}
		],
		 "valence_orbital": [ 
			{
				"type": "occ",
				"energy": -0.28205,
				"method": "rhf"
			},
			{
				"type": "occ",
				"energy": -0.2746,
				"method": "rhf"
			},
			{
				"type": "occ",
				"energy": -0.27259,
				"method": "rhf"
			},
			{
				"type": "occ",
				"energy": -0.27083,
				"method": "rhf"
			},
			{
				"type": "occ",
				"energy": -0.25262,
				"method": "rhf"
			},
			{
				"type": "unocc",
				"energy": -0.07809,
				"method": "rhf"
			},
			{
				"type": "unocc",
				"energy": -0.03962,
				"method": "rhf"
			},
			{
				"type": "unocc",
				"energy": -0.03628,
				"method": "rhf"
			},
			{
				"type": "unocc",
				"energy": -0.02367,
				"method": "rhf"
			},
			{
				"type": "unocc",
				"energy": 0.00276,
				"method": "rhf"
			}
		],
		"cosmo_sigma_profile": { 
			"-0.025": 0.0,
			"-0.024": 0.0,
			"-0.023": 0.0,
			"-0.022": 0.0,
			"-0.021": 0.0,
			"-0.02": 0.0,
			"-0.019": 0.193226382594,
			"-0.018": 0.831518158338,
			"-0.017": 0.855461831239,
			"-0.016": 1.12540579282,
			"-0.015": 1.07778138086,
			"-0.014": 0.894345730739,
			"-0.013": 0.846651814095,
			"-0.012": 0.935214192073,
			"-0.011": 1.27272425506,
			"-0.01": 0.876950478428,
			"-0.009": 1.39150211769,
			"-0.008": 6.8497260797,
			"-0.007": 17.1618286294,
			"-0.006": 24.0326291649,
			"-0.005": 19.7098062606,
			"-0.004": 16.5954603993,
			"-0.003": 18.5463118672,
			"-0.002": 13.5583838044,
			"-0.001": 10.9807256098,
			"0.0": 18.2943413731,
			"0.001": 22.4062133384,
			"0.002": 19.1034900714,
			"0.003": 8.99785520378,
			"0.004": 5.51719776558,
			"0.005": 5.60727598562,
			"0.006": 4.97042726963,
			"0.007": 6.08718542576,
			"0.008": 6.15199635946,
			"0.009": 8.20485633182,
			"0.01": 9.55021608177,
			"0.011": 9.443553047,
			"0.012": 7.63083949622,
			"0.013": 3.43776652083,
			"0.014": 1.99575082729,
			"0.015": 0.762994636213,
			"0.016": 0.259514520838,
			"0.017": 0.0,
			"0.018": 0.0,
			"0.019": 0.0,
			"0.02": 0.0,
			"0.021": 0.0,
			"0.022": 0.0,
			"0.023": 0.0,
			"0.024": 0.0,
			"0.025": 0.0
		}
	}
}
