{
	 "smiles": "CC1=CC=C(NC(=O)CCl)C=C1", 
	 "Tm": 433.15, 
	 "num_atms": 22, 
	 "gaussian": { 
		 "optdone": 1, 
		 "sigma_profile": "yes", 
		 "theory": "DFT", 
		 "functional": "B3LYP", 
		 "basiset": "6-31G**", 
		 "properties": { 
			 "R2extent": 4019.0857, 
			 "electric_dipole_moment_norm": 5.70165220265, 
			 "electric_quadrupole_moment_norm": 21.9051860079, 
			 "total_energy": -939.167580483, 
			 "HOMO_LUMO_gap": 0.2085, 
			 "cosmo_polarized_energy": -14.22, 
			 "cosmo_cavitation_energy": 27.81, 
			 "cosmo_dispersion_energy": -20.28, 
			 "cosmo_repulsion_energy": 1.65, 
			 "cosmo_total_nonelectrostatic_energy": 9.17, 
			 "SMD_solvation_energy": 5.21 
		},
		"coords": [
			{
				"x": -0.2175363485,
				"y": -0.8870215018,
				"z": -3.3099532772,
				"element": "C" 
			},
			{
				"x": -0.6774165904,
				"y": -0.3398689117,
				"z": -1.9796805892,
				"element": "C" 
			},
			{
				"x": -0.8918421646,
				"y": -1.1828339576,
				"z": -0.8827899398,
				"element": "C" 
			},
			{
				"x": -1.3030404213,
				"y": -0.6814455105,
				"z": 0.3520672356,
				"element": "C" 
			},
			{
				"x": -1.4772190622,
				"y": 0.6963045688,
				"z": 0.530073775,
				"element": "C" 
			},
			{
				"x": -1.9105967501,
				"y": 1.2478756005,
				"z": 1.7643807456,
				"element": "N" 
			},
			{
				"x": -1.4364190063,
				"y": 1.0797100667,
				"z": 3.0512524816,
				"element": "C" 
			},
			{
				"x": -1.9330170196,
				"y": 1.687656762,
				"z": 3.9811342949,
				"element": "O" 
			},
			{
				"x": -0.276817398,
				"y": 0.0905316988,
				"z": 3.2197962077,
				"element": "C" 
			},
			{
				"x": 0.7032465142,
				"y": 0.4588544432,
				"z": 4.6766818178,
				"element": "Cl" 
			},
			{
				"x": -1.2733958741,
				"y": 1.5503068524,
				"z": -0.5627827689,
				"element": "C" 
			},
			{
				"x": -0.8898594925,
				"y": 1.0342559587,
				"z": -1.797348244,
				"element": "C" 
			},
			{
				"x": 0.8727641865,
				"y": -0.8177945047,
				"z": -3.4116350273,
				"element": "H" 
			},
			{
				"x": -0.6558394447,
				"y": -0.3315480857,
				"z": -4.1447646374,
				"element": "H" 
			},
			{
				"x": -0.4890511884,
				"y": -1.9403659977,
				"z": -3.4247182527,
				"element": "H" 
			},
			{
				"x": -0.7589050702,
				"y": -2.2554135673,
				"z": -0.9986948996,
				"element": "H" 
			},
			{
				"x": -1.5161130195,
				"y": -1.3645342034,
				"z": 1.1676864192,
				"element": "H" 
			},
			{
				"x": -2.6132826367,
				"y": 1.9766228307,
				"z": 1.7227689697,
				"element": "H" 
			},
			{
				"x": -0.6714943322,
				"y": -0.9196175529,
				"z": 3.3494233744,
				"element": "H" 
			},
			{
				"x": 0.3894340727,
				"y": 0.0950585002,
				"z": 2.3574167814,
				"element": "H" 
			},
			{
				"x": -1.4118368068,
				"y": 2.6205539656,
				"z": -0.436386903,
				"element": "H" 
			},
			{
				"x": -0.7420621469,
				"y": 1.7141125454,
				"z": -2.6326275639,
				"element": "H" 
			}
		],
		 "valence_orbital": [ 
			{
				"type": "occ",
				"energy": -0.29535,
				"method": "rhf"
			},
			{
				"type": "occ",
				"energy": -0.29263,
				"method": "rhf"
			},
			{
				"type": "occ",
				"energy": -0.26798,
				"method": "rhf"
			},
			{
				"type": "occ",
				"energy": -0.26451,
				"method": "rhf"
			},
			{
				"type": "occ",
				"energy": -0.23433,
				"method": "rhf"
			},
			{
				"type": "unocc",
				"energy": -0.02583,
				"method": "rhf"
			},
			{
				"type": "unocc",
				"energy": -0.02056,
				"method": "rhf"
			},
			{
				"type": "unocc",
				"energy": 0.01201,
				"method": "rhf"
			},
			{
				"type": "unocc",
				"energy": 0.03893,
				"method": "rhf"
			},
			{
				"type": "unocc",
				"energy": 0.08102,
				"method": "rhf"
			}
		],
		"cosmo_sigma_profile": { 
			"-0.025": 0.0,
			"-0.024": 0.0,
			"-0.023": 0.0,
			"-0.022": 0.0,
			"-0.021": 0.0,
			"-0.02": 0.0,
			"-0.019": 0.0,
			"-0.018": 0.0,
			"-0.017": 0.0,
			"-0.016": 0.0,
			"-0.015": 0.160574745284,
			"-0.014": 0.930047008962,
			"-0.013": 1.61127627751,
			"-0.012": 0.455189547061,
			"-0.011": 0.904101586324,
			"-0.01": 3.26951396342,
			"-0.009": 4.40252960908,
			"-0.008": 4.5922923544,
			"-0.007": 6.31577118209,
			"-0.006": 8.6273521511,
			"-0.005": 13.5398350051,
			"-0.004": 18.9648925282,
			"-0.003": 12.7040026261,
			"-0.002": 16.3590869595,
			"-0.001": 16.5126917142,
			"0.0": 19.4910589949,
			"0.001": 12.2621881625,
			"0.002": 12.6824472559,
			"0.003": 11.4415277682,
			"0.004": 12.5677602272,
			"0.005": 14.5191698511,
			"0.006": 9.06139284119,
			"0.007": 2.30717285887,
			"0.008": 1.99627602795,
			"0.009": 2.09740984992,
			"0.01": 1.76866529695,
			"0.011": 2.06155406694,
			"0.012": 4.17821931603,
			"0.013": 5.44167839214,
			"0.014": 1.63176253484,
			"0.015": 0.12000612124,
			"0.016": 0.0,
			"0.017": 0.0,
			"0.018": 0.0,
			"0.019": 0.0,
			"0.02": 0.0,
			"0.021": 0.0,
			"0.022": 0.0,
			"0.023": 0.0,
			"0.024": 0.0,
			"0.025": 0.0
		}
	}
}
