{
	 "smiles": "OC(=O)CCC1=NN=C(O1)C1=NC=CC=C1", 
	 "Tm": 465.15, 
	 "num_atms": 25, 
	 "gaussian": { 
		 "optdone": 1, 
		 "sigma_profile": "yes", 
		 "theory": "DFT", 
		 "functional": "B3LYP", 
		 "basiset": "6-31G**", 
		 "properties": { 
			 "R2extent": 4455.6503, 
			 "electric_dipole_moment_norm": 2.71874672046, 
			 "electric_quadrupole_moment_norm": 22.0734697741, 
			 "total_energy": -776.399898439, 
			 "HOMO_LUMO_gap": 0.1883, 
			 "cosmo_polarized_energy": -19.0, 
			 "cosmo_cavitation_energy": 31.21, 
			 "cosmo_dispersion_energy": -22.03, 
			 "cosmo_repulsion_energy": 1.74, 
			 "cosmo_total_nonelectrostatic_energy": 10.92, 
			 "SMD_solvation_energy": 3.51 
		},
		"coords": [
			{
				"x": 2.926400075,
				"y": 2.1425023453,
				"z": -2.2079818749,
				"element": "O" 
			},
			{
				"x": 2.7885899656,
				"y": 2.7436775912,
				"z": -1.0017595174,
				"element": "C" 
			},
			{
				"x": 3.4254236009,
				"y": 2.4170290768,
				"z": -0.027057011,
				"element": "O" 
			},
			{
				"x": 1.783933702,
				"y": 3.8795429926,
				"z": -1.0503682268,
				"element": "C" 
			},
			{
				"x": 0.4554298739,
				"y": 3.5405665442,
				"z": -1.762015215,
				"element": "C" 
			},
			{
				"x": -0.3627093039,
				"y": 2.5188483624,
				"z": -1.0516328305,
				"element": "C" 
			},
			{
				"x": -1.5187172096,
				"y": 2.6662867147,
				"z": -0.4788175555,
				"element": "N" 
			},
			{
				"x": -1.8556332516,
				"y": 1.4234808386,
				"z": 0.0492849538,
				"element": "N" 
			},
			{
				"x": -0.8749986188,
				"y": 0.6197973794,
				"z": -0.2419107717,
				"element": "C" 
			},
			{
				"x": 0.1108663585,
				"y": 1.2457122102,
				"z": -0.9435130898,
				"element": "O" 
			},
			{
				"x": -0.7503244332,
				"y": -0.8015316048,
				"z": 0.094588217,
				"element": "C" 
			},
			{
				"x": 0.3470382642,
				"y": -1.4415588646,
				"z": -0.3386932177,
				"element": "N" 
			},
			{
				"x": 0.4608566657,
				"y": -2.7365924607,
				"z": -0.030429746,
				"element": "C" 
			},
			{
				"x": -0.4903602076,
				"y": -3.4450100766,
				"z": 0.7068251186,
				"element": "C" 
			},
			{
				"x": -1.6267124356,
				"y": -2.7662356104,
				"z": 1.1492952255,
				"element": "C" 
			},
			{
				"x": -1.76605497,
				"y": -1.4172259059,
				"z": 0.8408985083,
				"element": "C" 
			},
			{
				"x": 3.5610233002,
				"y": 1.4176327979,
				"z": -2.0803040181,
				"element": "H" 
			},
			{
				"x": 1.6111605344,
				"y": 4.2062038828,
				"z": -0.0231262371,
				"element": "H" 
			},
			{
				"x": 2.257690003,
				"y": 4.7091665339,
				"z": -1.5892417184,
				"element": "H" 
			},
			{
				"x": 0.6675976965,
				"y": 3.1942359204,
				"z": -2.7784722169,
				"element": "H" 
			},
			{
				"x": -0.1600626046,
				"y": 4.4404230949,
				"z": -1.8314849545,
				"element": "H" 
			},
			{
				"x": 1.3589902113,
				"y": -3.2342844608,
				"z": -0.3913222214,
				"element": "H" 
			},
			{
				"x": -0.3408552636,
				"y": -4.4973671351,
				"z": 0.9257343759,
				"element": "H" 
			},
			{
				"x": -2.3909452489,
				"y": -3.2789637284,
				"z": 1.7256607825,
				"element": "H" 
			},
			{
				"x": -2.6255267039,
				"y": -0.8374364378,
				"z": 1.1577432409,
				"element": "H" 
			}
		],
		 "valence_orbital": [ 
			{
				"type": "occ",
				"energy": -0.29567,
				"method": "rhf"
			},
			{
				"type": "occ",
				"energy": -0.27871,
				"method": "rhf"
			},
			{
				"type": "occ",
				"energy": -0.27677,
				"method": "rhf"
			},
			{
				"type": "occ",
				"energy": -0.26959,
				"method": "rhf"
			},
			{
				"type": "occ",
				"energy": -0.24916,
				"method": "rhf"
			},
			{
				"type": "unocc",
				"energy": -0.06086,
				"method": "rhf"
			},
			{
				"type": "unocc",
				"energy": -0.03115,
				"method": "rhf"
			},
			{
				"type": "unocc",
				"energy": 0.00141,
				"method": "rhf"
			},
			{
				"type": "unocc",
				"energy": 0.01204,
				"method": "rhf"
			},
			{
				"type": "unocc",
				"energy": 0.05328,
				"method": "rhf"
			}
		],
		"cosmo_sigma_profile": { 
			"-0.025": 0.0,
			"-0.024": 0.0,
			"-0.023": 0.0,
			"-0.022": 0.0,
			"-0.021": 0.0,
			"-0.02": 0.0,
			"-0.019": 0.0410256944648,
			"-0.018": 0.771559135344,
			"-0.017": 0.886039561395,
			"-0.016": 1.0316081823,
			"-0.015": 0.953041149325,
			"-0.014": 0.343402221198,
			"-0.013": 0.373802836869,
			"-0.012": 0.649412660774,
			"-0.011": 1.17205360943,
			"-0.01": 0.870195775332,
			"-0.009": 0.597181439746,
			"-0.008": 4.45323817278,
			"-0.007": 17.2057379274,
			"-0.006": 21.3591128972,
			"-0.005": 19.6453034223,
			"-0.004": 18.030282808,
			"-0.003": 14.5515512275,
			"-0.002": 11.5151430305,
			"-0.001": 13.2857747968,
			"0.0": 17.7295343973,
			"0.001": 20.3950074753,
			"0.002": 11.5007957463,
			"0.003": 6.83725530054,
			"0.004": 6.91678291855,
			"0.005": 6.19633942218,
			"0.006": 5.74958039483,
			"0.007": 6.98181037459,
			"0.008": 5.7056057444,
			"0.009": 5.03138177784,
			"0.01": 5.29419782045,
			"0.011": 9.22783073262,
			"0.012": 7.53386996873,
			"0.013": 4.15417647108,
			"0.014": 2.29949714795,
			"0.015": 0.738560352573,
			"0.016": 0.00886409898375,
			"0.017": 0.0,
			"0.018": 0.0,
			"0.019": 0.0,
			"0.02": 0.0,
			"0.021": 0.0,
			"0.022": 0.0,
			"0.023": 0.0,
			"0.024": 0.0,
			"0.025": 0.0
		}
	}
}
