{
	 "smiles": "CCSCC(O)=O", 
	 "Tm": 264.65, 
	 "num_atms": 15, 
	 "gaussian": { 
		 "optdone": 1, 
		 "sigma_profile": "yes", 
		 "theory": "DFT", 
		 "functional": "B3LYP", 
		 "basiset": "6-31G**", 
		 "properties": { 
			 "R2extent": 1647.604, 
			 "electric_dipole_moment_norm": 3.75559659841, 
			 "electric_quadrupole_moment_norm": 5.3161978368, 
			 "total_energy": -705.895158541, 
			 "HOMO_LUMO_gap": 0.2517, 
			 "cosmo_polarized_energy": -11.34, 
			 "cosmo_cavitation_energy": 19.6, 
			 "cosmo_dispersion_energy": -14.87, 
			 "cosmo_repulsion_energy": 1.22, 
			 "cosmo_total_nonelectrostatic_energy": 5.94, 
			 "SMD_solvation_energy": 4.24 
		},
		"coords": [
			{
				"x": -0.0608532176,
				"y": -1.4307602088,
				"z": 0.6642799016,
				"element": "C" 
			},
			{
				"x": -1.5603078701,
				"y": -1.66984512,
				"z": 0.5022632361,
				"element": "C" 
			},
			{
				"x": -2.2187399812,
				"y": -1.578632839,
				"z": -1.2170626168,
				"element": "S" 
			},
			{
				"x": -1.9205905611,
				"y": 0.1789089095,
				"z": -1.6385093374,
				"element": "C" 
			},
			{
				"x": -0.5096927042,
				"y": 0.5432207519,
				"z": -2.1237255925,
				"element": "C" 
			},
			{
				"x": 0.2301938029,
				"y": -0.4657916165,
				"z": -2.617440038,
				"element": "O" 
			},
			{
				"x": -0.1095881718,
				"y": 1.6812479614,
				"z": -2.0978766178,
				"element": "O" 
			},
			{
				"x": 0.2248364598,
				"y": -0.4119937483,
				"z": 0.388317597,
				"element": "H" 
			},
			{
				"x": 0.5243615332,
				"y": -2.1256285624,
				"z": 0.0556519347,
				"element": "H" 
			},
			{
				"x": 0.2212544559,
				"y": -1.5766817709,
				"z": 1.7129987796,
				"element": "H" 
			},
			{
				"x": -1.830242566,
				"y": -2.6810834922,
				"z": 0.8220962759,
				"element": "H" 
			},
			{
				"x": -2.1424965402,
				"y": -0.9727731442,
				"z": 1.1134408348,
				"element": "H" 
			},
			{
				"x": -2.6158511687,
				"y": 0.4098461453,
				"z": -2.4527977381,
				"element": "H" 
			},
			{
				"x": -2.1777503089,
				"y": 0.8327198343,
				"z": -0.8023735516,
				"element": "H" 
			},
			{
				"x": -0.2616331621,
				"y": -1.3002531001,
				"z": -2.4825630674,
				"element": "H" 
			}
		],
		 "valence_orbital": [ 
			{
				"type": "occ",
				"energy": -0.36387,
				"method": "rhf"
			},
			{
				"type": "occ",
				"energy": -0.33309,
				"method": "rhf"
			},
			{
				"type": "occ",
				"energy": -0.31378,
				"method": "rhf"
			},
			{
				"type": "occ",
				"energy": -0.28323,
				"method": "rhf"
			},
			{
				"type": "occ",
				"energy": -0.24815,
				"method": "rhf"
			},
			{
				"type": "unocc",
				"energy": 0.00355,
				"method": "rhf"
			},
			{
				"type": "unocc",
				"energy": 0.02029,
				"method": "rhf"
			},
			{
				"type": "unocc",
				"energy": 0.05241,
				"method": "rhf"
			},
			{
				"type": "unocc",
				"energy": 0.06978,
				"method": "rhf"
			},
			{
				"type": "unocc",
				"energy": 0.10387,
				"method": "rhf"
			}
		],
		"cosmo_sigma_profile": { 
			"-0.025": 0.0,
			"-0.024": 0.0,
			"-0.023": 0.0,
			"-0.022": 0.0,
			"-0.021": 0.0,
			"-0.02": 0.0,
			"-0.019": 0.0,
			"-0.018": 0.0,
			"-0.017": 0.0,
			"-0.016": 0.0,
			"-0.015": 0.0,
			"-0.014": 0.0,
			"-0.013": 0.0407208690554,
			"-0.012": 0.445137382384,
			"-0.011": 0.711081970646,
			"-0.01": 1.5459343222,
			"-0.009": 4.32491894639,
			"-0.008": 4.09750760061,
			"-0.007": 6.88186577361,
			"-0.006": 9.41523184781,
			"-0.005": 10.1970986753,
			"-0.004": 14.138854485,
			"-0.003": 13.7960791192,
			"-0.002": 12.9457701762,
			"-0.001": 10.3215177711,
			"0.0": 9.63443849297,
			"0.001": 5.81942623798,
			"0.002": 4.09628528152,
			"0.003": 4.60899805832,
			"0.004": 4.14376285489,
			"0.005": 4.70373096485,
			"0.006": 4.45832543301,
			"0.007": 4.14398233508,
			"0.008": 3.88711004864,
			"0.009": 3.77904972853,
			"0.01": 5.00201843719,
			"0.011": 4.88036216503,
			"0.012": 5.67339458664,
			"0.013": 1.96203208271,
			"0.014": 0.0257831070883,
			"0.015": 0.0,
			"0.016": 0.0,
			"0.017": 0.0,
			"0.018": 0.0,
			"0.019": 0.0,
			"0.02": 0.0,
			"0.021": 0.0,
			"0.022": 0.0,
			"0.023": 0.0,
			"0.024": 0.0,
			"0.025": 0.0
		}
	}
}
