{
	 "smiles": "OC(=O)C1=C(NS(=O)(=O)C2=CC3=C(NC(=O)N3)C=C2)C=CC=C1", 
	 "Tm": 499.15, 
	 "num_atms": 34, 
	 "gaussian": { 
		 "optdone": 1, 
		 "sigma_profile": "yes", 
		 "theory": "DFT", 
		 "functional": "B3LYP", 
		 "basiset": "6-31G**", 
		 "properties": { 
			 "R2extent": 7936.9537, 
			 "electric_dipole_moment_norm": 2.73195181876, 
			 "electric_quadrupole_moment_norm": 36.4540277434, 
			 "total_energy": -1478.66483752, 
			 "HOMO_LUMO_gap": 0.16666, 
			 "cosmo_polarized_energy": -28.58, 
			 "cosmo_cavitation_energy": 40.81, 
			 "cosmo_dispersion_energy": -28.78, 
			 "cosmo_repulsion_energy": 2.16, 
			 "cosmo_total_nonelectrostatic_energy": 14.19, 
			 "SMD_solvation_energy": 7.62 
		},
		"coords": [
			{
				"x": -1.8903536847,
				"y": -0.0642324424,
				"z": 3.0851420355,
				"element": "O" 
			},
			{
				"x": -1.2453831803,
				"y": 1.138242392,
				"z": 3.176340166,
				"element": "C" 
			},
			{
				"x": -1.7687635894,
				"y": 2.0696283556,
				"z": 3.7527187257,
				"element": "O" 
			},
			{
				"x": 0.0976258996,
				"y": 1.1806641845,
				"z": 2.5397813992,
				"element": "C" 
			},
			{
				"x": 0.7086000395,
				"y": 0.1410299514,
				"z": 1.7871460752,
				"element": "C" 
			},
			{
				"x": 0.0814703189,
				"y": -1.1061646965,
				"z": 1.5881728191,
				"element": "N" 
			},
			{
				"x": -0.0211518299,
				"y": -1.9151753447,
				"z": 0.0942068465,
				"element": "S" 
			},
			{
				"x": 1.3353883936,
				"y": -2.0814296144,
				"z": -0.4286320048,
				"element": "O" 
			},
			{
				"x": -0.8883553001,
				"y": -3.0537430408,
				"z": 0.3940936728,
				"element": "O" 
			},
			{
				"x": -0.8948872738,
				"y": -0.8150843688,
				"z": -1.0152977536,
				"element": "C" 
			},
			{
				"x": -0.1492213919,
				"y": 0.0411270501,
				"z": -1.840026125,
				"element": "C" 
			},
			{
				"x": -0.8673483804,
				"y": 0.8981595359,
				"z": -2.6579190067,
				"element": "C" 
			},
			{
				"x": -2.2827966464,
				"y": 0.9014560182,
				"z": -2.6583722568,
				"element": "C" 
			},
			{
				"x": -2.673998529,
				"y": 1.8558564932,
				"z": -3.5806921507,
				"element": "N" 
			},
			{
				"x": -1.5687963652,
				"y": 2.4717008296,
				"z": -4.182755114,
				"element": "C" 
			},
			{
				"x": -1.5712289735,
				"y": 3.3429172886,
				"z": -5.0281347478,
				"element": "O" 
			},
			{
				"x": -0.4693534307,
				"y": 1.8518666925,
				"z": -3.5846275724,
				"element": "N" 
			},
			{
				"x": -3.0079649096,
				"y": 0.0411479647,
				"z": -1.8414832349,
				"element": "C" 
			},
			{
				"x": -2.2939410726,
				"y": -0.8253289081,
				"z": -1.0088616852,
				"element": "C" 
			},
			{
				"x": 1.998702166,
				"y": 0.3517849772,
				"z": 1.2675874457,
				"element": "C" 
			},
			{
				"x": 2.6558640553,
				"y": 1.5611171681,
				"z": 1.4599505978,
				"element": "C" 
			},
			{
				"x": 2.0592515717,
				"y": 2.5898752263,
				"z": 2.1952855536,
				"element": "C" 
			},
			{
				"x": 0.7973189324,
				"y": 2.3865608225,
				"z": 2.7318543663,
				"element": "C" 
			},
			{
				"x": -2.7357353988,
				"y": 0.0510702967,
				"z": 3.5502111805,
				"element": "H" 
			},
			{
				"x": -0.7890412771,
				"y": -1.2328513828,
				"z": 2.0970039887,
				"element": "H" 
			},
			{
				"x": 0.933273474,
				"y": 0.0038951813,
				"z": -1.8413282486,
				"element": "H" 
			},
			{
				"x": -3.6165223331,
				"y": 2.1087112062,
				"z": -3.8316511039,
				"element": "H" 
			},
			{
				"x": 0.474909357,
				"y": 2.0997106094,
				"z": -3.833380939,
				"element": "H" 
			},
			{
				"x": -4.0927896583,
				"y": 0.0328829347,
				"z": -1.8532945996,
				"element": "H" 
			},
			{
				"x": -2.8185267805,
				"y": -1.5280207737,
				"z": -0.3717201743,
				"element": "H" 
			},
			{
				"x": 2.476357486,
				"y": -0.4558126093,
				"z": 0.7275381638,
				"element": "H" 
			},
			{
				"x": 3.6526122061,
				"y": 1.6918697515,
				"z": 1.0481091001,
				"element": "H" 
			},
			{
				"x": 2.5777577934,
				"y": 3.5294536851,
				"z": 2.3557871913,
				"element": "H" 
			},
			{
				"x": 0.3060283119,
				"y": 3.1573145663,
				"z": 3.3150473896,
				"element": "H" 
			}
		],
		 "valence_orbital": [ 
			{
				"type": "occ",
				"energy": -0.28631,
				"method": "rhf"
			},
			{
				"type": "occ",
				"energy": -0.27209,
				"method": "rhf"
			},
			{
				"type": "occ",
				"energy": -0.26523,
				"method": "rhf"
			},
			{
				"type": "occ",
				"energy": -0.24505,
				"method": "rhf"
			},
			{
				"type": "occ",
				"energy": -0.22927,
				"method": "rhf"
			},
			{
				"type": "unocc",
				"energy": -0.06261,
				"method": "rhf"
			},
			{
				"type": "unocc",
				"energy": -0.04076,
				"method": "rhf"
			},
			{
				"type": "unocc",
				"energy": -0.02617,
				"method": "rhf"
			},
			{
				"type": "unocc",
				"energy": -0.01625,
				"method": "rhf"
			},
			{
				"type": "unocc",
				"energy": 0.04235,
				"method": "rhf"
			}
		],
		"cosmo_sigma_profile": { 
			"-0.025": 0.0,
			"-0.024": 0.0,
			"-0.023": 0.0,
			"-0.022": 0.0,
			"-0.021": 0.0,
			"-0.02": 0.0,
			"-0.019": 0.547221235979,
			"-0.018": 0.843708249721,
			"-0.017": 2.29341571017,
			"-0.016": 4.27243468241,
			"-0.015": 2.3744558382,
			"-0.014": 2.89347803906,
			"-0.013": 2.65801736891,
			"-0.012": 3.17998149202,
			"-0.011": 2.72420461405,
			"-0.01": 3.63791258239,
			"-0.009": 3.25995639553,
			"-0.008": 5.42804866117,
			"-0.007": 9.4760671244,
			"-0.006": 14.8096659124,
			"-0.005": 15.12973915,
			"-0.004": 15.5780839464,
			"-0.003": 17.8663218733,
			"-0.002": 21.0448288861,
			"-0.001": 23.1327877953,
			"0.0": 23.6088146363,
			"0.001": 27.8226840509,
			"0.002": 25.9875336795,
			"0.003": 18.8609583955,
			"0.004": 11.7709865058,
			"0.005": 6.16725936195,
			"0.006": 5.16422276324,
			"0.007": 6.10555492322,
			"0.008": 7.10468024752,
			"0.009": 6.4251846288,
			"0.01": 10.9317837184,
			"0.011": 13.3545791305,
			"0.012": 4.72505773109,
			"0.013": 7.30424055482,
			"0.014": 1.61960120101,
			"0.015": 0.0,
			"0.016": 0.0,
			"0.017": 0.0,
			"0.018": 0.0,
			"0.019": 0.0,
			"0.02": 0.0,
			"0.021": 0.0,
			"0.022": 0.0,
			"0.023": 0.0,
			"0.024": 0.0,
			"0.025": 0.0
		}
	}
}
