{
	 "smiles": "CC1(C)OCC(O1)[C@H]1O[C@@H]2OC(C)(C)O[C@@H]2[C@H]1O", 
	 "Tm": 382.15, 
	 "num_atms": 38, 
	 "gaussian": { 
		 "optdone": 1, 
		 "sigma_profile": "yes", 
		 "theory": "DFT", 
		 "functional": "B3LYP", 
		 "basiset": "6-31G**", 
		 "properties": { 
			 "R2extent": 5404.5989, 
			 "electric_dipole_moment_norm": 1.66736546084, 
			 "electric_quadrupole_moment_norm": 7.27693003402, 
			 "total_energy": -920.647392136, 
			 "HOMO_LUMO_gap": 0.31258, 
			 "cosmo_polarized_energy": -14.46, 
			 "cosmo_cavitation_energy": 38.59, 
			 "cosmo_dispersion_energy": -26.33, 
			 "cosmo_repulsion_energy": 2.04, 
			 "cosmo_total_nonelectrostatic_energy": 14.31, 
			 "SMD_solvation_energy": 5.95 
		},
		"coords": [
			{
				"x": -2.4146978303,
				"y": 2.7426198069,
				"z": -0.1458300714,
				"element": "C" 
			},
			{
				"x": -2.1146214604,
				"y": 1.3325437403,
				"z": 0.3471066553,
				"element": "C" 
			},
			{
				"x": -3.1785344962,
				"y": 0.3122796678,
				"z": -0.0607550609,
				"element": "C" 
			},
			{
				"x": -1.9722857497,
				"y": 1.3801454817,
				"z": 1.7643460737,
				"element": "O" 
			},
			{
				"x": -0.9117847359,
				"y": 0.4984521139,
				"z": 2.1107522177,
				"element": "C" 
			},
			{
				"x": 0.0440512564,
				"y": 0.6305372276,
				"z": 0.9205980997,
				"element": "C" 
			},
			{
				"x": -0.840618124,
				"y": 0.8999898614,
				"z": -0.1688546716,
				"element": "O" 
			},
			{
				"x": 0.8702376315,
				"y": -0.6265423081,
				"z": 0.6408057897,
				"element": "C" 
			},
			{
				"x": 0.0220493717,
				"y": -1.7543182664,
				"z": 0.3839627881,
				"element": "O" 
			},
			{
				"x": -0.095421011,
				"y": -1.9833702796,
				"z": -1.0019416353,
				"element": "C" 
			},
			{
				"x": 0.4035004224,
				"y": -3.2683786961,
				"z": -1.3298352239,
				"element": "O" 
			},
			{
				"x": 1.1024014273,
				"y": -3.1861739441,
				"z": -2.5686779114,
				"element": "C" 
			},
			{
				"x": 0.1714747434,
				"y": -3.5123670665,
				"z": -3.7394586544,
				"element": "C" 
			},
			{
				"x": 2.3147911195,
				"y": -4.1041461859,
				"z": -2.503172959,
				"element": "C" 
			},
			{
				"x": 1.5480705193,
				"y": -1.8210000014,
				"z": -2.6879616987,
				"element": "O" 
			},
			{
				"x": 0.8614233178,
				"y": -1.0264982974,
				"z": -1.7334706097,
				"element": "C" 
			},
			{
				"x": 1.776846489,
				"y": -0.5280280262,
				"z": -0.5986438032,
				"element": "C" 
			},
			{
				"x": 2.2857793336,
				"y": 0.7816740719,
				"z": -0.7433018004,
				"element": "O" 
			},
			{
				"x": -1.607802988,
				"y": 3.4147767937,
				"z": 0.1547525093,
				"element": "H" 
			},
			{
				"x": -3.3534211718,
				"y": 3.1030818905,
				"z": 0.2843548867,
				"element": "H" 
			},
			{
				"x": -2.4998681163,
				"y": 2.7540410882,
				"z": -1.2358056922,
				"element": "H" 
			},
			{
				"x": -3.2382135928,
				"y": 0.2395086244,
				"z": -1.150847556,
				"element": "H" 
			},
			{
				"x": -4.1578534353,
				"y": 0.6106433103,
				"z": 0.3240941524,
				"element": "H" 
			},
			{
				"x": -2.926133347,
				"y": -0.6730112596,
				"z": 0.3393374254,
				"element": "H" 
			},
			{
				"x": -0.4797108757,
				"y": 0.8364549306,
				"z": 3.0562228535,
				"element": "H" 
			},
			{
				"x": -1.2621799993,
				"y": -0.5368330744,
				"z": 2.2183619414,
				"element": "H" 
			},
			{
				"x": 0.7328620185,
				"y": 1.4741390416,
				"z": 1.0601247556,
				"element": "H" 
			},
			{
				"x": 1.4558912689,
				"y": -0.8507095177,
				"z": 1.5405118088,
				"element": "H" 
			},
			{
				"x": -1.1513796728,
				"y": -1.8996093608,
				"z": -1.281916835,
				"element": "H" 
			},
			{
				"x": 0.7058004642,
				"y": -3.4106584789,
				"z": -4.6882785653,
				"element": "H" 
			},
			{
				"x": -0.2058142469,
				"y": -4.5352803581,
				"z": -3.6531029953,
				"element": "H" 
			},
			{
				"x": -0.6807273878,
				"y": -2.8269335648,
				"z": -3.7505635563,
				"element": "H" 
			},
			{
				"x": 2.9352490167,
				"y": -3.8330913878,
				"z": -1.6461683581,
				"element": "H" 
			},
			{
				"x": 1.9971975496,
				"y": -5.1446157071,
				"z": -2.3940499836,
				"element": "H" 
			},
			{
				"x": 2.9072982355,
				"y": -4.0111179651,
				"z": -3.4172837044,
				"element": "H" 
			},
			{
				"x": 0.3560218357,
				"y": -0.1848574204,
				"z": -2.2143043009,
				"element": "H" 
			},
			{
				"x": 2.5904611738,
				"y": -1.2611110698,
				"z": -0.4982181148,
				"element": "H" 
			},
			{
				"x": 2.8678610466,
				"y": 0.7878645853,
				"z": -1.5138881954,
				"element": "H" 
			}
		],
		 "valence_orbital": [ 
			{
				"type": "occ",
				"energy": -0.27773,
				"method": "rhf"
			},
			{
				"type": "occ",
				"energy": -0.26657,
				"method": "rhf"
			},
			{
				"type": "occ",
				"energy": -0.26342,
				"method": "rhf"
			},
			{
				"type": "occ",
				"energy": -0.24975,
				"method": "rhf"
			},
			{
				"type": "occ",
				"energy": -0.24836,
				"method": "rhf"
			},
			{
				"type": "unocc",
				"energy": 0.06422,
				"method": "rhf"
			},
			{
				"type": "unocc",
				"energy": 0.07694,
				"method": "rhf"
			},
			{
				"type": "unocc",
				"energy": 0.08019,
				"method": "rhf"
			},
			{
				"type": "unocc",
				"energy": 0.09358,
				"method": "rhf"
			},
			{
				"type": "unocc",
				"energy": 0.1101,
				"method": "rhf"
			}
		],
		"cosmo_sigma_profile": { 
			"-0.025": 0.0,
			"-0.024": 0.0,
			"-0.023": 0.0,
			"-0.022": 0.0,
			"-0.021": 0.0,
			"-0.02": 0.0,
			"-0.019": 0.0,
			"-0.018": 0.0,
			"-0.017": 0.0292827704963,
			"-0.016": 1.08710672647,
			"-0.015": 0.645700743868,
			"-0.014": 1.00474545268,
			"-0.013": 1.251268615,
			"-0.012": 0.436983239074,
			"-0.011": 0.676828722944,
			"-0.01": 1.17262434915,
			"-0.009": 0.503654033265,
			"-0.008": 1.21169234511,
			"-0.007": 3.61569963504,
			"-0.006": 9.04675254981,
			"-0.005": 14.4551226577,
			"-0.004": 32.9461781327,
			"-0.003": 35.3146968159,
			"-0.002": 28.8940227205,
			"-0.001": 32.4401177806,
			"0.0": 33.7708703356,
			"0.001": 19.8373218565,
			"0.002": 9.78761926019,
			"0.003": 8.03097805855,
			"0.004": 7.50759243395,
			"0.005": 7.67115735309,
			"0.006": 6.72779709025,
			"0.007": 4.70474030602,
			"0.008": 5.97975707689,
			"0.009": 6.31303025441,
			"0.01": 6.27315204278,
			"0.011": 7.39763532186,
			"0.012": 7.86950755571,
			"0.013": 1.96997342986,
			"0.014": 0.0,
			"0.015": 0.0,
			"0.016": 0.0,
			"0.017": 0.0,
			"0.018": 0.0,
			"0.019": 0.0,
			"0.02": 0.0,
			"0.021": 0.0,
			"0.022": 0.0,
			"0.023": 0.0,
			"0.024": 0.0,
			"0.025": 0.0
		}
	}
}
