{
	 "smiles": "CCOC(=O)C1=NN=C(C)N1C1CC1", 
	 "Tm": 383.15, 
	 "num_atms": 27, 
	 "gaussian": { 
		 "optdone": 1, 
		 "sigma_profile": "yes", 
		 "theory": "DFT", 
		 "functional": "B3LYP", 
		 "basiset": "6-31G**", 
		 "properties": { 
			 "R2extent": 3283.6889, 
			 "electric_dipole_moment_norm": 4.24381397448, 
			 "electric_quadrupole_moment_norm": 17.3704643127, 
			 "total_energy": -665.456984337, 
			 "HOMO_LUMO_gap": 0.20828, 
			 "cosmo_polarized_energy": -17.32, 
			 "cosmo_cavitation_energy": 30.56, 
			 "cosmo_dispersion_energy": -21.73, 
			 "cosmo_repulsion_energy": 1.74, 
			 "cosmo_total_nonelectrostatic_energy": 10.57, 
			 "SMD_solvation_energy": 3.88 
		},
		"coords": [
			{
				"x": 2.2426743486,
				"y": -4.1676334626,
				"z": 0.6401828167,
				"element": "C" 
			},
			{
				"x": 2.1791103798,
				"y": -3.2073944894,
				"z": -0.5379850671,
				"element": "C" 
			},
			{
				"x": 0.9271292721,
				"y": -2.479344807,
				"z": -0.5541913302,
				"element": "O" 
			},
			{
				"x": 0.8704584544,
				"y": -1.3716806183,
				"z": 0.199634411,
				"element": "C" 
			},
			{
				"x": 1.7995880957,
				"y": -0.9188437998,
				"z": 0.845279763,
				"element": "O" 
			},
			{
				"x": -0.4806324773,
				"y": -0.7683379029,
				"z": 0.1637737277,
				"element": "C" 
			},
			{
				"x": -1.5781950843,
				"y": -1.3738918668,
				"z": -0.2423974177,
				"element": "N" 
			},
			{
				"x": -2.626616782,
				"y": -0.5302391317,
				"z": -0.0070534178,
				"element": "N" 
			},
			{
				"x": -2.145779822,
				"y": 0.575734271,
				"z": 0.5339387798,
				"element": "C" 
			},
			{
				"x": -2.9885874395,
				"y": 1.7282448066,
				"z": 0.9646829775,
				"element": "C" 
			},
			{
				"x": -0.7812304637,
				"y": 0.4895503695,
				"z": 0.6567145156,
				"element": "N" 
			},
			{
				"x": 0.1146064201,
				"y": 1.4728912757,
				"z": 1.2211410503,
				"element": "C" 
			},
			{
				"x": 1.2344846007,
				"y": 2.0245641779,
				"z": 0.3877707389,
				"element": "C" 
			},
			{
				"x": 0.0604592497,
				"y": 2.9018799408,
				"z": 0.7310053693,
				"element": "C" 
			},
			{
				"x": 2.2512340921,
				"y": -3.6189510739,
				"z": 1.5852618235,
				"element": "H" 
			},
			{
				"x": 1.3863218007,
				"y": -4.8476752556,
				"z": 0.6325928478,
				"element": "H" 
			},
			{
				"x": 3.1590661908,
				"y": -4.7644276738,
				"z": 0.5818915355,
				"element": "H" 
			},
			{
				"x": 3.0049641421,
				"y": -2.4923664119,
				"z": -0.5125148852,
				"element": "H" 
			},
			{
				"x": 2.1878958965,
				"y": -3.7408148332,
				"z": -1.4909046711,
				"element": "H" 
			},
			{
				"x": -2.7588058412,
				"y": 2.0392938397,
				"z": 1.9882873606,
				"element": "H" 
			},
			{
				"x": -4.0320904471,
				"y": 1.4140249321,
				"z": 0.9138827565,
				"element": "H" 
			},
			{
				"x": -2.8606612049,
				"y": 2.6009633725,
				"z": 0.316064671,
				"element": "H" 
			},
			{
				"x": 0.3229873882,
				"y": 1.305713661,
				"z": 2.2738845064,
				"element": "H" 
			},
			{
				"x": 1.3127489754,
				"y": 1.6726595906,
				"z": -0.6352155764,
				"element": "H" 
			},
			{
				"x": 2.186132278,
				"y": 2.1779666534,
				"z": 0.8839144018,
				"element": "H" 
			},
			{
				"x": 0.1784154705,
				"y": 3.6869796355,
				"z": 1.4711368988,
				"element": "H" 
			},
			{
				"x": -0.6297774934,
				"y": 3.1403348004,
				"z": -0.070878586,
				"element": "H" 
			}
		],
		 "valence_orbital": [ 
			{
				"type": "occ",
				"energy": -0.29973,
				"method": "rhf"
			},
			{
				"type": "occ",
				"energy": -0.28719,
				"method": "rhf"
			},
			{
				"type": "occ",
				"energy": -0.27557,
				"method": "rhf"
			},
			{
				"type": "occ",
				"energy": -0.25482,
				"method": "rhf"
			},
			{
				"type": "occ",
				"energy": -0.24802,
				"method": "rhf"
			},
			{
				"type": "unocc",
				"energy": -0.03974,
				"method": "rhf"
			},
			{
				"type": "unocc",
				"energy": 0.0322,
				"method": "rhf"
			},
			{
				"type": "unocc",
				"energy": 0.07891,
				"method": "rhf"
			},
			{
				"type": "unocc",
				"energy": 0.08008,
				"method": "rhf"
			},
			{
				"type": "unocc",
				"energy": 0.09584,
				"method": "rhf"
			}
		],
		"cosmo_sigma_profile": { 
			"-0.025": 0.0,
			"-0.024": 0.0,
			"-0.023": 0.0,
			"-0.022": 0.0,
			"-0.021": 0.0,
			"-0.02": 0.0,
			"-0.019": 0.0,
			"-0.018": 0.0,
			"-0.017": 0.0,
			"-0.016": 0.0,
			"-0.015": 0.0,
			"-0.014": 0.0,
			"-0.013": 0.0,
			"-0.012": 0.0,
			"-0.011": 0.0,
			"-0.01": 0.0,
			"-0.009": 0.0,
			"-0.008": 0.863222282968,
			"-0.007": 5.93967216112,
			"-0.006": 17.6323152043,
			"-0.005": 24.7018876795,
			"-0.004": 26.1224515462,
			"-0.003": 27.9232832617,
			"-0.002": 26.4547406291,
			"-0.001": 21.1133132028,
			"0.0": 16.2110857669,
			"0.001": 8.89113502751,
			"0.002": 6.68314057097,
			"0.003": 6.70842613769,
			"0.004": 5.62822519306,
			"0.005": 3.54009268158,
			"0.006": 3.25367945672,
			"0.007": 5.22584293665,
			"0.008": 3.42715321189,
			"0.009": 4.45863177725,
			"0.01": 4.23755057252,
			"0.011": 5.39397628141,
			"0.012": 4.37773145514,
			"0.013": 3.59515195553,
			"0.014": 3.50066819612,
			"0.015": 2.48332005078,
			"0.016": 2.3690385571,
			"0.017": 0.600155433416,
			"0.018": 0.0,
			"0.019": 0.0,
			"0.02": 0.0,
			"0.021": 0.0,
			"0.022": 0.0,
			"0.023": 0.0,
			"0.024": 0.0,
			"0.025": 0.0
		}
	}
}
