{
	 "smiles": "CN(C)C1=CC=C(C=C1)N=C1C=CC(=O)C=C1", 
	 "Tm": 407.15, 
	 "num_atms": 31, 
	 "gaussian": { 
		 "optdone": 1, 
		 "sigma_profile": "yes", 
		 "theory": "DFT", 
		 "functional": "B3LYP", 
		 "basiset": "6-31G**", 
		 "properties": { 
			 "R2extent": 6434.9768, 
			 "electric_dipole_moment_norm": 8.33826530281, 
			 "electric_quadrupole_moment_norm": 20.7556818076, 
			 "total_energy": -726.608218335, 
			 "HOMO_LUMO_gap": 0.09296, 
			 "cosmo_polarized_energy": -15.03, 
			 "cosmo_cavitation_energy": 34.73, 
			 "cosmo_dispersion_energy": -25.34, 
			 "cosmo_repulsion_energy": 1.94, 
			 "cosmo_total_nonelectrostatic_energy": 11.33, 
			 "SMD_solvation_energy": 4.96 
		},
		"coords": [
			{
				"x": 4.7043454561,
				"y": 1.1005608781,
				"z": -1.2495947071,
				"element": "C" 
			},
			{
				"x": 3.6581737632,
				"y": 0.5180038087,
				"z": -2.0740047544,
				"element": "N" 
			},
			{
				"x": 3.8867323131,
				"y": 0.3704891499,
				"z": -3.5025470624,
				"element": "C" 
			},
			{
				"x": 2.3914398968,
				"y": 0.3384272649,
				"z": -1.5562799206,
				"element": "C" 
			},
			{
				"x": 2.0986957367,
				"y": 0.6305591488,
				"z": -0.2004211662,
				"element": "C" 
			},
			{
				"x": 0.8376884926,
				"y": 0.4050780218,
				"z": 0.3289328083,
				"element": "C" 
			},
			{
				"x": -0.2178839105,
				"y": -0.0970875643,
				"z": -0.4666641593,
				"element": "C" 
			},
			{
				"x": 0.0561798831,
				"y": -0.3053365715,
				"z": -1.83659382,
				"element": "C" 
			},
			{
				"x": 1.3213862365,
				"y": -0.1249800622,
				"z": -2.364940196,
				"element": "C" 
			},
			{
				"x": -1.5235088459,
				"y": -0.2919658299,
				"z": -0.0509505254,
				"element": "N" 
			},
			{
				"x": -1.8805745776,
				"y": -0.6947186838,
				"z": 1.1400128332,
				"element": "C" 
			},
			{
				"x": -3.311070878,
				"y": -0.6323484923,
				"z": 1.4377556499,
				"element": "C" 
			},
			{
				"x": -3.8071886294,
				"y": -0.9536403141,
				"z": 2.651373511,
				"element": "C" 
			},
			{
				"x": -2.9330847447,
				"y": -1.4454711886,
				"z": 3.7323271615,
				"element": "C" 
			},
			{
				"x": -3.366510165,
				"y": -1.742912937,
				"z": 4.8466087067,
				"element": "O" 
			},
			{
				"x": -1.5031491705,
				"y": -1.6005341198,
				"z": 3.3888809804,
				"element": "C" 
			},
			{
				"x": -1.0103044143,
				"y": -1.2458709077,
				"z": 2.1824362119,
				"element": "C" 
			},
			{
				"x": 4.863159854,
				"y": 0.5120785039,
				"z": -0.3384749603,
				"element": "H" 
			},
			{
				"x": 5.6407627422,
				"y": 1.1036493991,
				"z": -1.8085421934,
				"element": "H" 
			},
			{
				"x": 4.4805072699,
				"y": 2.1356436121,
				"z": -0.9513944217,
				"element": "H" 
			},
			{
				"x": 4.9454909431,
				"y": 0.524759341,
				"z": -3.7132109404,
				"element": "H" 
			},
			{
				"x": 3.3105045388,
				"y": 1.0937647833,
				"z": -4.0977097533,
				"element": "H" 
			},
			{
				"x": 3.6232923518,
				"y": -0.6371597218,
				"z": -3.8455517815,
				"element": "H" 
			},
			{
				"x": 2.8590111226,
				"y": 1.0564551303,
				"z": 0.4424493411,
				"element": "H" 
			},
			{
				"x": 0.6453945623,
				"y": 0.6852512223,
				"z": 1.3592430571,
				"element": "H" 
			},
			{
				"x": -0.7579169464,
				"y": -0.6409744423,
				"z": -2.4711591675,
				"element": "H" 
			},
			{
				"x": 1.4786447308,
				"y": -0.3256556557,
				"z": -3.4173361566,
				"element": "H" 
			},
			{
				"x": -3.9438359543,
				"y": -0.2685249005,
				"z": 0.6335189815,
				"element": "H" 
			},
			{
				"x": -4.8645061132,
				"y": -0.8713328744,
				"z": 2.8838753763,
				"element": "H" 
			},
			{
				"x": -0.8753821766,
				"y": -2.0449783391,
				"z": 4.1558570487,
				"element": "H" 
			},
			{
				"x": 0.034106633,
				"y": -1.4154276592,
				"z": 1.9441040186,
				"element": "H" 
			}
		],
		 "valence_orbital": [ 
			{
				"type": "occ",
				"energy": -0.26177,
				"method": "rhf"
			},
			{
				"type": "occ",
				"energy": -0.25932,
				"method": "rhf"
			},
			{
				"type": "occ",
				"energy": -0.25529,
				"method": "rhf"
			},
			{
				"type": "occ",
				"energy": -0.23474,
				"method": "rhf"
			},
			{
				"type": "occ",
				"energy": -0.19095,
				"method": "rhf"
			},
			{
				"type": "unocc",
				"energy": -0.09799,
				"method": "rhf"
			},
			{
				"type": "unocc",
				"energy": -0.00918,
				"method": "rhf"
			},
			{
				"type": "unocc",
				"energy": -0.00037,
				"method": "rhf"
			},
			{
				"type": "unocc",
				"energy": 0.00827,
				"method": "rhf"
			},
			{
				"type": "unocc",
				"energy": 0.05433,
				"method": "rhf"
			}
		],
		"cosmo_sigma_profile": { 
			"-0.025": 0.0,
			"-0.024": 0.0,
			"-0.023": 0.0,
			"-0.022": 0.0,
			"-0.021": 0.0,
			"-0.02": 0.0,
			"-0.019": 0.0,
			"-0.018": 0.0,
			"-0.017": 0.0,
			"-0.016": 0.0,
			"-0.015": 0.0,
			"-0.014": 0.0,
			"-0.013": 0.0,
			"-0.012": 0.0,
			"-0.011": 0.0,
			"-0.01": 0.0,
			"-0.009": 0.0,
			"-0.008": 0.468910482736,
			"-0.007": 4.75355543594,
			"-0.006": 17.6649309125,
			"-0.005": 24.9219985955,
			"-0.004": 28.5203443653,
			"-0.003": 24.4800350958,
			"-0.002": 27.1848673127,
			"-0.001": 17.5430271395,
			"0.0": 19.5498685484,
			"0.001": 22.6922319254,
			"0.002": 18.9821535392,
			"0.003": 16.9526092484,
			"0.004": 15.7159873128,
			"0.005": 9.03332708695,
			"0.006": 2.68254912441,
			"0.007": 2.97617472295,
			"0.008": 2.42077140843,
			"0.009": 2.564501147,
			"0.01": 2.57541224381,
			"0.011": 2.22971408604,
			"0.012": 3.74261783568,
			"0.013": 5.80190140538,
			"0.014": 3.29412886305,
			"0.015": 0.553780358162,
			"0.016": 0.0,
			"0.017": 0.0,
			"0.018": 0.0,
			"0.019": 0.0,
			"0.02": 0.0,
			"0.021": 0.0,
			"0.022": 0.0,
			"0.023": 0.0,
			"0.024": 0.0,
			"0.025": 0.0
		}
	}
}
