{
	 "smiles": "BrCC(=O)C1=CC2=C(NC(=O)C2)C=C1", 
	 "Tm": 498.15, 
	 "num_atms": 22, 
	 "gaussian": { 
		 "optdone": 1, 
		 "sigma_profile": "yes", 
		 "theory": "DFT", 
		 "functional": "B3LYP", 
		 "basiset": "6-31G**", 
		 "properties": { 
			 "R2extent": 6169.1704, 
			 "electric_dipole_moment_norm": 1.62938261007, 
			 "electric_quadrupole_moment_norm": 21.6924298729, 
			 "total_energy": -3162.51057254, 
			 "HOMO_LUMO_gap": 0.16139, 
			 "cosmo_polarized_energy": -16.84, 
			 "cosmo_cavitation_energy": 28.91, 
			 "cosmo_dispersion_energy": -21.51, 
			 "cosmo_repulsion_energy": 1.71, 
			 "cosmo_total_nonelectrostatic_energy": 9.11, 
			 "SMD_solvation_energy": 4.73 
		},
		"coords": [
			{
				"x": -4.9559060231,
				"y": 0.0579907525,
				"z": 0.5800637113,
				"element": "Br" 
			},
			{
				"x": -3.9856558072,
				"y": 0.4327975425,
				"z": 2.2671295846,
				"element": "C" 
			},
			{
				"x": -2.827376405,
				"y": -0.5414486437,
				"z": 2.4739044226,
				"element": "C" 
			},
			{
				"x": -2.9435212292,
				"y": -1.3946517526,
				"z": 3.3421414708,
				"element": "O" 
			},
			{
				"x": -1.5883756944,
				"y": -0.4025997284,
				"z": 1.6654958736,
				"element": "C" 
			},
			{
				"x": -1.4274840613,
				"y": 0.5784151673,
				"z": 0.6625344591,
				"element": "C" 
			},
			{
				"x": -0.2323413579,
				"y": 0.6564073031,
				"z": -0.0270502798,
				"element": "C" 
			},
			{
				"x": 0.811250429,
				"y": -0.2422009975,
				"z": 0.2744101939,
				"element": "C" 
			},
			{
				"x": 1.9019362328,
				"y": 0.0297506006,
				"z": -0.5458053232,
				"element": "N" 
			},
			{
				"x": 1.6663605793,
				"y": 1.0893343393,
				"z": -1.4214800329,
				"element": "C" 
			},
			{
				"x": 2.4575928953,
				"y": 1.5178288269,
				"z": -2.2334651117,
				"element": "O" 
			},
			{
				"x": 0.2337578601,
				"y": 1.5696511453,
				"z": -1.1329742077,
				"element": "C" 
			},
			{
				"x": 0.678155127,
				"y": -1.2220310645,
				"z": 1.2574448923,
				"element": "C" 
			},
			{
				"x": -0.5313124627,
				"y": -1.2873140478,
				"z": 1.943612376,
				"element": "C" 
			},
			{
				"x": -3.6702839733,
				"y": 1.4742682644,
				"z": 2.2071256038,
				"element": "H" 
			},
			{
				"x": -4.7068776346,
				"y": 0.2873825505,
				"z": 3.0670544544,
				"element": "H" 
			},
			{
				"x": -2.2388013006,
				"y": 1.2541488598,
				"z": 0.4133674081,
				"element": "H" 
			},
			{
				"x": 2.780871643,
				"y": -0.4674240813,
				"z": -0.5390573906,
				"element": "H" 
			},
			{
				"x": -0.3631883342,
				"y": 1.4934158449,
				"z": -2.0486479553,
				"element": "H" 
			},
			{
				"x": 0.2579802174,
				"y": 2.6287866439,
				"z": -0.8534744574,
				"element": "H" 
			},
			{
				"x": 1.486316594,
				"y": -1.910986617,
				"z": 1.4822850032,
				"element": "H" 
			},
			{
				"x": -0.6858972945,
				"y": -2.0296209084,
				"z": 2.7191853051,
				"element": "H" 
			}
		],
		 "valence_orbital": [ 
			{
				"type": "occ",
				"energy": -0.28612,
				"method": "rhf"
			},
			{
				"type": "occ",
				"energy": -0.27201,
				"method": "rhf"
			},
			{
				"type": "occ",
				"energy": -0.27143,
				"method": "rhf"
			},
			{
				"type": "occ",
				"energy": -0.25857,
				"method": "rhf"
			},
			{
				"type": "occ",
				"energy": -0.23521,
				"method": "rhf"
			},
			{
				"type": "unocc",
				"energy": -0.07382,
				"method": "rhf"
			},
			{
				"type": "unocc",
				"energy": -0.02763,
				"method": "rhf"
			},
			{
				"type": "unocc",
				"energy": -0.01751,
				"method": "rhf"
			},
			{
				"type": "unocc",
				"energy": 0.01014,
				"method": "rhf"
			},
			{
				"type": "unocc",
				"energy": 0.05337,
				"method": "rhf"
			}
		],
		"cosmo_sigma_profile": { 
			"-0.025": 0.0,
			"-0.024": 0.0,
			"-0.023": 0.0,
			"-0.022": 0.0,
			"-0.021": 0.0,
			"-0.02": 0.0,
			"-0.019": 0.0,
			"-0.018": 0.0,
			"-0.017": 0.0479511415881,
			"-0.016": 1.00385372239,
			"-0.015": 1.65037267949,
			"-0.014": 1.18463976807,
			"-0.013": 0.935550089496,
			"-0.012": 1.36796886285,
			"-0.011": 1.17235668905,
			"-0.01": 1.18086669413,
			"-0.009": 3.68711735353,
			"-0.008": 7.82455791333,
			"-0.007": 12.8160900673,
			"-0.006": 12.802330199,
			"-0.005": 15.9452423973,
			"-0.004": 13.9570871509,
			"-0.003": 11.1067979335,
			"-0.002": 11.9363385405,
			"-0.001": 11.0398639029,
			"0.0": 14.7232734149,
			"0.001": 13.5644714673,
			"0.002": 16.7662341317,
			"0.003": 20.4919455663,
			"0.004": 12.7457782029,
			"0.005": 10.4200264727,
			"0.006": 4.26750086745,
			"0.007": 3.4270007268,
			"0.008": 2.44017075272,
			"0.009": 3.20127273246,
			"0.01": 3.77929051247,
			"0.011": 6.35480371157,
			"0.012": 7.9549646168,
			"0.013": 4.31267889884,
			"0.014": 0.442599132827,
			"0.015": 0.0,
			"0.016": 0.0,
			"0.017": 0.0,
			"0.018": 0.0,
			"0.019": 0.0,
			"0.02": 0.0,
			"0.021": 0.0,
			"0.022": 0.0,
			"0.023": 0.0,
			"0.024": 0.0,
			"0.025": 0.0
		}
	}
}
