{
	 "smiles": "OC(=O)C1=C(N=CC=C1)N1C=CC=N1", 
	 "Tm": 380.15, 
	 "num_atms": 21, 
	 "gaussian": { 
		 "optdone": 1, 
		 "sigma_profile": "yes", 
		 "theory": "DFT", 
		 "functional": "B3LYP", 
		 "basiset": "6-31G**", 
		 "properties": { 
			 "R2extent": 2667.4499, 
			 "electric_dipole_moment_norm": 4.12151044279, 
			 "electric_quadrupole_moment_norm": 12.8568209041, 
			 "total_energy": -661.8500404, 
			 "HOMO_LUMO_gap": 0.16966, 
			 "cosmo_polarized_energy": -17.82, 
			 "cosmo_cavitation_energy": 26.18, 
			 "cosmo_dispersion_energy": -19.29, 
			 "cosmo_repulsion_energy": 1.5, 
			 "cosmo_total_nonelectrostatic_energy": 8.38, 
			 "SMD_solvation_energy": 4.15 
		},
		"coords": [
			{
				"x": -2.1931345452,
				"y": 1.7991259527,
				"z": -1.5813848781,
				"element": "O" 
			},
			{
				"x": -1.1259865149,
				"y": 1.2877301353,
				"z": -0.9103900316,
				"element": "C" 
			},
			{
				"x": -0.6205841266,
				"y": 1.8825708564,
				"z": 0.0177536094,
				"element": "O" 
			},
			{
				"x": -0.6829505244,
				"y": -0.0156010995,
				"z": -1.4855688886,
				"element": "C" 
			},
			{
				"x": 0.2924407011,
				"y": -0.8599636219,
				"z": -0.8959643195,
				"element": "C" 
			},
			{
				"x": 0.7934530292,
				"y": -1.9261335534,
				"z": -1.5213933469,
				"element": "N" 
			},
			{
				"x": 0.3441775434,
				"y": -2.2311146151,
				"z": -2.7381842621,
				"element": "C" 
			},
			{
				"x": -0.6654309427,
				"y": -1.5192448592,
				"z": -3.3860757028,
				"element": "C" 
			},
			{
				"x": -1.17295613,
				"y": -0.3975414322,
				"z": -2.7455880093,
				"element": "C" 
			},
			{
				"x": 0.798160949,
				"y": -0.6632648758,
				"z": 0.4111586255,
				"element": "N" 
			},
			{
				"x": 0.1021963286,
				"y": -0.3964108006,
				"z": 1.5629086252,
				"element": "C" 
			},
			{
				"x": 1.0046241265,
				"y": -0.4512948785,
				"z": 2.5946929708,
				"element": "C" 
			},
			{
				"x": 2.2410087591,
				"y": -0.7598557382,
				"z": 1.9683407418,
				"element": "C" 
			},
			{
				"x": 2.1198745934,
				"y": -0.9034799555,
				"z": 0.6583921373,
				"element": "N" 
			},
			{
				"x": -2.3720261815,
				"y": 2.6579668287,
				"z": -1.1643696765,
				"element": "H" 
			},
			{
				"x": 0.8046065999,
				"y": -3.0974936004,
				"z": -3.2097022378,
				"element": "H" 
			},
			{
				"x": -1.0256693605,
				"y": -1.8237907333,
				"z": -4.3626840377,
				"element": "H" 
			},
			{
				"x": -1.9295847976,
				"y": 0.2161002364,
				"z": -3.2188179726,
				"element": "H" 
			},
			{
				"x": -0.9562278113,
				"y": -0.1948918471,
				"z": 1.5528370673,
				"element": "H" 
			},
			{
				"x": 0.805958352,
				"y": -0.29329389,
				"z": 3.6440375048,
				"element": "H" 
			},
			{
				"x": 3.2145499526,
				"y": -0.8767185089,
				"z": 2.4264020811,
				"element": "H" 
			}
		],
		 "valence_orbital": [ 
			{
				"type": "occ",
				"energy": -0.28863,
				"method": "rhf"
			},
			{
				"type": "occ",
				"energy": -0.2856,
				"method": "rhf"
			},
			{
				"type": "occ",
				"energy": -0.26864,
				"method": "rhf"
			},
			{
				"type": "occ",
				"energy": -0.24068,
				"method": "rhf"
			},
			{
				"type": "occ",
				"energy": -0.23891,
				"method": "rhf"
			},
			{
				"type": "unocc",
				"energy": -0.06925,
				"method": "rhf"
			},
			{
				"type": "unocc",
				"energy": -0.04141,
				"method": "rhf"
			},
			{
				"type": "unocc",
				"energy": 0.03077,
				"method": "rhf"
			},
			{
				"type": "unocc",
				"energy": 0.03505,
				"method": "rhf"
			},
			{
				"type": "unocc",
				"energy": 0.06832,
				"method": "rhf"
			}
		],
		"cosmo_sigma_profile": { 
			"-0.025": 0.0,
			"-0.024": 0.0,
			"-0.023": 0.0,
			"-0.022": 0.0,
			"-0.021": 0.0,
			"-0.02": 0.0,
			"-0.019": 0.17412289617,
			"-0.018": 1.0923655903,
			"-0.017": 0.734257676568,
			"-0.016": 0.983681672618,
			"-0.015": 0.870623495409,
			"-0.014": 0.42183819746,
			"-0.013": 0.158562870358,
			"-0.012": 0.688972932471,
			"-0.011": 1.40238290009,
			"-0.01": 0.940358224554,
			"-0.009": 2.50738245534,
			"-0.008": 7.26289490718,
			"-0.007": 12.7293431327,
			"-0.006": 12.1340567305,
			"-0.005": 10.9439082689,
			"-0.004": 11.2698375678,
			"-0.003": 12.855744259,
			"-0.002": 15.6188623043,
			"-0.001": 15.6341162669,
			"0.0": 15.5945393854,
			"0.001": 13.4343655651,
			"0.002": 8.02868763836,
			"0.003": 8.07319458317,
			"0.004": 9.42247257971,
			"0.005": 8.46121724702,
			"0.006": 6.54964723271,
			"0.007": 4.16754860076,
			"0.008": 3.92286928181,
			"0.009": 4.27510376528,
			"0.01": 4.39926024307,
			"0.011": 5.35531021693,
			"0.012": 3.09783433909,
			"0.013": 1.34926764898,
			"0.014": 1.51621587899,
			"0.015": 1.57876336899,
			"0.016": 1.4905260482,
			"0.017": 1.43418819103,
			"0.018": 0.621585075855,
			"0.019": 0.0,
			"0.02": 0.0,
			"0.021": 0.0,
			"0.022": 0.0,
			"0.023": 0.0,
			"0.024": 0.0,
			"0.025": 0.0
		}
	}
}
