{
	 "smiles": "OC(=O)C1=C2OCOC2=CC=C1", 
	 "Tm": 497.15, 
	 "num_atms": 18, 
	 "gaussian": { 
		 "optdone": 1, 
		 "sigma_profile": "yes", 
		 "theory": "DFT", 
		 "functional": "B3LYP", 
		 "basiset": "6-31G**", 
		 "properties": { 
			 "R2extent": 2319.6623, 
			 "electric_dipole_moment_norm": 1.51694845661, 
			 "electric_quadrupole_moment_norm": 8.76400558249, 
			 "total_energy": -609.348584296, 
			 "HOMO_LUMO_gap": 0.1697, 
			 "cosmo_polarized_energy": -12.22, 
			 "cosmo_cavitation_energy": 22.73, 
			 "cosmo_dispersion_energy": -17.43, 
			 "cosmo_repulsion_energy": 1.39, 
			 "cosmo_total_nonelectrostatic_energy": 6.69, 
			 "SMD_solvation_energy": 5.9 
		},
		"coords": [
			{
				"x": -1.9439803218,
				"y": 2.4708744823,
				"z": -1.0190095329,
				"element": "O" 
			},
			{
				"x": -0.9907468239,
				"y": 1.7835386862,
				"z": -1.7047096009,
				"element": "C" 
			},
			{
				"x": -0.6818983194,
				"y": 2.0750822775,
				"z": -2.8421566362,
				"element": "O" 
			},
			{
				"x": -0.4072693789,
				"y": 0.6807280538,
				"z": -0.9091620903,
				"element": "C" 
			},
			{
				"x": 0.586560799,
				"y": -0.1386840379,
				"z": -1.4403001399,
				"element": "C" 
			},
			{
				"x": 1.1644954761,
				"y": -0.095871008,
				"z": -2.673826623,
				"element": "O" 
			},
			{
				"x": 2.1266514372,
				"y": -1.1574603352,
				"z": -2.7098554297,
				"element": "C" 
			},
			{
				"x": 2.0928804137,
				"y": -1.8292329935,
				"z": -1.4459757543,
				"element": "O" 
			},
			{
				"x": 1.1429984765,
				"y": -1.1821516477,
				"z": -0.6963531625,
				"element": "C" 
			},
			{
				"x": 0.7482422113,
				"y": -1.4629080052,
				"z": 0.5943043767,
				"element": "C" 
			},
			{
				"x": -0.2567975878,
				"y": -0.6424325496,
				"z": 1.1460290849,
				"element": "C" 
			},
			{
				"x": -0.8174221952,
				"y": 0.3970243369,
				"z": 0.4176488708,
				"element": "C" 
			},
			{
				"x": -2.252185351,
				"y": 3.1603678732,
				"z": -1.6292847274,
				"element": "H" 
			},
			{
				"x": 1.861236964,
				"y": -1.8604623292,
				"z": -3.5085082879,
				"element": "H" 
			},
			{
				"x": 3.1252048394,
				"y": -0.7362890976,
				"z": -2.8771942603,
				"element": "H" 
			},
			{
				"x": 1.1952190493,
				"y": -2.2784056538,
				"z": 1.1515634181,
				"element": "H" 
			},
			{
				"x": -0.5955502898,
				"y": -0.8305442443,
				"z": 2.1595755313,
				"element": "H" 
			},
			{
				"x": -1.5886393988,
				"y": 1.0176261923,
				"z": 0.8570149636,
				"element": "H" 
			}
		],
		 "valence_orbital": [ 
			{
				"type": "occ",
				"energy": -0.32258,
				"method": "rhf"
			},
			{
				"type": "occ",
				"energy": -0.31408,
				"method": "rhf"
			},
			{
				"type": "occ",
				"energy": -0.27034,
				"method": "rhf"
			},
			{
				"type": "occ",
				"energy": -0.25754,
				"method": "rhf"
			},
			{
				"type": "occ",
				"energy": -0.21486,
				"method": "rhf"
			},
			{
				"type": "unocc",
				"energy": -0.04516,
				"method": "rhf"
			},
			{
				"type": "unocc",
				"energy": 0.00394,
				"method": "rhf"
			},
			{
				"type": "unocc",
				"energy": 0.06142,
				"method": "rhf"
			},
			{
				"type": "unocc",
				"energy": 0.08036,
				"method": "rhf"
			},
			{
				"type": "unocc",
				"energy": 0.09472,
				"method": "rhf"
			}
		],
		"cosmo_sigma_profile": { 
			"-0.025": 0.0,
			"-0.024": 0.0,
			"-0.023": 0.0,
			"-0.022": 0.0,
			"-0.021": 0.0,
			"-0.02": 0.0,
			"-0.019": 0.0,
			"-0.018": 0.814418428419,
			"-0.017": 0.929106809853,
			"-0.016": 0.653936350669,
			"-0.015": 0.653502224067,
			"-0.014": 0.724930532876,
			"-0.013": 0.912917791253,
			"-0.012": 0.686028427256,
			"-0.011": 0.542186817686,
			"-0.01": 0.99416746673,
			"-0.009": 0.714958959898,
			"-0.008": 7.08907483867,
			"-0.007": 10.0735247385,
			"-0.006": 10.762788581,
			"-0.005": 10.7952923602,
			"-0.004": 8.57398350895,
			"-0.003": 8.28953092923,
			"-0.002": 10.6850755663,
			"-0.001": 9.92047250198,
			"0.0": 13.0369803852,
			"0.001": 13.2012459445,
			"0.002": 14.0055708669,
			"0.003": 11.8551858962,
			"0.004": 9.33613488215,
			"0.005": 5.46830187733,
			"0.006": 5.09087979323,
			"0.007": 4.51902084387,
			"0.008": 3.26166253565,
			"0.009": 3.98188650625,
			"0.01": 2.48682678241,
			"0.011": 3.48463912894,
			"0.012": 5.05988815673,
			"0.013": 2.20296297508,
			"0.014": 1.34103148332,
			"0.015": 0.22268918465,
			"0.016": 0.0,
			"0.017": 0.0,
			"0.018": 0.0,
			"0.019": 0.0,
			"0.02": 0.0,
			"0.021": 0.0,
			"0.022": 0.0,
			"0.023": 0.0,
			"0.024": 0.0,
			"0.025": 0.0
		}
	}
}
