{
	 "smiles": "CC1=NC(=NO1)C1=CC=C(C=C1)C(Cl)=O", 
	 "Tm": 385.15, 
	 "num_atms": 22, 
	 "gaussian": { 
		 "optdone": 1, 
		 "sigma_profile": "yes", 
		 "theory": "DFT", 
		 "functional": "B3LYP", 
		 "basiset": "6-31G**", 
		 "properties": { 
			 "R2extent": 7389.8929, 
			 "electric_dipole_moment_norm": 5.32177647125, 
			 "electric_quadrupole_moment_norm": 20.0197875623, 
			 "total_energy": -1105.40691354, 
			 "HOMO_LUMO_gap": 0.17449, 
			 "cosmo_polarized_energy": -9.45, 
			 "cosmo_cavitation_energy": 29.74, 
			 "cosmo_dispersion_energy": -22.11, 
			 "cosmo_repulsion_energy": 1.72, 
			 "cosmo_total_nonelectrostatic_energy": 9.35, 
			 "SMD_solvation_energy": 4.38 
		},
		"coords": [
			{
				"x": -2.0551807873,
				"y": -2.6060459826,
				"z": -1.8464101571,
				"element": "C" 
			},
			{
				"x": -0.8873778326,
				"y": -1.7601505287,
				"z": -1.4833114461,
				"element": "C" 
			},
			{
				"x": -0.8223314945,
				"y": -0.4668515239,
				"z": -1.3671859085,
				"element": "N" 
			},
			{
				"x": 0.4981543912,
				"y": -0.2635823714,
				"z": -1.0145602142,
				"element": "C" 
			},
			{
				"x": 1.2083678884,
				"y": -1.365694929,
				"z": -0.9180055658,
				"element": "N" 
			},
			{
				"x": 0.2867241506,
				"y": -2.3713813547,
				"z": -1.2308002139,
				"element": "O" 
			},
			{
				"x": 1.0642949026,
				"y": 1.069419016,
				"z": -0.767377992,
				"element": "C" 
			},
			{
				"x": 0.2461130712,
				"y": 2.2029683205,
				"z": -0.8894883038,
				"element": "C" 
			},
			{
				"x": 0.7712127153,
				"y": 3.4672155755,
				"z": -0.657966157,
				"element": "C" 
			},
			{
				"x": 2.1226121002,
				"y": 3.6188695474,
				"z": -0.3006435426,
				"element": "C" 
			},
			{
				"x": 2.9399358875,
				"y": 2.4847476548,
				"z": -0.1788115012,
				"element": "C" 
			},
			{
				"x": 2.4138892823,
				"y": 1.2201571568,
				"z": -0.4106154499,
				"element": "C" 
			},
			{
				"x": 2.5894096112,
				"y": 5.0077132989,
				"z": -0.0744518405,
				"element": "C" 
			},
			{
				"x": 4.3530181642,
				"y": 5.1745956767,
				"z": 0.3891283243,
				"element": "Cl" 
			},
			{
				"x": 1.9253261754,
				"y": 5.9960485239,
				"z": -0.1681315128,
				"element": "O" 
			},
			{
				"x": -1.8449582347,
				"y": -3.1834359751,
				"z": -2.7518064226,
				"element": "H" 
			},
			{
				"x": -2.2805491373,
				"y": -3.3150912887,
				"z": -1.0440517688,
				"element": "H" 
			},
			{
				"x": -2.9208742276,
				"y": -1.9666087386,
				"z": -2.0179258958,
				"element": "H" 
			},
			{
				"x": -0.7946193987,
				"y": 2.0761076342,
				"z": -1.1654146527,
				"element": "H" 
			},
			{
				"x": 0.1502750075,
				"y": 4.3513390142,
				"z": -0.7488058788,
				"element": "H" 
			},
			{
				"x": 3.981378654,
				"y": 2.5966704045,
				"z": 0.0961848612,
				"element": "H" 
			},
			{
				"x": 3.0420791111,
				"y": 0.3410908692,
				"z": -0.3175487613,
				"element": "H" 
			}
		],
		 "valence_orbital": [ 
			{
				"type": "occ",
				"energy": -0.3111,
				"method": "rhf"
			},
			{
				"type": "occ",
				"energy": -0.31013,
				"method": "rhf"
			},
			{
				"type": "occ",
				"energy": -0.29472,
				"method": "rhf"
			},
			{
				"type": "occ",
				"energy": -0.27915,
				"method": "rhf"
			},
			{
				"type": "occ",
				"energy": -0.26599,
				"method": "rhf"
			},
			{
				"type": "unocc",
				"energy": -0.0915,
				"method": "rhf"
			},
			{
				"type": "unocc",
				"energy": -0.0361,
				"method": "rhf"
			},
			{
				"type": "unocc",
				"energy": -0.02362,
				"method": "rhf"
			},
			{
				"type": "unocc",
				"energy": 0.00309,
				"method": "rhf"
			},
			{
				"type": "unocc",
				"energy": 0.01847,
				"method": "rhf"
			}
		],
		"cosmo_sigma_profile": { 
			"-0.025": 0.0,
			"-0.024": 0.0,
			"-0.023": 0.0,
			"-0.022": 0.0,
			"-0.021": 0.0,
			"-0.02": 0.0,
			"-0.019": 0.0,
			"-0.018": 0.0,
			"-0.017": 0.0,
			"-0.016": 0.0,
			"-0.015": 0.0,
			"-0.014": 0.0,
			"-0.013": 0.0,
			"-0.012": 0.0,
			"-0.011": 0.0,
			"-0.01": 0.0,
			"-0.009": 0.0,
			"-0.008": 2.11220377077,
			"-0.007": 11.8393473795,
			"-0.006": 13.1044433301,
			"-0.005": 14.6661089331,
			"-0.004": 15.971967289,
			"-0.003": 19.5596413835,
			"-0.002": 19.9929502297,
			"-0.001": 21.4766668455,
			"0.0": 21.384249836,
			"0.001": 23.4307637957,
			"0.002": 14.2707969504,
			"0.003": 10.8409129325,
			"0.004": 12.1205204853,
			"0.005": 9.9296439497,
			"0.006": 8.1528207057,
			"0.007": 6.78485286188,
			"0.008": 6.71596427777,
			"0.009": 4.90694970361,
			"0.01": 2.43076076095,
			"0.011": 1.70204001956,
			"0.012": 1.06086780779,
			"0.013": 0.0,
			"0.014": 0.0,
			"0.015": 0.0,
			"0.016": 0.0,
			"0.017": 0.0,
			"0.018": 0.0,
			"0.019": 0.0,
			"0.02": 0.0,
			"0.021": 0.0,
			"0.022": 0.0,
			"0.023": 0.0,
			"0.024": 0.0,
			"0.025": 0.0
		}
	}
}
