{
	 "smiles": "FC1=CC=C(C=C1)C(=O)NC1=NN=C(O1)C1=CC=C(Cl)C=C1", 
	 "Tm": 556.15, 
	 "num_atms": 31, 
	 "gaussian": { 
		 "optdone": 1, 
		 "sigma_profile": "yes", 
		 "theory": "DFT", 
		 "functional": "B3LYP", 
		 "basiset": "6-31G**", 
		 "properties": { 
			 "R2extent": 14385.3612, 
			 "electric_dipole_moment_norm": 5.47584998608, 
			 "electric_quadrupole_moment_norm": 13.0193291248, 
			 "total_energy": -1451.73292527, 
			 "HOMO_LUMO_gap": 0.16666, 
			 "cosmo_polarized_energy": -23.67, 
			 "cosmo_cavitation_energy": 40.54, 
			 "cosmo_dispersion_energy": -29.63, 
			 "cosmo_repulsion_energy": 2.19, 
			 "cosmo_total_nonelectrostatic_energy": 13.11, 
			 "SMD_solvation_energy": 6.21 
		},
		"coords": [
			{
				"x": 7.9994477834,
				"y": 1.0427258867,
				"z": -0.4209349489,
				"element": "F" 
			},
			{
				"x": 6.7616321329,
				"y": 0.5339937676,
				"z": -0.2923003718,
				"element": "C" 
			},
			{
				"x": 5.7754391393,
				"y": 0.9328688333,
				"z": -1.188790294,
				"element": "C" 
			},
			{
				"x": 4.4931614206,
				"y": 0.406533313,
				"z": -1.0476301256,
				"element": "C" 
			},
			{
				"x": 4.2028773255,
				"y": -0.5065509551,
				"z": -0.0221063573,
				"element": "C" 
			},
			{
				"x": 5.2276632264,
				"y": -0.9031166264,
				"z": 0.8510712677,
				"element": "C" 
			},
			{
				"x": 6.5100749683,
				"y": -0.3809123051,
				"z": 0.7267955774,
				"element": "C" 
			},
			{
				"x": 2.8579016534,
				"y": -1.1295513663,
				"z": 0.1905945349,
				"element": "C" 
			},
			{
				"x": 2.695644453,
				"y": -2.161047711,
				"z": 0.810676477,
				"element": "O" 
			},
			{
				"x": 1.789442643,
				"y": -0.4134565512,
				"z": -0.3703359901,
				"element": "N" 
			},
			{
				"x": 0.4662711618,
				"y": -0.7892469227,
				"z": -0.3398674058,
				"element": "C" 
			},
			{
				"x": -0.1070842164,
				"y": -1.9100818403,
				"z": -0.025712241,
				"element": "N" 
			},
			{
				"x": -1.4733405243,
				"y": -1.6877211594,
				"z": -0.2148131465,
				"element": "N" 
			},
			{
				"x": -1.618825477,
				"y": -0.4672583329,
				"z": -0.6277281144,
				"element": "C" 
			},
			{
				"x": -0.4069306686,
				"y": 0.1817810718,
				"z": -0.7332749629,
				"element": "O" 
			},
			{
				"x": -2.8423808363,
				"y": 0.2432978264,
				"z": -0.9699291696,
				"element": "C" 
			},
			{
				"x": -4.0732017744,
				"y": -0.4258795319,
				"z": -0.8612028062,
				"element": "C" 
			},
			{
				"x": -5.2583918223,
				"y": 0.22597363,
				"z": -1.1809369897,
				"element": "C" 
			},
			{
				"x": -5.2139880875,
				"y": 1.5542327759,
				"z": -1.6119186618,
				"element": "C" 
			},
			{
				"x": -6.7081393309,
				"y": 2.3796530958,
				"z": -2.0164708242,
				"element": "Cl" 
			},
			{
				"x": -4.0022941275,
				"y": 2.2354945128,
				"z": -1.7259790171,
				"element": "C" 
			},
			{
				"x": -2.8181254365,
				"y": 1.5769842335,
				"z": -1.4039786584,
				"element": "C" 
			},
			{
				"x": 6.0216669929,
				"y": 1.6304238041,
				"z": -1.9815109931,
				"element": "H" 
			},
			{
				"x": 3.7371556953,
				"y": 0.687217888,
				"z": -1.7754604467,
				"element": "H" 
			},
			{
				"x": 4.9940731781,
				"y": -1.627625011,
				"z": 1.6234328186,
				"element": "H" 
			},
			{
				"x": 7.3117019057,
				"y": -0.6694551258,
				"z": 1.3976631128,
				"element": "H" 
			},
			{
				"x": 1.9554198928,
				"y": 0.5287950332,
				"z": -0.6920215443,
				"element": "H" 
			},
			{
				"x": -4.085378663,
				"y": -1.4568593757,
				"z": -0.5246288226,
				"element": "H" 
			},
			{
				"x": -6.2100922385,
				"y": -0.2866731511,
				"z": -1.0984320039,
				"element": "H" 
			},
			{
				"x": -3.9876348779,
				"y": 3.2662246554,
				"z": -2.0616926111,
				"element": "H" 
			},
			{
				"x": -1.8724654916,
				"y": 2.1011356382,
				"z": -1.4897772814,
				"element": "H" 
			}
		],
		 "valence_orbital": [ 
			{
				"type": "occ",
				"energy": -0.28025,
				"method": "rhf"
			},
			{
				"type": "occ",
				"energy": -0.27788,
				"method": "rhf"
			},
			{
				"type": "occ",
				"energy": -0.27244,
				"method": "rhf"
			},
			{
				"type": "occ",
				"energy": -0.2651,
				"method": "rhf"
			},
			{
				"type": "occ",
				"energy": -0.23271,
				"method": "rhf"
			},
			{
				"type": "unocc",
				"energy": -0.06605,
				"method": "rhf"
			},
			{
				"type": "unocc",
				"energy": -0.05227,
				"method": "rhf"
			},
			{
				"type": "unocc",
				"energy": -0.0351,
				"method": "rhf"
			},
			{
				"type": "unocc",
				"energy": -0.02662,
				"method": "rhf"
			},
			{
				"type": "unocc",
				"energy": 0.01327,
				"method": "rhf"
			}
		],
		"cosmo_sigma_profile": { 
			"-0.025": 0.0,
			"-0.024": 0.0,
			"-0.023": 0.0,
			"-0.022": 0.0,
			"-0.021": 0.0,
			"-0.02": 0.0,
			"-0.019": 0.0,
			"-0.018": 0.210919564251,
			"-0.017": 0.808321083918,
			"-0.016": 1.17921690224,
			"-0.015": 1.19147600728,
			"-0.014": 0.801048536723,
			"-0.013": 1.09136711421,
			"-0.012": 1.4815572786,
			"-0.011": 1.88401417737,
			"-0.01": 1.56080474407,
			"-0.009": 1.40912326063,
			"-0.008": 7.67684321734,
			"-0.007": 14.2262784737,
			"-0.006": 16.2260979396,
			"-0.005": 16.9090355446,
			"-0.004": 17.0843284924,
			"-0.003": 18.3806593606,
			"-0.002": 20.8680571331,
			"-0.001": 25.2841579271,
			"0.0": 29.5039269148,
			"0.001": 34.6643605115,
			"0.002": 36.1104576717,
			"0.003": 18.8777847368,
			"0.004": 20.5820391975,
			"0.005": 5.33736425514,
			"0.006": 2.32533589243,
			"0.007": 2.91109714256,
			"0.008": 2.98221046691,
			"0.009": 3.68456919763,
			"0.01": 3.3650373686,
			"0.011": 6.41774343364,
			"0.012": 5.8801155113,
			"0.013": 3.452692712,
			"0.014": 2.20857828575,
			"0.015": 1.59934555718,
			"0.016": 1.65854392602,
			"0.017": 0.731216298845,
			"0.018": 0.0,
			"0.019": 0.0,
			"0.02": 0.0,
			"0.021": 0.0,
			"0.022": 0.0,
			"0.023": 0.0,
			"0.024": 0.0,
			"0.025": 0.0
		}
	}
}
