{
	 "smiles": "CN1C=C(C(O)=O)C(=N1)C1=C(F)C=C(F)C=C1", 
	 "Tm": 505.15, 
	 "num_atms": 25, 
	 "gaussian": { 
		 "optdone": 1, 
		 "sigma_profile": "yes", 
		 "theory": "DFT", 
		 "functional": "B3LYP", 
		 "basiset": "6-31G**", 
		 "properties": { 
			 "R2extent": 4777.7194, 
			 "electric_dipole_moment_norm": 4.90167268797, 
			 "electric_quadrupole_moment_norm": 5.08231888905, 
			 "total_energy": -883.611782447, 
			 "HOMO_LUMO_gap": 0.20152, 
			 "cosmo_polarized_energy": -15.29, 
			 "cosmo_cavitation_energy": 31.38, 
			 "cosmo_dispersion_energy": -22.28, 
			 "cosmo_repulsion_energy": 1.7, 
			 "cosmo_total_nonelectrostatic_energy": 10.79, 
			 "SMD_solvation_energy": 6.74 
		},
		"coords": [
			{
				"x": -0.9801107876,
				"y": -1.5645086667,
				"z": -2.9081290146,
				"element": "C" 
			},
			{
				"x": -0.9988280838,
				"y": -0.7353645082,
				"z": -1.7166581333,
				"element": "N" 
			},
			{
				"x": -2.0435321899,
				"y": -0.0817085564,
				"z": -1.1700654495,
				"element": "C" 
			},
			{
				"x": -1.5593212073,
				"y": 0.5940441257,
				"z": -0.0573222861,
				"element": "C" 
			},
			{
				"x": -2.358205942,
				"y": 1.3435612862,
				"z": 0.9135884808,
				"element": "C" 
			},
			{
				"x": -3.6460976762,
				"y": 1.501807334,
				"z": 0.4918759163,
				"element": "O" 
			},
			{
				"x": -1.9768130148,
				"y": 1.7698204865,
				"z": 1.9848060871,
				"element": "O" 
			},
			{
				"x": -0.1654718784,
				"y": 0.282816627,
				"z": -0.0273501232,
				"element": "C" 
			},
			{
				"x": 0.1569655442,
				"y": -0.5246981129,
				"z": -1.0406825716,
				"element": "N" 
			},
			{
				"x": 0.8785242585,
				"y": 0.6929276218,
				"z": 0.9286681347,
				"element": "C" 
			},
			{
				"x": 1.0472322318,
				"y": 2.0260244496,
				"z": 1.3217164767,
				"element": "C" 
			},
			{
				"x": 0.2484182284,
				"y": 2.9734821002,
				"z": 0.8003957459,
				"element": "F" 
			},
			{
				"x": 2.0385296248,
				"y": 2.4276649847,
				"z": 2.2073586541,
				"element": "C" 
			},
			{
				"x": 2.899504041,
				"y": 1.4540750881,
				"z": 2.6992375217,
				"element": "C" 
			},
			{
				"x": 3.8671054688,
				"y": 1.8248044417,
				"z": 3.5606240638,
				"element": "F" 
			},
			{
				"x": 2.7978941919,
				"y": 0.1181679805,
				"z": 2.3264844891,
				"element": "C" 
			},
			{
				"x": 1.7865299514,
				"y": -0.2465577642,
				"z": 1.4408302449,
				"element": "C" 
			},
			{
				"x": -0.3569145277,
				"y": -1.1030195792,
				"z": -3.6785675194,
				"element": "H" 
			},
			{
				"x": -0.5738287503,
				"y": -2.5489368956,
				"z": -2.6650012502,
				"element": "H" 
			},
			{
				"x": -1.9998397444,
				"y": -1.672202555,
				"z": -3.280524842,
				"element": "H" 
			},
			{
				"x": -3.0426260784,
				"y": -0.1396083414,
				"z": -1.5749584151,
				"element": "H" 
			},
			{
				"x": -4.0940295054,
				"y": 1.9816082303,
				"z": 1.2077300877,
				"element": "H" 
			},
			{
				"x": 2.1401805861,
				"y": 3.4675987519,
				"z": 2.4918102318,
				"element": "H" 
			},
			{
				"x": 3.4935058042,
				"y": -0.6086135934,
				"z": 2.7298511716,
				"element": "H" 
			},
			{
				"x": 1.6824294552,
				"y": -1.2812849351,
				"z": 1.1331822985,
				"element": "H" 
			}
		],
		 "valence_orbital": [ 
			{
				"type": "occ",
				"energy": -0.28111,
				"method": "rhf"
			},
			{
				"type": "occ",
				"energy": -0.27095,
				"method": "rhf"
			},
			{
				"type": "occ",
				"energy": -0.2598,
				"method": "rhf"
			},
			{
				"type": "occ",
				"energy": -0.25136,
				"method": "rhf"
			},
			{
				"type": "occ",
				"energy": -0.22898,
				"method": "rhf"
			},
			{
				"type": "unocc",
				"energy": -0.02746,
				"method": "rhf"
			},
			{
				"type": "unocc",
				"energy": -0.01412,
				"method": "rhf"
			},
			{
				"type": "unocc",
				"energy": -0.00247,
				"method": "rhf"
			},
			{
				"type": "unocc",
				"energy": 0.02944,
				"method": "rhf"
			},
			{
				"type": "unocc",
				"energy": 0.08326,
				"method": "rhf"
			}
		],
		"cosmo_sigma_profile": { 
			"-0.025": 0.0,
			"-0.024": 0.0,
			"-0.023": 0.0,
			"-0.022": 0.0,
			"-0.021": 0.0,
			"-0.02": 0.0,
			"-0.019": 0.0,
			"-0.018": 0.314306304678,
			"-0.017": 0.898999361706,
			"-0.016": 1.2010111522,
			"-0.015": 0.665870338751,
			"-0.014": 0.471269699591,
			"-0.013": 0.865875863245,
			"-0.012": 0.541665902857,
			"-0.011": 0.688035187028,
			"-0.01": 3.87228730186,
			"-0.009": 3.31617916805,
			"-0.008": 5.63403419504,
			"-0.007": 9.71341965718,
			"-0.006": 13.0568348828,
			"-0.005": 13.8470174391,
			"-0.004": 14.8739650233,
			"-0.003": 13.3015890171,
			"-0.002": 8.47026203777,
			"-0.001": 13.2344201166,
			"0.0": 20.8744148607,
			"0.001": 24.6576201931,
			"0.002": 20.9475135387,
			"0.003": 20.2668486339,
			"0.004": 22.4509678264,
			"0.005": 5.3358483503,
			"0.006": 5.05977587562,
			"0.007": 5.15581343706,
			"0.008": 4.87003868698,
			"0.009": 4.07316940233,
			"0.01": 2.72943681295,
			"0.011": 4.02433566852,
			"0.012": 4.31354388421,
			"0.013": 1.32609676093,
			"0.014": 0.799894357767,
			"0.015": 0.107789977626,
			"0.016": 0.0,
			"0.017": 0.0,
			"0.018": 0.0,
			"0.019": 0.0,
			"0.02": 0.0,
			"0.021": 0.0,
			"0.022": 0.0,
			"0.023": 0.0,
			"0.024": 0.0,
			"0.025": 0.0
		}
	}
}
