{
	 "smiles": "O=C1CC2=CC=CC=C2N1", 
	 "Tm": 400.15, 
	 "num_atms": 17, 
	 "gaussian": { 
		 "optdone": 1, 
		 "sigma_profile": "yes", 
		 "theory": "DFT", 
		 "functional": "B3LYP", 
		 "basiset": "6-31G**", 
		 "properties": { 
			 "R2extent": 1590.4971, 
			 "electric_dipole_moment_norm": 2.82795519236, 
			 "electric_quadrupole_moment_norm": 12.7475637594, 
			 "total_energy": -439.06615085, 
			 "HOMO_LUMO_gap": 0.20407, 
			 "cosmo_polarized_energy": -10.9, 
			 "cosmo_cavitation_energy": 20.82, 
			 "cosmo_dispersion_energy": -15.87, 
			 "cosmo_repulsion_energy": 1.29, 
			 "cosmo_total_nonelectrostatic_energy": 6.24, 
			 "SMD_solvation_energy": 3.99 
		},
		"coords": [
			{
				"x": -3.3524922578,
				"y": -0.4929530035,
				"z": -0.2696773501,
				"element": "O" 
			},
			{
				"x": -2.2260443824,
				"y": -0.1828912469,
				"z": 0.0619602789,
				"element": "C" 
			},
			{
				"x": -0.8927616784,
				"y": -0.6044951197,
				"z": -0.5833081689,
				"element": "C" 
			},
			{
				"x": 0.148729668,
				"y": 0.0888019548,
				"z": 0.259538764,
				"element": "C" 
			},
			{
				"x": 1.5339516588,
				"y": 0.109547587,
				"z": 0.1930690584,
				"element": "C" 
			},
			{
				"x": 2.2537689586,
				"y": 0.8606215181,
				"z": 1.1341142383,
				"element": "C" 
			},
			{
				"x": 1.5825868576,
				"y": 1.5784640787,
				"z": 2.1256531386,
				"element": "C" 
			},
			{
				"x": 0.1844743484,
				"y": 1.5686580934,
				"z": 2.2074480309,
				"element": "C" 
			},
			{
				"x": -0.5109699926,
				"y": 0.818328349,
				"z": 1.2656306453,
				"element": "C" 
			},
			{
				"x": -1.8939820329,
				"y": 0.6422503193,
				"z": 1.1273394154,
				"element": "N" 
			},
			{
				"x": -0.8884089387,
				"y": -0.2964026932,
				"z": -1.6349308599,
				"element": "H" 
			},
			{
				"x": -0.8165430615,
				"y": -1.6976116533,
				"z": -0.5710456696,
				"element": "H" 
			},
			{
				"x": 2.0571837775,
				"y": -0.4490319397,
				"z": -0.5784489557,
				"element": "H" 
			},
			{
				"x": 3.3381682879,
				"y": 0.8835134917,
				"z": 1.0908406181,
				"element": "H" 
			},
			{
				"x": 2.1504022367,
				"y": 2.1565013205,
				"z": 2.8490016711,
				"element": "H" 
			},
			{
				"x": -0.3347560341,
				"y": 2.1279923884,
				"z": 2.9798145648,
				"element": "H" 
			},
			{
				"x": -2.6005074153,
				"y": 1.0544065553,
				"z": 1.7186005803,
				"element": "H" 
			}
		],
		 "valence_orbital": [ 
			{
				"type": "occ",
				"energy": -0.34813,
				"method": "rhf"
			},
			{
				"type": "occ",
				"energy": -0.30948,
				"method": "rhf"
			},
			{
				"type": "occ",
				"energy": -0.25561,
				"method": "rhf"
			},
			{
				"type": "occ",
				"energy": -0.25489,
				"method": "rhf"
			},
			{
				"type": "occ",
				"energy": -0.218,
				"method": "rhf"
			},
			{
				"type": "unocc",
				"energy": -0.01393,
				"method": "rhf"
			},
			{
				"type": "unocc",
				"energy": -0.00418,
				"method": "rhf"
			},
			{
				"type": "unocc",
				"energy": 0.03582,
				"method": "rhf"
			},
			{
				"type": "unocc",
				"energy": 0.08784,
				"method": "rhf"
			},
			{
				"type": "unocc",
				"energy": 0.0932,
				"method": "rhf"
			}
		],
		"cosmo_sigma_profile": { 
			"-0.025": 0.0,
			"-0.024": 0.0,
			"-0.023": 0.0,
			"-0.022": 0.0,
			"-0.021": 0.0,
			"-0.02": 0.0,
			"-0.019": 0.0,
			"-0.018": 0.0,
			"-0.017": 0.0,
			"-0.016": 0.188482368346,
			"-0.015": 1.40445909467,
			"-0.014": 1.34576183521,
			"-0.013": 1.05943321034,
			"-0.012": 1.17579626708,
			"-0.011": 0.619054328422,
			"-0.01": 1.13473233622,
			"-0.009": 1.38409420805,
			"-0.008": 1.10136743411,
			"-0.007": 5.263858294,
			"-0.006": 9.63507145874,
			"-0.005": 13.5667654933,
			"-0.004": 14.0952146272,
			"-0.003": 14.8387302181,
			"-0.002": 9.85787195718,
			"-0.001": 9.40744670156,
			"0.0": 8.15919746759,
			"0.001": 9.71981644238,
			"0.002": 9.25574193601,
			"0.003": 8.92066906339,
			"0.004": 7.9597499801,
			"0.005": 9.05912861246,
			"0.006": 7.74395995705,
			"0.007": 1.90014300237,
			"0.008": 1.07570299248,
			"0.009": 1.32213549388,
			"0.01": 1.65751611449,
			"0.011": 1.65718502324,
			"0.012": 3.50321704666,
			"0.013": 5.88715000816,
			"0.014": 2.53486092982,
			"0.015": 0.0392309723843,
			"0.016": 0.0,
			"0.017": 0.0,
			"0.018": 0.0,
			"0.019": 0.0,
			"0.02": 0.0,
			"0.021": 0.0,
			"0.022": 0.0,
			"0.023": 0.0,
			"0.024": 0.0,
			"0.025": 0.0
		}
	}
}
