{
	 "smiles": "NC1=CC=C(NC(=O)C2=CC=C(N)C=C2)C=C1", 
	 "Tm": 478.15, 
	 "num_atms": 30, 
	 "gaussian": { 
		 "optdone": 1, 
		 "sigma_profile": "yes", 
		 "theory": "DFT", 
		 "functional": "B3LYP", 
		 "basiset": "6-31G**", 
		 "properties": { 
			 "R2extent": 6600.663, 
			 "electric_dipole_moment_norm": 4.70281338562, 
			 "electric_quadrupole_moment_norm": 30.6955904732, 
			 "total_energy": -742.72493988, 
			 "HOMO_LUMO_gap": 0.15743, 
			 "cosmo_polarized_energy": -23.1, 
			 "cosmo_cavitation_energy": 34.35, 
			 "cosmo_dispersion_energy": -25.48, 
			 "cosmo_repulsion_energy": 1.96, 
			 "cosmo_total_nonelectrostatic_energy": 10.83, 
			 "SMD_solvation_energy": 6.01 
		},
		"coords": [
			{
				"x": -3.5480893653,
				"y": 0.4831442215,
				"z": 5.0975648644,
				"element": "N" 
			},
			{
				"x": -2.7569915304,
				"y": 0.3780922662,
				"z": 3.9449035243,
				"element": "C" 
			},
			{
				"x": -2.8649904773,
				"y": -0.7325965607,
				"z": 3.0932009133,
				"element": "C" 
			},
			{
				"x": -2.1206057004,
				"y": -0.8019820998,
				"z": 1.9209870259,
				"element": "C" 
			},
			{
				"x": -1.2424476398,
				"y": 0.2289224483,
				"z": 1.5553990294,
				"element": "C" 
			},
			{
				"x": -0.5303216323,
				"y": 0.0849877609,
				"z": 0.3433594343,
				"element": "N" 
			},
			{
				"x": 0.437614875,
				"y": 0.9061121373,
				"z": -0.1926941469,
				"element": "C" 
			},
			{
				"x": 0.8554231805,
				"y": 1.9164933891,
				"z": 0.3709391815,
				"element": "O" 
			},
			{
				"x": 0.975213634,
				"y": 0.4756341595,
				"z": -1.5226382075,
				"element": "C" 
			},
			{
				"x": 0.3125803567,
				"y": -0.3828015567,
				"z": -2.4137436875,
				"element": "C" 
			},
			{
				"x": 0.8774205715,
				"y": -0.7293063733,
				"z": -3.6357318182,
				"element": "C" 
			},
			{
				"x": 2.1345845138,
				"y": -0.2217599674,
				"z": -4.0120853544,
				"element": "C" 
			},
			{
				"x": 2.6824407199,
				"y": -0.5269054458,
				"z": -5.2512099792,
				"element": "N" 
			},
			{
				"x": 2.7941636056,
				"y": 0.654040066,
				"z": -3.1279764353,
				"element": "C" 
			},
			{
				"x": 2.2176994941,
				"y": 0.9978504244,
				"z": -1.9146465987,
				"element": "C" 
			},
			{
				"x": -1.1283548747,
				"y": 1.3430880669,
				"z": 2.4011193591,
				"element": "C" 
			},
			{
				"x": -1.8773303025,
				"y": 1.4065359267,
				"z": 3.5730264561,
				"element": "C" 
			},
			{
				"x": -3.1666118779,
				"y": 1.091327564,
				"z": 5.8100263764,
				"element": "H" 
			},
			{
				"x": -3.8331574083,
				"y": -0.4034823274,
				"z": 5.4921008601,
				"element": "H" 
			},
			{
				"x": -3.5410884737,
				"y": -1.5449767481,
				"z": 3.3482544764,
				"element": "H" 
			},
			{
				"x": -2.2238289194,
				"y": -1.6752451356,
				"z": 1.2796031973,
				"element": "H" 
			},
			{
				"x": -0.6927594383,
				"y": -0.7850303711,
				"z": -0.1403040312,
				"element": "H" 
			},
			{
				"x": -0.6781045109,
				"y": -0.7661595271,
				"z": -2.1824822584,
				"element": "H" 
			},
			{
				"x": 0.337995264,
				"y": -1.3831004705,
				"z": -4.3164531338,
				"element": "H" 
			},
			{
				"x": 2.3539283339,
				"y": -1.3758687113,
				"z": -5.6882159988,
				"element": "H" 
			},
			{
				"x": 3.6803825834,
				"y": -0.4000972747,
				"z": -5.3392970269,
				"element": "H" 
			},
			{
				"x": 3.7607685819,
				"y": 1.0665030842,
				"z": -3.406925474,
				"element": "H" 
			},
			{
				"x": 2.7189801657,
				"y": 1.6811823338,
				"z": -1.2375016491,
				"element": "H" 
			},
			{
				"x": -0.4477880053,
				"y": 2.1394268301,
				"z": 2.1359100747,
				"element": "H" 
			},
			{
				"x": -1.7769257234,
				"y": 2.2792718906,
				"z": 4.2142110265,
				"element": "H" 
			}
		],
		 "valence_orbital": [ 
			{
				"type": "occ",
				"energy": -0.25339,
				"method": "rhf"
			},
			{
				"type": "occ",
				"energy": -0.24128,
				"method": "rhf"
			},
			{
				"type": "occ",
				"energy": -0.23966,
				"method": "rhf"
			},
			{
				"type": "occ",
				"energy": -0.20994,
				"method": "rhf"
			},
			{
				"type": "occ",
				"energy": -0.17972,
				"method": "rhf"
			},
			{
				"type": "unocc",
				"energy": -0.02229,
				"method": "rhf"
			},
			{
				"type": "unocc",
				"energy": -0.00347,
				"method": "rhf"
			},
			{
				"type": "unocc",
				"energy": 0.00834,
				"method": "rhf"
			},
			{
				"type": "unocc",
				"energy": 0.03184,
				"method": "rhf"
			},
			{
				"type": "unocc",
				"energy": 0.07099,
				"method": "rhf"
			}
		],
		"cosmo_sigma_profile": { 
			"-0.025": 0.0,
			"-0.024": 0.0,
			"-0.023": 0.0,
			"-0.022": 0.0,
			"-0.021": 0.0,
			"-0.02": 0.0,
			"-0.019": 0.0,
			"-0.018": 0.0,
			"-0.017": 0.0,
			"-0.016": 0.0,
			"-0.015": 0.00771422875318,
			"-0.014": 0.803327849423,
			"-0.013": 3.11253695221,
			"-0.012": 6.43855219466,
			"-0.011": 6.95571340194,
			"-0.01": 6.07904127118,
			"-0.009": 8.94819708127,
			"-0.008": 8.40807282663,
			"-0.007": 6.67205394152,
			"-0.006": 13.0359425077,
			"-0.005": 14.1056865306,
			"-0.004": 14.1662087294,
			"-0.003": 12.1525127608,
			"-0.002": 10.8129950428,
			"-0.001": 11.548169493,
			"0.0": 12.0191534882,
			"0.001": 13.2695248063,
			"0.002": 13.9649474095,
			"0.003": 16.8892245048,
			"0.004": 18.4125829833,
			"0.005": 25.1019485967,
			"0.006": 17.8319315797,
			"0.007": 8.06316025953,
			"0.008": 4.44846287398,
			"0.009": 2.55616520178,
			"0.01": 2.86176112859,
			"0.011": 3.54923157502,
			"0.012": 3.46744997468,
			"0.013": 4.05502506987,
			"0.014": 2.98972946179,
			"0.015": 0.717290035642,
			"0.016": 0.0955074805804,
			"0.017": 0.0,
			"0.018": 0.0,
			"0.019": 0.0,
			"0.02": 0.0,
			"0.021": 0.0,
			"0.022": 0.0,
			"0.023": 0.0,
			"0.024": 0.0,
			"0.025": 0.0
		}
	}
}
