{
	 "smiles": "COC1=CC(OCC2=CC=CC=C2)=C(C=C1)C(C)=O", 
	 "Tm": 333.15, 
	 "num_atms": 35, 
	 "gaussian": { 
		 "optdone": 1, 
		 "sigma_profile": "yes", 
		 "theory": "DFT", 
		 "functional": "B3LYP", 
		 "basiset": "6-31G**", 
		 "properties": { 
			 "R2extent": 5870.1808, 
			 "electric_dipole_moment_norm": 4.48223857799, 
			 "electric_quadrupole_moment_norm": 12.8672668469, 
			 "total_energy": -844.993093003, 
			 "HOMO_LUMO_gap": 0.18474, 
			 "cosmo_polarized_energy": -13.73, 
			 "cosmo_cavitation_energy": 38.76, 
			 "cosmo_dispersion_energy": -26.86, 
			 "cosmo_repulsion_energy": 2.09, 
			 "cosmo_total_nonelectrostatic_energy": 13.98, 
			 "SMD_solvation_energy": 7.94 
		},
		"coords": [
			{
				"x": 3.1395175697,
				"y": 0.92034186,
				"z": -3.2991070634,
				"element": "C" 
			},
			{
				"x": 2.6380653567,
				"y": 0.0568628533,
				"z": -2.2882404758,
				"element": "O" 
			},
			{
				"x": 1.2923726886,
				"y": -0.0542250704,
				"z": -2.1400887381,
				"element": "C" 
			},
			{
				"x": 0.8632290129,
				"y": -0.9160300747,
				"z": -1.1225376646,
				"element": "C" 
			},
			{
				"x": -0.490342562,
				"y": -1.1087006377,
				"z": -0.8662833383,
				"element": "C" 
			},
			{
				"x": -0.8185058568,
				"y": -2.0318178404,
				"z": 0.090199332,
				"element": "O" 
			},
			{
				"x": -1.1930748436,
				"y": -1.5305739636,
				"z": 1.3916162907,
				"element": "C" 
			},
			{
				"x": 0.0030097116,
				"y": -1.1330792734,
				"z": 2.2280156618,
				"element": "C" 
			},
			{
				"x": 1.0368284661,
				"y": -2.0496116091,
				"z": 2.4703582301,
				"element": "C" 
			},
			{
				"x": 2.1306179812,
				"y": -1.6945840562,
				"z": 3.2575321715,
				"element": "C" 
			},
			{
				"x": 2.2040382554,
				"y": -0.4167928492,
				"z": 3.8209167765,
				"element": "C" 
			},
			{
				"x": 1.1808076576,
				"y": 0.5015158776,
				"z": 3.5872662509,
				"element": "C" 
			},
			{
				"x": 0.0895912297,
				"y": 0.1442462567,
				"z": 2.7907090046,
				"element": "C" 
			},
			{
				"x": -1.4736204407,
				"y": -0.4428065075,
				"z": -1.653977023,
				"element": "C" 
			},
			{
				"x": -1.006424564,
				"y": 0.4038616345,
				"z": -2.6730439493,
				"element": "C" 
			},
			{
				"x": 0.3452296804,
				"y": 0.6206961174,
				"z": -2.9216652681,
				"element": "C" 
			},
			{
				"x": -2.9390430617,
				"y": -0.6507010958,
				"z": -1.4696093123,
				"element": "C" 
			},
			{
				"x": -3.8766571715,
				"y": -0.2217281479,
				"z": -2.5957632732,
				"element": "C" 
			},
			{
				"x": -3.4171088079,
				"y": -1.1491367513,
				"z": -0.4590613996,
				"element": "O" 
			},
			{
				"x": 2.8181973745,
				"y": 0.6011835267,
				"z": -4.2984200372,
				"element": "H" 
			},
			{
				"x": 2.8266909146,
				"y": 1.958889983,
				"z": -3.1341361155,
				"element": "H" 
			},
			{
				"x": 4.2265448553,
				"y": 0.8578085002,
				"z": -3.2341504292,
				"element": "H" 
			},
			{
				"x": 1.5973588552,
				"y": -1.4424811887,
				"z": -0.5251175172,
				"element": "H" 
			},
			{
				"x": -1.901426366,
				"y": -0.7062947959,
				"z": 1.2860571915,
				"element": "H" 
			},
			{
				"x": -1.7293218749,
				"y": -2.3662040249,
				"z": 1.8504285556,
				"element": "H" 
			},
			{
				"x": 0.9794438272,
				"y": -3.0414836673,
				"z": 2.0299084079,
				"element": "H" 
			},
			{
				"x": 2.9248502878,
				"y": -2.414017929,
				"z": 3.437049615,
				"element": "H" 
			},
			{
				"x": 3.0550687869,
				"y": -0.1409860306,
				"z": 4.4372703817,
				"element": "H" 
			},
			{
				"x": 1.2326420537,
				"y": 1.4973639351,
				"z": 4.0186015091,
				"element": "H" 
			},
			{
				"x": -0.7038421255,
				"y": 0.8642296626,
				"z": 2.6050662063,
				"element": "H" 
			},
			{
				"x": -1.7247062537,
				"y": 0.9230698785,
				"z": -3.2979725712,
				"element": "H" 
			},
			{
				"x": 0.6432945861,
				"y": 1.2934582411,
				"z": -3.7161437553,
				"element": "H" 
			},
			{
				"x": -3.5696575945,
				"y": -0.6314468053,
				"z": -3.563025768,
				"element": "H" 
			},
			{
				"x": -4.8791531502,
				"y": -0.5717972749,
				"z": -2.3478787794,
				"element": "H" 
			},
			{
				"x": -3.9029144782,
				"y": 0.869871267,
				"z": -2.6921731064,
				"element": "H" 
			}
		],
		 "valence_orbital": [ 
			{
				"type": "occ",
				"energy": -0.24643,
				"method": "rhf"
			},
			{
				"type": "occ",
				"energy": -0.24549,
				"method": "rhf"
			},
			{
				"type": "occ",
				"energy": -0.24145,
				"method": "rhf"
			},
			{
				"type": "occ",
				"energy": -0.23424,
				"method": "rhf"
			},
			{
				"type": "occ",
				"energy": -0.22716,
				"method": "rhf"
			},
			{
				"type": "unocc",
				"energy": -0.04242,
				"method": "rhf"
			},
			{
				"type": "unocc",
				"energy": -0.00791,
				"method": "rhf"
			},
			{
				"type": "unocc",
				"energy": -0.00089,
				"method": "rhf"
			},
			{
				"type": "unocc",
				"energy": 0.00552,
				"method": "rhf"
			},
			{
				"type": "unocc",
				"energy": 0.04886,
				"method": "rhf"
			}
		],
		"cosmo_sigma_profile": { 
			"-0.025": 0.0,
			"-0.024": 0.0,
			"-0.023": 0.0,
			"-0.022": 0.0,
			"-0.021": 0.0,
			"-0.02": 0.0,
			"-0.019": 0.0,
			"-0.018": 0.0,
			"-0.017": 0.0,
			"-0.016": 0.0,
			"-0.015": 0.0,
			"-0.014": 0.0,
			"-0.013": 0.0,
			"-0.012": 0.0,
			"-0.011": 0.0,
			"-0.01": 0.0,
			"-0.009": 0.0,
			"-0.008": 0.0167695864129,
			"-0.007": 4.6282927909,
			"-0.006": 19.5206805224,
			"-0.005": 30.1944058958,
			"-0.004": 32.1995485378,
			"-0.003": 30.0467483965,
			"-0.002": 22.1770592093,
			"-0.001": 23.3327376367,
			"0.0": 18.6930179518,
			"0.001": 16.3695120233,
			"0.002": 18.9163801109,
			"0.003": 24.358886189,
			"0.004": 18.8653874845,
			"0.005": 13.0705775266,
			"0.006": 9.93096750966,
			"0.007": 3.6474977632,
			"0.008": 3.67640413228,
			"0.009": 4.18574730945,
			"0.01": 3.59517370524,
			"0.011": 3.71955161708,
			"0.012": 4.41284281581,
			"0.013": 2.12816485599,
			"0.014": 0.582545689408,
			"0.015": 0.0,
			"0.016": 0.0,
			"0.017": 0.0,
			"0.018": 0.0,
			"0.019": 0.0,
			"0.02": 0.0,
			"0.021": 0.0,
			"0.022": 0.0,
			"0.023": 0.0,
			"0.024": 0.0,
			"0.025": 0.0
		}
	}
}
