{
	 "smiles": "[O-][N+](=O)C1=CC=C(C=C1)C1=CC=C(C=C1)C1=CC=C(C=C1)[N+]([O-])=O", 
	 "Tm": 551.15, 
	 "num_atms": 36, 
	 "gaussian": { 
		 "optdone": 1, 
		 "sigma_profile": "yes", 
		 "theory": "DFT", 
		 "functional": "B3LYP", 
		 "basiset": "6-31G**", 
		 "properties": { 
			 "R2extent": 16487.6496, 
			 "electric_dipole_moment_norm": 0.0, 
			 "electric_quadrupole_moment_norm": 86.5446811748, 
			 "total_energy": -1103.36391189, 
			 "HOMO_LUMO_gap": 0.1452, 
			 "cosmo_polarized_energy": -16.39, 
			 "cosmo_cavitation_energy": 42.79, 
			 "cosmo_dispersion_energy": -30.89, 
			 "cosmo_repulsion_energy": 2.27, 
			 "cosmo_total_nonelectrostatic_energy": 14.17, 
			 "SMD_solvation_energy": 11.32 
		},
		"coords": [
			{
				"x": -7.2924394878,
				"y": -0.3196228268,
				"z": -0.3392210088,
				"element": "O" 
			},
			{
				"x": -6.6236275007,
				"y": 0.6488409653,
				"z": 0.0212625973,
				"element": "N" 
			},
			{
				"x": -7.0869021806,
				"y": 1.7488525425,
				"z": 0.322151865,
				"element": "O" 
			},
			{
				"x": -5.1657990132,
				"y": 0.4794311776,
				"z": 0.0980703868,
				"element": "C" 
			},
			{
				"x": -4.3780190323,
				"y": 1.5569541392,
				"z": 0.4986105037,
				"element": "C" 
			},
			{
				"x": -2.9997865008,
				"y": 1.3888993708,
				"z": 0.5677746797,
				"element": "C" 
			},
			{
				"x": -2.3985392232,
				"y": 0.1579272308,
				"z": 0.2438280498,
				"element": "C" 
			},
			{
				"x": -3.2284174682,
				"y": -0.9067766479,
				"z": -0.1554860391,
				"element": "C" 
			},
			{
				"x": -4.6081080083,
				"y": -0.7544199134,
				"z": -0.2315855486,
				"element": "C" 
			},
			{
				"x": -0.9280648241,
				"y": -0.0129676702,
				"z": 0.3212346886,
				"element": "C" 
			},
			{
				"x": -0.1772639561,
				"y": 0.6113916623,
				"z": 1.332007551,
				"element": "C" 
			},
			{
				"x": 1.2022498845,
				"y": 0.451009376,
				"z": 1.4046007085,
				"element": "C" 
			},
			{
				"x": 1.8908315987,
				"y": -0.3406960246,
				"z": 0.4695738045,
				"element": "C" 
			},
			{
				"x": 1.1400307124,
				"y": -0.9650554989,
				"z": -0.541198782,
				"element": "C" 
			},
			{
				"x": -0.2394832022,
				"y": -0.8046732168,
				"z": -0.6137919939,
				"element": "C" 
			},
			{
				"x": 3.3613061428,
				"y": -0.5115898888,
				"z": 0.5469798541,
				"element": "C" 
			},
			{
				"x": 3.9625540261,
				"y": -1.7425615249,
				"z": 0.2230326375,
				"element": "C" 
			},
			{
				"x": 5.3407867946,
				"y": -1.9106150555,
				"z": 0.2921948435,
				"element": "C" 
			},
			{
				"x": 6.1285656683,
				"y": -0.8330908762,
				"z": 0.6927338214,
				"element": "C" 
			},
			{
				"x": 5.5708743754,
				"y": 0.4007597331,
				"z": 1.0223906003,
				"element": "C" 
			},
			{
				"x": 4.1911836582,
				"y": 0.5531150212,
				"z": 0.9462929998,
				"element": "C" 
			},
			{
				"x": 7.5863934781,
				"y": -1.0024984748,
				"z": 0.7695383656,
				"element": "N" 
			},
			{
				"x": 8.0496679824,
				"y": -2.1025094306,
				"z": 0.4686453561,
				"element": "O" 
			},
			{
				"x": 8.2552035357,
				"y": -0.0340316695,
				"z": 1.1300184005,
				"element": "O" 
			},
			{
				"x": -4.8501045936,
				"y": 2.5017832639,
				"z": 0.7370541268,
				"element": "H" 
			},
			{
				"x": -2.3772343205,
				"y": 2.2311872802,
				"z": 0.8512789608,
				"element": "H" 
			},
			{
				"x": -2.7889897144,
				"y": -1.8724403681,
				"z": -0.383061137,
				"element": "H" 
			},
			{
				"x": -5.2563675005,
				"y": -1.5690995358,
				"z": -0.5290427878,
				"element": "H" 
			},
			{
				"x": -0.683617175,
				"y": 1.1993834986,
				"z": 2.0913363836,
				"element": "H" 
			},
			{
				"x": 1.7482596434,
				"y": 0.9167015114,
				"z": 2.2192979921,
				"element": "H" 
			},
			{
				"x": 1.6463839396,
				"y": -1.5530473217,
				"z": -1.3005276911,
				"element": "H" 
			},
			{
				"x": -0.7854928749,
				"y": -1.2703652373,
				"z": -1.4284894043,
				"element": "H" 
			},
			{
				"x": 3.3400023462,
				"y": -2.5848500683,
				"z": -0.060470948,
				"element": "H" 
			},
			{
				"x": 5.8128736419,
				"y": -2.8554434318,
				"z": 0.0537507894,
				"element": "H" 
			},
			{
				"x": 6.2191340613,
				"y": 1.2154396745,
				"z": 1.3198468207,
				"element": "H" 
			},
			{
				"x": 3.7517550869,
				"y": 1.5187782344,
				"z": 1.1738685535,
				"element": "H" 
			}
		],
		 "valence_orbital": [ 
			{
				"type": "occ",
				"energy": -0.28644,
				"method": "rhf"
			},
			{
				"type": "occ",
				"energy": -0.28523,
				"method": "rhf"
			},
			{
				"type": "occ",
				"energy": -0.28522,
				"method": "rhf"
			},
			{
				"type": "occ",
				"energy": -0.2796,
				"method": "rhf"
			},
			{
				"type": "occ",
				"energy": -0.24764,
				"method": "rhf"
			},
			{
				"type": "unocc",
				"energy": -0.10244,
				"method": "rhf"
			},
			{
				"type": "unocc",
				"energy": -0.09114,
				"method": "rhf"
			},
			{
				"type": "unocc",
				"energy": -0.04452,
				"method": "rhf"
			},
			{
				"type": "unocc",
				"energy": -0.03697,
				"method": "rhf"
			},
			{
				"type": "unocc",
				"energy": -0.03506,
				"method": "rhf"
			}
		],
		"cosmo_sigma_profile": { 
			"-0.025": 0.0,
			"-0.024": 0.0,
			"-0.023": 0.0,
			"-0.022": 0.0,
			"-0.021": 0.0,
			"-0.02": 0.0,
			"-0.019": 0.0,
			"-0.018": 0.0,
			"-0.017": 0.0,
			"-0.016": 0.0,
			"-0.015": 0.0,
			"-0.014": 0.0,
			"-0.013": 0.0,
			"-0.012": 0.0,
			"-0.011": 0.0,
			"-0.01": 0.0,
			"-0.009": 0.0,
			"-0.008": 2.57854513492,
			"-0.007": 19.0681231873,
			"-0.006": 28.0409754813,
			"-0.005": 23.0579097671,
			"-0.004": 21.2002025426,
			"-0.003": 19.8577281043,
			"-0.002": 20.6447376405,
			"-0.001": 26.6339542951,
			"0.0": 28.711323933,
			"0.001": 38.8554915366,
			"0.002": 29.3700999052,
			"0.003": 16.490371296,
			"0.004": 10.542822886,
			"0.005": 5.98522410816,
			"0.006": 7.01129746682,
			"0.007": 14.8466292778,
			"0.008": 16.9520183637,
			"0.009": 8.64040468815,
			"0.01": 6.17037990577,
			"0.011": 0.533475096608,
			"0.012": 0.0,
			"0.013": 0.0,
			"0.014": 0.0,
			"0.015": 0.0,
			"0.016": 0.0,
			"0.017": 0.0,
			"0.018": 0.0,
			"0.019": 0.0,
			"0.02": 0.0,
			"0.021": 0.0,
			"0.022": 0.0,
			"0.023": 0.0,
			"0.024": 0.0,
			"0.025": 0.0
		}
	}
}
