{
	 "smiles": "CC1=CC(C(=O)CC#N)=C(O1)C(F)(F)F", 
	 "Tm": 349.15, 
	 "num_atms": 21, 
	 "gaussian": { 
		 "optdone": 1, 
		 "sigma_profile": "yes", 
		 "theory": "DFT", 
		 "functional": "B3LYP", 
		 "basiset": "6-31G**", 
		 "properties": { 
			 "R2extent": 3526.6476, 
			 "electric_dipole_moment_norm": 6.53994223981, 
			 "electric_quadrupole_moment_norm": 24.938687446, 
			 "total_energy": -851.250880905, 
			 "HOMO_LUMO_gap": 0.18372, 
			 "cosmo_polarized_energy": -13.88, 
			 "cosmo_cavitation_energy": 28.48, 
			 "cosmo_dispersion_energy": -19.58, 
			 "cosmo_repulsion_energy": 1.49, 
			 "cosmo_total_nonelectrostatic_energy": 10.39, 
			 "SMD_solvation_energy": 8.67 
		},
		"coords": [
			{
				"x": 1.8345682544,
				"y": -2.1165817172,
				"z": 2.2762825712,
				"element": "C" 
			},
			{
				"x": 1.0458457626,
				"y": -1.1966325406,
				"z": 1.414803621,
				"element": "C" 
			},
			{
				"x": -0.277920596,
				"y": -1.0603027099,
				"z": 1.1344925678,
				"element": "C" 
			},
			{
				"x": -0.408195843,
				"y": 0.0335704146,
				"z": 0.2122851223,
				"element": "C" 
			},
			{
				"x": -1.7302851522,
				"y": 0.4625125181,
				"z": -0.3102014956,
				"element": "C" 
			},
			{
				"x": -2.7385981037,
				"y": -0.118220381,
				"z": 0.0431480146,
				"element": "O" 
			},
			{
				"x": -1.7873154002,
				"y": 1.641352111,
				"z": -1.2929993741,
				"element": "C" 
			},
			{
				"x": -3.1460501007,
				"y": 1.9572127144,
				"z": -1.7251964512,
				"element": "C" 
			},
			{
				"x": -4.2104028,
				"y": 2.2365941203,
				"z": -2.0901637707,
				"element": "N" 
			},
			{
				"x": 0.8755568463,
				"y": 0.4857237466,
				"z": 0.0002718362,
				"element": "C" 
			},
			{
				"x": 1.7566778455,
				"y": -0.2489625682,
				"z": 0.7200132539,
				"element": "O" 
			},
			{
				"x": 1.4858072933,
				"y": 1.5773739568,
				"z": -0.8263050966,
				"element": "C" 
			},
			{
				"x": 2.8141075462,
				"y": 1.609506781,
				"z": -0.6848647901,
				"element": "F" 
			},
			{
				"x": 1.2096901191,
				"y": 1.4152175398,
				"z": -2.1437250323,
				"element": "F" 
			},
			{
				"x": 0.9990299389,
				"y": 2.7939611629,
				"z": -0.4782835926,
				"element": "F" 
			},
			{
				"x": 2.3892742835,
				"y": -1.5644349973,
				"z": 3.0425367745,
				"element": "H" 
			},
			{
				"x": 1.1640431508,
				"y": -2.8197302868,
				"z": 2.7740641414,
				"element": "H" 
			},
			{
				"x": 2.5603386691,
				"y": -2.6872460007,
				"z": 1.686946447,
				"element": "H" 
			},
			{
				"x": -1.0982865251,
				"y": -1.647969023,
				"z": 1.5173227726,
				"element": "H" 
			},
			{
				"x": -1.3344534641,
				"y": 2.5234946158,
				"z": -0.8263216114,
				"element": "H" 
			},
			{
				"x": -1.1660317245,
				"y": 1.4139605436,
				"z": -2.1667059077,
				"element": "H" 
			}
		],
		 "valence_orbital": [ 
			{
				"type": "occ",
				"energy": -0.32991,
				"method": "rhf"
			},
			{
				"type": "occ",
				"energy": -0.32647,
				"method": "rhf"
			},
			{
				"type": "occ",
				"energy": -0.3128,
				"method": "rhf"
			},
			{
				"type": "occ",
				"energy": -0.28282,
				"method": "rhf"
			},
			{
				"type": "occ",
				"energy": -0.26506,
				"method": "rhf"
			},
			{
				"type": "unocc",
				"energy": -0.08134,
				"method": "rhf"
			},
			{
				"type": "unocc",
				"energy": -0.012,
				"method": "rhf"
			},
			{
				"type": "unocc",
				"energy": 0.02894,
				"method": "rhf"
			},
			{
				"type": "unocc",
				"energy": 0.03565,
				"method": "rhf"
			},
			{
				"type": "unocc",
				"energy": 0.06484,
				"method": "rhf"
			}
		],
		"cosmo_sigma_profile": { 
			"-0.025": 0.0,
			"-0.024": 0.0,
			"-0.023": 0.0,
			"-0.022": 0.0,
			"-0.021": 0.0,
			"-0.02": 0.0,
			"-0.019": 0.0,
			"-0.018": 0.0,
			"-0.017": 0.0,
			"-0.016": 0.0,
			"-0.015": 0.0,
			"-0.014": 0.0,
			"-0.013": 0.0,
			"-0.012": 0.0,
			"-0.011": 0.657335999638,
			"-0.01": 4.52470315916,
			"-0.009": 4.3763622302,
			"-0.008": 4.6143276908,
			"-0.007": 6.75023386289,
			"-0.006": 12.2472997643,
			"-0.005": 13.9749156035,
			"-0.004": 13.2906154839,
			"-0.003": 15.3344026202,
			"-0.002": 19.8543584125,
			"-0.001": 16.3076718718,
			"0.0": 15.1127383431,
			"0.001": 23.0756218778,
			"0.002": 24.9048852531,
			"0.003": 6.7599548776,
			"0.004": 4.88202571549,
			"0.005": 5.4600551068,
			"0.006": 4.78761830957,
			"0.007": 5.4941239385,
			"0.008": 6.58993816483,
			"0.009": 6.44245223334,
			"0.01": 6.97457372944,
			"0.011": 4.22869372044,
			"0.012": 2.31523665064,
			"0.013": 0.95159232054,
			"0.014": 0.0,
			"0.015": 0.0,
			"0.016": 0.0,
			"0.017": 0.0,
			"0.018": 0.0,
			"0.019": 0.0,
			"0.02": 0.0,
			"0.021": 0.0,
			"0.022": 0.0,
			"0.023": 0.0,
			"0.024": 0.0,
			"0.025": 0.0
		}
	}
}
