{
	 "smiles": "CCOC1=CC=CC=C1OCC", 
	 "Tm": 316.65, 
	 "num_atms": 26, 
	 "gaussian": { 
		 "optdone": 1, 
		 "sigma_profile": "yes", 
		 "theory": "DFT", 
		 "functional": "B3LYP", 
		 "basiset": "6-31G**", 
		 "properties": { 
			 "R2extent": 2638.722, 
			 "electric_dipole_moment_norm": 0.474069636235, 
			 "electric_quadrupole_moment_norm": 6.05086321032, 
			 "total_energy": -539.933845816, 
			 "HOMO_LUMO_gap": 0.22934, 
			 "cosmo_polarized_energy": -5.59, 
			 "cosmo_cavitation_energy": 28.89, 
			 "cosmo_dispersion_energy": -20.26, 
			 "cosmo_repulsion_energy": 1.66, 
			 "cosmo_total_nonelectrostatic_energy": 10.29, 
			 "SMD_solvation_energy": 5.59 
		},
		"coords": [
			{
				"x": -3.2154042606,
				"y": 0.0253637187,
				"z": 1.0390178367,
				"element": "C" 
			},
			{
				"x": -1.747149814,
				"y": 0.2457538476,
				"z": 1.3545894018,
				"element": "C" 
			},
			{
				"x": -0.9858893876,
				"y": -0.1430141838,
				"z": 0.1946315324,
				"element": "O" 
			},
			{
				"x": 0.379534952,
				"y": -0.0104350745,
				"z": 0.3221780781,
				"element": "C" 
			},
			{
				"x": 1.1681064955,
				"y": -1.1596158091,
				"z": 0.401929088,
				"element": "C" 
			},
			{
				"x": 2.5570329791,
				"y": -1.0611556969,
				"z": 0.5034810636,
				"element": "C" 
			},
			{
				"x": 3.1643841854,
				"y": 0.194907462,
				"z": 0.5368335593,
				"element": "C" 
			},
			{
				"x": 2.3827606132,
				"y": 1.3480725894,
				"z": 0.4452228566,
				"element": "C" 
			},
			{
				"x": 0.994411203,
				"y": 1.2567110896,
				"z": 0.3312656571,
				"element": "C" 
			},
			{
				"x": 0.2500570479,
				"y": 2.4144931201,
				"z": 0.2713937058,
				"element": "O" 
			},
			{
				"x": -0.3518738819,
				"y": 2.6868919396,
				"z": -1.0091118584,
				"element": "C" 
			},
			{
				"x": -1.11721796,
				"y": 3.9924218064,
				"z": -0.891751581,
				"element": "C" 
			},
			{
				"x": -3.4035370293,
				"y": -1.0219899519,
				"z": 0.7855727149,
				"element": "H" 
			},
			{
				"x": -3.8305351477,
				"y": 0.2892010552,
				"z": 1.9051837228,
				"element": "H" 
			},
			{
				"x": -3.5282452001,
				"y": 0.6440276198,
				"z": 0.1926318966,
				"element": "H" 
			},
			{
				"x": -1.4336527715,
				"y": -0.3687490711,
				"z": 2.2102493582,
				"element": "H" 
			},
			{
				"x": -1.5430365519,
				"y": 1.2952466508,
				"z": 1.5948561072,
				"element": "H" 
			},
			{
				"x": 0.6690901552,
				"y": -2.1236185597,
				"z": 0.3820084317,
				"element": "H" 
			},
			{
				"x": 3.1588732884,
				"y": -1.9629176425,
				"z": 0.5658758526,
				"element": "H" 
			},
			{
				"x": 4.2434810012,
				"y": 0.2798927422,
				"z": 0.6240434414,
				"element": "H" 
			},
			{
				"x": 2.8297477697,
				"y": 2.3373558799,
				"z": 0.4605205846,
				"element": "H" 
			},
			{
				"x": -1.0134493456,
				"y": 1.8594075919,
				"z": -1.2890464912,
				"element": "H" 
			},
			{
				"x": 0.4402080673,
				"y": 2.7637452707,
				"z": -1.7672340355,
				"element": "H" 
			},
			{
				"x": -1.9101836913,
				"y": 3.9120459849,
				"z": -0.1422590938,
				"element": "H" 
			},
			{
				"x": -1.5752256049,
				"y": 4.2481569718,
				"z": -1.8525186635,
				"element": "H" 
			},
			{
				"x": -0.4493871114,
				"y": 4.8073006488,
				"z": -0.5975631659,
				"element": "H" 
			}
		],
		 "valence_orbital": [ 
			{
				"type": "occ",
				"energy": -0.32551,
				"method": "rhf"
			},
			{
				"type": "occ",
				"energy": -0.28821,
				"method": "rhf"
			},
			{
				"type": "occ",
				"energy": -0.25691,
				"method": "rhf"
			},
			{
				"type": "occ",
				"energy": -0.24002,
				"method": "rhf"
			},
			{
				"type": "occ",
				"energy": -0.22506,
				"method": "rhf"
			},
			{
				"type": "unocc",
				"energy": 0.00428,
				"method": "rhf"
			},
			{
				"type": "unocc",
				"energy": 0.00729,
				"method": "rhf"
			},
			{
				"type": "unocc",
				"energy": 0.08424,
				"method": "rhf"
			},
			{
				"type": "unocc",
				"energy": 0.09589,
				"method": "rhf"
			},
			{
				"type": "unocc",
				"energy": 0.12312,
				"method": "rhf"
			}
		],
		"cosmo_sigma_profile": { 
			"-0.025": 0.0,
			"-0.024": 0.0,
			"-0.023": 0.0,
			"-0.022": 0.0,
			"-0.021": 0.0,
			"-0.02": 0.0,
			"-0.019": 0.0,
			"-0.018": 0.0,
			"-0.017": 0.0,
			"-0.016": 0.0,
			"-0.015": 0.0,
			"-0.014": 0.0,
			"-0.013": 0.0,
			"-0.012": 0.0,
			"-0.011": 0.0,
			"-0.01": 0.0,
			"-0.009": 0.0,
			"-0.008": 0.0,
			"-0.007": 0.020440418995,
			"-0.006": 4.18338328817,
			"-0.005": 8.37571587474,
			"-0.004": 19.2296313346,
			"-0.003": 30.0652831418,
			"-0.002": 28.9539721962,
			"-0.001": 28.7065184255,
			"0.0": 26.0437212067,
			"0.001": 19.1797052327,
			"0.002": 9.83249251814,
			"0.003": 11.9967509558,
			"0.004": 11.6896312825,
			"0.005": 11.0390747652,
			"0.006": 7.08938724368,
			"0.007": 2.10904549265,
			"0.008": 2.19254410186,
			"0.009": 1.71077502075,
			"0.01": 1.74950261546,
			"0.011": 1.90751923423,
			"0.012": 1.33604666347,
			"0.013": 0.0,
			"0.014": 0.0,
			"0.015": 0.0,
			"0.016": 0.0,
			"0.017": 0.0,
			"0.018": 0.0,
			"0.019": 0.0,
			"0.02": 0.0,
			"0.021": 0.0,
			"0.022": 0.0,
			"0.023": 0.0,
			"0.024": 0.0,
			"0.025": 0.0
		}
	}
}
