{
	 "smiles": "C[Si](C)(C)O[Si](C)(C)O[Si](C)(C)C", 
	 "Tm": 193.15, 
	 "num_atms": 37, 
	 "gaussian": { 
		 "optdone": 1, 
		 "sigma_profile": "yes", 
		 "theory": "DFT", 
		 "functional": "B3LYP", 
		 "basiset": "6-31G**", 
		 "properties": { 
			 "R2extent": 4821.6002, 
			 "electric_dipole_moment_norm": 0.720628538153, 
			 "electric_quadrupole_moment_norm": 2.58534069322, 
			 "total_energy": -1338.55894993, 
			 "HOMO_LUMO_gap": 0.31129, 
			 "cosmo_polarized_energy": -3.93, 
			 "cosmo_cavitation_energy": 44.26, 
			 "cosmo_dispersion_energy": -21.79, 
			 "cosmo_repulsion_energy": 2.06, 
			 "cosmo_total_nonelectrostatic_energy": 24.54, 
			 "SMD_solvation_energy": 11.29 
		},
		"coords": [
			{
				"x": 3.9802798773,
				"y": -0.9727814934,
				"z": 0.9301030856,
				"element": "C" 
			},
			{
				"x": 2.2083870616,
				"y": -1.3289326148,
				"z": 0.4003918669,
				"element": "Si" 
			},
			{
				"x": 1.7023559878,
				"y": -3.0717398619,
				"z": 0.9142859048,
				"element": "C" 
			},
			{
				"x": 2.0288016414,
				"y": -1.1286265146,
				"z": -1.4663228854,
				"element": "C" 
			},
			{
				"x": 1.2403479032,
				"y": -0.2125127254,
				"z": 1.1719779248,
				"element": "O" 
			},
			{
				"x": -0.2724691271,
				"y": 0.3207307283,
				"z": 1.5632213595,
				"element": "Si" 
			},
			{
				"x": -0.3498758605,
				"y": 2.1620792378,
				"z": 1.2065678954,
				"element": "C" 
			},
			{
				"x": -0.5977979616,
				"y": -0.0571521604,
				"z": 3.3723125481,
				"element": "C" 
			},
			{
				"x": -1.3817083913,
				"y": -0.4844254959,
				"z": 0.6400486764,
				"element": "O" 
			},
			{
				"x": -2.7927115751,
				"y": -0.7403389526,
				"z": -0.1987428636,
				"element": "Si" 
			},
			{
				"x": -2.6287570437,
				"y": 0.0074276072,
				"z": -1.9220235269,
				"element": "C" 
			},
			{
				"x": -4.230446291,
				"y": 0.0658232522,
				"z": 0.7198387327,
				"element": "C" 
			},
			{
				"x": -3.0557299719,
				"y": -2.6019365765,
				"z": -0.3151739967,
				"element": "C" 
			},
			{
				"x": 4.0942102213,
				"y": -1.0679792067,
				"z": 2.0152480469,
				"element": "H" 
			},
			{
				"x": 4.685302125,
				"y": -1.6664988352,
				"z": 0.4578073305,
				"element": "H" 
			},
			{
				"x": 4.2766207027,
				"y": 0.0446495693,
				"z": 0.6533432684,
				"element": "H" 
			},
			{
				"x": 0.6592796081,
				"y": -3.2723132599,
				"z": 0.6466414689,
				"element": "H" 
			},
			{
				"x": 2.3247919032,
				"y": -3.8290119337,
				"z": 0.4236258852,
				"element": "H" 
			},
			{
				"x": 1.8012095884,
				"y": -3.2111131882,
				"z": 1.9963985623,
				"element": "H" 
			},
			{
				"x": 2.305493613,
				"y": -0.1175766813,
				"z": -1.7843249899,
				"element": "H" 
			},
			{
				"x": 0.9951569801,
				"y": -1.3056871316,
				"z": -1.7827143668,
				"element": "H" 
			},
			{
				"x": 2.6690085018,
				"y": -1.8351060736,
				"z": -2.0072993355,
				"element": "H" 
			},
			{
				"x": -1.3283993747,
				"y": 2.5813368542,
				"z": 1.466177183,
				"element": "H" 
			},
			{
				"x": 0.4094254877,
				"y": 2.7050521648,
				"z": 1.7795138641,
				"element": "H" 
			},
			{
				"x": -0.1696329139,
				"y": 2.360396421,
				"z": 0.1447131706,
				"element": "H" 
			},
			{
				"x": -1.5850246731,
				"y": 0.3013672056,
				"z": 3.6841485973,
				"element": "H" 
			},
			{
				"x": -0.5616161384,
				"y": -1.1363916457,
				"z": 3.5544664061,
				"element": "H" 
			},
			{
				"x": 0.1510094481,
				"y": 0.416445995,
				"z": 4.0162158407,
				"element": "H" 
			},
			{
				"x": -2.4698057562,
				"y": 1.0902049338,
				"z": -1.8721813626,
				"element": "H" 
			},
			{
				"x": -1.7814034894,
				"y": -0.4273657053,
				"z": -2.4633381583,
				"element": "H" 
			},
			{
				"x": -3.530763857,
				"y": -0.168013025,
				"z": -2.5197208619,
				"element": "H" 
			},
			{
				"x": -4.3324779538,
				"y": -0.338720244,
				"z": 1.7327958961,
				"element": "H" 
			},
			{
				"x": -5.1790985157,
				"y": -0.1051431582,
				"z": 0.1978803369,
				"element": "H" 
			},
			{
				"x": -4.0930726281,
				"y": 1.1495103758,
				"z": 0.8057882805,
				"element": "H" 
			},
			{
				"x": -3.140151194,
				"y": -3.0515454363,
				"z": 0.6800243678,
				"element": "H" 
			},
			{
				"x": -2.2190154771,
				"y": -3.0874883623,
				"z": -0.8290917242,
				"element": "H" 
			},
			{
				"x": -3.9708224569,
				"y": -2.8422240625,
				"z": -0.8686024278,
				"element": "H" 
			}
		],
		 "valence_orbital": [ 
			{
				"type": "occ",
				"energy": -0.29728,
				"method": "rhf"
			},
			{
				"type": "occ",
				"energy": -0.28305,
				"method": "rhf"
			},
			{
				"type": "occ",
				"energy": -0.27649,
				"method": "rhf"
			},
			{
				"type": "occ",
				"energy": -0.27345,
				"method": "rhf"
			},
			{
				"type": "occ",
				"energy": -0.26078,
				"method": "rhf"
			},
			{
				"type": "unocc",
				"energy": 0.05051,
				"method": "rhf"
			},
			{
				"type": "unocc",
				"energy": 0.07417,
				"method": "rhf"
			},
			{
				"type": "unocc",
				"energy": 0.08037,
				"method": "rhf"
			},
			{
				"type": "unocc",
				"energy": 0.08567,
				"method": "rhf"
			},
			{
				"type": "unocc",
				"energy": 0.09568,
				"method": "rhf"
			}
		],
		"cosmo_sigma_profile": { 
			"-0.025": 0.0,
			"-0.024": 0.0,
			"-0.023": 0.0,
			"-0.022": 0.0,
			"-0.021": 0.0,
			"-0.02": 0.0,
			"-0.019": 0.0,
			"-0.018": 0.0,
			"-0.017": 0.0,
			"-0.016": 0.0,
			"-0.015": 0.0,
			"-0.014": 0.0,
			"-0.013": 0.0,
			"-0.012": 0.0,
			"-0.011": 0.0,
			"-0.01": 0.0,
			"-0.009": 0.0,
			"-0.008": 0.0,
			"-0.007": 0.0,
			"-0.006": 0.0,
			"-0.005": 0.0,
			"-0.004": 10.5207056094,
			"-0.003": 40.2102590536,
			"-0.002": 48.5109525753,
			"-0.001": 49.2323351364,
			"0.0": 45.704394539,
			"0.001": 57.469140709,
			"0.002": 40.2351513552,
			"0.003": 19.8956896432,
			"0.004": 5.82572416419,
			"0.005": 3.56913084123,
			"0.006": 3.08858363453,
			"0.007": 2.01781861302,
			"0.008": 1.49461916702,
			"0.009": 1.04883333368,
			"0.01": 1.19367117695,
			"0.011": 0.278625053205,
			"0.012": 0.0,
			"0.013": 0.0,
			"0.014": 0.0,
			"0.015": 0.0,
			"0.016": 0.0,
			"0.017": 0.0,
			"0.018": 0.0,
			"0.019": 0.0,
			"0.02": 0.0,
			"0.021": 0.0,
			"0.022": 0.0,
			"0.023": 0.0,
			"0.024": 0.0,
			"0.025": 0.0
		}
	}
}
