{
	 "smiles": "BrC1=CC2=C(OCC(C=O)=C2)C=C1", 
	 "Tm": 377.15, 
	 "num_atms": 20, 
	 "gaussian": { 
		 "optdone": 1, 
		 "sigma_profile": "yes", 
		 "theory": "DFT", 
		 "functional": "B3LYP", 
		 "basiset": "6-31G**", 
		 "properties": { 
			 "R2extent": 5031.3211, 
			 "electric_dipole_moment_norm": 1.30218151193, 
			 "electric_quadrupole_moment_norm": 15.2871540746, 
			 "total_energy": -3107.10562684, 
			 "HOMO_LUMO_gap": 0.13328, 
			 "cosmo_polarized_energy": -9.49, 
			 "cosmo_cavitation_energy": 27.02, 
			 "cosmo_dispersion_energy": -20.44, 
			 "cosmo_repulsion_energy": 1.6, 
			 "cosmo_total_nonelectrostatic_energy": 8.18, 
			 "SMD_solvation_energy": 4.55 
		},
		"coords": [
			{
				"x": -2.3131259241,
				"y": -3.7489449039,
				"z": 1.4634178728,
				"element": "Br" 
			},
			{
				"x": -1.5836261286,
				"y": -2.1187998825,
				"z": 0.7847251329,
				"element": "C" 
			},
			{
				"x": -0.385438415,
				"y": -1.6351329639,
				"z": 1.2929399603,
				"element": "C" 
			},
			{
				"x": 0.1556873106,
				"y": -0.4380915652,
				"z": 0.7986096331,
				"element": "C" 
			},
			{
				"x": -0.530160469,
				"y": 0.2645147113,
				"z": -0.2167558107,
				"element": "C" 
			},
			{
				"x": -0.0746016859,
				"y": 1.4244335848,
				"z": -0.7454985396,
				"element": "O" 
			},
			{
				"x": 1.1579500077,
				"y": 2.0316545794,
				"z": -0.3039421819,
				"element": "C" 
			},
			{
				"x": 1.8827408387,
				"y": 1.27614871,
				"z": 0.7788999785,
				"element": "C" 
			},
			{
				"x": 3.1391378964,
				"y": 1.8480433907,
				"z": 1.264198869,
				"element": "C" 
			},
			{
				"x": 3.6141094387,
				"y": 2.8885548665,
				"z": 0.8374985778,
				"element": "O" 
			},
			{
				"x": 1.398712141,
				"y": 0.1220172763,
				"z": 1.2827549698,
				"element": "C" 
			},
			{
				"x": -1.7352690617,
				"y": -0.2338536411,
				"z": -0.7191162147,
				"element": "C" 
			},
			{
				"x": -2.2616879084,
				"y": -1.4230299832,
				"z": -0.2199890824,
				"element": "C" 
			},
			{
				"x": 0.1391153789,
				"y": -2.1770156007,
				"z": 2.0729136281,
				"element": "H" 
			},
			{
				"x": 1.8008025473,
				"y": 2.1412602103,
				"z": -1.1857965446,
				"element": "H" 
			},
			{
				"x": 0.9170583043,
				"y": 3.0459126579,
				"z": 0.0369153276,
				"element": "H" 
			},
			{
				"x": 3.6454101391,
				"y": 1.2625453944,
				"z": 2.0629437717,
				"element": "H" 
			},
			{
				"x": 1.9439778593,
				"y": -0.4028564489,
				"z": 2.0652031189,
				"element": "H" 
			},
			{
				"x": -2.2470239533,
				"y": 0.3198802925,
				"z": -1.4986081572,
				"element": "H" 
			},
			{
				"x": -3.196568316,
				"y": -1.8088406845,
				"z": -0.6103143093,
				"element": "H" 
			}
		],
		 "valence_orbital": [ 
			{
				"type": "occ",
				"energy": -0.29326,
				"method": "rhf"
			},
			{
				"type": "occ",
				"energy": -0.2928,
				"method": "rhf"
			},
			{
				"type": "occ",
				"energy": -0.26304,
				"method": "rhf"
			},
			{
				"type": "occ",
				"energy": -0.2598,
				"method": "rhf"
			},
			{
				"type": "occ",
				"energy": -0.2208,
				"method": "rhf"
			},
			{
				"type": "unocc",
				"energy": -0.08752,
				"method": "rhf"
			},
			{
				"type": "unocc",
				"energy": -0.01674,
				"method": "rhf"
			},
			{
				"type": "unocc",
				"energy": -0.00178,
				"method": "rhf"
			},
			{
				"type": "unocc",
				"energy": 0.00088,
				"method": "rhf"
			},
			{
				"type": "unocc",
				"energy": 0.05517,
				"method": "rhf"
			}
		],
		"cosmo_sigma_profile": { 
			"-0.025": 0.0,
			"-0.024": 0.0,
			"-0.023": 0.0,
			"-0.022": 0.0,
			"-0.021": 0.0,
			"-0.02": 0.0,
			"-0.019": 0.0,
			"-0.018": 0.0,
			"-0.017": 0.0,
			"-0.016": 0.0,
			"-0.015": 0.0,
			"-0.014": 0.0,
			"-0.013": 0.0,
			"-0.012": 0.0,
			"-0.011": 0.0,
			"-0.01": 0.0,
			"-0.009": 1.64908438243,
			"-0.008": 7.25536495844,
			"-0.007": 9.26741994037,
			"-0.006": 13.1284603542,
			"-0.005": 12.5392906493,
			"-0.004": 13.1472323211,
			"-0.003": 15.6554370128,
			"-0.002": 14.8551013426,
			"-0.001": 13.9227155404,
			"0.0": 16.8443992149,
			"0.001": 18.3513980106,
			"0.002": 23.8582617819,
			"0.003": 14.7772523446,
			"0.004": 13.7789175584,
			"0.005": 9.53787447804,
			"0.006": 1.92211326971,
			"0.007": 2.98390781083,
			"0.008": 2.96218367043,
			"0.009": 3.09250694556,
			"0.01": 1.96459436869,
			"0.011": 3.97241048189,
			"0.012": 3.65984798187,
			"0.013": 1.16854725411,
			"0.014": 0.0521093218356,
			"0.015": 0.0,
			"0.016": 0.0,
			"0.017": 0.0,
			"0.018": 0.0,
			"0.019": 0.0,
			"0.02": 0.0,
			"0.021": 0.0,
			"0.022": 0.0,
			"0.023": 0.0,
			"0.024": 0.0,
			"0.025": 0.0
		}
	}
}
