{
	 "smiles": "CC1=C(C)C(C)=C(C(N)=O)C(S)=N1", 
	 "Tm": 568.15, 
	 "num_atms": 25, 
	 "gaussian": { 
		 "optdone": 1, 
		 "sigma_profile": "yes", 
		 "theory": "DFT", 
		 "functional": "B3LYP", 
		 "basiset": "6-31G**", 
		 "properties": { 
			 "R2extent": 3161.8703, 
			 "electric_dipole_moment_norm": 3.08259950204, 
			 "electric_quadrupole_moment_norm": 11.398182195, 
			 "total_energy": -933.134274939, 
			 "HOMO_LUMO_gap": 0.19369, 
			 "cosmo_polarized_energy": -13.36, 
			 "cosmo_cavitation_energy": 29.12, 
			 "cosmo_dispersion_energy": -21.76, 
			 "cosmo_repulsion_energy": 1.7, 
			 "cosmo_total_nonelectrostatic_energy": 9.05, 
			 "SMD_solvation_energy": 4.23 
		},
		"coords": [
			{
				"x": -1.3555071886,
				"y": 0.7529447596,
				"z": 4.0301354729,
				"element": "C" 
			},
			{
				"x": -0.7336632326,
				"y": 0.555312459,
				"z": 2.6666550624,
				"element": "C" 
			},
			{
				"x": -1.2426838513,
				"y": 1.1601319277,
				"z": 1.5042165475,
				"element": "C" 
			},
			{
				"x": -2.4546651835,
				"y": 2.0608797577,
				"z": 1.5500066548,
				"element": "C" 
			},
			{
				"x": -0.5928046608,
				"y": 0.9091409367,
				"z": 0.2785465598,
				"element": "C" 
			},
			{
				"x": -1.1374993243,
				"y": 1.5430760744,
				"z": -0.9797225578,
				"element": "C" 
			},
			{
				"x": 0.5314102073,
				"y": 0.0585266844,
				"z": 0.2603316079,
				"element": "C" 
			},
			{
				"x": 1.285146174,
				"y": -0.1824602636,
				"z": -1.0267912365,
				"element": "C" 
			},
			{
				"x": 1.5049820929,
				"y": -1.4930042102,
				"z": -1.3471927001,
				"element": "N" 
			},
			{
				"x": 1.6480476394,
				"y": 0.7329844972,
				"z": -1.7551288308,
				"element": "O" 
			},
			{
				"x": 0.9545161919,
				"y": -0.4826487572,
				"z": 1.4892347819,
				"element": "C" 
			},
			{
				"x": 2.4111107547,
				"y": -1.538649151,
				"z": 1.6054344604,
				"element": "S" 
			},
			{
				"x": 0.34529123,
				"y": -0.2421829517,
				"z": 2.647048589,
				"element": "N" 
			},
			{
				"x": -1.3346012023,
				"y": 1.8048838634,
				"z": 4.3369865634,
				"element": "H" 
			},
			{
				"x": -0.7954156905,
				"y": 0.1687205715,
				"z": 4.7610834486,
				"element": "H" 
			},
			{
				"x": -2.4021103991,
				"y": 0.4292086266,
				"z": 4.0511268178,
				"element": "H" 
			},
			{
				"x": -2.7992718393,
				"y": 2.2321506768,
				"z": 2.5697523073,
				"element": "H" 
			},
			{
				"x": -3.2943306957,
				"y": 1.6346886268,
				"z": 0.9868378496,
				"element": "H" 
			},
			{
				"x": -2.2429550033,
				"y": 3.0392087102,
				"z": 1.1039740111,
				"element": "H" 
			},
			{
				"x": -0.6126229639,
				"y": 1.2163875605,
				"z": -1.8736190412,
				"element": "H" 
			},
			{
				"x": -2.206029263,
				"y": 1.3257284919,
				"z": -1.0863452072,
				"element": "H" 
			},
			{
				"x": -1.0397036284,
				"y": 2.6338663723,
				"z": -0.928477251,
				"element": "H" 
			},
			{
				"x": 1.2881972757,
				"y": -2.246381148,
				"z": -0.7129303104,
				"element": "H" 
			},
			{
				"x": 2.1146545819,
				"y": -1.6809662273,
				"z": -2.1298170669,
				"element": "H" 
			},
			{
				"x": 2.2949079787,
				"y": -1.6618478876,
				"z": 2.9408534675,
				"element": "H" 
			}
		],
		 "valence_orbital": [ 
			{
				"type": "occ",
				"energy": -0.27926,
				"method": "rhf"
			},
			{
				"type": "occ",
				"energy": -0.26846,
				"method": "rhf"
			},
			{
				"type": "occ",
				"energy": -0.26448,
				"method": "rhf"
			},
			{
				"type": "occ",
				"energy": -0.24575,
				"method": "rhf"
			},
			{
				"type": "occ",
				"energy": -0.22481,
				"method": "rhf"
			},
			{
				"type": "unocc",
				"energy": -0.03112,
				"method": "rhf"
			},
			{
				"type": "unocc",
				"energy": -0.01974,
				"method": "rhf"
			},
			{
				"type": "unocc",
				"energy": 0.01901,
				"method": "rhf"
			},
			{
				"type": "unocc",
				"energy": 0.04033,
				"method": "rhf"
			},
			{
				"type": "unocc",
				"energy": 0.07743,
				"method": "rhf"
			}
		],
		"cosmo_sigma_profile": { 
			"-0.025": 0.0,
			"-0.024": 0.0,
			"-0.023": 0.0,
			"-0.022": 0.0,
			"-0.021": 0.0,
			"-0.02": 0.0,
			"-0.019": 0.0,
			"-0.018": 0.0,
			"-0.017": 0.0,
			"-0.016": 0.0,
			"-0.015": 0.133178794097,
			"-0.014": 1.03228333737,
			"-0.013": 1.6983436438,
			"-0.012": 1.95275484921,
			"-0.011": 1.9705830284,
			"-0.01": 3.22803132053,
			"-0.009": 3.15068517297,
			"-0.008": 3.05108661105,
			"-0.007": 2.64287264087,
			"-0.006": 3.635285927,
			"-0.005": 11.7511549462,
			"-0.004": 19.4733130279,
			"-0.003": 18.5493539808,
			"-0.002": 19.9282397334,
			"-0.001": 24.7356917157,
			"0.0": 22.5306749492,
			"0.001": 16.6185208941,
			"0.002": 17.2312016158,
			"0.003": 10.2140110805,
			"0.004": 9.10478657274,
			"0.005": 7.29314084449,
			"0.006": 5.29820562553,
			"0.007": 4.89139617615,
			"0.008": 4.59682041525,
			"0.009": 2.52473517958,
			"0.01": 1.84064908023,
			"0.011": 3.15691489158,
			"0.012": 2.03087586361,
			"0.013": 4.58883541391,
			"0.014": 3.18935405269,
			"0.015": 0.0656749363636,
			"0.016": 0.0,
			"0.017": 0.0,
			"0.018": 0.0,
			"0.019": 0.0,
			"0.02": 0.0,
			"0.021": 0.0,
			"0.022": 0.0,
			"0.023": 0.0,
			"0.024": 0.0,
			"0.025": 0.0
		}
	}
}
