{
	 "smiles": "FC1=CC(=CC=C1)N1C(S)=NN=C1N1CCOCC1", 
	 "Tm": 290.15, 
	 "num_atms": 32, 
	 "gaussian": { 
		 "optdone": 1, 
		 "sigma_profile": "yes", 
		 "theory": "DFT", 
		 "functional": "B3LYP", 
		 "basiset": "6-31G**", 
		 "properties": { 
			 "R2extent": 6739.9536, 
			 "electric_dipole_moment_norm": 5.63005065785, 
			 "electric_quadrupole_moment_norm": 20.4532498369, 
			 "total_energy": -1257.30864548, 
			 "HOMO_LUMO_gap": 0.17883, 
			 "cosmo_polarized_energy": -18.92, 
			 "cosmo_cavitation_energy": 37.15, 
			 "cosmo_dispersion_energy": -25.94, 
			 "cosmo_repulsion_energy": 1.95, 
			 "cosmo_total_nonelectrostatic_energy": 13.16, 
			 "SMD_solvation_energy": 3.69 
		},
		"coords": [
			{
				"x": 2.8034930863,
				"y": -2.2380593947,
				"z": -2.6739235804,
				"element": "F" 
			},
			{
				"x": 2.1553223311,
				"y": -1.1956603005,
				"z": -2.1211935655,
				"element": "C" 
			},
			{
				"x": 2.4892805211,
				"y": -0.8167629954,
				"z": -0.8259310165,
				"element": "C" 
			},
			{
				"x": 1.814459447,
				"y": 0.2698189687,
				"z": -0.2608460896,
				"element": "C" 
			},
			{
				"x": 0.8228746986,
				"y": 0.9495182363,
				"z": -0.9776859205,
				"element": "C" 
			},
			{
				"x": 0.505075288,
				"y": 0.531940769,
				"z": -2.2704577546,
				"element": "C" 
			},
			{
				"x": 1.171981468,
				"y": -0.5442091509,
				"z": -2.8579906007,
				"element": "C" 
			},
			{
				"x": 2.1432162071,
				"y": 0.693276962,
				"z": 1.0631838735,
				"element": "N" 
			},
			{
				"x": 3.3369158337,
				"y": 1.2644007292,
				"z": 1.5099168848,
				"element": "C" 
			},
			{
				"x": 4.8587033263,
				"y": 1.2934741281,
				"z": 0.6146567357,
				"element": "S" 
			},
			{
				"x": 3.2064608789,
				"y": 1.6948695014,
				"z": 2.7367524363,
				"element": "N" 
			},
			{
				"x": 1.9210121354,
				"y": 1.410437008,
				"z": 3.1520813224,
				"element": "N" 
			},
			{
				"x": 1.2933572425,
				"y": 0.8359650882,
				"z": 2.1490653317,
				"element": "C" 
			},
			{
				"x": -0.0472983739,
				"y": 0.4822375072,
				"z": 2.1268678069,
				"element": "N" 
			},
			{
				"x": -0.3639740641,
				"y": -0.9385416076,
				"z": 1.8758742985,
				"element": "C" 
			},
			{
				"x": -1.8660707689,
				"y": -1.0772780055,
				"z": 1.6416345942,
				"element": "C" 
			},
			{
				"x": -2.6115758634,
				"y": -0.5732401852,
				"z": 2.7383475552,
				"element": "O" 
			},
			{
				"x": -2.3129786252,
				"y": 0.7979358423,
				"z": 2.9701423299,
				"element": "C" 
			},
			{
				"x": -0.8297094957,
				"y": 1.00863715,
				"z": 3.2590468159,
				"element": "C" 
			},
			{
				"x": 3.2572100222,
				"y": -1.3508609192,
				"z": -0.2802552811,
				"element": "H" 
			},
			{
				"x": 0.3074233916,
				"y": 1.7839334532,
				"z": -0.5170700906,
				"element": "H" 
			},
			{
				"x": -0.2643210672,
				"y": 1.0548673965,
				"z": -2.829634463,
				"element": "H" 
			},
			{
				"x": 0.9447919304,
				"y": -0.8804323908,
				"z": -3.8634617105,
				"element": "H" 
			},
			{
				"x": 4.4315443158,
				"y": 2.0497020197,
				"z": -0.4203359845,
				"element": "H" 
			},
			{
				"x": 0.1800981692,
				"y": -1.2900018061,
				"z": 0.9965209174,
				"element": "H" 
			},
			{
				"x": -0.0660460917,
				"y": -1.5560443939,
				"z": 2.7384694563,
				"element": "H" 
			},
			{
				"x": -2.1363275882,
				"y": -2.1317309555,
				"z": 1.5348776458,
				"element": "H" 
			},
			{
				"x": -2.1397945969,
				"y": -0.5469079626,
				"z": 0.7145756494,
				"element": "H" 
			},
			{
				"x": -2.9132473318,
				"y": 1.1069008299,
				"z": 3.8304316579,
				"element": "H" 
			},
			{
				"x": -2.6099367084,
				"y": 1.4032800937,
				"z": 2.0978953944,
				"element": "H" 
			},
			{
				"x": -0.6045507696,
				"y": 2.0708662321,
				"z": 3.3782826989,
				"element": "H" 
			},
			{
				"x": -0.553588948,
				"y": 0.5036681526,
				"z": 4.1964626524,
				"element": "H" 
			}
		],
		 "valence_orbital": [ 
			{
				"type": "occ",
				"energy": -0.27065,
				"method": "rhf"
			},
			{
				"type": "occ",
				"energy": -0.26761,
				"method": "rhf"
			},
			{
				"type": "occ",
				"energy": -0.25842,
				"method": "rhf"
			},
			{
				"type": "occ",
				"energy": -0.25097,
				"method": "rhf"
			},
			{
				"type": "occ",
				"energy": -0.22218,
				"method": "rhf"
			},
			{
				"type": "unocc",
				"energy": -0.04335,
				"method": "rhf"
			},
			{
				"type": "unocc",
				"energy": -0.0261,
				"method": "rhf"
			},
			{
				"type": "unocc",
				"energy": 0.0,
				"method": "rhf"
			},
			{
				"type": "unocc",
				"energy": 0.03175,
				"method": "rhf"
			},
			{
				"type": "unocc",
				"energy": 0.04785,
				"method": "rhf"
			}
		],
		"cosmo_sigma_profile": { 
			"-0.025": 0.0,
			"-0.024": 0.0,
			"-0.023": 0.0,
			"-0.022": 0.0,
			"-0.021": 0.0,
			"-0.02": 0.0,
			"-0.019": 0.0,
			"-0.018": 0.0,
			"-0.017": 0.0,
			"-0.016": 0.0,
			"-0.015": 0.0,
			"-0.014": 0.0,
			"-0.013": 0.0,
			"-0.012": 0.4393821193,
			"-0.011": 2.07264361989,
			"-0.01": 2.10313202803,
			"-0.009": 1.71804187844,
			"-0.008": 4.13119621134,
			"-0.007": 7.69912559011,
			"-0.006": 14.3209785498,
			"-0.005": 22.7120148251,
			"-0.004": 32.6206951373,
			"-0.003": 31.0274010993,
			"-0.002": 21.5610244845,
			"-0.001": 17.7608578853,
			"0.0": 22.1939044973,
			"0.001": 19.3495100082,
			"0.002": 18.3950254692,
			"0.003": 15.8945158605,
			"0.004": 16.1635551476,
			"0.005": 6.22219902018,
			"0.006": 4.26411184496,
			"0.007": 4.71384446641,
			"0.008": 4.27295814638,
			"0.009": 3.61878555466,
			"0.01": 3.45104693058,
			"0.011": 3.65191112326,
			"0.012": 4.46016084898,
			"0.013": 5.21741114459,
			"0.014": 3.4026298647,
			"0.015": 2.08538056164,
			"0.016": 2.04735265501,
			"0.017": 0.193036352467,
			"0.018": 0.0,
			"0.019": 0.0,
			"0.02": 0.0,
			"0.021": 0.0,
			"0.022": 0.0,
			"0.023": 0.0,
			"0.024": 0.0,
			"0.025": 0.0
		}
	}
}
