{
	 "smiles": "CN(C)CCC(O)=O", 
	 "Tm": 404.15, 
	 "num_atms": 19, 
	 "gaussian": { 
		 "optdone": 1, 
		 "sigma_profile": "yes", 
		 "theory": "DFT", 
		 "functional": "B3LYP", 
		 "basiset": "6-31G**", 
		 "properties": { 
			 "R2extent": 1561.1563, 
			 "electric_dipole_moment_norm": 1.52777328816, 
			 "electric_quadrupole_moment_norm": 7.34932524182, 
			 "total_energy": -402.365564417, 
			 "HOMO_LUMO_gap": 0.22847, 
			 "cosmo_polarized_energy": -9.61, 
			 "cosmo_cavitation_energy": 21.89, 
			 "cosmo_dispersion_energy": -15.65, 
			 "cosmo_repulsion_energy": 1.33, 
			 "cosmo_total_nonelectrostatic_energy": 7.57, 
			 "SMD_solvation_energy": 3.52 
		},
		"coords": [
			{
				"x": 0.1212244906,
				"y": 1.3878071847,
				"z": -1.972544069,
				"element": "C" 
			},
			{
				"x": 0.1790765194,
				"y": 1.0525483599,
				"z": -0.5552978533,
				"element": "N" 
			},
			{
				"x": -1.0901291001,
				"y": 1.3342013797,
				"z": 0.1023949746,
				"element": "C" 
			},
			{
				"x": 1.3136398244,
				"y": 1.6905635957,
				"z": 0.1113307309,
				"element": "C" 
			},
			{
				"x": 1.7310127368,
				"y": 0.9416285572,
				"z": 1.3807669939,
				"element": "C" 
			},
			{
				"x": 2.3062924373,
				"y": -0.4198761195,
				"z": 1.0448223505,
				"element": "C" 
			},
			{
				"x": 1.9261021211,
				"y": -1.3692284617,
				"z": 1.9330216417,
				"element": "O" 
			},
			{
				"x": 3.0498124726,
				"y": -0.6560738682,
				"z": 0.1180099388,
				"element": "O" 
			},
			{
				"x": -0.0421609614,
				"y": 2.4663324515,
				"z": -2.1644140079,
				"element": "H" 
			},
			{
				"x": 1.053883062,
				"y": 1.090424667,
				"z": -2.4607841097,
				"element": "H" 
			},
			{
				"x": -0.6988015213,
				"y": 0.8379328415,
				"z": -2.4457890636,
				"element": "H" 
			},
			{
				"x": -1.3600708982,
				"y": 2.4086044721,
				"z": 0.0823186999,
				"element": "H" 
			},
			{
				"x": -1.0630740941,
				"y": 1.0147397935,
				"z": 1.1480427902,
				"element": "H" 
			},
			{
				"x": -1.891672645,
				"y": 0.7752869223,
				"z": -0.390702997,
				"element": "H" 
			},
			{
				"x": 1.1120367827,
				"y": 2.7511544971,
				"z": 0.3563133169,
				"element": "H" 
			},
			{
				"x": 2.1650788427,
				"y": 1.6708343714,
				"z": -0.5746728004,
				"element": "H" 
			},
			{
				"x": 0.9093132062,
				"y": 0.8299617274,
				"z": 2.0915972688,
				"element": "H" 
			},
			{
				"x": 2.5197117692,
				"y": 1.5085757159,
				"z": 1.8924054347,
				"element": "H" 
			},
			{
				"x": 2.3618249551,
				"y": -2.1908180878,
				"z": 1.64868076,
				"element": "H" 
			}
		],
		 "valence_orbital": [ 
			{
				"type": "occ",
				"energy": -0.35181,
				"method": "rhf"
			},
			{
				"type": "occ",
				"energy": -0.34673,
				"method": "rhf"
			},
			{
				"type": "occ",
				"energy": -0.31171,
				"method": "rhf"
			},
			{
				"type": "occ",
				"energy": -0.27,
				"method": "rhf"
			},
			{
				"type": "occ",
				"energy": -0.21306,
				"method": "rhf"
			},
			{
				"type": "unocc",
				"energy": 0.01541,
				"method": "rhf"
			},
			{
				"type": "unocc",
				"energy": 0.08223,
				"method": "rhf"
			},
			{
				"type": "unocc",
				"energy": 0.0857,
				"method": "rhf"
			},
			{
				"type": "unocc",
				"energy": 0.11616,
				"method": "rhf"
			},
			{
				"type": "unocc",
				"energy": 0.12951,
				"method": "rhf"
			}
		],
		"cosmo_sigma_profile": { 
			"-0.025": 0.0,
			"-0.024": 0.0,
			"-0.023": 0.0,
			"-0.022": 0.0,
			"-0.021": 0.0,
			"-0.02": 0.0,
			"-0.019": 0.0,
			"-0.018": 0.528908427565,
			"-0.017": 0.768418124333,
			"-0.016": 0.741943701426,
			"-0.015": 1.1860298306,
			"-0.014": 0.870971304672,
			"-0.013": 0.530787437159,
			"-0.012": 0.23493935909,
			"-0.011": 1.10493407015,
			"-0.01": 0.989951490728,
			"-0.009": 0.351882284884,
			"-0.008": 0.324221895987,
			"-0.007": 1.73029324864,
			"-0.006": 5.11979237597,
			"-0.005": 5.7870143128,
			"-0.004": 10.6401435334,
			"-0.003": 18.5851622205,
			"-0.002": 22.4899328246,
			"-0.001": 26.1132832918,
			"0.0": 20.8435541612,
			"0.001": 6.02861211487,
			"0.002": 4.17021240893,
			"0.003": 4.05476766048,
			"0.004": 3.21836550797,
			"0.005": 3.17450020263,
			"0.006": 4.02232835712,
			"0.007": 2.87184444655,
			"0.008": 3.85195533474,
			"0.009": 5.00114583472,
			"0.01": 3.66836088418,
			"0.011": 3.60460655283,
			"0.012": 5.72064371416,
			"0.013": 1.44115483946,
			"0.014": 0.144845277847,
			"0.015": 0.0,
			"0.016": 0.0,
			"0.017": 0.0,
			"0.018": 0.0,
			"0.019": 0.0,
			"0.02": 0.0,
			"0.021": 0.0,
			"0.022": 0.0,
			"0.023": 0.0,
			"0.024": 0.0,
			"0.025": 0.0
		}
	}
}
