{
	 "smiles": "NC(=S)C1=C(C=CN=C1)C(F)(F)F", 
	 "Tm": 427.15, 
	 "num_atms": 18, 
	 "gaussian": { 
		 "optdone": 1, 
		 "sigma_profile": "yes", 
		 "theory": "DFT", 
		 "functional": "B3LYP", 
		 "basiset": "6-31G**", 
		 "properties": { 
			 "R2extent": 2633.1312, 
			 "electric_dipole_moment_norm": 4.1296055308, 
			 "electric_quadrupole_moment_norm": 11.4109037236, 
			 "total_energy": -1076.9699706, 
			 "HOMO_LUMO_gap": 0.14249, 
			 "cosmo_polarized_energy": -14.32, 
			 "cosmo_cavitation_energy": 25.18, 
			 "cosmo_dispersion_energy": -18.51, 
			 "cosmo_repulsion_energy": 1.36, 
			 "cosmo_total_nonelectrostatic_energy": 8.03, 
			 "SMD_solvation_energy": 2.96 
		},
		"coords": [
			{
				"x": 1.4828745497,
				"y": 0.887584697,
				"z": -0.2379442739,
				"element": "N" 
			},
			{
				"x": 0.263619259,
				"y": 1.1589532421,
				"z": -0.739253285,
				"element": "C" 
			},
			{
				"x": -0.0024971428,
				"y": 2.3499710946,
				"z": -1.8712611162,
				"element": "S" 
			},
			{
				"x": -0.8718300994,
				"y": 0.3541638061,
				"z": -0.1836370556,
				"element": "C" 
			},
			{
				"x": -0.9297406544,
				"y": -1.0519747,
				"z": -0.1196871681,
				"element": "C" 
			},
			{
				"x": -2.074397775,
				"y": -1.654795758,
				"z": 0.4055739226,
				"element": "C" 
			},
			{
				"x": -3.1135566529,
				"y": -0.8498900836,
				"z": 0.8639224115,
				"element": "C" 
			},
			{
				"x": -3.0806355082,
				"y": 0.4869434949,
				"z": 0.8170032198,
				"element": "N" 
			},
			{
				"x": -1.9945527441,
				"y": 1.0562189175,
				"z": 0.2954132917,
				"element": "C" 
			},
			{
				"x": 0.1912415968,
				"y": -1.9456597816,
				"z": -0.6022055221,
				"element": "C" 
			},
			{
				"x": 1.2276444816,
				"y": -1.9515077494,
				"z": 0.2915574653,
				"element": "F" 
			},
			{
				"x": -0.2042055467,
				"y": -3.2245003032,
				"z": -0.7296373927,
				"element": "F" 
			},
			{
				"x": 0.6926679152,
				"y": -1.5525589313,
				"z": -1.7839097616,
				"element": "F" 
			},
			{
				"x": 1.6458208398,
				"y": 0.1195169684,
				"z": 0.396631801,
				"element": "H" 
			},
			{
				"x": 2.2775129936,
				"y": 1.3745426007,
				"z": -0.6277791209,
				"element": "H" 
			},
			{
				"x": -2.1555697186,
				"y": -2.7340862519,
				"z": 0.4442846607,
				"element": "H" 
			},
			{
				"x": -4.0130419352,
				"y": -1.2990460881,
				"z": 1.2790831703,
				"element": "H" 
			},
			{
				"x": -1.9873538584,
				"y": 2.1412248256,
				"z": 0.242644753,
				"element": "H" 
			}
		],
		 "valence_orbital": [ 
			{
				"type": "occ",
				"energy": -0.3173,
				"method": "rhf"
			},
			{
				"type": "occ",
				"energy": -0.29025,
				"method": "rhf"
			},
			{
				"type": "occ",
				"energy": -0.27737,
				"method": "rhf"
			},
			{
				"type": "occ",
				"energy": -0.24299,
				"method": "rhf"
			},
			{
				"type": "occ",
				"energy": -0.21884,
				"method": "rhf"
			},
			{
				"type": "unocc",
				"energy": -0.07635,
				"method": "rhf"
			},
			{
				"type": "unocc",
				"energy": -0.05056,
				"method": "rhf"
			},
			{
				"type": "unocc",
				"energy": -0.01748,
				"method": "rhf"
			},
			{
				"type": "unocc",
				"energy": 0.0731,
				"method": "rhf"
			},
			{
				"type": "unocc",
				"energy": 0.08868,
				"method": "rhf"
			}
		],
		"cosmo_sigma_profile": { 
			"-0.025": 0.0,
			"-0.024": 0.0,
			"-0.023": 0.0,
			"-0.022": 0.0,
			"-0.021": 0.0,
			"-0.02": 0.0,
			"-0.019": 0.0,
			"-0.018": 0.0,
			"-0.017": 0.0,
			"-0.016": 0.535544213812,
			"-0.015": 0.987547054046,
			"-0.014": 2.01690606186,
			"-0.013": 2.20561544778,
			"-0.012": 2.72699324135,
			"-0.011": 2.64056631128,
			"-0.01": 0.989248776411,
			"-0.009": 2.121692533,
			"-0.008": 6.09689440456,
			"-0.007": 6.21509776755,
			"-0.006": 6.24907947457,
			"-0.005": 8.46854073649,
			"-0.004": 9.71421197493,
			"-0.003": 10.6604109484,
			"-0.002": 14.1087155065,
			"-0.001": 14.3329897032,
			"0.0": 14.883233495,
			"0.001": 18.1288112021,
			"0.002": 27.8334517433,
			"0.003": 8.37172815996,
			"0.004": 4.7843494786,
			"0.005": 5.1959961438,
			"0.006": 6.76793548868,
			"0.007": 7.05952418212,
			"0.008": 6.48825972621,
			"0.009": 4.81359588825,
			"0.01": 4.82289752132,
			"0.011": 2.96409664893,
			"0.012": 0.757486905252,
			"0.013": 1.27723867539,
			"0.014": 0.556965625951,
			"0.015": 0.64026734149,
			"0.016": 0.0453360469134,
			"0.017": 0.0,
			"0.018": 0.0,
			"0.019": 0.0,
			"0.02": 0.0,
			"0.021": 0.0,
			"0.022": 0.0,
			"0.023": 0.0,
			"0.024": 0.0,
			"0.025": 0.0
		}
	}
}
