{
	 "smiles": "ICCCCCCI", 
	 "Tm": 282.65, 
	 "num_atms": 20, 
	 "gaussian": { 
		 "optdone": 1, 
		 "sigma_profile": "no", 
		 "theory": "DFT", 
		 "functional": "B3LYP", 
		 "basiset": "6-31G**", 
		 "properties": { 
			 "R2extent": 1983.858, 
			 "electric_dipole_moment_norm": 0.370159546682, 
			 "electric_quadrupole_moment_norm": 15.9178004925, 
			 "total_energy": -258.665274842, 
			 "HOMO_LUMO_gap": 0.21205, 
			 "cosmo_polarized_energy": -211665.65, 
			 "cosmo_cavitation_energy": 27.94, 
			 "cosmo_dispersion_energy": -22.9, 
			 "cosmo_repulsion_energy": 1.85, 
			 "cosmo_total_nonelectrostatic_energy": 6.89, 
			 "SMD_solvation_energy": 2.28 
		},
		"coords": [
			{
				"x": -2.4852401748,
				"y": 3.1940630249,
				"z": -1.6973239479,
				"element": "I" 
			},
			{
				"x": -1.7848411842,
				"y": 1.189620588,
				"z": -2.2582057899,
				"element": "C" 
			},
			{
				"x": -0.3591503704,
				"y": 0.8866547116,
				"z": -1.8101209395,
				"element": "C" 
			},
			{
				"x": -0.1320901399,
				"y": 0.8022891132,
				"z": -0.2907552367,
				"element": "C" 
			},
			{
				"x": -0.8232339751,
				"y": -0.3715644085,
				"z": 0.4385819215,
				"element": "C" 
			},
			{
				"x": 0.0290727197,
				"y": -1.6466323427,
				"z": 0.6233826353,
				"element": "C" 
			},
			{
				"x": 0.3878624983,
				"y": -2.3388218672,
				"z": -0.685401421,
				"element": "C" 
			},
			{
				"x": 1.4889341918,
				"y": -4.2067437754,
				"z": -0.3661900968,
				"element": "I" 
			},
			{
				"x": -1.8797258008,
				"y": 1.176850846,
				"z": -3.3429533029,
				"element": "H" 
			},
			{
				"x": -2.525593137,
				"y": 0.5176295803,
				"z": -1.8260160735,
				"element": "H" 
			},
			{
				"x": 0.3161832359,
				"y": 1.6360214582,
				"z": -2.2370818861,
				"element": "H" 
			},
			{
				"x": -0.0941420779,
				"y": -0.0687221816,
				"z": -2.2866043104,
				"element": "H" 
			},
			{
				"x": -0.4695930343,
				"y": 1.7471544424,
				"z": 0.1496566816,
				"element": "H" 
			},
			{
				"x": 0.9483975866,
				"y": 0.7566273563,
				"z": -0.1033492218,
				"element": "H" 
			},
			{
				"x": -1.7657207049,
				"y": -0.6338172639,
				"z": -0.0608456062,
				"element": "H" 
			},
			{
				"x": -1.1102550841,
				"y": -0.0407145828,
				"z": 1.4433402417,
				"element": "H" 
			},
			{
				"x": -0.5229968042,
				"y": -2.347533262,
				"z": 1.2586539775,
				"element": "H" 
			},
			{
				"x": 0.9482446247,
				"y": -1.3930083705,
				"z": 1.1642513379,
				"element": "H" 
			},
			{
				"x": 1.0516768772,
				"y": -1.7492445719,
				"z": -1.3155762486,
				"element": "H" 
			},
			{
				"x": -0.4910892468,
				"y": -2.6359084943,
				"z": -1.2582427141,
				"element": "H" 
			}
		],
		 "valence_orbital": [ 
			{
				"type": "occ",
				"energy": -0.31917,
				"method": "rhf"
			},
			{
				"type": "occ",
				"energy": -0.26244,
				"method": "rhf"
			},
			{
				"type": "occ",
				"energy": -0.2606,
				"method": "rhf"
			},
			{
				"type": "occ",
				"energy": -0.26014,
				"method": "rhf"
			},
			{
				"type": "occ",
				"energy": -0.25954,
				"method": "rhf"
			},
			{
				"type": "unocc",
				"energy": -0.04749,
				"method": "rhf"
			},
			{
				"type": "unocc",
				"energy": -0.04428,
				"method": "rhf"
			},
			{
				"type": "unocc",
				"energy": 0.03237,
				"method": "rhf"
			},
			{
				"type": "unocc",
				"energy": 0.03268,
				"method": "rhf"
			},
			{
				"type": "unocc",
				"energy": 0.04143,
				"method": "rhf"
			}
		],
		"cosmo_sigma_profile": { 
			"0.0": 0.0,
			"0.0": 0.0,
			"0.0": 0.0,
			"0.0": 0.0,
			"0.0": 0.0,
			"0.0": 0.0,
			"0.0": 0.0,
			"0.0": 0.0,
			"0.0": 0.0,
			"0.0": 0.0,
			"0.0": 0.0,
			"0.0": 0.0,
			"0.0": 0.0,
			"0.0": 0.0,
			"0.0": 0.0,
			"0.0": 0.0,
			"0.0": 0.0,
			"0.0": 0.0,
			"0.0": 0.0,
			"0.0": 0.0,
			"0.0": 0.0,
			"0.0": 0.0,
			"0.0": 0.0,
			"0.0": 0.0,
			"0.0": 0.0,
			"0.0": 0.0,
			"0.0": 0.0,
			"0.0": 0.0,
			"0.0": 0.0,
			"0.0": 0.0,
			"0.0": 0.0,
			"0.0": 0.0,
			"0.0": 0.0,
			"0.0": 0.0,
			"0.0": 0.0,
			"0.0": 0.0,
			"0.0": 0.0,
			"0.0": 0.0,
			"0.0": 0.0,
			"0.0": 0.0,
			"0.0": 0.0,
			"0.0": 0.0,
			"0.0": 0.0,
			"0.0": 0.0,
			"0.0": 0.0,
			"0.0": 0.0,
			"0.0": 0.0,
			"0.0": 0.0,
			"0.0": 0.0,
			"0.0": 0.0,
			"0.0": 0.0
		}
	}
}
