{
	 "smiles": "N#CC(=CC1=CC=CC=C1)C#N", 
	 "Tm": 357.15, 
	 "num_atms": 18, 
	 "gaussian": { 
		 "optdone": 1, 
		 "sigma_profile": "yes", 
		 "theory": "DFT", 
		 "functional": "B3LYP", 
		 "basiset": "6-31G**", 
		 "properties": { 
			 "R2extent": 2940.5847, 
			 "electric_dipole_moment_norm": 6.63026112759, 
			 "electric_quadrupole_moment_norm": 20.1843831335, 
			 "total_energy": -494.125764556, 
			 "HOMO_LUMO_gap": 0.15278, 
			 "cosmo_polarized_energy": -12.62, 
			 "cosmo_cavitation_energy": 25.01, 
			 "cosmo_dispersion_energy": -17.09, 
			 "cosmo_repulsion_energy": 1.36, 
			 "cosmo_total_nonelectrostatic_energy": 9.27, 
			 "SMD_solvation_energy": 7.03 
		},
		"coords": [
			{
				"x": 2.0970988769,
				"y": 1.441537217,
				"z": -5.0340843066,
				"element": "N" 
			},
			{
				"x": 1.4249293157,
				"y": 1.0342189741,
				"z": -4.1762101098,
				"element": "C" 
			},
			{
				"x": 0.6011869808,
				"y": 0.5343067562,
				"z": -3.1128909497,
				"element": "C" 
			},
			{
				"x": 1.0263722325,
				"y": 0.6693980917,
				"z": -1.8206309578,
				"element": "C" 
			},
			{
				"x": 0.4233424457,
				"y": 0.2712513683,
				"z": -0.5600423991,
				"element": "C" 
			},
			{
				"x": -0.8204212308,
				"y": -0.384840907,
				"z": -0.4277752932,
				"element": "C" 
			},
			{
				"x": -1.3040207065,
				"y": -0.7208113917,
				"z": 0.8318893324,
				"element": "C" 
			},
			{
				"x": -0.5686121313,
				"y": -0.415101877,
				"z": 1.9815271588,
				"element": "C" 
			},
			{
				"x": 0.6631224064,
				"y": 0.2333877483,
				"z": 1.8686117122,
				"element": "C" 
			},
			{
				"x": 1.1521529777,
				"y": 0.5719658373,
				"z": 0.6118938574,
				"element": "C" 
			},
			{
				"x": -0.6268775871,
				"y": -0.0778662999,
				"z": -3.5222827381,
				"element": "C" 
			},
			{
				"x": -1.6198870176,
				"y": -0.5712211265,
				"z": -3.8759166391,
				"element": "N" 
			},
			{
				"x": 1.9896149692,
				"y": 1.1641995934,
				"z": -1.7197964288,
				"element": "H" 
			},
			{
				"x": -1.4079446642,
				"y": -0.6320196577,
				"z": -1.3025839292,
				"element": "H" 
			},
			{
				"x": -2.2616005413,
				"y": -1.2248988314,
				"z": 0.9182354547,
				"element": "H" 
			},
			{
				"x": -0.955314865,
				"y": -0.6818691099,
				"z": 2.9606011786,
				"element": "H" 
			},
			{
				"x": 1.2392467243,
				"y": 0.4737012943,
				"z": 2.7567115428,
				"element": "H" 
			},
			{
				"x": 2.1106118147,
				"y": 1.0765623205,
				"z": 0.5242435144,
				"element": "H" 
			}
		],
		 "valence_orbital": [ 
			{
				"type": "occ",
				"energy": -0.35083,
				"method": "rhf"
			},
			{
				"type": "occ",
				"energy": -0.34235,
				"method": "rhf"
			},
			{
				"type": "occ",
				"energy": -0.32347,
				"method": "rhf"
			},
			{
				"type": "occ",
				"energy": -0.28244,
				"method": "rhf"
			},
			{
				"type": "occ",
				"energy": -0.25979,
				"method": "rhf"
			},
			{
				"type": "unocc",
				"energy": -0.10701,
				"method": "rhf"
			},
			{
				"type": "unocc",
				"energy": -0.03077,
				"method": "rhf"
			},
			{
				"type": "unocc",
				"energy": -0.01029,
				"method": "rhf"
			},
			{
				"type": "unocc",
				"energy": -0.002,
				"method": "rhf"
			},
			{
				"type": "unocc",
				"energy": 0.03475,
				"method": "rhf"
			}
		],
		"cosmo_sigma_profile": { 
			"-0.025": 0.0,
			"-0.024": 0.0,
			"-0.023": 0.0,
			"-0.022": 0.0,
			"-0.021": 0.0,
			"-0.02": 0.0,
			"-0.019": 0.0,
			"-0.018": 0.0,
			"-0.017": 0.0,
			"-0.016": 0.0,
			"-0.015": 0.0,
			"-0.014": 0.0,
			"-0.013": 0.0,
			"-0.012": 0.0,
			"-0.011": 0.886257365292,
			"-0.01": 2.91792620797,
			"-0.009": 2.81991834082,
			"-0.008": 3.21855682003,
			"-0.007": 8.7699908396,
			"-0.006": 11.8854773457,
			"-0.005": 13.1906122355,
			"-0.004": 15.4374506459,
			"-0.003": 19.6420852082,
			"-0.002": 14.8184333113,
			"-0.001": 12.1057603285,
			"0.0": 11.0521513664,
			"0.001": 12.9561108201,
			"0.002": 15.2939818809,
			"0.003": 14.0978148215,
			"0.004": 4.49179689954,
			"0.005": 4.18232907876,
			"0.006": 5.02201705926,
			"0.007": 5.94559207381,
			"0.008": 6.0642721971,
			"0.009": 5.91383136272,
			"0.01": 5.14680583884,
			"0.011": 4.89916499483,
			"0.012": 3.2885830037,
			"0.013": 0.309770776695,
			"0.014": 0.0,
			"0.015": 0.0,
			"0.016": 0.0,
			"0.017": 0.0,
			"0.018": 0.0,
			"0.019": 0.0,
			"0.02": 0.0,
			"0.021": 0.0,
			"0.022": 0.0,
			"0.023": 0.0,
			"0.024": 0.0,
			"0.025": 0.0
		}
	}
}
