{
	 "smiles": "CN1C(=O)C(C2=NNC(=O)C2=C/NC2=NC=CC=N2)=C(O)C2=CC=CC=C12", 
	 "Tm": 552.15, 
	 "num_atms": 41, 
	 "gaussian": { 
		 "optdone": 1, 
		 "sigma_profile": "yes", 
		 "theory": "DFT", 
		 "functional": "B3LYP", 
		 "basiset": "6-31G**", 
		 "properties": { 
			 "R2extent": 12693.6683, 
			 "electric_dipole_moment_norm": 3.9518670132, 
			 "electric_quadrupole_moment_norm": 21.6958470263, 
			 "total_energy": -1248.56845207, 
			 "HOMO_LUMO_gap": 0.1307, 
			 "cosmo_polarized_energy": -19.12, 
			 "cosmo_cavitation_energy": 45.15, 
			 "cosmo_dispersion_energy": -33.74, 
			 "cosmo_repulsion_energy": 2.46, 
			 "cosmo_total_nonelectrostatic_energy": 13.87, 
			 "SMD_solvation_energy": 5.77 
		},
		"coords": [
			{
				"x": 1.8880995287,
				"y": 1.141517507,
				"z": 3.444019437,
				"element": "C" 
			},
			{
				"x": 0.919284832,
				"y": 0.0736543316,
				"z": 3.1968641622,
				"element": "N" 
			},
			{
				"x": 0.65753874,
				"y": -0.2518410306,
				"z": 1.8506707793,
				"element": "C" 
			},
			{
				"x": 1.264424953,
				"y": 0.3573537727,
				"z": 0.9629662149,
				"element": "O" 
			},
			{
				"x": -0.3155993205,
				"y": -1.3060834254,
				"z": 1.5867215895,
				"element": "C" 
			},
			{
				"x": -0.6918774475,
				"y": -1.6667522357,
				"z": 0.2079682419,
				"element": "C" 
			},
			{
				"x": -1.39268754,
				"y": -2.7844426147,
				"z": 0.0567702063,
				"element": "N" 
			},
			{
				"x": -1.7208945422,
				"y": -2.9218764616,
				"z": -1.2674222802,
				"element": "N" 
			},
			{
				"x": -1.2398664032,
				"y": -1.9028070131,
				"z": -2.0492911475,
				"element": "C" 
			},
			{
				"x": -1.3881827988,
				"y": -1.7866141273,
				"z": -3.2754230234,
				"element": "O" 
			},
			{
				"x": -0.541732399,
				"y": -1.0254409776,
				"z": -1.0951616612,
				"element": "C" 
			},
			{
				"x": 0.0368230714,
				"y": 0.1486107285,
				"z": -1.5286810361,
				"element": "C" 
			},
			{
				"x": -0.0280243115,
				"y": 0.5024434443,
				"z": -2.8285105847,
				"element": "N" 
			},
			{
				"x": 0.5106382457,
				"y": 1.6631794378,
				"z": -3.3733696972,
				"element": "C" 
			},
			{
				"x": 1.1254654775,
				"y": 2.5202501297,
				"z": -2.5492069433,
				"element": "N" 
			},
			{
				"x": 1.6267866389,
				"y": 3.6159015923,
				"z": -3.1233601093,
				"element": "C" 
			},
			{
				"x": 1.5207907593,
				"y": 3.8655095055,
				"z": -4.490933656,
				"element": "C" 
			},
			{
				"x": 0.8529132968,
				"y": 2.8972076347,
				"z": -5.2408385722,
				"element": "C" 
			},
			{
				"x": 0.3420736115,
				"y": 1.7901395957,
				"z": -4.6983663843,
				"element": "N" 
			},
			{
				"x": -0.8757558785,
				"y": -2.0017946026,
				"z": 2.6595253297,
				"element": "C" 
			},
			{
				"x": -1.7111056329,
				"y": -3.0246199581,
				"z": 2.5175060989,
				"element": "O" 
			},
			{
				"x": -0.5808470126,
				"y": -1.6318905165,
				"z": 4.0257127009,
				"element": "C" 
			},
			{
				"x": -1.1798657486,
				"y": -2.3049811098,
				"z": 5.10701769,
				"element": "C" 
			},
			{
				"x": -0.8984396572,
				"y": -1.9398445717,
				"z": 6.4131163272,
				"element": "C" 
			},
			{
				"x": -0.0019297352,
				"y": -0.8890107397,
				"z": 6.6532572004,
				"element": "C" 
			},
			{
				"x": 0.6051727581,
				"y": -0.212816234,
				"z": 5.6035000514,
				"element": "C" 
			},
			{
				"x": 0.3249954671,
				"y": -0.5740271262,
				"z": 4.2696114864,
				"element": "C" 
			},
			{
				"x": 1.4191451516,
				"y": 1.9680168818,
				"z": 3.9873219818,
				"element": "H" 
			},
			{
				"x": 2.2369189313,
				"y": 1.4912901851,
				"z": 2.4759428647,
				"element": "H" 
			},
			{
				"x": 2.7352696447,
				"y": 0.7650768574,
				"z": 4.0258182883,
				"element": "H" 
			},
			{
				"x": -2.2288934808,
				"y": -3.7330175433,
				"z": -1.5818209677,
				"element": "H" 
			},
			{
				"x": 0.5653159444,
				"y": 0.8120766523,
				"z": -0.8577342087,
				"element": "H" 
			},
			{
				"x": -0.5109979205,
				"y": -0.1492103562,
				"z": -3.4615615668,
				"element": "H" 
			},
			{
				"x": 2.1297693723,
				"y": 4.3171692792,
				"z": -2.4598455272,
				"element": "H" 
			},
			{
				"x": 1.9319777992,
				"y": 4.7597083621,
				"z": -4.9441090237,
				"element": "H" 
			},
			{
				"x": 0.7206481593,
				"y": 3.0090675292,
				"z": -6.3155177107,
				"element": "H" 
			},
			{
				"x": -1.7959133194,
				"y": -3.2052902385,
				"z": 1.5274002808,
				"element": "H" 
			},
			{
				"x": -1.8664069078,
				"y": -3.1138860913,
				"z": 4.8869122449,
				"element": "H" 
			},
			{
				"x": -1.3657443663,
				"y": -2.4625764049,
				"z": 7.2413816628,
				"element": "H" 
			},
			{
				"x": 0.2277065181,
				"y": -0.5940401866,
				"z": 7.673159959,
				"element": "H" 
			},
			{
				"x": 1.2944055215,
				"y": 0.5930901388,
				"z": 5.8189893022,
				"element": "H" 
			}
		],
		 "valence_orbital": [ 
			{
				"type": "occ",
				"energy": -0.25689,
				"method": "rhf"
			},
			{
				"type": "occ",
				"energy": -0.25142,
				"method": "rhf"
			},
			{
				"type": "occ",
				"energy": -0.22679,
				"method": "rhf"
			},
			{
				"type": "occ",
				"energy": -0.22139,
				"method": "rhf"
			},
			{
				"type": "occ",
				"energy": -0.20215,
				"method": "rhf"
			},
			{
				"type": "unocc",
				"energy": -0.07145,
				"method": "rhf"
			},
			{
				"type": "unocc",
				"energy": -0.04831,
				"method": "rhf"
			},
			{
				"type": "unocc",
				"energy": -0.04412,
				"method": "rhf"
			},
			{
				"type": "unocc",
				"energy": -0.00856,
				"method": "rhf"
			},
			{
				"type": "unocc",
				"energy": 0.00291,
				"method": "rhf"
			}
		],
		"cosmo_sigma_profile": { 
			"-0.025": 0.0,
			"-0.024": 0.0,
			"-0.023": 0.0,
			"-0.022": 0.0,
			"-0.021": 0.0,
			"-0.02": 0.0,
			"-0.019": 0.0,
			"-0.018": 0.0,
			"-0.017": 0.453359006245,
			"-0.016": 1.41489564274,
			"-0.015": 1.20033797016,
			"-0.014": 0.658041428981,
			"-0.013": 0.805525762939,
			"-0.012": 0.836300005111,
			"-0.011": 1.08696112842,
			"-0.01": 0.980002639501,
			"-0.009": 0.713645564328,
			"-0.008": 7.09382095708,
			"-0.007": 12.0363129592,
			"-0.006": 17.9565948884,
			"-0.005": 19.8574617177,
			"-0.004": 18.2398428365,
			"-0.003": 21.1161367532,
			"-0.002": 33.505458196,
			"-0.001": 37.1685201435,
			"0.0": 37.9756551178,
			"0.001": 32.8306792317,
			"0.002": 24.0029283657,
			"0.003": 20.3427821456,
			"0.004": 16.3307100436,
			"0.005": 11.6555917971,
			"0.006": 8.86105028834,
			"0.007": 6.36250862167,
			"0.008": 6.6187353875,
			"0.009": 4.60617832733,
			"0.01": 5.84698541283,
			"0.011": 3.99622529878,
			"0.012": 4.34552768993,
			"0.013": 3.74700272032,
			"0.014": 1.83125287217,
			"0.015": 0.25481905584,
			"0.016": 0.0,
			"0.017": 0.0,
			"0.018": 0.0,
			"0.019": 0.0,
			"0.02": 0.0,
			"0.021": 0.0,
			"0.022": 0.0,
			"0.023": 0.0,
			"0.024": 0.0,
			"0.025": 0.0
		}
	}
}
