{
	 "smiles": "ClC1=CC=C(C(Cl)=C1)C1=C(Cl)C(Cl)=C(Cl)C=C1Cl", 
	 "Tm": 346.15, 
	 "num_atms": 22, 
	 "gaussian": { 
		 "optdone": 1, 
		 "sigma_profile": "yes", 
		 "theory": "DFT", 
		 "functional": "B3LYP", 
		 "basiset": "6-31G**", 
		 "properties": { 
			 "R2extent": 8798.8506, 
			 "electric_dipole_moment_norm": 1.56862180592, 
			 "electric_quadrupole_moment_norm": 5.18988042059, 
			 "total_energy": -3220.8297272, 
			 "HOMO_LUMO_gap": 0.2096, 
			 "cosmo_polarized_energy": -5.9, 
			 "cosmo_cavitation_energy": 37.85, 
			 "cosmo_dispersion_energy": -26.55, 
			 "cosmo_repulsion_energy": 2.08, 
			 "cosmo_total_nonelectrostatic_energy": 13.38, 
			 "SMD_solvation_energy": 4.77 
		},
		"coords": [
			{
				"x": -5.6905565927,
				"y": 2.6809321798,
				"z": -0.3627523055,
				"element": "Cl" 
			},
			{
				"x": -4.1202609521,
				"y": 1.9488171117,
				"z": -0.0964314042,
				"element": "C" 
			},
			{
				"x": -3.1788720687,
				"y": 1.9423467284,
				"z": -1.1246552321,
				"element": "C" 
			},
			{
				"x": -1.9375181755,
				"y": 1.356166712,
				"z": -0.8934570211,
				"element": "C" 
			},
			{
				"x": -1.6145196922,
				"y": 0.775739335,
				"z": 0.3404516324,
				"element": "C" 
			},
			{
				"x": -2.5877661959,
				"y": 0.802927595,
				"z": 1.3499345203,
				"element": "C" 
			},
			{
				"x": -2.2544769607,
				"y": 0.0971322604,
				"z": 2.9192846406,
				"element": "Cl" 
			},
			{
				"x": -3.8390912212,
				"y": 1.3834253221,
				"z": 1.1452451012,
				"element": "C" 
			},
			{
				"x": -0.2676343013,
				"y": 0.1659435038,
				"z": 0.5453096517,
				"element": "C" 
			},
			{
				"x": -0.0245121044,
				"y": -1.1881717755,
				"z": 0.2492048726,
				"element": "C" 
			},
			{
				"x": -1.3425832108,
				"y": -2.1656378359,
				"z": -0.3385946581,
				"element": "Cl" 
			},
			{
				"x": 1.2451030588,
				"y": -1.7694973894,
				"z": 0.4163971433,
				"element": "C" 
			},
			{
				"x": 1.5158235321,
				"y": -3.4418167641,
				"z": 0.043622483,
				"element": "Cl" 
			},
			{
				"x": 2.2935806549,
				"y": -0.9666980531,
				"z": 0.8915131696,
				"element": "C" 
			},
			{
				"x": 3.8935928014,
				"y": -1.6157937292,
				"z": 1.1238513293,
				"element": "Cl" 
			},
			{
				"x": 2.0810193075,
				"y": 0.3760977926,
				"z": 1.1892129093,
				"element": "C" 
			},
			{
				"x": 0.8152780529,
				"y": 0.9252331875,
				"z": 1.0137849543,
				"element": "C" 
			},
			{
				"x": 0.6009282581,
				"y": 2.618434937,
				"z": 1.4008833728,
				"element": "Cl" 
			},
			{
				"x": -3.4134199856,
				"y": 2.3868559423,
				"z": -2.0847680392,
				"element": "H" 
			},
			{
				"x": -1.1964072709,
				"y": 1.3449995919,
				"z": -1.6864611183,
				"element": "H" 
			},
			{
				"x": -4.5752042672,
				"y": 1.3924206071,
				"z": 1.9393425621,
				"element": "H" 
			},
			{
				"x": 2.8978973339,
				"y": 0.9851427408,
				"z": 1.554581436,
				"element": "H" 
			}
		],
		 "valence_orbital": [ 
			{
				"type": "occ",
				"energy": -0.315,
				"method": "rhf"
			},
			{
				"type": "occ",
				"energy": -0.27307,
				"method": "rhf"
			},
			{
				"type": "occ",
				"energy": -0.27147,
				"method": "rhf"
			},
			{
				"type": "occ",
				"energy": -0.26187,
				"method": "rhf"
			},
			{
				"type": "occ",
				"energy": -0.2602,
				"method": "rhf"
			},
			{
				"type": "unocc",
				"energy": -0.0506,
				"method": "rhf"
			},
			{
				"type": "unocc",
				"energy": -0.04878,
				"method": "rhf"
			},
			{
				"type": "unocc",
				"energy": -0.03914,
				"method": "rhf"
			},
			{
				"type": "unocc",
				"energy": -0.03456,
				"method": "rhf"
			},
			{
				"type": "unocc",
				"energy": -0.03322,
				"method": "rhf"
			}
		],
		"cosmo_sigma_profile": { 
			"-0.025": 0.0,
			"-0.024": 0.0,
			"-0.023": 0.0,
			"-0.022": 0.0,
			"-0.021": 0.0,
			"-0.02": 0.0,
			"-0.019": 0.0,
			"-0.018": 0.0,
			"-0.017": 0.0,
			"-0.016": 0.0,
			"-0.015": 0.0,
			"-0.014": 0.0,
			"-0.013": 0.0,
			"-0.012": 0.0,
			"-0.011": 0.0,
			"-0.01": 0.412088717097,
			"-0.009": 2.15964996636,
			"-0.008": 6.07831409792,
			"-0.007": 8.45386884071,
			"-0.006": 6.66780182833,
			"-0.005": 7.21664761516,
			"-0.004": 10.7278181492,
			"-0.003": 16.5483226092,
			"-0.002": 28.3478676486,
			"-0.001": 33.9854943982,
			"0.0": 34.6067859148,
			"0.001": 40.5634200228,
			"0.002": 44.8580735898,
			"0.003": 50.6031319096,
			"0.004": 26.3412756884,
			"0.005": 1.32467193493,
			"0.006": 0.0,
			"0.007": 0.0,
			"0.008": 0.0,
			"0.009": 0.0,
			"0.01": 0.0,
			"0.011": 0.0,
			"0.012": 0.0,
			"0.013": 0.0,
			"0.014": 0.0,
			"0.015": 0.0,
			"0.016": 0.0,
			"0.017": 0.0,
			"0.018": 0.0,
			"0.019": 0.0,
			"0.02": 0.0,
			"0.021": 0.0,
			"0.022": 0.0,
			"0.023": 0.0,
			"0.024": 0.0,
			"0.025": 0.0
		}
	}
}
