{
	 "smiles": "CCCCCCCCCCCCCCCC(=O)OC(C)C", 
	 "Tm": 285.95, 
	 "num_atms": 59, 
	 "gaussian": { 
		 "optdone": 1, 
		 "sigma_profile": "yes", 
		 "theory": "DFT", 
		 "functional": "B3LYP", 
		 "basiset": "6-31G**", 
		 "properties": { 
			 "R2extent": 12757.1571, 
			 "electric_dipole_moment_norm": 1.74217446314, 
			 "electric_quadrupole_moment_norm": 9.54963492444, 
			 "total_energy": -897.434354965, 
			 "HOMO_LUMO_gap": 0.27039, 
			 "cosmo_polarized_energy": -6.56, 
			 "cosmo_cavitation_energy": 56.84, 
			 "cosmo_dispersion_energy": -36.42, 
			 "cosmo_repulsion_energy": 2.92, 
			 "cosmo_total_nonelectrostatic_energy": 23.34, 
			 "SMD_solvation_energy": 8.31 
		},
		"coords": [
			{
				"x": -2.0416892966,
				"y": 4.3052393709,
				"z": -1.8765814294,
				"element": "C" 
			},
			{
				"x": -3.4806249351,
				"y": 4.0288186426,
				"z": -2.3284947418,
				"element": "C" 
			},
			{
				"x": -3.6512831553,
				"y": 2.7304706764,
				"z": -3.1373874813,
				"element": "C" 
			},
			{
				"x": -3.4020109912,
				"y": 1.4183042635,
				"z": -2.371346431,
				"element": "C" 
			},
			{
				"x": -4.4213352369,
				"y": 1.1333041425,
				"z": -1.2572930703,
				"element": "C" 
			},
			{
				"x": -4.3322062286,
				"y": -0.2837597704,
				"z": -0.6625457478,
				"element": "C" 
			},
			{
				"x": -3.0427326621,
				"y": -0.6647861963,
				"z": 0.092250756,
				"element": "C" 
			},
			{
				"x": -2.8101929312,
				"y": 0.0633506581,
				"z": 1.436323018,
				"element": "C" 
			},
			{
				"x": -1.993483875,
				"y": 1.3700363892,
				"z": 1.3791751749,
				"element": "C" 
			},
			{
				"x": -0.506246262,
				"y": 1.2142351505,
				"z": 1.0091831644,
				"element": "C" 
			},
			{
				"x": 0.3394096332,
				"y": 0.4868836319,
				"z": 2.066033877,
				"element": "C" 
			},
			{
				"x": 1.8232625795,
				"y": 0.3219163893,
				"z": 1.6924191084,
				"element": "C" 
			},
			{
				"x": 2.6064755346,
				"y": 1.6416902672,
				"z": 1.6171262109,
				"element": "C" 
			},
			{
				"x": 4.1247893474,
				"y": 1.4941242539,
				"z": 1.4207378155,
				"element": "C" 
			},
			{
				"x": 4.561207489,
				"y": 0.9125172628,
				"z": 0.0590679598,
				"element": "C" 
			},
			{
				"x": 4.4102440343,
				"y": -0.590674746,
				"z": -0.1070287188,
				"element": "C" 
			},
			{
				"x": 3.8056242785,
				"y": -1.1256948977,
				"z": -1.0152110856,
				"element": "O" 
			},
			{
				"x": 5.0744345346,
				"y": -1.2467752415,
				"z": 0.8687413811,
				"element": "O" 
			},
			{
				"x": 5.1302412602,
				"y": -2.7086706567,
				"z": 0.8754963168,
				"element": "C" 
			},
			{
				"x": 5.8893619225,
				"y": -3.243123824,
				"z": -0.3371649846,
				"element": "C" 
			},
			{
				"x": 3.7499885337,
				"y": -3.3326046913,
				"z": 1.0683324522,
				"element": "C" 
			},
			{
				"x": -1.361610547,
				"y": 4.3502270367,
				"z": -2.7354122743,
				"element": "H" 
			},
			{
				"x": -1.9709589648,
				"y": 5.26106693,
				"z": -1.3467035041,
				"element": "H" 
			},
			{
				"x": -1.6667486014,
				"y": 3.5288151553,
				"z": -1.2016553076,
				"element": "H" 
			},
			{
				"x": -3.8235815846,
				"y": 4.8676916844,
				"z": -2.9478008536,
				"element": "H" 
			},
			{
				"x": -4.143983869,
				"y": 4.0141591543,
				"z": -1.4541845052,
				"element": "H" 
			},
			{
				"x": -4.6691854922,
				"y": 2.7036877432,
				"z": -3.5504229005,
				"element": "H" 
			},
			{
				"x": -2.9748939153,
				"y": 2.7681715142,
				"z": -4.0025812573,
				"element": "H" 
			},
			{
				"x": -2.3838584948,
				"y": 1.4135796612,
				"z": -1.9626860231,
				"element": "H" 
			},
			{
				"x": -3.4353460846,
				"y": 0.589733737,
				"z": -3.0924425284,
				"element": "H" 
			},
			{
				"x": -5.4315533334,
				"y": 1.2617272727,
				"z": -1.671426717,
				"element": "H" 
			},
			{
				"x": -4.3331876241,
				"y": 1.8800924217,
				"z": -0.4588692658,
				"element": "H" 
			},
			{
				"x": -4.4746887197,
				"y": -1.004682864,
				"z": -1.4799481174,
				"element": "H" 
			},
			{
				"x": -5.1824047419,
				"y": -0.4313284451,
				"z": 0.0179247887,
				"element": "H" 
			},
			{
				"x": -2.1721047323,
				"y": -0.5383920966,
				"z": -0.5632855015,
				"element": "H" 
			},
			{
				"x": -3.0986345487,
				"y": -1.7423888033,
				"z": 0.2912865443,
				"element": "H" 
			},
			{
				"x": -2.3132586207,
				"y": -0.6256440506,
				"z": 2.1302864899,
				"element": "H" 
			},
			{
				"x": -3.7856829804,
				"y": 0.2797075254,
				"z": 1.8930935926,
				"element": "H" 
			},
			{
				"x": -2.4600980677,
				"y": 2.062597051,
				"z": 0.6692733236,
				"element": "H" 
			},
			{
				"x": -2.0563940132,
				"y": 1.861663439,
				"z": 2.3601284805,
				"element": "H" 
			},
			{
				"x": -0.0926238542,
				"y": 2.216589113,
				"z": 0.8418066563,
				"element": "H" 
			},
			{
				"x": -0.4091689701,
				"y": 0.6879782092,
				"z": 0.0494485205,
				"element": "H" 
			},
			{
				"x": -0.0814559718,
				"y": -0.5100167525,
				"z": 2.246271419,
				"element": "H" 
			},
			{
				"x": 0.2631691881,
				"y": 1.025651707,
				"z": 3.0221184609,
				"element": "H" 
			},
			{
				"x": 1.8916601618,
				"y": -0.208824838,
				"z": 0.734703677,
				"element": "H" 
			},
			{
				"x": 2.3031439789,
				"y": -0.3260929673,
				"z": 2.4387246829,
				"element": "H" 
			},
			{
				"x": 2.2071913196,
				"y": 2.2684600485,
				"z": 0.8089207858,
				"element": "H" 
			},
			{
				"x": 2.4374517608,
				"y": 2.2031426687,
				"z": 2.5467555593,
				"element": "H" 
			},
			{
				"x": 4.5795099985,
				"y": 2.4875831895,
				"z": 1.5151671458,
				"element": "H" 
			},
			{
				"x": 4.5526214394,
				"y": 0.8814736292,
				"z": 2.2226046549,
				"element": "H" 
			},
			{
				"x": 4.0108272097,
				"y": 1.3799044224,
				"z": -0.762222398,
				"element": "H" 
			},
			{
				"x": 5.6261780705,
				"y": 1.1319269614,
				"z": -0.0889849438,
				"element": "H" 
			},
			{
				"x": 5.727808384,
				"y": -2.8941990471,
				"z": 1.7739738486,
				"element": "H" 
			},
			{
				"x": 6.8584994112,
				"y": -2.7440858475,
				"z": -0.4327157711,
				"element": "H" 
			},
			{
				"x": 5.3202848359,
				"y": -3.0917735267,
				"z": -1.255568358,
				"element": "H" 
			},
			{
				"x": 6.072126921,
				"y": -4.3151321464,
				"z": -0.2080007247,
				"element": "H" 
			},
			{
				"x": 3.8618931408,
				"y": -4.4058847631,
				"z": 1.2556574765,
				"element": "H" 
			},
			{
				"x": 3.2456323794,
				"y": -2.8895557171,
				"z": 1.932186586,
				"element": "H" 
			},
			{
				"x": 3.1267919585,
				"y": -3.1923294848,
				"z": 0.1842447142,
				"element": "H" 
			}
		],
		 "valence_orbital": [ 
			{
				"type": "occ",
				"energy": -0.29851,
				"method": "rhf"
			},
			{
				"type": "occ",
				"energy": -0.29667,
				"method": "rhf"
			},
			{
				"type": "occ",
				"energy": -0.29232,
				"method": "rhf"
			},
			{
				"type": "occ",
				"energy": -0.28968,
				"method": "rhf"
			},
			{
				"type": "occ",
				"energy": -0.2555,
				"method": "rhf"
			},
			{
				"type": "unocc",
				"energy": 0.01489,
				"method": "rhf"
			},
			{
				"type": "unocc",
				"energy": 0.06919,
				"method": "rhf"
			},
			{
				"type": "unocc",
				"energy": 0.08227,
				"method": "rhf"
			},
			{
				"type": "unocc",
				"energy": 0.09347,
				"method": "rhf"
			},
			{
				"type": "unocc",
				"energy": 0.09791,
				"method": "rhf"
			}
		],
		"cosmo_sigma_profile": { 
			"-0.025": 0.0,
			"-0.024": 0.0,
			"-0.023": 0.0,
			"-0.022": 0.0,
			"-0.021": 0.0,
			"-0.02": 0.0,
			"-0.019": 0.0,
			"-0.018": 0.0,
			"-0.017": 0.0,
			"-0.016": 0.0,
			"-0.015": 0.0,
			"-0.014": 0.0,
			"-0.013": 0.0,
			"-0.012": 0.0,
			"-0.011": 0.0,
			"-0.01": 0.0,
			"-0.009": 0.0,
			"-0.008": 0.0,
			"-0.007": 0.0,
			"-0.006": 1.03177997221,
			"-0.005": 5.82994473138,
			"-0.004": 14.2580451389,
			"-0.003": 21.8662446718,
			"-0.002": 55.0232786873,
			"-0.001": 95.6640627318,
			"0.0": 97.178590053,
			"0.001": 81.0060136634,
			"0.002": 33.5098025378,
			"0.003": 4.57587400519,
			"0.004": 4.41380811079,
			"0.005": 3.56621937862,
			"0.006": 3.23894591564,
			"0.007": 2.56919757796,
			"0.008": 2.07753440379,
			"0.009": 1.71782039359,
			"0.01": 1.28492015709,
			"0.011": 1.89013490794,
			"0.012": 2.41483243909,
			"0.013": 2.30655444838,
			"0.014": 0.492483825395,
			"0.015": 0.0,
			"0.016": 0.0,
			"0.017": 0.0,
			"0.018": 0.0,
			"0.019": 0.0,
			"0.02": 0.0,
			"0.021": 0.0,
			"0.022": 0.0,
			"0.023": 0.0,
			"0.024": 0.0,
			"0.025": 0.0
		}
	}
}
