{
	 "smiles": "COC1=C(O)C=C(CCC(O)=O)C=C1", 
	 "Tm": 423.15, 
	 "num_atms": 26, 
	 "gaussian": { 
		 "optdone": 1, 
		 "sigma_profile": "yes", 
		 "theory": "DFT", 
		 "functional": "B3LYP", 
		 "basiset": "6-31G**", 
		 "properties": { 
			 "R2extent": 4497.4147, 
			 "electric_dipole_moment_norm": 3.24269529558, 
			 "electric_quadrupole_moment_norm": 39.9887189438, 
			 "total_energy": -689.182194551, 
			 "HOMO_LUMO_gap": 0.21127, 
			 "cosmo_polarized_energy": -18.58, 
			 "cosmo_cavitation_energy": 29.74, 
			 "cosmo_dispersion_energy": -21.21, 
			 "cosmo_repulsion_energy": 1.69, 
			 "cosmo_total_nonelectrostatic_energy": 10.23, 
			 "SMD_solvation_energy": 7.1 
		},
		"coords": [
			{
				"x": -4.1230440756,
				"y": 0.6908729662,
				"z": -0.6561310873,
				"element": "C" 
			},
			{
				"x": -2.8860489997,
				"y": 0.3490689872,
				"z": -1.2917827628,
				"element": "O" 
			},
			{
				"x": -1.8759157078,
				"y": -0.0892206435,
				"z": -0.4784627045,
				"element": "C" 
			},
			{
				"x": -1.9708445943,
				"y": -1.2753313381,
				"z": 0.2769757469,
				"element": "C" 
			},
			{
				"x": -3.1386485369,
				"y": -1.9804264273,
				"z": 0.2159075035,
				"element": "O" 
			},
			{
				"x": -0.8797755605,
				"y": -1.6954513442,
				"z": 1.0443523289,
				"element": "C" 
			},
			{
				"x": 0.3262804913,
				"y": -0.9771558062,
				"z": 1.0651836674,
				"element": "C" 
			},
			{
				"x": 1.5051002701,
				"y": -1.4547057239,
				"z": 1.8942443789,
				"element": "C" 
			},
			{
				"x": 1.828223277,
				"y": -0.5945426496,
				"z": 3.1429559785,
				"element": "C" 
			},
			{
				"x": 0.8426310522,
				"y": -0.716459735,
				"z": 4.3022933605,
				"element": "C" 
			},
			{
				"x": -0.4674170921,
				"y": -0.5193917181,
				"z": 4.0063053987,
				"element": "O" 
			},
			{
				"x": 1.1780262813,
				"y": -0.9564687033,
				"z": 5.4361936282,
				"element": "O" 
			},
			{
				"x": 0.4129990874,
				"y": 0.1918788308,
				"z": 0.2969623313,
				"element": "C" 
			},
			{
				"x": -0.677411155,
				"y": 0.6257396548,
				"z": -0.4560956078,
				"element": "C" 
			},
			{
				"x": -4.7670628902,
				"y": 1.0807158375,
				"z": -1.4465430752,
				"element": "H" 
			},
			{
				"x": -3.9691179174,
				"y": 1.4705732328,
				"z": 0.100795317,
				"element": "H" 
			},
			{
				"x": -4.5944809522,
				"y": -0.1802993158,
				"z": -0.1941264624,
				"element": "H" 
			},
			{
				"x": -3.0664782147,
				"y": -2.7631354146,
				"z": 0.7778474425,
				"element": "H" 
			},
			{
				"x": -0.9664687201,
				"y": -2.6150270441,
				"z": 1.6213701958,
				"element": "H" 
			},
			{
				"x": 1.3464690321,
				"y": -2.4935904391,
				"z": 2.2037333766,
				"element": "H" 
			},
			{
				"x": 2.4008175212,
				"y": -1.4565665348,
				"z": 1.2627176524,
				"element": "H" 
			},
			{
				"x": 1.8849289308,
				"y": 0.4623539968,
				"z": 2.8509113948,
				"element": "H" 
			},
			{
				"x": 2.8037288788,
				"y": -0.8738954084,
				"z": 3.5457926924,
				"element": "H" 
			},
			{
				"x": -0.5853540545,
				"y": -0.3746591555,
				"z": 3.0528454271,
				"element": "H" 
			},
			{
				"x": 1.3365483066,
				"y": 0.7642945681,
				"z": 0.2828674674,
				"element": "H" 
			},
			{
				"x": -0.6202846577,
				"y": 1.5276293272,
				"z": -1.0571135885,
				"element": "H" 
			}
		],
		 "valence_orbital": [ 
			{
				"type": "occ",
				"energy": -0.30614,
				"method": "rhf"
			},
			{
				"type": "occ",
				"energy": -0.28881,
				"method": "rhf"
			},
			{
				"type": "occ",
				"energy": -0.26151,
				"method": "rhf"
			},
			{
				"type": "occ",
				"energy": -0.25601,
				"method": "rhf"
			},
			{
				"type": "occ",
				"energy": -0.22842,
				"method": "rhf"
			},
			{
				"type": "unocc",
				"energy": -0.01715,
				"method": "rhf"
			},
			{
				"type": "unocc",
				"energy": -0.01053,
				"method": "rhf"
			},
			{
				"type": "unocc",
				"energy": 0.01627,
				"method": "rhf"
			},
			{
				"type": "unocc",
				"energy": 0.05312,
				"method": "rhf"
			},
			{
				"type": "unocc",
				"energy": 0.07907,
				"method": "rhf"
			}
		],
		"cosmo_sigma_profile": { 
			"-0.025": 0.0,
			"-0.024": 0.0,
			"-0.023": 0.0,
			"-0.022": 0.0,
			"-0.021": 0.0,
			"-0.02": 0.0,
			"-0.019": 0.0554519427236,
			"-0.018": 0.836319819675,
			"-0.017": 1.05498582579,
			"-0.016": 1.10490822835,
			"-0.015": 1.07523327497,
			"-0.014": 0.954064922274,
			"-0.013": 0.722627683937,
			"-0.012": 0.787588423056,
			"-0.011": 1.01401909541,
			"-0.01": 2.31293968273,
			"-0.009": 2.45596191266,
			"-0.008": 2.94249907168,
			"-0.007": 4.62507036552,
			"-0.006": 13.3505382844,
			"-0.005": 20.2642503503,
			"-0.004": 21.0603638755,
			"-0.003": 21.8648234703,
			"-0.002": 19.0456343354,
			"-0.001": 13.556841464,
			"0.0": 9.03195676746,
			"0.001": 10.0318940881,
			"0.002": 9.52560932826,
			"0.003": 12.2261596285,
			"0.004": 10.8242860254,
			"0.005": 8.61612578407,
			"0.006": 4.9439561115,
			"0.007": 4.32959097863,
			"0.008": 5.36884837127,
			"0.009": 6.0392811978,
			"0.01": 5.75224964821,
			"0.011": 8.31750692656,
			"0.012": 6.76365860854,
			"0.013": 3.61004949284,
			"0.014": 0.439025647154,
			"0.015": 0.0,
			"0.016": 0.0,
			"0.017": 0.0,
			"0.018": 0.0,
			"0.019": 0.0,
			"0.02": 0.0,
			"0.021": 0.0,
			"0.022": 0.0,
			"0.023": 0.0,
			"0.024": 0.0,
			"0.025": 0.0
		}
	}
}
