{
	 "smiles": "CC(C)C1CCC(C)CC1OC(=O)C1=CC=C(C=C1)C(=O)OC1CC(C)CCC1C(C)C", 
	 "Tm": 348.15, 
	 "num_atms": 74, 
	 "gaussian": { 
		 "optdone": 1, 
		 "sigma_profile": "yes", 
		 "theory": "DFT", 
		 "functional": "B3LYP", 
		 "basiset": "6-31G**", 
		 "properties": { 
			 "R2extent": 26867.6935, 
			 "electric_dipole_moment_norm": 0.269130488797, 
			 "electric_quadrupole_moment_norm": 23.3827534555, 
			 "total_energy": -1393.27007409, 
			 "HOMO_LUMO_gap": 0.1952, 
			 "cosmo_polarized_energy": -10.28, 
			 "cosmo_cavitation_energy": 69.56, 
			 "cosmo_dispersion_energy": -45.45, 
			 "cosmo_repulsion_energy": 3.41, 
			 "cosmo_total_nonelectrostatic_energy": 27.52, 
			 "SMD_solvation_energy": 11.97 
		},
		"coords": [
			{
				"x": 0.2121902629,
				"y": 6.3818882432,
				"z": 0.1077756613,
				"element": "C" 
			},
			{
				"x": 1.5959662975,
				"y": 6.362440052,
				"z": 0.7772598627,
				"element": "C" 
			},
			{
				"x": 1.5283698205,
				"y": 7.0018542977,
				"z": 2.1748097582,
				"element": "C" 
			},
			{
				"x": 2.2232752654,
				"y": 4.9409247898,
				"z": 0.7562867139,
				"element": "C" 
			},
			{
				"x": 3.7445873148,
				"y": 4.9552097039,
				"z": 1.0207572907,
				"element": "C" 
			},
			{
				"x": 4.2864292432,
				"y": 3.5321714985,
				"z": 1.2102685548,
				"element": "C" 
			},
			{
				"x": 3.6905920636,
				"y": 2.8406556266,
				"z": 2.4697034654,
				"element": "C" 
			},
			{
				"x": 4.6674006005,
				"y": 2.8570696705,
				"z": 3.6533921735,
				"element": "C" 
			},
			{
				"x": 2.3469508618,
				"y": 3.48897796,
				"z": 2.8741804041,
				"element": "C" 
			},
			{
				"x": 1.4977633836,
				"y": 3.9296133543,
				"z": 1.6819946202,
				"element": "C" 
			},
			{
				"x": 1.1756687466,
				"y": 2.7585638091,
				"z": 0.8618499891,
				"element": "O" 
			},
			{
				"x": 0.0872886454,
				"y": 2.0427609742,
				"z": 1.2114756457,
				"element": "C" 
			},
			{
				"x": -0.6339416569,
				"y": 2.3143848065,
				"z": 2.1540069368,
				"element": "O" 
			},
			{
				"x": -0.1411622375,
				"y": 0.8754065748,
				"z": 0.3050279886,
				"element": "C" 
			},
			{
				"x": -1.2486324178,
				"y": 0.05656536,
				"z": 0.5636249986,
				"element": "C" 
			},
			{
				"x": -1.5110521758,
				"y": -1.0444463778,
				"z": -0.2448684718,
				"element": "C" 
			},
			{
				"x": -0.6641785813,
				"y": -1.337942007,
				"z": -1.323604078,
				"element": "C" 
			},
			{
				"x": 0.4434056622,
				"y": -0.5186338854,
				"z": -1.5821884352,
				"element": "C" 
			},
			{
				"x": 0.7052287731,
				"y": 0.5824979417,
				"z": -0.7741385216,
				"element": "C" 
			},
			{
				"x": -0.8889879915,
				"y": -2.5072530988,
				"z": -2.2278599018,
				"element": "C" 
			},
			{
				"x": -0.1669699864,
				"y": -2.7797684527,
				"z": -3.1691428682,
				"element": "O" 
			},
			{
				"x": -1.9824106501,
				"y": -3.2207285196,
				"z": -1.8853935915,
				"element": "O" 
			},
			{
				"x": -2.2960345034,
				"y": -4.3908970026,
				"z": -2.7067736091,
				"element": "C" 
			},
			{
				"x": -1.4515303041,
				"y": -5.5963463067,
				"z": -2.253237525,
				"element": "C" 
			},
			{
				"x": -2.0160145237,
				"y": -6.3602013385,
				"z": -1.0167031918,
				"element": "C" 
			},
			{
				"x": -2.6133773405,
				"y": -7.7256271963,
				"z": -1.3979124945,
				"element": "C" 
			},
			{
				"x": -3.0213633154,
				"y": -5.4795348309,
				"z": -0.2486659931,
				"element": "C" 
			},
			{
				"x": -4.1997870722,
				"y": -4.9887997368,
				"z": -1.1196372597,
				"element": "C" 
			},
			{
				"x": -3.7956767163,
				"y": -4.6875330265,
				"z": -2.5881352484,
				"element": "C" 
			},
			{
				"x": -4.7282681835,
				"y": -3.6920068006,
				"z": -3.3341093854,
				"element": "C" 
			},
			{
				"x": -4.8120934372,
				"y": -2.2775921138,
				"z": -2.7360179309,
				"element": "C" 
			},
			{
				"x": -6.1405844443,
				"y": -4.2839117885,
				"z": -3.4859514823,
				"element": "C" 
			},
			{
				"x": -0.1848485383,
				"y": 7.4017341745,
				"z": 0.0634001802,
				"element": "H" 
			},
			{
				"x": -0.5152393758,
				"y": 5.77474434,
				"z": 0.658949205,
				"element": "H" 
			},
			{
				"x": 0.2592690032,
				"y": 5.9953779005,
				"z": -0.9160560805,
				"element": "H" 
			},
			{
				"x": 2.2612791864,
				"y": 6.9892836569,
				"z": 0.1654657264,
				"element": "H" 
			},
			{
				"x": 0.8395704207,
				"y": 6.4619667924,
				"z": 2.8347609791,
				"element": "H" 
			},
			{
				"x": 1.1635518138,
				"y": 8.0320224901,
				"z": 2.1039795517,
				"element": "H" 
			},
			{
				"x": 2.5064148951,
				"y": 7.0355851588,
				"z": 2.6649657165,
				"element": "H" 
			},
			{
				"x": 2.0847385165,
				"y": 4.5576393448,
				"z": -0.262669439,
				"element": "H" 
			},
			{
				"x": 4.248355441,
				"y": 5.4479860416,
				"z": 0.1809522616,
				"element": "H" 
			},
			{
				"x": 3.9767413875,
				"y": 5.5573379133,
				"z": 1.9086715015,
				"element": "H" 
			},
			{
				"x": 4.0379985056,
				"y": 2.9455495773,
				"z": 0.3171786666,
				"element": "H" 
			},
			{
				"x": 5.3808304971,
				"y": 3.5473598301,
				"z": 1.2743462356,
				"element": "H" 
			},
			{
				"x": 3.4915826919,
				"y": 1.7927341344,
				"z": 2.2158013992,
				"element": "H" 
			},
			{
				"x": 4.9518856513,
				"y": 3.8837243309,
				"z": 3.9156812495,
				"element": "H" 
			},
			{
				"x": 4.2235053281,
				"y": 2.3997283758,
				"z": 4.5449153931,
				"element": "H" 
			},
			{
				"x": 5.5852316597,
				"y": 2.3080051008,
				"z": 3.4169299351,
				"element": "H" 
			},
			{
				"x": 2.5371988364,
				"y": 4.3848526066,
				"z": 3.4799514978,
				"element": "H" 
			},
			{
				"x": 1.764890825,
				"y": 2.8104390543,
				"z": 3.5056927762,
				"element": "H" 
			},
			{
				"x": 0.5458648109,
				"y": 4.3239992348,
				"z": 2.0419770477,
				"element": "H" 
			},
			{
				"x": -1.8895611812,
				"y": 0.3026549898,
				"z": 1.4031613468,
				"element": "H" 
			},
			{
				"x": -2.367883861,
				"y": -1.6780032716,
				"z": -0.0487208689,
				"element": "H" 
			},
			{
				"x": 1.0844661058,
				"y": -0.764738863,
				"z": -2.4216324262,
				"element": "H" 
			},
			{
				"x": 1.5600610786,
				"y": 1.2185137378,
				"z": -0.9713266585,
				"element": "H" 
			},
			{
				"x": -2.0301142726,
				"y": -4.1320554852,
				"z": -3.7350737181,
				"element": "H" 
			},
			{
				"x": -0.4331686791,
				"y": -5.2443576924,
				"z": -2.0671453534,
				"element": "H" 
			},
			{
				"x": -1.3779174498,
				"y": -6.2803704714,
				"z": -3.1075936327,
				"element": "H" 
			},
			{
				"x": -1.1769493035,
				"y": -6.5617291422,
				"z": -0.3389852453,
				"element": "H" 
			},
			{
				"x": -2.9651877821,
				"y": -8.2614871141,
				"z": -0.5091389634,
				"element": "H" 
			},
			{
				"x": -3.4634340457,
				"y": -7.6285450633,
				"z": -2.082263413,
				"element": "H" 
			},
			{
				"x": -1.8659992984,
				"y": -8.3559144497,
				"z": -1.8924005001,
				"element": "H" 
			},
			{
				"x": -3.4069932376,
				"y": -6.0271918971,
				"z": 0.619703933,
				"element": "H" 
			},
			{
				"x": -2.4838412366,
				"y": -4.6107729734,
				"z": 0.1445557089,
				"element": "H" 
			},
			{
				"x": -4.9998655358,
				"y": -5.7369458799,
				"z": -1.123322051,
				"element": "H" 
			},
			{
				"x": -4.6264828744,
				"y": -4.0946707385,
				"z": -0.6538131284,
				"element": "H" 
			},
			{
				"x": -3.8944318432,
				"y": -5.629596487,
				"z": -3.1473660244,
				"element": "H" 
			},
			{
				"x": -4.3091198784,
				"y": -3.5911146694,
				"z": -4.3466487017,
				"element": "H" 
			},
			{
				"x": -5.4609649956,
				"y": -1.649942324,
				"z": -3.3567534529,
				"element": "H" 
			},
			{
				"x": -3.8353895157,
				"y": -1.7951936316,
				"z": -2.6741910366,
				"element": "H" 
			},
			{
				"x": -5.2436619474,
				"y": -2.2878114342,
				"z": -1.729002477,
				"element": "H" 
			},
			{
				"x": -6.7669979731,
				"y": -3.6384220859,
				"z": -4.1106541926,
				"element": "H" 
			},
			{
				"x": -6.6396325765,
				"y": -4.3825691034,
				"z": -2.5153676815,
				"element": "H" 
			},
			{
				"x": -6.1151026561,
				"y": -5.2759681887,
				"z": -3.9510893417,
				"element": "H" 
			}
		],
		 "valence_orbital": [ 
			{
				"type": "occ",
				"energy": -0.28161,
				"method": "rhf"
			},
			{
				"type": "occ",
				"energy": -0.27264,
				"method": "rhf"
			},
			{
				"type": "occ",
				"energy": -0.2711,
				"method": "rhf"
			},
			{
				"type": "occ",
				"energy": -0.26387,
				"method": "rhf"
			},
			{
				"type": "occ",
				"energy": -0.26208,
				"method": "rhf"
			},
			{
				"type": "unocc",
				"energy": -0.06688,
				"method": "rhf"
			},
			{
				"type": "unocc",
				"energy": -0.01185,
				"method": "rhf"
			},
			{
				"type": "unocc",
				"energy": 0.01427,
				"method": "rhf"
			},
			{
				"type": "unocc",
				"energy": 0.06349,
				"method": "rhf"
			},
			{
				"type": "unocc",
				"energy": 0.07076,
				"method": "rhf"
			}
		],
		"cosmo_sigma_profile": { 
			"-0.025": 0.0,
			"-0.024": 0.0,
			"-0.023": 0.0,
			"-0.022": 0.0,
			"-0.021": 0.0,
			"-0.02": 0.0,
			"-0.019": 0.0,
			"-0.018": 0.0,
			"-0.017": 0.0,
			"-0.016": 0.0,
			"-0.015": 0.0,
			"-0.014": 0.0,
			"-0.013": 0.0,
			"-0.012": 0.0,
			"-0.011": 0.0,
			"-0.01": 0.0,
			"-0.009": 0.0,
			"-0.008": 0.0,
			"-0.007": 0.550504959854,
			"-0.006": 4.32095676355,
			"-0.005": 7.14452744584,
			"-0.004": 14.8357665671,
			"-0.003": 46.454947105,
			"-0.002": 95.0690752523,
			"-0.001": 91.2970044524,
			"0.0": 91.6297943357,
			"0.001": 83.5051572141,
			"0.002": 51.2517726098,
			"0.003": 15.161204016,
			"0.004": 5.54804524914,
			"0.005": 4.16014503327,
			"0.006": 3.10855411293,
			"0.007": 2.07511082005,
			"0.008": 3.0477559577,
			"0.009": 3.17592981698,
			"0.01": 3.87153737158,
			"0.011": 4.89955227742,
			"0.012": 7.54299002944,
			"0.013": 0.112105690972,
			"0.014": 0.0,
			"0.015": 0.0,
			"0.016": 0.0,
			"0.017": 0.0,
			"0.018": 0.0,
			"0.019": 0.0,
			"0.02": 0.0,
			"0.021": 0.0,
			"0.022": 0.0,
			"0.023": 0.0,
			"0.024": 0.0,
			"0.025": 0.0
		}
	}
}
