{
	 "smiles": "BrCC(=O)C1=CC=C(OC2=CC=CC=C2)C=C1", 
	 "Tm": 322.65, 
	 "num_atms": 28, 
	 "gaussian": { 
		 "optdone": 1, 
		 "sigma_profile": "yes", 
		 "theory": "DFT", 
		 "functional": "B3LYP", 
		 "basiset": "6-31G**", 
		 "properties": { 
			 "R2extent": 10780.5867, 
			 "electric_dipole_moment_norm": 6.01315908571, 
			 "electric_quadrupole_moment_norm": 22.9970985283, 
			 "total_energy": -3261.95972234, 
			 "HOMO_LUMO_gap": 0.1792, 
			 "cosmo_polarized_energy": -13.74, 
			 "cosmo_cavitation_energy": 35.39, 
			 "cosmo_dispersion_energy": -25.88, 
			 "cosmo_repulsion_energy": 2.01, 
			 "cosmo_total_nonelectrostatic_energy": 11.52, 
			 "SMD_solvation_energy": 5.49 
		},
		"coords": [
			{
				"x": 6.5148818815,
				"y": -0.5317845415,
				"z": -0.5354452101,
				"element": "Br" 
			},
			{
				"x": 4.5979767839,
				"y": -0.1876167235,
				"z": -0.6601617568,
				"element": "C" 
			},
			{
				"x": 4.065614271,
				"y": 0.7073574481,
				"z": 0.4650007322,
				"element": "C" 
			},
			{
				"x": 4.7914866529,
				"y": 1.1467338815,
				"z": 1.3373290699,
				"element": "O" 
			},
			{
				"x": 2.6046631337,
				"y": 1.0130828505,
				"z": 0.4348811039,
				"element": "C" 
			},
			{
				"x": 1.7262267691,
				"y": 0.5333323249,
				"z": -0.5489274806,
				"element": "C" 
			},
			{
				"x": 0.3702974115,
				"y": 0.8509788836,
				"z": -0.5240681128,
				"element": "C" 
			},
			{
				"x": -0.1237147954,
				"y": 1.6627676073,
				"z": 0.5037526159,
				"element": "C" 
			},
			{
				"x": -1.4303733839,
				"y": 2.0589590094,
				"z": 0.6034308525,
				"element": "O" 
			},
			{
				"x": -2.4168975177,
				"y": 1.441791236,
				"z": -0.1574227621,
				"element": "C" 
			},
			{
				"x": -3.090610679,
				"y": 2.2097162459,
				"z": -1.1055688632,
				"element": "C" 
			},
			{
				"x": -4.144990067,
				"y": 1.6382805553,
				"z": -1.8205698945,
				"element": "C" 
			},
			{
				"x": -4.5147839579,
				"y": 0.3116406765,
				"z": -1.5912041436,
				"element": "C" 
			},
			{
				"x": -3.8308829061,
				"y": -0.4454245517,
				"z": -0.6364401073,
				"element": "C" 
			},
			{
				"x": -2.780146714,
				"y": 0.1163379994,
				"z": 0.0895168166,
				"element": "C" 
			},
			{
				"x": 0.7393290201,
				"y": 2.1554843584,
				"z": 1.4943105707,
				"element": "C" 
			},
			{
				"x": 2.0851590851,
				"y": 1.8318902907,
				"z": 1.4552361057,
				"element": "C" 
			},
			{
				"x": 4.1017707991,
				"y": -1.1597200138,
				"z": -0.6456147534,
				"element": "H" 
			},
			{
				"x": 4.4236078995,
				"y": 0.2745278186,
				"z": -1.6335773418,
				"element": "H" 
			},
			{
				"x": 2.0887143422,
				"y": -0.0951220324,
				"z": -1.3562584424,
				"element": "H" 
			},
			{
				"x": -0.2947422149,
				"y": 0.4779103299,
				"z": -1.2937019746,
				"element": "H" 
			},
			{
				"x": -2.7884168347,
				"y": 3.2396029249,
				"z": -1.2641779955,
				"element": "H" 
			},
			{
				"x": -4.6757813092,
				"y": 2.2327840019,
				"z": -2.5582166248,
				"element": "H" 
			},
			{
				"x": -5.3346770446,
				"y": -0.1295052242,
				"z": -2.1496183146,
				"element": "H" 
			},
			{
				"x": -4.1202969079,
				"y": -1.4750994626,
				"z": -0.4481468588,
				"element": "H" 
			},
			{
				"x": -2.2493355263,
				"y": -0.455279851,
				"z": 0.8439445983,
				"element": "H" 
			},
			{
				"x": 0.3288902586,
				"y": 2.7850703108,
				"z": 2.2766730554,
				"element": "H" 
			},
			{
				"x": 2.7681315505,
				"y": 2.2007036472,
				"z": 2.2128451159,
				"element": "H" 
			}
		],
		 "valence_orbital": [ 
			{
				"type": "occ",
				"energy": -0.27024,
				"method": "rhf"
			},
			{
				"type": "occ",
				"energy": -0.26724,
				"method": "rhf"
			},
			{
				"type": "occ",
				"energy": -0.26142,
				"method": "rhf"
			},
			{
				"type": "occ",
				"energy": -0.25915,
				"method": "rhf"
			},
			{
				"type": "occ",
				"energy": -0.23788,
				"method": "rhf"
			},
			{
				"type": "unocc",
				"energy": -0.05868,
				"method": "rhf"
			},
			{
				"type": "unocc",
				"energy": -0.02495,
				"method": "rhf"
			},
			{
				"type": "unocc",
				"energy": -0.01397,
				"method": "rhf"
			},
			{
				"type": "unocc",
				"energy": -0.01269,
				"method": "rhf"
			},
			{
				"type": "unocc",
				"energy": 0.00425,
				"method": "rhf"
			}
		],
		"cosmo_sigma_profile": { 
			"-0.025": 0.0,
			"-0.024": 0.0,
			"-0.023": 0.0,
			"-0.022": 0.0,
			"-0.021": 0.0,
			"-0.02": 0.0,
			"-0.019": 0.0,
			"-0.018": 0.0,
			"-0.017": 0.0,
			"-0.016": 0.0,
			"-0.015": 0.0,
			"-0.014": 0.0,
			"-0.013": 0.0,
			"-0.012": 0.0,
			"-0.011": 0.0,
			"-0.01": 0.409753270073,
			"-0.009": 7.57300165899,
			"-0.008": 6.80389130336,
			"-0.007": 8.44011705683,
			"-0.006": 18.0486071252,
			"-0.005": 19.9709792445,
			"-0.004": 18.5634104782,
			"-0.003": 16.6810645212,
			"-0.002": 17.4455251179,
			"-0.001": 15.3846561069,
			"0.0": 19.0866588572,
			"0.001": 21.200211984,
			"0.002": 24.8108904206,
			"0.003": 28.4775159957,
			"0.004": 18.0512759961,
			"0.005": 15.3262940413,
			"0.006": 9.96710533917,
			"0.007": 4.01832274612,
			"0.008": 3.43233585374,
			"0.009": 2.65996888449,
			"0.01": 2.70738873998,
			"0.011": 4.04190148927,
			"0.012": 2.87713075809,
			"0.013": 1.29366360918,
			"0.014": 0.0251592869827,
			"0.015": 0.0,
			"0.016": 0.0,
			"0.017": 0.0,
			"0.018": 0.0,
			"0.019": 0.0,
			"0.02": 0.0,
			"0.021": 0.0,
			"0.022": 0.0,
			"0.023": 0.0,
			"0.024": 0.0,
			"0.025": 0.0
		}
	}
}
