{
	 "smiles": "OC1=CC=C(C=C1)N1C=CC=N1", 
	 "Tm": 381.15, 
	 "num_atms": 20, 
	 "gaussian": { 
		 "optdone": 1, 
		 "sigma_profile": "yes", 
		 "theory": "DFT", 
		 "functional": "B3LYP", 
		 "basiset": "6-31G**", 
		 "properties": { 
			 "R2extent": 2807.1855, 
			 "electric_dipole_moment_norm": 0.811845015998, 
			 "electric_quadrupole_moment_norm": 14.9182701598, 
			 "total_energy": -532.474887147, 
			 "HOMO_LUMO_gap": 0.19045, 
			 "cosmo_polarized_energy": -11.9, 
			 "cosmo_cavitation_energy": 24.28, 
			 "cosmo_dispersion_energy": -18.33, 
			 "cosmo_repulsion_energy": 1.42, 
			 "cosmo_total_nonelectrostatic_energy": 7.37, 
			 "SMD_solvation_energy": 4.42 
		},
		"coords": [
			{
				"x": 0.5520073915,
				"y": 2.9670009463,
				"z": 1.109441905,
				"element": "O" 
			},
			{
				"x": 0.396256319,
				"y": 1.8037657345,
				"z": 0.4092103397,
				"element": "C" 
			},
			{
				"x": -0.1834265298,
				"y": 0.6552961609,
				"z": 0.9578559604,
				"element": "C" 
			},
			{
				"x": -0.3159105204,
				"y": -0.5019024718,
				"z": 0.1958150264,
				"element": "C" 
			},
			{
				"x": 0.1312046455,
				"y": -0.525296843,
				"z": -1.1291837362,
				"element": "C" 
			},
			{
				"x": 0.7116882813,
				"y": 0.6247720604,
				"z": -1.6784874154,
				"element": "C" 
			},
			{
				"x": 0.8432931358,
				"y": 1.7803947459,
				"z": -0.9154562928,
				"element": "C" 
			},
			{
				"x": -0.0116118789,
				"y": -1.7159269048,
				"z": -1.8944448654,
				"element": "N" 
			},
			{
				"x": 0.3553200019,
				"y": -1.9464084781,
				"z": -3.1913656549,
				"element": "C" 
			},
			{
				"x": 0.0118914935,
				"y": -3.2490233489,
				"z": -3.4837351705,
				"element": "C" 
			},
			{
				"x": -0.5644169742,
				"y": -3.7363674162,
				"z": -2.2891261978,
				"element": "C" 
			},
			{
				"x": -0.5787047602,
				"y": -2.8139294698,
				"z": -1.3323685702,
				"element": "N" 
			},
			{
				"x": 0.204375085,
				"y": 2.8469981831,
				"z": 2.0025285415,
				"element": "H" 
			},
			{
				"x": -0.5351282901,
				"y": 0.6609912512,
				"z": 1.9874823079,
				"element": "H" 
			},
			{
				"x": -0.7633452461,
				"y": -1.3949651309,
				"z": 0.6126904089,
				"element": "H" 
			},
			{
				"x": 1.0668407988,
				"y": 0.6345866575,
				"z": -2.7027311243,
				"element": "H" 
			},
			{
				"x": 1.2920641781,
				"y": 2.674046301,
				"z": -1.3355866328,
				"element": "H" 
			},
			{
				"x": 0.8224434664,
				"y": -1.189238331,
				"z": -3.8002654087,
				"element": "H" 
			},
			{
				"x": 0.1567230903,
				"y": -3.7673149524,
				"z": -4.4196603301,
				"element": "H" 
			},
			{
				"x": -0.9688636876,
				"y": -4.7190786943,
				"z": -2.0864130908,
				"element": "H" 
			}
		],
		 "valence_orbital": [ 
			{
				"type": "occ",
				"energy": -0.28539,
				"method": "rhf"
			},
			{
				"type": "occ",
				"energy": -0.27418,
				"method": "rhf"
			},
			{
				"type": "occ",
				"energy": -0.26016,
				"method": "rhf"
			},
			{
				"type": "occ",
				"energy": -0.24606,
				"method": "rhf"
			},
			{
				"type": "occ",
				"energy": -0.20615,
				"method": "rhf"
			},
			{
				"type": "unocc",
				"energy": -0.0157,
				"method": "rhf"
			},
			{
				"type": "unocc",
				"energy": -0.00918,
				"method": "rhf"
			},
			{
				"type": "unocc",
				"energy": 0.05144,
				"method": "rhf"
			},
			{
				"type": "unocc",
				"energy": 0.06731,
				"method": "rhf"
			},
			{
				"type": "unocc",
				"energy": 0.07446,
				"method": "rhf"
			}
		],
		"cosmo_sigma_profile": { 
			"-0.025": 0.0,
			"-0.024": 0.0,
			"-0.023": 0.0,
			"-0.022": 0.0,
			"-0.021": 0.0,
			"-0.02": 0.0,
			"-0.019": 0.0,
			"-0.018": 0.604416233438,
			"-0.017": 1.08930761512,
			"-0.016": 1.00504000195,
			"-0.015": 1.43578073115,
			"-0.014": 0.601810356231,
			"-0.013": 0.785633107681,
			"-0.012": 0.88361164639,
			"-0.011": 1.38181433728,
			"-0.01": 3.17195353029,
			"-0.009": 3.19856171595,
			"-0.008": 2.9826247099,
			"-0.007": 7.58284820274,
			"-0.006": 9.65862619476,
			"-0.005": 10.654226206,
			"-0.004": 10.5372589568,
			"-0.003": 8.8885247302,
			"-0.002": 10.0171475724,
			"-0.001": 9.40283620242,
			"0.0": 8.90193504886,
			"0.001": 10.6454698971,
			"0.002": 14.6792597391,
			"0.003": 17.6788386065,
			"0.004": 21.1519078789,
			"0.005": 15.647731451,
			"0.006": 4.08953554158,
			"0.007": 3.20999684076,
			"0.008": 3.16416334855,
			"0.009": 3.06981439475,
			"0.01": 3.78381792353,
			"0.011": 2.94384667551,
			"0.012": 2.12534111432,
			"0.013": 0.300936730859,
			"0.014": 0.0,
			"0.015": 0.0,
			"0.016": 0.0,
			"0.017": 0.0,
			"0.018": 0.0,
			"0.019": 0.0,
			"0.02": 0.0,
			"0.021": 0.0,
			"0.022": 0.0,
			"0.023": 0.0,
			"0.024": 0.0,
			"0.025": 0.0
		}
	}
}
