{
	 "smiles": "OC1CCN(CC1)C1=CC=C(O1)C=O", 
	 "Tm": 377.15, 
	 "num_atms": 27, 
	 "gaussian": { 
		 "optdone": 1, 
		 "sigma_profile": "yes", 
		 "theory": "DFT", 
		 "functional": "B3LYP", 
		 "basiset": "6-31G**", 
		 "properties": { 
			 "R2extent": 4601.8924, 
			 "electric_dipole_moment_norm": 5.48317065301, 
			 "electric_quadrupole_moment_norm": 40.0831340227, 
			 "total_energy": -669.278250082, 
			 "HOMO_LUMO_gap": 0.15447, 
			 "cosmo_polarized_energy": -17.46, 
			 "cosmo_cavitation_energy": 29.92, 
			 "cosmo_dispersion_energy": -21.77, 
			 "cosmo_repulsion_energy": 1.72, 
			 "cosmo_total_nonelectrostatic_energy": 9.87, 
			 "SMD_solvation_energy": 5.36 
		},
		"coords": [
			{
				"x": -3.7089549373,
				"y": 0.2292245161,
				"z": 0.6148956241,
				"element": "O" 
			},
			{
				"x": -2.8242092462,
				"y": -0.0742137926,
				"z": -0.458483208,
				"element": "C" 
			},
			{
				"x": -1.4812201789,
				"y": 0.6749207568,
				"z": -0.3084267849,
				"element": "C" 
			},
			{
				"x": -0.3294078511,
				"y": -0.0416404761,
				"z": -1.0183981485,
				"element": "C" 
			},
			{
				"x": -0.1557454618,
				"y": -1.387618786,
				"z": -0.4552030458,
				"element": "N" 
			},
			{
				"x": -1.3257741894,
				"y": -2.0867550847,
				"z": 0.0774990359,
				"element": "C" 
			},
			{
				"x": -2.589665366,
				"y": -1.5935615861,
				"z": -0.6295693271,
				"element": "C" 
			},
			{
				"x": 1.077496076,
				"y": -1.9083183975,
				"z": -0.2229196375,
				"element": "C" 
			},
			{
				"x": 1.4932622067,
				"y": -3.042338137,
				"z": 0.4677653773,
				"element": "C" 
			},
			{
				"x": 2.9005676472,
				"y": -3.0724422025,
				"z": 0.3400488855,
				"element": "C" 
			},
			{
				"x": 3.2811329417,
				"y": -1.979283507,
				"z": -0.4011468178,
				"element": "C" 
			},
			{
				"x": 2.1353412186,
				"y": -1.2577543285,
				"z": -0.7516801505,
				"element": "O" 
			},
			{
				"x": 4.5526068458,
				"y": -1.4725990216,
				"z": -0.84712339,
				"element": "C" 
			},
			{
				"x": 5.6286297709,
				"y": -2.0106923821,
				"z": -0.6145551971,
				"element": "O" 
			},
			{
				"x": -3.2690522826,
				"y": -0.0058862913,
				"z": 1.4433694004,
				"element": "H" 
			},
			{
				"x": -3.3501191647,
				"y": 0.2909390862,
				"z": -1.3467492688,
				"element": "H" 
			},
			{
				"x": -1.5714590705,
				"y": 1.7021552536,
				"z": -0.6741216644,
				"element": "H" 
			},
			{
				"x": -1.2362818963,
				"y": 0.7436446504,
				"z": 0.7602495934,
				"element": "H" 
			},
			{
				"x": 0.6037025585,
				"y": 0.5090394399,
				"z": -0.8884514595,
				"element": "H" 
			},
			{
				"x": -0.5187599785,
				"y": -0.0977811226,
				"z": -2.1005082006,
				"element": "H" 
			},
			{
				"x": -1.4066839679,
				"y": -1.9433542659,
				"z": 1.1685306034,
				"element": "H" 
			},
			{
				"x": -1.197705841,
				"y": -3.1617711448,
				"z": -0.0892770478,
				"element": "H" 
			},
			{
				"x": -2.502941328,
				"y": -1.8342500732,
				"z": -1.6954935599,
				"element": "H" 
			},
			{
				"x": -3.4668858296,
				"y": -2.1263040556,
				"z": -0.2506101905,
				"element": "H" 
			},
			{
				"x": 0.8660203385,
				"y": -3.7356863245,
				"z": 1.0056229961,
				"element": "H" 
			},
			{
				"x": 3.5831507591,
				"y": -3.8043239077,
				"z": 0.7478543266,
				"element": "H" 
			},
			{
				"x": 4.4826562268,
				"y": -0.5307488157,
				"z": -1.4347187439,
				"element": "H" 
			}
		],
		 "valence_orbital": [ 
			{
				"type": "occ",
				"energy": -0.29866,
				"method": "rhf"
			},
			{
				"type": "occ",
				"energy": -0.28281,
				"method": "rhf"
			},
			{
				"type": "occ",
				"energy": -0.27905,
				"method": "rhf"
			},
			{
				"type": "occ",
				"energy": -0.23439,
				"method": "rhf"
			},
			{
				"type": "occ",
				"energy": -0.19267,
				"method": "rhf"
			},
			{
				"type": "unocc",
				"energy": -0.0382,
				"method": "rhf"
			},
			{
				"type": "unocc",
				"energy": 0.04527,
				"method": "rhf"
			},
			{
				"type": "unocc",
				"energy": 0.05692,
				"method": "rhf"
			},
			{
				"type": "unocc",
				"energy": 0.07721,
				"method": "rhf"
			},
			{
				"type": "unocc",
				"energy": 0.09208,
				"method": "rhf"
			}
		],
		"cosmo_sigma_profile": { 
			"-0.025": 0.0,
			"-0.024": 0.0,
			"-0.023": 0.0,
			"-0.022": 0.0,
			"-0.021": 0.0,
			"-0.02": 0.0,
			"-0.019": 0.0,
			"-0.018": 0.0,
			"-0.017": 0.0,
			"-0.016": 0.0,
			"-0.015": 0.175498533161,
			"-0.014": 0.94688376731,
			"-0.013": 0.952205997612,
			"-0.012": 1.57462043029,
			"-0.011": 1.65648793415,
			"-0.01": 1.5276433199,
			"-0.009": 1.13780344913,
			"-0.008": 1.86006374048,
			"-0.007": 5.00501984421,
			"-0.006": 6.61856722486,
			"-0.005": 17.2917205275,
			"-0.004": 31.2861775305,
			"-0.003": 29.3486448689,
			"-0.002": 18.8271506329,
			"-0.001": 15.4742924356,
			"0.0": 12.0987933503,
			"0.001": 13.6213421393,
			"0.002": 12.5537658982,
			"0.003": 11.2583635486,
			"0.004": 9.1035404131,
			"0.005": 6.85726793178,
			"0.006": 4.12336930648,
			"0.007": 2.55369658737,
			"0.008": 2.47475228458,
			"0.009": 3.27749744843,
			"0.01": 2.4621173726,
			"0.011": 2.29136825632,
			"0.012": 4.83736856993,
			"0.013": 7.02756488153,
			"0.014": 5.16206715896,
			"0.015": 1.73158382308,
			"0.016": 0.0,
			"0.017": 0.0,
			"0.018": 0.0,
			"0.019": 0.0,
			"0.02": 0.0,
			"0.021": 0.0,
			"0.022": 0.0,
			"0.023": 0.0,
			"0.024": 0.0,
			"0.025": 0.0
		}
	}
}
