{
	 "smiles": "NS(=O)(=O)C1=CC(=CO1)C(O)=O", 
	 "Tm": 450.15, 
	 "num_atms": 17, 
	 "gaussian": { 
		 "optdone": 1, 
		 "sigma_profile": "yes", 
		 "theory": "DFT", 
		 "functional": "B3LYP", 
		 "basiset": "6-31G**", 
		 "properties": { 
			 "R2extent": 3848.5867, 
			 "electric_dipole_moment_norm": 5.98050767745, 
			 "electric_quadrupole_moment_norm": 16.6555470117, 
			 "total_energy": -1022.50921472, 
			 "HOMO_LUMO_gap": 0.21179, 
			 "cosmo_polarized_energy": -22.76, 
			 "cosmo_cavitation_energy": 24.75, 
			 "cosmo_dispersion_energy": -18.6, 
			 "cosmo_repulsion_energy": 1.45, 
			 "cosmo_total_nonelectrostatic_energy": 7.61, 
			 "SMD_solvation_energy": 6.23 
		},
		"coords": [
			{
				"x": -2.4575856601,
				"y": 1.2757132821,
				"z": 0.1068196035,
				"element": "N" 
			},
			{
				"x": -0.8684251924,
				"y": 1.3807498228,
				"z": -0.3926221485,
				"element": "S" 
			},
			{
				"x": -0.6950605084,
				"y": 2.736191155,
				"z": -0.8979085144,
				"element": "O" 
			},
			{
				"x": -0.5885340588,
				"y": 0.182539851,
				"z": -1.1741666007,
				"element": "O" 
			},
			{
				"x": 0.127098495,
				"y": 1.209580476,
				"z": 1.0680550412,
				"element": "C" 
			},
			{
				"x": 1.0421139768,
				"y": 0.27122135,
				"z": 1.4298009025,
				"element": "C" 
			},
			{
				"x": 1.5402608269,
				"y": 0.6968983439,
				"z": 2.7059961186,
				"element": "C" 
			},
			{
				"x": 0.8827306775,
				"y": 1.8591699904,
				"z": 3.0113638587,
				"element": "C" 
			},
			{
				"x": 0.0180641655,
				"y": 2.1866084496,
				"z": 2.0246643267,
				"element": "O" 
			},
			{
				"x": 2.5577279503,
				"y": -0.0022565685,
				"z": 3.5062708053,
				"element": "C" 
			},
			{
				"x": 2.8295670223,
				"y": 0.6465810001,
				"z": 4.6658205875,
				"element": "O" 
			},
			{
				"x": 3.0973916241,
				"y": -1.0385344783,
				"z": 3.181774884,
				"element": "O" 
			},
			{
				"x": -2.7028334221,
				"y": 0.3770019382,
				"z": 0.5086639806,
				"element": "H" 
			},
			{
				"x": -2.7643132573,
				"y": 2.0755579163,
				"z": 0.6504490242,
				"element": "H" 
			},
			{
				"x": 1.3363514196,
				"y": -0.6039938812,
				"z": 0.8716942035,
				"element": "H" 
			},
			{
				"x": 0.9274396465,
				"y": 2.5288256142,
				"z": 3.8558745547,
				"element": "H" 
			},
			{
				"x": 3.5063062946,
				"y": 0.1175457383,
				"z": 5.1199493726,
				"element": "H" 
			}
		],
		 "valence_orbital": [ 
			{
				"type": "occ",
				"energy": -0.32338,
				"method": "rhf"
			},
			{
				"type": "occ",
				"energy": -0.31843,
				"method": "rhf"
			},
			{
				"type": "occ",
				"energy": -0.31428,
				"method": "rhf"
			},
			{
				"type": "occ",
				"energy": -0.29573,
				"method": "rhf"
			},
			{
				"type": "occ",
				"energy": -0.26853,
				"method": "rhf"
			},
			{
				"type": "unocc",
				"energy": -0.05674,
				"method": "rhf"
			},
			{
				"type": "unocc",
				"energy": -0.02898,
				"method": "rhf"
			},
			{
				"type": "unocc",
				"energy": 0.04632,
				"method": "rhf"
			},
			{
				"type": "unocc",
				"energy": 0.06074,
				"method": "rhf"
			},
			{
				"type": "unocc",
				"energy": 0.06563,
				"method": "rhf"
			}
		],
		"cosmo_sigma_profile": { 
			"-0.025": 0.0,
			"-0.024": 0.0,
			"-0.023": 0.0,
			"-0.022": 0.0,
			"-0.021": 0.0,
			"-0.02": 0.0,
			"-0.019": 0.339068310989,
			"-0.018": 0.999904485693,
			"-0.017": 0.974507105542,
			"-0.016": 2.5047952817,
			"-0.015": 3.35271219864,
			"-0.014": 3.42425722524,
			"-0.013": 3.16249416204,
			"-0.012": 3.12731298621,
			"-0.011": 5.00266568279,
			"-0.01": 4.04247631246,
			"-0.009": 4.23419148733,
			"-0.008": 5.06465656579,
			"-0.007": 5.6425413765,
			"-0.006": 4.0382354057,
			"-0.005": 4.60744013049,
			"-0.004": 5.68110917166,
			"-0.003": 9.78694032925,
			"-0.002": 14.1491695108,
			"-0.001": 16.855870968,
			"0.0": 11.0410464034,
			"0.001": 6.87381282196,
			"0.002": 6.02779537959,
			"0.003": 6.64143378626,
			"0.004": 7.07160021443,
			"0.005": 6.89112968468,
			"0.006": 7.23752760867,
			"0.007": 7.13180008713,
			"0.008": 6.10787151702,
			"0.009": 7.30494627513,
			"0.01": 15.2351927305,
			"0.011": 11.6436412936,
			"0.012": 1.96380550086,
			"0.013": 0.0,
			"0.014": 0.0,
			"0.015": 0.0,
			"0.016": 0.0,
			"0.017": 0.0,
			"0.018": 0.0,
			"0.019": 0.0,
			"0.02": 0.0,
			"0.021": 0.0,
			"0.022": 0.0,
			"0.023": 0.0,
			"0.024": 0.0,
			"0.025": 0.0
		}
	}
}
