{
	 "smiles": "CC(C)(C)OC(=O)N1CCC(CC1)C1=NC(C=O)=CS1", 
	 "Tm": 365.15, 
	 "num_atms": 40, 
	 "gaussian": { 
		 "optdone": 1, 
		 "sigma_profile": "yes", 
		 "theory": "DFT", 
		 "functional": "B3LYP", 
		 "basiset": "6-31G**", 
		 "properties": { 
			 "R2extent": 10102.1545, 
			 "electric_dipole_moment_norm": 3.1349412961, 
			 "electric_quadrupole_moment_norm": 30.4968111364, 
			 "total_energy": -1278.92772522, 
			 "HOMO_LUMO_gap": 0.16302, 
			 "cosmo_polarized_energy": -14.52, 
			 "cosmo_cavitation_energy": 43.41, 
			 "cosmo_dispersion_energy": -30.35, 
			 "cosmo_repulsion_energy": 2.32, 
			 "cosmo_total_nonelectrostatic_energy": 15.37, 
			 "SMD_solvation_energy": 7.12 
		},
		"coords": [
			{
				"x": -1.5586491844,
				"y": -1.1310601767,
				"z": -4.6853556883,
				"element": "C" 
			},
			{
				"x": -1.8614746179,
				"y": -0.4953508031,
				"z": -3.3240057949,
				"element": "C" 
			},
			{
				"x": -2.294844657,
				"y": 0.9637405664,
				"z": -3.4917163896,
				"element": "C" 
			},
			{
				"x": -2.911767518,
				"y": -1.2851158746,
				"z": -2.5351720966,
				"element": "C" 
			},
			{
				"x": -0.6267527143,
				"y": -0.3723124109,
				"z": -2.5355969643,
				"element": "O" 
			},
			{
				"x": 0.0852218999,
				"y": -1.4727626898,
				"z": -2.1819447701,
				"element": "C" 
			},
			{
				"x": -0.2160091518,
				"y": -2.6307027698,
				"z": -2.4428866425,
				"element": "O" 
			},
			{
				"x": 1.2074996253,
				"y": -1.1181460317,
				"z": -1.4828159571,
				"element": "N" 
			},
			{
				"x": 2.0435807966,
				"y": -2.186433145,
				"z": -0.9268720508,
				"element": "C" 
			},
			{
				"x": 2.578892313,
				"y": -1.7728583904,
				"z": 0.4445723157,
				"element": "C" 
			},
			{
				"x": 3.4696290525,
				"y": -0.5021610112,
				"z": 0.3590483006,
				"element": "C" 
			},
			{
				"x": 3.0367397002,
				"y": 0.3829368459,
				"z": -0.8507773261,
				"element": "C" 
			},
			{
				"x": 1.5405132396,
				"y": 0.2726789552,
				"z": -1.147638227,
				"element": "C" 
			},
			{
				"x": 3.423104357,
				"y": 0.2748454557,
				"z": 1.650872422,
				"element": "C" 
			},
			{
				"x": 2.3397724545,
				"y": 0.5963016975,
				"z": 2.2922077832,
				"element": "N" 
			},
			{
				"x": 2.6140371351,
				"y": 1.3546657627,
				"z": 3.4125799232,
				"element": "C" 
			},
			{
				"x": 1.5084021679,
				"y": 1.814505332,
				"z": 4.2768358948,
				"element": "C" 
			},
			{
				"x": 1.6638448047,
				"y": 2.4869866437,
				"z": 5.2784533162,
				"element": "O" 
			},
			{
				"x": 3.9414190797,
				"y": 1.622385256,
				"z": 3.6392163554,
				"element": "C" 
			},
			{
				"x": 4.8999387702,
				"y": 0.9015810626,
				"z": 2.4062872349,
				"element": "S" 
			},
			{
				"x": -1.2300974354,
				"y": -2.163844218,
				"z": -4.5687102961,
				"element": "H" 
			},
			{
				"x": -0.7770780334,
				"y": -0.565323048,
				"z": -5.2028399473,
				"element": "H" 
			},
			{
				"x": -2.459086157,
				"y": -1.1125226814,
				"z": -5.3080967543,
				"element": "H" 
			},
			{
				"x": -1.5277728689,
				"y": 1.5369518635,
				"z": -4.0209546757,
				"element": "H" 
			},
			{
				"x": -3.2241165146,
				"y": 1.0163544582,
				"z": -4.0667609651,
				"element": "H" 
			},
			{
				"x": -2.4635297364,
				"y": 1.4307911081,
				"z": -2.5170054299,
				"element": "H" 
			},
			{
				"x": -2.5948801527,
				"y": -2.3182378833,
				"z": -2.39262008,
				"element": "H" 
			},
			{
				"x": -3.0751669058,
				"y": -0.8246946069,
				"z": -1.5555041566,
				"element": "H" 
			},
			{
				"x": -3.8629653137,
				"y": -1.275875453,
				"z": -3.0774981103,
				"element": "H" 
			},
			{
				"x": 1.4270740274,
				"y": -3.0834010927,
				"z": -0.8529898458,
				"element": "H" 
			},
			{
				"x": 2.8732596813,
				"y": -2.4250547809,
				"z": -1.609540399,
				"element": "H" 
			},
			{
				"x": 1.732324597,
				"y": -1.5692356847,
				"z": 1.1067099404,
				"element": "H" 
			},
			{
				"x": 3.1456157554,
				"y": -2.598531398,
				"z": 0.8868852712,
				"element": "H" 
			},
			{
				"x": 4.5092269202,
				"y": -0.8049781669,
				"z": 0.1902837329,
				"element": "H" 
			},
			{
				"x": 3.2958866833,
				"y": 1.4307184993,
				"z": -0.6705436552,
				"element": "H" 
			},
			{
				"x": 3.5970108166,
				"y": 0.0658709876,
				"z": -1.7375060306,
				"element": "H" 
			},
			{
				"x": 0.9602206683,
				"y": 0.619009245,
				"z": -0.2814737942,
				"element": "H" 
			},
			{
				"x": 1.2764988306,
				"y": 0.9109487813,
				"z": -1.9924074943,
				"element": "H" 
			},
			{
				"x": 0.5053840237,
				"y": 1.4905248834,
				"z": 3.9309239268,
				"element": "H" 
			},
			{
				"x": 4.3614935613,
				"y": 2.1869049129,
				"z": 4.4591571248,
				"element": "H" 
			}
		],
		 "valence_orbital": [ 
			{
				"type": "occ",
				"energy": -0.28295,
				"method": "rhf"
			},
			{
				"type": "occ",
				"energy": -0.26055,
				"method": "rhf"
			},
			{
				"type": "occ",
				"energy": -0.26034,
				"method": "rhf"
			},
			{
				"type": "occ",
				"energy": -0.25521,
				"method": "rhf"
			},
			{
				"type": "occ",
				"energy": -0.23242,
				"method": "rhf"
			},
			{
				"type": "unocc",
				"energy": -0.0694,
				"method": "rhf"
			},
			{
				"type": "unocc",
				"energy": -0.02493,
				"method": "rhf"
			},
			{
				"type": "unocc",
				"energy": -0.0032,
				"method": "rhf"
			},
			{
				"type": "unocc",
				"energy": 0.05758,
				"method": "rhf"
			},
			{
				"type": "unocc",
				"energy": 0.07289,
				"method": "rhf"
			}
		],
		"cosmo_sigma_profile": { 
			"-0.025": 0.0,
			"-0.024": 0.0,
			"-0.023": 0.0,
			"-0.022": 0.0,
			"-0.021": 0.0,
			"-0.02": 0.0,
			"-0.019": 0.0,
			"-0.018": 0.0,
			"-0.017": 0.0,
			"-0.016": 0.0,
			"-0.015": 0.0,
			"-0.014": 0.0,
			"-0.013": 0.0,
			"-0.012": 0.0,
			"-0.011": 0.0873475024946,
			"-0.01": 1.28909190281,
			"-0.009": 1.67228664419,
			"-0.008": 1.78932412554,
			"-0.007": 3.03439100036,
			"-0.006": 7.64801502892,
			"-0.005": 14.2836325691,
			"-0.004": 33.9383088739,
			"-0.003": 41.0424793396,
			"-0.002": 35.4127956388,
			"-0.001": 38.1887368376,
			"0.0": 44.4203383604,
			"0.001": 37.5230079371,
			"0.002": 16.9498786275,
			"0.003": 8.85453850903,
			"0.004": 8.24701157439,
			"0.005": 7.59476726047,
			"0.006": 6.51792597867,
			"0.007": 5.88052872511,
			"0.008": 4.46781952624,
			"0.009": 3.7828404229,
			"0.01": 4.06346439462,
			"0.011": 6.74266398581,
			"0.012": 3.93559579656,
			"0.013": 2.99471327091,
			"0.014": 2.43624969968,
			"0.015": 0.0267010061632,
			"0.016": 0.0,
			"0.017": 0.0,
			"0.018": 0.0,
			"0.019": 0.0,
			"0.02": 0.0,
			"0.021": 0.0,
			"0.022": 0.0,
			"0.023": 0.0,
			"0.024": 0.0,
			"0.025": 0.0
		}
	}
}
