{
	 "smiles": "CCCCCCCl", 
	 "Tm": 179.15, 
	 "num_atms": 20, 
	 "gaussian": { 
		 "optdone": 1, 
		 "sigma_profile": "yes", 
		 "theory": "DFT", 
		 "functional": "B3LYP", 
		 "basiset": "6-31G**", 
		 "properties": { 
			 "R2extent": 2339.7178, 
			 "electric_dipole_moment_norm": 2.49098686869, 
			 "electric_quadrupole_moment_norm": 11.9696756752, 
			 "total_energy": -696.687549763, 
			 "HOMO_LUMO_gap": 0.31237, 
			 "cosmo_polarized_energy": -3.8, 
			 "cosmo_cavitation_energy": 23.16, 
			 "cosmo_dispersion_energy": -16.84, 
			 "cosmo_repulsion_energy": 1.45, 
			 "cosmo_total_nonelectrostatic_energy": 7.78, 
			 "SMD_solvation_energy": 3.22 
		},
		"coords": [
			{
				"x": 1.6713574227,
				"y": 1.0069996081,
				"z": 0.701642137,
				"element": "C" 
			},
			{
				"x": 0.9636680744,
				"y": -0.346397815,
				"z": 0.5664271181,
				"element": "C" 
			},
			{
				"x": 0.3137168797,
				"y": -0.8549095307,
				"z": 1.8654118389,
				"element": "C" 
			},
			{
				"x": -0.8027095017,
				"y": 0.0327737894,
				"z": 2.4482181512,
				"element": "C" 
			},
			{
				"x": -2.0196848253,
				"y": 0.2770813687,
				"z": 1.534501826,
				"element": "C" 
			},
			{
				"x": -2.7845374334,
				"y": -1.0014199036,
				"z": 1.2148585852,
				"element": "C" 
			},
			{
				"x": -4.2634546572,
				"y": -0.6630271244,
				"z": 0.2065562158,
				"element": "Cl" 
			},
			{
				"x": 2.4330870681,
				"y": 0.9771407929,
				"z": 1.489568007,
				"element": "H" 
			},
			{
				"x": 0.9725515849,
				"y": 1.8130788579,
				"z": 0.9487129947,
				"element": "H" 
			},
			{
				"x": 2.170873863,
				"y": 1.2840597573,
				"z": -0.2322989659,
				"element": "H" 
			},
			{
				"x": 1.6902946296,
				"y": -1.0974063198,
				"z": 0.2316966716,
				"element": "H" 
			},
			{
				"x": 0.2114861069,
				"y": -0.2866203722,
				"z": -0.2310759994,
				"element": "H" 
			},
			{
				"x": 1.0945232265,
				"y": -0.9628726173,
				"z": 2.6303684544,
				"element": "H" 
			},
			{
				"x": -0.0724799905,
				"y": -1.8682817194,
				"z": 1.6943056219,
				"element": "H" 
			},
			{
				"x": -0.3864777994,
				"y": 1.009923021,
				"z": 2.7206847029,
				"element": "H" 
			},
			{
				"x": -1.1488504917,
				"y": -0.4143555199,
				"z": 3.3898224763,
				"element": "H" 
			},
			{
				"x": -1.7099064748,
				"y": 0.7534416181,
				"z": 0.5979286451,
				"element": "H" 
			},
			{
				"x": -2.7017567435,
				"y": 0.9780491117,
				"z": 2.0280269118,
				"element": "H" 
			},
			{
				"x": -2.1902253708,
				"y": -1.7109871358,
				"z": 0.6380785212,
				"element": "H" 
			},
			{
				"x": -3.1428755674,
				"y": -1.4952698669,
				"z": 2.1206660861,
				"element": "H" 
			}
		],
		 "valence_orbital": [ 
			{
				"type": "occ",
				"energy": -0.33014,
				"method": "rhf"
			},
			{
				"type": "occ",
				"energy": -0.32112,
				"method": "rhf"
			},
			{
				"type": "occ",
				"energy": -0.32055,
				"method": "rhf"
			},
			{
				"type": "occ",
				"energy": -0.28959,
				"method": "rhf"
			},
			{
				"type": "occ",
				"energy": -0.28769,
				"method": "rhf"
			},
			{
				"type": "unocc",
				"energy": 0.02468,
				"method": "rhf"
			},
			{
				"type": "unocc",
				"energy": 0.0788,
				"method": "rhf"
			},
			{
				"type": "unocc",
				"energy": 0.10149,
				"method": "rhf"
			},
			{
				"type": "unocc",
				"energy": 0.11139,
				"method": "rhf"
			},
			{
				"type": "unocc",
				"energy": 0.11929,
				"method": "rhf"
			}
		],
		"cosmo_sigma_profile": { 
			"-0.025": 0.0,
			"-0.024": 0.0,
			"-0.023": 0.0,
			"-0.022": 0.0,
			"-0.021": 0.0,
			"-0.02": 0.0,
			"-0.019": 0.0,
			"-0.018": 0.0,
			"-0.017": 0.0,
			"-0.016": 0.0,
			"-0.015": 0.0,
			"-0.014": 0.0,
			"-0.013": 0.0,
			"-0.012": 0.0,
			"-0.011": 0.0,
			"-0.01": 0.0,
			"-0.009": 0.0,
			"-0.008": 0.0,
			"-0.007": 0.361383920364,
			"-0.006": 3.36686293469,
			"-0.005": 4.85884081568,
			"-0.004": 7.74976468498,
			"-0.003": 19.3492232106,
			"-0.002": 26.3513666695,
			"-0.001": 26.7195599018,
			"0.0": 28.5667436641,
			"0.001": 23.1685979711,
			"0.002": 9.67687733672,
			"0.003": 4.04477743359,
			"0.004": 4.18222433758,
			"0.005": 5.20194315916,
			"0.006": 6.55986404915,
			"0.007": 10.2249349265,
			"0.008": 0.756684756488,
			"0.009": 0.0,
			"0.01": 0.0,
			"0.011": 0.0,
			"0.012": 0.0,
			"0.013": 0.0,
			"0.014": 0.0,
			"0.015": 0.0,
			"0.016": 0.0,
			"0.017": 0.0,
			"0.018": 0.0,
			"0.019": 0.0,
			"0.02": 0.0,
			"0.021": 0.0,
			"0.022": 0.0,
			"0.023": 0.0,
			"0.024": 0.0,
			"0.025": 0.0
		}
	}
}
