{
	 "smiles": "OC(=O)C1=CC=C(C(O)=O)C(OC(F)(F)F)=C1", 
	 "Tm": 544.15, 
	 "num_atms": 22, 
	 "gaussian": { 
		 "optdone": 1, 
		 "sigma_profile": "yes", 
		 "theory": "DFT", 
		 "functional": "B3LYP", 
		 "basiset": "6-31G**", 
		 "properties": { 
			 "R2extent": 4792.4338, 
			 "electric_dipole_moment_norm": 2.9935026474, 
			 "electric_quadrupole_moment_norm": 12.0087295819, 
			 "total_energy": -1021.62897068, 
			 "HOMO_LUMO_gap": 0.1915, 
			 "cosmo_polarized_energy": -18.12, 
			 "cosmo_cavitation_energy": 29.56, 
			 "cosmo_dispersion_energy": -20.73, 
			 "cosmo_repulsion_energy": 1.54, 
			 "cosmo_total_nonelectrostatic_energy": 10.38, 
			 "SMD_solvation_energy": 8.97 
		},
		"coords": [
			{
				"x": -3.5646123336,
				"y": -1.8875964718,
				"z": -2.8074380719,
				"element": "O" 
			},
			{
				"x": -2.2534311592,
				"y": -2.2294860011,
				"z": -2.7370836599,
				"element": "C" 
			},
			{
				"x": -1.8327593164,
				"y": -3.1730139573,
				"z": -3.3613889297,
				"element": "O" 
			},
			{
				"x": -1.3768189117,
				"y": -1.3841073026,
				"z": -1.8545802612,
				"element": "C" 
			},
			{
				"x": 0.0041461757,
				"y": -1.4047549395,
				"z": -2.0867017689,
				"element": "C" 
			},
			{
				"x": 0.8517630483,
				"y": -0.649064466,
				"z": -1.2895304754,
				"element": "C" 
			},
			{
				"x": 0.3611723493,
				"y": 0.1371624364,
				"z": -0.2332167464,
				"element": "C" 
			},
			{
				"x": 1.3901635475,
				"y": 0.9059764725,
				"z": 0.5397068224,
				"element": "C" 
			},
			{
				"x": 0.8997787808,
				"y": 1.6834086842,
				"z": 1.5232515,
				"element": "O" 
			},
			{
				"x": 2.5781878022,
				"y": 0.8379404244,
				"z": 0.2955595471,
				"element": "O" 
			},
			{
				"x": -1.0234012065,
				"y": 0.1292124577,
				"z": 0.0012039758,
				"element": "C" 
			},
			{
				"x": -1.5689401356,
				"y": 0.7981318482,
				"z": 1.09585138,
				"element": "O" 
			},
			{
				"x": -2.2194247868,
				"y": 1.9702421457,
				"z": 0.8620737016,
				"element": "C" 
			},
			{
				"x": -3.3720059502,
				"y": 1.7782757988,
				"z": 0.1777578464,
				"element": "F" 
			},
			{
				"x": -1.481758858,
				"y": 2.8341827301,
				"z": 0.1482689601,
				"element": "F" 
			},
			{
				"x": -2.5168517951,
				"y": 2.5088645364,
				"z": 2.0388977903,
				"element": "F" 
			},
			{
				"x": -1.8830920372,
				"y": -0.6249185616,
				"z": -0.7951819514,
				"element": "C" 
			},
			{
				"x": -3.7171174771,
				"y": -1.0249325856,
				"z": -2.397050926,
				"element": "H" 
			},
			{
				"x": 0.3886681111,
				"y": -2.0194742222,
				"z": -2.8925583674,
				"element": "H" 
			},
			{
				"x": 1.9225510648,
				"y": -0.6442066549,
				"z": -1.4586695596,
				"element": "H" 
			},
			{
				"x": 1.6721707395,
				"y": 2.1171300827,
				"z": 1.9245441057,
				"element": "H" 
			},
			{
				"x": -2.9354876517,
				"y": -0.6315724545,
				"z": -0.5335149118,
				"element": "H" 
			}
		],
		 "valence_orbital": [ 
			{
				"type": "occ",
				"energy": -0.33205,
				"method": "rhf"
			},
			{
				"type": "occ",
				"energy": -0.30035,
				"method": "rhf"
			},
			{
				"type": "occ",
				"energy": -0.29835,
				"method": "rhf"
			},
			{
				"type": "occ",
				"energy": -0.29138,
				"method": "rhf"
			},
			{
				"type": "occ",
				"energy": -0.28422,
				"method": "rhf"
			},
			{
				"type": "unocc",
				"energy": -0.09272,
				"method": "rhf"
			},
			{
				"type": "unocc",
				"energy": -0.04489,
				"method": "rhf"
			},
			{
				"type": "unocc",
				"energy": -0.00746,
				"method": "rhf"
			},
			{
				"type": "unocc",
				"energy": 0.0451,
				"method": "rhf"
			},
			{
				"type": "unocc",
				"energy": 0.05818,
				"method": "rhf"
			}
		],
		"cosmo_sigma_profile": { 
			"-0.025": 0.0,
			"-0.024": 0.0,
			"-0.023": 0.0,
			"-0.022": 0.0,
			"-0.021": 0.0,
			"-0.02": 0.0,
			"-0.019": 1.33950485823,
			"-0.018": 1.64487981493,
			"-0.017": 2.21516794204,
			"-0.016": 2.57981505857,
			"-0.015": 1.04532483651,
			"-0.014": 1.79255257725,
			"-0.013": 1.82214035018,
			"-0.012": 2.08149247433,
			"-0.011": 1.81214346014,
			"-0.01": 1.10052124372,
			"-0.009": 2.3216026996,
			"-0.008": 2.83301205341,
			"-0.007": 6.58895604484,
			"-0.006": 7.11502057578,
			"-0.005": 7.66348897909,
			"-0.004": 8.87563321946,
			"-0.003": 12.649929108,
			"-0.002": 16.529097641,
			"-0.001": 20.7928051467,
			"0.0": 18.8773318096,
			"0.001": 25.0509046099,
			"0.002": 26.4676127853,
			"0.003": 8.74005989583,
			"0.004": 7.44219402007,
			"0.005": 5.41138099698,
			"0.006": 5.72230358444,
			"0.007": 4.83887615363,
			"0.008": 5.44078998765,
			"0.009": 6.25469602462,
			"0.01": 8.26125500818,
			"0.011": 9.62809766316,
			"0.012": 2.62943788303,
			"0.013": 0.22267207495,
			"0.014": 0.0,
			"0.015": 0.0,
			"0.016": 0.0,
			"0.017": 0.0,
			"0.018": 0.0,
			"0.019": 0.0,
			"0.02": 0.0,
			"0.021": 0.0,
			"0.022": 0.0,
			"0.023": 0.0,
			"0.024": 0.0,
			"0.025": 0.0
		}
	}
}
