{
	 "smiles": "CC(C)(C)OC(=O)N1CCCNC(=O)C1", 
	 "Tm": 386.15, 
	 "num_atms": 33, 
	 "gaussian": { 
		 "optdone": 1, 
		 "sigma_profile": "yes", 
		 "theory": "DFT", 
		 "functional": "B3LYP", 
		 "basiset": "6-31G**", 
		 "properties": { 
			 "R2extent": 3884.5096, 
			 "electric_dipole_moment_norm": 5.80362580031, 
			 "electric_quadrupole_moment_norm": 16.8911478352, 
			 "total_energy": -727.132020151, 
			 "HOMO_LUMO_gap": 0.25925, 
			 "cosmo_polarized_energy": -16.88, 
			 "cosmo_cavitation_energy": 33.86, 
			 "cosmo_dispersion_energy": -23.58, 
			 "cosmo_repulsion_energy": 1.87, 
			 "cosmo_total_nonelectrostatic_energy": 12.15, 
			 "SMD_solvation_energy": 6.4 
		},
		"coords": [
			{
				"x": 2.9717203366,
				"y": 0.5818325098,
				"z": -2.27352938,
				"element": "C" 
			},
			{
				"x": 2.3561674513,
				"y": 1.6585862861,
				"z": -1.3738042226,
				"element": "C" 
			},
			{
				"x": 2.0182708733,
				"y": 2.9137557794,
				"z": -2.1829861429,
				"element": "C" 
			},
			{
				"x": 3.255761147,
				"y": 2.0069170422,
				"z": -0.1832862457,
				"element": "C" 
			},
			{
				"x": 1.0323155102,
				"y": 1.2237083018,
				"z": -0.8957651057,
				"element": "O" 
			},
			{
				"x": 0.9039006297,
				"y": 0.1157690394,
				"z": -0.1260564699,
				"element": "C" 
			},
			{
				"x": 1.8220611802,
				"y": -0.6031503211,
				"z": 0.2382366711,
				"element": "O" 
			},
			{
				"x": -0.4135139882,
				"y": -0.112512597,
				"z": 0.2092679717,
				"element": "N" 
			},
			{
				"x": -1.5289701649,
				"y": 0.7321618872,
				"z": -0.2071290648,
				"element": "C" 
			},
			{
				"x": -2.6672166426,
				"y": -0.0985933532,
				"z": -0.8291171605,
				"element": "C" 
			},
			{
				"x": -2.1430390956,
				"y": -1.2525762858,
				"z": -1.6938272402,
				"element": "C" 
			},
			{
				"x": -1.7550684661,
				"y": -2.4319724967,
				"z": -0.9200987005,
				"element": "N" 
			},
			{
				"x": -1.1842526401,
				"y": -2.5378156029,
				"z": 0.3205482023,
				"element": "C" 
			},
			{
				"x": -1.0657680298,
				"y": -3.6228169409,
				"z": 0.8751126654,
				"element": "O" 
			},
			{
				"x": -0.7055401035,
				"y": -1.2683106337,
				"z": 1.0407399371,
				"element": "C" 
			},
			{
				"x": 3.1946328584,
				"y": -0.3213757709,
				"z": -1.7057022429,
				"element": "H" 
			},
			{
				"x": 3.8984826639,
				"y": 0.9606699273,
				"z": -2.7166269233,
				"element": "H" 
			},
			{
				"x": 2.2854976928,
				"y": 0.3297785217,
				"z": -3.0885936608,
				"element": "H" 
			},
			{
				"x": 1.3423611466,
				"y": 2.672240836,
				"z": -3.0088005904,
				"element": "H" 
			},
			{
				"x": 2.9314490711,
				"y": 3.348058969,
				"z": -2.6003755187,
				"element": "H" 
			},
			{
				"x": 1.5365268467,
				"y": 3.6644585426,
				"z": -1.5496073665,
				"element": "H" 
			},
			{
				"x": 3.4815510788,
				"y": 1.1196716813,
				"z": 0.408083657,
				"element": "H" 
			},
			{
				"x": 2.7671328789,
				"y": 2.7475505539,
				"z": 0.4578907461,
				"element": "H" 
			},
			{
				"x": 4.1935545644,
				"y": 2.4393249757,
				"z": -0.5470618809,
				"element": "H" 
			},
			{
				"x": -1.9108290917,
				"y": 1.3065981662,
				"z": 0.6494178104,
				"element": "H" 
			},
			{
				"x": -1.1465180185,
				"y": 1.4445112511,
				"z": -0.9353142251,
				"element": "H" 
			},
			{
				"x": -3.3261326469,
				"y": -0.511755015,
				"z": -0.0569755685,
				"element": "H" 
			},
			{
				"x": -3.2855429176,
				"y": 0.5670426211,
				"z": -1.442209607,
				"element": "H" 
			},
			{
				"x": -1.3115362189,
				"y": -0.8982760951,
				"z": -2.3197727148,
				"element": "H" 
			},
			{
				"x": -2.9354098988,
				"y": -1.5798170367,
				"z": -2.3739289184,
				"element": "H" 
			},
			{
				"x": -2.0146437215,
				"y": -3.3362125072,
				"z": -1.2913499591,
				"element": "H" 
			},
			{
				"x": -1.4643660311,
				"y": -0.999124096,
				"z": 1.7869432755,
				"element": "H" 
			},
			{
				"x": 0.1992617459,
				"y": -1.5567281399,
				"z": 1.5738779728,
				"element": "H" 
			}
		],
		 "valence_orbital": [ 
			{
				"type": "occ",
				"energy": -0.29057,
				"method": "rhf"
			},
			{
				"type": "occ",
				"energy": -0.26477,
				"method": "rhf"
			},
			{
				"type": "occ",
				"energy": -0.25968,
				"method": "rhf"
			},
			{
				"type": "occ",
				"energy": -0.24632,
				"method": "rhf"
			},
			{
				"type": "occ",
				"energy": -0.22854,
				"method": "rhf"
			},
			{
				"type": "unocc",
				"energy": 0.03071,
				"method": "rhf"
			},
			{
				"type": "unocc",
				"energy": 0.05034,
				"method": "rhf"
			},
			{
				"type": "unocc",
				"energy": 0.06859,
				"method": "rhf"
			},
			{
				"type": "unocc",
				"energy": 0.0837,
				"method": "rhf"
			},
			{
				"type": "unocc",
				"energy": 0.09386,
				"method": "rhf"
			}
		],
		"cosmo_sigma_profile": { 
			"-0.025": 0.0,
			"-0.024": 0.0,
			"-0.023": 0.0,
			"-0.022": 0.0,
			"-0.021": 0.0,
			"-0.02": 0.0,
			"-0.019": 0.0,
			"-0.018": 0.0,
			"-0.017": 0.0,
			"-0.016": 0.0,
			"-0.015": 0.0,
			"-0.014": 0.13602744039,
			"-0.013": 1.2039795717,
			"-0.012": 1.02634559646,
			"-0.011": 1.08378737452,
			"-0.01": 0.873469457869,
			"-0.009": 1.47959065588,
			"-0.008": 1.13988028139,
			"-0.007": 4.27842351031,
			"-0.006": 6.07873237666,
			"-0.005": 11.2718098233,
			"-0.004": 30.344146624,
			"-0.003": 32.784046342,
			"-0.002": 29.1553932266,
			"-0.001": 25.2473465923,
			"0.0": 28.945323915,
			"0.001": 24.2357656377,
			"0.002": 10.1871594895,
			"0.003": 7.25344139398,
			"0.004": 6.26900772368,
			"0.005": 4.93666375753,
			"0.006": 3.80525082109,
			"0.007": 2.82460296917,
			"0.008": 2.87854638039,
			"0.009": 2.73588996543,
			"0.01": 1.90673582972,
			"0.011": 3.12109550904,
			"0.012": 3.62588512905,
			"0.013": 5.30309253488,
			"0.014": 6.52368017411,
			"0.015": 2.32634698623,
			"0.016": 0.0406772531297,
			"0.017": 0.0,
			"0.018": 0.0,
			"0.019": 0.0,
			"0.02": 0.0,
			"0.021": 0.0,
			"0.022": 0.0,
			"0.023": 0.0,
			"0.024": 0.0,
			"0.025": 0.0
		}
	}
}
