{
	 "smiles": "CC1=NN2C(=C1)N=CC(C(O)=O)=C2C", 
	 "Tm": 523.15, 
	 "num_atms": 23, 
	 "gaussian": { 
		 "optdone": 1, 
		 "sigma_profile": "yes", 
		 "theory": "DFT", 
		 "functional": "B3LYP", 
		 "basiset": "6-31G**", 
		 "properties": { 
			 "R2extent": 3438.9157, 
			 "electric_dipole_moment_norm": 3.24715430801, 
			 "electric_quadrupole_moment_norm": 11.141883422, 
			 "total_energy": -663.077699992, 
			 "HOMO_LUMO_gap": 0.16725, 
			 "cosmo_polarized_energy": -15.37, 
			 "cosmo_cavitation_energy": 27.28, 
			 "cosmo_dispersion_energy": -20.34, 
			 "cosmo_repulsion_energy": 1.59, 
			 "cosmo_total_nonelectrostatic_energy": 8.53, 
			 "SMD_solvation_energy": 3.57 
		},
		"coords": [
			{
				"x": 1.0162287881,
				"y": -2.3699406811,
				"z": 3.5463666488,
				"element": "C" 
			},
			{
				"x": 0.7436190569,
				"y": -1.9400680105,
				"z": 2.1373739441,
				"element": "C" 
			},
			{
				"x": -0.4774025167,
				"y": -1.4814107411,
				"z": 1.8068825024,
				"element": "N" 
			},
			{
				"x": -0.3816855973,
				"y": -1.1868465201,
				"z": 0.4897001798,
				"element": "N" 
			},
			{
				"x": 0.9048301206,
				"y": -1.4564037451,
				"z": -0.0274029638,
				"element": "C" 
			},
			{
				"x": 1.6343509498,
				"y": -1.9461726922,
				"z": 1.04712713,
				"element": "C" 
			},
			{
				"x": 1.202931317,
				"y": -1.2226292587,
				"z": -1.3214611809,
				"element": "N" 
			},
			{
				"x": 0.2276641366,
				"y": -0.7558405842,
				"z": -2.0680006838,
				"element": "C" 
			},
			{
				"x": -1.0998744622,
				"y": -0.4780541734,
				"z": -1.6124494762,
				"element": "C" 
			},
			{
				"x": -2.1159025093,
				"y": 0.075815032,
				"z": -2.5590876143,
				"element": "C" 
			},
			{
				"x": -1.9677369936,
				"y": -0.2937672305,
				"z": -3.8614176557,
				"element": "O" 
			},
			{
				"x": -3.0174816847,
				"y": 0.8215171924,
				"z": -2.2532512088,
				"element": "O" 
			},
			{
				"x": -1.3997421726,
				"y": -0.6893338984,
				"z": -0.2686258687,
				"element": "C" 
			},
			{
				"x": -2.7010273038,
				"y": -0.464941677,
				"z": 0.429960989,
				"element": "C" 
			},
			{
				"x": 0.3491976708,
				"y": -3.1869335671,
				"z": 3.8396730503,
				"element": "H" 
			},
			{
				"x": 0.8459229132,
				"y": -1.5440209653,
				"z": 4.2442930993,
				"element": "H" 
			},
			{
				"x": 2.0483783961,
				"y": -2.7093116458,
				"z": 3.6567788317,
				"element": "H" 
			},
			{
				"x": 2.6667903999,
				"y": -2.2582978104,
				"z": 1.030231293,
				"element": "H" 
			},
			{
				"x": 0.4889909828,
				"y": -0.5355474819,
				"z": -3.1027802722,
				"element": "H" 
			},
			{
				"x": -1.3291836112,
				"y": -1.0159846953,
				"z": -3.9409021523,
				"element": "H" 
			},
			{
				"x": -2.5675544266,
				"y": 0.2955819266,
				"z": 1.2070000315,
				"element": "H" 
			},
			{
				"x": -2.9989832924,
				"y": -1.3815556524,
				"z": 0.9480313808,
				"element": "H" 
			},
			{
				"x": -3.4668301614,
				"y": -0.1339531203,
				"z": -0.2651400038,
				"element": "H" 
			}
		],
		 "valence_orbital": [ 
			{
				"type": "occ",
				"energy": -0.31738,
				"method": "rhf"
			},
			{
				"type": "occ",
				"energy": -0.28849,
				"method": "rhf"
			},
			{
				"type": "occ",
				"energy": -0.27306,
				"method": "rhf"
			},
			{
				"type": "occ",
				"energy": -0.2638,
				"method": "rhf"
			},
			{
				"type": "occ",
				"energy": -0.23437,
				"method": "rhf"
			},
			{
				"type": "unocc",
				"energy": -0.06712,
				"method": "rhf"
			},
			{
				"type": "unocc",
				"energy": -0.04734,
				"method": "rhf"
			},
			{
				"type": "unocc",
				"energy": 0.02274,
				"method": "rhf"
			},
			{
				"type": "unocc",
				"energy": 0.05917,
				"method": "rhf"
			},
			{
				"type": "unocc",
				"energy": 0.06607,
				"method": "rhf"
			}
		],
		"cosmo_sigma_profile": { 
			"-0.025": 0.0,
			"-0.024": 0.0,
			"-0.023": 0.0,
			"-0.022": 0.0,
			"-0.021": 0.0,
			"-0.02": 0.00835182605663,
			"-0.019": 0.951293287237,
			"-0.018": 0.92849986,
			"-0.017": 0.96658098291,
			"-0.016": 0.878920374831,
			"-0.015": 0.702599284205,
			"-0.014": 0.637252483236,
			"-0.013": 1.66393261363,
			"-0.012": 1.31463555559,
			"-0.011": 0.764095137874,
			"-0.01": 1.74161005867,
			"-0.009": 1.47032612308,
			"-0.008": 2.26138526632,
			"-0.007": 4.02094849803,
			"-0.006": 8.26429002627,
			"-0.005": 16.1130648515,
			"-0.004": 18.03733657,
			"-0.003": 19.4589034869,
			"-0.002": 20.4747960607,
			"-0.001": 18.5657575201,
			"0.0": 12.4473662578,
			"0.001": 9.33182992586,
			"0.002": 10.9725632484,
			"0.003": 10.41039815,
			"0.004": 7.39688893908,
			"0.005": 5.95140863905,
			"0.006": 5.48141105925,
			"0.007": 4.38912063198,
			"0.008": 4.69874750909,
			"0.009": 5.97168234995,
			"0.01": 7.45380121623,
			"0.011": 6.81799682024,
			"0.012": 4.20864399492,
			"0.013": 2.26979504788,
			"0.014": 1.16653740018,
			"0.015": 0.143623987029,
			"0.016": 0.0,
			"0.017": 0.0,
			"0.018": 0.0,
			"0.019": 0.0,
			"0.02": 0.0,
			"0.021": 0.0,
			"0.022": 0.0,
			"0.023": 0.0,
			"0.024": 0.0,
			"0.025": 0.0
		}
	}
}
