{
	 "smiles": "CC(C)(N)CC1=CC=CC=C1", 
	 "Tm": 478.15, 
	 "num_atms": 26, 
	 "gaussian": { 
		 "optdone": 1, 
		 "sigma_profile": "yes", 
		 "theory": "DFT", 
		 "functional": "B3LYP", 
		 "basiset": "6-31G**", 
		 "properties": { 
			 "R2extent": 2200.0587, 
			 "electric_dipole_moment_norm": 1.71091008823, 
			 "electric_quadrupole_moment_norm": 7.27026539612, 
			 "total_energy": -444.867442837, 
			 "HOMO_LUMO_gap": 0.23818, 
			 "cosmo_polarized_energy": -6.91, 
			 "cosmo_cavitation_energy": 27.47, 
			 "cosmo_dispersion_energy": -19.41, 
			 "cosmo_repulsion_energy": 1.55, 
			 "cosmo_total_nonelectrostatic_energy": 9.62, 
			 "SMD_solvation_energy": 4.29 
		},
		"coords": [
			{
				"x": 0.8270912028,
				"y": 0.2789403749,
				"z": 3.7016419313,
				"element": "C" 
			},
			{
				"x": 0.4367033162,
				"y": 0.7770185767,
				"z": 2.2930458453,
				"element": "C" 
			},
			{
				"x": 1.7033395003,
				"y": 1.1106063073,
				"z": 1.4924928919,
				"element": "C" 
			},
			{
				"x": -0.3914867539,
				"y": 1.9986170948,
				"z": 2.3550513081,
				"element": "N" 
			},
			{
				"x": -0.3974544115,
				"y": -0.3373148309,
				"z": 1.5935862748,
				"element": "C" 
			},
			{
				"x": -0.6675892028,
				"y": -0.1678311957,
				"z": 0.1120059898,
				"element": "C" 
			},
			{
				"x": -0.0739307917,
				"y": -1.0363096097,
				"z": -0.8146533939,
				"element": "C" 
			},
			{
				"x": -0.3184970863,
				"y": -0.9115830606,
				"z": -2.1838501562,
				"element": "C" 
			},
			{
				"x": -1.1675636882,
				"y": 0.0911965038,
				"z": -2.6519579598,
				"element": "C" 
			},
			{
				"x": -1.7662816758,
				"y": 0.9643193019,
				"z": -1.7404277814,
				"element": "C" 
			},
			{
				"x": -1.5211453301,
				"y": 0.8358482482,
				"z": -0.3732627273,
				"element": "C" 
			},
			{
				"x": 1.3634023677,
				"y": 1.0617862222,
				"z": 4.2502932841,
				"element": "H" 
			},
			{
				"x": 1.4747855753,
				"y": -0.6043612579,
				"z": 3.6600082846,
				"element": "H" 
			},
			{
				"x": -0.0640651229,
				"y": 0.0119248376,
				"z": 4.2827546772,
				"element": "H" 
			},
			{
				"x": 2.3236507572,
				"y": 0.2198873119,
				"z": 1.3506818142,
				"element": "H" 
			},
			{
				"x": 1.4456175244,
				"y": 1.5134904989,
				"z": 0.5106571901,
				"element": "H" 
			},
			{
				"x": 2.3081907326,
				"y": 1.8553022243,
				"z": 2.0239982068,
				"element": "H" 
			},
			{
				"x": -1.1542796194,
				"y": 1.8569564036,
				"z": 3.0160332986,
				"element": "H" 
			},
			{
				"x": 0.1638914476,
				"y": 2.7671298469,
				"z": 2.7271410903,
				"element": "H" 
			},
			{
				"x": -1.3503528527,
				"y": -0.4193215342,
				"z": 2.1356064699,
				"element": "H" 
			},
			{
				"x": 0.1201064653,
				"y": -1.2911941518,
				"z": 1.7476557643,
				"element": "H" 
			},
			{
				"x": 0.5853129039,
				"y": -1.8247308303,
				"z": -0.458179495,
				"element": "H" 
			},
			{
				"x": 0.1521004022,
				"y": -1.5992103936,
				"z": -2.8814319351,
				"element": "H" 
			},
			{
				"x": -1.3634510319,
				"y": 0.1909230619,
				"z": -3.715975314,
				"element": "H" 
			},
			{
				"x": -2.4295469214,
				"y": 1.7486041595,
				"z": -2.0956214263,
				"element": "H" 
			},
			{
				"x": -1.9706477067,
				"y": 1.5287058901,
				"z": 0.3293058677,
				"element": "H" 
			}
		],
		 "valence_orbital": [ 
			{
				"type": "occ",
				"energy": -0.32275,
				"method": "rhf"
			},
			{
				"type": "occ",
				"energy": -0.31986,
				"method": "rhf"
			},
			{
				"type": "occ",
				"energy": -0.23996,
				"method": "rhf"
			},
			{
				"type": "occ",
				"energy": -0.23153,
				"method": "rhf"
			},
			{
				"type": "occ",
				"energy": -0.22896,
				"method": "rhf"
			},
			{
				"type": "unocc",
				"energy": 0.00922,
				"method": "rhf"
			},
			{
				"type": "unocc",
				"energy": 0.01209,
				"method": "rhf"
			},
			{
				"type": "unocc",
				"energy": 0.06845,
				"method": "rhf"
			},
			{
				"type": "unocc",
				"energy": 0.10414,
				"method": "rhf"
			},
			{
				"type": "unocc",
				"energy": 0.12323,
				"method": "rhf"
			}
		],
		"cosmo_sigma_profile": { 
			"-0.025": 0.0,
			"-0.024": 0.0,
			"-0.023": 0.0,
			"-0.022": 0.0,
			"-0.021": 0.0,
			"-0.02": 0.0,
			"-0.019": 0.0,
			"-0.018": 0.0,
			"-0.017": 0.0,
			"-0.016": 0.0,
			"-0.015": 0.0,
			"-0.014": 0.0,
			"-0.013": 0.0,
			"-0.012": 0.0,
			"-0.011": 0.0,
			"-0.01": 0.0,
			"-0.009": 1.50405309895,
			"-0.008": 2.48491592737,
			"-0.007": 3.07297720283,
			"-0.006": 4.08594762837,
			"-0.005": 10.7422847406,
			"-0.004": 13.8575971671,
			"-0.003": 24.1465367816,
			"-0.002": 26.5103072386,
			"-0.001": 21.2250567187,
			"0.0": 19.8480038361,
			"0.001": 21.1679660979,
			"0.002": 15.9482289706,
			"0.003": 9.11625695506,
			"0.004": 8.7122434602,
			"0.005": 9.31647130257,
			"0.006": 9.34856532858,
			"0.007": 6.51052721676,
			"0.008": 1.29511591271,
			"0.009": 0.566373157464,
			"0.01": 0.639777178871,
			"0.011": 0.982281117435,
			"0.012": 0.679248425638,
			"0.013": 0.691898805074,
			"0.014": 0.901135853558,
			"0.015": 0.383544041078,
			"0.016": 0.32545944342,
			"0.017": 0.0,
			"0.018": 0.0,
			"0.019": 0.0,
			"0.02": 0.0,
			"0.021": 0.0,
			"0.022": 0.0,
			"0.023": 0.0,
			"0.024": 0.0,
			"0.025": 0.0
		}
	}
}
