{
	 "smiles": "OC(=O)C1=CC=C(C=C1)S(=O)(=O)NC1=CC(=CC=C1)C(F)(F)F", 
	 "Tm": 495.15, 
	 "num_atms": 33, 
	 "gaussian": { 
		 "optdone": 1, 
		 "sigma_profile": "yes", 
		 "theory": "DFT", 
		 "functional": "B3LYP", 
		 "basiset": "6-31G**", 
		 "properties": { 
			 "R2extent": 9550.5728, 
			 "electric_dipole_moment_norm": 1.44267863365, 
			 "electric_quadrupole_moment_norm": 28.8323095974, 
			 "total_energy": -1592.81447123, 
			 "HOMO_LUMO_gap": 0.17072, 
			 "cosmo_polarized_energy": -25.06, 
			 "cosmo_cavitation_energy": 41.72, 
			 "cosmo_dispersion_energy": -28.56, 
			 "cosmo_repulsion_energy": 2.08, 
			 "cosmo_total_nonelectrostatic_energy": 15.23, 
			 "SMD_solvation_energy": 8.55 
		},
		"coords": [
			{
				"x": 5.1496549906,
				"y": -0.3048205172,
				"z": 0.1509226701,
				"element": "O" 
			},
			{
				"x": 3.9959835066,
				"y": 0.3589842391,
				"z": 0.4177053011,
				"element": "C" 
			},
			{
				"x": 3.9852910357,
				"y": 1.5648027209,
				"z": 0.4752673115,
				"element": "O" 
			},
			{
				"x": 2.7639682178,
				"y": -0.4773565474,
				"z": 0.6274948417,
				"element": "C" 
			},
			{
				"x": 2.6309347674,
				"y": -1.7773954392,
				"z": 0.1194594175,
				"element": "C" 
			},
			{
				"x": 1.4570334129,
				"y": -2.4991545932,
				"z": 0.3272761934,
				"element": "C" 
			},
			{
				"x": 0.4208697184,
				"y": -1.9106224312,
				"z": 1.0542969354,
				"element": "C" 
			},
			{
				"x": 0.5340417304,
				"y": -0.6148745905,
				"z": 1.5679720564,
				"element": "C" 
			},
			{
				"x": 1.7042037804,
				"y": 0.1020493582,
				"z": 1.338526575,
				"element": "C" 
			},
			{
				"x": -1.0987524434,
				"y": -2.8399062649,
				"z": 1.308570452,
				"element": "S" 
			},
			{
				"x": -1.6867230461,
				"y": -2.3776961027,
				"z": 2.5632403517,
				"element": "O" 
			},
			{
				"x": -0.813629176,
				"y": -4.2466094387,
				"z": 1.0327853234,
				"element": "O" 
			},
			{
				"x": -2.1529072863,
				"y": -2.3836369198,
				"z": 0.059240976,
				"element": "N" 
			},
			{
				"x": -2.6451920172,
				"y": -1.062841866,
				"z": -0.1223042034,
				"element": "C" 
			},
			{
				"x": -2.4918774827,
				"y": -0.4399970263,
				"z": -1.366028399,
				"element": "C" 
			},
			{
				"x": -3.0231647577,
				"y": 0.8325984945,
				"z": -1.5769938278,
				"element": "C" 
			},
			{
				"x": -3.6821306777,
				"y": 1.5060826445,
				"z": -0.5465773183,
				"element": "C" 
			},
			{
				"x": -3.8218440442,
				"y": 0.8833056129,
				"z": 0.6937498524,
				"element": "C" 
			},
			{
				"x": -3.3255745147,
				"y": -0.40094068,
				"z": 0.9104182193,
				"element": "C" 
			},
			{
				"x": -2.919391546,
				"y": 1.4629631774,
				"z": -2.9411208666,
				"element": "C" 
			},
			{
				"x": -2.839595051,
				"y": 2.8081712042,
				"z": -2.8662726488,
				"element": "F" 
			},
			{
				"x": -1.8329267565,
				"y": 1.0251510775,
				"z": -3.6163521286,
				"element": "F" 
			},
			{
				"x": -3.9986259162,
				"y": 1.1730087089,
				"z": -3.7032521117,
				"element": "F" 
			},
			{
				"x": 5.0419255959,
				"y": -1.2530754972,
				"z": 0.308162249,
				"element": "H" 
			},
			{
				"x": 3.4240476356,
				"y": -2.2295552924,
				"z": -0.470370947,
				"element": "H" 
			},
			{
				"x": 1.3460561238,
				"y": -3.5093044258,
				"z": -0.0511666929,
				"element": "H" 
			},
			{
				"x": -0.2755718284,
				"y": -0.1874386049,
				"z": 2.1480900334,
				"element": "H" 
			},
			{
				"x": 1.8214874651,
				"y": 1.1140857262,
				"z": 1.7099682925,
				"element": "H" 
			},
			{
				"x": -1.9126318359,
				"y": -2.8818469895,
				"z": -0.7918551913,
				"element": "H" 
			},
			{
				"x": -1.9559599518,
				"y": -0.9397392498,
				"z": -2.1667104227,
				"element": "H" 
			},
			{
				"x": -4.0761627187,
				"y": 2.5019481121,
				"z": -0.7148105384,
				"element": "H" 
			},
			{
				"x": -4.3398477725,
				"y": 1.3957068636,
				"z": 1.4984518986,
				"element": "H" 
			},
			{
				"x": -3.4569891577,
				"y": -0.8972454636,
				"z": 1.8640163459,
				"element": "H" 
			}
		],
		 "valence_orbital": [ 
			{
				"type": "occ",
				"energy": -0.29915,
				"method": "rhf"
			},
			{
				"type": "occ",
				"energy": -0.29687,
				"method": "rhf"
			},
			{
				"type": "occ",
				"energy": -0.2864,
				"method": "rhf"
			},
			{
				"type": "occ",
				"energy": -0.28251,
				"method": "rhf"
			},
			{
				"type": "occ",
				"energy": -0.25532,
				"method": "rhf"
			},
			{
				"type": "unocc",
				"energy": -0.0846,
				"method": "rhf"
			},
			{
				"type": "unocc",
				"energy": -0.04816,
				"method": "rhf"
			},
			{
				"type": "unocc",
				"energy": -0.04223,
				"method": "rhf"
			},
			{
				"type": "unocc",
				"energy": -0.03211,
				"method": "rhf"
			},
			{
				"type": "unocc",
				"energy": 0.01387,
				"method": "rhf"
			}
		],
		"cosmo_sigma_profile": { 
			"-0.025": 0.0,
			"-0.024": 0.0,
			"-0.023": 0.0,
			"-0.022": 0.0,
			"-0.021": 0.0,
			"-0.02": 0.0303725918285,
			"-0.019": 0.846558216678,
			"-0.018": 0.990582761447,
			"-0.017": 1.11998856887,
			"-0.016": 2.28382638588,
			"-0.015": 2.31869299302,
			"-0.014": 2.66589162423,
			"-0.013": 2.27223863477,
			"-0.012": 2.18795686599,
			"-0.011": 2.63909286229,
			"-0.01": 2.59924722969,
			"-0.009": 3.87393821225,
			"-0.008": 6.82939532734,
			"-0.007": 12.5081162076,
			"-0.006": 13.8294051852,
			"-0.005": 13.7377604356,
			"-0.004": 15.8257780695,
			"-0.003": 14.5263387291,
			"-0.002": 17.2462284122,
			"-0.001": 18.7528912235,
			"0.0": 28.8360811179,
			"0.001": 31.0619109773,
			"0.002": 33.5218563715,
			"0.003": 37.9092672097,
			"0.004": 7.8000885471,
			"0.005": 6.34009941995,
			"0.006": 5.69635616673,
			"0.007": 6.012956463,
			"0.008": 6.40018127802,
			"0.009": 9.23537736151,
			"0.01": 12.9597542507,
			"0.011": 9.30948130218,
			"0.012": 2.87834521551,
			"0.013": 0.520554902739,
			"0.014": 0.0,
			"0.015": 0.0,
			"0.016": 0.0,
			"0.017": 0.0,
			"0.018": 0.0,
			"0.019": 0.0,
			"0.02": 0.0,
			"0.021": 0.0,
			"0.022": 0.0,
			"0.023": 0.0,
			"0.024": 0.0,
			"0.0": 0.0
		}
	}
}
