{
	 "smiles": "NNC1=NC=C(C=C1)S(N)(=O)=O", 
	 "Tm": 464.15, 
	 "num_atms": 20, 
	 "gaussian": { 
		 "optdone": 1, 
		 "sigma_profile": "yes", 
		 "theory": "DFT", 
		 "functional": "B3LYP", 
		 "basiset": "6-31G**", 
		 "properties": { 
			 "R2extent": 3628.9337, 
			 "electric_dipole_moment_norm": 3.95653864129, 
			 "electric_quadrupole_moment_norm": 18.3489078817, 
			 "total_energy": -962.89351892, 
			 "HOMO_LUMO_gap": 0.19453, 
			 "cosmo_polarized_energy": -20.45, 
			 "cosmo_cavitation_energy": 25.99, 
			 "cosmo_dispersion_energy": -19.91, 
			 "cosmo_repulsion_energy": 1.56, 
			 "cosmo_total_nonelectrostatic_energy": 7.64, 
			 "SMD_solvation_energy": 3.56 
		},
		"coords": [
			{
				"x": -1.8345497075,
				"y": -2.8973077655,
				"z": -2.8033610688,
				"element": "N" 
			},
			{
				"x": -1.9314091391,
				"y": -3.1037192804,
				"z": -1.4146864722,
				"element": "N" 
			},
			{
				"x": -1.1222455323,
				"y": -2.462847333,
				"z": -0.5124044145,
				"element": "C" 
			},
			{
				"x": -0.3587805358,
				"y": -1.4629559171,
				"z": -0.9836727617,
				"element": "N" 
			},
			{
				"x": 0.4166811027,
				"y": -0.8062023519,
				"z": -0.1135558877,
				"element": "C" 
			},
			{
				"x": 0.4660706669,
				"y": -1.1100566118,
				"z": 1.2433411294,
				"element": "C" 
			},
			{
				"x": -0.3192261619,
				"y": -2.1689879761,
				"z": 1.7327693335,
				"element": "C" 
			},
			{
				"x": -1.124048034,
				"y": -2.8563315038,
				"z": 0.8515208507,
				"element": "C" 
			},
			{
				"x": 1.5393677862,
				"y": -0.2065227906,
				"z": 2.3303493758,
				"element": "S" 
			},
			{
				"x": 0.4559485847,
				"y": 0.7456418549,
				"z": 3.2289115659,
				"element": "N" 
			},
			{
				"x": 2.1173530414,
				"y": -1.1365126381,
				"z": 3.3051731764,
				"element": "O" 
			},
			{
				"x": 2.3796617982,
				"y": 0.6610575328,
				"z": 1.4971567769,
				"element": "O" 
			},
			{
				"x": -0.8467960061,
				"y": -2.7897464025,
				"z": -3.0376856653,
				"element": "H" 
			},
			{
				"x": -2.2579444982,
				"y": -1.9934163497,
				"z": -3.0091354266,
				"element": "H" 
			},
			{
				"x": -2.3212638781,
				"y": -3.9985082531,
				"z": -1.1595257434,
				"element": "H" 
			},
			{
				"x": 1.0373207289,
				"y": -0.0088309573,
				"z": -0.5134590535,
				"element": "H" 
			},
			{
				"x": -0.2779221921,
				"y": -2.4414236667,
				"z": 2.7821147672,
				"element": "H" 
			},
			{
				"x": -1.7456365684,
				"y": -3.6817776913,
				"z": 1.1850020317,
				"element": "H" 
			},
			{
				"x": 0.7921293881,
				"y": 0.776372812,
				"z": 4.1889970804,
				"element": "H" 
			},
			{
				"x": 0.4047891562,
				"y": 1.6827752892,
				"z": 2.8357504058,
				"element": "H" 
			}
		],
		 "valence_orbital": [ 
			{
				"type": "occ",
				"energy": -0.30098,
				"method": "rhf"
			},
			{
				"type": "occ",
				"energy": -0.28905,
				"method": "rhf"
			},
			{
				"type": "occ",
				"energy": -0.28361,
				"method": "rhf"
			},
			{
				"type": "occ",
				"energy": -0.27171,
				"method": "rhf"
			},
			{
				"type": "occ",
				"energy": -0.22995,
				"method": "rhf"
			},
			{
				"type": "unocc",
				"energy": -0.03542,
				"method": "rhf"
			},
			{
				"type": "unocc",
				"energy": -0.02831,
				"method": "rhf"
			},
			{
				"type": "unocc",
				"energy": 0.05703,
				"method": "rhf"
			},
			{
				"type": "unocc",
				"energy": 0.07415,
				"method": "rhf"
			},
			{
				"type": "unocc",
				"energy": 0.08525,
				"method": "rhf"
			}
		],
		"cosmo_sigma_profile": { 
			"-0.025": 0.0,
			"-0.024": 0.0,
			"-0.023": 0.0,
			"-0.022": 0.0,
			"-0.021": 0.0,
			"-0.02": 0.0,
			"-0.019": 0.0,
			"-0.018": 0.0,
			"-0.017": 0.0,
			"-0.016": 0.0,
			"-0.015": 1.14875055049,
			"-0.014": 4.13976201435,
			"-0.013": 3.43526159294,
			"-0.012": 4.61575353873,
			"-0.011": 5.11845309842,
			"-0.01": 5.12097089426,
			"-0.009": 5.32933094988,
			"-0.008": 7.2985489405,
			"-0.007": 8.03033919173,
			"-0.006": 7.89937556758,
			"-0.005": 8.81600540432,
			"-0.004": 7.14789146791,
			"-0.003": 7.45319023828,
			"-0.002": 9.33158480282,
			"-0.001": 8.16101073225,
			"0.0": 13.0242360484,
			"0.001": 15.7367558725,
			"0.002": 12.3983750548,
			"0.003": 9.61711530528,
			"0.004": 6.86423537605,
			"0.005": 5.27606754428,
			"0.006": 4.77433858378,
			"0.007": 5.07122988454,
			"0.008": 5.05767745771,
			"0.009": 5.69551386893,
			"0.01": 8.8851058172,
			"0.011": 11.3965166586,
			"0.012": 6.93842922679,
			"0.013": 0.601361545992,
			"0.014": 0.270333809528,
			"0.015": 0.763727021805,
			"0.016": 0.607149719997,
			"0.017": 0.227667443303,
			"0.018": 0.0,
			"0.019": 0.0,
			"0.02": 0.0,
			"0.021": 0.0,
			"0.022": 0.0,
			"0.023": 0.0,
			"0.024": 0.0,
			"0.025": 0.0
		}
	}
}
