{
	 "smiles": "CS(=O)(=O)C1=CC=C(C=C1)C1=CN2C=CC=CC2=N1", 
	 "Tm": 515.15, 
	 "num_atms": 31, 
	 "gaussian": { 
		 "optdone": 1, 
		 "sigma_profile": "yes", 
		 "theory": "DFT", 
		 "functional": "B3LYP", 
		 "basiset": "6-31G**", 
		 "properties": { 
			 "R2extent": 9576.7914, 
			 "electric_dipole_moment_norm": 8.06412628001, 
			 "electric_quadrupole_moment_norm": 36.661497622, 
			 "total_energy": -1198.80033219, 
			 "HOMO_LUMO_gap": 0.16092, 
			 "cosmo_polarized_energy": -21.52, 
			 "cosmo_cavitation_energy": 37.0, 
			 "cosmo_dispersion_energy": -27.53, 
			 "cosmo_repulsion_energy": 2.01, 
			 "cosmo_total_nonelectrostatic_energy": 11.49, 
			 "SMD_solvation_energy": 4.91 
		},
		"coords": [
			{
				"x": -1.048056555,
				"y": -4.0515705892,
				"z": 4.2052725519,
				"element": "C" 
			},
			{
				"x": -2.1535860719,
				"y": -4.2715688005,
				"z": 2.7890236254,
				"element": "S" 
			},
			{
				"x": -1.825820436,
				"y": -5.5687777371,
				"z": 2.1752575265,
				"element": "O" 
			},
			{
				"x": -3.5184165907,
				"y": -3.97030013,
				"z": 3.2492258497,
				"element": "O" 
			},
			{
				"x": -1.6479739173,
				"y": -2.9756911098,
				"z": 1.6517369541,
				"element": "C" 
			},
			{
				"x": -2.227242363,
				"y": -1.7080867212,
				"z": 1.7480753172,
				"element": "C" 
			},
			{
				"x": -1.8220388421,
				"y": -0.7056997825,
				"z": 0.8726788911,
				"element": "C" 
			},
			{
				"x": -0.8450445735,
				"y": -0.9591269198,
				"z": -0.1060748832,
				"element": "C" 
			},
			{
				"x": -0.2865971607,
				"y": -2.246632704,
				"z": -0.1910783886,
				"element": "C" 
			},
			{
				"x": -0.6835477078,
				"y": -3.2553022808,
				"z": 0.6809539028,
				"element": "C" 
			},
			{
				"x": -0.4399584817,
				"y": 0.1199337348,
				"z": -1.0168425996,
				"element": "C" 
			},
			{
				"x": 0.4611242999,
				"y": 0.0528721293,
				"z": -2.0725656811,
				"element": "C" 
			},
			{
				"x": 0.4949717071,
				"y": 1.3161645672,
				"z": -2.615263779,
				"element": "N" 
			},
			{
				"x": 1.2039400496,
				"y": 1.8314426787,
				"z": -3.6744840972,
				"element": "C" 
			},
			{
				"x": 1.0447270375,
				"y": 3.147116826,
				"z": -4.0065568384,
				"element": "C" 
			},
			{
				"x": 0.1545371434,
				"y": 3.9763777303,
				"z": -3.2646685514,
				"element": "C" 
			},
			{
				"x": -0.5548195167,
				"y": 3.4628118386,
				"z": -2.2066587724,
				"element": "C" 
			},
			{
				"x": -0.397096664,
				"y": 2.1009934257,
				"z": -1.8552172331,
				"element": "C" 
			},
			{
				"x": -0.9600819747,
				"y": 1.3811885717,
				"z": -0.8930234901,
				"element": "N" 
			},
			{
				"x": -0.0156067964,
				"y": -4.1841215158,
				"z": 3.879127976,
				"element": "H" 
			},
			{
				"x": -1.3209335271,
				"y": -4.8228478846,
				"z": 4.9285868871,
				"element": "H" 
			},
			{
				"x": -1.2026341523,
				"y": -3.0592803074,
				"z": 4.6311039616,
				"element": "H" 
			},
			{
				"x": -2.9994154474,
				"y": -1.523244391,
				"z": 2.4876259215,
				"element": "H" 
			},
			{
				"x": -2.2568181078,
				"y": 0.2860625554,
				"z": 0.9235989513,
				"element": "H" 
			},
			{
				"x": 0.4617525242,
				"y": -2.4672776633,
				"z": -0.9461316525,
				"element": "H" 
			},
			{
				"x": -0.2708694431,
				"y": -4.2557009321,
				"z": 0.6052576156,
				"element": "H" 
			},
			{
				"x": 1.0553705692,
				"y": -0.7505135174,
				"z": -2.4776315343,
				"element": "H" 
			},
			{
				"x": 1.8622860125,
				"y": 1.1469614284,
				"z": -4.1955791977,
				"element": "H" 
			},
			{
				"x": 1.605486937,
				"y": 3.549043538,
				"z": -4.8424571371,
				"element": "H" 
			},
			{
				"x": 0.0407518076,
				"y": 5.0187585392,
				"z": -3.5429835324,
				"element": "H" 
			},
			{
				"x": -1.2411897588,
				"y": 4.0621154233,
				"z": -1.6200085638,
				"element": "H" 
			}
		],
		 "valence_orbital": [ 
			{
				"type": "occ",
				"energy": -0.28277,
				"method": "rhf"
			},
			{
				"type": "occ",
				"energy": -0.2783,
				"method": "rhf"
			},
			{
				"type": "occ",
				"energy": -0.26631,
				"method": "rhf"
			},
			{
				"type": "occ",
				"energy": -0.23584,
				"method": "rhf"
			},
			{
				"type": "occ",
				"energy": -0.22009,
				"method": "rhf"
			},
			{
				"type": "unocc",
				"energy": -0.05917,
				"method": "rhf"
			},
			{
				"type": "unocc",
				"energy": -0.03213,
				"method": "rhf"
			},
			{
				"type": "unocc",
				"energy": -0.01596,
				"method": "rhf"
			},
			{
				"type": "unocc",
				"energy": -0.00037,
				"method": "rhf"
			},
			{
				"type": "unocc",
				"energy": 0.05636,
				"method": "rhf"
			}
		],
		"cosmo_sigma_profile": { 
			"-0.025": 0.0,
			"-0.024": 0.0,
			"-0.023": 0.0,
			"-0.022": 0.0,
			"-0.021": 0.0,
			"-0.02": 0.0,
			"-0.019": 0.0,
			"-0.018": 0.0,
			"-0.017": 0.0,
			"-0.016": 0.0,
			"-0.015": 0.0,
			"-0.014": 0.0,
			"-0.013": 0.0,
			"-0.012": 0.0,
			"-0.011": 0.0704100083163,
			"-0.01": 2.74006538629,
			"-0.009": 7.49189224791,
			"-0.008": 11.3303548975,
			"-0.007": 16.7133846608,
			"-0.006": 20.628368428,
			"-0.005": 20.718586518,
			"-0.004": 19.6223350815,
			"-0.003": 15.6732953723,
			"-0.002": 12.2136539577,
			"-0.001": 15.2067091963,
			"0.0": 18.5167043228,
			"0.001": 17.8319591356,
			"0.002": 29.5582615573,
			"0.003": 29.5552647241,
			"0.004": 8.07552548355,
			"0.005": 4.50136470005,
			"0.006": 4.77672685648,
			"0.007": 3.75614463935,
			"0.008": 4.10365965612,
			"0.009": 4.10854469759,
			"0.01": 6.36393497564,
			"0.011": 10.0741223009,
			"0.012": 10.2941738979,
			"0.013": 2.53921634712,
			"0.014": 0.828219302107,
			"0.015": 0.419183345799,
			"0.016": 0.0,
			"0.017": 0.0,
			"0.018": 0.0,
			"0.019": 0.0,
			"0.02": 0.0,
			"0.021": 0.0,
			"0.022": 0.0,
			"0.023": 0.0,
			"0.024": 0.0,
			"0.025": 0.0
		}
	}
}
