{
	 "smiles": "NS(=O)(=O)C1=CN=C(Cl)C=C1", 
	 "Tm": 428.15, 
	 "num_atms": 16, 
	 "gaussian": { 
		 "optdone": 1, 
		 "sigma_profile": "yes", 
		 "theory": "DFT", 
		 "functional": "B3LYP", 
		 "basiset": "6-31G**", 
		 "properties": { 
			 "R2extent": 3985.0183, 
			 "electric_dipole_moment_norm": 3.55919059057, 
			 "electric_quadrupole_moment_norm": 13.4763792856, 
			 "total_energy": -1311.7971923, 
			 "HOMO_LUMO_gap": 0.21421, 
			 "cosmo_polarized_energy": -15.79, 
			 "cosmo_cavitation_energy": 24.12, 
			 "cosmo_dispersion_energy": -18.67, 
			 "cosmo_repulsion_energy": 1.46, 
			 "cosmo_total_nonelectrostatic_energy": 6.91, 
			 "SMD_solvation_energy": 2.18 
		},
		"coords": [
			{
				"x": -0.0171501228,
				"y": 0.6954566551,
				"z": 2.4797580588,
				"element": "N" 
			},
			{
				"x": 0.4590718356,
				"y": -0.9262961115,
				"z": 2.5364293878,
				"element": "S" 
			},
			{
				"x": -0.2483188338,
				"y": -1.5740127596,
				"z": 3.6427910199,
				"element": "O" 
			},
			{
				"x": 1.9185084163,
				"y": -0.9335990099,
				"z": 2.4146163954,
				"element": "O" 
			},
			{
				"x": -0.2087384013,
				"y": -1.5996116366,
				"z": 1.0178767475,
				"element": "C" 
			},
			{
				"x": -1.4513153707,
				"y": -2.2314185232,
				"z": 1.0163011634,
				"element": "C" 
			},
			{
				"x": -1.9908124316,
				"y": -2.7495395394,
				"z": -0.0948190789,
				"element": "N" 
			},
			{
				"x": -1.2943712678,
				"y": -2.6508579299,
				"z": -1.2140335861,
				"element": "C" 
			},
			{
				"x": -2.0255304122,
				"y": -3.3304335003,
				"z": -2.6578690627,
				"element": "Cl" 
			},
			{
				"x": -0.0306768531,
				"y": -2.0565746679,
				"z": -1.3231247197,
				"element": "C" 
			},
			{
				"x": 0.5233166861,
				"y": -1.5174558676,
				"z": -0.1694362838,
				"element": "C" 
			},
			{
				"x": -0.7207444515,
				"y": 0.8788404415,
				"z": 3.1904209938,
				"element": "H" 
			},
			{
				"x": 0.8005841904,
				"y": 1.2873625781,
				"z": 2.6008422484,
				"element": "H" 
			},
			{
				"x": -2.0212047385,
				"y": -2.3357715558,
				"z": 1.9348974647,
				"element": "H" 
			},
			{
				"x": 0.4888288769,
				"y": -2.0284892681,
				"z": -2.2731187155,
				"element": "H" 
			},
			{
				"x": 1.505652878,
				"y": -1.0573993051,
				"z": -0.1781320331,
				"element": "H" 
			}
		],
		 "valence_orbital": [ 
			{
				"type": "occ",
				"energy": -0.32288,
				"method": "rhf"
			},
			{
				"type": "occ",
				"energy": -0.32011,
				"method": "rhf"
			},
			{
				"type": "occ",
				"energy": -0.30942,
				"method": "rhf"
			},
			{
				"type": "occ",
				"energy": -0.29136,
				"method": "rhf"
			},
			{
				"type": "occ",
				"energy": -0.2771,
				"method": "rhf"
			},
			{
				"type": "unocc",
				"energy": -0.06289,
				"method": "rhf"
			},
			{
				"type": "unocc",
				"energy": -0.05352,
				"method": "rhf"
			},
			{
				"type": "unocc",
				"energy": 0.02037,
				"method": "rhf"
			},
			{
				"type": "unocc",
				"energy": 0.04306,
				"method": "rhf"
			},
			{
				"type": "unocc",
				"energy": 0.0681,
				"method": "rhf"
			}
		],
		"cosmo_sigma_profile": { 
			"-0.025": 0.0,
			"-0.024": 0.0,
			"-0.023": 0.0,
			"-0.022": 0.0,
			"-0.021": 0.0,
			"-0.02": 0.0,
			"-0.019": 0.0,
			"-0.018": 0.0,
			"-0.017": 0.0,
			"-0.016": 0.150988534097,
			"-0.015": 2.02894748391,
			"-0.014": 2.83911380343,
			"-0.013": 2.06022490968,
			"-0.012": 2.51725868981,
			"-0.011": 2.63689503959,
			"-0.01": 1.57104863189,
			"-0.009": 5.48853226614,
			"-0.008": 7.21830319952,
			"-0.007": 7.03656194598,
			"-0.006": 6.9746944434,
			"-0.005": 5.65188710961,
			"-0.004": 6.02142472052,
			"-0.003": 11.6474817237,
			"-0.002": 17.815480686,
			"-0.001": 16.5149584894,
			"0.0": 9.99546900184,
			"0.001": 8.99423203037,
			"0.002": 9.42046612654,
			"0.003": 11.4917454766,
			"0.004": 11.2640161363,
			"0.005": 5.38832551051,
			"0.006": 4.99260120579,
			"0.007": 4.8173551888,
			"0.008": 4.45745191613,
			"0.009": 6.68215958658,
			"0.01": 10.1464037804,
			"0.011": 7.936625318,
			"0.012": 1.64058244459,
			"0.013": 0.621862016655,
			"0.014": 0.0529079262581,
			"0.015": 0.0,
			"0.016": 0.0,
			"0.017": 0.0,
			"0.018": 0.0,
			"0.019": 0.0,
			"0.02": 0.0,
			"0.021": 0.0,
			"0.022": 0.0,
			"0.023": 0.0,
			"0.024": 0.0,
			"0.025": 0.0
		}
	}
}
