{
	 "smiles": "NS(=O)(=O)C1=C(C=CC=C1)C#N", 
	 "Tm": 580.15, 
	 "num_atms": 18, 
	 "gaussian": { 
		 "optdone": 1, 
		 "sigma_profile": "yes", 
		 "theory": "DFT", 
		 "functional": "B3LYP", 
		 "basiset": "6-31G**", 
		 "properties": { 
			 "R2extent": 2073.4935, 
			 "electric_dipole_moment_norm": 6.61891792516, 
			 "electric_quadrupole_moment_norm": 12.4056129925, 
			 "total_energy": -928.40530041, 
			 "HOMO_LUMO_gap": 0.20524, 
			 "cosmo_polarized_energy": -19.73, 
			 "cosmo_cavitation_energy": 24.53, 
			 "cosmo_dispersion_energy": -18.16, 
			 "cosmo_repulsion_energy": 1.39, 
			 "cosmo_total_nonelectrostatic_energy": 7.76, 
			 "SMD_solvation_energy": 4.88 
		},
		"coords": [
			{
				"x": 1.231851991,
				"y": -0.4672927998,
				"z": 2.2949399315,
				"element": "N" 
			},
			{
				"x": 1.347460818,
				"y": -1.0563209088,
				"z": 0.7441388886,
				"element": "S" 
			},
			{
				"x": 0.5900936898,
				"y": -2.3025854165,
				"z": 0.7135240235,
				"element": "O" 
			},
			{
				"x": 2.7596778629,
				"y": -0.9776760327,
				"z": 0.3766778928,
				"element": "O" 
			},
			{
				"x": 0.4882005926,
				"y": 0.1103936373,
				"z": -0.3514971135,
				"element": "C" 
			},
			{
				"x": -0.8563552859,
				"y": 0.4870485831,
				"z": -0.1496542216,
				"element": "C" 
			},
			{
				"x": -1.4832163987,
				"y": 1.3320495087,
				"z": -1.0791191668,
				"element": "C" 
			},
			{
				"x": -0.7837077748,
				"y": 1.7855682525,
				"z": -2.1957455691,
				"element": "C" 
			},
			{
				"x": 0.5457515066,
				"y": 1.4098224678,
				"z": -2.3878407745,
				"element": "C" 
			},
			{
				"x": 1.1813571062,
				"y": 0.5733864658,
				"z": -1.4668278316,
				"element": "C" 
			},
			{
				"x": -1.5889754764,
				"y": 0.0724006447,
				"z": 1.01089457,
				"element": "C" 
			},
			{
				"x": -2.1734106817,
				"y": -0.2211738477,
				"z": 1.9731683828,
				"element": "N" 
			},
			{
				"x": 1.7444038552,
				"y": 0.3920621448,
				"z": 2.4573463978,
				"element": "H" 
			},
			{
				"x": 0.2973913016,
				"y": -0.499875574,
				"z": 2.6910567297,
				"element": "H" 
			},
			{
				"x": -2.5145555654,
				"y": 1.6245885351,
				"z": -0.9138634035,
				"element": "H" 
			},
			{
				"x": -1.2782635499,
				"y": 2.4348970324,
				"z": -2.9109842011,
				"element": "H" 
			},
			{
				"x": 1.0929294826,
				"y": 1.7650423764,
				"z": -3.2554449818,
				"element": "H" 
			},
			{
				"x": 2.2137665261,
				"y": 0.2710649309,
				"z": -1.6003695534,
				"element": "H" 
			}
		],
		 "valence_orbital": [ 
			{
				"type": "occ",
				"energy": -0.32386,
				"method": "rhf"
			},
			{
				"type": "occ",
				"energy": -0.31474,
				"method": "rhf"
			},
			{
				"type": "occ",
				"energy": -0.31232,
				"method": "rhf"
			},
			{
				"type": "occ",
				"energy": -0.29191,
				"method": "rhf"
			},
			{
				"type": "occ",
				"energy": -0.28686,
				"method": "rhf"
			},
			{
				"type": "unocc",
				"energy": -0.08162,
				"method": "rhf"
			},
			{
				"type": "unocc",
				"energy": -0.05179,
				"method": "rhf"
			},
			{
				"type": "unocc",
				"energy": 0.00684,
				"method": "rhf"
			},
			{
				"type": "unocc",
				"energy": 0.04056,
				"method": "rhf"
			},
			{
				"type": "unocc",
				"energy": 0.05404,
				"method": "rhf"
			}
		],
		"cosmo_sigma_profile": { 
			"-0.025": 0.0,
			"-0.024": 0.0,
			"-0.023": 0.0,
			"-0.022": 0.0,
			"-0.021": 0.0,
			"-0.02": 0.0,
			"-0.019": 0.0,
			"-0.018": 0.0,
			"-0.017": 0.0566538276488,
			"-0.016": 1.09556491347,
			"-0.015": 1.58033169394,
			"-0.014": 1.31927386492,
			"-0.013": 1.84168448329,
			"-0.012": 2.38006703416,
			"-0.011": 1.53525517182,
			"-0.01": 2.38493713591,
			"-0.009": 4.58249068785,
			"-0.008": 9.91999319712,
			"-0.007": 12.472529806,
			"-0.006": 9.27892637754,
			"-0.005": 7.6690649296,
			"-0.004": 8.09321607947,
			"-0.003": 10.0549910034,
			"-0.002": 11.4522359752,
			"-0.001": 12.9724089507,
			"0.0": 15.2013513985,
			"0.001": 12.3300618942,
			"0.002": 4.32419925552,
			"0.003": 3.62660914431,
			"0.004": 4.76315673751,
			"0.005": 6.96197458829,
			"0.006": 6.37979724468,
			"0.007": 7.53880000478,
			"0.008": 6.81464488719,
			"0.009": 7.66526458348,
			"0.01": 12.4041496236,
			"0.011": 9.9196265231,
			"0.012": 1.434153727,
			"0.013": 0.0203221428868,
			"0.014": 0.0,
			"0.015": 0.0,
			"0.016": 0.0,
			"0.017": 0.0,
			"0.018": 0.0,
			"0.019": 0.0,
			"0.02": 0.0,
			"0.021": 0.0,
			"0.022": 0.0,
			"0.023": 0.0,
			"0.024": 0.0,
			"0.025": 0.0
		}
	}
}
