{
	 "smiles": "COC(=O)C1=NOC(C)=C1C(=O)C1=CC=CC=C1", 
	 "Tm": 364.15, 
	 "num_atms": 29, 
	 "gaussian": { 
		 "optdone": 1, 
		 "sigma_profile": "yes", 
		 "theory": "DFT", 
		 "functional": "B3LYP", 
		 "basiset": "6-31G**", 
		 "properties": { 
			 "R2extent": 5759.3011, 
			 "electric_dipole_moment_norm": 6.22490490369, 
			 "electric_quadrupole_moment_norm": 25.1786931184, 
			 "total_energy": -857.60895511, 
			 "HOMO_LUMO_gap": 0.18792, 
			 "cosmo_polarized_energy": -16.29, 
			 "cosmo_cavitation_energy": 34.68, 
			 "cosmo_dispersion_energy": -23.86, 
			 "cosmo_repulsion_energy": 1.87, 
			 "cosmo_total_nonelectrostatic_energy": 12.68, 
			 "SMD_solvation_energy": 8.03 
		},
		"coords": [
			{
				"x": 3.0075738569,
				"y": 0.7521126553,
				"z": 0.4837629512,
				"element": "C" 
			},
			{
				"x": 1.7349449283,
				"y": 1.0844666449,
				"z": -0.0991033792,
				"element": "O" 
			},
			{
				"x": 1.5640687726,
				"y": 2.3856986024,
				"z": -0.3927470866,
				"element": "C" 
			},
			{
				"x": 2.4064767744,
				"y": 3.2429626707,
				"z": -0.2682588984,
				"element": "O" 
			},
			{
				"x": 0.1829046842,
				"y": 2.6204822334,
				"z": -0.9213528575,
				"element": "C" 
			},
			{
				"x": 0.0255106053,
				"y": 3.4467846012,
				"z": -1.9268579923,
				"element": "N" 
			},
			{
				"x": -1.3436803696,
				"y": 3.4469498258,
				"z": -2.1871539673,
				"element": "O" 
			},
			{
				"x": -1.9777406154,
				"y": 2.6097565735,
				"z": -1.3387738417,
				"element": "C" 
			},
			{
				"x": -3.4624211779,
				"y": 2.569547345,
				"z": -1.4588560352,
				"element": "C" 
			},
			{
				"x": -1.0567947033,
				"y": 2.029857805,
				"z": -0.5014609258,
				"element": "C" 
			},
			{
				"x": -1.2499251004,
				"y": 1.1857529429,
				"z": 0.7120276124,
				"element": "C" 
			},
			{
				"x": -0.6256366339,
				"y": 1.4567271693,
				"z": 1.7299679523,
				"element": "O" 
			},
			{
				"x": -2.196110703,
				"y": 0.0289173276,
				"z": 0.6741436667,
				"element": "C" 
			},
			{
				"x": -2.5837408384,
				"y": -0.5902440998,
				"z": -0.5240379103,
				"element": "C" 
			},
			{
				"x": -3.4295636044,
				"y": -1.6993836907,
				"z": -0.4999130036,
				"element": "C" 
			},
			{
				"x": -3.9002620313,
				"y": -2.1918617709,
				"z": 0.7187489889,
				"element": "C" 
			},
			{
				"x": -3.5136415257,
				"y": -1.5829398005,
				"z": 1.9174782421,
				"element": "C" 
			},
			{
				"x": -2.6589920864,
				"y": -0.4854192004,
				"z": 1.8964340612,
				"element": "C" 
			},
			{
				"x": 3.1433247226,
				"y": 1.2888949659,
				"z": 1.4255335032,
				"element": "H" 
			},
			{
				"x": 2.9778001326,
				"y": -0.3231740879,
				"z": 0.6559321097,
				"element": "H" 
			},
			{
				"x": 3.8205356758,
				"y": 1.0131148619,
				"z": -0.1978649319,
				"element": "H" 
			},
			{
				"x": -3.8947659786,
				"y": 1.929955325,
				"z": -0.6899098308,
				"element": "H" 
			},
			{
				"x": -3.7612416245,
				"y": 2.1871197251,
				"z": -2.4406364313,
				"element": "H" 
			},
			{
				"x": -3.8744610506,
				"y": 3.5785885248,
				"z": -1.3579873111,
				"element": "H" 
			},
			{
				"x": -2.2025433621,
				"y": -0.2196886217,
				"z": -1.4702254176,
				"element": "H" 
			},
			{
				"x": -3.7161094527,
				"y": -2.1814525015,
				"z": -1.4298707815,
				"element": "H" 
			},
			{
				"x": -4.563198459,
				"y": -3.0522031636,
				"z": 0.7361982482,
				"element": "H" 
			},
			{
				"x": -3.8771464071,
				"y": -1.9693062517,
				"z": 2.86511108,
				"element": "H" 
			},
			{
				"x": -2.3322644284,
				"y": -0.006716611,
				"z": 2.8135721863,
				"element": "H" 
			}
		],
		 "valence_orbital": [ 
			{
				"type": "occ",
				"energy": -0.28084,
				"method": "rhf"
			},
			{
				"type": "occ",
				"energy": -0.27279,
				"method": "rhf"
			},
			{
				"type": "occ",
				"energy": -0.27104,
				"method": "rhf"
			},
			{
				"type": "occ",
				"energy": -0.27045,
				"method": "rhf"
			},
			{
				"type": "occ",
				"energy": -0.25923,
				"method": "rhf"
			},
			{
				"type": "unocc",
				"energy": -0.07131,
				"method": "rhf"
			},
			{
				"type": "unocc",
				"energy": -0.04331,
				"method": "rhf"
			},
			{
				"type": "unocc",
				"energy": -0.02053,
				"method": "rhf"
			},
			{
				"type": "unocc",
				"energy": -0.00734,
				"method": "rhf"
			},
			{
				"type": "unocc",
				"energy": 0.03061,
				"method": "rhf"
			}
		],
		"cosmo_sigma_profile": { 
			"-0.025": 0.0,
			"-0.024": 0.0,
			"-0.023": 0.0,
			"-0.022": 0.0,
			"-0.021": 0.0,
			"-0.02": 0.0,
			"-0.019": 0.0,
			"-0.018": 0.0,
			"-0.017": 0.0,
			"-0.016": 0.0,
			"-0.015": 0.0,
			"-0.014": 0.0,
			"-0.013": 0.0,
			"-0.012": 0.0,
			"-0.011": 0.0,
			"-0.01": 0.0,
			"-0.009": 0.0,
			"-0.008": 0.324678093988,
			"-0.007": 10.7751626685,
			"-0.006": 24.1776948818,
			"-0.005": 26.7808435502,
			"-0.004": 28.5918843977,
			"-0.003": 25.0095087282,
			"-0.002": 19.0111266936,
			"-0.001": 14.4940482233,
			"0.0": 14.6755496517,
			"0.001": 13.8433962696,
			"0.002": 14.8500370598,
			"0.003": 18.3107294051,
			"0.004": 13.145860905,
			"0.005": 7.20246572712,
			"0.006": 9.35532585023,
			"0.007": 6.13775126612,
			"0.008": 5.3138261694,
			"0.009": 5.00717440689,
			"0.01": 8.16539189746,
			"0.011": 9.6621287386,
			"0.012": 2.78229688202,
			"0.013": 0.310435874676,
			"0.014": 0.0,
			"0.015": 0.0,
			"0.016": 0.0,
			"0.017": 0.0,
			"0.018": 0.0,
			"0.019": 0.0,
			"0.02": 0.0,
			"0.021": 0.0,
			"0.022": 0.0,
			"0.023": 0.0,
			"0.024": 0.0,
			"0.025": 0.0
		}
	}
}
