{
	 "smiles": "OCC1=CC=C(C=C1)C1=CC=CC=C1", 
	 "Tm": 376.15, 
	 "num_atms": 26, 
	 "gaussian": { 
		 "optdone": 1, 
		 "sigma_profile": "yes", 
		 "theory": "DFT", 
		 "functional": "B3LYP", 
		 "basiset": "6-31G**", 
		 "properties": { 
			 "R2extent": 3979.0881, 
			 "electric_dipole_moment_norm": 1.77449865878, 
			 "electric_quadrupole_moment_norm": 17.0986232539, 
			 "total_energy": -577.835721951, 
			 "HOMO_LUMO_gap": 0.19275, 
			 "cosmo_polarized_energy": -9.81, 
			 "cosmo_cavitation_energy": 29.52, 
			 "cosmo_dispersion_energy": -21.85, 
			 "cosmo_repulsion_energy": 1.72, 
			 "cosmo_total_nonelectrostatic_energy": 9.39, 
			 "SMD_solvation_energy": 4.87 
		},
		"coords": [
			{
				"x": -1.1108119781,
				"y": 2.3540109498,
				"z": 4.4700496398,
				"element": "O" 
			},
			{
				"x": -1.0003106267,
				"y": 0.9712226991,
				"z": 4.1652436391,
				"element": "C" 
			},
			{
				"x": -0.5243432168,
				"y": 0.7965161927,
				"z": 2.7408760785,
				"element": "C" 
			},
			{
				"x": 0.0578695222,
				"y": -0.4108224498,
				"z": 2.337351217,
				"element": "C" 
			},
			{
				"x": 0.4602867721,
				"y": -0.6048774195,
				"z": 1.0188084971,
				"element": "C" 
			},
			{
				"x": 0.3014931669,
				"y": 0.4079928366,
				"z": 0.0573072956,
				"element": "C" 
			},
			{
				"x": -0.2766343576,
				"y": 1.6183880155,
				"z": 0.4732558396,
				"element": "C" 
			},
			{
				"x": -0.6853234059,
				"y": 1.8104674675,
				"z": 1.7918422714,
				"element": "C" 
			},
			{
				"x": 0.7354614443,
				"y": 0.205519973,
				"z": -1.3484358444,
				"element": "C" 
			},
			{
				"x": 0.5694480914,
				"y": -1.0368950405,
				"z": -1.984627149,
				"element": "C" 
			},
			{
				"x": 0.97729724,
				"y": -1.2279086901,
				"z": -3.3040967185,
				"element": "C" 
			},
			{
				"x": 1.5588950348,
				"y": -0.1795006754,
				"z": -4.0195883482,
				"element": "C" 
			},
			{
				"x": 1.7295818172,
				"y": 1.0609780862,
				"z": -3.4019449202,
				"element": "C" 
			},
			{
				"x": 1.3238462181,
				"y": 1.2505570696,
				"z": -2.0816260666,
				"element": "C" 
			},
			{
				"x": -1.5573938556,
				"y": 2.4366529595,
				"z": 5.3208881413,
				"element": "H" 
			},
			{
				"x": -1.974633079,
				"y": 0.4662067346,
				"z": 4.2834558329,
				"element": "H" 
			},
			{
				"x": -0.2976640635,
				"y": 0.4642891182,
				"z": 4.8468142173,
				"element": "H" 
			},
			{
				"x": 0.2108325644,
				"y": -1.2056115503,
				"z": 3.0645528409,
				"element": "H" 
			},
			{
				"x": 0.9351574964,
				"y": -1.5400908323,
				"z": 0.7369842183,
				"element": "H" 
			},
			{
				"x": -0.431545392,
				"y": 2.4118778052,
				"z": -0.2522075732,
				"element": "H" 
			},
			{
				"x": -1.131483737,
				"y": 2.7503647375,
				"z": 2.0970541041,
				"element": "H" 
			},
			{
				"x": 0.0931126626,
				"y": -1.8512404906,
				"z": -1.4464764766,
				"element": "H" 
			},
			{
				"x": 0.8317397774,
				"y": -2.1951468618,
				"z": -3.7771994771,
				"element": "H" 
			},
			{
				"x": 1.8758983807,
				"y": -0.3276623711,
				"z": -5.0478706151,
				"element": "H" 
			},
			{
				"x": 2.1888321333,
				"y": 1.8815791882,
				"z": -3.946212694,
				"element": "H" 
			},
			{
				"x": 1.4866913904,
				"y": 2.2113325483,
				"z": -1.60219795,
				"element": "H" 
			}
		],
		 "valence_orbital": [ 
			{
				"type": "occ",
				"energy": -0.27962,
				"method": "rhf"
			},
			{
				"type": "occ",
				"energy": -0.26129,
				"method": "rhf"
			},
			{
				"type": "occ",
				"energy": -0.24643,
				"method": "rhf"
			},
			{
				"type": "occ",
				"energy": -0.24488,
				"method": "rhf"
			},
			{
				"type": "occ",
				"energy": -0.2156,
				"method": "rhf"
			},
			{
				"type": "unocc",
				"energy": -0.02285,
				"method": "rhf"
			},
			{
				"type": "unocc",
				"energy": 0.00045,
				"method": "rhf"
			},
			{
				"type": "unocc",
				"energy": 0.00454,
				"method": "rhf"
			},
			{
				"type": "unocc",
				"energy": 0.03285,
				"method": "rhf"
			},
			{
				"type": "unocc",
				"energy": 0.07407,
				"method": "rhf"
			}
		],
		"cosmo_sigma_profile": { 
			"-0.025": 0.0,
			"-0.024": 0.0,
			"-0.023": 0.0,
			"-0.022": 0.0,
			"-0.021": 0.0,
			"-0.02": 0.0,
			"-0.019": 0.0,
			"-0.018": 0.0,
			"-0.017": 0.0779997376401,
			"-0.016": 0.75253037344,
			"-0.015": 0.919818717508,
			"-0.014": 1.17145572658,
			"-0.013": 0.677582331961,
			"-0.012": 0.927961773371,
			"-0.011": 1.15895329573,
			"-0.01": 0.674816621548,
			"-0.009": 0.536302803767,
			"-0.008": 0.814148231643,
			"-0.007": 1.307913089,
			"-0.006": 6.00409949099,
			"-0.005": 21.6041652734,
			"-0.004": 26.0409825857,
			"-0.003": 23.2478687111,
			"-0.002": 15.2994548199,
			"-0.001": 13.3784127919,
			"0.0": 13.5540164554,
			"0.001": 10.7707485191,
			"0.002": 14.676538944,
			"0.003": 17.2494064964,
			"0.004": 16.9524336428,
			"0.005": 20.4061646823,
			"0.006": 16.3109145204,
			"0.007": 1.59669378715,
			"0.008": 1.57516783266,
			"0.009": 2.18155297807,
			"0.01": 1.4284197364,
			"0.011": 1.26686984397,
			"0.012": 0.898944218103,
			"0.013": 1.08223017919,
			"0.014": 0.566364083816,
			"0.015": 0.00914825217713,
			"0.016": 0.0,
			"0.017": 0.0,
			"0.018": 0.0,
			"0.019": 0.0,
			"0.02": 0.0,
			"0.021": 0.0,
			"0.022": 0.0,
			"0.023": 0.0,
			"0.024": 0.0,
			"0.025": 0.0
		}
	}
}
