{
	 "smiles": "CC(=O)N1N=C(CC1C1=CC=CC=C1Cl)C1=CC=C2C=CC=CC2=C1", 
	 "Tm": 446.15, 
	 "num_atms": 42, 
	 "gaussian": { 
		 "optdone": 1, 
		 "sigma_profile": "yes", 
		 "theory": "DFT", 
		 "functional": "B3LYP", 
		 "basiset": "6-31G**", 
		 "properties": { 
			 "R2extent": 11741.5768, 
			 "electric_dipole_moment_norm": 3.07470763976, 
			 "electric_quadrupole_moment_norm": 14.0149195948, 
			 "total_energy": -1455.40790385, 
			 "HOMO_LUMO_gap": 0.15056, 
			 "cosmo_polarized_energy": -15.17, 
			 "cosmo_cavitation_energy": 47.09, 
			 "cosmo_dispersion_energy": -32.62, 
			 "cosmo_repulsion_energy": 2.44, 
			 "cosmo_total_nonelectrostatic_energy": 16.91, 
			 "SMD_solvation_energy": 7.23 
		},
		"coords": [
			{
				"x": 1.1332230034,
				"y": 3.4628042519,
				"z": 2.0974250502,
				"element": "C" 
			},
			{
				"x": 0.4632874091,
				"y": 3.1232127527,
				"z": 0.7828628342,
				"element": "C" 
			},
			{
				"x": 0.0949786209,
				"y": 3.9582111712,
				"z": -0.0333758634,
				"element": "O" 
			},
			{
				"x": 0.2667104687,
				"y": 1.7792298975,
				"z": 0.5265132823,
				"element": "N" 
			},
			{
				"x": 0.8704898003,
				"y": 0.7989248865,
				"z": 1.275465706,
				"element": "N" 
			},
			{
				"x": 0.7579713605,
				"y": -0.3346409084,
				"z": 0.6646674627,
				"element": "C" 
			},
			{
				"x": 0.0218010519,
				"y": -0.2322046228,
				"z": -0.6596050031,
				"element": "C" 
			},
			{
				"x": -0.2766538851,
				"y": 1.2878699239,
				"z": -0.7637213431,
				"element": "C" 
			},
			{
				"x": -1.7250448721,
				"y": 1.6698576381,
				"z": -1.0251760866,
				"element": "C" 
			},
			{
				"x": -2.0155395344,
				"y": 2.4026368363,
				"z": -2.185117857,
				"element": "C" 
			},
			{
				"x": -3.3159030272,
				"y": 2.7646575183,
				"z": -2.5257284998,
				"element": "C" 
			},
			{
				"x": -4.3737248285,
				"y": 2.4038257222,
				"z": -1.6916464823,
				"element": "C" 
			},
			{
				"x": -4.1193787825,
				"y": 1.6855759814,
				"z": -0.5252332371,
				"element": "C" 
			},
			{
				"x": -2.8098138847,
				"y": 1.3259772939,
				"z": -0.2037897593,
				"element": "C" 
			},
			{
				"x": -2.5732185859,
				"y": 0.4222004622,
				"z": 1.2924081844,
				"element": "Cl" 
			},
			{
				"x": 1.297543425,
				"y": -1.5723057416,
				"z": 1.227187279,
				"element": "C" 
			},
			{
				"x": 1.9711735663,
				"y": -1.5552715893,
				"z": 2.4873345343,
				"element": "C" 
			},
			{
				"x": 2.4858143781,
				"y": -2.7078443279,
				"z": 3.0207175575,
				"element": "C" 
			},
			{
				"x": 2.366898305,
				"y": -3.9545916754,
				"z": 2.3420439708,
				"element": "C" 
			},
			{
				"x": 2.889372003,
				"y": -5.1629634313,
				"z": 2.8697624624,
				"element": "C" 
			},
			{
				"x": 2.7530174149,
				"y": -6.3502087996,
				"z": 2.1826840794,
				"element": "C" 
			},
			{
				"x": 2.0857696666,
				"y": -6.3800996906,
				"z": 0.9342726895,
				"element": "C" 
			},
			{
				"x": 1.5674645314,
				"y": -5.2231634418,
				"z": 0.3956153037,
				"element": "C" 
			},
			{
				"x": 1.691950062,
				"y": -3.9834165232,
				"z": 1.0789994777,
				"element": "C" 
			},
			{
				"x": 1.1695112397,
				"y": -2.7745068516,
				"z": 0.5503073781,
				"element": "C" 
			},
			{
				"x": 2.1614124888,
				"y": 3.08958887,
				"z": 2.1144917304,
				"element": "H" 
			},
			{
				"x": 0.6100210635,
				"y": 2.9979603283,
				"z": 2.9370950791,
				"element": "H" 
			},
			{
				"x": 1.131766713,
				"y": 4.5475699005,
				"z": 2.2036826564,
				"element": "H" 
			},
			{
				"x": -0.8907721738,
				"y": -0.8350600148,
				"z": -0.6534306714,
				"element": "H" 
			},
			{
				"x": 0.6392904169,
				"y": -0.5814078867,
				"z": -1.4934837136,
				"element": "H" 
			},
			{
				"x": 0.3159195123,
				"y": 1.7425765139,
				"z": -1.5633955605,
				"element": "H" 
			},
			{
				"x": -1.1895823201,
				"y": 2.7044172957,
				"z": -2.8224920273,
				"element": "H" 
			},
			{
				"x": -3.4993632231,
				"y": 3.333491068,
				"z": -3.4319045675,
				"element": "H" 
			},
			{
				"x": -5.3935931837,
				"y": 2.6820659034,
				"z": -1.9394325332,
				"element": "H" 
			},
			{
				"x": -4.9261919673,
				"y": 1.4005824656,
				"z": 0.1409325247,
				"element": "H" 
			},
			{
				"x": 2.0632390231,
				"y": -0.609827473,
				"z": 3.0099924157,
				"element": "H" 
			},
			{
				"x": 2.9960913559,
				"y": -2.6833822351,
				"z": 3.9803048869,
				"element": "H" 
			},
			{
				"x": 3.4008353487,
				"y": -5.1373779322,
				"z": 3.8286242998,
				"element": "H" 
			},
			{
				"x": 3.157500529,
				"y": -7.268889104,
				"z": 2.5974987617,
				"element": "H" 
			},
			{
				"x": 1.9839619654,
				"y": -7.3214696979,
				"z": 0.4021781602,
				"element": "H" 
			},
			{
				"x": 1.0542913663,
				"y": -5.2438184194,
				"z": -0.5625612243,
				"element": "H" 
			},
			{
				"x": 0.6585741786,
				"y": -2.8130863148,
				"z": -0.4077733377,
				"element": "H" 
			}
		],
		 "valence_orbital": [ 
			{
				"type": "occ",
				"energy": -0.25972,
				"method": "rhf"
			},
			{
				"type": "occ",
				"energy": -0.24771,
				"method": "rhf"
			},
			{
				"type": "occ",
				"energy": -0.24212,
				"method": "rhf"
			},
			{
				"type": "occ",
				"energy": -0.22696,
				"method": "rhf"
			},
			{
				"type": "occ",
				"energy": -0.20687,
				"method": "rhf"
			},
			{
				"type": "unocc",
				"energy": -0.05631,
				"method": "rhf"
			},
			{
				"type": "unocc",
				"energy": -0.03039,
				"method": "rhf"
			},
			{
				"type": "unocc",
				"energy": -0.01736,
				"method": "rhf"
			},
			{
				"type": "unocc",
				"energy": -0.01153,
				"method": "rhf"
			},
			{
				"type": "unocc",
				"energy": 0.01427,
				"method": "rhf"
			}
		],
		"cosmo_sigma_profile": { 
			"-0.025": 0.0,
			"-0.024": 0.0,
			"-0.023": 0.0,
			"-0.022": 0.0,
			"-0.021": 0.0,
			"-0.02": 0.0,
			"-0.019": 0.0,
			"-0.018": 0.0,
			"-0.017": 0.0,
			"-0.016": 0.0,
			"-0.015": 0.0,
			"-0.014": 0.0,
			"-0.013": 0.0,
			"-0.012": 0.0,
			"-0.011": 0.0,
			"-0.01": 0.0,
			"-0.009": 0.0,
			"-0.008": 0.65096983767,
			"-0.007": 9.27192982915,
			"-0.006": 31.4059564298,
			"-0.005": 32.1660930267,
			"-0.004": 29.6817889333,
			"-0.003": 27.2390560906,
			"-0.002": 24.3580379982,
			"-0.001": 25.2763226873,
			"0.0": 23.6274020082,
			"0.001": 24.4210127649,
			"0.002": 28.3208627711,
			"0.003": 38.2493475417,
			"0.004": 39.3463098717,
			"0.005": 18.6840543889,
			"0.006": 4.10864359392,
			"0.007": 4.35903612362,
			"0.008": 2.68636942371,
			"0.009": 1.50587046431,
			"0.01": 2.3497483617,
			"0.011": 2.70437176885,
			"0.012": 2.19797244242,
			"0.013": 3.68898297677,
			"0.014": 1.96571401297,
			"0.015": 0.30530481936,
			"0.016": 0.0,
			"0.017": 0.0,
			"0.018": 0.0,
			"0.019": 0.0,
			"0.02": 0.0,
			"0.021": 0.0,
			"0.022": 0.0,
			"0.023": 0.0,
			"0.024": 0.0,
			"0.025": 0.0
		}
	}
}
