{
	 "smiles": "OC(=O)C1=CC=C(CN2C(=O)CNC2=O)C=C1", 
	 "Tm": 556.15, 
	 "num_atms": 27, 
	 "gaussian": { 
		 "optdone": 1, 
		 "sigma_profile": "yes", 
		 "theory": "DFT", 
		 "functional": "B3LYP", 
		 "basiset": "6-31G**", 
		 "properties": { 
			 "R2extent": 5065.8011, 
			 "electric_dipole_moment_norm": 5.45470462445, 
			 "electric_quadrupole_moment_norm": 26.5501058638, 
			 "total_energy": -835.64534171, 
			 "HOMO_LUMO_gap": 0.20851, 
			 "cosmo_polarized_energy": -24.54, 
			 "cosmo_cavitation_energy": 32.39, 
			 "cosmo_dispersion_energy": -23.17, 
			 "cosmo_repulsion_energy": 1.8, 
			 "cosmo_total_nonelectrostatic_energy": 11.02, 
			 "SMD_solvation_energy": 6.99 
		},
		"coords": [
			{
				"x": 0.1503838371,
				"y": 4.7683113375,
				"z": 1.1541723888,
				"element": "O" 
			},
			{
				"x": -0.8042001496,
				"y": 3.7998598181,
				"z": 1.1056977849,
				"element": "C" 
			},
			{
				"x": -1.9719648202,
				"y": 4.0998084142,
				"z": 1.1889254911,
				"element": "O" 
			},
			{
				"x": -0.3251686202,
				"y": 2.3874671697,
				"z": 0.9489019966,
				"element": "C" 
			},
			{
				"x": -1.203575647,
				"y": 1.357787693,
				"z": 1.3121315629,
				"element": "C" 
			},
			{
				"x": -0.815258181,
				"y": 0.0271450324,
				"z": 1.1905157198,
				"element": "C" 
			},
			{
				"x": 0.4518636225,
				"y": -0.3002795539,
				"z": 0.688644635,
				"element": "C" 
			},
			{
				"x": 0.868078655,
				"y": -1.751306078,
				"z": 0.5376504013,
				"element": "C" 
			},
			{
				"x": 0.5567504734,
				"y": -2.2960163607,
				"z": -0.7820113816,
				"element": "N" 
			},
			{
				"x": -0.6404771619,
				"y": -2.8949869535,
				"z": -1.117067497,
				"element": "C" 
			},
			{
				"x": -1.5859913576,
				"y": -3.088073251,
				"z": -0.3799805174,
				"element": "O" 
			},
			{
				"x": -0.5247562504,
				"y": -3.2665439172,
				"z": -2.6005801516,
				"element": "C" 
			},
			{
				"x": 0.8197776108,
				"y": -2.8317525384,
				"z": -2.9250292248,
				"element": "N" 
			},
			{
				"x": 1.4470291785,
				"y": -2.2098523168,
				"z": -1.8774691014,
				"element": "C" 
			},
			{
				"x": 2.5463137903,
				"y": -1.6906135616,
				"z": -1.8510602364,
				"element": "O" 
			},
			{
				"x": 1.3194005504,
				"y": 0.7267190974,
				"z": 0.2967058853,
				"element": "C" 
			},
			{
				"x": 0.9349318622,
				"y": 2.0596380288,
				"z": 0.4276457626,
				"element": "C" 
			},
			{
				"x": 1.0268166943,
				"y": 4.3683086138,
				"z": 1.2388590561,
				"element": "H" 
			},
			{
				"x": -2.184683734,
				"y": 1.6246350666,
				"z": 1.6898708224,
				"element": "H" 
			},
			{
				"x": -1.4993322345,
				"y": -0.7685596446,
				"z": 1.4711306819,
				"element": "H" 
			},
			{
				"x": 0.3486474634,
				"y": -2.3776273118,
				"z": 1.2665830927,
				"element": "H" 
			},
			{
				"x": 1.9460366629,
				"y": -1.8591818291,
				"z": 0.6762870847,
				"element": "H" 
			},
			{
				"x": -1.3007895776,
				"y": -2.7421838133,
				"z": -3.1713241377,
				"element": "H" 
			},
			{
				"x": -0.6722193721,
				"y": -4.3451533024,
				"z": -2.7266956052,
				"element": "H" 
			},
			{
				"x": 1.2114450861,
				"y": -2.7874143491,
				"z": -3.8518852998,
				"element": "H" 
			},
			{
				"x": 2.2852235705,
				"y": 0.4743795502,
				"z": -0.130771233,
				"element": "H" 
			},
			{
				"x": 1.6142180485,
				"y": 2.8353849597,
				"z": 0.0815520201,
				"element": "H" 
			}
		],
		 "valence_orbital": [ 
			{
				"type": "occ",
				"energy": -0.27823,
				"method": "rhf"
			},
			{
				"type": "occ",
				"energy": -0.27647,
				"method": "rhf"
			},
			{
				"type": "occ",
				"energy": -0.27346,
				"method": "rhf"
			},
			{
				"type": "occ",
				"energy": -0.27071,
				"method": "rhf"
			},
			{
				"type": "occ",
				"energy": -0.26195,
				"method": "rhf"
			},
			{
				"type": "unocc",
				"energy": -0.05344,
				"method": "rhf"
			},
			{
				"type": "unocc",
				"energy": -0.02301,
				"method": "rhf"
			},
			{
				"type": "unocc",
				"energy": -0.01857,
				"method": "rhf"
			},
			{
				"type": "unocc",
				"energy": 0.04049,
				"method": "rhf"
			},
			{
				"type": "unocc",
				"energy": 0.04971,
				"method": "rhf"
			}
		],
		"cosmo_sigma_profile": { 
			"-0.025": 0.0,
			"-0.024": 0.0,
			"-0.023": 0.0,
			"-0.022": 0.0,
			"-0.021": 0.0,
			"-0.02": 0.0,
			"-0.019": 0.191881264894,
			"-0.018": 0.796464023035,
			"-0.017": 1.07286942599,
			"-0.016": 1.24940215295,
			"-0.015": 2.22985586832,
			"-0.014": 2.24324596517,
			"-0.013": 2.44995389974,
			"-0.012": 2.10814854238,
			"-0.011": 1.50180732184,
			"-0.01": 3.02532904562,
			"-0.009": 2.71607981351,
			"-0.008": 8.12310171811,
			"-0.007": 10.5558791199,
			"-0.006": 17.1193427096,
			"-0.005": 18.4671385988,
			"-0.004": 15.723461816,
			"-0.003": 15.7307061319,
			"-0.002": 12.8297638758,
			"-0.001": 12.6591153645,
			"0.0": 10.2605840439,
			"0.001": 13.9785265889,
			"0.002": 16.4360290314,
			"0.003": 18.2270855182,
			"0.004": 5.94418535345,
			"0.005": 4.51961253402,
			"0.006": 5.96168077195,
			"0.007": 4.96320884387,
			"0.008": 5.08212545008,
			"0.009": 5.92969552062,
			"0.01": 8.07451217352,
			"0.011": 10.1135363429,
			"0.012": 12.2325866831,
			"0.013": 5.56247926131,
			"0.014": 0.420980008929,
			"0.015": 0.0,
			"0.016": 0.0,
			"0.017": 0.0,
			"0.018": 0.0,
			"0.019": 0.0,
			"0.02": 0.0,
			"0.021": 0.0,
			"0.022": 0.0,
			"0.023": 0.0,
			"0.024": 0.0,
			"0.025": 0.0
		}
	}
}
