{
	 "smiles": "ClC1=NN2C(C=C1)=NN=C2C1=CC=CC=C1", 
	 "Tm": 475.15, 
	 "num_atms": 23, 
	 "gaussian": { 
		 "optdone": 1, 
		 "sigma_profile": "yes", 
		 "theory": "DFT", 
		 "functional": "B3LYP", 
		 "basiset": "6-31G**", 
		 "properties": { 
			 "R2extent": 4867.8195, 
			 "electric_dipole_moment_norm": 2.90763396768, 
			 "electric_quadrupole_moment_norm": 20.9785980973, 
			 "total_energy": -1102.53242892, 
			 "HOMO_LUMO_gap": 0.14115, 
			 "cosmo_polarized_energy": -12.73, 
			 "cosmo_cavitation_energy": 29.81, 
			 "cosmo_dispersion_energy": -22.39, 
			 "cosmo_repulsion_energy": 1.71, 
			 "cosmo_total_nonelectrostatic_energy": 9.12, 
			 "SMD_solvation_energy": 2.25 
		},
		"coords": [
			{
				"x": -2.5686860492,
				"y": 3.4472208608,
				"z": 2.6583441084,
				"element": "Cl" 
			},
			{
				"x": -1.0698953177,
				"y": 2.5846147718,
				"z": 2.4151296972,
				"element": "C" 
			},
			{
				"x": -1.035091521,
				"y": 1.7933613369,
				"z": 1.3823862588,
				"element": "N" 
			},
			{
				"x": 0.1400179178,
				"y": 1.1372739039,
				"z": 1.2184221684,
				"element": "N" 
			},
			{
				"x": 1.2591792636,
				"y": 1.2539572987,
				"z": 2.0498062412,
				"element": "C" 
			},
			{
				"x": 1.1676072794,
				"y": 2.1266798707,
				"z": 3.1564960147,
				"element": "C" 
			},
			{
				"x": -0.0060305499,
				"y": 2.8029281292,
				"z": 3.348214545,
				"element": "C" 
			},
			{
				"x": 2.2308012164,
				"y": 0.475129123,
				"z": 1.5996514625,
				"element": "N" 
			},
			{
				"x": 1.7588204891,
				"y": -0.1442337293,
				"z": 0.4903567866,
				"element": "N" 
			},
			{
				"x": 0.5044465531,
				"y": 0.2379575612,
				"z": 0.2418844227,
				"element": "C" 
			},
			{
				"x": -0.2935450578,
				"y": -0.248146358,
				"z": -0.8862975639,
				"element": "C" 
			},
			{
				"x": -1.6132848686,
				"y": 0.1655548573,
				"z": -1.1369807265,
				"element": "C" 
			},
			{
				"x": -2.3065524045,
				"y": -0.3452007252,
				"z": -2.2345387783,
				"element": "C" 
			},
			{
				"x": -1.7025995411,
				"y": -1.2661346988,
				"z": -3.0904183736,
				"element": "C" 
			},
			{
				"x": -0.3899601767,
				"y": -1.6801201918,
				"z": -2.8446010491,
				"element": "C" 
			},
			{
				"x": 0.3111577778,
				"y": -1.1782790349,
				"z": -1.7540925366,
				"element": "C" 
			},
			{
				"x": 2.0212862674,
				"y": 2.2346351728,
				"z": 3.8156772305,
				"element": "H" 
			},
			{
				"x": -0.1532722391,
				"y": 3.4887200456,
				"z": 4.1723607987,
				"element": "H" 
			},
			{
				"x": -2.0915697137,
				"y": 0.8795431795,
				"z": -0.4794650156,
				"element": "H" 
			},
			{
				"x": -3.3258780053,
				"y": -0.0182311971,
				"z": -2.4182022637,
				"element": "H" 
			},
			{
				"x": -2.2486812353,
				"y": -1.6595098584,
				"z": -3.9429582866,
				"element": "H" 
			},
			{
				"x": 0.0887212354,
				"y": -2.3968098919,
				"z": -3.5055052697,
				"element": "H" 
			},
			{
				"x": 1.3293086799,
				"y": -1.4925104262,
				"z": -1.5542698712,
				"element": "H" 
			}
		],
		 "valence_orbital": [ 
			{
				"type": "occ",
				"energy": -0.29244,
				"method": "rhf"
			},
			{
				"type": "occ",
				"energy": -0.28153,
				"method": "rhf"
			},
			{
				"type": "occ",
				"energy": -0.26162,
				"method": "rhf"
			},
			{
				"type": "occ",
				"energy": -0.25484,
				"method": "rhf"
			},
			{
				"type": "occ",
				"energy": -0.22746,
				"method": "rhf"
			},
			{
				"type": "unocc",
				"energy": -0.08631,
				"method": "rhf"
			},
			{
				"type": "unocc",
				"energy": -0.04821,
				"method": "rhf"
			},
			{
				"type": "unocc",
				"energy": -0.01047,
				"method": "rhf"
			},
			{
				"type": "unocc",
				"energy": -0.00103,
				"method": "rhf"
			},
			{
				"type": "unocc",
				"energy": 0.00464,
				"method": "rhf"
			}
		],
		"cosmo_sigma_profile": { 
			"-0.025": 0.0,
			"-0.024": 0.0,
			"-0.023": 0.0,
			"-0.022": 0.0,
			"-0.021": 0.0,
			"-0.02": 0.0,
			"-0.019": 0.0,
			"-0.018": 0.0,
			"-0.017": 0.0,
			"-0.016": 0.0,
			"-0.015": 0.0,
			"-0.014": 0.0,
			"-0.013": 0.0,
			"-0.012": 0.0,
			"-0.011": 0.348137929951,
			"-0.01": 3.55999594877,
			"-0.009": 4.11039724017,
			"-0.008": 4.14584063989,
			"-0.007": 4.83061868123,
			"-0.006": 10.2799840597,
			"-0.005": 15.1198106681,
			"-0.004": 20.584953663,
			"-0.003": 21.4946501976,
			"-0.002": 18.9175051951,
			"-0.001": 16.0452820051,
			"0.0": 15.221639161,
			"0.001": 17.9961385094,
			"0.002": 20.6231706011,
			"0.003": 22.0390837887,
			"0.004": 18.4772587476,
			"0.005": 8.33273861544,
			"0.006": 1.20757965986,
			"0.007": 2.13622795932,
			"0.008": 1.94698158072,
			"0.009": 1.83701681964,
			"0.01": 2.77172274172,
			"0.011": 2.41605470654,
			"0.012": 3.35453913997,
			"0.013": 2.9236442002,
			"0.014": 1.83609674551,
			"0.015": 1.37322176763,
			"0.016": 0.435613540044,
			"0.017": 0.0,
			"0.018": 0.0,
			"0.019": 0.0,
			"0.02": 0.0,
			"0.021": 0.0,
			"0.022": 0.0,
			"0.023": 0.0,
			"0.024": 0.0,
			"0.025": 0.0
		}
	}
}
