{
	 "smiles": "CC(C)CC(C)N1N=CC=C1N", 
	 "Tm": 329.15, 
	 "num_atms": 29, 
	 "gaussian": { 
		 "optdone": 1, 
		 "sigma_profile": "yes", 
		 "theory": "DFT", 
		 "functional": "B3LYP", 
		 "basiset": "6-31G**", 
		 "properties": { 
			 "R2extent": 2441.4451, 
			 "electric_dipole_moment_norm": 2.91489376993, 
			 "electric_quadrupole_moment_norm": 8.52851821303, 
			 "total_energy": -517.449890683, 
			 "HOMO_LUMO_gap": 0.24271, 
			 "cosmo_polarized_energy": -11.13, 
			 "cosmo_cavitation_energy": 30.06, 
			 "cosmo_dispersion_energy": -20.85, 
			 "cosmo_repulsion_energy": 1.68, 
			 "cosmo_total_nonelectrostatic_energy": 10.9, 
			 "SMD_solvation_energy": 4.88 
		},
		"coords": [
			{
				"x": 0.0368593,
				"y": -1.4647830233,
				"z": -3.2387514575,
				"element": "C" 
			},
			{
				"x": 0.7434279544,
				"y": -1.2437258778,
				"z": -1.8912969078,
				"element": "C" 
			},
			{
				"x": 1.9336531736,
				"y": -2.2091496499,
				"z": -1.761423345,
				"element": "C" 
			},
			{
				"x": -0.2657611775,
				"y": -1.3890717395,
				"z": -0.7243918131,
				"element": "C" 
			},
			{
				"x": -0.0518619167,
				"y": -0.4918977994,
				"z": 0.5194782702,
				"element": "C" 
			},
			{
				"x": 1.2882025892,
				"y": -0.6756976001,
				"z": 1.2369185163,
				"element": "C" 
			},
			{
				"x": -0.2631916605,
				"y": 0.9260879418,
				"z": 0.2032122058,
				"element": "N" 
			},
			{
				"x": 0.7440754688,
				"y": 1.7004393534,
				"z": -0.2898528033,
				"element": "N" 
			},
			{
				"x": 0.1991285655,
				"y": 2.9039141507,
				"z": -0.445199666,
				"element": "C" 
			},
			{
				"x": -1.1634667319,
				"y": 2.9255787421,
				"z": -0.0816527219,
				"element": "C" 
			},
			{
				"x": -1.4290032332,
				"y": 1.6261405053,
				"z": 0.3264575333,
				"element": "C" 
			},
			{
				"x": -2.5812009507,
				"y": 1.0304213026,
				"z": 0.8647238793,
				"element": "N" 
			},
			{
				"x": -0.7638965757,
				"y": -0.7334578954,
				"z": -3.3943082848,
				"element": "H" 
			},
			{
				"x": -0.4094499348,
				"y": -2.466193268,
				"z": -3.292005701,
				"element": "H" 
			},
			{
				"x": 0.7399196641,
				"y": -1.3726710396,
				"z": -4.073758944,
				"element": "H" 
			},
			{
				"x": 1.1260842556,
				"y": -0.2161108799,
				"z": -1.8765481381,
				"element": "H" 
			},
			{
				"x": 2.4795626873,
				"y": -2.0746801808,
				"z": -0.8242700159,
				"element": "H" 
			},
			{
				"x": 1.5939752802,
				"y": -3.252126746,
				"z": -1.8019769699,
				"element": "H" 
			},
			{
				"x": 2.6447583378,
				"y": -2.0621002178,
				"z": -2.5817604619,
				"element": "H" 
			},
			{
				"x": -0.2945745643,
				"y": -2.4343675933,
				"z": -0.3859566939,
				"element": "H" 
			},
			{
				"x": -1.2744982044,
				"y": -1.1707135053,
				"z": -1.100825345,
				"element": "H" 
			},
			{
				"x": -0.8524825485,
				"y": -0.7333859028,
				"z": 1.2282766599,
				"element": "H" 
			},
			{
				"x": 1.3019650334,
				"y": -0.0949222371,
				"z": 2.1635150924,
				"element": "H" 
			},
			{
				"x": 1.4353164301,
				"y": -1.7308115005,
				"z": 1.487045757,
				"element": "H" 
			},
			{
				"x": 2.1192212635,
				"y": -0.3352102968,
				"z": 0.6181540796,
				"element": "H" 
			},
			{
				"x": 0.8047218017,
				"y": 3.7181990849,
				"z": -0.8218555536,
				"element": "H" 
			},
			{
				"x": -1.8571026951,
				"y": 3.7529891903,
				"z": -0.1143573786,
				"element": "H" 
			},
			{
				"x": -2.9430645475,
				"y": 0.2703474088,
				"z": 0.2965211536,
				"element": "H" 
			},
			{
				"x": -3.3146170644,
				"y": 1.7153592732,
				"z": 1.0010890541,
				"element": "H" 
			}
		],
		 "valence_orbital": [ 
			{
				"type": "occ",
				"energy": -0.30944,
				"method": "rhf"
			},
			{
				"type": "occ",
				"energy": -0.30449,
				"method": "rhf"
			},
			{
				"type": "occ",
				"energy": -0.26843,
				"method": "rhf"
			},
			{
				"type": "occ",
				"energy": -0.23288,
				"method": "rhf"
			},
			{
				"type": "occ",
				"energy": -0.20604,
				"method": "rhf"
			},
			{
				"type": "unocc",
				"energy": 0.03667,
				"method": "rhf"
			},
			{
				"type": "unocc",
				"energy": 0.06201,
				"method": "rhf"
			},
			{
				"type": "unocc",
				"energy": 0.08704,
				"method": "rhf"
			},
			{
				"type": "unocc",
				"energy": 0.09304,
				"method": "rhf"
			},
			{
				"type": "unocc",
				"energy": 0.11437,
				"method": "rhf"
			}
		],
		"cosmo_sigma_profile": { 
			"-0.025": 0.0,
			"-0.024": 0.0,
			"-0.023": 0.0,
			"-0.022": 0.0,
			"-0.021": 0.0,
			"-0.02": 0.0,
			"-0.019": 0.0,
			"-0.018": 0.0,
			"-0.017": 0.0,
			"-0.016": 0.0,
			"-0.015": 0.0,
			"-0.014": 0.0,
			"-0.013": 0.301808115068,
			"-0.012": 2.16804523239,
			"-0.011": 2.79963818148,
			"-0.01": 3.2692293702,
			"-0.009": 3.77371955485,
			"-0.008": 2.80069338277,
			"-0.007": 2.72607298172,
			"-0.006": 5.92220031705,
			"-0.005": 6.14804348254,
			"-0.004": 7.67991891599,
			"-0.003": 18.2233774608,
			"-0.002": 29.1196615096,
			"-0.001": 28.5398683051,
			"0.0": 25.5924360389,
			"0.001": 25.9453217543,
			"0.002": 18.1440425909,
			"0.003": 5.82052250863,
			"0.004": 7.25593024293,
			"0.005": 7.23473730162,
			"0.006": 6.73189257785,
			"0.007": 7.36919057935,
			"0.008": 4.09364612833,
			"0.009": 2.41182163807,
			"0.01": 2.60806032001,
			"0.011": 1.71933689392,
			"0.012": 1.77513792997,
			"0.013": 1.28690662119,
			"0.014": 1.57183099895,
			"0.015": 0.676553518668,
			"0.016": 0.0,
			"0.017": 0.0,
			"0.018": 0.0,
			"0.019": 0.0,
			"0.02": 0.0,
			"0.021": 0.0,
			"0.022": 0.0,
			"0.023": 0.0,
			"0.024": 0.0,
			"0.025": 0.0
		}
	}
}
