{
	 "smiles": "OC(=O)C1=CN2N=C(Cl)C=CC2=N1", 
	 "Tm": 521.15, 
	 "num_atms": 17, 
	 "gaussian": { 
		 "optdone": 1, 
		 "sigma_profile": "yes", 
		 "theory": "DFT", 
		 "functional": "B3LYP", 
		 "basiset": "6-31G**", 
		 "properties": { 
			 "R2extent": 4132.8367, 
			 "electric_dipole_moment_norm": 5.94964450535, 
			 "electric_quadrupole_moment_norm": 12.3869674763, 
			 "total_energy": -1044.02674385, 
			 "HOMO_LUMO_gap": 0.16642, 
			 "cosmo_polarized_energy": -14.23, 
			 "cosmo_cavitation_energy": 24.73, 
			 "cosmo_dispersion_energy": -18.82, 
			 "cosmo_repulsion_energy": 1.48, 
			 "cosmo_total_nonelectrostatic_energy": 7.39, 
			 "SMD_solvation_energy": 3.43 
		},
		"coords": [
			{
				"x": -0.9855430713,
				"y": 0.0998688937,
				"z": 2.922215658,
				"element": "O" 
			},
			{
				"x": 0.1476708193,
				"y": -0.0409386724,
				"z": 2.2072359137,
				"element": "C" 
			},
			{
				"x": 1.1496851503,
				"y": -0.5498164103,
				"z": 2.6542891267,
				"element": "O" 
			},
			{
				"x": 0.0462573746,
				"y": 0.4911007755,
				"z": 0.8229415887,
				"element": "C" 
			},
			{
				"x": 1.0353086766,
				"y": 0.4933989584,
				"z": -0.1461538034,
				"element": "C" 
			},
			{
				"x": 0.4529757969,
				"y": 1.0855435826,
				"z": -1.2298003567,
				"element": "N" 
			},
			{
				"x": 1.0386305986,
				"y": 1.3103038512,
				"z": -2.4260753095,
				"element": "N" 
			},
			{
				"x": 0.265380785,
				"y": 1.8939847186,
				"z": -3.3003370329,
				"element": "C" 
			},
			{
				"x": 0.9847871633,
				"y": 2.2019717506,
				"z": -4.8598495108,
				"element": "Cl" 
			},
			{
				"x": -1.0897877873,
				"y": 2.2908899669,
				"z": -3.088432213,
				"element": "C" 
			},
			{
				"x": -1.6549531977,
				"y": 2.0487487376,
				"z": -1.8635394631,
				"element": "C" 
			},
			{
				"x": -0.8684000411,
				"y": 1.4195972184,
				"z": -0.8750972304,
				"element": "C" 
			},
			{
				"x": -1.1158775715,
				"y": 1.0568342621,
				"z": 0.3768429471,
				"element": "N" 
			},
			{
				"x": -1.6449568508,
				"y": 0.5352242229,
				"z": 2.3497351502,
				"element": "H" 
			},
			{
				"x": 2.0529041078,
				"y": 0.1401001642,
				"z": -0.1517749126,
				"element": "H" 
			},
			{
				"x": -1.6366207035,
				"y": 2.7694274145,
				"z": -3.8905140471,
				"element": "H" 
			},
			{
				"x": -2.6775612494,
				"y": 2.3219605654,
				"z": -1.6301865049,
				"element": "H" 
			}
		],
		 "valence_orbital": [ 
			{
				"type": "occ",
				"energy": -0.31312,
				"method": "rhf"
			},
			{
				"type": "occ",
				"energy": -0.3128,
				"method": "rhf"
			},
			{
				"type": "occ",
				"energy": -0.28387,
				"method": "rhf"
			},
			{
				"type": "occ",
				"energy": -0.27447,
				"method": "rhf"
			},
			{
				"type": "occ",
				"energy": -0.25987,
				"method": "rhf"
			},
			{
				"type": "unocc",
				"energy": -0.09345,
				"method": "rhf"
			},
			{
				"type": "unocc",
				"energy": -0.04292,
				"method": "rhf"
			},
			{
				"type": "unocc",
				"energy": -0.02062,
				"method": "rhf"
			},
			{
				"type": "unocc",
				"energy": 0.00178,
				"method": "rhf"
			},
			{
				"type": "unocc",
				"energy": 0.08272,
				"method": "rhf"
			}
		],
		"cosmo_sigma_profile": { 
			"-0.025": 0.0,
			"-0.024": 0.0,
			"-0.023": 0.0,
			"-0.022": 0.0,
			"-0.021": 0.0,
			"-0.02": 0.0,
			"-0.019": 0.0,
			"-0.018": 0.0,
			"-0.017": 0.0,
			"-0.016": 0.0,
			"-0.015": 0.0198442099043,
			"-0.014": 0.263602890443,
			"-0.013": 0.658431493806,
			"-0.012": 0.667917249436,
			"-0.011": 1.80178826516,
			"-0.01": 4.61829133415,
			"-0.009": 6.0196021603,
			"-0.008": 5.57809686753,
			"-0.007": 6.12125094946,
			"-0.006": 8.1925077531,
			"-0.005": 6.42858105356,
			"-0.004": 12.829490585,
			"-0.003": 18.0033304491,
			"-0.002": 17.5796215739,
			"-0.001": 17.3896210553,
			"0.0": 13.4873606061,
			"0.001": 9.2788837181,
			"0.002": 12.4090391864,
			"0.003": 12.6460067533,
			"0.004": 6.90158497156,
			"0.005": 4.93388727192,
			"0.006": 4.71390544474,
			"0.007": 4.52664912869,
			"0.008": 5.33202715637,
			"0.009": 5.81005423351,
			"0.01": 5.55227991223,
			"0.011": 5.21727105083,
			"0.012": 4.61379951654,
			"0.013": 1.26998914761,
			"0.014": 0.0297148641421,
			"0.015": 0.0,
			"0.016": 0.0,
			"0.017": 0.0,
			"0.018": 0.0,
			"0.019": 0.0,
			"0.02": 0.0,
			"0.021": 0.0,
			"0.022": 0.0,
			"0.023": 0.0,
			"0.024": 0.0,
			"0.025": 0.0
		}
	}
}
