{
	 "smiles": "COC1=C(C)C(C)=C(C=C1)S(Cl)(=O)=O", 
	 "Tm": 358.15, 
	 "num_atms": 25, 
	 "gaussian": { 
		 "optdone": 1, 
		 "sigma_profile": "yes", 
		 "theory": "DFT", 
		 "functional": "B3LYP", 
		 "basiset": "6-31G**", 
		 "properties": { 
			 "R2extent": 6092.8176, 
			 "electric_dipole_moment_norm": 6.89461983433, 
			 "electric_quadrupole_moment_norm": 20.4727349563, 
			 "total_energy": -1433.57057099, 
			 "HOMO_LUMO_gap": 0.16756, 
			 "cosmo_polarized_energy": -10.48, 
			 "cosmo_cavitation_energy": 30.78, 
			 "cosmo_dispersion_energy": -23.06, 
			 "cosmo_repulsion_energy": 1.76, 
			 "cosmo_total_nonelectrostatic_energy": 9.47, 
			 "SMD_solvation_energy": 4.85 
		},
		"coords": [
			{
				"x": -0.0822652837,
				"y": -2.9583432008,
				"z": 0.9342448398,
				"element": "C" 
			},
			{
				"x": 0.9378148745,
				"y": -1.9673138813,
				"z": 0.9696665124,
				"element": "O" 
			},
			{
				"x": 0.9582025344,
				"y": -1.0059211122,
				"z": 0.0101591,
				"element": "C" 
			},
			{
				"x": 1.9972693767,
				"y": -0.0502928882,
				"z": 0.1174068374,
				"element": "C" 
			},
			{
				"x": 2.9753303234,
				"y": -0.1446023578,
				"z": 1.2665024956,
				"element": "C" 
			},
			{
				"x": 2.1057680299,
				"y": 0.9693434341,
				"z": -0.8434358843,
				"element": "C" 
			},
			{
				"x": 3.2394234922,
				"y": 1.9641291057,
				"z": -0.7367354724,
				"element": "C" 
			},
			{
				"x": 1.1328388859,
				"y": 1.0151517028,
				"z": -1.8676312782,
				"element": "C" 
			},
			{
				"x": 0.1123773111,
				"y": 0.0695784708,
				"z": -1.9702733072,
				"element": "C" 
			},
			{
				"x": 0.0223716603,
				"y": -0.9461740793,
				"z": -1.0293241444,
				"element": "C" 
			},
			{
				"x": 1.0871981297,
				"y": 2.306129358,
				"z": -3.0990197475,
				"element": "S" 
			},
			{
				"x": 2.7262446718,
				"y": 1.7697728572,
				"z": -4.3891147274,
				"element": "Cl" 
			},
			{
				"x": -0.1122576357,
				"y": 2.1522964673,
				"z": -3.9148063046,
				"element": "O" 
			},
			{
				"x": 1.4467182165,
				"y": 3.596457654,
				"z": -2.5207927776,
				"element": "O" 
			},
			{
				"x": 0.1023336052,
				"y": -3.6046113034,
				"z": 1.7929695272,
				"element": "H" 
			},
			{
				"x": -0.0315215314,
				"y": -3.5540656241,
				"z": 0.0151004411,
				"element": "H" 
			},
			{
				"x": -1.0797002139,
				"y": -2.5117194986,
				"z": 1.0243263722,
				"element": "H" 
			},
			{
				"x": 3.1209088716,
				"y": 0.8283551306,
				"z": 1.7448192823,
				"element": "H" 
			},
			{
				"x": 3.9595594315,
				"y": -0.4899083238,
				"z": 0.9265253407,
				"element": "H" 
			},
			{
				"x": 2.6211221677,
				"y": -0.8474580593,
				"z": 2.0192148226,
				"element": "H" 
			},
			{
				"x": 3.4795935416,
				"y": 2.4340121662,
				"z": -1.6878994398,
				"element": "H" 
			},
			{
				"x": 2.9819606845,
				"y": 2.7690899648,
				"z": -0.0381587988,
				"element": "H" 
			},
			{
				"x": 4.1418041846,
				"y": 1.4767079904,
				"z": -0.3622765675,
				"element": "H" 
			},
			{
				"x": -0.6064439097,
				"y": 0.1386809381,
				"z": -2.7774109324,
				"element": "H" 
			},
			{
				"x": -0.7731514189,
				"y": -1.6754949109,
				"z": -1.1109561893,
				"element": "H" 
			}
		],
		 "valence_orbital": [ 
			{
				"type": "occ",
				"energy": -0.32315,
				"method": "rhf"
			},
			{
				"type": "occ",
				"energy": -0.31794,
				"method": "rhf"
			},
			{
				"type": "occ",
				"energy": -0.30392,
				"method": "rhf"
			},
			{
				"type": "occ",
				"energy": -0.26564,
				"method": "rhf"
			},
			{
				"type": "occ",
				"energy": -0.24749,
				"method": "rhf"
			},
			{
				"type": "unocc",
				"energy": -0.07993,
				"method": "rhf"
			},
			{
				"type": "unocc",
				"energy": -0.02745,
				"method": "rhf"
			},
			{
				"type": "unocc",
				"energy": -0.02657,
				"method": "rhf"
			},
			{
				"type": "unocc",
				"energy": 0.06257,
				"method": "rhf"
			},
			{
				"type": "unocc",
				"energy": 0.07724,
				"method": "rhf"
			}
		],
		"cosmo_sigma_profile": { 
			"-0.025": 0.0,
			"-0.024": 0.0,
			"-0.023": 0.0,
			"-0.022": 0.0,
			"-0.021": 0.0,
			"-0.02": 0.0,
			"-0.019": 0.0,
			"-0.018": 0.0,
			"-0.017": 0.0,
			"-0.016": 0.0,
			"-0.015": 0.0,
			"-0.014": 0.0,
			"-0.013": 0.0,
			"-0.012": 0.0,
			"-0.011": 0.0,
			"-0.01": 0.0,
			"-0.009": 0.0,
			"-0.008": 1.64325636888,
			"-0.007": 5.99113848165,
			"-0.006": 12.3452634198,
			"-0.005": 17.555127492,
			"-0.004": 20.0592940496,
			"-0.003": 19.7189419574,
			"-0.002": 17.6623412606,
			"-0.001": 22.3633228692,
			"0.0": 23.8309202219,
			"0.001": 21.6197448457,
			"0.002": 18.7943128563,
			"0.003": 16.1362713152,
			"0.004": 15.0151946146,
			"0.005": 7.79020618969,
			"0.006": 5.18139421986,
			"0.007": 5.12943691856,
			"0.008": 8.98312957698,
			"0.009": 6.91116762693,
			"0.01": 0.558636492339,
			"0.011": 0.0,
			"0.012": 0.0,
			"0.013": 0.0,
			"0.014": 0.0,
			"0.015": 0.0,
			"0.016": 0.0,
			"0.017": 0.0,
			"0.018": 0.0,
			"0.019": 0.0,
			"0.02": 0.0,
			"0.021": 0.0,
			"0.022": 0.0,
			"0.023": 0.0,
			"0.024": 0.0,
			"0.025": 0.0
		}
	}
}
