{
	 "smiles": "CC(C)C(Br)C(=O)N1CCCCC1", 
	 "Tm": 335.15, 
	 "num_atms": 31, 
	 "gaussian": { 
		 "optdone": 1, 
		 "sigma_profile": "yes", 
		 "theory": "DFT", 
		 "functional": "B3LYP", 
		 "basiset": "6-31G**", 
		 "properties": { 
			 "R2extent": 4017.6651, 
			 "electric_dipole_moment_norm": 3.0436623433, 
			 "electric_quadrupole_moment_norm": 11.5655858918, 
			 "total_energy": -3093.31490618, 
			 "HOMO_LUMO_gap": 0.22229, 
			 "cosmo_polarized_energy": -8.52, 
			 "cosmo_cavitation_energy": 32.23, 
			 "cosmo_dispersion_energy": -23.18, 
			 "cosmo_repulsion_energy": 1.83, 
			 "cosmo_total_nonelectrostatic_energy": 10.88, 
			 "SMD_solvation_energy": 3.63 
		},
		"coords": [
			{
				"x": 2.2835245738,
				"y": -1.7070058856,
				"z": -0.8705997521,
				"element": "C" 
			},
			{
				"x": 1.2134985285,
				"y": -2.4392351877,
				"z": -1.6882921341,
				"element": "C" 
			},
			{
				"x": 1.5613962836,
				"y": -2.4236963242,
				"z": -3.1894529643,
				"element": "C" 
			},
			{
				"x": -0.2364512162,
				"y": -1.9406419281,
				"z": -1.4788135536,
				"element": "C" 
			},
			{
				"x": -0.8963071643,
				"y": -2.3941937352,
				"z": 0.3689880914,
				"element": "Br" 
			},
			{
				"x": -0.5499256559,
				"y": -0.5184687991,
				"z": -1.9822269788,
				"element": "C" 
			},
			{
				"x": -0.8753460431,
				"y": -0.4678085856,
				"z": -3.171795946,
				"element": "O" 
			},
			{
				"x": -0.4693248686,
				"y": 0.6146379435,
				"z": -1.2309800215,
				"element": "N" 
			},
			{
				"x": 0.0162405556,
				"y": 0.7511558776,
				"z": 0.1505568936,
				"element": "C" 
			},
			{
				"x": 0.8529123451,
				"y": 2.0286520023,
				"z": 0.2892640627,
				"element": "C" 
			},
			{
				"x": 0.0268666557,
				"y": 3.2989074611,
				"z": -0.0279828687,
				"element": "C" 
			},
			{
				"x": -1.1953474832,
				"y": 2.959235132,
				"z": -0.9046107057,
				"element": "C" 
			},
			{
				"x": -0.8867864058,
				"y": 1.8572590415,
				"z": -1.9171185873,
				"element": "C" 
			},
			{
				"x": 3.2627441529,
				"y": -2.1618240067,
				"z": -1.0509530964,
				"element": "H" 
			},
			{
				"x": 2.3563101202,
				"y": -0.6518651936,
				"z": -1.1567658331,
				"element": "H" 
			},
			{
				"x": 2.0835519609,
				"y": -1.7693363558,
				"z": 0.2028712571,
				"element": "H" 
			},
			{
				"x": 1.2013473267,
				"y": -3.4858189722,
				"z": -1.360368803,
				"element": "H" 
			},
			{
				"x": 0.8285515746,
				"y": -2.9823157305,
				"z": -3.7785646427,
				"element": "H" 
			},
			{
				"x": 1.5907259664,
				"y": -1.4057059185,
				"z": -3.5868587862,
				"element": "H" 
			},
			{
				"x": 2.5442526223,
				"y": -2.8818367248,
				"z": -3.3413644071,
				"element": "H" 
			},
			{
				"x": -0.8935450069,
				"y": -2.5576323385,
				"z": -2.0869934286,
				"element": "H" 
			},
			{
				"x": 0.614177241,
				"y": -0.116598337,
				"z": 0.4095490134,
				"element": "H" 
			},
			{
				"x": -0.830193539,
				"y": 0.7710999243,
				"z": 0.8496074638,
				"element": "H" 
			},
			{
				"x": 1.2649926484,
				"y": 2.0725937767,
				"z": 1.3029879245,
				"element": "H" 
			},
			{
				"x": 1.7081210926,
				"y": 1.9530259116,
				"z": -0.3927063151,
				"element": "H" 
			},
			{
				"x": -0.3117645169,
				"y": 3.7774101131,
				"z": 0.8974670294,
				"element": "H" 
			},
			{
				"x": 0.6625594031,
				"y": 4.0304512122,
				"z": -0.5391778578,
				"element": "H" 
			},
			{
				"x": -1.5429347128,
				"y": 3.8463281069,
				"z": -1.4442916743,
				"element": "H" 
			},
			{
				"x": -2.0322647742,
				"y": 2.6351426297,
				"z": -0.2745201444,
				"element": "H" 
			},
			{
				"x": -1.7577787487,
				"y": 1.6235975872,
				"z": -2.5331371582,
				"element": "H" 
			},
			{
				"x": -0.0962029159,
				"y": 2.1778873031,
				"z": -2.609916077,
				"element": "H" 
			}
		],
		 "valence_orbital": [ 
			{
				"type": "occ",
				"energy": -0.32531,
				"method": "rhf"
			},
			{
				"type": "occ",
				"energy": -0.27851,
				"method": "rhf"
			},
			{
				"type": "occ",
				"energy": -0.26885,
				"method": "rhf"
			},
			{
				"type": "occ",
				"energy": -0.24591,
				"method": "rhf"
			},
			{
				"type": "occ",
				"energy": -0.23735,
				"method": "rhf"
			},
			{
				"type": "unocc",
				"energy": -0.01506,
				"method": "rhf"
			},
			{
				"type": "unocc",
				"energy": 0.03273,
				"method": "rhf"
			},
			{
				"type": "unocc",
				"energy": 0.06699,
				"method": "rhf"
			},
			{
				"type": "unocc",
				"energy": 0.09294,
				"method": "rhf"
			},
			{
				"type": "unocc",
				"energy": 0.09789,
				"method": "rhf"
			}
		],
		"cosmo_sigma_profile": { 
			"-0.025": 0.0,
			"-0.024": 0.0,
			"-0.023": 0.0,
			"-0.022": 0.0,
			"-0.021": 0.0,
			"-0.02": 0.0,
			"-0.019": 0.0,
			"-0.018": 0.0,
			"-0.017": 0.0,
			"-0.016": 0.0,
			"-0.015": 0.0,
			"-0.014": 0.0,
			"-0.013": 0.0,
			"-0.012": 0.0,
			"-0.011": 0.0,
			"-0.01": 0.0,
			"-0.009": 0.0,
			"-0.008": 0.0,
			"-0.007": 1.02028081793,
			"-0.006": 1.65760586748,
			"-0.005": 2.22650323051,
			"-0.004": 17.9897168596,
			"-0.003": 43.7361062147,
			"-0.002": 45.057388416,
			"-0.001": 33.7391621454,
			"0.0": 30.853314753,
			"0.001": 19.9785434472,
			"0.002": 10.3536000329,
			"0.003": 6.88260660848,
			"0.004": 7.3156119935,
			"0.005": 7.99884755503,
			"0.006": 6.86852299662,
			"0.007": 2.17152458717,
			"0.008": 1.38614587363,
			"0.009": 1.66070705165,
			"0.01": 1.60608575084,
			"0.011": 1.01815812838,
			"0.012": 2.00617246273,
			"0.013": 2.90977283421,
			"0.014": 3.65917263278,
			"0.015": 0.234405726303,
			"0.016": 0.0,
			"0.017": 0.0,
			"0.018": 0.0,
			"0.019": 0.0,
			"0.02": 0.0,
			"0.021": 0.0,
			"0.022": 0.0,
			"0.023": 0.0,
			"0.024": 0.0,
			"0.025": 0.0
		}
	}
}
