{
	 "smiles": "OC(=O)C1=CC=CC=C1NC1=CC=CC(F)=C1", 
	 "Tm": 433.15, 
	 "num_atms": 27, 
	 "gaussian": { 
		 "optdone": 1, 
		 "sigma_profile": "yes", 
		 "theory": "DFT", 
		 "functional": "B3LYP", 
		 "basiset": "6-31G**", 
		 "properties": { 
			 "R2extent": 4856.5621, 
			 "electric_dipole_moment_norm": 1.97315589095, 
			 "electric_quadrupole_moment_norm": 17.0930139718, 
			 "total_energy": -806.466609092, 
			 "HOMO_LUMO_gap": 0.15289, 
			 "cosmo_polarized_energy": -11.17, 
			 "cosmo_cavitation_energy": 31.92, 
			 "cosmo_dispersion_energy": -23.22, 
			 "cosmo_repulsion_energy": 1.76, 
			 "cosmo_total_nonelectrostatic_energy": 10.45, 
			 "SMD_solvation_energy": 6.76 
		},
		"coords": [
			{
				"x": 2.1608703593,
				"y": 0.4235404948,
				"z": 2.6099139017,
				"element": "O" 
			},
			{
				"x": 2.7131214681,
				"y": -0.5148006969,
				"z": 1.7768354653,
				"element": "C" 
			},
			{
				"x": 3.6612412195,
				"y": -1.1742744501,
				"z": 2.1561022158,
				"element": "O" 
			},
			{
				"x": 2.0816496522,
				"y": -0.6176139695,
				"z": 0.4407302699,
				"element": "C" 
			},
			{
				"x": 2.7532961333,
				"y": -1.4716461368,
				"z": -0.4554320806,
				"element": "C" 
			},
			{
				"x": 2.3075871713,
				"y": -1.6757711866,
				"z": -1.7503227632,
				"element": "C" 
			},
			{
				"x": 1.1628957913,
				"y": -0.9932193139,
				"z": -2.1789184201,
				"element": "C" 
			},
			{
				"x": 0.4757925863,
				"y": -0.1463748433,
				"z": -1.322360167,
				"element": "C" 
			},
			{
				"x": 0.8961852511,
				"y": 0.0536701614,
				"z": 0.0117094813,
				"element": "C" 
			},
			{
				"x": 0.2003774242,
				"y": 0.9081648525,
				"z": 0.851517748,
				"element": "N" 
			},
			{
				"x": -1.1249972112,
				"y": 1.3579588034,
				"z": 0.761945287,
				"element": "C" 
			},
			{
				"x": -1.442713319,
				"y": 2.5899995334,
				"z": 1.3638208185,
				"element": "C" 
			},
			{
				"x": -2.7534056279,
				"y": 3.0591080859,
				"z": 1.3642342206,
				"element": "C" 
			},
			{
				"x": -3.7790709103,
				"y": 2.3311657459,
				"z": 0.7578952703,
				"element": "C" 
			},
			{
				"x": -3.4444297845,
				"y": 1.1153272154,
				"z": 0.1740197521,
				"element": "C" 
			},
			{
				"x": -4.4187132356,
				"y": 0.3787753525,
				"z": -0.4018449059,
				"element": "F" 
			},
			{
				"x": -2.1527309156,
				"y": 0.6054462918,
				"z": 0.1693048202,
				"element": "C" 
			},
			{
				"x": 2.6744378878,
				"y": 0.3724213656,
				"z": 3.4330876043,
				"element": "H" 
			},
			{
				"x": 3.6440528908,
				"y": -1.9678497443,
				"z": -0.0864143395,
				"element": "H" 
			},
			{
				"x": 2.8427453923,
				"y": -2.3404631928,
				"z": -2.4200718457,
				"element": "H" 
			},
			{
				"x": 0.8072527606,
				"y": -1.1106878874,
				"z": -3.1989221057,
				"element": "H" 
			},
			{
				"x": -0.385823705,
				"y": 0.398009734,
				"z": -1.6877609498,
				"element": "H" 
			},
			{
				"x": 0.694871879,
				"y": 1.1831484593,
				"z": 1.6885119085,
				"element": "H" 
			},
			{
				"x": -0.6506799116,
				"y": 3.1774487313,
				"z": 1.8188709209,
				"element": "H" 
			},
			{
				"x": -2.9783393289,
				"y": 4.0126120626,
				"z": 1.8326254844,
				"element": "H" 
			},
			{
				"x": -4.804124502,
				"y": 2.6820324099,
				"z": 0.73356708,
				"element": "H" 
			},
			{
				"x": -1.9718494154,
				"y": -0.3705278781,
				"z": -0.2622446712,
				"element": "H" 
			}
		],
		 "valence_orbital": [ 
			{
				"type": "occ",
				"energy": -0.2835,
				"method": "rhf"
			},
			{
				"type": "occ",
				"energy": -0.26464,
				"method": "rhf"
			},
			{
				"type": "occ",
				"energy": -0.26129,
				"method": "rhf"
			},
			{
				"type": "occ",
				"energy": -0.24925,
				"method": "rhf"
			},
			{
				"type": "occ",
				"energy": -0.20245,
				"method": "rhf"
			},
			{
				"type": "unocc",
				"energy": -0.04956,
				"method": "rhf"
			},
			{
				"type": "unocc",
				"energy": -0.01892,
				"method": "rhf"
			},
			{
				"type": "unocc",
				"energy": -0.00404,
				"method": "rhf"
			},
			{
				"type": "unocc",
				"energy": 0.01987,
				"method": "rhf"
			},
			{
				"type": "unocc",
				"energy": 0.05303,
				"method": "rhf"
			}
		],
		"cosmo_sigma_profile": { 
			"-0.025": 0.0,
			"-0.024": 0.0,
			"-0.023": 0.0,
			"-0.022": 0.0,
			"-0.021": 0.0,
			"-0.02": 0.0,
			"-0.019": 0.157427964568,
			"-0.018": 0.733512639106,
			"-0.017": 1.13985221381,
			"-0.016": 0.526743809518,
			"-0.015": 0.736687764185,
			"-0.014": 0.457910844642,
			"-0.013": 0.847383360282,
			"-0.012": 0.791447792071,
			"-0.011": 1.13930309937,
			"-0.01": 0.598214763762,
			"-0.009": 1.34764869726,
			"-0.008": 1.81352201428,
			"-0.007": 5.16918742287,
			"-0.006": 12.5919830214,
			"-0.005": 17.1009854531,
			"-0.004": 17.7365914816,
			"-0.003": 15.3326460986,
			"-0.002": 16.3935429724,
			"-0.001": 14.7918591336,
			"0.0": 16.6008728694,
			"0.001": 22.5634167248,
			"0.002": 24.5792123568,
			"0.003": 25.1358174837,
			"0.004": 28.5894983503,
			"0.005": 14.6452972887,
			"0.006": 1.55003201936,
			"0.007": 0.59884428438,
			"0.008": 1.5632838486,
			"0.009": 1.83615791626,
			"0.01": 1.67660900955,
			"0.011": 3.64779749585,
			"0.012": 4.16692361012,
			"0.013": 0.0656359838384,
			"0.014": 0.0,
			"0.015": 0.0,
			"0.016": 0.0,
			"0.017": 0.0,
			"0.018": 0.0,
			"0.019": 0.0,
			"0.02": 0.0,
			"0.021": 0.0,
			"0.022": 0.0,
			"0.023": 0.0,
			"0.024": 0.0,
			"0.025": 0.0
		}
	}
}
