{
	 "smiles": "CC1=NN(C(NC(=O)CCl)=C1)C1=CC=C(F)C=C1", 
	 "Tm": 402.15, 
	 "num_atms": 29, 
	 "gaussian": { 
		 "optdone": 1, 
		 "sigma_profile": "yes", 
		 "theory": "DFT", 
		 "functional": "B3LYP", 
		 "basiset": "6-31G**", 
		 "properties": { 
			 "R2extent": 6438.3838, 
			 "electric_dipole_moment_norm": 2.13255859708, 
			 "electric_quadrupole_moment_norm": 18.0616254083, 
			 "total_energy": -1263.40276746, 
			 "HOMO_LUMO_gap": 0.18975, 
			 "cosmo_polarized_energy": -14.52, 
			 "cosmo_cavitation_energy": 36.05, 
			 "cosmo_dispersion_energy": -25.27, 
			 "cosmo_repulsion_energy": 1.96, 
			 "cosmo_total_nonelectrostatic_energy": 12.74, 
			 "SMD_solvation_energy": 6.63 
		},
		"coords": [
			{
				"x": -2.5668941082,
				"y": -2.2481907195,
				"z": 1.2430031652,
				"element": "C" 
			},
			{
				"x": -1.473122691,
				"y": -1.2955568051,
				"z": 0.8696885635,
				"element": "C" 
			},
			{
				"x": -0.2226226373,
				"y": -1.7267051162,
				"z": 0.7340962302,
				"element": "N" 
			},
			{
				"x": 0.5070407942,
				"y": -0.6322629532,
				"z": 0.3705690345,
				"element": "N" 
			},
			{
				"x": -0.2833025141,
				"y": 0.4955617265,
				"z": 0.319316372,
				"element": "C" 
			},
			{
				"x": 0.2628951684,
				"y": 1.7540312183,
				"z": 0.0482193508,
				"element": "N" 
			},
			{
				"x": -0.2051943706,
				"y": 2.7750943957,
				"z": -0.7588462275,
				"element": "C" 
			},
			{
				"x": 0.4201249168,
				"y": 3.8152569073,
				"z": -0.8691586376,
				"element": "O" 
			},
			{
				"x": -1.5045543883,
				"y": 2.5402588161,
				"z": -1.520437441,
				"element": "C" 
			},
			{
				"x": -2.9181486351,
				"y": 3.2018846908,
				"z": -0.5962230034,
				"element": "Cl" 
			},
			{
				"x": -1.5693268778,
				"y": 0.0988732013,
				"z": 0.6310918616,
				"element": "C" 
			},
			{
				"x": 1.9157672954,
				"y": -0.7567460358,
				"z": 0.2158576472,
				"element": "C" 
			},
			{
				"x": 2.6133949168,
				"y": -1.614802017,
				"z": 1.0759639149,
				"element": "C" 
			},
			{
				"x": 3.9889605031,
				"y": -1.7732238211,
				"z": 0.9373894361,
				"element": "C" 
			},
			{
				"x": 4.6544196664,
				"y": -1.0588651572,
				"z": -0.0543035544,
				"element": "C" 
			},
			{
				"x": 5.9879775891,
				"y": -1.2023888894,
				"z": -0.1817563631,
				"element": "F" 
			},
			{
				"x": 3.9807406256,
				"y": -0.2065890013,
				"z": -0.9206626149,
				"element": "C" 
			},
			{
				"x": 2.5991201308,
				"y": -0.0651243128,
				"z": -0.7923403165,
				"element": "C" 
			},
			{
				"x": -3.3238282737,
				"y": -2.3148553245,
				"z": 0.4537515454,
				"element": "H" 
			},
			{
				"x": -2.1501189099,
				"y": -3.2442186093,
				"z": 1.4064234037,
				"element": "H" 
			},
			{
				"x": -3.0770386289,
				"y": -1.9289069925,
				"z": 2.1582505865,
				"element": "H" 
			},
			{
				"x": 1.1527358184,
				"y": 1.982309133,
				"z": 0.4789176,
				"element": "H" 
			},
			{
				"x": -1.4473994569,
				"y": 3.1050254747,
				"z": -2.4490335272,
				"element": "H" 
			},
			{
				"x": -1.7107429459,
				"y": 1.4875595631,
				"z": -1.71031385,
				"element": "H" 
			},
			{
				"x": -2.4379204667,
				"y": 0.7342419554,
				"z": 0.7118316028,
				"element": "H" 
			},
			{
				"x": 2.063064092,
				"y": -2.1580169096,
				"z": 1.8345225586,
				"element": "H" 
			},
			{
				"x": 4.5492431442,
				"y": -2.433512318,
				"z": 1.5901049213,
				"element": "H" 
			},
			{
				"x": 4.5305880272,
				"y": 0.3204953854,
				"z": -1.6923021148,
				"element": "H" 
			},
			{
				"x": 2.058842216,
				"y": 0.5679725148,
				"z": -1.4858201438,
				"element": "H" 
			}
		],
		 "valence_orbital": [ 
			{
				"type": "occ",
				"energy": -0.28626,
				"method": "rhf"
			},
			{
				"type": "occ",
				"energy": -0.27728,
				"method": "rhf"
			},
			{
				"type": "occ",
				"energy": -0.27406,
				"method": "rhf"
			},
			{
				"type": "occ",
				"energy": -0.2413,
				"method": "rhf"
			},
			{
				"type": "occ",
				"energy": -0.23272,
				"method": "rhf"
			},
			{
				"type": "unocc",
				"energy": -0.04297,
				"method": "rhf"
			},
			{
				"type": "unocc",
				"energy": -0.02847,
				"method": "rhf"
			},
			{
				"type": "unocc",
				"energy": -0.02453,
				"method": "rhf"
			},
			{
				"type": "unocc",
				"energy": 0.02079,
				"method": "rhf"
			},
			{
				"type": "unocc",
				"energy": 0.04831,
				"method": "rhf"
			}
		],
		"cosmo_sigma_profile": { 
			"-0.025": 0.0,
			"-0.024": 0.0,
			"-0.023": 0.0,
			"-0.022": 0.0,
			"-0.021": 0.0,
			"-0.02": 0.0,
			"-0.019": 0.0,
			"-0.018": 0.0,
			"-0.017": 0.0,
			"-0.016": 0.0575090883738,
			"-0.015": 0.453366097564,
			"-0.014": 0.87979439905,
			"-0.013": 0.884926034635,
			"-0.012": 1.52246764546,
			"-0.011": 0.585967357993,
			"-0.01": 0.755812214952,
			"-0.009": 2.0944579345,
			"-0.008": 7.16781269495,
			"-0.007": 13.9809618719,
			"-0.006": 15.08379865,
			"-0.005": 14.9622458347,
			"-0.004": 16.3766181651,
			"-0.003": 16.2282828966,
			"-0.002": 19.4211952807,
			"-0.001": 23.0142261953,
			"0.0": 24.6704084459,
			"0.001": 22.1304026624,
			"0.002": 23.7873584619,
			"0.003": 22.7739428221,
			"0.004": 21.4021011757,
			"0.005": 13.4327546801,
			"0.006": 5.24303275379,
			"0.007": 2.20401235649,
			"0.008": 2.20134674377,
			"0.009": 3.19289759131,
			"0.01": 2.97827712236,
			"0.011": 3.39501307626,
			"0.012": 6.3608248792,
			"0.013": 2.70750165713,
			"0.014": 0.802697560741,
			"0.015": 0.113744211875,
			"0.016": 0.0,
			"0.017": 0.0,
			"0.018": 0.0,
			"0.019": 0.0,
			"0.02": 0.0,
			"0.021": 0.0,
			"0.022": 0.0,
			"0.023": 0.0,
			"0.024": 0.0,
			"0.025": 0.0
		}
	}
}
