{
	 "smiles": "CC1=C(OC2=C1C=C(Cl)C=C2Br)C(O)=O", 
	 "Tm": 553.15, 
	 "num_atms": 21, 
	 "gaussian": { 
		 "optdone": 1, 
		 "sigma_profile": "yes", 
		 "theory": "DFT", 
		 "functional": "B3LYP", 
		 "basiset": "6-31G**", 
		 "properties": { 
			 "R2extent": 6845.4301, 
			 "electric_dipole_moment_norm": 0.918589669004, 
			 "electric_quadrupole_moment_norm": 4.19779287245, 
			 "total_energy": -3641.95691294, 
			 "HOMO_LUMO_gap": 0.16869, 
			 "cosmo_polarized_energy": -10.63, 
			 "cosmo_cavitation_energy": 30.71, 
			 "cosmo_dispersion_energy": -22.76, 
			 "cosmo_repulsion_energy": 1.79, 
			 "cosmo_total_nonelectrostatic_energy": 9.74, 
			 "SMD_solvation_energy": 5.35 
		},
		"coords": [
			{
				"x": -1.5240843022,
				"y": 1.1161482336,
				"z": 0.7084861391,
				"element": "C" 
			},
			{
				"x": -0.078588055,
				"y": 0.7645454832,
				"z": 0.5357537251,
				"element": "C" 
			},
			{
				"x": 1.0155503137,
				"y": 1.4800144452,
				"z": 0.9496950936,
				"element": "C" 
			},
			{
				"x": 2.2060554659,
				"y": 0.8603041592,
				"z": 0.6242972285,
				"element": "O" 
			},
			{
				"x": 1.864086192,
				"y": -0.2827330533,
				"z": -0.0151976609,
				"element": "C" 
			},
			{
				"x": 0.4639379833,
				"y": -0.4082377249,
				"z": -0.1065409071,
				"element": "C" 
			},
			{
				"x": -0.1005672238,
				"y": -1.5288666977,
				"z": -0.7368732479,
				"element": "C" 
			},
			{
				"x": 0.7724442897,
				"y": -2.477326162,
				"z": -1.2493036332,
				"element": "C" 
			},
			{
				"x": 0.1228733172,
				"y": -3.9009864344,
				"z": -2.0488586913,
				"element": "Cl" 
			},
			{
				"x": 2.1725780977,
				"y": -2.3511832586,
				"z": -1.157623272,
				"element": "C" 
			},
			{
				"x": 2.7311667394,
				"y": -1.2419925226,
				"z": -0.5338091373,
				"element": "C" 
			},
			{
				"x": 4.6099703727,
				"y": -1.0388271028,
				"z": -0.3920245409,
				"element": "Br" 
			},
			{
				"x": 1.0596656378,
				"y": 2.759098019,
				"z": 1.6603468613,
				"element": "C" 
			},
			{
				"x": 2.3139444752,
				"y": 3.1845467245,
				"z": 1.9165761646,
				"element": "O" 
			},
			{
				"x": 0.0595242731,
				"y": 3.3729389197,
				"z": 1.986168419,
				"element": "O" 
			},
			{
				"x": -1.7541563443,
				"y": 2.0747022121,
				"z": 0.2347749825,
				"element": "H" 
			},
			{
				"x": -2.1670298206,
				"y": 0.3479145554,
				"z": 0.2724138304,
				"element": "H" 
			},
			{
				"x": -1.7777651728,
				"y": 1.2248903936,
				"z": 1.7667748932,
				"element": "H" 
			},
			{
				"x": -1.1730662446,
				"y": -1.6567086096,
				"z": -0.8244512128,
				"element": "H" 
			},
			{
				"x": 2.8122587638,
				"y": -3.119200835,
				"z": -1.5736354156,
				"element": "H" 
			},
			{
				"x": 2.2176012418,
				"y": 4.0304592553,
				"z": 2.3851303819,
				"element": "H" 
			}
		],
		 "valence_orbital": [ 
			{
				"type": "occ",
				"energy": -0.29944,
				"method": "rhf"
			},
			{
				"type": "occ",
				"energy": -0.29137,
				"method": "rhf"
			},
			{
				"type": "occ",
				"energy": -0.28648,
				"method": "rhf"
			},
			{
				"type": "occ",
				"energy": -0.25218,
				"method": "rhf"
			},
			{
				"type": "occ",
				"energy": -0.24222,
				"method": "rhf"
			},
			{
				"type": "unocc",
				"energy": -0.07353,
				"method": "rhf"
			},
			{
				"type": "unocc",
				"energy": -0.02015,
				"method": "rhf"
			},
			{
				"type": "unocc",
				"energy": -0.01314,
				"method": "rhf"
			},
			{
				"type": "unocc",
				"energy": -0.00059,
				"method": "rhf"
			},
			{
				"type": "unocc",
				"energy": 0.03185,
				"method": "rhf"
			}
		],
		"cosmo_sigma_profile": { 
			"-0.025": 0.0,
			"-0.024": 0.0,
			"-0.023": 0.0,
			"-0.022": 0.0,
			"-0.021": 0.0,
			"-0.02": 0.0,
			"-0.019": 0.446550211048,
			"-0.018": 0.858262651258,
			"-0.017": 1.18309705924,
			"-0.016": 0.492737469197,
			"-0.015": 0.957287223994,
			"-0.014": 0.607466505835,
			"-0.013": 0.257305870254,
			"-0.012": 0.771379345645,
			"-0.011": 1.23046249997,
			"-0.01": 0.703925630305,
			"-0.009": 1.45951367952,
			"-0.008": 4.73258027304,
			"-0.007": 4.71769141135,
			"-0.006": 6.62724562478,
			"-0.005": 8.81646734594,
			"-0.004": 10.8787000769,
			"-0.003": 16.0534065723,
			"-0.002": 24.7213119615,
			"-0.001": 28.8627149521,
			"0.0": 25.800617405,
			"0.001": 25.8995264157,
			"0.002": 16.4007727055,
			"0.003": 19.3322370766,
			"0.004": 19.1544647052,
			"0.005": 6.15357244169,
			"0.006": 4.30264880413,
			"0.007": 4.06900589204,
			"0.008": 3.3643579575,
			"0.009": 4.4094838533,
			"0.01": 3.25199932901,
			"0.011": 3.96674579972,
			"0.012": 1.90078859842,
			"0.013": 0.0,
			"0.014": 0.0,
			"0.015": 0.0,
			"0.016": 0.0,
			"0.017": 0.0,
			"0.018": 0.0,
			"0.019": 0.0,
			"0.02": 0.0,
			"0.021": 0.0,
			"0.022": 0.0,
			"0.023": 0.0,
			"0.024": 0.0,
			"0.025": 0.0
		}
	}
}
