{
	 "smiles": "CC(=O)C1=CC(OCC2=CN3C=CC=CC3=N2)=CC=C1", 
	 "Tm": 351.15, 
	 "num_atms": 34, 
	 "gaussian": { 
		 "optdone": 1, 
		 "sigma_profile": "yes", 
		 "theory": "DFT", 
		 "functional": "B3LYP", 
		 "basiset": "6-31G**", 
		 "properties": { 
			 "R2extent": 6311.5862, 
			 "electric_dipole_moment_norm": 5.99947760893, 
			 "electric_quadrupole_moment_norm": 19.1457180275, 
			 "total_energy": -878.079874448, 
			 "HOMO_LUMO_gap": 0.17324, 
			 "cosmo_polarized_energy": -15.1, 
			 "cosmo_cavitation_energy": 38.64, 
			 "cosmo_dispersion_energy": -26.65, 
			 "cosmo_repulsion_energy": 2.02, 
			 "cosmo_total_nonelectrostatic_energy": 14.01, 
			 "SMD_solvation_energy": 6.59 
		},
		"coords": [
			{
				"x": 2.5306109602,
				"y": -2.2299365121,
				"z": 1.1605931162,
				"element": "C" 
			},
			{
				"x": 2.0785141227,
				"y": -3.0473811884,
				"z": -0.0382981223,
				"element": "C" 
			},
			{
				"x": 2.1297476174,
				"y": -4.2684917326,
				"z": -0.0105422708,
				"element": "O" 
			},
			{
				"x": 1.5769404108,
				"y": -2.3300901391,
				"z": -1.2578228118,
				"element": "C" 
			},
			{
				"x": 1.4760973943,
				"y": -0.9290374429,
				"z": -1.2984953209,
				"element": "C" 
			},
			{
				"x": 0.993439142,
				"y": -0.3027351278,
				"z": -2.4517846099,
				"element": "C" 
			},
			{
				"x": 0.8590602742,
				"y": 1.0515348266,
				"z": -2.6073275535,
				"element": "O" 
			},
			{
				"x": 1.2839866841,
				"y": 1.917820205,
				"z": -1.5503871907,
				"element": "C" 
			},
			{
				"x": 0.35866598,
				"y": 1.9306347356,
				"z": -0.3654409278,
				"element": "C" 
			},
			{
				"x": -0.9928254405,
				"y": 2.2238977948,
				"z": -0.3617850573,
				"element": "C" 
			},
			{
				"x": -1.3932710094,
				"y": 2.1008282789,
				"z": 0.9507891131,
				"element": "N" 
			},
			{
				"x": -2.6208516803,
				"y": 2.2694091703,
				"z": 1.5461461651,
				"element": "C" 
			},
			{
				"x": -2.7404374985,
				"y": 2.0827651791,
				"z": 2.8943516739,
				"element": "C" 
			},
			{
				"x": -1.606966994,
				"y": 1.7174641136,
				"z": 3.6758080462,
				"element": "C" 
			},
			{
				"x": -0.3798049684,
				"y": 1.5483432849,
				"z": 3.0815982762,
				"element": "C" 
			},
			{
				"x": -0.2477923272,
				"y": 1.738084003,
				"z": 1.6865084559,
				"element": "C" 
			},
			{
				"x": 0.8133218084,
				"y": 1.6310667572,
				"z": 0.8881666809,
				"element": "N" 
			},
			{
				"x": 0.6135827248,
				"y": -1.0740960867,
				"z": -3.5595870589,
				"element": "C" 
			},
			{
				"x": 0.7177957977,
				"y": -2.4619859669,
				"z": -3.5115481395,
				"element": "C" 
			},
			{
				"x": 1.1975304615,
				"y": -3.0960905707,
				"z": -2.3667235954,
				"element": "C" 
			},
			{
				"x": 2.8132013267,
				"y": -2.914237964,
				"z": 1.9611750074,
				"element": "H" 
			},
			{
				"x": 1.741849343,
				"y": -1.555570316,
				"z": 1.5098935996,
				"element": "H" 
			},
			{
				"x": 3.3911133892,
				"y": -1.6037272467,
				"z": 0.8988412748,
				"element": "H" 
			},
			{
				"x": 1.7462880324,
				"y": -0.3419495401,
				"z": -0.4306718738,
				"element": "H" 
			},
			{
				"x": 2.2935569381,
				"y": 1.6625206571,
				"z": -1.2089712838,
				"element": "H" 
			},
			{
				"x": 1.3236260991,
				"y": 2.9044135264,
				"z": -2.0209859403,
				"element": "H" 
			},
			{
				"x": -1.6795452395,
				"y": 2.4877700668,
				"z": -1.1505671533,
				"element": "H" 
			},
			{
				"x": -3.4404176632,
				"y": 2.5471942949,
				"z": 0.8945840724,
				"element": "H" 
			},
			{
				"x": -3.7105886213,
				"y": 2.216855419,
				"z": 3.3586986708,
				"element": "H" 
			},
			{
				"x": -1.7200620607,
				"y": 1.573723271,
				"z": 4.7451293419,
				"element": "H" 
			},
			{
				"x": 0.5049681862,
				"y": 1.271850887,
				"z": 3.6432655983,
				"element": "H" 
			},
			{
				"x": 0.2439775976,
				"y": -0.5636355055,
				"z": -4.4432351561,
				"element": "H" 
			},
			{
				"x": 0.4224736512,
				"y": -3.0495044385,
				"z": -4.3762267788,
				"element": "H" 
			},
			{
				"x": 1.2844155611,
				"y": -4.1749066932,
				"z": -2.3050482479,
				"element": "H" 
			}
		],
		 "valence_orbital": [ 
			{
				"type": "occ",
				"energy": -0.25442,
				"method": "rhf"
			},
			{
				"type": "occ",
				"energy": -0.24915,
				"method": "rhf"
			},
			{
				"type": "occ",
				"energy": -0.23635,
				"method": "rhf"
			},
			{
				"type": "occ",
				"energy": -0.22171,
				"method": "rhf"
			},
			{
				"type": "occ",
				"energy": -0.21818,
				"method": "rhf"
			},
			{
				"type": "unocc",
				"energy": -0.04494,
				"method": "rhf"
			},
			{
				"type": "unocc",
				"energy": -0.0427,
				"method": "rhf"
			},
			{
				"type": "unocc",
				"energy": -0.00852,
				"method": "rhf"
			},
			{
				"type": "unocc",
				"energy": 0.01137,
				"method": "rhf"
			},
			{
				"type": "unocc",
				"energy": 0.04145,
				"method": "rhf"
			}
		],
		"cosmo_sigma_profile": { 
			"-0.025": 0.0,
			"-0.024": 0.0,
			"-0.023": 0.0,
			"-0.022": 0.0,
			"-0.021": 0.0,
			"-0.02": 0.0,
			"-0.019": 0.0,
			"-0.018": 0.0,
			"-0.017": 0.0,
			"-0.016": 0.0,
			"-0.015": 0.0,
			"-0.014": 0.0,
			"-0.013": 0.0,
			"-0.012": 0.0,
			"-0.011": 0.00648404897482,
			"-0.01": 1.43568603835,
			"-0.009": 4.60619588929,
			"-0.008": 4.00634803478,
			"-0.007": 9.29578812155,
			"-0.006": 18.1406920963,
			"-0.005": 22.8581463962,
			"-0.004": 26.2630356435,
			"-0.003": 21.2050245667,
			"-0.002": 18.3711949375,
			"-0.001": 20.8478984857,
			"0.0": 24.1231479813,
			"0.001": 21.4850139678,
			"0.002": 24.6608525196,
			"0.003": 31.8260592503,
			"0.004": 21.430825744,
			"0.005": 6.41847807441,
			"0.006": 4.55866815624,
			"0.007": 4.29397194576,
			"0.008": 4.28429885119,
			"0.009": 3.05824413301,
			"0.01": 3.22150432117,
			"0.011": 4.05213014727,
			"0.012": 5.04465589339,
			"0.013": 2.03818942886,
			"0.014": 0.793773324521,
			"0.015": 0.786936251954,
			"0.016": 0.567947180683,
			"0.017": 0.211744532642,
			"0.018": 0.0,
			"0.019": 0.0,
			"0.02": 0.0,
			"0.021": 0.0,
			"0.022": 0.0,
			"0.023": 0.0,
			"0.024": 0.0,
			"0.025": 0.0
		}
	}
}
