{
	 "smiles": "NC1=CC=C(CC2CC(=O)NC2=O)C=C1", 
	 "Tm": 412.15, 
	 "num_atms": 27, 
	 "gaussian": { 
		 "optdone": 1, 
		 "sigma_profile": "yes", 
		 "theory": "DFT", 
		 "functional": "B3LYP", 
		 "basiset": "6-31G**", 
		 "properties": { 
			 "R2extent": 3547.6244, 
			 "electric_dipole_moment_norm": 3.20792880844, 
			 "electric_quadrupole_moment_norm": 21.8939395751, 
			 "total_energy": -686.395707322, 
			 "HOMO_LUMO_gap": 0.18461, 
			 "cosmo_polarized_energy": -18.23, 
			 "cosmo_cavitation_energy": 30.54, 
			 "cosmo_dispersion_energy": -21.84, 
			 "cosmo_repulsion_energy": 1.74, 
			 "cosmo_total_nonelectrostatic_energy": 10.43, 
			 "SMD_solvation_energy": 6.07 
		},
		"coords": [
			{
				"x": -4.5485507862,
				"y": 0.5828121298,
				"z": 1.326900562,
				"element": "N" 
			},
			{
				"x": -3.4839159778,
				"y": 0.2071132026,
				"z": 0.5061842855,
				"element": "C" 
			},
			{
				"x": -2.8606404945,
				"y": 1.1419004033,
				"z": -0.3394632719,
				"element": "C" 
			},
			{
				"x": -1.7643076716,
				"y": 0.7803349416,
				"z": -1.1157860751,
				"element": "C" 
			},
			{
				"x": -1.2412549763,
				"y": -0.5222787085,
				"z": -1.0822424301,
				"element": "C" 
			},
			{
				"x": -0.0411090458,
				"y": -0.9111477218,
				"z": -1.9196318551,
				"element": "C" 
			},
			{
				"x": 1.3345323891,
				"y": -0.5200583995,
				"z": -1.3271448721,
				"element": "C" 
			},
			{
				"x": 1.640714467,
				"y": -0.9730227206,
				"z": 0.1137281568,
				"element": "C" 
			},
			{
				"x": 2.2878909849,
				"y": 0.2293917623,
				"z": 0.7940252585,
				"element": "C" 
			},
			{
				"x": 2.8120585895,
				"y": 0.28536449,
				"z": 1.8839541166,
				"element": "O" 
			},
			{
				"x": 2.1476142753,
				"y": 1.3070269037,
				"z": -0.0825514233,
				"element": "N" 
			},
			{
				"x": 1.5555108465,
				"y": 0.9982120793,
				"z": -1.3009113028,
				"element": "C" 
			},
			{
				"x": 1.2986519122,
				"y": 1.7984766227,
				"z": -2.1767704616,
				"element": "O" 
			},
			{
				"x": -1.8738843979,
				"y": -1.4496626351,
				"z": -0.2427500059,
				"element": "C" 
			},
			{
				"x": -2.9724408921,
				"y": -1.1004678047,
				"z": 0.5395568967,
				"element": "C" 
			},
			{
				"x": -5.074246106,
				"y": 1.38544768,
				"z": 1.0092466056,
				"element": "H" 
			},
			{
				"x": -5.1535720837,
				"y": -0.1715758141,
				"z": 1.6206675928,
				"element": "H" 
			},
			{
				"x": -3.2440423533,
				"y": 2.158502188,
				"z": -0.3869832723,
				"element": "H" 
			},
			{
				"x": -1.3060868629,
				"y": 1.5209902725,
				"z": -1.7649921639,
				"element": "H" 
			},
			{
				"x": -0.0422892495,
				"y": -1.9950276303,
				"z": -2.0810889044,
				"element": "H" 
			},
			{
				"x": -0.1047809125,
				"y": -0.4432193618,
				"z": -2.9079537621,
				"element": "H" 
			},
			{
				"x": 2.1055478657,
				"y": -0.907641176,
				"z": -2.0070090335,
				"element": "H" 
			},
			{
				"x": 2.3016577247,
				"y": -1.8400251822,
				"z": 0.1845065202,
				"element": "H" 
			},
			{
				"x": 0.7241069059,
				"y": -1.2082272011,
				"z": 0.6659913722,
				"element": "H" 
			},
			{
				"x": 2.4410622138,
				"y": 2.2453020815,
				"z": 0.1589979733,
				"element": "H" 
			},
			{
				"x": -1.510230055,
				"y": -2.47462291,
				"z": -0.2082328524,
				"element": "H" 
			},
			{
				"x": -3.4403963095,
				"y": -1.8440974916,
				"z": 1.1802523465,
				"element": "H" 
			}
		],
		 "valence_orbital": [ 
			{
				"type": "occ",
				"energy": -0.28845,
				"method": "rhf"
			},
			{
				"type": "occ",
				"energy": -0.28193,
				"method": "rhf"
			},
			{
				"type": "occ",
				"energy": -0.25401,
				"method": "rhf"
			},
			{
				"type": "occ",
				"energy": -0.24839,
				"method": "rhf"
			},
			{
				"type": "occ",
				"energy": -0.20218,
				"method": "rhf"
			},
			{
				"type": "unocc",
				"energy": -0.01757,
				"method": "rhf"
			},
			{
				"type": "unocc",
				"energy": -0.00295,
				"method": "rhf"
			},
			{
				"type": "unocc",
				"energy": 0.0122,
				"method": "rhf"
			},
			{
				"type": "unocc",
				"energy": 0.03147,
				"method": "rhf"
			},
			{
				"type": "unocc",
				"energy": 0.07876,
				"method": "rhf"
			}
		],
		"cosmo_sigma_profile": { 
			"-0.025": 0.0,
			"-0.024": 0.0,
			"-0.023": 0.0,
			"-0.022": 0.0,
			"-0.021": 0.0,
			"-0.02": 0.0,
			"-0.019": 0.0,
			"-0.018": 0.0,
			"-0.017": 0.13505701205,
			"-0.016": 1.04716162439,
			"-0.015": 1.17068246747,
			"-0.014": 1.15049898253,
			"-0.013": 0.921219967438,
			"-0.012": 2.84318981708,
			"-0.011": 4.22875621223,
			"-0.01": 2.79934343584,
			"-0.009": 2.88497255052,
			"-0.008": 5.81454786485,
			"-0.007": 9.15858472431,
			"-0.006": 10.8582973523,
			"-0.005": 16.1351842374,
			"-0.004": 20.0293567126,
			"-0.003": 20.7081906626,
			"-0.002": 17.0505418742,
			"-0.001": 12.7631086622,
			"0.0": 9.91297612997,
			"0.001": 10.5578587883,
			"0.002": 9.90719982337,
			"0.003": 9.34484691358,
			"0.004": 8.74842946906,
			"0.005": 9.06367304079,
			"0.006": 11.4093864551,
			"0.007": 8.27273320092,
			"0.008": 3.45387034965,
			"0.009": 3.61350140454,
			"0.01": 5.13250972645,
			"0.011": 7.14158835029,
			"0.012": 10.3233134642,
			"0.013": 3.49602105378,
			"0.014": 0.860501958437,
			"0.015": 0.300172577431,
			"0.016": 0.0,
			"0.017": 0.0,
			"0.018": 0.0,
			"0.019": 0.0,
			"0.02": 0.0,
			"0.021": 0.0,
			"0.022": 0.0,
			"0.023": 0.0,
			"0.024": 0.0,
			"0.025": 0.0
		}
	}
}
