{
	 "smiles": "[O-][N+](=O)C1=CC(=C(C=C/C2=CC=CC=C2)C=C1C(Cl)=CC1=CC=CC=C1)[N+]([O-])=O", 
	 "Tm": 464.15, 
	 "num_atms": 44, 
	 "gaussian": { 
		 "optdone": 1, 
		 "sigma_profile": "yes", 
		 "theory": "DFT", 
		 "functional": "B3LYP", 
		 "basiset": "6-31G**", 
		 "properties": { 
			 "R2extent": 12463.8696, 
			 "electric_dipole_moment_norm": 6.55854731019, 
			 "electric_quadrupole_moment_norm": 19.4742428864, 
			 "total_energy": -1717.72890585, 
			 "HOMO_LUMO_gap": 0.12089, 
			 "cosmo_polarized_energy": -15.97, 
			 "cosmo_cavitation_energy": 52.35, 
			 "cosmo_dispersion_energy": -33.23, 
			 "cosmo_repulsion_energy": 2.56, 
			 "cosmo_total_nonelectrostatic_energy": 21.68, 
			 "SMD_solvation_energy": 12.36 
		},
		"coords": [
			{
				"x": 4.1094235585,
				"y": -3.4303840983,
				"z": 0.2952525974,
				"element": "O" 
			},
			{
				"x": 3.4526571688,
				"y": -2.8623416289,
				"z": -0.5741144887,
				"element": "N" 
			},
			{
				"x": 3.5802128456,
				"y": -3.0339139241,
				"z": -1.7849630126,
				"element": "O" 
			},
			{
				"x": 2.4586447058,
				"y": -1.8704151323,
				"z": -0.1328285137,
				"element": "C" 
			},
			{
				"x": 2.6847215368,
				"y": -1.2658808218,
				"z": 1.0921672669,
				"element": "C" 
			},
			{
				"x": 1.8278229845,
				"y": -0.2604929165,
				"z": 1.5315719595,
				"element": "C" 
			},
			{
				"x": 0.7186574883,
				"y": 0.1635913367,
				"z": 0.76769579,
				"element": "C" 
			},
			{
				"x": -0.1609103551,
				"y": 1.294032619,
				"z": 1.1158065899,
				"element": "C" 
			},
			{
				"x": -1.4988030375,
				"y": 1.3799126111,
				"z": 0.9654814311,
				"element": "C" 
			},
			{
				"x": -2.488692272,
				"y": 0.3443434056,
				"z": 0.6258721431,
				"element": "C" 
			},
			{
				"x": -3.6554761143,
				"y": 0.7252858542,
				"z": -0.0627072315,
				"element": "C" 
			},
			{
				"x": -4.628764175,
				"y": -0.2133907049,
				"z": -0.3986042363,
				"element": "C" 
			},
			{
				"x": -4.4661579079,
				"y": -1.5510394551,
				"z": -0.0322685216,
				"element": "C" 
			},
			{
				"x": -3.3274296137,
				"y": -1.9396994565,
				"z": 0.6782186482,
				"element": "C" 
			},
			{
				"x": -2.3502643509,
				"y": -1.0033568329,
				"z": 1.0072363767,
				"element": "C" 
			},
			{
				"x": 0.5304538475,
				"y": -0.4926597488,
				"z": -0.4650320703,
				"element": "C" 
			},
			{
				"x": 1.3658832765,
				"y": -1.5033737404,
				"z": -0.9448482837,
				"element": "C" 
			},
			{
				"x": 0.9774447034,
				"y": -2.1717752303,
				"z": -2.2144996503,
				"element": "C" 
			},
			{
				"x": 0.4444972031,
				"y": -3.84276357,
				"z": -1.986439503,
				"element": "Cl" 
			},
			{
				"x": 0.8663001885,
				"y": -1.6116956704,
				"z": -3.4281575119,
				"element": "C" 
			},
			{
				"x": 1.3166949759,
				"y": -0.2667338475,
				"z": -3.8249617868,
				"element": "C" 
			},
			{
				"x": 2.4968143872,
				"y": 0.3105476827,
				"z": -3.323539137,
				"element": "C" 
			},
			{
				"x": 2.8938071617,
				"y": 1.581248883,
				"z": -3.7352925363,
				"element": "C" 
			},
			{
				"x": 2.126194438,
				"y": 2.2952910155,
				"z": -4.6582611381,
				"element": "C" 
			},
			{
				"x": 0.9644081617,
				"y": 1.722898779,
				"z": -5.1816425787,
				"element": "C" 
			},
			{
				"x": 0.5685024346,
				"y": 0.4502415277,
				"z": -4.7760054912,
				"element": "C" 
			},
			{
				"x": 2.1316403513,
				"y": 0.3132166298,
				"z": 2.8563985957,
				"element": "N" 
			},
			{
				"x": 3.1959889575,
				"y": -0.0077148327,
				"z": 3.3823876931,
				"element": "O" 
			},
			{
				"x": 1.3043616251,
				"y": 1.0697774071,
				"z": 3.3638877053,
				"element": "O" 
			},
			{
				"x": 3.5252864442,
				"y": -1.566326332,
				"z": 1.7022653291,
				"element": "H" 
			},
			{
				"x": 0.3478713493,
				"y": 2.1708091373,
				"z": 1.5015680824,
				"element": "H" 
			},
			{
				"x": -1.9278044778,
				"y": 2.363695996,
				"z": 1.1512574192,
				"element": "H" 
			},
			{
				"x": -3.7897992734,
				"y": 1.7670671479,
				"z": -0.3425678827,
				"element": "H" 
			},
			{
				"x": -5.517063548,
				"y": 0.1001294119,
				"z": -0.9392570225,
				"element": "H" 
			},
			{
				"x": -5.2271392858,
				"y": -2.2831795277,
				"z": -0.2856357392,
				"element": "H" 
			},
			{
				"x": -3.2051015514,
				"y": -2.9738691916,
				"z": 0.9863073204,
				"element": "H" 
			},
			{
				"x": -1.4856644207,
				"y": -1.3104854874,
				"z": 1.5858212184,
				"element": "H" 
			},
			{
				"x": -0.3091660985,
				"y": -0.1924081098,
				"z": -1.0790014837,
				"element": "H" 
			},
			{
				"x": 0.4058462423,
				"y": -2.2133705981,
				"z": -4.2080833282,
				"element": "H" 
			},
			{
				"x": 3.120909898,
				"y": -0.2604428814,
				"z": -2.6446768869,
				"element": "H" 
			},
			{
				"x": 3.8131753055,
				"y": 2.0088673925,
				"z": -3.3458012267,
				"element": "H" 
			},
			{
				"x": 2.439597704,
				"y": 3.2842497508,
				"z": -4.9794874295,
				"element": "H" 
			},
			{
				"x": 0.369779532,
				"y": 2.2658043394,
				"z": -5.9106106066,
				"element": "H" 
			},
			{
				"x": -0.3334619933,
				"y": 0.0060028125,
				"z": -5.1889088685,
				"element": "H" 
			}
		],
		 "valence_orbital": [ 
			{
				"type": "occ",
				"energy": -0.28945,
				"method": "rhf"
			},
			{
				"type": "occ",
				"energy": -0.26483,
				"method": "rhf"
			},
			{
				"type": "occ",
				"energy": -0.26333,
				"method": "rhf"
			},
			{
				"type": "occ",
				"energy": -0.23999,
				"method": "rhf"
			},
			{
				"type": "occ",
				"energy": -0.23504,
				"method": "rhf"
			},
			{
				"type": "unocc",
				"energy": -0.11415,
				"method": "rhf"
			},
			{
				"type": "unocc",
				"energy": -0.0969,
				"method": "rhf"
			},
			{
				"type": "unocc",
				"energy": -0.05496,
				"method": "rhf"
			},
			{
				"type": "unocc",
				"energy": -0.04971,
				"method": "rhf"
			},
			{
				"type": "unocc",
				"energy": -0.03091,
				"method": "rhf"
			}
		],
		"cosmo_sigma_profile": { 
			"-0.025": 0.0,
			"-0.024": 0.0,
			"-0.023": 0.0,
			"-0.022": 0.0,
			"-0.021": 0.0,
			"-0.02": 0.0,
			"-0.019": 0.0,
			"-0.018": 0.0,
			"-0.017": 0.0,
			"-0.016": 0.0,
			"-0.015": 0.0,
			"-0.014": 0.0,
			"-0.013": 0.0,
			"-0.012": 0.0,
			"-0.011": 0.0,
			"-0.01": 0.000699617541658,
			"-0.009": 0.730683154464,
			"-0.008": 2.9881339245,
			"-0.007": 8.50208191146,
			"-0.006": 31.1474849598,
			"-0.005": 34.1649434808,
			"-0.004": 38.4856961384,
			"-0.003": 33.1094245251,
			"-0.002": 27.8914912998,
			"-0.001": 27.6608548469,
			"0.0": 27.0814822081,
			"0.001": 26.9406413743,
			"0.002": 29.411310156,
			"0.003": 29.4887638475,
			"0.004": 30.5480116212,
			"0.005": 26.3880788282,
			"0.006": 12.9979297742,
			"0.007": 17.1069563062,
			"0.008": 10.3875786104,
			"0.009": 6.99073839481,
			"0.01": 1.17292401344,
			"0.011": 0.0,
			"0.012": 0.0,
			"0.013": 0.0,
			"0.014": 0.0,
			"0.015": 0.0,
			"0.016": 0.0,
			"0.017": 0.0,
			"0.018": 0.0,
			"0.019": 0.0,
			"0.02": 0.0,
			"0.021": 0.0,
			"0.022": 0.0,
			"0.023": 0.0,
			"0.024": 0.0,
			"0.025": 0.0
		}
	}
}
