{
	 "smiles": "CC(C)(C)C1=CC=CC(=C1O)C(C)(C)C", 
	 "Tm": 310.95, 
	 "num_atms": 37, 
	 "gaussian": { 
		 "optdone": 1, 
		 "sigma_profile": "yes", 
		 "theory": "DFT", 
		 "functional": "B3LYP", 
		 "basiset": "6-31G**", 
		 "properties": { 
			 "R2extent": 3731.9929, 
			 "electric_dipole_moment_norm": 1.80582268509, 
			 "electric_quadrupole_moment_norm": 6.0785926381, 
			 "total_energy": -621.983480255, 
			 "HOMO_LUMO_gap": 0.21423, 
			 "cosmo_polarized_energy": -5.77, 
			 "cosmo_cavitation_energy": 35.09, 
			 "cosmo_dispersion_energy": -24.84, 
			 "cosmo_repulsion_energy": 1.92, 
			 "cosmo_total_nonelectrostatic_energy": 12.17, 
			 "SMD_solvation_energy": 6.33 
		},
		"coords": [
			{
				"x": 3.1497533122,
				"y": 1.8648786874,
				"z": 0.5084258671,
				"element": "C" 
			},
			{
				"x": 1.6289006092,
				"y": 1.7475550417,
				"z": 0.2684280185,
				"element": "C" 
			},
			{
				"x": 0.9538520889,
				"y": 2.4947654785,
				"z": 1.4520789413,
				"element": "C" 
			},
			{
				"x": 1.3560173213,
				"y": 2.4680211785,
				"z": -1.081252093,
				"element": "C" 
			},
			{
				"x": 1.164977475,
				"y": 0.2687782225,
				"z": 0.2106588695,
				"element": "C" 
			},
			{
				"x": 2.0869254713,
				"y": -0.7711017912,
				"z": 0.3687000283,
				"element": "C" 
			},
			{
				"x": 1.6952783637,
				"y": -2.1056717202,
				"z": 0.322167044,
				"element": "C" 
			},
			{
				"x": 0.359494549,
				"y": -2.4174740975,
				"z": 0.1138569577,
				"element": "C" 
			},
			{
				"x": -0.6275466057,
				"y": -1.4336142922,
				"z": -0.0546331008,
				"element": "C" 
			},
			{
				"x": -0.1962447363,
				"y": -0.0885235593,
				"z": -0.0012863498,
				"element": "C" 
			},
			{
				"x": -1.1570068828,
				"y": 0.8804345879,
				"z": -0.1638594261,
				"element": "O" 
			},
			{
				"x": -2.0816846527,
				"y": -1.9365033852,
				"z": -0.2790447613,
				"element": "C" 
			},
			{
				"x": -3.1668956634,
				"y": -0.8543093485,
				"z": -0.469795285,
				"element": "C" 
			},
			{
				"x": -2.5052806755,
				"y": -2.7850741615,
				"z": 0.9468871927,
				"element": "C" 
			},
			{
				"x": -2.1072280731,
				"y": -2.8250363444,
				"z": -1.5488683459,
				"element": "C" 
			},
			{
				"x": 3.4500723785,
				"y": 1.4149585935,
				"z": 1.4594847555,
				"element": "H" 
			},
			{
				"x": 3.4292535973,
				"y": 2.9228736945,
				"z": 0.5414730939,
				"element": "H" 
			},
			{
				"x": 3.7281431145,
				"y": 1.396212844,
				"z": -0.2934156897,
				"element": "H" 
			},
			{
				"x": 1.2824125773,
				"y": 3.5395634934,
				"z": 1.4767798776,
				"element": "H" 
			},
			{
				"x": -0.1400559667,
				"y": 2.4976758656,
				"z": 1.4251788782,
				"element": "H" 
			},
			{
				"x": 1.2381808697,
				"y": 2.0266985527,
				"z": 2.3994737229,
				"element": "H" 
			},
			{
				"x": 1.6796015038,
				"y": 3.5131128473,
				"z": -1.0245408008,
				"element": "H" 
			},
			{
				"x": 0.3075867303,
				"y": 2.4684141165,
				"z": -1.3947645832,
				"element": "H" 
			},
			{
				"x": 1.9180229639,
				"y": 1.9814139236,
				"z": -1.884278216,
				"element": "H" 
			},
			{
				"x": 3.132790932,
				"y": -0.5447100456,
				"z": 0.5320183892,
				"element": "H" 
			},
			{
				"x": 2.4298725554,
				"y": -2.8953752307,
				"z": 0.448027736,
				"element": "H" 
			},
			{
				"x": 0.0705363383,
				"y": -3.4627371924,
				"z": 0.0806398408,
				"element": "H" 
			},
			{
				"x": -0.7472846797,
				"y": 1.7480473724,
				"z": -0.1120033651,
				"element": "H" 
			},
			{
				"x": -3.2565982351,
				"y": -0.2006271244,
				"z": 0.3992991728,
				"element": "H" 
			},
			{
				"x": -4.129119571,
				"y": -1.3585079408,
				"z": -0.6174951927,
				"element": "H" 
			},
			{
				"x": -2.9761726506,
				"y": -0.226053029,
				"z": -1.3414453703,
				"element": "H" 
			},
			{
				"x": -2.5060925813,
				"y": -2.1770775984,
				"z": 1.8576069594,
				"element": "H" 
			},
			{
				"x": -1.84103189,
				"y": -3.6372088506,
				"z": 1.1158861055,
				"element": "H" 
			},
			{
				"x": -3.5183439643,
				"y": -3.1773371502,
				"z": 0.8015279087,
				"element": "H" 
			},
			{
				"x": -1.4284767111,
				"y": -3.6793542606,
				"z": -1.4763240816,
				"element": "H" 
			},
			{
				"x": -1.8211695363,
				"y": -2.2459316306,
				"z": -2.4331069657,
				"element": "H" 
			},
			{
				"x": -3.117439676,
				"y": -3.2168757467,
				"z": -1.7137857328,
				"element": "H" 
			}
		],
		 "valence_orbital": [ 
			{
				"type": "occ",
				"energy": -0.31202,
				"method": "rhf"
			},
			{
				"type": "occ",
				"energy": -0.31158,
				"method": "rhf"
			},
			{
				"type": "occ",
				"energy": -0.29614,
				"method": "rhf"
			},
			{
				"type": "occ",
				"energy": -0.23111,
				"method": "rhf"
			},
			{
				"type": "occ",
				"energy": -0.20864,
				"method": "rhf"
			},
			{
				"type": "unocc",
				"energy": 0.00559,
				"method": "rhf"
			},
			{
				"type": "unocc",
				"energy": 0.0198,
				"method": "rhf"
			},
			{
				"type": "unocc",
				"energy": 0.06725,
				"method": "rhf"
			},
			{
				"type": "unocc",
				"energy": 0.09354,
				"method": "rhf"
			},
			{
				"type": "unocc",
				"energy": 0.09996,
				"method": "rhf"
			}
		],
		"cosmo_sigma_profile": { 
			"-0.025": 0.0,
			"-0.024": 0.0,
			"-0.023": 0.0,
			"-0.022": 0.0,
			"-0.021": 0.0,
			"-0.02": 0.0,
			"-0.019": 0.0,
			"-0.018": 0.0,
			"-0.017": 0.0,
			"-0.016": 0.0,
			"-0.015": 0.0,
			"-0.014": 0.42415037391,
			"-0.013": 0.52269253877,
			"-0.012": 0.458858510696,
			"-0.011": 0.2514577876,
			"-0.01": 1.01703608997,
			"-0.009": 0.893717485683,
			"-0.008": 0.673890057599,
			"-0.007": 1.10795297713,
			"-0.006": 0.920969987575,
			"-0.005": 4.91308696413,
			"-0.004": 11.0389759334,
			"-0.003": 30.0705031297,
			"-0.002": 37.3063491426,
			"-0.001": 36.0874233113,
			"0.0": 37.4808710755,
			"0.001": 37.6916696388,
			"0.002": 23.7106352391,
			"0.003": 9.70191960828,
			"0.004": 9.8810128427,
			"0.005": 8.5637758605,
			"0.006": 8.60774789125,
			"0.007": 8.69927577133,
			"0.008": 2.21074017652,
			"0.009": 0.0,
			"0.01": 0.0,
			"0.011": 0.0,
			"0.012": 0.0,
			"0.013": 0.0,
			"0.014": 0.0,
			"0.015": 0.0,
			"0.016": 0.0,
			"0.017": 0.0,
			"0.018": 0.0,
			"0.019": 0.0,
			"0.02": 0.0,
			"0.021": 0.0,
			"0.022": 0.0,
			"0.023": 0.0,
			"0.024": 0.0,
			"0.025": 0.0
		}
	}
}
