{
	 "smiles": "CN(C1CCCCC1)C(=O)C1=C(C=CC=C1)C(O)=O", 
	 "Tm": 418.15, 
	 "num_atms": 38, 
	 "gaussian": { 
		 "optdone": 1, 
		 "sigma_profile": "yes", 
		 "theory": "DFT", 
		 "functional": "B3LYP", 
		 "basiset": "6-31G**", 
		 "properties": { 
			 "R2extent": 5877.7714, 
			 "electric_dipole_moment_norm": 4.55774373457, 
			 "electric_quadrupole_moment_norm": 24.5139131558, 
			 "total_energy": -863.502920377, 
			 "HOMO_LUMO_gap": 0.1794, 
			 "cosmo_polarized_energy": -16.32, 
			 "cosmo_cavitation_energy": 39.13, 
			 "cosmo_dispersion_energy": -26.2, 
			 "cosmo_repulsion_energy": 2.03, 
			 "cosmo_total_nonelectrostatic_energy": 14.95, 
			 "SMD_solvation_energy": 7.45 
		},
		"coords": [
			{
				"x": 1.9192246333,
				"y": 1.9715735845,
				"z": 0.6585389052,
				"element": "C" 
			},
			{
				"x": 0.5928617613,
				"y": 1.5171977478,
				"z": 0.2508911826,
				"element": "N" 
			},
			{
				"x": 0.3603806244,
				"y": 0.073960898,
				"z": 0.0856707312,
				"element": "C" 
			},
			{
				"x": 1.4112145701,
				"y": -0.6028206525,
				"z": -0.8123285093,
				"element": "C" 
			},
			{
				"x": 0.9777170829,
				"y": -2.0469774998,
				"z": -1.1619602892,
				"element": "C" 
			},
			{
				"x": 0.1877550935,
				"y": -2.7276741789,
				"z": -0.0160006551,
				"element": "C" 
			},
			{
				"x": 0.5920033098,
				"y": -2.1574562739,
				"z": 1.3498699121,
				"element": "C" 
			},
			{
				"x": 0.2421315122,
				"y": -0.6553485951,
				"z": 1.4503262101,
				"element": "C" 
			},
			{
				"x": -0.2778992222,
				"y": 2.4787569173,
				"z": -0.1899609639,
				"element": "C" 
			},
			{
				"x": 0.0028822479,
				"y": 3.6727627383,
				"z": -0.2250873425,
				"element": "O" 
			},
			{
				"x": -1.6966613405,
				"y": 2.054236293,
				"z": -0.5249673696,
				"element": "C" 
			},
			{
				"x": -2.2153192667,
				"y": 2.0400157442,
				"z": -1.8359990983,
				"element": "C" 
			},
			{
				"x": -3.5876684609,
				"y": 1.8366857785,
				"z": -2.0409468301,
				"element": "C" 
			},
			{
				"x": -4.4475467337,
				"y": 1.6333487692,
				"z": -0.966504399,
				"element": "C" 
			},
			{
				"x": -3.9371326265,
				"y": 1.6388801398,
				"z": 0.3329628428,
				"element": "C" 
			},
			{
				"x": -2.5757971543,
				"y": 1.8526095108,
				"z": 0.5476019655,
				"element": "C" 
			},
			{
				"x": -1.3909526941,
				"y": 2.2191195787,
				"z": -3.0649587181,
				"element": "C" 
			},
			{
				"x": -0.0641873368,
				"y": 2.0300161362,
				"z": -2.8625719993,
				"element": "O" 
			},
			{
				"x": -1.8413640169,
				"y": 2.4746999815,
				"z": -4.163783565,
				"element": "O" 
			},
			{
				"x": 1.8344199109,
				"y": 2.98566909,
				"z": 1.0475005334,
				"element": "H" 
			},
			{
				"x": 2.621356587,
				"y": 1.9874654161,
				"z": -0.184011917,
				"element": "H" 
			},
			{
				"x": 2.3179736704,
				"y": 1.3121928043,
				"z": 1.433474845,
				"element": "H" 
			},
			{
				"x": -0.5982875807,
				"y": -0.0141895347,
				"z": -0.4306051347,
				"element": "H" 
			},
			{
				"x": 2.3792366237,
				"y": -0.618679409,
				"z": -0.2970446703,
				"element": "H" 
			},
			{
				"x": 1.5449925228,
				"y": -0.0128671258,
				"z": -1.7240588454,
				"element": "H" 
			},
			{
				"x": 0.3650863735,
				"y": -2.0378923909,
				"z": -2.0709085387,
				"element": "H" 
			},
			{
				"x": 1.8707213066,
				"y": -2.6358312321,
				"z": -1.4006127988,
				"element": "H" 
			},
			{
				"x": -0.8894999197,
				"y": -2.5708655706,
				"z": -0.1593926928,
				"element": "H" 
			},
			{
				"x": 0.3422486231,
				"y": -3.8117890069,
				"z": -0.0439978292,
				"element": "H" 
			},
			{
				"x": 1.6714968309,
				"y": -2.2992242886,
				"z": 1.4905646812,
				"element": "H" 
			},
			{
				"x": 0.1047410722,
				"y": -2.7088562792,
				"z": 2.1615334904,
				"element": "H" 
			},
			{
				"x": 0.8950654782,
				"y": -0.1734728384,
				"z": 2.1863679035,
				"element": "H" 
			},
			{
				"x": -0.7819870509,
				"y": -0.5286461438,
				"z": 1.8212216638,
				"element": "H" 
			},
			{
				"x": -3.9554181483,
				"y": 1.8419497785,
				"z": -3.0613318942,
				"element": "H" 
			},
			{
				"x": -5.5072516526,
				"y": 1.4737179114,
				"z": -1.1401600228,
				"element": "H" 
			},
			{
				"x": -4.598455981,
				"y": 1.4860661055,
				"z": 1.181076102,
				"element": "H" 
			},
			{
				"x": -2.1854610163,
				"y": 1.8820227133,
				"z": 1.5605769002,
				"element": "H" 
			},
			{
				"x": 0.3637803672,
				"y": 2.2163433834,
				"z": -3.7145837855,
				"element": "H" 
			}
		],
		 "valence_orbital": [ 
			{
				"type": "occ",
				"energy": -0.28071,
				"method": "rhf"
			},
			{
				"type": "occ",
				"energy": -0.26929,
				"method": "rhf"
			},
			{
				"type": "occ",
				"energy": -0.26364,
				"method": "rhf"
			},
			{
				"type": "occ",
				"energy": -0.24039,
				"method": "rhf"
			},
			{
				"type": "occ",
				"energy": -0.23011,
				"method": "rhf"
			},
			{
				"type": "unocc",
				"energy": -0.05071,
				"method": "rhf"
			},
			{
				"type": "unocc",
				"energy": -0.01636,
				"method": "rhf"
			},
			{
				"type": "unocc",
				"energy": 0.03215,
				"method": "rhf"
			},
			{
				"type": "unocc",
				"energy": 0.0503,
				"method": "rhf"
			},
			{
				"type": "unocc",
				"energy": 0.06543,
				"method": "rhf"
			}
		],
		"cosmo_sigma_profile": { 
			"-0.025": 0.0,
			"-0.024": 0.0,
			"-0.023": 0.0,
			"-0.022": 0.0,
			"-0.021": 0.0,
			"-0.02": 0.0,
			"-0.019": 0.0538539757474,
			"-0.018": 0.951062017591,
			"-0.017": 0.760259750128,
			"-0.016": 0.970195896902,
			"-0.015": 0.929136289419,
			"-0.014": 0.393889073213,
			"-0.013": 0.202804976212,
			"-0.012": 1.07745336814,
			"-0.011": 1.09012399564,
			"-0.01": 0.638762439405,
			"-0.009": 0.548652602834,
			"-0.008": 0.375377110808,
			"-0.007": 4.52247104104,
			"-0.006": 9.92192185978,
			"-0.005": 12.5076515952,
			"-0.004": 15.7496124299,
			"-0.003": 26.0942518681,
			"-0.002": 46.029245278,
			"-0.001": 42.3287635423,
			"0.0": 33.4737563095,
			"0.001": 28.3405416809,
			"0.002": 16.1086632222,
			"0.003": 15.2734282549,
			"0.004": 6.6502034333,
			"0.005": 4.22766567548,
			"0.006": 3.88846883918,
			"0.007": 3.2539005975,
			"0.008": 2.7132120243,
			"0.009": 4.09950878411,
			"0.01": 3.86105611804,
			"0.011": 5.61000573704,
			"0.012": 4.91977965362,
			"0.013": 3.74320042579,
			"0.014": 4.53486203659,
			"0.015": 0.771105511112,
			"0.016": 0.0,
			"0.017": 0.0,
			"0.018": 0.0,
			"0.019": 0.0,
			"0.02": 0.0,
			"0.021": 0.0,
			"0.022": 0.0,
			"0.023": 0.0,
			"0.024": 0.0,
			"0.025": 0.0
		}
	}
}
