{
	 "smiles": "CC1=C(N=NN1C1=C(Cl)C=C(Br)C=C1)C(O)=O", 
	 "Tm": 437.15, 
	 "num_atms": 24, 
	 "gaussian": { 
		 "optdone": 1, 
		 "sigma_profile": "yes", 
		 "theory": "DFT", 
		 "functional": "B3LYP", 
		 "basiset": "6-31G**", 
		 "properties": { 
			 "R2extent": 8032.6139, 
			 "electric_dipole_moment_norm": 5.55813908606, 
			 "electric_quadrupole_moment_norm": 20.8191466256, 
			 "total_energy": -3731.55786266, 
			 "HOMO_LUMO_gap": 0.20962, 
			 "cosmo_polarized_energy": -14.74, 
			 "cosmo_cavitation_energy": 33.73, 
			 "cosmo_dispersion_energy": -24.37, 
			 "cosmo_repulsion_energy": 1.89, 
			 "cosmo_total_nonelectrostatic_energy": 11.26, 
			 "SMD_solvation_energy": 4.67 
		},
		"coords": [
			{
				"x": 1.0812379698,
				"y": 2.1123481385,
				"z": -0.0808765222,
				"element": "C" 
			},
			{
				"x": 0.8725750069,
				"y": 1.4445478002,
				"z": -1.3963978268,
				"element": "C" 
			},
			{
				"x": 1.0217991814,
				"y": 1.9028510743,
				"z": -2.6943762739,
				"element": "C" 
			},
			{
				"x": 0.7403657129,
				"y": 0.8865772068,
				"z": -3.5637790098,
				"element": "N" 
			},
			{
				"x": 0.4226145714,
				"y": -0.1794694735,
				"z": -2.9066200084,
				"element": "N" 
			},
			{
				"x": 0.4917703834,
				"y": 0.1460681909,
				"z": -1.5723658161,
				"element": "N" 
			},
			{
				"x": 0.2405503198,
				"y": -0.8602122903,
				"z": -0.5960642069,
				"element": "C" 
			},
			{
				"x": -0.9195003715,
				"y": -0.8543030587,
				"z": 0.1922520054,
				"element": "C" 
			},
			{
				"x": -2.1291379792,
				"y": 0.3899450356,
				"z": 0.0006500303,
				"element": "Cl" 
			},
			{
				"x": -1.1394503824,
				"y": -1.8620247773,
				"z": 1.1314628866,
				"element": "C" 
			},
			{
				"x": -0.2006123506,
				"y": -2.8832707807,
				"z": 1.2632615965,
				"element": "C" 
			},
			{
				"x": -0.5047777962,
				"y": -4.2576590235,
				"z": 2.5440291134,
				"element": "Br" 
			},
			{
				"x": 0.9486724877,
				"y": -2.9190604309,
				"z": 0.4738611601,
				"element": "C" 
			},
			{
				"x": 1.1607646477,
				"y": -1.9019811359,
				"z": -0.4517688582,
				"element": "C" 
			},
			{
				"x": 1.4346475,
				"y": 3.2345722114,
				"z": -3.1894392497,
				"element": "C" 
			},
			{
				"x": 1.4743796537,
				"y": 3.3288733807,
				"z": -4.5337952344,
				"element": "O" 
			},
			{
				"x": 1.7189281735,
				"y": 4.1667733246,
				"z": -2.4686683075,
				"element": "O" 
			},
			{
				"x": 1.5302783035,
				"y": 3.0897967807,
				"z": -0.2585702584,
				"element": "H" 
			},
			{
				"x": 0.1310378018,
				"y": 2.2531970994,
				"z": 0.4442198675,
				"element": "H" 
			},
			{
				"x": 1.7370758298,
				"y": 1.5189745857,
				"z": 0.5645971068,
				"element": "H" 
			},
			{
				"x": -2.0360477671,
				"y": -1.8497344803,
				"z": 1.7380136305,
				"element": "H" 
			},
			{
				"x": 1.6648216055,
				"y": -3.7244552946,
				"z": 0.582367007,
				"element": "H" 
			},
			{
				"x": 2.0438638097,
				"y": -1.9051140542,
				"z": -1.0813777118,
				"element": "H" 
			},
			{
				"x": 1.2120436885,
				"y": 2.4682599712,
				"z": -4.9095151199,
				"element": "H" 
			}
		],
		 "valence_orbital": [ 
			{
				"type": "occ",
				"energy": -0.29922,
				"method": "rhf"
			},
			{
				"type": "occ",
				"energy": -0.28935,
				"method": "rhf"
			},
			{
				"type": "occ",
				"energy": -0.27702,
				"method": "rhf"
			},
			{
				"type": "occ",
				"energy": -0.27537,
				"method": "rhf"
			},
			{
				"type": "occ",
				"energy": -0.27151,
				"method": "rhf"
			},
			{
				"type": "unocc",
				"energy": -0.06189,
				"method": "rhf"
			},
			{
				"type": "unocc",
				"energy": -0.05367,
				"method": "rhf"
			},
			{
				"type": "unocc",
				"energy": -0.03281,
				"method": "rhf"
			},
			{
				"type": "unocc",
				"energy": -0.03077,
				"method": "rhf"
			},
			{
				"type": "unocc",
				"energy": -0.0256,
				"method": "rhf"
			}
		],
		"cosmo_sigma_profile": { 
			"-0.025": 0.0,
			"-0.024": 0.0,
			"-0.023": 0.0,
			"-0.022": 0.0,
			"-0.021": 0.0,
			"-0.02": 0.0,
			"-0.019": 0.0,
			"-0.018": 0.0,
			"-0.017": 0.0,
			"-0.016": 0.0,
			"-0.015": 0.411014415669,
			"-0.014": 0.331386157343,
			"-0.013": 0.286782292687,
			"-0.012": 0.954668233647,
			"-0.011": 0.96970443031,
			"-0.01": 0.824464012218,
			"-0.009": 3.56515976958,
			"-0.008": 6.70809743203,
			"-0.007": 9.23460941967,
			"-0.006": 10.8624211364,
			"-0.005": 12.9010648354,
			"-0.004": 18.1066986643,
			"-0.003": 21.4248650305,
			"-0.002": 25.3851640375,
			"-0.001": 28.2666022793,
			"0.0": 27.7359891237,
			"0.001": 18.9615468667,
			"0.002": 15.1342349045,
			"0.003": 19.999967589,
			"0.004": 10.701122261,
			"0.005": 4.64273659195,
			"0.006": 3.99179480529,
			"0.007": 5.44898015581,
			"0.008": 6.40414583716,
			"0.009": 6.81985062591,
			"0.01": 7.46430074415,
			"0.011": 4.79904912715,
			"0.012": 3.77343898261,
			"0.013": 1.13417484854,
			"0.014": 0.00791028417828,
			"0.015": 0.0,
			"0.016": 0.0,
			"0.017": 0.0,
			"0.018": 0.0,
			"0.019": 0.0,
			"0.02": 0.0,
			"0.021": 0.0,
			"0.022": 0.0,
			"0.023": 0.0,
			"0.024": 0.0,
			"0.025": 0.0
		}
	}
}
