{
	 "smiles": "COC1=CC(=CC(OC)=C1OC)C(=O)NC1=NN=C(O1)C1=CC=C(Cl)C=C1", 
	 "Tm": 535.15, 
	 "num_atms": 43, 
	 "gaussian": { 
		 "optdone": 1, 
		 "sigma_profile": "yes", 
		 "theory": "DFT", 
		 "functional": "B3LYP", 
		 "basiset": "6-31G**", 
		 "properties": { 
			 "R2extent": 12745.707, 
			 "electric_dipole_moment_norm": 4.41078672574, 
			 "electric_quadrupole_moment_norm": 12.5195645088, 
			 "total_energy": -1696.05678146, 
			 "HOMO_LUMO_gap": 0.16933, 
			 "cosmo_polarized_energy": -19.23, 
			 "cosmo_cavitation_energy": 51.23, 
			 "cosmo_dispersion_energy": -33.54, 
			 "cosmo_repulsion_energy": 2.57, 
			 "cosmo_total_nonelectrostatic_energy": 20.26, 
			 "SMD_solvation_energy": 9.52 
		},
		"coords": [
			{
				"x": -0.8541119754,
				"y": 3.8093430593,
				"z": -3.4590882489,
				"element": "C" 
			},
			{
				"x": -1.1843208482,
				"y": 2.9699585394,
				"z": -2.3454855341,
				"element": "O" 
			},
			{
				"x": -0.4480412699,
				"y": 1.8220831623,
				"z": -2.2167220548,
				"element": "C" 
			},
			{
				"x": -1.0952874998,
				"y": 0.5938453315,
				"z": -2.3413846884,
				"element": "C" 
			},
			{
				"x": -0.4015441119,
				"y": -0.5991994546,
				"z": -2.1076125065,
				"element": "C" 
			},
			{
				"x": 0.9668511422,
				"y": -0.5652503526,
				"z": -1.8095460693,
				"element": "C" 
			},
			{
				"x": 1.627821673,
				"y": 0.6577324063,
				"z": -1.7111964134,
				"element": "C" 
			},
			{
				"x": 2.9594052352,
				"y": 0.6651758036,
				"z": -1.3728506467,
				"element": "O" 
			},
			{
				"x": 3.8520158235,
				"y": 1.1142300123,
				"z": -2.4022589425,
				"element": "C" 
			},
			{
				"x": 0.9219552836,
				"y": 1.8625588024,
				"z": -1.8917928181,
				"element": "C" 
			},
			{
				"x": 1.5568115132,
				"y": 3.0749721619,
				"z": -1.7793781708,
				"element": "O" 
			},
			{
				"x": 1.8482855429,
				"y": 3.4704797094,
				"z": -0.4293968961,
				"element": "C" 
			},
			{
				"x": -1.1426751677,
				"y": -1.8754387756,
				"z": -2.3227430492,
				"element": "C" 
			},
			{
				"x": -2.0342956889,
				"y": -1.9883719617,
				"z": -3.1472355692,
				"element": "O" 
			},
			{
				"x": -0.7580988305,
				"y": -3.0141966256,
				"z": -1.5942131126,
				"element": "N" 
			},
			{
				"x": -0.1742367739,
				"y": -3.1311057793,
				"z": -0.3553056691,
				"element": "C" 
			},
			{
				"x": 0.3884545789,
				"y": -4.196872244,
				"z": 0.133053953,
				"element": "N" 
			},
			{
				"x": 0.7400738128,
				"y": -3.8690533696,
				"z": 1.440948042,
				"element": "N" 
			},
			{
				"x": 0.3822765066,
				"y": -2.6365245648,
				"z": 1.6363126952,
				"element": "C" 
			},
			{
				"x": -0.2293371811,
				"y": -2.0998704653,
				"z": 0.5241995722,
				"element": "O" 
			},
			{
				"x": 0.5516130919,
				"y": -1.8082908655,
				"z": 2.8212976166,
				"element": "C" 
			},
			{
				"x": 1.1736634804,
				"y": -2.3554030645,
				"z": 3.9559468062,
				"element": "C" 
			},
			{
				"x": 1.344514268,
				"y": -1.5877604031,
				"z": 5.1020931142,
				"element": "C" 
			},
			{
				"x": 0.8911251171,
				"y": -0.2663834703,
				"z": 5.1135390502,
				"element": "C" 
			},
			{
				"x": 1.1056999829,
				"y": 0.7055333824,
				"z": 6.5584683238,
				"element": "Cl" 
			},
			{
				"x": 0.2711515406,
				"y": 0.2940571828,
				"z": 3.99677451,
				"element": "C" 
			},
			{
				"x": 0.1024738267,
				"y": -0.4795554648,
				"z": 2.8512032087,
				"element": "C" 
			},
			{
				"x": 0.174680816,
				"y": 4.1733152663,
				"z": -3.3931418451,
				"element": "H" 
			},
			{
				"x": -1.5469703939,
				"y": 4.6517782046,
				"z": -3.415969438,
				"element": "H" 
			},
			{
				"x": -0.9979638087,
				"y": 3.272264467,
				"z": -4.4049527645,
				"element": "H" 
			},
			{
				"x": -2.1464427877,
				"y": 0.5715273506,
				"z": -2.6041063657,
				"element": "H" 
			},
			{
				"x": 1.5475597915,
				"y": -1.4704736891,
				"z": -1.6707647454,
				"element": "H" 
			},
			{
				"x": 3.6334129192,
				"y": 2.1446173234,
				"z": -2.6971657879,
				"element": "H" 
			},
			{
				"x": 3.7903998105,
				"y": 0.4587507283,
				"z": -3.2795463264,
				"element": "H" 
			},
			{
				"x": 4.8561766977,
				"y": 1.0555699031,
				"z": -1.9785251249,
				"element": "H" 
			},
			{
				"x": 2.5009089556,
				"y": 2.7404484372,
				"z": 0.0589238557,
				"element": "H" 
			},
			{
				"x": 2.3573383581,
				"y": 4.4335076591,
				"z": -0.4980011084,
				"element": "H" 
			},
			{
				"x": 0.9221038498,
				"y": 3.587861449,
				"z": 0.1444226436,
				"element": "H" 
			},
			{
				"x": -1.151035978,
				"y": -3.8743157675,
				"z": -1.9581779374,
				"element": "H" 
			},
			{
				"x": 1.5184339992,
				"y": -3.3833333865,
				"z": 3.9260604176,
				"element": "H" 
			},
			{
				"x": 1.8240454059,
				"y": -2.0051710604,
				"z": 5.9802438179,
				"element": "H" 
			},
			{
				"x": -0.075362167,
				"y": 1.320911236,
				"z": 4.0255550731,
				"element": "H" 
			},
			{
				"x": -0.3775285401,
				"y": -0.0512508136,
				"z": 1.9780191332,
				"element": "H" 
			}
		],
		 "valence_orbital": [ 
			{
				"type": "occ",
				"energy": -0.27711,
				"method": "rhf"
			},
			{
				"type": "occ",
				"energy": -0.27328,
				"method": "rhf"
			},
			{
				"type": "occ",
				"energy": -0.24751,
				"method": "rhf"
			},
			{
				"type": "occ",
				"energy": -0.24547,
				"method": "rhf"
			},
			{
				"type": "occ",
				"energy": -0.23307,
				"method": "rhf"
			},
			{
				"type": "unocc",
				"energy": -0.06374,
				"method": "rhf"
			},
			{
				"type": "unocc",
				"energy": -0.05072,
				"method": "rhf"
			},
			{
				"type": "unocc",
				"energy": -0.0259,
				"method": "rhf"
			},
			{
				"type": "unocc",
				"energy": -0.01193,
				"method": "rhf"
			},
			{
				"type": "unocc",
				"energy": 0.00673,
				"method": "rhf"
			}
		],
		"cosmo_sigma_profile": { 
			"-0.025": 0.0,
			"-0.024": 0.0,
			"-0.023": 0.0,
			"-0.022": 0.0,
			"-0.021": 0.0,
			"-0.02": 0.0,
			"-0.019": 0.0,
			"-0.018": 0.0,
			"-0.017": 0.367711346484,
			"-0.016": 1.04142563295,
			"-0.015": 0.973260485699,
			"-0.014": 0.555577666407,
			"-0.013": 1.01331752423,
			"-0.012": 0.708371078415,
			"-0.011": 0.693198981056,
			"-0.01": 1.31698560459,
			"-0.009": 0.711918048555,
			"-0.008": 4.6856703124,
			"-0.007": 9.98987098578,
			"-0.006": 16.3203687992,
			"-0.005": 24.4863584752,
			"-0.004": 33.3978105071,
			"-0.003": 43.4587208795,
			"-0.002": 38.0997555762,
			"-0.001": 31.0482315611,
			"0.0": 32.9469199154,
			"0.001": 36.2051990051,
			"0.002": 34.536491111,
			"0.003": 19.3538436491,
			"0.004": 17.8398471056,
			"0.005": 10.3701364842,
			"0.006": 5.67235723283,
			"0.007": 6.34276695527,
			"0.008": 6.54611715911,
			"0.009": 5.4251622439,
			"0.01": 7.50956328947,
			"0.011": 9.51901604911,
			"0.012": 7.00885776987,
			"0.013": 2.36150477851,
			"0.014": 1.72317808655,
			"0.015": 0.312459623981,
			"0.016": 0.0,
			"0.017": 0.0,
			"0.018": 0.0,
			"0.019": 0.0,
			"0.02": 0.0,
			"0.021": 0.0,
			"0.022": 0.0,
			"0.023": 0.0,
			"0.024": 0.0,
			"0.025": 0.0
		}
	}
}
