{
	 "smiles": "OC(=O)C1CCN(CC1)C1=NC=CN=C1", 
	 "Tm": 423.15, 
	 "num_atms": 28, 
	 "gaussian": { 
		 "optdone": 1, 
		 "sigma_profile": "yes", 
		 "theory": "DFT", 
		 "functional": "B3LYP", 
		 "basiset": "6-31G**", 
		 "properties": { 
			 "R2extent": 4674.5244, 
			 "electric_dipole_moment_norm": 2.24746460706, 
			 "electric_quadrupole_moment_norm": 28.6353524696, 
			 "total_energy": -703.596752232, 
			 "HOMO_LUMO_gap": 0.17223, 
			 "cosmo_polarized_energy": -19.58, 
			 "cosmo_cavitation_energy": 30.47, 
			 "cosmo_dispersion_energy": -22.46, 
			 "cosmo_repulsion_energy": 1.74, 
			 "cosmo_total_nonelectrostatic_energy": 9.75, 
			 "SMD_solvation_energy": 2.95 
		},
		"coords": [
			{
				"x": -2.5486465092,
				"y": 3.1452772915,
				"z": 0.2992668099,
				"element": "O" 
			},
			{
				"x": -1.3272570007,
				"y": 2.9675901705,
				"z": 0.8731879465,
				"element": "C" 
			},
			{
				"x": -0.6869440465,
				"y": 3.9259682624,
				"z": 1.2260658829,
				"element": "O" 
			},
			{
				"x": -0.8522010904,
				"y": 1.514518769,
				"z": 0.9647355394,
				"element": "C" 
			},
			{
				"x": -0.3749261247,
				"y": 1.0323224688,
				"z": -0.4251188631,
				"element": "C" 
			},
			{
				"x": 0.0235360236,
				"y": -0.447964911,
				"z": -0.3769867012,
				"element": "C" 
			},
			{
				"x": 0.8680717314,
				"y": -0.725975271,
				"z": 0.7815483141,
				"element": "N" 
			},
			{
				"x": 1.4014453098,
				"y": 0.4240288286,
				"z": 1.51467681,
				"element": "C" 
			},
			{
				"x": 0.2725424878,
				"y": 1.3373479357,
				"z": 2.0147570491,
				"element": "C" 
			},
			{
				"x": 1.2826123627,
				"y": -2.0095483102,
				"z": 1.0475289109,
				"element": "C" 
			},
			{
				"x": 2.0998322593,
				"y": -2.2083073294,
				"z": 2.0985227976,
				"element": "N" 
			},
			{
				"x": 2.4692807837,
				"y": -3.4646581701,
				"z": 2.3556594368,
				"element": "C" 
			},
			{
				"x": 2.0478479744,
				"y": -4.5447202455,
				"z": 1.5854627511,
				"element": "C" 
			},
			{
				"x": 1.2435623128,
				"y": -4.360070414,
				"z": 0.5271616015,
				"element": "N" 
			},
			{
				"x": 0.8662743863,
				"y": -3.1168754992,
				"z": 0.2551874063,
				"element": "C" 
			},
			{
				"x": -2.9575328013,
				"y": 2.2894712891,
				"z": 0.107937537,
				"element": "H" 
			},
			{
				"x": -1.7160120839,
				"y": 0.8952756782,
				"z": 1.247752339,
				"element": "H" 
			},
			{
				"x": 0.4695945764,
				"y": 1.6503896991,
				"z": -0.747890021,
				"element": "H" 
			},
			{
				"x": -1.1571247123,
				"y": 1.157399119,
				"z": -1.1815600179,
				"element": "H" 
			},
			{
				"x": -0.8883170538,
				"y": -1.0601526782,
				"z": -0.3183098068,
				"element": "H" 
			},
			{
				"x": 0.5301613429,
				"y": -0.722491269,
				"z": -1.3156883885,
				"element": "H" 
			},
			{
				"x": 2.089558104,
				"y": 0.9880309776,
				"z": 0.8685159979,
				"element": "H" 
			},
			{
				"x": 1.9867027907,
				"y": 0.0382657061,
				"z": 2.3472495662,
				"element": "H" 
			},
			{
				"x": -0.1540983853,
				"y": 0.9243900412,
				"z": 2.9340545622,
				"element": "H" 
			},
			{
				"x": 0.685805163,
				"y": 2.3208889158,
				"z": 2.2562292017,
				"element": "H" 
			},
			{
				"x": 3.1296493555,
				"y": -3.6110326906,
				"z": 3.2090933816,
				"element": "H" 
			},
			{
				"x": 2.3593016342,
				"y": -5.5612391054,
				"z": 1.809844536,
				"element": "H" 
			},
			{
				"x": 0.2238812095,
				"y": -2.985329259,
				"z": -0.6102845792,
				"element": "H" 
			}
		],
		 "valence_orbital": [ 
			{
				"type": "occ",
				"energy": -0.29678,
				"method": "rhf"
			},
			{
				"type": "occ",
				"energy": -0.29257,
				"method": "rhf"
			},
			{
				"type": "occ",
				"energy": -0.27866,
				"method": "rhf"
			},
			{
				"type": "occ",
				"energy": -0.24277,
				"method": "rhf"
			},
			{
				"type": "occ",
				"energy": -0.21053,
				"method": "rhf"
			},
			{
				"type": "unocc",
				"energy": -0.0383,
				"method": "rhf"
			},
			{
				"type": "unocc",
				"energy": -0.0011,
				"method": "rhf"
			},
			{
				"type": "unocc",
				"energy": 0.0007,
				"method": "rhf"
			},
			{
				"type": "unocc",
				"energy": 0.03563,
				"method": "rhf"
			},
			{
				"type": "unocc",
				"energy": 0.08035,
				"method": "rhf"
			}
		],
		"cosmo_sigma_profile": { 
			"-0.025": 0.0,
			"-0.024": 0.0,
			"-0.023": 0.0,
			"-0.022": 0.0,
			"-0.021": 0.0,
			"-0.02": 0.0,
			"-0.019": 0.292397546394,
			"-0.018": 0.983014539774,
			"-0.017": 1.06857921221,
			"-0.016": 1.40249002421,
			"-0.015": 0.915008396206,
			"-0.014": 1.19660244952,
			"-0.013": 0.976126743974,
			"-0.012": 1.28771000547,
			"-0.011": 1.32105787833,
			"-0.01": 1.42497177377,
			"-0.009": 0.846262282815,
			"-0.008": 1.63860364424,
			"-0.007": 4.48568147056,
			"-0.006": 11.5557267419,
			"-0.005": 21.5360103718,
			"-0.004": 24.8158426515,
			"-0.003": 21.7728719928,
			"-0.002": 17.937909162,
			"-0.001": 12.1077648691,
			"0.0": 14.381895998,
			"0.001": 13.7321388148,
			"0.002": 13.618380326,
			"0.003": 10.2185932252,
			"0.004": 6.60506442518,
			"0.005": 6.98609378211,
			"0.006": 5.20913657045,
			"0.007": 4.3846697585,
			"0.008": 6.88018146572,
			"0.009": 6.44906409754,
			"0.01": 5.61297252171,
			"0.011": 8.14064419878,
			"0.012": 5.02159688302,
			"0.013": 3.12624402076,
			"0.014": 0.881942514346,
			"0.015": 0.882143610031,
			"0.016": 0.591306869663,
			"0.017": 0.0651508534923,
			"0.018": 0.0,
			"0.019": 0.0,
			"0.02": 0.0,
			"0.021": 0.0,
			"0.022": 0.0,
			"0.023": 0.0,
			"0.024": 0.0,
			"0.025": 0.0
		}
	}
}
