{
	 "smiles": "CC1=CC=C(SC2=CC=C(C=C2)C(=O)C2=CC=CC=C2)C=C1", 
	 "Tm": 353.15, 
	 "num_atms": 38, 
	 "gaussian": { 
		 "optdone": 1, 
		 "sigma_profile": "yes", 
		 "theory": "DFT", 
		 "functional": "B3LYP", 
		 "basiset": "6-31G**", 
		 "properties": { 
			 "R2extent": 11664.9148, 
			 "electric_dipole_moment_norm": 5.36380842779, 
			 "electric_quadrupole_moment_norm": 13.6866483699, 
			 "total_energy": -1245.19233428, 
			 "HOMO_LUMO_gap": 0.15802, 
			 "cosmo_polarized_energy": -11.55, 
			 "cosmo_cavitation_energy": 44.18, 
			 "cosmo_dispersion_energy": -31.58, 
			 "cosmo_repulsion_energy": 2.36, 
			 "cosmo_total_nonelectrostatic_energy": 14.96, 
			 "SMD_solvation_energy": 7.35 
		},
		"coords": [
			{
				"x": 1.9151782031,
				"y": 3.4776543116,
				"z": -3.9517968334,
				"element": "C" 
			},
			{
				"x": 0.8813246517,
				"y": 3.0094877374,
				"z": -2.9557603049,
				"element": "C" 
			},
			{
				"x": 0.6756259555,
				"y": 3.700548598,
				"z": -1.7533634927,
				"element": "C" 
			},
			{
				"x": -0.3003064606,
				"y": 3.2933818579,
				"z": -0.8450248795,
				"element": "C" 
			},
			{
				"x": -1.0913722334,
				"y": 2.1705785495,
				"z": -1.1206673499,
				"element": "C" 
			},
			{
				"x": -2.395945302,
				"y": 1.6829419892,
				"z": 0.0076581819,
				"element": "S" 
			},
			{
				"x": -1.5965011047,
				"y": 0.5633870575,
				"z": 1.1488696069,
				"element": "C" 
			},
			{
				"x": -2.4006005799,
				"y": 0.046528878,
				"z": 2.1812399279,
				"element": "C" 
			},
			{
				"x": -1.8627616113,
				"y": -0.8285204176,
				"z": 3.1124676568,
				"element": "C" 
			},
			{
				"x": -0.5194548603,
				"y": -1.2364920869,
				"z": 3.0316318866,
				"element": "C" 
			},
			{
				"x": 0.2761548321,
				"y": -0.7071997463,
				"z": 2.0047020114,
				"element": "C" 
			},
			{
				"x": -0.2504633514,
				"y": 0.1873684193,
				"z": 1.0739400749,
				"element": "C" 
			},
			{
				"x": 0.0016611004,
				"y": -2.1414219756,
				"z": 4.1019920829,
				"element": "C" 
			},
			{
				"x": -0.5523354401,
				"y": -2.1767679038,
				"z": 5.1972229637,
				"element": "O" 
			},
			{
				"x": 1.2011210349,
				"y": -3.0114929716,
				"z": 3.854239858,
				"element": "C" 
			},
			{
				"x": 1.508945619,
				"y": -3.5538593593,
				"z": 2.5969132198,
				"element": "C" 
			},
			{
				"x": 2.597772316,
				"y": -4.4143704034,
				"z": 2.4479804743,
				"element": "C" 
			},
			{
				"x": 3.3953282973,
				"y": -4.7315463419,
				"z": 3.5484798208,
				"element": "C" 
			},
			{
				"x": 3.0903782913,
				"y": -4.2022740221,
				"z": 4.8064435096,
				"element": "C" 
			},
			{
				"x": 1.9933074232,
				"y": -3.3598781319,
				"z": 4.9600643312,
				"element": "C" 
			},
			{
				"x": -0.89653073,
				"y": 1.4716426837,
				"z": -2.3185533029,
				"element": "C" 
			},
			{
				"x": 0.0816249608,
				"y": 1.8891788771,
				"z": -3.2203204386,
				"element": "C" 
			},
			{
				"x": 2.3014830113,
				"y": 2.6466241836,
				"z": -4.5491037682,
				"element": "H" 
			},
			{
				"x": 2.7606319595,
				"y": 3.96188977,
				"z": -3.4542520974,
				"element": "H" 
			},
			{
				"x": 1.4862043112,
				"y": 4.2082151131,
				"z": -4.6489877843,
				"element": "H" 
			},
			{
				"x": 1.2856069153,
				"y": 4.5711610195,
				"z": -1.5256385816,
				"element": "H" 
			},
			{
				"x": -0.4508326131,
				"y": 3.8416757988,
				"z": 0.0794911231,
				"element": "H" 
			},
			{
				"x": -3.4444073849,
				"y": 0.3396674265,
				"z": 2.2522676697,
				"element": "H" 
			},
			{
				"x": -2.4704193028,
				"y": -1.2143733861,
				"z": 3.9242574896,
				"element": "H" 
			},
			{
				"x": 1.3264353754,
				"y": -0.9716521278,
				"z": 1.9414580366,
				"element": "H" 
			},
			{
				"x": 0.3870889272,
				"y": 0.5926816152,
				"z": 0.296598459,
				"element": "H" 
			},
			{
				"x": 0.8821755299,
				"y": -3.3261527259,
				"z": 1.7411496699,
				"element": "H" 
			},
			{
				"x": 2.819780758,
				"y": -4.8396107219,
				"z": 1.4734314899,
				"element": "H" 
			},
			{
				"x": 4.2474329119,
				"y": -5.3948318561,
				"z": 3.4292431434,
				"element": "H" 
			},
			{
				"x": 3.7051120383,
				"y": -4.4538803166,
				"z": 5.6659155659,
				"element": "H" 
			},
			{
				"x": 1.7256455712,
				"y": -2.9589575102,
				"z": 5.9320529396,
				"element": "H" 
			},
			{
				"x": -1.510000494,
				"y": 0.6038227581,
				"z": -2.5389660931,
				"element": "H" 
			},
			{
				"x": 0.2248114738,
				"y": 1.3361453608,
				"z": -4.1452762668,
				"element": "H" 
			}
		],
		 "valence_orbital": [ 
			{
				"type": "occ",
				"energy": -0.2574,
				"method": "rhf"
			},
			{
				"type": "occ",
				"energy": -0.25588,
				"method": "rhf"
			},
			{
				"type": "occ",
				"energy": -0.2536,
				"method": "rhf"
			},
			{
				"type": "occ",
				"energy": -0.24078,
				"method": "rhf"
			},
			{
				"type": "occ",
				"energy": -0.21682,
				"method": "rhf"
			},
			{
				"type": "unocc",
				"energy": -0.0588,
				"method": "rhf"
			},
			{
				"type": "unocc",
				"energy": -0.02808,
				"method": "rhf"
			},
			{
				"type": "unocc",
				"energy": -0.01858,
				"method": "rhf"
			},
			{
				"type": "unocc",
				"energy": -0.01055,
				"method": "rhf"
			},
			{
				"type": "unocc",
				"energy": -0.00659,
				"method": "rhf"
			}
		],
		"cosmo_sigma_profile": { 
			"-0.025": 0.0,
			"-0.024": 0.0,
			"-0.023": 0.0,
			"-0.022": 0.0,
			"-0.021": 0.0,
			"-0.02": 0.0,
			"-0.019": 0.0,
			"-0.018": 0.0,
			"-0.017": 0.0,
			"-0.016": 0.0,
			"-0.015": 0.0,
			"-0.014": 0.0,
			"-0.013": 0.0,
			"-0.012": 0.0,
			"-0.011": 0.0,
			"-0.01": 0.0,
			"-0.009": 0.0,
			"-0.008": 0.00341255708033,
			"-0.007": 2.89794044138,
			"-0.006": 18.7281991078,
			"-0.005": 27.9460191354,
			"-0.004": 34.4362692465,
			"-0.003": 27.060469334,
			"-0.002": 28.5817702645,
			"-0.001": 29.1447444362,
			"0.0": 32.5608649723,
			"0.001": 27.1645275899,
			"0.002": 26.601860453,
			"0.003": 34.2344494815,
			"0.004": 33.9060359772,
			"0.005": 10.4476496836,
			"0.006": 4.44086337807,
			"0.007": 3.86227970972,
			"0.008": 2.16042793158,
			"0.009": 2.28563779367,
			"0.01": 1.0130368081,
			"0.011": 3.19522179524,
			"0.012": 3.95915360706,
			"0.013": 1.58309889696,
			"0.014": 0.0,
			"0.015": 0.0,
			"0.016": 0.0,
			"0.017": 0.0,
			"0.018": 0.0,
			"0.019": 0.0,
			"0.02": 0.0,
			"0.021": 0.0,
			"0.022": 0.0,
			"0.023": 0.0,
			"0.024": 0.0,
			"0.025": 0.0
		}
	}
}
