{
	 "smiles": "CC1=CC=C2CCC(=O)C2=C1", 
	 "Tm": 331.15, 
	 "num_atms": 21, 
	 "gaussian": { 
		 "optdone": 1, 
		 "sigma_profile": "yes", 
		 "theory": "DFT", 
		 "functional": "B3LYP", 
		 "basiset": "6-31G**", 
		 "properties": { 
			 "R2extent": 1970.2038, 
			 "electric_dipole_moment_norm": 3.47076774648, 
			 "electric_quadrupole_moment_norm": 12.0567292235, 
			 "total_energy": -462.33149266, 
			 "HOMO_LUMO_gap": 0.18642, 
			 "cosmo_polarized_energy": -8.41, 
			 "cosmo_cavitation_energy": 24.2, 
			 "cosmo_dispersion_energy": -17.97, 
			 "cosmo_repulsion_energy": 1.45, 
			 "cosmo_total_nonelectrostatic_energy": 7.68, 
			 "SMD_solvation_energy": 4.37 
		},
		"coords": [
			{
				"x": -2.467976537,
				"y": -2.3928844527,
				"z": -1.6282824262,
				"element": "C" 
			},
			{
				"x": -1.6249405372,
				"y": -1.2818355035,
				"z": -1.046666546,
				"element": "C" 
			},
			{
				"x": -0.8976184571,
				"y": -0.4222223807,
				"z": -1.8978515264,
				"element": "C" 
			},
			{
				"x": -0.1067287838,
				"y": 0.6163261151,
				"z": -1.4076837785,
				"element": "C" 
			},
			{
				"x": -0.0310050785,
				"y": 0.8135251596,
				"z": -0.0271816854,
				"element": "C" 
			},
			{
				"x": 0.7479994091,
				"y": 1.8583311134,
				"z": 0.7502584396,
				"element": "C" 
			},
			{
				"x": 0.4263088787,
				"y": 1.55904826,
				"z": 2.2346778136,
				"element": "C" 
			},
			{
				"x": -0.5270415215,
				"y": 0.3504030701,
				"z": 2.2346557988,
				"element": "C" 
			},
			{
				"x": -1.0032699624,
				"y": -0.1810283108,
				"z": 3.2207197239,
				"element": "O" 
			},
			{
				"x": -0.7480249856,
				"y": -0.0334233933,
				"z": 0.8203129279,
				"element": "C" 
			},
			{
				"x": -1.5414584099,
				"y": -1.075169546,
				"z": 0.3302731378,
				"element": "C" 
			},
			{
				"x": -2.9651965917,
				"y": -2.9669451321,
				"z": -0.8421212438,
				"element": "H" 
			},
			{
				"x": -3.242793054,
				"y": -1.9985971372,
				"z": -2.2958999932,
				"element": "H" 
			},
			{
				"x": -1.8599074267,
				"y": -3.0889710036,
				"z": -2.2175351761,
				"element": "H" 
			},
			{
				"x": -0.9584354118,
				"y": -0.578103687,
				"z": -2.9728273659,
				"element": "H" 
			},
			{
				"x": 0.4385847397,
				"y": 1.2571927255,
				"z": -2.0960058795,
				"element": "H" 
			},
			{
				"x": 0.4448452941,
				"y": 2.871355538,
				"z": 0.4609296047,
				"element": "H" 
			},
			{
				"x": 1.8215576015,
				"y": 1.7858807987,
				"z": 0.5403792188,
				"element": "H" 
			},
			{
				"x": -0.061147471,
				"y": 2.39672601,
				"z": 2.7437770403,
				"element": "H" 
			},
			{
				"x": 1.3154617142,
				"y": 1.310839515,
				"z": 2.8231556884,
				"element": "H" 
			},
			{
				"x": -2.081413409,
				"y": -1.7084477588,
				"z": 1.0293162273,
				"element": "H" 
			}
		],
		 "valence_orbital": [ 
			{
				"type": "occ",
				"energy": -0.34161,
				"method": "rhf"
			},
			{
				"type": "occ",
				"energy": -0.32976,
				"method": "rhf"
			},
			{
				"type": "occ",
				"energy": -0.25727,
				"method": "rhf"
			},
			{
				"type": "occ",
				"energy": -0.24307,
				"method": "rhf"
			},
			{
				"type": "occ",
				"energy": -0.23647,
				"method": "rhf"
			},
			{
				"type": "unocc",
				"energy": -0.05005,
				"method": "rhf"
			},
			{
				"type": "unocc",
				"energy": -0.00679,
				"method": "rhf"
			},
			{
				"type": "unocc",
				"energy": 0.04663,
				"method": "rhf"
			},
			{
				"type": "unocc",
				"energy": 0.09897,
				"method": "rhf"
			},
			{
				"type": "unocc",
				"energy": 0.10227,
				"method": "rhf"
			}
		],
		"cosmo_sigma_profile": { 
			"-0.025": 0.0,
			"-0.024": 0.0,
			"-0.023": 0.0,
			"-0.022": 0.0,
			"-0.021": 0.0,
			"-0.02": 0.0,
			"-0.019": 0.0,
			"-0.018": 0.0,
			"-0.017": 0.0,
			"-0.016": 0.0,
			"-0.015": 0.0,
			"-0.014": 0.0,
			"-0.013": 0.0,
			"-0.012": 0.0,
			"-0.011": 0.0,
			"-0.01": 0.0,
			"-0.009": 0.0,
			"-0.008": 0.0,
			"-0.007": 0.0642265911818,
			"-0.006": 5.30408757,
			"-0.005": 15.7400251082,
			"-0.004": 24.8832129936,
			"-0.003": 24.2820612866,
			"-0.002": 20.0773501775,
			"-0.001": 17.7986687094,
			"0.0": 16.7368959036,
			"0.001": 10.3864085526,
			"0.002": 9.88143943621,
			"0.003": 10.7014606622,
			"0.004": 11.7113635231,
			"0.005": 4.2006878923,
			"0.006": 1.54583848198,
			"0.007": 1.75947488848,
			"0.008": 1.50389770495,
			"0.009": 1.82982291305,
			"0.01": 1.36518796863,
			"0.011": 2.92611674551,
			"0.012": 4.33689461521,
			"0.013": 4.07234388101,
			"0.014": 0.749667890787,
			"0.015": 0.0,
			"0.016": 0.0,
			"0.017": 0.0,
			"0.018": 0.0,
			"0.019": 0.0,
			"0.02": 0.0,
			"0.021": 0.0,
			"0.022": 0.0,
			"0.023": 0.0,
			"0.024": 0.0,
			"0.025": 0.0
		}
	}
}
