{
	 "smiles": "CN1C2=C(C=CC=C2)C(C)=C1C1=CC=CC=C1", 
	 "Tm": 342.15, 
	 "num_atms": 32, 
	 "gaussian": { 
		 "optdone": 1, 
		 "sigma_profile": "yes", 
		 "theory": "DFT", 
		 "functional": "B3LYP", 
		 "basiset": "6-31G**", 
		 "properties": { 
			 "R2extent": 4979.1997, 
			 "electric_dipole_moment_norm": 2.26482726273, 
			 "electric_quadrupole_moment_norm": 7.55566172747, 
			 "total_energy": -673.512558806, 
			 "HOMO_LUMO_gap": 0.16314, 
			 "cosmo_polarized_energy": -7.0, 
			 "cosmo_cavitation_energy": 34.39, 
			 "cosmo_dispersion_energy": -24.47, 
			 "cosmo_repulsion_energy": 1.87, 
			 "cosmo_total_nonelectrostatic_energy": 11.79, 
			 "SMD_solvation_energy": 5.27 
		},
		"coords": [
			{
				"x": 2.2991602059,
				"y": 1.5129021457,
				"z": 2.2852936029,
				"element": "C" 
			},
			{
				"x": 1.0737410516,
				"y": 1.1626594862,
				"z": 1.5912985741,
				"element": "N" 
			},
			{
				"x": -0.0603264236,
				"y": 1.9492198138,
				"z": 1.6121701035,
				"element": "C" 
			},
			{
				"x": -0.9796125498,
				"y": 1.4213659749,
				"z": 0.6667818227,
				"element": "C" 
			},
			{
				"x": -2.2297377507,
				"y": 2.0440346879,
				"z": 0.509564121,
				"element": "C" 
			},
			{
				"x": -2.5254323639,
				"y": 3.1672845835,
				"z": 1.2729006588,
				"element": "C" 
			},
			{
				"x": -1.5929534769,
				"y": 3.6839980109,
				"z": 2.1952844248,
				"element": "C" 
			},
			{
				"x": -0.3503303844,
				"y": 3.084881722,
				"z": 2.377879363,
				"element": "C" 
			},
			{
				"x": -0.3537158412,
				"y": 0.282476493,
				"z": 0.0529101686,
				"element": "C" 
			},
			{
				"x": -0.9937655138,
				"y": -0.6167442504,
				"z": -0.9626500122,
				"element": "C" 
			},
			{
				"x": 0.8959922132,
				"y": 0.1537122958,
				"z": 0.6322391322,
				"element": "C" 
			},
			{
				"x": 1.9165204128,
				"y": -0.8827360696,
				"z": 0.3889561071,
				"element": "C" 
			},
			{
				"x": 2.3526183837,
				"y": -1.1573662524,
				"z": -0.9192372445,
				"element": "C" 
			},
			{
				"x": 3.2914371855,
				"y": -2.1593557368,
				"z": -1.164634637,
				"element": "C" 
			},
			{
				"x": 3.822700436,
				"y": -2.8998607151,
				"z": -0.1071725846,
				"element": "C" 
			},
			{
				"x": 3.402642196,
				"y": -2.6358214302,
				"z": 1.1984641778,
				"element": "C" 
			},
			{
				"x": 2.4566072149,
				"y": -1.6417009199,
				"z": 1.4442086639,
				"element": "C" 
			},
			{
				"x": 3.1076229952,
				"y": 0.8640265079,
				"z": 1.9513437802,
				"element": "H" 
			},
			{
				"x": 2.5743740481,
				"y": 2.551944587,
				"z": 2.0715414947,
				"element": "H" 
			},
			{
				"x": 2.1881364813,
				"y": 1.4008559865,
				"z": 3.3704588373,
				"element": "H" 
			},
			{
				"x": -2.95245976,
				"y": 1.6560974987,
				"z": -0.2032070051,
				"element": "H" 
			},
			{
				"x": -3.4873923026,
				"y": 3.6586096125,
				"z": 1.1582484531,
				"element": "H" 
			},
			{
				"x": -1.850060058,
				"y": 4.5643177493,
				"z": 2.7774254275,
				"element": "H" 
			},
			{
				"x": 0.3609346127,
				"y": 3.4835757268,
				"z": 3.0949394985,
				"element": "H" 
			},
			{
				"x": -1.9925776145,
				"y": -0.9299596056,
				"z": -0.6351415302,
				"element": "H" 
			},
			{
				"x": -1.120702977,
				"y": -0.1158923506,
				"z": -1.9312788926,
				"element": "H" 
			},
			{
				"x": -0.4013446473,
				"y": -1.5190286206,
				"z": -1.1325113008,
				"element": "H" 
			},
			{
				"x": 1.9595198471,
				"y": -0.5671439417,
				"z": -1.7410586412,
				"element": "H" 
			},
			{
				"x": 3.6155934995,
				"y": -2.3544997467,
				"z": -2.1829991017,
				"element": "H" 
			},
			{
				"x": 4.5572508028,
				"y": -3.6767896369,
				"z": -0.2982160289,
				"element": "H" 
			},
			{
				"x": 3.8036931214,
				"y": -3.2131001178,
				"z": 2.0268451749,
				"element": "H" 
			},
			{
				"x": 2.1124669557,
				"y": -1.4631634884,
				"z": 2.4588533924,
				"element": "H" 
			}
		],
		 "valence_orbital": [ 
			{
				"type": "occ",
				"energy": -0.26307,
				"method": "rhf"
			},
			{
				"type": "occ",
				"energy": -0.25462,
				"method": "rhf"
			},
			{
				"type": "occ",
				"energy": -0.25383,
				"method": "rhf"
			},
			{
				"type": "occ",
				"energy": -0.20753,
				"method": "rhf"
			},
			{
				"type": "occ",
				"energy": -0.18708,
				"method": "rhf"
			},
			{
				"type": "unocc",
				"energy": -0.02394,
				"method": "rhf"
			},
			{
				"type": "unocc",
				"energy": -0.00618,
				"method": "rhf"
			},
			{
				"type": "unocc",
				"energy": 0.01219,
				"method": "rhf"
			},
			{
				"type": "unocc",
				"energy": 0.03329,
				"method": "rhf"
			},
			{
				"type": "unocc",
				"energy": 0.08041,
				"method": "rhf"
			}
		],
		"cosmo_sigma_profile": { 
			"-0.025": 0.0,
			"-0.024": 0.0,
			"-0.023": 0.0,
			"-0.022": 0.0,
			"-0.021": 0.0,
			"-0.02": 0.0,
			"-0.019": 0.0,
			"-0.018": 0.0,
			"-0.017": 0.0,
			"-0.016": 0.0,
			"-0.015": 0.0,
			"-0.014": 0.0,
			"-0.013": 0.0,
			"-0.012": 0.0,
			"-0.011": 0.0,
			"-0.01": 0.0,
			"-0.009": 0.0,
			"-0.008": 0.0,
			"-0.007": 0.00853709639277,
			"-0.006": 5.9202567789,
			"-0.005": 20.431516974,
			"-0.004": 28.3925012068,
			"-0.003": 31.1638814577,
			"-0.002": 29.8276662152,
			"-0.001": 24.627209928,
			"0.0": 20.6409196962,
			"0.001": 19.3121625872,
			"0.002": 15.4419514498,
			"0.003": 17.1681733324,
			"0.004": 16.5456484191,
			"0.005": 19.49971115,
			"0.006": 14.5891886179,
			"0.007": 8.71472466448,
			"0.008": 1.83597772699,
			"0.009": 0.0,
			"0.01": 0.0,
			"0.011": 0.0,
			"0.012": 0.0,
			"0.013": 0.0,
			"0.014": 0.0,
			"0.015": 0.0,
			"0.016": 0.0,
			"0.017": 0.0,
			"0.018": 0.0,
			"0.019": 0.0,
			"0.02": 0.0,
			"0.021": 0.0,
			"0.022": 0.0,
			"0.023": 0.0,
			"0.024": 0.0,
			"0.025": 0.0
		}
	}
}
