{
	 "smiles": "[O-][N+](=O)C1=CC=C(CNC2=CC(=O)C3=CC=CC=C3C2=O)C=C1", 
	 "Tm": 508.15, 
	 "num_atms": 35, 
	 "gaussian": { 
		 "optdone": 1, 
		 "sigma_profile": "yes", 
		 "theory": "DFT", 
		 "functional": "B3LYP", 
		 "basiset": "6-31G**", 
		 "properties": { 
			 "R2extent": 9744.7629, 
			 "electric_dipole_moment_norm": 4.47283539939, 
			 "electric_quadrupole_moment_norm": 39.1261169806, 
			 "total_energy": -1065.33582181, 
			 "HOMO_LUMO_gap": 0.11881, 
			 "cosmo_polarized_energy": -19.76, 
			 "cosmo_cavitation_energy": 40.79, 
			 "cosmo_dispersion_energy": -29.05, 
			 "cosmo_repulsion_energy": 2.16, 
			 "cosmo_total_nonelectrostatic_energy": 13.89, 
			 "SMD_solvation_energy": 9.04 
		},
		"coords": [
			{
				"x": -3.7403371176,
				"y": 4.3566592234,
				"z": 1.3213826691,
				"element": "O" 
			},
			{
				"x": -2.7066218872,
				"y": 4.203297877,
				"z": 0.6713232162,
				"element": "N" 
			},
			{
				"x": -1.8445419844,
				"y": 5.0662375358,
				"z": 0.5103262667,
				"element": "O" 
			},
			{
				"x": -2.4854556723,
				"y": 2.8916084123,
				"z": 0.041135631,
				"element": "C" 
			},
			{
				"x": -1.3260340592,
				"y": 2.6858099915,
				"z": -0.7043062409,
				"element": "C" 
			},
			{
				"x": -1.1248112126,
				"y": 1.44356518,
				"z": -1.2996688587,
				"element": "C" 
			},
			{
				"x": -2.0703782625,
				"y": 0.4169822646,
				"z": -1.1536278362,
				"element": "C" 
			},
			{
				"x": -1.8353844332,
				"y": -0.9498199379,
				"z": -1.778789503,
				"element": "C" 
			},
			{
				"x": -1.144279759,
				"y": -1.8897909064,
				"z": -0.8849314789,
				"element": "N" 
			},
			{
				"x": 0.1910314897,
				"y": -2.017628069,
				"z": -0.6031854074,
				"element": "C" 
			},
			{
				"x": 0.6049103579,
				"y": -2.6824942587,
				"z": 0.5207674313,
				"element": "C" 
			},
			{
				"x": 1.9936966559,
				"y": -2.9582791337,
				"z": 0.8485948088,
				"element": "C" 
			},
			{
				"x": 2.3106769293,
				"y": -3.5675448041,
				"z": 1.8711154648,
				"element": "O" 
			},
			{
				"x": 3.0346075748,
				"y": -2.4653980154,
				"z": -0.1062393917,
				"element": "C" 
			},
			{
				"x": 4.3851661071,
				"y": -2.6997784684,
				"z": 0.1538716279,
				"element": "C" 
			},
			{
				"x": 5.3567866718,
				"y": -2.2376351718,
				"z": -0.7341408539,
				"element": "C" 
			},
			{
				"x": 4.9818682408,
				"y": -1.5374763342,
				"z": -1.8858849266,
				"element": "C" 
			},
			{
				"x": 3.6351045481,
				"y": -1.2982006784,
				"z": -2.1500655173,
				"element": "C" 
			},
			{
				"x": 2.655229616,
				"y": -1.7614783323,
				"z": -1.2623034011,
				"element": "C" 
			},
			{
				"x": 1.2256845289,
				"y": -1.4930824395,
				"z": -1.5695935703,
				"element": "C" 
			},
			{
				"x": 0.9063112802,
				"y": -0.8623131157,
				"z": -2.5746182834,
				"element": "O" 
			},
			{
				"x": -3.2291860676,
				"y": 0.661023777,
				"z": -0.4022341308,
				"element": "C" 
			},
			{
				"x": -3.4467739125,
				"y": 1.8961896991,
				"z": 0.2018464682,
				"element": "C" 
			},
			{
				"x": -0.6111193745,
				"y": 3.4923279202,
				"z": -0.8092991668,
				"element": "H" 
			},
			{
				"x": -0.2315528264,
				"y": 1.2640827892,
				"z": -1.8888956733,
				"element": "H" 
			},
			{
				"x": -1.2628289595,
				"y": -0.8584840984,
				"z": -2.6971215631,
				"element": "H" 
			},
			{
				"x": -2.7994895381,
				"y": -1.4104396381,
				"z": -2.0172902865,
				"element": "H" 
			},
			{
				"x": -1.7345532515,
				"y": -2.2503479823,
				"z": -0.1461141159,
				"element": "H" 
			},
			{
				"x": -0.1221071342,
				"y": -3.0579553972,
				"z": 1.2367809512,
				"element": "H" 
			},
			{
				"x": 4.646021764,
				"y": -3.2434382192,
				"z": 1.0557093402,
				"element": "H" 
			},
			{
				"x": 6.4075850698,
				"y": -2.4218946804,
				"z": -0.5302324083,
				"element": "H" 
			},
			{
				"x": 5.7401793019,
				"y": -1.1794855418,
				"z": -2.5757585852,
				"element": "H" 
			},
			{
				"x": 3.3207484822,
				"y": -0.7577902256,
				"z": -3.0363610539,
				"element": "H" 
			},
			{
				"x": -3.9767036232,
				"y": -0.1211748361,
				"z": -0.2947067475,
				"element": "H" 
			},
			{
				"x": -4.3370495429,
				"y": 2.1031456145,
				"z": 0.7823151254,
				"element": "H" 
			}
		],
		 "valence_orbital": [ 
			{
				"type": "occ",
				"energy": -0.27815,
				"method": "rhf"
			},
			{
				"type": "occ",
				"energy": -0.27689,
				"method": "rhf"
			},
			{
				"type": "occ",
				"energy": -0.27004,
				"method": "rhf"
			},
			{
				"type": "occ",
				"energy": -0.25396,
				"method": "rhf"
			},
			{
				"type": "occ",
				"energy": -0.23199,
				"method": "rhf"
			},
			{
				"type": "unocc",
				"energy": -0.11318,
				"method": "rhf"
			},
			{
				"type": "unocc",
				"energy": -0.09169,
				"method": "rhf"
			},
			{
				"type": "unocc",
				"energy": -0.04092,
				"method": "rhf"
			},
			{
				"type": "unocc",
				"energy": -0.03297,
				"method": "rhf"
			},
			{
				"type": "unocc",
				"energy": -0.01699,
				"method": "rhf"
			}
		],
		"cosmo_sigma_profile": { 
			"-0.025": 0.0,
			"-0.024": 0.0,
			"-0.023": 0.0,
			"-0.022": 0.0,
			"-0.021": 0.0,
			"-0.02": 0.0,
			"-0.019": 0.0,
			"-0.018": 0.0,
			"-0.017": 0.0,
			"-0.016": 0.0,
			"-0.015": 0.243149668115,
			"-0.014": 1.72221812691,
			"-0.013": 1.34144497343,
			"-0.012": 1.74208936998,
			"-0.011": 1.49974561862,
			"-0.01": 1.90814694046,
			"-0.009": 2.36117606924,
			"-0.008": 3.76276068418,
			"-0.007": 12.8095931788,
			"-0.006": 16.7662557728,
			"-0.005": 22.0189227331,
			"-0.004": 21.1008062033,
			"-0.003": 21.3540848525,
			"-0.002": 22.0469565465,
			"-0.001": 24.6943966076,
			"0.0": 25.8473362897,
			"0.001": 31.7082748387,
			"0.002": 33.3479784233,
			"0.003": 15.9769255117,
			"0.004": 7.11446068497,
			"0.005": 6.17025204177,
			"0.006": 6.88529772935,
			"0.007": 10.7002235795,
			"0.008": 10.8931777872,
			"0.009": 7.11595135102,
			"0.01": 5.77786761721,
			"0.011": 2.80563344073,
			"0.012": 3.19873289998,
			"0.013": 4.24999604982,
			"0.014": 1.09898379633,
			"0.015": 0.0424018110649,
			"0.016": 0.0,
			"0.017": 0.0,
			"0.018": 0.0,
			"0.019": 0.0,
			"0.02": 0.0,
			"0.021": 0.0,
			"0.022": 0.0,
			"0.023": 0.0,
			"0.024": 0.0,
			"0.025": 0.0
		}
	}
}
