{
	 "smiles": "NC=N", 
	 "Tm": 354.15, 
	 "num_atms": 7, 
	 "gaussian": { 
		 "optdone": 1, 
		 "sigma_profile": "yes", 
		 "theory": "DFT", 
		 "functional": "B3LYP", 
		 "basiset": "6-31G**", 
		 "properties": { 
			 "R2extent": 463.175, 
			 "electric_dipole_moment_norm": 3.50115288726, 
			 "electric_quadrupole_moment_norm": 6.5920289297, 
			 "total_energy": -150.005156408, 
			 "HOMO_LUMO_gap": 0.27968, 
			 "cosmo_polarized_energy": -12.17, 
			 "cosmo_cavitation_energy": 10.57, 
			 "cosmo_dispersion_energy": -7.89, 
			 "cosmo_repulsion_energy": 0.78, 
			 "cosmo_total_nonelectrostatic_energy": 3.46, 
			 "SMD_solvation_energy": 1.78 
		},
		"coords": [
			{
				"x": -0.5961234229,
				"y": -1.6455229926,
				"z": 2.229406168,
				"element": "N" 
			},
			{
				"x": 0.0611493966,
				"y": -1.1459626894,
				"z": 1.1208119558,
				"element": "C" 
			},
			{
				"x": 0.0827472419,
				"y": -1.5892482014,
				"z": -0.0754344346,
				"element": "N" 
			},
			{
				"x": -0.7446718842,
				"y": -1.0191046642,
				"z": 3.0070431673,
				"element": "H" 
			},
			{
				"x": -1.34368234,
				"y": -2.3080013791,
				"z": 2.07323627,
				"element": "H" 
			},
			{
				"x": 0.675525005,
				"y": -0.2717090557,
				"z": 1.3569458564,
				"element": "H" 
			},
			{
				"x": -0.5240439964,
				"y": -2.4104510177,
				"z": -0.1768089828,
				"element": "H" 
			}
		],
		 "valence_orbital": [ 
			{
				"type": "occ",
				"energy": -0.50217,
				"method": "rhf"
			},
			{
				"type": "occ",
				"energy": -0.40382,
				"method": "rhf"
			},
			{
				"type": "occ",
				"energy": -0.36612,
				"method": "rhf"
			},
			{
				"type": "occ",
				"energy": -0.25774,
				"method": "rhf"
			},
			{
				"type": "occ",
				"energy": -0.23978,
				"method": "rhf"
			},
			{
				"type": "unocc",
				"energy": 0.0399,
				"method": "rhf"
			},
			{
				"type": "unocc",
				"energy": 0.07564,
				"method": "rhf"
			},
			{
				"type": "unocc",
				"energy": 0.10367,
				"method": "rhf"
			},
			{
				"type": "unocc",
				"energy": 0.14571,
				"method": "rhf"
			},
			{
				"type": "unocc",
				"energy": 0.17422,
				"method": "rhf"
			}
		],
		"cosmo_sigma_profile": { 
			"-0.025": 0.0,
			"-0.024": 0.0,
			"-0.023": 0.0,
			"-0.022": 0.0,
			"-0.021": 0.0,
			"-0.02": 0.0,
			"-0.019": 0.0,
			"-0.018": 0.0,
			"-0.017": 0.0,
			"-0.016": 0.0,
			"-0.015": 0.0,
			"-0.014": 0.194902433557,
			"-0.013": 2.86022759955,
			"-0.012": 3.83216979052,
			"-0.011": 3.03565410743,
			"-0.01": 4.07134297674,
			"-0.009": 3.6658440905,
			"-0.008": 3.38783635744,
			"-0.007": 3.70357471242,
			"-0.006": 4.02011121277,
			"-0.005": 3.44629227064,
			"-0.004": 2.71021846458,
			"-0.003": 3.31561482468,
			"-0.002": 2.66015431567,
			"-0.001": 2.44332873292,
			"0.0": 2.82713142817,
			"0.001": 3.25237748448,
			"0.002": 2.85120797278,
			"0.003": 2.05259233437,
			"0.004": 1.5808565457,
			"0.005": 2.60339079252,
			"0.006": 3.11522416215,
			"0.007": 2.19921321056,
			"0.008": 2.06369870941,
			"0.009": 2.17400075938,
			"0.01": 1.53659780129,
			"0.011": 2.61133299326,
			"0.012": 1.30455135988,
			"0.013": 0.973370994435,
			"0.014": 1.58036775787,
			"0.015": 1.30003741347,
			"0.016": 0.980188090237,
			"0.017": 1.48180080541,
			"0.018": 1.19372262323,
			"0.019": 1.18072964897,
			"0.02": 0.518739457029,
			"0.021": 0.0,
			"0.022": 0.0,
			"0.023": 0.0,
			"0.024": 0.0,
			"0.025": 0.0
		}
	}
}
