{
	 "smiles": "OC1=CC2=C(OC(=C(O)C2=O)C2=CC=CC=C2)C=C1", 
	 "Tm": 506.15, 
	 "num_atms": 29, 
	 "gaussian": { 
		 "optdone": 1, 
		 "sigma_profile": "yes", 
		 "theory": "DFT", 
		 "functional": "B3LYP", 
		 "basiset": "6-31G**", 
		 "properties": { 
			 "R2extent": 6062.8443, 
			 "electric_dipole_moment_norm": 6.18473572677, 
			 "electric_quadrupole_moment_norm": 29.5186684219, 
			 "total_energy": -878.497701591, 
			 "HOMO_LUMO_gap": 0.1459, 
			 "cosmo_polarized_energy": -21.65, 
			 "cosmo_cavitation_energy": 33.92, 
			 "cosmo_dispersion_energy": -25.05, 
			 "cosmo_repulsion_energy": 1.88, 
			 "cosmo_total_nonelectrostatic_energy": 10.75, 
			 "SMD_solvation_energy": 7.0 
		},
		"coords": [
			{
				"x": -5.0766832589,
				"y": 3.2667998333,
				"z": -0.2512208837,
				"element": "O" 
			},
			{
				"x": -3.8562280454,
				"y": 2.6583825104,
				"z": -0.1721641,
				"element": "C" 
			},
			{
				"x": -3.8118777054,
				"y": 1.2724054996,
				"z": -0.2494444871,
				"element": "C" 
			},
			{
				"x": -2.5826878682,
				"y": 0.6017066012,
				"z": -0.1717373519,
				"element": "C" 
			},
			{
				"x": -1.4037878716,
				"y": 1.3431946265,
				"z": -0.0189564136,
				"element": "C" 
			},
			{
				"x": -0.1780202989,
				"y": 0.7450420818,
				"z": 0.0697076302,
				"element": "O" 
			},
			{
				"x": -0.0718840492,
				"y": -0.6202801811,
				"z": 0.0113304089,
				"element": "C" 
			},
			{
				"x": -1.1617837872,
				"y": -1.4218699862,
				"z": -0.1882212694,
				"element": "C" 
			},
			{
				"x": -1.0955614984,
				"y": -2.7745338896,
				"z": -0.3308148317,
				"element": "O" 
			},
			{
				"x": -2.5246692353,
				"y": -0.8707372422,
				"z": -0.272048681,
				"element": "C" 
			},
			{
				"x": -3.5176404437,
				"y": -1.5768133759,
				"z": -0.4214775244,
				"element": "O" 
			},
			{
				"x": 1.3278322459,
				"y": -1.0713648904,
				"z": 0.1296272117,
				"element": "C" 
			},
			{
				"x": 1.6593447843,
				"y": -2.263551445,
				"z": 0.8016178838,
				"element": "C" 
			},
			{
				"x": 2.9885229276,
				"y": -2.6764757306,
				"z": 0.8975543335,
				"element": "C" 
			},
			{
				"x": 4.0069270146,
				"y": -1.9066526753,
				"z": 0.3349007132,
				"element": "C" 
			},
			{
				"x": 3.6896297794,
				"y": -0.7117808969,
				"z": -0.3169939856,
				"element": "C" 
			},
			{
				"x": 2.3652290368,
				"y": -0.2949937807,
				"z": -0.4184448689,
				"element": "C" 
			},
			{
				"x": -1.4392054814,
				"y": 2.7389902525,
				"z": 0.0600211641,
				"element": "C" 
			},
			{
				"x": -2.6616064892,
				"y": 3.3900159589,
				"z": -0.017128999,
				"element": "C" 
			},
			{
				"x": -4.9641877858,
				"y": 4.2233771582,
				"z": -0.1825449811,
				"element": "H" 
			},
			{
				"x": -4.7179381589,
				"y": 0.689853083,
				"z": -0.3711668712,
				"element": "H" 
			},
			{
				"x": -0.1801398266,
				"y": -3.0323430913,
				"z": -0.5104185496,
				"element": "H" 
			},
			{
				"x": 0.8817026419,
				"y": -2.8449716329,
				"z": 1.2876235421,
				"element": "H" 
			},
			{
				"x": 3.2266560701,
				"y": -3.5946538956,
				"z": 1.4263587882,
				"element": "H" 
			},
			{
				"x": 5.0409498865,
				"y": -2.2294990252,
				"z": 0.4104525663,
				"element": "H" 
			},
			{
				"x": 4.4780776119,
				"y": -0.1035528648,
				"z": -0.7507047303,
				"element": "H" 
			},
			{
				"x": 2.1212386301,
				"y": 0.6330311414,
				"z": -0.9236873088,
				"element": "H" 
			},
			{
				"x": -0.5129071589,
				"y": 3.2899446965,
				"z": 0.1822189569,
				"element": "H" 
			},
			{
				"x": -2.6961016663,
				"y": 4.4756311606,
				"z": 0.0439626384,
				"element": "H" 
			}
		],
		 "valence_orbital": [ 
			{
				"type": "occ",
				"energy": -0.26889,
				"method": "rhf"
			},
			{
				"type": "occ",
				"energy": -0.26312,
				"method": "rhf"
			},
			{
				"type": "occ",
				"energy": -0.23875,
				"method": "rhf"
			},
			{
				"type": "occ",
				"energy": -0.23156,
				"method": "rhf"
			},
			{
				"type": "occ",
				"energy": -0.20916,
				"method": "rhf"
			},
			{
				"type": "unocc",
				"energy": -0.06326,
				"method": "rhf"
			},
			{
				"type": "unocc",
				"energy": -0.0274,
				"method": "rhf"
			},
			{
				"type": "unocc",
				"energy": -0.02192,
				"method": "rhf"
			},
			{
				"type": "unocc",
				"energy": 0.00519,
				"method": "rhf"
			},
			{
				"type": "unocc",
				"energy": 0.01917,
				"method": "rhf"
			}
		],
		"cosmo_sigma_profile": { 
			"-0.025": 0.0,
			"-0.024": 0.0,
			"-0.023": 0.0,
			"-0.022": 0.0,
			"-0.021": 0.0,
			"-0.02": 0.0,
			"-0.019": 0.0900089761151,
			"-0.018": 1.0239306817,
			"-0.017": 1.11728434314,
			"-0.016": 0.840661737023,
			"-0.015": 2.09299642306,
			"-0.014": 1.92536696478,
			"-0.013": 1.44933402754,
			"-0.012": 1.7458355726,
			"-0.011": 1.98149814237,
			"-0.01": 2.76744946248,
			"-0.009": 1.6730250535,
			"-0.008": 3.89915106645,
			"-0.007": 7.62699324828,
			"-0.006": 15.9952131027,
			"-0.005": 15.8474279156,
			"-0.004": 14.7005253377,
			"-0.003": 15.1400381874,
			"-0.002": 17.3644355645,
			"-0.001": 18.5613333315,
			"0.0": 18.3561636181,
			"0.001": 20.3998248851,
			"0.002": 24.6547243573,
			"0.003": 23.243691011,
			"0.004": 16.956631995,
			"0.005": 5.53918604873,
			"0.006": 3.81450996058,
			"0.007": 3.65629769097,
			"0.008": 3.5739463225,
			"0.009": 3.20391669095,
			"0.01": 4.25786107086,
			"0.011": 4.73416478054,
			"0.012": 3.56730831173,
			"0.013": 5.9210022814,
			"0.014": 2.74128223545,
			"0.015": 1.64432298782,
			"0.016": 0.767039136403,
			"0.017": 0.0,
			"0.018": 0.0,
			"0.019": 0.0,
			"0.02": 0.0,
			"0.021": 0.0,
			"0.022": 0.0,
			"0.023": 0.0,
			"0.024": 0.0,
			"0.025": 0.0
		}
	}
}
