{
	 "smiles": "CN(C)C1=CC=C(CCC2CCC3=CC=CC=C3N2N=O)C=C1", 
	 "Tm": 364.15, 
	 "num_atms": 46, 
	 "gaussian": { 
		 "optdone": 1, 
		 "sigma_profile": "yes", 
		 "theory": "DFT", 
		 "functional": "B3LYP", 
		 "basiset": "6-31G**", 
		 "properties": { 
			 "R2extent": 13066.6265, 
			 "electric_dipole_moment_norm": 3.79123107447, 
			 "electric_quadrupole_moment_norm": 26.0605993745, 
			 "total_energy": -977.299241241, 
			 "HOMO_LUMO_gap": 0.14138, 
			 "cosmo_polarized_energy": -13.03, 
			 "cosmo_cavitation_energy": 47.34, 
			 "cosmo_dispersion_energy": -33.14, 
			 "cosmo_repulsion_energy": 2.5, 
			 "cosmo_total_nonelectrostatic_energy": 16.7, 
			 "SMD_solvation_energy": 6.96 
		},
		"coords": [
			{
				"x": 4.9546075316,
				"y": 2.7373758926,
				"z": 0.592610116,
				"element": "C" 
			},
			{
				"x": 3.714145033,
				"y": 2.9055974206,
				"z": 1.3295039294,
				"element": "N" 
			},
			{
				"x": 3.3339316523,
				"y": 4.2556268175,
				"z": 1.708820256,
				"element": "C" 
			},
			{
				"x": 2.722616322,
				"y": 1.9321209021,
				"z": 1.2127614433,
				"element": "C" 
			},
			{
				"x": 2.9855180561,
				"y": 0.6785766373,
				"z": 0.6177081644,
				"element": "C" 
			},
			{
				"x": 1.9969713119,
				"y": -0.2994189315,
				"z": 0.5409617249,
				"element": "C" 
			},
			{
				"x": 0.7049973714,
				"y": -0.0895639425,
				"z": 1.0346520482,
				"element": "C" 
			},
			{
				"x": -0.3737898491,
				"y": -1.1439190152,
				"z": 0.9113377841,
				"element": "C" 
			},
			{
				"x": -1.2887632487,
				"y": -0.9179690069,
				"z": -0.3100358863,
				"element": "C" 
			},
			{
				"x": -2.4358865936,
				"y": -1.9437659666,
				"z": -0.4072446636,
				"element": "C" 
			},
			{
				"x": -1.9319304227,
				"y": -3.3792727248,
				"z": -0.6507721093,
				"element": "C" 
			},
			{
				"x": -2.9782680633,
				"y": -4.2604929027,
				"z": -1.3497378815,
				"element": "C" 
			},
			{
				"x": -3.3483472443,
				"y": -3.6328670374,
				"z": -2.6697314197,
				"element": "C" 
			},
			{
				"x": -3.4962415837,
				"y": -4.3450354479,
				"z": -3.8611127691,
				"element": "C" 
			},
			{
				"x": -3.8563939871,
				"y": -3.6949037612,
				"z": -5.0430227155,
				"element": "C" 
			},
			{
				"x": -4.0579860747,
				"y": -2.3128536631,
				"z": -5.0426419127,
				"element": "C" 
			},
			{
				"x": -3.8882358445,
				"y": -1.5773749517,
				"z": -3.870786169,
				"element": "C" 
			},
			{
				"x": -3.5395067916,
				"y": -2.2415204853,
				"z": -2.6905472345,
				"element": "C" 
			},
			{
				"x": -3.3945119989,
				"y": -1.536540794,
				"z": -1.4661428276,
				"element": "N" 
			},
			{
				"x": -4.2711283324,
				"y": -0.5320289425,
				"z": -1.2515756214,
				"element": "N" 
			},
			{
				"x": -4.1538052403,
				"y": 0.0315764578,
				"z": -0.1667918766,
				"element": "O" 
			},
			{
				"x": 0.4420104907,
				"y": 1.1582943256,
				"z": 1.6132248643,
				"element": "C" 
			},
			{
				"x": 1.4142712162,
				"y": 2.1498010574,
				"z": 1.7008663623,
				"element": "C" 
			},
			{
				"x": 4.8077390195,
				"y": 2.6875560422,
				"z": -0.4986386706,
				"element": "H" 
			},
			{
				"x": 5.6158971674,
				"y": 3.57817504,
				"z": 0.8096119973,
				"element": "H" 
			},
			{
				"x": 5.4749663176,
				"y": 1.8245880939,
				"z": 0.9035499307,
				"element": "H" 
			},
			{
				"x": 4.2300555158,
				"y": 4.876184249,
				"z": 1.7656314254,
				"element": "H" 
			},
			{
				"x": 2.6342119988,
				"y": 4.7251520788,
				"z": 0.998512583,
				"element": "H" 
			},
			{
				"x": 2.8658301446,
				"y": 4.2675929093,
				"z": 2.6993133997,
				"element": "H" 
			},
			{
				"x": 3.9659068728,
				"y": 0.4571076576,
				"z": 0.2140623084,
				"element": "H" 
			},
			{
				"x": 2.2441639395,
				"y": -1.2536873982,
				"z": 0.0798836347,
				"element": "H" 
			},
			{
				"x": 0.0936860949,
				"y": -2.1339479908,
				"z": 0.8508901715,
				"element": "H" 
			},
			{
				"x": -0.9941886403,
				"y": -1.1463065511,
				"z": 1.8176497456,
				"element": "H" 
			},
			{
				"x": -1.7207138719,
				"y": 0.0833860181,
				"z": -0.2467964839,
				"element": "H" 
			},
			{
				"x": -0.694135867,
				"y": -0.9594030455,
				"z": -1.2314096542,
				"element": "H" 
			},
			{
				"x": -3.0172166931,
				"y": -1.9003453324,
				"z": 0.5216879059,
				"element": "H" 
			},
			{
				"x": -1.6380683662,
				"y": -3.814508629,
				"z": 0.3094404371,
				"element": "H" 
			},
			{
				"x": -1.0313969499,
				"y": -3.3469969881,
				"z": -1.2763284287,
				"element": "H" 
			},
			{
				"x": -3.8694172937,
				"y": -4.3503567522,
				"z": -0.7118680617,
				"element": "H" 
			},
			{
				"x": -2.5919697958,
				"y": -5.2737281643,
				"z": -1.498676397,
				"element": "H" 
			},
			{
				"x": -3.3378429348,
				"y": -5.4205871428,
				"z": -3.857062194,
				"element": "H" 
			},
			{
				"x": -3.9736112617,
				"y": -4.2634389642,
				"z": -5.9607013006,
				"element": "H" 
			},
			{
				"x": -4.3330539094,
				"y": -1.8010603887,
				"z": -5.9600232734,
				"element": "H" 
			},
			{
				"x": -4.02867235,
				"y": -0.502949794,
				"z": -3.855856118,
				"element": "H" 
			},
			{
				"x": -0.5510732025,
				"y": 1.3664090226,
				"z": 2.0060568221,
				"element": "H" 
			},
			{
				"x": 1.1489303553,
				"y": 3.0959240921,
				"z": 2.1563666146,
				"element": "H" 
			}
		],
		 "valence_orbital": [ 
			{
				"type": "occ",
				"energy": -0.25093,
				"method": "rhf"
			},
			{
				"type": "occ",
				"energy": -0.23811,
				"method": "rhf"
			},
			{
				"type": "occ",
				"energy": -0.22454,
				"method": "rhf"
			},
			{
				"type": "occ",
				"energy": -0.2201,
				"method": "rhf"
			},
			{
				"type": "occ",
				"energy": -0.18273,
				"method": "rhf"
			},
			{
				"type": "unocc",
				"energy": -0.04135,
				"method": "rhf"
			},
			{
				"type": "unocc",
				"energy": -0.00558,
				"method": "rhf"
			},
			{
				"type": "unocc",
				"energy": 0.0076,
				"method": "rhf"
			},
			{
				"type": "unocc",
				"energy": 0.00982,
				"method": "rhf"
			},
			{
				"type": "unocc",
				"energy": 0.02459,
				"method": "rhf"
			}
		],
		"cosmo_sigma_profile": { 
			"-0.025": 0.0,
			"-0.024": 0.0,
			"-0.023": 0.0,
			"-0.022": 0.0,
			"-0.021": 0.0,
			"-0.02": 0.0,
			"-0.019": 0.0,
			"-0.018": 0.0,
			"-0.017": 0.0,
			"-0.016": 0.0,
			"-0.015": 0.0,
			"-0.014": 0.0,
			"-0.013": 0.0,
			"-0.012": 0.0,
			"-0.011": 0.0,
			"-0.01": 0.0,
			"-0.009": 0.0,
			"-0.008": 0.0,
			"-0.007": 0.47042036884,
			"-0.006": 7.94799503404,
			"-0.005": 24.2603102773,
			"-0.004": 42.8333231182,
			"-0.003": 50.6436831034,
			"-0.002": 46.5753199689,
			"-0.001": 41.5153652463,
			"0.0": 25.7463020651,
			"0.001": 18.1022823048,
			"0.002": 15.5822054806,
			"0.003": 17.0600532346,
			"0.004": 17.9674599817,
			"0.005": 18.698243267,
			"0.006": 11.9459002322,
			"0.007": 11.7606680527,
			"0.008": 7.1483319244,
			"0.009": 5.20266126105,
			"0.01": 4.77979804027,
			"0.011": 2.47378955154,
			"0.012": 1.55794168002,
			"0.013": 0.714552734008,
			"0.014": 0.0,
			"0.015": 0.0,
			"0.016": 0.0,
			"0.017": 0.0,
			"0.018": 0.0,
			"0.019": 0.0,
			"0.02": 0.0,
			"0.021": 0.0,
			"0.022": 0.0,
			"0.023": 0.0,
			"0.024": 0.0,
			"0.025": 0.0
		}
	}
}
