{
	 "smiles": "FC1=CC=CC(OC2=CC=CC=C2)=C1C#N", 
	 "Tm": 367.15, 
	 "num_atms": 24, 
	 "gaussian": { 
		 "optdone": 1, 
		 "sigma_profile": "yes", 
		 "theory": "DFT", 
		 "functional": "B3LYP", 
		 "basiset": "6-31G**", 
		 "properties": { 
			 "R2extent": 4536.4286, 
			 "electric_dipole_moment_norm": 6.59515995636, 
			 "electric_quadrupole_moment_norm": 15.6352295871, 
			 "total_energy": -729.984068309, 
			 "HOMO_LUMO_gap": 0.19613, 
			 "cosmo_polarized_energy": -11.48, 
			 "cosmo_cavitation_energy": 30.77, 
			 "cosmo_dispersion_energy": -21.21, 
			 "cosmo_repulsion_energy": 1.64, 
			 "cosmo_total_nonelectrostatic_energy": 11.19, 
			 "SMD_solvation_energy": 7.25 
		},
		"coords": [
			{
				"x": -3.1233743417,
				"y": -0.9685376928,
				"z": -3.7649231001,
				"element": "F" 
			},
			{
				"x": -2.908970725,
				"y": -0.6534731084,
				"z": -2.4797734702,
				"element": "C" 
			},
			{
				"x": -3.9391562293,
				"y": -0.1037625006,
				"z": -1.7314598664,
				"element": "C" 
			},
			{
				"x": -3.6832594719,
				"y": 0.2126990389,
				"z": -0.3970901996,
				"element": "C" 
			},
			{
				"x": -2.4331817624,
				"y": -0.0111333435,
				"z": 0.1814545498,
				"element": "C" 
			},
			{
				"x": -1.4077510838,
				"y": -0.5652852515,
				"z": -0.588738903,
				"element": "C" 
			},
			{
				"x": -0.1538202994,
				"y": -0.8289472538,
				"z": -0.1277929787,
				"element": "O" 
			},
			{
				"x": 0.1845009298,
				"y": -0.515152791,
				"z": 1.1882807504,
				"element": "C" 
			},
			{
				"x": 0.703674512,
				"y": 0.7458184895,
				"z": 1.4771867638,
				"element": "C" 
			},
			{
				"x": 1.1132363564,
				"y": 1.0255595307,
				"z": 2.7820291823,
				"element": "C" 
			},
			{
				"x": 1.0039607627,
				"y": 0.0529573531,
				"z": 3.7786995914,
				"element": "C" 
			},
			{
				"x": 0.4860516838,
				"y": -1.2069310586,
				"z": 3.4700968358,
				"element": "C" 
			},
			{
				"x": 0.0721844457,
				"y": -1.498784088,
				"z": 2.1690865339,
				"element": "C" 
			},
			{
				"x": -1.6362946426,
				"y": -0.8969932066,
				"z": -1.9446629795,
				"element": "C" 
			},
			{
				"x": -0.6071110461,
				"y": -1.4640757492,
				"z": -2.7548027568,
				"element": "C" 
			},
			{
				"x": 0.2234417689,
				"y": -1.9262699017,
				"z": -3.4247902246,
				"element": "N" 
			},
			{
				"x": -4.9048206232,
				"y": 0.0648230536,
				"z": -2.1927232289,
				"element": "H" 
			},
			{
				"x": -4.4747225443,
				"y": 0.6434090017,
				"z": 0.2084203919,
				"element": "H" 
			},
			{
				"x": -2.252303395,
				"y": 0.2397295624,
				"z": 1.2189501943,
				"element": "H" 
			},
			{
				"x": 0.7918661934,
				"y": 1.482108192,
				"z": 0.6850665315,
				"element": "H" 
			},
			{
				"x": 1.5231555594,
				"y": 2.003316918,
				"z": 3.0167027013,
				"element": "H" 
			},
			{
				"x": 1.3272782655,
				"y": 0.2742121285,
				"z": 4.79123117,
				"element": "H" 
			},
			{
				"x": 0.4069991855,
				"y": -1.9678984793,
				"z": 4.2406670788,
				"element": "H" 
			},
			{
				"x": -0.3218834984,
				"y": -2.4743888434,
				"z": 1.9041854326,
				"element": "H" 
			}
		],
		 "valence_orbital": [ 
			{
				"type": "occ",
				"energy": -0.32623,
				"method": "rhf"
			},
			{
				"type": "occ",
				"energy": -0.27149,
				"method": "rhf"
			},
			{
				"type": "occ",
				"energy": -0.26308,
				"method": "rhf"
			},
			{
				"type": "occ",
				"energy": -0.26158,
				"method": "rhf"
			},
			{
				"type": "occ",
				"energy": -0.24801,
				"method": "rhf"
			},
			{
				"type": "unocc",
				"energy": -0.05188,
				"method": "rhf"
			},
			{
				"type": "unocc",
				"energy": -0.01984,
				"method": "rhf"
			},
			{
				"type": "unocc",
				"energy": -0.01793,
				"method": "rhf"
			},
			{
				"type": "unocc",
				"energy": -0.01181,
				"method": "rhf"
			},
			{
				"type": "unocc",
				"energy": 0.03694,
				"method": "rhf"
			}
		],
		"cosmo_sigma_profile": { 
			"-0.025": 0.0,
			"-0.024": 0.0,
			"-0.023": 0.0,
			"-0.022": 0.0,
			"-0.021": 0.0,
			"-0.02": 0.0,
			"-0.019": 0.0,
			"-0.018": 0.0,
			"-0.017": 0.0,
			"-0.016": 0.0,
			"-0.015": 0.0,
			"-0.014": 0.0,
			"-0.013": 0.0,
			"-0.012": 0.0,
			"-0.011": 0.0,
			"-0.01": 0.0,
			"-0.009": 0.180537616385,
			"-0.008": 3.40844185907,
			"-0.007": 10.1494714209,
			"-0.006": 15.7622248359,
			"-0.005": 16.3422093962,
			"-0.004": 15.4049373689,
			"-0.003": 15.3778483243,
			"-0.002": 19.6388360574,
			"-0.001": 23.2578072307,
			"0.0": 20.0122866221,
			"0.001": 17.963434049,
			"0.002": 23.1010556807,
			"0.003": 22.8782190748,
			"0.004": 13.4110665993,
			"0.005": 6.30316597384,
			"0.006": 4.68243100051,
			"0.007": 5.41777917665,
			"0.008": 3.56345445645,
			"0.009": 3.52326002521,
			"0.01": 3.04393858224,
			"0.011": 2.69296163961,
			"0.012": 2.22358079289,
			"0.013": 1.16182838903,
			"0.014": 0.0,
			"0.015": 0.0,
			"0.016": 0.0,
			"0.017": 0.0,
			"0.018": 0.0,
			"0.019": 0.0,
			"0.02": 0.0,
			"0.021": 0.0,
			"0.022": 0.0,
			"0.023": 0.0,
			"0.024": 0.0,
			"0.025": 0.0
		}
	}
}
