{
	 "smiles": "CC1=C(C=C(N)C=C1)S(=O)(=O)N1CCCCCC1", 
	 "Tm": 318.15, 
	 "num_atms": 38, 
	 "gaussian": { 
		 "optdone": 1, 
		 "sigma_profile": "yes", 
		 "theory": "DFT", 
		 "functional": "B3LYP", 
		 "basiset": "6-31G**", 
		 "properties": { 
			 "R2extent": 5558.4277, 
			 "electric_dipole_moment_norm": 5.33547814633, 
			 "electric_quadrupole_moment_norm": 17.5080596512, 
			 "total_energy": -1165.51581048, 
			 "HOMO_LUMO_gap": 0.18797, 
			 "cosmo_polarized_energy": -16.84, 
			 "cosmo_cavitation_energy": 38.59, 
			 "cosmo_dispersion_energy": -27.48, 
			 "cosmo_repulsion_energy": 2.06, 
			 "cosmo_total_nonelectrostatic_energy": 13.18, 
			 "SMD_solvation_energy": 5.14 
		},
		"coords": [
			{
				"x": -2.7601821368,
				"y": 0.4194415591,
				"z": 3.5414683717,
				"element": "C" 
			},
			{
				"x": -2.6708949757,
				"y": 1.0420533473,
				"z": 2.1680742196,
				"element": "C" 
			},
			{
				"x": -1.5396567442,
				"y": 0.9379148918,
				"z": 1.3327851564,
				"element": "C" 
			},
			{
				"x": -1.4889392149,
				"y": 1.5196507771,
				"z": 0.069148236,
				"element": "C" 
			},
			{
				"x": -2.5841997069,
				"y": 2.2465664833,
				"z": -0.4254663009,
				"element": "C" 
			},
			{
				"x": -2.5143599735,
				"y": 2.8793495281,
				"z": -1.6686053516,
				"element": "N" 
			},
			{
				"x": -3.7180217801,
				"y": 2.3651054652,
				"z": 0.3896542912,
				"element": "C" 
			},
			{
				"x": -3.7459956228,
				"y": 1.7734913802,
				"z": 1.6497931267,
				"element": "C" 
			},
			{
				"x": -0.1190187445,
				"y": -0.0012930771,
				"z": 1.9381051355,
				"element": "S" 
			},
			{
				"x": 0.3930176492,
				"y": 0.6975858147,
				"z": 3.1261806637,
				"element": "O" 
			},
			{
				"x": -0.5357836895,
				"y": -1.4074886647,
				"z": 2.0445663844,
				"element": "O" 
			},
			{
				"x": 1.0463403346,
				"y": 0.1145677814,
				"z": 0.7099418491,
				"element": "N" 
			},
			{
				"x": 2.2320253565,
				"y": 0.9561638972,
				"z": 0.9691447458,
				"element": "C" 
			},
			{
				"x": 2.462560678,
				"y": 2.0603455962,
				"z": -0.0721447301,
				"element": "C" 
			},
			{
				"x": 2.3171519844,
				"y": 1.649023867,
				"z": -1.5541796344,
				"element": "C" 
			},
			{
				"x": 2.6750132675,
				"y": 0.1914994609,
				"z": -1.8995389075,
				"element": "C" 
			},
			{
				"x": 1.5639982467,
				"y": -0.8201392295,
				"z": -1.565328165,
				"element": "C" 
			},
			{
				"x": 1.3154648485,
				"y": -1.1041597119,
				"z": -0.0800246187,
				"element": "C" 
			},
			{
				"x": -3.7405062404,
				"y": 0.6163244819,
				"z": 3.9828284669,
				"element": "H" 
			},
			{
				"x": -1.9917475017,
				"y": 0.819450217,
				"z": 4.2096985234,
				"element": "H" 
			},
			{
				"x": -2.6113930072,
				"y": -0.6637020497,
				"z": 3.4974343505,
				"element": "H" 
			},
			{
				"x": -0.592186484,
				"y": 1.4090908719,
				"z": -0.5288208312,
				"element": "H" 
			},
			{
				"x": -3.4075822978,
				"y": 3.0698303931,
				"z": -2.1017494856,
				"element": "H" 
			},
			{
				"x": -1.8614627868,
				"y": 2.4700324214,
				"z": -2.3225978476,
				"element": "H" 
			},
			{
				"x": -4.5799963982,
				"y": 2.9254459578,
				"z": 0.0360928497,
				"element": "H" 
			},
			{
				"x": -4.6403236628,
				"y": 1.8797748772,
				"z": 2.2582502664,
				"element": "H" 
			},
			{
				"x": 2.1374937007,
				"y": 1.4007049982,
				"z": 1.9605859843,
				"element": "H" 
			},
			{
				"x": 3.1036980175,
				"y": 0.288712693,
				"z": 1.0067220009,
				"element": "H" 
			},
			{
				"x": 3.4770660341,
				"y": 2.4412016223,
				"z": 0.1047605894,
				"element": "H" 
			},
			{
				"x": 1.785073489,
				"y": 2.8978894007,
				"z": 0.1309812319,
				"element": "H" 
			},
			{
				"x": 2.9338091615,
				"y": 2.3259760955,
				"z": -2.1572424478,
				"element": "H" 
			},
			{
				"x": 1.2845908815,
				"y": 1.8264752585,
				"z": -1.8826571186,
				"element": "H" 
			},
			{
				"x": 3.6153034764,
				"y": -0.1013843757,
				"z": -1.4118814997,
				"element": "H" 
			},
			{
				"x": 2.8674985517,
				"y": 0.1305698701,
				"z": -2.9775718432,
				"element": "H" 
			},
			{
				"x": 1.8023503679,
				"y": -1.7846455111,
				"z": -2.0328164402,
				"element": "H" 
			},
			{
				"x": 0.6272353018,
				"y": -0.4781505024,
				"z": -2.0255205112,
				"element": "H" 
			},
			{
				"x": 2.1891661452,
				"y": -1.6185623419,
				"z": 0.349272397,
				"element": "H" 
			},
			{
				"x": 0.4667934748,
				"y": -1.7795135439,
				"z": 0.0280568925,
				"element": "H" 
			}
		],
		 "valence_orbital": [ 
			{
				"type": "occ",
				"energy": -0.29054,
				"method": "rhf"
			},
			{
				"type": "occ",
				"energy": -0.28597,
				"method": "rhf"
			},
			{
				"type": "occ",
				"energy": -0.25484,
				"method": "rhf"
			},
			{
				"type": "occ",
				"energy": -0.24712,
				"method": "rhf"
			},
			{
				"type": "occ",
				"energy": -0.20733,
				"method": "rhf"
			},
			{
				"type": "unocc",
				"energy": -0.01936,
				"method": "rhf"
			},
			{
				"type": "unocc",
				"energy": 0.00574,
				"method": "rhf"
			},
			{
				"type": "unocc",
				"energy": 0.05047,
				"method": "rhf"
			},
			{
				"type": "unocc",
				"energy": 0.06563,
				"method": "rhf"
			},
			{
				"type": "unocc",
				"energy": 0.07347,
				"method": "rhf"
			}
		],
		"cosmo_sigma_profile": { 
			"-0.025": 0.0,
			"-0.024": 0.0,
			"-0.023": 0.0,
			"-0.022": 0.0,
			"-0.021": 0.0,
			"-0.02": 0.0,
			"-0.019": 0.0,
			"-0.018": 0.0,
			"-0.017": 0.0,
			"-0.016": 0.0,
			"-0.015": 0.0,
			"-0.014": 0.0,
			"-0.013": 0.397666400103,
			"-0.012": 2.71316083967,
			"-0.011": 2.33458597058,
			"-0.01": 3.37980238813,
			"-0.009": 3.99348426875,
			"-0.008": 2.75138012391,
			"-0.007": 3.06746742098,
			"-0.006": 6.21841348192,
			"-0.005": 9.85222780212,
			"-0.004": 18.6176677484,
			"-0.003": 34.8200926166,
			"-0.002": 43.1022881326,
			"-0.001": 35.010512369,
			"0.0": 29.9508332759,
			"0.001": 19.3737193747,
			"0.002": 9.05374401608,
			"0.003": 10.0528602941,
			"0.004": 15.122994495,
			"0.005": 12.4710211903,
			"0.006": 5.33618710421,
			"0.007": 4.16672952682,
			"0.008": 3.91500265343,
			"0.009": 4.87566190235,
			"0.01": 6.60837247488,
			"0.011": 8.30720375169,
			"0.012": 4.88022127737,
			"0.013": 0.740879956544,
			"0.014": 0.529545543357,
			"0.015": 0.0753469234858,
			"0.016": 0.0,
			"0.017": 0.0,
			"0.018": 0.0,
			"0.019": 0.0,
			"0.02": 0.0,
			"0.021": 0.0,
			"0.022": 0.0,
			"0.023": 0.0,
			"0.024": 0.0,
			"0.025": 0.0
		}
	}
}
