{
	 "smiles": "CC(C)(C)OC(=O)N1CC(C)(O)C1", 
	 "Tm": 363.15, 
	 "num_atms": 30, 
	 "gaussian": { 
		 "optdone": 1, 
		 "sigma_profile": "yes", 
		 "theory": "DFT", 
		 "functional": "B3LYP", 
		 "basiset": "6-31G**", 
		 "properties": { 
			 "R2extent": 3389.8548, 
			 "electric_dipole_moment_norm": 1.85845644017, 
			 "electric_quadrupole_moment_norm": 7.33013099747, 
			 "total_energy": -633.630281983, 
			 "HOMO_LUMO_gap": 0.2852, 
			 "cosmo_polarized_energy": -12.19, 
			 "cosmo_cavitation_energy": 31.81, 
			 "cosmo_dispersion_energy": -22.01, 
			 "cosmo_repulsion_energy": 1.78, 
			 "cosmo_total_nonelectrostatic_energy": 11.59, 
			 "SMD_solvation_energy": 5.32 
		},
		"coords": [
			{
				"x": 1.2742364646,
				"y": -0.4293936864,
				"z": -3.3522344508,
				"element": "C" 
			},
			{
				"x": 0.163549609,
				"y": 0.5063886874,
				"z": -2.8679708373,
				"element": "C" 
			},
			{
				"x": -1.1151132405,
				"y": 0.3036536965,
				"z": -3.6881892153,
				"element": "C" 
			},
			{
				"x": 0.6357844111,
				"y": 1.9645149336,
				"z": -2.882225341,
				"element": "C" 
			},
			{
				"x": -0.0510625341,
				"y": 0.0598112395,
				"z": -1.4835271703,
				"element": "O" 
			},
			{
				"x": -0.988442859,
				"y": 0.6501508772,
				"z": -0.7014719689,
				"element": "C" 
			},
			{
				"x": -1.7150218103,
				"y": 1.5843124615,
				"z": -1.0056328302,
				"element": "O" 
			},
			{
				"x": -1.0307487608,
				"y": 0.0323684046,
				"z": 0.5154708776,
				"element": "N" 
			},
			{
				"x": -0.00842699,
				"y": -0.759218436,
				"z": 1.2123190692,
				"element": "C" 
			},
			{
				"x": -0.5957601878,
				"y": -0.245575732,
				"z": 2.5722738214,
				"element": "C" 
			},
			{
				"x": 0.3602624294,
				"y": 0.5564645836,
				"z": 3.4378129382,
				"element": "C" 
			},
			{
				"x": -1.1607603753,
				"y": -1.2382751114,
				"z": 3.402690362,
				"element": "O" 
			},
			{
				"x": -1.6186205219,
				"y": 0.595601273,
				"z": 1.7335282639,
				"element": "C" 
			},
			{
				"x": 0.9501025023,
				"y": -1.472829711,
				"z": -3.2996523575,
				"element": "H" 
			},
			{
				"x": 1.5350996612,
				"y": -0.1988067315,
				"z": -4.3894506347,
				"element": "H" 
			},
			{
				"x": 2.1710638935,
				"y": -0.31581118,
				"z": -2.7360581343,
				"element": "H" 
			},
			{
				"x": -1.4454675929,
				"y": -0.7380473374,
				"z": -3.6244647577,
				"element": "H" 
			},
			{
				"x": -1.9149798377,
				"y": 0.9514160535,
				"z": -3.3286414338,
				"element": "H" 
			},
			{
				"x": -0.9179262174,
				"y": 0.5337734167,
				"z": -4.7403415357,
				"element": "H" 
			},
			{
				"x": 0.898887178,
				"y": 2.2567715188,
				"z": -3.9041185334,
				"element": "H" 
			},
			{
				"x": -0.1453249394,
				"y": 2.6299770466,
				"z": -2.514058055,
				"element": "H" 
			},
			{
				"x": 1.5266765473,
				"y": 2.0810066151,
				"z": -2.2565687242,
				"element": "H" 
			},
			{
				"x": 1.0206938892,
				"y": -0.4556321352,
				"z": 0.9909184723,
				"element": "H" 
			},
			{
				"x": -0.0979651734,
				"y": -1.8420144343,
				"z": 1.0624715569,
				"element": "H" 
			},
			{
				"x": 0.841249722,
				"y": 1.3494085901,
				"z": 2.8582951774,
				"element": "H" 
			},
			{
				"x": -0.1816483355,
				"y": 1.0113977569,
				"z": 4.2723985688,
				"element": "H" 
			},
			{
				"x": 1.1348273185,
				"y": -0.0983540703,
				"z": 3.8485295571,
				"element": "H" 
			},
			{
				"x": -1.790651953,
				"y": -1.7536337835,
				"z": 2.8812201175,
				"element": "H" 
			},
			{
				"x": -2.6685725006,
				"y": 0.3221605,
				"z": 1.8945623374,
				"element": "H" 
			},
			{
				"x": -1.5233397966,
				"y": 1.6847146947,
				"z": 1.8066148602,
				"element": "H" 
			}
		],
		 "valence_orbital": [ 
			{
				"type": "occ",
				"energy": -0.32594,
				"method": "rhf"
			},
			{
				"type": "occ",
				"energy": -0.28442,
				"method": "rhf"
			},
			{
				"type": "occ",
				"energy": -0.27415,
				"method": "rhf"
			},
			{
				"type": "occ",
				"energy": -0.25586,
				"method": "rhf"
			},
			{
				"type": "occ",
				"energy": -0.23983,
				"method": "rhf"
			},
			{
				"type": "unocc",
				"energy": 0.04537,
				"method": "rhf"
			},
			{
				"type": "unocc",
				"energy": 0.0672,
				"method": "rhf"
			},
			{
				"type": "unocc",
				"energy": 0.08525,
				"method": "rhf"
			},
			{
				"type": "unocc",
				"energy": 0.09922,
				"method": "rhf"
			},
			{
				"type": "unocc",
				"energy": 0.11162,
				"method": "rhf"
			}
		],
		"cosmo_sigma_profile": { 
			"-0.025": 0.0,
			"-0.024": 0.0,
			"-0.023": 0.0,
			"-0.022": 0.0,
			"-0.021": 0.0,
			"-0.02": 0.0,
			"-0.019": 0.0,
			"-0.018": 0.0,
			"-0.017": 0.0,
			"-0.016": 0.542450418634,
			"-0.015": 0.897342815127,
			"-0.014": 1.0538757689,
			"-0.013": 0.74960061447,
			"-0.012": 1.40221081332,
			"-0.011": 0.822213991617,
			"-0.01": 0.743027035945,
			"-0.009": 0.857739335122,
			"-0.008": 1.77765617397,
			"-0.007": 1.28647731827,
			"-0.006": 2.23302565557,
			"-0.005": 10.4045659089,
			"-0.004": 23.383843085,
			"-0.003": 30.5573608883,
			"-0.002": 28.6042193033,
			"-0.001": 24.2587550658,
			"0.0": 31.5596489858,
			"0.001": 24.1480109952,
			"0.002": 8.69928726664,
			"0.003": 6.69650364113,
			"0.004": 6.57245377876,
			"0.005": 5.45007406642,
			"0.006": 5.77133497562,
			"0.007": 4.9190440598,
			"0.008": 2.97143280824,
			"0.009": 3.2395144438,
			"0.01": 2.85549913801,
			"0.011": 2.62538543921,
			"0.012": 2.83182219892,
			"0.013": 5.51621247333,
			"0.014": 3.13492954369,
			"0.015": 0.0532260972873,
			"0.016": 0.0,
			"0.017": 0.0,
			"0.018": 0.0,
			"0.019": 0.0,
			"0.02": 0.0,
			"0.021": 0.0,
			"0.022": 0.0,
			"0.023": 0.0,
			"0.024": 0.0,
			"0.025": 0.0
		}
	}
}
