{
	 "smiles": "OC(=O)C1=CC=C(C=C1C(O)=O)C(F)(F)F", 
	 "Tm": 424.15, 
	 "num_atms": 21, 
	 "gaussian": { 
		 "optdone": 1, 
		 "sigma_profile": "yes", 
		 "theory": "DFT", 
		 "functional": "B3LYP", 
		 "basiset": "6-31G**", 
		 "properties": { 
			 "R2extent": 4542.9233, 
			 "electric_dipole_moment_norm": 4.84028918454, 
			 "electric_quadrupole_moment_norm": 17.8130118298, 
			 "total_energy": -946.410526364, 
			 "HOMO_LUMO_gap": 0.18725, 
			 "cosmo_polarized_energy": -16.75, 
			 "cosmo_cavitation_energy": 28.04, 
			 "cosmo_dispersion_energy": -20.05, 
			 "cosmo_repulsion_energy": 1.49, 
			 "cosmo_total_nonelectrostatic_energy": 9.49, 
			 "SMD_solvation_energy": 8.28 
		},
		"coords": [
			{
				"x": -1.2778727372,
				"y": -3.2565460215,
				"z": 0.6421136928,
				"element": "O" 
			},
			{
				"x": -0.8448191597,
				"y": -2.3986668324,
				"z": 1.6179922403,
				"element": "C" 
			},
			{
				"x": -0.4858044474,
				"y": -2.8116215728,
				"z": 2.6943470282,
				"element": "O" 
			},
			{
				"x": -0.7617650741,
				"y": -0.9674521359,
				"z": 1.1827357385,
				"element": "C" 
			},
			{
				"x": 0.3949660727,
				"y": -0.3290197449,
				"z": 1.6641250973,
				"element": "C" 
			},
			{
				"x": 0.6793797355,
				"y": 0.9920106327,
				"z": 1.3495375315,
				"element": "C" 
			},
			{
				"x": -0.2252423008,
				"y": 1.7134954937,
				"z": 0.5690115162,
				"element": "C" 
			},
			{
				"x": -1.4004786005,
				"y": 1.1126423907,
				"z": 0.1325083817,
				"element": "C" 
			},
			{
				"x": -1.6950171852,
				"y": -0.2309048312,
				"z": 0.4104354919,
				"element": "C" 
			},
			{
				"x": -3.0825240218,
				"y": -0.6391611944,
				"z": -0.0842696718,
				"element": "C" 
			},
			{
				"x": -3.3722677902,
				"y": -1.9289249648,
				"z": -0.2834928741,
				"element": "O" 
			},
			{
				"x": -3.9135542113,
				"y": 0.2143149017,
				"z": -0.3027307848,
				"element": "O" 
			},
			{
				"x": 0.0402355434,
				"y": 3.1677042947,
				"z": 0.2658409015,
				"element": "C" 
			},
			{
				"x": -0.3897223239,
				"y": 3.9616872361,
				"z": 1.2700637358,
				"element": "F" 
			},
			{
				"x": -0.5821802807,
				"y": 3.5682665737,
				"z": -0.8595254035,
				"element": "F" 
			},
			{
				"x": 1.3621025527,
				"y": 3.4023955315,
				"z": 0.1131687216,
				"element": "F" 
			},
			{
				"x": -1.2959505151,
				"y": -4.1463238796,
				"z": 1.0362554639,
				"element": "H" 
			},
			{
				"x": 1.0735956374,
				"y": -0.8992015746,
				"z": 2.2880854213,
				"element": "H" 
			},
			{
				"x": 1.5921559939,
				"y": 1.4569924919,
				"z": 1.7051851843,
				"element": "H" 
			},
			{
				"x": -2.1319556404,
				"y": 1.6801674888,
				"z": -0.4290052044,
				"element": "H" 
			},
			{
				"x": -2.6018812474,
				"y": -2.5079542834,
				"z": -0.1330822084,
				"element": "H" 
			}
		],
		 "valence_orbital": [ 
			{
				"type": "occ",
				"energy": -0.32409,
				"method": "rhf"
			},
			{
				"type": "occ",
				"energy": -0.32061,
				"method": "rhf"
			},
			{
				"type": "occ",
				"energy": -0.29624,
				"method": "rhf"
			},
			{
				"type": "occ",
				"energy": -0.29441,
				"method": "rhf"
			},
			{
				"type": "occ",
				"energy": -0.27749,
				"method": "rhf"
			},
			{
				"type": "unocc",
				"energy": -0.09024,
				"method": "rhf"
			},
			{
				"type": "unocc",
				"energy": -0.05621,
				"method": "rhf"
			},
			{
				"type": "unocc",
				"energy": -0.00617,
				"method": "rhf"
			},
			{
				"type": "unocc",
				"energy": 0.02727,
				"method": "rhf"
			},
			{
				"type": "unocc",
				"energy": 0.04093,
				"method": "rhf"
			}
		],
		"cosmo_sigma_profile": { 
			"-0.025": 0.0,
			"-0.024": 0.0,
			"-0.023": 0.0,
			"-0.022": 0.0,
			"-0.021": 0.0955279673172,
			"-0.02": 0.882738055875,
			"-0.019": 1.24001735442,
			"-0.018": 0.800915028327,
			"-0.017": 0.404588595969,
			"-0.016": 0.827183669822,
			"-0.015": 0.99445022279,
			"-0.014": 1.09609349914,
			"-0.013": 0.621871510648,
			"-0.012": 0.763629354033,
			"-0.011": 1.04785463577,
			"-0.01": 1.99392437758,
			"-0.009": 3.86510623018,
			"-0.008": 6.69545415939,
			"-0.007": 8.09941410218,
			"-0.006": 7.69213526082,
			"-0.005": 9.93121161962,
			"-0.004": 9.78471346076,
			"-0.003": 11.4368907307,
			"-0.002": 13.5042141418,
			"-0.001": 19.0689516046,
			"0.0": 19.1707755261,
			"0.001": 13.4919812262,
			"0.002": 28.6903079214,
			"0.003": 18.70269176,
			"0.004": 3.79106132351,
			"0.005": 3.41656413064,
			"0.006": 3.35681254402,
			"0.007": 4.12408588211,
			"0.008": 4.97853435849,
			"0.009": 5.32712210259,
			"0.01": 9.12874080172,
			"0.011": 6.63470622339,
			"0.012": 3.14528332289,
			"0.013": 1.19186111364,
			"0.014": 0.00404386350153,
			"0.015": 0.0,
			"0.016": 0.0,
			"0.017": 0.0,
			"0.018": 0.0,
			"0.019": 0.0,
			"0.02": 0.0,
			"0.021": 0.0,
			"0.022": 0.0,
			"0.023": 0.0,
			"0.024": 0.0,
			"0.025": 0.0
		}
	}
}
