{
	 "smiles": "NC1=C(OCC2CCCO2)C=CC(F)=C1", 
	 "Tm": 361.15, 
	 "num_atms": 29, 
	 "gaussian": { 
		 "optdone": 1, 
		 "sigma_profile": "yes", 
		 "theory": "DFT", 
		 "functional": "B3LYP", 
		 "basiset": "6-31G**", 
		 "properties": { 
			 "R2extent": 5487.9109, 
			 "electric_dipole_moment_norm": 2.41859777144, 
			 "electric_quadrupole_moment_norm": 15.9582796833, 
			 "total_energy": -732.623712071, 
			 "HOMO_LUMO_gap": 0.20574, 
			 "cosmo_polarized_energy": -10.5, 
			 "cosmo_cavitation_energy": 32.31, 
			 "cosmo_dispersion_energy": -23.15, 
			 "cosmo_repulsion_energy": 1.81, 
			 "cosmo_total_nonelectrostatic_energy": 10.97, 
			 "SMD_solvation_energy": 5.53 
		},
		"coords": [
			{
				"x": -2.0755069896,
				"y": -0.3967581563,
				"z": 0.1253377715,
				"element": "N" 
			},
			{
				"x": -1.8033720076,
				"y": 0.3513172937,
				"z": -1.0144023526,
				"element": "C" 
			},
			{
				"x": -0.5509670252,
				"y": 0.9941677215,
				"z": -1.1322163461,
				"element": "C" 
			},
			{
				"x": 0.3882178501,
				"y": 0.7772395941,
				"z": -0.1348024127,
				"element": "O" 
			},
			{
				"x": 0.4136156657,
				"y": 1.7836205877,
				"z": 0.8899644264,
				"element": "C" 
			},
			{
				"x": 1.4889928729,
				"y": 1.3915116248,
				"z": 1.899702877,
				"element": "C" 
			},
			{
				"x": 2.9279626686,
				"y": 1.5052492442,
				"z": 1.3549494934,
				"element": "C" 
			},
			{
				"x": 3.3892725641,
				"y": 2.871474284,
				"z": 1.8892520482,
				"element": "C" 
			},
			{
				"x": 2.6547406561,
				"y": 2.9311607119,
				"z": 3.2294963779,
				"element": "C" 
			},
			{
				"x": 1.3884496722,
				"y": 2.3091773799,
				"z": 2.9988275691,
				"element": "O" 
			},
			{
				"x": -0.2545516884,
				"y": 1.7781501781,
				"z": -2.2412832156,
				"element": "C" 
			},
			{
				"x": -1.1905907985,
				"y": 1.957800099,
				"z": -3.2635622301,
				"element": "C" 
			},
			{
				"x": -2.4193379935,
				"y": 1.3235827571,
				"z": -3.1312101642,
				"element": "C" 
			},
			{
				"x": -3.3434592983,
				"y": 1.476232819,
				"z": -4.1063483748,
				"element": "F" 
			},
			{
				"x": -2.7433420122,
				"y": 0.5263267625,
				"z": -2.0403083414,
				"element": "C" 
			},
			{
				"x": -2.7844595466,
				"y": -1.108596785,
				"z": 0.0197924781,
				"element": "H" 
			},
			{
				"x": -1.2411555356,
				"y": -0.7312018017,
				"z": 0.5896010896,
				"element": "H" 
			},
			{
				"x": 0.642320129,
				"y": 2.7646606081,
				"z": 0.4513473116,
				"element": "H" 
			},
			{
				"x": -0.5604006038,
				"y": 1.8505554349,
				"z": 1.3902371105,
				"element": "H" 
			},
			{
				"x": 1.2774022648,
				"y": 0.3729805046,
				"z": 2.2539347998,
				"element": "H" 
			},
			{
				"x": 2.9559225559,
				"y": 1.4203756038,
				"z": 0.2658409727,
				"element": "H" 
			},
			{
				"x": 3.5534791231,
				"y": 0.7062685229,
				"z": 1.7665894875,
				"element": "H" 
			},
			{
				"x": 3.0491357948,
				"y": 3.6819195391,
				"z": 1.2352245383,
				"element": "H" 
			},
			{
				"x": 4.47518275,
				"y": 2.9520613332,
				"z": 1.9907636627,
				"element": "H" 
			},
			{
				"x": 2.4709012695,
				"y": 3.947094932,
				"z": 3.5927372098,
				"element": "H" 
			},
			{
				"x": 3.213020615,
				"y": 2.3843060758,
				"z": 4.0063576411,
				"element": "H" 
			},
			{
				"x": 0.7262806311,
				"y": 2.2395523179,
				"z": -2.3036030459,
				"element": "H" 
			},
			{
				"x": -0.9802259303,
				"y": 2.5626182292,
				"z": -4.137593762,
				"element": "H" 
			},
			{
				"x": -3.7193276533,
				"y": 0.0539525841,
				"z": -1.9945266199,
				"element": "H" 
			}
		],
		 "valence_orbital": [ 
			{
				"type": "occ",
				"energy": -0.3057,
				"method": "rhf"
			},
			{
				"type": "occ",
				"energy": -0.27545,
				"method": "rhf"
			},
			{
				"type": "occ",
				"energy": -0.25095,
				"method": "rhf"
			},
			{
				"type": "occ",
				"energy": -0.23634,
				"method": "rhf"
			},
			{
				"type": "occ",
				"energy": -0.20308,
				"method": "rhf"
			},
			{
				"type": "unocc",
				"energy": 0.00266,
				"method": "rhf"
			},
			{
				"type": "unocc",
				"energy": 0.01999,
				"method": "rhf"
			},
			{
				"type": "unocc",
				"energy": 0.07501,
				"method": "rhf"
			},
			{
				"type": "unocc",
				"energy": 0.08086,
				"method": "rhf"
			},
			{
				"type": "unocc",
				"energy": 0.09596,
				"method": "rhf"
			}
		],
		"cosmo_sigma_profile": { 
			"-0.025": 0.0,
			"-0.024": 0.0,
			"-0.023": 0.0,
			"-0.022": 0.0,
			"-0.021": 0.0,
			"-0.02": 0.0,
			"-0.019": 0.0,
			"-0.018": 0.0,
			"-0.017": 0.0,
			"-0.016": 0.0,
			"-0.015": 0.0,
			"-0.014": 0.0,
			"-0.013": 0.620305145746,
			"-0.012": 1.33763855251,
			"-0.011": 2.16264068878,
			"-0.01": 2.40480583016,
			"-0.009": 2.62900602185,
			"-0.008": 2.95007086315,
			"-0.007": 3.61092962891,
			"-0.006": 6.03677320107,
			"-0.005": 6.74101140601,
			"-0.004": 21.2781175987,
			"-0.003": 31.5194742717,
			"-0.002": 29.7793965053,
			"-0.001": 19.7302832465,
			"0.0": 17.726560717,
			"0.001": 13.0124231682,
			"0.002": 15.2757025373,
			"0.003": 14.9537933444,
			"0.004": 20.6899807295,
			"0.005": 19.384630075,
			"0.006": 4.05111947035,
			"0.007": 2.80484053293,
			"0.008": 3.1837229001,
			"0.009": 2.25751582983,
			"0.01": 2.94337803966,
			"0.011": 2.25343130714,
			"0.012": 1.4542743748,
			"0.013": 1.86596724757,
			"0.014": 1.30274625286,
			"0.015": 0.0290581909249,
			"0.016": 0.0,
			"0.017": 0.0,
			"0.018": 0.0,
			"0.019": 0.0,
			"0.02": 0.0,
			"0.021": 0.0,
			"0.022": 0.0,
			"0.023": 0.0,
			"0.024": 0.0,
			"0.025": 0.0
		}
	}
}
