{
	 "smiles": "OC1=CC=C(NC(=O)C2=CSC=C2)C=C1", 
	 "Tm": 481.15, 
	 "num_atms": 24, 
	 "gaussian": { 
		 "optdone": 1, 
		 "sigma_profile": "yes", 
		 "theory": "DFT", 
		 "functional": "B3LYP", 
		 "basiset": "6-31G**", 
		 "properties": { 
			 "R2extent": 5270.4894, 
			 "electric_dipole_moment_norm": 3.85913018697, 
			 "electric_quadrupole_moment_norm": 14.6672923162, 
			 "total_energy": -1027.97101621, 
			 "HOMO_LUMO_gap": 0.18254, 
			 "cosmo_polarized_energy": -16.0, 
			 "cosmo_cavitation_energy": 30.57, 
			 "cosmo_dispersion_energy": -22.27, 
			 "cosmo_repulsion_energy": 1.71, 
			 "cosmo_total_nonelectrostatic_energy": 10.01, 
			 "SMD_solvation_energy": 6.32 
		},
		"coords": [
			{
				"x": -0.9776495007,
				"y": 2.6401341671,
				"z": 1.7173673454,
				"element": "O" 
			},
			{
				"x": -0.4198742342,
				"y": 1.788920728,
				"z": 0.8067681328,
				"element": "C" 
			},
			{
				"x": -1.2649941931,
				"y": 1.2371496811,
				"z": -0.1631461846,
				"element": "C" 
			},
			{
				"x": -0.7525368319,
				"y": 0.3521546903,
				"z": -1.1059864185,
				"element": "C" 
			},
			{
				"x": 0.6095367946,
				"y": 0.018706974,
				"z": -1.1147702094,
				"element": "C" 
			},
			{
				"x": 1.1041663914,
				"y": -0.852412181,
				"z": -2.1252673856,
				"element": "N" 
			},
			{
				"x": 2.0621680619,
				"y": -1.848015654,
				"z": -2.0429184902,
				"element": "C" 
			},
			{
				"x": 2.6657418558,
				"y": -2.1986131814,
				"z": -3.0523875728,
				"element": "O" 
			},
			{
				"x": 2.2960888098,
				"y": -2.5191946721,
				"z": -0.7300146538,
				"element": "C" 
			},
			{
				"x": 3.4716053059,
				"y": -3.2010994664,
				"z": -0.5242380416,
				"element": "C" 
			},
			{
				"x": 3.5090671997,
				"y": -3.9774059055,
				"z": 1.013449777,
				"element": "S" 
			},
			{
				"x": 1.9126960495,
				"y": -3.4036265129,
				"z": 1.3944916695,
				"element": "C" 
			},
			{
				"x": 1.3971478897,
				"y": -2.6444867188,
				"z": 0.3846502694,
				"element": "C" 
			},
			{
				"x": 1.4527053129,
				"y": 0.5940190612,
				"z": -0.156725945,
				"element": "C" 
			},
			{
				"x": 0.9396281013,
				"y": 1.4589640667,
				"z": 0.808234908,
				"element": "C" 
			},
			{
				"x": -0.2928882257,
				"y": 2.9520962134,
				"z": 2.3230125676,
				"element": "H" 
			},
			{
				"x": -2.3169005663,
				"y": 1.5021681243,
				"z": -0.1554328264,
				"element": "H" 
			},
			{
				"x": -1.4115180621,
				"y": -0.0929133756,
				"z": -1.8458815291,
				"element": "H" 
			},
			{
				"x": 0.9705629216,
				"y": -0.5578449175,
				"z": -3.085984431,
				"element": "H" 
			},
			{
				"x": 4.2936274803,
				"y": -3.2847287053,
				"z": -1.220367058,
				"element": "H" 
			},
			{
				"x": 1.4524658892,
				"y": -3.6655508593,
				"z": 2.3370090676,
				"element": "H" 
			},
			{
				"x": 0.4105476773,
				"y": -2.201605415,
				"z": 0.4210548814,
				"element": "H" 
			},
			{
				"x": 2.5127333828,
				"y": 0.3638916375,
				"z": -0.1658545286,
				"element": "H" 
			},
			{
				"x": 1.6048724906,
				"y": 1.8924922211,
				"z": 1.5519366559,
				"element": "H" 
			}
		],
		 "valence_orbital": [ 
			{
				"type": "occ",
				"energy": -0.26716,
				"method": "rhf"
			},
			{
				"type": "occ",
				"energy": -0.25689,
				"method": "rhf"
			},
			{
				"type": "occ",
				"energy": -0.25164,
				"method": "rhf"
			},
			{
				"type": "occ",
				"energy": -0.23731,
				"method": "rhf"
			},
			{
				"type": "occ",
				"energy": -0.21675,
				"method": "rhf"
			},
			{
				"type": "unocc",
				"energy": -0.03421,
				"method": "rhf"
			},
			{
				"type": "unocc",
				"energy": -0.01555,
				"method": "rhf"
			},
			{
				"type": "unocc",
				"energy": -0.00097,
				"method": "rhf"
			},
			{
				"type": "unocc",
				"energy": 0.01772,
				"method": "rhf"
			},
			{
				"type": "unocc",
				"energy": 0.0295,
				"method": "rhf"
			}
		],
		"cosmo_sigma_profile": { 
			"-0.025": 0.0,
			"-0.024": 0.0,
			"-0.023": 0.0,
			"-0.022": 0.0,
			"-0.021": 0.0,
			"-0.02": 0.0,
			"-0.019": 0.0,
			"-0.018": 0.311904357971,
			"-0.017": 1.09086649697,
			"-0.016": 1.58505636174,
			"-0.015": 0.70997620374,
			"-0.014": 1.5789685736,
			"-0.013": 2.43645913152,
			"-0.012": 2.01177150093,
			"-0.011": 1.02475270062,
			"-0.01": 1.91185632226,
			"-0.009": 3.85183163838,
			"-0.008": 5.36029091271,
			"-0.007": 7.43079565704,
			"-0.006": 12.4817686409,
			"-0.005": 12.7452066392,
			"-0.004": 14.1544937299,
			"-0.003": 14.3115616625,
			"-0.002": 11.0462781296,
			"-0.001": 13.6971507128,
			"0.0": 16.454984485,
			"0.001": 17.4375373644,
			"0.002": 18.6153147724,
			"0.003": 27.6797845218,
			"0.004": 20.1578315751,
			"0.005": 9.6061410064,
			"0.006": 2.87832401705,
			"0.007": 2.62373302185,
			"0.008": 3.23063915527,
			"0.009": 2.2628010685,
			"0.01": 3.60751744117,
			"0.011": 3.49616256898,
			"0.012": 2.40076632167,
			"0.013": 4.69775597722,
			"0.014": 3.86748955638,
			"0.015": 0.0974633814622,
			"0.016": 0.0,
			"0.017": 0.0,
			"0.018": 0.0,
			"0.019": 0.0,
			"0.02": 0.0,
			"0.021": 0.0,
			"0.022": 0.0,
			"0.023": 0.0,
			"0.024": 0.0,
			"0.025": 0.0
		}
	}
}
