{
	 "smiles": "CCOC1=CN(N=C1C(O)=O)C1=CC=CC=C1", 
	 "Tm": 416.15, 
	 "num_atms": 29, 
	 "gaussian": { 
		 "optdone": 1, 
		 "sigma_profile": "yes", 
		 "theory": "DFT", 
		 "functional": "B3LYP", 
		 "basiset": "6-31G**", 
		 "properties": { 
			 "R2extent": 5255.0036, 
			 "electric_dipole_moment_norm": 7.57072836456, 
			 "electric_quadrupole_moment_norm": 23.8643970299, 
			 "total_energy": -799.661635606, 
			 "HOMO_LUMO_gap": 0.17463, 
			 "cosmo_polarized_energy": -18.59, 
			 "cosmo_cavitation_energy": 33.86, 
			 "cosmo_dispersion_energy": -24.41, 
			 "cosmo_repulsion_energy": 1.91, 
			 "cosmo_total_nonelectrostatic_energy": 11.36, 
			 "SMD_solvation_energy": 7.1 
		},
		"coords": [
			{
				"x": 1.1595622854,
				"y": 3.0543315382,
				"z": 1.1236863136,
				"element": "C" 
			},
			{
				"x": -0.1030005427,
				"y": 2.8912463856,
				"z": 0.2851957475,
				"element": "C" 
			},
			{
				"x": 0.1071643689,
				"y": 2.0593022198,
				"z": -0.8637277723,
				"element": "O" 
			},
			{
				"x": 0.0855627284,
				"y": 0.7278257855,
				"z": -0.6785784957,
				"element": "C" 
			},
			{
				"x": -0.1556631026,
				"y": -0.0275578618,
				"z": 0.4578194176,
				"element": "C" 
			},
			{
				"x": -0.0754901764,
				"y": -1.3478754808,
				"z": 0.0741195596,
				"element": "N" 
			},
			{
				"x": 0.2054179491,
				"y": -1.4732352956,
				"z": -1.2293592583,
				"element": "N" 
			},
			{
				"x": 0.3084398856,
				"y": -0.2282806706,
				"z": -1.7087837542,
				"element": "C" 
			},
			{
				"x": 0.6097427374,
				"y": -0.0232013758,
				"z": -3.1468999553,
				"element": "C" 
			},
			{
				"x": 0.7276663456,
				"y": -1.1751671516,
				"z": -3.8515020365,
				"element": "O" 
			},
			{
				"x": 0.7437070517,
				"y": 1.0595100315,
				"z": -3.665985459,
				"element": "O" 
			},
			{
				"x": -0.2407890749,
				"y": -2.4965328661,
				"z": 0.8943432221,
				"element": "C" 
			},
			{
				"x": -1.0074651749,
				"y": -2.4201353797,
				"z": 2.0619693669,
				"element": "C" 
			},
			{
				"x": -1.1467008312,
				"y": -3.5500718246,
				"z": 2.86741562,
				"element": "C" 
			},
			{
				"x": -0.5415862392,
				"y": -4.7547814376,
				"z": 2.5073426795,
				"element": "C" 
			},
			{
				"x": 0.2097536095,
				"y": -4.8240340854,
				"z": 1.3315904685,
				"element": "C" 
			},
			{
				"x": 0.3692690456,
				"y": -3.7000744736,
				"z": 0.5245845043,
				"element": "C" 
			},
			{
				"x": 1.4997148178,
				"y": 2.1006337276,
				"z": 1.5371597235,
				"element": "H" 
			},
			{
				"x": 1.9667647804,
				"y": 3.4689761238,
				"z": 0.5139753907,
				"element": "H" 
			},
			{
				"x": 0.9685058907,
				"y": 3.7385444411,
				"z": 1.9570846542,
				"element": "H" 
			},
			{
				"x": -0.9381253619,
				"y": 2.4960475732,
				"z": 0.8799724736,
				"element": "H" 
			},
			{
				"x": -0.4156565211,
				"y": 3.8531487679,
				"z": -0.1283333806,
				"element": "H" 
			},
			{
				"x": -0.3261782007,
				"y": 0.2523571977,
				"z": 1.4832466274,
				"element": "H" 
			},
			{
				"x": 0.5745265132,
				"y": -1.9192946705,
				"z": -3.2429287464,
				"element": "H" 
			},
			{
				"x": -1.5123990114,
				"y": -1.4978015501,
				"z": 2.3280024222,
				"element": "H" 
			},
			{
				"x": -1.7436441459,
				"y": -3.4875412574,
				"z": 3.7722532804,
				"element": "H" 
			},
			{
				"x": -0.6571466384,
				"y": -5.6329225786,
				"z": 3.1349251844,
				"element": "H" 
			},
			{
				"x": 0.6845336865,
				"y": -5.7569022587,
				"z": 1.0427890751,
				"element": "H" 
			},
			{
				"x": 0.9587133256,
				"y": -3.7380135732,
				"z": -0.3832768729,
				"element": "H" 
			}
		],
		 "valence_orbital": [ 
			{
				"type": "occ",
				"energy": -0.293,
				"method": "rhf"
			},
			{
				"type": "occ",
				"energy": -0.27139,
				"method": "rhf"
			},
			{
				"type": "occ",
				"energy": -0.2585,
				"method": "rhf"
			},
			{
				"type": "occ",
				"energy": -0.25651,
				"method": "rhf"
			},
			{
				"type": "occ",
				"energy": -0.22452,
				"method": "rhf"
			},
			{
				"type": "unocc",
				"energy": -0.04989,
				"method": "rhf"
			},
			{
				"type": "unocc",
				"energy": -0.02209,
				"method": "rhf"
			},
			{
				"type": "unocc",
				"energy": -0.00198,
				"method": "rhf"
			},
			{
				"type": "unocc",
				"energy": 0.03202,
				"method": "rhf"
			},
			{
				"type": "unocc",
				"energy": 0.06865,
				"method": "rhf"
			}
		],
		"cosmo_sigma_profile": { 
			"-0.025": 0.0,
			"-0.024": 0.0,
			"-0.023": 0.0,
			"-0.022": 0.0,
			"-0.021": 0.0,
			"-0.02": 0.0,
			"-0.019": 0.0,
			"-0.018": 0.0,
			"-0.017": 0.0,
			"-0.016": 0.0,
			"-0.015": 0.0301509756064,
			"-0.014": 0.295297864649,
			"-0.013": 0.449922062227,
			"-0.012": 0.870369627898,
			"-0.011": 0.642242103506,
			"-0.01": 2.52236736804,
			"-0.009": 3.25364453168,
			"-0.008": 3.70322271202,
			"-0.007": 6.03203848741,
			"-0.006": 15.8877552834,
			"-0.005": 19.3331311683,
			"-0.004": 23.4010792326,
			"-0.003": 21.1263126739,
			"-0.002": 19.4612379882,
			"-0.001": 20.5800891958,
			"0.0": 24.2898208328,
			"0.001": 19.3474316636,
			"0.002": 14.316086386,
			"0.003": 16.3907084092,
			"0.004": 14.9553342522,
			"0.005": 6.59413416357,
			"0.006": 3.32414044227,
			"0.007": 3.55015750606,
			"0.008": 3.36609423607,
			"0.009": 4.00777734194,
			"0.01": 5.43071238474,
			"0.011": 5.04347769314,
			"0.012": 6.46679183954,
			"0.013": 3.88035759668,
			"0.014": 1.65529929158,
			"0.015": 0.357593412473,
			"0.016": 0.0,
			"0.017": 0.0,
			"0.018": 0.0,
			"0.019": 0.0,
			"0.02": 0.0,
			"0.021": 0.0,
			"0.022": 0.0,
			"0.023": 0.0,
			"0.024": 0.0,
			"0.025": 0.0
		}
	}
}
