{
	 "smiles": "CC(C)(C)OC(=O)NC(C)(C)CCC(O)=O", 
	 "Tm": 365.15, 
	 "num_atms": 37, 
	 "gaussian": { 
		 "optdone": 1, 
		 "sigma_profile": "yes", 
		 "theory": "DFT", 
		 "functional": "B3LYP", 
		 "basiset": "6-31G**", 
		 "properties": { 
			 "R2extent": 4597.1301, 
			 "electric_dipole_moment_norm": 2.73220515518, 
			 "electric_quadrupole_moment_norm": 12.4706046116, 
			 "total_energy": -787.543997086, 
			 "HOMO_LUMO_gap": 0.24667, 
			 "cosmo_polarized_energy": -14.06, 
			 "cosmo_cavitation_energy": 37.71, 
			 "cosmo_dispersion_energy": -25.1, 
			 "cosmo_repulsion_energy": 2.0, 
			 "cosmo_total_nonelectrostatic_energy": 14.6, 
			 "SMD_solvation_energy": 8.28 
		},
		"coords": [
			{
				"x": 0.1911632174,
				"y": 1.7013349339,
				"z": -3.0628256053,
				"element": "C" 
			},
			{
				"x": 1.1745816275,
				"y": 1.1070039077,
				"z": -2.0481001678,
				"element": "C" 
			},
			{
				"x": 1.8933048025,
				"y": -0.1320102212,
				"z": -2.593748185,
				"element": "C" 
			},
			{
				"x": 2.1866186095,
				"y": 2.1628494256,
				"z": -1.5938205546,
				"element": "C" 
			},
			{
				"x": 0.4751275289,
				"y": 0.7777916055,
				"z": -0.7990548056,
				"element": "O" 
			},
			{
				"x": -0.516642264,
				"y": -0.1542138232,
				"z": -0.7762763485,
				"element": "C" 
			},
			{
				"x": -0.9332587635,
				"y": -0.7754517275,
				"z": -1.7442082284,
				"element": "O" 
			},
			{
				"x": -0.9626776049,
				"y": -0.2888019554,
				"z": 0.5072344577,
				"element": "N" 
			},
			{
				"x": -2.1325676326,
				"y": -1.0958717865,
				"z": 0.9089486843,
				"element": "C" 
			},
			{
				"x": -1.9208777113,
				"y": -2.5703792724,
				"z": 0.5170273774,
				"element": "C" 
			},
			{
				"x": -3.4081558204,
				"y": -0.5508941183,
				"z": 0.2335271978,
				"element": "C" 
			},
			{
				"x": -2.2891837308,
				"y": -0.9401222842,
				"z": 2.4424360718,
				"element": "C" 
			},
			{
				"x": -1.2024966707,
				"y": -1.5575937804,
				"z": 3.3431014335,
				"element": "C" 
			},
			{
				"x": 0.184640115,
				"y": -0.9550163253,
				"z": 3.2773084005,
				"element": "C" 
			},
			{
				"x": 0.15922892,
				"y": 0.4109664326,
				"z": 3.2324159849,
				"element": "O" 
			},
			{
				"x": 1.2234974272,
				"y": -1.5713726583,
				"z": 3.3149773105,
				"element": "O" 
			},
			{
				"x": 0.7377419074,
				"y": 2.0508861199,
				"z": -3.9449331262,
				"element": "H" 
			},
			{
				"x": -0.3323431271,
				"y": 2.5582192037,
				"z": -2.6265638127,
				"element": "H" 
			},
			{
				"x": -0.543747141,
				"y": 0.9587919228,
				"z": -3.3739892206,
				"element": "H" 
			},
			{
				"x": 2.5536705559,
				"y": -0.5544048118,
				"z": -1.8296950336,
				"element": "H" 
			},
			{
				"x": 1.1772722213,
				"y": -0.8939319047,
				"z": -2.9021721045,
				"element": "H" 
			},
			{
				"x": 2.5069106714,
				"y": 0.1481043347,
				"z": -3.4563519226,
				"element": "H" 
			},
			{
				"x": 1.6746467456,
				"y": 3.0278976085,
				"z": -1.1618393946,
				"element": "H" 
			},
			{
				"x": 2.8631499016,
				"y": 1.7496606184,
				"z": -0.839842156,
				"element": "H" 
			},
			{
				"x": 2.7836611349,
				"y": 2.5032862213,
				"z": -2.4450862931,
				"element": "H" 
			},
			{
				"x": -0.6055109082,
				"y": 0.3875021145,
				"z": 1.1678919619,
				"element": "H" 
			},
			{
				"x": -2.7430659755,
				"y": -3.1845421485,
				"z": 0.9003195679,
				"element": "H" 
			},
			{
				"x": -0.980003419,
				"y": -2.9555352068,
				"z": 0.9197279176,
				"element": "H" 
			},
			{
				"x": -1.8851599468,
				"y": -2.6666023883,
				"z": -0.5685972776,
				"element": "H" 
			},
			{
				"x": -4.2789022004,
				"y": -1.1582068585,
				"z": 0.5026515335,
				"element": "H" 
			},
			{
				"x": -3.6007499772,
				"y": 0.4816508806,
				"z": 0.5444030875,
				"element": "H" 
			},
			{
				"x": -3.2923522841,
				"y": -0.5727134212,
				"z": -0.8519153486,
				"element": "H" 
			},
			{
				"x": -3.2405190061,
				"y": -1.4091568321,
				"z": 2.715816446,
				"element": "H" 
			},
			{
				"x": -2.3935667158,
				"y": 0.1249183578,
				"z": 2.6814737383,
				"element": "H" 
			},
			{
				"x": -1.0864778955,
				"y": -2.6283707813,
				"z": 3.1681133613,
				"element": "H" 
			},
			{
				"x": -1.526659043,
				"y": -1.4424037111,
				"z": 4.3863418522,
				"element": "H" 
			},
			{
				"x": 1.0903024519,
				"y": 0.6919323299,
				"z": 3.2290032009,
				"element": "H" 
			}
		],
		 "valence_orbital": [ 
			{
				"type": "occ",
				"energy": -0.3241,
				"method": "rhf"
			},
			{
				"type": "occ",
				"energy": -0.28194,
				"method": "rhf"
			},
			{
				"type": "occ",
				"energy": -0.2796,
				"method": "rhf"
			},
			{
				"type": "occ",
				"energy": -0.2563,
				"method": "rhf"
			},
			{
				"type": "occ",
				"energy": -0.24613,
				"method": "rhf"
			},
			{
				"type": "unocc",
				"energy": 0.00054,
				"method": "rhf"
			},
			{
				"type": "unocc",
				"energy": 0.0581,
				"method": "rhf"
			},
			{
				"type": "unocc",
				"energy": 0.06107,
				"method": "rhf"
			},
			{
				"type": "unocc",
				"energy": 0.08849,
				"method": "rhf"
			},
			{
				"type": "unocc",
				"energy": 0.09294,
				"method": "rhf"
			}
		],
		"cosmo_sigma_profile": { 
			"-0.025": 0.0,
			"-0.024": 0.0,
			"-0.023": 0.0,
			"-0.022": 0.0,
			"-0.021": 0.0,
			"-0.02": 0.0,
			"-0.019": 0.0190638208684,
			"-0.018": 0.561865534063,
			"-0.017": 0.752801360019,
			"-0.016": 1.53400216653,
			"-0.015": 0.367041100154,
			"-0.014": 0.463383353812,
			"-0.013": 0.896578469596,
			"-0.012": 0.753695652489,
			"-0.011": 0.864021367246,
			"-0.01": 0.843536591297,
			"-0.009": 0.260017411522,
			"-0.008": 0.740424716897,
			"-0.007": 3.5701544141,
			"-0.006": 5.10688349462,
			"-0.005": 7.42059680455,
			"-0.004": 25.0598438593,
			"-0.003": 36.8803603003,
			"-0.002": 28.5860781272,
			"-0.001": 30.786263193,
			"0.0": 34.9189876193,
			"0.001": 38.1493434501,
			"0.002": 13.9813691641,
			"0.003": 9.34764615588,
			"0.004": 7.05222791775,
			"0.005": 5.59635993154,
			"0.006": 4.68059699586,
			"0.007": 6.98825593146,
			"0.008": 4.83941216995,
			"0.009": 3.50139989193,
			"0.01": 3.25672486205,
			"0.011": 5.74474412503,
			"0.012": 5.78006267943,
			"0.013": 2.33572689517,
			"0.014": 0.398157267875,
			"0.015": 0.0,
			"0.016": 0.0,
			"0.017": 0.0,
			"0.018": 0.0,
			"0.019": 0.0,
			"0.02": 0.0,
			"0.021": 0.0,
			"0.022": 0.0,
			"0.023": 0.0,
			"0.024": 0.0,
			"0.025": 0.0
		}
	}
}
