{
	 "smiles": "O=C1NC(=O)C2=CC=CC=C2N1", 
	 "Tm": 573.15, 
	 "num_atms": 18, 
	 "gaussian": { 
		 "optdone": 1, 
		 "sigma_profile": "yes", 
		 "theory": "DFT", 
		 "functional": "B3LYP", 
		 "basiset": "6-31G**", 
		 "properties": { 
			 "R2extent": 2247.4679, 
			 "electric_dipole_moment_norm": 4.17344973972, 
			 "electric_quadrupole_moment_norm": 8.56628270372, 
			 "total_energy": -568.475212203, 
			 "HOMO_LUMO_gap": 0.18523, 
			 "cosmo_polarized_energy": -15.68, 
			 "cosmo_cavitation_energy": 22.69, 
			 "cosmo_dispersion_energy": -17.26, 
			 "cosmo_repulsion_energy": 1.35, 
			 "cosmo_total_nonelectrostatic_energy": 6.78, 
			 "SMD_solvation_energy": 5.31 
		},
		"coords": [
			{
				"x": 0.5307033189,
				"y": -2.2239962452,
				"z": -2.9641588715,
				"element": "O" 
			},
			{
				"x": 0.6324146721,
				"y": -1.3148479203,
				"z": -2.1607215554,
				"element": "C" 
			},
			{
				"x": 0.0650671175,
				"y": -0.0582879223,
				"z": -2.3554000255,
				"element": "N" 
			},
			{
				"x": 0.1147871278,
				"y": 1.0551385347,
				"z": -1.5101858693,
				"element": "C" 
			},
			{
				"x": -0.4368965298,
				"y": 2.0996373823,
				"z": -1.8169115321,
				"element": "O" 
			},
			{
				"x": 0.8731078343,
				"y": 0.8291737086,
				"z": -0.2642630219,
				"element": "C" 
			},
			{
				"x": 1.0055124252,
				"y": 1.8573883778,
				"z": 0.6771994329,
				"element": "C" 
			},
			{
				"x": 1.7185127494,
				"y": 1.6483306492,
				"z": 1.8503512865,
				"element": "C" 
			},
			{
				"x": 2.3063111901,
				"y": 0.3971896497,
				"z": 2.0860192788,
				"element": "C" 
			},
			{
				"x": 2.1858833246,
				"y": -0.6359743556,
				"z": 1.1633838335,
				"element": "C" 
			},
			{
				"x": 1.4655986437,
				"y": -0.4242732786,
				"z": -0.0214070612,
				"element": "C" 
			},
			{
				"x": 1.3231461532,
				"y": -1.4326847032,
				"z": -0.9674484891,
				"element": "N" 
			},
			{
				"x": -0.44693183,
				"y": 0.0551584398,
				"z": -3.2218012603,
				"element": "H" 
			},
			{
				"x": 0.5347348393,
				"y": 2.8091045562,
				"z": 0.4541450756,
				"element": "H" 
			},
			{
				"x": 1.8210468727,
				"y": 2.4450786894,
				"z": 2.5795934635,
				"element": "H" 
			},
			{
				"x": 2.8655135043,
				"y": 0.2259927954,
				"z": 3.0012328536,
				"element": "H" 
			},
			{
				"x": 2.6438523322,
				"y": -1.602869538,
				"z": 1.3524638881,
				"element": "H" 
			},
			{
				"x": 1.7403362545,
				"y": -2.3397588198,
				"z": -0.813091426,
				"element": "H" 
			}
		],
		 "valence_orbital": [ 
			{
				"type": "occ",
				"energy": -0.2946,
				"method": "rhf"
			},
			{
				"type": "occ",
				"energy": -0.28695,
				"method": "rhf"
			},
			{
				"type": "occ",
				"energy": -0.2745,
				"method": "rhf"
			},
			{
				"type": "occ",
				"energy": -0.2675,
				"method": "rhf"
			},
			{
				"type": "occ",
				"energy": -0.23981,
				"method": "rhf"
			},
			{
				"type": "unocc",
				"energy": -0.05458,
				"method": "rhf"
			},
			{
				"type": "unocc",
				"energy": -0.02185,
				"method": "rhf"
			},
			{
				"type": "unocc",
				"energy": 0.01945,
				"method": "rhf"
			},
			{
				"type": "unocc",
				"energy": 0.06715,
				"method": "rhf"
			},
			{
				"type": "unocc",
				"energy": 0.07271,
				"method": "rhf"
			}
		],
		"cosmo_sigma_profile": { 
			"-0.025": 0.0,
			"-0.024": 0.0,
			"-0.023": 0.0,
			"-0.022": 0.0,
			"-0.021": 0.0,
			"-0.02": 0.0,
			"-0.019": 0.0,
			"-0.018": 0.0,
			"-0.017": 0.0438468652195,
			"-0.016": 1.46409896655,
			"-0.015": 2.62158789233,
			"-0.014": 1.56917942255,
			"-0.013": 1.87140523991,
			"-0.012": 2.00276080697,
			"-0.011": 1.90591444519,
			"-0.01": 2.20108808241,
			"-0.009": 2.37954291438,
			"-0.008": 2.12477922501,
			"-0.007": 5.61124577838,
			"-0.006": 9.62367911284,
			"-0.005": 11.3239401249,
			"-0.004": 11.6296022083,
			"-0.003": 9.98732306478,
			"-0.002": 12.715808555,
			"-0.001": 13.1721937047,
			"0.0": 9.18467715724,
			"0.001": 12.4537206304,
			"0.002": 11.4923605345,
			"0.003": 13.0129303828,
			"0.004": 6.93075645004,
			"0.005": 2.19431949336,
			"0.006": 2.80026381374,
			"0.007": 1.67925072415,
			"0.008": 2.91413319563,
			"0.009": 2.62442486729,
			"0.01": 3.03582751521,
			"0.011": 4.03149742211,
			"0.012": 10.4679183289,
			"0.013": 6.97071274497,
			"0.014": 0.163933909274,
			"0.015": 0.0,
			"0.016": 0.0,
			"0.017": 0.0,
			"0.018": 0.0,
			"0.019": 0.0,
			"0.02": 0.0,
			"0.021": 0.0,
			"0.022": 0.0,
			"0.023": 0.0,
			"0.024": 0.0,
			"0.025": 0.0
		}
	}
}
