{
	 "smiles": "CCC1=NN(C)C(Cl)=C1C(O)=O", 
	 "Tm": 413.15, 
	 "num_atms": 21, 
	 "gaussian": { 
		 "optdone": 1, 
		 "sigma_profile": "yes", 
		 "theory": "DFT", 
		 "functional": "B3LYP", 
		 "basiset": "6-31G**", 
		 "properties": { 
			 "R2extent": 2910.5551, 
			 "electric_dipole_moment_norm": 5.48760217308, 
			 "electric_quadrupole_moment_norm": 13.3286394096, 
			 "total_energy": -992.307396656, 
			 "HOMO_LUMO_gap": 0.22743, 
			 "cosmo_polarized_energy": -13.54, 
			 "cosmo_cavitation_energy": 26.39, 
			 "cosmo_dispersion_energy": -19.46, 
			 "cosmo_repulsion_energy": 1.56, 
			 "cosmo_total_nonelectrostatic_energy": 8.48, 
			 "SMD_solvation_energy": 4.51 
		},
		"coords": [
			{
				"x": 2.3440023509,
				"y": 0.8065691509,
				"z": -1.5470780989,
				"element": "C" 
			},
			{
				"x": 1.7077594879,
				"y": 0.8143177921,
				"z": -0.1461447977,
				"element": "C" 
			},
			{
				"x": 0.9366722691,
				"y": -0.4376030961,
				"z": 0.1572204175,
				"element": "C" 
			},
			{
				"x": 1.4772859854,
				"y": -1.3761441364,
				"z": 0.9294899617,
				"element": "N" 
			},
			{
				"x": 0.5618974612,
				"y": -2.3807219887,
				"z": 1.0009412585,
				"element": "N" 
			},
			{
				"x": 0.8475225909,
				"y": -3.5723412565,
				"z": 1.7825881181,
				"element": "C" 
			},
			{
				"x": -0.5418640363,
				"y": -2.0797220789,
				"z": 0.2878662596,
				"element": "C" 
			},
			{
				"x": -1.8754540456,
				"y": -3.1870391037,
				"z": 0.2130975414,
				"element": "Cl" 
			},
			{
				"x": -0.3659244061,
				"y": -0.8245079756,
				"z": -0.2923987328,
				"element": "C" 
			},
			{
				"x": -1.2549887187,
				"y": -0.0089465853,
				"z": -1.1471292837,
				"element": "C" 
			},
			{
				"x": -2.4829212504,
				"y": -0.5013272971,
				"z": -1.4454555539,
				"element": "O" 
			},
			{
				"x": -0.9269317862,
				"y": 1.0738851028,
				"z": -1.582735778,
				"element": "O" 
			},
			{
				"x": 1.5714638468,
				"y": 0.7569059299,
				"z": -2.3178158665,
				"element": "H" 
			},
			{
				"x": 3.0202396814,
				"y": -0.0458856233,
				"z": -1.6672159059,
				"element": "H" 
			},
			{
				"x": 2.9207430068,
				"y": 1.7233122961,
				"z": -1.7050012596,
				"element": "H" 
			},
			{
				"x": 1.0375493834,
				"y": 1.6739842323,
				"z": -0.0637005832,
				"element": "H" 
			},
			{
				"x": 2.4854120092,
				"y": 0.9086148392,
				"z": 0.6187264949,
				"element": "H" 
			},
			{
				"x": 0.8384134876,
				"y": -4.4634409014,
				"z": 1.1490342466,
				"element": "H" 
			},
			{
				"x": 0.1166908524,
				"y": -3.6938766558,
				"z": 2.5867828004,
				"element": "H" 
			},
			{
				"x": 1.8406266975,
				"y": -3.4324314511,
				"z": 2.2061915849,
				"element": "H" 
			},
			{
				"x": -2.6320948672,
				"y": -1.3677011935,
				"z": -1.0382628233,
				"element": "H" 
			}
		],
		 "valence_orbital": [ 
			{
				"type": "occ",
				"energy": -0.3115,
				"method": "rhf"
			},
			{
				"type": "occ",
				"energy": -0.30551,
				"method": "rhf"
			},
			{
				"type": "occ",
				"energy": -0.27234,
				"method": "rhf"
			},
			{
				"type": "occ",
				"energy": -0.26669,
				"method": "rhf"
			},
			{
				"type": "occ",
				"energy": -0.26219,
				"method": "rhf"
			},
			{
				"type": "unocc",
				"energy": -0.03476,
				"method": "rhf"
			},
			{
				"type": "unocc",
				"energy": -0.00253,
				"method": "rhf"
			},
			{
				"type": "unocc",
				"energy": 0.00713,
				"method": "rhf"
			},
			{
				"type": "unocc",
				"energy": 0.08058,
				"method": "rhf"
			},
			{
				"type": "unocc",
				"energy": 0.0997,
				"method": "rhf"
			}
		],
		"cosmo_sigma_profile": { 
			"-0.025": 0.0,
			"-0.024": 0.0,
			"-0.023": 0.0,
			"-0.022": 0.0,
			"-0.021": 0.0,
			"-0.02": 0.0,
			"-0.019": 0.0,
			"-0.018": 0.0,
			"-0.017": 0.0,
			"-0.016": 0.0,
			"-0.015": 0.0,
			"-0.014": 0.0,
			"-0.013": 0.332870993755,
			"-0.012": 0.670576535853,
			"-0.011": 1.33188455323,
			"-0.01": 2.11065159957,
			"-0.009": 2.28703533376,
			"-0.008": 1.88579661939,
			"-0.007": 7.82302201684,
			"-0.006": 9.93839056053,
			"-0.005": 10.5627444331,
			"-0.004": 15.3092302616,
			"-0.003": 17.0725300345,
			"-0.002": 19.5590732241,
			"-0.001": 21.8599208275,
			"0.0": 24.0461386508,
			"0.001": 20.3448678244,
			"0.002": 9.44718325939,
			"0.003": 4.84606489743,
			"0.004": 3.80781708019,
			"0.005": 4.21422313243,
			"0.006": 3.74412773879,
			"0.007": 3.88266059134,
			"0.008": 3.63113647245,
			"0.009": 4.24306722858,
			"0.01": 4.73832910433,
			"0.011": 5.23695448395,
			"0.012": 4.52207769258,
			"0.013": 3.3677430017,
			"0.014": 0.860959545902,
			"0.015": 0.0,
			"0.016": 0.0,
			"0.017": 0.0,
			"0.018": 0.0,
			"0.019": 0.0,
			"0.02": 0.0,
			"0.021": 0.0,
			"0.022": 0.0,
			"0.023": 0.0,
			"0.024": 0.0,
			"0.025": 0.0
		}
	}
}
