{
	 "smiles": "CCCCCCCCCCCCCCCCCC(=O)OC1CCC2(C)C3CCC4(C)C(CCC4C3CC=C2C1)C(C)CCCC(C)C", 
	 "Tm": 354.15, 
	 "num_atms": 127, 
	 "gaussian": { 
		 "optdone": 1, 
		 "sigma_profile": "yes", 
		 "theory": "DFT", 
		 "functional": "B3LYP", 
		 "basiset": "6-31G**", 
		 "properties": { 
			 "R2extent": 74712.0778, 
			 "electric_dipole_moment_norm": 2.04853889638, 
			 "electric_quadrupole_moment_norm": 8.66219202281, 
			 "total_energy": -1913.53590532, 
			 "HOMO_LUMO_gap": 0.24606, 
			 "cosmo_polarized_energy": -8.99, 
			 "cosmo_cavitation_energy": 109.59, 
			 "cosmo_dispersion_energy": -70.44, 
			 "cosmo_repulsion_energy": 5.34, 
			 "cosmo_total_nonelectrostatic_energy": 44.49, 
			 "SMD_solvation_energy": 14.93 
		},
		"coords": [
			{
				"x": 2.0578729748,
				"y": -10.0657219903,
				"z": 2.2532209642,
				"element": "C" 
			},
			{
				"x": 3.031690418,
				"y": -10.8134505031,
				"z": 1.3348255562,
				"element": "C" 
			},
			{
				"x": 2.8045333271,
				"y": -10.5652620138,
				"z": -0.1671682482,
				"element": "C" 
			},
			{
				"x": 2.9945775129,
				"y": -9.1155893829,
				"z": -0.6474386723,
				"element": "C" 
			},
			{
				"x": 4.4204181356,
				"y": -8.5685290515,
				"z": -0.4889839268,
				"element": "C" 
			},
			{
				"x": 4.5852181915,
				"y": -7.1535539659,
				"z": -1.0617477601,
				"element": "C" 
			},
			{
				"x": 6.020429926,
				"y": -6.6001406821,
				"z": -1.0079618398,
				"element": "C" 
			},
			{
				"x": 6.6238710826,
				"y": -6.407882283,
				"z": 0.3958209898,
				"element": "C" 
			},
			{
				"x": 5.8934509897,
				"y": -5.3738995528,
				"z": 1.2645418206,
				"element": "C" 
			},
			{
				"x": 6.4911293345,
				"y": -5.1836365973,
				"z": 2.6701395465,
				"element": "C" 
			},
			{
				"x": 7.9301895663,
				"y": -4.6404424433,
				"z": 2.7728208607,
				"element": "C" 
			},
			{
				"x": 8.1519578419,
				"y": -3.1932036433,
				"z": 2.2795655368,
				"element": "C" 
			},
			{
				"x": 8.5273246324,
				"y": -3.0518343003,
				"z": 0.7949794799,
				"element": "C" 
			},
			{
				"x": 8.8846401074,
				"y": -1.6160983496,
				"z": 0.3694144613,
				"element": "C" 
			},
			{
				"x": 7.7446341692,
				"y": -0.5846814767,
				"z": 0.4458117246,
				"element": "C" 
			},
			{
				"x": 6.5755492324,
				"y": -0.8635665858,
				"z": -0.5076997883,
				"element": "C" 
			},
			{
				"x": 5.504161796,
				"y": 0.2268182072,
				"z": -0.4537897117,
				"element": "C" 
			},
			{
				"x": 4.3436526433,
				"y": -0.0247425029,
				"z": -1.3979897052,
				"element": "C" 
			},
			{
				"x": 4.2454388702,
				"y": -0.9703542641,
				"z": -2.1526537442,
				"element": "O" 
			},
			{
				"x": 3.4206266839,
				"y": 0.9578588949,
				"z": -1.2921913376,
				"element": "O" 
			},
			{
				"x": 2.2581887419,
				"y": 0.8699088644,
				"z": -2.1606705019,
				"element": "C" 
			},
			{
				"x": 1.7219129251,
				"y": 2.2990857244,
				"z": -2.2994647121,
				"element": "C" 
			},
			{
				"x": 0.229756566,
				"y": 2.2847977782,
				"z": -2.6573129765,
				"element": "C" 
			},
			{
				"x": -0.6648665892,
				"y": 1.6975215884,
				"z": -1.5076548949,
				"element": "C" 
			},
			{
				"x": -1.8333115397,
				"y": 0.9276677942,
				"z": -2.1704114582,
				"element": "C" 
			},
			{
				"x": -1.0964348903,
				"y": 2.8534986696,
				"z": -0.5390559824,
				"element": "C" 
			},
			{
				"x": -2.0529141059,
				"y": 3.9268341626,
				"z": -1.0985686637,
				"element": "C" 
			},
			{
				"x": -3.5330523723,
				"y": 3.5223340625,
				"z": -1.1552369503,
				"element": "C" 
			},
			{
				"x": -4.1509152144,
				"y": 2.9234587281,
				"z": 0.1361403587,
				"element": "C" 
			},
			{
				"x": -5.3380011172,
				"y": 2.0315186653,
				"z": -0.3029498051,
				"element": "C" 
			},
			{
				"x": -4.708951351,
				"y": 3.9696609979,
				"z": 1.217420817,
				"element": "C" 
			},
			{
				"x": -3.9804486106,
				"y": 3.6126897494,
				"z": 2.5333349175,
				"element": "C" 
			},
			{
				"x": -3.6282546645,
				"y": 2.1302292697,
				"z": 2.3869408333,
				"element": "C" 
			},
			{
				"x": -3.1300205034,
				"y": 2.0171957122,
				"z": 0.9276939587,
				"element": "C" 
			},
			{
				"x": -1.6299271983,
				"y": 2.4275476105,
				"z": 0.8554605587,
				"element": "C" 
			},
			{
				"x": -0.7204491111,
				"y": 1.3681450388,
				"z": 1.532850191,
				"element": "C" 
			},
			{
				"x": 0.136592444,
				"y": 0.563217218,
				"z": 0.5994954525,
				"element": "C" 
			},
			{
				"x": 0.1922348818,
				"y": 0.6955688588,
				"z": -0.728857965,
				"element": "C" 
			},
			{
				"x": 1.1868538832,
				"y": -0.0752148941,
				"z": -1.5623103084,
				"element": "C" 
			},
			{
				"x": -4.7205523007,
				"y": 5.4845414222,
				"z": 0.8667380487,
				"element": "C" 
			},
			{
				"x": -4.9278602047,
				"y": 6.3349273089,
				"z": 2.1363553717,
				"element": "C" 
			},
			{
				"x": -5.8197368763,
				"y": 5.8172328246,
				"z": -0.1836799059,
				"element": "C" 
			},
			{
				"x": -5.483030649,
				"y": 6.9170047242,
				"z": -1.2125494594,
				"element": "C" 
			},
			{
				"x": -5.3181911785,
				"y": 8.3593500622,
				"z": -0.6996456529,
				"element": "C" 
			},
			{
				"x": -6.5645602783,
				"y": 9.0154541536,
				"z": -0.0690667926,
				"element": "C" 
			},
			{
				"x": -6.2039136356,
				"y": 10.3946098353,
				"z": 0.504190821,
				"element": "C" 
			},
			{
				"x": -7.7300257315,
				"y": 9.1342135386,
				"z": -1.0632193833,
				"element": "C" 
			},
			{
				"x": 2.1667804197,
				"y": -8.9794772511,
				"z": 2.167669204,
				"element": "H" 
			},
			{
				"x": 2.2246616197,
				"y": -10.3290630777,
				"z": 3.3030380312,
				"element": "H" 
			},
			{
				"x": 1.017568581,
				"y": -10.3125513386,
				"z": 2.010202274,
				"element": "H" 
			},
			{
				"x": 4.0626030817,
				"y": -10.5509193726,
				"z": 1.6045235906,
				"element": "H" 
			},
			{
				"x": 2.9409473754,
				"y": -11.8912164908,
				"z": 1.5220681458,
				"element": "H" 
			},
			{
				"x": 3.4819682648,
				"y": -11.2159475381,
				"z": -0.7373115863,
				"element": "H" 
			},
			{
				"x": 1.786494234,
				"y": -10.8892643736,
				"z": -0.424491499,
				"element": "H" 
			},
			{
				"x": 2.7138083286,
				"y": -9.0644670684,
				"z": -1.7083127099,
				"element": "H" 
			},
			{
				"x": 2.2921330224,
				"y": -8.4530271385,
				"z": -0.1238815457,
				"element": "H" 
			},
			{
				"x": 5.1261019058,
				"y": -9.2469599843,
				"z": -0.99116831,
				"element": "H" 
			},
			{
				"x": 4.7007560863,
				"y": -8.5717996502,
				"z": 0.5716794972,
				"element": "H" 
			},
			{
				"x": 3.8995876448,
				"y": -6.4703073238,
				"z": -0.5429343103,
				"element": "H" 
			},
			{
				"x": 4.2589397279,
				"y": -7.1577332508,
				"z": -2.1106979381,
				"element": "H" 
			},
			{
				"x": 6.0429477108,
				"y": -5.6361659954,
				"z": -1.5343576192,
				"element": "H" 
			},
			{
				"x": 6.6753278432,
				"y": -7.2714552537,
				"z": -1.5804631336,
				"element": "H" 
			},
			{
				"x": 7.6717033788,
				"y": -6.106732168,
				"z": 0.2741040948,
				"element": "H" 
			},
			{
				"x": 6.6513152936,
				"y": -7.3688432571,
				"z": 0.9277577179,
				"element": "H" 
			},
			{
				"x": 4.846533653,
				"y": -5.6792972976,
				"z": 1.3879037147,
				"element": "H" 
			},
			{
				"x": 5.8577110243,
				"y": -4.4123793749,
				"z": 0.7350978638,
				"element": "H" 
			},
			{
				"x": 5.832553927,
				"y": -4.5134110046,
				"z": 3.2400170061,
				"element": "H" 
			},
			{
				"x": 6.4554019525,
				"y": -6.1504431988,
				"z": 3.1919515792,
				"element": "H" 
			},
			{
				"x": 8.2097717689,
				"y": -4.6881746675,
				"z": 3.8329864311,
				"element": "H" 
			},
			{
				"x": 8.6283930868,
				"y": -5.3129319989,
				"z": 2.2568682663,
				"element": "H" 
			},
			{
				"x": 7.2560122339,
				"y": -2.5984200268,
				"z": 2.503977637,
				"element": "H" 
			},
			{
				"x": 8.961838047,
				"y": -2.7423994455,
				"z": 2.8697489135,
				"element": "H" 
			},
			{
				"x": 9.3976801775,
				"y": -3.6922060669,
				"z": 0.596977017,
				"element": "H" 
			},
			{
				"x": 7.7242938807,
				"y": -3.4382901157,
				"z": 0.15754629,
				"element": "H" 
			},
			{
				"x": 9.7175042073,
				"y": -1.2628357848,
				"z": 0.992955296,
				"element": "H" 
			},
			{
				"x": 9.2661572986,
				"y": -1.6388999024,
				"z": -0.6604861378,
				"element": "H" 
			},
			{
				"x": 7.3691147289,
				"y": -0.5169318072,
				"z": 1.4758349329,
				"element": "H" 
			},
			{
				"x": 8.1609688301,
				"y": 0.4060549138,
				"z": 0.21656842,
				"element": "H" 
			},
			{
				"x": 6.1090849914,
				"y": -1.8274671691,
				"z": -0.2763456821,
				"element": "H" 
			},
			{
				"x": 6.9460256499,
				"y": -0.9524301854,
				"z": -1.5361330824,
				"element": "H" 
			},
			{
				"x": 5.0937340828,
				"y": 0.3327205673,
				"z": 0.5588224446,
				"element": "H" 
			},
			{
				"x": 5.9257694016,
				"y": 1.2105161899,
				"z": -0.6987850751,
				"element": "H" 
			},
			{
				"x": 2.5975459453,
				"y": 0.4706606233,
				"z": -3.1199898277,
				"element": "H" 
			},
			{
				"x": 2.3029414123,
				"y": 2.8519053323,
				"z": -3.0451660821,
				"element": "H" 
			},
			{
				"x": 1.8691000451,
				"y": 2.808729949,
				"z": -1.3402706357,
				"element": "H" 
			},
			{
				"x": -0.1018031518,
				"y": 3.296007582,
				"z": -2.9108444829,
				"element": "H" 
			},
			{
				"x": 0.0884468358,
				"y": 1.6905596763,
				"z": -3.5694359147,
				"element": "H" 
			},
			{
				"x": -1.4511595748,
				"y": 0.0479982624,
				"z": -2.6995136601,
				"element": "H" 
			},
			{
				"x": -2.3490396878,
				"y": 1.5441694381,
				"z": -2.9126742552,
				"element": "H" 
			},
			{
				"x": -2.5657933382,
				"y": 0.5761054684,
				"z": -1.4412461886,
				"element": "H" 
			},
			{
				"x": -0.1497945935,
				"y": 3.3726492637,
				"z": -0.3290636305,
				"element": "H" 
			},
			{
				"x": -1.7417293341,
				"y": 4.2490082506,
				"z": -2.099461976,
				"element": "H" 
			},
			{
				"x": -1.9435327401,
				"y": 4.8137016659,
				"z": -0.4599592962,
				"element": "H" 
			},
			{
				"x": -4.1167270878,
				"y": 4.3863042602,
				"z": -1.4823752016,
				"element": "H" 
			},
			{
				"x": -3.6591560212,
				"y": 2.784179433,
				"z": -1.9510810266,
				"element": "H" 
			},
			{
				"x": -5.0104599439,
				"y": 1.2434312882,
				"z": -0.9902218234,
				"element": "H" 
			},
			{
				"x": -5.8203236616,
				"y": 1.5486192235,
				"z": 0.5535708096,
				"element": "H" 
			},
			{
				"x": -6.1044525226,
				"y": 2.621961756,
				"z": -0.8182399409,
				"element": "H" 
			},
			{
				"x": -5.7650275729,
				"y": 3.7057772743,
				"z": 1.3746536525,
				"element": "H" 
			},
			{
				"x": -4.5900841309,
				"y": 3.8164252195,
				"z": 3.4189379433,
				"element": "H" 
			},
			{
				"x": -3.0635853831,
				"y": 4.2056123134,
				"z": 2.6419692352,
				"element": "H" 
			},
			{
				"x": -2.8943977412,
				"y": 1.7923793084,
				"z": 3.1253155563,
				"element": "H" 
			},
			{
				"x": -4.525806051,
				"y": 1.5166735841,
				"z": 2.5306490644,
				"element": "H" 
			},
			{
				"x": -3.2157204386,
				"y": 0.9825740049,
				"z": 0.5738010399,
				"element": "H" 
			},
			{
				"x": -1.5430880204,
				"y": 3.3422475142,
				"z": 1.4555594188,
				"element": "H" 
			},
			{
				"x": -1.3259781418,
				"y": 0.6814227161,
				"z": 2.1396422639,
				"element": "H" 
			},
			{
				"x": -0.0526718982,
				"y": 1.8578507102,
				"z": 2.2572952487,
				"element": "H" 
			},
			{
				"x": 0.7902428987,
				"y": -0.1682747573,
				"z": 1.0758900264,
				"element": "H" 
			},
			{
				"x": 1.6746832515,
				"y": -0.8639824843,
				"z": -0.9847987965,
				"element": "H" 
			},
			{
				"x": 0.6822893258,
				"y": -0.5744903085,
				"z": -2.3998053659,
				"element": "H" 
			},
			{
				"x": -3.7425369499,
				"y": 5.7557948158,
				"z": 0.4451889089,
				"element": "H" 
			},
			{
				"x": -4.1075382919,
				"y": 6.2218438341,
				"z": 2.8502722486,
				"element": "H" 
			},
			{
				"x": -5.0044910274,
				"y": 7.3975416487,
				"z": 1.8939165151,
				"element": "H" 
			},
			{
				"x": -5.8557987978,
				"y": 6.0486651876,
				"z": 2.6468631238,
				"element": "H" 
			},
			{
				"x": -6.7477321359,
				"y": 6.0700971049,
				"z": 0.3473717427,
				"element": "H" 
			},
			{
				"x": -6.0601708673,
				"y": 4.9145532014,
				"z": -0.755096882,
				"element": "H" 
			},
			{
				"x": -4.5534272404,
				"y": 6.6357262995,
				"z": -1.7261541246,
				"element": "H" 
			},
			{
				"x": -6.2585227622,
				"y": 6.9036989449,
				"z": -1.9889899383,
				"element": "H" 
			},
			{
				"x": -4.9971737928,
				"y": 8.984943763,
				"z": -1.5454794645,
				"element": "H" 
			},
			{
				"x": -4.4921815846,
				"y": 8.3991386998,
				"z": 0.0220960739,
				"element": "H" 
			},
			{
				"x": -6.9013312584,
				"y": 8.3874086829,
				"z": 0.7677109542,
				"element": "H" 
			},
			{
				"x": -7.0683677997,
				"y": 10.865317823,
				"z": 0.9850958945,
				"element": "H" 
			},
			{
				"x": -5.8574757599,
				"y": 11.0694270888,
				"z": -0.2884791685,
				"element": "H" 
			},
			{
				"x": -5.4040820031,
				"y": 10.3224327397,
				"z": 1.2497204069,
				"element": "H" 
			},
			{
				"x": -8.0639291054,
				"y": 8.1580721066,
				"z": -1.4283101369,
				"element": "H" 
			},
			{
				"x": -7.4399276865,
				"y": 9.7346234145,
				"z": -1.9347078067,
				"element": "H" 
			},
			{
				"x": -8.5928138314,
				"y": 9.6229780032,
				"z": -0.5975663621,
				"element": "H" 
			}
		],
		 "valence_orbital": [ 
			{
				"type": "occ",
				"energy": -0.2784,
				"method": "rhf"
			},
			{
				"type": "occ",
				"energy": -0.27522,
				"method": "rhf"
			},
			{
				"type": "occ",
				"energy": -0.27048,
				"method": "rhf"
			},
			{
				"type": "occ",
				"energy": -0.26193,
				"method": "rhf"
			},
			{
				"type": "occ",
				"energy": -0.22647,
				"method": "rhf"
			},
			{
				"type": "unocc",
				"energy": 0.01959,
				"method": "rhf"
			},
			{
				"type": "unocc",
				"energy": 0.03148,
				"method": "rhf"
			},
			{
				"type": "unocc",
				"energy": 0.06625,
				"method": "rhf"
			},
			{
				"type": "unocc",
				"energy": 0.06883,
				"method": "rhf"
			},
			{
				"type": "unocc",
				"energy": 0.07618,
				"method": "rhf"
			}
		],
		"cosmo_sigma_profile": { 
			"-0.025": 0.0,
			"-0.024": 0.0,
			"-0.023": 0.0,
			"-0.022": 0.0,
			"-0.021": 0.0,
			"-0.02": 0.0,
			"-0.019": 0.0,
			"-0.018": 0.0,
			"-0.017": 0.0,
			"-0.016": 0.0,
			"-0.015": 0.0,
			"-0.014": 0.0,
			"-0.013": 0.0,
			"-0.012": 0.0,
			"-0.011": 0.0,
			"-0.01": 0.0,
			"-0.009": 0.0,
			"-0.008": 0.0,
			"-0.007": 0.0,
			"-0.006": 0.342230159789,
			"-0.005": 4.49991665677,
			"-0.004": 16.0624088053,
			"-0.003": 36.2659440164,
			"-0.002": 120.632379747,
			"-0.001": 190.486613803,
			"0.0": 190.06145118,
			"0.001": 147.540337905,
			"0.002": 83.0453409062,
			"0.003": 11.5485593823,
			"0.004": 5.03898980814,
			"0.005": 6.19249677729,
			"0.006": 5.71563126916,
			"0.007": 4.31366912982,
			"0.008": 3.14045737583,
			"0.009": 2.05221295394,
			"0.01": 1.68437498192,
			"0.011": 2.19351364305,
			"0.012": 3.70887864287,
			"0.013": 2.49950147133,
			"0.014": 0.103942756849,
			"0.015": 0.0,
			"0.016": 0.0,
			"0.017": 0.0,
			"0.018": 0.0,
			"0.019": 0.0,
			"0.02": 0.0,
			"0.021": 0.0,
			"0.022": 0.0,
			"0.023": 0.0,
			"0.024": 0.0,
			"0.025": 0.0
		}
	}
}
