{
	 "smiles": "COC1=CC(OC)=C(Cl)C=C1NC(=O)C=C", 
	 "Tm": 416.15, 
	 "num_atms": 28, 
	 "gaussian": { 
		 "optdone": 1, 
		 "sigma_profile": "yes", 
		 "theory": "DFT", 
		 "functional": "B3LYP", 
		 "basiset": "6-31G**", 
		 "properties": { 
			 "R2extent": 5551.6196, 
			 "electric_dipole_moment_norm": 4.03523118669, 
			 "electric_quadrupole_moment_norm": 19.4402815386, 
			 "total_energy": -1166.97480313, 
			 "HOMO_LUMO_gap": 0.17172, 
			 "cosmo_polarized_energy": -13.8, 
			 "cosmo_cavitation_energy": 34.44, 
			 "cosmo_dispersion_energy": -24.25, 
			 "cosmo_repulsion_energy": 1.92, 
			 "cosmo_total_nonelectrostatic_energy": 12.11, 
			 "SMD_solvation_energy": 8.61 
		},
		"coords": [
			{
				"x": -3.0660586674,
				"y": -0.4910599077,
				"z": 0.1713778639,
				"element": "C" 
			},
			{
				"x": -2.226865639,
				"y": 0.6438740912,
				"z": 0.3383092591,
				"element": "O" 
			},
			{
				"x": -0.8762780163,
				"y": 0.4686010992,
				"z": 0.2571724772,
				"element": "C" 
			},
			{
				"x": -0.2441057936,
				"y": -0.7500873014,
				"z": 0.0271140518,
				"element": "C" 
			},
			{
				"x": 1.1536785896,
				"y": -0.8343776905,
				"z": -0.0436372624,
				"element": "C" 
			},
			{
				"x": 1.7351086305,
				"y": -2.0655030665,
				"z": -0.1997599973,
				"element": "O" 
			},
			{
				"x": 2.0720958261,
				"y": -2.4109808214,
				"z": -1.5472139626,
				"element": "C" 
			},
			{
				"x": 1.9069902197,
				"y": 0.3343907887,
				"z": 0.0924091193,
				"element": "C" 
			},
			{
				"x": 3.6576384737,
				"y": 0.2720519246,
				"z": 0.0041625039,
				"element": "Cl" 
			},
			{
				"x": 1.2804010394,
				"y": 1.5662064503,
				"z": 0.2943522246,
				"element": "C" 
			},
			{
				"x": -0.1080385132,
				"y": 1.6490066839,
				"z": 0.4127975641,
				"element": "C" 
			},
			{
				"x": -0.7989963691,
				"y": 2.8543725481,
				"z": 0.6157239003,
				"element": "N" 
			},
			{
				"x": -0.4786555946,
				"y": 3.9918579671,
				"z": 1.3424971571,
				"element": "C" 
			},
			{
				"x": -1.1853612635,
				"y": 4.9880804527,
				"z": 1.2402453373,
				"element": "O" 
			},
			{
				"x": 0.6893721783,
				"y": 3.9258427306,
				"z": 2.2681849658,
				"element": "C" 
			},
			{
				"x": 1.1629152656,
				"y": 5.0431057096,
				"z": 2.8248627465,
				"element": "C" 
			},
			{
				"x": -2.8761010412,
				"y": -1.2450083642,
				"z": 0.9449220019,
				"element": "H" 
			},
			{
				"x": -2.9336701307,
				"y": -0.9457990034,
				"z": -0.8181858472,
				"element": "H" 
			},
			{
				"x": -4.0886923173,
				"y": -0.1247743669,
				"z": 0.2679485208,
				"element": "H" 
			},
			{
				"x": -0.8054623467,
				"y": -1.6703830146,
				"z": -0.0753188753,
				"element": "H" 
			},
			{
				"x": 2.8046048442,
				"y": -1.7139475032,
				"z": -1.9685505219,
				"element": "H" 
			},
			{
				"x": 2.5069788919,
				"y": -3.4112398457,
				"z": -1.5062399059,
				"element": "H" 
			},
			{
				"x": 1.1783381906,
				"y": -2.4277324965,
				"z": -2.1842301664,
				"element": "H" 
			},
			{
				"x": 1.8823402336,
				"y": 2.4646002738,
				"z": 0.3483303314,
				"element": "H" 
			},
			{
				"x": -1.720110151,
				"y": 2.9095479276,
				"z": 0.1980489896,
				"element": "H" 
			},
			{
				"x": 1.1178324266,
				"y": 2.9566795219,
				"z": 2.5019667405,
				"element": "H" 
			},
			{
				"x": 0.7166676478,
				"y": 6.0029497956,
				"z": 2.5831357244,
				"element": "H" 
			},
			{
				"x": 1.9900333863,
				"y": 5.0239254173,
				"z": 3.52717506,
				"element": "H" 
			}
		],
		 "valence_orbital": [ 
			{
				"type": "occ",
				"energy": -0.28318,
				"method": "rhf"
			},
			{
				"type": "occ",
				"energy": -0.27483,
				"method": "rhf"
			},
			{
				"type": "occ",
				"energy": -0.25299,
				"method": "rhf"
			},
			{
				"type": "occ",
				"energy": -0.24761,
				"method": "rhf"
			},
			{
				"type": "occ",
				"energy": -0.21419,
				"method": "rhf"
			},
			{
				"type": "unocc",
				"energy": -0.04247,
				"method": "rhf"
			},
			{
				"type": "unocc",
				"energy": -0.01549,
				"method": "rhf"
			},
			{
				"type": "unocc",
				"energy": -0.00343,
				"method": "rhf"
			},
			{
				"type": "unocc",
				"energy": 0.02714,
				"method": "rhf"
			},
			{
				"type": "unocc",
				"energy": 0.08452,
				"method": "rhf"
			}
		],
		"cosmo_sigma_profile": { 
			"-0.025": 0.0,
			"-0.024": 0.0,
			"-0.023": 0.0,
			"-0.022": 0.0,
			"-0.021": 0.0,
			"-0.02": 0.0,
			"-0.019": 0.0,
			"-0.018": 0.0,
			"-0.017": 0.0,
			"-0.016": 0.0,
			"-0.015": 0.0,
			"-0.014": 0.0,
			"-0.013": 0.0278687293811,
			"-0.012": 0.328556883022,
			"-0.011": 0.570901900112,
			"-0.01": 0.950234661281,
			"-0.009": 0.288087373706,
			"-0.008": 1.61453537466,
			"-0.007": 6.63238992746,
			"-0.006": 17.1437773315,
			"-0.005": 22.1330310811,
			"-0.004": 25.0842602747,
			"-0.003": 27.8717133328,
			"-0.002": 20.0023064908,
			"-0.001": 17.3333096658,
			"0.0": 18.1823065391,
			"0.001": 20.9591050351,
			"0.002": 26.1099673283,
			"0.003": 17.876574775,
			"0.004": 12.9157763694,
			"0.005": 9.41085390936,
			"0.006": 3.8333710057,
			"0.007": 3.9278019471,
			"0.008": 3.82821751278,
			"0.009": 3.0659112727,
			"0.01": 2.84891833787,
			"0.011": 2.9102912367,
			"0.012": 3.06546484368,
			"0.013": 5.06636829339,
			"0.014": 2.60803602557,
			"0.015": 0.0187485179118,
			"0.016": 0.0,
			"0.017": 0.0,
			"0.018": 0.0,
			"0.019": 0.0,
			"0.02": 0.0,
			"0.021": 0.0,
			"0.022": 0.0,
			"0.023": 0.0,
			"0.024": 0.0,
			"0.025": 0.0
		}
	}
}
