{
	 "smiles": "CC(C)C1=CC(=NN1C1=CC=NC=C1)C(O)=O", 
	 "Tm": 499.15, 
	 "num_atms": 30, 
	 "gaussian": { 
		 "optdone": 1, 
		 "sigma_profile": "yes", 
		 "theory": "DFT", 
		 "functional": "B3LYP", 
		 "basiset": "6-31G**", 
		 "properties": { 
			 "R2extent": 5618.2335, 
			 "electric_dipole_moment_norm": 4.5937098537, 
			 "electric_quadrupole_moment_norm": 11.044170341, 
			 "total_energy": -779.809698671, 
			 "HOMO_LUMO_gap": 0.20203, 
			 "cosmo_polarized_energy": -17.16, 
			 "cosmo_cavitation_energy": 34.34, 
			 "cosmo_dispersion_energy": -24.08, 
			 "cosmo_repulsion_energy": 1.89, 
			 "cosmo_total_nonelectrostatic_energy": 12.14, 
			 "SMD_solvation_energy": 5.1 
		},
		"coords": [
			{
				"x": 0.4249876886,
				"y": 2.1884231407,
				"z": -0.6816883358,
				"element": "C" 
			},
			{
				"x": 0.2598877362,
				"y": 0.7175375004,
				"z": -1.1093441286,
				"element": "C" 
			},
			{
				"x": 1.6184377828,
				"y": 0.1153557402,
				"z": -1.5239970025,
				"element": "C" 
			},
			{
				"x": -0.3901611751,
				"y": -0.0899773253,
				"z": -0.011189252,
				"element": "C" 
			},
			{
				"x": -0.098745551,
				"y": -0.1241371587,
				"z": 1.3372270475,
				"element": "C" 
			},
			{
				"x": -1.0605275024,
				"y": -0.9877763192,
				"z": 1.9125018938,
				"element": "C" 
			},
			{
				"x": -1.9023521278,
				"y": -1.4667599931,
				"z": 0.9980768221,
				"element": "N" 
			},
			{
				"x": -1.4828953046,
				"y": -0.9298132263,
				"z": -0.1696471844,
				"element": "N" 
			},
			{
				"x": -2.2273073566,
				"y": -1.2489085593,
				"z": -1.3390405437,
				"element": "C" 
			},
			{
				"x": -1.6100620979,
				"y": -1.502964584,
				"z": -2.5658465613,
				"element": "C" 
			},
			{
				"x": -2.4227601449,
				"y": -1.8105489118,
				"z": -3.6585938046,
				"element": "C" 
			},
			{
				"x": -3.755685162,
				"y": -1.8960668616,
				"z": -3.602881735,
				"element": "N" 
			},
			{
				"x": -4.3250157604,
				"y": -1.6747040442,
				"z": -2.4095857039,
				"element": "C" 
			},
			{
				"x": -3.6189206271,
				"y": -1.3472123837,
				"z": -1.2546643429,
				"element": "C" 
			},
			{
				"x": -1.2152477812,
				"y": -1.3796875734,
				"z": 3.3299628805,
				"element": "C" 
			},
			{
				"x": -0.2515756091,
				"y": -0.8064756789,
				"z": 4.1002506167,
				"element": "O" 
			},
			{
				"x": -2.0707003216,
				"y": -2.106869856,
				"z": 3.783238745,
				"element": "O" 
			},
			{
				"x": 0.8516311889,
				"y": 2.7742823229,
				"z": -1.5021987708,
				"element": "H" 
			},
			{
				"x": -0.5352930282,
				"y": 2.6331043713,
				"z": -0.4057634033,
				"element": "H" 
			},
			{
				"x": 1.0982249818,
				"y": 2.2791282982,
				"z": 0.176912191,
				"element": "H" 
			},
			{
				"x": -0.402642837,
				"y": 0.7029836927,
				"z": -1.9809303949,
				"element": "H" 
			},
			{
				"x": 1.524933699,
				"y": -0.9265969156,
				"z": -1.8460898248,
				"element": "H" 
			},
			{
				"x": 2.3209551223,
				"y": 0.1360456483,
				"z": -0.6844413177,
				"element": "H" 
			},
			{
				"x": 2.0566169544,
				"y": 0.6888467166,
				"z": -2.3473561409,
				"element": "H" 
			},
			{
				"x": 0.6841207102,
				"y": 0.4106420169,
				"z": 1.8517027712,
				"element": "H" 
			},
			{
				"x": -0.5323930414,
				"y": -1.4961615811,
				"z": -2.6713352412,
				"element": "H" 
			},
			{
				"x": -1.9672191203,
				"y": -2.0096490983,
				"z": -4.6268732083,
				"element": "H" 
			},
			{
				"x": -5.4093344013,
				"y": -1.7579227159,
				"z": -2.3728517648,
				"element": "H" 
			},
			{
				"x": -4.1200820884,
				"y": -1.1814431317,
				"z": -0.3091028203,
				"element": "H" 
			},
			{
				"x": -0.4261748261,
				"y": -1.1103735301,
				"z": 5.0061485141,
				"element": "H" 
			}
		],
		 "valence_orbital": [ 
			{
				"type": "occ",
				"energy": -0.27414,
				"method": "rhf"
			},
			{
				"type": "occ",
				"energy": -0.27343,
				"method": "rhf"
			},
			{
				"type": "occ",
				"energy": -0.26532,
				"method": "rhf"
			},
			{
				"type": "occ",
				"energy": -0.25754,
				"method": "rhf"
			},
			{
				"type": "occ",
				"energy": -0.25448,
				"method": "rhf"
			},
			{
				"type": "unocc",
				"energy": -0.05245,
				"method": "rhf"
			},
			{
				"type": "unocc",
				"energy": -0.02357,
				"method": "rhf"
			},
			{
				"type": "unocc",
				"energy": -0.01919,
				"method": "rhf"
			},
			{
				"type": "unocc",
				"energy": 0.022,
				"method": "rhf"
			},
			{
				"type": "unocc",
				"energy": 0.06952,
				"method": "rhf"
			}
		],
		"cosmo_sigma_profile": { 
			"-0.025": 0.0,
			"-0.024": 0.0,
			"-0.023": 0.0,
			"-0.022": 0.0,
			"-0.021": 0.0,
			"-0.02": 0.0,
			"-0.019": 0.122848662148,
			"-0.018": 0.871353802851,
			"-0.017": 1.09803717138,
			"-0.016": 0.471720508555,
			"-0.015": 0.634750684034,
			"-0.014": 0.628068868135,
			"-0.013": 0.793535728122,
			"-0.012": 0.799545717786,
			"-0.011": 0.946668343067,
			"-0.01": 0.726314943064,
			"-0.009": 0.416023111687,
			"-0.008": 2.39885782398,
			"-0.007": 10.321604033,
			"-0.006": 12.5791695934,
			"-0.005": 11.9081007649,
			"-0.004": 19.0128520064,
			"-0.003": 26.8441227573,
			"-0.002": 24.2369657704,
			"-0.001": 22.643756939,
			"0.0": 28.821291429,
			"0.001": 29.2696927884,
			"0.002": 15.5667533995,
			"0.003": 8.68722170458,
			"0.004": 6.19279946422,
			"0.005": 5.47334521188,
			"0.006": 4.58864970632,
			"0.007": 5.64279213034,
			"0.008": 4.49199230393,
			"0.009": 3.29493191207,
			"0.01": 3.79911758334,
			"0.011": 6.50755333234,
			"0.012": 5.68552508254,
			"0.013": 2.9957676648,
			"0.014": 2.96132213651,
			"0.015": 1.06809878991,
			"0.016": 0.647277738186,
			"0.017": 0.102105075772,
			"0.018": 0.0,
			"0.019": 0.0,
			"0.02": 0.0,
			"0.021": 0.0,
			"0.022": 0.0,
			"0.023": 0.0,
			"0.024": 0.0,
			"0.025": 0.0
		}
	}
}
