{
	 "smiles": "NC1=CC(NC(=O)C2=CC=CS2)=CC=C1", 
	 "Tm": 408.15, 
	 "num_atms": 25, 
	 "gaussian": { 
		 "optdone": 1, 
		 "sigma_profile": "yes", 
		 "theory": "DFT", 
		 "functional": "B3LYP", 
		 "basiset": "6-31G**", 
		 "properties": { 
			 "R2extent": 4701.5212, 
			 "electric_dipole_moment_norm": 5.08992516743, 
			 "electric_quadrupole_moment_norm": 18.263803833, 
			 "total_energy": -1008.1107603, 
			 "HOMO_LUMO_gap": 0.16197, 
			 "cosmo_polarized_energy": -16.25, 
			 "cosmo_cavitation_energy": 31.05, 
			 "cosmo_dispersion_energy": -22.54, 
			 "cosmo_repulsion_energy": 1.74, 
			 "cosmo_total_nonelectrostatic_energy": 10.24, 
			 "SMD_solvation_energy": 5.78 
		},
		"coords": [
			{
				"x": -1.9082628918,
				"y": 0.8928777715,
				"z": -2.6696611501,
				"element": "N" 
			},
			{
				"x": -0.8957066781,
				"y": 1.4679735846,
				"z": -1.9038687248,
				"element": "C" 
			},
			{
				"x": 0.3766206334,
				"y": 0.8762527495,
				"z": -1.854517639,
				"element": "C" 
			},
			{
				"x": 1.407477939,
				"y": 1.4713667658,
				"z": -1.1218095274,
				"element": "C" 
			},
			{
				"x": 2.7083145269,
				"y": 0.8972565293,
				"z": -1.0842250613,
				"element": "N" 
			},
			{
				"x": 3.1179817783,
				"y": -0.4215540711,
				"z": -1.0123401849,
				"element": "C" 
			},
			{
				"x": 4.2397572184,
				"y": -0.7378484266,
				"z": -1.4025329359,
				"element": "O" 
			},
			{
				"x": 2.2256245626,
				"y": -1.4264784374,
				"z": -0.3887392973,
				"element": "C" 
			},
			{
				"x": 1.155936613,
				"y": -1.3085052649,
				"z": 0.4716080334,
				"element": "C" 
			},
			{
				"x": 0.6625587232,
				"y": -2.5647494576,
				"z": 0.9194721817,
				"element": "C" 
			},
			{
				"x": 1.3648437913,
				"y": -3.6206045278,
				"z": 0.3950164695,
				"element": "C" 
			},
			{
				"x": 2.6509503381,
				"y": -3.1026569589,
				"z": -0.6322849609,
				"element": "S" 
			},
			{
				"x": 1.1930519224,
				"y": 2.6852862299,
				"z": -0.456480056,
				"element": "C" 
			},
			{
				"x": -0.0645591055,
				"y": 3.2848693282,
				"z": -0.530280371,
				"element": "C" 
			},
			{
				"x": -1.105961985,
				"y": 2.687304758,
				"z": -1.2340523351,
				"element": "C" 
			},
			{
				"x": -2.8489003798,
				"y": 1.1653237911,
				"z": -2.4218922064,
				"element": "H" 
			},
			{
				"x": -1.8258609283,
				"y": -0.1017875996,
				"z": -2.8264639239,
				"element": "H" 
			},
			{
				"x": 0.564781607,
				"y": -0.0452221503,
				"z": -2.3961290861,
				"element": "H" 
			},
			{
				"x": 3.4716605281,
				"y": 1.4964821501,
				"z": -1.3751773741,
				"element": "H" 
			},
			{
				"x": 0.7439523565,
				"y": -0.3557592886,
				"z": 0.7784664474,
				"element": "H" 
			},
			{
				"x": -0.1726497563,
				"y": -2.6778077277,
				"z": 1.6013332467,
				"element": "H" 
			},
			{
				"x": 1.1985960188,
				"y": -4.6762405419,
				"z": 0.562900292,
				"element": "H" 
			},
			{
				"x": 1.9975490098,
				"y": 3.1372541597,
				"z": 0.1145355349,
				"element": "H" 
			},
			{
				"x": -0.2396868315,
				"y": 4.2267650292,
				"z": -0.0182119857,
				"element": "H" 
			},
			{
				"x": -2.0820690104,
				"y": 3.1632016056,
				"z": -1.2781653855,
				"element": "H" 
			}
		],
		 "valence_orbital": [ 
			{
				"type": "occ",
				"energy": -0.25909,
				"method": "rhf"
			},
			{
				"type": "occ",
				"energy": -0.25538,
				"method": "rhf"
			},
			{
				"type": "occ",
				"energy": -0.23982,
				"method": "rhf"
			},
			{
				"type": "occ",
				"energy": -0.22795,
				"method": "rhf"
			},
			{
				"type": "occ",
				"energy": -0.20886,
				"method": "rhf"
			},
			{
				"type": "unocc",
				"energy": -0.04689,
				"method": "rhf"
			},
			{
				"type": "unocc",
				"energy": -0.00477,
				"method": "rhf"
			},
			{
				"type": "unocc",
				"energy": 0.00829,
				"method": "rhf"
			},
			{
				"type": "unocc",
				"energy": 0.03504,
				"method": "rhf"
			},
			{
				"type": "unocc",
				"energy": 0.04094,
				"method": "rhf"
			}
		],
		"cosmo_sigma_profile": { 
			"-0.025": 0.0,
			"-0.024": 0.0,
			"-0.023": 0.0,
			"-0.022": 0.0,
			"-0.021": 0.0,
			"-0.02": 0.0,
			"-0.019": 0.0,
			"-0.018": 0.0,
			"-0.017": 0.0,
			"-0.016": 0.0,
			"-0.015": 0.00139414888906,
			"-0.014": 0.520212348248,
			"-0.013": 1.77988058532,
			"-0.012": 3.16424228966,
			"-0.011": 3.26612592377,
			"-0.01": 3.9149453482,
			"-0.009": 5.74705814856,
			"-0.008": 6.67047454344,
			"-0.007": 7.38717878694,
			"-0.006": 11.4480905519,
			"-0.005": 15.1606152766,
			"-0.004": 15.9947375851,
			"-0.003": 13.5772953773,
			"-0.002": 12.2507666049,
			"-0.001": 11.3329659918,
			"0.0": 13.9379867192,
			"0.001": 16.7932321036,
			"0.002": 19.7561619201,
			"0.003": 24.9373638308,
			"0.004": 17.0695158516,
			"0.005": 10.536417302,
			"0.006": 9.38073521522,
			"0.007": 3.40390708109,
			"0.008": 2.90801381665,
			"0.009": 2.26942547375,
			"0.01": 2.55767167293,
			"0.011": 2.22551590273,
			"0.012": 3.36692645698,
			"0.013": 6.29572589572,
			"0.014": 2.31882086533,
			"0.015": 0.0646242875135,
			"0.016": 0.0,
			"0.017": 0.0,
			"0.018": 0.0,
			"0.019": 0.0,
			"0.02": 0.0,
			"0.021": 0.0,
			"0.022": 0.0,
			"0.023": 0.0,
			"0.024": 0.0,
			"0.025": 0.0
		}
	}
}
