{
	 "smiles": "CC1=NC(=NC=C1CO)C1=CC=CC=C1", 
	 "Tm": 358.65, 
	 "num_atms": 27, 
	 "gaussian": { 
		 "optdone": 1, 
		 "sigma_profile": "yes", 
		 "theory": "DFT", 
		 "functional": "B3LYP", 
		 "basiset": "6-31G**", 
		 "properties": { 
			 "R2extent": 4637.8571, 
			 "electric_dipole_moment_norm": 0.931219474667, 
			 "electric_quadrupole_moment_norm": 7.83821203209, 
			 "total_energy": -649.24036263, 
			 "HOMO_LUMO_gap": 0.18029, 
			 "cosmo_polarized_energy": -11.33, 
			 "cosmo_cavitation_energy": 30.79, 
			 "cosmo_dispersion_energy": -22.6, 
			 "cosmo_repulsion_energy": 1.76, 
			 "cosmo_total_nonelectrostatic_energy": 9.95, 
			 "SMD_solvation_energy": 3.3 
		},
		"coords": [
			{
				"x": -2.8885912299,
				"y": 1.6182716459,
				"z": -1.0117684699,
				"element": "C" 
			},
			{
				"x": -2.3596699663,
				"y": 0.7412466704,
				"z": 0.0919142173,
				"element": "C" 
			},
			{
				"x": -1.2421079071,
				"y": 0.0533203216,
				"z": -0.1593671156,
				"element": "N" 
			},
			{
				"x": -0.7525808357,
				"y": -0.7505858427,
				"z": 0.8039635945,
				"element": "C" 
			},
			{
				"x": -1.3040894629,
				"y": -0.9181552335,
				"z": 2.0177559171,
				"element": "N" 
			},
			{
				"x": -2.4179111744,
				"y": -0.2249091306,
				"z": 2.2593996113,
				"element": "C" 
			},
			{
				"x": -3.0151525587,
				"y": 0.6340259477,
				"z": 1.3381971681,
				"element": "C" 
			},
			{
				"x": -4.2652970542,
				"y": 1.4071019911,
				"z": 1.6822795192,
				"element": "C" 
			},
			{
				"x": -4.0730513349,
				"y": 2.8214836281,
				"z": 1.6980885857,
				"element": "O" 
			},
			{
				"x": 0.4891617205,
				"y": -1.5052651032,
				"z": 0.5007744946,
				"element": "C" 
			},
			{
				"x": 1.0487641103,
				"y": -2.3650792852,
				"z": 1.4596137345,
				"element": "C" 
			},
			{
				"x": 2.2138798778,
				"y": -3.0732059132,
				"z": 1.1744936501,
				"element": "C" 
			},
			{
				"x": 2.8353136173,
				"y": -2.9331978197,
				"z": -0.0691408785,
				"element": "C" 
			},
			{
				"x": 2.2838600081,
				"y": -2.0794344474,
				"z": -1.0277727217,
				"element": "C" 
			},
			{
				"x": 1.1187703659,
				"y": -1.3693075127,
				"z": -0.7467962308,
				"element": "C" 
			},
			{
				"x": -2.1347499244,
				"y": 1.7198608786,
				"z": -1.7934865007,
				"element": "H" 
			},
			{
				"x": -3.7864207355,
				"y": 1.1702013963,
				"z": -1.4570146731,
				"element": "H" 
			},
			{
				"x": -3.1754929815,
				"y": 2.5989822745,
				"z": -0.6249045174,
				"element": "H" 
			},
			{
				"x": -2.8654829409,
				"y": -0.3609426986,
				"z": 3.2453735553,
				"element": "H" 
			},
			{
				"x": -4.6571549149,
				"y": 1.0486903469,
				"z": 2.6466676853,
				"element": "H" 
			},
			{
				"x": -5.0468226713,
				"y": 1.2350019539,
				"z": 0.9346577586,
				"element": "H" 
			},
			{
				"x": -3.3524064236,
				"y": 3.0101071599,
				"z": 2.3139763945,
				"element": "H" 
			},
			{
				"x": 0.5565976189,
				"y": -2.4647735825,
				"z": 2.4203095038,
				"element": "H" 
			},
			{
				"x": 2.6385351128,
				"y": -3.7359262469,
				"z": 1.9232572136,
				"element": "H" 
			},
			{
				"x": 3.7440517179,
				"y": -3.4863043901,
				"z": -0.2898583672,
				"element": "H" 
			},
			{
				"x": 2.7631271871,
				"y": -1.9669833507,
				"z": -1.9961934122,
				"element": "H" 
			},
			{
				"x": 0.6803207795,
				"y": -0.7035236579,
				"z": -1.4812197163,
				"element": "H" 
			}
		],
		 "valence_orbital": [ 
			{
				"type": "occ",
				"energy": -0.29001,
				"method": "rhf"
			},
			{
				"type": "occ",
				"energy": -0.27804,
				"method": "rhf"
			},
			{
				"type": "occ",
				"energy": -0.24653,
				"method": "rhf"
			},
			{
				"type": "occ",
				"energy": -0.24471,
				"method": "rhf"
			},
			{
				"type": "occ",
				"energy": -0.23214,
				"method": "rhf"
			},
			{
				"type": "unocc",
				"energy": -0.05185,
				"method": "rhf"
			},
			{
				"type": "unocc",
				"energy": -0.03517,
				"method": "rhf"
			},
			{
				"type": "unocc",
				"energy": 0.00617,
				"method": "rhf"
			},
			{
				"type": "unocc",
				"energy": 0.02594,
				"method": "rhf"
			},
			{
				"type": "unocc",
				"energy": 0.07769,
				"method": "rhf"
			}
		],
		"cosmo_sigma_profile": { 
			"-0.025": 0.0,
			"-0.024": 0.0,
			"-0.023": 0.0,
			"-0.022": 0.0,
			"-0.021": 0.0,
			"-0.02": 0.0,
			"-0.019": 0.0,
			"-0.018": 0.0,
			"-0.017": 0.0,
			"-0.016": 0.446124756158,
			"-0.015": 0.989872590845,
			"-0.014": 1.20696636846,
			"-0.013": 0.655941218653,
			"-0.012": 0.503186531444,
			"-0.011": 1.29226991965,
			"-0.01": 0.890964130008,
			"-0.009": 1.01413792729,
			"-0.008": 0.896008828778,
			"-0.007": 4.85127394482,
			"-0.006": 10.9409619434,
			"-0.005": 17.8425897508,
			"-0.004": 19.3570041568,
			"-0.003": 19.1558198607,
			"-0.002": 17.6228116675,
			"-0.001": 22.4971374,
			"0.0": 19.4929283532,
			"0.001": 15.4611774335,
			"0.002": 14.1027975593,
			"0.003": 16.1734992126,
			"0.004": 16.6555034672,
			"0.005": 15.5088476186,
			"0.006": 6.80485094453,
			"0.007": 4.22283108488,
			"0.008": 3.89923171639,
			"0.009": 3.56499808683,
			"0.01": 3.1207054824,
			"0.011": 2.28223011956,
			"0.012": 1.47036822258,
			"0.013": 1.25555795559,
			"0.014": 1.22856343402,
			"0.015": 0.00107258854495,
			"0.016": 0.0,
			"0.017": 0.0,
			"0.018": 0.0,
			"0.019": 0.0,
			"0.02": 0.0,
			"0.021": 0.0,
			"0.022": 0.0,
			"0.023": 0.0,
			"0.024": 0.0,
			"0.025": 0.0
		}
	}
}
