{
	 "smiles": "NC1=NC(=CS1)C1=CC=C(F)C=C1", 
	 "Tm": 385.15, 
	 "num_atms": 20, 
	 "gaussian": { 
		 "optdone": 1, 
		 "sigma_profile": "yes", 
		 "theory": "DFT", 
		 "functional": "B3LYP", 
		 "basiset": "6-31G**", 
		 "properties": { 
			 "R2extent": 4851.2157, 
			 "electric_dipole_moment_norm": 3.05660143624, 
			 "electric_quadrupole_moment_norm": 12.1413825238, 
			 "total_energy": -954.701877211, 
			 "HOMO_LUMO_gap": 0.17201, 
			 "cosmo_polarized_energy": -11.09, 
			 "cosmo_cavitation_energy": 26.7, 
			 "cosmo_dispersion_energy": -20.39, 
			 "cosmo_repulsion_energy": 1.53, 
			 "cosmo_total_nonelectrostatic_energy": 7.84, 
			 "SMD_solvation_energy": 3.71 
		},
		"coords": [
			{
				"x": 2.1804898731,
				"y": 3.0211910844,
				"z": 1.6900201312,
				"element": "N" 
			},
			{
				"x": 0.8415958365,
				"y": 2.7128755827,
				"z": 1.6048483779,
				"element": "C" 
			},
			{
				"x": 0.3771159802,
				"y": 1.5028448713,
				"z": 1.5274509931,
				"element": "N" 
			},
			{
				"x": -1.003860644,
				"y": 1.4962151384,
				"z": 1.3724631031,
				"element": "C" 
			},
			{
				"x": -1.5875805796,
				"y": 2.7339615042,
				"z": 1.3425517778,
				"element": "C" 
			},
			{
				"x": -0.3820438054,
				"y": 3.9864721992,
				"z": 1.4920206155,
				"element": "S" 
			},
			{
				"x": -1.6951114024,
				"y": 0.1967280265,
				"z": 1.2681096647,
				"element": "C" 
			},
			{
				"x": -3.0901628832,
				"y": 0.1041226296,
				"z": 1.120897987,
				"element": "C" 
			},
			{
				"x": -3.7244030473,
				"y": -1.1308412893,
				"z": 1.0238548498,
				"element": "C" 
			},
			{
				"x": -2.9520873389,
				"y": -2.2870307687,
				"z": 1.0747418573,
				"element": "C" 
			},
			{
				"x": -3.5631211551,
				"y": -3.487456491,
				"z": 0.9810810386,
				"element": "F" 
			},
			{
				"x": -1.5711860767,
				"y": -2.2370046777,
				"z": 1.2189999744,
				"element": "C" 
			},
			{
				"x": -0.9498615088,
				"y": -0.9937441423,
				"z": 1.3150637793,
				"element": "C" 
			},
			{
				"x": 2.423826721,
				"y": 3.8683940453,
				"z": 2.1830275079,
				"element": "H" 
			},
			{
				"x": 2.7525400951,
				"y": 2.2242717499,
				"z": 1.9376311322,
				"element": "H" 
			},
			{
				"x": -2.6297830095,
				"y": 2.9980676963,
				"z": 1.2490170443,
				"element": "H" 
			},
			{
				"x": -3.6955188586,
				"y": 1.0041656947,
				"z": 1.0801082948,
				"element": "H" 
			},
			{
				"x": -4.8001848763,
				"y": -1.2093594485,
				"z": 0.910005149,
				"element": "H" 
			},
			{
				"x": -1.0020196598,
				"y": -3.1598219759,
				"z": 1.2540346145,
				"element": "H" 
			},
			{
				"x": 0.1258563397,
				"y": -0.9273514293,
				"z": 1.4276721075,
				"element": "H" 
			}
		],
		 "valence_orbital": [ 
			{
				"type": "occ",
				"energy": -0.28425,
				"method": "rhf"
			},
			{
				"type": "occ",
				"energy": -0.27558,
				"method": "rhf"
			},
			{
				"type": "occ",
				"energy": -0.25639,
				"method": "rhf"
			},
			{
				"type": "occ",
				"energy": -0.24548,
				"method": "rhf"
			},
			{
				"type": "occ",
				"energy": -0.20088,
				"method": "rhf"
			},
			{
				"type": "unocc",
				"energy": -0.02887,
				"method": "rhf"
			},
			{
				"type": "unocc",
				"energy": -0.00533,
				"method": "rhf"
			},
			{
				"type": "unocc",
				"energy": 0.00719,
				"method": "rhf"
			},
			{
				"type": "unocc",
				"energy": 0.01661,
				"method": "rhf"
			},
			{
				"type": "unocc",
				"energy": 0.06739,
				"method": "rhf"
			}
		],
		"cosmo_sigma_profile": { 
			"-0.025": 0.0,
			"-0.024": 0.0,
			"-0.023": 0.0,
			"-0.022": 0.0,
			"-0.021": 0.0,
			"-0.02": 0.0,
			"-0.019": 0.0,
			"-0.018": 0.0,
			"-0.017": 0.0,
			"-0.016": 0.0,
			"-0.015": 0.428344561091,
			"-0.014": 1.85046994934,
			"-0.013": 2.8356501712,
			"-0.012": 2.64285501135,
			"-0.011": 2.65659267854,
			"-0.01": 2.4960106193,
			"-0.009": 3.25785737904,
			"-0.008": 4.94604162693,
			"-0.007": 7.57354414289,
			"-0.006": 7.64975635164,
			"-0.005": 9.44248768566,
			"-0.004": 8.85151275381,
			"-0.003": 8.44693349608,
			"-0.002": 8.46031367744,
			"-0.001": 8.6103935065,
			"0.0": 12.659633858,
			"0.001": 17.9482497052,
			"0.002": 18.9569128782,
			"0.003": 26.4227792534,
			"0.004": 33.8219970125,
			"0.005": 12.373517872,
			"0.006": 3.41069796116,
			"0.007": 2.94763707132,
			"0.008": 1.69176790356,
			"0.009": 2.08880858503,
			"0.01": 2.47177785327,
			"0.011": 1.68094353156,
			"0.012": 0.30998047702,
			"0.013": 0.0,
			"0.014": 0.0,
			"0.015": 0.0,
			"0.016": 0.0,
			"0.017": 0.0,
			"0.018": 0.0,
			"0.019": 0.0,
			"0.02": 0.0,
			"0.021": 0.0,
			"0.022": 0.0,
			"0.023": 0.0,
			"0.024": 0.0,
			"0.025": 0.0
		}
	}
}
