{
	 "smiles": "OC1=CC=C(C=C1)C1=CC=C(O)C(=C1)[N+]([O-])=O", 
	 "Tm": 455.15, 
	 "num_atms": 26, 
	 "gaussian": { 
		 "optdone": 1, 
		 "sigma_profile": "yes", 
		 "theory": "DFT", 
		 "functional": "B3LYP", 
		 "basiset": "6-31G**", 
		 "properties": { 
			 "R2extent": 5377.2647, 
			 "electric_dipole_moment_norm": 5.13902065767, 
			 "electric_quadrupole_moment_norm": 33.5080660579, 
			 "total_energy": -818.237555138, 
			 "HOMO_LUMO_gap": 0.13755, 
			 "cosmo_polarized_energy": -21.17, 
			 "cosmo_cavitation_energy": 31.58, 
			 "cosmo_dispersion_energy": -23.2, 
			 "cosmo_repulsion_energy": 1.78, 
			 "cosmo_total_nonelectrostatic_energy": 10.15, 
			 "SMD_solvation_energy": 8.15 
		},
		"coords": [
			{
				"x": 5.0194507533,
				"y": 0.8020354564,
				"z": 2.8964481336,
				"element": "O" 
			},
			{
				"x": 3.80608961,
				"y": 0.5481753587,
				"z": 2.3267303431,
				"element": "C" 
			},
			{
				"x": 2.7312801567,
				"y": 1.3610696201,
				"z": 2.7049038657,
				"element": "C" 
			},
			{
				"x": 1.4737549581,
				"y": 1.145679463,
				"z": 2.1536533219,
				"element": "C" 
			},
			{
				"x": 1.2450444681,
				"y": 0.1204926476,
				"z": 1.2177730006,
				"element": "C" 
			},
			{
				"x": 2.3365324184,
				"y": -0.6837400535,
				"z": 0.8538887666,
				"element": "C" 
			},
			{
				"x": 3.6024673314,
				"y": -0.4763377038,
				"z": 1.3961376251,
				"element": "C" 
			},
			{
				"x": -0.1005411848,
				"y": -0.1023553321,
				"z": 0.6362810985,
				"element": "C" 
			},
			{
				"x": -1.2719877983,
				"y": 0.0837691517,
				"z": 1.3945854303,
				"element": "C" 
			},
			{
				"x": -2.5293296961,
				"y": -0.122751148,
				"z": 0.8463466913,
				"element": "C" 
			},
			{
				"x": -2.6943591189,
				"y": -0.5405017703,
				"z": -0.4840692284,
				"element": "C" 
			},
			{
				"x": -3.9235592454,
				"y": -0.7320040402,
				"z": -1.01133624,
				"element": "O" 
			},
			{
				"x": -1.5227423889,
				"y": -0.7340532532,
				"z": -1.2462035294,
				"element": "C" 
			},
			{
				"x": -0.2615138763,
				"y": -0.5072484685,
				"z": -0.690814535,
				"element": "C" 
			},
			{
				"x": -1.5628679986,
				"y": -1.1676308107,
				"z": -2.649313897,
				"element": "N" 
			},
			{
				"x": -0.5084570087,
				"y": -1.1095803475,
				"z": -3.2886902401,
				"element": "O" 
			},
			{
				"x": -2.6283461799,
				"y": -1.5727174585,
				"z": -3.1056740226,
				"element": "O" 
			},
			{
				"x": 5.6728598618,
				"y": 0.1840328791,
				"z": 2.5436905031,
				"element": "H" 
			},
			{
				"x": 2.9036385334,
				"y": 2.1601111249,
				"z": 3.4182546122,
				"element": "H" 
			},
			{
				"x": 0.6584387725,
				"y": 1.8054689634,
				"z": 2.4359600136,
				"element": "H" 
			},
			{
				"x": 2.1926916941,
				"y": -1.5006055844,
				"z": 0.1530339885,
				"element": "H" 
			},
			{
				"x": 4.4299657348,
				"y": -1.1193544211,
				"z": 1.1035931068,
				"element": "H" 
			},
			{
				"x": -1.1958160867,
				"y": 0.3753859017,
				"z": 2.4374947587,
				"element": "H" 
			},
			{
				"x": -3.4162845592,
				"y": 0.0257592265,
				"z": 1.458789568,
				"element": "H" 
			},
			{
				"x": -4.5827733203,
				"y": -0.5073661392,
				"z": -0.3398272485,
				"element": "H" 
			},
			{
				"x": 0.5923641695,
				"y": -0.6382332625,
				"z": -1.3430358863,
				"element": "H" 
			}
		],
		 "valence_orbital": [ 
			{
				"type": "occ",
				"energy": -0.2825,
				"method": "rhf"
			},
			{
				"type": "occ",
				"energy": -0.27355,
				"method": "rhf"
			},
			{
				"type": "occ",
				"energy": -0.26282,
				"method": "rhf"
			},
			{
				"type": "occ",
				"energy": -0.26094,
				"method": "rhf"
			},
			{
				"type": "occ",
				"energy": -0.21538,
				"method": "rhf"
			},
			{
				"type": "unocc",
				"energy": -0.07783,
				"method": "rhf"
			},
			{
				"type": "unocc",
				"energy": -0.03079,
				"method": "rhf"
			},
			{
				"type": "unocc",
				"energy": -0.01366,
				"method": "rhf"
			},
			{
				"type": "unocc",
				"energy": -0.00362,
				"method": "rhf"
			},
			{
				"type": "unocc",
				"energy": 0.03176,
				"method": "rhf"
			}
		],
		"cosmo_sigma_profile": { 
			"-0.025": 0.0,
			"-0.024": 0.0,
			"-0.023": 0.0,
			"-0.022": 0.0,
			"-0.021": 0.0,
			"-0.02": 0.0,
			"-0.019": 0.612193506427,
			"-0.018": 1.88253750869,
			"-0.017": 2.19188784577,
			"-0.016": 2.57529134868,
			"-0.015": 1.80740560324,
			"-0.014": 2.08142745764,
			"-0.013": 1.95257452569,
			"-0.012": 2.01768346583,
			"-0.011": 2.07133419451,
			"-0.01": 2.39921411387,
			"-0.009": 2.19616157297,
			"-0.008": 3.00638244641,
			"-0.007": 6.99515455653,
			"-0.006": 14.458289821,
			"-0.005": 12.5176309354,
			"-0.004": 13.5704507954,
			"-0.003": 11.5548997097,
			"-0.002": 11.5065501915,
			"-0.001": 13.2987662631,
			"0.0": 15.749074234,
			"0.001": 17.8145860033,
			"0.002": 19.4422371784,
			"0.003": 16.4610845733,
			"0.004": 14.1225992383,
			"0.005": 14.0946857663,
			"0.006": 5.71445801088,
			"0.007": 6.37429204207,
			"0.008": 10.8356645924,
			"0.009": 8.69564954103,
			"0.01": 7.15013002622,
			"0.011": 4.89119983113,
			"0.012": 1.74131146428,
			"0.013": 1.15363509219,
			"0.014": 0.101371514832,
			"0.015": 0.0,
			"0.016": 0.0,
			"0.017": 0.0,
			"0.018": 0.0,
			"0.019": 0.0,
			"0.02": 0.0,
			"0.021": 0.0,
			"0.022": 0.0,
			"0.023": 0.0,
			"0.024": 0.0,
			"0.025": 0.0
		}
	}
}
