{
	 "smiles": "CC1=CC(C(O)=O)=C(C)N1C1=CC2=C(OCCO2)C=C1", 
	 "Tm": 478.15, 
	 "num_atms": 35, 
	 "gaussian": { 
		 "optdone": 1, 
		 "sigma_profile": "yes", 
		 "theory": "DFT", 
		 "functional": "B3LYP", 
		 "basiset": "6-31G**", 
		 "properties": { 
			 "R2extent": 7245.3157, 
			 "electric_dipole_moment_norm": 5.80711611818, 
			 "electric_quadrupole_moment_norm": 13.3617796816, 
			 "total_energy": -936.290443883, 
			 "HOMO_LUMO_gap": 0.18274, 
			 "cosmo_polarized_energy": -15.01, 
			 "cosmo_cavitation_energy": 38.75, 
			 "cosmo_dispersion_energy": -27.3, 
			 "cosmo_repulsion_energy": 2.11, 
			 "cosmo_total_nonelectrostatic_energy": 13.56, 
			 "SMD_solvation_energy": 8.23 
		},
		"coords": [
			{
				"x": -2.2034169191,
				"y": -2.6928347836,
				"z": 0.4537883972,
				"element": "C" 
			},
			{
				"x": -1.3263638233,
				"y": -1.9317575179,
				"z": 1.3945298534,
				"element": "C" 
			},
			{
				"x": -1.0661577055,
				"y": -2.12211349,
				"z": 2.7253875677,
				"element": "C" 
			},
			{
				"x": -0.1553276293,
				"y": -1.1002512413,
				"z": 3.1486801309,
				"element": "C" 
			},
			{
				"x": 0.3931835814,
				"y": -0.9206109211,
				"z": 4.4884270361,
				"element": "C" 
			},
			{
				"x": -0.0603690765,
				"y": -1.8649840617,
				"z": 5.3622146784,
				"element": "O" 
			},
			{
				"x": 1.1702491497,
				"y": -0.0519622013,
				"z": 4.856978595,
				"element": "O" 
			},
			{
				"x": 0.1224681492,
				"y": -0.2963885216,
				"z": 2.0456085082,
				"element": "C" 
			},
			{
				"x": 1.0045939268,
				"y": 0.9015513503,
				"z": 1.9080989711,
				"element": "C" 
			},
			{
				"x": -0.593594524,
				"y": -0.8099914695,
				"z": 0.9852186915,
				"element": "N" 
			},
			{
				"x": -0.5929843559,
				"y": -0.2741062599,
				"z": -0.3430520155,
				"element": "C" 
			},
			{
				"x": 0.2965154674,
				"y": -0.7816520125,
				"z": -1.2920900103,
				"element": "C" 
			},
			{
				"x": 0.3006182195,
				"y": -0.2687090445,
				"z": -2.5888747534,
				"element": "C" 
			},
			{
				"x": -0.600451776,
				"y": 0.7531632855,
				"z": -2.9410714131,
				"element": "C" 
			},
			{
				"x": -0.6429898711,
				"y": 1.2745654443,
				"z": -4.2083035275,
				"element": "O" 
			},
			{
				"x": 0.0278981754,
				"y": 0.4784960184,
				"z": -5.187234404,
				"element": "C" 
			},
			{
				"x": 1.3754224942,
				"y": 0.0195176517,
				"z": -4.6552018376,
				"element": "C" 
			},
			{
				"x": 1.1947562266,
				"y": -0.7877457073,
				"z": -3.4899986099,
				"element": "O" 
			},
			{
				"x": -1.4771414529,
				"y": 1.2631023316,
				"z": -1.9825511452,
				"element": "C" 
			},
			{
				"x": -1.4756452318,
				"y": 0.7560275128,
				"z": -0.6853221945,
				"element": "C" 
			},
			{
				"x": -2.9899829854,
				"y": -2.0639045398,
				"z": 0.0197321384,
				"element": "H" 
			},
			{
				"x": -1.6415379027,
				"y": -3.1262480072,
				"z": -0.3822718355,
				"element": "H" 
			},
			{
				"x": -2.6866245619,
				"y": -3.5109616253,
				"z": 0.9930106452,
				"element": "H" 
			},
			{
				"x": -1.4757618907,
				"y": -2.9034599123,
				"z": 3.3482949395,
				"element": "H" 
			},
			{
				"x": 0.3648152336,
				"y": -1.6484262355,
				"z": 6.2077989859,
				"element": "H" 
			},
			{
				"x": 0.437689706,
				"y": 1.7871236632,
				"z": 1.5973381441,
				"element": "H" 
			},
			{
				"x": 1.7856847127,
				"y": 0.7407717283,
				"z": 1.1555389221,
				"element": "H" 
			},
			{
				"x": 1.4744607857,
				"y": 1.1031765097,
				"z": 2.8701061917,
				"element": "H" 
			},
			{
				"x": 0.9970623431,
				"y": -1.5684940171,
				"z": -1.0342376088,
				"element": "H" 
			},
			{
				"x": 0.1430523612,
				"y": 1.1088257344,
				"z": -6.0723398746,
				"element": "H" 
			},
			{
				"x": -0.589483178,
				"y": -0.3925029709,
				"z": -5.4453132023,
				"element": "H" 
			},
			{
				"x": 1.9000338357,
				"y": -0.6028211959,
				"z": -5.3841353889,
				"element": "H" 
			},
			{
				"x": 1.9991847941,
				"y": 0.8902084206,
				"z": -4.4120080727,
				"element": "H" 
			},
			{
				"x": -2.1589488787,
				"y": 2.0534186126,
				"z": -2.2786865531,
				"element": "H" 
			},
			{
				"x": -2.1596073994,
				"y": 1.1459774728,
				"z": 0.0608400504,
				"element": "H" 
			}
		],
		 "valence_orbital": [ 
			{
				"type": "occ",
				"energy": -0.2519,
				"method": "rhf"
			},
			{
				"type": "occ",
				"energy": -0.25031,
				"method": "rhf"
			},
			{
				"type": "occ",
				"energy": -0.23817,
				"method": "rhf"
			},
			{
				"type": "occ",
				"energy": -0.2253,
				"method": "rhf"
			},
			{
				"type": "occ",
				"energy": -0.19868,
				"method": "rhf"
			},
			{
				"type": "unocc",
				"energy": -0.01594,
				"method": "rhf"
			},
			{
				"type": "unocc",
				"energy": -0.00448,
				"method": "rhf"
			},
			{
				"type": "unocc",
				"energy": -0.00107,
				"method": "rhf"
			},
			{
				"type": "unocc",
				"energy": 0.04865,
				"method": "rhf"
			},
			{
				"type": "unocc",
				"energy": 0.0711,
				"method": "rhf"
			}
		],
		"cosmo_sigma_profile": { 
			"-0.025": 0.0,
			"-0.024": 0.0,
			"-0.023": 0.0,
			"-0.022": 0.0,
			"-0.021": 0.0,
			"-0.02": 0.0,
			"-0.019": 0.0,
			"-0.018": 0.111660009212,
			"-0.017": 0.624362992883,
			"-0.016": 0.864517021873,
			"-0.015": 0.69198346586,
			"-0.014": 0.877766488595,
			"-0.013": 0.584727307719,
			"-0.012": 0.505790480497,
			"-0.011": 0.719320535492,
			"-0.01": 1.00287886595,
			"-0.009": 0.460864070658,
			"-0.008": 1.33060866043,
			"-0.007": 10.8885152365,
			"-0.006": 18.3939377399,
			"-0.005": 18.2000985963,
			"-0.004": 24.016170107,
			"-0.003": 23.4701527152,
			"-0.002": 23.6594226008,
			"-0.001": 24.7736334701,
			"0.0": 26.425713925,
			"0.001": 18.6591804516,
			"0.002": 20.2858893157,
			"0.003": 21.1839358992,
			"0.004": 13.8517136103,
			"0.005": 13.0956048046,
			"0.006": 9.58357454506,
			"0.007": 7.88320632112,
			"0.008": 6.15165454603,
			"0.009": 5.87456151936,
			"0.01": 4.62874853747,
			"0.011": 2.06712750378,
			"0.012": 3.48201352045,
			"0.013": 3.02823874675,
			"0.014": 0.0685377916831,
			"0.015": 0.0,
			"0.016": 0.0,
			"0.017": 0.0,
			"0.018": 0.0,
			"0.019": 0.0,
			"0.02": 0.0,
			"0.021": 0.0,
			"0.022": 0.0,
			"0.023": 0.0,
			"0.024": 0.0,
			"0.025": 0.0
		}
	}
}
