{
	 "smiles": "FC1=C(Br)C(Br)=CC(Br)=C1", 
	 "Tm": 305.15, 
	 "num_atms": 12, 
	 "gaussian": { 
		 "optdone": 1, 
		 "sigma_profile": "yes", 
		 "theory": "DFT", 
		 "functional": "B3LYP", 
		 "basiset": "6-31G**", 
		 "properties": { 
			 "R2extent": 5611.226, 
			 "electric_dipole_moment_norm": 0.837815934439, 
			 "electric_quadrupole_moment_norm": 2.78720698908, 
			 "total_energy": -8043.87749713, 
			 "HOMO_LUMO_gap": 0.20733, 
			 "cosmo_polarized_energy": -3.52, 
			 "cosmo_cavitation_energy": 24.03, 
			 "cosmo_dispersion_energy": -18.9, 
			 "cosmo_repulsion_energy": 1.5, 
			 "cosmo_total_nonelectrostatic_energy": 6.63, 
			 "SMD_solvation_energy": 1.35 
		},
		"coords": [
			{
				"x": -0.5315362106,
				"y": -1.3471744303,
				"z": 3.3539231133,
				"element": "F" 
			},
			{
				"x": -0.5672002893,
				"y": -0.8659081947,
				"z": 2.1053455751,
				"element": "C" 
			},
			{
				"x": -1.7009411581,
				"y": -1.0918693568,
				"z": 1.3175705318,
				"element": "C" 
			},
			{
				"x": -3.1360805125,
				"y": -2.0711152321,
				"z": 2.058678301,
				"element": "Br" 
			},
			{
				"x": -1.7079683186,
				"y": -0.5756403378,
				"z": 0.0154843141,
				"element": "C" 
			},
			{
				"x": -3.1947817182,
				"y": -0.8237754749,
				"z": -1.1373136182,
				"element": "Br" 
			},
			{
				"x": -0.6152797212,
				"y": 0.1415688748,
				"z": -0.4769721458,
				"element": "C" 
			},
			{
				"x": 0.4921165104,
				"y": 0.3424609917,
				"z": 0.342353302,
				"element": "C" 
			},
			{
				"x": 1.9817201495,
				"y": 1.319737333,
				"z": -0.3282485029,
				"element": "Br" 
			},
			{
				"x": 0.5325217742,
				"y": -0.1565714505,
				"z": 1.6413448517,
				"element": "C" 
			},
			{
				"x": -0.6366144247,
				"y": 0.5335818536,
				"z": -1.4849932975,
				"element": "H" 
			},
			{
				"x": 1.3861439191,
				"y": -0.008694576,
				"z": 2.2905275754,
				"element": "H" 
			}
		],
		 "valence_orbital": [ 
			{
				"type": "occ",
				"energy": -0.30518,
				"method": "rhf"
			},
			{
				"type": "occ",
				"energy": -0.30368,
				"method": "rhf"
			},
			{
				"type": "occ",
				"energy": -0.28929,
				"method": "rhf"
			},
			{
				"type": "occ",
				"energy": -0.26676,
				"method": "rhf"
			},
			{
				"type": "occ",
				"energy": -0.25309,
				"method": "rhf"
			},
			{
				"type": "unocc",
				"energy": -0.04576,
				"method": "rhf"
			},
			{
				"type": "unocc",
				"energy": -0.04355,
				"method": "rhf"
			},
			{
				"type": "unocc",
				"energy": -0.03416,
				"method": "rhf"
			},
			{
				"type": "unocc",
				"energy": -0.00331,
				"method": "rhf"
			},
			{
				"type": "unocc",
				"energy": 0.02873,
				"method": "rhf"
			}
		],
		"cosmo_sigma_profile": { 
			"-0.025": 0.0,
			"-0.024": 0.0,
			"-0.023": 0.0,
			"-0.022": 0.0,
			"-0.021": 0.0,
			"-0.02": 0.0,
			"-0.019": 0.0,
			"-0.018": 0.0,
			"-0.017": 0.0,
			"-0.016": 0.0,
			"-0.015": 0.0,
			"-0.014": 0.0,
			"-0.013": 0.0,
			"-0.012": 0.0,
			"-0.011": 0.0,
			"-0.01": 0.325674202038,
			"-0.009": 1.97586594203,
			"-0.008": 2.87228707082,
			"-0.007": 2.73179607721,
			"-0.006": 5.35023901643,
			"-0.005": 7.27348683637,
			"-0.004": 7.69164784637,
			"-0.003": 9.42624611387,
			"-0.002": 18.6098335432,
			"-0.001": 25.6379048972,
			"0.0": 27.3300385953,
			"0.001": 16.9096848804,
			"0.002": 20.8181989714,
			"0.003": 36.0962098049,
			"0.004": 19.3643406716,
			"0.005": 1.61148406081,
			"0.006": 0.0,
			"0.007": 0.0,
			"0.008": 0.0,
			"0.009": 0.0,
			"0.01": 0.0,
			"0.011": 0.0,
			"0.012": 0.0,
			"0.013": 0.0,
			"0.014": 0.0,
			"0.015": 0.0,
			"0.016": 0.0,
			"0.017": 0.0,
			"0.018": 0.0,
			"0.019": 0.0,
			"0.02": 0.0,
			"0.021": 0.0,
			"0.022": 0.0,
			"0.023": 0.0,
			"0.024": 0.0,
			"0.025": 0.0
		}
	}
}
