{
	 "smiles": "NC1=C(C=NN1C1=CC=NC=C1)C#N", 
	 "Tm": 547.15, 
	 "num_atms": 21, 
	 "gaussian": { 
		 "optdone": 1, 
		 "sigma_profile": "yes", 
		 "theory": "DFT", 
		 "functional": "B3LYP", 
		 "basiset": "6-31G**", 
		 "properties": { 
			 "R2extent": 3237.6764, 
			 "electric_dipole_moment_norm": 2.77369280383, 
			 "electric_quadrupole_moment_norm": 27.1337464334, 
			 "total_energy": -620.889382171, 
			 "HOMO_LUMO_gap": 0.18566, 
			 "cosmo_polarized_energy": -17.9, 
			 "cosmo_cavitation_energy": 26.9, 
			 "cosmo_dispersion_energy": -19.36, 
			 "cosmo_repulsion_energy": 1.5, 
			 "cosmo_total_nonelectrostatic_energy": 9.04, 
			 "SMD_solvation_energy": 4.18 
		},
		"coords": [
			{
				"x": -1.0510792489,
				"y": -1.5180882111,
				"z": 1.6332089794,
				"element": "N" 
			},
			{
				"x": -1.580331946,
				"y": -0.333120613,
				"z": 1.1775876601,
				"element": "C" 
			},
			{
				"x": -2.8182854754,
				"y": 0.2465705853,
				"z": 1.4708142299,
				"element": "C" 
			},
			{
				"x": -2.8234906938,
				"y": 1.4698007145,
				"z": 0.7408255578,
				"element": "C" 
			},
			{
				"x": -1.7149705071,
				"y": 1.6463117963,
				"z": 0.0568249924,
				"element": "N" 
			},
			{
				"x": -0.9366153501,
				"y": 0.5392436441,
				"z": 0.3426730429,
				"element": "N" 
			},
			{
				"x": 0.3390708017,
				"y": 0.4259870749,
				"z": -0.2607493322,
				"element": "C" 
			},
			{
				"x": 1.3980060667,
				"y": -0.2366070201,
				"z": 0.3697164162,
				"element": "C" 
			},
			{
				"x": 2.6196370915,
				"y": -0.3036516911,
				"z": -0.3029620859,
				"element": "C" 
			},
			{
				"x": 2.849307703,
				"y": 0.2350158086,
				"z": -1.5045764979,
				"element": "N" 
			},
			{
				"x": 1.8265199464,
				"y": 0.8858168482,
				"z": -2.0773821266,
				"element": "C" 
			},
			{
				"x": 0.5606419263,
				"y": 1.0111892613,
				"z": -1.5114876268,
				"element": "C" 
			},
			{
				"x": -3.8159149617,
				"y": -0.3315500856,
				"z": 2.2871897983,
				"element": "C" 
			},
			{
				"x": -4.6162022386,
				"y": -0.8457066598,
				"z": 2.9611834058,
				"element": "N" 
			},
			{
				"x": -0.463236787,
				"y": -2.0229156276,
				"z": 0.9820226014,
				"element": "H" 
			},
			{
				"x": -1.7344745108,
				"y": -2.1112739293,
				"z": 2.0876120737,
				"element": "H" 
			},
			{
				"x": -3.6111163796,
				"y": 2.2100415434,
				"z": 0.7058005015,
				"element": "H" 
			},
			{
				"x": 1.2944643682,
				"y": -0.6551912344,
				"z": 1.3635667318,
				"element": "H" 
			},
			{
				"x": 3.460082163,
				"y": -0.8131706878,
				"z": 0.1648313508,
				"element": "H" 
			},
			{
				"x": 2.0263774594,
				"y": 1.3299085416,
				"z": -3.0505002914,
				"element": "H" 
			},
			{
				"x": -0.2351894273,
				"y": 1.5501899416,
				"z": -2.0094993814,
				"element": "H" 
			}
		],
		 "valence_orbital": [ 
			{
				"type": "occ",
				"energy": -0.31118,
				"method": "rhf"
			},
			{
				"type": "occ",
				"energy": -0.28151,
				"method": "rhf"
			},
			{
				"type": "occ",
				"energy": -0.27052,
				"method": "rhf"
			},
			{
				"type": "occ",
				"energy": -0.2616,
				"method": "rhf"
			},
			{
				"type": "occ",
				"energy": -0.23964,
				"method": "rhf"
			},
			{
				"type": "unocc",
				"energy": -0.05398,
				"method": "rhf"
			},
			{
				"type": "unocc",
				"energy": -0.03189,
				"method": "rhf"
			},
			{
				"type": "unocc",
				"energy": -0.00526,
				"method": "rhf"
			},
			{
				"type": "unocc",
				"energy": 0.01276,
				"method": "rhf"
			},
			{
				"type": "unocc",
				"energy": 0.01928,
				"method": "rhf"
			}
		],
		"cosmo_sigma_profile": { 
			"-0.025": 0.0,
			"-0.024": 0.0,
			"-0.023": 0.0,
			"-0.022": 0.0,
			"-0.021": 0.0,
			"-0.02": 0.0,
			"-0.019": 0.0,
			"-0.018": 0.0,
			"-0.017": 0.0,
			"-0.016": 0.0,
			"-0.015": 0.651105093077,
			"-0.014": 2.80758531188,
			"-0.013": 2.53926484501,
			"-0.012": 2.96610268055,
			"-0.011": 3.02671964878,
			"-0.01": 2.49092168532,
			"-0.009": 4.3176915425,
			"-0.008": 4.94700365445,
			"-0.007": 10.3194169717,
			"-0.006": 12.6531089862,
			"-0.005": 8.67306394451,
			"-0.004": 10.3806327877,
			"-0.003": 10.7013697817,
			"-0.002": 11.6236942663,
			"-0.001": 13.4481555084,
			"0.0": 17.2369839948,
			"0.001": 23.2600360304,
			"0.002": 11.9939004886,
			"0.003": 6.84078233236,
			"0.004": 6.48122746884,
			"0.005": 6.23324697073,
			"0.006": 5.39720571664,
			"0.007": 5.80151271128,
			"0.008": 6.50574146319,
			"0.009": 5.29260150944,
			"0.01": 5.75721184321,
			"0.011": 4.8756119586,
			"0.012": 3.99400593442,
			"0.013": 3.78783687095,
			"0.014": 1.26165223374,
			"0.015": 1.07844608639,
			"0.016": 0.59459625604,
			"0.017": 0.18017606635,
			"0.018": 0.0,
			"0.019": 0.0,
			"0.02": 0.0,
			"0.021": 0.0,
			"0.022": 0.0,
			"0.023": 0.0,
			"0.024": 0.0,
			"0.025": 0.0
		}
	}
}
