{
	 "smiles": "CC(C)C1=NN=C(S)N1N", 
	 "Tm": 391.15, 
	 "num_atms": 20, 
	 "gaussian": { 
		 "optdone": 1, 
		 "sigma_profile": "yes", 
		 "theory": "DFT", 
		 "functional": "B3LYP", 
		 "basiset": "6-31G**", 
		 "properties": { 
			 "R2extent": 2094.746, 
			 "electric_dipole_moment_norm": 4.44484064394, 
			 "electric_quadrupole_moment_norm": 6.78992676176, 
			 "total_energy": -813.700361928, 
			 "HOMO_LUMO_gap": 0.22817, 
			 "cosmo_polarized_energy": -17.84, 
			 "cosmo_cavitation_energy": 25.2, 
			 "cosmo_dispersion_energy": -18.55, 
			 "cosmo_repulsion_energy": 1.48, 
			 "cosmo_total_nonelectrostatic_energy": 8.13, 
			 "SMD_solvation_energy": 2.7 
		},
		"coords": [
			{
				"x": -2.7052501021,
				"y": -0.4618163461,
				"z": -0.6801658139,
				"element": "C" 
			},
			{
				"x": -1.562587743,
				"y": 0.4785431105,
				"z": -1.0882075567,
				"element": "C" 
			},
			{
				"x": -1.9142511799,
				"y": 1.9535264985,
				"z": -0.8015923731,
				"element": "C" 
			},
			{
				"x": -0.2855095763,
				"y": 0.0919786851,
				"z": -0.3981510416,
				"element": "C" 
			},
			{
				"x": -0.1627690608,
				"y": -0.5940209639,
				"z": 0.7110724848,
				"element": "N" 
			},
			{
				"x": 1.1927766375,
				"y": -0.7009922014,
				"z": 1.0179195141,
				"element": "N" 
			},
			{
				"x": 1.8426451973,
				"y": -0.0711896903,
				"z": 0.0760371712,
				"element": "C" 
			},
			{
				"x": 3.589503312,
				"y": 0.1339422584,
				"z": -0.0941795927,
				"element": "S" 
			},
			{
				"x": 0.9708402699,
				"y": 0.4549138773,
				"z": -0.8492447062,
				"element": "N" 
			},
			{
				"x": 1.2484689792,
				"y": 1.1732504984,
				"z": -2.0161097935,
				"element": "N" 
			},
			{
				"x": -3.627503761,
				"y": -0.175157452,
				"z": -1.1952217612,
				"element": "H" 
			},
			{
				"x": -2.878287623,
				"y": -0.4156355665,
				"z": 0.3981835728,
				"element": "H" 
			},
			{
				"x": -2.4750361074,
				"y": -1.500547813,
				"z": -0.9319585308,
				"element": "H" 
			},
			{
				"x": -1.38663052,
				"y": 0.3843897624,
				"z": -2.167520171,
				"element": "H" 
			},
			{
				"x": -2.0811964153,
				"y": 2.1084076437,
				"z": 0.2692647837,
				"element": "H" 
			},
			{
				"x": -1.1144437655,
				"y": 2.6250791432,
				"z": -1.1272793392,
				"element": "H" 
			},
			{
				"x": -2.8283403377,
				"y": 2.2348519338,
				"z": -1.3346002697,
				"element": "H" 
			},
			{
				"x": 3.8552822565,
				"y": -0.5717686894,
				"z": 1.0206068296,
				"element": "H" 
			},
			{
				"x": 1.8383960798,
				"y": 0.6121701079,
				"z": -2.6269289607,
				"element": "H" 
			},
			{
				"x": 1.7395934597,
				"y": 2.0318752033,
				"z": -1.7771244457,
				"element": "H" 
			}
		],
		 "valence_orbital": [ 
			{
				"type": "occ",
				"energy": -0.30977,
				"method": "rhf"
			},
			{
				"type": "occ",
				"energy": -0.30157,
				"method": "rhf"
			},
			{
				"type": "occ",
				"energy": -0.29213,
				"method": "rhf"
			},
			{
				"type": "occ",
				"energy": -0.24771,
				"method": "rhf"
			},
			{
				"type": "occ",
				"energy": -0.23011,
				"method": "rhf"
			},
			{
				"type": "unocc",
				"energy": -0.00194,
				"method": "rhf"
			},
			{
				"type": "unocc",
				"energy": 0.01825,
				"method": "rhf"
			},
			{
				"type": "unocc",
				"energy": 0.04517,
				"method": "rhf"
			},
			{
				"type": "unocc",
				"energy": 0.04633,
				"method": "rhf"
			},
			{
				"type": "unocc",
				"energy": 0.07073,
				"method": "rhf"
			}
		],
		"cosmo_sigma_profile": { 
			"-0.025": 0.0,
			"-0.024": 0.0,
			"-0.023": 0.0,
			"-0.022": 0.0,
			"-0.021": 0.0,
			"-0.02": 0.0,
			"-0.019": 0.0,
			"-0.018": 0.0,
			"-0.017": 0.0,
			"-0.016": 0.0,
			"-0.015": 0.0,
			"-0.014": 0.851440335153,
			"-0.013": 3.70894905781,
			"-0.012": 5.38441263196,
			"-0.011": 3.9857317931,
			"-0.01": 4.52247867702,
			"-0.009": 3.78222578523,
			"-0.008": 3.39739978132,
			"-0.007": 2.28615511021,
			"-0.006": 3.47761757121,
			"-0.005": 3.40848435156,
			"-0.004": 8.07269404429,
			"-0.003": 18.1094913125,
			"-0.002": 20.2685232996,
			"-0.001": 19.9141107416,
			"0.0": 19.3347411746,
			"0.001": 18.0816720715,
			"0.002": 8.98794392641,
			"0.003": 6.36007454815,
			"0.004": 7.30187450963,
			"0.005": 5.15091436512,
			"0.006": 5.55478440728,
			"0.007": 3.6246658751,
			"0.008": 1.79869522267,
			"0.009": 2.5612062991,
			"0.01": 2.96231321827,
			"0.011": 2.40755469298,
			"0.012": 2.21450952929,
			"0.013": 2.98106293561,
			"0.014": 3.79266898522,
			"0.015": 3.31731883327,
			"0.016": 1.78538348165,
			"0.017": 1.0435669926,
			"0.018": 0.0,
			"0.019": 0.0,
			"0.02": 0.0,
			"0.021": 0.0,
			"0.022": 0.0,
			"0.023": 0.0,
			"0.024": 0.0,
			"0.025": 0.0
		}
	}
}
