{
	 "smiles": "OC(=O)C1=CC=C(Cl)C=C1O", 
	 "Tm": 483.15, 
	 "num_atms": 16, 
	 "gaussian": { 
		 "optdone": 1, 
		 "sigma_profile": "yes", 
		 "theory": "DFT", 
		 "functional": "B3LYP", 
		 "basiset": "6-31G**", 
		 "properties": { 
			 "R2extent": 2488.1704, 
			 "electric_dipole_moment_norm": 2.686471593, 
			 "electric_quadrupole_moment_norm": 7.56270067899, 
			 "total_energy": -955.65006736, 
			 "HOMO_LUMO_gap": 0.17774, 
			 "cosmo_polarized_energy": -8.46, 
			 "cosmo_cavitation_energy": 22.46, 
			 "cosmo_dispersion_energy": -17.29, 
			 "cosmo_repulsion_energy": 1.38, 
			 "cosmo_total_nonelectrostatic_energy": 6.55, 
			 "SMD_solvation_energy": 5.1 
		},
		"coords": [
			{
				"x": 0.4745942433,
				"y": -2.9327517439,
				"z": 1.4109036329,
				"element": "O" 
			},
			{
				"x": 1.2347395227,
				"y": -1.8298542759,
				"z": 1.5487443497,
				"element": "C" 
			},
			{
				"x": 2.1628187818,
				"y": -1.7999468195,
				"z": 2.3605725502,
				"element": "O" 
			},
			{
				"x": 0.8671928032,
				"y": -0.7138247736,
				"z": 0.6760706439,
				"element": "C" 
			},
			{
				"x": -0.202045798,
				"y": -0.7973674236,
				"z": -0.2352695532,
				"element": "C" 
			},
			{
				"x": -0.5355403169,
				"y": 0.268709954,
				"z": -1.0532543468,
				"element": "C" 
			},
			{
				"x": 0.2225163259,
				"y": 1.4457256623,
				"z": -0.9534300852,
				"element": "C" 
			},
			{
				"x": -0.1884157686,
				"y": 2.804062897,
				"z": -1.9833214644,
				"element": "Cl" 
			},
			{
				"x": 1.283155204,
				"y": 1.5714953787,
				"z": -0.0703555129,
				"element": "C" 
			},
			{
				"x": 1.6194449863,
				"y": 0.4883079935,
				"z": 0.7584968665,
				"element": "C" 
			},
			{
				"x": 2.6489860729,
				"y": 0.6433535777,
				"z": 1.5996003944,
				"element": "O" 
			},
			{
				"x": 0.8247247722,
				"y": -3.5841913222,
				"z": 2.0410676412,
				"element": "H" 
			},
			{
				"x": -0.7690255135,
				"y": -1.7198674641,
				"z": -0.2893477727,
				"element": "H" 
			},
			{
				"x": -1.3581871782,
				"y": 0.205359304,
				"z": -1.7548692215,
				"element": "H" 
			},
			{
				"x": 1.8615164736,
				"y": 2.4845236666,
				"z": -0.001537135,
				"element": "H" 
			},
			{
				"x": 2.7455253893,
				"y": -0.2035346108,
				"z": 2.0996290127,
				"element": "H" 
			}
		],
		 "valence_orbital": [ 
			{
				"type": "occ",
				"energy": -0.32897,
				"method": "rhf"
			},
			{
				"type": "occ",
				"energy": -0.32106,
				"method": "rhf"
			},
			{
				"type": "occ",
				"energy": -0.30035,
				"method": "rhf"
			},
			{
				"type": "occ",
				"energy": -0.26465,
				"method": "rhf"
			},
			{
				"type": "occ",
				"energy": -0.2413,
				"method": "rhf"
			},
			{
				"type": "unocc",
				"energy": -0.06356,
				"method": "rhf"
			},
			{
				"type": "unocc",
				"energy": -0.0105,
				"method": "rhf"
			},
			{
				"type": "unocc",
				"energy": 0.02231,
				"method": "rhf"
			},
			{
				"type": "unocc",
				"energy": 0.03723,
				"method": "rhf"
			},
			{
				"type": "unocc",
				"energy": 0.06455,
				"method": "rhf"
			}
		],
		"cosmo_sigma_profile": { 
			"-0.025": 0.0,
			"-0.024": 0.0,
			"-0.023": 0.0,
			"-0.022": 0.0,
			"-0.021": 0.0,
			"-0.02": 0.0,
			"-0.019": 0.408856178969,
			"-0.018": 1.09391304201,
			"-0.017": 1.01307824319,
			"-0.016": 0.513171452372,
			"-0.015": 0.820397136097,
			"-0.014": 0.594105158086,
			"-0.013": 1.13727938693,
			"-0.012": 0.709584363809,
			"-0.011": 0.463124855393,
			"-0.01": 0.567814622232,
			"-0.009": 0.830248471846,
			"-0.008": 2.26935058672,
			"-0.007": 6.2360349188,
			"-0.006": 5.92728385101,
			"-0.005": 6.58112780021,
			"-0.004": 7.98274650974,
			"-0.003": 11.5684664805,
			"-0.002": 11.1641409165,
			"-0.001": 12.7302439414,
			"0.0": 16.0321256615,
			"0.001": 22.8047656073,
			"0.002": 19.7563395041,
			"0.003": 13.0566040592,
			"0.004": 14.3970741133,
			"0.005": 4.79529642289,
			"0.006": 4.2638421503,
			"0.007": 2.79325299835,
			"0.008": 3.06663714478,
			"0.009": 3.19068031899,
			"0.01": 3.69940685564,
			"0.011": 2.18635407669,
			"0.012": 0.042750777154,
			"0.013": 0.0,
			"0.014": 0.0,
			"0.015": 0.0,
			"0.016": 0.0,
			"0.017": 0.0,
			"0.018": 0.0,
			"0.019": 0.0,
			"0.02": 0.0,
			"0.021": 0.0,
			"0.022": 0.0,
			"0.023": 0.0,
			"0.024": 0.0,
			"0.025": 0.0
		}
	}
}
