{
	 "smiles": "CCCCCCC1=CC=C(C=C1)C1=CC=CC=C1", 
	 "Tm": 303.15, 
	 "num_atms": 40, 
	 "gaussian": { 
		 "optdone": 1, 
		 "sigma_profile": "yes", 
		 "theory": "DFT", 
		 "functional": "B3LYP", 
		 "basiset": "6-31G**", 
		 "properties": { 
			 "R2extent": 8317.2222, 
			 "electric_dipole_moment_norm": 0.360175137954, 
			 "electric_quadrupole_moment_norm": 6.84674386844, 
			 "total_energy": -699.208731396, 
			 "HOMO_LUMO_gap": 0.1929, 
			 "cosmo_polarized_energy": -5.24, 
			 "cosmo_cavitation_energy": 41.83, 
			 "cosmo_dispersion_energy": -29.09, 
			 "cosmo_repulsion_energy": 2.28, 
			 "cosmo_total_nonelectrostatic_energy": 15.02, 
			 "SMD_solvation_energy": 6.12 
		},
		"coords": [
			{
				"x": 5.3394336104,
				"y": -1.1899962794,
				"z": -0.5008472601,
				"element": "C" 
			},
			{
				"x": 4.0578058861,
				"y": -1.1285596406,
				"z": -1.337905176,
				"element": "C" 
			},
			{
				"x": 3.6127581125,
				"y": 0.3034920173,
				"z": -1.6628597546,
				"element": "C" 
			},
			{
				"x": 2.3299274795,
				"y": 0.3620321614,
				"z": -2.5038658957,
				"element": "C" 
			},
			{
				"x": 1.8927232303,
				"y": 1.7778295277,
				"z": -2.912449387,
				"element": "C" 
			},
			{
				"x": 1.4248598783,
				"y": 2.6901630382,
				"z": -1.7540332694,
				"element": "C" 
			},
			{
				"x": 0.174723307,
				"y": 2.2022961298,
				"z": -1.052083865,
				"element": "C" 
			},
			{
				"x": -1.0825685134,
				"y": 2.3165475273,
				"z": -1.6637257033,
				"element": "C" 
			},
			{
				"x": -2.237071401,
				"y": 1.8566359357,
				"z": -1.0365896461,
				"element": "C" 
			},
			{
				"x": -2.1841117604,
				"y": 1.2617568371,
				"z": 0.2360418536,
				"element": "C" 
			},
			{
				"x": -0.9266933138,
				"y": 1.1507132385,
				"z": 0.8501903402,
				"element": "C" 
			},
			{
				"x": 0.2267184521,
				"y": 1.6122835636,
				"z": 0.2172437345,
				"element": "C" 
			},
			{
				"x": -3.4147311358,
				"y": 0.7728435346,
				"z": 0.9081832025,
				"element": "C" 
			},
			{
				"x": -3.4011409549,
				"y": -0.4074685822,
				"z": 1.6714311015,
				"element": "C" 
			},
			{
				"x": -4.5556545153,
				"y": -0.8665701939,
				"z": 2.3039610695,
				"element": "C" 
			},
			{
				"x": -5.7523710602,
				"y": -0.1571279253,
				"z": 2.1858744972,
				"element": "C" 
			},
			{
				"x": -5.7823722808,
				"y": 1.016426958,
				"z": 1.4301063886,
				"element": "C" 
			},
			{
				"x": -4.6268505704,
				"y": 1.4763193527,
				"z": 0.799928038,
				"element": "C" 
			},
			{
				"x": 6.1762842098,
				"y": -0.7099811972,
				"z": -1.0211912024,
				"element": "H" 
			},
			{
				"x": 5.6303381911,
				"y": -2.223924165,
				"z": -0.2877178918,
				"element": "H" 
			},
			{
				"x": 5.2113661879,
				"y": -0.676614233,
				"z": 0.4591717288,
				"element": "H" 
			},
			{
				"x": 4.2057089175,
				"y": -1.6817910197,
				"z": -2.2754485645,
				"element": "H" 
			},
			{
				"x": 3.2476214055,
				"y": -1.6461736695,
				"z": -0.8065129141,
				"element": "H" 
			},
			{
				"x": 4.4221764888,
				"y": 0.8216370831,
				"z": -2.1979526589,
				"element": "H" 
			},
			{
				"x": 3.4733696941,
				"y": 0.8530185987,
				"z": -0.7218911153,
				"element": "H" 
			},
			{
				"x": 2.4829725861,
				"y": -0.2286952863,
				"z": -3.4171877643,
				"element": "H" 
			},
			{
				"x": 1.5131410099,
				"y": -0.1289341756,
				"z": -1.9587248301,
				"element": "H" 
			},
			{
				"x": 1.0771792592,
				"y": 1.700138456,
				"z": -3.6426930412,
				"element": "H" 
			},
			{
				"x": 2.7223231348,
				"y": 2.2766945153,
				"z": -3.4318212743,
				"element": "H" 
			},
			{
				"x": 1.2398140733,
				"y": 3.6911640421,
				"z": -2.1640496741,
				"element": "H" 
			},
			{
				"x": 2.2326889511,
				"y": 2.8048837278,
				"z": -1.0225841896,
				"element": "H" 
			},
			{
				"x": -1.1578561399,
				"y": 2.7706900916,
				"z": -2.6493222767,
				"element": "H" 
			},
			{
				"x": -3.192023539,
				"y": 1.9399924236,
				"z": -1.5474744854,
				"element": "H" 
			},
			{
				"x": -0.8544196135,
				"y": 0.7244084436,
				"z": 1.8466275969,
				"element": "H" 
			},
			{
				"x": 1.1837036936,
				"y": 1.5259033051,
				"z": 0.726368162,
				"element": "H" 
			},
			{
				"x": -2.4825247406,
				"y": -0.9819104749,
				"z": 1.7473171334,
				"element": "H" 
			},
			{
				"x": -4.5222812678,
				"y": -1.785724142,
				"z": 2.8823769979,
				"element": "H" 
			},
			{
				"x": -6.652226587,
				"y": -0.515126831,
				"z": 2.6776673189,
				"element": "H" 
			},
			{
				"x": -6.7058251725,
				"y": 1.5814953338,
				"z": 1.338179364,
				"element": "H" 
			},
			{
				"x": -4.6554151926,
				"y": 2.405031973,
				"z": 0.2375633127,
				"element": "H" 
			}
		],
		 "valence_orbital": [ 
			{
				"type": "occ",
				"energy": -0.30588,
				"method": "rhf"
			},
			{
				"type": "occ",
				"energy": -0.26508,
				"method": "rhf"
			},
			{
				"type": "occ",
				"energy": -0.24763,
				"method": "rhf"
			},
			{
				"type": "occ",
				"energy": -0.24673,
				"method": "rhf"
			},
			{
				"type": "occ",
				"energy": -0.21665,
				"method": "rhf"
			},
			{
				"type": "unocc",
				"energy": -0.02375,
				"method": "rhf"
			},
			{
				"type": "unocc",
				"energy": -0.00152,
				"method": "rhf"
			},
			{
				"type": "unocc",
				"energy": 0.00273,
				"method": "rhf"
			},
			{
				"type": "unocc",
				"energy": 0.03205,
				"method": "rhf"
			},
			{
				"type": "unocc",
				"energy": 0.08239,
				"method": "rhf"
			}
		],
		"cosmo_sigma_profile": { 
			"-0.025": 0.0,
			"-0.024": 0.0,
			"-0.023": 0.0,
			"-0.022": 0.0,
			"-0.021": 0.0,
			"-0.02": 0.0,
			"-0.019": 0.0,
			"-0.018": 0.0,
			"-0.017": 0.0,
			"-0.016": 0.0,
			"-0.015": 0.0,
			"-0.014": 0.0,
			"-0.013": 0.0,
			"-0.012": 0.0,
			"-0.011": 0.0,
			"-0.01": 0.0,
			"-0.009": 0.0,
			"-0.008": 0.0,
			"-0.007": 0.0,
			"-0.006": 3.01464470453,
			"-0.005": 17.9470730797,
			"-0.004": 20.4974074215,
			"-0.003": 28.9728871277,
			"-0.002": 34.9950270874,
			"-0.001": 44.3366714198,
			"0.0": 45.1802424796,
			"0.001": 41.2385664188,
			"0.002": 26.3001020803,
			"0.003": 17.3280240552,
			"0.004": 16.1083036299,
			"0.005": 16.7078358291,
			"0.006": 15.0911189927,
			"0.007": 0.698201280808,
			"0.008": 0.0,
			"0.009": 0.0,
			"0.01": 0.0,
			"0.011": 0.0,
			"0.012": 0.0,
			"0.013": 0.0,
			"0.014": 0.0,
			"0.015": 0.0,
			"0.016": 0.0,
			"0.017": 0.0,
			"0.018": 0.0,
			"0.019": 0.0,
			"0.02": 0.0,
			"0.021": 0.0,
			"0.022": 0.0,
			"0.023": 0.0,
			"0.024": 0.0,
			"0.025": 0.0
		}
	}
}
