{
	 "smiles": "OC(=O)CCC(=O)C1=CC2=C(C=CC=C2)C=C1", 
	 "Tm": 446.15, 
	 "num_atms": 29, 
	 "gaussian": { 
		 "optdone": 1, 
		 "sigma_profile": "yes", 
		 "theory": "DFT", 
		 "functional": "B3LYP", 
		 "basiset": "6-31G**", 
		 "properties": { 
			 "R2extent": 6514.5246, 
			 "electric_dipole_moment_norm": 2.83671803498, 
			 "electric_quadrupole_moment_norm": 12.6173495695, 
			 "total_energy": -766.428728775, 
			 "HOMO_LUMO_gap": 0.16045, 
			 "cosmo_polarized_energy": -15.49, 
			 "cosmo_cavitation_energy": 33.67, 
			 "cosmo_dispersion_energy": -24.25, 
			 "cosmo_repulsion_energy": 1.87, 
			 "cosmo_total_nonelectrostatic_energy": 11.29, 
			 "SMD_solvation_energy": 6.78 
		},
		"coords": [
			{
				"x": 0.448933134,
				"y": 6.0454585914,
				"z": -1.4576932513,
				"element": "O" 
			},
			{
				"x": 0.2470497034,
				"y": 5.1218297973,
				"z": -0.4906622242,
				"element": "C" 
			},
			{
				"x": 0.8753273244,
				"y": 5.1111741294,
				"z": 0.545730356,
				"element": "O" 
			},
			{
				"x": -0.8731111704,
				"y": 4.1681893557,
				"z": -0.8508251298,
				"element": "C" 
			},
			{
				"x": -0.8335744992,
				"y": 2.9011157655,
				"z": -0.0025376885,
				"element": "C" 
			},
			{
				"x": 0.3371393522,
				"y": 1.9960682185,
				"z": -0.3831783248,
				"element": "C" 
			},
			{
				"x": 1.0794455818,
				"y": 2.3038124835,
				"z": -1.3054970218,
				"element": "O" 
			},
			{
				"x": 0.5515219542,
				"y": 0.725764955,
				"z": 0.3761347717,
				"element": "C" 
			},
			{
				"x": -0.2609815356,
				"y": 0.3339366508,
				"z": 1.4258148822,
				"element": "C" 
			},
			{
				"x": -0.0311758478,
				"y": -0.8809892963,
				"z": 2.1215714303,
				"element": "C" 
			},
			{
				"x": 1.0661276774,
				"y": -1.7118849284,
				"z": 1.7221074978,
				"element": "C" 
			},
			{
				"x": 1.2933424489,
				"y": -2.9270506992,
				"z": 2.419597146,
				"element": "C" 
			},
			{
				"x": 0.4760271223,
				"y": -3.3044375316,
				"z": 3.462541924,
				"element": "C" 
			},
			{
				"x": -0.6085028612,
				"y": -2.4832453865,
				"z": 3.8580972859,
				"element": "C" 
			},
			{
				"x": -0.8554429274,
				"y": -1.2986197972,
				"z": 3.2018498591,
				"element": "C" 
			},
			{
				"x": 1.887953503,
				"y": -1.2862775038,
				"z": 0.6404670746,
				"element": "C" 
			},
			{
				"x": 1.6408088679,
				"y": -0.1059324603,
				"z": -0.0128933916,
				"element": "C" 
			},
			{
				"x": 1.1639322437,
				"y": 6.619906618,
				"z": -1.1358417978,
				"element": "H" 
			},
			{
				"x": -0.8057748943,
				"y": 3.9384040568,
				"z": -1.9163902367,
				"element": "H" 
			},
			{
				"x": -1.8180211316,
				"y": 4.7028297679,
				"z": -0.6927187963,
				"element": "H" 
			},
			{
				"x": -1.767618895,
				"y": 2.3370976055,
				"z": -0.1154224257,
				"element": "H" 
			},
			{
				"x": -0.7466109272,
				"y": 3.1662120402,
				"z": 1.0566804651,
				"element": "H" 
			},
			{
				"x": -1.094798846,
				"y": 0.9528433622,
				"z": 1.7434309647,
				"element": "H" 
			},
			{
				"x": 2.1257827861,
				"y": -3.5567053991,
				"z": 2.1165607494,
				"element": "H" 
			},
			{
				"x": 0.6612721792,
				"y": -4.236811145,
				"z": 3.9880124325,
				"element": "H" 
			},
			{
				"x": -1.2440130762,
				"y": -2.793019273,
				"z": 4.6824180298,
				"element": "H" 
			},
			{
				"x": -1.6858999553,
				"y": -0.6647330269,
				"z": 3.5022573815,
				"element": "H" 
			},
			{
				"x": 2.7210478183,
				"y": -1.9160949262,
				"z": 0.3390216731,
				"element": "H" 
			},
			{
				"x": 2.2615148707,
				"y": 0.2274579759,
				"z": -0.8371336352,
				"element": "H" 
			}
		],
		 "valence_orbital": [ 
			{
				"type": "occ",
				"energy": -0.29303,
				"method": "rhf"
			},
			{
				"type": "occ",
				"energy": -0.27195,
				"method": "rhf"
			},
			{
				"type": "occ",
				"energy": -0.25197,
				"method": "rhf"
			},
			{
				"type": "occ",
				"energy": -0.25068,
				"method": "rhf"
			},
			{
				"type": "occ",
				"energy": -0.2254,
				"method": "rhf"
			},
			{
				"type": "unocc",
				"energy": -0.06495,
				"method": "rhf"
			},
			{
				"type": "unocc",
				"energy": -0.03287,
				"method": "rhf"
			},
			{
				"type": "unocc",
				"energy": 0.01183,
				"method": "rhf"
			},
			{
				"type": "unocc",
				"energy": 0.01686,
				"method": "rhf"
			},
			{
				"type": "unocc",
				"energy": 0.03328,
				"method": "rhf"
			}
		],
		"cosmo_sigma_profile": { 
			"-0.025": 0.0,
			"-0.024": 0.0,
			"-0.023": 0.0,
			"-0.022": 0.0,
			"-0.021": 0.0,
			"-0.02": 0.0,
			"-0.019": 0.00914542715135,
			"-0.018": 0.679058846912,
			"-0.017": 0.858356357221,
			"-0.016": 0.979972271194,
			"-0.015": 0.558964499445,
			"-0.014": 0.912545440228,
			"-0.013": 0.624249473001,
			"-0.012": 0.608656208791,
			"-0.011": 0.696795477331,
			"-0.01": 0.761447475181,
			"-0.009": 0.659859968894,
			"-0.008": 0.456175645909,
			"-0.007": 9.17154322271,
			"-0.006": 22.9413688999,
			"-0.005": 21.5671675623,
			"-0.004": 22.52908192,
			"-0.003": 18.8925161253,
			"-0.002": 13.3619534048,
			"-0.001": 11.4366307337,
			"0.0": 13.7052827054,
			"0.001": 14.1391032767,
			"0.002": 19.1773789679,
			"0.003": 28.8474701958,
			"0.004": 19.7247908997,
			"0.005": 8.06319055316,
			"0.006": 5.25120202596,
			"0.007": 4.76739302853,
			"0.008": 5.15323446046,
			"0.009": 4.66957824287,
			"0.01": 4.57382341036,
			"0.011": 6.26303903615,
			"0.012": 6.09906937862,
			"0.013": 0.176293281432,
			"0.014": 0.0,
			"0.015": 0.0,
			"0.016": 0.0,
			"0.017": 0.0,
			"0.018": 0.0,
			"0.019": 0.0,
			"0.02": 0.0,
			"0.021": 0.0,
			"0.022": 0.0,
			"0.023": 0.0,
			"0.024": 0.0,
			"0.025": 0.0
		}
	}
}
