{
	 "smiles": "COC1=C(OC(C)C)C=CC(=C1)C(O)=O", 
	 "Tm": 414.15, 
	 "num_atms": 29, 
	 "gaussian": { 
		 "optdone": 1, 
		 "sigma_profile": "yes", 
		 "theory": "DFT", 
		 "functional": "B3LYP", 
		 "basiset": "6-31G**", 
		 "properties": { 
			 "R2extent": 4197.2453, 
			 "electric_dipole_moment_norm": 5.54137086108, 
			 "electric_quadrupole_moment_norm": 25.2359650168, 
			 "total_energy": -728.497819405, 
			 "HOMO_LUMO_gap": 0.18485, 
			 "cosmo_polarized_energy": -16.97, 
			 "cosmo_cavitation_energy": 32.68, 
			 "cosmo_dispersion_energy": -22.83, 
			 "cosmo_repulsion_energy": 1.81, 
			 "cosmo_total_nonelectrostatic_energy": 11.66, 
			 "SMD_solvation_energy": 7.83 
		},
		"coords": [
			{
				"x": -0.5733363482,
				"y": 0.4658278336,
				"z": 3.7310426952,
				"element": "C" 
			},
			{
				"x": -1.23028051,
				"y": 0.403611056,
				"z": 2.4741376904,
				"element": "O" 
			},
			{
				"x": -0.5320589598,
				"y": -0.0649275291,
				"z": 1.3995174516,
				"element": "C" 
			},
			{
				"x": -1.2483733873,
				"y": -0.1406520377,
				"z": 0.1777952561,
				"element": "C" 
			},
			{
				"x": -2.5752885984,
				"y": 0.1671332059,
				"z": 0.1095168089,
				"element": "O" 
			},
			{
				"x": -2.9727337049,
				"y": 1.5527411565,
				"z": 0.315708977,
				"element": "C" 
			},
			{
				"x": -2.7321361293,
				"y": 2.3524791189,
				"z": -0.9619308511,
				"element": "C" 
			},
			{
				"x": -4.4364889276,
				"y": 1.5028460842,
				"z": 0.7282200902,
				"element": "C" 
			},
			{
				"x": -0.6028230206,
				"y": -0.6210226407,
				"z": -0.9615676323,
				"element": "C" 
			},
			{
				"x": 0.7321446291,
				"y": -1.0183541455,
				"z": -0.9215502104,
				"element": "C" 
			},
			{
				"x": 1.4400818003,
				"y": -0.9502331047,
				"z": 0.2794712119,
				"element": "C" 
			},
			{
				"x": 0.8038335462,
				"y": -0.4647812492,
				"z": 1.437155906,
				"element": "C" 
			},
			{
				"x": 2.8727857337,
				"y": -1.3802984251,
				"z": 0.2770663364,
				"element": "C" 
			},
			{
				"x": 3.4003763555,
				"y": -1.7490567319,
				"z": 1.4802969662,
				"element": "O" 
			},
			{
				"x": 3.5612402395,
				"y": -1.4144870185,
				"z": -0.7157236507,
				"element": "O" 
			},
			{
				"x": -0.2305682982,
				"y": -0.5252016662,
				"z": 4.0551188974,
				"element": "H" 
			},
			{
				"x": 0.2813173144,
				"y": 1.1541748221,
				"z": 3.709040761,
				"element": "H" 
			},
			{
				"x": -1.3148264312,
				"y": 0.8375672924,
				"z": 4.4392670217,
				"element": "H" 
			},
			{
				"x": -2.3759375485,
				"y": 1.9669418374,
				"z": 1.1344706517,
				"element": "H" 
			},
			{
				"x": -3.3279242735,
				"y": 1.9475467569,
				"z": -1.7864380705,
				"element": "H" 
			},
			{
				"x": -3.0131223102,
				"y": 3.4006963737,
				"z": -0.8144090057,
				"element": "H" 
			},
			{
				"x": -1.6773399397,
				"y": 2.3238795839,
				"z": -1.2515912651,
				"element": "H" 
			},
			{
				"x": -4.553167113,
				"y": 0.9198257381,
				"z": 1.6454067172,
				"element": "H" 
			},
			{
				"x": -5.0388659636,
				"y": 1.0359716545,
				"z": -0.0577043502,
				"element": "H" 
			},
			{
				"x": -4.8190564741,
				"y": 2.5132791016,
				"z": 0.9028263961,
				"element": "H" 
			},
			{
				"x": -1.1791725675,
				"y": -0.6800964614,
				"z": -1.8789311028,
				"element": "H" 
			},
			{
				"x": 1.2385961626,
				"y": -1.3800403481,
				"z": -1.8090986657,
				"element": "H" 
			},
			{
				"x": 1.3637633504,
				"y": -0.357891544,
				"z": 2.3597158351,
				"element": "H" 
			},
			{
				"x": 2.6897613737,
				"y": -1.8625787136,
				"z": 2.1263691346,
				"element": "H" 
			}
		],
		 "valence_orbital": [ 
			{
				"type": "occ",
				"energy": -0.30922,
				"method": "rhf"
			},
			{
				"type": "occ",
				"energy": -0.28561,
				"method": "rhf"
			},
			{
				"type": "occ",
				"energy": -0.26786,
				"method": "rhf"
			},
			{
				"type": "occ",
				"energy": -0.2572,
				"method": "rhf"
			},
			{
				"type": "occ",
				"energy": -0.22781,
				"method": "rhf"
			},
			{
				"type": "unocc",
				"energy": -0.04296,
				"method": "rhf"
			},
			{
				"type": "unocc",
				"energy": -0.00854,
				"method": "rhf"
			},
			{
				"type": "unocc",
				"energy": 0.05193,
				"method": "rhf"
			},
			{
				"type": "unocc",
				"energy": 0.05914,
				"method": "rhf"
			},
			{
				"type": "unocc",
				"energy": 0.08065,
				"method": "rhf"
			}
		],
		"cosmo_sigma_profile": { 
			"-0.025": 0.0,
			"-0.024": 0.0,
			"-0.023": 0.0,
			"-0.022": 0.0,
			"-0.021": 0.0,
			"-0.02": 0.0,
			"-0.019": 0.0206046686287,
			"-0.018": 0.706263073093,
			"-0.017": 1.12873818542,
			"-0.016": 0.743006224145,
			"-0.015": 1.00548883284,
			"-0.014": 0.708886507723,
			"-0.013": 0.706847297978,
			"-0.012": 1.66146591888,
			"-0.011": 1.13919873136,
			"-0.01": 1.40571035769,
			"-0.009": 0.946848027162,
			"-0.008": 2.23388395029,
			"-0.007": 3.61689553135,
			"-0.006": 11.2053392574,
			"-0.005": 11.9093568827,
			"-0.004": 19.9218029427,
			"-0.003": 26.7816036128,
			"-0.002": 22.4845695886,
			"-0.001": 22.6336402034,
			"0.0": 26.3756370073,
			"0.001": 17.7246876703,
			"0.002": 14.8499877608,
			"0.003": 13.9648418482,
			"0.004": 7.87142937247,
			"0.005": 5.59606791382,
			"0.006": 5.2075643508,
			"0.007": 4.65454873336,
			"0.008": 4.76913796728,
			"0.009": 5.53896138204,
			"0.01": 5.77598394663,
			"0.011": 6.83119160086,
			"0.012": 5.70748137989,
			"0.013": 2.04253323568,
			"0.014": 0.131134371245,
			"0.015": 0.0,
			"0.016": 0.0,
			"0.017": 0.0,
			"0.018": 0.0,
			"0.019": 0.0,
			"0.02": 0.0,
			"0.021": 0.0,
			"0.022": 0.0,
			"0.023": 0.0,
			"0.024": 0.0,
			"0.025": 0.0
		}
	}
}
