{
	 "smiles": "CC1=C(C=CC(=N1)C1=CC=CO1)C(O)=O", 
	 "Tm": 448.15, 
	 "num_atms": 24, 
	 "gaussian": { 
		 "optdone": 1, 
		 "sigma_profile": "yes", 
		 "theory": "DFT", 
		 "functional": "B3LYP", 
		 "basiset": "6-31G**", 
		 "properties": { 
			 "R2extent": 4333.7853, 
			 "electric_dipole_moment_norm": 4.52625940375, 
			 "electric_quadrupole_moment_norm": 12.3796481267, 
			 "total_energy": -705.003773705, 
			 "HOMO_LUMO_gap": 0.15535, 
			 "cosmo_polarized_energy": -16.83, 
			 "cosmo_cavitation_energy": 28.96, 
			 "cosmo_dispersion_energy": -21.39, 
			 "cosmo_repulsion_energy": 1.64, 
			 "cosmo_total_nonelectrostatic_energy": 9.22, 
			 "SMD_solvation_energy": 5.85 
		},
		"coords": [
			{
				"x": 0.9802484678,
				"y": 2.1036339879,
				"z": 0.3170703528,
				"element": "C" 
			},
			{
				"x": 0.2508267115,
				"y": 0.8222189344,
				"z": -0.0334042714,
				"element": "C" 
			},
			{
				"x": 0.8113468709,
				"y": -0.469924713,
				"z": 0.0887873939,
				"element": "C" 
			},
			{
				"x": 0.0370103705,
				"y": -1.5570957237,
				"z": -0.3493719148,
				"element": "C" 
			},
			{
				"x": -1.2417449014,
				"y": -1.3553197436,
				"z": -0.8308524306,
				"element": "C" 
			},
			{
				"x": -1.7326936257,
				"y": -0.0371151935,
				"z": -0.8835110002,
				"element": "C" 
			},
			{
				"x": -0.9865574249,
				"y": 1.0152721233,
				"z": -0.5072090743,
				"element": "N" 
			},
			{
				"x": -3.0807109452,
				"y": 0.2355291434,
				"z": -1.3654578888,
				"element": "C" 
			},
			{
				"x": -4.0969144116,
				"y": -0.5793160517,
				"z": -1.8069838224,
				"element": "C" 
			},
			{
				"x": -5.1879656617,
				"y": 0.2728904312,
				"z": -2.1460263062,
				"element": "C" 
			},
			{
				"x": -4.7621306569,
				"y": 1.5439366875,
				"z": -1.8876545826,
				"element": "C" 
			},
			{
				"x": -3.4919620357,
				"y": 1.5391408193,
				"z": -1.4154185328,
				"element": "O" 
			},
			{
				"x": 2.1822823684,
				"y": -0.8163391405,
				"z": 0.5918740091,
				"element": "C" 
			},
			{
				"x": 2.798339254,
				"y": 0.0527270178,
				"z": 1.4345927616,
				"element": "O" 
			},
			{
				"x": 2.7421074794,
				"y": -1.8452991662,
				"z": 0.2884803086,
				"element": "O" 
			},
			{
				"x": 2.0295703626,
				"y": 2.0918232683,
				"z": 0.0104756755,
				"element": "H" 
			},
			{
				"x": 0.9350279381,
				"y": 2.3157226497,
				"z": 1.3959766614,
				"element": "H" 
			},
			{
				"x": 0.4717012525,
				"y": 2.931588893,
				"z": -0.1782527364,
				"element": "H" 
			},
			{
				"x": 0.473363847,
				"y": -2.5489094457,
				"z": -0.299983654,
				"element": "H" 
			},
			{
				"x": -1.8469531957,
				"y": -2.1909105282,
				"z": -1.1644691476,
				"element": "H" 
			},
			{
				"x": -4.0720038471,
				"y": -1.6568165575,
				"z": -1.8802824224,
				"element": "H" 
			},
			{
				"x": -6.1550349517,
				"y": -0.0191919293,
				"z": -2.5286538431,
				"element": "H" 
			},
			{
				"x": -5.2241695421,
				"y": 2.5144672663,
				"z": -1.9835816346,
				"element": "H" 
			},
			{
				"x": 2.2026162769,
				"y": 0.7715869706,
				"z": 1.6831560994,
				"element": "H" 
			}
		],
		 "valence_orbital": [ 
			{
				"type": "occ",
				"energy": -0.29405,
				"method": "rhf"
			},
			{
				"type": "occ",
				"energy": -0.28375,
				"method": "rhf"
			},
			{
				"type": "occ",
				"energy": -0.28022,
				"method": "rhf"
			},
			{
				"type": "occ",
				"energy": -0.2604,
				"method": "rhf"
			},
			{
				"type": "occ",
				"energy": -0.22402,
				"method": "rhf"
			},
			{
				"type": "unocc",
				"energy": -0.06867,
				"method": "rhf"
			},
			{
				"type": "unocc",
				"energy": -0.03119,
				"method": "rhf"
			},
			{
				"type": "unocc",
				"energy": 0.00657,
				"method": "rhf"
			},
			{
				"type": "unocc",
				"energy": 0.04253,
				"method": "rhf"
			},
			{
				"type": "unocc",
				"energy": 0.06281,
				"method": "rhf"
			}
		],
		"cosmo_sigma_profile": { 
			"-0.025": 0.0,
			"-0.024": 0.0,
			"-0.023": 0.0,
			"-0.022": 0.0,
			"-0.021": 0.0,
			"-0.02": 0.0,
			"-0.019": 0.0,
			"-0.018": 0.0,
			"-0.017": 0.514999660025,
			"-0.016": 0.99717776299,
			"-0.015": 1.46648817111,
			"-0.014": 0.835005349859,
			"-0.013": 0.436254641766,
			"-0.012": 1.04311104931,
			"-0.011": 1.4310946975,
			"-0.01": 1.22782077426,
			"-0.009": 4.73388303062,
			"-0.008": 6.83010783831,
			"-0.007": 9.23646877624,
			"-0.006": 12.7928235554,
			"-0.005": 13.4847511176,
			"-0.004": 13.2594211365,
			"-0.003": 14.2295241758,
			"-0.002": 13.6255686943,
			"-0.001": 15.1290910694,
			"0.0": 19.0544701723,
			"0.001": 19.467403247,
			"0.002": 16.43386523,
			"0.003": 10.4002747469,
			"0.004": 10.5614728645,
			"0.005": 6.11079210204,
			"0.006": 4.18307862726,
			"0.007": 3.42541501051,
			"0.008": 4.50854450699,
			"0.009": 4.63464720537,
			"0.01": 6.24275135107,
			"0.011": 6.37981293376,
			"0.012": 5.51478193282,
			"0.013": 2.639447342,
			"0.014": 0.964058178216,
			"0.015": 0.8622753125,
			"0.016": 0.292091697773,
			"0.017": 0.0,
			"0.018": 0.0,
			"0.019": 0.0,
			"0.02": 0.0,
			"0.021": 0.0,
			"0.022": 0.0,
			"0.023": 0.0,
			"0.024": 0.0,
			"0.025": 0.0
		}
	}
}
