{
	 "smiles": "NC(=O)C1=C(N)C=C(Cl)C=C1", 
	 "Tm": 453.15, 
	 "num_atms": 18, 
	 "gaussian": { 
		 "optdone": 1, 
		 "sigma_profile": "yes", 
		 "theory": "DFT", 
		 "functional": "B3LYP", 
		 "basiset": "6-31G**", 
		 "properties": { 
			 "R2extent": 4140.6988, 
			 "electric_dipole_moment_norm": 3.94047767282, 
			 "electric_quadrupole_moment_norm": 6.18247849976, 
			 "total_energy": -915.90813969, 
			 "HOMO_LUMO_gap": 0.18637, 
			 "cosmo_polarized_energy": -14.8, 
			 "cosmo_cavitation_energy": 23.79, 
			 "cosmo_dispersion_energy": -18.11, 
			 "cosmo_repulsion_energy": 1.46, 
			 "cosmo_total_nonelectrostatic_energy": 7.14, 
			 "SMD_solvation_energy": 4.68 
		},
		"coords": [
			{
				"x": -0.1471626457,
				"y": -0.6814910505,
				"z": 1.3876060019,
				"element": "N" 
			},
			{
				"x": 0.3212179268,
				"y": -1.5958895764,
				"z": 0.4601623306,
				"element": "C" 
			},
			{
				"x": -0.0668602546,
				"y": -2.757485648,
				"z": 0.469879502,
				"element": "O" 
			},
			{
				"x": 1.3105409495,
				"y": -1.0994530545,
				"z": -0.5532659922,
				"element": "C" 
			},
			{
				"x": 1.5216498459,
				"y": 0.2576737323,
				"z": -0.906193973,
				"element": "C" 
			},
			{
				"x": 0.8011950002,
				"y": 1.3059290376,
				"z": -0.3247333511,
				"element": "N" 
			},
			{
				"x": 2.5173020481,
				"y": 0.5660802877,
				"z": -1.8507369652,
				"element": "C" 
			},
			{
				"x": 3.2696937161,
				"y": -0.4459126811,
				"z": -2.4313535594,
				"element": "C" 
			},
			{
				"x": 4.5073857803,
				"y": -0.015342021,
				"z": -3.6018044631,
				"element": "Cl" 
			},
			{
				"x": 3.0564424049,
				"y": -1.7902435515,
				"z": -2.1215622191,
				"element": "C" 
			},
			{
				"x": 2.0707096326,
				"y": -2.0906127591,
				"z": -1.1912270893,
				"element": "C" 
			},
			{
				"x": -0.6599353756,
				"y": -1.1084570481,
				"z": 2.148049656,
				"element": "H" 
			},
			{
				"x": 0.4358237845,
				"y": 0.110297384,
				"z": 1.6280269943,
				"element": "H" 
			},
			{
				"x": -0.1619852572,
				"y": 1.087148036,
				"z": -0.1003701442,
				"element": "H" 
			},
			{
				"x": 0.8846513184,
				"y": 2.1844483932,
				"z": -0.8192786922,
				"element": "H" 
			},
			{
				"x": 2.6921043576,
				"y": 1.5993255033,
				"z": -2.1332117449,
				"element": "H" 
			},
			{
				"x": 3.6444710523,
				"y": -2.5674127285,
				"z": -2.5945299451,
				"element": "H" 
			},
			{
				"x": 1.8614557158,
				"y": -3.1204022554,
				"z": -0.9222563459,
				"element": "H" 
			}
		],
		 "valence_orbital": [ 
			{
				"type": "occ",
				"energy": -0.31053,
				"method": "rhf"
			},
			{
				"type": "occ",
				"energy": -0.27883,
				"method": "rhf"
			},
			{
				"type": "occ",
				"energy": -0.25861,
				"method": "rhf"
			},
			{
				"type": "occ",
				"energy": -0.24966,
				"method": "rhf"
			},
			{
				"type": "occ",
				"energy": -0.22628,
				"method": "rhf"
			},
			{
				"type": "unocc",
				"energy": -0.03991,
				"method": "rhf"
			},
			{
				"type": "unocc",
				"energy": -0.0052,
				"method": "rhf"
			},
			{
				"type": "unocc",
				"energy": 0.02743,
				"method": "rhf"
			},
			{
				"type": "unocc",
				"energy": 0.04944,
				"method": "rhf"
			},
			{
				"type": "unocc",
				"energy": 0.07233,
				"method": "rhf"
			}
		],
		"cosmo_sigma_profile": { 
			"-0.025": 0.0,
			"-0.024": 0.0,
			"-0.023": 0.0,
			"-0.022": 0.0,
			"-0.021": 0.0,
			"-0.02": 0.0,
			"-0.019": 0.0,
			"-0.018": 0.0,
			"-0.017": 0.0,
			"-0.016": 0.0,
			"-0.015": 0.0,
			"-0.014": 0.50105032567,
			"-0.013": 2.63569376162,
			"-0.012": 4.14358005762,
			"-0.011": 4.06474208952,
			"-0.01": 5.20064161707,
			"-0.009": 4.98504703311,
			"-0.008": 4.59809451602,
			"-0.007": 5.82067841048,
			"-0.006": 7.02954395347,
			"-0.005": 7.77818536171,
			"-0.004": 6.93063759955,
			"-0.003": 8.02986939848,
			"-0.002": 8.22931485518,
			"-0.001": 9.69718574533,
			"0.0": 10.1504070295,
			"0.001": 13.6202293769,
			"0.002": 17.0483762666,
			"0.003": 20.908642652,
			"0.004": 19.5914292652,
			"0.005": 8.22318664139,
			"0.006": 2.55625310637,
			"0.007": 2.41345349347,
			"0.008": 2.3889775068,
			"0.009": 1.35228354169,
			"0.01": 1.83715502507,
			"0.011": 1.54835419805,
			"0.012": 2.30798951832,
			"0.013": 4.76358312929,
			"0.014": 3.32786035046,
			"0.015": 0.133179695179,
			"0.016": 0.0,
			"0.017": 0.0,
			"0.018": 0.0,
			"0.019": 0.0,
			"0.02": 0.0,
			"0.021": 0.0,
			"0.022": 0.0,
			"0.023": 0.0,
			"0.024": 0.0,
			"0.025": 0.0
		}
	}
}
