{
	 "smiles": "O=C1NCCN1C1=NC=C(S1)N(=O)=O", 
	 "Tm": 534.15, 
	 "num_atms": 20, 
	 "gaussian": { 
		 "optdone": 1, 
		 "sigma_profile": "yes", 
		 "theory": "DFT", 
		 "functional": "B3LYP", 
		 "basiset": "6-31G**", 
		 "properties": { 
			 "R2extent": 4041.2835, 
			 "electric_dipole_moment_norm": 9.15343005326, 
			 "electric_quadrupole_moment_norm": 15.0813421866, 
			 "total_energy": -1075.02548384, 
			 "HOMO_LUMO_gap": 0.15359, 
			 "cosmo_polarized_energy": -18.84, 
			 "cosmo_cavitation_energy": 26.77, 
			 "cosmo_dispersion_energy": -20.71, 
			 "cosmo_repulsion_energy": 1.59, 
			 "cosmo_total_nonelectrostatic_energy": 7.65, 
			 "SMD_solvation_energy": 5.05 
		},
		"coords": [
			{
				"x": 2.1317711856,
				"y": -2.4632102589,
				"z": -1.1707021297,
				"element": "O" 
			},
			{
				"x": 1.025760033,
				"y": -2.1500715636,
				"z": -1.5729149904,
				"element": "C" 
			},
			{
				"x": 0.2811147965,
				"y": -2.7272445177,
				"z": -2.5722180289,
				"element": "N" 
			},
			{
				"x": -0.8622688038,
				"y": -1.9040954925,
				"z": -2.9545956533,
				"element": "C" 
			},
			{
				"x": -1.0717144496,
				"y": -1.0331211149,
				"z": -1.694601587,
				"element": "C" 
			},
			{
				"x": 0.2472304932,
				"y": -1.0990547816,
				"z": -1.0590252749,
				"element": "N" 
			},
			{
				"x": 0.580767577,
				"y": -0.35267469,
				"z": 0.0371713776,
				"element": "C" 
			},
			{
				"x": -0.2533252508,
				"y": 0.5495232325,
				"z": 0.5179942121,
				"element": "N" 
			},
			{
				"x": 0.3039644283,
				"y": 1.1733047313,
				"z": 1.5935659127,
				"element": "C" 
			},
			{
				"x": 1.5593487419,
				"y": 0.7448607924,
				"z": 1.9277476191,
				"element": "C" 
			},
			{
				"x": 2.1259641943,
				"y": -0.5243200438,
				"z": 0.8616634948,
				"element": "S" 
			},
			{
				"x": 2.3661627021,
				"y": 1.2198703063,
				"z": 3.0018111854,
				"element": "N" 
			},
			{
				"x": 1.9014492889,
				"y": 2.1152702242,
				"z": 3.7129804347,
				"element": "O" 
			},
			{
				"x": 3.4785824086,
				"y": 0.6978868315,
				"z": 3.1426687289,
				"element": "O" 
			},
			{
				"x": 0.7615299404,
				"y": -3.3251277588,
				"z": -3.2280878239,
				"element": "H" 
			},
			{
				"x": -0.6395635619,
				"y": -1.2829880229,
				"z": -3.8323055341,
				"element": "H" 
			},
			{
				"x": -1.7417265718,
				"y": -2.5141319499,
				"z": -3.1752609613,
				"element": "H" 
			},
			{
				"x": -1.3411732349,
				"y": -0.001119929,
				"z": -1.9224021726,
				"element": "H" 
			},
			{
				"x": -1.8321920347,
				"y": -1.4487851951,
				"z": -1.0246760537,
				"element": "H" 
			},
			{
				"x": -0.2364818822,
				"y": 1.9473292006,
				"z": 2.1231872445,
				"element": "H" 
			}
		],
		 "valence_orbital": [ 
			{
				"type": "occ",
				"energy": -0.29622,
				"method": "rhf"
			},
			{
				"type": "occ",
				"energy": -0.29272,
				"method": "rhf"
			},
			{
				"type": "occ",
				"energy": -0.28759,
				"method": "rhf"
			},
			{
				"type": "occ",
				"energy": -0.28113,
				"method": "rhf"
			},
			{
				"type": "occ",
				"energy": -0.24114,
				"method": "rhf"
			},
			{
				"type": "unocc",
				"energy": -0.08755,
				"method": "rhf"
			},
			{
				"type": "unocc",
				"energy": -0.01849,
				"method": "rhf"
			},
			{
				"type": "unocc",
				"energy": 0.01203,
				"method": "rhf"
			},
			{
				"type": "unocc",
				"energy": 0.03292,
				"method": "rhf"
			},
			{
				"type": "unocc",
				"energy": 0.05256,
				"method": "rhf"
			}
		],
		"cosmo_sigma_profile": { 
			"-0.025": 0.0,
			"-0.024": 0.0,
			"-0.023": 0.0,
			"-0.022": 0.0,
			"-0.021": 0.0,
			"-0.02": 0.0,
			"-0.019": 0.0,
			"-0.018": 0.0,
			"-0.017": 0.0,
			"-0.016": 0.352298567445,
			"-0.015": 1.48914968224,
			"-0.014": 1.05987873321,
			"-0.013": 1.3448247462,
			"-0.012": 1.11086284793,
			"-0.011": 0.859751824525,
			"-0.01": 1.64814055917,
			"-0.009": 2.4252937691,
			"-0.008": 2.87053497148,
			"-0.007": 11.5858133262,
			"-0.006": 19.5424682817,
			"-0.005": 17.125565956,
			"-0.004": 13.9821771882,
			"-0.003": 12.4845062273,
			"-0.002": 13.630171556,
			"-0.001": 11.345938541,
			"0.0": 9.52553748922,
			"0.001": 10.1817176257,
			"0.002": 10.9980538885,
			"0.003": 8.14275483984,
			"0.004": 5.99660641979,
			"0.005": 6.5317261815,
			"0.006": 6.29179291359,
			"0.007": 9.04538316181,
			"0.008": 13.5225256716,
			"0.009": 7.79888641762,
			"0.01": 6.37934945999,
			"0.011": 4.15398873159,
			"0.012": 3.9314838033,
			"0.013": 0.856664751203,
			"0.014": 0.0,
			"0.015": 0.0,
			"0.016": 0.0,
			"0.017": 0.0,
			"0.018": 0.0,
			"0.019": 0.0,
			"0.02": 0.0,
			"0.021": 0.0,
			"0.022": 0.0,
			"0.023": 0.0,
			"0.024": 0.0,
			"0.025": 0.0
		}
	}
}
