{
	 "smiles": "CC1=CC2=C(C=C1)C(C)=CC(Cl)=N2", 
	 "Tm": 323.15, 
	 "num_atms": 23, 
	 "gaussian": { 
		 "optdone": 1, 
		 "sigma_profile": "yes", 
		 "theory": "DFT", 
		 "functional": "B3LYP", 
		 "basiset": "6-31G**", 
		 "properties": { 
			 "R2extent": 4101.4234, 
			 "electric_dipole_moment_norm": 4.22083427417, 
			 "electric_quadrupole_moment_norm": 13.6114757705, 
			 "total_energy": -940.168878937, 
			 "HOMO_LUMO_gap": 0.17946, 
			 "cosmo_polarized_energy": -7.94, 
			 "cosmo_cavitation_energy": 28.22, 
			 "cosmo_dispersion_energy": -21.0, 
			 "cosmo_repulsion_energy": 1.65, 
			 "cosmo_total_nonelectrostatic_energy": 8.87, 
			 "SMD_solvation_energy": 2.93 
		},
		"coords": [
			{
				"x": 1.087719606,
				"y": -4.2532899203,
				"z": 2.8955938409,
				"element": "C" 
			},
			{
				"x": 0.7598957596,
				"y": -2.9638927378,
				"z": 2.1833885976,
				"element": "C" 
			},
			{
				"x": 1.0351249403,
				"y": -1.7343844653,
				"z": 2.7487615336,
				"element": "C" 
			},
			{
				"x": 0.7260160557,
				"y": -0.5252545439,
				"z": 2.0766892339,
				"element": "C" 
			},
			{
				"x": 0.1158144862,
				"y": -0.5698821788,
				"z": 0.7849862478,
				"element": "C" 
			},
			{
				"x": -0.1595637334,
				"y": -1.8423649326,
				"z": 0.2197211559,
				"element": "C" 
			},
			{
				"x": 0.1530080791,
				"y": -2.9987450025,
				"z": 0.8983170346,
				"element": "C" 
			},
			{
				"x": -0.1817408298,
				"y": 0.6718287511,
				"z": 0.1370779239,
				"element": "C" 
			},
			{
				"x": -0.8245268929,
				"y": 0.7106531411,
				"z": -1.2252505157,
				"element": "C" 
			},
			{
				"x": 0.1384214004,
				"y": 1.8376941009,
				"z": 0.7985188064,
				"element": "C" 
			},
			{
				"x": 0.7418721921,
				"y": 1.7500413619,
				"z": 2.0774941161,
				"element": "C" 
			},
			{
				"x": 1.134731545,
				"y": 3.2730687513,
				"z": 2.8884892867,
				"element": "Cl" 
			},
			{
				"x": 1.0311541357,
				"y": 0.6521035152,
				"z": 2.7060334187,
				"element": "N" 
			},
			{
				"x": 1.7793835387,
				"y": -4.8662552442,
				"z": 2.3058392393,
				"element": "H" 
			},
			{
				"x": 1.5487638028,
				"y": -4.0665814589,
				"z": 3.8686145947,
				"element": "H" 
			},
			{
				"x": 0.1862235891,
				"y": -4.8554648715,
				"z": 3.0587039009,
				"element": "H" 
			},
			{
				"x": 1.4978479382,
				"y": -1.6539343275,
				"z": 3.7275367378,
				"element": "H" 
			},
			{
				"x": -0.622403491,
				"y": -1.9046541022,
				"z": -0.7599340942,
				"element": "H" 
			},
			{
				"x": -0.0671918249,
				"y": -3.9623578565,
				"z": 0.4454925424,
				"element": "H" 
			},
			{
				"x": -0.2042475549,
				"y": 0.2014633783,
				"z": -1.9714658622,
				"element": "H" 
			},
			{
				"x": -0.976332447,
				"y": 1.7400393754,
				"z": -1.5575681603,
				"element": "H" 
			},
			{
				"x": -1.7988415511,
				"y": 0.2091831914,
				"z": -1.2190254135,
				"element": "H" 
			},
			{
				"x": -0.0617287438,
				"y": 2.8088860753,
				"z": 0.3610858347,
				"element": "H" 
			}
		],
		 "valence_orbital": [ 
			{
				"type": "occ",
				"energy": -0.30705,
				"method": "rhf"
			},
			{
				"type": "occ",
				"energy": -0.29878,
				"method": "rhf"
			},
			{
				"type": "occ",
				"energy": -0.26834,
				"method": "rhf"
			},
			{
				"type": "occ",
				"energy": -0.24417,
				"method": "rhf"
			},
			{
				"type": "occ",
				"energy": -0.23464,
				"method": "rhf"
			},
			{
				"type": "unocc",
				"energy": -0.05518,
				"method": "rhf"
			},
			{
				"type": "unocc",
				"energy": -0.02218,
				"method": "rhf"
			},
			{
				"type": "unocc",
				"energy": 0.01827,
				"method": "rhf"
			},
			{
				"type": "unocc",
				"energy": 0.03938,
				"method": "rhf"
			},
			{
				"type": "unocc",
				"energy": 0.07737,
				"method": "rhf"
			}
		],
		"cosmo_sigma_profile": { 
			"-0.025": 0.0,
			"-0.024": 0.0,
			"-0.023": 0.0,
			"-0.022": 0.0,
			"-0.021": 0.0,
			"-0.02": 0.0,
			"-0.019": 0.0,
			"-0.018": 0.0,
			"-0.017": 0.0,
			"-0.016": 0.0,
			"-0.015": 0.0,
			"-0.014": 0.0,
			"-0.013": 0.0,
			"-0.012": 0.0,
			"-0.011": 0.0,
			"-0.01": 0.0,
			"-0.009": 0.0,
			"-0.008": 0.223621975107,
			"-0.007": 2.57603777583,
			"-0.006": 7.51298261375,
			"-0.005": 17.4242865516,
			"-0.004": 19.8532110986,
			"-0.003": 19.5897788131,
			"-0.002": 17.8968648981,
			"-0.001": 21.7776652469,
			"0.0": 25.3276212884,
			"0.001": 19.5044074644,
			"0.002": 16.8109167383,
			"0.003": 18.3868905297,
			"0.004": 18.1788060303,
			"0.005": 8.86914931777,
			"0.006": 3.4306571988,
			"0.007": 2.63003162653,
			"0.008": 1.28410754285,
			"0.009": 1.24741991821,
			"0.01": 1.03341621858,
			"0.011": 1.23769836167,
			"0.012": 0.959646236437,
			"0.013": 0.752271770424,
			"0.014": 0.847211442174,
			"0.015": 0.125303900464,
			"0.016": 0.0,
			"0.017": 0.0,
			"0.018": 0.0,
			"0.019": 0.0,
			"0.02": 0.0,
			"0.021": 0.0,
			"0.022": 0.0,
			"0.023": 0.0,
			"0.024": 0.0,
			"0.025": 0.0
		}
	}
}
