{
	 "smiles": "CC1=NN(C(C)=C1)C1=C(N)C=C(C=C1)C(F)(F)F", 
	 "Tm": 359.15, 
	 "num_atms": 30, 
	 "gaussian": { 
		 "optdone": 1, 
		 "sigma_profile": "yes", 
		 "theory": "DFT", 
		 "functional": "B3LYP", 
		 "basiset": "6-31G**", 
		 "properties": { 
			 "R2extent": 7049.8247, 
			 "electric_dipole_moment_norm": 3.27713109594, 
			 "electric_quadrupole_moment_norm": 12.4527639888, 
			 "total_energy": -928.290154179, 
			 "HOMO_LUMO_gap": 0.19009, 
			 "cosmo_polarized_energy": -11.33, 
			 "cosmo_cavitation_energy": 35.27, 
			 "cosmo_dispersion_energy": -24.41, 
			 "cosmo_repulsion_energy": 1.85, 
			 "cosmo_total_nonelectrostatic_energy": 12.71, 
			 "SMD_solvation_energy": 6.81 
		},
		"coords": [
			{
				"x": 3.1529001788,
				"y": -1.0336243215,
				"z": -1.6697416179,
				"element": "C" 
			},
			{
				"x": 1.856749766,
				"y": -1.1641542046,
				"z": -0.9283962527,
				"element": "C" 
			},
			{
				"x": 1.0637855583,
				"y": -0.1072237846,
				"z": -0.7717756515,
				"element": "N" 
			},
			{
				"x": -0.0179329605,
				"y": -0.5760685407,
				"z": -0.075801815,
				"element": "N" 
			},
			{
				"x": 0.0972762682,
				"y": -1.9137791559,
				"z": 0.2269210486,
				"element": "C" 
			},
			{
				"x": -0.9186413148,
				"y": -2.6611670034,
				"z": 1.0308955702,
				"element": "C" 
			},
			{
				"x": 1.2963894876,
				"y": -2.3195223057,
				"z": -0.3242638887,
				"element": "C" 
			},
			{
				"x": -1.0347365338,
				"y": 0.3323770683,
				"z": 0.3402456089,
				"element": "C" 
			},
			{
				"x": -2.3346718641,
				"y": 0.2265471936,
				"z": -0.2006946032,
				"element": "C" 
			},
			{
				"x": -2.6513330492,
				"y": -0.778060001,
				"z": -1.1091766265,
				"element": "N" 
			},
			{
				"x": -3.3078867127,
				"y": 1.1399184974,
				"z": 0.2351574888,
				"element": "C" 
			},
			{
				"x": -2.9857543453,
				"y": 2.1391847579,
				"z": 1.1496385477,
				"element": "C" 
			},
			{
				"x": -1.6875508343,
				"y": 2.2606032729,
				"z": 1.6544602004,
				"element": "C" 
			},
			{
				"x": -0.7206992157,
				"y": 1.3494007189,
				"z": 1.2418440145,
				"element": "C" 
			},
			{
				"x": -4.0639041667,
				"y": 3.0690357038,
				"z": 1.6389358713,
				"element": "C" 
			},
			{
				"x": -5.0552223376,
				"y": 3.2213222303,
				"z": 0.7314844887,
				"element": "F" 
			},
			{
				"x": -4.6403789284,
				"y": 2.6075875421,
				"z": 2.7737915212,
				"element": "F" 
			},
			{
				"x": -3.5786987535,
				"y": 4.2981890539,
				"z": 1.9194138721,
				"element": "F" 
			},
			{
				"x": 3.1750099814,
				"y": -1.6774663885,
				"z": -2.5563705804,
				"element": "H" 
			},
			{
				"x": 4.0031723511,
				"y": -1.3189028671,
				"z": -1.0400797498,
				"element": "H" 
			},
			{
				"x": 3.2934517358,
				"y": 0.000590632,
				"z": -1.9915914951,
				"element": "H" 
			},
			{
				"x": -1.891353681,
				"y": -2.6901415069,
				"z": 0.5284929717,
				"element": "H" 
			},
			{
				"x": -0.5789793233,
				"y": -3.6869607271,
				"z": 1.1895251556,
				"element": "H" 
			},
			{
				"x": -1.0709661468,
				"y": -2.1982453798,
				"z": 2.0123785538,
				"element": "H" 
			},
			{
				"x": 1.7151565686,
				"y": -3.3152156402,
				"z": -0.2846579235,
				"element": "H" 
			},
			{
				"x": -3.4624536332,
				"y": -0.5926503339,
				"z": -1.6828921461,
				"element": "H" 
			},
			{
				"x": -1.8659855824,
				"y": -1.1207727117,
				"z": -1.6478226157,
				"element": "H" 
			},
			{
				"x": -4.3151124402,
				"y": 1.0794609765,
				"z": -0.1643037426,
				"element": "H" 
			},
			{
				"x": -1.4410328499,
				"y": 3.0533540906,
				"z": 2.3506799122,
				"element": "H" 
			},
			{
				"x": 0.2995027776,
				"y": 1.4159831342,
				"z": 1.6039038833,
				"element": "H" 
			}
		],
		 "valence_orbital": [ 
			{
				"type": "occ",
				"energy": -0.28035,
				"method": "rhf"
			},
			{
				"type": "occ",
				"energy": -0.27327,
				"method": "rhf"
			},
			{
				"type": "occ",
				"energy": -0.24096,
				"method": "rhf"
			},
			{
				"type": "occ",
				"energy": -0.23483,
				"method": "rhf"
			},
			{
				"type": "occ",
				"energy": -0.22077,
				"method": "rhf"
			},
			{
				"type": "unocc",
				"energy": -0.03068,
				"method": "rhf"
			},
			{
				"type": "unocc",
				"energy": -0.00537,
				"method": "rhf"
			},
			{
				"type": "unocc",
				"energy": 0.02303,
				"method": "rhf"
			},
			{
				"type": "unocc",
				"energy": 0.07023,
				"method": "rhf"
			},
			{
				"type": "unocc",
				"energy": 0.07445,
				"method": "rhf"
			}
		],
		"cosmo_sigma_profile": { 
			"-0.025": 0.0,
			"-0.024": 0.0,
			"-0.023": 0.0,
			"-0.022": 0.0,
			"-0.021": 0.0,
			"-0.02": 0.0,
			"-0.019": 0.0,
			"-0.018": 0.0,
			"-0.017": 0.0,
			"-0.016": 0.0,
			"-0.015": 0.0,
			"-0.014": 0.220645214103,
			"-0.013": 1.80101657585,
			"-0.012": 1.98103116258,
			"-0.011": 3.00252865992,
			"-0.01": 2.23842980758,
			"-0.009": 3.12180659223,
			"-0.008": 2.53562677438,
			"-0.007": 4.54383830874,
			"-0.006": 7.19373121986,
			"-0.005": 11.8718810403,
			"-0.004": 16.8376189788,
			"-0.003": 17.9960040735,
			"-0.002": 22.0255742185,
			"-0.001": 26.8477780895,
			"0.0": 24.2994715616,
			"0.001": 21.1983894978,
			"0.002": 28.7119995658,
			"0.003": 45.0684066544,
			"0.004": 13.9452625093,
			"0.005": 6.18674220457,
			"0.006": 4.86077153468,
			"0.007": 3.04885703771,
			"0.008": 1.76546817738,
			"0.009": 1.87365091506,
			"0.01": 1.61279705293,
			"0.011": 1.30241665832,
			"0.012": 0.982938176225,
			"0.013": 0.694153562572,
			"0.014": 0.967839063739,
			"0.015": 1.02405613755,
			"0.016": 0.705894503047,
			"0.017": 0.233239234327,
			"0.018": 0.0,
			"0.019": 0.0,
			"0.02": 0.0,
			"0.021": 0.0,
			"0.022": 0.0,
			"0.023": 0.0,
			"0.024": 0.0,
			"0.025": 0.0
		}
	}
}
