{
	 "smiles": "CCCCCCC1=CC2=CC=CC=C2C=C1", 
	 "Tm": 270.15, 
	 "num_atms": 36, 
	 "gaussian": { 
		 "optdone": 1, 
		 "sigma_profile": "yes", 
		 "theory": "DFT", 
		 "functional": "B3LYP", 
		 "basiset": "6-31G**", 
		 "properties": { 
			 "R2extent": 6023.4602, 
			 "electric_dipole_moment_norm": 0.379376923389, 
			 "electric_quadrupole_moment_norm": 8.02084230801, 
			 "total_energy": -621.788243988, 
			 "HOMO_LUMO_gap": 0.17409, 
			 "cosmo_polarized_energy": -4.57, 
			 "cosmo_cavitation_energy": 37.05, 
			 "cosmo_dispersion_energy": -26.17, 
			 "cosmo_repulsion_energy": 2.03, 
			 "cosmo_total_nonelectrostatic_energy": 12.92, 
			 "SMD_solvation_energy": 5.23 
		},
		"coords": [
			{
				"x": 0.036141737,
				"y": -5.521527463,
				"z": 0.757201253,
				"element": "C" 
			},
			{
				"x": -0.9950411141,
				"y": -4.5613139055,
				"z": 1.3610501432,
				"element": "C" 
			},
			{
				"x": -1.0624113243,
				"y": -3.1660306523,
				"z": 0.7136799392,
				"element": "C" 
			},
			{
				"x": 0.2198752295,
				"y": -2.3109291853,
				"z": 0.8479407144,
				"element": "C" 
			},
			{
				"x": 1.19682614,
				"y": -2.3761418385,
				"z": -0.3408313235,
				"element": "C" 
			},
			{
				"x": 0.706401582,
				"y": -1.6780128219,
				"z": -1.6322530282,
				"element": "C" 
			},
			{
				"x": 0.544545211,
				"y": -0.1770304421,
				"z": -1.5024327501,
				"element": "C" 
			},
			{
				"x": 1.6349662737,
				"y": 0.6667137017,
				"z": -1.6011177925,
				"element": "C" 
			},
			{
				"x": 1.5125407762,
				"y": 2.0738116896,
				"z": -1.4586683524,
				"element": "C" 
			},
			{
				"x": 2.6296490666,
				"y": 2.94790333,
				"z": -1.5600068586,
				"element": "C" 
			},
			{
				"x": 2.4768030368,
				"y": 4.3085387242,
				"z": -1.4177828105,
				"element": "C" 
			},
			{
				"x": 1.1964499078,
				"y": 4.8633225809,
				"z": -1.1685805192,
				"element": "C" 
			},
			{
				"x": 0.0943649169,
				"y": 4.0446803947,
				"z": -1.0668265901,
				"element": "C" 
			},
			{
				"x": 0.2183834766,
				"y": 2.6359529777,
				"z": -1.2074089815,
				"element": "C" 
			},
			{
				"x": -0.8929274972,
				"y": 1.7572611967,
				"z": -1.1138031147,
				"element": "C" 
			},
			{
				"x": -0.7338255215,
				"y": 0.3976274356,
				"z": -1.2574461027,
				"element": "C" 
			},
			{
				"x": 1.0599771567,
				"y": -5.1580864098,
				"z": 0.891997857,
				"element": "H" 
			},
			{
				"x": -0.0241049257,
				"y": -6.5076601903,
				"z": 1.2300751389,
				"element": "H" 
			},
			{
				"x": -0.1295033468,
				"y": -5.6592708138,
				"z": -0.3178113233,
				"element": "H" 
			},
			{
				"x": -0.7907692594,
				"y": -4.4424125427,
				"z": 2.4341712496,
				"element": "H" 
			},
			{
				"x": -1.9894653092,
				"y": -5.0218169023,
				"z": 1.2934533094,
				"element": "H" 
			},
			{
				"x": -1.3332369023,
				"y": -3.2755386953,
				"z": -0.3456676367,
				"element": "H" 
			},
			{
				"x": -1.8986817948,
				"y": -2.627238712,
				"z": 1.1764167089,
				"element": "H" 
			},
			{
				"x": -0.0571227289,
				"y": -1.2617111307,
				"z": 1.0037822043,
				"element": "H" 
			},
			{
				"x": 0.7533537942,
				"y": -2.6126636598,
				"z": 1.7592934755,
				"element": "H" 
			},
			{
				"x": 2.1466063867,
				"y": -1.9134361087,
				"z": -0.04351621,
				"element": "H" 
			},
			{
				"x": 1.4252395605,
				"y": -3.4207973769,
				"z": -0.5825064172,
				"element": "H" 
			},
			{
				"x": -0.24409878,
				"y": -2.1203245293,
				"z": -1.9537041937,
				"element": "H" 
			},
			{
				"x": 1.4280870261,
				"y": -1.8932558765,
				"z": -2.4295063556,
				"element": "H" 
			},
			{
				"x": 2.621879428,
				"y": 0.2517528908,
				"z": -1.7982139973,
				"element": "H" 
			},
			{
				"x": 3.611213845,
				"y": 2.5213667746,
				"z": -1.7515030819,
				"element": "H" 
			},
			{
				"x": 3.3393380458,
				"y": 4.9642351071,
				"z": -1.4964716526,
				"element": "H" 
			},
			{
				"x": 1.0892330796,
				"y": 5.9386456726,
				"z": -1.0586606737,
				"element": "H" 
			},
			{
				"x": -0.8895858201,
				"y": 4.4663662487,
				"z": -0.8766761808,
				"element": "H" 
			},
			{
				"x": -1.879071598,
				"y": 2.1766751183,
				"z": -0.929893643,
				"element": "H" 
			},
			{
				"x": -1.5994297546,
				"y": -0.2566545863,
				"z": -1.1898724034,
				"element": "H" 
			}
		],
		 "valence_orbital": [ 
			{
				"type": "occ",
				"energy": -0.30617,
				"method": "rhf"
			},
			{
				"type": "occ",
				"energy": -0.30325,
				"method": "rhf"
			},
			{
				"type": "occ",
				"energy": -0.27768,
				"method": "rhf"
			},
			{
				"type": "occ",
				"energy": -0.23467,
				"method": "rhf"
			},
			{
				"type": "occ",
				"energy": -0.20886,
				"method": "rhf"
			},
			{
				"type": "unocc",
				"energy": -0.03477,
				"method": "rhf"
			},
			{
				"type": "unocc",
				"energy": -0.00379,
				"method": "rhf"
			},
			{
				"type": "unocc",
				"energy": 0.03596,
				"method": "rhf"
			},
			{
				"type": "unocc",
				"energy": 0.08319,
				"method": "rhf"
			},
			{
				"type": "unocc",
				"energy": 0.0972,
				"method": "rhf"
			}
		],
		"cosmo_sigma_profile": { 
			"-0.025": 0.0,
			"-0.024": 0.0,
			"-0.023": 0.0,
			"-0.022": 0.0,
			"-0.021": 0.0,
			"-0.02": 0.0,
			"-0.019": 0.0,
			"-0.018": 0.0,
			"-0.017": 0.0,
			"-0.016": 0.0,
			"-0.015": 0.0,
			"-0.014": 0.0,
			"-0.013": 0.0,
			"-0.012": 0.0,
			"-0.011": 0.0,
			"-0.01": 0.0,
			"-0.009": 0.0,
			"-0.008": 0.0,
			"-0.007": 0.0,
			"-0.006": 4.19629794769,
			"-0.005": 14.5511707804,
			"-0.004": 14.9411374909,
			"-0.003": 23.9049166478,
			"-0.002": 31.8580121518,
			"-0.001": 40.518114834,
			"0.0": 44.6075117941,
			"0.001": 37.7235778427,
			"0.002": 20.3587042589,
			"0.003": 12.0239147228,
			"0.004": 16.7083913343,
			"0.005": 22.4126510802,
			"0.006": 6.73228332758,
			"0.007": 0.0,
			"0.008": 0.0,
			"0.009": 0.0,
			"0.01": 0.0,
			"0.011": 0.0,
			"0.012": 0.0,
			"0.013": 0.0,
			"0.014": 0.0,
			"0.015": 0.0,
			"0.016": 0.0,
			"0.017": 0.0,
			"0.018": 0.0,
			"0.019": 0.0,
			"0.02": 0.0,
			"0.021": 0.0,
			"0.022": 0.0,
			"0.023": 0.0,
			"0.024": 0.0,
			"0.025": 0.0
		}
	}
}
