{
	 "smiles": "COC(=C/C)C(O)=O", 
	 "Tm": 331.15, 
	 "num_atms": 16, 
	 "gaussian": { 
		 "optdone": 1, 
		 "sigma_profile": "yes", 
		 "theory": "DFT", 
		 "functional": "B3LYP", 
		 "basiset": "6-31G**", 
		 "properties": { 
			 "R2extent": 2182.6996, 
			 "electric_dipole_moment_norm": 1.65820231576, 
			 "electric_quadrupole_moment_norm": 8.40701868619, 
			 "total_energy": -421.006456146, 
			 "HOMO_LUMO_gap": 0.20883, 
			 "cosmo_polarized_energy": -9.39, 
			 "cosmo_cavitation_energy": 20.22, 
			 "cosmo_dispersion_energy": -14.63, 
			 "cosmo_repulsion_energy": 1.25, 
			 "cosmo_total_nonelectrostatic_energy": 6.84, 
			 "SMD_solvation_energy": 6.06 
		},
		"coords": [
			{
				"x": 0.4948080362,
				"y": -3.5932055893,
				"z": -0.4301065823,
				"element": "C" 
			},
			{
				"x": 0.8688536154,
				"y": -2.5727732511,
				"z": -1.3599537098,
				"element": "O" 
			},
			{
				"x": 1.3552171069,
				"y": -1.4115753041,
				"z": -0.8127200654,
				"element": "C" 
			},
			{
				"x": 0.6906206087,
				"y": -0.2483883137,
				"z": -0.9127217477,
				"element": "C" 
			},
			{
				"x": -0.6532008561,
				"y": -0.0779131714,
				"z": -1.5423250073,
				"element": "C" 
			},
			{
				"x": 2.7137600908,
				"y": -1.4181299083,
				"z": -0.1902406991,
				"element": "C" 
			},
			{
				"x": 3.3369878653,
				"y": -2.6179381961,
				"z": -0.3025406951,
				"element": "O" 
			},
			{
				"x": 3.2363463911,
				"y": -0.4658223487,
				"z": 0.3548372306,
				"element": "O" 
			},
			{
				"x": 1.3538271406,
				"y": -3.9379968319,
				"z": 0.1540404902,
				"element": "H" 
			},
			{
				"x": 0.1089095665,
				"y": -4.4216414981,
				"z": -1.0272378582,
				"element": "H" 
			},
			{
				"x": -0.291884787,
				"y": -3.2373468707,
				"z": 0.2475073756,
				"element": "H" 
			},
			{
				"x": 1.1970494923,
				"y": 0.6282555298,
				"z": -0.5190138952,
				"element": "H" 
			},
			{
				"x": -0.59660189,
				"y": 0.6178918761,
				"z": -2.3889189123,
				"element": "H" 
			},
			{
				"x": -1.0485083762,
				"y": -1.0296460809,
				"z": -1.9012709224,
				"element": "H" 
			},
			{
				"x": -1.3633804841,
				"y": 0.3592811451,
				"z": -0.8291968864,
				"element": "H" 
			},
			{
				"x": 4.2017964797,
				"y": -2.4996511867,
				"z": 0.1245618847,
				"element": "H" 
			}
		],
		 "valence_orbital": [ 
			{
				"type": "occ",
				"energy": -0.34723,
				"method": "rhf"
			},
			{
				"type": "occ",
				"energy": -0.31821,
				"method": "rhf"
			},
			{
				"type": "occ",
				"energy": -0.30172,
				"method": "rhf"
			},
			{
				"type": "occ",
				"energy": -0.26539,
				"method": "rhf"
			},
			{
				"type": "occ",
				"energy": -0.24559,
				"method": "rhf"
			},
			{
				"type": "unocc",
				"energy": -0.03676,
				"method": "rhf"
			},
			{
				"type": "unocc",
				"energy": 0.07482,
				"method": "rhf"
			},
			{
				"type": "unocc",
				"energy": 0.08762,
				"method": "rhf"
			},
			{
				"type": "unocc",
				"energy": 0.10181,
				"method": "rhf"
			},
			{
				"type": "unocc",
				"energy": 0.13161,
				"method": "rhf"
			}
		],
		"cosmo_sigma_profile": { 
			"-0.025": 0.0,
			"-0.024": 0.0,
			"-0.023": 0.0,
			"-0.022": 0.0,
			"-0.021": 0.0,
			"-0.02": 0.0,
			"-0.019": 0.0684232779431,
			"-0.018": 0.875543294032,
			"-0.017": 0.674899609517,
			"-0.016": 1.21972971018,
			"-0.015": 0.767361385376,
			"-0.014": 0.283167508563,
			"-0.013": 0.300427916153,
			"-0.012": 0.529691490965,
			"-0.011": 1.48060096845,
			"-0.01": 0.743684782645,
			"-0.009": 0.390716853993,
			"-0.008": 0.478793712883,
			"-0.007": 1.01170866224,
			"-0.006": 2.39109824713,
			"-0.005": 8.82065404232,
			"-0.004": 13.6348583585,
			"-0.003": 21.4732089819,
			"-0.002": 18.5847723208,
			"-0.001": 15.4765603825,
			"0.0": 13.0450798419,
			"0.001": 8.17457742402,
			"0.002": 7.14487920597,
			"0.003": 4.97419329903,
			"0.004": 4.26308094418,
			"0.005": 4.49830784978,
			"0.006": 3.61893347892,
			"0.007": 2.40719351193,
			"0.008": 3.89559689886,
			"0.009": 3.26108380383,
			"0.01": 4.84970832742,
			"0.011": 4.60922013732,
			"0.012": 5.37832742538,
			"0.013": 0.195876659372,
			"0.014": 0.0,
			"0.015": 0.0,
			"0.016": 0.0,
			"0.017": 0.0,
			"0.018": 0.0,
			"0.019": 0.0,
			"0.02": 0.0,
			"0.021": 0.0,
			"0.022": 0.0,
			"0.023": 0.0,
			"0.024": 0.0,
			"0.025": 0.0
		}
	}
}
