{
	 "smiles": "CC1OC(C)=C(O)C1=O", 
	 "Tm": 353.65, 
	 "num_atms": 17, 
	 "gaussian": { 
		 "optdone": 1, 
		 "sigma_profile": "yes", 
		 "theory": "DFT", 
		 "functional": "B3LYP", 
		 "basiset": "6-31G**", 
		 "properties": { 
			 "R2extent": 1602.6784, 
			 "electric_dipole_moment_norm": 2.11965638961, 
			 "electric_quadrupole_moment_norm": 6.357642545, 
			 "total_energy": -459.114508816, 
			 "HOMO_LUMO_gap": 0.17152, 
			 "cosmo_polarized_energy": -9.41, 
			 "cosmo_cavitation_energy": 20.98, 
			 "cosmo_dispersion_energy": -15.45, 
			 "cosmo_repulsion_energy": 1.3, 
			 "cosmo_total_nonelectrostatic_energy": 6.84, 
			 "SMD_solvation_energy": 5.07 
		},
		"coords": [
			{
				"x": -0.6120500279,
				"y": -2.8043438519,
				"z": 0.1294124641,
				"element": "C" 
			},
			{
				"x": -1.5442349458,
				"y": -1.6461101315,
				"z": -0.1887041815,
				"element": "C" 
			},
			{
				"x": -0.9050697205,
				"y": -0.7155465551,
				"z": -1.1014028276,
				"element": "O" 
			},
			{
				"x": -0.9097621014,
				"y": 0.5237046368,
				"z": -0.5222482696,
				"element": "C" 
			},
			{
				"x": -0.2977289441,
				"y": 1.6222225293,
				"z": -1.311568329,
				"element": "C" 
			},
			{
				"x": -1.4873490379,
				"y": 0.5384407771,
				"z": 0.7069101822,
				"element": "C" 
			},
			{
				"x": -1.6428968415,
				"y": 1.5913570873,
				"z": 1.5510528193,
				"element": "O" 
			},
			{
				"x": -1.9174711643,
				"y": -0.8018134667,
				"z": 1.0296651965,
				"element": "C" 
			},
			{
				"x": -2.4561120241,
				"y": -1.1733621133,
				"z": 2.0686674077,
				"element": "O" 
			},
			{
				"x": -1.0970825396,
				"y": -3.4594944502,
				"z": 0.8586462762,
				"element": "H" 
			},
			{
				"x": 0.3216753575,
				"y": -2.4345874359,
				"z": 0.5624389028,
				"element": "H" 
			},
			{
				"x": -0.3799103522,
				"y": -3.3787402837,
				"z": -0.7709572772,
				"element": "H" 
			},
			{
				"x": -2.4567272734,
				"y": -2.000502369,
				"z": -0.6827733417,
				"element": "H" 
			},
			{
				"x": -0.3465289798,
				"y": 2.5595522562,
				"z": -0.7547045199,
				"element": "H" 
			},
			{
				"x": 0.7494048065,
				"y": 1.3934084694,
				"z": -1.5397156027,
				"element": "H" 
			},
			{
				"x": -0.8199968062,
				"y": 1.7448038642,
				"z": -2.2672468184,
				"element": "H" 
			},
			{
				"x": -2.0825594052,
				"y": 1.226111037,
				"z": 2.3376279187,
				"element": "H" 
			}
		],
		 "valence_orbital": [ 
			{
				"type": "occ",
				"energy": -0.37006,
				"method": "rhf"
			},
			{
				"type": "occ",
				"energy": -0.35874,
				"method": "rhf"
			},
			{
				"type": "occ",
				"energy": -0.33013,
				"method": "rhf"
			},
			{
				"type": "occ",
				"energy": -0.24925,
				"method": "rhf"
			},
			{
				"type": "occ",
				"energy": -0.21201,
				"method": "rhf"
			},
			{
				"type": "unocc",
				"energy": -0.04049,
				"method": "rhf"
			},
			{
				"type": "unocc",
				"energy": 0.08122,
				"method": "rhf"
			},
			{
				"type": "unocc",
				"energy": 0.08577,
				"method": "rhf"
			},
			{
				"type": "unocc",
				"energy": 0.10557,
				"method": "rhf"
			},
			{
				"type": "unocc",
				"energy": 0.11647,
				"method": "rhf"
			}
		],
		"cosmo_sigma_profile": { 
			"-0.025": 0.0,
			"-0.024": 0.0,
			"-0.023": 0.0,
			"-0.022": 0.0,
			"-0.021": 0.0,
			"-0.02": 0.0,
			"-0.019": 0.0,
			"-0.018": 0.0,
			"-0.017": 0.0,
			"-0.016": 0.0981914412712,
			"-0.015": 0.60556007021,
			"-0.014": 0.736581552201,
			"-0.013": 0.428099708015,
			"-0.012": 0.992258497771,
			"-0.011": 0.371677363551,
			"-0.01": 0.665185638649,
			"-0.009": 0.589119696092,
			"-0.008": 2.36877193042,
			"-0.007": 3.50770095083,
			"-0.006": 7.24385981209,
			"-0.005": 13.2895621003,
			"-0.004": 15.4911563788,
			"-0.003": 15.4784834994,
			"-0.002": 17.91424847,
			"-0.001": 18.6761326724,
			"0.0": 10.2835515554,
			"0.001": 6.37140873431,
			"0.002": 5.38939433013,
			"0.003": 4.77290258662,
			"0.004": 5.17410551391,
			"0.005": 3.67794288937,
			"0.006": 3.46287164096,
			"0.007": 3.98283940743,
			"0.008": 3.91217477833,
			"0.009": 4.03321934587,
			"0.01": 4.3180820211,
			"0.011": 3.76657323615,
			"0.012": 4.06504508442,
			"0.013": 3.1901671932,
			"0.014": 0.52474098084,
			"0.015": 0.0,
			"0.016": 0.0,
			"0.017": 0.0,
			"0.018": 0.0,
			"0.019": 0.0,
			"0.02": 0.0,
			"0.021": 0.0,
			"0.022": 0.0,
			"0.023": 0.0,
			"0.024": 0.0,
			"0.025": 0.0
		}
	}
}
