{
	 "smiles": "OC(=O)CCCN1C(=O)CNC1=O", 
	 "Tm": 425.15, 
	 "num_atms": 23, 
	 "gaussian": { 
		 "optdone": 1, 
		 "sigma_profile": "yes", 
		 "theory": "DFT", 
		 "functional": "B3LYP", 
		 "basiset": "6-31G**", 
		 "properties": { 
			 "R2extent": 2724.1095, 
			 "electric_dipole_moment_norm": 3.03009841754, 
			 "electric_quadrupole_moment_norm": 14.7696494705, 
			 "total_energy": -683.231027247, 
			 "HOMO_LUMO_gap": 0.25326, 
			 "cosmo_polarized_energy": -20.31, 
			 "cosmo_cavitation_energy": 27.17, 
			 "cosmo_dispersion_energy": -19.36, 
			 "cosmo_repulsion_energy": 1.57, 
			 "cosmo_total_nonelectrostatic_energy": 9.38, 
			 "SMD_solvation_energy": 6.0 
		},
		"coords": [
			{
				"x": 0.8925118025,
				"y": 0.1456077094,
				"z": -3.7027594607,
				"element": "O" 
			},
			{
				"x": 0.9303927728,
				"y": -0.6467013771,
				"z": -2.6079456949,
				"element": "C" 
			},
			{
				"x": 0.696696601,
				"y": -1.8358833111,
				"z": -2.6535067333,
				"element": "O" 
			},
			{
				"x": 1.3265641382,
				"y": 0.1318992961,
				"z": -1.3703973407,
				"element": "C" 
			},
			{
				"x": 1.2004651216,
				"y": -0.6840427358,
				"z": -0.0809318942,
				"element": "C" 
			},
			{
				"x": -0.2390866128,
				"y": -1.0600867177,
				"z": 0.2952669637,
				"element": "C" 
			},
			{
				"x": -1.0787737313,
				"y": 0.0917608008,
				"z": 0.6188188376,
				"element": "N" 
			},
			{
				"x": -1.922358382,
				"y": 0.731075151,
				"z": -0.2657355312,
				"element": "C" 
			},
			{
				"x": -2.0618227718,
				"y": 0.4865282414,
				"z": -1.4480989697,
				"element": "O" 
			},
			{
				"x": -2.6475170369,
				"y": 1.814037122,
				"z": 0.5428885621,
				"element": "C" 
			},
			{
				"x": -2.0185296271,
				"y": 1.7032869109,
				"z": 1.8439560617,
				"element": "N" 
			},
			{
				"x": -1.1562397219,
				"y": 0.6360998225,
				"z": 1.9227378324,
				"element": "C" 
			},
			{
				"x": -0.5591957421,
				"y": 0.2215357702,
				"z": 2.8958112356,
				"element": "O" 
			},
			{
				"x": 0.6254541084,
				"y": -0.4268976494,
				"z": -4.4413718089,
				"element": "H" 
			},
			{
				"x": 0.7259993485,
				"y": 1.0465350705,
				"z": -1.3408060064,
				"element": "H" 
			},
			{
				"x": 2.363287556,
				"y": 0.461991261,
				"z": -1.5139752249,
				"element": "H" 
			},
			{
				"x": 1.7637835774,
				"y": -1.6164970422,
				"z": -0.1912227521,
				"element": "H" 
			},
			{
				"x": 1.6505381095,
				"y": -0.1283962286,
				"z": 0.7485112249,
				"element": "H" 
			},
			{
				"x": -0.7206405738,
				"y": -1.5919673705,
				"z": -0.5271960857,
				"element": "H" 
			},
			{
				"x": -0.2311364941,
				"y": -1.7004266053,
				"z": 1.1804661916,
				"element": "H" 
			},
			{
				"x": -2.4997976775,
				"y": 2.7926493244,
				"z": 0.0728791495,
				"element": "H" 
			},
			{
				"x": -3.7234083659,
				"y": 1.5984208517,
				"z": 0.5581250941,
				"element": "H" 
			},
			{
				"x": -2.3697863987,
				"y": 2.1220717057,
				"z": 2.6903863499,
				"element": "H" 
			}
		],
		 "valence_orbital": [ 
			{
				"type": "occ",
				"energy": -0.29243,
				"method": "rhf"
			},
			{
				"type": "occ",
				"energy": -0.28035,
				"method": "rhf"
			},
			{
				"type": "occ",
				"energy": -0.27317,
				"method": "rhf"
			},
			{
				"type": "occ",
				"energy": -0.26825,
				"method": "rhf"
			},
			{
				"type": "occ",
				"energy": -0.26519,
				"method": "rhf"
			},
			{
				"type": "unocc",
				"energy": -0.01193,
				"method": "rhf"
			},
			{
				"type": "unocc",
				"energy": 0.01357,
				"method": "rhf"
			},
			{
				"type": "unocc",
				"energy": 0.05474,
				"method": "rhf"
			},
			{
				"type": "unocc",
				"energy": 0.076,
				"method": "rhf"
			},
			{
				"type": "unocc",
				"energy": 0.08406,
				"method": "rhf"
			}
		],
		"cosmo_sigma_profile": { 
			"-0.025": 0.0,
			"-0.024": 0.0,
			"-0.023": 0.0,
			"-0.022": 0.0,
			"-0.021": 0.0,
			"-0.02": 0.0,
			"-0.019": 0.0225274676559,
			"-0.018": 0.61387119457,
			"-0.017": 1.17834885995,
			"-0.016": 0.880228191261,
			"-0.015": 2.14829754757,
			"-0.014": 2.09956225387,
			"-0.013": 2.18436437409,
			"-0.012": 0.81837494498,
			"-0.011": 1.6066731169,
			"-0.01": 2.1403359986,
			"-0.009": 1.77587983079,
			"-0.008": 5.82408417335,
			"-0.007": 9.65279280591,
			"-0.006": 12.8865896184,
			"-0.005": 14.6297269357,
			"-0.004": 17.5515599178,
			"-0.003": 20.3600903249,
			"-0.002": 14.8806981231,
			"-0.001": 9.3230574209,
			"0.0": 5.600086735,
			"0.001": 6.7450223751,
			"0.002": 6.73014233661,
			"0.003": 6.28882160961,
			"0.004": 6.42113217359,
			"0.005": 6.75497222091,
			"0.006": 6.24608916092,
			"0.007": 6.05020472299,
			"0.008": 5.12352377869,
			"0.009": 6.47027222126,
			"0.01": 5.57816352524,
			"0.011": 7.96416576327,
			"0.012": 10.2742972387,
			"0.013": 6.44237519698,
			"0.014": 0.460522451831,
			"0.015": 0.0,
			"0.016": 0.0,
			"0.017": 0.0,
			"0.018": 0.0,
			"0.019": 0.0,
			"0.02": 0.0,
			"0.021": 0.0,
			"0.022": 0.0,
			"0.023": 0.0,
			"0.024": 0.0,
			"0.025": 0.0
		}
	}
}
