{
	 "smiles": "NC(=O)NC(CC(O)=O)C1=CC(Br)=CC=C1", 
	 "Tm": 433.15, 
	 "num_atms": 27, 
	 "gaussian": { 
		 "optdone": 1, 
		 "sigma_profile": "yes", 
		 "theory": "DFT", 
		 "functional": "B3LYP", 
		 "basiset": "6-31G**", 
		 "properties": { 
			 "R2extent": 7942.5967, 
			 "electric_dipole_moment_norm": 3.58434960069, 
			 "electric_quadrupole_moment_norm": 16.4408743435, 
			 "total_energy": -3294.31629949, 
			 "HOMO_LUMO_gap": 0.22121, 
			 "cosmo_polarized_energy": -20.37, 
			 "cosmo_cavitation_energy": 33.85, 
			 "cosmo_dispersion_energy": -24.18, 
			 "cosmo_repulsion_energy": 1.95, 
			 "cosmo_total_nonelectrostatic_energy": 11.62, 
			 "SMD_solvation_energy": 5.68 
		},
		"coords": [
			{
				"x": -1.1660626738,
				"y": -1.6215104599,
				"z": -2.0863311302,
				"element": "N" 
			},
			{
				"x": -0.3890766948,
				"y": -0.5316703016,
				"z": -1.7130343254,
				"element": "C" 
			},
			{
				"x": 0.480860704,
				"y": -0.0725867061,
				"z": -2.4470791305,
				"element": "O" 
			},
			{
				"x": -0.6905653583,
				"y": -0.0449420692,
				"z": -0.4564455763,
				"element": "N" 
			},
			{
				"x": 0.0832763012,
				"y": 0.9928269477,
				"z": 0.2424056048,
				"element": "C" 
			},
			{
				"x": 0.3112793481,
				"y": 2.2280710857,
				"z": -0.6475151789,
				"element": "C" 
			},
			{
				"x": 0.5729387186,
				"y": 3.4629027812,
				"z": 0.1884987703,
				"element": "C" 
			},
			{
				"x": 1.1736500221,
				"y": 4.4345511761,
				"z": -0.5338435111,
				"element": "O" 
			},
			{
				"x": 0.2654366391,
				"y": 3.6119510553,
				"z": 1.3528716257,
				"element": "O" 
			},
			{
				"x": 1.3722097915,
				"y": 0.4773868458,
				"z": 0.8851860123,
				"element": "C" 
			},
			{
				"x": 1.5486705266,
				"y": 0.6304094396,
				"z": 2.2658588755,
				"element": "C" 
			},
			{
				"x": 2.7145494324,
				"y": 0.164155489,
				"z": 2.870838752,
				"element": "C" 
			},
			{
				"x": 2.9350680948,
				"y": 0.3767609334,
				"z": 4.7612695322,
				"element": "Br" 
			},
			{
				"x": 3.7192157514,
				"y": -0.4540582154,
				"z": 2.1322030737,
				"element": "C" 
			},
			{
				"x": 3.5411960971,
				"y": -0.5978723457,
				"z": 0.7541958921,
				"element": "C" 
			},
			{
				"x": 2.3830628018,
				"y": -0.1369986015,
				"z": 0.1297880276,
				"element": "C" 
			},
			{
				"x": -1.07354435,
				"y": -1.8436269361,
				"z": -3.0673244135,
				"element": "H" 
			},
			{
				"x": -2.1108691855,
				"y": -1.6781012793,
				"z": -1.7321546536,
				"element": "H" 
			},
			{
				"x": -1.1569760359,
				"y": -0.6952377826,
				"z": 0.1614636513,
				"element": "H" 
			},
			{
				"x": -0.5669064137,
				"y": 1.3284326196,
				"z": 1.0553007775,
				"element": "H" 
			},
			{
				"x": 1.1158629268,
				"y": 2.0785063965,
				"z": -1.3666611367,
				"element": "H" 
			},
			{
				"x": -0.5940034281,
				"y": 2.424916193,
				"z": -1.2355206815,
				"element": "H" 
			},
			{
				"x": 1.2715034776,
				"y": 5.195246982,
				"z": 0.0638465707,
				"element": "H" 
			},
			{
				"x": 0.7897686477,
				"y": 1.1258402586,
				"z": 2.8611647908,
				"element": "H" 
			},
			{
				"x": 4.6184428892,
				"y": -0.8118127301,
				"z": 2.6205446279,
				"element": "H" 
			},
			{
				"x": 4.3189654475,
				"y": -1.0745016994,
				"z": 0.1643701588,
				"element": "H" 
			},
			{
				"x": 2.2534465229,
				"y": -0.2520390769,
				"z": -0.9409970053,
				"element": "H" 
			}
		],
		 "valence_orbital": [ 
			{
				"type": "occ",
				"energy": -0.27804,
				"method": "rhf"
			},
			{
				"type": "occ",
				"energy": -0.26956,
				"method": "rhf"
			},
			{
				"type": "occ",
				"energy": -0.25926,
				"method": "rhf"
			},
			{
				"type": "occ",
				"energy": -0.25167,
				"method": "rhf"
			},
			{
				"type": "occ",
				"energy": -0.23559,
				"method": "rhf"
			},
			{
				"type": "unocc",
				"energy": -0.01438,
				"method": "rhf"
			},
			{
				"type": "unocc",
				"energy": -0.0079,
				"method": "rhf"
			},
			{
				"type": "unocc",
				"energy": 0.00688,
				"method": "rhf"
			},
			{
				"type": "unocc",
				"energy": 0.01281,
				"method": "rhf"
			},
			{
				"type": "unocc",
				"energy": 0.04228,
				"method": "rhf"
			}
		],
		"cosmo_sigma_profile": { 
			"-0.025": 0.0,
			"-0.024": 0.0,
			"-0.023": 0.0,
			"-0.022": 0.0,
			"-0.021": 0.0,
			"-0.02": 0.0,
			"-0.019": 0.114356635109,
			"-0.018": 0.925018834583,
			"-0.017": 0.852189333773,
			"-0.016": 0.65484544997,
			"-0.015": 0.764421490413,
			"-0.014": 3.73332818248,
			"-0.013": 3.98920802886,
			"-0.012": 5.27995627243,
			"-0.011": 3.72710954961,
			"-0.01": 4.03026286852,
			"-0.009": 3.78342081881,
			"-0.008": 3.51203283816,
			"-0.007": 7.40116250339,
			"-0.006": 11.3451581342,
			"-0.005": 10.6122036782,
			"-0.004": 12.8976126249,
			"-0.003": 13.218156512,
			"-0.002": 15.0610941368,
			"-0.001": 15.8653105834,
			"0.0": 14.8567503288,
			"0.001": 17.7954343622,
			"0.002": 19.6430904226,
			"0.003": 23.4527160591,
			"0.004": 23.8790930136,
			"0.005": 14.8869799366,
			"0.006": 5.2498875478,
			"0.007": 6.29923943759,
			"0.008": 4.53882749119,
			"0.009": 4.13170868948,
			"0.01": 3.82903702995,
			"0.011": 5.0255119877,
			"0.012": 4.04829094118,
			"0.013": 2.17029535404,
			"0.014": 2.59902038899,
			"0.015": 1.18145856754,
			"0.016": 0.0,
			"0.017": 0.0,
			"0.018": 0.0,
			"0.019": 0.0,
			"0.02": 0.0,
			"0.021": 0.0,
			"0.022": 0.0,
			"0.023": 0.0,
			"0.024": 0.0,
			"0.025": 0.0
		}
	}
}
