{
	 "smiles": "[O-][N+](=O)C1=CC(Cl)=C(NC2=C(C=C(C=C2Cl)[N+]([O-])=O)[N+]([O-])=O)N=C1", 
	 "Tm": 407.15, 
	 "num_atms": 29, 
	 "gaussian": { 
		 "optdone": 1, 
		 "sigma_profile": "yes", 
		 "theory": "DFT", 
		 "functional": "B3LYP", 
		 "basiset": "6-31G**", 
		 "properties": { 
			 "R2extent": 10765.1948, 
			 "electric_dipole_moment_norm": 2.39950276099, 
			 "electric_quadrupole_moment_norm": 20.0941029227, 
			 "total_energy": -2067.35144535, 
			 "HOMO_LUMO_gap": 0.13358, 
			 "cosmo_polarized_energy": -17.02, 
			 "cosmo_cavitation_energy": 40.83, 
			 "cosmo_dispersion_energy": -28.69, 
			 "cosmo_repulsion_energy": 2.16, 
			 "cosmo_total_nonelectrostatic_energy": 14.31, 
			 "SMD_solvation_energy": 12.21 
		},
		"coords": [
			{
				"x": -2.0418581503,
				"y": -3.7854529214,
				"z": 3.7441113402,
				"element": "O" 
			},
			{
				"x": -2.5435404181,
				"y": -3.9081341841,
				"z": 2.6274347528,
				"element": "N" 
			},
			{
				"x": -3.4692002238,
				"y": -4.6678848551,
				"z": 2.3436687962,
				"element": "O" 
			},
			{
				"x": -1.9963197198,
				"y": -3.0843220819,
				"z": 1.5515851173,
				"element": "C" 
			},
			{
				"x": -2.5314497535,
				"y": -3.1827517842,
				"z": 0.2661594189,
				"element": "C" 
			},
			{
				"x": -1.9862310515,
				"y": -2.382645342,
				"z": -0.7198041634,
				"element": "C" 
			},
			{
				"x": -2.6073411609,
				"y": -2.4468608833,
				"z": -2.3512193717,
				"element": "Cl" 
			},
			{
				"x": -0.9157613923,
				"y": -1.5127225496,
				"z": -0.3897719047,
				"element": "C" 
			},
			{
				"x": -0.3442353235,
				"y": -0.7242312602,
				"z": -1.3762449284,
				"element": "N" 
			},
			{
				"x": 0.6461725031,
				"y": 0.2256994613,
				"z": -1.16278074,
				"element": "C" 
			},
			{
				"x": 1.8541960452,
				"y": 0.2216430121,
				"z": -1.911223582,
				"element": "C" 
			},
			{
				"x": 2.8669055958,
				"y": 1.1530886208,
				"z": -1.7072810403,
				"element": "C" 
			},
			{
				"x": 2.6739381355,
				"y": 2.1335501992,
				"z": -0.7506051599,
				"element": "C" 
			},
			{
				"x": 1.4918209345,
				"y": 2.2216882439,
				"z": -0.019385616,
				"element": "C" 
			},
			{
				"x": 0.4867228512,
				"y": 1.2900949283,
				"z": -0.2372526282,
				"element": "C" 
			},
			{
				"x": -1.0314172373,
				"y": 1.5426694596,
				"z": 0.5767146977,
				"element": "Cl" 
			},
			{
				"x": 3.732401756,
				"y": 3.1290039831,
				"z": -0.5201277609,
				"element": "N" 
			},
			{
				"x": 4.7460348618,
				"y": 3.0429729463,
				"z": -1.208660112,
				"element": "O" 
			},
			{
				"x": 3.5280408644,
				"y": 3.9760047157,
				"z": 0.3467024308,
				"element": "O" 
			},
			{
				"x": 2.1132154941,
				"y": -0.7819429343,
				"z": -2.9537529047,
				"element": "N" 
			},
			{
				"x": 3.278339423,
				"y": -0.9867529756,
				"z": -3.2690839577,
				"element": "O" 
			},
			{
				"x": 1.1435462374,
				"y": -1.3485886564,
				"z": -3.4775207336,
				"element": "O" 
			},
			{
				"x": -0.4117933888,
				"y": -1.4514307223,
				"z": 0.847311367,
				"element": "N" 
			},
			{
				"x": -0.9427116589,
				"y": -2.2097342856,
				"z": 1.8046861293,
				"element": "C" 
			},
			{
				"x": -3.3499544015,
				"y": -3.8622992563,
				"z": 0.0649581458,
				"element": "H" 
			},
			{
				"x": -0.3429687151,
				"y": -1.1114222251,
				"z": -2.3166468852,
				"element": "H" 
			},
			{
				"x": 3.7830498275,
				"y": 1.1026504073,
				"z": -2.2793829895,
				"element": "H" 
			},
			{
				"x": 1.3560834691,
				"y": 3.029894818,
				"z": 0.6875296828,
				"element": "H" 
			},
			{
				"x": -0.5185854035,
				"y": -2.1364838779,
				"z": 2.8002825994,
				"element": "H" 
			}
		],
		 "valence_orbital": [ 
			{
				"type": "occ",
				"energy": -0.31214,
				"method": "rhf"
			},
			{
				"type": "occ",
				"energy": -0.30982,
				"method": "rhf"
			},
			{
				"type": "occ",
				"energy": -0.30485,
				"method": "rhf"
			},
			{
				"type": "occ",
				"energy": -0.29986,
				"method": "rhf"
			},
			{
				"type": "occ",
				"energy": -0.26461,
				"method": "rhf"
			},
			{
				"type": "unocc",
				"energy": -0.13103,
				"method": "rhf"
			},
			{
				"type": "unocc",
				"energy": -0.11668,
				"method": "rhf"
			},
			{
				"type": "unocc",
				"energy": -0.10395,
				"method": "rhf"
			},
			{
				"type": "unocc",
				"energy": -0.0707,
				"method": "rhf"
			},
			{
				"type": "unocc",
				"energy": -0.05554,
				"method": "rhf"
			}
		],
		"cosmo_sigma_profile": { 
			"-0.025": 0.0,
			"-0.024": 0.0,
			"-0.023": 0.0,
			"-0.022": 0.0,
			"-0.021": 0.0,
			"-0.02": 0.0,
			"-0.019": 0.0,
			"-0.018": 0.0,
			"-0.017": 0.0,
			"-0.016": 0.0,
			"-0.015": 0.0,
			"-0.014": 0.0,
			"-0.013": 0.0,
			"-0.012": 0.0,
			"-0.011": 0.280599128653,
			"-0.01": 1.63339506753,
			"-0.009": 5.80688700299,
			"-0.008": 9.088857249,
			"-0.007": 13.6831028689,
			"-0.006": 14.1974843303,
			"-0.005": 20.6025391155,
			"-0.004": 28.8109467048,
			"-0.003": 31.2846420871,
			"-0.002": 23.6366408694,
			"-0.001": 20.9897455967,
			"0.0": 19.8933295561,
			"0.001": 16.771571016,
			"0.002": 19.8362823628,
			"0.003": 18.3737355206,
			"0.004": 12.0481317869,
			"0.005": 11.538096563,
			"0.006": 17.6725027444,
			"0.007": 23.5839712395,
			"0.008": 15.1325125721,
			"0.009": 8.55807339056,
			"0.01": 1.76605894714,
			"0.011": 0.0,
			"0.012": 0.0,
			"0.013": 0.0,
			"0.014": 0.0,
			"0.015": 0.0,
			"0.016": 0.0,
			"0.017": 0.0,
			"0.018": 0.0,
			"0.019": 0.0,
			"0.02": 0.0,
			"0.021": 0.0,
			"0.022": 0.0,
			"0.023": 0.0,
			"0.024": 0.0,
			"0.025": 0.0
		}
	}
}
