{
	 "smiles": "NNC(=O)CC1=NNC=C1", 
	 "Tm": 454.15, 
	 "num_atms": 18, 
	 "gaussian": { 
		 "optdone": 1, 
		 "sigma_profile": "yes", 
		 "theory": "DFT", 
		 "functional": "B3LYP", 
		 "basiset": "6-31G**", 
		 "properties": { 
			 "R2extent": 1881.5249, 
			 "electric_dipole_moment_norm": 4.6256692251, 
			 "electric_quadrupole_moment_norm": 18.8392113447, 
			 "total_energy": -489.536182629, 
			 "HOMO_LUMO_gap": 0.24384, 
			 "cosmo_polarized_energy": -18.81, 
			 "cosmo_cavitation_energy": 22.11, 
			 "cosmo_dispersion_energy": -16.56, 
			 "cosmo_repulsion_energy": 1.4, 
			 "cosmo_total_nonelectrostatic_energy": 6.95, 
			 "SMD_solvation_energy": 4.91 
		},
		"coords": [
			{
				"x": -1.4420100073,
				"y": 1.4310690012,
				"z": -1.3859755388,
				"element": "N" 
			},
			{
				"x": -2.067536473,
				"y": 1.7695668784,
				"z": -0.1764901667,
				"element": "N" 
			},
			{
				"x": -1.7200880992,
				"y": 1.1651815816,
				"z": 1.008636164,
				"element": "C" 
			},
			{
				"x": -2.1460432588,
				"y": 1.5874012215,
				"z": 2.0740093072,
				"element": "O" 
			},
			{
				"x": -0.7697837209,
				"y": -0.0257740462,
				"z": 0.9043240231,
				"element": "C" 
			},
			{
				"x": 0.672396936,
				"y": 0.4163145703,
				"z": 0.9330370928,
				"element": "C" 
			},
			{
				"x": 1.1071888894,
				"y": 1.422164768,
				"z": 0.1660936116,
				"element": "N" 
			},
			{
				"x": 2.4234424445,
				"y": 1.5257804906,
				"z": 0.4549039541,
				"element": "N" 
			},
			{
				"x": 2.837780433,
				"y": 0.623430496,
				"z": 1.3800317627,
				"element": "C" 
			},
			{
				"x": 1.7239783654,
				"y": -0.1179989999,
				"z": 1.7182589217,
				"element": "C" 
			},
			{
				"x": -0.5991977076,
				"y": 1.985674459,
				"z": -1.5228768129,
				"element": "H" 
			},
			{
				"x": -2.0964411918,
				"y": 1.5578930312,
				"z": -2.1498934126,
				"element": "H" 
			},
			{
				"x": -2.4875840787,
				"y": 2.6874615793,
				"z": -0.0563272088,
				"element": "H" 
			},
			{
				"x": -0.9698931467,
				"y": -0.5848606987,
				"z": -0.0143596255,
				"element": "H" 
			},
			{
				"x": -0.9673072223,
				"y": -0.6619117801,
				"z": 1.7693119692,
				"element": "H" 
			},
			{
				"x": 2.9704683795,
				"y": 2.238449752,
				"z": -0.0010145488,
				"element": "H" 
			},
			{
				"x": 3.8626809625,
				"y": 0.582503926,
				"z": 1.7188522028,
				"element": "H" 
			},
			{
				"x": 1.6673484959,
				"y": -0.9261462302,
				"z": 2.4318783051,
				"element": "H" 
			}
		],
		 "valence_orbital": [ 
			{
				"type": "occ",
				"energy": -0.27859,
				"method": "rhf"
			},
			{
				"type": "occ",
				"energy": -0.25696,
				"method": "rhf"
			},
			{
				"type": "occ",
				"energy": -0.2472,
				"method": "rhf"
			},
			{
				"type": "occ",
				"energy": -0.23357,
				"method": "rhf"
			},
			{
				"type": "occ",
				"energy": -0.22724,
				"method": "rhf"
			},
			{
				"type": "unocc",
				"energy": 0.0166,
				"method": "rhf"
			},
			{
				"type": "unocc",
				"energy": 0.03622,
				"method": "rhf"
			},
			{
				"type": "unocc",
				"energy": 0.07319,
				"method": "rhf"
			},
			{
				"type": "unocc",
				"energy": 0.07915,
				"method": "rhf"
			},
			{
				"type": "unocc",
				"energy": 0.08715,
				"method": "rhf"
			}
		],
		"cosmo_sigma_profile": { 
			"-0.025": 0.0,
			"-0.024": 0.0,
			"-0.023": 0.0,
			"-0.022": 0.0,
			"-0.021": 0.0,
			"-0.02": 0.0,
			"-0.019": 0.0,
			"-0.018": 0.0,
			"-0.017": 0.197449344496,
			"-0.016": 1.81225463689,
			"-0.015": 1.41932125957,
			"-0.014": 1.31487909596,
			"-0.013": 2.02456113113,
			"-0.012": 3.58193766015,
			"-0.011": 4.16209927548,
			"-0.01": 3.39831969623,
			"-0.009": 6.06277809598,
			"-0.008": 6.50773380904,
			"-0.007": 6.00018970706,
			"-0.006": 6.89281191787,
			"-0.005": 8.30799671934,
			"-0.004": 7.8264120817,
			"-0.003": 8.8104554655,
			"-0.002": 8.8912861488,
			"-0.001": 7.79277887654,
			"0.0": 7.33718120379,
			"0.001": 6.53556758671,
			"0.002": 6.52360670059,
			"0.003": 6.71635420858,
			"0.004": 9.52809735992,
			"0.005": 12.6754932234,
			"0.006": 8.8502907268,
			"0.007": 4.0672326208,
			"0.008": 4.06159772004,
			"0.009": 3.15646738999,
			"0.01": 3.5354266023,
			"0.011": 2.42710421485,
			"0.012": 2.99039196739,
			"0.013": 3.46918264974,
			"0.014": 5.70272265571,
			"0.015": 1.96435604518,
			"0.016": 0.0266405084681,
			"0.017": 0.0,
			"0.018": 0.0,
			"0.019": 0.0,
			"0.02": 0.0,
			"0.021": 0.0,
			"0.022": 0.0,
			"0.023": 0.0,
			"0.024": 0.0,
			"0.025": 0.0
		}
	}
}
