{
	 "smiles": "CC(NC(=O)CCC(O)=O)C(=O)C1=CC=C(Br)C=C1", 
	 "Tm": 410.15, 
	 "num_atms": 33, 
	 "gaussian": { 
		 "optdone": 1, 
		 "sigma_profile": "yes", 
		 "theory": "DFT", 
		 "functional": "B3LYP", 
		 "basiset": "6-31G**", 
		 "properties": { 
			 "R2extent": 9801.0337, 
			 "electric_dipole_moment_norm": 1.27068158482, 
			 "electric_quadrupole_moment_norm": 12.2997366106, 
			 "total_energy": -3430.90579214, 
			 "HOMO_LUMO_gap": 0.1722, 
			 "cosmo_polarized_energy": -20.46, 
			 "cosmo_cavitation_energy": 39.48, 
			 "cosmo_dispersion_energy": -27.46, 
			 "cosmo_repulsion_energy": 2.15, 
			 "cosmo_total_nonelectrostatic_energy": 14.16, 
			 "SMD_solvation_energy": 7.66 
		},
		"coords": [
			{
				"x": 3.0568042345,
				"y": 1.401103557,
				"z": 0.063452814,
				"element": "C" 
			},
			{
				"x": 1.7013482081,
				"y": 0.9795745323,
				"z": -0.5136049913,
				"element": "C" 
			},
			{
				"x": 1.7684967815,
				"y": -0.2432369529,
				"z": -1.3261163728,
				"element": "N" 
			},
			{
				"x": 2.051011279,
				"y": -1.535451283,
				"z": -0.9330113889,
				"element": "C" 
			},
			{
				"x": 2.4018437695,
				"y": -2.3616449323,
				"z": -1.7662672771,
				"element": "O" 
			},
			{
				"x": 1.819021615,
				"y": -1.9255620949,
				"z": 0.5257758823,
				"element": "C" 
			},
			{
				"x": 2.6348110431,
				"y": -3.1624282442,
				"z": 0.8909680289,
				"element": "C" 
			},
			{
				"x": 4.1130304822,
				"y": -2.8530683782,
				"z": 0.9766552853,
				"element": "C" 
			},
			{
				"x": 4.8464871698,
				"y": -3.967545475,
				"z": 1.1921849372,
				"element": "O" 
			},
			{
				"x": 4.6144121433,
				"y": -1.7516802864,
				"z": 0.8828643279,
				"element": "O" 
			},
			{
				"x": 0.592351296,
				"y": 0.9266767141,
				"z": 0.5631514646,
				"element": "C" 
			},
			{
				"x": 0.8751050386,
				"y": 1.1370583509,
				"z": 1.7326024896,
				"element": "O" 
			},
			{
				"x": -0.8312765089,
				"y": 0.6785743184,
				"z": 0.1629265401,
				"element": "C" 
			},
			{
				"x": -1.2586305455,
				"y": 0.5272624483,
				"z": -1.1659491048,
				"element": "C" 
			},
			{
				"x": -2.6064803454,
				"y": 0.3362499056,
				"z": -1.4633554957,
				"element": "C" 
			},
			{
				"x": -3.5339465073,
				"y": 0.2924799226,
				"z": -0.4227647773,
				"element": "C" 
			},
			{
				"x": -5.3786641917,
				"y": 0.0275389324,
				"z": -0.8247981444,
				"element": "Br" 
			},
			{
				"x": -3.136121895,
				"y": 0.4385308668,
				"z": 0.9077779147,
				"element": "C" 
			},
			{
				"x": -1.7890258012,
				"y": 0.6326884387,
				"z": 1.1903486561,
				"element": "C" 
			},
			{
				"x": 2.9569529393,
				"y": 2.3152255371,
				"z": 0.6532142089,
				"element": "H" 
			},
			{
				"x": 3.4821780934,
				"y": 0.6213384166,
				"z": 0.6980568434,
				"element": "H" 
			},
			{
				"x": 3.7566082753,
				"y": 1.5841421231,
				"z": -0.7573846293,
				"element": "H" 
			},
			{
				"x": 1.3673258439,
				"y": 1.7578585186,
				"z": -1.2137613343,
				"element": "H" 
			},
			{
				"x": 2.0201020781,
				"y": -0.10868853,
				"z": -2.2985632019,
				"element": "H" 
			},
			{
				"x": 2.047884473,
				"y": -1.1063085085,
				"z": 1.2080502628,
				"element": "H" 
			},
			{
				"x": 0.7498373585,
				"y": -2.1458286381,
				"z": 0.6372604997,
				"element": "H" 
			},
			{
				"x": 2.4954763237,
				"y": -3.9485589589,
				"z": 0.1441604397,
				"element": "H" 
			},
			{
				"x": 2.3192078818,
				"y": -3.5718829432,
				"z": 1.8573518247,
				"element": "H" 
			},
			{
				"x": 5.7736489003,
				"y": -3.6788443199,
				"z": 1.2347939229,
				"element": "H" 
			},
			{
				"x": -0.5425304254,
				"y": 0.5395913254,
				"z": -1.9784844788,
				"element": "H" 
			},
			{
				"x": -2.9334837414,
				"y": 0.2189485334,
				"z": -2.4899747377,
				"element": "H" 
			},
			{
				"x": -3.8710932865,
				"y": 0.4030784195,
				"z": 1.7037253948,
				"element": "H" 
			},
			{
				"x": -1.4512919797,
				"y": 0.7587086847,
				"z": 2.213414197,
				"element": "H" 
			}
		],
		 "valence_orbital": [ 
			{
				"type": "occ",
				"energy": -0.27881,
				"method": "rhf"
			},
			{
				"type": "occ",
				"energy": -0.27457,
				"method": "rhf"
			},
			{
				"type": "occ",
				"energy": -0.25931,
				"method": "rhf"
			},
			{
				"type": "occ",
				"energy": -0.25742,
				"method": "rhf"
			},
			{
				"type": "occ",
				"energy": -0.24795,
				"method": "rhf"
			},
			{
				"type": "unocc",
				"energy": -0.07575,
				"method": "rhf"
			},
			{
				"type": "unocc",
				"energy": -0.02739,
				"method": "rhf"
			},
			{
				"type": "unocc",
				"energy": -0.00375,
				"method": "rhf"
			},
			{
				"type": "unocc",
				"energy": 0.00989,
				"method": "rhf"
			},
			{
				"type": "unocc",
				"energy": 0.01285,
				"method": "rhf"
			}
		],
		"cosmo_sigma_profile": { 
			"-0.025": 0.0,
			"-0.024": 0.0,
			"-0.023": 0.0,
			"-0.022": 0.0,
			"-0.021": 0.0,
			"-0.02": 0.0,
			"-0.019": 0.0851357126899,
			"-0.018": 0.692907628505,
			"-0.017": 1.20255803729,
			"-0.016": 0.406146237188,
			"-0.015": 0.511128975844,
			"-0.014": 1.4655725038,
			"-0.013": 2.30567754223,
			"-0.012": 1.9921735591,
			"-0.011": 2.51922812764,
			"-0.01": 2.5382690525,
			"-0.009": 2.60360174536,
			"-0.008": 6.74353482695,
			"-0.007": 11.6225388236,
			"-0.006": 14.4063907152,
			"-0.005": 17.1257145149,
			"-0.004": 20.8510321214,
			"-0.003": 21.8104846898,
			"-0.002": 18.4503956549,
			"-0.001": 18.1612820318,
			"0.0": 24.9101110043,
			"0.001": 27.4642007629,
			"0.002": 26.5723600602,
			"0.003": 17.2077969455,
			"0.004": 16.7272616604,
			"0.005": 8.1921508084,
			"0.006": 7.2085988357,
			"0.007": 5.81885373695,
			"0.008": 6.21148848808,
			"0.009": 6.49964681199,
			"0.01": 5.27483497684,
			"0.011": 7.16390550438,
			"0.012": 4.4885708696,
			"0.013": 4.30586390743,
			"0.014": 2.53511618521,
			"0.015": 0.0211805836313,
			"0.016": 0.0,
			"0.017": 0.0,
			"0.018": 0.0,
			"0.019": 0.0,
			"0.02": 0.0,
			"0.021": 0.0,
			"0.022": 0.0,
			"0.023": 0.0,
			"0.024": 0.0,
			"0.025": 0.0
		}
	}
}
