{
	 "smiles": "NC(=O)C1=C(F)C=C(Br)C=C1", 
	 "Tm": 425.15, 
	 "num_atms": 16, 
	 "gaussian": { 
		 "optdone": 1, 
		 "sigma_profile": "yes", 
		 "theory": "DFT", 
		 "functional": "B3LYP", 
		 "basiset": "6-31G**", 
		 "properties": { 
			 "R2extent": 3379.8607, 
			 "electric_dipole_moment_norm": 3.95755042166, 
			 "electric_quadrupole_moment_norm": 19.1625697593, 
			 "total_energy": -3070.98308589, 
			 "HOMO_LUMO_gap": 0.20218, 
			 "cosmo_polarized_energy": -13.9, 
			 "cosmo_cavitation_energy": 23.77, 
			 "cosmo_dispersion_energy": -17.81, 
			 "cosmo_repulsion_energy": 1.43, 
			 "cosmo_total_nonelectrostatic_energy": 7.39, 
			 "SMD_solvation_energy": 4.25 
		},
		"coords": [
			{
				"x": -0.6807248868,
				"y": -2.0950558289,
				"z": 3.5103858058,
				"element": "N" 
			},
			{
				"x": -1.2385644821,
				"y": -1.5900199912,
				"z": 2.3572819615,
				"element": "C" 
			},
			{
				"x": -2.4424645391,
				"y": -1.5870802513,
				"z": 2.1583271286,
				"element": "O" 
			},
			{
				"x": -0.2400706884,
				"y": -1.1036223613,
				"z": 1.3421082938,
				"element": "C" 
			},
			{
				"x": -0.5255538374,
				"y": -0.0047077632,
				"z": 0.5217140897,
				"element": "C" 
			},
			{
				"x": -1.6661115017,
				"y": 0.677392439,
				"z": 0.685343156,
				"element": "F" 
			},
			{
				"x": 0.3574853831,
				"y": 0.44364313,
				"z": -0.4550607622,
				"element": "C" 
			},
			{
				"x": 1.5593431007,
				"y": -0.2381490509,
				"z": -0.6279244783,
				"element": "C" 
			},
			{
				"x": 2.7792297277,
				"y": 0.3554840497,
				"z": -1.9673055921,
				"element": "Br" 
			},
			{
				"x": 1.8849810026,
				"y": -1.3427428189,
				"z": 0.1584346369,
				"element": "C" 
			},
			{
				"x": 0.9830101192,
				"y": -1.7588816646,
				"z": 1.1356743848,
				"element": "C" 
			},
			{
				"x": 0.2394119652,
				"y": -1.8016735785,
				"z": 3.8009299096,
				"element": "H" 
			},
			{
				"x": -1.3370194071,
				"y": -2.3410891091,
				"z": 4.2381256939,
				"element": "H" 
			},
			{
				"x": 0.0966082862,
				"y": 1.3065601132,
				"z": -1.0549157296,
				"element": "H" 
			},
			{
				"x": 2.8190274046,
				"y": -1.8694940008,
				"z": 0.0046167001,
				"element": "H" 
			},
			{
				"x": 1.2173123532,
				"y": -2.6325633133,
				"z": 1.7358648015,
				"element": "H" 
			}
		],
		 "valence_orbital": [ 
			{
				"type": "occ",
				"energy": -0.29908,
				"method": "rhf"
			},
			{
				"type": "occ",
				"energy": -0.28001,
				"method": "rhf"
			},
			{
				"type": "occ",
				"energy": -0.27106,
				"method": "rhf"
			},
			{
				"type": "occ",
				"energy": -0.26201,
				"method": "rhf"
			},
			{
				"type": "occ",
				"energy": -0.251,
				"method": "rhf"
			},
			{
				"type": "unocc",
				"energy": -0.04882,
				"method": "rhf"
			},
			{
				"type": "unocc",
				"energy": -0.02358,
				"method": "rhf"
			},
			{
				"type": "unocc",
				"energy": -0.00613,
				"method": "rhf"
			},
			{
				"type": "unocc",
				"energy": 0.0361,
				"method": "rhf"
			},
			{
				"type": "unocc",
				"energy": 0.07787,
				"method": "rhf"
			}
		],
		"cosmo_sigma_profile": { 
			"-0.025": 0.0,
			"-0.024": 0.0,
			"-0.023": 0.0,
			"-0.022": 0.0,
			"-0.021": 0.0,
			"-0.02": 0.0,
			"-0.019": 0.0,
			"-0.018": 0.0,
			"-0.017": 0.0,
			"-0.016": 0.0,
			"-0.015": 0.205924980064,
			"-0.014": 2.16434093584,
			"-0.013": 1.9943613942,
			"-0.012": 2.36545942644,
			"-0.011": 2.39326280569,
			"-0.01": 2.42517415837,
			"-0.009": 3.5952492806,
			"-0.008": 4.59320919233,
			"-0.007": 7.63256182313,
			"-0.006": 7.10361667939,
			"-0.005": 6.39231525339,
			"-0.004": 7.88193697195,
			"-0.003": 9.23062980596,
			"-0.002": 9.38756960045,
			"-0.001": 13.2665724803,
			"0.0": 17.5535940398,
			"0.001": 22.4564122131,
			"0.002": 14.5643203706,
			"0.003": 15.9221020658,
			"0.004": 16.6989152225,
			"0.005": 2.94384167987,
			"0.006": 2.63909752608,
			"0.007": 2.63112062796,
			"0.008": 1.8057872507,
			"0.009": 1.10209421664,
			"0.01": 1.62607675533,
			"0.011": 2.43856802585,
			"0.012": 3.03034786248,
			"0.013": 5.87521902255,
			"0.014": 2.11581105468,
			"0.015": 0.0,
			"0.016": 0.0,
			"0.017": 0.0,
			"0.018": 0.0,
			"0.019": 0.0,
			"0.02": 0.0,
			"0.021": 0.0,
			"0.022": 0.0,
			"0.023": 0.0,
			"0.024": 0.0,
			"0.025": 0.0
		}
	}
}
