{
	 "smiles": "CC(C)N1N=NN=C1S", 
	 "Tm": 363.15, 
	 "num_atms": 17, 
	 "gaussian": { 
		 "optdone": 1, 
		 "sigma_profile": "yes", 
		 "theory": "DFT", 
		 "functional": "B3LYP", 
		 "basiset": "6-31G**", 
		 "properties": { 
			 "R2extent": 1826.3235, 
			 "electric_dipole_moment_norm": 4.90447343861, 
			 "electric_quadrupole_moment_norm": 13.997009596, 
			 "total_energy": -774.388168295, 
			 "HOMO_LUMO_gap": 0.24552, 
			 "cosmo_polarized_energy": -12.9, 
			 "cosmo_cavitation_energy": 22.49, 
			 "cosmo_dispersion_energy": -16.57, 
			 "cosmo_repulsion_energy": 1.32, 
			 "cosmo_total_nonelectrostatic_energy": 7.24, 
			 "SMD_solvation_energy": 1.96 
		},
		"coords": [
			{
				"x": 0.3656395374,
				"y": 1.1076920654,
				"z": -0.7663048938,
				"element": "C" 
			},
			{
				"x": 0.4461082506,
				"y": 0.398022383,
				"z": 0.5889389666,
				"element": "C" 
			},
			{
				"x": 1.7089905822,
				"y": 0.7549125316,
				"z": 1.3793612443,
				"element": "C" 
			},
			{
				"x": 0.3683550263,
				"y": -1.0619626723,
				"z": 0.3976645948,
				"element": "N" 
			},
			{
				"x": 1.3163651088,
				"y": -1.7302054092,
				"z": -0.312351267,
				"element": "N" 
			},
			{
				"x": 0.9780295168,
				"y": -2.9761703687,
				"z": -0.3021328576,
				"element": "N" 
			},
			{
				"x": -0.1728614048,
				"y": -3.1722547609,
				"z": 0.3950566587,
				"element": "N" 
			},
			{
				"x": -0.5347860503,
				"y": -1.9730011709,
				"z": 0.820830203,
				"element": "C" 
			},
			{
				"x": -1.9581005834,
				"y": -1.593806332,
				"z": 1.7851080515,
				"element": "S" 
			},
			{
				"x": 0.3804395118,
				"y": 2.1912090346,
				"z": -0.6171192214,
				"element": "H" 
			},
			{
				"x": 1.2166995301,
				"y": 0.828977559,
				"z": -1.3928224148,
				"element": "H" 
			},
			{
				"x": -0.5547955247,
				"y": 0.843857252,
				"z": -1.2944429512,
				"element": "H" 
			},
			{
				"x": -0.4363393474,
				"y": 0.6573039444,
				"z": 1.1838854177,
				"element": "H" 
			},
			{
				"x": 1.7246887059,
				"y": 0.2454847946,
				"z": 2.3468236593,
				"element": "H" 
			},
			{
				"x": 2.6021828249,
				"y": 0.464655159,
				"z": 0.8203053947,
				"element": "H" 
			},
			{
				"x": 1.7416501738,
				"y": 1.8339024386,
				"z": 1.5560443147,
				"element": "H" 
			},
			{
				"x": -2.3574658581,
				"y": -2.8789164481,
				"z": 1.8270551003,
				"element": "H" 
			}
		],
		 "valence_orbital": [ 
			{
				"type": "occ",
				"energy": -0.34295,
				"method": "rhf"
			},
			{
				"type": "occ",
				"energy": -0.30677,
				"method": "rhf"
			},
			{
				"type": "occ",
				"energy": -0.29402,
				"method": "rhf"
			},
			{
				"type": "occ",
				"energy": -0.28352,
				"method": "rhf"
			},
			{
				"type": "occ",
				"energy": -0.25829,
				"method": "rhf"
			},
			{
				"type": "unocc",
				"energy": -0.01277,
				"method": "rhf"
			},
			{
				"type": "unocc",
				"energy": -0.01052,
				"method": "rhf"
			},
			{
				"type": "unocc",
				"energy": 0.02418,
				"method": "rhf"
			},
			{
				"type": "unocc",
				"energy": 0.04448,
				"method": "rhf"
			},
			{
				"type": "unocc",
				"energy": 0.08244,
				"method": "rhf"
			}
		],
		"cosmo_sigma_profile": { 
			"-0.025": 0.0,
			"-0.024": 0.0,
			"-0.023": 0.0,
			"-0.022": 0.0,
			"-0.021": 0.0,
			"-0.02": 0.0,
			"-0.019": 0.0,
			"-0.018": 0.0,
			"-0.017": 0.0,
			"-0.016": 0.0,
			"-0.015": 0.0,
			"-0.014": 0.0232679300947,
			"-0.013": 1.30489632141,
			"-0.012": 1.76049165537,
			"-0.011": 0.825510957882,
			"-0.01": 1.46262175536,
			"-0.009": 1.16774582691,
			"-0.008": 1.81676272432,
			"-0.007": 4.63704409757,
			"-0.006": 7.51488157671,
			"-0.005": 13.2202801131,
			"-0.004": 17.543169528,
			"-0.003": 16.4335008555,
			"-0.002": 16.1402309451,
			"-0.001": 19.6324172936,
			"0.0": 14.2192127515,
			"0.001": 7.57742504685,
			"0.002": 6.74384803865,
			"0.003": 5.43621226461,
			"0.004": 5.17029560926,
			"0.005": 4.61757478519,
			"0.006": 4.39295006168,
			"0.007": 3.23493815538,
			"0.008": 5.24119707033,
			"0.009": 3.79717644119,
			"0.01": 5.79553598757,
			"0.011": 3.91077490231,
			"0.012": 2.72214292231,
			"0.013": 2.39232438099,
			"0.014": 1.64486122658,
			"0.015": 0.353635398748,
			"0.016": 0.0,
			"0.017": 0.0,
			"0.018": 0.0,
			"0.019": 0.0,
			"0.02": 0.0,
			"0.021": 0.0,
			"0.022": 0.0,
			"0.023": 0.0,
			"0.024": 0.0,
			"0.025": 0.0
		}
	}
}
