{
	 "smiles": "NC(CCCCNC(=O)C1=CC=CC=C1)C(O)=O", 
	 "Tm": 527.15, 
	 "num_atms": 36, 
	 "gaussian": { 
		 "optdone": 1, 
		 "sigma_profile": "yes", 
		 "theory": "DFT", 
		 "functional": "B3LYP", 
		 "basiset": "6-31G**", 
		 "properties": { 
			 "R2extent": 5863.2918, 
			 "electric_dipole_moment_norm": 1.89635370119, 
			 "electric_quadrupole_moment_norm": 31.5443136056, 
			 "total_energy": -841.433389973, 
			 "HOMO_LUMO_gap": 0.20598, 
			 "cosmo_polarized_energy": -21.56, 
			 "cosmo_cavitation_energy": 39.19, 
			 "cosmo_dispersion_energy": -25.26, 
			 "cosmo_repulsion_energy": 2.01, 
			 "cosmo_total_nonelectrostatic_energy": 15.93, 
			 "SMD_solvation_energy": 6.03 
		},
		"coords": [
			{
				"x": 1.7992132399,
				"y": 2.1053500904,
				"z": 0.4786634854,
				"element": "N" 
			},
			{
				"x": 2.0631461429,
				"y": 0.6739414451,
				"z": 0.2756329793,
				"element": "C" 
			},
			{
				"x": 0.8642492287,
				"y": -0.2471321057,
				"z": 0.615315778,
				"element": "C" 
			},
			{
				"x": 1.1418510187,
				"y": -1.7605036537,
				"z": 0.7029554777,
				"element": "C" 
			},
			{
				"x": 1.436183038,
				"y": -2.5043286243,
				"z": -0.612642896,
				"element": "C" 
			},
			{
				"x": 0.3144986089,
				"y": -2.4490297347,
				"z": -1.6632975106,
				"element": "C" 
			},
			{
				"x": -0.9298438987,
				"y": -3.0496107203,
				"z": -1.1828895986,
				"element": "N" 
			},
			{
				"x": -2.1394384138,
				"y": -2.446189135,
				"z": -0.9244228116,
				"element": "C" 
			},
			{
				"x": -2.9212763559,
				"y": -2.9284878163,
				"z": -0.1087329436,
				"element": "O" 
			},
			{
				"x": -2.5072041187,
				"y": -1.2108883435,
				"z": -1.6993621237,
				"element": "C" 
			},
			{
				"x": -3.2791417203,
				"y": -0.2405203223,
				"z": -1.0448272354,
				"element": "C" 
			},
			{
				"x": -3.7050661236,
				"y": 0.8981435716,
				"z": -1.7250927119,
				"element": "C" 
			},
			{
				"x": -3.3898515029,
				"y": 1.0652445052,
				"z": -3.0764636987,
				"element": "C" 
			},
			{
				"x": -2.6488870459,
				"y": 0.0883561788,
				"z": -3.7437375576,
				"element": "C" 
			},
			{
				"x": -2.2046136284,
				"y": -1.0432289068,
				"z": -3.0580718842,
				"element": "C" 
			},
			{
				"x": 2.5513112452,
				"y": 0.5186686841,
				"z": -1.1596766269,
				"element": "C" 
			},
			{
				"x": 1.6259525602,
				"y": 0.9667833126,
				"z": -2.0483468414,
				"element": "O" 
			},
			{
				"x": 3.614527868,
				"y": 0.0587325626,
				"z": -1.510290287,
				"element": "O" 
			},
			{
				"x": 0.9927936668,
				"y": 2.3822000726,
				"z": -0.0768602796,
				"element": "H" 
			},
			{
				"x": 1.5599044965,
				"y": 2.2692373058,
				"z": 1.4535440105,
				"element": "H" 
			},
			{
				"x": 2.9178040478,
				"y": 0.3976673689,
				"z": 0.901551346,
				"element": "H" 
			},
			{
				"x": 0.0451903671,
				"y": -0.0365344201,
				"z": -0.0832455093,
				"element": "H" 
			},
			{
				"x": 0.5077010052,
				"y": 0.0803768712,
				"z": 1.6006356705,
				"element": "H" 
			},
			{
				"x": 1.985428238,
				"y": -1.9256998152,
				"z": 1.3858919769,
				"element": "H" 
			},
			{
				"x": 0.2727901561,
				"y": -2.2278591949,
				"z": 1.181467005,
				"element": "H" 
			},
			{
				"x": 2.3542116494,
				"y": -2.1267930988,
				"z": -1.074583913,
				"element": "H" 
			},
			{
				"x": 1.6380770502,
				"y": -3.5575047116,
				"z": -0.3723325815,
				"element": "H" 
			},
			{
				"x": 0.1127036861,
				"y": -1.4159535671,
				"z": -1.950188447,
				"element": "H" 
			},
			{
				"x": 0.6532576997,
				"y": -2.969810035,
				"z": -2.5694840766,
				"element": "H" 
			},
			{
				"x": -0.8268417289,
				"y": -3.8955124286,
				"z": -0.6330576548,
				"element": "H" 
			},
			{
				"x": -3.5445866577,
				"y": -0.404436986,
				"z": -0.0055897432,
				"element": "H" 
			},
			{
				"x": -4.2929615872,
				"y": 1.6501079849,
				"z": -1.2066037266,
				"element": "H" 
			},
			{
				"x": -3.7300531522,
				"y": 1.9484021276,
				"z": -3.6097186492,
				"element": "H" 
			},
			{
				"x": -2.4224434098,
				"y": 0.2031649222,
				"z": -4.7999306406,
				"element": "H" 
			},
			{
				"x": -1.6477324091,
				"y": -1.8107947174,
				"z": -3.5866283821,
				"element": "H" 
			},
			{
				"x": 2.0266467397,
				"y": 0.8745413336,
				"z": -2.9290793985,
				"element": "H" 
			}
		],
		 "valence_orbital": [ 
			{
				"type": "occ",
				"energy": -0.26322,
				"method": "rhf"
			},
			{
				"type": "occ",
				"energy": -0.25887,
				"method": "rhf"
			},
			{
				"type": "occ",
				"energy": -0.25186,
				"method": "rhf"
			},
			{
				"type": "occ",
				"energy": -0.24443,
				"method": "rhf"
			},
			{
				"type": "occ",
				"energy": -0.23804,
				"method": "rhf"
			},
			{
				"type": "unocc",
				"energy": -0.03206,
				"method": "rhf"
			},
			{
				"type": "unocc",
				"energy": -0.0097,
				"method": "rhf"
			},
			{
				"type": "unocc",
				"energy": 0.00015,
				"method": "rhf"
			},
			{
				"type": "unocc",
				"energy": 0.05426,
				"method": "rhf"
			},
			{
				"type": "unocc",
				"energy": 0.05551,
				"method": "rhf"
			}
		],
		"cosmo_sigma_profile": { 
			"-0.025": 0.0,
			"-0.024": 0.0,
			"-0.023": 0.0,
			"-0.022": 0.0,
			"-0.021": 0.0,
			"-0.02": 0.0,
			"-0.019": 0.0404385839068,
			"-0.018": 0.773178617467,
			"-0.017": 0.744181075702,
			"-0.016": 1.03606721919,
			"-0.015": 0.602463583523,
			"-0.014": 0.436718599216,
			"-0.013": 0.559579003939,
			"-0.012": 2.46178574964,
			"-0.011": 2.18230149908,
			"-0.01": 3.23220012126,
			"-0.009": 4.07865621727,
			"-0.008": 3.7281218556,
			"-0.007": 6.05410279376,
			"-0.006": 13.4587420493,
			"-0.005": 17.8912850054,
			"-0.004": 26.4034288675,
			"-0.003": 26.9792256534,
			"-0.002": 28.0333656011,
			"-0.001": 28.314562695,
			"0.0": 23.7899249488,
			"0.001": 14.9454464722,
			"0.002": 13.5114776817,
			"0.003": 13.6796297344,
			"0.004": 15.8306741631,
			"0.005": 11.7278905052,
			"0.006": 5.29480233038,
			"0.007": 4.25540343196,
			"0.008": 3.30228089616,
			"0.009": 4.15137526395,
			"0.01": 4.00315310399,
			"0.011": 5.86267265509,
			"0.012": 6.13413337829,
			"0.013": 4.17015055205,
			"0.014": 5.78808676249,
			"0.015": 2.21011049137,
			"0.016": 0.613932696918,
			"0.017": 0.493775803364,
			"0.018": 0.392154840235,
			"0.019": 0.0267682290735,
			"0.02": 0.0,
			"0.021": 0.0,
			"0.022": 0.0,
			"0.023": 0.0,
			"0.024": 0.0,
			"0.025": 0.0
		}
	}
}
