{
	 "smiles": "COC1=C(OC)C=C(C=C1)C(N)CC1=C(C)C=CC=C1", 
	 "Tm": 323.15, 
	 "num_atms": 41, 
	 "gaussian": { 
		 "optdone": 1, 
		 "sigma_profile": "yes", 
		 "theory": "DFT", 
		 "functional": "B3LYP", 
		 "basiset": "6-31G**", 
		 "properties": { 
			 "R2extent": 6748.0532, 
			 "electric_dipole_moment_norm": 1.2104796446, 
			 "electric_quadrupole_moment_norm": 4.03139285111, 
			 "total_energy": -865.640700336, 
			 "HOMO_LUMO_gap": 0.21828, 
			 "cosmo_polarized_energy": -10.56, 
			 "cosmo_cavitation_energy": 42.15, 
			 "cosmo_dispersion_energy": -28.47, 
			 "cosmo_repulsion_energy": 2.21, 
			 "cosmo_total_nonelectrostatic_energy": 15.89, 
			 "SMD_solvation_energy": 7.54 
		},
		"coords": [
			{
				"x": 1.184323925,
				"y": -1.205332814,
				"z": 4.9656066274,
				"element": "C" 
			},
			{
				"x": -0.0871507649,
				"y": -0.5843488203,
				"z": 4.7441957211,
				"element": "O" 
			},
			{
				"x": -0.3871313883,
				"y": -0.3408671944,
				"z": 3.4209920428,
				"element": "C" 
			},
			{
				"x": 0.2956740523,
				"y": 0.6351071818,
				"z": 2.6741095007,
				"element": "C" 
			},
			{
				"x": 1.3374896994,
				"y": 1.358398455,
				"z": 3.214936652,
				"element": "O" 
			},
			{
				"x": 0.9561514584,
				"y": 2.2905567972,
				"z": 4.2331386218,
				"element": "C" 
			},
			{
				"x": -0.0533166915,
				"y": 0.8592564801,
				"z": 1.3406130229,
				"element": "C" 
			},
			{
				"x": -1.0845503658,
				"y": 0.1428001809,
				"z": 0.7253680346,
				"element": "C" 
			},
			{
				"x": -1.7803608468,
				"y": -0.8019807678,
				"z": 1.4934704619,
				"element": "C" 
			},
			{
				"x": -1.4310476548,
				"y": -1.047253645,
				"z": 2.819982596,
				"element": "C" 
			},
			{
				"x": -1.4785140081,
				"y": 0.3664850792,
				"z": -0.7388550981,
				"element": "C" 
			},
			{
				"x": -1.1019884945,
				"y": 1.656658958,
				"z": -1.3176876552,
				"element": "N" 
			},
			{
				"x": -0.9795105365,
				"y": -0.7809978934,
				"z": -1.6719501772,
				"element": "C" 
			},
			{
				"x": 0.5108028732,
				"y": -0.7805152242,
				"z": -1.9590068341,
				"element": "C" 
			},
			{
				"x": 1.0429005428,
				"y": -0.2066913976,
				"z": -3.1374324214,
				"element": "C" 
			},
			{
				"x": 0.1571247958,
				"y": 0.4067127561,
				"z": -4.2016574957,
				"element": "C" 
			},
			{
				"x": 2.4313864862,
				"y": -0.2342920713,
				"z": -3.3314711519,
				"element": "C" 
			},
			{
				"x": 3.2918342726,
				"y": -0.8127413147,
				"z": -2.3991379194,
				"element": "C" 
			},
			{
				"x": 2.7657573575,
				"y": -1.3876593273,
				"z": -1.2432683663,
				"element": "C" 
			},
			{
				"x": 1.3873727831,
				"y": -1.3690638751,
				"z": -1.0349148077,
				"element": "C" 
			},
			{
				"x": 2.0032036251,
				"y": -0.5841186205,
				"z": 4.5896188273,
				"element": "H" 
			},
			{
				"x": 1.2806106354,
				"y": -1.3293393883,
				"z": 6.0463311592,
				"element": "H" 
			},
			{
				"x": 1.2241016629,
				"y": -2.1906775493,
				"z": 4.4840136066,
				"element": "H" 
			},
			{
				"x": 0.4811831932,
				"y": 1.7858439694,
				"z": 5.0800961126,
				"element": "H" 
			},
			{
				"x": 1.8763306441,
				"y": 2.7781845148,
				"z": 4.5618442532,
				"element": "H" 
			},
			{
				"x": 0.2710136571,
				"y": 3.0470437961,
				"z": 3.8295693666,
				"element": "H" 
			},
			{
				"x": 0.5036573987,
				"y": 1.6167007767,
				"z": 0.7989948368,
				"element": "H" 
			},
			{
				"x": -2.6023939582,
				"y": -1.3575226515,
				"z": 1.0477103771,
				"element": "H" 
			},
			{
				"x": -1.9626326156,
				"y": -1.7821548294,
				"z": 3.4168137511,
				"element": "H" 
			},
			{
				"x": -2.5752187433,
				"y": 0.3161776993,
				"z": -0.7740932111,
				"element": "H" 
			},
			{
				"x": -0.0888713397,
				"y": 1.7240915312,
				"z": -1.3866854738,
				"element": "H" 
			},
			{
				"x": -1.408854387,
				"y": 2.4163538206,
				"z": -0.7151680841,
				"element": "H" 
			},
			{
				"x": -1.5432416865,
				"y": -0.7043868254,
				"z": -2.6052217571,
				"element": "H" 
			},
			{
				"x": -1.2582078818,
				"y": -1.7327544302,
				"z": -1.2073989893,
				"element": "H" 
			},
			{
				"x": 0.7616425921,
				"y": 0.884034445,
				"z": -4.9780124691,
				"element": "H" 
			},
			{
				"x": -0.5214483588,
				"y": 1.1542429432,
				"z": -3.7808531582,
				"element": "H" 
			},
			{
				"x": -0.4626338675,
				"y": -0.3543215205,
				"z": -4.6930194366,
				"element": "H" 
			},
			{
				"x": 2.8414363114,
				"y": 0.2046724438,
				"z": -4.2379258815,
				"element": "H" 
			},
			{
				"x": 4.3633268219,
				"y": -0.818755799,
				"z": -2.578993246,
				"element": "H" 
			},
			{
				"x": 3.4203566559,
				"y": -1.8499197693,
				"z": -0.5098740142,
				"element": "H" 
			},
			{
				"x": 0.9753921455,
				"y": -1.8221260997,
				"z": -0.1375779237,
				"element": "H" 
			}
		],
		 "valence_orbital": [ 
			{
				"type": "occ",
				"energy": -0.24783,
				"method": "rhf"
			},
			{
				"type": "occ",
				"energy": -0.24071,
				"method": "rhf"
			},
			{
				"type": "occ",
				"energy": -0.23382,
				"method": "rhf"
			},
			{
				"type": "occ",
				"energy": -0.22662,
				"method": "rhf"
			},
			{
				"type": "occ",
				"energy": -0.2216,
				"method": "rhf"
			},
			{
				"type": "unocc",
				"energy": -0.00332,
				"method": "rhf"
			},
			{
				"type": "unocc",
				"energy": 0.00058,
				"method": "rhf"
			},
			{
				"type": "unocc",
				"energy": 0.00754,
				"method": "rhf"
			},
			{
				"type": "unocc",
				"energy": 0.01283,
				"method": "rhf"
			},
			{
				"type": "unocc",
				"energy": 0.08532,
				"method": "rhf"
			}
		],
		"cosmo_sigma_profile": { 
			"-0.025": 0.0,
			"-0.024": 0.0,
			"-0.023": 0.0,
			"-0.022": 0.0,
			"-0.021": 0.0,
			"-0.02": 0.0,
			"-0.019": 0.0,
			"-0.018": 0.0,
			"-0.017": 0.0,
			"-0.016": 0.0,
			"-0.015": 0.0,
			"-0.014": 0.0,
			"-0.013": 0.0,
			"-0.012": 0.0,
			"-0.011": 0.0,
			"-0.01": 0.601331409565,
			"-0.009": 1.49641749622,
			"-0.008": 2.66706955528,
			"-0.007": 3.52830774778,
			"-0.006": 6.29350608884,
			"-0.005": 18.492336075,
			"-0.004": 31.1227995934,
			"-0.003": 41.9422521836,
			"-0.002": 39.0647654749,
			"-0.001": 28.4710019029,
			"0.0": 27.9995754363,
			"0.001": 24.0426281521,
			"0.002": 19.2233910775,
			"0.003": 19.6255270808,
			"0.004": 17.4326312497,
			"0.005": 16.3661623315,
			"0.006": 10.4224741962,
			"0.007": 7.43520201867,
			"0.008": 3.18086471401,
			"0.009": 2.33868178952,
			"0.01": 2.71168023212,
			"0.011": 2.50774266974,
			"0.012": 2.78301663861,
			"0.013": 0.399700025056,
			"0.014": 0.852410130001,
			"0.015": 0.192422817177,
			"0.016": 0.547624972627,
			"0.017": 0.0797623349456,
			"0.018": 0.0,
			"0.019": 0.0,
			"0.02": 0.0,
			"0.021": 0.0,
			"0.022": 0.0,
			"0.023": 0.0,
			"0.024": 0.0,
			"0.025": 0.0
		}
	}
}
