{
	 "smiles": "CC(=O)NC1=NN=C(S)S1", 
	 "Tm": 541.15, 
	 "num_atms": 15, 
	 "gaussian": { 
		 "optdone": 1, 
		 "sigma_profile": "yes", 
		 "theory": "DFT", 
		 "functional": "B3LYP", 
		 "basiset": "6-31G**", 
		 "properties": { 
			 "R2extent": 2749.5971, 
			 "electric_dipole_moment_norm": 2.98949210737, 
			 "electric_quadrupole_moment_norm": 8.32943968404, 
			 "total_energy": -1191.26118718, 
			 "HOMO_LUMO_gap": 0.18802, 
			 "cosmo_polarized_energy": -14.28, 
			 "cosmo_cavitation_energy": 23.26, 
			 "cosmo_dispersion_energy": -18.41, 
			 "cosmo_repulsion_energy": 1.4, 
			 "cosmo_total_nonelectrostatic_energy": 6.25, 
			 "SMD_solvation_energy": 2.6 
		},
		"coords": [
			{
				"x": 2.5989510888,
				"y": 3.1567557305,
				"z": -0.1845719115,
				"element": "C" 
			},
			{
				"x": 1.4722761698,
				"y": 3.3340573677,
				"z": 0.8079158708,
				"element": "C" 
			},
			{
				"x": 1.3227971735,
				"y": 4.3453726957,
				"z": 1.4688522313,
				"element": "O" 
			},
			{
				"x": 0.5574836915,
				"y": 2.2906639751,
				"z": 0.9783324017,
				"element": "N" 
			},
			{
				"x": 0.4049046049,
				"y": 1.0347303574,
				"z": 0.4277769578,
				"element": "C" 
			},
			{
				"x": -0.5857728529,
				"y": 0.2744339016,
				"z": 0.8105500319,
				"element": "N" 
			},
			{
				"x": -0.6109675024,
				"y": -0.9391930593,
				"z": 0.1809670049,
				"element": "N" 
			},
			{
				"x": 0.3542168052,
				"y": -1.0939086378,
				"z": -0.6712482007,
				"element": "C" 
			},
			{
				"x": 0.6165461301,
				"y": -2.5381774955,
				"z": -1.6535266574,
				"element": "S" 
			},
			{
				"x": 1.4416851923,
				"y": 0.293185024,
				"z": -0.7955920238,
				"element": "S" 
			},
			{
				"x": 3.2388502957,
				"y": 2.309109047,
				"z": 0.0811621707,
				"element": "H" 
			},
			{
				"x": 3.1931623021,
				"y": 4.0698982708,
				"z": -0.1691994111,
				"element": "H" 
			},
			{
				"x": 2.2193753889,
				"y": 2.9940536207,
				"z": -1.1984916518,
				"element": "H" 
			},
			{
				"x": -0.1599213337,
				"y": 2.5046622361,
				"z": 1.6646935215,
				"element": "H" 
			},
			{
				"x": -0.4558871538,
				"y": -3.1706430341,
				"z": -1.1365203343,
				"element": "H" 
			}
		],
		 "valence_orbital": [ 
			{
				"type": "occ",
				"energy": -0.31923,
				"method": "rhf"
			},
			{
				"type": "occ",
				"energy": -0.29336,
				"method": "rhf"
			},
			{
				"type": "occ",
				"energy": -0.28278,
				"method": "rhf"
			},
			{
				"type": "occ",
				"energy": -0.27782,
				"method": "rhf"
			},
			{
				"type": "occ",
				"energy": -0.23725,
				"method": "rhf"
			},
			{
				"type": "unocc",
				"energy": -0.04923,
				"method": "rhf"
			},
			{
				"type": "unocc",
				"energy": -0.02748,
				"method": "rhf"
			},
			{
				"type": "unocc",
				"energy": -0.0051,
				"method": "rhf"
			},
			{
				"type": "unocc",
				"energy": 0.00439,
				"method": "rhf"
			},
			{
				"type": "unocc",
				"energy": 0.02512,
				"method": "rhf"
			}
		],
		"cosmo_sigma_profile": { 
			"-0.025": 0.0,
			"-0.024": 0.0,
			"-0.023": 0.0,
			"-0.022": 0.0,
			"-0.021": 0.0,
			"-0.02": 0.0,
			"-0.019": 0.0,
			"-0.018": 0.0,
			"-0.017": 0.0,
			"-0.016": 0.106394348641,
			"-0.015": 0.804706808551,
			"-0.014": 0.474922566743,
			"-0.013": 1.46563581382,
			"-0.012": 2.34366454305,
			"-0.011": 1.65992082786,
			"-0.01": 2.23170517755,
			"-0.009": 3.34701331126,
			"-0.008": 3.37968346634,
			"-0.007": 7.78763636693,
			"-0.006": 10.5035275723,
			"-0.005": 10.6810710622,
			"-0.004": 11.6702757096,
			"-0.003": 15.368773475,
			"-0.002": 18.6580498915,
			"-0.001": 14.9490104644,
			"0.0": 10.5126829505,
			"0.001": 11.0532447037,
			"0.002": 8.38446528795,
			"0.003": 6.21135821079,
			"0.004": 4.92453894054,
			"0.005": 5.60544003007,
			"0.006": 5.55362642429,
			"0.007": 2.56486065458,
			"0.008": 3.28594006485,
			"0.009": 4.11159948898,
			"0.01": 4.67590086973,
			"0.011": 6.49963804336,
			"0.012": 7.81187790636,
			"0.013": 3.56989047589,
			"0.014": 0.645884870751,
			"0.015": 0.0,
			"0.016": 0.0,
			"0.017": 0.0,
			"0.018": 0.0,
			"0.019": 0.0,
			"0.02": 0.0,
			"0.021": 0.0,
			"0.022": 0.0,
			"0.023": 0.0,
			"0.024": 0.0,
			"0.025": 0.0
		}
	}
}
