{
	 "smiles": "CN1N=C(C)C2=C1S(=O)(=O)CCN2", 
	 "Tm": 384.15, 
	 "num_atms": 24, 
	 "gaussian": { 
		 "optdone": 1, 
		 "sigma_profile": "yes", 
		 "theory": "DFT", 
		 "functional": "B3LYP", 
		 "basiset": "6-31G**", 
		 "properties": { 
			 "R2extent": 3121.4698, 
			 "electric_dipole_moment_norm": 4.42998616928, 
			 "electric_quadrupole_moment_norm": 20.0124839858, 
			 "total_energy": -986.172006935, 
			 "HOMO_LUMO_gap": 0.20175, 
			 "cosmo_polarized_energy": -17.95, 
			 "cosmo_cavitation_energy": 27.83, 
			 "cosmo_dispersion_energy": -21.04, 
			 "cosmo_repulsion_energy": 1.61, 
			 "cosmo_total_nonelectrostatic_energy": 8.4, 
			 "SMD_solvation_energy": 1.93 
		},
		"coords": [
			{
				"x": -2.1451475542,
				"y": 0.999427934,
				"z": 0.0921944952,
				"element": "C" 
			},
			{
				"x": -1.1381230115,
				"y": 0.0558140858,
				"z": -0.3644106702,
				"element": "N" 
			},
			{
				"x": -0.7573600708,
				"y": 0.0254050923,
				"z": -1.6489510609,
				"element": "N" 
			},
			{
				"x": 0.1200327235,
				"y": -0.9787264962,
				"z": -1.7699631377,
				"element": "C" 
			},
			{
				"x": 0.7801341709,
				"y": -1.2857588141,
				"z": -3.0775231175,
				"element": "C" 
			},
			{
				"x": 0.2992361852,
				"y": -1.6330797246,
				"z": -0.5237001432,
				"element": "C" 
			},
			{
				"x": -0.5311722924,
				"y": -0.9412195228,
				"z": 0.3506142929,
				"element": "C" 
			},
			{
				"x": -0.7064162347,
				"y": -1.2995208844,
				"z": 2.0677598691,
				"element": "S" 
			},
			{
				"x": -1.8832656438,
				"y": -2.1529981616,
				"z": 2.3036854202,
				"element": "O" 
			},
			{
				"x": -0.5468823988,
				"y": -0.0634999875,
				"z": 2.853437396,
				"element": "O" 
			},
			{
				"x": 0.7844358154,
				"y": -2.334939285,
				"z": 2.2312754353,
				"element": "C" 
			},
			{
				"x": 0.8873067275,
				"y": -3.3454090838,
				"z": 1.0845964737,
				"element": "C" 
			},
			{
				"x": 1.1740537906,
				"y": -2.6641019386,
				"z": -0.178003212,
				"element": "N" 
			},
			{
				"x": -1.8929283141,
				"y": 1.3344452684,
				"z": 1.0999985207,
				"element": "H" 
			},
			{
				"x": -3.138788338,
				"y": 0.5390089964,
				"z": 0.100576243,
				"element": "H" 
			},
			{
				"x": -2.1397978128,
				"y": 1.8423403246,
				"z": -0.5983968112,
				"element": "H" 
			},
			{
				"x": 1.8712303294,
				"y": -1.2027167021,
				"z": -3.0076896264,
				"element": "H" 
			},
			{
				"x": 0.5488011816,
				"y": -2.3008140485,
				"z": -3.4246382289,
				"element": "H" 
			},
			{
				"x": 0.4307259384,
				"y": -0.5832089159,
				"z": -3.8368865504,
				"element": "H" 
			},
			{
				"x": 1.6450571541,
				"y": -1.6620223717,
				"z": 2.2599306417,
				"element": "H" 
			},
			{
				"x": 0.6691038407,
				"y": -2.8382194049,
				"z": 3.1945226371,
				"element": "H" 
			},
			{
				"x": 1.7111852799,
				"y": -4.0324965928,
				"z": 1.3005954468,
				"element": "H" 
			},
			{
				"x": -0.0435372881,
				"y": -3.9339541254,
				"z": 1.0496909352,
				"element": "H" 
			},
			{
				"x": 1.3652158219,
				"y": -3.3018556416,
				"z": -0.9407152486,
				"element": "H" 
			}
		],
		 "valence_orbital": [ 
			{
				"type": "occ",
				"energy": -0.30152,
				"method": "rhf"
			},
			{
				"type": "occ",
				"energy": -0.29966,
				"method": "rhf"
			},
			{
				"type": "occ",
				"energy": -0.28786,
				"method": "rhf"
			},
			{
				"type": "occ",
				"energy": -0.25011,
				"method": "rhf"
			},
			{
				"type": "occ",
				"energy": -0.21085,
				"method": "rhf"
			},
			{
				"type": "unocc",
				"energy": -0.0091,
				"method": "rhf"
			},
			{
				"type": "unocc",
				"energy": 0.04349,
				"method": "rhf"
			},
			{
				"type": "unocc",
				"energy": 0.05195,
				"method": "rhf"
			},
			{
				"type": "unocc",
				"energy": 0.06453,
				"method": "rhf"
			},
			{
				"type": "unocc",
				"energy": 0.07892,
				"method": "rhf"
			}
		],
		"cosmo_sigma_profile": { 
			"-0.025": 0.0,
			"-0.024": 0.0,
			"-0.023": 0.0,
			"-0.022": 0.0,
			"-0.021": 0.0,
			"-0.02": 0.0,
			"-0.019": 0.0,
			"-0.018": 0.0,
			"-0.017": 0.0,
			"-0.016": 0.0,
			"-0.015": 0.0,
			"-0.014": 0.190719652209,
			"-0.013": 1.17026065918,
			"-0.012": 1.23095567557,
			"-0.011": 1.16859023468,
			"-0.01": 2.21021144095,
			"-0.009": 3.77021614099,
			"-0.008": 5.91663156711,
			"-0.007": 10.5065849314,
			"-0.006": 13.3262789213,
			"-0.005": 19.0434932665,
			"-0.004": 21.4040528277,
			"-0.003": 18.3147080852,
			"-0.002": 12.0589021417,
			"-0.001": 12.1485066749,
			"0.0": 10.4692260215,
			"0.001": 9.3101566486,
			"0.002": 11.2703980401,
			"0.003": 7.72206531916,
			"0.004": 5.84207234536,
			"0.005": 5.51982942912,
			"0.006": 4.61641465302,
			"0.007": 4.04498198184,
			"0.008": 3.35634742814,
			"0.009": 4.89198153387,
			"0.01": 8.57270369329,
			"0.011": 11.2437907533,
			"0.012": 8.17797475148,
			"0.013": 1.24498478521,
			"0.014": 0.741916992702,
			"0.015": 0.263644552954,
			"0.016": 0.0,
			"0.017": 0.0,
			"0.018": 0.0,
			"0.019": 0.0,
			"0.02": 0.0,
			"0.021": 0.0,
			"0.022": 0.0,
			"0.023": 0.0,
			"0.024": 0.0,
			"0.025": 0.0
		}
	}
}
