{
	 "smiles": "O=CC1=CC=C(C=C1)N1C=NC=N1", 
	 "Tm": 421.15, 
	 "num_atms": 20, 
	 "gaussian": { 
		 "optdone": 1, 
		 "sigma_profile": "yes", 
		 "theory": "DFT", 
		 "functional": "B3LYP", 
		 "basiset": "6-31G**", 
		 "properties": { 
			 "R2extent": 2965.3849, 
			 "electric_dipole_moment_norm": 2.5121122865, 
			 "electric_quadrupole_moment_norm": 20.887415636, 
			 "total_energy": -586.626167048, 
			 "HOMO_LUMO_gap": 0.17449, 
			 "cosmo_polarized_energy": -13.71, 
			 "cosmo_cavitation_energy": 25.37, 
			 "cosmo_dispersion_energy": -18.69, 
			 "cosmo_repulsion_energy": 1.42, 
			 "cosmo_total_nonelectrostatic_energy": 8.11, 
			 "SMD_solvation_energy": 3.71 
		},
		"coords": [
			{
				"x": -1.732423345,
				"y": -1.5727249731,
				"z": -4.2194876921,
				"element": "O" 
			},
			{
				"x": -0.8274703208,
				"y": -1.8918224256,
				"z": -3.4720652219,
				"element": "C" 
			},
			{
				"x": -0.5040090059,
				"y": -1.2007147438,
				"z": -2.2050160745,
				"element": "C" 
			},
			{
				"x": -1.2583386882,
				"y": -0.0944170667,
				"z": -1.7843251502,
				"element": "C" 
			},
			{
				"x": -0.9579397622,
				"y": 0.5560250761,
				"z": -0.5969142141,
				"element": "C" 
			},
			{
				"x": 0.1123225387,
				"y": 0.0996124614,
				"z": 0.1887647175,
				"element": "C" 
			},
			{
				"x": 0.8743609938,
				"y": -1.0036598671,
				"z": -0.2183930224,
				"element": "C" 
			},
			{
				"x": 0.5605240877,
				"y": -1.6452219105,
				"z": -1.4117798923,
				"element": "C" 
			},
			{
				"x": 0.4118337922,
				"y": 0.7705296861,
				"z": 1.4004179354,
				"element": "N" 
			},
			{
				"x": 1.3846164924,
				"y": 0.5259865297,
				"z": 2.3257996803,
				"element": "C" 
			},
			{
				"x": 1.3145535614,
				"y": 1.393025269,
				"z": 3.3140706838,
				"element": "N" 
			},
			{
				"x": 0.2558917152,
				"y": 2.1752995976,
				"z": 2.9477514744,
				"element": "C" 
			},
			{
				"x": -0.3234013664,
				"y": 1.8468197823,
				"z": 1.8079893288,
				"element": "N" 
			},
			{
				"x": -0.1668925061,
				"y": -2.7555359443,
				"z": -3.7099612486,
				"element": "H" 
			},
			{
				"x": -2.0806275301,
				"y": 0.2391709628,
				"z": -2.4091604187,
				"element": "H" 
			},
			{
				"x": -1.5290903894,
				"y": 1.4106042749,
				"z": -0.2574013535,
				"element": "H" 
			},
			{
				"x": 1.7023708482,
				"y": -1.363231083,
				"z": 0.3814316397,
				"element": "H" 
			},
			{
				"x": 1.1491983118,
				"y": -2.5016069467,
				"z": -1.7314434344,
				"element": "H" 
			},
			{
				"x": 2.1036398162,
				"y": -0.2744679406,
				"z": 2.2402961007,
				"element": "H" 
			},
			{
				"x": -0.0950192436,
				"y": 3.0091292617,
				"z": 3.5398261621,
				"element": "H" 
			}
		],
		 "valence_orbital": [ 
			{
				"type": "occ",
				"energy": -0.2924,
				"method": "rhf"
			},
			{
				"type": "occ",
				"energy": -0.29096,
				"method": "rhf"
			},
			{
				"type": "occ",
				"energy": -0.28118,
				"method": "rhf"
			},
			{
				"type": "occ",
				"energy": -0.26248,
				"method": "rhf"
			},
			{
				"type": "occ",
				"energy": -0.25397,
				"method": "rhf"
			},
			{
				"type": "unocc",
				"energy": -0.07948,
				"method": "rhf"
			},
			{
				"type": "unocc",
				"energy": -0.03051,
				"method": "rhf"
			},
			{
				"type": "unocc",
				"energy": -0.01589,
				"method": "rhf"
			},
			{
				"type": "unocc",
				"energy": 0.04012,
				"method": "rhf"
			},
			{
				"type": "unocc",
				"energy": 0.04873,
				"method": "rhf"
			}
		],
		"cosmo_sigma_profile": { 
			"-0.025": 0.0,
			"-0.024": 0.0,
			"-0.023": 0.0,
			"-0.022": 0.0,
			"-0.021": 0.0,
			"-0.02": 0.0,
			"-0.019": 0.0,
			"-0.018": 0.0,
			"-0.017": 0.0,
			"-0.016": 0.0,
			"-0.015": 0.0,
			"-0.014": 0.0,
			"-0.013": 0.51807720361,
			"-0.012": 1.77716825073,
			"-0.011": 2.24130114088,
			"-0.01": 2.02634633328,
			"-0.009": 4.47160742407,
			"-0.008": 6.39202274808,
			"-0.007": 9.83723721144,
			"-0.006": 12.876987745,
			"-0.005": 10.0825150813,
			"-0.004": 10.80019838,
			"-0.003": 10.862954845,
			"-0.002": 13.3063786738,
			"-0.001": 12.9810412641,
			"0.0": 16.3578748556,
			"0.001": 18.9619146235,
			"0.002": 18.5749378095,
			"0.003": 7.66496441119,
			"0.004": 4.47928677902,
			"0.005": 4.60921227845,
			"0.006": 4.43888884401,
			"0.007": 4.31772224068,
			"0.008": 4.01817175082,
			"0.009": 4.83556674787,
			"0.01": 4.77556079349,
			"0.011": 6.0233665759,
			"0.012": 3.70471110405,
			"0.013": 1.89732384078,
			"0.014": 1.07513330029,
			"0.015": 0.996569561462,
			"0.016": 0.553141233891,
			"0.017": 0.0,
			"0.018": 0.0,
			"0.019": 0.0,
			"0.02": 0.0,
			"0.021": 0.0,
			"0.022": 0.0,
			"0.023": 0.0,
			"0.024": 0.0,
			"0.025": 0.0
		}
	}
}
