{
	 "smiles": "CC1=CN(C2CC(O)C(CO)O2)C(=O)NC1=O", 
	 "Tm": 461.15, 
	 "num_atms": 31, 
	 "gaussian": { 
		 "optdone": 1, 
		 "sigma_profile": "yes", 
		 "theory": "DFT", 
		 "functional": "B3LYP", 
		 "basiset": "6-31G**", 
		 "properties": { 
			 "R2extent": 6178.0759, 
			 "electric_dipole_moment_norm": 7.0263612674, 
			 "electric_quadrupole_moment_norm": 23.5095871361, 
			 "total_energy": -875.138052909, 
			 "HOMO_LUMO_gap": 0.19981, 
			 "cosmo_polarized_energy": -22.74, 
			 "cosmo_cavitation_energy": 33.66, 
			 "cosmo_dispersion_energy": -23.97, 
			 "cosmo_repulsion_energy": 1.87, 
			 "cosmo_total_nonelectrostatic_energy": 11.56, 
			 "SMD_solvation_energy": 7.09 
		},
		"coords": [
			{
				"x": -0.7574650718,
				"y": 3.3625823157,
				"z": 3.7411059862,
				"element": "C" 
			},
			{
				"x": -0.4789677753,
				"y": 3.5534157858,
				"z": 2.2776627298,
				"element": "C" 
			},
			{
				"x": -0.0293709454,
				"y": 2.5628209119,
				"z": 1.4688321602,
				"element": "C" 
			},
			{
				"x": 0.2265467276,
				"y": 2.7397641528,
				"z": 0.1220922993,
				"element": "N" 
			},
			{
				"x": 0.7223510433,
				"y": 1.6394589641,
				"z": -0.7466616905,
				"element": "C" 
			},
			{
				"x": -0.3998404381,
				"y": 0.8985633095,
				"z": -1.4917769913,
				"element": "C" 
			},
			{
				"x": -0.6623863772,
				"y": -0.3215016027,
				"z": -0.6088725185,
				"element": "C" 
			},
			{
				"x": -1.1960451577,
				"y": -1.3895601374,
				"z": -1.3725797257,
				"element": "O" 
			},
			{
				"x": 0.7543280119,
				"y": -0.6083323568,
				"z": -0.0716983391,
				"element": "C" 
			},
			{
				"x": 0.8408944673,
				"y": -1.3489408036,
				"z": 1.2504346007,
				"element": "C" 
			},
			{
				"x": -0.0121131308,
				"y": -0.7211251012,
				"z": 2.2021602972,
				"element": "O" 
			},
			{
				"x": 1.3815586195,
				"y": 0.6775372149,
				"z": 0.0572856759,
				"element": "O" 
			},
			{
				"x": 0.0326498726,
				"y": 3.9660368408,
				"z": -0.5099637449,
				"element": "C" 
			},
			{
				"x": 0.2315258129,
				"y": 4.1356473875,
				"z": -1.7058212259,
				"element": "O" 
			},
			{
				"x": -0.4092851706,
				"y": 4.9667990644,
				"z": 0.3355627559,
				"element": "N" 
			},
			{
				"x": -0.6992108145,
				"y": 4.8813187118,
				"z": 1.7103468182,
				"element": "C" 
			},
			{
				"x": -1.0973532228,
				"y": 5.8644557576,
				"z": 2.3205765237,
				"element": "O" 
			},
			{
				"x": -0.134457868,
				"y": 4.0277470791,
				"z": 4.3488726268,
				"element": "H" 
			},
			{
				"x": -1.7978343495,
				"y": 3.6112186323,
				"z": 3.9766985491,
				"element": "H" 
			},
			{
				"x": -0.5674690053,
				"y": 2.3300597096,
				"z": 4.0461870119,
				"element": "H" 
			},
			{
				"x": 0.163001526,
				"y": 1.5611594694,
				"z": 1.835741273,
				"element": "H" 
			},
			{
				"x": 1.4287869695,
				"y": 2.1094327602,
				"z": -1.4329120408,
				"element": "H" 
			},
			{
				"x": -0.0324215328,
				"y": 0.5482319613,
				"z": -2.4621801654,
				"element": "H" 
			},
			{
				"x": -1.2741200046,
				"y": 1.5266631104,
				"z": -1.6657116765,
				"element": "H" 
			},
			{
				"x": -1.3236777822,
				"y": -0.0630973456,
				"z": 0.2270579375,
				"element": "H" 
			},
			{
				"x": -1.6471410121,
				"y": -1.99648962,
				"z": -0.7733510178,
				"element": "H" 
			},
			{
				"x": 1.2860734847,
				"y": -1.2042232228,
				"z": -0.8294665416,
				"element": "H" 
			},
			{
				"x": 1.8871536784,
				"y": -1.3499794836,
				"z": 1.5850870662,
				"element": "H" 
			},
			{
				"x": 0.5415190995,
				"y": -2.3952633951,
				"z": 1.0766948202,
				"element": "H" 
			},
			{
				"x": 0.1975590176,
				"y": -1.0665082251,
				"z": 3.0779795572,
				"element": "H" 
			},
			{
				"x": -0.5565886718,
				"y": 5.8692081548,
				"z": -0.1000830109,
				"element": "H" 
			}
		],
		 "valence_orbital": [ 
			{
				"type": "occ",
				"energy": -0.2809,
				"method": "rhf"
			},
			{
				"type": "occ",
				"energy": -0.2768,
				"method": "rhf"
			},
			{
				"type": "occ",
				"energy": -0.27172,
				"method": "rhf"
			},
			{
				"type": "occ",
				"energy": -0.25003,
				"method": "rhf"
			},
			{
				"type": "occ",
				"energy": -0.22325,
				"method": "rhf"
			},
			{
				"type": "unocc",
				"energy": -0.02344,
				"method": "rhf"
			},
			{
				"type": "unocc",
				"energy": 0.0211,
				"method": "rhf"
			},
			{
				"type": "unocc",
				"energy": 0.04066,
				"method": "rhf"
			},
			{
				"type": "unocc",
				"energy": 0.05717,
				"method": "rhf"
			},
			{
				"type": "unocc",
				"energy": 0.08717,
				"method": "rhf"
			}
		],
		"cosmo_sigma_profile": { 
			"-0.025": 0.0,
			"-0.024": 0.0,
			"-0.023": 0.0,
			"-0.022": 0.0,
			"-0.021": 0.0,
			"-0.02": 0.0,
			"-0.019": 0.0,
			"-0.018": 0.0,
			"-0.017": 0.242292533184,
			"-0.016": 2.34002002693,
			"-0.015": 2.61434837229,
			"-0.014": 2.8772484184,
			"-0.013": 3.04813321599,
			"-0.012": 2.56700055954,
			"-0.011": 1.47576571905,
			"-0.01": 2.15716983104,
			"-0.009": 1.95485173935,
			"-0.008": 3.6252364394,
			"-0.007": 4.46011822155,
			"-0.006": 7.98514732605,
			"-0.005": 20.1409110585,
			"-0.004": 26.8192143458,
			"-0.003": 22.1503700798,
			"-0.002": 18.9512009875,
			"-0.001": 20.9065487875,
			"0.0": 19.4078603616,
			"0.001": 13.5763435338,
			"0.002": 10.2994407271,
			"0.003": 7.79375069975,
			"0.004": 4.61598266833,
			"0.005": 7.50745543665,
			"0.006": 5.67756981094,
			"0.007": 5.75727582351,
			"0.008": 5.1636824633,
			"0.009": 5.23951565795,
			"0.01": 5.9067074797,
			"0.011": 6.0959580176,
			"0.012": 8.20054255629,
			"0.013": 11.5316894672,
			"0.014": 2.73478757506,
			"0.015": 0.00198743130045,
			"0.016": 0.0,
			"0.017": 0.0,
			"0.018": 0.0,
			"0.019": 0.0,
			"0.02": 0.0,
			"0.021": 0.0,
			"0.022": 0.0,
			"0.023": 0.0,
			"0.024": 0.0,
			"0.025": 0.0
		}
	}
}
