{
	 "smiles": "FC1=CC(Br)=C(C(Cl)=C1)S(Cl)(=O)=O", 
	 "Tm": 329.15, 
	 "num_atms": 15, 
	 "gaussian": { 
		 "optdone": 1, 
		 "sigma_profile": "yes", 
		 "theory": "DFT", 
		 "functional": "B3LYP", 
		 "basiset": "6-31G**", 
		 "properties": { 
			 "R2extent": 6357.2416, 
			 "electric_dipole_moment_norm": 4.43624039249, 
			 "electric_quadrupole_moment_norm": 14.5287976884, 
			 "total_energy": -4369.99833777, 
			 "HOMO_LUMO_gap": 0.18098, 
			 "cosmo_polarized_energy": -8.87, 
			 "cosmo_cavitation_energy": 27.28, 
			 "cosmo_dispersion_energy": -20.95, 
			 "cosmo_repulsion_energy": 1.57, 
			 "cosmo_total_nonelectrostatic_energy": 7.9, 
			 "SMD_solvation_energy": 2.8 
		},
		"coords": [
			{
				"x": 1.621364933,
				"y": -2.7027570255,
				"z": 0.5882054288,
				"element": "F" 
			},
			{
				"x": 0.6600236387,
				"y": -1.800601757,
				"z": 0.8122668276,
				"element": "C" 
			},
			{
				"x": 0.1439241547,
				"y": -1.6735837382,
				"z": 2.0912209123,
				"element": "C" 
			},
			{
				"x": -0.8594717594,
				"y": -0.7348619719,
				"z": 2.3356163925,
				"element": "C" 
			},
			{
				"x": -1.4276910606,
				"y": -0.6867473803,
				"z": 4.1506180678,
				"element": "Br" 
			},
			{
				"x": -1.357297214,
				"y": 0.0714454318,
				"z": 1.285468991,
				"element": "C" 
			},
			{
				"x": -0.785505872,
				"y": -0.0816971958,
				"z": -0.0029586294,
				"element": "C" 
			},
			{
				"x": -1.24339314,
				"y": 0.8838600306,
				"z": -1.3787540955,
				"element": "Cl" 
			},
			{
				"x": 0.2179201032,
				"y": -1.0158312798,
				"z": -0.2415434003,
				"element": "C" 
			},
			{
				"x": -2.7179173479,
				"y": 1.2544716027,
				"z": 1.5122700654,
				"element": "S" 
			},
			{
				"x": -1.6786737368,
				"y": 3.0993918592,
				"z": 1.3176717844,
				"element": "Cl" 
			},
			{
				"x": -3.6306627878,
				"y": 1.1383815346,
				"z": 0.3867398356,
				"element": "O" 
			},
			{
				"x": -3.2059545403,
				"y": 1.2289378613,
				"z": 2.8788907506,
				"element": "O" 
			},
			{
				"x": 0.5205047534,
				"y": -2.2965242488,
				"z": 2.8917474836,
				"element": "H" 
			},
			{
				"x": 0.6484298757,
				"y": -1.126183723,
				"z": -1.2285604145,
				"element": "H" 
			}
		],
		 "valence_orbital": [ 
			{
				"type": "occ",
				"energy": -0.329,
				"method": "rhf"
			},
			{
				"type": "occ",
				"energy": -0.31788,
				"method": "rhf"
			},
			{
				"type": "occ",
				"energy": -0.29901,
				"method": "rhf"
			},
			{
				"type": "occ",
				"energy": -0.29512,
				"method": "rhf"
			},
			{
				"type": "occ",
				"energy": -0.28003,
				"method": "rhf"
			},
			{
				"type": "unocc",
				"energy": -0.09905,
				"method": "rhf"
			},
			{
				"type": "unocc",
				"energy": -0.06713,
				"method": "rhf"
			},
			{
				"type": "unocc",
				"energy": -0.06417,
				"method": "rhf"
			},
			{
				"type": "unocc",
				"energy": -0.03686,
				"method": "rhf"
			},
			{
				"type": "unocc",
				"energy": 0.01285,
				"method": "rhf"
			}
		],
		"cosmo_sigma_profile": { 
			"-0.025": 0.0,
			"-0.024": 0.0,
			"-0.023": 0.0,
			"-0.022": 0.0,
			"-0.021": 0.0,
			"-0.02": 0.0,
			"-0.019": 0.0,
			"-0.018": 0.0,
			"-0.017": 0.0,
			"-0.016": 0.0,
			"-0.015": 0.0,
			"-0.014": 0.0,
			"-0.013": 0.0,
			"-0.012": 0.0,
			"-0.011": 0.288126943235,
			"-0.01": 2.94678043496,
			"-0.009": 2.36454054914,
			"-0.008": 4.23665660041,
			"-0.007": 4.47495343886,
			"-0.006": 5.24842932434,
			"-0.005": 7.99053322262,
			"-0.004": 12.752441586,
			"-0.003": 24.3515503525,
			"-0.002": 23.8520752996,
			"-0.001": 17.0626001273,
			"0.0": 14.3892075093,
			"0.001": 17.107235883,
			"0.002": 29.4743572124,
			"0.003": 27.0251340043,
			"0.004": 6.38466589924,
			"0.005": 4.12152605637,
			"0.006": 4.74876391653,
			"0.007": 9.11418173338,
			"0.008": 9.53972278245,
			"0.009": 0.890614743149,
			"0.01": 0.0,
			"0.011": 0.0,
			"0.012": 0.0,
			"0.013": 0.0,
			"0.014": 0.0,
			"0.015": 0.0,
			"0.016": 0.0,
			"0.017": 0.0,
			"0.018": 0.0,
			"0.019": 0.0,
			"0.02": 0.0,
			"0.021": 0.0,
			"0.022": 0.0,
			"0.023": 0.0,
			"0.024": 0.0,
			"0.025": 0.0
		}
	}
}
