{
	 "smiles": "CC(Cl)C(=O)NC1=C(Cl)C=C(C=C1)[N+]([O-])=O", 
	 "Tm": 361.15, 
	 "num_atms": 24, 
	 "gaussian": { 
		 "optdone": 1, 
		 "sigma_profile": "yes", 
		 "theory": "DFT", 
		 "functional": "B3LYP", 
		 "basiset": "6-31G**", 
		 "properties": { 
			 "R2extent": 5324.3269, 
			 "electric_dipole_moment_norm": 2.52559888739, 
			 "electric_quadrupole_moment_norm": 28.1188906245, 
			 "total_energy": -1603.24638128, 
			 "HOMO_LUMO_gap": 0.15977, 
			 "cosmo_polarized_energy": -13.44, 
			 "cosmo_cavitation_energy": 32.24, 
			 "cosmo_dispersion_energy": -23.13, 
			 "cosmo_repulsion_energy": 1.81, 
			 "cosmo_total_nonelectrostatic_energy": 10.92, 
			 "SMD_solvation_energy": 7.89 
		},
		"coords": [
			{
				"x": 0.9966695998,
				"y": -1.6621351653,
				"z": -2.0997530084,
				"element": "C" 
			},
			{
				"x": 0.4705994841,
				"y": -2.5850033642,
				"z": -1.0080363652,
				"element": "C" 
			},
			{
				"x": 1.7035148432,
				"y": -2.8304765321,
				"z": 0.3294289719,
				"element": "Cl" 
			},
			{
				"x": -0.9092575742,
				"y": -2.2553679587,
				"z": -0.4191903936,
				"element": "C" 
			},
			{
				"x": -1.7474788202,
				"y": -3.1402610752,
				"z": -0.3767279305,
				"element": "O" 
			},
			{
				"x": -1.2938725217,
				"y": -0.9766941736,
				"z": -0.0230883605,
				"element": "N" 
			},
			{
				"x": -0.6824384395,
				"y": 0.271227763,
				"z": 0.1278050731,
				"element": "C" 
			},
			{
				"x": -1.4686502472,
				"y": 1.434413622,
				"z": -0.0613361086,
				"element": "C" 
			},
			{
				"x": -3.1557687164,
				"y": 1.2844859492,
				"z": -0.5212458292,
				"element": "Cl" 
			},
			{
				"x": -0.9415622644,
				"y": 2.7059505179,
				"z": 0.1086624954,
				"element": "C" 
			},
			{
				"x": 0.3967725674,
				"y": 2.829044561,
				"z": 0.4717487432,
				"element": "C" 
			},
			{
				"x": 1.1997766321,
				"y": 1.7123317042,
				"z": 0.6859409883,
				"element": "C" 
			},
			{
				"x": 0.653951678,
				"y": 0.4448266135,
				"z": 0.5290699793,
				"element": "C" 
			},
			{
				"x": 0.9628078292,
				"y": 4.1720037755,
				"z": 0.6412954122,
				"element": "N" 
			},
			{
				"x": 2.1502567401,
				"y": 4.251128711,
				"z": 0.9537353359,
				"element": "O" 
			},
			{
				"x": 0.2152554221,
				"y": 5.1325765743,
				"z": 0.4592807623,
				"element": "O" 
			},
			{
				"x": 0.2454947725,
				"y": -1.5902015807,
				"z": -2.8942971714,
				"element": "H" 
			},
			{
				"x": 1.9075557445,
				"y": -2.0852635259,
				"z": -2.5293082989,
				"element": "H" 
			},
			{
				"x": 1.2183283182,
				"y": -0.6573766429,
				"z": -1.7402948239,
				"element": "H" 
			},
			{
				"x": 0.3280135127,
				"y": -3.5896469101,
				"z": -1.4025105388,
				"element": "H" 
			},
			{
				"x": -2.2986515584,
				"y": -0.9728249845,
				"z": 0.122656886,
				"element": "H" 
			},
			{
				"x": -1.5456408814,
				"y": 3.590679218,
				"z": -0.0434488159,
				"element": "H" 
			},
			{
				"x": 2.2294786132,
				"y": 1.8453504516,
				"z": 0.9924809756,
				"element": "H" 
			},
			{
				"x": 1.2592452664,
				"y": -0.426667548,
				"z": 0.7391320216,
				"element": "H" 
			}
		],
		 "valence_orbital": [ 
			{
				"type": "occ",
				"energy": -0.31585,
				"method": "rhf"
			},
			{
				"type": "occ",
				"energy": -0.30113,
				"method": "rhf"
			},
			{
				"type": "occ",
				"energy": -0.28847,
				"method": "rhf"
			},
			{
				"type": "occ",
				"energy": -0.28725,
				"method": "rhf"
			},
			{
				"type": "occ",
				"energy": -0.26227,
				"method": "rhf"
			},
			{
				"type": "unocc",
				"energy": -0.1025,
				"method": "rhf"
			},
			{
				"type": "unocc",
				"energy": -0.05072,
				"method": "rhf"
			},
			{
				"type": "unocc",
				"energy": -0.04936,
				"method": "rhf"
			},
			{
				"type": "unocc",
				"energy": -0.00989,
				"method": "rhf"
			},
			{
				"type": "unocc",
				"energy": -0.00263,
				"method": "rhf"
			}
		],
		"cosmo_sigma_profile": { 
			"-0.025": 0.0,
			"-0.024": 0.0,
			"-0.023": 0.0,
			"-0.022": 0.0,
			"-0.021": 0.0,
			"-0.02": 0.0,
			"-0.019": 0.0,
			"-0.018": 0.0,
			"-0.017": 0.0,
			"-0.016": 0.0,
			"-0.015": 0.0,
			"-0.014": 0.0,
			"-0.013": 0.0859404101055,
			"-0.012": 0.921381211652,
			"-0.011": 0.887481279678,
			"-0.01": 0.972784505249,
			"-0.009": 2.22734956781,
			"-0.008": 5.44305702313,
			"-0.007": 8.88847409913,
			"-0.006": 11.9734373371,
			"-0.005": 13.7599122949,
			"-0.004": 18.0324262399,
			"-0.003": 22.5342341596,
			"-0.002": 27.5878395372,
			"-0.001": 29.3722393337,
			"0.0": 18.4050642894,
			"0.001": 14.0056670961,
			"0.002": 12.3239739016,
			"0.003": 13.8079506541,
			"0.004": 10.7886930743,
			"0.005": 9.58704243997,
			"0.006": 5.02708919718,
			"0.007": 10.1885502552,
			"0.008": 7.68521748464,
			"0.009": 6.28558739049,
			"0.01": 4.31918822319,
			"0.011": 4.61711804757,
			"0.012": 2.83114511934,
			"0.013": 0.0766956268944,
			"0.014": 0.0,
			"0.015": 0.0,
			"0.016": 0.0,
			"0.017": 0.0,
			"0.018": 0.0,
			"0.019": 0.0,
			"0.02": 0.0,
			"0.021": 0.0,
			"0.022": 0.0,
			"0.023": 0.0,
			"0.024": 0.0,
			"0.025": 0.0
		}
	}
}
