{
	 "smiles": "CC1CC(C2=C(N1)N(C)NC2=O)C(F)(F)F", 
	 "Tm": 476.15, 
	 "num_atms": 28, 
	 "gaussian": { 
		 "optdone": 1, 
		 "sigma_profile": "yes", 
		 "theory": "DFT", 
		 "functional": "B3LYP", 
		 "basiset": "6-31G**", 
		 "properties": { 
			 "R2extent": 3498.6595, 
			 "electric_dipole_moment_norm": 7.6727987977, 
			 "electric_quadrupole_moment_norm": 5.92680915924, 
			 "total_energy": -889.179848481, 
			 "HOMO_LUMO_gap": 0.21257, 
			 "cosmo_polarized_energy": -20.39, 
			 "cosmo_cavitation_energy": 31.04, 
			 "cosmo_dispersion_energy": -21.87, 
			 "cosmo_repulsion_energy": 1.65, 
			 "cosmo_total_nonelectrostatic_energy": 10.83, 
			 "SMD_solvation_energy": 5.11 
		},
		"coords": [
			{
				"x": 1.7444595083,
				"y": -2.2687836653,
				"z": -2.4613431827,
				"element": "C" 
			},
			{
				"x": 1.8321189334,
				"y": -0.7379744939,
				"z": -2.372676608,
				"element": "C" 
			},
			{
				"x": 0.4759366913,
				"y": -0.0401525318,
				"z": -2.5654453298,
				"element": "C" 
			},
			{
				"x": -0.5338373379,
				"y": -0.315391778,
				"z": -1.4227069218,
				"element": "C" 
			},
			{
				"x": 0.1861252156,
				"y": -0.1803558743,
				"z": -0.1091168146,
				"element": "C" 
			},
			{
				"x": 1.5512732962,
				"y": -0.2214257821,
				"z": -0.0346233395,
				"element": "C" 
			},
			{
				"x": 2.4215933808,
				"y": -0.2918121647,
				"z": -1.0929034091,
				"element": "N" 
			},
			{
				"x": 2.0197280507,
				"y": -0.1620160589,
				"z": 1.2780556699,
				"element": "N" 
			},
			{
				"x": 3.110450552,
				"y": 0.7748060882,
				"z": 1.57952531,
				"element": "C" 
			},
			{
				"x": 0.854968573,
				"y": 0.0981191534,
				"z": 2.0624626966,
				"element": "N" 
			},
			{
				"x": -0.3099092417,
				"y": -0.1028275201,
				"z": 1.2562786118,
				"element": "C" 
			},
			{
				"x": -1.4278550323,
				"y": -0.2076849267,
				"z": 1.7351692768,
				"element": "O" 
			},
			{
				"x": -1.718364489,
				"y": 0.638080771,
				"z": -1.5751931762,
				"element": "C" 
			},
			{
				"x": -1.3604116597,
				"y": 1.926106562,
				"z": -1.3759781068,
				"element": "F" 
			},
			{
				"x": -2.7228107137,
				"y": 0.35291724,
				"z": -0.7366252801,
				"element": "F" 
			},
			{
				"x": -2.219118904,
				"y": 0.5567230184,
				"z": -2.8378504244,
				"element": "F" 
			},
			{
				"x": 2.7369691938,
				"y": -2.7231548494,
				"z": -2.3676292014,
				"element": "H" 
			},
			{
				"x": 1.3288423765,
				"y": -2.5749058395,
				"z": -3.4269783918,
				"element": "H" 
			},
			{
				"x": 1.1111446049,
				"y": -2.6788561479,
				"z": -1.6688339764,
				"element": "H" 
			},
			{
				"x": 2.4998832734,
				"y": -0.3798791488,
				"z": -3.1647674782,
				"element": "H" 
			},
			{
				"x": 0.0498763094,
				"y": -0.3470172866,
				"z": -3.5235453922,
				"element": "H" 
			},
			{
				"x": 0.648917466,
				"y": 1.0396444946,
				"z": -2.6142443662,
				"element": "H" 
			},
			{
				"x": -0.9705957065,
				"y": -1.3174528872,
				"z": -1.5357286747,
				"element": "H" 
			},
			{
				"x": 3.3150442468,
				"y": -0.7175216833,
				"z": -0.8772884696,
				"element": "H" 
			},
			{
				"x": 3.4249682979,
				"y": 0.6257217667,
				"z": 2.6145002594,
				"element": "H" 
			},
			{
				"x": 3.9623509071,
				"y": 0.5610513475,
				"z": 0.9306866836,
				"element": "H" 
			},
			{
				"x": 2.7991764884,
				"y": 1.8176527663,
				"z": 1.4429027143,
				"element": "H" 
			},
			{
				"x": 0.8471757191,
				"y": -0.4401105697,
				"z": 2.923897321,
				"element": "H" 
			}
		],
		 "valence_orbital": [ 
			{
				"type": "occ",
				"energy": -0.34152,
				"method": "rhf"
			},
			{
				"type": "occ",
				"energy": -0.30902,
				"method": "rhf"
			},
			{
				"type": "occ",
				"energy": -0.23661,
				"method": "rhf"
			},
			{
				"type": "occ",
				"energy": -0.23362,
				"method": "rhf"
			},
			{
				"type": "occ",
				"energy": -0.21129,
				"method": "rhf"
			},
			{
				"type": "unocc",
				"energy": 0.00128,
				"method": "rhf"
			},
			{
				"type": "unocc",
				"energy": 0.05252,
				"method": "rhf"
			},
			{
				"type": "unocc",
				"energy": 0.07018,
				"method": "rhf"
			},
			{
				"type": "unocc",
				"energy": 0.08893,
				"method": "rhf"
			},
			{
				"type": "unocc",
				"energy": 0.1005,
				"method": "rhf"
			}
		],
		"cosmo_sigma_profile": { 
			"-0.025": 0.0,
			"-0.024": 0.0,
			"-0.023": 0.0,
			"-0.022": 0.0,
			"-0.021": 0.0,
			"-0.02": 0.0,
			"-0.019": 0.0,
			"-0.018": 0.0,
			"-0.017": 0.0,
			"-0.016": 0.0,
			"-0.015": 0.0305280178645,
			"-0.014": 1.58074595412,
			"-0.013": 2.63755523217,
			"-0.012": 2.58806011311,
			"-0.011": 2.22083575267,
			"-0.01": 2.56650080851,
			"-0.009": 2.21716375592,
			"-0.008": 3.27822463267,
			"-0.007": 3.8572450529,
			"-0.006": 7.80718575253,
			"-0.005": 16.0243214486,
			"-0.004": 24.1361342341,
			"-0.003": 20.9935281078,
			"-0.002": 19.6249751347,
			"-0.001": 14.7452645347,
			"0.0": 13.7290820362,
			"0.001": 11.9962586462,
			"0.002": 11.8582015301,
			"0.003": 29.7172266929,
			"0.004": 15.4021055541,
			"0.005": 4.33535642755,
			"0.006": 3.91226859572,
			"0.007": 3.07777947649,
			"0.008": 3.45050793025,
			"0.009": 3.87970645563,
			"0.01": 2.51846624931,
			"0.011": 1.5419373729,
			"0.012": 1.96391085889,
			"0.013": 2.82048391751,
			"0.014": 5.39289280944,
			"0.015": 3.52011449304,
			"0.016": 0.186958682351,
			"0.017": 0.0,
			"0.018": 0.0,
			"0.019": 0.0,
			"0.02": 0.0,
			"0.021": 0.0,
			"0.022": 0.0,
			"0.023": 0.0,
			"0.024": 0.0,
			"0.025": 0.0
		}
	}
}
