{
	 "smiles": "CCC(C)CCCCO", 
	 "Tm": 169.15, 
	 "num_atms": 27, 
	 "gaussian": { 
		 "optdone": 1, 
		 "sigma_profile": "yes", 
		 "theory": "DFT", 
		 "functional": "B3LYP", 
		 "basiset": "6-31G**", 
		 "properties": { 
			 "R2extent": 2300.6382, 
			 "electric_dipole_moment_norm": 1.70204791354, 
			 "electric_quadrupole_moment_norm": 8.63551927217, 
			 "total_energy": -390.929991955, 
			 "HOMO_LUMO_gap": 0.33844, 
			 "cosmo_polarized_energy": -5.95, 
			 "cosmo_cavitation_energy": 27.3, 
			 "cosmo_dispersion_energy": -19.37, 
			 "cosmo_repulsion_energy": 1.62, 
			 "cosmo_total_nonelectrostatic_energy": 9.55, 
			 "SMD_solvation_energy": 4.29 
		},
		"coords": [
			{
				"x": 1.5158394586,
				"y": 2.8336146254,
				"z": 0.0531760734,
				"element": "C" 
			},
			{
				"x": 0.154513888,
				"y": 2.6445449426,
				"z": 0.7363563777,
				"element": "C" 
			},
			{
				"x": -0.5274153305,
				"y": 1.2719146064,
				"z": 0.5297039122,
				"element": "C" 
			},
			{
				"x": 0.3013626444,
				"y": 0.1248647593,
				"z": 1.1300932834,
				"element": "C" 
			},
			{
				"x": -0.9083212318,
				"y": 1.0376103352,
				"z": -0.9485726138,
				"element": "C" 
			},
			{
				"x": -1.8051805257,
				"y": -0.1980113567,
				"z": -1.2074271144,
				"element": "C" 
			},
			{
				"x": -1.0688396525,
				"y": -1.4626658695,
				"z": -1.6872658837,
				"element": "C" 
			},
			{
				"x": -0.6080725328,
				"y": -1.3846326985,
				"z": -3.1454070226,
				"element": "C" 
			},
			{
				"x": 0.1327377127,
				"y": -2.5277256182,
				"z": -3.5532065862,
				"element": "O" 
			},
			{
				"x": 1.4450459031,
				"y": 2.738386797,
				"z": -1.0352082606,
				"element": "H" 
			},
			{
				"x": 2.2532617458,
				"y": 2.1039066519,
				"z": 0.4030281791,
				"element": "H" 
			},
			{
				"x": 1.9166433415,
				"y": 3.8299443671,
				"z": 0.2671023711,
				"element": "H" 
			},
			{
				"x": 0.2752146203,
				"y": 2.8085447593,
				"z": 1.8155846649,
				"element": "H" 
			},
			{
				"x": -0.5303108528,
				"y": 3.4288333939,
				"z": 0.3864951257,
				"element": "H" 
			},
			{
				"x": -1.4725917897,
				"y": 1.3155830513,
				"z": 1.0927652665,
				"element": "H" 
			},
			{
				"x": 0.5744416418,
				"y": 0.3436900219,
				"z": 2.1687379105,
				"element": "H" 
			},
			{
				"x": -0.2561443286,
				"y": -0.8167070625,
				"z": 1.1313311644,
				"element": "H" 
			},
			{
				"x": 1.2287198418,
				"y": -0.0428359954,
				"z": 0.5711569307,
				"element": "H" 
			},
			{
				"x": 0.0038176925,
				"y": 0.9651944968,
				"z": -1.5547640082,
				"element": "H" 
			},
			{
				"x": -1.4289121465,
				"y": 1.9366425908,
				"z": -1.3026298621,
				"element": "H" 
			},
			{
				"x": -2.3652192566,
				"y": -0.432365641,
				"z": -0.2931634382,
				"element": "H" 
			},
			{
				"x": -2.5662522626,
				"y": 0.0574731847,
				"z": -1.9569913393,
				"element": "H" 
			},
			{
				"x": -1.7388673324,
				"y": -2.329266733,
				"z": -1.5849983304,
				"element": "H" 
			},
			{
				"x": -0.194984981,
				"y": -1.6697137931,
				"z": -1.0597523412,
				"element": "H" 
			},
			{
				"x": -1.4803317262,
				"y": -1.217358853,
				"z": -3.8003772574,
				"element": "H" 
			},
			{
				"x": 0.0659245994,
				"y": -0.5342209921,
				"z": -3.2924376258,
				"element": "H" 
			},
			{
				"x": -0.4390791399,
				"y": -3.2988439705,
				"z": -3.4452295757,
				"element": "H" 
			}
		],
		 "valence_orbital": [ 
			{
				"type": "occ",
				"energy": -0.3154,
				"method": "rhf"
			},
			{
				"type": "occ",
				"energy": -0.31022,
				"method": "rhf"
			},
			{
				"type": "occ",
				"energy": -0.30381,
				"method": "rhf"
			},
			{
				"type": "occ",
				"energy": -0.2997,
				"method": "rhf"
			},
			{
				"type": "occ",
				"energy": -0.25988,
				"method": "rhf"
			},
			{
				"type": "unocc",
				"energy": 0.07856,
				"method": "rhf"
			},
			{
				"type": "unocc",
				"energy": 0.08254,
				"method": "rhf"
			},
			{
				"type": "unocc",
				"energy": 0.10333,
				"method": "rhf"
			},
			{
				"type": "unocc",
				"energy": 0.10884,
				"method": "rhf"
			},
			{
				"type": "unocc",
				"energy": 0.11862,
				"method": "rhf"
			}
		],
		"cosmo_sigma_profile": { 
			"-0.025": 0.0,
			"-0.024": 0.0,
			"-0.023": 0.0,
			"-0.022": 0.0,
			"-0.021": 0.0,
			"-0.02": 0.0,
			"-0.019": 0.0,
			"-0.018": 0.0,
			"-0.017": 0.0,
			"-0.016": 0.0,
			"-0.015": 0.446317025071,
			"-0.014": 1.05023307663,
			"-0.013": 0.77921065396,
			"-0.012": 1.07918151109,
			"-0.011": 1.13301673182,
			"-0.01": 0.661967631383,
			"-0.009": 0.916141277605,
			"-0.008": 0.824142579429,
			"-0.007": 0.885322300252,
			"-0.006": 1.11326402292,
			"-0.005": 1.61549930619,
			"-0.004": 2.0748194806,
			"-0.003": 9.39437892272,
			"-0.002": 32.5400677335,
			"-0.001": 44.1695049929,
			"0.0": 41.6363581835,
			"0.001": 32.4710776316,
			"0.002": 16.6626750334,
			"0.003": 2.40069846523,
			"0.004": 0.720617539776,
			"0.005": 1.04672118672,
			"0.006": 1.94659927819,
			"0.007": 1.18433185851,
			"0.008": 1.06710432579,
			"0.009": 1.13968909515,
			"0.01": 1.65535613835,
			"0.011": 0.938039710061,
			"0.012": 0.992898994778,
			"0.013": 2.2507035558,
			"0.014": 1.86288170443,
			"0.015": 1.96337629357,
			"0.016": 0.0372243901811,
			"0.017": 0.0,
			"0.018": 0.0,
			"0.019": 0.0,
			"0.02": 0.0,
			"0.021": 0.0,
			"0.022": 0.0,
			"0.023": 0.0,
			"0.024": 0.0,
			"0.025": 0.0
		}
	}
}
