{
	 "smiles": "ON=C1C2=CC=CC=C2[N+]([O-])=C1C1=NC=CC=C1", 
	 "Tm": 489.15, 
	 "num_atms": 27, 
	 "gaussian": { 
		 "optdone": 1, 
		 "sigma_profile": "yes", 
		 "theory": "DFT", 
		 "functional": "B3LYP", 
		 "basiset": "6-31G**", 
		 "properties": { 
			 "R2extent": 4755.6887, 
			 "electric_dipole_moment_norm": 1.93561842572, 
			 "electric_quadrupole_moment_norm": 16.8309385618, 
			 "total_energy": -815.376762496, 
			 "HOMO_LUMO_gap": 0.12211, 
			 "cosmo_polarized_energy": -14.61, 
			 "cosmo_cavitation_energy": 32.29, 
			 "cosmo_dispersion_energy": -23.61, 
			 "cosmo_repulsion_energy": 1.8, 
			 "cosmo_total_nonelectrostatic_energy": 10.48, 
			 "SMD_solvation_energy": 5.31 
		},
		"coords": [
			{
				"x": -0.4868011085,
				"y": -1.9230250776,
				"z": 2.1630187047,
				"element": "O" 
			},
			{
				"x": -1.4858107712,
				"y": -1.5932648558,
				"z": 1.277244945,
				"element": "N" 
			},
			{
				"x": -1.0782538016,
				"y": -0.9898171615,
				"z": 0.2085702134,
				"element": "C" 
			},
			{
				"x": -2.0865212338,
				"y": -0.4390917161,
				"z": -0.7182713202,
				"element": "C" 
			},
			{
				"x": -3.4735457899,
				"y": -0.5118037313,
				"z": -0.7884124534,
				"element": "C" 
			},
			{
				"x": -4.1148541125,
				"y": 0.1929981194,
				"z": -1.8152471236,
				"element": "C" 
			},
			{
				"x": -3.3912899972,
				"y": 0.9617668714,
				"z": -2.7379755097,
				"element": "C" 
			},
			{
				"x": -1.9963089536,
				"y": 1.0509757248,
				"z": -2.6638220079,
				"element": "C" 
			},
			{
				"x": -1.3951910177,
				"y": 0.33576217,
				"z": -1.6446865226,
				"element": "C" 
			},
			{
				"x": 0.0128598992,
				"y": 0.2539353928,
				"z": -1.3557960586,
				"element": "N" 
			},
			{
				"x": 0.8570521201,
				"y": 0.8658206542,
				"z": -2.06934671,
				"element": "O" 
			},
			{
				"x": 0.2321354101,
				"y": -0.5552096207,
				"z": -0.2955773965,
				"element": "C" 
			},
			{
				"x": 1.5914877165,
				"y": -0.9543962514,
				"z": 0.0906582112,
				"element": "C" 
			},
			{
				"x": 1.7396210204,
				"y": -2.230587417,
				"z": 0.4939401953,
				"element": "N" 
			},
			{
				"x": 2.9632370776,
				"y": -2.6411234218,
				"z": 0.827876496,
				"element": "C" 
			},
			{
				"x": 4.09685677,
				"y": -1.8254451552,
				"z": 0.7811085148,
				"element": "C" 
			},
			{
				"x": 3.9401144027,
				"y": -0.5092516844,
				"z": 0.3502921559,
				"element": "C" 
			},
			{
				"x": 2.6720115385,
				"y": -0.0609595285,
				"z": -0.0092040127,
				"element": "C" 
			},
			{
				"x": -0.9718130836,
				"y": -2.3708640919,
				"z": 2.8705578941,
				"element": "H" 
			},
			{
				"x": -4.0343412681,
				"y": -1.1014080239,
				"z": -0.0713822344,
				"element": "H" 
			},
			{
				"x": -5.1964321965,
				"y": 0.143592471,
				"z": -1.8983332759,
				"element": "H" 
			},
			{
				"x": -3.9206304737,
				"y": 1.4970936133,
				"z": -3.5201353167,
				"element": "H" 
			},
			{
				"x": -1.4006102427,
				"y": 1.6385228506,
				"z": -3.3524185841,
				"element": "H" 
			},
			{
				"x": 3.0466651676,
				"y": -3.6794796941,
				"z": 1.1455437106,
				"element": "H" 
			},
			{
				"x": 5.0681419478,
				"y": -2.2165776177,
				"z": 1.0673234723,
				"element": "H" 
			},
			{
				"x": 4.7925712371,
				"y": 0.161298953,
				"z": 0.2909722873,
				"element": "H" 
			},
			{
				"x": 2.5097497428,
				"y": 0.9445382283,
				"z": -0.3743982743,
				"element": "H" 
			}
		],
		 "valence_orbital": [ 
			{
				"type": "occ",
				"energy": -0.26902,
				"method": "rhf"
			},
			{
				"type": "occ",
				"energy": -0.25854,
				"method": "rhf"
			},
			{
				"type": "occ",
				"energy": -0.25126,
				"method": "rhf"
			},
			{
				"type": "occ",
				"energy": -0.24078,
				"method": "rhf"
			},
			{
				"type": "occ",
				"energy": -0.21061,
				"method": "rhf"
			},
			{
				"type": "unocc",
				"energy": -0.0885,
				"method": "rhf"
			},
			{
				"type": "unocc",
				"energy": -0.03726,
				"method": "rhf"
			},
			{
				"type": "unocc",
				"energy": -0.01519,
				"method": "rhf"
			},
			{
				"type": "unocc",
				"energy": -0.00312,
				"method": "rhf"
			},
			{
				"type": "unocc",
				"energy": 0.01646,
				"method": "rhf"
			}
		],
		"cosmo_sigma_profile": { 
			"-0.025": 0.0,
			"-0.024": 0.0,
			"-0.023": 0.0,
			"-0.022": 0.0,
			"-0.021": 0.0,
			"-0.02": 0.0,
			"-0.019": 0.134640233939,
			"-0.018": 1.38156197235,
			"-0.017": 0.773086312359,
			"-0.016": 0.93027044136,
			"-0.015": 0.997747162703,
			"-0.014": 0.56905765741,
			"-0.013": 0.849705799421,
			"-0.012": 0.503368610545,
			"-0.011": 0.63534319131,
			"-0.01": 0.957487221293,
			"-0.009": 0.532841243272,
			"-0.008": 0.917952130564,
			"-0.007": 10.2844663961,
			"-0.006": 17.4828395587,
			"-0.005": 18.8284467572,
			"-0.004": 14.7967432419,
			"-0.003": 15.1424634318,
			"-0.002": 15.4653124787,
			"-0.001": 15.6826172034,
			"0.0": 17.6302222203,
			"0.001": 23.6619122461,
			"0.002": 27.8577327699,
			"0.003": 22.6332464161,
			"0.004": 9.16484590674,
			"0.005": 6.0808398362,
			"0.006": 5.19548025036,
			"0.007": 5.34032816221,
			"0.008": 4.59377917646,
			"0.009": 5.39800619207,
			"0.01": 5.160542641,
			"0.011": 5.62206759059,
			"0.012": 2.18173483289,
			"0.013": 1.19434392129,
			"0.014": 0.612263136372,
			"0.015": 0.949096683008,
			"0.016": 0.255276008125,
			"0.017": 0.0,
			"0.018": 0.0,
			"0.019": 0.0,
			"0.02": 0.0,
			"0.021": 0.0,
			"0.022": 0.0,
			"0.023": 0.0,
			"0.024": 0.0,
			"0.025": 0.0
		}
	}
}
