{
	 "smiles": "CC12CCC3C(CCC4CC(=O)CCC34C)C1CCC21OCCO1", 
	 "Tm": 467.15, 
	 "num_atms": 56, 
	 "gaussian": { 
		 "optdone": 1, 
		 "sigma_profile": "yes", 
		 "theory": "DFT", 
		 "functional": "B3LYP", 
		 "basiset": "6-31G**", 
		 "properties": { 
			 "R2extent": 9784.9364, 
			 "electric_dipole_moment_norm": 4.53807385793, 
			 "electric_quadrupole_moment_norm": 17.6948723338, 
			 "total_energy": -1045.19064234, 
			 "HOMO_LUMO_gap": 0.22178, 
			 "cosmo_polarized_energy": -11.92, 
			 "cosmo_cavitation_energy": 47.51, 
			 "cosmo_dispersion_energy": -33.62, 
			 "cosmo_repulsion_energy": 2.46, 
			 "cosmo_total_nonelectrostatic_energy": 16.36, 
			 "SMD_solvation_energy": 7.01 
		},
		"coords": [
			{
				"x": 1.8757374428,
				"y": -1.9996072461,
				"z": 0.743722313,
				"element": "C" 
			},
			{
				"x": 0.3680426013,
				"y": -1.8425996817,
				"z": 0.4418901965,
				"element": "C" 
			},
			{
				"x": -0.291620029,
				"y": -0.9014341243,
				"z": 1.4825016574,
				"element": "C" 
			},
			{
				"x": -0.6018851628,
				"y": 0.4982281945,
				"z": 0.8999005703,
				"element": "C" 
			},
			{
				"x": 0.5147278943,
				"y": 1.0151666984,
				"z": -0.032514085,
				"element": "C" 
			},
			{
				"x": 0.7091669543,
				"y": 0.060724509,
				"z": -1.2733830861,
				"element": "C" 
			},
			{
				"x": 0.1567443464,
				"y": 0.6569248877,
				"z": -2.5776050641,
				"element": "C" 
			},
			{
				"x": 0.7629000262,
				"y": 2.0383656511,
				"z": -2.904833217,
				"element": "C" 
			},
			{
				"x": 1.275376309,
				"y": 2.7920546521,
				"z": -1.6579122774,
				"element": "C" 
			},
			{
				"x": 1.4855012534,
				"y": 4.2891938635,
				"z": -1.9816468719,
				"element": "C" 
			},
			{
				"x": 1.9450089113,
				"y": 5.1077402329,
				"z": -0.7852624583,
				"element": "C" 
			},
			{
				"x": 2.8754993885,
				"y": 5.8899244662,
				"z": -0.8447224918,
				"element": "O" 
			},
			{
				"x": 1.1504937855,
				"y": 4.8711509348,
				"z": 0.4894468871,
				"element": "C" 
			},
			{
				"x": 0.9942315886,
				"y": 3.3645661477,
				"z": 0.7770032085,
				"element": "C" 
			},
			{
				"x": 0.3952062869,
				"y": 2.5432945956,
				"z": -0.3982054946,
				"element": "C" 
			},
			{
				"x": -1.0677456163,
				"y": 2.9874227706,
				"z": -0.6312584009,
				"element": "C" 
			},
			{
				"x": 0.0943335311,
				"y": -1.3179670887,
				"z": -0.9896900601,
				"element": "C" 
			},
			{
				"x": 0.4787750333,
				"y": -2.4931682193,
				"z": -1.9149035113,
				"element": "C" 
			},
			{
				"x": 0.1559320381,
				"y": -3.7650867157,
				"z": -1.0813701989,
				"element": "C" 
			},
			{
				"x": -0.2609358287,
				"y": -3.2598089018,
				"z": 0.3297469309,
				"element": "C" 
			},
			{
				"x": -1.6981330715,
				"y": -3.200674084,
				"z": 0.3924004816,
				"element": "O" 
			},
			{
				"x": -2.145129202,
				"y": -4.007563542,
				"z": 1.4786398936,
				"element": "C" 
			},
			{
				"x": -0.9609475849,
				"y": -4.9409817537,
				"z": 1.718102558,
				"element": "C" 
			},
			{
				"x": 0.1448502406,
				"y": -4.107081075,
				"z": 1.3930448569,
				"element": "O" 
			},
			{
				"x": 2.0050673493,
				"y": -2.4736645327,
				"z": 1.7200679047,
				"element": "H" 
			},
			{
				"x": 2.3761442646,
				"y": -1.027955986,
				"z": 0.7717275736,
				"element": "H" 
			},
			{
				"x": 2.395922134,
				"y": -2.6189154105,
				"z": 0.0071756378,
				"element": "H" 
			},
			{
				"x": -1.2247993701,
				"y": -1.3393014469,
				"z": 1.8481718203,
				"element": "H" 
			},
			{
				"x": 0.3703132455,
				"y": -0.7953983221,
				"z": 2.3498975106,
				"element": "H" 
			},
			{
				"x": -1.5526612749,
				"y": 0.4631868744,
				"z": 0.3558341897,
				"element": "H" 
			},
			{
				"x": -0.7565512878,
				"y": 1.1981005121,
				"z": 1.7292117984,
				"element": "H" 
			},
			{
				"x": 1.4457262799,
				"y": 0.940635903,
				"z": 0.5449721593,
				"element": "H" 
			},
			{
				"x": 1.7907600937,
				"y": -0.0754482532,
				"z": -1.4154752418,
				"element": "H" 
			},
			{
				"x": 0.3440786001,
				"y": -0.0359882629,
				"z": -3.4056578357,
				"element": "H" 
			},
			{
				"x": -0.9347855961,
				"y": 0.7300607157,
				"z": -2.4973579051,
				"element": "H" 
			},
			{
				"x": 1.5987950527,
				"y": 1.9291492371,
				"z": -3.6064033765,
				"element": "H" 
			},
			{
				"x": 0.016281806,
				"y": 2.6524680854,
				"z": -3.4238308084,
				"element": "H" 
			},
			{
				"x": 2.2668834819,
				"y": 2.3846702709,
				"z": -1.4086909554,
				"element": "H" 
			},
			{
				"x": 2.2127584455,
				"y": 4.4180030951,
				"z": -2.7890712605,
				"element": "H" 
			},
			{
				"x": 0.5367444143,
				"y": 4.7218396486,
				"z": -2.3318322456,
				"element": "H" 
			},
			{
				"x": 0.163445638,
				"y": 5.3374979424,
				"z": 0.3650456047,
				"element": "H" 
			},
			{
				"x": 1.6526506252,
				"y": 5.3862504413,
				"z": 1.3128994978,
				"element": "H" 
			},
			{
				"x": 0.385942746,
				"y": 3.22850474,
				"z": 1.6790203485,
				"element": "H" 
			},
			{
				"x": 1.9877084592,
				"y": 2.9610877884,
				"z": 1.0123488139,
				"element": "H" 
			},
			{
				"x": -1.6485643511,
				"y": 2.9200852403,
				"z": 0.2932562319,
				"element": "H" 
			},
			{
				"x": -1.1268004869,
				"y": 4.0260900877,
				"z": -0.9695354696,
				"element": "H" 
			},
			{
				"x": -1.5768785036,
				"y": 2.3782544709,
				"z": -1.3809019305,
				"element": "H" 
			},
			{
				"x": -0.9973102562,
				"y": -1.2119393023,
				"z": -1.0599684504,
				"element": "H" 
			},
			{
				"x": -0.0718496819,
				"y": -2.4700954331,
				"z": -2.8595025658,
				"element": "H" 
			},
			{
				"x": 1.5443979922,
				"y": -2.4531205575,
				"z": -2.16834949,
				"element": "H" 
			},
			{
				"x": -0.6586295228,
				"y": -4.3509344317,
				"z": -1.5129407393,
				"element": "H" 
			},
			{
				"x": 1.0254818308,
				"y": -4.4204380624,
				"z": -0.9826908539,
				"element": "H" 
			},
			{
				"x": -2.3495966017,
				"y": -3.3909907883,
				"z": 2.3657487438,
				"element": "H" 
			},
			{
				"x": -3.0636274669,
				"y": -4.5244255897,
				"z": 1.1839897194,
				"element": "H" 
			},
			{
				"x": -0.8531163788,
				"y": -5.2717894819,
				"z": 2.7541607456,
				"element": "H" 
			},
			{
				"x": -1.0025628165,
				"y": -5.8217643641,
				"z": 1.0601884922,
				"element": "H" 
			}
		],
		 "valence_orbital": [ 
			{
				"type": "occ",
				"energy": -0.281,
				"method": "rhf"
			},
			{
				"type": "occ",
				"energy": -0.27394,
				"method": "rhf"
			},
			{
				"type": "occ",
				"energy": -0.26631,
				"method": "rhf"
			},
			{
				"type": "occ",
				"energy": -0.24235,
				"method": "rhf"
			},
			{
				"type": "occ",
				"energy": -0.22999,
				"method": "rhf"
			},
			{
				"type": "unocc",
				"energy": -0.00821,
				"method": "rhf"
			},
			{
				"type": "unocc",
				"energy": 0.06728,
				"method": "rhf"
			},
			{
				"type": "unocc",
				"energy": 0.07925,
				"method": "rhf"
			},
			{
				"type": "unocc",
				"energy": 0.08311,
				"method": "rhf"
			},
			{
				"type": "unocc",
				"energy": 0.08941,
				"method": "rhf"
			}
		],
		"cosmo_sigma_profile": { 
			"-0.025": 0.0,
			"-0.024": 0.0,
			"-0.023": 0.0,
			"-0.022": 0.0,
			"-0.021": 0.0,
			"-0.02": 0.0,
			"-0.019": 0.0,
			"-0.018": 0.0,
			"-0.017": 0.0,
			"-0.016": 0.0,
			"-0.015": 0.0,
			"-0.014": 0.0,
			"-0.013": 0.0,
			"-0.012": 0.0,
			"-0.011": 0.0,
			"-0.01": 0.0,
			"-0.009": 0.0,
			"-0.008": 0.0185352425552,
			"-0.007": 0.949113289241,
			"-0.006": 5.05033716389,
			"-0.005": 12.7999368288,
			"-0.004": 22.2506752503,
			"-0.003": 42.9581629253,
			"-0.002": 62.630268988,
			"-0.001": 60.479668452,
			"0.0": 49.4094587136,
			"0.001": 36.4824212788,
			"0.002": 16.4015487965,
			"0.003": 5.41463311288,
			"0.004": 5.90785794802,
			"0.005": 4.45066762021,
			"0.006": 5.04300278019,
			"0.007": 5.34619081125,
			"0.008": 4.55509143327,
			"0.009": 3.35973448387,
			"0.01": 4.61579520133,
			"0.011": 4.55600022147,
			"0.012": 5.9774348383,
			"0.013": 4.33537418249,
			"0.014": 1.17166365684,
			"0.015": 0.0,
			"0.016": 0.0,
			"0.017": 0.0,
			"0.018": 0.0,
			"0.019": 0.0,
			"0.02": 0.0,
			"0.021": 0.0,
			"0.022": 0.0,
			"0.023": 0.0,
			"0.024": 0.0,
			"0.025": 0.0
		}
	}
}
