{
	 "smiles": "CCCCCCCCCCCCN1CC(CC1=O)C(O)=O", 
	 "Tm": 312.15, 
	 "num_atms": 52, 
	 "gaussian": { 
		 "optdone": 1, 
		 "sigma_profile": "yes", 
		 "theory": "DFT", 
		 "functional": "B3LYP", 
		 "basiset": "6-31G**", 
		 "properties": { 
			 "R2extent": 14028.1577, 
			 "electric_dipole_moment_norm": 2.55617513876, 
			 "electric_quadrupole_moment_norm": 23.8847157379, 
			 "total_energy": -946.967263507, 
			 "HOMO_LUMO_gap": 0.2403, 
			 "cosmo_polarized_energy": -20.4, 
			 "cosmo_cavitation_energy": 51.64, 
			 "cosmo_dispersion_energy": -34.06, 
			 "cosmo_repulsion_energy": 2.72, 
			 "cosmo_total_nonelectrostatic_energy": 20.3, 
			 "SMD_solvation_energy": 8.85 
		},
		"coords": [
			{
				"x": 1.5593513571,
				"y": -1.6404193072,
				"z": -4.5582028923,
				"element": "C" 
			},
			{
				"x": 1.084722347,
				"y": -0.3602816157,
				"z": -3.8627630804,
				"element": "C" 
			},
			{
				"x": -0.0259799271,
				"y": 0.3646704645,
				"z": -4.6390288841,
				"element": "C" 
			},
			{
				"x": -0.5345971439,
				"y": 1.6757883668,
				"z": -3.9993216306,
				"element": "C" 
			},
			{
				"x": -1.7405827587,
				"y": 1.5460905049,
				"z": -3.050917099,
				"element": "C" 
			},
			{
				"x": -1.5130754868,
				"y": 0.7195785401,
				"z": -1.7759293071,
				"element": "C" 
			},
			{
				"x": -2.7136677547,
				"y": 0.7489422175,
				"z": -0.8078604564,
				"element": "C" 
			},
			{
				"x": -2.9059368346,
				"y": 2.0655036591,
				"z": -0.0194265503,
				"element": "C" 
			},
			{
				"x": -2.2890300513,
				"y": 2.1379325916,
				"z": 1.3921401827,
				"element": "C" 
			},
			{
				"x": -0.7498152773,
				"y": 2.0886417695,
				"z": 1.5063257557,
				"element": "C" 
			},
			{
				"x": -0.1493510397,
				"y": 0.6803967511,
				"z": 1.626648235,
				"element": "C" 
			},
			{
				"x": 1.3821221002,
				"y": 0.6728365121,
				"z": 1.7539149914,
				"element": "C" 
			},
			{
				"x": 1.8846433657,
				"y": 1.3536961322,
				"z": 2.9398896098,
				"element": "N" 
			},
			{
				"x": 1.8134598021,
				"y": 0.7651473041,
				"z": 4.2716280062,
				"element": "C" 
			},
			{
				"x": 2.2851570201,
				"y": 1.9088386458,
				"z": 5.1925339391,
				"element": "C" 
			},
			{
				"x": 3.184290142,
				"y": 2.7742245102,
				"z": 4.2794658205,
				"element": "C" 
			},
			{
				"x": 2.681836704,
				"y": 2.466734548,
				"z": 2.8634558365,
				"element": "C" 
			},
			{
				"x": 2.963835741,
				"y": 3.0852892028,
				"z": 1.8501488236,
				"element": "O" 
			},
			{
				"x": 2.9577621294,
				"y": 1.4085274108,
				"z": 6.4634920619,
				"element": "C" 
			},
			{
				"x": 3.4314684728,
				"y": 2.3806571775,
				"z": 7.2867830758,
				"element": "O" 
			},
			{
				"x": 3.0815418546,
				"y": 0.2475083397,
				"z": 6.7638420904,
				"element": "O" 
			},
			{
				"x": 2.3631297934,
				"y": -2.1282365342,
				"z": -3.9968486033,
				"element": "H" 
			},
			{
				"x": 1.9387227119,
				"y": -1.4273788815,
				"z": -5.5643742555,
				"element": "H" 
			},
			{
				"x": 0.7410641771,
				"y": -2.3624712527,
				"z": -4.6621253049,
				"element": "H" 
			},
			{
				"x": 1.9343656529,
				"y": 0.3249925848,
				"z": -3.7391889652,
				"element": "H" 
			},
			{
				"x": 0.7441031228,
				"y": -0.6023540165,
				"z": -2.8492899513,
				"element": "H" 
			},
			{
				"x": 0.3601429991,
				"y": 0.5865591234,
				"z": -5.6429934013,
				"element": "H" 
			},
			{
				"x": -0.8727962123,
				"y": -0.3199373521,
				"z": -4.7937409407,
				"element": "H" 
			},
			{
				"x": 0.2944825277,
				"y": 2.1679486813,
				"z": -3.4711347683,
				"element": "H" 
			},
			{
				"x": -0.8254604211,
				"y": 2.3662426464,
				"z": -4.8008890734,
				"element": "H" 
			},
			{
				"x": -2.0594774526,
				"y": 2.558786653,
				"z": -2.7704781656,
				"element": "H" 
			},
			{
				"x": -2.5843818218,
				"y": 1.1105552274,
				"z": -3.6057735539,
				"element": "H" 
			},
			{
				"x": -0.6084153624,
				"y": 1.0802818671,
				"z": -1.269480757,
				"element": "H" 
			},
			{
				"x": -1.3136605922,
				"y": -0.3226030313,
				"z": -2.0538358739,
				"element": "H" 
			},
			{
				"x": -2.6381402711,
				"y": -0.0856795305,
				"z": -0.0989332853,
				"element": "H" 
			},
			{
				"x": -3.6194620312,
				"y": 0.5495021403,
				"z": -1.3958999989,
				"element": "H" 
			},
			{
				"x": -2.5290258364,
				"y": 2.9095734163,
				"z": -0.6126781248,
				"element": "H" 
			},
			{
				"x": -3.9814775921,
				"y": 2.2491776585,
				"z": 0.0962519114,
				"element": "H" 
			},
			{
				"x": -2.6327961024,
				"y": 3.079487208,
				"z": 1.8391261819,
				"element": "H" 
			},
			{
				"x": -2.7223420594,
				"y": 1.341410649,
				"z": 2.0146169192,
				"element": "H" 
			},
			{
				"x": -0.2938184872,
				"y": 2.6139862238,
				"z": 0.6566800346,
				"element": "H" 
			},
			{
				"x": -0.4468472112,
				"y": 2.6552835977,
				"z": 2.3954170835,
				"element": "H" 
			},
			{
				"x": -0.4037767691,
				"y": 0.0711346664,
				"z": 0.7528060125,
				"element": "H" 
			},
			{
				"x": -0.5966402403,
				"y": 0.1674644286,
				"z": 2.4895862974,
				"element": "H" 
			},
			{
				"x": 1.7496668614,
				"y": -0.3626508068,
				"z": 1.761353971,
				"element": "H" 
			},
			{
				"x": 1.836102311,
				"y": 1.184278504,
				"z": 0.9001004712,
				"element": "H" 
			},
			{
				"x": 0.7962506272,
				"y": 0.4414327302,
				"z": 4.5119354971,
				"element": "H" 
			},
			{
				"x": 2.4717465054,
				"y": -0.1079343887,
				"z": 4.3694118882,
				"element": "H" 
			},
			{
				"x": 1.414655145,
				"y": 2.5072730532,
				"z": 5.4930263461,
				"element": "H" 
			},
			{
				"x": 3.1341065114,
				"y": 3.8491630471,
				"z": 4.4703999564,
				"element": "H" 
			},
			{
				"x": 4.2379028564,
				"y": 2.4746546112,
				"z": 4.3350075614,
				"element": "H" 
			},
			{
				"x": 3.2670218983,
				"y": 3.2556533512,
				"z": 6.9068263631,
				"element": "H" 
			}
		],
		 "valence_orbital": [ 
			{
				"type": "occ",
				"energy": -0.2995,
				"method": "rhf"
			},
			{
				"type": "occ",
				"energy": -0.29839,
				"method": "rhf"
			},
			{
				"type": "occ",
				"energy": -0.2861,
				"method": "rhf"
			},
			{
				"type": "occ",
				"energy": -0.25368,
				"method": "rhf"
			},
			{
				"type": "occ",
				"energy": -0.24399,
				"method": "rhf"
			},
			{
				"type": "unocc",
				"energy": -0.00369,
				"method": "rhf"
			},
			{
				"type": "unocc",
				"energy": 0.01859,
				"method": "rhf"
			},
			{
				"type": "unocc",
				"energy": 0.04328,
				"method": "rhf"
			},
			{
				"type": "unocc",
				"energy": 0.06685,
				"method": "rhf"
			},
			{
				"type": "unocc",
				"energy": 0.08317,
				"method": "rhf"
			}
		],
		"cosmo_sigma_profile": { 
			"-0.025": 0.0,
			"-0.024": 0.0,
			"-0.023": 0.0,
			"-0.022": 0.0,
			"-0.021": 0.0,
			"-0.02": 0.0,
			"-0.019": 0.460335560905,
			"-0.018": 0.906978840712,
			"-0.017": 1.22253194924,
			"-0.016": 1.04620890597,
			"-0.015": 1.03922627031,
			"-0.014": 0.781848559099,
			"-0.013": 1.17558594995,
			"-0.012": 1.47629074231,
			"-0.011": 1.47996099495,
			"-0.01": 0.856369970186,
			"-0.009": 1.68902738174,
			"-0.008": 4.14906679246,
			"-0.007": 9.37556544154,
			"-0.006": 9.07849672044,
			"-0.005": 9.83457858863,
			"-0.004": 15.4132897197,
			"-0.003": 16.4843548386,
			"-0.002": 46.4050754465,
			"-0.001": 71.0616814506,
			"0.0": 69.2825248308,
			"0.001": 49.206491922,
			"0.002": 26.4798635649,
			"0.003": 4.08377406651,
			"0.004": 3.9007849664,
			"0.005": 4.2834403139,
			"0.006": 3.69991769967,
			"0.007": 4.15855786233,
			"0.008": 3.42847557463,
			"0.009": 5.84595239545,
			"0.01": 6.43239142832,
			"0.011": 6.6687500292,
			"0.012": 5.56688239559,
			"0.013": 3.95879719651,
			"0.014": 5.62544412032,
			"0.015": 1.41323316755,
			"0.016": 0.0,
			"0.017": 0.0,
			"0.018": 0.0,
			"0.019": 0.0,
			"0.02": 0.0,
			"0.021": 0.0,
			"0.022": 0.0,
			"0.023": 0.0,
			"0.024": 0.0,
			"0.025": 0.0
		}
	}
}
