{
	 "smiles": "OCC#CC1=CC(=CC(=C1)C(F)(F)F)C(F)(F)F", 
	 "Tm": 332.15, 
	 "num_atms": 24, 
	 "gaussian": { 
		 "optdone": 1, 
		 "sigma_profile": "yes", 
		 "theory": "DFT", 
		 "functional": "B3LYP", 
		 "basiset": "6-31G**", 
		 "properties": { 
			 "R2extent": 6342.2053, 
			 "electric_dipole_moment_norm": 2.05077144997, 
			 "electric_quadrupole_moment_norm": 8.83718021826, 
			 "total_energy": -1096.99006323, 
			 "HOMO_LUMO_gap": 0.19167, 
			 "cosmo_polarized_energy": -8.95, 
			 "cosmo_cavitation_energy": 33.6, 
			 "cosmo_dispersion_energy": -22.79, 
			 "cosmo_repulsion_energy": 1.7, 
			 "cosmo_total_nonelectrostatic_energy": 12.51, 
			 "SMD_solvation_energy": 8.4 
		},
		"coords": [
			{
				"x": -3.5349258766,
				"y": -4.6569562821,
				"z": -0.2182914917,
				"element": "O" 
			},
			{
				"x": -3.5559978173,
				"y": -3.4396669433,
				"z": -0.9504753213,
				"element": "C" 
			},
			{
				"x": -2.5446896603,
				"y": -2.472124434,
				"z": -0.5065346592,
				"element": "C" 
			},
			{
				"x": -1.6736429985,
				"y": -1.7155918741,
				"z": -0.1327351291,
				"element": "C" 
			},
			{
				"x": -0.6636921542,
				"y": -0.8092585147,
				"z": 0.3116112652,
				"element": "C" 
			},
			{
				"x": -0.4728518914,
				"y": -0.5710994857,
				"z": 1.6846971179,
				"element": "C" 
			},
			{
				"x": 0.5147032507,
				"y": 0.3138701349,
				"z": 2.1121222073,
				"element": "C" 
			},
			{
				"x": 1.3265598738,
				"y": 0.9747604137,
				"z": 1.1890029251,
				"element": "C" 
			},
			{
				"x": 1.1400985133,
				"y": 0.7408765982,
				"z": -0.1740621743,
				"element": "C" 
			},
			{
				"x": 0.1563086286,
				"y": -0.1416262215,
				"z": -0.615492454,
				"element": "C" 
			},
			{
				"x": 2.05405415,
				"y": 1.4004235906,
				"z": -1.1755831325,
				"element": "C" 
			},
			{
				"x": 3.1462591992,
				"y": 0.6417938108,
				"z": -1.4186278806,
				"element": "F" 
			},
			{
				"x": 2.4935308792,
				"y": 2.598605964,
				"z": -0.7363763119,
				"element": "F" 
			},
			{
				"x": 1.4373927091,
				"y": 1.5974188683,
				"z": -2.3602659398,
				"element": "F" 
			},
			{
				"x": 0.6670033553,
				"y": 0.6095683424,
				"z": 3.5829225788,
				"element": "C" 
			},
			{
				"x": 0.3082169467,
				"y": -0.4455320466,
				"z": 4.3443025058,
				"element": "F" 
			},
			{
				"x": 1.9404102895,
				"y": 0.929437105,
				"z": 3.897065279,
				"element": "F" 
			},
			{
				"x": -0.1076793084,
				"y": 1.6517464382,
				"z": 3.9576427447,
				"element": "F" 
			},
			{
				"x": -2.6454193992,
				"y": -5.0275875802,
				"z": -0.2914084991,
				"element": "H" 
			},
			{
				"x": -4.5582003373,
				"y": -3.0210311189,
				"z": -0.805588516,
				"element": "H" 
			},
			{
				"x": -3.4369729851,
				"y": -3.6112478316,
				"z": -2.0324443658,
				"element": "H" 
			},
			{
				"x": -1.0958848576,
				"y": -1.0839078708,
				"z": 2.4081126767,
				"element": "H" 
			},
			{
				"x": 2.0930094417,
				"y": 1.661804423,
				"z": 1.5269374815,
				"element": "H" 
			},
			{
				"x": 0.0147100487,
				"y": -0.3127754854,
				"z": -1.6762309068,
				"element": "H" 
			}
		],
		 "valence_orbital": [ 
			{
				"type": "occ",
				"energy": -0.33218,
				"method": "rhf"
			},
			{
				"type": "occ",
				"energy": -0.29556,
				"method": "rhf"
			},
			{
				"type": "occ",
				"energy": -0.29212,
				"method": "rhf"
			},
			{
				"type": "occ",
				"energy": -0.28366,
				"method": "rhf"
			},
			{
				"type": "occ",
				"energy": -0.25446,
				"method": "rhf"
			},
			{
				"type": "unocc",
				"energy": -0.06279,
				"method": "rhf"
			},
			{
				"type": "unocc",
				"energy": -0.05137,
				"method": "rhf"
			},
			{
				"type": "unocc",
				"energy": 0.02355,
				"method": "rhf"
			},
			{
				"type": "unocc",
				"energy": 0.04247,
				"method": "rhf"
			},
			{
				"type": "unocc",
				"energy": 0.08472,
				"method": "rhf"
			}
		],
		"cosmo_sigma_profile": { 
			"-0.025": 0.0,
			"-0.024": 0.0,
			"-0.023": 0.0,
			"-0.022": 0.0,
			"-0.021": 0.0,
			"-0.02": 0.0,
			"-0.019": 0.0,
			"-0.018": 0.0,
			"-0.017": 0.0868017939393,
			"-0.016": 0.770874082433,
			"-0.015": 1.12338646067,
			"-0.014": 0.865820628133,
			"-0.013": 0.864285643338,
			"-0.012": 0.7370517668,
			"-0.011": 0.736155786445,
			"-0.01": 1.06984975113,
			"-0.009": 0.799021973894,
			"-0.008": 3.44576953896,
			"-0.007": 8.87993744225,
			"-0.006": 11.2284004068,
			"-0.005": 11.1325914773,
			"-0.004": 11.5281755345,
			"-0.003": 12.1223607323,
			"-0.002": 13.462656337,
			"-0.001": 20.8098887016,
			"0.0": 32.6970560198,
			"0.001": 22.2795598176,
			"0.002": 49.5753565692,
			"0.003": 41.7020485805,
			"0.004": 7.20193975487,
			"0.005": 4.82662165081,
			"0.006": 1.30932065632,
			"0.007": 1.37487896653,
			"0.008": 0.873715191035,
			"0.009": 1.75532724622,
			"0.01": 1.04437317725,
			"0.011": 1.79422303684,
			"0.012": 1.30311281024,
			"0.013": 2.49432042096,
			"0.014": 0.650173828341,
			"0.015": 0.0,
			"0.016": 0.0,
			"0.017": 0.0,
			"0.018": 0.0,
			"0.019": 0.0,
			"0.02": 0.0,
			"0.021": 0.0,
			"0.022": 0.0,
			"0.023": 0.0,
			"0.024": 0.0,
			"0.025": 0.0
		}
	}
}
