{
	 "smiles": "COC1=CC=C(CN2C(=O)CC3=C(C=CC=C3)C2=O)C=C1", 
	 "Tm": 370.15, 
	 "num_atms": 36, 
	 "gaussian": { 
		 "optdone": 1, 
		 "sigma_profile": "yes", 
		 "theory": "DFT", 
		 "functional": "B3LYP", 
		 "basiset": "6-31G**", 
		 "properties": { 
			 "R2extent": 7954.979, 
			 "electric_dipole_moment_norm": 3.19371446908, 
			 "electric_quadrupole_moment_norm": 19.3047793331, 
			 "total_energy": -937.303855127, 
			 "HOMO_LUMO_gap": 0.15482, 
			 "cosmo_polarized_energy": -13.98, 
			 "cosmo_cavitation_energy": 39.45, 
			 "cosmo_dispersion_energy": -28.52, 
			 "cosmo_repulsion_energy": 2.14, 
			 "cosmo_total_nonelectrostatic_energy": 13.06, 
			 "SMD_solvation_energy": 7.8 
		},
		"coords": [
			{
				"x": -2.4439112006,
				"y": -1.4574140073,
				"z": 4.8863967844,
				"element": "C" 
			},
			{
				"x": -1.3836583734,
				"y": -0.549105482,
				"z": 4.6396342299,
				"element": "O" 
			},
			{
				"x": -0.6673780934,
				"y": -0.6909066912,
				"z": 3.485192751,
				"element": "C" 
			},
			{
				"x": -0.9046131075,
				"y": -1.6726946411,
				"z": 2.5162453002,
				"element": "C" 
			},
			{
				"x": -0.1018949637,
				"y": -1.7216260313,
				"z": 1.3731024826,
				"element": "C" 
			},
			{
				"x": 0.9378951706,
				"y": -0.8091642528,
				"z": 1.1750103672,
				"element": "C" 
			},
			{
				"x": 1.8041273966,
				"y": -0.8771007683,
				"z": -0.0647506123,
				"element": "C" 
			},
			{
				"x": 1.3025213152,
				"y": -0.0357465371,
				"z": -1.1833584834,
				"element": "N" 
			},
			{
				"x": 0.3936563164,
				"y": -0.6174185243,
				"z": -2.0662956968,
				"element": "C" 
			},
			{
				"x": 0.0396809012,
				"y": -1.7787269822,
				"z": -1.9405028977,
				"element": "O" 
			},
			{
				"x": -0.1612244608,
				"y": 0.2337063436,
				"z": -3.1949129893,
				"element": "C" 
			},
			{
				"x": 0.3717546477,
				"y": 1.6329772793,
				"z": -3.3277293543,
				"element": "C" 
			},
			{
				"x": 1.2915559135,
				"y": 2.1229358814,
				"z": -2.3936698315,
				"element": "C" 
			},
			{
				"x": 1.7875432459,
				"y": 3.4309946314,
				"z": -2.5015057909,
				"element": "C" 
			},
			{
				"x": 1.368210677,
				"y": 4.2506499868,
				"z": -3.5416945714,
				"element": "C" 
			},
			{
				"x": 0.4490658387,
				"y": 3.7651681938,
				"z": -4.479468388,
				"element": "C" 
			},
			{
				"x": -0.0447270129,
				"y": 2.4670946581,
				"z": -4.3717671436,
				"element": "C" 
			},
			{
				"x": 1.7763551827,
				"y": 1.2847350038,
				"z": -1.2653571191,
				"element": "C" 
			},
			{
				"x": 2.5686268582,
				"y": 1.7092021155,
				"z": -0.4348563515,
				"element": "O" 
			},
			{
				"x": 1.1615028806,
				"y": 0.1713602809,
				"z": 2.1559574529,
				"element": "C" 
			},
			{
				"x": 0.3720005096,
				"y": 0.2327278088,
				"z": 3.296703325,
				"element": "C" 
			},
			{
				"x": -2.8721141149,
				"y": -1.1683373751,
				"z": 5.8476414004,
				"element": "H" 
			},
			{
				"x": -3.2207906976,
				"y": -1.3953272505,
				"z": 4.1130999539,
				"element": "H" 
			},
			{
				"x": -2.0855229057,
				"y": -2.4932397858,
				"z": 4.9489172868,
				"element": "H" 
			},
			{
				"x": -1.6999719202,
				"y": -2.3985320168,
				"z": 2.6382386892,
				"element": "H" 
			},
			{
				"x": -0.2946849048,
				"y": -2.4773921399,
				"z": 0.6176531506,
				"element": "H" 
			},
			{
				"x": 2.8122921534,
				"y": -0.5248212337,
				"z": 0.1504873783,
				"element": "H" 
			},
			{
				"x": 1.8461414084,
				"y": -1.8962979701,
				"z": -0.447693381,
				"element": "H" 
			},
			{
				"x": -0.0003334861,
				"y": -0.3388416781,
				"z": -4.1160576108,
				"element": "H" 
			},
			{
				"x": -1.2495913893,
				"y": 0.247377008,
				"z": -3.0526204443,
				"element": "H" 
			},
			{
				"x": 2.4979344285,
				"y": 3.7725535283,
				"z": -1.7568504652,
				"element": "H" 
			},
			{
				"x": 1.751598777,
				"y": 5.2627933683,
				"z": -3.6268203066,
				"element": "H" 
			},
			{
				"x": 0.1179431183,
				"y": 4.4011921501,
				"z": -5.2954320212,
				"element": "H" 
			},
			{
				"x": -0.7588794409,
				"y": 2.0950964819,
				"z": -5.1020862789,
				"element": "H" 
			},
			{
				"x": 1.9593266603,
				"y": 0.8935450436,
				"z": 2.0116249107,
				"element": "H" 
			},
			{
				"x": 0.5407626721,
				"y": 0.9849836042,
				"z": 4.0605242747,
				"element": "H" 
			}
		],
		 "valence_orbital": [ 
			{
				"type": "occ",
				"energy": -0.26643,
				"method": "rhf"
			},
			{
				"type": "occ",
				"energy": -0.26212,
				"method": "rhf"
			},
			{
				"type": "occ",
				"energy": -0.2593,
				"method": "rhf"
			},
			{
				"type": "occ",
				"energy": -0.24324,
				"method": "rhf"
			},
			{
				"type": "occ",
				"energy": -0.21147,
				"method": "rhf"
			},
			{
				"type": "unocc",
				"energy": -0.05665,
				"method": "rhf"
			},
			{
				"type": "unocc",
				"energy": -0.02076,
				"method": "rhf"
			},
			{
				"type": "unocc",
				"energy": -0.00481,
				"method": "rhf"
			},
			{
				"type": "unocc",
				"energy": 0.00534,
				"method": "rhf"
			},
			{
				"type": "unocc",
				"energy": 0.01364,
				"method": "rhf"
			}
		],
		"cosmo_sigma_profile": { 
			"-0.025": 0.0,
			"-0.024": 0.0,
			"-0.023": 0.0,
			"-0.022": 0.0,
			"-0.021": 0.0,
			"-0.02": 0.0,
			"-0.019": 0.0,
			"-0.018": 0.0,
			"-0.017": 0.0,
			"-0.016": 0.0,
			"-0.015": 0.0,
			"-0.014": 0.0,
			"-0.013": 0.0,
			"-0.012": 0.0,
			"-0.011": 0.0,
			"-0.01": 0.0,
			"-0.009": 0.0,
			"-0.008": 2.23975932627,
			"-0.007": 8.69649790004,
			"-0.006": 21.7828255192,
			"-0.005": 29.1818490849,
			"-0.004": 30.3036218978,
			"-0.003": 28.6141159785,
			"-0.002": 23.6075728896,
			"-0.001": 17.3448188853,
			"0.0": 15.7456928437,
			"0.001": 19.5688339936,
			"0.002": 19.2555808639,
			"0.003": 23.5951143307,
			"0.004": 22.6957440065,
			"0.005": 15.5362787132,
			"0.006": 8.31324851691,
			"0.007": 4.1652523123,
			"0.008": 4.0871887643,
			"0.009": 3.90619932028,
			"0.01": 5.51606860514,
			"0.011": 4.66884667476,
			"0.012": 4.68114132909,
			"0.013": 1.53092720182,
			"0.014": 0.0444619980939,
			"0.015": 0.0,
			"0.016": 0.0,
			"0.017": 0.0,
			"0.018": 0.0,
			"0.019": 0.0,
			"0.02": 0.0,
			"0.021": 0.0,
			"0.022": 0.0,
			"0.023": 0.0,
			"0.024": 0.0,
			"0.025": 0.0
		}
	}
}
