{
	 "smiles": "CCN(CC(O)=O)S(=O)(=O)C1=C(Cl)N=CC=C1", 
	 "Tm": 430.15, 
	 "num_atms": 28, 
	 "gaussian": { 
		 "optdone": 1, 
		 "sigma_profile": "yes", 
		 "theory": "DFT", 
		 "functional": "B3LYP", 
		 "basiset": "6-31G**", 
		 "properties": { 
			 "R2extent": 5930.2687, 
			 "electric_dipole_moment_norm": 6.79744966881, 
			 "electric_quadrupole_moment_norm": 21.9564963348, 
			 "total_energy": -1618.28069339, 
			 "HOMO_LUMO_gap": 0.21278, 
			 "cosmo_polarized_energy": -22.45, 
			 "cosmo_cavitation_energy": 34.17, 
			 "cosmo_dispersion_energy": -24.34, 
			 "cosmo_repulsion_energy": 1.86, 
			 "cosmo_total_nonelectrostatic_energy": 11.69, 
			 "SMD_solvation_energy": 4.79 
		},
		"coords": [
			{
				"x": 0.4970500227,
				"y": 1.6760957447,
				"z": -0.7933833642,
				"element": "C" 
			},
			{
				"x": 0.0436459396,
				"y": 0.5908873086,
				"z": -1.7663539269,
				"element": "C" 
			},
			{
				"x": -0.084181905,
				"y": -0.7624749927,
				"z": -1.1523346678,
				"element": "N" 
			},
			{
				"x": -0.9994358841,
				"y": -1.6690372143,
				"z": -1.867007831,
				"element": "C" 
			},
			{
				"x": -1.633127425,
				"y": -2.7824837852,
				"z": -1.0476360584,
				"element": "C" 
			},
			{
				"x": -1.6720127566,
				"y": -2.5306619908,
				"z": 0.2799242765,
				"element": "O" 
			},
			{
				"x": -2.1263496609,
				"y": -3.7630294974,
				"z": -1.5510824057,
				"element": "O" 
			},
			{
				"x": 1.4091479555,
				"y": -1.5079401061,
				"z": -0.7525280944,
				"element": "S" 
			},
			{
				"x": 1.2444510511,
				"y": -2.9425609099,
				"z": -1.0023135427,
				"element": "O" 
			},
			{
				"x": 2.4947155935,
				"y": -0.7514047162,
				"z": -1.3803599874,
				"element": "O" 
			},
			{
				"x": 1.527863257,
				"y": -1.2634866864,
				"z": 1.0383209655,
				"element": "C" 
			},
			{
				"x": 2.6941615468,
				"y": -1.6061510494,
				"z": 1.7519275229,
				"element": "C" 
			},
			{
				"x": 4.0767612224,
				"y": -2.3133471679,
				"z": 0.9492610982,
				"element": "Cl" 
			},
			{
				"x": 2.8199574174,
				"y": -1.4370216746,
				"z": 3.0566401018,
				"element": "N" 
			},
			{
				"x": 1.7862231628,
				"y": -0.9280978158,
				"z": 3.7387820912,
				"element": "C" 
			},
			{
				"x": 0.5786425607,
				"y": -0.5813944528,
				"z": 3.1413443236,
				"element": "C" 
			},
			{
				"x": 0.4502872497,
				"y": -0.7575616144,
				"z": 1.7644271816,
				"element": "C" 
			},
			{
				"x": -0.180490891,
				"y": 1.7534667565,
				"z": 0.0618207631,
				"element": "H" 
			},
			{
				"x": 0.4987629034,
				"y": 2.6394533671,
				"z": -1.3131897393,
				"element": "H" 
			},
			{
				"x": 1.5110038066,
				"y": 1.4961334463,
				"z": -0.4308695737,
				"element": "H" 
			},
			{
				"x": 0.7128780558,
				"y": 0.5591552403,
				"z": -2.6339859859,
				"element": "H" 
			},
			{
				"x": -0.9580727638,
				"y": 0.8369868391,
				"z": -2.1296598592,
				"element": "H" 
			},
			{
				"x": -0.5546984776,
				"y": -2.1480572497,
				"z": -2.7448890419,
				"element": "H" 
			},
			{
				"x": -1.8318116834,
				"y": -1.0516795667,
				"z": -2.2204887699,
				"element": "H" 
			},
			{
				"x": -2.0959750586,
				"y": -3.3073947262,
				"z": 0.6830002533,
				"element": "H" 
			},
			{
				"x": 1.9407025118,
				"y": -0.8026193157,
				"z": 4.8079954116,
				"element": "H" 
			},
			{
				"x": -0.2406237281,
				"y": -0.1867610625,
				"z": 3.7324556866,
				"element": "H" 
			},
			{
				"x": -0.4696740228,
				"y": -0.5253131079,
				"z": 1.2448831724,
				"element": "H" 
			}
		],
		 "valence_orbital": [ 
			{
				"type": "occ",
				"energy": -0.30321,
				"method": "rhf"
			},
			{
				"type": "occ",
				"energy": -0.29163,
				"method": "rhf"
			},
			{
				"type": "occ",
				"energy": -0.28617,
				"method": "rhf"
			},
			{
				"type": "occ",
				"energy": -0.27311,
				"method": "rhf"
			},
			{
				"type": "occ",
				"energy": -0.27064,
				"method": "rhf"
			},
			{
				"type": "unocc",
				"energy": -0.05786,
				"method": "rhf"
			},
			{
				"type": "unocc",
				"energy": -0.04697,
				"method": "rhf"
			},
			{
				"type": "unocc",
				"energy": -0.00282,
				"method": "rhf"
			},
			{
				"type": "unocc",
				"energy": 0.01943,
				"method": "rhf"
			},
			{
				"type": "unocc",
				"energy": 0.03833,
				"method": "rhf"
			}
		],
		"cosmo_sigma_profile": { 
			"-0.025": 0.0,
			"-0.024": 0.0,
			"-0.023": 0.0,
			"-0.022": 0.0,
			"-0.021": 0.0,
			"-0.02": 0.0,
			"-0.019": 0.263732302817,
			"-0.018": 0.875819623808,
			"-0.017": 0.838359742581,
			"-0.016": 1.21879462457,
			"-0.015": 0.883096591438,
			"-0.014": 0.141044707797,
			"-0.013": 0.432752046165,
			"-0.012": 1.1535643283,
			"-0.011": 1.02998205187,
			"-0.01": 3.5566390011,
			"-0.009": 4.39340555524,
			"-0.008": 9.1613924839,
			"-0.007": 12.3704870337,
			"-0.006": 11.525265286,
			"-0.005": 12.3722055159,
			"-0.004": 16.2016258113,
			"-0.003": 21.085132619,
			"-0.002": 21.2505229234,
			"-0.001": 21.0429474065,
			"0.0": 20.7754144352,
			"0.001": 13.1129970937,
			"0.002": 12.0924490144,
			"0.003": 12.4783556611,
			"0.004": 11.5084087941,
			"0.005": 7.99624573537,
			"0.006": 8.76673283995,
			"0.007": 6.32343339576,
			"0.008": 7.04751646802,
			"0.009": 8.88321499948,
			"0.01": 11.1596052115,
			"0.011": 9.20604555193,
			"0.012": 3.61989655516,
			"0.013": 0.670408243217,
			"0.014": 0.13923950188,
			"0.015": 0.0,
			"0.016": 0.0,
			"0.017": 0.0,
			"0.018": 0.0,
			"0.019": 0.0,
			"0.02": 0.0,
			"0.021": 0.0,
			"0.022": 0.0,
			"0.023": 0.0,
			"0.024": 0.0,
			"0.025": 0.0
		}
	}
}
