{
	 "smiles": "CN1CCC2=C1C=CC(C=O)=C2", 
	 "Tm": 312.15, 
	 "num_atms": 23, 
	 "gaussian": { 
		 "optdone": 1, 
		 "sigma_profile": "yes", 
		 "theory": "DFT", 
		 "functional": "B3LYP", 
		 "basiset": "6-31G**", 
		 "properties": { 
			 "R2extent": 3175.3577, 
			 "electric_dipole_moment_norm": 5.94054898978, 
			 "electric_quadrupole_moment_norm": 24.197861291, 
			 "total_energy": -517.665526126, 
			 "HOMO_LUMO_gap": 0.15886, 
			 "cosmo_polarized_energy": -10.73, 
			 "cosmo_cavitation_energy": 26.02, 
			 "cosmo_dispersion_energy": -19.18, 
			 "cosmo_repulsion_energy": 1.51, 
			 "cosmo_total_nonelectrostatic_energy": 8.35, 
			 "SMD_solvation_energy": 4.04 
		},
		"coords": [
			{
				"x": 0.6996518406,
				"y": 2.1142924572,
				"z": -0.3315130531,
				"element": "C" 
			},
			{
				"x": 0.0086097378,
				"y": 0.957813258,
				"z": -0.860001405,
				"element": "N" 
			},
			{
				"x": 0.7895747847,
				"y": -0.0735723745,
				"z": -1.5620047191,
				"element": "C" 
			},
			{
				"x": -0.2173240774,
				"y": -1.2290393016,
				"z": -1.7670092893,
				"element": "C" 
			},
			{
				"x": -1.2260891416,
				"y": -0.9725320547,
				"z": -0.6660160335,
				"element": "C" 
			},
			{
				"x": -1.0327472931,
				"y": 0.3428708556,
				"z": -0.1862982671,
				"element": "C" 
			},
			{
				"x": -1.8482772541,
				"y": 0.8666406713,
				"z": 0.8294384032,
				"element": "C" 
			},
			{
				"x": -2.8604912017,
				"y": 0.0614897993,
				"z": 1.3405025918,
				"element": "C" 
			},
			{
				"x": -3.067941789,
				"y": -1.2458289912,
				"z": 0.8683095469,
				"element": "C" 
			},
			{
				"x": -4.1381433158,
				"y": -2.0774898354,
				"z": 1.4336561588,
				"element": "C" 
			},
			{
				"x": -4.9106237083,
				"y": -1.7322249528,
				"z": 2.3132865747,
				"element": "O" 
			},
			{
				"x": -2.2356356521,
				"y": -1.7582340681,
				"z": -0.1502523664,
				"element": "C" 
			},
			{
				"x": 1.3410472194,
				"y": 2.5378570388,
				"z": -1.1096781127,
				"element": "H" 
			},
			{
				"x": 1.3275588676,
				"y": 1.8753670052,
				"z": 0.5430489051,
				"element": "H" 
			},
			{
				"x": -0.020252959,
				"y": 2.8835417248,
				"z": -0.0405727909,
				"element": "H" 
			},
			{
				"x": 1.6380549652,
				"y": -0.4007170078,
				"z": -0.9372004095,
				"element": "H" 
			},
			{
				"x": 1.194336401,
				"y": 0.3215297377,
				"z": -2.4989867554,
				"element": "H" 
			},
			{
				"x": -0.6946539235,
				"y": -1.1549988392,
				"z": -2.752811919,
				"element": "H" 
			},
			{
				"x": 0.2615642805,
				"y": -2.2102451805,
				"z": -1.7069992806,
				"element": "H" 
			},
			{
				"x": -1.6941624948,
				"y": 1.868851914,
				"z": 1.2153647345,
				"element": "H" 
			},
			{
				"x": -3.512469128,
				"y": 0.4241820974,
				"z": 2.1292949826,
				"element": "H" 
			},
			{
				"x": -4.2083003077,
				"y": -3.0972757445,
				"z": 0.9886067023,
				"element": "H" 
			},
			{
				"x": -2.3932858507,
				"y": -2.7726782089,
				"z": -0.5123641985,
				"element": "H" 
			}
		],
		 "valence_orbital": [ 
			{
				"type": "occ",
				"energy": -0.33798,
				"method": "rhf"
			},
			{
				"type": "occ",
				"energy": -0.29027,
				"method": "rhf"
			},
			{
				"type": "occ",
				"energy": -0.25359,
				"method": "rhf"
			},
			{
				"type": "occ",
				"energy": -0.23572,
				"method": "rhf"
			},
			{
				"type": "occ",
				"energy": -0.19942,
				"method": "rhf"
			},
			{
				"type": "unocc",
				"energy": -0.04056,
				"method": "rhf"
			},
			{
				"type": "unocc",
				"energy": -0.00612,
				"method": "rhf"
			},
			{
				"type": "unocc",
				"energy": 0.0588,
				"method": "rhf"
			},
			{
				"type": "unocc",
				"energy": 0.08101,
				"method": "rhf"
			},
			{
				"type": "unocc",
				"energy": 0.09836,
				"method": "rhf"
			}
		],
		"cosmo_sigma_profile": { 
			"-0.025": 0.0,
			"-0.024": 0.0,
			"-0.023": 0.0,
			"-0.022": 0.0,
			"-0.021": 0.0,
			"-0.02": 0.0,
			"-0.019": 0.0,
			"-0.018": 0.0,
			"-0.017": 0.0,
			"-0.016": 0.0,
			"-0.015": 0.0,
			"-0.014": 0.0,
			"-0.013": 0.0,
			"-0.012": 0.0,
			"-0.011": 0.0,
			"-0.01": 0.0,
			"-0.009": 0.0,
			"-0.008": 0.0,
			"-0.007": 1.37417925271,
			"-0.006": 7.58969968275,
			"-0.005": 17.1198872741,
			"-0.004": 24.5144331818,
			"-0.003": 29.1298270659,
			"-0.002": 26.0274569932,
			"-0.001": 16.3319135495,
			"0.0": 9.14891671862,
			"0.001": 9.70342268018,
			"0.002": 8.14783814463,
			"0.003": 11.8813880561,
			"0.004": 12.3108560582,
			"0.005": 9.6628900034,
			"0.006": 2.90104492324,
			"0.007": 2.96455350049,
			"0.008": 1.66265510175,
			"0.009": 1.89269681924,
			"0.01": 2.15017752739,
			"0.011": 2.08093251671,
			"0.012": 4.14306979438,
			"0.013": 4.05707763129,
			"0.014": 1.26412448563,
			"0.015": 0.100580098726,
			"0.016": 0.0,
			"0.017": 0.0,
			"0.018": 0.0,
			"0.019": 0.0,
			"0.02": 0.0,
			"0.021": 0.0,
			"0.022": 0.0,
			"0.023": 0.0,
			"0.024": 0.0,
			"0.025": 0.0
		}
	}
}
