{
	 "smiles": "CC(=O)OCC(=O)C1=CC=CC=C1", 
	 "Tm": 322.15, 
	 "num_atms": 23, 
	 "gaussian": { 
		 "optdone": 1, 
		 "sigma_profile": "yes", 
		 "theory": "DFT", 
		 "functional": "B3LYP", 
		 "basiset": "6-31G**", 
		 "properties": { 
			 "R2extent": 3767.8551, 
			 "electric_dipole_moment_norm": 3.51506676181, 
			 "electric_quadrupole_moment_norm": 11.8381946744, 
			 "total_energy": -612.768065539, 
			 "HOMO_LUMO_gap": 0.1927, 
			 "cosmo_polarized_energy": -11.39, 
			 "cosmo_cavitation_energy": 28.03, 
			 "cosmo_dispersion_energy": -19.8, 
			 "cosmo_repulsion_energy": 1.59, 
			 "cosmo_total_nonelectrostatic_energy": 9.82, 
			 "SMD_solvation_energy": 6.64 
		},
		"coords": [
			{
				"x": 3.4585138202,
				"y": -3.0902058672,
				"z": 0.8062433124,
				"element": "C" 
			},
			{
				"x": 2.5833574906,
				"y": -2.6214265613,
				"z": 1.9426552956,
				"element": "C" 
			},
			{
				"x": 2.178417763,
				"y": -3.3026290053,
				"z": 2.8568181637,
				"element": "O" 
			},
			{
				"x": 2.3032189641,
				"y": -1.2964812713,
				"z": 1.8179494849,
				"element": "O" 
			},
			{
				"x": 1.5257446679,
				"y": -0.7213505072,
				"z": 2.885241658,
				"element": "C" 
			},
			{
				"x": 1.0557854982,
				"y": 0.6712501163,
				"z": 2.463041649,
				"element": "C" 
			},
			{
				"x": 1.3210061707,
				"y": 1.6195726771,
				"z": 3.1857155315,
				"element": "O" 
			},
			{
				"x": 0.2495705851,
				"y": 0.8406276608,
				"z": 1.2174439856,
				"element": "C" 
			},
			{
				"x": -0.0647493497,
				"y": 2.1495272884,
				"z": 0.8157129245,
				"element": "C" 
			},
			{
				"x": -0.8355575975,
				"y": 2.3722621037,
				"z": -0.3204659675,
				"element": "C" 
			},
			{
				"x": -1.3099110033,
				"y": 1.2881217193,
				"z": -1.0657318803,
				"element": "C" 
			},
			{
				"x": -1.008337367,
				"y": -0.0169572954,
				"z": -0.671256844,
				"element": "C" 
			},
			{
				"x": -0.2284724763,
				"y": -0.242051199,
				"z": 0.4624667821,
				"element": "C" 
			},
			{
				"x": 3.0432834729,
				"y": -2.7736765213,
				"z": -0.1541094262,
				"element": "H" 
			},
			{
				"x": 3.5493728833,
				"y": -4.1752739696,
				"z": 0.8431703131,
				"element": "H" 
			},
			{
				"x": 4.4506609239,
				"y": -2.6369481469,
				"z": 0.8980408561,
				"element": "H" 
			},
			{
				"x": 2.1393931664,
				"y": -0.6130886907,
				"z": 3.7820006234,
				"element": "H" 
			},
			{
				"x": 0.6781760484,
				"y": -1.3748649209,
				"z": 3.1208468939,
				"element": "H" 
			},
			{
				"x": 0.3069159401,
				"y": 2.9730579414,
				"z": 1.4161612941,
				"element": "H" 
			},
			{
				"x": -1.0709296254,
				"y": 3.3874086018,
				"z": -0.6263533297,
				"element": "H" 
			},
			{
				"x": -1.91445606,
				"y": 1.460710037,
				"z": -1.9516692697,
				"element": "H" 
			},
			{
				"x": -1.3796813308,
				"y": -0.8593418634,
				"z": -1.2473207947,
				"element": "H" 
			},
			{
				"x": 0.0045774149,
				"y": -1.2594423264,
				"z": 0.7551987443,
				"element": "H" 
			}
		],
		 "valence_orbital": [ 
			{
				"type": "occ",
				"energy": -0.31092,
				"method": "rhf"
			},
			{
				"type": "occ",
				"energy": -0.28137,
				"method": "rhf"
			},
			{
				"type": "occ",
				"energy": -0.2649,
				"method": "rhf"
			},
			{
				"type": "occ",
				"energy": -0.26352,
				"method": "rhf"
			},
			{
				"type": "occ",
				"energy": -0.25817,
				"method": "rhf"
			},
			{
				"type": "unocc",
				"energy": -0.06547,
				"method": "rhf"
			},
			{
				"type": "unocc",
				"energy": -0.01352,
				"method": "rhf"
			},
			{
				"type": "unocc",
				"energy": 0.00332,
				"method": "rhf"
			},
			{
				"type": "unocc",
				"energy": 0.02706,
				"method": "rhf"
			},
			{
				"type": "unocc",
				"energy": 0.08107,
				"method": "rhf"
			}
		],
		"cosmo_sigma_profile": { 
			"-0.025": 0.0,
			"-0.024": 0.0,
			"-0.023": 0.0,
			"-0.022": 0.0,
			"-0.021": 0.0,
			"-0.02": 0.0,
			"-0.019": 0.0,
			"-0.018": 0.0,
			"-0.017": 0.0,
			"-0.016": 0.0,
			"-0.015": 0.0,
			"-0.014": 0.0,
			"-0.013": 0.0,
			"-0.012": 0.0,
			"-0.011": 0.0,
			"-0.01": 0.0,
			"-0.009": 0.124787661002,
			"-0.008": 3.20095111777,
			"-0.007": 8.87754219714,
			"-0.006": 18.8620953353,
			"-0.005": 20.0185609476,
			"-0.004": 20.9384164345,
			"-0.003": 15.2151453462,
			"-0.002": 17.5862548443,
			"-0.001": 13.7055667875,
			"0.0": 11.9751296605,
			"0.001": 11.7146348264,
			"0.002": 12.8409801005,
			"0.003": 15.1723261887,
			"0.004": 16.4737665959,
			"0.005": 3.81879207495,
			"0.006": 4.23975913653,
			"0.007": 3.54220393004,
			"0.008": 3.40805418274,
			"0.009": 3.72898089012,
			"0.01": 4.32458587807,
			"0.011": 8.32213169782,
			"0.012": 5.0340834689,
			"0.013": 0.493083365515,
			"0.014": 0.0,
			"0.015": 0.0,
			"0.016": 0.0,
			"0.017": 0.0,
			"0.018": 0.0,
			"0.019": 0.0,
			"0.02": 0.0,
			"0.021": 0.0,
			"0.022": 0.0,
			"0.023": 0.0,
			"0.024": 0.0,
			"0.025": 0.0
		}
	}
}
