{
	 "smiles": "OC(=O)C1=CC=CC2=C1OCCCO2", 
	 "Tm": 342.15, 
	 "num_atms": 24, 
	 "gaussian": { 
		 "optdone": 1, 
		 "sigma_profile": "yes", 
		 "theory": "DFT", 
		 "functional": "B3LYP", 
		 "basiset": "6-31G**", 
		 "properties": { 
			 "R2extent": 3136.6266, 
			 "electric_dipole_moment_norm": 3.39989633665, 
			 "electric_quadrupole_moment_norm": 7.83538494842, 
			 "total_energy": -687.974604511, 
			 "HOMO_LUMO_gap": 0.17857, 
			 "cosmo_polarized_energy": -12.05, 
			 "cosmo_cavitation_energy": 27.07, 
			 "cosmo_dispersion_energy": -20.42, 
			 "cosmo_repulsion_energy": 1.61, 
			 "cosmo_total_nonelectrostatic_energy": 8.25, 
			 "SMD_solvation_energy": 6.02 
		},
		"coords": [
			{
				"x": 1.8050053412,
				"y": 1.2501176146,
				"z": 1.1815793079,
				"element": "O" 
			},
			{
				"x": 0.5034676805,
				"y": 1.0166732946,
				"z": 1.4594690891,
				"element": "C" 
			},
			{
				"x": -0.1154730245,
				"y": 1.7421842483,
				"z": 2.2185893633,
				"element": "O" 
			},
			{
				"x": -0.107811959,
				"y": -0.1704249707,
				"z": 0.78978003,
				"element": "C" 
			},
			{
				"x": -1.4507082131,
				"y": -0.4134685007,
				"z": 1.1247632612,
				"element": "C" 
			},
			{
				"x": -2.134748647,
				"y": -1.5017635684,
				"z": 0.6019495045,
				"element": "C" 
			},
			{
				"x": -1.4912694862,
				"y": -2.3477967585,
				"z": -0.3002537783,
				"element": "C" 
			},
			{
				"x": -0.1659366137,
				"y": -2.1213929247,
				"z": -0.6677719758,
				"element": "C" 
			},
			{
				"x": 0.5555481894,
				"y": -1.0394895086,
				"z": -0.1070397796,
				"element": "C" 
			},
			{
				"x": 1.8583244708,
				"y": -0.793961698,
				"z": -0.4322859016,
				"element": "O" 
			},
			{
				"x": 2.7233695754,
				"y": -1.9270042596,
				"z": -0.6068188928,
				"element": "C" 
			},
			{
				"x": 2.7029609449,
				"y": -2.4221118742,
				"z": -2.0524567508,
				"element": "C" 
			},
			{
				"x": 1.2612988145,
				"y": -2.4719184724,
				"z": -2.5611900498,
				"element": "C" 
			},
			{
				"x": 0.3791207551,
				"y": -3.0112494045,
				"z": -1.565893233,
				"element": "O" 
			},
			{
				"x": 2.0231283713,
				"y": 2.043451178,
				"z": 1.700048615,
				"element": "H" 
			},
			{
				"x": -1.9239157462,
				"y": 0.2733580287,
				"z": 1.8163936125,
				"element": "H" 
			},
			{
				"x": -3.1688407698,
				"y": -1.6841259824,
				"z": 0.8758560165,
				"element": "H" 
			},
			{
				"x": -2.0006563241,
				"y": -3.1923819282,
				"z": -0.7533493094,
				"element": "H" 
			},
			{
				"x": 2.4233986777,
				"y": -2.725345742,
				"z": 0.0801806881,
				"element": "H" 
			},
			{
				"x": 3.7190534755,
				"y": -1.5816460816,
				"z": -0.3162455039,
				"element": "H" 
			},
			{
				"x": 3.2877773226,
				"y": -1.7593790957,
				"z": -2.7007834533,
				"element": "H" 
			},
			{
				"x": 3.166709132,
				"y": -3.4147484989,
				"z": -2.0919061394,
				"element": "H" 
			},
			{
				"x": 0.9183832496,
				"y": -1.472464218,
				"z": -2.8511926759,
				"element": "H" 
			},
			{
				"x": 1.1677147831,
				"y": -3.1295108773,
				"z": -3.4299220446,
				"element": "H" 
			}
		],
		 "valence_orbital": [ 
			{
				"type": "occ",
				"energy": -0.30292,
				"method": "rhf"
			},
			{
				"type": "occ",
				"energy": -0.29589,
				"method": "rhf"
			},
			{
				"type": "occ",
				"energy": -0.26859,
				"method": "rhf"
			},
			{
				"type": "occ",
				"energy": -0.24559,
				"method": "rhf"
			},
			{
				"type": "occ",
				"energy": -0.21923,
				"method": "rhf"
			},
			{
				"type": "unocc",
				"energy": -0.04066,
				"method": "rhf"
			},
			{
				"type": "unocc",
				"energy": 0.00464,
				"method": "rhf"
			},
			{
				"type": "unocc",
				"energy": 0.06336,
				"method": "rhf"
			},
			{
				"type": "unocc",
				"energy": 0.0719,
				"method": "rhf"
			},
			{
				"type": "unocc",
				"energy": 0.08848,
				"method": "rhf"
			}
		],
		"cosmo_sigma_profile": { 
			"-0.025": 0.0,
			"-0.024": 0.0,
			"-0.023": 0.0,
			"-0.022": 0.0,
			"-0.021": 0.0,
			"-0.02": 0.0,
			"-0.019": 0.0,
			"-0.018": 0.171910131014,
			"-0.017": 1.02162085628,
			"-0.016": 0.785520345777,
			"-0.015": 0.569973246893,
			"-0.014": 0.968104162465,
			"-0.013": 1.01513193278,
			"-0.012": 0.393596071782,
			"-0.011": 0.177426613516,
			"-0.01": 1.38697270614,
			"-0.009": 0.551013139863,
			"-0.008": 0.357809433232,
			"-0.007": 1.79983790186,
			"-0.006": 9.45113199641,
			"-0.005": 19.6184674178,
			"-0.004": 26.3082497512,
			"-0.003": 19.2111916012,
			"-0.002": 15.5039547494,
			"-0.001": 12.5126866315,
			"0.0": 11.6795299104,
			"0.001": 12.3636618305,
			"0.002": 15.8054545362,
			"0.003": 13.5059988124,
			"0.004": 10.5893160351,
			"0.005": 5.47628035154,
			"0.006": 3.36384331483,
			"0.007": 4.87993470781,
			"0.008": 4.08883233849,
			"0.009": 3.89189857324,
			"0.01": 4.29615445413,
			"0.011": 4.84165807887,
			"0.012": 6.31141582344,
			"0.013": 1.44005746556,
			"0.014": 0.334311266402,
			"0.015": 0.0,
			"0.016": 0.0,
			"0.017": 0.0,
			"0.018": 0.0,
			"0.019": 0.0,
			"0.02": 0.0,
			"0.021": 0.0,
			"0.022": 0.0,
			"0.023": 0.0,
			"0.024": 0.0,
			"0.025": 0.0
		}
	}
}
