{
	 "smiles": "OC(=O)CNC(=O)C1=CC=C(C=C1)C#N", 
	 "Tm": 467.15, 
	 "num_atms": 23, 
	 "gaussian": { 
		 "optdone": 1, 
		 "sigma_profile": "yes", 
		 "theory": "DFT", 
		 "functional": "B3LYP", 
		 "basiset": "6-31G**", 
		 "properties": { 
			 "R2extent": 4439.4754, 
			 "electric_dipole_moment_norm": 3.82859577652, 
			 "electric_quadrupole_moment_norm": 34.0132757914, 
			 "total_energy": -721.05500011, 
			 "HOMO_LUMO_gap": 0.1837, 
			 "cosmo_polarized_energy": -27.57, 
			 "cosmo_cavitation_energy": 29.95, 
			 "cosmo_dispersion_energy": -20.84, 
			 "cosmo_repulsion_energy": 1.65, 
			 "cosmo_total_nonelectrostatic_energy": 10.76, 
			 "SMD_solvation_energy": 7.64 
		},
		"coords": [
			{
				"x": -3.0633485172,
				"y": 2.7196833392,
				"z": 2.8770925254,
				"element": "O" 
			},
			{
				"x": -2.9401677221,
				"y": 2.6162111023,
				"z": 1.535970288,
				"element": "C" 
			},
			{
				"x": -3.3813944447,
				"y": 3.4632513347,
				"z": 0.8023627085,
				"element": "O" 
			},
			{
				"x": -2.2413932583,
				"y": 1.3474533303,
				"z": 1.036076571,
				"element": "C" 
			},
			{
				"x": -2.1406013767,
				"y": 1.3915203625,
				"z": -0.4064371543,
				"element": "N" 
			},
			{
				"x": -1.0665610889,
				"y": 1.0019351713,
				"z": -1.1764919281,
				"element": "C" 
			},
			{
				"x": -0.8740305444,
				"y": 1.4811131853,
				"z": -2.286104058,
				"element": "O" 
			},
			{
				"x": -0.1491219489,
				"y": -0.06284986,
				"z": -0.6353458656,
				"element": "C" 
			},
			{
				"x": -0.6030025416,
				"y": -1.1592558995,
				"z": 0.1110097607,
				"element": "C" 
			},
			{
				"x": 0.2834913625,
				"y": -2.1505835107,
				"z": 0.5222948144,
				"element": "C" 
			},
			{
				"x": 1.6455101492,
				"y": -2.0467339875,
				"z": 0.1963704247,
				"element": "C" 
			},
			{
				"x": 2.1038656794,
				"y": -0.9565344911,
				"z": -0.5649250023,
				"element": "C" 
			},
			{
				"x": 1.2062420999,
				"y": 0.0161165021,
				"z": -0.9866991641,
				"element": "C" 
			},
			{
				"x": 2.5649225194,
				"y": -3.0567296153,
				"z": 0.6346730071,
				"element": "C" 
			},
			{
				"x": 3.3095304958,
				"y": -3.8742738204,
				"z": 0.9953372207,
				"element": "N" 
			},
			{
				"x": -2.6526244052,
				"y": 1.9663047488,
				"z": 3.3262599303,
				"element": "H" 
			},
			{
				"x": -2.8316926112,
				"y": 0.4891596131,
				"z": 1.3939219968,
				"element": "H" 
			},
			{
				"x": -1.2538348669,
				"y": 1.2714316376,
				"z": 1.5076297904,
				"element": "H" 
			},
			{
				"x": -2.6649962588,
				"y": 2.1590396845,
				"z": -0.8195981384,
				"element": "H" 
			},
			{
				"x": -1.6578886606,
				"y": -1.2604356754,
				"z": 0.3441608968,
				"element": "H" 
			},
			{
				"x": -0.069354632,
				"y": -3.0067934723,
				"z": 1.0872166569,
				"element": "H" 
			},
			{
				"x": 3.1548317938,
				"y": -0.8880084865,
				"z": -0.8243922045,
				"element": "H" 
			},
			{
				"x": 1.5359187776,
				"y": 0.8470788069,
				"z": -1.6006830762,
				"element": "H" 
			}
		],
		 "valence_orbital": [ 
			{
				"type": "occ",
				"energy": -0.3104,
				"method": "rhf"
			},
			{
				"type": "occ",
				"energy": -0.29136,
				"method": "rhf"
			},
			{
				"type": "occ",
				"energy": -0.28454,
				"method": "rhf"
			},
			{
				"type": "occ",
				"energy": -0.2793,
				"method": "rhf"
			},
			{
				"type": "occ",
				"energy": -0.26329,
				"method": "rhf"
			},
			{
				"type": "unocc",
				"energy": -0.07959,
				"method": "rhf"
			},
			{
				"type": "unocc",
				"energy": -0.03979,
				"method": "rhf"
			},
			{
				"type": "unocc",
				"energy": -0.02086,
				"method": "rhf"
			},
			{
				"type": "unocc",
				"energy": 0.0104,
				"method": "rhf"
			},
			{
				"type": "unocc",
				"energy": 0.0238,
				"method": "rhf"
			}
		],
		"cosmo_sigma_profile": { 
			"-0.025": 0.0,
			"-0.024": 0.0,
			"-0.023": 0.0,
			"-0.022": 0.0,
			"-0.021": 0.0604111661091,
			"-0.02": 1.22800157132,
			"-0.019": 1.26396982798,
			"-0.018": 1.49790970697,
			"-0.017": 0.839885382451,
			"-0.016": 1.4195140782,
			"-0.015": 1.03571430403,
			"-0.014": 1.18158429998,
			"-0.013": 1.24026800372,
			"-0.012": 1.2113531462,
			"-0.011": 1.89481738206,
			"-0.01": 2.55081044651,
			"-0.009": 6.95839995409,
			"-0.008": 11.2792461353,
			"-0.007": 12.1126063482,
			"-0.006": 12.3489074843,
			"-0.005": 11.0492812642,
			"-0.004": 10.315241341,
			"-0.003": 11.7581580592,
			"-0.002": 14.5108578916,
			"-0.001": 13.7450582382,
			"0.0": 13.468873844,
			"0.001": 18.0033159018,
			"0.002": 9.3144839159,
			"0.003": 5.80185986248,
			"0.004": 6.23975439715,
			"0.005": 6.40225956212,
			"0.006": 5.9897979885,
			"0.007": 7.11341195492,
			"0.008": 8.32857794717,
			"0.009": 9.24336137429,
			"0.01": 9.42998822337,
			"0.011": 8.07251681022,
			"0.012": 6.5445201061,
			"0.013": 6.16688821381,
			"0.014": 1.09952453453,
			"0.015": 0.0,
			"0.016": 0.0,
			"0.017": 0.0,
			"0.018": 0.0,
			"0.019": 0.0,
			"0.02": 0.0,
			"0.021": 0.0,
			"0.022": 0.0,
			"0.023": 0.0,
			"0.024": 0.0,
			"0.025": 0.0
		}
	}
}
