{
	 "smiles": "NC1=CC=CC(=C1)S(=O)(=O)C1=CC(N)=CC=C1", 
	 "Tm": 445.15, 
	 "num_atms": 29, 
	 "gaussian": { 
		 "optdone": 1, 
		 "sigma_profile": "yes", 
		 "theory": "DFT", 
		 "functional": "B3LYP", 
		 "basiset": "6-31G**", 
		 "properties": { 
			 "R2extent": 4748.6779, 
			 "electric_dipole_moment_norm": 8.23979212056, 
			 "electric_quadrupole_moment_norm": 11.9510042486, 
			 "total_energy": -1122.58573203, 
			 "HOMO_LUMO_gap": 0.17296, 
			 "cosmo_polarized_energy": -24.22, 
			 "cosmo_cavitation_energy": 34.72, 
			 "cosmo_dispersion_energy": -25.13, 
			 "cosmo_repulsion_energy": 1.93, 
			 "cosmo_total_nonelectrostatic_energy": 11.52, 
			 "SMD_solvation_energy": 5.12 
		},
		"coords": [
			{
				"x": -1.3127561229,
				"y": 4.2694234203,
				"z": -0.7934283546,
				"element": "N" 
			},
			{
				"x": -1.4599120615,
				"y": 3.1752621411,
				"z": 0.0534285406,
				"element": "C" 
			},
			{
				"x": -2.5788634206,
				"y": 3.0641000429,
				"z": 0.8998682812,
				"element": "C" 
			},
			{
				"x": -2.6894483881,
				"y": 2.0084925718,
				"z": 1.8014939852,
				"element": "C" 
			},
			{
				"x": -1.7006082921,
				"y": 1.0269589904,
				"z": 1.8834220989,
				"element": "C" 
			},
			{
				"x": -0.6017476156,
				"y": 1.1382368976,
				"z": 1.0305427054,
				"element": "C" 
			},
			{
				"x": -0.4626154977,
				"y": 2.1876778983,
				"z": 0.1268298604,
				"element": "C" 
			},
			{
				"x": 0.6940046479,
				"y": -0.1154533129,
				"z": 1.0966778635,
				"element": "S" 
			},
			{
				"x": 0.7022062169,
				"y": -0.6682202137,
				"z": 2.4607965837,
				"element": "O" 
			},
			{
				"x": 1.9042695754,
				"y": 0.4703560674,
				"z": 0.4928338106,
				"element": "O" 
			},
			{
				"x": 0.1168546458,
				"y": -1.4183457008,
				"z": -0.0098284281,
				"element": "C" 
			},
			{
				"x": 0.5462608724,
				"y": -1.4013465005,
				"z": -1.3337233265,
				"element": "C" 
			},
			{
				"x": 0.1085063916,
				"y": -2.4033346867,
				"z": -2.2167363018,
				"element": "C" 
			},
			{
				"x": 0.575620231,
				"y": -2.4470205968,
				"z": -3.5266451471,
				"element": "N" 
			},
			{
				"x": -0.7627878845,
				"y": -3.395005226,
				"z": -1.7285773972,
				"element": "C" 
			},
			{
				"x": -1.1705289657,
				"y": -3.3939439838,
				"z": -0.3969578343,
				"element": "C" 
			},
			{
				"x": -0.7357981164,
				"y": -2.4050676574,
				"z": 0.486814556,
				"element": "C" 
			},
			{
				"x": -0.6823574432,
				"y": 4.1443562885,
				"z": -1.5723323888,
				"element": "H" 
			},
			{
				"x": -2.1645472734,
				"y": 4.7455090494,
				"z": -1.0534965702,
				"element": "H" 
			},
			{
				"x": -3.3561114678,
				"y": 3.8229974581,
				"z": 0.8560510675,
				"element": "H" 
			},
			{
				"x": -3.557119236,
				"y": 1.9544880072,
				"z": 2.452629371,
				"element": "H" 
			},
			{
				"x": -1.7612990645,
				"y": 0.2158348566,
				"z": 2.5989240103,
				"element": "H" 
			},
			{
				"x": 0.4291998836,
				"y": 2.2505178915,
				"z": -0.4886964196,
				"element": "H" 
			},
			{
				"x": 1.2398662881,
				"y": -0.6339206486,
				"z": -1.6625423572,
				"element": "H" 
			},
			{
				"x": 0.9263495809,
				"y": -1.5769973287,
				"z": -3.9005095133,
				"element": "H" 
			},
			{
				"x": -0.0006247928,
				"y": -2.9506964761,
				"z": -4.185495482,
				"element": "H" 
			},
			{
				"x": -1.1064146222,
				"y": -4.1780961578,
				"z": -2.3998834755,
				"element": "H" 
			},
			{
				"x": -1.832600732,
				"y": -4.1790216691,
				"z": -0.0433173691,
				"element": "H" 
			},
			{
				"x": -1.0236973366,
				"y": -2.4082414219,
				"z": 1.531157631,
				"element": "H" 
			}
		],
		 "valence_orbital": [ 
			{
				"type": "occ",
				"energy": -0.2766,
				"method": "rhf"
			},
			{
				"type": "occ",
				"energy": -0.27189,
				"method": "rhf"
			},
			{
				"type": "occ",
				"energy": -0.2544,
				"method": "rhf"
			},
			{
				"type": "occ",
				"energy": -0.21766,
				"method": "rhf"
			},
			{
				"type": "occ",
				"energy": -0.21267,
				"method": "rhf"
			},
			{
				"type": "unocc",
				"energy": -0.03971,
				"method": "rhf"
			},
			{
				"type": "unocc",
				"energy": -0.00832,
				"method": "rhf"
			},
			{
				"type": "unocc",
				"energy": -0.00354,
				"method": "rhf"
			},
			{
				"type": "unocc",
				"energy": 0.00849,
				"method": "rhf"
			},
			{
				"type": "unocc",
				"energy": 0.06294,
				"method": "rhf"
			}
		],
		"cosmo_sigma_profile": { 
			"-0.025": 0.0,
			"-0.024": 0.0,
			"-0.023": 0.0,
			"-0.022": 0.0,
			"-0.021": 0.0,
			"-0.02": 0.0,
			"-0.019": 0.0,
			"-0.018": 0.0,
			"-0.017": 0.0,
			"-0.016": 0.0,
			"-0.015": 0.0,
			"-0.014": 0.0,
			"-0.013": 3.6928986367,
			"-0.012": 6.04690784789,
			"-0.011": 6.36813114445,
			"-0.01": 6.42951830526,
			"-0.009": 7.24399422617,
			"-0.008": 5.2788914068,
			"-0.007": 8.42847021107,
			"-0.006": 14.6907339479,
			"-0.005": 16.2200603862,
			"-0.004": 15.1820406282,
			"-0.003": 12.7411057549,
			"-0.002": 12.1997627499,
			"-0.001": 10.2341090174,
			"0.0": 12.9293527693,
			"0.001": 13.8155628181,
			"0.002": 17.6038511257,
			"0.003": 22.8810045273,
			"0.004": 28.3048900348,
			"0.005": 12.0046164377,
			"0.006": 4.79415687248,
			"0.007": 4.50051602714,
			"0.008": 4.77931627922,
			"0.009": 4.60706388081,
			"0.01": 6.30806243627,
			"0.011": 8.46296465552,
			"0.012": 8.46313607425,
			"0.013": 2.42083815551,
			"0.014": 0.110855148977,
			"0.015": 0.0,
			"0.016": 0.0,
			"0.017": 0.0,
			"0.018": 0.0,
			"0.019": 0.0,
			"0.02": 0.0,
			"0.021": 0.0,
			"0.022": 0.0,
			"0.023": 0.0,
			"0.024": 0.0,
			"0.025": 0.0
		}
	}
}
