{
	 "smiles": "OC(=O)C1=C(F)C=CC(F)=C1O", 
	 "Tm": 425.15, 
	 "num_atms": 16, 
	 "gaussian": { 
		 "optdone": 1, 
		 "sigma_profile": "yes", 
		 "theory": "DFT", 
		 "functional": "B3LYP", 
		 "basiset": "6-31G**", 
		 "properties": { 
			 "R2extent": 2400.9167, 
			 "electric_dipole_moment_norm": 4.16426585847, 
			 "electric_quadrupole_moment_norm": 7.78396030694, 
			 "total_energy": -694.508082852, 
			 "HOMO_LUMO_gap": 0.17516, 
			 "cosmo_polarized_energy": -10.18, 
			 "cosmo_cavitation_energy": 21.36, 
			 "cosmo_dispersion_energy": -16.33, 
			 "cosmo_repulsion_energy": 1.23, 
			 "cosmo_total_nonelectrostatic_energy": 6.26, 
			 "SMD_solvation_energy": 6.09 
		},
		"coords": [
			{
				"x": -2.1913417211,
				"y": -3.4020131821,
				"z": 0.8727118522,
				"element": "O" 
			},
			{
				"x": -2.3096701789,
				"y": -2.1206806838,
				"z": 0.5131967328,
				"element": "C" 
			},
			{
				"x": -3.4154567571,
				"y": -1.6946225985,
				"z": 0.1884835283,
				"element": "O" 
			},
			{
				"x": -1.1107952196,
				"y": -1.2448589993,
				"z": 0.5141121641,
				"element": "C" 
			},
			{
				"x": 0.1880469881,
				"y": -1.6536714513,
				"z": 0.8713414663,
				"element": "C" 
			},
			{
				"x": 0.3820460554,
				"y": -2.9562974368,
				"z": 1.2502949335,
				"element": "F" 
			},
			{
				"x": 1.2855167939,
				"y": -0.8234822914,
				"z": 0.8648100912,
				"element": "C" 
			},
			{
				"x": 1.096879163,
				"y": 0.5124544448,
				"z": 0.478040373,
				"element": "C" 
			},
			{
				"x": -0.1571090031,
				"y": 0.9602687873,
				"z": 0.119197449,
				"element": "C" 
			},
			{
				"x": -0.3373875735,
				"y": 2.2382276012,
				"z": -0.2507103928,
				"element": "F" 
			},
			{
				"x": -1.2844101313,
				"y": 0.1123527652,
				"z": 0.1246583008,
				"element": "C" 
			},
			{
				"x": -2.4570899162,
				"y": 0.6247185093,
				"z": -0.2353551895,
				"element": "O" 
			},
			{
				"x": -1.2696053816,
				"y": -3.6051627399,
				"z": 1.1035306574,
				"element": "H" 
			},
			{
				"x": 2.257351579,
				"y": -1.2051741066,
				"z": 1.1519740508,
				"element": "H" 
			},
			{
				"x": 1.92706551,
				"y": 1.2097241596,
				"z": 0.4549240608,
				"element": "H" 
			},
			{
				"x": -3.1164402069,
				"y": -0.1196827777,
				"z": -0.1667100778,
				"element": "H" 
			}
		],
		 "valence_orbital": [ 
			{
				"type": "occ",
				"energy": -0.35732,
				"method": "rhf"
			},
			{
				"type": "occ",
				"energy": -0.33565,
				"method": "rhf"
			},
			{
				"type": "occ",
				"energy": -0.30125,
				"method": "rhf"
			},
			{
				"type": "occ",
				"energy": -0.28167,
				"method": "rhf"
			},
			{
				"type": "occ",
				"energy": -0.24405,
				"method": "rhf"
			},
			{
				"type": "unocc",
				"energy": -0.06889,
				"method": "rhf"
			},
			{
				"type": "unocc",
				"energy": -0.01452,
				"method": "rhf"
			},
			{
				"type": "unocc",
				"energy": 0.03409,
				"method": "rhf"
			},
			{
				"type": "unocc",
				"energy": 0.05227,
				"method": "rhf"
			},
			{
				"type": "unocc",
				"energy": 0.09498,
				"method": "rhf"
			}
		],
		"cosmo_sigma_profile": { 
			"-0.025": 0.0,
			"-0.024": 0.0,
			"-0.023": 0.0,
			"-0.022": 0.0,
			"-0.021": 0.0,
			"-0.02": 0.0,
			"-0.019": 0.0,
			"-0.018": 0.0,
			"-0.017": 0.0,
			"-0.016": 0.0,
			"-0.015": 0.0,
			"-0.014": 0.461523554137,
			"-0.013": 0.454974311598,
			"-0.012": 0.859235275617,
			"-0.011": 1.57152156235,
			"-0.01": 1.95548987212,
			"-0.009": 3.45389545695,
			"-0.008": 5.91425396515,
			"-0.007": 6.51752877589,
			"-0.006": 6.25493373698,
			"-0.005": 7.56236322609,
			"-0.004": 10.2366551147,
			"-0.003": 8.1289703103,
			"-0.002": 12.2253815898,
			"-0.001": 18.442194455,
			"0.0": 14.8994350738,
			"0.001": 11.635840281,
			"0.002": 10.4635358095,
			"0.003": 9.14501677805,
			"0.004": 10.5444616025,
			"0.005": 3.28798054782,
			"0.006": 5.23148293136,
			"0.007": 4.04212627492,
			"0.008": 5.10525533337,
			"0.009": 5.84088176223,
			"0.01": 5.36912487216,
			"0.011": 2.14612061735,
			"0.012": 1.18142803045,
			"0.013": 0.0112021507403,
			"0.014": 0.0,
			"0.015": 0.0,
			"0.016": 0.0,
			"0.017": 0.0,
			"0.018": 0.0,
			"0.019": 0.0,
			"0.02": 0.0,
			"0.021": 0.0,
			"0.022": 0.0,
			"0.023": 0.0,
			"0.024": 0.0,
			"0.025": 0.0
		}
	}
}
