{
	 "smiles": "CS(=O)(=O)C1=CC=C(OC2=CC=C(N)C=C2)C=C1", 
	 "Tm": 426.15, 
	 "num_atms": 31, 
	 "gaussian": { 
		 "optdone": 1, 
		 "sigma_profile": "yes", 
		 "theory": "DFT", 
		 "functional": "B3LYP", 
		 "basiset": "6-31G**", 
		 "properties": { 
			 "R2extent": 8813.7899, 
			 "electric_dipole_moment_norm": 6.8464119267, 
			 "electric_quadrupole_moment_norm": 34.0981834984, 
			 "total_energy": -1181.75954913, 
			 "HOMO_LUMO_gap": 0.18556, 
			 "cosmo_polarized_energy": -20.88, 
			 "cosmo_cavitation_energy": 37.18, 
			 "cosmo_dispersion_energy": -26.98, 
			 "cosmo_repulsion_energy": 2.05, 
			 "cosmo_total_nonelectrostatic_energy": 12.25, 
			 "SMD_solvation_energy": 6.19 
		},
		"coords": [
			{
				"x": 0.0511456721,
				"y": -5.2272546787,
				"z": 2.5932072744,
				"element": "C" 
			},
			{
				"x": 0.6164840196,
				"y": -3.8681160788,
				"z": 3.6469396653,
				"element": "S" 
			},
			{
				"x": 2.0834575335,
				"y": -3.8138128206,
				"z": 3.5360420753,
				"element": "O" 
			},
			{
				"x": -0.042824803,
				"y": -4.0289332644,
				"z": 4.9531381564,
				"element": "O" 
			},
			{
				"x": -0.0547516604,
				"y": -2.4049959109,
				"z": 2.861058229,
				"element": "C" 
			},
			{
				"x": -1.3324695864,
				"y": -1.9544112555,
				"z": 3.2122655931,
				"element": "C" 
			},
			{
				"x": -1.8519609311,
				"y": -0.823728453,
				"z": 2.5966941389,
				"element": "C" 
			},
			{
				"x": -1.0932582464,
				"y": -0.1399130188,
				"z": 1.6340148293,
				"element": "C" 
			},
			{
				"x": -1.6933444811,
				"y": 0.957690262,
				"z": 1.0820076398,
				"element": "O" 
			},
			{
				"x": -0.9964657687,
				"y": 1.7413345939,
				"z": 0.1608099301,
				"element": "C" 
			},
			{
				"x": -0.1869321446,
				"y": 2.7855791091,
				"z": 0.6055856134,
				"element": "C" 
			},
			{
				"x": 0.4453218839,
				"y": 3.6135787254,
				"z": -0.3179027757,
				"element": "C" 
			},
			{
				"x": 0.2751697032,
				"y": 3.4132146304,
				"z": -1.6999657147,
				"element": "C" 
			},
			{
				"x": 0.8598120907,
				"y": 4.2801217588,
				"z": -2.6230214803,
				"element": "N" 
			},
			{
				"x": -0.5494513617,
				"y": 2.3569722477,
				"z": -2.1272279633,
				"element": "C" 
			},
			{
				"x": -1.1806199106,
				"y": 1.5273874069,
				"z": -1.20374696,
				"element": "C" 
			},
			{
				"x": 0.1904077065,
				"y": -0.5854710679,
				"z": 1.2926999199,
				"element": "C" 
			},
			{
				"x": 0.7072579785,
				"y": -1.7214232811,
				"z": 1.9126354644,
				"element": "C" 
			},
			{
				"x": 0.4386394687,
				"y": -6.144377274,
				"z": 3.0417518246,
				"element": "H" 
			},
			{
				"x": -1.0395122939,
				"y": -5.2423222485,
				"z": 2.5801030609,
				"element": "H" 
			},
			{
				"x": 0.4552383622,
				"y": -5.0950596471,
				"z": 1.5886585774,
				"element": "H" 
			},
			{
				"x": -1.8969271221,
				"y": -2.4773964405,
				"z": 3.9771142477,
				"element": "H" 
			},
			{
				"x": -2.8358179939,
				"y": -0.4435827271,
				"z": 2.84998797,
				"element": "H" 
			},
			{
				"x": -0.0601931563,
				"y": 2.9479301148,
				"z": 1.6712242763,
				"element": "H" 
			},
			{
				"x": 1.0700507561,
				"y": 4.4311138647,
				"z": 0.0323848529,
				"element": "H" 
			},
			{
				"x": 1.6785789476,
				"y": 4.7739652917,
				"z": -2.2963803737,
				"element": "H" 
			},
			{
				"x": 0.9901664777,
				"y": 3.9025445799,
				"z": -3.551122292,
				"element": "H" 
			},
			{
				"x": -0.7021800674,
				"y": 2.1923950592,
				"z": -3.1907120797,
				"element": "H" 
			},
			{
				"x": -1.8224414153,
				"y": 0.7173186371,
				"z": -1.535153313,
				"element": "H" 
			},
			{
				"x": 0.7770768434,
				"y": -0.0451894169,
				"z": 0.5596422455,
				"element": "H" 
			},
			{
				"x": 1.7082434992,
				"y": -2.0684586979,
				"z": 1.6782673676,
				"element": "H" 
			}
		],
		 "valence_orbital": [ 
			{
				"type": "occ",
				"energy": -0.27962,
				"method": "rhf"
			},
			{
				"type": "occ",
				"energy": -0.26993,
				"method": "rhf"
			},
			{
				"type": "occ",
				"energy": -0.26305,
				"method": "rhf"
			},
			{
				"type": "occ",
				"energy": -0.24049,
				"method": "rhf"
			},
			{
				"type": "occ",
				"energy": -0.21208,
				"method": "rhf"
			},
			{
				"type": "unocc",
				"energy": -0.02652,
				"method": "rhf"
			},
			{
				"type": "unocc",
				"energy": -0.02119,
				"method": "rhf"
			},
			{
				"type": "unocc",
				"energy": -0.00939,
				"method": "rhf"
			},
			{
				"type": "unocc",
				"energy": 0.00519,
				"method": "rhf"
			},
			{
				"type": "unocc",
				"energy": 0.0684,
				"method": "rhf"
			}
		],
		"cosmo_sigma_profile": { 
			"-0.025": 0.0,
			"-0.024": 0.0,
			"-0.023": 0.0,
			"-0.022": 0.0,
			"-0.021": 0.0,
			"-0.02": 0.0,
			"-0.019": 0.0,
			"-0.018": 0.0,
			"-0.017": 0.0,
			"-0.016": 0.0,
			"-0.015": 0.0,
			"-0.014": 0.0,
			"-0.013": 0.59447285184,
			"-0.012": 2.65122258166,
			"-0.011": 2.5863906529,
			"-0.01": 3.39705416258,
			"-0.009": 4.28731825491,
			"-0.008": 9.12092798368,
			"-0.007": 13.8613561063,
			"-0.006": 22.515821867,
			"-0.005": 19.9124200024,
			"-0.004": 19.8020604125,
			"-0.003": 17.852818699,
			"-0.002": 14.0062662141,
			"-0.001": 14.3720427008,
			"0.0": 16.4168353225,
			"0.001": 16.332153115,
			"0.002": 23.7867582799,
			"0.003": 18.6941171274,
			"0.004": 13.9671166346,
			"0.005": 14.1367188879,
			"0.006": 6.27211732603,
			"0.007": 4.47647959639,
			"0.008": 5.2917840053,
			"0.009": 4.8261151172,
			"0.01": 4.45075749689,
			"0.011": 9.32094764108,
			"0.012": 10.5151045461,
			"0.013": 2.65623039738,
			"0.014": 0.50061270125,
			"0.015": 0.0979928204801,
			"0.016": 0.0,
			"0.017": 0.0,
			"0.018": 0.0,
			"0.019": 0.0,
			"0.02": 0.0,
			"0.021": 0.0,
			"0.022": 0.0,
			"0.023": 0.0,
			"0.024": 0.0,
			"0.025": 0.0
		}
	}
}
