{
	 "smiles": "BrC1=CC=C(C=C1)S(=O)(=O)CCN1CCNCC1", 
	 "Tm": 373.15, 
	 "num_atms": 35, 
	 "gaussian": { 
		 "optdone": 1, 
		 "sigma_profile": "yes", 
		 "theory": "DFT", 
		 "functional": "B3LYP", 
		 "basiset": "6-31G**", 
		 "properties": { 
			 "R2extent": 9578.807, 
			 "electric_dipole_moment_norm": 4.54693467734, 
			 "electric_quadrupole_moment_norm": 19.9215979068, 
			 "total_energy": -3696.98493246, 
			 "HOMO_LUMO_gap": 0.17439, 
			 "cosmo_polarized_energy": -17.69, 
			 "cosmo_cavitation_energy": 40.12, 
			 "cosmo_dispersion_energy": -27.72, 
			 "cosmo_repulsion_energy": 2.09, 
			 "cosmo_total_nonelectrostatic_energy": 14.49, 
			 "SMD_solvation_energy": 1.52 
		},
		"coords": [
			{
				"x": 3.6865380246,
				"y": -4.9144547994,
				"z": 0.3905261574,
				"element": "Br" 
			},
			{
				"x": 2.5320668279,
				"y": -3.5465311348,
				"z": 1.0501507209,
				"element": "C" 
			},
			{
				"x": 1.2182103935,
				"y": -3.4792682456,
				"z": 0.5825842123,
				"element": "C" 
			},
			{
				"x": 0.3762492111,
				"y": -2.4764004247,
				"z": 1.0613998818,
				"element": "C" 
			},
			{
				"x": 0.8625201666,
				"y": -1.5650465803,
				"z": 1.9989219229,
				"element": "C" 
			},
			{
				"x": 2.1709001671,
				"y": -1.6455093725,
				"z": 2.4780655212,
				"element": "C" 
			},
			{
				"x": 3.0180733859,
				"y": -2.6426975445,
				"z": 1.995356596,
				"element": "C" 
			},
			{
				"x": -0.2298099073,
				"y": -0.2945771491,
				"z": 2.6619345065,
				"element": "S" 
			},
			{
				"x": 0.2945324168,
				"y": 0.0586574552,
				"z": 3.9933381733,
				"element": "O" 
			},
			{
				"x": -1.6187003233,
				"y": -0.7533167322,
				"z": 2.4861030165,
				"element": "O" 
			},
			{
				"x": 0.0090710512,
				"y": 1.200376035,
				"z": 1.6299684736,
				"element": "C" 
			},
			{
				"x": -0.8568796292,
				"y": 1.2553014904,
				"z": 0.3740830525,
				"element": "C" 
			},
			{
				"x": -0.4581722743,
				"y": 0.3185825136,
				"z": -0.6714048072,
				"element": "N" 
			},
			{
				"x": 0.7531744161,
				"y": 0.7409492494,
				"z": -1.3817760056,
				"element": "C" 
			},
			{
				"x": 1.1606586107,
				"y": -0.3089412591,
				"z": -2.4252065071,
				"element": "C" 
			},
			{
				"x": 0.0947194556,
				"y": -0.6397806681,
				"z": -3.3721969701,
				"element": "N" 
			},
			{
				"x": -1.141043006,
				"y": -0.9725834058,
				"z": -2.6607341403,
				"element": "C" 
			},
			{
				"x": -1.5531648447,
				"y": 0.0746709433,
				"z": -1.6181778245,
				"element": "C" 
			},
			{
				"x": 0.8595481738,
				"y": -4.202717089,
				"z": -0.140398501,
				"element": "H" 
			},
			{
				"x": -0.6499885632,
				"y": -2.4030379267,
				"z": 0.7228354388,
				"element": "H" 
			},
			{
				"x": 2.5120782672,
				"y": -0.9507507673,
				"z": 3.2381256141,
				"element": "H" 
			},
			{
				"x": 4.0368035096,
				"y": -2.7243309892,
				"z": 2.356069098,
				"element": "H" 
			},
			{
				"x": -0.2684348825,
				"y": 2.0039996487,
				"z": 2.3192730703,
				"element": "H" 
			},
			{
				"x": 1.0817251445,
				"y": 1.282433727,
				"z": 1.4379429034,
				"element": "H" 
			},
			{
				"x": -1.8832404253,
				"y": 1.0198931148,
				"z": 0.6707800791,
				"element": "H" 
			},
			{
				"x": -0.8578703319,
				"y": 2.3029964462,
				"z": 0.0128683595,
				"element": "H" 
			},
			{
				"x": 0.5970101659,
				"y": 1.7192119981,
				"z": -1.8835867255,
				"element": "H" 
			},
			{
				"x": 1.569673989,
				"y": 0.8759289832,
				"z": -0.6633759292,
				"element": "H" 
			},
			{
				"x": 2.0371511358,
				"y": 0.0408789148,
				"z": -2.9810982842,
				"element": "H" 
			},
			{
				"x": 1.4477642289,
				"y": -1.2301593939,
				"z": -1.903405737,
				"element": "H" 
			},
			{
				"x": -0.0751608482,
				"y": 0.1623000548,
				"z": -3.9772514424,
				"element": "H" 
			},
			{
				"x": -1.9476091991,
				"y": -1.1099151219,
				"z": -3.3888933974,
				"element": "H" 
			},
			{
				"x": -0.9889058929,
				"y": -1.9346333013,
				"z": -2.1549647341,
				"element": "H" 
			},
			{
				"x": -1.8502011106,
				"y": 1.0086589035,
				"z": -2.1394489866,
				"element": "H" 
			},
			{
				"x": -2.4262875029,
				"y": -0.2762875725,
				"z": -1.0561068061,
				"element": "H" 
			}
		],
		 "valence_orbital": [ 
			{
				"type": "occ",
				"energy": -0.28569,
				"method": "rhf"
			},
			{
				"type": "occ",
				"energy": -0.28053,
				"method": "rhf"
			},
			{
				"type": "occ",
				"energy": -0.26086,
				"method": "rhf"
			},
			{
				"type": "occ",
				"energy": -0.23757,
				"method": "rhf"
			},
			{
				"type": "occ",
				"energy": -0.22172,
				"method": "rhf"
			},
			{
				"type": "unocc",
				"energy": -0.04733,
				"method": "rhf"
			},
			{
				"type": "unocc",
				"energy": -0.03002,
				"method": "rhf"
			},
			{
				"type": "unocc",
				"energy": -0.0042,
				"method": "rhf"
			},
			{
				"type": "unocc",
				"energy": 0.06022,
				"method": "rhf"
			},
			{
				"type": "unocc",
				"energy": 0.0618,
				"method": "rhf"
			}
		],
		"cosmo_sigma_profile": { 
			"-0.025": 0.0,
			"-0.024": 0.0,
			"-0.023": 0.0,
			"-0.022": 0.0,
			"-0.021": 0.0,
			"-0.02": 0.0,
			"-0.019": 0.0,
			"-0.018": 0.0,
			"-0.017": 0.0,
			"-0.016": 0.0,
			"-0.015": 0.0,
			"-0.014": 0.0,
			"-0.013": 0.0,
			"-0.012": 0.0,
			"-0.011": 0.0,
			"-0.01": 0.283397736221,
			"-0.009": 1.57628828051,
			"-0.008": 9.63977019876,
			"-0.007": 12.5625074857,
			"-0.006": 14.0300763039,
			"-0.005": 13.4858244535,
			"-0.004": 26.4499806602,
			"-0.003": 28.8841392238,
			"-0.002": 33.4264832926,
			"-0.001": 31.5664441805,
			"0.0": 24.8644932034,
			"0.001": 27.9940807111,
			"0.002": 17.2101591464,
			"0.003": 14.5911958692,
			"0.004": 16.0897516257,
			"0.005": 5.76230986668,
			"0.006": 3.0880614363,
			"0.007": 3.31831385405,
			"0.008": 2.9229863725,
			"0.009": 4.68474644295,
			"0.01": 4.56587699664,
			"0.011": 8.38839342019,
			"0.012": 8.18998618929,
			"0.013": 2.37451301435,
			"0.014": 0.429208149047,
			"0.015": 0.494880841023,
			"0.016": 0.506361478193,
			"0.017": 0.563085383192,
			"0.018": 0.59211032981,
			"0.019": 0.257185763255,
			"0.02": 0.0,
			"0.021": 0.0,
			"0.022": 0.0,
			"0.023": 0.0,
			"0.024": 0.0,
			"0.025": 0.0
		}
	}
}
