{
	 "smiles": "NS(=O)(=O)C1=C(F)C(F)=C(F)C=C1", 
	 "Tm": 600.15, 
	 "num_atms": 17, 
	 "gaussian": { 
		 "optdone": 1, 
		 "sigma_profile": "yes", 
		 "theory": "DFT", 
		 "functional": "B3LYP", 
		 "basiset": "6-31G**", 
		 "properties": { 
			 "R2extent": 3545.8695, 
			 "electric_dipole_moment_norm": 4.30260551875, 
			 "electric_quadrupole_moment_norm": 16.8750076871, 
			 "total_energy": -1133.84633737, 
			 "HOMO_LUMO_gap": 0.22582, 
			 "cosmo_polarized_energy": -16.06, 
			 "cosmo_cavitation_energy": 24.63, 
			 "cosmo_dispersion_energy": -18.38, 
			 "cosmo_repulsion_energy": 1.34, 
			 "cosmo_total_nonelectrostatic_energy": 7.59, 
			 "SMD_solvation_energy": 5.25 
		},
		"coords": [
			{
				"x": -2.7742903792,
				"y": 0.1027219602,
				"z": 0.5924599939,
				"element": "N" 
			},
			{
				"x": -1.8185238962,
				"y": 0.4516410033,
				"z": 1.9173277244,
				"element": "S" 
			},
			{
				"x": -1.6366010479,
				"y": -0.8050682951,
				"z": 2.6393997308,
				"element": "O" 
			},
			{
				"x": -2.3848071729,
				"y": 1.6434423821,
				"z": 2.5367079985,
				"element": "O" 
			},
			{
				"x": -0.1944441793,
				"y": 0.8928588652,
				"z": 1.2683974407,
				"element": "C" 
			},
			{
				"x": -0.0565590447,
				"y": 1.9137602041,
				"z": 0.3279350273,
				"element": "C" 
			},
			{
				"x": -1.1366201139,
				"y": 2.5381821868,
				"z": -0.1733370164,
				"element": "F" 
			},
			{
				"x": 1.1996818541,
				"y": 2.2894778353,
				"z": -0.1344102624,
				"element": "C" 
			},
			{
				"x": 1.3239896957,
				"y": 3.2584585805,
				"z": -1.0454498661,
				"element": "F" 
			},
			{
				"x": 2.3271490678,
				"y": 1.6355026514,
				"z": 0.3665520084,
				"element": "C" 
			},
			{
				"x": 3.527560744,
				"y": 2.0114533475,
				"z": -0.0879914542,
				"element": "F" 
			},
			{
				"x": 2.2104336704,
				"y": 0.6168617693,
				"z": 1.3045688852,
				"element": "C" 
			},
			{
				"x": 0.9435797166,
				"y": 0.2467199584,
				"z": 1.7548546215,
				"element": "C" 
			},
			{
				"x": -2.489929872,
				"y": -0.7424586151,
				"z": 0.1079188771,
				"element": "H" 
			},
			{
				"x": -2.9070046562,
				"y": 0.9034885919,
				"z": -0.0175121354,
				"element": "H" 
			},
			{
				"x": 3.1085741732,
				"y": 0.1314283645,
				"z": 1.6686810499,
				"element": "H" 
			},
			{
				"x": 0.8182114405,
				"y": -0.5446707903,
				"z": 2.4846973769,
				"element": "H" 
			}
		],
		 "valence_orbital": [ 
			{
				"type": "occ",
				"energy": -0.32807,
				"method": "rhf"
			},
			{
				"type": "occ",
				"energy": -0.31881,
				"method": "rhf"
			},
			{
				"type": "occ",
				"energy": -0.31453,
				"method": "rhf"
			},
			{
				"type": "occ",
				"energy": -0.28351,
				"method": "rhf"
			},
			{
				"type": "occ",
				"energy": -0.27817,
				"method": "rhf"
			},
			{
				"type": "unocc",
				"energy": -0.05235,
				"method": "rhf"
			},
			{
				"type": "unocc",
				"energy": -0.03918,
				"method": "rhf"
			},
			{
				"type": "unocc",
				"energy": 0.01275,
				"method": "rhf"
			},
			{
				"type": "unocc",
				"energy": 0.05027,
				"method": "rhf"
			},
			{
				"type": "unocc",
				"energy": 0.07341,
				"method": "rhf"
			}
		],
		"cosmo_sigma_profile": { 
			"-0.025": 0.0,
			"-0.024": 0.0,
			"-0.023": 0.0,
			"-0.022": 0.0,
			"-0.021": 0.0,
			"-0.02": 0.0,
			"-0.019": 0.0,
			"-0.018": 0.0,
			"-0.017": 0.0,
			"-0.016": 1.00981117525,
			"-0.015": 1.74379400539,
			"-0.014": 1.96224972651,
			"-0.013": 2.99999843678,
			"-0.012": 2.17651239022,
			"-0.011": 2.04257820496,
			"-0.01": 2.6609095908,
			"-0.009": 3.96117686611,
			"-0.008": 5.11888169763,
			"-0.007": 5.16534310658,
			"-0.006": 5.2073649785,
			"-0.005": 4.88670569219,
			"-0.004": 12.7451319848,
			"-0.003": 13.5898834676,
			"-0.002": 12.449678676,
			"-0.001": 12.3212166992,
			"0.0": 12.611134515,
			"0.001": 12.218143476,
			"0.002": 22.1450773229,
			"0.003": 17.224188347,
			"0.004": 3.37585819134,
			"0.005": 3.25216424874,
			"0.006": 3.96574309428,
			"0.007": 5.16072108542,
			"0.008": 4.28876265492,
			"0.009": 4.59209714226,
			"0.01": 11.7147814667,
			"0.011": 7.60643075491,
			"0.012": 0.459968360881,
			"0.013": 0.0,
			"0.014": 0.0,
			"0.015": 0.0,
			"0.016": 0.0,
			"0.017": 0.0,
			"0.018": 0.0,
			"0.019": 0.0,
			"0.02": 0.0,
			"0.021": 0.0,
			"0.022": 0.0,
			"0.023": 0.0,
			"0.024": 0.0,
			"0.025": 0.0
		}
	}
}
