{
	 "smiles": "CN1C=NC2=C1N=C(NCCO)N=C2NCC1=CC=CC=C1", 
	 "Tm": 398.15, 
	 "num_atms": 40, 
	 "gaussian": { 
		 "optdone": 1, 
		 "sigma_profile": "yes", 
		 "theory": "DFT", 
		 "functional": "B3LYP", 
		 "basiset": "6-31G**", 
		 "properties": { 
			 "R2extent": 8802.6686, 
			 "electric_dipole_moment_norm": 2.23056152796, 
			 "electric_quadrupole_moment_norm": 23.6364518977, 
			 "total_energy": -986.207311208, 
			 "HOMO_LUMO_gap": 0.18476, 
			 "cosmo_polarized_energy": -18.05, 
			 "cosmo_cavitation_energy": 43.94, 
			 "cosmo_dispersion_energy": -30.76, 
			 "cosmo_repulsion_energy": 2.39, 
			 "cosmo_total_nonelectrostatic_energy": 15.57, 
			 "SMD_solvation_energy": 3.79 
		},
		"coords": [
			{
				"x": 1.2643219958,
				"y": 4.9837507869,
				"z": -0.9711957339,
				"element": "C" 
			},
			{
				"x": 1.6384291478,
				"y": 3.5967202212,
				"z": -1.1873448611,
				"element": "N" 
			},
			{
				"x": 2.4044223999,
				"y": 3.0676394363,
				"z": -2.2146679075,
				"element": "C" 
			},
			{
				"x": 2.5671077984,
				"y": 1.7687280577,
				"z": -2.1366894747,
				"element": "N" 
			},
			{
				"x": 1.8699895363,
				"y": 1.415740973,
				"z": -0.9952976566,
				"element": "C" 
			},
			{
				"x": 1.2866658653,
				"y": 2.5290782592,
				"z": -0.3900631197,
				"element": "C" 
			},
			{
				"x": 0.5435604346,
				"y": 2.5470850373,
				"z": 0.725882896,
				"element": "N" 
			},
			{
				"x": 0.4020445845,
				"y": 1.3153811146,
				"z": 1.2383351907,
				"element": "C" 
			},
			{
				"x": -0.3632688249,
				"y": 1.1839034789,
				"z": 2.376991152,
				"element": "N" 
			},
			{
				"x": -0.7443149523,
				"y": 2.3225038191,
				"z": 3.2084429687,
				"element": "C" 
			},
			{
				"x": -2.0716092565,
				"y": 2.9334456014,
				"z": 2.7484410201,
				"element": "C" 
			},
			{
				"x": -3.1172624637,
				"y": 1.9757388315,
				"z": 2.7556778436,
				"element": "O" 
			},
			{
				"x": 0.9059068006,
				"y": 0.1476147374,
				"z": 0.7651677147,
				"element": "N" 
			},
			{
				"x": 1.648082957,
				"y": 0.1746788502,
				"z": -0.3502732265,
				"element": "C" 
			},
			{
				"x": 2.1910748415,
				"y": -0.9670763649,
				"z": -0.8428533515,
				"element": "N" 
			},
			{
				"x": 1.9611201677,
				"y": -2.3001179627,
				"z": -0.3005888098,
				"element": "C" 
			},
			{
				"x": 0.9852052739,
				"y": -3.1316094231,
				"z": -1.1154202342,
				"element": "C" 
			},
			{
				"x": -0.3635733983,
				"y": -2.7561732012,
				"z": -1.2041386798,
				"element": "C" 
			},
			{
				"x": -1.2607305893,
				"y": -3.5137178172,
				"z": -1.9547457727,
				"element": "C" 
			},
			{
				"x": -0.8238808017,
				"y": -4.6591236234,
				"z": -2.6273899242,
				"element": "C" 
			},
			{
				"x": 0.5146090383,
				"y": -5.0412048229,
				"z": -2.5434261067,
				"element": "C" 
			},
			{
				"x": 1.4125522329,
				"y": -4.2787708019,
				"z": -1.7915636982,
				"element": "C" 
			},
			{
				"x": 0.662829911,
				"y": 5.0250915533,
				"z": -0.0621330087,
				"element": "H" 
			},
			{
				"x": 0.6723082036,
				"y": 5.364592345,
				"z": -1.8089407833,
				"element": "H" 
			},
			{
				"x": 2.1506740151,
				"y": 5.6124396712,
				"z": -0.8428789696,
				"element": "H" 
			},
			{
				"x": 2.8117710471,
				"y": 3.7037801295,
				"z": -2.9899357009,
				"element": "H" 
			},
			{
				"x": -0.2555483329,
				"y": 0.2844657392,
				"z": 2.8209530492,
				"element": "H" 
			},
			{
				"x": 0.0439887202,
				"y": 3.0844401484,
				"z": 3.1952591324,
				"element": "H" 
			},
			{
				"x": -0.8584512957,
				"y": 1.9545183817,
				"z": 4.2328902296,
				"element": "H" 
			},
			{
				"x": -1.9345629674,
				"y": 3.3777964597,
				"z": 1.7521983248,
				"element": "H" 
			},
			{
				"x": -2.3674632925,
				"y": 3.7311870529,
				"z": 3.4386660683,
				"element": "H" 
			},
			{
				"x": -2.7980352113,
				"y": 1.2407448481,
				"z": 2.2119699211,
				"element": "H" 
			},
			{
				"x": 2.653154488,
				"y": -0.8779825867,
				"z": -1.7369705966,
				"element": "H" 
			},
			{
				"x": 1.5863875966,
				"y": -2.1559973227,
				"z": 0.7151755619,
				"element": "H" 
			},
			{
				"x": 2.9223912511,
				"y": -2.822556613,
				"z": -0.2319215312,
				"element": "H" 
			},
			{
				"x": -0.7025767996,
				"y": -1.8687051899,
				"z": -0.6766461517,
				"element": "H" 
			},
			{
				"x": -2.3034675309,
				"y": -3.2140625879,
				"z": -2.0133938856,
				"element": "H" 
			},
			{
				"x": -1.5245074329,
				"y": -5.2490715099,
				"z": -3.2114522292,
				"element": "H" 
			},
			{
				"x": 0.8623261614,
				"y": -5.9299352278,
				"z": -3.0626859976,
				"element": "H" 
			},
			{
				"x": 2.4558286815,
				"y": -4.5803604786,
				"z": -1.7282336614,
				"element": "H" 
			}
		],
		 "valence_orbital": [ 
			{
				"type": "occ",
				"energy": -0.24924,
				"method": "rhf"
			},
			{
				"type": "occ",
				"energy": -0.24755,
				"method": "rhf"
			},
			{
				"type": "occ",
				"energy": -0.24202,
				"method": "rhf"
			},
			{
				"type": "occ",
				"energy": -0.22875,
				"method": "rhf"
			},
			{
				"type": "occ",
				"energy": -0.19417,
				"method": "rhf"
			},
			{
				"type": "unocc",
				"energy": -0.00941,
				"method": "rhf"
			},
			{
				"type": "unocc",
				"energy": -0.00058,
				"method": "rhf"
			},
			{
				"type": "unocc",
				"energy": 0.00377,
				"method": "rhf"
			},
			{
				"type": "unocc",
				"energy": 0.0221,
				"method": "rhf"
			},
			{
				"type": "unocc",
				"energy": 0.0489,
				"method": "rhf"
			}
		],
		"cosmo_sigma_profile": { 
			"-0.025": 0.0,
			"-0.024": 0.0,
			"-0.023": 0.0,
			"-0.022": 0.0,
			"-0.021": 0.0,
			"-0.02": 0.0,
			"-0.019": 0.0,
			"-0.018": 0.0,
			"-0.017": 0.0,
			"-0.016": 0.0,
			"-0.015": 0.0,
			"-0.014": 0.0,
			"-0.013": 1.08994124592,
			"-0.012": 2.51123654266,
			"-0.011": 2.12609588855,
			"-0.01": 2.71480207577,
			"-0.009": 4.42190308449,
			"-0.008": 4.61400078189,
			"-0.007": 5.42387466665,
			"-0.006": 16.422115203,
			"-0.005": 26.0988017948,
			"-0.004": 29.6609321287,
			"-0.003": 31.2926412208,
			"-0.002": 25.4797689947,
			"-0.001": 22.9758340631,
			"0.0": 21.2825100123,
			"0.001": 24.4658178139,
			"0.002": 22.5550898805,
			"0.003": 20.995891209,
			"0.004": 17.7534324782,
			"0.005": 17.7853895078,
			"0.006": 14.5743767285,
			"0.007": 7.14208706975,
			"0.008": 6.48261572879,
			"0.009": 4.43349444172,
			"0.01": 2.61591207154,
			"0.011": 2.48657341437,
			"0.012": 2.63369929089,
			"0.013": 2.24125056178,
			"0.014": 3.32206263132,
			"0.015": 2.71675867203,
			"0.016": 0.404859932576,
			"0.017": 0.0139649490374,
			"0.018": 0.0,
			"0.019": 0.0,
			"0.02": 0.0,
			"0.021": 0.0,
			"0.022": 0.0,
			"0.023": 0.0,
			"0.024": 0.0,
			"0.025": 0.0
		}
	}
}
