{
	 "smiles": "OC(=O)C1=CC=CC=C1N=NC1SC(=S)N(C1=O)C1=CC=CC=C1", 
	 "Tm": 472.15, 
	 "num_atms": 35, 
	 "gaussian": { 
		 "optdone": 1, 
		 "sigma_profile": "yes", 
		 "theory": "DFT", 
		 "functional": "B3LYP", 
		 "basiset": "6-31G**", 
		 "properties": { 
			 "R2extent": 12078.0541, 
			 "electric_dipole_moment_norm": 3.14309806083, 
			 "electric_quadrupole_moment_norm": 24.4437971762, 
			 "total_energy": -1802.59596739, 
			 "HOMO_LUMO_gap": 0.13907, 
			 "cosmo_polarized_energy": -20.63, 
			 "cosmo_cavitation_energy": 45.73, 
			 "cosmo_dispersion_energy": -31.87, 
			 "cosmo_repulsion_energy": 2.37, 
			 "cosmo_total_nonelectrostatic_energy": 16.23, 
			 "SMD_solvation_energy": 6.39 
		},
		"coords": [
			{
				"x": 5.542700404,
				"y": 2.1728506143,
				"z": -0.0296072181,
				"element": "O" 
			},
			{
				"x": 4.24816504,
				"y": 1.7768651372,
				"z": -0.1531048457,
				"element": "C" 
			},
			{
				"x": 3.803982814,
				"y": 1.3451017383,
				"z": -1.1951577614,
				"element": "O" 
			},
			{
				"x": 3.4824879917,
				"y": 1.963076045,
				"z": 1.1124929684,
				"element": "C" 
			},
			{
				"x": 3.929641122,
				"y": 2.8735897507,
				"z": 2.0784798901,
				"element": "C" 
			},
			{
				"x": 3.1881812076,
				"y": 3.1089198657,
				"z": 3.2349170843,
				"element": "C" 
			},
			{
				"x": 1.9863874897,
				"y": 2.4281752019,
				"z": 3.4423146751,
				"element": "C" 
			},
			{
				"x": 1.5296076634,
				"y": 1.5148154337,
				"z": 2.496198018,
				"element": "C" 
			},
			{
				"x": 2.2668869577,
				"y": 1.277702163,
				"z": 1.3295395812,
				"element": "C" 
			},
			{
				"x": 1.8763901896,
				"y": 0.2613676589,
				"z": 0.4118133475,
				"element": "N" 
			},
			{
				"x": 0.6394344713,
				"y": 0.1249811565,
				"z": 0.2959791229,
				"element": "N" 
			},
			{
				"x": 0.3152403982,
				"y": -1.0108980053,
				"z": -0.5815753638,
				"element": "C" 
			},
			{
				"x": -0.3493967978,
				"y": -2.3905696409,
				"z": 0.4250904536,
				"element": "S" 
			},
			{
				"x": -1.9617903291,
				"y": -2.3005784508,
				"z": -0.3064083721,
				"element": "C" 
			},
			{
				"x": -3.1934992142,
				"y": -3.276312383,
				"z": 0.1675566776,
				"element": "S" 
			},
			{
				"x": -1.9916158481,
				"y": -1.3307468502,
				"z": -1.2977707949,
				"element": "N" 
			},
			{
				"x": -0.8165633129,
				"y": -0.5928729715,
				"z": -1.5294734425,
				"element": "C" 
			},
			{
				"x": -0.7081570682,
				"y": 0.2755330169,
				"z": -2.3599121619,
				"element": "O" 
			},
			{
				"x": -3.1729139045,
				"y": -1.0493129219,
				"z": -2.0770708149,
				"element": "C" 
			},
			{
				"x": -3.5520194039,
				"y": -1.9239779107,
				"z": -3.0949208506,
				"element": "C" 
			},
			{
				"x": -4.6824009579,
				"y": -1.6320996447,
				"z": -3.8570513002,
				"element": "C" 
			},
			{
				"x": -5.4185838062,
				"y": -0.4726824058,
				"z": -3.6039967488,
				"element": "C" 
			},
			{
				"x": -5.0258250228,
				"y": 0.3982892127,
				"z": -2.5861002582,
				"element": "C" 
			},
			{
				"x": -3.8988827364,
				"y": 0.1119996729,
				"z": -1.8159571616,
				"element": "C" 
			},
			{
				"x": 5.9374879248,
				"y": 2.0490752478,
				"z": -0.9085449048,
				"element": "H" 
			},
			{
				"x": 4.8601107627,
				"y": 3.4017010537,
				"z": 1.9070317177,
				"element": "H" 
			},
			{
				"x": 3.5493487536,
				"y": 3.8181729588,
				"z": 3.9731152139,
				"element": "H" 
			},
			{
				"x": 1.4084612236,
				"y": 2.6023004167,
				"z": 4.3450765979,
				"element": "H" 
			},
			{
				"x": 0.6127720582,
				"y": 0.956460257,
				"z": 2.6474552577,
				"element": "H" 
			},
			{
				"x": 1.1932571957,
				"y": -1.3273472942,
				"z": -1.152995219,
				"element": "H" 
			},
			{
				"x": -2.9702995743,
				"y": -2.8204637345,
				"z": -3.2807329211,
				"element": "H" 
			},
			{
				"x": -4.9856030543,
				"y": -2.3097634119,
				"z": -4.6491168982,
				"element": "H" 
			},
			{
				"x": -6.2972997151,
				"y": -0.2476172236,
				"z": -4.2010176601,
				"element": "H" 
			},
			{
				"x": -5.5951994305,
				"y": 1.3014769699,
				"z": -2.3896571055,
				"element": "H" 
			},
			{
				"x": -3.5809934917,
				"y": 0.7795892772,
				"z": -1.0220888023,
				"element": "H" 
			}
		],
		 "valence_orbital": [ 
			{
				"type": "occ",
				"energy": -0.26339,
				"method": "rhf"
			},
			{
				"type": "occ",
				"energy": -0.2617,
				"method": "rhf"
			},
			{
				"type": "occ",
				"energy": -0.24951,
				"method": "rhf"
			},
			{
				"type": "occ",
				"energy": -0.24348,
				"method": "rhf"
			},
			{
				"type": "occ",
				"energy": -0.22931,
				"method": "rhf"
			},
			{
				"type": "unocc",
				"energy": -0.09024,
				"method": "rhf"
			},
			{
				"type": "unocc",
				"energy": -0.07064,
				"method": "rhf"
			},
			{
				"type": "unocc",
				"energy": -0.04999,
				"method": "rhf"
			},
			{
				"type": "unocc",
				"energy": -0.02584,
				"method": "rhf"
			},
			{
				"type": "unocc",
				"energy": -0.0128,
				"method": "rhf"
			}
		],
		"cosmo_sigma_profile": { 
			"-0.025": 0.0,
			"-0.024": 0.0,
			"-0.023": 0.0,
			"-0.022": 0.0,
			"-0.021": 0.0,
			"-0.02": 0.0,
			"-0.019": 0.137924961825,
			"-0.018": 0.847511819057,
			"-0.017": 0.972670432875,
			"-0.016": 0.579131198319,
			"-0.015": 1.13593927902,
			"-0.014": 0.801635822601,
			"-0.013": 0.229706508308,
			"-0.012": 0.582605884582,
			"-0.011": 1.48881728985,
			"-0.01": 3.36702485665,
			"-0.009": 2.58556217047,
			"-0.008": 5.56894864709,
			"-0.007": 19.1793998305,
			"-0.006": 24.6135086243,
			"-0.005": 24.4835390592,
			"-0.004": 20.0740095617,
			"-0.003": 18.3444444193,
			"-0.002": 19.1156905852,
			"-0.001": 19.6475838841,
			"0.0": 28.4746737915,
			"0.001": 29.707489014,
			"0.002": 33.1233281612,
			"0.003": 24.1173785879,
			"0.004": 22.8098407164,
			"0.005": 16.9141502083,
			"0.006": 11.1167319932,
			"0.007": 10.2350738051,
			"0.008": 8.66651679702,
			"0.009": 8.03083840599,
			"0.01": 7.44268873848,
			"0.011": 6.15624871964,
			"0.012": 2.7036935577,
			"0.013": 0.00373474455902,
			"0.014": 0.0,
			"0.015": 0.0,
			"0.016": 0.0,
			"0.017": 0.0,
			"0.018": 0.0,
			"0.019": 0.0,
			"0.02": 0.0,
			"0.021": 0.0,
			"0.022": 0.0,
			"0.023": 0.0,
			"0.024": 0.0,
			"0.025": 0.0
		}
	}
}
