{
	 "smiles": "NP(=O)(OC1=CC=CC=C1)OC1=CC=CC=C1", 
	 "Tm": 422.15, 
	 "num_atms": 29, 
	 "gaussian": { 
		 "optdone": 1, 
		 "sigma_profile": "yes", 
		 "theory": "DFT", 
		 "functional": "B3LYP", 
		 "basiset": "6-31G**", 
		 "properties": { 
			 "R2extent": 6097.1566, 
			 "electric_dipole_moment_norm": 3.52575669183, 
			 "electric_quadrupole_moment_norm": 10.5544017073, 
			 "total_energy": -1086.35618066, 
			 "HOMO_LUMO_gap": 0.22761, 
			 "cosmo_polarized_energy": -15.42, 
			 "cosmo_cavitation_energy": 35.35, 
			 "cosmo_dispersion_energy": -25.49, 
			 "cosmo_repulsion_energy": 1.97, 
			 "cosmo_total_nonelectrostatic_energy": 11.84, 
			 "SMD_solvation_energy": 8.07 
		},
		"coords": [
			{
				"x": 0.4735832409,
				"y": 1.3503969307,
				"z": -1.7769018713,
				"element": "N" 
			},
			{
				"x": 0.0208206925,
				"y": 0.3656557933,
				"z": -0.5166848167,
				"element": "P" 
			},
			{
				"x": 1.1242296945,
				"y": -0.5158502595,
				"z": -0.0716420255,
				"element": "O" 
			},
			{
				"x": -0.6642958122,
				"y": 1.3506694961,
				"z": 0.5691855308,
				"element": "O" 
			},
			{
				"x": 0.059510164,
				"y": 2.2750042007,
				"z": 1.326222148,
				"element": "C" 
			},
			{
				"x": 1.271858378,
				"y": 1.9506319549,
				"z": 1.9366500148,
				"element": "C" 
			},
			{
				"x": 1.9062755636,
				"y": 2.917102444,
				"z": 2.719759977,
				"element": "C" 
			},
			{
				"x": 1.3360423824,
				"y": 4.1783214965,
				"z": 2.9007112008,
				"element": "C" 
			},
			{
				"x": 0.1164400177,
				"y": 4.4788307433,
				"z": 2.290115291,
				"element": "C" 
			},
			{
				"x": -0.526680402,
				"y": 3.5283217095,
				"z": 1.4976034331,
				"element": "C" 
			},
			{
				"x": -1.3912818663,
				"y": -0.3468771691,
				"z": -0.902664245,
				"element": "O" 
			},
			{
				"x": -1.4893262403,
				"y": -1.3418842086,
				"z": -1.8753244989,
				"element": "C" 
			},
			{
				"x": -0.5961996624,
				"y": -2.4136879392,
				"z": -1.937781917,
				"element": "C" 
			},
			{
				"x": -0.790229712,
				"y": -3.3920330366,
				"z": -2.9152560908,
				"element": "C" 
			},
			{
				"x": -1.8614880962,
				"y": -3.3103698434,
				"z": -3.8066358987,
				"element": "C" 
			},
			{
				"x": -2.7509217442,
				"y": -2.2369099007,
				"z": -3.7207114471,
				"element": "C" 
			},
			{
				"x": -2.5670904908,
				"y": -1.2463419743,
				"z": -2.7561504485,
				"element": "C" 
			},
			{
				"x": -0.2286160299,
				"y": 1.8598820915,
				"z": -2.2956495786,
				"element": "H" 
			},
			{
				"x": 1.2628312639,
				"y": 1.0387616894,
				"z": -2.3248286342,
				"element": "H" 
			},
			{
				"x": 1.6999847652,
				"y": 0.964892713,
				"z": 1.7964980196,
				"element": "H" 
			},
			{
				"x": 2.8517098339,
				"y": 2.67411331,
				"z": 3.196074801,
				"element": "H" 
			},
			{
				"x": 1.8358158066,
				"y": 4.9204587093,
				"z": 3.5158188659,
				"element": "H" 
			},
			{
				"x": -0.3380177318,
				"y": 5.4556360411,
				"z": 2.4279885484,
				"element": "H" 
			},
			{
				"x": -1.4758425714,
				"y": 3.7387018648,
				"z": 1.0160068081,
				"element": "H" 
			},
			{
				"x": 0.224576871,
				"y": -2.4720207096,
				"z": -1.2323356919,
				"element": "H" 
			},
			{
				"x": -0.0988729559,
				"y": -4.2279310022,
				"z": -2.9710672544,
				"element": "H" 
			},
			{
				"x": -2.005655912,
				"y": -4.0795807302,
				"z": -4.5592140942,
				"element": "H" 
			},
			{
				"x": -3.591171173,
				"y": -2.1670605087,
				"z": -4.4054058172,
				"element": "H" 
			},
			{
				"x": -3.248788274,
				"y": -0.4067339059,
				"z": -2.6677803086,
				"element": "H" 
			}
		],
		 "valence_orbital": [ 
			{
				"type": "occ",
				"energy": -0.28096,
				"method": "rhf"
			},
			{
				"type": "occ",
				"energy": -0.25652,
				"method": "rhf"
			},
			{
				"type": "occ",
				"energy": -0.2526,
				"method": "rhf"
			},
			{
				"type": "occ",
				"energy": -0.24266,
				"method": "rhf"
			},
			{
				"type": "occ",
				"energy": -0.23592,
				"method": "rhf"
			},
			{
				"type": "unocc",
				"energy": -0.00831,
				"method": "rhf"
			},
			{
				"type": "unocc",
				"energy": -0.00406,
				"method": "rhf"
			},
			{
				"type": "unocc",
				"energy": -0.00287,
				"method": "rhf"
			},
			{
				"type": "unocc",
				"energy": 0.00479,
				"method": "rhf"
			},
			{
				"type": "unocc",
				"energy": 0.05638,
				"method": "rhf"
			}
		],
		"cosmo_sigma_profile": { 
			"-0.025": 0.0,
			"-0.024": 0.0,
			"-0.023": 0.0,
			"-0.022": 0.0,
			"-0.021": 0.0,
			"-0.02": 0.0,
			"-0.019": 0.0,
			"-0.018": 0.0,
			"-0.017": 0.0,
			"-0.016": 0.0,
			"-0.015": 0.500284455807,
			"-0.014": 2.59026309532,
			"-0.013": 2.55079520849,
			"-0.012": 1.85815409317,
			"-0.011": 2.32863885458,
			"-0.01": 2.67569159024,
			"-0.009": 1.49148976379,
			"-0.008": 1.82967067808,
			"-0.007": 4.40530416716,
			"-0.006": 15.6232713736,
			"-0.005": 20.3825234472,
			"-0.004": 23.1932589284,
			"-0.003": 16.7541607523,
			"-0.002": 16.7971713561,
			"-0.001": 13.0662637776,
			"0.0": 16.1299960147,
			"0.001": 18.0554242838,
			"0.002": 21.3789557652,
			"0.003": 25.1420995687,
			"0.004": 26.0428239455,
			"0.005": 20.5878227551,
			"0.006": 4.77259292897,
			"0.007": 3.65712220543,
			"0.008": 3.39212921948,
			"0.009": 4.58447040016,
			"0.01": 2.61182816323,
			"0.011": 1.30875833861,
			"0.012": 1.38425194828,
			"0.013": 3.17126154674,
			"0.014": 2.38752862624,
			"0.015": 0.0414594910625,
			"0.016": 0.0,
			"0.017": 0.0,
			"0.018": 0.0,
			"0.019": 0.0,
			"0.02": 0.0,
			"0.021": 0.0,
			"0.022": 0.0,
			"0.023": 0.0,
			"0.024": 0.0,
			"0.025": 0.0
		}
	}
}
