{
	 "smiles": "O=C1N(C2=CN(CC3=CC=CC=C3)N=C2)C(=O)C2=C1C=CC=C2", 
	 "Tm": 423.15, 
	 "num_atms": 36, 
	 "gaussian": { 
		 "optdone": 1, 
		 "sigma_profile": "yes", 
		 "theory": "DFT", 
		 "functional": "B3LYP", 
		 "basiset": "6-31G**", 
		 "properties": { 
			 "R2extent": 9925.8019, 
			 "electric_dipole_moment_norm": 3.47351034546, 
			 "electric_quadrupole_moment_norm": 27.5366413337, 
			 "total_energy": -1008.46036944, 
			 "HOMO_LUMO_gap": 0.13429, 
			 "cosmo_polarized_energy": -14.41, 
			 "cosmo_cavitation_energy": 41.59, 
			 "cosmo_dispersion_energy": -29.66, 
			 "cosmo_repulsion_energy": 2.19, 
			 "cosmo_total_nonelectrostatic_energy": 14.12, 
			 "SMD_solvation_energy": 7.49 
		},
		"coords": [
			{
				"x": 1.2546285367,
				"y": 3.1864478107,
				"z": 1.5379454302,
				"element": "O" 
			},
			{
				"x": 0.4234713557,
				"y": 2.912912379,
				"z": 0.696542823,
				"element": "C" 
			},
			{
				"x": -0.1184013077,
				"y": 1.6274781743,
				"z": 0.4537734279,
				"element": "N" 
			},
			{
				"x": 0.2377129962,
				"y": 0.4637579914,
				"z": 1.1643336196,
				"element": "C" 
			},
			{
				"x": -0.2521945444,
				"y": -0.8193048982,
				"z": 0.9608759676,
				"element": "C" 
			},
			{
				"x": 0.3571891227,
				"y": -1.6016857252,
				"z": 1.8887257991,
				"element": "N" 
			},
			{
				"x": 0.2490023342,
				"y": -3.0493037318,
				"z": 2.0357314146,
				"element": "C" 
			},
			{
				"x": 1.1460038312,
				"y": -3.8305568486,
				"z": 1.0916577384,
				"element": "C" 
			},
			{
				"x": 2.5237992963,
				"y": -3.5762699724,
				"z": 1.0494520161,
				"element": "C" 
			},
			{
				"x": 3.3477998782,
				"y": -4.3096137802,
				"z": 0.197481975,
				"element": "C" 
			},
			{
				"x": 2.8075712087,
				"y": -5.3084368576,
				"z": -0.6179197903,
				"element": "C" 
			},
			{
				"x": 1.4377804603,
				"y": -5.567447741,
				"z": -0.5791855683,
				"element": "C" 
			},
			{
				"x": 0.6114185404,
				"y": -4.8280906317,
				"z": 0.270746087,
				"element": "C" 
			},
			{
				"x": 1.2183392903,
				"y": -0.9138886414,
				"z": 2.6693156404,
				"element": "N" 
			},
			{
				"x": 1.1521060602,
				"y": 0.3455687313,
				"z": 2.2411249824,
				"element": "C" 
			},
			{
				"x": -1.0635857771,
				"y": 1.6576914401,
				"z": -0.5971186979,
				"element": "C" 
			},
			{
				"x": -1.6843817081,
				"y": 0.7010171678,
				"z": -1.0176306277,
				"element": "O" 
			},
			{
				"x": -1.1235103927,
				"y": 3.073799856,
				"z": -1.0537286229,
				"element": "C" 
			},
			{
				"x": -0.2361020079,
				"y": 3.82294242,
				"z": -0.2817244128,
				"element": "C" 
			},
			{
				"x": -0.0736313369,
				"y": 5.1861204439,
				"z": -0.4782599128,
				"element": "C" 
			},
			{
				"x": -0.8392671864,
				"y": 5.7860848106,
				"z": -1.4878651057,
				"element": "C" 
			},
			{
				"x": -1.7305428809,
				"y": 5.0337371682,
				"z": -2.263248501,
				"element": "C" 
			},
			{
				"x": -1.8861847766,
				"y": 3.6561256124,
				"z": -2.0551721922,
				"element": "C" 
			},
			{
				"x": -0.964127747,
				"y": -1.1973826883,
				"z": 0.2473898847,
				"element": "H" 
			},
			{
				"x": -0.7972880539,
				"y": -3.3306513867,
				"z": 1.884361128,
				"element": "H" 
			},
			{
				"x": 0.5051286314,
				"y": -3.2566009362,
				"z": 3.078356285,
				"element": "H" 
			},
			{
				"x": 2.9389000979,
				"y": -2.7967495673,
				"z": 1.6820056398,
				"element": "H" 
			},
			{
				"x": 4.4141212486,
				"y": -4.1037030849,
				"z": 0.1704513025,
				"element": "H" 
			},
			{
				"x": 3.45209867,
				"y": -5.8795296873,
				"z": -1.2800311909,
				"element": "H" 
			},
			{
				"x": 1.0093862988,
				"y": -6.3391751443,
				"z": -1.2124098684,
				"element": "H" 
			},
			{
				"x": -0.4570738175,
				"y": -5.0299035698,
				"z": 0.2948851654,
				"element": "H" 
			},
			{
				"x": 1.7376063141,
				"y": 1.1222794941,
				"z": 2.7050887251,
				"element": "H" 
			},
			{
				"x": 0.620195241,
				"y": 5.7579528982,
				"z": 0.1292197286,
				"element": "H" 
			},
			{
				"x": -0.7410802136,
				"y": 6.8514801184,
				"z": -1.6732635935,
				"element": "H" 
			},
			{
				"x": -2.309606062,
				"y": 5.5274224145,
				"z": -3.0378779068,
				"element": "H" 
			},
			{
				"x": -2.5732816004,
				"y": 3.0625759621,
				"z": -2.6493287889,
				"element": "H" 
			}
		],
		 "valence_orbital": [ 
			{
				"type": "occ",
				"energy": -0.27178,
				"method": "rhf"
			},
			{
				"type": "occ",
				"energy": -0.25373,
				"method": "rhf"
			},
			{
				"type": "occ",
				"energy": -0.25107,
				"method": "rhf"
			},
			{
				"type": "occ",
				"energy": -0.24261,
				"method": "rhf"
			},
			{
				"type": "occ",
				"energy": -0.21961,
				"method": "rhf"
			},
			{
				"type": "unocc",
				"energy": -0.08532,
				"method": "rhf"
			},
			{
				"type": "unocc",
				"energy": -0.04553,
				"method": "rhf"
			},
			{
				"type": "unocc",
				"energy": -0.00764,
				"method": "rhf"
			},
			{
				"type": "unocc",
				"energy": -0.00186,
				"method": "rhf"
			},
			{
				"type": "unocc",
				"energy": 0.01973,
				"method": "rhf"
			}
		],
		"cosmo_sigma_profile": { 
			"-0.025": 0.0,
			"-0.024": 0.0,
			"-0.023": 0.0,
			"-0.022": 0.0,
			"-0.021": 0.0,
			"-0.02": 0.0,
			"-0.019": 0.0,
			"-0.018": 0.0,
			"-0.017": 0.0,
			"-0.016": 0.0,
			"-0.015": 0.0,
			"-0.014": 0.0,
			"-0.013": 0.0,
			"-0.012": 0.0,
			"-0.011": 0.0,
			"-0.01": 0.0,
			"-0.009": 0.315343583656,
			"-0.008": 4.45248199381,
			"-0.007": 15.5322403388,
			"-0.006": 21.0912456196,
			"-0.005": 25.5073521542,
			"-0.004": 24.9973257596,
			"-0.003": 23.4223045048,
			"-0.002": 22.2918280793,
			"-0.001": 23.7499900817,
			"0.0": 22.4836862099,
			"0.001": 27.5454307446,
			"0.002": 31.1770308398,
			"0.003": 22.1335355578,
			"0.004": 16.4151814001,
			"0.005": 15.0366492609,
			"0.006": 9.43821335372,
			"0.007": 5.0020960447,
			"0.008": 4.76019055496,
			"0.009": 4.86580586762,
			"0.01": 6.40585921125,
			"0.011": 5.04056921957,
			"0.012": 1.90340293367,
			"0.013": 0.552959050427,
			"0.014": 0.826230964119,
			"0.015": 0.482339002027,
			"0.016": 0.0435664305295,
			"0.017": 0.0,
			"0.018": 0.0,
			"0.019": 0.0,
			"0.02": 0.0,
			"0.021": 0.0,
			"0.022": 0.0,
			"0.023": 0.0,
			"0.024": 0.0,
			"0.025": 0.0
		}
	}
}
