{
	 "smiles": "NC(=O)C1=NN=C(Cl)C=C1", 
	 "Tm": 513.15, 
	 "num_atms": 14, 
	 "gaussian": { 
		 "optdone": 1, 
		 "sigma_profile": "yes", 
		 "theory": "DFT", 
		 "functional": "B3LYP", 
		 "basiset": "6-31G**", 
		 "properties": { 
			 "R2extent": 3165.1866, 
			 "electric_dipole_moment_norm": 6.58752033925, 
			 "electric_quadrupole_moment_norm": 22.4583107895, 
			 "total_energy": -892.572696995, 
			 "HOMO_LUMO_gap": 0.18006, 
			 "cosmo_polarized_energy": -22.39, 
			 "cosmo_cavitation_energy": 21.46, 
			 "cosmo_dispersion_energy": -16.07, 
			 "cosmo_repulsion_energy": 1.33, 
			 "cosmo_total_nonelectrostatic_energy": 6.72, 
			 "SMD_solvation_energy": 2.73 
		},
		"coords": [
			{
				"x": -1.4774114196,
				"y": -1.2539262692,
				"z": 2.1715212844,
				"element": "N" 
			},
			{
				"x": -0.4561274935,
				"y": -0.623246916,
				"z": 2.8468080178,
				"element": "C" 
			},
			{
				"x": -0.4481628625,
				"y": -0.4678853617,
				"z": 4.0528109321,
				"element": "O" 
			},
			{
				"x": 0.6309088368,
				"y": -0.0658945764,
				"z": 1.9496505763,
				"element": "C" 
			},
			{
				"x": 1.8759551294,
				"y": -0.1715717364,
				"z": 2.4284159425,
				"element": "N" 
			},
			{
				"x": 2.8977711442,
				"y": 0.3184069999,
				"z": 1.7290169373,
				"element": "N" 
			},
			{
				"x": 2.6619946206,
				"y": 0.9241119934,
				"z": 0.5718889475,
				"element": "C" 
			},
			{
				"x": 4.0616347367,
				"y": 1.5481647674,
				"z": -0.2673065825,
				"element": "Cl" 
			},
			{
				"x": 1.3927107764,
				"y": 1.0842383609,
				"z": 0.0049150038,
				"element": "C" 
			},
			{
				"x": 0.3376306177,
				"y": 0.558156069,
				"z": 0.7259525746,
				"element": "C" 
			},
			{
				"x": -1.305720229,
				"y": -1.6680541188,
				"z": 1.2670935629,
				"element": "H" 
			},
			{
				"x": -2.1584767571,
				"y": -1.7181016049,
				"z": 2.7572025574,
				"element": "H" 
			},
			{
				"x": 1.260345062,
				"y": 1.5963746191,
				"z": -0.9410640892,
				"element": "H" 
			},
			{
				"x": -0.6862521621,
				"y": 0.6414277736,
				"z": 0.375894335,
				"element": "H" 
			}
		],
		 "valence_orbital": [ 
			{
				"type": "occ",
				"energy": -0.33018,
				"method": "rhf"
			},
			{
				"type": "occ",
				"energy": -0.29194,
				"method": "rhf"
			},
			{
				"type": "occ",
				"energy": -0.29124,
				"method": "rhf"
			},
			{
				"type": "occ",
				"energy": -0.26489,
				"method": "rhf"
			},
			{
				"type": "occ",
				"energy": -0.25553,
				"method": "rhf"
			},
			{
				"type": "unocc",
				"energy": -0.07547,
				"method": "rhf"
			},
			{
				"type": "unocc",
				"energy": -0.06459,
				"method": "rhf"
			},
			{
				"type": "unocc",
				"energy": 0.01411,
				"method": "rhf"
			},
			{
				"type": "unocc",
				"energy": 0.02307,
				"method": "rhf"
			},
			{
				"type": "unocc",
				"energy": 0.06764,
				"method": "rhf"
			}
		],
		"cosmo_sigma_profile": { 
			"-0.025": 0.0,
			"-0.024": 0.0,
			"-0.023": 0.0,
			"-0.022": 0.0,
			"-0.021": 0.0,
			"-0.02": 0.0,
			"-0.019": 0.0,
			"-0.018": 0.0,
			"-0.017": 0.0,
			"-0.016": 0.0373057320486,
			"-0.015": 1.05941529203,
			"-0.014": 2.90336950892,
			"-0.013": 2.72555068673,
			"-0.012": 3.04044599435,
			"-0.011": 2.75488827584,
			"-0.01": 5.23514268114,
			"-0.009": 7.43350030086,
			"-0.008": 5.61248984565,
			"-0.007": 5.03747925068,
			"-0.006": 5.3565104164,
			"-0.005": 6.32800125249,
			"-0.004": 10.0625970666,
			"-0.003": 13.899347356,
			"-0.002": 10.9955588843,
			"-0.001": 7.05654448272,
			"0.0": 7.31862427395,
			"0.001": 6.89091674708,
			"0.002": 9.2332273899,
			"0.003": 11.1813824927,
			"0.004": 7.13739776378,
			"0.005": 3.66955972319,
			"0.006": 3.51157213985,
			"0.007": 3.29700426604,
			"0.008": 3.30872224941,
			"0.009": 3.12226753805,
			"0.01": 3.62135116277,
			"0.011": 4.20644862766,
			"0.012": 7.45374729065,
			"0.013": 6.83603622301,
			"0.014": 3.64894269675,
			"0.015": 0.952757431363,
			"0.016": 0.0,
			"0.017": 0.0,
			"0.018": 0.0,
			"0.019": 0.0,
			"0.02": 0.0,
			"0.021": 0.0,
			"0.022": 0.0,
			"0.023": 0.0,
			"0.024": 0.0,
			"0.025": 0.0
		}
	}
}
