{
	 "smiles": "CC12CCC3C(CCC4=C(Cl)C(=O)CCC34C)C1CCC2O", 
	 "Tm": 462.15, 
	 "num_atms": 49, 
	 "gaussian": { 
		 "optdone": 1, 
		 "sigma_profile": "yes", 
		 "theory": "DFT", 
		 "functional": "B3LYP", 
		 "basiset": "6-31G**", 
		 "properties": { 
			 "R2extent": 8701.1195, 
			 "electric_dipole_moment_norm": 6.78533336101, 
			 "electric_quadrupole_moment_norm": 30.9719351042, 
			 "total_energy": -1350.92424777, 
			 "HOMO_LUMO_gap": 0.19117, 
			 "cosmo_polarized_energy": -14.23, 
			 "cosmo_cavitation_energy": 43.23, 
			 "cosmo_dispersion_energy": -31.11, 
			 "cosmo_repulsion_energy": 2.3, 
			 "cosmo_total_nonelectrostatic_energy": 14.41, 
			 "SMD_solvation_energy": 6.38 
		},
		"coords": [
			{
				"x": 1.8391412269,
				"y": -2.7361311699,
				"z": -0.3797627991,
				"element": "C" 
			},
			{
				"x": 1.1958143227,
				"y": -1.3603173025,
				"z": -0.662321878,
				"element": "C" 
			},
			{
				"x": -0.3427463485,
				"y": -1.5110955317,
				"z": -0.7179210537,
				"element": "C" 
			},
			{
				"x": -0.9635080948,
				"y": -1.3557005565,
				"z": 0.6777382518,
				"element": "C" 
			},
			{
				"x": -0.7435232259,
				"y": 0.0474595166,
				"z": 1.3104956689,
				"element": "C" 
			},
			{
				"x": 0.5945228643,
				"y": 0.7194877415,
				"z": 0.8358907963,
				"element": "C" 
			},
			{
				"x": 0.3728692479,
				"y": 1.8305421222,
				"z": -0.2073701084,
				"element": "C" 
			},
			{
				"x": -0.5387460503,
				"y": 2.9461263749,
				"z": 0.3650983388,
				"element": "C" 
			},
			{
				"x": -1.4844606104,
				"y": 2.4305504928,
				"z": 1.4256178985,
				"element": "C" 
			},
			{
				"x": -1.826349395,
				"y": 3.1517547694,
				"z": 2.5180020399,
				"element": "C" 
			},
			{
				"x": -1.3274916496,
				"y": 4.8327089002,
				"z": 2.7038376273,
				"element": "Cl" 
			},
			{
				"x": -2.5681573759,
				"y": 2.6087248912,
				"z": 3.6890803742,
				"element": "C" 
			},
			{
				"x": -2.9205465047,
				"y": 3.2967173465,
				"z": 4.6296863144,
				"element": "O" 
			},
			{
				"x": -2.7764704,
				"y": 1.1036793417,
				"z": 3.6581065294,
				"element": "C" 
			},
			{
				"x": -3.0701685595,
				"y": 0.6128520994,
				"z": 2.2417847803,
				"element": "C" 
			},
			{
				"x": -1.9937931389,
				"y": 1.007710022,
				"z": 1.2002306334,
				"element": "C" 
			},
			{
				"x": -2.6973089334,
				"y": 0.962550939,
				"z": -0.184676361,
				"element": "C" 
			},
			{
				"x": 1.6336613383,
				"y": -0.3679384162,
				"z": 0.4672951234,
				"element": "C" 
			},
			{
				"x": 3.009123947,
				"y": 0.1646668186,
				"z": 0.0031170999,
				"element": "C" 
			},
			{
				"x": 2.9972620213,
				"y": 0.1303322059,
				"z": -1.5434092107,
				"element": "C" 
			},
			{
				"x": 1.8340013344,
				"y": -0.8047421691,
				"z": -1.9797097824,
				"element": "C" 
			},
			{
				"x": 0.8523888212,
				"y": -0.1110350714,
				"z": -2.7570522477,
				"element": "O" 
			},
			{
				"x": 1.4570080853,
				"y": -3.1636484263,
				"z": 0.5534106474,
				"element": "H" 
			},
			{
				"x": 1.6174646549,
				"y": -3.4430167442,
				"z": -1.1868381907,
				"element": "H" 
			},
			{
				"x": 2.9290515428,
				"y": -2.6688857171,
				"z": -0.2865589979,
				"element": "H" 
			},
			{
				"x": -0.765555519,
				"y": -0.7746591989,
				"z": -1.4017017228,
				"element": "H" 
			},
			{
				"x": -0.6036711719,
				"y": -2.493376309,
				"z": -1.131158363,
				"element": "H" 
			},
			{
				"x": -2.0313106638,
				"y": -1.5953584246,
				"z": 0.6380987245,
				"element": "H" 
			},
			{
				"x": -0.5265775998,
				"y": -2.1091978055,
				"z": 1.3448808202,
				"element": "H" 
			},
			{
				"x": -0.616787405,
				"y": -0.119972899,
				"z": 2.3869407922,
				"element": "H" 
			},
			{
				"x": 1.0111443336,
				"y": 1.232226278,
				"z": 1.7152978716,
				"element": "H" 
			},
			{
				"x": -0.0165617753,
				"y": 1.4224480395,
				"z": -1.140736452,
				"element": "H" 
			},
			{
				"x": 1.3354553398,
				"y": 2.2844465493,
				"z": -0.4655963525,
				"element": "H" 
			},
			{
				"x": -1.1141526333,
				"y": 3.4178229111,
				"z": -0.4430833959,
				"element": "H" 
			},
			{
				"x": 0.068877273,
				"y": 3.7427845138,
				"z": 0.7999627576,
				"element": "H" 
			},
			{
				"x": -3.5859706771,
				"y": 0.8606202839,
				"z": 4.3514792953,
				"element": "H" 
			},
			{
				"x": -1.8638215145,
				"y": 0.6399581652,
				"z": 4.0571778552,
				"element": "H" 
			},
			{
				"x": -4.0313671512,
				"y": 1.0375994682,
				"z": 1.9267508131,
				"element": "H" 
			},
			{
				"x": -3.2007347656,
				"y": -0.475127717,
				"z": 2.2343212457,
				"element": "H" 
			},
			{
				"x": -3.4885214456,
				"y": 1.7186545063,
				"z": -0.2179366383,
				"element": "H" 
			},
			{
				"x": -3.1719616378,
				"y": -0.0109739288,
				"z": -0.33713503,
				"element": "H" 
			},
			{
				"x": -2.0279314077,
				"y": 1.1403733435,
				"z": -1.0255043455,
				"element": "H" 
			},
			{
				"x": 1.7743079183,
				"y": -0.9465476821,
				"z": 1.3898243517,
				"element": "H" 
			},
			{
				"x": 3.8001189627,
				"y": -0.4897826942,
				"z": 0.3838449784,
				"element": "H" 
			},
			{
				"x": 3.2242978389,
				"y": 1.1640358207,
				"z": 0.3959521797,
				"element": "H" 
			},
			{
				"x": 3.9601034601,
				"y": -0.1990497175,
				"z": -1.9474106165,
				"element": "H" 
			},
			{
				"x": 2.8022207583,
				"y": 1.1262729399,
				"z": -1.9552394678,
				"element": "H" 
			},
			{
				"x": 2.2136620922,
				"y": -1.6451870361,
				"z": -2.5788140773,
				"element": "H" 
			},
			{
				"x": 1.2967982706,
				"y": 0.2416381164,
				"z": -3.5381867183,
				"element": "H" 
			}
		],
		 "valence_orbital": [ 
			{
				"type": "occ",
				"energy": -0.2888,
				"method": "rhf"
			},
			{
				"type": "occ",
				"energy": -0.2851,
				"method": "rhf"
			},
			{
				"type": "occ",
				"energy": -0.27033,
				"method": "rhf"
			},
			{
				"type": "occ",
				"energy": -0.24151,
				"method": "rhf"
			},
			{
				"type": "occ",
				"energy": -0.23975,
				"method": "rhf"
			},
			{
				"type": "unocc",
				"energy": -0.04858,
				"method": "rhf"
			},
			{
				"type": "unocc",
				"energy": 0.04386,
				"method": "rhf"
			},
			{
				"type": "unocc",
				"energy": 0.0539,
				"method": "rhf"
			},
			{
				"type": "unocc",
				"energy": 0.05965,
				"method": "rhf"
			},
			{
				"type": "unocc",
				"energy": 0.07223,
				"method": "rhf"
			}
		],
		"cosmo_sigma_profile": { 
			"-0.025": 0.0,
			"-0.024": 0.0,
			"-0.023": 0.0,
			"-0.022": 0.0,
			"-0.021": 0.0,
			"-0.02": 0.0,
			"-0.019": 0.0,
			"-0.018": 0.0,
			"-0.017": 0.0,
			"-0.016": 0.0,
			"-0.015": 0.615514965171,
			"-0.014": 1.07549317666,
			"-0.013": 0.806563873235,
			"-0.012": 0.830919223612,
			"-0.011": 1.003000284,
			"-0.01": 0.744194060365,
			"-0.009": 0.672418210928,
			"-0.008": 1.15121964588,
			"-0.007": 1.22981418974,
			"-0.006": 2.40112237879,
			"-0.005": 7.87964606039,
			"-0.004": 18.1472212152,
			"-0.003": 37.2301681072,
			"-0.002": 62.2709816637,
			"-0.001": 53.0301787385,
			"0.0": 37.3119558659,
			"0.001": 31.164862188,
			"0.002": 16.2257983044,
			"0.003": 9.44761177718,
			"0.004": 8.09372596078,
			"0.005": 8.63818142391,
			"0.006": 6.43660713745,
			"0.007": 4.20340372536,
			"0.008": 3.59368415831,
			"0.009": 3.09161738359,
			"0.01": 2.77252170991,
			"0.011": 4.31441051344,
			"0.012": 5.55367405633,
			"0.013": 4.46556915789,
			"0.014": 0.912535010234,
			"0.015": 0.0,
			"0.016": 0.0,
			"0.017": 0.0,
			"0.018": 0.0,
			"0.019": 0.0,
			"0.02": 0.0,
			"0.021": 0.0,
			"0.022": 0.0,
			"0.023": 0.0,
			"0.024": 0.0,
			"0.025": 0.0
		}
	}
}
