{
	 "smiles": "CN1N=C(C)C=C1NC(=O)OCC(F)(F)F", 
	 "Tm": 374.15, 
	 "num_atms": 26, 
	 "gaussian": { 
		 "optdone": 1, 
		 "sigma_profile": "yes", 
		 "theory": "DFT", 
		 "functional": "B3LYP", 
		 "basiset": "6-31G**", 
		 "properties": { 
			 "R2extent": 5956.6812, 
			 "electric_dipole_moment_norm": 1.74998496851, 
			 "electric_quadrupole_moment_norm": 11.8569850923, 
			 "total_energy": -925.106385154, 
			 "HOMO_LUMO_gap": 0.22774, 
			 "cosmo_polarized_energy": -14.26, 
			 "cosmo_cavitation_energy": 32.52, 
			 "cosmo_dispersion_energy": -22.28, 
			 "cosmo_repulsion_energy": 1.71, 
			 "cosmo_total_nonelectrostatic_energy": 11.95, 
			 "SMD_solvation_energy": 7.16 
		},
		"coords": [
			{
				"x": 1.1998950826,
				"y": -1.1246882431,
				"z": -2.0490190575,
				"element": "C" 
			},
			{
				"x": 0.8365770582,
				"y": -0.4906432519,
				"z": -0.7988498501,
				"element": "N" 
			},
			{
				"x": 1.7507759024,
				"y": 0.258178859,
				"z": -0.1262358733,
				"element": "N" 
			},
			{
				"x": 1.12619164,
				"y": 0.6618657396,
				"z": 0.98065505,
				"element": "C" 
			},
			{
				"x": 1.8312762041,
				"y": 1.5425091224,
				"z": 1.9670246953,
				"element": "C" 
			},
			{
				"x": -0.1944450432,
				"y": 0.1546462627,
				"z": 1.0486978911,
				"element": "C" 
			},
			{
				"x": -0.3384853848,
				"y": -0.5851217879,
				"z": -0.1111318112,
				"element": "C" 
			},
			{
				"x": -1.3883875533,
				"y": -1.3585234819,
				"z": -0.629682973,
				"element": "N" 
			},
			{
				"x": -2.7345054328,
				"y": -1.2283809078,
				"z": -0.3975703498,
				"element": "C" 
			},
			{
				"x": -3.5621173685,
				"y": -2.0346543305,
				"z": -0.7689299907,
				"element": "O" 
			},
			{
				"x": -3.0088877277,
				"y": -0.0727904812,
				"z": 0.2708148357,
				"element": "O" 
			},
			{
				"x": -4.3448597506,
				"y": 0.0823069258,
				"z": 0.7315463143,
				"element": "C" 
			},
			{
				"x": -4.3855366156,
				"y": -0.1975651276,
				"z": 2.2245629117,
				"element": "C" 
			},
			{
				"x": -5.6352659733,
				"y": 0.0000798225,
				"z": 2.6895233432,
				"element": "F" 
			},
			{
				"x": -3.5535982894,
				"y": 0.6184876644,
				"z": 2.9051879706,
				"element": "F" 
			},
			{
				"x": -4.0251920449,
				"y": -1.4645100737,
				"z": 2.4984067507,
				"element": "F" 
			},
			{
				"x": 2.0836622954,
				"y": -0.6103918516,
				"z": -2.4251643627,
				"element": "H" 
			},
			{
				"x": 0.387778889,
				"y": -1.0265390519,
				"z": -2.7753521326,
				"element": "H" 
			},
			{
				"x": 1.4414375726,
				"y": -2.1870772651,
				"z": -1.917274683,
				"element": "H" 
			},
			{
				"x": 2.8538400908,
				"y": 1.7281250451,
				"z": 1.6309213694,
				"element": "H" 
			},
			{
				"x": 1.8712977417,
				"y": 1.0803463518,
				"z": 2.959572098,
				"element": "H" 
			},
			{
				"x": 1.3231803202,
				"y": 2.507151348,
				"z": 2.0768994135,
				"element": "H" 
			},
			{
				"x": -0.9403730279,
				"y": 0.3164788862,
				"z": 1.8098730761,
				"element": "H" 
			},
			{
				"x": -1.1635165296,
				"y": -2.2227124946,
				"z": -1.1028698249,
				"element": "H" 
			},
			{
				"x": -5.0175230449,
				"y": -0.6045743372,
				"z": 0.2150489828,
				"element": "H" 
			},
			{
				"x": -4.6407190107,
				"y": 1.1182966585,
				"z": 0.5567462064,
				"element": "H" 
			}
		],
		 "valence_orbital": [ 
			{
				"type": "occ",
				"energy": -0.31593,
				"method": "rhf"
			},
			{
				"type": "occ",
				"energy": -0.30205,
				"method": "rhf"
			},
			{
				"type": "occ",
				"energy": -0.28053,
				"method": "rhf"
			},
			{
				"type": "occ",
				"energy": -0.23821,
				"method": "rhf"
			},
			{
				"type": "occ",
				"energy": -0.22322,
				"method": "rhf"
			},
			{
				"type": "unocc",
				"energy": 0.00452,
				"method": "rhf"
			},
			{
				"type": "unocc",
				"energy": 0.04358,
				"method": "rhf"
			},
			{
				"type": "unocc",
				"energy": 0.06106,
				"method": "rhf"
			},
			{
				"type": "unocc",
				"energy": 0.07819,
				"method": "rhf"
			},
			{
				"type": "unocc",
				"energy": 0.09096,
				"method": "rhf"
			}
		],
		"cosmo_sigma_profile": { 
			"-0.025": 0.0,
			"-0.024": 0.0,
			"-0.023": 0.0,
			"-0.022": 0.0,
			"-0.021": 0.0,
			"-0.02": 0.0,
			"-0.019": 0.0,
			"-0.018": 0.0,
			"-0.017": 0.0,
			"-0.016": 0.61281561025,
			"-0.015": 0.80888127725,
			"-0.014": 1.59938872385,
			"-0.013": 0.951278941685,
			"-0.012": 1.14345151426,
			"-0.011": 1.09833232146,
			"-0.01": 2.41108323806,
			"-0.009": 4.36826696839,
			"-0.008": 4.48272014818,
			"-0.007": 6.52767998957,
			"-0.006": 11.5197648691,
			"-0.005": 10.4525017827,
			"-0.004": 15.6463720984,
			"-0.003": 19.0726604335,
			"-0.002": 20.6415428423,
			"-0.001": 18.8044138609,
			"0.0": 20.8439558364,
			"0.001": 14.978805005,
			"0.002": 33.2296529519,
			"0.003": 21.1909776374,
			"0.004": 7.55457818313,
			"0.005": 8.23889565389,
			"0.006": 6.67265895992,
			"0.007": 3.40042093021,
			"0.008": 2.99262140692,
			"0.009": 3.09461266981,
			"0.01": 3.53051854023,
			"0.011": 4.93280390445,
			"0.012": 3.9822722622,
			"0.013": 1.00688149273,
			"0.014": 1.43692290766,
			"0.015": 0.886190273256,
			"0.016": 0.506144166084,
			"0.017": 0.0,
			"0.018": 0.0,
			"0.019": 0.0,
			"0.02": 0.0,
			"0.021": 0.0,
			"0.022": 0.0,
			"0.023": 0.0,
			"0.024": 0.0,
			"0.025": 0.0
		}
	}
}
