{
	 "smiles": "CCCCC(=O)OC", 
	 "Tm": 182.15, 
	 "num_atms": 20, 
	 "gaussian": { 
		 "optdone": 1, 
		 "sigma_profile": "yes", 
		 "theory": "DFT", 
		 "functional": "B3LYP", 
		 "basiset": "6-31G**", 
		 "properties": { 
			 "R2extent": 1306.1096, 
			 "electric_dipole_moment_norm": 1.50641337288, 
			 "electric_quadrupole_moment_norm": 6.75471832129, 
			 "total_energy": -386.338071975, 
			 "HOMO_LUMO_gap": 0.28303, 
			 "cosmo_polarized_energy": -6.17, 
			 "cosmo_cavitation_energy": 22.47, 
			 "cosmo_dispersion_energy": -16.1, 
			 "cosmo_repulsion_energy": 1.37, 
			 "cosmo_total_nonelectrostatic_energy": 7.73, 
			 "SMD_solvation_energy": 5.08 
		},
		"coords": [
			{
				"x": -0.3751015197,
				"y": -1.3820136357,
				"z": 1.8963442764,
				"element": "C" 
			},
			{
				"x": -1.2414291487,
				"y": -0.1166996816,
				"z": 1.8873334304,
				"element": "C" 
			},
			{
				"x": -1.1927656074,
				"y": 0.7003895208,
				"z": 0.5852821152,
				"element": "C" 
			},
			{
				"x": 0.2022814559,
				"y": 1.2304425446,
				"z": 0.2125700453,
				"element": "C" 
			},
			{
				"x": 1.0649397779,
				"y": 0.2031207327,
				"z": -0.4960640013,
				"element": "C" 
			},
			{
				"x": 0.6642761599,
				"y": -0.6136602361,
				"z": -1.2981948262,
				"element": "O" 
			},
			{
				"x": 2.368248894,
				"y": 0.3280292625,
				"z": -0.1531327973,
				"element": "O" 
			},
			{
				"x": 3.2675244871,
				"y": -0.5688668822,
				"z": -0.8258770267,
				"element": "C" 
			},
			{
				"x": -0.6174766855,
				"y": -2.0375319103,
				"z": 1.0536775717,
				"element": "H" 
			},
			{
				"x": -0.5252125779,
				"y": -1.948442711,
				"z": 2.821436494,
				"element": "H" 
			},
			{
				"x": 0.692342529,
				"y": -1.1435754815,
				"z": 1.8338821691,
				"element": "H" 
			},
			{
				"x": -2.286094674,
				"y": -0.3959328416,
				"z": 2.0748142576,
				"element": "H" 
			},
			{
				"x": -0.9466991852,
				"y": 0.5295249437,
				"z": 2.7259998536,
				"element": "H" 
			},
			{
				"x": -1.5622536056,
				"y": 0.0970857884,
				"z": -0.2517316385,
				"element": "H" 
			},
			{
				"x": -1.8727731797,
				"y": 1.5543448886,
				"z": 0.6853211005,
				"element": "H" 
			},
			{
				"x": 0.7387393832,
				"y": 1.620232162,
				"z": 1.0831613225,
				"element": "H" 
			},
			{
				"x": 0.099311983,
				"y": 2.0668004262,
				"z": -0.4916905938,
				"element": "H" 
			},
			{
				"x": 4.2598209675,
				"y": -0.3370986818,
				"z": -0.4387798106,
				"element": "H" 
			},
			{
				"x": 3.0054323189,
				"y": -1.608259692,
				"z": -0.6130528214,
				"element": "H" 
			},
			{
				"x": 3.2313882273,
				"y": -0.4128885158,
				"z": -1.9070991202,
				"element": "H" 
			}
		],
		 "valence_orbital": [ 
			{
				"type": "occ",
				"energy": -0.32884,
				"method": "rhf"
			},
			{
				"type": "occ",
				"energy": -0.32375,
				"method": "rhf"
			},
			{
				"type": "occ",
				"energy": -0.32013,
				"method": "rhf"
			},
			{
				"type": "occ",
				"energy": -0.29884,
				"method": "rhf"
			},
			{
				"type": "occ",
				"energy": -0.26772,
				"method": "rhf"
			},
			{
				"type": "unocc",
				"energy": 0.01531,
				"method": "rhf"
			},
			{
				"type": "unocc",
				"energy": 0.08776,
				"method": "rhf"
			},
			{
				"type": "unocc",
				"energy": 0.11161,
				"method": "rhf"
			},
			{
				"type": "unocc",
				"energy": 0.1278,
				"method": "rhf"
			},
			{
				"type": "unocc",
				"energy": 0.13402,
				"method": "rhf"
			}
		],
		"cosmo_sigma_profile": { 
			"-0.025": 0.0,
			"-0.024": 0.0,
			"-0.023": 0.0,
			"-0.022": 0.0,
			"-0.021": 0.0,
			"-0.02": 0.0,
			"-0.019": 0.0,
			"-0.018": 0.0,
			"-0.017": 0.0,
			"-0.016": 0.0,
			"-0.015": 0.0,
			"-0.014": 0.0,
			"-0.013": 0.0,
			"-0.012": 0.0,
			"-0.011": 0.0,
			"-0.01": 0.0,
			"-0.009": 0.0,
			"-0.008": 0.0,
			"-0.007": 0.591530021226,
			"-0.006": 6.2105688472,
			"-0.005": 8.81437025246,
			"-0.004": 11.5232004857,
			"-0.003": 20.5308277596,
			"-0.002": 25.3235827233,
			"-0.001": 23.9992289082,
			"0.0": 22.31705025,
			"0.001": 16.6775220041,
			"0.002": 6.57508308107,
			"0.003": 4.2744784226,
			"0.004": 3.54788330333,
			"0.005": 3.21736267777,
			"0.006": 2.66090432344,
			"0.007": 3.1885411435,
			"0.008": 2.58760849894,
			"0.009": 2.36486880247,
			"0.01": 1.94638469049,
			"0.011": 2.32191859242,
			"0.012": 4.04123121426,
			"0.013": 1.689169089,
			"0.014": 0.0,
			"0.015": 0.0,
			"0.016": 0.0,
			"0.017": 0.0,
			"0.018": 0.0,
			"0.019": 0.0,
			"0.02": 0.0,
			"0.021": 0.0,
			"0.022": 0.0,
			"0.023": 0.0,
			"0.024": 0.0,
			"0.025": 0.0
		}
	}
}
