{
	 "smiles": "NC1=CC=C2C=C(C=CC2=C1)C(O)=O", 
	 "Tm": 497.15, 
	 "num_atms": 23, 
	 "gaussian": { 
		 "optdone": 1, 
		 "sigma_profile": "yes", 
		 "theory": "DFT", 
		 "functional": "B3LYP", 
		 "basiset": "6-31G**", 
		 "properties": { 
			 "R2extent": 4270.9872, 
			 "electric_dipole_moment_norm": 7.25605921834, 
			 "electric_quadrupole_moment_norm": 26.8553197659, 
			 "total_energy": -629.819421951, 
			 "HOMO_LUMO_gap": 0.15571, 
			 "cosmo_polarized_energy": -19.55, 
			 "cosmo_cavitation_energy": 27.41, 
			 "cosmo_dispersion_energy": -20.47, 
			 "cosmo_repulsion_energy": 1.58, 
			 "cosmo_total_nonelectrostatic_energy": 8.52, 
			 "SMD_solvation_energy": 5.46 
		},
		"coords": [
			{
				"x": -2.1780748055,
				"y": -0.5667389729,
				"z": 3.0159494114,
				"element": "N" 
			},
			{
				"x": -1.8045230945,
				"y": -0.5361235768,
				"z": 1.6793214286,
				"element": "C" 
			},
			{
				"x": -2.6510655854,
				"y": 0.1230914349,
				"z": 0.7365843791,
				"element": "C" 
			},
			{
				"x": -2.3425071609,
				"y": 0.1321577161,
				"z": -0.5989500017,
				"element": "C" 
			},
			{
				"x": -1.1747993014,
				"y": -0.5161043257,
				"z": -1.0901020598,
				"element": "C" 
			},
			{
				"x": -0.8356488586,
				"y": -0.5215018887,
				"z": -2.4602368212,
				"element": "C" 
			},
			{
				"x": 0.314061757,
				"y": -1.1443830708,
				"z": -2.9161621353,
				"element": "C" 
			},
			{
				"x": 1.1497775781,
				"y": -1.8191028143,
				"z": -1.9826062157,
				"element": "C" 
			},
			{
				"x": 0.8405728723,
				"y": -1.8383767099,
				"z": -0.6431104104,
				"element": "C" 
			},
			{
				"x": -0.3222537051,
				"y": -1.1837715865,
				"z": -0.1483064772,
				"element": "C" 
			},
			{
				"x": -0.6585945669,
				"y": -1.1748019121,
				"z": 1.2250341809,
				"element": "C" 
			},
			{
				"x": 0.5992747594,
				"y": -1.088232995,
				"z": -4.3821121749,
				"element": "C" 
			},
			{
				"x": 1.8750794356,
				"y": -1.3725113401,
				"z": -4.7700201035,
				"element": "O" 
			},
			{
				"x": -0.2284963393,
				"y": -0.8037527404,
				"z": -5.2176281819,
				"element": "O" 
			},
			{
				"x": -1.4482202047,
				"y": -0.7853080581,
				"z": 3.6788345029,
				"element": "H" 
			},
			{
				"x": -2.7829725385,
				"y": 0.179107616,
				"z": 3.3282111682,
				"element": "H" 
			},
			{
				"x": -3.552300697,
				"y": 0.615196407,
				"z": 1.093610179,
				"element": "H" 
			},
			{
				"x": -2.9951149915,
				"y": 0.6398942396,
				"z": -1.303962891,
				"element": "H" 
			},
			{
				"x": -1.4780729335,
				"y": -0.0273512772,
				"z": -3.1828353248,
				"element": "H" 
			},
			{
				"x": 2.024559714,
				"y": -2.3689610333,
				"z": -2.3229049083,
				"element": "H" 
			},
			{
				"x": 1.4814608929,
				"y": -2.3689257492,
				"z": 0.0559379796,
				"element": "H" 
			},
			{
				"x": -0.0063369187,
				"y": -1.6831822457,
				"z": 1.9314387374,
				"element": "H" 
			},
			{
				"x": 2.4541946923,
				"y": -1.4189171167,
				"z": -3.9971842613,
				"element": "H" 
			}
		],
		 "valence_orbital": [ 
			{
				"type": "occ",
				"energy": -0.3043,
				"method": "rhf"
			},
			{
				"type": "occ",
				"energy": -0.28298,
				"method": "rhf"
			},
			{
				"type": "occ",
				"energy": -0.26171,
				"method": "rhf"
			},
			{
				"type": "occ",
				"energy": -0.23937,
				"method": "rhf"
			},
			{
				"type": "occ",
				"energy": -0.20703,
				"method": "rhf"
			},
			{
				"type": "unocc",
				"energy": -0.05132,
				"method": "rhf"
			},
			{
				"type": "unocc",
				"energy": -0.03168,
				"method": "rhf"
			},
			{
				"type": "unocc",
				"energy": 0.02325,
				"method": "rhf"
			},
			{
				"type": "unocc",
				"energy": 0.04312,
				"method": "rhf"
			},
			{
				"type": "unocc",
				"energy": 0.06788,
				"method": "rhf"
			}
		],
		"cosmo_sigma_profile": { 
			"-0.025": 0.0,
			"-0.024": 0.0,
			"-0.023": 0.0,
			"-0.022": 0.0,
			"-0.021": 0.0,
			"-0.02": 0.0,
			"-0.019": 0.0,
			"-0.018": 0.420345645491,
			"-0.017": 0.965020225758,
			"-0.016": 0.99744269925,
			"-0.015": 1.23673249543,
			"-0.014": 1.08702208797,
			"-0.013": 2.43617052869,
			"-0.012": 3.71058474253,
			"-0.011": 4.09067170527,
			"-0.01": 3.58065686781,
			"-0.009": 5.37209676865,
			"-0.008": 3.99805372159,
			"-0.007": 5.80952349396,
			"-0.006": 13.8114240677,
			"-0.005": 12.1273222376,
			"-0.004": 11.5623342122,
			"-0.003": 9.06079202628,
			"-0.002": 9.19466452453,
			"-0.001": 7.72968872198,
			"0.0": 9.93748995407,
			"0.001": 9.39379054002,
			"0.002": 12.484719683,
			"0.003": 21.0665883882,
			"0.004": 24.1672236366,
			"0.005": 10.1640763058,
			"0.006": 3.40471199981,
			"0.007": 3.10190290286,
			"0.008": 3.11180764594,
			"0.009": 4.59274471247,
			"0.01": 4.20238213969,
			"0.011": 5.77122357004,
			"0.012": 6.50647732155,
			"0.013": 3.44903041065,
			"0.014": 0.534504206573,
			"0.015": 0.0,
			"0.016": 0.0,
			"0.017": 0.0,
			"0.018": 0.0,
			"0.019": 0.0,
			"0.02": 0.0,
			"0.021": 0.0,
			"0.022": 0.0,
			"0.023": 0.0,
			"0.024": 0.0,
			"0.025": 0.0
		}
	}
}
