{
	 "smiles": "FC(F)(F)C1(F)C(F)(F)C(F)(F)C(F)(F)C2(F)C(F)(F)C(F)(F)C(F)(F)C(F)(F)C12F", 
	 "Tm": 203.15, 
	 "num_atms": 31, 
	 "gaussian": { 
		 "optdone": 1, 
		 "sigma_profile": "yes", 
		 "theory": "DFT", 
		 "functional": "B3LYP", 
		 "basiset": "6-31G**", 
		 "properties": { 
			 "R2extent": 10461.4284, 
			 "electric_dipole_moment_norm": 0.165144573026, 
			 "electric_quadrupole_moment_norm": 1.10980418093, 
			 "total_energy": -2415.85870994, 
			 "HOMO_LUMO_gap": 0.30859, 
			 "cosmo_polarized_energy": -1.16, 
			 "cosmo_cavitation_energy": 37.31, 
			 "cosmo_dispersion_energy": -25.5, 
			 "cosmo_repulsion_energy": 1.47, 
			 "cosmo_total_nonelectrostatic_energy": 13.28, 
			 "SMD_solvation_energy": 12.0 
		},
		"coords": [
			{
				"x": -2.904352002,
				"y": 2.4134387376,
				"z": -1.1930904483,
				"element": "F" 
			},
			{
				"x": -1.9071895175,
				"y": 1.8243911285,
				"z": -0.5178462619,
				"element": "C" 
			},
			{
				"x": -1.966568452,
				"y": 2.2191150742,
				"z": 0.756961402,
				"element": "F" 
			},
			{
				"x": -0.7496123893,
				"y": 2.2218988251,
				"z": -1.0575302,
				"element": "F" 
			},
			{
				"x": -2.0426770044,
				"y": 0.2765291155,
				"z": -0.6519791681,
				"element": "C" 
			},
			{
				"x": -1.9379796797,
				"y": 0.0194661641,
				"z": -1.9990252397,
				"element": "F" 
			},
			{
				"x": -3.478169739,
				"y": -0.1969148798,
				"z": -0.2588075788,
				"element": "C" 
			},
			{
				"x": -3.86155725,
				"y": 0.3582120762,
				"z": 0.9150734838,
				"element": "F" 
			},
			{
				"x": -4.339950701,
				"y": 0.1905578024,
				"z": -1.220125712,
				"element": "F" 
			},
			{
				"x": -3.575951843,
				"y": -1.7299551509,
				"z": -0.1343206354,
				"element": "C" 
			},
			{
				"x": -4.8367868943,
				"y": -2.056448408,
				"z": 0.2073504865,
				"element": "F" 
			},
			{
				"x": -3.2977691583,
				"y": -2.2574145293,
				"z": -1.3475268394,
				"element": "F" 
			},
			{
				"x": -2.5862392366,
				"y": -2.3372367123,
				"z": 0.9175945926,
				"element": "C" 
			},
			{
				"x": -2.1439461264,
				"y": -3.516682993,
				"z": 0.4296690815,
				"element": "F" 
			},
			{
				"x": -3.2661485313,
				"y": -2.5683901536,
				"z": 2.056321994,
				"element": "F" 
			},
			{
				"x": -1.3788091825,
				"y": -1.4050362986,
				"z": 1.2746809583,
				"element": "C" 
			},
			{
				"x": -1.8503918301,
				"y": -0.5483169535,
				"z": 2.2410673396,
				"element": "F" 
			},
			{
				"x": -0.1918099695,
				"y": -2.1804595567,
				"z": 1.9521633247,
				"element": "C" 
			},
			{
				"x": 0.4799908454,
				"y": -1.2858497284,
				"z": 2.7105137907,
				"element": "F" 
			},
			{
				"x": -0.6890241063,
				"y": -3.1418524359,
				"z": 2.7621744888,
				"element": "F" 
			},
			{
				"x": 0.8545744591,
				"y": -2.8306936783,
				"z": 1.0031337137,
				"element": "C" 
			},
			{
				"x": 1.9393275803,
				"y": -3.1494447729,
				"z": 1.740627482,
				"element": "F" 
			},
			{
				"x": 0.3545216787,
				"y": -3.9602355176,
				"z": 0.4621750497,
				"element": "F" 
			},
			{
				"x": 1.2875498022,
				"y": -1.8869527259,
				"z": -0.1407541682,
				"element": "C" 
			},
			{
				"x": 2.0984106499,
				"y": -0.932567012,
				"z": 0.3607084851,
				"element": "F" 
			},
			{
				"x": 1.9664365853,
				"y": -2.6010823882,
				"z": -1.0628907845,
				"element": "F" 
			},
			{
				"x": 0.0806071528,
				"y": -1.2184660985,
				"z": -0.8555026888,
				"element": "C" 
			},
			{
				"x": 0.5819553134,
				"y": -0.3487580182,
				"z": -1.7529637829,
				"element": "F" 
			},
			{
				"x": -0.6065723724,
				"y": -2.1998028332,
				"z": -1.4921422405,
				"element": "F" 
			},
			{
				"x": -0.8760704578,
				"y": -0.4759664575,
				"z": 0.1199443724,
				"element": "C" 
			},
			{
				"x": -0.0842976236,
				"y": 0.4623183787,
				"z": 0.7476457029,
				"element": "F" 
			}
		],
		 "valence_orbital": [ 
			{
				"type": "occ",
				"energy": -0.39867,
				"method": "rhf"
			},
			{
				"type": "occ",
				"energy": -0.3835,
				"method": "rhf"
			},
			{
				"type": "occ",
				"energy": -0.37126,
				"method": "rhf"
			},
			{
				"type": "occ",
				"energy": -0.36227,
				"method": "rhf"
			},
			{
				"type": "occ",
				"energy": -0.35645,
				"method": "rhf"
			},
			{
				"type": "unocc",
				"energy": -0.04786,
				"method": "rhf"
			},
			{
				"type": "unocc",
				"energy": -0.00344,
				"method": "rhf"
			},
			{
				"type": "unocc",
				"energy": 0.01097,
				"method": "rhf"
			},
			{
				"type": "unocc",
				"energy": 0.02862,
				"method": "rhf"
			},
			{
				"type": "unocc",
				"energy": 0.0416,
				"method": "rhf"
			}
		],
		"cosmo_sigma_profile": { 
			"-0.025": 0.0,
			"-0.024": 0.0,
			"-0.023": 0.0,
			"-0.022": 0.0,
			"-0.021": 0.0,
			"-0.02": 0.0,
			"-0.019": 0.0,
			"-0.018": 0.0,
			"-0.017": 0.0,
			"-0.016": 0.0,
			"-0.015": 0.0,
			"-0.014": 0.0,
			"-0.013": 0.0,
			"-0.012": 0.0,
			"-0.011": 0.0,
			"-0.01": 0.0,
			"-0.009": 0.0,
			"-0.008": 0.000814162497059,
			"-0.007": 0.287354266062,
			"-0.006": 0.823276514865,
			"-0.005": 0.829274515667,
			"-0.004": 2.1570679232,
			"-0.003": 10.8746016901,
			"-0.002": 18.0367622744,
			"-0.001": 33.3439025229,
			"0.0": 113.709303366,
			"0.001": 118.440221999,
			"0.002": 1.88908718154,
			"0.003": 0.0,
			"0.004": 0.0,
			"0.005": 0.0,
			"0.006": 0.0,
			"0.007": 0.0,
			"0.008": 0.0,
			"0.009": 0.0,
			"0.01": 0.0,
			"0.011": 0.0,
			"0.012": 0.0,
			"0.013": 0.0,
			"0.014": 0.0,
			"0.015": 0.0,
			"0.016": 0.0,
			"0.017": 0.0,
			"0.018": 0.0,
			"0.019": 0.0,
			"0.02": 0.0,
			"0.021": 0.0,
			"0.022": 0.0,
			"0.023": 0.0,
			"0.024": 0.0,
			"0.025": 0.0
		}
	}
}
