{
	 "smiles": "OC(=O)C1=C(C=CO1)C1=CC=CC=C1", 
	 "Tm": 416.15, 
	 "num_atms": 22, 
	 "gaussian": { 
		 "optdone": 1, 
		 "sigma_profile": "yes", 
		 "theory": "DFT", 
		 "functional": "B3LYP", 
		 "basiset": "6-31G**", 
		 "properties": { 
			 "R2extent": 3292.4016, 
			 "electric_dipole_moment_norm": 1.83248059744, 
			 "electric_quadrupole_moment_norm": 6.98143851366, 
			 "total_energy": -649.654568608, 
			 "HOMO_LUMO_gap": 0.17469, 
			 "cosmo_polarized_energy": -11.56, 
			 "cosmo_cavitation_energy": 26.89, 
			 "cosmo_dispersion_energy": -19.85, 
			 "cosmo_repulsion_energy": 1.54, 
			 "cosmo_total_nonelectrostatic_energy": 8.59, 
			 "SMD_solvation_energy": 6.64 
		},
		"coords": [
			{
				"x": -2.7103478564,
				"y": 3.3044806621,
				"z": 1.420767175,
				"element": "O" 
			},
			{
				"x": -1.8642258693,
				"y": 2.4801092998,
				"z": 0.756456493,
				"element": "C" 
			},
			{
				"x": -1.9895545929,
				"y": 2.2404401958,
				"z": -0.431560188,
				"element": "O" 
			},
			{
				"x": -0.8223005135,
				"y": 1.9345525731,
				"z": 1.6256298222,
				"element": "C" 
			},
			{
				"x": 0.1622685439,
				"y": 0.9711224232,
				"z": 1.4551973344,
				"element": "C" 
			},
			{
				"x": 0.7940126635,
				"y": 0.8569727178,
				"z": 2.7401676916,
				"element": "C" 
			},
			{
				"x": 0.1682050363,
				"y": 1.7350951538,
				"z": 3.5708559618,
				"element": "C" 
			},
			{
				"x": -0.8138078541,
				"y": 2.3922448876,
				"z": 2.9211332578,
				"element": "O" 
			},
			{
				"x": 0.5511523981,
				"y": 0.1695273496,
				"z": 0.2788564135,
				"element": "C" 
			},
			{
				"x": 1.0330936696,
				"y": -1.137624145,
				"z": 0.4780148695,
				"element": "C" 
			},
			{
				"x": 1.4506221181,
				"y": -1.9188583705,
				"z": -0.597054908,
				"element": "C" 
			},
			{
				"x": 1.4028222759,
				"y": -1.4057068736,
				"z": -1.8945476039,
				"element": "C" 
			},
			{
				"x": 0.9290566133,
				"y": -0.1094784997,
				"z": -2.1045250184,
				"element": "C" 
			},
			{
				"x": 0.5049864778,
				"y": 0.6731262247,
				"z": -1.0319931559,
				"element": "C" 
			},
			{
				"x": -3.3470536861,
				"y": 3.6055807295,
				"z": 0.751821892,
				"element": "H" 
			},
			{
				"x": 1.6296767379,
				"y": 0.2196826536,
				"z": 2.988430701,
				"element": "H" 
			},
			{
				"x": 0.3106006575,
				"y": 2.0015920806,
				"z": 4.6073214098,
				"element": "H" 
			},
			{
				"x": 1.0594118837,
				"y": -1.5514835836,
				"z": 1.481681612,
				"element": "H" 
			},
			{
				"x": 1.8099547054,
				"y": -2.9287392035,
				"z": -0.4210259108,
				"element": "H" 
			},
			{
				"x": 1.7291190114,
				"y": -2.0121269988,
				"z": -2.734609889,
				"element": "H" 
			},
			{
				"x": 0.8879508441,
				"y": 0.2983081892,
				"z": -3.1104315269,
				"element": "H" 
			},
			{
				"x": 0.1246567357,
				"y": 1.6705825343,
				"z": -1.2071864327,
				"element": "H" 
			}
		],
		 "valence_orbital": [ 
			{
				"type": "occ",
				"energy": -0.30069,
				"method": "rhf"
			},
			{
				"type": "occ",
				"energy": -0.27903,
				"method": "rhf"
			},
			{
				"type": "occ",
				"energy": -0.25526,
				"method": "rhf"
			},
			{
				"type": "occ",
				"energy": -0.24874,
				"method": "rhf"
			},
			{
				"type": "occ",
				"energy": -0.22832,
				"method": "rhf"
			},
			{
				"type": "unocc",
				"energy": -0.05363,
				"method": "rhf"
			},
			{
				"type": "unocc",
				"energy": -0.00078,
				"method": "rhf"
			},
			{
				"type": "unocc",
				"energy": 0.00346,
				"method": "rhf"
			},
			{
				"type": "unocc",
				"energy": 0.0425,
				"method": "rhf"
			},
			{
				"type": "unocc",
				"energy": 0.08205,
				"method": "rhf"
			}
		],
		"cosmo_sigma_profile": { 
			"-0.025": 0.0,
			"-0.024": 0.0,
			"-0.023": 0.0,
			"-0.022": 0.0,
			"-0.021": 0.0,
			"-0.02": 0.0,
			"-0.019": 0.0,
			"-0.018": 0.903863797364,
			"-0.017": 0.967691278422,
			"-0.016": 0.463724392945,
			"-0.015": 0.567086076543,
			"-0.014": 1.23948471808,
			"-0.013": 0.752208556604,
			"-0.012": 0.655518432859,
			"-0.011": 0.989229788729,
			"-0.01": 2.28022867143,
			"-0.009": 2.25197289394,
			"-0.008": 3.49956707079,
			"-0.007": 4.77348756017,
			"-0.006": 10.1996408227,
			"-0.005": 13.0350257079,
			"-0.004": 13.2049341976,
			"-0.003": 14.4139781348,
			"-0.002": 13.9680293727,
			"-0.001": 14.0234398796,
			"0.0": 14.2552320719,
			"0.001": 18.139479301,
			"0.002": 17.2081132795,
			"0.003": 14.4769179169,
			"0.004": 11.5614782821,
			"0.005": 13.8296608943,
			"0.006": 5.7953558648,
			"0.007": 4.22329254941,
			"0.008": 3.82835210392,
			"0.009": 3.17935351325,
			"0.01": 4.88426305831,
			"0.011": 4.10239622542,
			"0.012": 2.70670791462,
			"0.013": 0.127126116384,
			"0.014": 0.0,
			"0.015": 0.0,
			"0.016": 0.0,
			"0.017": 0.0,
			"0.018": 0.0,
			"0.019": 0.0,
			"0.02": 0.0,
			"0.021": 0.0,
			"0.022": 0.0,
			"0.023": 0.0,
			"0.024": 0.0,
			"0.025": 0.0
		}
	}
}
