{
	 "smiles": "CC1=C(I)C(=CC(Cl)=C1)[N+]([O-])=O", 
	 "Tm": 347.15, 
	 "num_atms": 17, 
	 "gaussian": { 
		 "optdone": 1, 
		 "sigma_profile": "yes", 
		 "theory": "DFT", 
		 "functional": "B3LYP", 
		 "basiset": "6-31G**", 
		 "properties": { 
			 "R2extent": 3746.6746, 
			 "electric_dipole_moment_norm": 3.90981478589, 
			 "electric_quadrupole_moment_norm": 8.10259606237, 
			 "total_energy": -946.422804441, 
			 "HOMO_LUMO_gap": 0.17314, 
			 "cosmo_polarized_energy": -8.22, 
			 "cosmo_cavitation_energy": 27.15, 
			 "cosmo_dispersion_energy": -20.58, 
			 "cosmo_repulsion_energy": 1.61, 
			 "cosmo_total_nonelectrostatic_energy": 8.17, 
			 "SMD_solvation_energy": 6.27 
		},
		"coords": [
			{
				"x": -2.5733353661,
				"y": -1.1530508266,
				"z": 0.0950950618,
				"element": "C" 
			},
			{
				"x": -1.8742091972,
				"y": 0.1787879992,
				"z": -0.0070902734,
				"element": "C" 
			},
			{
				"x": -0.8948595332,
				"y": 0.5926928764,
				"z": 0.9170713591,
				"element": "C" 
			},
			{
				"x": -0.3380441521,
				"y": -0.652837413,
				"z": 2.5310728697,
				"element": "I" 
			},
			{
				"x": -0.2916780791,
				"y": 1.8404231357,
				"z": 0.7566104953,
				"element": "C" 
			},
			{
				"x": -0.6154001007,
				"y": 2.7036226814,
				"z": -0.2838970955,
				"element": "C" 
			},
			{
				"x": -1.5830972092,
				"y": 2.2865798485,
				"z": -1.1911854695,
				"element": "C" 
			},
			{
				"x": -2.0255350943,
				"y": 3.3373324071,
				"z": -2.5183659756,
				"element": "Cl" 
			},
			{
				"x": -2.2030047184,
				"y": 1.0465210592,
				"z": -1.0572947777,
				"element": "C" 
			},
			{
				"x": 0.7415791007,
				"y": 2.3167653479,
				"z": 1.7027777753,
				"element": "N" 
			},
			{
				"x": 1.905453547,
				"y": 2.0500716883,
				"z": 1.4271971262,
				"element": "O" 
			},
			{
				"x": 0.3488881569,
				"y": 2.9610707366,
				"z": 2.6683545345,
				"element": "O" 
			},
			{
				"x": -1.8574415355,
				"y": -1.9803226735,
				"z": 0.048620687,
				"element": "H" 
			},
			{
				"x": -3.1088026329,
				"y": -1.2469363576,
				"z": 1.0456313667,
				"element": "H" 
			},
			{
				"x": -3.2923904199,
				"y": -1.2748934124,
				"z": -0.7177360455,
				"element": "H" 
			},
			{
				"x": -0.1264253535,
				"y": 3.665907609,
				"z": -0.37778022,
				"element": "H" 
			},
			{
				"x": -2.9544974123,
				"y": 0.7462652938,
				"z": -1.7791814184,
				"element": "H" 
			}
		],
		 "valence_orbital": [ 
			{
				"type": "occ",
				"energy": -0.31497,
				"method": "rhf"
			},
			{
				"type": "occ",
				"energy": -0.30397,
				"method": "rhf"
			},
			{
				"type": "occ",
				"energy": -0.28608,
				"method": "rhf"
			},
			{
				"type": "occ",
				"energy": -0.27953,
				"method": "rhf"
			},
			{
				"type": "occ",
				"energy": -0.25704,
				"method": "rhf"
			},
			{
				"type": "unocc",
				"energy": -0.0839,
				"method": "rhf"
			},
			{
				"type": "unocc",
				"energy": -0.05745,
				"method": "rhf"
			},
			{
				"type": "unocc",
				"energy": -0.04896,
				"method": "rhf"
			},
			{
				"type": "unocc",
				"energy": -0.04432,
				"method": "rhf"
			},
			{
				"type": "unocc",
				"energy": 0.00891,
				"method": "rhf"
			}
		],
		"cosmo_sigma_profile": { 
			"-0.025": 0.0,
			"-0.024": 0.0,
			"-0.023": 0.0,
			"-0.022": 0.0,
			"-0.021": 0.0,
			"-0.02": 0.0,
			"-0.019": 0.0,
			"-0.018": 0.0,
			"-0.017": 0.0,
			"-0.016": 0.0,
			"-0.015": 0.0,
			"-0.014": 0.0,
			"-0.013": 0.0,
			"-0.012": 0.274102574851,
			"-0.011": 1.4755822428,
			"-0.01": 1.89179931501,
			"-0.009": 1.88977851622,
			"-0.008": 5.58711428833,
			"-0.007": 5.31890354088,
			"-0.006": 5.46303784237,
			"-0.005": 9.17866851643,
			"-0.004": 11.3623350736,
			"-0.003": 13.8456372363,
			"-0.002": 17.2903339342,
			"-0.001": 24.8303807225,
			"0.0": 29.433037251,
			"0.001": 18.6340568741,
			"0.002": 18.4204490636,
			"0.003": 19.4008663232,
			"0.004": 10.6247136761,
			"0.005": 3.82130414244,
			"0.006": 8.26621848269,
			"0.007": 10.0946811908,
			"0.008": 5.87808226528,
			"0.009": 1.76779695391,
			"0.01": 0.00265813739418,
			"0.011": 0.0,
			"0.012": 0.0,
			"0.013": 0.0,
			"0.014": 0.0,
			"0.015": 0.0,
			"0.016": 0.0,
			"0.017": 0.0,
			"0.018": 0.0,
			"0.019": 0.0,
			"0.02": 0.0,
			"0.021": 0.0,
			"0.022": 0.0,
			"0.023": 0.0,
			"0.024": 0.0,
			"0.025": 0.0
		}
	}
}
