{
	 "smiles": "CCOC(=O)N1CCC2=CC(OC)=C(OC)C=C2C1C#N", 
	 "Tm": 384.15, 
	 "num_atms": 39, 
	 "gaussian": { 
		 "optdone": 1, 
		 "sigma_profile": "yes", 
		 "theory": "DFT", 
		 "functional": "B3LYP", 
		 "basiset": "6-31G**", 
		 "properties": { 
			 "R2extent": 7900.9639, 
			 "electric_dipole_moment_norm": 4.64962235456, 
			 "electric_quadrupole_moment_norm": 12.1618218319, 
			 "total_energy": -992.8180169, 
			 "HOMO_LUMO_gap": 0.20592, 
			 "cosmo_polarized_energy": -16.69, 
			 "cosmo_cavitation_energy": 42.8, 
			 "cosmo_dispersion_energy": -29.12, 
			 "cosmo_repulsion_energy": 2.28, 
			 "cosmo_total_nonelectrostatic_energy": 15.96, 
			 "SMD_solvation_energy": 10.59 
		},
		"coords": [
			{
				"x": 1.602281022,
				"y": 2.1930123128,
				"z": 4.3582159266,
				"element": "C" 
			},
			{
				"x": 0.5408444781,
				"y": 2.7579207167,
				"z": 3.4339087819,
				"element": "C" 
			},
			{
				"x": 0.2823690089,
				"y": 1.7632098139,
				"z": 2.4166372485,
				"element": "O" 
			},
			{
				"x": -0.688661797,
				"y": 2.0872155614,
				"z": 1.5267189843,
				"element": "C" 
			},
			{
				"x": -1.317004525,
				"y": 3.1301220308,
				"z": 1.549285079,
				"element": "O" 
			},
			{
				"x": -0.8575432908,
				"y": 1.0946018113,
				"z": 0.5873778562,
				"element": "N" 
			},
			{
				"x": -1.9545073173,
				"y": 1.1886492754,
				"z": -0.375357173,
				"element": "C" 
			},
			{
				"x": -1.4067845831,
				"y": 0.9862562173,
				"z": -1.7866534941,
				"element": "C" 
			},
			{
				"x": -0.5341149913,
				"y": -0.2490130363,
				"z": -1.8669219405,
				"element": "C" 
			},
			{
				"x": -0.2712442263,
				"y": -0.8613996562,
				"z": -3.10220466,
				"element": "C" 
			},
			{
				"x": 0.5214985619,
				"y": -1.995390949,
				"z": -3.212362558,
				"element": "C" 
			},
			{
				"x": 0.6694447257,
				"y": -2.5772668712,
				"z": -4.4442281537,
				"element": "O" 
			},
			{
				"x": 1.9945295516,
				"y": -2.5959617381,
				"z": -4.9834626804,
				"element": "C" 
			},
			{
				"x": 1.0837610544,
				"y": -2.5644328729,
				"z": -2.0431069963,
				"element": "C" 
			},
			{
				"x": 1.819963247,
				"y": -3.6992128621,
				"z": -2.2162765074,
				"element": "O" 
			},
			{
				"x": 2.3288080244,
				"y": -4.3514946655,
				"z": -1.0613349518,
				"element": "C" 
			},
			{
				"x": 0.8460787955,
				"y": -1.9524127451,
				"z": -0.8147926739,
				"element": "C" 
			},
			{
				"x": 0.0469039478,
				"y": -0.8019726877,
				"z": -0.7240972561,
				"element": "C" 
			},
			{
				"x": -0.158850462,
				"y": -0.1808506207,
				"z": 0.6605716756,
				"element": "C" 
			},
			{
				"x": -0.8736192248,
				"y": -1.1313220001,
				"z": 1.5569356613,
				"element": "C" 
			},
			{
				"x": -1.4298649346,
				"y": -1.8692691353,
				"z": 2.2596524943,
				"element": "N" 
			},
			{
				"x": 2.5277019011,
				"y": 1.9841517449,
				"z": 3.8132857075,
				"element": "H" 
			},
			{
				"x": 1.2592400816,
				"y": 1.2660969252,
				"z": 4.8265353788,
				"element": "H" 
			},
			{
				"x": 1.8257652907,
				"y": 2.9161248519,
				"z": 5.1486388239,
				"element": "H" 
			},
			{
				"x": -0.3928455996,
				"y": 2.9718544122,
				"z": 3.9618439541,
				"element": "H" 
			},
			{
				"x": 0.8670566502,
				"y": 3.6833214163,
				"z": 2.9491548735,
				"element": "H" 
			},
			{
				"x": -2.7098473623,
				"y": 0.4248412738,
				"z": -0.1431142066,
				"element": "H" 
			},
			{
				"x": -2.4102319625,
				"y": 2.170043388,
				"z": -0.2505134812,
				"element": "H" 
			},
			{
				"x": -0.8280199538,
				"y": 1.8738653253,
				"z": -2.075523474,
				"element": "H" 
			},
			{
				"x": -2.2369494281,
				"y": 0.9055312873,
				"z": -2.4977028811,
				"element": "H" 
			},
			{
				"x": -0.7047238775,
				"y": -0.4631903167,
				"z": -4.0151961545,
				"element": "H" 
			},
			{
				"x": 2.390126604,
				"y": -1.5765688776,
				"z": -5.0808435024,
				"element": "H" 
			},
			{
				"x": 1.9091039719,
				"y": -3.043393076,
				"z": -5.9756420794,
				"element": "H" 
			},
			{
				"x": 2.6717469999,
				"y": -3.194666166,
				"z": -4.3684209697,
				"element": "H" 
			},
			{
				"x": 1.522002229,
				"y": -4.6447465933,
				"z": -0.37853963,
				"element": "H" 
			},
			{
				"x": 2.8392512312,
				"y": -5.245297862,
				"z": -1.4223537679,
				"element": "H" 
			},
			{
				"x": 3.0460672184,
				"y": -3.7194432026,
				"z": -0.5219359088,
				"element": "H" 
			},
			{
				"x": 1.2623337456,
				"y": -2.3755871927,
				"z": 0.0928155888,
				"element": "H" 
			},
			{
				"x": 0.8173351951,
				"y": 0.0010747625,
				"z": 1.1177070665,
				"element": "H" 
			}
		],
		 "valence_orbital": [ 
			{
				"type": "occ",
				"energy": -0.28229,
				"method": "rhf"
			},
			{
				"type": "occ",
				"energy": -0.27697,
				"method": "rhf"
			},
			{
				"type": "occ",
				"energy": -0.25762,
				"method": "rhf"
			},
			{
				"type": "occ",
				"energy": -0.24644,
				"method": "rhf"
			},
			{
				"type": "occ",
				"energy": -0.22138,
				"method": "rhf"
			},
			{
				"type": "unocc",
				"energy": -0.01546,
				"method": "rhf"
			},
			{
				"type": "unocc",
				"energy": -0.00346,
				"method": "rhf"
			},
			{
				"type": "unocc",
				"energy": 0.02575,
				"method": "rhf"
			},
			{
				"type": "unocc",
				"energy": 0.04215,
				"method": "rhf"
			},
			{
				"type": "unocc",
				"energy": 0.04674,
				"method": "rhf"
			}
		],
		"cosmo_sigma_profile": { 
			"-0.025": 0.0,
			"-0.024": 0.0,
			"-0.023": 0.0,
			"-0.022": 0.0,
			"-0.021": 0.0,
			"-0.02": 0.0,
			"-0.019": 0.0,
			"-0.018": 0.0,
			"-0.017": 0.0,
			"-0.016": 0.0,
			"-0.015": 0.0,
			"-0.014": 0.0,
			"-0.013": 0.0,
			"-0.012": 0.0,
			"-0.011": 0.0295150659451,
			"-0.01": 1.03564449896,
			"-0.009": 1.70155577906,
			"-0.008": 1.73881690363,
			"-0.007": 4.04652904721,
			"-0.006": 11.6344883877,
			"-0.005": 29.8250195885,
			"-0.004": 40.1669954628,
			"-0.003": 43.5700792893,
			"-0.002": 35.2292522293,
			"-0.001": 23.6048157142,
			"0.0": 21.9456851458,
			"0.001": 17.1204815405,
			"0.002": 16.5089869135,
			"0.003": 19.5435182896,
			"0.004": 13.8050492995,
			"0.005": 6.3372950982,
			"0.006": 6.90407617491,
			"0.007": 5.42552236092,
			"0.008": 6.18524464951,
			"0.009": 8.17215394385,
			"0.01": 7.0356685591,
			"0.011": 5.7982009826,
			"0.012": 7.22131761457,
			"0.013": 4.23956880489,
			"0.014": 0.00856122510975,
			"0.015": 0.0,
			"0.016": 0.0,
			"0.017": 0.0,
			"0.018": 0.0,
			"0.019": 0.0,
			"0.02": 0.0,
			"0.021": 0.0,
			"0.022": 0.0,
			"0.023": 0.0,
			"0.024": 0.0,
			"0.025": 0.0
		}
	}
}
