{
	 "smiles": "CN1CCN(CC1)C1=NC=C(Br)C(OCC2=CC=CC=C2)=N1", 
	 "Tm": 336.15, 
	 "num_atms": 41, 
	 "gaussian": { 
		 "optdone": 1, 
		 "sigma_profile": "yes", 
		 "theory": "DFT", 
		 "functional": "B3LYP", 
		 "basiset": "6-31G**", 
		 "properties": { 
			 "R2extent": 10826.2409, 
			 "electric_dipole_moment_norm": 3.25772799509, 
			 "electric_quadrupole_moment_norm": 6.82883897599, 
			 "total_energy": -3486.7771759, 
			 "HOMO_LUMO_gap": 0.18236, 
			 "cosmo_polarized_energy": -10.52, 
			 "cosmo_cavitation_energy": 45.64, 
			 "cosmo_dispersion_energy": -31.52, 
			 "cosmo_repulsion_energy": 2.44, 
			 "cosmo_total_nonelectrostatic_energy": 16.55, 
			 "SMD_solvation_energy": 1.79 
		},
		"coords": [
			{
				"x": -0.1302944576,
				"y": 4.858802313,
				"z": 1.8647542791,
				"element": "C" 
			},
			{
				"x": 0.2973327098,
				"y": 3.9434797561,
				"z": 0.8191903913,
				"element": "N" 
			},
			{
				"x": -0.6508480032,
				"y": 2.8422908993,
				"z": 0.6467081246,
				"element": "C" 
			},
			{
				"x": -0.0619664505,
				"y": 1.7224828182,
				"z": -0.2060197032,
				"element": "C" 
			},
			{
				"x": 1.1168717768,
				"y": 1.1634328408,
				"z": 0.4613972551,
				"element": "N" 
			},
			{
				"x": 1.8304128673,
				"y": 2.0304732175,
				"z": 1.4017811995,
				"element": "C" 
			},
			{
				"x": 1.6936922744,
				"y": 3.4862707585,
				"z": 0.9446667467,
				"element": "C" 
			},
			{
				"x": 1.5269473413,
				"y": -0.1128217409,
				"z": 0.222733023,
				"element": "C" 
			},
			{
				"x": 2.5750550857,
				"y": -0.5784082961,
				"z": 0.9347706419,
				"element": "N" 
			},
			{
				"x": 2.9409533081,
				"y": -1.8354594775,
				"z": 0.6758010672,
				"element": "C" 
			},
			{
				"x": 2.2983753754,
				"y": -2.6440159101,
				"z": -0.250557166,
				"element": "C" 
			},
			{
				"x": 2.855348147,
				"y": -4.431708149,
				"z": -0.5635587826,
				"element": "Br" 
			},
			{
				"x": 1.2177091045,
				"y": -2.0594192375,
				"z": -0.9401134938,
				"element": "C" 
			},
			{
				"x": 0.5777438768,
				"y": -2.8001578211,
				"z": -1.8599043719,
				"element": "O" 
			},
			{
				"x": -0.5514715007,
				"y": -2.2177843155,
				"z": -2.5397817302,
				"element": "C" 
			},
			{
				"x": -1.8277880922,
				"y": -2.2850985414,
				"z": -1.7297247775,
				"element": "C" 
			},
			{
				"x": -2.1027826048,
				"y": -3.3889496135,
				"z": -0.913604368,
				"element": "C" 
			},
			{
				"x": -3.3055410373,
				"y": -3.4637448625,
				"z": -0.2108498918,
				"element": "C" 
			},
			{
				"x": -4.2517042969,
				"y": -2.4424995793,
				"z": -0.3240351092,
				"element": "C" 
			},
			{
				"x": -3.9855163634,
				"y": -1.3415406397,
				"z": -1.1396156421,
				"element": "C" 
			},
			{
				"x": -2.7770329974,
				"y": -1.2623245148,
				"z": -1.8341631175,
				"element": "C" 
			},
			{
				"x": 0.8425040885,
				"y": -0.8112226509,
				"z": -0.7141205368,
				"element": "N" 
			},
			{
				"x": 0.5402203678,
				"y": 5.7226601219,
				"z": 1.9053260683,
				"element": "H" 
			},
			{
				"x": -1.1351114901,
				"y": 5.2306592859,
				"z": 1.6349775894,
				"element": "H" 
			},
			{
				"x": -0.1682403437,
				"y": 4.402670038,
				"z": 2.8736910157,
				"element": "H" 
			},
			{
				"x": -1.5574222891,
				"y": 3.2230723544,
				"z": 0.1594824896,
				"element": "H" 
			},
			{
				"x": -0.9700079363,
				"y": 2.411174744,
				"z": 1.6160392544,
				"element": "H" 
			},
			{
				"x": -0.7995286368,
				"y": 0.930054422,
				"z": -0.3465502424,
				"element": "H" 
			},
			{
				"x": 0.1992677058,
				"y": 2.1076409157,
				"z": -1.2024179387,
				"element": "H" 
			},
			{
				"x": 2.8789916754,
				"y": 1.7300241917,
				"z": 1.4262451157,
				"element": "H" 
			},
			{
				"x": 1.4371732161,
				"y": 1.9041155826,
				"z": 2.4211525585,
				"element": "H" 
			},
			{
				"x": 2.2237435085,
				"y": 4.1302911766,
				"z": 1.6536529536,
				"element": "H" 
			},
			{
				"x": 2.2034186356,
				"y": 3.5935056673,
				"z": -0.0230266028,
				"element": "H" 
			},
			{
				"x": 3.7867464415,
				"y": -2.2256748451,
				"z": 1.2379277474,
				"element": "H" 
			},
			{
				"x": -0.3249847947,
				"y": -1.186439111,
				"z": -2.81928474,
				"element": "H" 
			},
			{
				"x": -0.6364156191,
				"y": -2.8231336232,
				"z": -3.4476149688,
				"element": "H" 
			},
			{
				"x": -1.3656652729,
				"y": -4.181210981,
				"z": -0.8234836559,
				"element": "H" 
			},
			{
				"x": -3.5054198784,
				"y": -4.3221842839,
				"z": 0.4242558926,
				"element": "H" 
			},
			{
				"x": -5.1886276661,
				"y": -2.5032967976,
				"z": 0.2221743262,
				"element": "H" 
			},
			{
				"x": -4.7137199677,
				"y": -0.5402930075,
				"z": -1.2293494292,
				"element": "H" 
			},
			{
				"x": -2.5691178072,
				"y": -0.3988131045,
				"z": -2.4617514712,
				"element": "H" 
			}
		],
		 "valence_orbital": [ 
			{
				"type": "occ",
				"energy": -0.25291,
				"method": "rhf"
			},
			{
				"type": "occ",
				"energy": -0.25094,
				"method": "rhf"
			},
			{
				"type": "occ",
				"energy": -0.24439,
				"method": "rhf"
			},
			{
				"type": "occ",
				"energy": -0.20951,
				"method": "rhf"
			},
			{
				"type": "occ",
				"energy": -0.20304,
				"method": "rhf"
			},
			{
				"type": "unocc",
				"energy": -0.02068,
				"method": "rhf"
			},
			{
				"type": "unocc",
				"energy": -0.00701,
				"method": "rhf"
			},
			{
				"type": "unocc",
				"energy": -0.00479,
				"method": "rhf"
			},
			{
				"type": "unocc",
				"energy": 0.00588,
				"method": "rhf"
			},
			{
				"type": "unocc",
				"energy": 0.01697,
				"method": "rhf"
			}
		],
		"cosmo_sigma_profile": { 
			"-0.025": 0.0,
			"-0.024": 0.0,
			"-0.023": 0.0,
			"-0.022": 0.0,
			"-0.021": 0.0,
			"-0.02": 0.0,
			"-0.019": 0.0,
			"-0.018": 0.0,
			"-0.017": 0.0,
			"-0.016": 0.0,
			"-0.015": 0.0,
			"-0.014": 0.0,
			"-0.013": 0.0,
			"-0.012": 0.0,
			"-0.011": 0.0,
			"-0.01": 0.0,
			"-0.009": 0.0,
			"-0.008": 0.539128137204,
			"-0.007": 3.62489760412,
			"-0.006": 9.36113926598,
			"-0.005": 18.5140371941,
			"-0.004": 33.1490604065,
			"-0.003": 45.0321324604,
			"-0.002": 40.4991175035,
			"-0.001": 37.7352972064,
			"0.0": 33.7797655876,
			"0.001": 27.329596251,
			"0.002": 22.3274287327,
			"0.003": 19.2461295301,
			"0.004": 22.2591694518,
			"0.005": 20.6164329239,
			"0.006": 12.3723348895,
			"0.007": 4.51092005153,
			"0.008": 3.58070848687,
			"0.009": 2.79119701812,
			"0.01": 2.16123780928,
			"0.011": 1.57687967602,
			"0.012": 1.45104281615,
			"0.013": 0.659329379244,
			"0.014": 0.113430259503,
			"0.015": 0.746249745717,
			"0.016": 0.40145840278,
			"0.017": 0.0,
			"0.018": 0.0,
			"0.019": 0.0,
			"0.02": 0.0,
			"0.021": 0.0,
			"0.022": 0.0,
			"0.023": 0.0,
			"0.024": 0.0,
			"0.025": 0.0
		}
	}
}
