{
	 "smiles": "OC1=CC2=C(OC(=O)S2)C=C1", 
	 "Tm": 445.15, 
	 "num_atms": 15, 
	 "gaussian": { 
		 "optdone": 1, 
		 "sigma_profile": "yes", 
		 "theory": "DFT", 
		 "functional": "B3LYP", 
		 "basiset": "6-31G**", 
		 "properties": { 
			 "R2extent": 2495.4164, 
			 "electric_dipole_moment_norm": 4.25603702639, 
			 "electric_quadrupole_moment_norm": 16.0306109416, 
			 "total_energy": -893.012926917, 
			 "HOMO_LUMO_gap": 0.19789, 
			 "cosmo_polarized_energy": -11.83, 
			 "cosmo_cavitation_energy": 21.75, 
			 "cosmo_dispersion_energy": -17.1, 
			 "cosmo_repulsion_energy": 1.31, 
			 "cosmo_total_nonelectrostatic_energy": 5.95, 
			 "SMD_solvation_energy": 5.21 
		},
		"coords": [
			{
				"x": -0.8788382257,
				"y": -2.7960698197,
				"z": -2.2974123951,
				"element": "O" 
			},
			{
				"x": -0.2775163675,
				"y": -1.960507704,
				"z": -1.4010987375,
				"element": "C" 
			},
			{
				"x": 0.9542992752,
				"y": -1.3455634265,
				"z": -1.6582238949,
				"element": "C" 
			},
			{
				"x": 1.4907845523,
				"y": -0.507694081,
				"z": -0.6822667316,
				"element": "C" 
			},
			{
				"x": 0.8123863298,
				"y": -0.29198089,
				"z": 0.5174428839,
				"element": "C" 
			},
			{
				"x": 1.4364853262,
				"y": 0.5554919972,
				"z": 1.4098560947,
				"element": "O" 
			},
			{
				"x": 2.6344416192,
				"y": 1.0494181708,
				"z": 0.9608040284,
				"element": "C" 
			},
			{
				"x": 3.3209182257,
				"y": 1.7978926667,
				"z": 1.591760667,
				"element": "O" 
			},
			{
				"x": 2.9993427663,
				"y": 0.4042192345,
				"z": -0.6942965891,
				"element": "S" 
			},
			{
				"x": -0.4089463573,
				"y": -0.8980273531,
				"z": 0.7793879428,
				"element": "C" 
			},
			{
				"x": -0.9522665772,
				"y": -1.7371362964,
				"z": -0.1910331262,
				"element": "C" 
			},
			{
				"x": -0.328939829,
				"y": -2.8752494661,
				"z": -3.0873919339,
				"element": "H" 
			},
			{
				"x": 1.4775189164,
				"y": -1.5177839512,
				"z": -2.5946365248,
				"element": "H" 
			},
			{
				"x": -0.9189723485,
				"y": -0.7162119272,
				"z": 1.7187461163,
				"element": "H" 
			},
			{
				"x": -1.9034973059,
				"y": -2.2314971538,
				"z": -0.0297378,
				"element": "H" 
			}
		],
		 "valence_orbital": [ 
			{
				"type": "occ",
				"energy": -0.35022,
				"method": "rhf"
			},
			{
				"type": "occ",
				"energy": -0.3089,
				"method": "rhf"
			},
			{
				"type": "occ",
				"energy": -0.2984,
				"method": "rhf"
			},
			{
				"type": "occ",
				"energy": -0.25706,
				"method": "rhf"
			},
			{
				"type": "occ",
				"energy": -0.22744,
				"method": "rhf"
			},
			{
				"type": "unocc",
				"energy": -0.02955,
				"method": "rhf"
			},
			{
				"type": "unocc",
				"energy": -0.01106,
				"method": "rhf"
			},
			{
				"type": "unocc",
				"energy": -0.0097,
				"method": "rhf"
			},
			{
				"type": "unocc",
				"energy": 0.00731,
				"method": "rhf"
			},
			{
				"type": "unocc",
				"energy": 0.05389,
				"method": "rhf"
			}
		],
		"cosmo_sigma_profile": { 
			"-0.025": 0.0,
			"-0.024": 0.0,
			"-0.023": 0.0,
			"-0.022": 0.0,
			"-0.021": 0.0,
			"-0.02": 0.0,
			"-0.019": 0.146668475056,
			"-0.018": 0.945233587172,
			"-0.017": 1.39889463748,
			"-0.016": 1.1328134821,
			"-0.015": 1.45479839135,
			"-0.014": 0.370443352524,
			"-0.013": 0.875301942621,
			"-0.012": 0.768952264606,
			"-0.011": 1.43693029531,
			"-0.01": 1.70351118179,
			"-0.009": 2.60244265996,
			"-0.008": 3.87193088368,
			"-0.007": 5.0141244753,
			"-0.006": 6.86735383869,
			"-0.005": 7.19814408408,
			"-0.004": 6.95731136342,
			"-0.003": 7.85131455003,
			"-0.002": 11.3246939153,
			"-0.001": 11.6920286086,
			"0.0": 15.5832548846,
			"0.001": 15.5293707249,
			"0.002": 17.7940177198,
			"0.003": 15.9202649492,
			"0.004": 6.40081465971,
			"0.005": 3.85711369952,
			"0.006": 5.84082425713,
			"0.007": 3.96419161157,
			"0.008": 3.38204676073,
			"0.009": 4.92067054074,
			"0.01": 8.16057241037,
			"0.011": 2.75283285797,
			"0.012": 0.0440257427477,
			"0.013": 0.0,
			"0.014": 0.0,
			"0.015": 0.0,
			"0.016": 0.0,
			"0.017": 0.0,
			"0.018": 0.0,
			"0.019": 0.0,
			"0.02": 0.0,
			"0.021": 0.0,
			"0.022": 0.0,
			"0.023": 0.0,
			"0.024": 0.0,
			"0.025": 0.0
		}
	}
}
