{
	 "smiles": "OC(=O)C1=CC(=C(F)C=C1)S(Cl)(=O)=O", 
	 "Tm": 412.15, 
	 "num_atms": 18, 
	 "gaussian": { 
		 "optdone": 1, 
		 "sigma_profile": "yes", 
		 "theory": "DFT", 
		 "functional": "B3LYP", 
		 "basiset": "6-31G**", 
		 "properties": { 
			 "R2extent": 3993.9271, 
			 "electric_dipole_moment_norm": 6.58773390932, 
			 "electric_quadrupole_moment_norm": 12.8739922542, 
			 "total_energy": -1528.19054183, 
			 "HOMO_LUMO_gap": 0.19038, 
			 "cosmo_polarized_energy": -20.0, 
			 "cosmo_cavitation_energy": 27.42, 
			 "cosmo_dispersion_energy": -20.4, 
			 "cosmo_repulsion_energy": 1.54, 
			 "cosmo_total_nonelectrostatic_energy": 8.56, 
			 "SMD_solvation_energy": 5.08 
		},
		"coords": [
			{
				"x": 1.4029844674,
				"y": -3.3813163288,
				"z": 1.7583519195,
				"element": "O" 
			},
			{
				"x": 0.5325205952,
				"y": -2.3781108758,
				"z": 2.0382864032,
				"element": "C" 
			},
			{
				"x": -0.1309467273,
				"y": -2.4067742015,
				"z": 3.0453856848,
				"element": "O" 
			},
			{
				"x": 0.4522077043,
				"y": -1.2518600254,
				"z": 1.0464364005,
				"element": "C" 
			},
			{
				"x": -0.6955483486,
				"y": -0.4509313464,
				"z": 1.081098918,
				"element": "C" 
			},
			{
				"x": -0.819045162,
				"y": 0.6169502797,
				"z": 0.1983097439,
				"element": "C" 
			},
			{
				"x": 0.2070606865,
				"y": 0.9033325154,
				"z": -0.7106488091,
				"element": "C" 
			},
			{
				"x": 0.0809342029,
				"y": 1.9176250594,
				"z": -1.5653788339,
				"element": "F" 
			},
			{
				"x": 1.360696854,
				"y": 0.1299028451,
				"z": -0.7387463766,
				"element": "C" 
			},
			{
				"x": 1.4777984253,
				"y": -0.9439200844,
				"z": 0.1413454503,
				"element": "C" 
			},
			{
				"x": -2.2812129208,
				"y": 1.6489245453,
				"z": 0.3004636362,
				"element": "S" 
			},
			{
				"x": -3.2269850096,
				"y": 1.1784426205,
				"z": -1.53806277,
				"element": "Cl" 
			},
			{
				"x": -1.9002341257,
				"y": 3.0508310275,
				"z": 0.2343590544,
				"element": "O" 
			},
			{
				"x": -3.1333850919,
				"y": 1.1210355012,
				"z": 1.3560659379,
				"element": "O" 
			},
			{
				"x": 1.7133715302,
				"y": -3.3263439236,
				"z": 0.8442033254,
				"element": "H" 
			},
			{
				"x": -1.4797859577,
				"y": -0.6661933381,
				"z": 1.7980906655,
				"element": "H" 
			},
			{
				"x": 2.1469210347,
				"y": 0.3844403611,
				"z": -1.440448328,
				"element": "H" 
			},
			{
				"x": 2.3996478429,
				"y": -1.5190346314,
				"z": 0.1324879781,
				"element": "H" 
			}
		],
		 "valence_orbital": [ 
			{
				"type": "occ",
				"energy": -0.3409,
				"method": "rhf"
			},
			{
				"type": "occ",
				"energy": -0.3244,
				"method": "rhf"
			},
			{
				"type": "occ",
				"energy": -0.31651,
				"method": "rhf"
			},
			{
				"type": "occ",
				"energy": -0.30501,
				"method": "rhf"
			},
			{
				"type": "occ",
				"energy": -0.29281,
				"method": "rhf"
			},
			{
				"type": "unocc",
				"energy": -0.10243,
				"method": "rhf"
			},
			{
				"type": "unocc",
				"energy": -0.07986,
				"method": "rhf"
			},
			{
				"type": "unocc",
				"energy": -0.0684,
				"method": "rhf"
			},
			{
				"type": "unocc",
				"energy": 0.00404,
				"method": "rhf"
			},
			{
				"type": "unocc",
				"energy": 0.02724,
				"method": "rhf"
			}
		],
		"cosmo_sigma_profile": { 
			"-0.025": 0.0,
			"-0.024": 0.0,
			"-0.023": 0.0,
			"-0.022": 0.0,
			"-0.021": 0.0,
			"-0.02": 0.456871028934,
			"-0.019": 0.986142446629,
			"-0.018": 1.37611954125,
			"-0.017": 0.923673693696,
			"-0.016": 0.937195973965,
			"-0.015": 0.988542965935,
			"-0.014": 1.26687014541,
			"-0.013": 1.41761820968,
			"-0.012": 1.28125752799,
			"-0.011": 1.65001154477,
			"-0.01": 3.14630247757,
			"-0.009": 5.07371231697,
			"-0.008": 3.94449587695,
			"-0.007": 4.59176232302,
			"-0.006": 7.10203309053,
			"-0.005": 9.22425635473,
			"-0.004": 12.3643125011,
			"-0.003": 17.9940491552,
			"-0.002": 17.7467027055,
			"-0.001": 13.6733597793,
			"0.0": 9.6658808682,
			"0.001": 12.2850015449,
			"0.002": 22.0337051037,
			"0.003": 15.41596621,
			"0.004": 5.49755588022,
			"0.005": 5.65233810517,
			"0.006": 6.61552082314,
			"0.007": 11.528897768,
			"0.008": 11.3947594712,
			"0.009": 5.22041050055,
			"0.01": 5.04065018799,
			"0.011": 5.11344996036,
			"0.012": 2.10098194602,
			"0.013": 0.198640535511,
			"0.014": 0.0,
			"0.015": 0.0,
			"0.016": 0.0,
			"0.017": 0.0,
			"0.018": 0.0,
			"0.019": 0.0,
			"0.02": 0.0,
			"0.021": 0.0,
			"0.022": 0.0,
			"0.023": 0.0,
			"0.024": 0.0,
			"0.025": 0.0
		}
	}
}
