{
	 "smiles": "COC1=CC=CC=C1C1=CC=C(O1)C=C1C(=O)OC(C)(C)OC1=O", 
	 "Tm": 420.15, 
	 "num_atms": 40, 
	 "gaussian": { 
		 "optdone": 1, 
		 "sigma_profile": "yes", 
		 "theory": "DFT", 
		 "functional": "B3LYP", 
		 "basiset": "6-31G**", 
		 "properties": { 
			 "R2extent": 11910.6997, 
			 "electric_dipole_moment_norm": 6.32229079211, 
			 "electric_quadrupole_moment_norm": 34.468125501, 
			 "total_energy": -1146.89301322, 
			 "HOMO_LUMO_gap": 0.11946, 
			 "cosmo_polarized_energy": -18.67, 
			 "cosmo_cavitation_energy": 44.36, 
			 "cosmo_dispersion_energy": -31.48, 
			 "cosmo_repulsion_energy": 2.35, 
			 "cosmo_total_nonelectrostatic_energy": 15.22, 
			 "SMD_solvation_energy": 10.5 
		},
		"coords": [
			{
				"x": 6.943542239,
				"y": 0.2850353906,
				"z": 2.1818115722,
				"element": "C" 
			},
			{
				"x": 5.5430768703,
				"y": 0.2108163157,
				"z": 1.9503671715,
				"element": "O" 
			},
			{
				"x": 5.0297136853,
				"y": 0.7988193496,
				"z": 0.8324347503,
				"element": "C" 
			},
			{
				"x": 5.8121583322,
				"y": 1.4682759475,
				"z": -0.1134264251,
				"element": "C" 
			},
			{
				"x": 5.2149872546,
				"y": 2.0485065583,
				"z": -1.233851177,
				"element": "C" 
			},
			{
				"x": 3.8356003467,
				"y": 1.9668632899,
				"z": -1.4233743772,
				"element": "C" 
			},
			{
				"x": 3.0511026,
				"y": 1.3023276378,
				"z": -0.4868014249,
				"element": "C" 
			},
			{
				"x": 3.6246772672,
				"y": 0.7095562513,
				"z": 0.6550352,
				"element": "C" 
			},
			{
				"x": 2.7626866677,
				"y": 0.0293236301,
				"z": 1.6076826284,
				"element": "C" 
			},
			{
				"x": 2.9635762411,
				"y": -0.741602837,
				"z": 2.7467257057,
				"element": "C" 
			},
			{
				"x": 1.6880690919,
				"y": -1.1269243668,
				"z": 3.1940310328,
				"element": "C" 
			},
			{
				"x": 0.757928921,
				"y": -0.5815117353,
				"z": 2.3151888347,
				"element": "C" 
			},
			{
				"x": 1.4327198385,
				"y": 0.1247499244,
				"z": 1.3582090611,
				"element": "O" 
			},
			{
				"x": -0.651000707,
				"y": -0.6792723805,
				"z": 2.3679155169,
				"element": "C" 
			},
			{
				"x": -1.6852655584,
				"y": -0.1961514468,
				"z": 1.6035042875,
				"element": "C" 
			},
			{
				"x": -3.0439188837,
				"y": -0.5325170556,
				"z": 2.1064893322,
				"element": "C" 
			},
			{
				"x": -3.2786195075,
				"y": -1.3322176972,
				"z": 2.9867990292,
				"element": "O" 
			},
			{
				"x": -4.0875346079,
				"y": 0.096062381,
				"z": 1.4902956076,
				"element": "O" 
			},
			{
				"x": -3.8302427917,
				"y": 1.2780963355,
				"z": 0.7205579592,
				"element": "C" 
			},
			{
				"x": -5.0424421538,
				"y": 1.4658954377,
				"z": -0.1759547276,
				"element": "C" 
			},
			{
				"x": -3.5786203397,
				"y": 2.466100759,
				"z": 1.6500332086,
				"element": "C" 
			},
			{
				"x": -2.7147854621,
				"y": 1.0891747519,
				"z": -0.1558414441,
				"element": "O" 
			},
			{
				"x": -1.5595614314,
				"y": 0.5157010446,
				"z": 0.3146364067,
				"element": "C" 
			},
			{
				"x": -0.5712326782,
				"y": 0.5777007692,
				"z": -0.3805979169,
				"element": "O" 
			},
			{
				"x": 7.5102382061,
				"y": -0.2068990063,
				"z": 1.382029155,
				"element": "H" 
			},
			{
				"x": 7.2803074256,
				"y": 1.3242241266,
				"z": 2.2787744286,
				"element": "H" 
			},
			{
				"x": 7.1191983779,
				"y": -0.2392813328,
				"z": 3.1220681167,
				"element": "H" 
			},
			{
				"x": 6.8847936095,
				"y": 1.5411406521,
				"z": 0.0160937969,
				"element": "H" 
			},
			{
				"x": 5.8388318547,
				"y": 2.5628284163,
				"z": -1.9591162264,
				"element": "H" 
			},
			{
				"x": 3.3720818145,
				"y": 2.4135100355,
				"z": -2.296888142,
				"element": "H" 
			},
			{
				"x": 1.9780300678,
				"y": 1.2225994677,
				"z": -0.6259936004,
				"element": "H" 
			},
			{
				"x": 3.91915933,
				"y": -0.986417116,
				"z": 3.1770763923,
				"element": "H" 
			},
			{
				"x": 1.4511447273,
				"y": -1.7348976814,
				"z": 4.0563288043,
				"element": "H" 
			},
			{
				"x": -0.9912170337,
				"y": -1.2522208397,
				"z": 3.2287636645,
				"element": "H" 
			},
			{
				"x": -5.1656431026,
				"y": 0.5852780841,
				"z": -0.8096220881,
				"element": "H" 
			},
			{
				"x": -5.9399973478,
				"y": 1.5965549744,
				"z": 0.4328406156,
				"element": "H" 
			},
			{
				"x": -4.9041009751,
				"y": 2.3449798975,
				"z": -0.8094554745,
				"element": "H" 
			},
			{
				"x": -3.4118296799,
				"y": 3.3695970139,
				"z": 1.0583664356,
				"element": "H" 
			},
			{
				"x": -4.4436228263,
				"y": 2.6184980941,
				"z": 2.3001929807,
				"element": "H" 
			},
			{
				"x": -2.699089682,
				"y": 2.2940969591,
				"z": 2.2761713293,
				"element": "H" 
			}
		],
		 "valence_orbital": [ 
			{
				"type": "occ",
				"energy": -0.27788,
				"method": "rhf"
			},
			{
				"type": "occ",
				"energy": -0.26901,
				"method": "rhf"
			},
			{
				"type": "occ",
				"energy": -0.25779,
				"method": "rhf"
			},
			{
				"type": "occ",
				"energy": -0.24023,
				"method": "rhf"
			},
			{
				"type": "occ",
				"energy": -0.20851,
				"method": "rhf"
			},
			{
				"type": "unocc",
				"energy": -0.08905,
				"method": "rhf"
			},
			{
				"type": "unocc",
				"energy": -0.02465,
				"method": "rhf"
			},
			{
				"type": "unocc",
				"energy": 0.00189,
				"method": "rhf"
			},
			{
				"type": "unocc",
				"energy": 0.01235,
				"method": "rhf"
			},
			{
				"type": "unocc",
				"energy": 0.04787,
				"method": "rhf"
			}
		],
		"cosmo_sigma_profile": { 
			"-0.025": 0.0,
			"-0.024": 0.0,
			"-0.023": 0.0,
			"-0.022": 0.0,
			"-0.021": 0.0,
			"-0.02": 0.0,
			"-0.019": 0.0,
			"-0.018": 0.0,
			"-0.017": 0.0,
			"-0.016": 0.0,
			"-0.015": 0.0,
			"-0.014": 0.0,
			"-0.013": 0.0,
			"-0.012": 0.0,
			"-0.011": 0.0,
			"-0.01": 0.0208550697147,
			"-0.009": 3.24442002537,
			"-0.008": 2.94205625593,
			"-0.007": 6.04210694311,
			"-0.006": 20.6374699952,
			"-0.005": 34.5015698017,
			"-0.004": 31.1465607825,
			"-0.003": 28.8814109519,
			"-0.002": 28.1617896498,
			"-0.001": 28.5166295905,
			"0.0": 27.7716726712,
			"0.001": 26.3201882096,
			"0.002": 24.4143587317,
			"0.003": 19.0954337756,
			"0.004": 16.3856744536,
			"0.005": 10.0391256913,
			"0.006": 5.45381148699,
			"0.007": 6.46461973209,
			"0.008": 5.49267822336,
			"0.009": 5.15403700158,
			"0.01": 6.91382002277,
			"0.011": 8.10981649531,
			"0.012": 6.17552508295,
			"0.013": 2.72051330064,
			"0.014": 0.133680009407,
			"0.015": 0.0,
			"0.016": 0.0,
			"0.017": 0.0,
			"0.018": 0.0,
			"0.019": 0.0,
			"0.02": 0.0,
			"0.021": 0.0,
			"0.022": 0.0,
			"0.023": 0.0,
			"0.024": 0.0,
			"0.025": 0.0
		}
	}
}
