{
	 "smiles": "CCOCCC1=CC=C(OCCNC2=NC=NC(CC)=C2Cl)C(C)=C1C", 
	 "Tm": 343.15, 
	 "num_atms": 54, 
	 "gaussian": { 
		 "optdone": 1, 
		 "sigma_profile": "yes", 
		 "theory": "DFT", 
		 "functional": "B3LYP", 
		 "basiset": "6-31G**", 
		 "properties": { 
			 "R2extent": 19972.8433, 
			 "electric_dipole_moment_norm": 3.28110985034, 
			 "electric_quadrupole_moment_norm": 11.4918750219, 
			 "total_energy": -1553.90998138, 
			 "HOMO_LUMO_gap": 0.18447, 
			 "cosmo_polarized_energy": -12.53, 
			 "cosmo_cavitation_energy": 56.84, 
			 "cosmo_dispersion_energy": -39.34, 
			 "cosmo_repulsion_energy": 3.05, 
			 "cosmo_total_nonelectrostatic_energy": 20.54, 
			 "SMD_solvation_energy": 6.09 
		},
		"coords": [
			{
				"x": 3.8232612762,
				"y": -0.0753122534,
				"z": -5.8441462924,
				"element": "C" 
			},
			{
				"x": 4.7844086039,
				"y": -0.4463085063,
				"z": -4.7269463473,
				"element": "C" 
			},
			{
				"x": 4.6589004286,
				"y": 0.5082612274,
				"z": -3.6862931924,
				"element": "O" 
			},
			{
				"x": 5.515717565,
				"y": 0.2584907297,
				"z": -2.5882867872,
				"element": "C" 
			},
			{
				"x": 5.2694551405,
				"y": 1.2992683862,
				"z": -1.4914294595,
				"element": "C" 
			},
			{
				"x": 3.9115193283,
				"y": 1.1998257591,
				"z": -0.818136054,
				"element": "C" 
			},
			{
				"x": 3.7626861364,
				"y": 0.3013454141,
				"z": 0.2388509933,
				"element": "C" 
			},
			{
				"x": 2.54984035,
				"y": 0.1454028392,
				"z": 0.9063976832,
				"element": "C" 
			},
			{
				"x": 1.4594067244,
				"y": 0.922725972,
				"z": 0.5171165014,
				"element": "C" 
			},
			{
				"x": 0.2250686077,
				"y": 0.8376726629,
				"z": 1.1258145868,
				"element": "O" 
			},
			{
				"x": 0.0402873951,
				"y": -0.0920015921,
				"z": 2.184940175,
				"element": "C" 
			},
			{
				"x": -1.4128111281,
				"y": 0.0003542057,
				"z": 2.624421508,
				"element": "C" 
			},
			{
				"x": -2.272029866,
				"y": -0.3240418878,
				"z": 1.4882308952,
				"element": "N" 
			},
			{
				"x": -3.6411102078,
				"y": -0.2808720765,
				"z": 1.4290868667,
				"element": "C" 
			},
			{
				"x": -4.1224621061,
				"y": 0.0514067731,
				"z": 0.2083847574,
				"element": "N" 
			},
			{
				"x": -5.4378850654,
				"y": 0.0968089594,
				"z": 0.0547168428,
				"element": "C" 
			},
			{
				"x": -6.3730856917,
				"y": -0.1263076911,
				"z": 0.9798758962,
				"element": "N" 
			},
			{
				"x": -5.9320232263,
				"y": -0.4803854241,
				"z": 2.1990471972,
				"element": "C" 
			},
			{
				"x": -6.9690651007,
				"y": -0.7691127716,
				"z": 3.2637558708,
				"element": "C" 
			},
			{
				"x": -8.4141861189,
				"y": -0.5441080412,
				"z": 2.8188745674,
				"element": "C" 
			},
			{
				"x": -4.5593691679,
				"y": -0.5876593481,
				"z": 2.4588886479,
				"element": "C" 
			},
			{
				"x": -4.0385895909,
				"y": -1.1604688763,
				"z": 4.0437742531,
				"element": "Cl" 
			},
			{
				"x": 1.5726372906,
				"y": 1.8587265537,
				"z": -0.5316282511,
				"element": "C" 
			},
			{
				"x": 0.3754569853,
				"y": 2.7103009034,
				"z": -0.8978117803,
				"element": "C" 
			},
			{
				"x": 2.8000562831,
				"y": 1.9799108514,
				"z": -1.2123978183,
				"element": "C" 
			},
			{
				"x": 2.9335575892,
				"y": 2.960869389,
				"z": -2.3596175388,
				"element": "C" 
			},
			{
				"x": 4.0559267261,
				"y": 0.9187433673,
				"z": -6.2372607841,
				"element": "H" 
			},
			{
				"x": 3.8932321674,
				"y": -0.7972787942,
				"z": -6.6638333917,
				"element": "H" 
			},
			{
				"x": 2.7933248322,
				"y": -0.066459823,
				"z": -5.4760567324,
				"element": "H" 
			},
			{
				"x": 5.8228057312,
				"y": -0.466911298,
				"z": -5.1002934281,
				"element": "H" 
			},
			{
				"x": 4.5602328663,
				"y": -1.4557320119,
				"z": -4.3426727459,
				"element": "H" 
			},
			{
				"x": 5.3380913752,
				"y": -0.7543248494,
				"z": -2.1882951305,
				"element": "H" 
			},
			{
				"x": 6.5704815103,
				"y": 0.3029154308,
				"z": -2.9117043163,
				"element": "H" 
			},
			{
				"x": 5.4350424937,
				"y": 2.2946316226,
				"z": -1.9140600894,
				"element": "H" 
			},
			{
				"x": 6.0498929573,
				"y": 1.1523295585,
				"z": -0.7345551978,
				"element": "H" 
			},
			{
				"x": 4.6158679711,
				"y": -0.2943745475,
				"z": 0.5558533633,
				"element": "H" 
			},
			{
				"x": 2.4735439183,
				"y": -0.5652709902,
				"z": 1.7202766699,
				"element": "H" 
			},
			{
				"x": 0.2669569233,
				"y": -1.1110827299,
				"z": 1.8427507178,
				"element": "H" 
			},
			{
				"x": 0.6961211822,
				"y": 0.1465806436,
				"z": 3.0331083524,
				"element": "H" 
			},
			{
				"x": -1.6130665854,
				"y": 1.011423402,
				"z": 3.0080506807,
				"element": "H" 
			},
			{
				"x": -1.5667804731,
				"y": -0.7033490346,
				"z": 3.4425525958,
				"element": "H" 
			},
			{
				"x": -1.8901403816,
				"y": 0.0157551072,
				"z": 0.6111839327,
				"element": "H" 
			},
			{
				"x": -5.7945374103,
				"y": 0.3572566353,
				"z": -0.9407463838,
				"element": "H" 
			},
			{
				"x": -6.740358285,
				"y": -0.1554887662,
				"z": 4.1447040829,
				"element": "H" 
			},
			{
				"x": -6.8328159134,
				"y": -1.8050980882,
				"z": 3.601784414,
				"element": "H" 
			},
			{
				"x": -8.670699117,
				"y": -1.1781023912,
				"z": 1.9669729762,
				"element": "H" 
			},
			{
				"x": -9.0962920087,
				"y": -0.7740634958,
				"z": 3.6433386261,
				"element": "H" 
			},
			{
				"x": -8.5785220292,
				"y": 0.4916761092,
				"z": 2.5112431648,
				"element": "H" 
			},
			{
				"x": -0.0514903896,
				"y": 2.4151351674,
				"z": -1.8644914532,
				"element": "H" 
			},
			{
				"x": 0.646828474,
				"y": 3.76771352,
				"z": -0.9749044361,
				"element": "H" 
			},
			{
				"x": -0.4118388963,
				"y": 2.620147753,
				"z": -0.1501283847,
				"element": "H" 
			},
			{
				"x": 1.9631958193,
				"y": 3.2359658074,
				"z": -2.7750814759,
				"element": "H" 
			},
			{
				"x": 3.5294953965,
				"y": 2.5320348465,
				"z": -3.1666086656,
				"element": "H" 
			},
			{
				"x": 3.4214587108,
				"y": 3.8908356917,
				"z": -2.0365106826,
				"element": "H" 
			}
		],
		 "valence_orbital": [ 
			{
				"type": "occ",
				"energy": -0.25431,
				"method": "rhf"
			},
			{
				"type": "occ",
				"energy": -0.24882,
				"method": "rhf"
			},
			{
				"type": "occ",
				"energy": -0.2295,
				"method": "rhf"
			},
			{
				"type": "occ",
				"energy": -0.22759,
				"method": "rhf"
			},
			{
				"type": "occ",
				"energy": -0.20976,
				"method": "rhf"
			},
			{
				"type": "unocc",
				"energy": -0.02529,
				"method": "rhf"
			},
			{
				"type": "unocc",
				"energy": -0.01237,
				"method": "rhf"
			},
			{
				"type": "unocc",
				"energy": 0.00531,
				"method": "rhf"
			},
			{
				"type": "unocc",
				"energy": 0.01538,
				"method": "rhf"
			},
			{
				"type": "unocc",
				"energy": 0.02882,
				"method": "rhf"
			}
		],
		"cosmo_sigma_profile": { 
			"-0.025": 0.0,
			"-0.024": 0.0,
			"-0.023": 0.0,
			"-0.022": 0.0,
			"-0.021": 0.0,
			"-0.02": 0.0,
			"-0.019": 0.0,
			"-0.018": 0.0,
			"-0.017": 0.0,
			"-0.016": 0.0,
			"-0.015": 0.0,
			"-0.014": 0.0,
			"-0.013": 0.0,
			"-0.012": 0.0,
			"-0.011": 0.0,
			"-0.01": 0.0,
			"-0.009": 0.0,
			"-0.008": 0.215856731068,
			"-0.007": 2.24207154609,
			"-0.006": 10.3682973178,
			"-0.005": 19.04118572,
			"-0.004": 28.6745220799,
			"-0.003": 55.2983579298,
			"-0.002": 59.5479866664,
			"-0.001": 58.9618769263,
			"0.0": 51.0495231304,
			"0.001": 41.7710829241,
			"0.002": 25.7067352664,
			"0.003": 21.6403484516,
			"0.004": 18.9091033954,
			"0.005": 13.2502900005,
			"0.006": 12.6288346523,
			"0.007": 10.2882245464,
			"0.008": 5.06267392521,
			"0.009": 3.77194594176,
			"0.01": 3.17586044997,
			"0.011": 2.84481285878,
			"0.012": 1.52500603661,
			"0.013": 1.55031546725,
			"0.014": 0.699315239461,
			"0.015": 0.06223149344,
			"0.016": 0.0,
			"0.017": 0.0,
			"0.018": 0.0,
			"0.019": 0.0,
			"0.02": 0.0,
			"0.021": 0.0,
			"0.022": 0.0,
			"0.023": 0.0,
			"0.024": 0.0,
			"0.025": 0.0
		}
	}
}
