{
	 "smiles": "CCN(CC)CCOCC1=CC(Br)=CC(Br)=C1OC", 
	 "Tm": 298.15, 
	 "num_atms": 40, 
	 "gaussian": { 
		 "optdone": 1, 
		 "sigma_profile": "yes", 
		 "theory": "DFT", 
		 "functional": "B3LYP", 
		 "basiset": "6-31G**", 
		 "properties": { 
			 "R2extent": 18913.4627, 
			 "electric_dipole_moment_norm": 1.95646691769, 
			 "electric_quadrupole_moment_norm": 10.9655418576, 
			 "total_energy": -5894.11596294, 
			 "HOMO_LUMO_gap": 0.16898, 
			 "cosmo_polarized_energy": -8.26, 
			 "cosmo_cavitation_energy": 45.94, 
			 "cosmo_dispersion_energy": -31.35, 
			 "cosmo_repulsion_energy": 2.47, 
			 "cosmo_total_nonelectrostatic_energy": 17.07, 
			 "SMD_solvation_energy": 4.44 
		},
		"coords": [
			{
				"x": 0.81597378,
				"y": 2.3168016806,
				"z": -3.3358107615,
				"element": "C" 
			},
			{
				"x": 0.4804906743,
				"y": 1.124666704,
				"z": -2.434898898,
				"element": "C" 
			},
			{
				"x": 0.1621338197,
				"y": 1.5145386182,
				"z": -1.0643087702,
				"element": "N" 
			},
			{
				"x": -0.9875777278,
				"y": 2.3980179297,
				"z": -0.8794713347,
				"element": "C" 
			},
			{
				"x": -2.3556436291,
				"y": 1.9257012669,
				"z": -1.4079629167,
				"element": "C" 
			},
			{
				"x": 0.3849952015,
				"y": 0.4915220963,
				"z": -0.0563488721,
				"element": "C" 
			},
			{
				"x": -0.5220270222,
				"y": -0.7522304753,
				"z": -0.0830739057,
				"element": "C" 
			},
			{
				"x": 0.011163687,
				"y": -1.6714994528,
				"z": 0.8630920574,
				"element": "O" 
			},
			{
				"x": -0.6572079395,
				"y": -2.9290820329,
				"z": 0.9106838409,
				"element": "C" 
			},
			{
				"x": -2.0220904421,
				"y": -2.8703127936,
				"z": 1.5692441213,
				"element": "C" 
			},
			{
				"x": -3.1880861876,
				"y": -2.8724211966,
				"z": 0.7982205204,
				"element": "C" 
			},
			{
				"x": -4.4361006949,
				"y": -2.8097857896,
				"z": 1.4136626071,
				"element": "C" 
			},
			{
				"x": -6.0185428868,
				"y": -2.8072062232,
				"z": 0.3437839156,
				"element": "Br" 
			},
			{
				"x": -4.5518263721,
				"y": -2.7554845423,
				"z": 2.7991197517,
				"element": "C" 
			},
			{
				"x": -3.3881860077,
				"y": -2.7628508644,
				"z": 3.5672641081,
				"element": "C" 
			},
			{
				"x": -3.5458624973,
				"y": -2.7287402079,
				"z": 5.4664825782,
				"element": "Br" 
			},
			{
				"x": -2.118521844,
				"y": -2.8167622056,
				"z": 2.9742885671,
				"element": "C" 
			},
			{
				"x": -0.9900234038,
				"y": -2.9030011637,
				"z": 3.7396176882,
				"element": "O" 
			},
			{
				"x": -0.3977300161,
				"y": -1.6495247148,
				"z": 4.1245267967,
				"element": "C" 
			},
			{
				"x": 1.6102966541,
				"y": 2.9228020537,
				"z": -2.8894491026,
				"element": "H" 
			},
			{
				"x": -0.0507424772,
				"y": 2.9632834892,
				"z": -3.5055443192,
				"element": "H" 
			},
			{
				"x": 1.1553866256,
				"y": 1.9633987444,
				"z": -4.3149097649,
				"element": "H" 
			},
			{
				"x": 1.3576792754,
				"y": 0.4682979873,
				"z": -2.3830988329,
				"element": "H" 
			},
			{
				"x": -0.3166697908,
				"y": 0.5280143577,
				"z": -2.9164259801,
				"element": "H" 
			},
			{
				"x": -1.0662496713,
				"y": 2.6030828115,
				"z": 0.1946793595,
				"element": "H" 
			},
			{
				"x": -0.7564752988,
				"y": 3.3618472558,
				"z": -1.3508964684,
				"element": "H" 
			},
			{
				"x": -3.1087282058,
				"y": 2.7024039698,
				"z": -1.2340535305,
				"element": "H" 
			},
			{
				"x": -2.700860697,
				"y": 1.0127731567,
				"z": -0.9137522541,
				"element": "H" 
			},
			{
				"x": -2.3284135242,
				"y": 1.7334321345,
				"z": -2.4856502105,
				"element": "H" 
			},
			{
				"x": 1.4179545925,
				"y": 0.1319577757,
				"z": -0.1491522691,
				"element": "H" 
			},
			{
				"x": 0.3037585527,
				"y": 0.9549080128,
				"z": 0.9345213575,
				"element": "H" 
			},
			{
				"x": -0.5266261375,
				"y": -1.2071496639,
				"z": -1.0873306269,
				"element": "H" 
			},
			{
				"x": -1.5594928122,
				"y": -0.492486548,
				"z": 0.1684585271,
				"element": "H" 
			},
			{
				"x": -0.7607813443,
				"y": -3.3390202674,
				"z": -0.105252374,
				"element": "H" 
			},
			{
				"x": -0.0012965159,
				"y": -3.5843979163,
				"z": 1.487925547,
				"element": "H" 
			},
			{
				"x": -3.1201169812,
				"y": -2.9299010028,
				"z": -0.2828635058,
				"element": "H" 
			},
			{
				"x": -5.5224733036,
				"y": -2.7159116959,
				"z": 3.2764687451,
				"element": "H" 
			},
			{
				"x": -0.0601835978,
				"y": -1.1038678528,
				"z": 3.2389291349,
				"element": "H" 
			},
			{
				"x": -1.104859159,
				"y": -1.0455212212,
				"z": 4.7034105317,
				"element": "H" 
			},
			{
				"x": 0.4564633248,
				"y": -1.9048922139,
				"z": 4.7537749425,
				"element": "H" 
			}
		],
		 "valence_orbital": [ 
			{
				"type": "occ",
				"energy": -0.28067,
				"method": "rhf"
			},
			{
				"type": "occ",
				"energy": -0.26709,
				"method": "rhf"
			},
			{
				"type": "occ",
				"energy": -0.25852,
				"method": "rhf"
			},
			{
				"type": "occ",
				"energy": -0.23995,
				"method": "rhf"
			},
			{
				"type": "occ",
				"energy": -0.20031,
				"method": "rhf"
			},
			{
				"type": "unocc",
				"energy": -0.03133,
				"method": "rhf"
			},
			{
				"type": "unocc",
				"energy": -0.02386,
				"method": "rhf"
			},
			{
				"type": "unocc",
				"energy": -0.01628,
				"method": "rhf"
			},
			{
				"type": "unocc",
				"energy": 0.02298,
				"method": "rhf"
			},
			{
				"type": "unocc",
				"energy": 0.07135,
				"method": "rhf"
			}
		],
		"cosmo_sigma_profile": { 
			"-0.025": 0.0,
			"-0.024": 0.0,
			"-0.023": 0.0,
			"-0.022": 0.0,
			"-0.021": 0.0,
			"-0.02": 0.0,
			"-0.019": 0.0,
			"-0.018": 0.0,
			"-0.017": 0.0,
			"-0.016": 0.0,
			"-0.015": 0.0,
			"-0.014": 0.0,
			"-0.013": 0.0,
			"-0.012": 0.0,
			"-0.011": 0.0,
			"-0.01": 0.0,
			"-0.009": 0.0826749988925,
			"-0.008": 1.22981823982,
			"-0.007": 4.38581578228,
			"-0.006": 5.55703639304,
			"-0.005": 11.2073863289,
			"-0.004": 20.3136454917,
			"-0.003": 41.4987815441,
			"-0.002": 48.4895829348,
			"-0.001": 43.2996258317,
			"0.0": 41.7042219057,
			"0.001": 48.0972513602,
			"0.002": 29.8823322943,
			"0.003": 19.8303454177,
			"0.004": 22.230503628,
			"0.005": 9.18648300446,
			"0.006": 3.80715909813,
			"0.007": 3.20844798717,
			"0.008": 3.2002762771,
			"0.009": 2.93969077026,
			"0.01": 2.59162318467,
			"0.011": 2.218564782,
			"0.012": 1.14981566277,
			"0.013": 0.491971083632,
			"0.014": 0.244363468263,
			"0.015": 0.0645480714128,
			"0.016": 0.0,
			"0.017": 0.0,
			"0.018": 0.0,
			"0.019": 0.0,
			"0.02": 0.0,
			"0.021": 0.0,
			"0.022": 0.0,
			"0.023": 0.0,
			"0.024": 0.0,
			"0.025": 0.0
		}
	}
}
