{
	 "smiles": "CS(=O)(=O)C1=NOC(C2=CC=CS2)=C1C#N", 
	 "Tm": 441.15, 
	 "num_atms": 22, 
	 "gaussian": { 
		 "optdone": 1, 
		 "sigma_profile": "yes", 
		 "theory": "DFT", 
		 "functional": "B3LYP", 
		 "basiset": "6-31G**", 
		 "properties": { 
			 "R2extent": 5175.1306, 
			 "electric_dipole_moment_norm": 6.96938258456, 
			 "electric_quadrupole_moment_norm": 24.9787500922, 
			 "total_energy": -1477.95559295, 
			 "HOMO_LUMO_gap": 0.15919, 
			 "cosmo_polarized_energy": -19.22, 
			 "cosmo_cavitation_energy": 31.89, 
			 "cosmo_dispersion_energy": -23.28, 
			 "cosmo_repulsion_energy": 1.71, 
			 "cosmo_total_nonelectrostatic_energy": 10.32, 
			 "SMD_solvation_energy": 6.32 
		},
		"coords": [
			{
				"x": -1.9062032413,
				"y": 3.7275748791,
				"z": -0.1813390667,
				"element": "C" 
			},
			{
				"x": -0.3632583057,
				"y": 2.9159136823,
				"z": -0.6323358038,
				"element": "S" 
			},
			{
				"x": -0.432328297,
				"y": 2.5016466527,
				"z": -2.0360535672,
				"element": "O" 
			},
			{
				"x": 0.7607399221,
				"y": 3.7122494051,
				"z": -0.1330517023,
				"element": "O" 
			},
			{
				"x": -0.4099282852,
				"y": 1.4031933497,
				"z": 0.3593309271,
				"element": "C" 
			},
			{
				"x": -1.4220993783,
				"y": 1.1623324284,
				"z": 1.1470240611,
				"element": "N" 
			},
			{
				"x": -1.13454956,
				"y": -0.068073812,
				"z": 1.749460497,
				"element": "O" 
			},
			{
				"x": 0.0529708037,
				"y": -0.5366875326,
				"z": 1.3032420853,
				"element": "C" 
			},
			{
				"x": 0.4926450201,
				"y": -1.7988446385,
				"z": 1.830544913,
				"element": "C" 
			},
			{
				"x": -0.1851446223,
				"y": -2.5779440544,
				"z": 2.7513231648,
				"element": "C" 
			},
			{
				"x": 0.5056361391,
				"y": -3.770855936,
				"z": 3.0770765425,
				"element": "C" 
			},
			{
				"x": 1.6968068416,
				"y": -3.8885713912,
				"z": 2.4048911503,
				"element": "C" 
			},
			{
				"x": 2.0029010449,
				"y": -2.5493040154,
				"z": 1.3611697754,
				"element": "S" 
			},
			{
				"x": 0.5782642123,
				"y": 0.3719309328,
				"z": 0.396304493,
				"element": "C" 
			},
			{
				"x": 1.8001134053,
				"y": 0.2816129224,
				"z": -0.3117818961,
				"element": "C" 
			},
			{
				"x": 2.8113405161,
				"y": 0.1746046416,
				"z": -0.8778675267,
				"element": "N" 
			},
			{
				"x": -1.9159792359,
				"y": 4.6517134787,
				"z": -0.7629675812,
				"element": "H" 
			},
			{
				"x": -1.9031313716,
				"y": 3.9414366167,
				"z": 0.8871610454,
				"element": "H" 
			},
			{
				"x": -2.744626246,
				"y": 3.0876716101,
				"z": -0.4552146634,
				"element": "H" 
			},
			{
				"x": -1.1423654861,
				"y": -2.2893254281,
				"z": 3.167974959,
				"element": "H" 
			},
			{
				"x": 0.1384741209,
				"y": -4.5107041631,
				"z": 3.7780142905,
				"element": "H" 
			},
			{
				"x": 2.4190220032,
				"y": -4.6915696284,
				"z": 2.4627939032,
				"element": "H" 
			}
		],
		 "valence_orbital": [ 
			{
				"type": "occ",
				"energy": -0.3156,
				"method": "rhf"
			},
			{
				"type": "occ",
				"energy": -0.31099,
				"method": "rhf"
			},
			{
				"type": "occ",
				"energy": -0.3054,
				"method": "rhf"
			},
			{
				"type": "occ",
				"energy": -0.28502,
				"method": "rhf"
			},
			{
				"type": "occ",
				"energy": -0.25284,
				"method": "rhf"
			},
			{
				"type": "unocc",
				"energy": -0.09365,
				"method": "rhf"
			},
			{
				"type": "unocc",
				"energy": -0.04279,
				"method": "rhf"
			},
			{
				"type": "unocc",
				"energy": -0.01317,
				"method": "rhf"
			},
			{
				"type": "unocc",
				"energy": -0.00636,
				"method": "rhf"
			},
			{
				"type": "unocc",
				"energy": 0.01948,
				"method": "rhf"
			}
		],
		"cosmo_sigma_profile": { 
			"-0.025": 0.0,
			"-0.024": 0.0,
			"-0.023": 0.0,
			"-0.022": 0.0,
			"-0.021": 0.0,
			"-0.02": 0.0,
			"-0.019": 0.0,
			"-0.018": 0.0,
			"-0.017": 0.0,
			"-0.016": 0.0,
			"-0.015": 0.0,
			"-0.014": 0.0,
			"-0.013": 0.0,
			"-0.012": 0.0,
			"-0.011": 0.522911480223,
			"-0.01": 5.27295616885,
			"-0.009": 8.96981680916,
			"-0.008": 10.1386451226,
			"-0.007": 10.7000079287,
			"-0.006": 14.3123820468,
			"-0.005": 17.1311888094,
			"-0.004": 16.5349995423,
			"-0.003": 15.8279435836,
			"-0.002": 13.034824062,
			"-0.001": 13.6560305262,
			"0.0": 15.5811289539,
			"0.001": 21.0895782644,
			"0.002": 19.2644836231,
			"0.003": 11.0019316056,
			"0.004": 9.30613653245,
			"0.005": 6.2508872147,
			"0.006": 5.82054464407,
			"0.007": 7.60437033951,
			"0.008": 6.71164053967,
			"0.009": 10.2045444144,
			"0.01": 15.1572829117,
			"0.011": 5.42227284036,
			"0.012": 0.963583418263,
			"0.013": 0.0,
			"0.014": 0.0,
			"0.015": 0.0,
			"0.016": 0.0,
			"0.017": 0.0,
			"0.018": 0.0,
			"0.019": 0.0,
			"0.02": 0.0,
			"0.021": 0.0,
			"0.022": 0.0,
			"0.023": 0.0,
			"0.024": 0.0,
			"0.025": 0.0
		}
	}
}
