{
	 "smiles": "CC(C)NCC(O)COC1=CC(C)=CC=C1", 
	 "Tm": 349.15, 
	 "num_atms": 37, 
	 "gaussian": { 
		 "optdone": 1, 
		 "sigma_profile": "yes", 
		 "theory": "DFT", 
		 "functional": "B3LYP", 
		 "basiset": "6-31G**", 
		 "properties": { 
			 "R2extent": 7074.3809, 
			 "electric_dipole_moment_norm": 1.88431799333, 
			 "electric_quadrupole_moment_norm": 12.2761444953, 
			 "total_energy": -713.236963052, 
			 "HOMO_LUMO_gap": 0.20574, 
			 "cosmo_polarized_energy": -9.99, 
			 "cosmo_cavitation_energy": 38.89, 
			 "cosmo_dispersion_energy": -27.32, 
			 "cosmo_repulsion_energy": 2.18, 
			 "cosmo_total_nonelectrostatic_energy": 13.76, 
			 "SMD_solvation_energy": 4.95 
		},
		"coords": [
			{
				"x": 2.7528546109,
				"y": -1.9838254815,
				"z": 3.8480720473,
				"element": "C" 
			},
			{
				"x": 1.5323696846,
				"y": -1.56692736,
				"z": 3.0202674621,
				"element": "C" 
			},
			{
				"x": 0.8536940668,
				"y": -2.7944911892,
				"z": 2.3819954324,
				"element": "C" 
			},
			{
				"x": 1.9465356284,
				"y": -0.5314664446,
				"z": 2.0673110744,
				"element": "N" 
			},
			{
				"x": 0.8792025607,
				"y": 0.1558727882,
				"z": 1.3549512589,
				"element": "C" 
			},
			{
				"x": 1.4995948502,
				"y": 1.1317037231,
				"z": 0.3476223943,
				"element": "C" 
			},
			{
				"x": 2.321579588,
				"y": 0.4387750572,
				"z": -0.5898090479,
				"element": "O" 
			},
			{
				"x": 0.465371822,
				"y": 1.9782728527,
				"z": -0.3899026604,
				"element": "C" 
			},
			{
				"x": -0.2891829037,
				"y": 1.0854056551,
				"z": -1.2104203797,
				"element": "O" 
			},
			{
				"x": -1.2454527757,
				"y": 1.5931010726,
				"z": -2.0509017245,
				"element": "C" 
			},
			{
				"x": -1.5771772323,
				"y": 2.9469403202,
				"z": -2.1351448265,
				"element": "C" 
			},
			{
				"x": -2.5755060119,
				"y": 3.3793492572,
				"z": -3.0247526168,
				"element": "C" 
			},
			{
				"x": -2.9190388249,
				"y": 4.8488931899,
				"z": -3.107867871,
				"element": "C" 
			},
			{
				"x": -3.2310433029,
				"y": 2.4374438958,
				"z": -3.8202647879,
				"element": "C" 
			},
			{
				"x": -2.8958295148,
				"y": 1.0818016277,
				"z": -3.7304245417,
				"element": "C" 
			},
			{
				"x": -1.908960622,
				"y": 0.6528058939,
				"z": -2.852780595,
				"element": "C" 
			},
			{
				"x": 3.2075862708,
				"y": -1.1117835668,
				"z": 4.3253702735,
				"element": "H" 
			},
			{
				"x": 3.5114324215,
				"y": -2.4517102263,
				"z": 3.2079903984,
				"element": "H" 
			},
			{
				"x": 2.4791949821,
				"y": -2.7092155638,
				"z": 4.6212674818,
				"element": "H" 
			},
			{
				"x": 0.8076868672,
				"y": -1.0910831576,
				"z": 3.6972675914,
				"element": "H" 
			},
			{
				"x": 1.5505516198,
				"y": -3.3130579562,
				"z": 1.7116351037,
				"element": "H" 
			},
			{
				"x": 0.532568749,
				"y": -3.5101668556,
				"z": 3.1470123751,
				"element": "H" 
			},
			{
				"x": -0.0299982428,
				"y": -2.5162372463,
				"z": 1.7993491969,
				"element": "H" 
			},
			{
				"x": 2.5860246214,
				"y": -0.9229884225,
				"z": 1.3776624483,
				"element": "H" 
			},
			{
				"x": 0.2755135227,
				"y": 0.7202153067,
				"z": 2.0799689108,
				"element": "H" 
			},
			{
				"x": 0.1831789609,
				"y": -0.5083682346,
				"z": 0.8120930994,
				"element": "H" 
			},
			{
				"x": 2.1709323204,
				"y": 1.8047519655,
				"z": 0.8931132182,
				"element": "H" 
			},
			{
				"x": 1.7126212934,
				"y": 0.023372975,
				"z": -1.2187401146,
				"element": "H" 
			},
			{
				"x": 0.9758375752,
				"y": 2.7206868671,
				"z": -1.0169050411,
				"element": "H" 
			},
			{
				"x": -0.1923544798,
				"y": 2.503255698,
				"z": 0.3165888624,
				"element": "H" 
			},
			{
				"x": -1.0713626384,
				"y": 3.6796154772,
				"z": -1.5158352874,
				"element": "H" 
			},
			{
				"x": -3.2195195421,
				"y": 5.2450443214,
				"z": -2.1310469746,
				"element": "H" 
			},
			{
				"x": -2.0596182599,
				"y": 5.4409202565,
				"z": -3.4439898065,
				"element": "H" 
			},
			{
				"x": -3.7398782162,
				"y": 5.0268031849,
				"z": -3.8076205263,
				"element": "H" 
			},
			{
				"x": -4.0048084722,
				"y": 2.7609407831,
				"z": -4.5107044063,
				"element": "H" 
			},
			{
				"x": -3.4112388809,
				"y": 0.3550851411,
				"z": -4.3520884325,
				"element": "H" 
			},
			{
				"x": -1.6360620953,
				"y": -0.3939356051,
				"z": -2.7676389886,
				"element": "H" 
			}
		],
		 "valence_orbital": [ 
			{
				"type": "occ",
				"energy": -0.3145,
				"method": "rhf"
			},
			{
				"type": "occ",
				"energy": -0.27123,
				"method": "rhf"
			},
			{
				"type": "occ",
				"energy": -0.24463,
				"method": "rhf"
			},
			{
				"type": "occ",
				"energy": -0.22142,
				"method": "rhf"
			},
			{
				"type": "occ",
				"energy": -0.20869,
				"method": "rhf"
			},
			{
				"type": "unocc",
				"energy": -0.00295,
				"method": "rhf"
			},
			{
				"type": "unocc",
				"energy": 0.01344,
				"method": "rhf"
			},
			{
				"type": "unocc",
				"energy": 0.08243,
				"method": "rhf"
			},
			{
				"type": "unocc",
				"energy": 0.09182,
				"method": "rhf"
			},
			{
				"type": "unocc",
				"energy": 0.09344,
				"method": "rhf"
			}
		],
		"cosmo_sigma_profile": { 
			"-0.025": 0.0,
			"-0.024": 0.0,
			"-0.023": 0.0,
			"-0.022": 0.0,
			"-0.021": 0.0,
			"-0.02": 0.0,
			"-0.019": 0.0,
			"-0.018": 0.0,
			"-0.017": 0.0,
			"-0.016": 0.0,
			"-0.015": 0.0,
			"-0.014": 0.0,
			"-0.013": 0.0421309796671,
			"-0.012": 0.716931185446,
			"-0.011": 0.736295696235,
			"-0.01": 0.323004961652,
			"-0.009": 0.365230046094,
			"-0.008": 0.946901218094,
			"-0.007": 1.06621283821,
			"-0.006": 6.89675326446,
			"-0.005": 21.6369075242,
			"-0.004": 23.4787878259,
			"-0.003": 29.839234032,
			"-0.002": 37.2563609798,
			"-0.001": 31.7506775022,
			"0.0": 33.3049415874,
			"0.001": 27.5711156307,
			"0.002": 20.1246024245,
			"0.003": 11.7456978644,
			"0.004": 12.478696437,
			"0.005": 12.1202815834,
			"0.006": 12.2618402475,
			"0.007": 5.00361915729,
			"0.008": 1.15980338041,
			"0.009": 1.59086221646,
			"0.01": 2.02608155086,
			"0.011": 1.78927925517,
			"0.012": 1.17657549327,
			"0.013": 1.85641105594,
			"0.014": 2.07514233266,
			"0.015": 0.656636402116,
			"0.016": 0.549926415532,
			"0.017": 0.315267667771,
			"0.018": 0.0375749776865,
			"0.019": 0.0,
			"0.02": 0.0,
			"0.021": 0.0,
			"0.022": 0.0,
			"0.023": 0.0,
			"0.024": 0.0,
			"0.025": 0.0
		}
	}
}
