{
	 "smiles": "CC1=C(C)C2=C(S1)N=C(S)NC2=O", 
	 "Tm": 602.15, 
	 "num_atms": 21, 
	 "gaussian": { 
		 "optdone": 1, 
		 "sigma_profile": "yes", 
		 "theory": "DFT", 
		 "functional": "B3LYP", 
		 "basiset": "6-31G**", 
		 "properties": { 
			 "R2extent": 3404.7487, 
			 "electric_dipole_moment_norm": 1.32933583417, 
			 "electric_quadrupole_moment_norm": 16.335979221, 
			 "total_energy": -1290.7982672, 
			 "HOMO_LUMO_gap": 0.16791, 
			 "cosmo_polarized_energy": -11.96, 
			 "cosmo_cavitation_energy": 28.27, 
			 "cosmo_dispersion_energy": -21.94, 
			 "cosmo_repulsion_energy": 1.64, 
			 "cosmo_total_nonelectrostatic_energy": 7.97, 
			 "SMD_solvation_energy": 3.02 
		},
		"coords": [
			{
				"x": 0.7192136765,
				"y": 3.8029710395,
				"z": -1.6488708205,
				"element": "C" 
			},
			{
				"x": 0.5474804274,
				"y": 2.3729052373,
				"z": -1.2160595385,
				"element": "C" 
			},
			{
				"x": -0.5629687243,
				"y": 1.7723451906,
				"z": -0.6804350869,
				"element": "C" 
			},
			{
				"x": -1.8711669814,
				"y": 2.4673208182,
				"z": -0.4165161157,
				"element": "C" 
			},
			{
				"x": -0.3294873437,
				"y": 0.381337109,
				"z": -0.3959798415,
				"element": "C" 
			},
			{
				"x": 0.954207309,
				"y": -0.0505736686,
				"z": -0.7204020306,
				"element": "C" 
			},
			{
				"x": 1.8980038616,
				"y": 1.2534271772,
				"z": -1.3832897731,
				"element": "S" 
			},
			{
				"x": 1.4630537625,
				"y": -1.307660711,
				"z": -0.5647945805,
				"element": "N" 
			},
			{
				"x": 0.6343262771,
				"y": -2.1693154543,
				"z": -0.0569615411,
				"element": "C" 
			},
			{
				"x": 1.1271096505,
				"y": -3.8594054573,
				"z": 0.2174835649,
				"element": "S" 
			},
			{
				"x": -0.6515509001,
				"y": -1.8665834096,
				"z": 0.301906648,
				"element": "N" 
			},
			{
				"x": -1.2511691499,
				"y": -0.5831032708,
				"z": 0.1704979379,
				"element": "C" 
			},
			{
				"x": -2.4112358204,
				"y": -0.4204881537,
				"z": 0.5231763743,
				"element": "O" 
			},
			{
				"x": 1.7238518006,
				"y": 3.9854608133,
				"z": -2.0390489283,
				"element": "H" 
			},
			{
				"x": 0.5614398966,
				"y": 4.4942653028,
				"z": -0.8134575839,
				"element": "H" 
			},
			{
				"x": 0.0075561717,
				"y": 4.0689565534,
				"z": -2.4384847371,
				"element": "H" 
			},
			{
				"x": -2.1399621888,
				"y": 2.4084004721,
				"z": 0.6426632625,
				"element": "H" 
			},
			{
				"x": -1.8277739974,
				"y": 3.5196124853,
				"z": -0.7065208308,
				"element": "H" 
			},
			{
				"x": -2.6877170959,
				"y": 1.9879153338,
				"z": -0.9651527861,
				"element": "H" 
			},
			{
				"x": 2.3693832626,
				"y": -3.6580553543,
				"z": -0.2579345411,
				"element": "H" 
			},
			{
				"x": -1.2628938944,
				"y": -2.5729320527,
				"z": 0.695080948,
				"element": "H" 
			}
		],
		 "valence_orbital": [ 
			{
				"type": "occ",
				"energy": -0.29283,
				"method": "rhf"
			},
			{
				"type": "occ",
				"energy": -0.28445,
				"method": "rhf"
			},
			{
				"type": "occ",
				"energy": -0.26557,
				"method": "rhf"
			},
			{
				"type": "occ",
				"energy": -0.25384,
				"method": "rhf"
			},
			{
				"type": "occ",
				"energy": -0.21068,
				"method": "rhf"
			},
			{
				"type": "unocc",
				"energy": -0.04277,
				"method": "rhf"
			},
			{
				"type": "unocc",
				"energy": -0.01408,
				"method": "rhf"
			},
			{
				"type": "unocc",
				"energy": -0.00957,
				"method": "rhf"
			},
			{
				"type": "unocc",
				"energy": 0.0175,
				"method": "rhf"
			},
			{
				"type": "unocc",
				"energy": 0.02638,
				"method": "rhf"
			}
		],
		"cosmo_sigma_profile": { 
			"-0.025": 0.0,
			"-0.024": 0.0,
			"-0.023": 0.0,
			"-0.022": 0.0,
			"-0.021": 0.0,
			"-0.02": 0.0,
			"-0.019": 0.0,
			"-0.018": 0.0,
			"-0.017": 0.785932419654,
			"-0.016": 1.0650204049,
			"-0.015": 0.784569214759,
			"-0.014": 1.39277722491,
			"-0.013": 1.04328021173,
			"-0.012": 2.15411724955,
			"-0.011": 2.59999823823,
			"-0.01": 1.99301373586,
			"-0.009": 1.92374524559,
			"-0.008": 2.16993943528,
			"-0.007": 1.82330527002,
			"-0.006": 3.38650574671,
			"-0.005": 8.06812671374,
			"-0.004": 14.613898016,
			"-0.003": 20.1843946273,
			"-0.002": 21.2109166851,
			"-0.001": 21.4818176129,
			"0.0": 22.7190120029,
			"0.001": 19.9300165315,
			"0.002": 21.57420924,
			"0.003": 16.1007781676,
			"0.004": 10.8435403227,
			"0.005": 6.63842251493,
			"0.006": 4.7552770666,
			"0.007": 2.46131905829,
			"0.008": 2.91632660295,
			"0.009": 2.523282789,
			"0.01": 2.41900531643,
			"0.011": 2.50300976823,
			"0.012": 3.09358338279,
			"0.013": 4.67890747006,
			"0.014": 0.444413726909,
			"0.015": 0.0,
			"0.016": 0.0,
			"0.017": 0.0,
			"0.018": 0.0,
			"0.019": 0.0,
			"0.02": 0.0,
			"0.021": 0.0,
			"0.022": 0.0,
			"0.023": 0.0,
			"0.024": 0.0,
			"0.025": 0.0
		}
	}
}
