{
	 "smiles": "CC(=O)C1=C(C)N(N=N1)C1=CC(Cl)=CC=C1", 
	 "Tm": 356.15, 
	 "num_atms": 26, 
	 "gaussian": { 
		 "optdone": 1, 
		 "sigma_profile": "yes", 
		 "theory": "DFT", 
		 "functional": "B3LYP", 
		 "basiset": "6-31G**", 
		 "properties": { 
			 "R2extent": 5709.3779, 
			 "electric_dipole_moment_norm": 2.97920739124, 
			 "electric_quadrupole_moment_norm": 9.76675784025, 
			 "total_energy": -1124.84115635, 
			 "HOMO_LUMO_gap": 0.19543, 
			 "cosmo_polarized_energy": -12.43, 
			 "cosmo_cavitation_energy": 32.61, 
			 "cosmo_dispersion_energy": -23.47, 
			 "cosmo_repulsion_energy": 1.83, 
			 "cosmo_total_nonelectrostatic_energy": 10.96, 
			 "SMD_solvation_energy": 4.76 
		},
		"coords": [
			{
				"x": -3.5901148447,
				"y": 0.9825089004,
				"z": 1.6036325732,
				"element": "C" 
			},
			{
				"x": -2.2723488896,
				"y": 1.5088800193,
				"z": 1.0763892946,
				"element": "C" 
			},
			{
				"x": -2.0386560085,
				"y": 2.7083097449,
				"z": 0.9863868515,
				"element": "O" 
			},
			{
				"x": -1.2677702131,
				"y": 0.506767243,
				"z": 0.664483402,
				"element": "C" 
			},
			{
				"x": 0.0045533384,
				"y": 0.7179553116,
				"z": 0.1413873051,
				"element": "C" 
			},
			{
				"x": 0.7273756683,
				"y": 1.9835588059,
				"z": -0.1787581566,
				"element": "C" 
			},
			{
				"x": 0.4697727561,
				"y": -0.544742233,
				"z": -0.0756108775,
				"element": "N" 
			},
			{
				"x": -0.4739329282,
				"y": -1.4834102689,
				"z": 0.2884686925,
				"element": "N" 
			},
			{
				"x": -1.501765419,
				"y": -0.8418321979,
				"z": 0.7293092942,
				"element": "N" 
			},
			{
				"x": 1.7000436429,
				"y": -0.9953097933,
				"z": -0.6331140425,
				"element": "C" 
			},
			{
				"x": 2.9052777987,
				"y": -0.3953178002,
				"z": -0.2585399792,
				"element": "C" 
			},
			{
				"x": 4.088964822,
				"y": -0.866539162,
				"z": -0.8243054917,
				"element": "C" 
			},
			{
				"x": 5.6059353351,
				"y": -0.1123053446,
				"z": -0.366573372,
				"element": "Cl" 
			},
			{
				"x": 4.09317819,
				"y": -1.9270930976,
				"z": -1.7288754024,
				"element": "C" 
			},
			{
				"x": 2.8783244972,
				"y": -2.5239518579,
				"z": -2.071232423,
				"element": "C" 
			},
			{
				"x": 1.6780397817,
				"y": -2.0634938391,
				"z": -1.5355613744,
				"element": "C" 
			},
			{
				"x": -4.0805598587,
				"y": 0.3571441363,
				"z": 0.8507109092,
				"element": "H" 
			},
			{
				"x": -3.4243168014,
				"y": 0.3419856735,
				"z": 2.4758647625,
				"element": "H" 
			},
			{
				"x": -4.229343183,
				"y": 1.8250740743,
				"z": 1.8693993692,
				"element": "H" 
			},
			{
				"x": -0.0051155958,
				"y": 2.7855022958,
				"z": -0.2686917258,
				"element": "H" 
			},
			{
				"x": 1.3070831117,
				"y": 1.8923271082,
				"z": -1.1016755025,
				"element": "H" 
			},
			{
				"x": 1.4170718314,
				"y": 2.2649564299,
				"z": 0.625492159,
				"element": "H" 
			},
			{
				"x": 2.9305245329,
				"y": 0.4034837643,
				"z": 0.4711091993,
				"element": "H" 
			},
			{
				"x": 5.0278066508,
				"y": -2.2777120949,
				"z": -2.1513265644,
				"element": "H" 
			},
			{
				"x": 2.8694648956,
				"y": -3.3532751302,
				"z": -2.7713832802,
				"element": "H" 
			},
			{
				"x": 0.7307068891,
				"y": -2.519070688,
				"z": -1.7962856201,
				"element": "H" 
			}
		],
		 "valence_orbital": [ 
			{
				"type": "occ",
				"energy": -0.2823,
				"method": "rhf"
			},
			{
				"type": "occ",
				"energy": -0.27513,
				"method": "rhf"
			},
			{
				"type": "occ",
				"energy": -0.26767,
				"method": "rhf"
			},
			{
				"type": "occ",
				"energy": -0.25915,
				"method": "rhf"
			},
			{
				"type": "occ",
				"energy": -0.25105,
				"method": "rhf"
			},
			{
				"type": "unocc",
				"energy": -0.05562,
				"method": "rhf"
			},
			{
				"type": "unocc",
				"energy": -0.03806,
				"method": "rhf"
			},
			{
				"type": "unocc",
				"energy": -0.03513,
				"method": "rhf"
			},
			{
				"type": "unocc",
				"energy": -0.0014,
				"method": "rhf"
			},
			{
				"type": "unocc",
				"energy": 0.01233,
				"method": "rhf"
			}
		],
		"cosmo_sigma_profile": { 
			"-0.025": 0.0,
			"-0.024": 0.0,
			"-0.023": 0.0,
			"-0.022": 0.0,
			"-0.021": 0.0,
			"-0.02": 0.0,
			"-0.019": 0.0,
			"-0.018": 0.0,
			"-0.017": 0.0,
			"-0.016": 0.0,
			"-0.015": 0.0,
			"-0.014": 0.0,
			"-0.013": 0.0,
			"-0.012": 0.0,
			"-0.011": 0.0,
			"-0.01": 0.504575492573,
			"-0.009": 2.34381260254,
			"-0.008": 4.23912585955,
			"-0.007": 9.37583228816,
			"-0.006": 14.1724230027,
			"-0.005": 16.9799295985,
			"-0.004": 18.6534505432,
			"-0.003": 19.4133467208,
			"-0.002": 26.5760037769,
			"-0.001": 25.1362885469,
			"0.0": 18.418068391,
			"0.001": 22.6970852429,
			"0.002": 18.4964418476,
			"0.003": 12.7865596306,
			"0.004": 14.36973003,
			"0.005": 5.25206088133,
			"0.006": 4.16023299176,
			"0.007": 3.62230903444,
			"0.008": 4.3009080447,
			"0.009": 5.42841861163,
			"0.01": 4.78569070471,
			"0.011": 4.91671676104,
			"0.012": 4.19311902211,
			"0.013": 2.41642801881,
			"0.014": 0.437241761592,
			"0.015": 0.0,
			"0.016": 0.0,
			"0.017": 0.0,
			"0.018": 0.0,
			"0.019": 0.0,
			"0.02": 0.0,
			"0.021": 0.0,
			"0.022": 0.0,
			"0.023": 0.0,
			"0.024": 0.0,
			"0.025": 0.0
		}
	}
}
