{
	 "smiles": "CC(C)C1=CC=C(C=C1)C(C)=C", 
	 "Tm": 242.55, 
	 "num_atms": 28, 
	 "gaussian": { 
		 "optdone": 1, 
		 "sigma_profile": "yes", 
		 "theory": "DFT", 
		 "functional": "B3LYP", 
		 "basiset": "6-31G**", 
		 "properties": { 
			 "R2extent": 3072.9703, 
			 "electric_dipole_moment_norm": 0.520819056871, 
			 "electric_quadrupole_moment_norm": 4.74174827463, 
			 "total_energy": -466.92288104, 
			 "HOMO_LUMO_gap": 0.19512, 
			 "cosmo_polarized_energy": -3.98, 
			 "cosmo_cavitation_energy": 30.06, 
			 "cosmo_dispersion_energy": -21.2, 
			 "cosmo_repulsion_energy": 1.69, 
			 "cosmo_total_nonelectrostatic_energy": 10.54, 
			 "SMD_solvation_energy": 5.8 
		},
		"coords": [
			{
				"x": -2.7643164814,
				"y": 0.4641246445,
				"z": 1.9452158536,
				"element": "C" 
			},
			{
				"x": -2.1989680024,
				"y": 1.5870253629,
				"z": 1.0547489466,
				"element": "C" 
			},
			{
				"x": -3.2240127895,
				"y": 2.014197244,
				"z": -0.0129988615,
				"element": "C" 
			},
			{
				"x": -0.8626115395,
				"y": 1.2004465626,
				"z": 0.4365603642,
				"element": "C" 
			},
			{
				"x": -0.7450043291,
				"y": 0.1212074133,
				"z": -0.4498445169,
				"element": "C" 
			},
			{
				"x": 0.4814652225,
				"y": -0.2218528137,
				"z": -1.0149004754,
				"element": "C" 
			},
			{
				"x": 1.6540838847,
				"y": 0.4917896848,
				"z": -0.7096935391,
				"element": "C" 
			},
			{
				"x": 1.5293674037,
				"y": 1.5837324627,
				"z": 0.166668785,
				"element": "C" 
			},
			{
				"x": 0.3014184145,
				"y": 1.9238947896,
				"z": 0.728046163,
				"element": "C" 
			},
			{
				"x": 2.9672359263,
				"y": 0.1140957783,
				"z": -1.2990339388,
				"element": "C" 
			},
			{
				"x": 2.9602961084,
				"y": -0.5959857119,
				"z": -2.6348234391,
				"element": "C" 
			},
			{
				"x": 4.1268754958,
				"y": 0.3759469438,
				"z": -0.6756274236,
				"element": "C" 
			},
			{
				"x": -2.9858211582,
				"y": -0.4342933621,
				"z": 1.3585877689,
				"element": "H" 
			},
			{
				"x": -2.0532401443,
				"y": 0.1833079247,
				"z": 2.7282872181,
				"element": "H" 
			},
			{
				"x": -3.694969224,
				"y": 0.7836458314,
				"z": 2.4270721762,
				"element": "H" 
			},
			{
				"x": -2.0141263687,
				"y": 2.4564511962,
				"z": 1.6995624093,
				"element": "H" 
			},
			{
				"x": -4.157580801,
				"y": 2.343697493,
				"z": 0.4563535257,
				"element": "H" 
			},
			{
				"x": -2.840168824,
				"y": 2.836927368,
				"z": -0.6241534058,
				"element": "H" 
			},
			{
				"x": -3.4658831034,
				"y": 1.1840543924,
				"z": -0.6858238368,
				"element": "H" 
			},
			{
				"x": -1.6233335252,
				"y": -0.4651465904,
				"z": -0.7076555097,
				"element": "H" 
			},
			{
				"x": 0.5249230801,
				"y": -1.0682748819,
				"z": -1.6928472742,
				"element": "H" 
			},
			{
				"x": 2.4014885842,
				"y": 2.1900103794,
				"z": 0.3912292441,
				"element": "H" 
			},
			{
				"x": 0.2422011539,
				"y": 2.7789305463,
				"z": 1.3978271893,
				"element": "H" 
			},
			{
				"x": 2.5207090538,
				"y": -1.5978846655,
				"z": -2.5564689249,
				"element": "H" 
			},
			{
				"x": 3.9765695571,
				"y": -0.7139730021,
				"z": -3.0186986969,
				"element": "H" 
			},
			{
				"x": 2.3696694768,
				"y": -0.047097138,
				"z": -3.3771803327,
				"element": "H" 
			},
			{
				"x": 5.0790671736,
				"y": 0.1156799811,
				"z": -1.1279633278,
				"element": "H" 
			},
			{
				"x": 4.1669657553,
				"y": 0.8364421666,
				"z": 0.3060538592,
				"element": "H" 
			}
		],
		 "valence_orbital": [ 
			{
				"type": "occ",
				"energy": -0.31962,
				"method": "rhf"
			},
			{
				"type": "occ",
				"energy": -0.31813,
				"method": "rhf"
			},
			{
				"type": "occ",
				"energy": -0.27129,
				"method": "rhf"
			},
			{
				"type": "occ",
				"energy": -0.24508,
				"method": "rhf"
			},
			{
				"type": "occ",
				"energy": -0.21523,
				"method": "rhf"
			},
			{
				"type": "unocc",
				"energy": -0.02011,
				"method": "rhf"
			},
			{
				"type": "unocc",
				"energy": 0.00329,
				"method": "rhf"
			},
			{
				"type": "unocc",
				"energy": 0.05437,
				"method": "rhf"
			},
			{
				"type": "unocc",
				"energy": 0.08921,
				"method": "rhf"
			},
			{
				"type": "unocc",
				"energy": 0.10288,
				"method": "rhf"
			}
		],
		"cosmo_sigma_profile": { 
			"-0.025": 0.0,
			"-0.024": 0.0,
			"-0.023": 0.0,
			"-0.022": 0.0,
			"-0.021": 0.0,
			"-0.02": 0.0,
			"-0.019": 0.0,
			"-0.018": 0.0,
			"-0.017": 0.0,
			"-0.016": 0.0,
			"-0.015": 0.0,
			"-0.014": 0.0,
			"-0.013": 0.0,
			"-0.012": 0.0,
			"-0.011": 0.0,
			"-0.01": 0.0,
			"-0.009": 0.0,
			"-0.008": 0.0,
			"-0.007": 0.0,
			"-0.006": 0.623804747767,
			"-0.005": 10.0005652464,
			"-0.004": 18.7591216811,
			"-0.003": 26.1355763869,
			"-0.002": 28.5789520344,
			"-0.001": 28.5368129767,
			"0.0": 29.0569280187,
			"0.001": 28.4639931136,
			"0.002": 17.1288668866,
			"0.003": 10.287583157,
			"0.004": 12.4302881226,
			"0.005": 11.3785016739,
			"0.006": 11.6520534302,
			"0.007": 2.87255853216,
			"0.008": 0.0,
			"0.009": 0.0,
			"0.01": 0.0,
			"0.011": 0.0,
			"0.012": 0.0,
			"0.013": 0.0,
			"0.014": 0.0,
			"0.015": 0.0,
			"0.016": 0.0,
			"0.017": 0.0,
			"0.018": 0.0,
			"0.019": 0.0,
			"0.02": 0.0,
			"0.021": 0.0,
			"0.022": 0.0,
			"0.023": 0.0,
			"0.024": 0.0,
			"0.025": 0.0
		}
	}
}
