{
	 "smiles": "NC(=O)C1=C(C=C(N)C=C1)N1CCCCC1", 
	 "Tm": 416.15, 
	 "num_atms": 33, 
	 "gaussian": { 
		 "optdone": 1, 
		 "sigma_profile": "yes", 
		 "theory": "DFT", 
		 "functional": "B3LYP", 
		 "basiset": "6-31G**", 
		 "properties": { 
			 "R2extent": 4919.2993, 
			 "electric_dipole_moment_norm": 5.62890486773, 
			 "electric_quadrupole_moment_norm": 22.4072964962, 
			 "total_energy": -707.026652723, 
			 "HOMO_LUMO_gap": 0.18634, 
			 "cosmo_polarized_energy": -17.95, 
			 "cosmo_cavitation_energy": 33.21, 
			 "cosmo_dispersion_energy": -24.28, 
			 "cosmo_repulsion_energy": 1.9, 
			 "cosmo_total_nonelectrostatic_energy": 10.84, 
			 "SMD_solvation_energy": 5.61 
		},
		"coords": [
			{
				"x": 2.8019640039,
				"y": -1.084006883,
				"z": -0.2722473663,
				"element": "N" 
			},
			{
				"x": 2.5440613444,
				"y": -1.6805113333,
				"z": -1.4731609351,
				"element": "C" 
			},
			{
				"x": 3.4125198146,
				"y": -2.313264348,
				"z": -2.0720755806,
				"element": "O" 
			},
			{
				"x": 1.132866794,
				"y": -1.5941901813,
				"z": -1.9937437002,
				"element": "C" 
			},
			{
				"x": 0.1004363544,
				"y": -0.7216154363,
				"z": -1.5498314015,
				"element": "C" 
			},
			{
				"x": -1.2066476444,
				"y": -0.9377162654,
				"z": -2.0066449738,
				"element": "C" 
			},
			{
				"x": -1.520474842,
				"y": -1.9610034996,
				"z": -2.9160140165,
				"element": "C" 
			},
			{
				"x": -2.8237775016,
				"y": -2.1093430866,
				"z": -3.3811874629,
				"element": "N" 
			},
			{
				"x": -0.4833319099,
				"y": -2.7705158647,
				"z": -3.406328501,
				"element": "C" 
			},
			{
				"x": 0.8074805372,
				"y": -2.574446662,
				"z": -2.9433068309,
				"element": "C" 
			},
			{
				"x": 0.3952900422,
				"y": 0.3403902489,
				"z": -0.6436675046,
				"element": "N" 
			},
			{
				"x": -0.6657766831,
				"y": 0.8618092584,
				"z": 0.2312277904,
				"element": "C" 
			},
			{
				"x": -1.4708522727,
				"y": 2.0474072507,
				"z": -0.3369594996,
				"element": "C" 
			},
			{
				"x": -0.5341786743,
				"y": 3.1516301545,
				"z": -0.8472427907,
				"element": "C" 
			},
			{
				"x": 0.5004226569,
				"y": 2.5629570229,
				"z": -1.8155660995,
				"element": "C" 
			},
			{
				"x": 1.2762528205,
				"y": 1.4169559812,
				"z": -1.1505332056,
				"element": "C" 
			},
			{
				"x": 2.0598255495,
				"y": -0.6210521739,
				"z": 0.2347450952,
				"element": "H" 
			},
			{
				"x": 3.7085126637,
				"y": -1.246092512,
				"z": 0.1370328437,
				"element": "H" 
			},
			{
				"x": -2.0043713817,
				"y": -0.2777092302,
				"z": -1.6865205902,
				"element": "H" 
			},
			{
				"x": -3.5526338146,
				"y": -1.7758974227,
				"z": -2.7663650475,
				"element": "H" 
			},
			{
				"x": -3.0412425595,
				"y": -3.0088886529,
				"z": -3.7860505092,
				"element": "H" 
			},
			{
				"x": -0.6976690233,
				"y": -3.5532195232,
				"z": -4.1291817422,
				"element": "H" 
			},
			{
				"x": 1.6172264034,
				"y": -3.2132426552,
				"z": -3.2792021975,
				"element": "H" 
			},
			{
				"x": -1.321936081,
				"y": 0.032811753,
				"z": 0.5095376291,
				"element": "H" 
			},
			{
				"x": -0.1752641832,
				"y": 1.2017241286,
				"z": 1.1558119094,
				"element": "H" 
			},
			{
				"x": -2.1354788305,
				"y": 2.4317778255,
				"z": 0.4467169042,
				"element": "H" 
			},
			{
				"x": -2.1131226323,
				"y": 1.7155184888,
				"z": -1.1610612079,
				"element": "H" 
			},
			{
				"x": -1.1096981675,
				"y": 3.9507073764,
				"z": -1.3280433446,
				"element": "H" 
			},
			{
				"x": -0.0110667776,
				"y": 3.6101206891,
				"z": 0.0045970572,
				"element": "H" 
			},
			{
				"x": -0.0011623857,
				"y": 2.1848851683,
				"z": -2.7159186321,
				"element": "H" 
			},
			{
				"x": 1.2089430692,
				"y": 3.3334884274,
				"z": -2.1430049134,
				"element": "H" 
			},
			{
				"x": 1.9961453295,
				"y": 0.9819617402,
				"z": -1.84359441,
				"element": "H" 
			},
			{
				"x": 1.8496379813,
				"y": 1.8145702163,
				"z": -0.3004167657,
				"element": "H" 
			}
		],
		 "valence_orbital": [ 
			{
				"type": "occ",
				"energy": -0.26105,
				"method": "rhf"
			},
			{
				"type": "occ",
				"energy": -0.24253,
				"method": "rhf"
			},
			{
				"type": "occ",
				"energy": -0.22975,
				"method": "rhf"
			},
			{
				"type": "occ",
				"energy": -0.21203,
				"method": "rhf"
			},
			{
				"type": "occ",
				"energy": -0.19608,
				"method": "rhf"
			},
			{
				"type": "unocc",
				"energy": -0.00974,
				"method": "rhf"
			},
			{
				"type": "unocc",
				"energy": 0.00797,
				"method": "rhf"
			},
			{
				"type": "unocc",
				"energy": 0.07375,
				"method": "rhf"
			},
			{
				"type": "unocc",
				"energy": 0.0783,
				"method": "rhf"
			},
			{
				"type": "unocc",
				"energy": 0.08552,
				"method": "rhf"
			}
		],
		"cosmo_sigma_profile": { 
			"-0.025": 0.0,
			"-0.024": 0.0,
			"-0.023": 0.0,
			"-0.022": 0.0,
			"-0.021": 0.0,
			"-0.02": 0.0,
			"-0.019": 0.0,
			"-0.018": 0.0,
			"-0.017": 0.0,
			"-0.016": 0.0,
			"-0.015": 0.0,
			"-0.014": 0.0043645988907,
			"-0.013": 1.4354312716,
			"-0.012": 4.00333750767,
			"-0.011": 3.44289004138,
			"-0.01": 3.82334531497,
			"-0.009": 4.87302236089,
			"-0.008": 4.2541752187,
			"-0.007": 5.113549957,
			"-0.006": 5.01337717536,
			"-0.005": 6.80832626224,
			"-0.004": 12.7301629277,
			"-0.003": 26.1580441828,
			"-0.002": 31.5303360823,
			"-0.001": 30.2241703291,
			"0.0": 24.3526675806,
			"0.001": 16.7914393967,
			"0.002": 8.97143897231,
			"0.003": 9.78026727027,
			"0.004": 10.1040651816,
			"0.005": 12.2895163065,
			"0.006": 11.2600931903,
			"0.007": 3.45463327528,
			"0.008": 2.14276348376,
			"0.009": 2.27293665241,
			"0.01": 2.37979735487,
			"0.011": 1.88941117448,
			"0.012": 2.1428678323,
			"0.013": 2.60852763331,
			"0.014": 4.39096612821,
			"0.015": 4.88820554995,
			"0.016": 0.459159816579,
			"0.017": 0.0,
			"0.018": 0.0,
			"0.019": 0.0,
			"0.02": 0.0,
			"0.021": 0.0,
			"0.022": 0.0,
			"0.023": 0.0,
			"0.024": 0.0,
			"0.025": 0.0
		}
	}
}
