{
	 "smiles": "CCCCOC1=C(OCC)C=C(C=CC(O)=O)C=C1", 
	 "Tm": 383.15, 
	 "num_atms": 39, 
	 "gaussian": { 
		 "optdone": 1, 
		 "sigma_profile": "yes", 
		 "theory": "DFT", 
		 "functional": "B3LYP", 
		 "basiset": "6-31G**", 
		 "properties": { 
			 "R2extent": 7730.8089, 
			 "electric_dipole_moment_norm": 6.59183883677, 
			 "electric_quadrupole_moment_norm": 29.8536791029, 
			 "total_energy": -884.525923975, 
			 "HOMO_LUMO_gap": 0.17322, 
			 "cosmo_polarized_energy": -14.68, 
			 "cosmo_cavitation_energy": 42.3, 
			 "cosmo_dispersion_energy": -28.62, 
			 "cosmo_repulsion_energy": 2.27, 
			 "cosmo_total_nonelectrostatic_energy": 15.96, 
			 "SMD_solvation_energy": 8.58 
		},
		"coords": [
			{
				"x": 3.8986341779,
				"y": 1.2506179002,
				"z": -2.6642525974,
				"element": "C" 
			},
			{
				"x": 3.4049056579,
				"y": -0.1789987491,
				"z": -2.9139725913,
				"element": "C" 
			},
			{
				"x": 1.9042883347,
				"y": -0.2857835004,
				"z": -3.2317000824,
				"element": "C" 
			},
			{
				"x": 0.9755421848,
				"y": 0.1223405579,
				"z": -2.0962158374,
				"element": "C" 
			},
			{
				"x": 1.2347139262,
				"y": -0.7481414788,
				"z": -0.970240233,
				"element": "O" 
			},
			{
				"x": 0.4957058856,
				"y": -0.4969606678,
				"z": 0.1563526374,
				"element": "C" 
			},
			{
				"x": -0.8909603434,
				"y": -0.7571247044,
				"z": 0.2079678132,
				"element": "C" 
			},
			{
				"x": -1.5771846678,
				"y": -1.2243655461,
				"z": -0.8863567487,
				"element": "O" 
			},
			{
				"x": -1.2904080805,
				"y": -2.5906877785,
				"z": -1.2576427036,
				"element": "C" 
			},
			{
				"x": -2.1467803861,
				"y": -2.9294856319,
				"z": -2.4633699046,
				"element": "C" 
			},
			{
				"x": -1.5933675663,
				"y": -0.5049318623,
				"z": 1.3828470248,
				"element": "C" 
			},
			{
				"x": -0.9570138119,
				"y": 0.0112871727,
				"z": 2.5276572473,
				"element": "C" 
			},
			{
				"x": -1.765460848,
				"y": 0.2327861924,
				"z": 3.7423683618,
				"element": "C" 
			},
			{
				"x": -1.6945395413,
				"y": 1.1950531548,
				"z": 4.6832100519,
				"element": "C" 
			},
			{
				"x": -0.8359355777,
				"y": 2.4114001781,
				"z": 4.78127422,
				"element": "C" 
			},
			{
				"x": -0.2542390797,
				"y": 2.898419558,
				"z": 3.6557854402,
				"element": "O" 
			},
			{
				"x": -0.6892457193,
				"y": 2.9905858242,
				"z": 5.8342018289,
				"element": "O" 
			},
			{
				"x": 0.4345012871,
				"y": 0.2164068897,
				"z": 2.4768574146,
				"element": "C" 
			},
			{
				"x": 1.1426924638,
				"y": -0.0287113644,
				"z": 1.3012304938,
				"element": "C" 
			},
			{
				"x": 4.9804493288,
				"y": 1.2668095518,
				"z": -2.4975231846,
				"element": "H" 
			},
			{
				"x": 3.6855834681,
				"y": 1.9016462427,
				"z": -3.5203432932,
				"element": "H" 
			},
			{
				"x": 3.4287505675,
				"y": 1.6985580074,
				"z": -1.7822364358,
				"element": "H" 
			},
			{
				"x": 3.6262163448,
				"y": -0.8042685002,
				"z": -2.0418922608,
				"element": "H" 
			},
			{
				"x": 3.9639382829,
				"y": -0.6101751098,
				"z": -3.7535255933,
				"element": "H" 
			},
			{
				"x": 1.6596685977,
				"y": 0.3447442361,
				"z": -4.0974685798,
				"element": "H" 
			},
			{
				"x": 1.6647725404,
				"y": -1.317104093,
				"z": -3.5187749429,
				"element": "H" 
			},
			{
				"x": 1.1535197308,
				"y": 1.1601253317,
				"z": -1.785161285,
				"element": "H" 
			},
			{
				"x": -0.0736423543,
				"y": 0.0307897723,
				"z": -2.3963132081,
				"element": "H" 
			},
			{
				"x": -0.2230063203,
				"y": -2.6949278396,
				"z": -1.480808176,
				"element": "H" 
			},
			{
				"x": -1.5294834047,
				"y": -3.2454757987,
				"z": -0.4085412893,
				"element": "H" 
			},
			{
				"x": -3.2084586356,
				"y": -2.806247877,
				"z": -2.2312960317,
				"element": "H" 
			},
			{
				"x": -1.9752680027,
				"y": -3.9676299366,
				"z": -2.7645333426,
				"element": "H" 
			},
			{
				"x": -1.9027290513,
				"y": -2.280549413,
				"z": -3.3095370828,
				"element": "H" 
			},
			{
				"x": -2.6596444075,
				"y": -0.7112945442,
				"z": 1.3898067994,
				"element": "H" 
			},
			{
				"x": -2.5504225609,
				"y": -0.5090316401,
				"z": 3.8888482663,
				"element": "H" 
			},
			{
				"x": -2.3577765499,
				"y": 1.1189562448,
				"z": 5.5394250662,
				"element": "H" 
			},
			{
				"x": -0.4697072494,
				"y": 2.3416264262,
				"z": 2.8916189037,
				"element": "H" 
			},
			{
				"x": 0.9679180825,
				"y": 0.5505715772,
				"z": 3.3599230758,
				"element": "H" 
			},
			{
				"x": 2.2151732971,
				"y": 0.1305712176,
				"z": 1.2538307592,
				"element": "H" 
			}
		],
		 "valence_orbital": [ 
			{
				"type": "occ",
				"energy": -0.29174,
				"method": "rhf"
			},
			{
				"type": "occ",
				"energy": -0.27555,
				"method": "rhf"
			},
			{
				"type": "occ",
				"energy": -0.26612,
				"method": "rhf"
			},
			{
				"type": "occ",
				"energy": -0.25669,
				"method": "rhf"
			},
			{
				"type": "occ",
				"energy": -0.23779,
				"method": "rhf"
			},
			{
				"type": "unocc",
				"energy": -0.06457,
				"method": "rhf"
			},
			{
				"type": "unocc",
				"energy": -0.02044,
				"method": "rhf"
			},
			{
				"type": "unocc",
				"energy": 0.00324,
				"method": "rhf"
			},
			{
				"type": "unocc",
				"energy": 0.06682,
				"method": "rhf"
			},
			{
				"type": "unocc",
				"energy": 0.0764,
				"method": "rhf"
			}
		],
		"cosmo_sigma_profile": { 
			"-0.025": 0.0,
			"-0.024": 0.0,
			"-0.023": 0.0,
			"-0.022": 0.0,
			"-0.021": 0.0,
			"-0.02": 0.0,
			"-0.019": 0.0,
			"-0.018": 0.0,
			"-0.017": 0.0,
			"-0.016": 0.0,
			"-0.015": 0.0,
			"-0.014": 0.265533441594,
			"-0.013": 0.719398563388,
			"-0.012": 0.486615288597,
			"-0.011": 0.890857676125,
			"-0.01": 0.968058614203,
			"-0.009": 0.824973976286,
			"-0.008": 1.46909388897,
			"-0.007": 8.54348046634,
			"-0.006": 11.5998270675,
			"-0.005": 10.1594624372,
			"-0.004": 19.2371807481,
			"-0.003": 36.4922329347,
			"-0.002": 42.3681937778,
			"-0.001": 40.2678712622,
			"0.0": 40.3509939081,
			"0.001": 32.8381417462,
			"0.002": 21.3438962616,
			"0.003": 12.3976203807,
			"0.004": 6.21793594094,
			"0.005": 4.89382977029,
			"0.006": 5.3372637896,
			"0.007": 4.67390871907,
			"0.008": 3.63125868652,
			"0.009": 4.97517981932,
			"0.01": 6.03263611894,
			"0.011": 5.65769695758,
			"0.012": 6.49527736498,
			"0.013": 3.17795861952,
			"0.014": 0.410846882711,
			"0.015": 0.0,
			"0.016": 0.0,
			"0.017": 0.0,
			"0.018": 0.0,
			"0.019": 0.0,
			"0.02": 0.0,
			"0.021": 0.0,
			"0.022": 0.0,
			"0.023": 0.0,
			"0.024": 0.0,
			"0.025": 0.0
		}
	}
}
