{
	 "smiles": "OC(=O)C1=CC=CN1", 
	 "Tm": 479.15, 
	 "num_atms": 13, 
	 "gaussian": { 
		 "optdone": 1, 
		 "sigma_profile": "yes", 
		 "theory": "DFT", 
		 "functional": "B3LYP", 
		 "basiset": "6-31G**", 
		 "properties": { 
			 "R2extent": 1093.8554, 
			 "electric_dipole_moment_norm": 3.79161486836, 
			 "electric_quadrupole_moment_norm": 12.5617259479, 
			 "total_energy": -398.74573538, 
			 "HOMO_LUMO_gap": 0.20274, 
			 "cosmo_polarized_energy": -14.33, 
			 "cosmo_cavitation_energy": 17.57, 
			 "cosmo_dispersion_energy": -13.32, 
			 "cosmo_repulsion_energy": 1.11, 
			 "cosmo_total_nonelectrostatic_energy": 5.36, 
			 "SMD_solvation_energy": 4.59 
		},
		"coords": [
			{
				"x": 1.1153160643,
				"y": -1.2515788538,
				"z": 2.7357112551,
				"element": "O" 
			},
			{
				"x": 0.768430393,
				"y": -0.2351712607,
				"z": 1.9054166798,
				"element": "C" 
			},
			{
				"x": 1.2229026799,
				"y": 0.8790326556,
				"z": 2.0724351742,
				"element": "O" 
			},
			{
				"x": -0.1671561183,
				"y": -0.5484425152,
				"z": 0.8212748074,
				"element": "C" 
			},
			{
				"x": -0.8345275755,
				"y": -1.6927738972,
				"z": 0.394285385,
				"element": "C" 
			},
			{
				"x": -1.6081769059,
				"y": -1.3345704427,
				"z": -0.7345591014,
				"element": "C" 
			},
			{
				"x": -1.3944768223,
				"y": 0.0161939425,
				"z": -0.9680980414,
				"element": "C" 
			},
			{
				"x": -0.5269446275,
				"y": 0.473746697,
				"z": -0.0253815783,
				"element": "N" 
			},
			{
				"x": 0.6695097488,
				"y": -2.0680881689,
				"z": 2.4699434031,
				"element": "H" 
			},
			{
				"x": -0.7782077617,
				"y": -2.6788470562,
				"z": 0.8375068092,
				"element": "H" 
			},
			{
				"x": -2.2490015245,
				"y": -1.9836244618,
				"z": -1.313879366,
				"element": "H" 
			},
			{
				"x": -1.7955432301,
				"y": 0.6691705136,
				"z": -1.7291150222,
				"element": "H" 
			},
			{
				"x": -0.1631243203,
				"y": 1.4091528478,
				"z": 0.0902595953,
				"element": "H" 
			}
		],
		 "valence_orbital": [ 
			{
				"type": "occ",
				"energy": -0.3853,
				"method": "rhf"
			},
			{
				"type": "occ",
				"energy": -0.31325,
				"method": "rhf"
			},
			{
				"type": "occ",
				"energy": -0.2752,
				"method": "rhf"
			},
			{
				"type": "occ",
				"energy": -0.26514,
				"method": "rhf"
			},
			{
				"type": "occ",
				"energy": -0.23411,
				"method": "rhf"
			},
			{
				"type": "unocc",
				"energy": -0.03137,
				"method": "rhf"
			},
			{
				"type": "unocc",
				"energy": 0.05005,
				"method": "rhf"
			},
			{
				"type": "unocc",
				"energy": 0.05483,
				"method": "rhf"
			},
			{
				"type": "unocc",
				"energy": 0.08819,
				"method": "rhf"
			},
			{
				"type": "unocc",
				"energy": 0.11539,
				"method": "rhf"
			}
		],
		"cosmo_sigma_profile": { 
			"-0.025": 0.0,
			"-0.024": 0.0,
			"-0.023": 0.0,
			"-0.022": 0.0,
			"-0.021": 0.0,
			"-0.02": 0.0,
			"-0.019": 0.0491701613374,
			"-0.018": 0.724561125207,
			"-0.017": 1.06376744361,
			"-0.016": 1.253969001,
			"-0.015": 2.15581991324,
			"-0.014": 1.53460115669,
			"-0.013": 1.85860356612,
			"-0.012": 2.12191192749,
			"-0.011": 2.2182412566,
			"-0.01": 1.96552507445,
			"-0.009": 2.31472566765,
			"-0.008": 4.72441652209,
			"-0.007": 4.47566168413,
			"-0.006": 5.5350155829,
			"-0.005": 5.81561183333,
			"-0.004": 5.90951824173,
			"-0.003": 6.54134800144,
			"-0.002": 6.70079322032,
			"-0.001": 8.1904151455,
			"0.0": 7.12862745067,
			"0.001": 7.26242418235,
			"0.002": 7.02892962824,
			"0.003": 7.1672373588,
			"0.004": 7.19358902473,
			"0.005": 7.81481316887,
			"0.006": 6.12551561631,
			"0.007": 3.06143370075,
			"0.008": 2.87409133317,
			"0.009": 2.90808367921,
			"0.01": 3.47439950171,
			"0.011": 5.08746633941,
			"0.012": 4.95439627937,
			"0.013": 2.68138733874,
			"0.014": 0.769752419829,
			"0.015": 0.0,
			"0.016": 0.0,
			"0.017": 0.0,
			"0.018": 0.0,
			"0.019": 0.0,
			"0.02": 0.0,
			"0.021": 0.0,
			"0.022": 0.0,
			"0.023": 0.0,
			"0.024": 0.0,
			"0.025": 0.0
		}
	}
}
