{
	 "smiles": "CC1=CC=C(O1)C(C1=CC=C(C)O1)C1=CC=CC=C1[N+]([O-])=O", 
	 "Tm": 353.15, 
	 "num_atms": 37, 
	 "gaussian": { 
		 "optdone": 1, 
		 "sigma_profile": "yes", 
		 "theory": "DFT", 
		 "functional": "B3LYP", 
		 "basiset": "6-31G**", 
		 "properties": { 
			 "R2extent": 7275.5327, 
			 "electric_dipole_moment_norm": 4.3783963948, 
			 "electric_quadrupole_moment_norm": 20.8809644626, 
			 "total_energy": -1012.36142979, 
			 "HOMO_LUMO_gap": 0.12603, 
			 "cosmo_polarized_energy": -11.04, 
			 "cosmo_cavitation_energy": 41.93, 
			 "cosmo_dispersion_energy": -28.32, 
			 "cosmo_repulsion_energy": 2.21, 
			 "cosmo_total_nonelectrostatic_energy": 15.82, 
			 "SMD_solvation_energy": 9.95 
		},
		"coords": [
			{
				"x": -0.5690412389,
				"y": -2.5718554631,
				"z": 2.9433627893,
				"element": "C" 
			},
			{
				"x": -0.5572702161,
				"y": -1.1169802228,
				"z": 2.6296993279,
				"element": "C" 
			},
			{
				"x": -0.9251567108,
				"y": 0.000772096,
				"z": 3.3179292932,
				"element": "C" 
			},
			{
				"x": -0.6677080372,
				"y": 1.1204818553,
				"z": 2.4595048967,
				"element": "C" 
			},
			{
				"x": -0.1655419345,
				"y": 0.6120731298,
				"z": 1.3005420016,
				"element": "C" 
			},
			{
				"x": -0.0872628567,
				"y": -0.7569219892,
				"z": 1.3916417311,
				"element": "O" 
			},
			{
				"x": 0.3278476595,
				"y": 1.2551211831,
				"z": 0.0366433393,
				"element": "C" 
			},
			{
				"x": -0.4074283412,
				"y": 0.7778687006,
				"z": -1.1854560974,
				"element": "C" 
			},
			{
				"x": -1.2733416378,
				"y": -0.2384106144,
				"z": -1.4601051372,
				"element": "C" 
			},
			{
				"x": -1.6313997732,
				"y": -0.1044669154,
				"z": -2.8437466422,
				"element": "C" 
			},
			{
				"x": -0.9593915268,
				"y": 0.9811031907,
				"z": -3.3213758765,
				"element": "C" 
			},
			{
				"x": -0.8910219685,
				"y": 1.6501626641,
				"z": -4.6491272633,
				"element": "C" 
			},
			{
				"x": -0.2071124371,
				"y": 1.5304974364,
				"z": -2.3157858697,
				"element": "O" 
			},
			{
				"x": 1.8521512019,
				"y": 1.076522502,
				"z": -0.1085984737,
				"element": "C" 
			},
			{
				"x": 2.3321167838,
				"y": -0.1370760929,
				"z": -0.6230175047,
				"element": "C" 
			},
			{
				"x": 3.6914855431,
				"y": -0.3872692301,
				"z": -0.7845908088,
				"element": "C" 
			},
			{
				"x": 4.6302700101,
				"y": 0.592688321,
				"z": -0.4533215047,
				"element": "C" 
			},
			{
				"x": 4.1915774997,
				"y": 1.8126794376,
				"z": 0.0421222748,
				"element": "C" 
			},
			{
				"x": 2.8226574367,
				"y": 2.0402521836,
				"z": 0.2254835625,
				"element": "C" 
			},
			{
				"x": 2.4772649079,
				"y": 3.3593084222,
				"z": 0.7873206225,
				"element": "N" 
			},
			{
				"x": 3.2926689566,
				"y": 4.2692733229,
				"z": 0.6412999577,
				"element": "O" 
			},
			{
				"x": 1.4088517445,
				"y": 3.4861175648,
				"z": 1.3914434801,
				"element": "O" 
			},
			{
				"x": 0.4370308353,
				"y": -3.0038286746,
				"z": 2.8883481652,
				"element": "H" 
			},
			{
				"x": -1.2046395752,
				"y": -3.1313999975,
				"z": 2.2467913883,
				"element": "H" 
			},
			{
				"x": -0.9526960873,
				"y": -2.7283858504,
				"z": 3.9541782621,
				"element": "H" 
			},
			{
				"x": -1.3290438754,
				"y": 0.0255404708,
				"z": 4.3201787355,
				"element": "H" 
			},
			{
				"x": -0.8195294841,
				"y": 2.1672248308,
				"z": 2.6770811297,
				"element": "H" 
			},
			{
				"x": 0.1193944904,
				"y": 2.3190343472,
				"z": 0.1502151825,
				"element": "H" 
			},
			{
				"x": -1.6127322419,
				"y": -0.9878259649,
				"z": -0.7617274492,
				"element": "H" 
			},
			{
				"x": -2.304508472,
				"y": -0.7349065826,
				"z": -3.4074635547,
				"element": "H" 
			},
			{
				"x": 0.1312682303,
				"y": 1.6557300978,
				"z": -5.0449137278,
				"element": "H" 
			},
			{
				"x": -1.5309432805,
				"y": 1.1249193687,
				"z": -5.3619517457,
				"element": "H" 
			},
			{
				"x": -1.225253659,
				"y": 2.6925520431,
				"z": -4.5914668366,
				"element": "H" 
			},
			{
				"x": 1.6062538699,
				"y": -0.8920674079,
				"z": -0.9052009296,
				"element": "H" 
			},
			{
				"x": 4.0178001709,
				"y": -1.3463754415,
				"z": -1.175951167,
				"element": "H" 
			},
			{
				"x": 5.6923350995,
				"y": 0.4101951237,
				"z": -0.5817018681,
				"element": "H" 
			},
			{
				"x": 4.8850489144,
				"y": 2.6032521551,
				"z": 0.2988163169,
				"element": "H" 
			}
		],
		 "valence_orbital": [ 
			{
				"type": "occ",
				"energy": -0.27166,
				"method": "rhf"
			},
			{
				"type": "occ",
				"energy": -0.26989,
				"method": "rhf"
			},
			{
				"type": "occ",
				"energy": -0.26664,
				"method": "rhf"
			},
			{
				"type": "occ",
				"energy": -0.21398,
				"method": "rhf"
			},
			{
				"type": "occ",
				"energy": -0.20921,
				"method": "rhf"
			},
			{
				"type": "unocc",
				"energy": -0.08318,
				"method": "rhf"
			},
			{
				"type": "unocc",
				"energy": -0.02314,
				"method": "rhf"
			},
			{
				"type": "unocc",
				"energy": -0.00102,
				"method": "rhf"
			},
			{
				"type": "unocc",
				"energy": 0.01219,
				"method": "rhf"
			},
			{
				"type": "unocc",
				"energy": 0.0245,
				"method": "rhf"
			}
		],
		"cosmo_sigma_profile": { 
			"-0.025": 0.0,
			"-0.024": 0.0,
			"-0.023": 0.0,
			"-0.022": 0.0,
			"-0.021": 0.0,
			"-0.02": 0.0,
			"-0.019": 0.0,
			"-0.018": 0.0,
			"-0.017": 0.0,
			"-0.016": 0.0,
			"-0.015": 0.0,
			"-0.014": 0.0,
			"-0.013": 0.0,
			"-0.012": 0.0,
			"-0.011": 0.0,
			"-0.01": 0.0,
			"-0.009": 0.0898638406057,
			"-0.008": 1.4703122274,
			"-0.007": 7.34822033515,
			"-0.006": 15.3318325088,
			"-0.005": 25.2872985037,
			"-0.004": 29.2143112999,
			"-0.003": 26.1511172131,
			"-0.002": 26.3074411271,
			"-0.001": 32.4187491446,
			"0.0": 25.7891024683,
			"0.001": 23.9903093392,
			"0.002": 27.971810218,
			"0.003": 23.7608643004,
			"0.004": 17.7765364627,
			"0.005": 16.8116453264,
			"0.006": 14.3749521485,
			"0.007": 7.39183667089,
			"0.008": 6.85719158131,
			"0.009": 4.07836204885,
			"0.01": 2.71352238424,
			"0.011": 0.134098103805,
			"0.012": 0.0,
			"0.013": 0.0,
			"0.014": 0.0,
			"0.015": 0.0,
			"0.016": 0.0,
			"0.017": 0.0,
			"0.018": 0.0,
			"0.019": 0.0,
			"0.02": 0.0,
			"0.021": 0.0,
			"0.022": 0.0,
			"0.023": 0.0,
			"0.024": 0.0,
			"0.025": 0.0
		}
	}
}
