{
	 "smiles": "CC(C)(C)OC(=O)NC1(CN)CCCCCC1", 
	 "Tm": 351.15, 
	 "num_atms": 43, 
	 "gaussian": { 
		 "optdone": 1, 
		 "sigma_profile": "yes", 
		 "theory": "DFT", 
		 "functional": "B3LYP", 
		 "basiset": "6-31G**", 
		 "properties": { 
			 "R2extent": 4837.6535, 
			 "electric_dipole_moment_norm": 2.60374908737, 
			 "electric_quadrupole_moment_norm": 14.4194062243, 
			 "total_energy": -771.042064115, 
			 "HOMO_LUMO_gap": 0.292, 
			 "cosmo_polarized_energy": -11.45, 
			 "cosmo_cavitation_energy": 40.07, 
			 "cosmo_dispersion_energy": -27.22, 
			 "cosmo_repulsion_energy": 2.14, 
			 "cosmo_total_nonelectrostatic_energy": 14.99, 
			 "SMD_solvation_energy": 6.39 
		},
		"coords": [
			{
				"x": -1.8600705782,
				"y": 3.239848233,
				"z": 0.5740749539,
				"element": "C" 
			},
			{
				"x": -1.8279633049,
				"y": 2.0082296588,
				"z": 1.4833510743,
				"element": "C" 
			},
			{
				"x": -3.2133951944,
				"y": 1.3569400725,
				"z": 1.5595929315,
				"element": "C" 
			},
			{
				"x": -1.2812683796,
				"y": 2.3711771711,
				"z": 2.8685282495,
				"element": "C" 
			},
			{
				"x": -0.8882670566,
				"y": 1.1169678817,
				"z": 0.785369874,
				"element": "O" 
			},
			{
				"x": -0.6012026449,
				"y": -0.1122829724,
				"z": 1.2837873502,
				"element": "C" 
			},
			{
				"x": -1.0375355341,
				"y": -0.577258596,
				"z": 2.3274919309,
				"element": "O" 
			},
			{
				"x": 0.2466695472,
				"y": -0.8099356217,
				"z": 0.4667538495,
				"element": "N" 
			},
			{
				"x": 0.9610265885,
				"y": -0.3981063558,
				"z": -0.7613868599,
				"element": "C" 
			},
			{
				"x": 1.9606410496,
				"y": 0.7339083066,
				"z": -0.3858952017,
				"element": "C" 
			},
			{
				"x": 2.7371611791,
				"y": 1.1918415644,
				"z": -1.5418439018,
				"element": "N" 
			},
			{
				"x": 1.7809808477,
				"y": -1.6305696743,
				"z": -1.2135353303,
				"element": "C" 
			},
			{
				"x": 1.0091019897,
				"y": -2.9327128457,
				"z": -1.5106050431,
				"element": "C" 
			},
			{
				"x": -0.2947506496,
				"y": -2.7658693623,
				"z": -2.3048305205,
				"element": "C" 
			},
			{
				"x": -0.202885443,
				"y": -1.8764902249,
				"z": -3.5548450882,
				"element": "C" 
			},
			{
				"x": 0.2070896289,
				"y": -0.4000091261,
				"z": -3.2945581979,
				"element": "C" 
			},
			{
				"x": -0.0340877652,
				"y": 0.1110072097,
				"z": -1.8635379535,
				"element": "C" 
			},
			{
				"x": -2.5417895506,
				"y": 3.9910907152,
				"z": 0.9840636977,
				"element": "H" 
			},
			{
				"x": -0.8648926212,
				"y": 3.686844846,
				"z": 0.4904848851,
				"element": "H" 
			},
			{
				"x": -2.2028229618,
				"y": 2.9712483133,
				"z": -0.4292848929,
				"element": "H" 
			},
			{
				"x": -3.1903057263,
				"y": 0.4660601277,
				"z": 2.1871535303,
				"element": "H" 
			},
			{
				"x": -3.5572838626,
				"y": 1.0784136817,
				"z": 0.5582605664,
				"element": "H" 
			},
			{
				"x": -3.9315746638,
				"y": 2.0692112289,
				"z": 1.9789800276,
				"element": "H" 
			},
			{
				"x": -0.2774127884,
				"y": 2.7993634608,
				"z": 2.7804306486,
				"element": "H" 
			},
			{
				"x": -1.929357636,
				"y": 3.1207321206,
				"z": 3.3346539615,
				"element": "H" 
			},
			{
				"x": -1.2359091936,
				"y": 1.4918414896,
				"z": 3.5108280443,
				"element": "H" 
			},
			{
				"x": 0.5048597962,
				"y": -1.6932865715,
				"z": 0.8812485299,
				"element": "H" 
			},
			{
				"x": 2.5799280093,
				"y": 0.3749727845,
				"z": 0.4536772115,
				"element": "H" 
			},
			{
				"x": 1.3740556242,
				"y": 1.5765470125,
				"z": -0.0128982571,
				"element": "H" 
			},
			{
				"x": 3.5576974994,
				"y": 0.6093779343,
				"z": -1.6796168688,
				"element": "H" 
			},
			{
				"x": 3.0781921065,
				"y": 2.1350602123,
				"z": -1.3852436696,
				"element": "H" 
			},
			{
				"x": 2.3403494958,
				"y": -1.3356394927,
				"z": -2.1046329272,
				"element": "H" 
			},
			{
				"x": 2.5352385935,
				"y": -1.8402367787,
				"z": -0.4414619619,
				"element": "H" 
			},
			{
				"x": 0.774690964,
				"y": -3.4544928763,
				"z": -0.5731328421,
				"element": "H" 
			},
			{
				"x": 1.6907526657,
				"y": -3.6013412451,
				"z": -2.0526611596,
				"element": "H" 
			},
			{
				"x": -1.0633204557,
				"y": -2.3613858793,
				"z": -1.6366765999,
				"element": "H" 
			},
			{
				"x": -0.6520819158,
				"y": -3.760195665,
				"z": -2.60121816,
				"element": "H" 
			},
			{
				"x": -1.1873135879,
				"y": -1.8942769796,
				"z": -4.0389905246,
				"element": "H" 
			},
			{
				"x": 0.4903295973,
				"y": -2.3270046808,
				"z": -4.2774390662,
				"element": "H" 
			},
			{
				"x": -0.3616097619,
				"y": 0.243417823,
				"z": -3.9769252338,
				"element": "H" 
			},
			{
				"x": 1.2564071695,
				"y": -0.2327757338,
				"z": -3.5535498856,
				"element": "H" 
			},
			{
				"x": -1.0528220313,
				"y": -0.135498721,
				"z": -1.5521093445,
				"element": "H" 
			},
			{
				"x": 0.0189509555,
				"y": 1.2024675549,
				"z": -1.8840518257,
				"element": "H" 
			}
		],
		 "valence_orbital": [ 
			{
				"type": "occ",
				"energy": -0.29935,
				"method": "rhf"
			},
			{
				"type": "occ",
				"energy": -0.28056,
				"method": "rhf"
			},
			{
				"type": "occ",
				"energy": -0.25315,
				"method": "rhf"
			},
			{
				"type": "occ",
				"energy": -0.24696,
				"method": "rhf"
			},
			{
				"type": "occ",
				"energy": -0.23004,
				"method": "rhf"
			},
			{
				"type": "unocc",
				"energy": 0.06196,
				"method": "rhf"
			},
			{
				"type": "unocc",
				"energy": 0.0664,
				"method": "rhf"
			},
			{
				"type": "unocc",
				"energy": 0.07562,
				"method": "rhf"
			},
			{
				"type": "unocc",
				"energy": 0.08413,
				"method": "rhf"
			},
			{
				"type": "unocc",
				"energy": 0.10256,
				"method": "rhf"
			}
		],
		"cosmo_sigma_profile": { 
			"-0.025": 0.0,
			"-0.024": 0.0,
			"-0.023": 0.0,
			"-0.022": 0.0,
			"-0.021": 0.0,
			"-0.02": 0.0,
			"-0.019": 0.0,
			"-0.018": 0.0,
			"-0.017": 0.0,
			"-0.016": 0.0,
			"-0.015": 0.0,
			"-0.014": 0.0,
			"-0.013": 0.0,
			"-0.012": 0.214606908798,
			"-0.011": 1.01402921657,
			"-0.01": 1.73427588586,
			"-0.009": 3.36737450537,
			"-0.008": 3.75728976828,
			"-0.007": 3.99914165562,
			"-0.006": 4.64726210674,
			"-0.005": 4.53635191662,
			"-0.004": 13.0696348643,
			"-0.003": 24.5200615207,
			"-0.002": 37.163437789,
			"-0.001": 46.5048475246,
			"0.0": 55.7552802354,
			"0.001": 46.4629616638,
			"0.002": 17.8724346816,
			"0.003": 6.44229430253,
			"0.004": 5.47403837331,
			"0.005": 4.78081163265,
			"0.006": 3.42612117681,
			"0.007": 2.5547199389,
			"0.008": 2.31111061928,
			"0.009": 2.10617956563,
			"0.01": 1.55319170368,
			"0.011": 2.97868749649,
			"0.012": 2.32242474924,
			"0.013": 3.02481834049,
			"0.014": 4.02374416858,
			"0.015": 1.42780540156,
			"0.016": 0.147486343582,
			"0.017": 0.0,
			"0.018": 0.0,
			"0.019": 0.0,
			"0.02": 0.0,
			"0.021": 0.0,
			"0.022": 0.0,
			"0.023": 0.0,
			"0.024": 0.0,
			"0.025": 0.0
		}
	}
}
