{
	 "smiles": "CC(=O)OC(C(O)=O)C1=CC=CC=C1", 
	 "Tm": 370.15, 
	 "num_atms": 24, 
	 "gaussian": { 
		 "optdone": 1, 
		 "sigma_profile": "yes", 
		 "theory": "DFT", 
		 "functional": "B3LYP", 
		 "basiset": "6-31G**", 
		 "properties": { 
			 "R2extent": 3391.3196, 
			 "electric_dipole_moment_norm": 5.1656640396, 
			 "electric_quadrupole_moment_norm": 11.971908274, 
			 "total_energy": -687.998702123, 
			 "HOMO_LUMO_gap": 0.23001, 
			 "cosmo_polarized_energy": -17.4, 
			 "cosmo_cavitation_energy": 28.39, 
			 "cosmo_dispersion_energy": -20.1, 
			 "cosmo_repulsion_energy": 1.61, 
			 "cosmo_total_nonelectrostatic_energy": 9.9, 
			 "SMD_solvation_energy": 6.85 
		},
		"coords": [
			{
				"x": -0.1403895504,
				"y": -3.4978175007,
				"z": -1.6799765167,
				"element": "C" 
			},
			{
				"x": 0.1443027796,
				"y": -2.0573956439,
				"z": -1.3380367939,
				"element": "C" 
			},
			{
				"x": -0.6696503983,
				"y": -1.2330067084,
				"z": -0.9985923238,
				"element": "O" 
			},
			{
				"x": 1.4815620521,
				"y": -1.7874608706,
				"z": -1.4606815032,
				"element": "O" 
			},
			{
				"x": 1.9570420644,
				"y": -0.5026206115,
				"z": -0.9332146311,
				"element": "C" 
			},
			{
				"x": 1.3822854202,
				"y": 0.6752963083,
				"z": -1.7413304613,
				"element": "C" 
			},
			{
				"x": 1.1443033881,
				"y": 0.3911400879,
				"z": -3.0414977812,
				"element": "O" 
			},
			{
				"x": 1.2594116663,
				"y": 1.7903578133,
				"z": -1.3066063496,
				"element": "O" 
			},
			{
				"x": 1.8598296239,
				"y": -0.4127084384,
				"z": 0.5729857857,
				"element": "C" 
			},
			{
				"x": 0.8012910065,
				"y": 0.2203481661,
				"z": 1.2380690039,
				"element": "C" 
			},
			{
				"x": 0.764376785,
				"y": 0.2381152278,
				"z": 2.6319360777,
				"element": "C" 
			},
			{
				"x": 1.7735172587,
				"y": -0.376537511,
				"z": 3.3761663318,
				"element": "C" 
			},
			{
				"x": 2.8308652149,
				"y": -1.0090316051,
				"z": 2.7207798266,
				"element": "C" 
			},
			{
				"x": 2.8723795718,
				"y": -1.0217102431,
				"z": 1.3269806969,
				"element": "C" 
			},
			{
				"x": 0.2132826031,
				"y": -4.1351855231,
				"z": -0.8628155171,
				"element": "H" 
			},
			{
				"x": 0.3934652926,
				"y": -3.7990860845,
				"z": -2.5847040757,
				"element": "H" 
			},
			{
				"x": -1.2140456033,
				"y": -3.634338985,
				"z": -1.8057181102,
				"element": "H" 
			},
			{
				"x": 3.0179804217,
				"y": -0.5426487989,
				"z": -1.2054489279,
				"element": "H" 
			},
			{
				"x": 1.2941554239,
				"y": -0.5553657531,
				"z": -3.1914163879,
				"element": "H" 
			},
			{
				"x": 0.0186305151,
				"y": 0.7006572406,
				"z": 0.6662988809,
				"element": "H" 
			},
			{
				"x": -0.0576699536,
				"y": 0.7357546379,
				"z": 3.1379134592,
				"element": "H" 
			},
			{
				"x": 1.7385709921,
				"y": -0.3576936445,
				"z": 4.4617616123,
				"element": "H" 
			},
			{
				"x": 3.6241004638,
				"y": -1.4839009265,
				"z": 3.2907195198,
				"element": "H" 
			},
			{
				"x": 3.7003029618,
				"y": -1.5097606336,
				"z": 0.8178281848,
				"element": "H" 
			}
		],
		 "valence_orbital": [ 
			{
				"type": "occ",
				"energy": -0.31794,
				"method": "rhf"
			},
			{
				"type": "occ",
				"energy": -0.29265,
				"method": "rhf"
			},
			{
				"type": "occ",
				"energy": -0.27232,
				"method": "rhf"
			},
			{
				"type": "occ",
				"energy": -0.25572,
				"method": "rhf"
			},
			{
				"type": "occ",
				"energy": -0.25146,
				"method": "rhf"
			},
			{
				"type": "unocc",
				"energy": -0.02145,
				"method": "rhf"
			},
			{
				"type": "unocc",
				"energy": -0.01075,
				"method": "rhf"
			},
			{
				"type": "unocc",
				"energy": -0.00476,
				"method": "rhf"
			},
			{
				"type": "unocc",
				"energy": 0.00641,
				"method": "rhf"
			},
			{
				"type": "unocc",
				"energy": 0.07023,
				"method": "rhf"
			}
		],
		"cosmo_sigma_profile": { 
			"-0.025": 0.0,
			"-0.024": 0.0,
			"-0.023": 0.0,
			"-0.022": 0.0,
			"-0.021": 0.0,
			"-0.02": 0.0,
			"-0.019": 0.0,
			"-0.018": 0.0155032791016,
			"-0.017": 0.538075633081,
			"-0.016": 1.12405900022,
			"-0.015": 0.580528936766,
			"-0.014": 0.939408705034,
			"-0.013": 0.743058208677,
			"-0.012": 2.04998594392,
			"-0.011": 1.58330074747,
			"-0.01": 3.57066629308,
			"-0.009": 3.12156170237,
			"-0.008": 3.62344837662,
			"-0.007": 7.54000117301,
			"-0.006": 14.2993234295,
			"-0.005": 15.6648700789,
			"-0.004": 18.0890187523,
			"-0.003": 16.0062091926,
			"-0.002": 14.6531715984,
			"-0.001": 10.7615908562,
			"0.0": 8.62816826993,
			"0.001": 9.33289064373,
			"0.002": 11.5559202398,
			"0.003": 10.5943302274,
			"0.004": 13.8049205926,
			"0.005": 16.0392933095,
			"0.006": 5.37968697339,
			"0.007": 5.43671260313,
			"0.008": 5.8907104552,
			"0.009": 6.59465295361,
			"0.01": 6.61601223647,
			"0.011": 7.5331320679,
			"0.012": 3.46079389818,
			"0.013": 0.142905948049,
			"0.014": 0.0,
			"0.015": 0.0,
			"0.016": 0.0,
			"0.017": 0.0,
			"0.018": 0.0,
			"0.019": 0.0,
			"0.02": 0.0,
			"0.021": 0.0,
			"0.022": 0.0,
			"0.023": 0.0,
			"0.024": 0.0,
			"0.025": 0.0
		}
	}
}
