{
	 "smiles": "OCC1=NC=NC=C1", 
	 "Tm": 350.15, 
	 "num_atms": 14, 
	 "gaussian": { 
		 "optdone": 1, 
		 "sigma_profile": "yes", 
		 "theory": "DFT", 
		 "functional": "B3LYP", 
		 "basiset": "6-31G**", 
		 "properties": { 
			 "R2extent": 1147.7243, 
			 "electric_dipole_moment_norm": 2.43577537552, 
			 "electric_quadrupole_moment_norm": 9.31152909623, 
			 "total_energy": -378.85683836, 
			 "HOMO_LUMO_gap": 0.21357, 
			 "cosmo_polarized_energy": -9.07, 
			 "cosmo_cavitation_energy": 17.86, 
			 "cosmo_dispersion_energy": -13.77, 
			 "cosmo_repulsion_energy": 1.15, 
			 "cosmo_total_nonelectrostatic_energy": 5.24, 
			 "SMD_solvation_energy": 1.08 
		},
		"coords": [
			{
				"x": -1.4263891526,
				"y": 2.2470458635,
				"z": 0.0111948917,
				"element": "O" 
			},
			{
				"x": -0.1170332428,
				"y": 1.8283789167,
				"z": 0.2796940345,
				"element": "C" 
			},
			{
				"x": 0.3131438711,
				"y": 0.6645380874,
				"z": -0.5935134303,
				"element": "C" 
			},
			{
				"x": -0.6024327711,
				"y": 0.2263875582,
				"z": -1.4657268245,
				"element": "N" 
			},
			{
				"x": -0.2552038347,
				"y": -0.8002753808,
				"z": -2.2520604204,
				"element": "C" 
			},
			{
				"x": 0.9144776816,
				"y": -1.4382104227,
				"z": -2.2596857317,
				"element": "N" 
			},
			{
				"x": 1.8246262821,
				"y": -0.9893202141,
				"z": -1.3801293761,
				"element": "C" 
			},
			{
				"x": 1.5758445673,
				"y": 0.0686970961,
				"z": -0.5146282385,
				"element": "C" 
			},
			{
				"x": -1.7469372015,
				"y": 1.6617903834,
				"z": -0.6988938327,
				"element": "H" 
			},
			{
				"x": -0.0147545156,
				"y": 1.5253002315,
				"z": 1.3351685214,
				"element": "H" 
			},
			{
				"x": 0.5947656028,
				"y": 2.6568907289,
				"z": 0.127223741,
				"element": "H" 
			},
			{
				"x": -1.0084057955,
				"y": -1.1467280121,
				"z": -2.9568162552,
				"element": "H" 
			},
			{
				"x": 2.785162845,
				"y": -1.5012443642,
				"z": -1.3750792502,
				"element": "H" 
			},
			{
				"x": 2.3265356638,
				"y": 0.4153495282,
				"z": 0.1887521711,
				"element": "H" 
			}
		],
		 "valence_orbital": [ 
			{
				"type": "occ",
				"energy": -0.32449,
				"method": "rhf"
			},
			{
				"type": "occ",
				"energy": -0.3147,
				"method": "rhf"
			},
			{
				"type": "occ",
				"energy": -0.29905,
				"method": "rhf"
			},
			{
				"type": "occ",
				"energy": -0.26898,
				"method": "rhf"
			},
			{
				"type": "occ",
				"energy": -0.26121,
				"method": "rhf"
			},
			{
				"type": "unocc",
				"energy": -0.04764,
				"method": "rhf"
			},
			{
				"type": "unocc",
				"energy": -0.04098,
				"method": "rhf"
			},
			{
				"type": "unocc",
				"energy": 0.09895,
				"method": "rhf"
			},
			{
				"type": "unocc",
				"energy": 0.10906,
				"method": "rhf"
			},
			{
				"type": "unocc",
				"energy": 0.11712,
				"method": "rhf"
			}
		],
		"cosmo_sigma_profile": { 
			"-0.025": 0.0,
			"-0.024": 0.0,
			"-0.023": 0.0,
			"-0.022": 0.0,
			"-0.021": 0.0,
			"-0.02": 0.0,
			"-0.019": 0.0,
			"-0.018": 0.0,
			"-0.017": 0.0,
			"-0.016": 0.0,
			"-0.015": 0.0,
			"-0.014": 0.0,
			"-0.013": 0.0,
			"-0.012": 0.0,
			"-0.011": 0.0,
			"-0.01": 0.0,
			"-0.009": 0.435123306474,
			"-0.008": 5.7418721807,
			"-0.007": 8.92614131716,
			"-0.006": 10.9662650435,
			"-0.005": 10.4525289607,
			"-0.004": 9.71132484662,
			"-0.003": 8.1194953996,
			"-0.002": 11.5170656153,
			"-0.001": 12.4270209666,
			"0.0": 13.5259064096,
			"0.001": 7.7219583886,
			"0.002": 5.26065398626,
			"0.003": 4.29416192187,
			"0.004": 3.93323018922,
			"0.005": 4.68521072296,
			"0.006": 3.29069936696,
			"0.007": 3.53388987952,
			"0.008": 2.08762125743,
			"0.009": 2.23360580055,
			"0.01": 1.8683758196,
			"0.011": 1.71989044026,
			"0.012": 2.88578593124,
			"0.013": 2.69014592267,
			"0.014": 3.34147981348,
			"0.015": 1.15424012683,
			"0.016": 0.271869797225,
			"0.017": 0.0,
			"0.018": 0.0,
			"0.019": 0.0,
			"0.02": 0.0,
			"0.021": 0.0,
			"0.022": 0.0,
			"0.023": 0.0,
			"0.024": 0.0,
			"0.025": 0.0
		}
	}
}
