{
	 "smiles": "CC(=O)OC1=CC(=CC=C1)N=NC1=CC=CC(OC(C)=O)=C1", 
	 "Tm": 417.15, 
	 "num_atms": 36, 
	 "gaussian": { 
		 "optdone": 1, 
		 "sigma_profile": "yes", 
		 "theory": "DFT", 
		 "functional": "B3LYP", 
		 "basiset": "6-31G**", 
		 "properties": { 
			 "R2extent": 11731.847, 
			 "electric_dipole_moment_norm": 3.08791005374, 
			 "electric_quadrupole_moment_norm": 22.3772004887, 
			 "total_energy": -1028.51508216, 
			 "HOMO_LUMO_gap": 0.1447, 
			 "cosmo_polarized_energy": -14.6, 
			 "cosmo_cavitation_energy": 43.26, 
			 "cosmo_dispersion_energy": -30.63, 
			 "cosmo_repulsion_energy": 2.38, 
			 "cosmo_total_nonelectrostatic_energy": 15.02, 
			 "SMD_solvation_energy": 8.75 
		},
		"coords": [
			{
				"x": 4.6855816587,
				"y": 0.7178188091,
				"z": -5.0326997039,
				"element": "C" 
			},
			{
				"x": 3.9041937658,
				"y": 1.6797561216,
				"z": -4.1727158205,
				"element": "C" 
			},
			{
				"x": 4.2528695881,
				"y": 2.788645728,
				"z": -3.8514892418,
				"element": "O" 
			},
			{
				"x": 2.7197044563,
				"y": 1.0984316209,
				"z": -3.7978570996,
				"element": "O" 
			},
			{
				"x": 1.8136518775,
				"y": 1.7669121285,
				"z": -2.9723755659,
				"element": "C" 
			},
			{
				"x": 1.2246659212,
				"y": 0.9988578112,
				"z": -1.9791156379,
				"element": "C" 
			},
			{
				"x": 0.2447704111,
				"y": 1.5785637142,
				"z": -1.1575400512,
				"element": "C" 
			},
			{
				"x": -0.1234824069,
				"y": 2.9170846759,
				"z": -1.3421684444,
				"element": "C" 
			},
			{
				"x": 0.4804439951,
				"y": 3.6703069348,
				"z": -2.347569153,
				"element": "C" 
			},
			{
				"x": 1.4507416815,
				"y": 3.1047666413,
				"z": -3.1747057168,
				"element": "C" 
			},
			{
				"x": -0.4298283099,
				"y": 0.8954668574,
				"z": -0.1146052029,
				"element": "N" 
			},
			{
				"x": -0.0856154371,
				"y": -0.3062546932,
				"z": 0.0405709875,
				"element": "N" 
			},
			{
				"x": -0.7605492655,
				"y": -0.9888543186,
				"z": 1.0853854623,
				"element": "C" 
			},
			{
				"x": -0.3985229234,
				"y": -2.3310487486,
				"z": 1.2569815,
				"element": "C" 
			},
			{
				"x": -1.0084145211,
				"y": -3.0932768508,
				"z": 2.2518020023,
				"element": "C" 
			},
			{
				"x": -1.9722416049,
				"y": -2.5185123109,
				"z": 3.0782352177,
				"element": "C" 
			},
			{
				"x": -2.3224154427,
				"y": -1.1758874293,
				"z": 2.8978738722,
				"element": "C" 
			},
			{
				"x": -3.3500418826,
				"y": -0.7079131492,
				"z": 3.7174684855,
				"element": "O" 
			},
			{
				"x": -3.2684767969,
				"y": 0.5209192981,
				"z": 4.3261940528,
				"element": "C" 
			},
			{
				"x": -4.5145257296,
				"y": 0.759398952,
				"z": 5.1423174628,
				"element": "C" 
			},
			{
				"x": -2.3355787979,
				"y": 1.2756092632,
				"z": 4.2162773521,
				"element": "O" 
			},
			{
				"x": -1.7337285543,
				"y": -0.3991149964,
				"z": 1.9096281369,
				"element": "C" 
			},
			{
				"x": 5.6120212692,
				"y": 1.1920820488,
				"z": -5.3543346547,
				"element": "H" 
			},
			{
				"x": 4.0911353483,
				"y": 0.4231879743,
				"z": -5.9023647259,
				"element": "H" 
			},
			{
				"x": 4.9083242628,
				"y": -0.1919457488,
				"z": -4.4673136847,
				"element": "H" 
			},
			{
				"x": 1.5084186011,
				"y": -0.0365678807,
				"z": -1.8371477426,
				"element": "H" 
			},
			{
				"x": -0.8801544212,
				"y": 3.3390605099,
				"z": -0.6894319657,
				"element": "H" 
			},
			{
				"x": 0.1960019636,
				"y": 4.7076915481,
				"z": -2.4936143037,
				"element": "H" 
			},
			{
				"x": 1.9257403963,
				"y": 3.6872459043,
				"z": -3.9526587031,
				"element": "H" 
			},
			{
				"x": 0.3567733975,
				"y": -2.7490640901,
				"z": 0.600126362,
				"element": "H" 
			},
			{
				"x": -0.7344341265,
				"y": -4.1348659888,
				"z": 2.3871218802,
				"element": "H" 
			},
			{
				"x": -2.4633860468,
				"y": -3.0894056826,
				"z": 3.8591592062,
				"element": "H" 
			},
			{
				"x": -5.3972155308,
				"y": 0.7190367829,
				"z": 4.4972650848,
				"element": "H" 
			},
			{
				"x": -4.62590899,
				"y": -0.0254086875,
				"z": 5.8961752944,
				"element": "H" 
			},
			{
				"x": -4.4484338395,
				"y": 1.7338654035,
				"z": 5.6246860716,
				"element": "H" 
			},
			{
				"x": -1.9941839663,
				"y": 0.6397118475,
				"z": 1.7651389867,
				"element": "H" 
			}
		],
		 "valence_orbital": [ 
			{
				"type": "occ",
				"energy": -0.27243,
				"method": "rhf"
			},
			{
				"type": "occ",
				"energy": -0.25054,
				"method": "rhf"
			},
			{
				"type": "occ",
				"energy": -0.24912,
				"method": "rhf"
			},
			{
				"type": "occ",
				"energy": -0.2303,
				"method": "rhf"
			},
			{
				"type": "occ",
				"energy": -0.22966,
				"method": "rhf"
			},
			{
				"type": "unocc",
				"energy": -0.08496,
				"method": "rhf"
			},
			{
				"type": "unocc",
				"energy": -0.0157,
				"method": "rhf"
			},
			{
				"type": "unocc",
				"energy": -0.01419,
				"method": "rhf"
			},
			{
				"type": "unocc",
				"energy": -0.00062,
				"method": "rhf"
			},
			{
				"type": "unocc",
				"energy": 0.01224,
				"method": "rhf"
			}
		],
		"cosmo_sigma_profile": { 
			"-0.025": 0.0,
			"-0.024": 0.0,
			"-0.023": 0.0,
			"-0.022": 0.0,
			"-0.021": 0.0,
			"-0.02": 0.0,
			"-0.019": 0.0,
			"-0.018": 0.0,
			"-0.017": 0.0,
			"-0.016": 0.0,
			"-0.015": 0.0,
			"-0.014": 0.0,
			"-0.013": 0.0,
			"-0.012": 0.0,
			"-0.011": 0.0,
			"-0.01": 0.0,
			"-0.009": 0.0,
			"-0.008": 0.353499252103,
			"-0.007": 12.6630609004,
			"-0.006": 24.596153859,
			"-0.005": 28.0498078753,
			"-0.004": 27.1613477328,
			"-0.003": 26.3965706743,
			"-0.002": 27.5377731982,
			"-0.001": 17.9013104204,
			"0.0": 20.5955901973,
			"0.001": 32.9251537926,
			"0.002": 39.1773775952,
			"0.003": 27.5894146357,
			"0.004": 12.6697123868,
			"0.005": 8.31088815043,
			"0.006": 9.19558179215,
			"0.007": 6.84319025061,
			"0.008": 3.92780978684,
			"0.009": 4.2790408479,
			"0.01": 5.58566450056,
			"0.011": 8.18166728792,
			"0.012": 3.05832858456,
			"0.013": 0.0797705417788,
			"0.014": 0.0,
			"0.015": 0.0,
			"0.016": 0.0,
			"0.017": 0.0,
			"0.018": 0.0,
			"0.019": 0.0,
			"0.02": 0.0,
			"0.021": 0.0,
			"0.022": 0.0,
			"0.023": 0.0,
			"0.024": 0.0,
			"0.025": 0.0
		}
	}
}
