{
	 "smiles": "N=C1NCCS1", 
	 "Tm": 358.45, 
	 "num_atms": 12, 
	 "gaussian": { 
		 "optdone": 1, 
		 "sigma_profile": "yes", 
		 "theory": "DFT", 
		 "functional": "B3LYP", 
		 "basiset": "6-31G**", 
		 "properties": { 
			 "R2extent": 691.5107, 
			 "electric_dipole_moment_norm": 4.67007158618, 
			 "electric_quadrupole_moment_norm": 7.27921956462, 
			 "total_energy": -625.613497476, 
			 "HOMO_LUMO_gap": 0.24893, 
			 "cosmo_polarized_energy": -13.99, 
			 "cosmo_cavitation_energy": 16.59, 
			 "cosmo_dispersion_energy": -13.38, 
			 "cosmo_repulsion_energy": 1.11, 
			 "cosmo_total_nonelectrostatic_energy": 4.31, 
			 "SMD_solvation_energy": 0.52 
		},
		"coords": [
			{
				"x": -0.7742677054,
				"y": -1.1128082402,
				"z": 1.6826125042,
				"element": "N" 
			},
			{
				"x": -0.1158506322,
				"y": -0.6836612427,
				"z": 0.68264439,
				"element": "C" 
			},
			{
				"x": 0.9902395707,
				"y": 0.1637125118,
				"z": 0.6257791665,
				"element": "N" 
			},
			{
				"x": 1.241468027,
				"y": 0.7602823576,
				"z": -0.6824791116,
				"element": "C" 
			},
			{
				"x": 0.9179462686,
				"y": -0.3466960795,
				"z": -1.6902449847,
				"element": "C" 
			},
			{
				"x": -0.5506642644,
				"y": -1.1991620208,
				"z": -0.9855227009,
				"element": "S" 
			},
			{
				"x": -0.4302618499,
				"y": -0.7123617537,
				"z": 2.5583527333,
				"element": "H" 
			},
			{
				"x": 1.1159419254,
				"y": 0.7583219408,
				"z": 1.4357332771,
				"element": "H" 
			},
			{
				"x": 2.2882432141,
				"y": 1.0718297115,
				"z": -0.7611402658,
				"element": "H" 
			},
			{
				"x": 0.6030580562,
				"y": 1.637743772,
				"z": -0.8673388584,
				"element": "H" 
			},
			{
				"x": 0.6760427774,
				"y": 0.0530028505,
				"z": -2.6762025846,
				"element": "H" 
			},
			{
				"x": 1.7449046124,
				"y": -1.0558038074,
				"z": -1.7784935652,
				"element": "H" 
			}
		],
		 "valence_orbital": [ 
			{
				"type": "occ",
				"energy": -0.36628,
				"method": "rhf"
			},
			{
				"type": "occ",
				"energy": -0.333,
				"method": "rhf"
			},
			{
				"type": "occ",
				"energy": -0.26243,
				"method": "rhf"
			},
			{
				"type": "occ",
				"energy": -0.24637,
				"method": "rhf"
			},
			{
				"type": "occ",
				"energy": -0.22719,
				"method": "rhf"
			},
			{
				"type": "unocc",
				"energy": 0.02174,
				"method": "rhf"
			},
			{
				"type": "unocc",
				"energy": 0.03475,
				"method": "rhf"
			},
			{
				"type": "unocc",
				"energy": 0.06237,
				"method": "rhf"
			},
			{
				"type": "unocc",
				"energy": 0.08008,
				"method": "rhf"
			},
			{
				"type": "unocc",
				"energy": 0.11305,
				"method": "rhf"
			}
		],
		"cosmo_sigma_profile": { 
			"-0.025": 0.0,
			"-0.024": 0.0,
			"-0.023": 0.0,
			"-0.022": 0.0,
			"-0.021": 0.0,
			"-0.02": 0.0,
			"-0.019": 0.0,
			"-0.018": 0.0,
			"-0.017": 0.0,
			"-0.016": 0.0,
			"-0.015": 0.0851268724962,
			"-0.014": 1.68612950578,
			"-0.013": 2.36486079538,
			"-0.012": 1.83748558004,
			"-0.011": 1.74184325227,
			"-0.01": 2.57874354688,
			"-0.009": 1.43991561164,
			"-0.008": 1.74814095141,
			"-0.007": 4.01414273126,
			"-0.006": 8.0975690816,
			"-0.005": 12.8156536187,
			"-0.004": 14.0082406733,
			"-0.003": 10.8178007118,
			"-0.002": 5.60753178508,
			"-0.001": 3.89307822175,
			"0.0": 3.22287364217,
			"0.001": 3.91763292405,
			"0.002": 3.85931047652,
			"0.003": 5.054500407,
			"0.004": 6.43097400227,
			"0.005": 6.426230491,
			"0.006": 4.95194800163,
			"0.007": 5.50724128803,
			"0.008": 5.51084196456,
			"0.009": 2.48984570253,
			"0.01": 2.70886792911,
			"0.011": 1.51190472138,
			"0.012": 0.926995807433,
			"0.013": 1.10869211152,
			"0.014": 1.43062693602,
			"0.015": 1.0578368074,
			"0.016": 1.49456817106,
			"0.017": 0.997703230153,
			"0.018": 1.12130090511,
			"0.019": 0.248925107676,
			"0.02": 0.0,
			"0.021": 0.0,
			"0.022": 0.0,
			"0.023": 0.0,
			"0.024": 0.0,
			"0.025": 0.0
		}
	}
}
