{
	 "smiles": "CC(=O)OC1CC2(O)C3OC(C)(C)OC4CC5C(C)(C)CCC(OC(C)=O)C5(C)C1C34C(=O)C2=C", 
	 "Tm": 519.15, 
	 "num_atms": 73, 
	 "gaussian": { 
		 "optdone": 1, 
		 "sigma_profile": "yes", 
		 "theory": "DFT", 
		 "functional": "B3LYP", 
		 "basiset": "6-31G**", 
		 "properties": { 
			 "R2extent": 13497.0067, 
			 "electric_dipole_moment_norm": 3.10615163506, 
			 "electric_quadrupole_moment_norm": 15.6462979545, 
			 "total_energy": -1653.55964626, 
			 "HOMO_LUMO_gap": 0.17887, 
			 "cosmo_polarized_energy": -19.56, 
			 "cosmo_cavitation_energy": 62.76, 
			 "cosmo_dispersion_energy": -39.67, 
			 "cosmo_repulsion_energy": 2.87, 
			 "cosmo_total_nonelectrostatic_energy": 25.96, 
			 "SMD_solvation_energy": 12.43 
		},
		"coords": [
			{
				"x": 1.2120348483,
				"y": -1.9851350522,
				"z": -5.0078925779,
				"element": "C" 
			},
			{
				"x": 0.2666202444,
				"y": -2.1035378321,
				"z": -3.8369429187,
				"element": "C" 
			},
			{
				"x": -0.8515412265,
				"y": -2.5742758479,
				"z": -3.8875300469,
				"element": "O" 
			},
			{
				"x": 0.8232124797,
				"y": -1.5950757412,
				"z": -2.7154345644,
				"element": "O" 
			},
			{
				"x": 0.029673136,
				"y": -1.6194092774,
				"z": -1.4984739738,
				"element": "C" 
			},
			{
				"x": 0.2513207987,
				"y": -3.0275004785,
				"z": -0.885089817,
				"element": "C" 
			},
			{
				"x": -0.1682771847,
				"y": -3.1529704131,
				"z": 0.5987143774,
				"element": "C" 
			},
			{
				"x": -0.6962101289,
				"y": -4.4448140503,
				"z": 0.8070514012,
				"element": "O" 
			},
			{
				"x": -1.1536084258,
				"y": -2.0089116456,
				"z": 0.8633246572,
				"element": "C" 
			},
			{
				"x": -1.6770573362,
				"y": -2.2050909691,
				"z": 2.1757523005,
				"element": "O" 
			},
			{
				"x": -2.3403835734,
				"y": -1.0735493787,
				"z": 2.768589744,
				"element": "C" 
			},
			{
				"x": -3.7008538631,
				"y": -0.8313280993,
				"z": 2.0985658968,
				"element": "C" 
			},
			{
				"x": -2.4839256111,
				"y": -1.4156641513,
				"z": 4.2450089506,
				"element": "C" 
			},
			{
				"x": -1.5032415548,
				"y": 0.074863826,
				"z": 2.7175016632,
				"element": "O" 
			},
			{
				"x": -1.0040607859,
				"y": 0.3939814154,
				"z": 1.414044949,
				"element": "C" 
			},
			{
				"x": -0.197115453,
				"y": 1.6745899446,
				"z": 1.5003621258,
				"element": "C" 
			},
			{
				"x": 0.7781163326,
				"y": 1.9305955276,
				"z": 0.3012719049,
				"element": "C" 
			},
			{
				"x": 0.882474682,
				"y": 3.4884208045,
				"z": 0.0505733466,
				"element": "C" 
			},
			{
				"x": 1.048323633,
				"y": 4.2342486041,
				"z": 1.3999875979,
				"element": "C" 
			},
			{
				"x": 2.1220572501,
				"y": 3.9190320805,
				"z": -0.7773089982,
				"element": "C" 
			},
			{
				"x": -0.4198093269,
				"y": 3.9635000538,
				"z": -0.640824556,
				"element": "C" 
			},
			{
				"x": -0.8241521227,
				"y": 3.1183731764,
				"z": -1.859980225,
				"element": "C" 
			},
			{
				"x": -0.8961910539,
				"y": 1.6149982162,
				"z": -1.5450011555,
				"element": "C" 
			},
			{
				"x": -1.3046117741,
				"y": 0.9575865984,
				"z": -2.7818619014,
				"element": "O" 
			},
			{
				"x": -2.5202499505,
				"y": 0.3520042737,
				"z": -2.7892869671,
				"element": "C" 
			},
			{
				"x": -2.9318114868,
				"y": -0.051199575,
				"z": -4.1820733827,
				"element": "C" 
			},
			{
				"x": -3.1779099407,
				"y": 0.1410940297,
				"z": -1.7882581247,
				"element": "O" 
			},
			{
				"x": 0.4381414634,
				"y": 1.0547028404,
				"z": -0.9859497624,
				"element": "C" 
			},
			{
				"x": 1.5582594685,
				"y": 1.178075357,
				"z": -2.0503739104,
				"element": "C" 
			},
			{
				"x": 0.4646845642,
				"y": -0.4794455337,
				"z": -0.5343355824,
				"element": "C" 
			},
			{
				"x": -0.2177674636,
				"y": -0.7811096118,
				"z": 0.8649346717,
				"element": "C" 
			},
			{
				"x": 0.9303329912,
				"y": -1.3061183982,
				"z": 1.7597133492,
				"element": "C" 
			},
			{
				"x": 1.695708194,
				"y": -0.64470113,
				"z": 2.4340208608,
				"element": "O" 
			},
			{
				"x": 0.9711277731,
				"y": -2.7881808621,
				"z": 1.5489102571,
				"element": "C" 
			},
			{
				"x": 1.8353037646,
				"y": -3.6121546816,
				"z": 2.1421615321,
				"element": "C" 
			},
			{
				"x": 2.2179662428,
				"y": -2.3056598279,
				"z": -4.7266794918,
				"element": "H" 
			},
			{
				"x": 1.2745706954,
				"y": -0.9369188176,
				"z": -5.3193059656,
				"element": "H" 
			},
			{
				"x": 0.8383256403,
				"y": -2.5845538225,
				"z": -5.8376517162,
				"element": "H" 
			},
			{
				"x": -1.0138245853,
				"y": -1.5102715254,
				"z": -1.787713597,
				"element": "H" 
			},
			{
				"x": -0.3444768245,
				"y": -3.742393561,
				"z": -1.4582366663,
				"element": "H" 
			},
			{
				"x": 1.3058065053,
				"y": -3.2931197457,
				"z": -1.0049836377,
				"element": "H" 
			},
			{
				"x": -1.1127582354,
				"y": -4.420746171,
				"z": 1.6821944555,
				"element": "H" 
			},
			{
				"x": -1.9631479796,
				"y": -1.9588654153,
				"z": 0.1273709111,
				"element": "H" 
			},
			{
				"x": -4.3275472647,
				"y": -1.7198052172,
				"z": 2.213373478,
				"element": "H" 
			},
			{
				"x": -3.6223053799,
				"y": -0.612549573,
				"z": 1.0312455225,
				"element": "H" 
			},
			{
				"x": -4.1988907329,
				"y": 0.0137643897,
				"z": 2.5817050349,
				"element": "H" 
			},
			{
				"x": -1.4934029584,
				"y": -1.5813147817,
				"z": 4.6736518573,
				"element": "H" 
			},
			{
				"x": -3.0861632162,
				"y": -2.3192321015,
				"z": 4.3678492537,
				"element": "H" 
			},
			{
				"x": -2.9659047066,
				"y": -0.5897927588,
				"z": 4.7735193409,
				"element": "H" 
			},
			{
				"x": -1.8621966211,
				"y": 0.5430791147,
				"z": 0.7493152105,
				"element": "H" 
			},
			{
				"x": 0.3851057618,
				"y": 1.6331963598,
				"z": 2.4228092499,
				"element": "H" 
			},
			{
				"x": -0.9138013894,
				"y": 2.4914971731,
				"z": 1.6097958356,
				"element": "H" 
			},
			{
				"x": 1.7674448661,
				"y": 1.5867494322,
				"z": 0.6284576612,
				"element": "H" 
			},
			{
				"x": 0.2160799841,
				"y": 4.088215162,
				"z": 2.0898872573,
				"element": "H" 
			},
			{
				"x": 1.9658914585,
				"y": 3.918076272,
				"z": 1.909386942,
				"element": "H" 
			},
			{
				"x": 1.1291265207,
				"y": 5.3106836333,
				"z": 1.214961308,
				"element": "H" 
			},
			{
				"x": 2.3089206668,
				"y": 4.9864806007,
				"z": -0.6190933946,
				"element": "H" 
			},
			{
				"x": 2.0130692919,
				"y": 3.7810950256,
				"z": -1.8519079073,
				"element": "H" 
			},
			{
				"x": 3.0206959537,
				"y": 3.3803683936,
				"z": -0.4590797795,
				"element": "H" 
			},
			{
				"x": -0.3140916114,
				"y": 5.0129093143,
				"z": -0.9429494155,
				"element": "H" 
			},
			{
				"x": -1.2421977077,
				"y": 3.944954932,
				"z": 0.0855558782,
				"element": "H" 
			},
			{
				"x": -0.1398761507,
				"y": 3.2855710684,
				"z": -2.697517481,
				"element": "H" 
			},
			{
				"x": -1.8135466425,
				"y": 3.4335500373,
				"z": -2.2109271428,
				"element": "H" 
			},
			{
				"x": -1.7010490103,
				"y": 1.4515534485,
				"z": -0.832748672,
				"element": "H" 
			},
			{
				"x": -2.4962142221,
				"y": -1.029841561,
				"z": -4.4068849031,
				"element": "H" 
			},
			{
				"x": -2.5727850984,
				"y": 0.6670660034,
				"z": -4.9217555113,
				"element": "H" 
			},
			{
				"x": -4.0185232125,
				"y": -0.1342068101,
				"z": -4.2204180661,
				"element": "H" 
			},
			{
				"x": 1.4503549232,
				"y": 0.4099276271,
				"z": -2.8091291458,
				"element": "H" 
			},
			{
				"x": 2.541275058,
				"y": 1.0523565506,
				"z": -1.5853079077,
				"element": "H" 
			},
			{
				"x": 1.5548512045,
				"y": 2.1359053682,
				"z": -2.5605517995,
				"element": "H" 
			},
			{
				"x": 1.5403524457,
				"y": -0.6430338912,
				"z": -0.3859922254,
				"element": "H" 
			},
			{
				"x": 1.7954519666,
				"y": -4.6850536664,
				"z": 1.9784272355,
				"element": "H" 
			},
			{
				"x": 2.5900010035,
				"y": -3.2168346785,
				"z": 2.8160568727,
				"element": "H" 
			}
		],
		 "valence_orbital": [ 
			{
				"type": "occ",
				"energy": -0.27554,
				"method": "rhf"
			},
			{
				"type": "occ",
				"energy": -0.27227,
				"method": "rhf"
			},
			{
				"type": "occ",
				"energy": -0.26501,
				"method": "rhf"
			},
			{
				"type": "occ",
				"energy": -0.25193,
				"method": "rhf"
			},
			{
				"type": "occ",
				"energy": -0.23392,
				"method": "rhf"
			},
			{
				"type": "unocc",
				"energy": -0.05505,
				"method": "rhf"
			},
			{
				"type": "unocc",
				"energy": -0.00141,
				"method": "rhf"
			},
			{
				"type": "unocc",
				"energy": 0.00805,
				"method": "rhf"
			},
			{
				"type": "unocc",
				"energy": 0.06507,
				"method": "rhf"
			},
			{
				"type": "unocc",
				"energy": 0.07028,
				"method": "rhf"
			}
		],
		"cosmo_sigma_profile": { 
			"-0.025": 0.0,
			"-0.024": 0.0,
			"-0.023": 0.0,
			"-0.022": 0.0,
			"-0.021": 0.0,
			"-0.02": 0.0,
			"-0.019": 0.0,
			"-0.018": 0.0,
			"-0.017": 0.0,
			"-0.016": 0.0,
			"-0.015": 0.0,
			"-0.014": 0.0731280603456,
			"-0.013": 0.801992588983,
			"-0.012": 0.398453166754,
			"-0.011": 0.548168830683,
			"-0.01": 0.243068323591,
			"-0.009": 0.818593898366,
			"-0.008": 0.725655954535,
			"-0.007": 3.24076164228,
			"-0.006": 13.5629834117,
			"-0.005": 23.085294375,
			"-0.004": 40.2937086224,
			"-0.003": 53.9706823535,
			"-0.002": 69.0781471213,
			"-0.001": 62.0599918429,
			"0.0": 51.6134627896,
			"0.001": 40.1614067238,
			"0.002": 24.5008911029,
			"0.003": 17.3316349219,
			"0.004": 13.6819078368,
			"0.005": 12.2856545117,
			"0.006": 8.22816493188,
			"0.007": 8.26116468985,
			"0.008": 7.61000228203,
			"0.009": 7.59823590983,
			"0.01": 7.96619135654,
			"0.011": 9.8922200062,
			"0.012": 6.97473743044,
			"0.013": 1.73767590268,
			"0.014": 0.043994649718,
			"0.015": 0.0,
			"0.016": 0.0,
			"0.017": 0.0,
			"0.018": 0.0,
			"0.019": 0.0,
			"0.02": 0.0,
			"0.021": 0.0,
			"0.022": 0.0,
			"0.023": 0.0,
			"0.024": 0.0,
			"0.025": 0.0
		}
	}
}
