{
	 "smiles": "CCNCC", 
	 "Tm": 223.15, 
	 "num_atms": 16, 
	 "gaussian": { 
		 "optdone": 1, 
		 "sigma_profile": "yes", 
		 "theory": "DFT", 
		 "functional": "B3LYP", 
		 "basiset": "6-31G**", 
		 "properties": { 
			 "R2extent": 1005.4805, 
			 "electric_dipole_moment_norm": 1.00391471251, 
			 "electric_quadrupole_moment_norm": 4.80256606514, 
			 "total_energy": -213.80371717, 
			 "HOMO_LUMO_gap": 0.29544, 
			 "cosmo_polarized_energy": -3.46, 
			 "cosmo_cavitation_energy": 17.54, 
			 "cosmo_dispersion_energy": -13.11, 
			 "cosmo_repulsion_energy": 1.17, 
			 "cosmo_total_nonelectrostatic_energy": 5.59, 
			 "SMD_solvation_energy": 1.35 
		},
		"coords": [
			{
				"x": -1.25596528,
				"y": 0.5962390247,
				"z": -1.1460527919,
				"element": "C" 
			},
			{
				"x": -0.200329127,
				"y": 1.6030271496,
				"z": -0.6767602361,
				"element": "C" 
			},
			{
				"x": 0.8779390174,
				"y": 1.8077194729,
				"z": -1.6545627753,
				"element": "N" 
			},
			{
				"x": 2.1318690237,
				"y": 1.1009195593,
				"z": -1.3838653021,
				"element": "C" 
			},
			{
				"x": 2.0610151393,
				"y": -0.3972584413,
				"z": -1.6855715184,
				"element": "C" 
			},
			{
				"x": -0.8279246355,
				"y": -0.3983064375,
				"z": -1.298665241,
				"element": "H" 
			},
			{
				"x": -1.6910526866,
				"y": 0.9195674041,
				"z": -2.0964843627,
				"element": "H" 
			},
			{
				"x": -2.0607284137,
				"y": 0.5079565136,
				"z": -0.4068907506,
				"element": "H" 
			},
			{
				"x": 0.2017761921,
				"y": 1.2913029468,
				"z": 0.3036412966,
				"element": "H" 
			},
			{
				"x": -0.6965694018,
				"y": 2.5666856777,
				"z": -0.5079167158,
				"element": "H" 
			},
			{
				"x": 1.0815705975,
				"y": 2.7990725586,
				"z": -1.7177998501,
				"element": "H" 
			},
			{
				"x": 2.8996464634,
				"y": 1.5520975171,
				"z": -2.0239982946,
				"element": "H" 
			},
			{
				"x": 2.4723036015,
				"y": 1.2372174091,
				"z": -0.3385729278,
				"element": "H" 
			},
			{
				"x": 1.3773813303,
				"y": -0.9157883447,
				"z": -1.0062509023,
				"element": "H" 
			},
			{
				"x": 3.0489212752,
				"y": -0.8560462837,
				"z": -1.5687810363,
				"element": "H" 
			},
			{
				"x": 1.7153469045,
				"y": -0.5651057262,
				"z": -2.7100685917,
				"element": "H" 
			}
		],
		 "valence_orbital": [ 
			{
				"type": "occ",
				"energy": -0.36686,
				"method": "rhf"
			},
			{
				"type": "occ",
				"energy": -0.34706,
				"method": "rhf"
			},
			{
				"type": "occ",
				"energy": -0.33077,
				"method": "rhf"
			},
			{
				"type": "occ",
				"energy": -0.32011,
				"method": "rhf"
			},
			{
				"type": "occ",
				"energy": -0.21348,
				"method": "rhf"
			},
			{
				"type": "unocc",
				"energy": 0.08196,
				"method": "rhf"
			},
			{
				"type": "unocc",
				"energy": 0.11062,
				"method": "rhf"
			},
			{
				"type": "unocc",
				"energy": 0.13014,
				"method": "rhf"
			},
			{
				"type": "unocc",
				"energy": 0.13836,
				"method": "rhf"
			},
			{
				"type": "unocc",
				"energy": 0.16809,
				"method": "rhf"
			}
		],
		"cosmo_sigma_profile": { 
			"-0.025": 0.0,
			"-0.024": 0.0,
			"-0.023": 0.0,
			"-0.022": 0.0,
			"-0.021": 0.0,
			"-0.02": 0.0,
			"-0.019": 0.0,
			"-0.018": 0.0,
			"-0.017": 0.0,
			"-0.016": 0.0,
			"-0.015": 0.0,
			"-0.014": 0.0,
			"-0.013": 0.0,
			"-0.012": 0.0,
			"-0.011": 0.0,
			"-0.01": 0.546440750789,
			"-0.009": 1.46692076978,
			"-0.008": 0.847732495771,
			"-0.007": 1.61536922402,
			"-0.006": 1.09206306994,
			"-0.005": 1.81694907122,
			"-0.004": 2.69007695026,
			"-0.003": 10.2778382045,
			"-0.002": 17.8211567087,
			"-0.001": 24.5879477825,
			"0.0": 27.747504665,
			"0.001": 19.9421923885,
			"0.002": 10.9972860938,
			"0.003": 2.4545864907,
			"0.004": 1.09883303095,
			"0.005": 1.19363100804,
			"0.006": 0.878166679857,
			"0.007": 0.839628883798,
			"0.008": 1.29463478532,
			"0.009": 0.693734200251,
			"0.01": 0.825271745579,
			"0.011": 0.504568812499,
			"0.012": 0.791484647779,
			"0.013": 0.379718063268,
			"0.014": 0.447202249217,
			"0.015": 0.834829957691,
			"0.016": 0.54557588327,
			"0.017": 0.269306882122,
			"0.018": 0.346248657901,
			"0.019": 0.0,
			"0.02": 0.0,
			"0.021": 0.0,
			"0.022": 0.0,
			"0.023": 0.0,
			"0.024": 0.0,
			"0.025": 0.0
		}
	}
}
