{
	 "smiles": "ON=C1C2=CC=CC=C2N=C1C1=CC=CC=C1", 
	 "Tm": 533.15, 
	 "num_atms": 27, 
	 "gaussian": { 
		 "optdone": 1, 
		 "sigma_profile": "yes", 
		 "theory": "DFT", 
		 "functional": "B3LYP", 
		 "basiset": "6-31G**", 
		 "properties": { 
			 "R2extent": 4850.7355, 
			 "electric_dipole_moment_norm": 2.14193527447, 
			 "electric_quadrupole_moment_norm": 10.4313795032, 
			 "total_energy": -724.172530416, 
			 "HOMO_LUMO_gap": 0.13003, 
			 "cosmo_polarized_energy": -11.25, 
			 "cosmo_cavitation_energy": 31.74, 
			 "cosmo_dispersion_energy": -23.38, 
			 "cosmo_repulsion_energy": 1.8, 
			 "cosmo_total_nonelectrostatic_energy": 10.16, 
			 "SMD_solvation_energy": 3.53 
		},
		"coords": [
			{
				"x": -2.0636253283,
				"y": 2.7205830905,
				"z": -0.8575462154,
				"element": "O" 
			},
			{
				"x": -2.5249947952,
				"y": 2.0885186627,
				"z": 0.2801015412,
				"element": "N" 
			},
			{
				"x": -1.7674009819,
				"y": 1.1480804384,
				"z": 0.7285414958,
				"element": "C" 
			},
			{
				"x": -2.2007963287,
				"y": 0.3527552763,
				"z": 1.8891976561,
				"element": "C" 
			},
			{
				"x": -3.2783729253,
				"y": 0.4376715071,
				"z": 2.7600868503,
				"element": "C" 
			},
			{
				"x": -3.3886629241,
				"y": -0.5361362746,
				"z": 3.7629593773,
				"element": "C" 
			},
			{
				"x": -2.4432043171,
				"y": -1.5621205666,
				"z": 3.875389898,
				"element": "C" 
			},
			{
				"x": -1.358956655,
				"y": -1.6487565864,
				"z": 2.9915090425,
				"element": "C" 
			},
			{
				"x": -1.2532268656,
				"y": -0.6794659127,
				"z": 2.0011240443,
				"element": "C" 
			},
			{
				"x": -0.2423123247,
				"y": -0.5742103423,
				"z": 1.0211825045,
				"element": "N" 
			},
			{
				"x": -0.4816475653,
				"y": 0.4760915373,
				"z": 0.2856411229,
				"element": "C" 
			},
			{
				"x": 0.4497108831,
				"y": 0.8337925387,
				"z": -0.8019590051,
				"element": "C" 
			},
			{
				"x": 0.7499914129,
				"y": 2.1614809711,
				"z": -1.1461989735,
				"element": "C" 
			},
			{
				"x": 1.7045014764,
				"y": 2.4384468985,
				"z": -2.1237599655,
				"element": "C" 
			},
			{
				"x": 2.3658426602,
				"y": 1.3986465511,
				"z": -2.7793771037,
				"element": "C" 
			},
			{
				"x": 2.0774021964,
				"y": 0.0736901742,
				"z": -2.4413580695,
				"element": "C" 
			},
			{
				"x": 1.135772687,
				"y": -0.2066567314,
				"z": -1.455911925,
				"element": "C" 
			},
			{
				"x": -2.7683619333,
				"y": 3.3568590105,
				"z": -1.0445761826,
				"element": "H" 
			},
			{
				"x": -4.0105284161,
				"y": 1.2337675148,
				"z": 2.6669690515,
				"element": "H" 
			},
			{
				"x": -4.2187131445,
				"y": -0.4935274679,
				"z": 4.4618572893,
				"element": "H" 
			},
			{
				"x": -2.5523009182,
				"y": -2.3041545852,
				"z": 4.6610578152,
				"element": "H" 
			},
			{
				"x": -0.6217411295,
				"y": -2.4412789119,
				"z": 3.0681734166,
				"element": "H" 
			},
			{
				"x": 0.2404046139,
				"y": 2.9761015066,
				"z": -0.6474860561,
				"element": "H" 
			},
			{
				"x": 1.9325821576,
				"y": 3.4709575229,
				"z": -2.3725494437,
				"element": "H" 
			},
			{
				"x": 3.1017661247,
				"y": 1.6185164334,
				"z": -3.5476419662,
				"element": "H" 
			},
			{
				"x": 2.5883922037,
				"y": -0.7414267337,
				"z": -2.9457461854,
				"element": "H" 
			},
			{
				"x": 0.9162801368,
				"y": -1.2304255216,
				"z": -1.1736800138,
				"element": "H" 
			}
		],
		 "valence_orbital": [ 
			{
				"type": "occ",
				"energy": -0.26341,
				"method": "rhf"
			},
			{
				"type": "occ",
				"energy": -0.25981,
				"method": "rhf"
			},
			{
				"type": "occ",
				"energy": -0.24745,
				"method": "rhf"
			},
			{
				"type": "occ",
				"energy": -0.23953,
				"method": "rhf"
			},
			{
				"type": "occ",
				"energy": -0.21837,
				"method": "rhf"
			},
			{
				"type": "unocc",
				"energy": -0.08834,
				"method": "rhf"
			},
			{
				"type": "unocc",
				"energy": -0.02435,
				"method": "rhf"
			},
			{
				"type": "unocc",
				"energy": 0.00157,
				"method": "rhf"
			},
			{
				"type": "unocc",
				"energy": 0.01045,
				"method": "rhf"
			},
			{
				"type": "unocc",
				"energy": 0.03275,
				"method": "rhf"
			}
		],
		"cosmo_sigma_profile": { 
			"-0.025": 0.0,
			"-0.024": 0.0,
			"-0.023": 0.0,
			"-0.022": 0.0,
			"-0.021": 0.0,
			"-0.02": 0.0,
			"-0.019": 0.539624714176,
			"-0.018": 1.13389090455,
			"-0.017": 1.46365109228,
			"-0.016": 0.168884658852,
			"-0.015": 0.968771208512,
			"-0.014": 0.477049371044,
			"-0.013": 1.19009105377,
			"-0.012": 0.487833476942,
			"-0.011": 0.692187609301,
			"-0.01": 0.83342759999,
			"-0.009": 0.784030190995,
			"-0.008": 0.349112638043,
			"-0.007": 1.19391649569,
			"-0.006": 13.3679291826,
			"-0.005": 17.8079464633,
			"-0.004": 22.1077007296,
			"-0.003": 15.5928107226,
			"-0.002": 16.2470168477,
			"-0.001": 15.9496267072,
			"0.0": 16.9720752089,
			"0.001": 18.0450404809,
			"0.002": 22.1375733506,
			"0.003": 24.0405579967,
			"0.004": 25.7584301073,
			"0.005": 17.9794611763,
			"0.006": 4.8441745756,
			"0.007": 4.82920013614,
			"0.008": 3.31686775112,
			"0.009": 1.69365935866,
			"0.01": 1.03294268023,
			"0.011": 1.07028951986,
			"0.012": 1.11771855415,
			"0.013": 0.533869348932,
			"0.014": 0.574831192192,
			"0.015": 0.426445877271,
			"0.016": 0.0,
			"0.017": 0.0,
			"0.018": 0.0,
			"0.019": 0.0,
			"0.02": 0.0,
			"0.021": 0.0,
			"0.022": 0.0,
			"0.023": 0.0,
			"0.024": 0.0,
			"0.025": 0.0
		}
	}
}
