{
	 "smiles": "FC1=C(Br)C=CC(Br)=C1", 
	 "Tm": 307.15, 
	 "num_atms": 12, 
	 "gaussian": { 
		 "optdone": 1, 
		 "sigma_profile": "yes", 
		 "theory": "DFT", 
		 "functional": "B3LYP", 
		 "basiset": "6-31G**", 
		 "properties": { 
			 "R2extent": 4015.6816, 
			 "electric_dipole_moment_norm": 1.16601589612, 
			 "electric_quadrupole_moment_norm": 4.1238984117, 
			 "total_energy": -5473.08268251, 
			 "HOMO_LUMO_gap": 0.21052, 
			 "cosmo_polarized_energy": -3.71, 
			 "cosmo_cavitation_energy": 21.63, 
			 "cosmo_dispersion_energy": -16.85, 
			 "cosmo_repulsion_energy": 1.36, 
			 "cosmo_total_nonelectrostatic_energy": 6.14, 
			 "SMD_solvation_energy": 1.97 
		},
		"coords": [
			{
				"x": 1.6710812131,
				"y": -0.7695687239,
				"z": -0.6570271566,
				"element": "F" 
			},
			{
				"x": 0.9273202065,
				"y": -0.1406838708,
				"z": 0.2627547698,
				"element": "C" 
			},
			{
				"x": -0.023652801,
				"y": 0.7996389273,
				"z": -0.132635465,
				"element": "C" 
			},
			{
				"x": -0.2614408325,
				"y": 1.1860468181,
				"z": -1.9751132402,
				"element": "Br" 
			},
			{
				"x": -0.787919096,
				"y": 1.443479789,
				"z": 0.8396695541,
				"element": "C" 
			},
			{
				"x": -0.6044562595,
				"y": 1.1515320237,
				"z": 2.1909144547,
				"element": "C" 
			},
			{
				"x": 0.3531711324,
				"y": 0.2071443024,
				"z": 2.5601883706,
				"element": "C" 
			},
			{
				"x": 0.6130273808,
				"y": -0.2002710532,
				"z": 4.4038249455,
				"element": "Br" 
			},
			{
				"x": 1.126934603,
				"y": -0.447173158,
				"z": 1.6043646038,
				"element": "C" 
			},
			{
				"x": -1.5280535859,
				"y": 2.1749136314,
				"z": 0.5367456517,
				"element": "H" 
			},
			{
				"x": -1.1997047202,
				"y": 1.653369449,
				"z": 2.9439677515,
				"element": "H" 
			},
			{
				"x": 1.8741927592,
				"y": -1.182628135,
				"z": 1.8758457601,
				"element": "H" 
			}
		],
		 "valence_orbital": [ 
			{
				"type": "occ",
				"energy": -0.30122,
				"method": "rhf"
			},
			{
				"type": "occ",
				"energy": -0.30082,
				"method": "rhf"
			},
			{
				"type": "occ",
				"energy": -0.29766,
				"method": "rhf"
			},
			{
				"type": "occ",
				"energy": -0.27473,
				"method": "rhf"
			},
			{
				"type": "occ",
				"energy": -0.24684,
				"method": "rhf"
			},
			{
				"type": "unocc",
				"energy": -0.03632,
				"method": "rhf"
			},
			{
				"type": "unocc",
				"energy": -0.02462,
				"method": "rhf"
			},
			{
				"type": "unocc",
				"energy": -0.01556,
				"method": "rhf"
			},
			{
				"type": "unocc",
				"energy": 0.00349,
				"method": "rhf"
			},
			{
				"type": "unocc",
				"energy": 0.12262,
				"method": "rhf"
			}
		],
		"cosmo_sigma_profile": { 
			"-0.025": 0.0,
			"-0.024": 0.0,
			"-0.023": 0.0,
			"-0.022": 0.0,
			"-0.021": 0.0,
			"-0.02": 0.0,
			"-0.019": 0.0,
			"-0.018": 0.0,
			"-0.017": 0.0,
			"-0.016": 0.0,
			"-0.015": 0.0,
			"-0.014": 0.0,
			"-0.013": 0.0,
			"-0.012": 0.0,
			"-0.011": 0.0,
			"-0.01": 0.0,
			"-0.009": 1.17375332237,
			"-0.008": 4.31033213614,
			"-0.007": 6.19429261304,
			"-0.006": 5.20736146293,
			"-0.005": 6.65664130698,
			"-0.004": 7.92089938469,
			"-0.003": 7.23551794032,
			"-0.002": 11.4301885792,
			"-0.001": 16.344044931,
			"0.0": 20.7066260552,
			"0.001": 25.065567262,
			"0.002": 18.4773745826,
			"0.003": 24.0000053463,
			"0.004": 23.9236049497,
			"0.005": 2.73668783056,
			"0.006": 0.0,
			"0.007": 0.0,
			"0.008": 0.0,
			"0.009": 0.0,
			"0.01": 0.0,
			"0.011": 0.0,
			"0.012": 0.0,
			"0.013": 0.0,
			"0.014": 0.0,
			"0.015": 0.0,
			"0.016": 0.0,
			"0.017": 0.0,
			"0.018": 0.0,
			"0.019": 0.0,
			"0.02": 0.0,
			"0.021": 0.0,
			"0.022": 0.0,
			"0.023": 0.0,
			"0.024": 0.0,
			"0.025": 0.0
		}
	}
}
