{
	 "smiles": "C1CC11C2C=CC1C1=C2C=CC=C1", 
	 "Tm": 316.15, 
	 "num_atms": 25, 
	 "gaussian": { 
		 "optdone": 1, 
		 "sigma_profile": "yes", 
		 "theory": "DFT", 
		 "functional": "B3LYP", 
		 "basiset": "6-31G**", 
		 "properties": { 
			 "R2extent": 2598.2703, 
			 "electric_dipole_moment_norm": 0.570772791923, 
			 "electric_quadrupole_moment_norm": 5.0128067577, 
			 "total_energy": -502.534013178, 
			 "HOMO_LUMO_gap": 0.2076, 
			 "cosmo_polarized_energy": -4.85, 
			 "cosmo_cavitation_energy": 27.0, 
			 "cosmo_dispersion_energy": -19.46, 
			 "cosmo_repulsion_energy": 1.55, 
			 "cosmo_total_nonelectrostatic_energy": 9.09, 
			 "SMD_solvation_energy": 3.97 
		},
		"coords": [
			{
				"x": -0.1925093399,
				"y": -1.6511047166,
				"z": 1.2765755574,
				"element": "C" 
			},
			{
				"x": -1.5017603124,
				"y": -1.0430392142,
				"z": 1.7651589785,
				"element": "C" 
			},
			{
				"x": -1.028954093,
				"y": -0.8088777692,
				"z": 0.3673547299,
				"element": "C" 
			},
			{
				"x": -0.6170110229,
				"y": 0.5562516978,
				"z": -0.2367232819,
				"element": "C" 
			},
			{
				"x": -1.9991029443,
				"y": 1.0082475738,
				"z": -0.7423258689,
				"element": "C" 
			},
			{
				"x": -2.6575467207,
				"y": -0.0835576558,
				"z": -1.1479674678,
				"element": "C" 
			},
			{
				"x": -1.7328079391,
				"y": -1.2938445322,
				"z": -0.9240069501,
				"element": "C" 
			},
			{
				"x": -0.553319482,
				"y": -1.1201202087,
				"z": -1.8920853091,
				"element": "C" 
			},
			{
				"x": 0.1403874406,
				"y": 0.030221494,
				"z": -1.4648079537,
				"element": "C" 
			},
			{
				"x": 1.2705547268,
				"y": 0.4679789302,
				"z": -2.1326625207,
				"element": "C" 
			},
			{
				"x": 1.7095446094,
				"y": -0.2618619449,
				"z": -3.2530110027,
				"element": "C" 
			},
			{
				"x": 1.0238594763,
				"y": -1.398898478,
				"z": -3.6753383218,
				"element": "C" 
			},
			{
				"x": -0.1229391661,
				"y": -1.842763505,
				"z": -2.9909369017,
				"element": "C" 
			},
			{
				"x": 0.737251804,
				"y": -1.2361141512,
				"z": 1.6570645244,
				"element": "H" 
			},
			{
				"x": -0.1599134836,
				"y": -2.7238238799,
				"z": 1.1043710182,
				"element": "H" 
			},
			{
				"x": -1.449301006,
				"y": -0.2209772699,
				"z": 2.4742859427,
				"element": "H" 
			},
			{
				"x": -2.3465902224,
				"y": -1.7087952756,
				"z": 1.9214778494,
				"element": "H" 
			},
			{
				"x": -0.0756587157,
				"y": 1.2549214907,
				"z": 0.4041693597,
				"element": "H" 
			},
			{
				"x": -2.3181818069,
				"y": 2.0413897915,
				"z": -0.816508159,
				"element": "H" 
			},
			{
				"x": -3.6297347068,
				"y": -0.1333584725,
				"z": -1.624487916,
				"element": "H" 
			},
			{
				"x": -2.2061149658,
				"y": -2.2775494741,
				"z": -0.9080204719,
				"element": "H" 
			},
			{
				"x": 1.8144496741,
				"y": 1.3501152897,
				"z": -1.8040890369,
				"element": "H" 
			},
			{
				"x": 2.5944899451,
				"y": 0.0646041631,
				"z": -3.7923098037,
				"element": "H" 
			},
			{
				"x": 1.378855646,
				"y": -1.9512290507,
				"z": -4.5410521574,
				"element": "H" 
			},
			{
				"x": -0.6490473946,
				"y": -2.7349148326,
				"z": -3.3214248368,
				"element": "H" 
			}
		],
		 "valence_orbital": [ 
			{
				"type": "occ",
				"energy": -0.29308,
				"method": "rhf"
			},
			{
				"type": "occ",
				"energy": -0.27971,
				"method": "rhf"
			},
			{
				"type": "occ",
				"energy": -0.24524,
				"method": "rhf"
			},
			{
				"type": "occ",
				"energy": -0.23874,
				"method": "rhf"
			},
			{
				"type": "occ",
				"energy": -0.21466,
				"method": "rhf"
			},
			{
				"type": "unocc",
				"energy": -0.00706,
				"method": "rhf"
			},
			{
				"type": "unocc",
				"energy": 0.01123,
				"method": "rhf"
			},
			{
				"type": "unocc",
				"energy": 0.03673,
				"method": "rhf"
			},
			{
				"type": "unocc",
				"energy": 0.10178,
				"method": "rhf"
			},
			{
				"type": "unocc",
				"energy": 0.10481,
				"method": "rhf"
			}
		],
		"cosmo_sigma_profile": { 
			"-0.025": 0.0,
			"-0.024": 0.0,
			"-0.023": 0.0,
			"-0.022": 0.0,
			"-0.021": 0.0,
			"-0.02": 0.0,
			"-0.019": 0.0,
			"-0.018": 0.0,
			"-0.017": 0.0,
			"-0.016": 0.0,
			"-0.015": 0.0,
			"-0.014": 0.0,
			"-0.013": 0.0,
			"-0.012": 0.0,
			"-0.011": 0.0,
			"-0.01": 0.0,
			"-0.009": 0.0,
			"-0.008": 0.0,
			"-0.007": 0.0,
			"-0.006": 2.11939550411,
			"-0.005": 13.7168462278,
			"-0.004": 23.0074254763,
			"-0.003": 29.3892305816,
			"-0.002": 23.968220624,
			"-0.001": 19.4944095101,
			"0.0": 17.1671318947,
			"0.001": 14.211974674,
			"0.002": 12.947621191,
			"0.003": 12.0100395129,
			"0.004": 11.6310604416,
			"0.005": 12.1467915442,
			"0.006": 12.1281185934,
			"0.007": 9.0034899336,
			"0.008": 1.5178419986,
			"0.009": 0.0,
			"0.01": 0.0,
			"0.011": 0.0,
			"0.012": 0.0,
			"0.013": 0.0,
			"0.014": 0.0,
			"0.015": 0.0,
			"0.016": 0.0,
			"0.017": 0.0,
			"0.018": 0.0,
			"0.019": 0.0,
			"0.02": 0.0,
			"0.021": 0.0,
			"0.022": 0.0,
			"0.023": 0.0,
			"0.024": 0.0,
			"0.025": 0.0
		}
	}
}
