{
	 "smiles": "NC1=CC(=CC(=C1)C(O)=O)C(O)=O", 
	 "Tm": 633.15, 
	 "num_atms": 20, 
	 "gaussian": { 
		 "optdone": 1, 
		 "sigma_profile": "yes", 
		 "theory": "DFT", 
		 "functional": "B3LYP", 
		 "basiset": "6-31G**", 
		 "properties": { 
			 "R2extent": 3112.6864, 
			 "electric_dipole_moment_norm": 2.4803751692, 
			 "electric_quadrupole_moment_norm": 30.9429854631, 
			 "total_energy": -664.736175578, 
			 "HOMO_LUMO_gap": 0.16913, 
			 "cosmo_polarized_energy": -26.34, 
			 "cosmo_cavitation_energy": 25.58, 
			 "cosmo_dispersion_energy": -18.78, 
			 "cosmo_repulsion_energy": 1.49, 
			 "cosmo_total_nonelectrostatic_energy": 8.29, 
			 "SMD_solvation_energy": 6.74 
		},
		"coords": [
			{
				"x": 2.2780286397,
				"y": -0.7518898202,
				"z": -0.5173386162,
				"element": "N" 
			},
			{
				"x": 0.9459678173,
				"y": -0.3814205689,
				"z": -0.5201289124,
				"element": "C" 
			},
			{
				"x": 0.5512300118,
				"y": 0.8914478068,
				"z": -0.0719270473,
				"element": "C" 
			},
			{
				"x": -0.7893987347,
				"y": 1.2756728037,
				"z": -0.0991555111,
				"element": "C" 
			},
			{
				"x": -1.7621917195,
				"y": 0.4146054669,
				"z": -0.6247375729,
				"element": "C" 
			},
			{
				"x": -1.3746985778,
				"y": -0.847119296,
				"z": -1.0955857571,
				"element": "C" 
			},
			{
				"x": -0.041227701,
				"y": -1.2490687307,
				"z": -1.0194840852,
				"element": "C" 
			},
			{
				"x": -2.3580327254,
				"y": -1.8311324438,
				"z": -1.6615683999,
				"element": "C" 
			},
			{
				"x": -3.49356352,
				"y": -1.3107134681,
				"z": -2.1987628873,
				"element": "O" 
			},
			{
				"x": -2.1820415557,
				"y": -3.0259325504,
				"z": -1.6513713615,
				"element": "O" 
			},
			{
				"x": -1.1220622342,
				"y": 2.6426331821,
				"z": 0.4273038136,
				"element": "C" 
			},
			{
				"x": -2.3988020581,
				"y": 2.8336405945,
				"z": 0.8544367694,
				"element": "O" 
			},
			{
				"x": -0.3224713292,
				"y": 3.5462261795,
				"z": 0.4796195803,
				"element": "O" 
			},
			{
				"x": 2.8957306395,
				"y": -0.2386724537,
				"z": 0.0936283011,
				"element": "H" 
			},
			{
				"x": 2.4793923275,
				"y": -1.7396011208,
				"z": -0.5653523794,
				"element": "H" 
			},
			{
				"x": 1.281341464,
				"y": 1.5981508758,
				"z": 0.3101777063,
				"element": "H" 
			},
			{
				"x": -2.8043622847,
				"y": 0.7195004832,
				"z": -0.6650089028,
				"element": "H" 
			},
			{
				"x": 0.2172718422,
				"y": -2.244609571,
				"z": -1.3666973873,
				"element": "H" 
			},
			{
				"x": -3.4002876216,
				"y": -0.3540653348,
				"z": -2.3105284821,
				"element": "H" 
			},
			{
				"x": -2.85492268,
				"y": 1.9838479662,
				"z": 0.9316811319,
				"element": "H" 
			}
		],
		 "valence_orbital": [ 
			{
				"type": "occ",
				"energy": -0.32265,
				"method": "rhf"
			},
			{
				"type": "occ",
				"energy": -0.29552,
				"method": "rhf"
			},
			{
				"type": "occ",
				"energy": -0.27845,
				"method": "rhf"
			},
			{
				"type": "occ",
				"energy": -0.27459,
				"method": "rhf"
			},
			{
				"type": "occ",
				"energy": -0.23578,
				"method": "rhf"
			},
			{
				"type": "unocc",
				"energy": -0.06665,
				"method": "rhf"
			},
			{
				"type": "unocc",
				"energy": -0.0486,
				"method": "rhf"
			},
			{
				"type": "unocc",
				"energy": 0.02713,
				"method": "rhf"
			},
			{
				"type": "unocc",
				"energy": 0.0395,
				"method": "rhf"
			},
			{
				"type": "unocc",
				"energy": 0.05786,
				"method": "rhf"
			}
		],
		"cosmo_sigma_profile": { 
			"-0.025": 0.0,
			"-0.024": 0.0,
			"-0.023": 0.0,
			"-0.022": 0.0,
			"-0.021": 0.0,
			"-0.02": 0.0,
			"-0.019": 0.767238763369,
			"-0.018": 1.52020163706,
			"-0.017": 1.73065083851,
			"-0.016": 2.1987475098,
			"-0.015": 2.54457716716,
			"-0.014": 2.4906299147,
			"-0.013": 4.82995369759,
			"-0.012": 6.0160276467,
			"-0.011": 5.54393601298,
			"-0.01": 4.94148283425,
			"-0.009": 4.91122360478,
			"-0.008": 5.40445044257,
			"-0.007": 6.3989359273,
			"-0.006": 4.1146130642,
			"-0.005": 4.84143544008,
			"-0.004": 7.88751102699,
			"-0.003": 7.15478567707,
			"-0.002": 8.09840119943,
			"-0.001": 9.68334583444,
			"0.0": 8.30806334567,
			"0.001": 9.69760253825,
			"0.002": 17.0118239469,
			"0.003": 9.13410997891,
			"0.004": 4.79283259786,
			"0.005": 5.01199728911,
			"0.006": 6.46649068151,
			"0.007": 5.78309657275,
			"0.008": 6.36254439163,
			"0.009": 7.88761636602,
			"0.01": 10.0178164202,
			"0.011": 11.8300591328,
			"0.012": 8.63396650184,
			"0.013": 2.08286694052,
			"0.014": 0.0,
			"0.015": 0.0,
			"0.016": 0.0,
			"0.017": 0.0,
			"0.018": 0.0,
			"0.019": 0.0,
			"0.02": 0.0,
			"0.021": 0.0,
			"0.022": 0.0,
			"0.023": 0.0,
			"0.024": 0.0,
			"0.025": 0.0
		}
	}
}
