{
	 "smiles": "OC(=O)C1(CCC1)C(=O)NC1CC1", 
	 "Tm": 413.15, 
	 "num_atms": 26, 
	 "gaussian": { 
		 "optdone": 1, 
		 "sigma_profile": "yes", 
		 "theory": "DFT", 
		 "functional": "B3LYP", 
		 "basiset": "6-31G**", 
		 "properties": { 
			 "R2extent": 3801.2857, 
			 "electric_dipole_moment_norm": 6.25862353797, 
			 "electric_quadrupole_moment_norm": 14.3612724314, 
			 "total_energy": -631.185371916, 
			 "HOMO_LUMO_gap": 0.24511, 
			 "cosmo_polarized_energy": -15.83, 
			 "cosmo_cavitation_energy": 28.0, 
			 "cosmo_dispersion_energy": -20.39, 
			 "cosmo_repulsion_energy": 1.62, 
			 "cosmo_total_nonelectrostatic_energy": 9.23, 
			 "SMD_solvation_energy": 5.06 
		},
		"coords": [
			{
				"x": -2.0915013068,
				"y": -3.3154330653,
				"z": -0.7827328905,
				"element": "O" 
			},
			{
				"x": -2.0661443707,
				"y": -2.1085028864,
				"z": -0.2154043034,
				"element": "C" 
			},
			{
				"x": -2.8664158866,
				"y": -1.770274268,
				"z": 0.6289013782,
				"element": "O" 
			},
			{
				"x": -1.0171181982,
				"y": -1.1175626867,
				"z": -0.77382958,
				"element": "C" 
			},
			{
				"x": -1.564719565,
				"y": -0.303619014,
				"z": -2.0203707129,
				"element": "C" 
			},
			{
				"x": -1.0511689363,
				"y": 0.9999218078,
				"z": -1.359782972,
				"element": "C" 
			},
			{
				"x": -0.9420163692,
				"y": 0.2358199723,
				"z": -0.016675287,
				"element": "C" 
			},
			{
				"x": 0.2850941777,
				"y": -1.8182605413,
				"z": -1.1600272286,
				"element": "C" 
			},
			{
				"x": 0.2426736165,
				"y": -2.8826646208,
				"z": -1.8066292608,
				"element": "O" 
			},
			{
				"x": 1.4479150756,
				"y": -1.22719012,
				"z": -0.823740813,
				"element": "N" 
			},
			{
				"x": 2.7847096366,
				"y": -1.7012168689,
				"z": -1.1226333828,
				"element": "C" 
			},
			{
				"x": 3.1797599385,
				"y": -3.1554848078,
				"z": -1.1019738545,
				"element": "C" 
			},
			{
				"x": 3.1592024009,
				"y": -2.3907813779,
				"z": -2.4092210119,
				"element": "C" 
			},
			{
				"x": -1.2934131779,
				"y": -3.3946692986,
				"z": -1.3696528007,
				"element": "H" 
			},
			{
				"x": -2.6557575217,
				"y": -0.3498196396,
				"z": -2.0582578531,
				"element": "H" 
			},
			{
				"x": -1.1608619495,
				"y": -0.5876123669,
				"z": -2.9948599301,
				"element": "H" 
			},
			{
				"x": -0.0772288147,
				"y": 1.3010332636,
				"z": -1.7574259078,
				"element": "H" 
			},
			{
				"x": -1.7183450496,
				"y": 1.8648152983,
				"z": -1.3850994501,
				"element": "H" 
			},
			{
				"x": -1.8440281263,
				"y": 0.3299195692,
				"z": 0.5901606107,
				"element": "H" 
			},
			{
				"x": -0.0843800686,
				"y": 0.430691533,
				"z": 0.6377259862,
				"element": "H" 
			},
			{
				"x": 1.3940106662,
				"y": -0.3797924477,
				"z": -0.2816314146,
				"element": "H" 
			},
			{
				"x": 3.5106865916,
				"y": -0.9995253716,
				"z": -0.7245878074,
				"element": "H" 
			},
			{
				"x": 4.132695342,
				"y": -3.4050940876,
				"z": -0.6450672038,
				"element": "H" 
			},
			{
				"x": 2.3926307847,
				"y": -3.8858644339,
				"z": -0.9627943989,
				"element": "H" 
			},
			{
				"x": 2.3600933921,
				"y": -2.6398779269,
				"z": -3.0958899125,
				"element": "H" 
			},
			{
				"x": 4.0981277187,
				"y": -2.1015556141,
				"z": -2.8718999987,
				"element": "H" 
			}
		],
		 "valence_orbital": [ 
			{
				"type": "occ",
				"energy": -0.31284,
				"method": "rhf"
			},
			{
				"type": "occ",
				"energy": -0.29568,
				"method": "rhf"
			},
			{
				"type": "occ",
				"energy": -0.27708,
				"method": "rhf"
			},
			{
				"type": "occ",
				"energy": -0.2609,
				"method": "rhf"
			},
			{
				"type": "occ",
				"energy": -0.25595,
				"method": "rhf"
			},
			{
				"type": "unocc",
				"energy": -0.01084,
				"method": "rhf"
			},
			{
				"type": "unocc",
				"energy": 0.02514,
				"method": "rhf"
			},
			{
				"type": "unocc",
				"energy": 0.04425,
				"method": "rhf"
			},
			{
				"type": "unocc",
				"energy": 0.0859,
				"method": "rhf"
			},
			{
				"type": "unocc",
				"energy": 0.09422,
				"method": "rhf"
			}
		],
		"cosmo_sigma_profile": { 
			"-0.025": 0.0,
			"-0.024": 0.0,
			"-0.023": 0.0,
			"-0.022": 0.0,
			"-0.021": 0.0,
			"-0.02": 0.0,
			"-0.019": 0.0,
			"-0.018": 0.0,
			"-0.017": 0.0,
			"-0.016": 0.0703503785104,
			"-0.015": 1.02449483985,
			"-0.014": 1.17905021642,
			"-0.013": 1.17902092929,
			"-0.012": 1.50200861029,
			"-0.011": 1.0425097301,
			"-0.01": 1.47624067507,
			"-0.009": 1.45355427814,
			"-0.008": 1.93333487367,
			"-0.007": 4.09602763511,
			"-0.006": 6.54832785468,
			"-0.005": 12.748849562,
			"-0.004": 19.5000833777,
			"-0.003": 22.42385968,
			"-0.002": 22.7320534925,
			"-0.001": 21.7420478328,
			"0.0": 19.0514811459,
			"0.001": 12.692549983,
			"0.002": 10.9978275641,
			"0.003": 7.89432495744,
			"0.004": 8.54760975404,
			"0.005": 5.15734224536,
			"0.006": 3.58018224584,
			"0.007": 3.28665674241,
			"0.008": 3.75510274724,
			"0.009": 4.51672644872,
			"0.01": 4.83793547373,
			"0.011": 6.49599391904,
			"0.012": 5.68773815375,
			"0.013": 2.73333438324,
			"0.014": 0.532956123012,
			"0.015": 0.0,
			"0.016": 0.0,
			"0.017": 0.0,
			"0.018": 0.0,
			"0.019": 0.0,
			"0.02": 0.0,
			"0.021": 0.0,
			"0.022": 0.0,
			"0.023": 0.0,
			"0.024": 0.0,
			"0.025": 0.0
		}
	}
}
