{
	 "smiles": "CC(C)CCNC(=O)NC(=O)CCl", 
	 "Tm": 367.15, 
	 "num_atms": 28, 
	 "gaussian": { 
		 "optdone": 1, 
		 "sigma_profile": "yes", 
		 "theory": "DFT", 
		 "functional": "B3LYP", 
		 "basiset": "6-31G**", 
		 "properties": { 
			 "R2extent": 5039.9109, 
			 "electric_dipole_moment_norm": 4.43449998985, 
			 "electric_quadrupole_moment_norm": 8.29896915225, 
			 "total_energy": -1034.07927387, 
			 "HOMO_LUMO_gap": 0.24034, 
			 "cosmo_polarized_energy": -21.1, 
			 "cosmo_cavitation_energy": 33.18, 
			 "cosmo_dispersion_energy": -23.26, 
			 "cosmo_repulsion_energy": 1.91, 
			 "cosmo_total_nonelectrostatic_energy": 11.83, 
			 "SMD_solvation_energy": 6.11 
		},
		"coords": [
			{
				"x": -3.7651830238,
				"y": -1.2573870678,
				"z": -0.3746791503,
				"element": "C" 
			},
			{
				"x": -2.2493050938,
				"y": -1.4998573905,
				"z": -0.4476796319,
				"element": "C" 
			},
			{
				"x": -1.9523927013,
				"y": -2.9826694534,
				"z": -0.7166639615,
				"element": "C" 
			},
			{
				"x": -1.5587259633,
				"y": -0.61779428,
				"z": -1.5061483691,
				"element": "C" 
			},
			{
				"x": -1.614844744,
				"y": 0.8982851764,
				"z": -1.2607180777,
				"element": "C" 
			},
			{
				"x": -0.9553958974,
				"y": 1.336366725,
				"z": -0.0308076726,
				"element": "N" 
			},
			{
				"x": 0.4107773994,
				"y": 1.4879367664,
				"z": -0.0005238866,
				"element": "C" 
			},
			{
				"x": 1.1378171128,
				"y": 1.3625932023,
				"z": -0.9639814848,
				"element": "O" 
			},
			{
				"x": 0.8657517515,
				"y": 1.8672762896,
				"z": 1.2938330056,
				"element": "N" 
			},
			{
				"x": 2.1751168433,
				"y": 1.8684031618,
				"z": 1.7190370007,
				"element": "C" 
			},
			{
				"x": 3.1372929722,
				"y": 1.4501537409,
				"z": 1.1119034922,
				"element": "O" 
			},
			{
				"x": 2.4378481317,
				"y": 2.4531922259,
				"z": 3.1165955743,
				"element": "C" 
			},
			{
				"x": 0.9956107175,
				"y": 3.0053031326,
				"z": 4.0788756942,
				"element": "Cl" 
			},
			{
				"x": -4.2420122547,
				"y": -1.4857251778,
				"z": -1.3357332654,
				"element": "H" 
			},
			{
				"x": -4.0132488238,
				"y": -0.2205325593,
				"z": -0.1227001811,
				"element": "H" 
			},
			{
				"x": -4.2284691031,
				"y": -1.8968414912,
				"z": 0.3842515725,
				"element": "H" 
			},
			{
				"x": -1.8159352316,
				"y": -1.2522682456,
				"z": 0.5336723028,
				"element": "H" 
			},
			{
				"x": -2.4033886354,
				"y": -3.6238825726,
				"z": 0.0483401167,
				"element": "H" 
			},
			{
				"x": -2.3564476799,
				"y": -3.2913507911,
				"z": -1.6885449793,
				"element": "H" 
			},
			{
				"x": -0.8749207712,
				"y": -3.1777685664,
				"z": -0.7278719972,
				"element": "H" 
			},
			{
				"x": -0.503183075,
				"y": -0.9017838205,
				"z": -1.5864060117,
				"element": "H" 
			},
			{
				"x": -2.0110114991,
				"y": -0.8163540751,
				"z": -2.4883199846,
				"element": "H" 
			},
			{
				"x": -1.1150963099,
				"y": 1.4137013207,
				"z": -2.0838554935,
				"element": "H" 
			},
			{
				"x": -2.6477566316,
				"y": 1.2589305349,
				"z": -1.224648612,
				"element": "H" 
			},
			{
				"x": -1.4391811002,
				"y": 1.1750739733,
				"z": 0.8408351793,
				"element": "H" 
			},
			{
				"x": 0.1877104786,
				"y": 2.2454390682,
				"z": 1.9435528374,
				"element": "H" 
			},
			{
				"x": 2.9482126641,
				"y": 1.6955103142,
				"z": 3.7105356742,
				"element": "H" 
			},
			{
				"x": 3.0937604678,
				"y": 3.316849859,
				"z": 3.0038503094,
				"element": "H" 
			}
		],
		 "valence_orbital": [ 
			{
				"type": "occ",
				"energy": -0.32107,
				"method": "rhf"
			},
			{
				"type": "occ",
				"energy": -0.29047,
				"method": "rhf"
			},
			{
				"type": "occ",
				"energy": -0.28421,
				"method": "rhf"
			},
			{
				"type": "occ",
				"energy": -0.26122,
				"method": "rhf"
			},
			{
				"type": "occ",
				"energy": -0.25592,
				"method": "rhf"
			},
			{
				"type": "unocc",
				"energy": -0.01558,
				"method": "rhf"
			},
			{
				"type": "unocc",
				"energy": 0.00402,
				"method": "rhf"
			},
			{
				"type": "unocc",
				"energy": 0.04545,
				"method": "rhf"
			},
			{
				"type": "unocc",
				"energy": 0.06442,
				"method": "rhf"
			},
			{
				"type": "unocc",
				"energy": 0.08809,
				"method": "rhf"
			}
		],
		"cosmo_sigma_profile": { 
			"-0.025": 0.0,
			"-0.024": 0.0,
			"-0.023": 0.0,
			"-0.022": 0.0,
			"-0.021": 0.0,
			"-0.02": 0.0,
			"-0.019": 0.0,
			"-0.018": 0.102479092183,
			"-0.017": 0.74082698084,
			"-0.016": 0.813596758027,
			"-0.015": 0.98581229883,
			"-0.014": 1.73341102862,
			"-0.013": 1.03391223851,
			"-0.012": 1.09585570562,
			"-0.011": 2.16319796977,
			"-0.01": 2.51306103597,
			"-0.009": 6.41323519103,
			"-0.008": 6.13073676163,
			"-0.007": 5.87792461413,
			"-0.006": 7.47422706785,
			"-0.005": 9.47701481643,
			"-0.004": 9.75192545499,
			"-0.003": 14.3162799625,
			"-0.002": 32.425805439,
			"-0.001": 32.218246859,
			"0.0": 24.1957480627,
			"0.001": 25.1265473015,
			"0.002": 16.1280723335,
			"0.003": 6.68259747853,
			"0.004": 7.95472521628,
			"0.005": 9.50176776752,
			"0.006": 3.36890099719,
			"0.007": 2.66182606774,
			"0.008": 2.47361825613,
			"0.009": 2.67931120349,
			"0.01": 2.07739453705,
			"0.011": 4.55748058614,
			"0.012": 6.88151876113,
			"0.013": 5.96653741059,
			"0.014": 2.06334320571,
			"0.015": 1.65314405486,
			"0.016": 1.52613952795,
			"0.017": 0.606737982242,
			"0.018": 0.0185685409228,
			"0.019": 0.0,
			"0.02": 0.0,
			"0.021": 0.0,
			"0.022": 0.0,
			"0.023": 0.0,
			"0.024": 0.0,
			"0.025": 0.0
		}
	}
}
