{
	 "smiles": "CC1OC(OC2CCC3(C=O)C4CCC5(C)C(CCC5(O)C4CCC3(O)C2)C2=CC(=O)OC2)C(O)C(O)C1O", 
	 "Tm": 511.15, 
	 "num_atms": 81, 
	 "gaussian": { 
		 "optdone": 1, 
		 "sigma_profile": "yes", 
		 "theory": "DFT", 
		 "functional": "B3LYP", 
		 "basiset": "6-31G**", 
		 "properties": { 
			 "R2extent": 36236.671, 
			 "electric_dipole_moment_norm": 10.1435551071, 
			 "electric_quadrupole_moment_norm": 56.6073893473, 
			 "total_energy": -1882.60071328, 
			 "HOMO_LUMO_gap": 0.2122, 
			 "cosmo_polarized_energy": -35.9, 
			 "cosmo_cavitation_energy": 70.88, 
			 "cosmo_dispersion_energy": -48.35, 
			 "cosmo_repulsion_energy": 3.51, 
			 "cosmo_total_nonelectrostatic_energy": 26.04, 
			 "SMD_solvation_energy": 11.69 
		},
		"coords": [
			{
				"x": 0.2727711131,
				"y": 5.816641615,
				"z": -3.583883796,
				"element": "C" 
			},
			{
				"x": -0.2171995172,
				"y": 4.705137713,
				"z": -4.4990085188,
				"element": "C" 
			},
			{
				"x": -0.6507182321,
				"y": 3.6243272864,
				"z": -3.665449605,
				"element": "O" 
			},
			{
				"x": -0.8733174523,
				"y": 2.4215223607,
				"z": -4.4047917079,
				"element": "C" 
			},
			{
				"x": -1.4876370783,
				"y": 1.4971758486,
				"z": -3.57129939,
				"element": "O" 
			},
			{
				"x": -0.6890156084,
				"y": 0.9968684895,
				"z": -2.4854740978,
				"element": "C" 
			},
			{
				"x": -1.0263258643,
				"y": 1.7248195435,
				"z": -1.1813230506,
				"element": "C" 
			},
			{
				"x": -0.3300488853,
				"y": 1.0891545962,
				"z": 0.035054873,
				"element": "C" 
			},
			{
				"x": -0.6470955833,
				"y": -0.4240758319,
				"z": 0.165855259,
				"element": "C" 
			},
			{
				"x": -2.1438796752,
				"y": -0.5342197177,
				"z": 0.4713021162,
				"element": "C" 
			},
			{
				"x": -2.9018513857,
				"y": -1.4246525666,
				"z": 0.1463955674,
				"element": "O" 
			},
			{
				"x": 0.1364234146,
				"y": -1.0805752111,
				"z": 1.3708464822,
				"element": "C" 
			},
			{
				"x": -0.1878903982,
				"y": -0.4533373794,
				"z": 2.7410189843,
				"element": "C" 
			},
			{
				"x": 0.621947678,
				"y": -1.1095754765,
				"z": 3.8648892082,
				"element": "C" 
			},
			{
				"x": 0.3966959516,
				"y": -2.6397167893,
				"z": 3.9918587524,
				"element": "C" 
			},
			{
				"x": -1.0142919142,
				"y": -2.9033794908,
				"z": 4.5406544995,
				"element": "C" 
			},
			{
				"x": 1.5527741895,
				"y": -3.2106767221,
				"z": 4.9166184113,
				"element": "C" 
			},
			{
				"x": 2.6923925033,
				"y": -3.640266748,
				"z": 3.933839232,
				"element": "C" 
			},
			{
				"x": 2.1967496585,
				"y": -3.3393977733,
				"z": 2.504332873,
				"element": "C" 
			},
			{
				"x": 0.662164791,
				"y": -3.3060376689,
				"z": 2.6003523317,
				"element": "C" 
			},
			{
				"x": 0.274583488,
				"y": -4.6942936966,
				"z": 2.6385220411,
				"element": "O" 
			},
			{
				"x": -0.0644905805,
				"y": -2.6182024872,
				"z": 1.4126753741,
				"element": "C" 
			},
			{
				"x": 0.3178830008,
				"y": -3.2713450434,
				"z": 0.0708194428,
				"element": "C" 
			},
			{
				"x": -0.4443798526,
				"y": -2.6539899432,
				"z": -1.1049153128,
				"element": "C" 
			},
			{
				"x": -0.2400064783,
				"y": -1.1332707551,
				"z": -1.1697590913,
				"element": "C" 
			},
			{
				"x": 1.1751779586,
				"y": -0.8579980417,
				"z": -1.2975313377,
				"element": "O" 
			},
			{
				"x": -0.97067775,
				"y": -0.5034318828,
				"z": -2.3695234537,
				"element": "C" 
			},
			{
				"x": 1.1598123152,
				"y": -4.2923551847,
				"z": 5.8876597557,
				"element": "C" 
			},
			{
				"x": 0.9748374586,
				"y": -4.1590024339,
				"z": 7.2103008777,
				"element": "C" 
			},
			{
				"x": 0.5976644389,
				"y": -5.4588346335,
				"z": 7.80223006,
				"element": "C" 
			},
			{
				"x": 0.3421421397,
				"y": -5.7499762756,
				"z": 8.9448039328,
				"element": "O" 
			},
			{
				"x": 0.5731446017,
				"y": -6.383762947,
				"z": 6.7796799416,
				"element": "O" 
			},
			{
				"x": 0.9216262081,
				"y": -5.747347609,
				"z": 5.5475904952,
				"element": "C" 
			},
			{
				"x": -1.7917606668,
				"y": 2.6594070224,
				"z": -5.6240690542,
				"element": "C" 
			},
			{
				"x": -0.9938551276,
				"y": 2.5631591273,
				"z": -6.8002698634,
				"element": "O" 
			},
			{
				"x": -2.4306903307,
				"y": 4.0384550453,
				"z": -5.5283443348,
				"element": "C" 
			},
			{
				"x": -3.2608273787,
				"y": 4.2061164494,
				"z": -6.6721692195,
				"element": "O" 
			},
			{
				"x": -1.3636857254,
				"y": 5.1349345091,
				"z": -5.4602936081,
				"element": "C" 
			},
			{
				"x": -2.0798079034,
				"y": 6.3127021093,
				"z": -5.0752078171,
				"element": "O" 
			},
			{
				"x": -0.5479407524,
				"y": 6.1908004459,
				"z": -2.9676548233,
				"element": "H" 
			},
			{
				"x": 0.6821033598,
				"y": 6.6503814643,
				"z": -4.1654696918,
				"element": "H" 
			},
			{
				"x": 1.0647252232,
				"y": 5.4394715083,
				"z": -2.9322713066,
				"element": "H" 
			},
			{
				"x": 0.6156511073,
				"y": 4.3473582175,
				"z": -5.1249291564,
				"element": "H" 
			},
			{
				"x": 0.1008816829,
				"y": 2.0483238777,
				"z": -4.7709016524,
				"element": "H" 
			},
			{
				"x": 0.3722377349,
				"y": 1.1468838806,
				"z": -2.7209279302,
				"element": "H" 
			},
			{
				"x": -0.7526412881,
				"y": 2.7786278891,
				"z": -1.2750430367,
				"element": "H" 
			},
			{
				"x": -2.1177338881,
				"y": 1.6950046403,
				"z": -1.0554323498,
				"element": "H" 
			},
			{
				"x": 0.7536912641,
				"y": 1.21339732,
				"z": -0.0429312977,
				"element": "H" 
			},
			{
				"x": -0.6492301722,
				"y": 1.6180796145,
				"z": 0.9397040678,
				"element": "H" 
			},
			{
				"x": -2.527121018,
				"y": 0.3074608001,
				"z": 1.0918855235,
				"element": "H" 
			},
			{
				"x": 1.1927268365,
				"y": -0.8834110468,
				"z": 1.1505829622,
				"element": "H" 
			},
			{
				"x": 0.0318095175,
				"y": 0.6190754906,
				"z": 2.7326310767,
				"element": "H" 
			},
			{
				"x": -1.2585495585,
				"y": -0.5440275996,
				"z": 2.961838565,
				"element": "H" 
			},
			{
				"x": 1.6867603019,
				"y": -0.907725822,
				"z": 3.6932714579,
				"element": "H" 
			},
			{
				"x": 0.3768915679,
				"y": -0.6375565095,
				"z": 4.8247108271,
				"element": "H" 
			},
			{
				"x": -1.1316513751,
				"y": -2.4537449085,
				"z": 5.5314670342,
				"element": "H" 
			},
			{
				"x": -1.787368362,
				"y": -2.4757856257,
				"z": 3.8949867618,
				"element": "H" 
			},
			{
				"x": -1.2264757261,
				"y": -3.9695648593,
				"z": 4.6483274479,
				"element": "H" 
			},
			{
				"x": 1.8988182696,
				"y": -2.3778986449,
				"z": 5.5381287818,
				"element": "H" 
			},
			{
				"x": 3.6249230094,
				"y": -3.1165616998,
				"z": 4.1620408644,
				"element": "H" 
			},
			{
				"x": 2.9057692536,
				"y": -4.7062196078,
				"z": 4.0359125354,
				"element": "H" 
			},
			{
				"x": 2.5750111287,
				"y": -2.3765748668,
				"z": 2.1502377414,
				"element": "H" 
			},
			{
				"x": 2.51848839,
				"y": -4.0987893847,
				"z": 1.7886197633,
				"element": "H" 
			},
			{
				"x": -0.6910901439,
				"y": -4.7327494957,
				"z": 2.6083598567,
				"element": "H" 
			},
			{
				"x": -1.1403696862,
				"y": -2.7982230395,
				"z": 1.5715740339,
				"element": "H" 
			},
			{
				"x": 0.1327802097,
				"y": -4.3480429509,
				"z": 0.1228652992,
				"element": "H" 
			},
			{
				"x": 1.3924273277,
				"y": -3.1393462767,
				"z": -0.0955357473,
				"element": "H" 
			},
			{
				"x": -0.093819027,
				"y": -3.0909891483,
				"z": -2.0514158654,
				"element": "H" 
			},
			{
				"x": -1.5128946149,
				"y": -2.8683087967,
				"z": -1.0291555543,
				"element": "H" 
			},
			{
				"x": 1.4876758534,
				"y": -1.3335372668,
				"z": -2.079380568,
				"element": "H" 
			},
			{
				"x": -0.6539751648,
				"y": -1.0074651978,
				"z": -3.2921139289,
				"element": "H" 
			},
			{
				"x": -2.0504140694,
				"y": -0.6633520628,
				"z": -2.281320444,
				"element": "H" 
			},
			{
				"x": 1.0750543759,
				"y": -3.263262905,
				"z": 7.8094714378,
				"element": "H" 
			},
			{
				"x": 0.119223679,
				"y": -5.8870368826,
				"z": 4.8187497372,
				"element": "H" 
			},
			{
				"x": 1.8160056221,
				"y": -6.2350286806,
				"z": 5.1417519837,
				"element": "H" 
			},
			{
				"x": -2.5757871131,
				"y": 1.8913400141,
				"z": -5.6171447486,
				"element": "H" 
			},
			{
				"x": -1.5630341337,
				"y": 2.8642922609,
				"z": -7.5241194423,
				"element": "H" 
			},
			{
				"x": -3.0171067087,
				"y": 4.0922133319,
				"z": -4.6006114139,
				"element": "H" 
			},
			{
				"x": -3.5632423394,
				"y": 5.1250525388,
				"z": -6.6541105057,
				"element": "H" 
			},
			{
				"x": -0.9454760906,
				"y": 5.2660013402,
				"z": -6.4672995405,
				"element": "H" 
			},
			{
				"x": -1.5235720036,
				"y": 7.0824392379,
				"z": -5.2470360076,
				"element": "H" 
			}
		],
		 "valence_orbital": [ 
			{
				"type": "occ",
				"energy": -0.26677,
				"method": "rhf"
			},
			{
				"type": "occ",
				"energy": -0.26163,
				"method": "rhf"
			},
			{
				"type": "occ",
				"energy": -0.25616,
				"method": "rhf"
			},
			{
				"type": "occ",
				"energy": -0.25476,
				"method": "rhf"
			},
			{
				"type": "occ",
				"energy": -0.25132,
				"method": "rhf"
			},
			{
				"type": "unocc",
				"energy": -0.03912,
				"method": "rhf"
			},
			{
				"type": "unocc",
				"energy": -0.0332,
				"method": "rhf"
			},
			{
				"type": "unocc",
				"energy": 0.04985,
				"method": "rhf"
			},
			{
				"type": "unocc",
				"energy": 0.05179,
				"method": "rhf"
			},
			{
				"type": "unocc",
				"energy": 0.05879,
				"method": "rhf"
			}
		],
		"cosmo_sigma_profile": { 
			"-0.025": 0.0,
			"-0.024": 0.0,
			"-0.023": 0.0,
			"-0.022": 0.0,
			"-0.021": 0.0,
			"-0.02": 0.0,
			"-0.019": 0.0,
			"-0.018": 0.0,
			"-0.017": 0.0,
			"-0.016": 0.142869222424,
			"-0.015": 1.34166851099,
			"-0.014": 3.25703722572,
			"-0.013": 3.12174691326,
			"-0.012": 4.35295531694,
			"-0.011": 3.89887148449,
			"-0.01": 6.08588814753,
			"-0.009": 4.34598032859,
			"-0.008": 6.13584249961,
			"-0.007": 9.62763511595,
			"-0.006": 16.3080806071,
			"-0.005": 26.5323361214,
			"-0.004": 40.0388160811,
			"-0.003": 55.012224285,
			"-0.002": 56.406789523,
			"-0.001": 60.3207777561,
			"0.0": 55.3426546914,
			"0.001": 34.4203275058,
			"0.002": 19.207899946,
			"0.003": 15.2937681983,
			"0.004": 14.0114303844,
			"0.005": 12.6760695235,
			"0.006": 13.5098602749,
			"0.007": 13.260221439,
			"0.008": 12.2863294976,
			"0.009": 11.604064655,
			"0.01": 12.6532097711,
			"0.011": 12.1439881689,
			"0.012": 11.5570490067,
			"0.013": 8.99138698035,
			"0.014": 1.7760184988,
			"0.015": 0.0,
			"0.016": 0.0,
			"0.017": 0.0,
			"0.018": 0.0,
			"0.019": 0.0,
			"0.02": 0.0,
			"0.021": 0.0,
			"0.022": 0.0,
			"0.023": 0.0,
			"0.024": 0.0,
			"0.025": 0.0
		}
	}
}
