{
	 "smiles": "CCOCCS(=O)(=O)NCC(O)=O", 
	 "Tm": 337.15, 
	 "num_atms": 26, 
	 "gaussian": { 
		 "optdone": 1, 
		 "sigma_profile": "yes", 
		 "theory": "DFT", 
		 "functional": "B3LYP", 
		 "basiset": "6-31G**", 
		 "properties": { 
			 "R2extent": 4149.6016, 
			 "electric_dipole_moment_norm": 7.71195861698, 
			 "electric_quadrupole_moment_norm": 17.3750503594, 
			 "total_energy": -1065.46551936, 
			 "HOMO_LUMO_gap": 0.2572, 
			 "cosmo_polarized_energy": -20.73, 
			 "cosmo_cavitation_energy": 30.85, 
			 "cosmo_dispersion_energy": -22.08, 
			 "cosmo_repulsion_energy": 1.75, 
			 "cosmo_total_nonelectrostatic_energy": 10.52, 
			 "SMD_solvation_energy": 5.84 
		},
		"coords": [
			{
				"x": 1.7702685835,
				"y": 1.8670106584,
				"z": -1.8531640403,
				"element": "C" 
			},
			{
				"x": 2.4816140217,
				"y": 1.291882085,
				"z": -0.6408514139,
				"element": "C" 
			},
			{
				"x": 1.8807594407,
				"y": 0.0419258403,
				"z": -0.3160322979,
				"element": "O" 
			},
			{
				"x": 2.4672170241,
				"y": -0.5751264806,
				"z": 0.8089270824,
				"element": "C" 
			},
			{
				"x": 1.7234701695,
				"y": -1.8660766938,
				"z": 1.1101489957,
				"element": "C" 
			},
			{
				"x": -0.0108720258,
				"y": -1.5887236219,
				"z": 1.5795390421,
				"element": "S" 
			},
			{
				"x": -0.0750007052,
				"y": -0.3637401964,
				"z": 2.3774633581,
				"element": "O" 
			},
			{
				"x": -0.4962399969,
				"y": -2.8808646782,
				"z": 2.1177874954,
				"element": "O" 
			},
			{
				"x": -0.8379947107,
				"y": -1.3577426568,
				"z": 0.1548463974,
				"element": "N" 
			},
			{
				"x": -1.8169583041,
				"y": -2.3250329843,
				"z": -0.3500986122,
				"element": "C" 
			},
			{
				"x": -3.1997271095,
				"y": -2.2961002622,
				"z": 0.3314104537,
				"element": "C" 
			},
			{
				"x": -3.2237136657,
				"y": -2.5783241543,
				"z": 1.6427664295,
				"element": "O" 
			},
			{
				"x": -4.2050852691,
				"y": -2.0432454647,
				"z": -0.2897729729,
				"element": "O" 
			},
			{
				"x": 0.7110347177,
				"y": 2.0344616469,
				"z": -1.6367934628,
				"element": "H" 
			},
			{
				"x": 1.8451783564,
				"y": 1.1840886768,
				"z": -2.704143385,
				"element": "H" 
			},
			{
				"x": 2.2179783538,
				"y": 2.8244321507,
				"z": -2.136065658,
				"element": "H" 
			},
			{
				"x": 2.4074215477,
				"y": 1.9774557275,
				"z": 0.2181918567,
				"element": "H" 
			},
			{
				"x": 3.5535675813,
				"y": 1.1460486912,
				"z": -0.8526575397,
				"element": "H" 
			},
			{
				"x": 3.525778695,
				"y": -0.8224233604,
				"z": 0.6204526113,
				"element": "H" 
			},
			{
				"x": 2.4266169842,
				"y": 0.0851758279,
				"z": 1.6876906515,
				"element": "H" 
			},
			{
				"x": 2.1639775328,
				"y": -2.3765243429,
				"z": 1.971183959,
				"element": "H" 
			},
			{
				"x": 1.709422008,
				"y": -2.5452736622,
				"z": 0.2550111942,
				"element": "H" 
			},
			{
				"x": -0.9878456738,
				"y": -0.3767983971,
				"z": -0.0491187123,
				"element": "H" 
			},
			{
				"x": -1.3884727143,
				"y": -3.3277426065,
				"z": -0.259834339,
				"element": "H" 
			},
			{
				"x": -1.9753273729,
				"y": -2.113588712,
				"z": -1.4086039135,
				"element": "H" 
			},
			{
				"x": -2.3266674684,
				"y": -2.8034530304,
				"z": 1.9720168205,
				"element": "H" 
			}
		],
		 "valence_orbital": [ 
			{
				"type": "occ",
				"energy": -0.32386,
				"method": "rhf"
			},
			{
				"type": "occ",
				"energy": -0.30495,
				"method": "rhf"
			},
			{
				"type": "occ",
				"energy": -0.30021,
				"method": "rhf"
			},
			{
				"type": "occ",
				"energy": -0.28118,
				"method": "rhf"
			},
			{
				"type": "occ",
				"energy": -0.25457,
				"method": "rhf"
			},
			{
				"type": "unocc",
				"energy": 0.00263,
				"method": "rhf"
			},
			{
				"type": "unocc",
				"energy": 0.04743,
				"method": "rhf"
			},
			{
				"type": "unocc",
				"energy": 0.05402,
				"method": "rhf"
			},
			{
				"type": "unocc",
				"energy": 0.05769,
				"method": "rhf"
			},
			{
				"type": "unocc",
				"energy": 0.06606,
				"method": "rhf"
			}
		],
		"cosmo_sigma_profile": { 
			"-0.025": 0.0,
			"-0.024": 0.0,
			"-0.023": 0.0,
			"-0.022": 0.0,
			"-0.021": 0.0,
			"-0.02": 0.0,
			"-0.019": 0.0,
			"-0.018": 0.0,
			"-0.017": 0.0,
			"-0.016": 0.268319088946,
			"-0.015": 0.765282624634,
			"-0.014": 1.24714599667,
			"-0.013": 0.886201082771,
			"-0.012": 0.870270620806,
			"-0.011": 0.728434685984,
			"-0.01": 1.63793935396,
			"-0.009": 6.6764854005,
			"-0.008": 10.2003858065,
			"-0.007": 10.5037716336,
			"-0.006": 11.309110815,
			"-0.005": 15.4830438802,
			"-0.004": 21.5525146391,
			"-0.003": 22.531803099,
			"-0.002": 17.9942775066,
			"-0.001": 13.6627172559,
			"0.0": 12.8453656482,
			"0.001": 10.5841171692,
			"0.002": 6.00741816949,
			"0.003": 6.01331230437,
			"0.004": 6.19299359923,
			"0.005": 5.45292147037,
			"0.006": 5.86970536166,
			"0.007": 6.66042248583,
			"0.008": 5.61457041307,
			"0.009": 7.79201605432,
			"0.01": 12.8123691759,
			"0.011": 11.4687873248,
			"0.012": 5.98626900829,
			"0.013": 1.97411301016,
			"0.014": 0.0774978539307,
			"0.015": 0.0,
			"0.016": 0.0,
			"0.017": 0.0,
			"0.018": 0.0,
			"0.019": 0.0,
			"0.02": 0.0,
			"0.021": 0.0,
			"0.022": 0.0,
			"0.023": 0.0,
			"0.024": 0.0,
			"0.025": 0.0
		}
	}
}
