{
	 "smiles": "FC1=CC(Cl)=CC(F)=C1C#N", 
	 "Tm": 374.65, 
	 "num_atms": 13, 
	 "gaussian": { 
		 "optdone": 1, 
		 "sigma_profile": "yes", 
		 "theory": "DFT", 
		 "functional": "B3LYP", 
		 "basiset": "6-31G**", 
		 "properties": { 
			 "R2extent": 2618.8179, 
			 "electric_dipole_moment_norm": 4.02344525749, 
			 "electric_quadrupole_moment_norm": 7.01654880194, 
			 "total_energy": -982.535713266, 
			 "HOMO_LUMO_gap": 0.20233, 
			 "cosmo_polarized_energy": -7.75, 
			 "cosmo_cavitation_energy": 22.06, 
			 "cosmo_dispersion_energy": -15.53, 
			 "cosmo_repulsion_energy": 1.21, 
			 "cosmo_total_nonelectrostatic_energy": 7.74, 
			 "SMD_solvation_energy": 5.87 
		},
		"coords": [
			{
				"x": -2.3593911763,
				"y": 0.9677726718,
				"z": 1.3506521611,
				"element": "F" 
			},
			{
				"x": -1.4798235144,
				"y": -0.0123272537,
				"z": 1.1273999096,
				"element": "C" 
			},
			{
				"x": -1.4070344247,
				"y": -1.0702948114,
				"z": 2.0212424965,
				"element": "C" 
			},
			{
				"x": -0.4796475846,
				"y": -2.0820346535,
				"z": 1.7657136675,
				"element": "C" 
			},
			{
				"x": -0.3657717386,
				"y": -3.4252631411,
				"z": 2.8728828404,
				"element": "Cl" 
			},
			{
				"x": 0.3592890101,
				"y": -2.0505115027,
				"z": 0.6503071968,
				"element": "C" 
			},
			{
				"x": 0.2510716428,
				"y": -0.9728678255,
				"z": -0.2160248431,
				"element": "C" 
			},
			{
				"x": 1.0431603422,
				"y": -0.9205208237,
				"z": -1.2902364411,
				"element": "F" 
			},
			{
				"x": -0.6623797889,
				"y": 0.0739265405,
				"z": -0.0112284279,
				"element": "C" 
			},
			{
				"x": -0.7553880584,
				"y": 1.1715939766,
				"z": -0.9159208148,
				"element": "C" 
			},
			{
				"x": -0.8312122102,
				"y": 2.0666892189,
				"z": -1.653695673,
				"element": "N" 
			},
			{
				"x": -2.0574971764,
				"y": -1.0947291733,
				"z": 2.8860510421,
				"element": "H" 
			},
			{
				"x": 1.0783246773,
				"y": -2.834933223,
				"z": 0.452156886,
				"element": "H" 
			}
		],
		 "valence_orbital": [ 
			{
				"type": "occ",
				"energy": -0.34779,
				"method": "rhf"
			},
			{
				"type": "occ",
				"energy": -0.34413,
				"method": "rhf"
			},
			{
				"type": "occ",
				"energy": -0.34152,
				"method": "rhf"
			},
			{
				"type": "occ",
				"energy": -0.2879,
				"method": "rhf"
			},
			{
				"type": "occ",
				"energy": -0.27757,
				"method": "rhf"
			},
			{
				"type": "unocc",
				"energy": -0.07524,
				"method": "rhf"
			},
			{
				"type": "unocc",
				"energy": -0.04028,
				"method": "rhf"
			},
			{
				"type": "unocc",
				"energy": -0.00618,
				"method": "rhf"
			},
			{
				"type": "unocc",
				"energy": 0.01487,
				"method": "rhf"
			},
			{
				"type": "unocc",
				"energy": 0.05039,
				"method": "rhf"
			}
		],
		"cosmo_sigma_profile": { 
			"-0.025": 0.0,
			"-0.024": 0.0,
			"-0.023": 0.0,
			"-0.022": 0.0,
			"-0.021": 0.0,
			"-0.02": 0.0,
			"-0.019": 0.0,
			"-0.018": 0.0,
			"-0.017": 0.0,
			"-0.016": 0.0,
			"-0.015": 0.0,
			"-0.014": 0.0,
			"-0.013": 0.0,
			"-0.012": 0.0,
			"-0.011": 0.0318469036572,
			"-0.01": 2.21500037819,
			"-0.009": 3.47998672802,
			"-0.008": 2.71052677243,
			"-0.007": 3.22917159434,
			"-0.006": 3.10993904782,
			"-0.005": 5.55400906809,
			"-0.004": 13.3492150876,
			"-0.003": 20.4235051189,
			"-0.002": 17.6393829775,
			"-0.001": 18.587028454,
			"0.0": 10.860223848,
			"0.001": 12.6591943982,
			"0.002": 27.2512497086,
			"0.003": 15.8455832232,
			"0.004": 3.75304108899,
			"0.005": 2.87480110443,
			"0.006": 2.29571327794,
			"0.007": 3.32391047204,
			"0.008": 3.3385548628,
			"0.009": 3.11040877017,
			"0.01": 2.65402694157,
			"0.011": 2.39452111337,
			"0.012": 1.65559405926,
			"0.013": 0.112071409894,
			"0.014": 0.0,
			"0.015": 0.0,
			"0.016": 0.0,
			"0.017": 0.0,
			"0.018": 0.0,
			"0.019": 0.0,
			"0.02": 0.0,
			"0.021": 0.0,
			"0.022": 0.0,
			"0.023": 0.0,
			"0.024": 0.0,
			"0.025": 0.0
		}
	}
}
