{
	 "smiles": "CCNC(=O)C1=C(Cl)N=CC=C1", 
	 "Tm": 321.15, 
	 "num_atms": 21, 
	 "gaussian": { 
		 "optdone": 1, 
		 "sigma_profile": "yes", 
		 "theory": "DFT", 
		 "functional": "B3LYP", 
		 "basiset": "6-31G**", 
		 "properties": { 
			 "R2extent": 3543.7609, 
			 "electric_dipole_moment_norm": 5.73653964163, 
			 "electric_quadrupole_moment_norm": 16.9687349573, 
			 "total_energy": -955.204685919, 
			 "HOMO_LUMO_gap": 0.20662, 
			 "cosmo_polarized_energy": -16.53, 
			 "cosmo_cavitation_energy": 27.31, 
			 "cosmo_dispersion_energy": -19.63, 
			 "cosmo_repulsion_energy": 1.61, 
			 "cosmo_total_nonelectrostatic_energy": 9.28, 
			 "SMD_solvation_energy": 3.51 
		},
		"coords": [
			{
				"x": 0.5032685408,
				"y": 0.049419462,
				"z": -2.7679573533,
				"element": "C" 
			},
			{
				"x": 1.1710056386,
				"y": 0.0238276011,
				"z": -1.3914895864,
				"element": "C" 
			},
			{
				"x": 0.2348215651,
				"y": 0.3013918877,
				"z": -0.307585436,
				"element": "N" 
			},
			{
				"x": -0.0445861034,
				"y": -0.6057836063,
				"z": 0.6776237162,
				"element": "C" 
			},
			{
				"x": 0.4423714722,
				"y": -1.7257033009,
				"z": 0.7337954455,
				"element": "O" 
			},
			{
				"x": -1.0689985132,
				"y": -0.1237093018,
				"z": 1.6792688158,
				"element": "C" 
			},
			{
				"x": -0.8400558501,
				"y": -0.084156997,
				"z": 3.0674645733,
				"element": "C" 
			},
			{
				"x": 0.7531497748,
				"y": -0.4627036497,
				"z": 3.7034321643,
				"element": "Cl" 
			},
			{
				"x": -1.745595984,
				"y": 0.2632812118,
				"z": 3.9638925055,
				"element": "N" 
			},
			{
				"x": -2.9698007237,
				"y": 0.5932619638,
				"z": 3.5296194816,
				"element": "C" 
			},
			{
				"x": -3.3208133673,
				"y": 0.6054743682,
				"z": 2.1830616465,
				"element": "C" 
			},
			{
				"x": -2.3482196819,
				"y": 0.2442605667,
				"z": 1.2512586457,
				"element": "C" 
			},
			{
				"x": -0.2831101352,
				"y": -0.7084147294,
				"z": -2.8322001909,
				"element": "H" 
			},
			{
				"x": 0.0540335114,
				"y": 1.0266589734,
				"z": -2.9784641813,
				"element": "H" 
			},
			{
				"x": 1.2405910699,
				"y": -0.1531141894,
				"z": -3.5515406024,
				"element": "H" 
			},
			{
				"x": 1.9927829174,
				"y": 0.7498490617,
				"z": -1.3525185412,
				"element": "H" 
			},
			{
				"x": 1.5901342431,
				"y": -0.9619068159,
				"z": -1.1797910935,
				"element": "H" 
			},
			{
				"x": -0.1445343857,
				"y": 1.2328982738,
				"z": -0.2202208802,
				"element": "H" 
			},
			{
				"x": -3.6902068246,
				"y": 0.8603584775,
				"z": 4.2995111059,
				"element": "H" 
			},
			{
				"x": -4.3225070141,
				"y": 0.8838273546,
				"z": 1.8734708827,
				"element": "H" 
			},
			{
				"x": -2.5775301501,
				"y": 0.2271833881,
				"z": 0.189468882,
				"element": "H" 
			}
		],
		 "valence_orbital": [ 
			{
				"type": "occ",
				"energy": -0.30408,
				"method": "rhf"
			},
			{
				"type": "occ",
				"energy": -0.28025,
				"method": "rhf"
			},
			{
				"type": "occ",
				"energy": -0.26559,
				"method": "rhf"
			},
			{
				"type": "occ",
				"energy": -0.26012,
				"method": "rhf"
			},
			{
				"type": "occ",
				"energy": -0.25241,
				"method": "rhf"
			},
			{
				"type": "unocc",
				"energy": -0.04579,
				"method": "rhf"
			},
			{
				"type": "unocc",
				"energy": -0.03618,
				"method": "rhf"
			},
			{
				"type": "unocc",
				"energy": 0.02475,
				"method": "rhf"
			},
			{
				"type": "unocc",
				"energy": 0.0419,
				"method": "rhf"
			},
			{
				"type": "unocc",
				"energy": 0.07457,
				"method": "rhf"
			}
		],
		"cosmo_sigma_profile": { 
			"-0.025": 0.0,
			"-0.024": 0.0,
			"-0.023": 0.0,
			"-0.022": 0.0,
			"-0.021": 0.0,
			"-0.02": 0.0,
			"-0.019": 0.0,
			"-0.018": 0.0,
			"-0.017": 0.0,
			"-0.016": 0.0,
			"-0.015": 0.190892954299,
			"-0.014": 1.09904056483,
			"-0.013": 0.963488645857,
			"-0.012": 1.13189886413,
			"-0.011": 1.17674010761,
			"-0.01": 1.25737829406,
			"-0.009": 1.84549327111,
			"-0.008": 6.33661018407,
			"-0.007": 9.5907135376,
			"-0.006": 8.21049376869,
			"-0.005": 9.64724284385,
			"-0.004": 13.240750219,
			"-0.003": 15.973343554,
			"-0.002": 19.8621788134,
			"-0.001": 20.4042631475,
			"0.0": 23.3728034083,
			"0.001": 19.0694254097,
			"0.002": 8.81383141057,
			"0.003": 8.13344107125,
			"0.004": 9.79379659227,
			"0.005": 6.65465655692,
			"0.006": 4.23703591778,
			"0.007": 4.48160292411,
			"0.008": 2.7076100462,
			"0.009": 2.92222491551,
			"0.01": 3.08215610035,
			"0.011": 2.58186673499,
			"0.012": 4.02586915118,
			"0.013": 5.57878567949,
			"0.014": 3.09021038662,
			"0.015": 0.101854641766,
			"0.016": 0.0,
			"0.017": 0.0,
			"0.018": 0.0,
			"0.019": 0.0,
			"0.02": 0.0,
			"0.021": 0.0,
			"0.022": 0.0,
			"0.023": 0.0,
			"0.024": 0.0,
			"0.025": 0.0
		}
	}
}
