{
	 "smiles": "COC(=O)C1=CC=C(CNC(=O)C(C)Cl)C=C1", 
	 "Tm": 370.15, 
	 "num_atms": 31, 
	 "gaussian": { 
		 "optdone": 1, 
		 "sigma_profile": "yes", 
		 "theory": "DFT", 
		 "functional": "B3LYP", 
		 "basiset": "6-31G**", 
		 "properties": { 
			 "R2extent": 8214.6173, 
			 "electric_dipole_moment_norm": 3.01282131067, 
			 "electric_quadrupole_moment_norm": 11.6492132799, 
			 "total_energy": -1206.37083212, 
			 "HOMO_LUMO_gap": 0.20489, 
			 "cosmo_polarized_energy": -14.46, 
			 "cosmo_cavitation_energy": 37.24, 
			 "cosmo_dispersion_energy": -26.53, 
			 "cosmo_repulsion_energy": 2.09, 
			 "cosmo_total_nonelectrostatic_energy": 12.8, 
			 "SMD_solvation_energy": 7.44 
		},
		"coords": [
			{
				"x": -4.0158925473,
				"y": 2.9924234134,
				"z": -1.9253131517,
				"element": "C" 
			},
			{
				"x": -3.2202579428,
				"y": 2.3803047407,
				"z": -0.8993405904,
				"element": "O" 
			},
			{
				"x": -1.9419943619,
				"y": 2.1052513403,
				"z": -1.2501602762,
				"element": "C" 
			},
			{
				"x": -1.4897684347,
				"y": 2.3537073851,
				"z": -2.3510916214,
				"element": "O" 
			},
			{
				"x": -1.1706211732,
				"y": 1.472105198,
				"z": -0.143743604,
				"element": "C" 
			},
			{
				"x": 0.1713857071,
				"y": 1.1412924152,
				"z": -0.3843760624,
				"element": "C" 
			},
			{
				"x": 0.9381966024,
				"y": 0.5508861623,
				"z": 0.613203761,
				"element": "C" 
			},
			{
				"x": 0.3775164494,
				"y": 0.2769571477,
				"z": 1.871041249,
				"element": "C" 
			},
			{
				"x": 1.2176796495,
				"y": -0.3787662887,
				"z": 2.951494259,
				"element": "C" 
			},
			{
				"x": 1.5363743196,
				"y": -1.7776713327,
				"z": 2.6711604638,
				"element": "N" 
			},
			{
				"x": 2.7135905801,
				"y": -2.1415378996,
				"z": 2.1123007725,
				"element": "C" 
			},
			{
				"x": 3.6163823782,
				"y": -1.3582140523,
				"z": 1.8287645996,
				"element": "O" 
			},
			{
				"x": 2.9661049723,
				"y": -3.6323765729,
				"z": 1.8287950428,
				"element": "C" 
			},
			{
				"x": 4.1832400314,
				"y": -4.1369033991,
				"z": 2.5976145361,
				"element": "C" 
			},
			{
				"x": 1.5203232881,
				"y": -4.7183622076,
				"z": 2.1606081823,
				"element": "Cl" 
			},
			{
				"x": -0.9609119317,
				"y": 0.6107050398,
				"z": 2.1058663086,
				"element": "C" 
			},
			{
				"x": -1.7344182104,
				"y": 1.2050261263,
				"z": 1.1095665267,
				"element": "C" 
			},
			{
				"x": -3.5816865033,
				"y": 3.9475769703,
				"z": -2.2313978155,
				"element": "H" 
			},
			{
				"x": -4.0832226238,
				"y": 2.3415517577,
				"z": -2.8007469234,
				"element": "H" 
			},
			{
				"x": -5.0008314276,
				"y": 3.1433743407,
				"z": -1.4834283149,
				"element": "H" 
			},
			{
				"x": 0.5921385369,
				"y": 1.3618188591,
				"z": -1.3596258018,
				"element": "H" 
			},
			{
				"x": 1.9790747135,
				"y": 0.299573849,
				"z": 0.4307697645,
				"element": "H" 
			},
			{
				"x": 0.699550114,
				"y": -0.3305459402,
				"z": 3.9144441224,
				"element": "H" 
			},
			{
				"x": 2.1755149119,
				"y": 0.1379206241,
				"z": 3.0521684016,
				"element": "H" 
			},
			{
				"x": 0.8192399675,
				"y": -2.4806591186,
				"z": 2.7819342437,
				"element": "H" 
			},
			{
				"x": 3.1294671842,
				"y": -3.7198684972,
				"z": 0.7531679979,
				"element": "H" 
			},
			{
				"x": 5.0258795904,
				"y": -3.478816475,
				"z": 2.3716883327,
				"element": "H" 
			},
			{
				"x": 3.9989900096,
				"y": -4.1174679822,
				"z": 3.675158032,
				"element": "H" 
			},
			{
				"x": 4.4305989231,
				"y": -5.1582170855,
				"z": 2.3010063577,
				"element": "H" 
			},
			{
				"x": -1.4031045076,
				"y": 0.4072485842,
				"z": 3.0782639326,
				"element": "H" 
			},
			{
				"x": -2.770438265,
				"y": 1.4621828978,
				"z": 1.297507275,
				"element": "H" 
			}
		],
		 "valence_orbital": [ 
			{
				"type": "occ",
				"energy": -0.27386,
				"method": "rhf"
			},
			{
				"type": "occ",
				"energy": -0.27276,
				"method": "rhf"
			},
			{
				"type": "occ",
				"energy": -0.26277,
				"method": "rhf"
			},
			{
				"type": "occ",
				"energy": -0.25992,
				"method": "rhf"
			},
			{
				"type": "occ",
				"energy": -0.25338,
				"method": "rhf"
			},
			{
				"type": "unocc",
				"energy": -0.04849,
				"method": "rhf"
			},
			{
				"type": "unocc",
				"energy": -0.01066,
				"method": "rhf"
			},
			{
				"type": "unocc",
				"energy": 0.00652,
				"method": "rhf"
			},
			{
				"type": "unocc",
				"energy": 0.01446,
				"method": "rhf"
			},
			{
				"type": "unocc",
				"energy": 0.05322,
				"method": "rhf"
			}
		],
		"cosmo_sigma_profile": { 
			"-0.025": 0.0,
			"-0.024": 0.0,
			"-0.023": 0.0,
			"-0.022": 0.0,
			"-0.021": 0.0,
			"-0.02": 0.0,
			"-0.019": 0.0,
			"-0.018": 0.0,
			"-0.017": 0.0,
			"-0.016": 0.0,
			"-0.015": 0.0,
			"-0.014": 0.0445289872894,
			"-0.013": 0.472192860542,
			"-0.012": 0.596568001884,
			"-0.011": 0.712850415117,
			"-0.01": 1.26011570733,
			"-0.009": 1.49904604025,
			"-0.008": 3.5466996383,
			"-0.007": 6.63963823892,
			"-0.006": 14.7788560321,
			"-0.005": 23.0609104229,
			"-0.004": 25.2698030561,
			"-0.003": 27.6345788337,
			"-0.002": 25.0832007935,
			"-0.001": 22.589152763,
			"0.0": 19.9266815642,
			"0.001": 20.7475308644,
			"0.002": 19.8740692239,
			"0.003": 20.1568188198,
			"0.004": 16.7251727814,
			"0.005": 11.2022403798,
			"0.006": 8.49491011659,
			"0.007": 2.55090049689,
			"0.008": 2.8642778377,
			"0.009": 3.13737773542,
			"0.01": 3.10976925567,
			"0.011": 4.21986847735,
			"0.012": 6.25341099951,
			"0.013": 4.3447584871,
			"0.014": 0.717691043399,
			"0.015": 0.0,
			"0.016": 0.0,
			"0.017": 0.0,
			"0.018": 0.0,
			"0.019": 0.0,
			"0.02": 0.0,
			"0.021": 0.0,
			"0.022": 0.0,
			"0.023": 0.0,
			"0.024": 0.0,
			"0.025": 0.0
		}
	}
}
