{
	 "smiles": "CN(C)C1=C(F)C=C(C=C1F)C(N)=N", 
	 "Tm": 369.15, 
	 "num_atms": 25, 
	 "gaussian": { 
		 "optdone": 1, 
		 "sigma_profile": "yes", 
		 "theory": "DFT", 
		 "functional": "B3LYP", 
		 "basiset": "6-31G**", 
		 "properties": { 
			 "R2extent": 4584.7255, 
			 "electric_dipole_moment_norm": 2.59236214484, 
			 "electric_quadrupole_moment_norm": 19.0589070788, 
			 "total_energy": -713.49482691, 
			 "HOMO_LUMO_gap": 0.17425, 
			 "cosmo_polarized_energy": -11.44, 
			 "cosmo_cavitation_energy": 29.09, 
			 "cosmo_dispersion_energy": -20.9, 
			 "cosmo_repulsion_energy": 1.61, 
			 "cosmo_total_nonelectrostatic_energy": 9.8, 
			 "SMD_solvation_energy": 4.45 
		},
		"coords": [
			{
				"x": -0.8814133363,
				"y": -1.3874778053,
				"z": -1.2304547802,
				"element": "C" 
			},
			{
				"x": -0.2378394056,
				"y": -0.681769425,
				"z": -0.129806929,
				"element": "N" 
			},
			{
				"x": -0.991316298,
				"y": -0.7299546027,
				"z": 1.1212472237,
				"element": "C" 
			},
			{
				"x": 0.5307408643,
				"y": 0.4597749645,
				"z": -0.3848694042,
				"element": "C" 
			},
			{
				"x": 1.5798182246,
				"y": 0.8276378013,
				"z": 0.4850070533,
				"element": "C" 
			},
			{
				"x": 1.7839409365,
				"y": 0.0677060051,
				"z": 1.5848475997,
				"element": "F" 
			},
			{
				"x": 2.407152357,
				"y": 1.9188484002,
				"z": 0.2857173677,
				"element": "C" 
			},
			{
				"x": 2.2383488137,
				"y": 2.7203755618,
				"z": -0.8529137894,
				"element": "C" 
			},
			{
				"x": 1.2201381502,
				"y": 2.3912356456,
				"z": -1.7537545606,
				"element": "C" 
			},
			{
				"x": 0.392598252,
				"y": 1.3073984918,
				"z": -1.5020995325,
				"element": "C" 
			},
			{
				"x": -0.5978268104,
				"y": 1.0591245244,
				"z": -2.3919923272,
				"element": "F" 
			},
			{
				"x": 3.1101142872,
				"y": 3.9082591051,
				"z": -1.1034584206,
				"element": "C" 
			},
			{
				"x": 4.3995377515,
				"y": 3.7985784564,
				"z": -0.5994369765,
				"element": "N" 
			},
			{
				"x": 2.7567956211,
				"y": 4.9971635662,
				"z": -1.6855324302,
				"element": "N" 
			},
			{
				"x": -1.8468698395,
				"y": -0.954832627,
				"z": -1.5303892434,
				"element": "H" 
			},
			{
				"x": -0.2260872115,
				"y": -1.4026649488,
				"z": -2.1023931077,
				"element": "H" 
			},
			{
				"x": -1.05313914,
				"y": -2.4225302767,
				"z": -0.91454213,
				"element": "H" 
			},
			{
				"x": -1.9444818213,
				"y": -0.1796638396,
				"z": 1.0559535179,
				"element": "H" 
			},
			{
				"x": -0.4008315535,
				"y": -0.3152449053,
				"z": 1.9369503938,
				"element": "H" 
			},
			{
				"x": -1.2169937076,
				"y": -1.7739824503,
				"z": 1.3624636665,
				"element": "H" 
			},
			{
				"x": 3.1725890714,
				"y": 2.1393817931,
				"z": 1.0204575233,
				"element": "H" 
			},
			{
				"x": 1.0550815408,
				"y": 2.970159055,
				"z": -2.6558340409,
				"element": "H" 
			},
			{
				"x": 4.9932385562,
				"y": 4.5684540893,
				"z": -0.8815924931,
				"element": "H" 
			},
			{
				"x": 4.8367103741,
				"y": 2.8905167702,
				"z": -0.6773484529,
				"element": "H" 
			},
			{
				"x": 1.7555943233,
				"y": 4.9883066508,
				"z": -1.8804257273,
				"element": "H" 
			}
		],
		 "valence_orbital": [ 
			{
				"type": "occ",
				"energy": -0.28559,
				"method": "rhf"
			},
			{
				"type": "occ",
				"energy": -0.25845,
				"method": "rhf"
			},
			{
				"type": "occ",
				"energy": -0.25165,
				"method": "rhf"
			},
			{
				"type": "occ",
				"energy": -0.24014,
				"method": "rhf"
			},
			{
				"type": "occ",
				"energy": -0.20709,
				"method": "rhf"
			},
			{
				"type": "unocc",
				"energy": -0.03284,
				"method": "rhf"
			},
			{
				"type": "unocc",
				"energy": -0.0068,
				"method": "rhf"
			},
			{
				"type": "unocc",
				"energy": 0.056,
				"method": "rhf"
			},
			{
				"type": "unocc",
				"energy": 0.06989,
				"method": "rhf"
			},
			{
				"type": "unocc",
				"energy": 0.09339,
				"method": "rhf"
			}
		],
		"cosmo_sigma_profile": { 
			"-0.025": 0.0,
			"-0.024": 0.0,
			"-0.023": 0.0,
			"-0.022": 0.0,
			"-0.021": 0.0,
			"-0.02": 0.0,
			"-0.019": 0.0,
			"-0.018": 0.0,
			"-0.017": 0.0,
			"-0.016": 0.0,
			"-0.015": 0.0,
			"-0.014": 0.0,
			"-0.013": 0.650118209385,
			"-0.012": 2.21919454526,
			"-0.011": 2.53307818559,
			"-0.01": 1.88594456998,
			"-0.009": 3.32236657719,
			"-0.008": 5.63540846633,
			"-0.007": 5.39440553666,
			"-0.006": 5.43144434127,
			"-0.005": 7.296085815,
			"-0.004": 14.7738208184,
			"-0.003": 18.8539317346,
			"-0.002": 21.0414972057,
			"-0.001": 25.5040816116,
			"0.0": 18.4320703062,
			"0.001": 21.4945196411,
			"0.002": 16.5326251711,
			"0.003": 12.7790810403,
			"0.004": 16.5680020661,
			"0.005": 5.35877174884,
			"0.006": 3.04905593055,
			"0.007": 4.28843927296,
			"0.008": 2.95641816024,
			"0.009": 2.16581892396,
			"0.01": 1.98405354085,
			"0.011": 1.73148761654,
			"0.012": 1.43105405113,
			"0.013": 0.959476783534,
			"0.014": 1.60625913576,
			"0.015": 0.852212264357,
			"0.016": 1.43784899383,
			"0.017": 0.983533385739,
			"0.018": 0.818056729104,
			"0.019": 0.433918748865,
			"0.02": 0.0,
			"0.021": 0.0,
			"0.022": 0.0,
			"0.023": 0.0,
			"0.024": 0.0,
			"0.025": 0.0
		}
	}
}
