{
	 "smiles": "CCCNC(C)C(=O)NC1=CC=CC=C1C", 
	 "Tm": 310.65, 
	 "num_atms": 36, 
	 "gaussian": { 
		 "optdone": 1, 
		 "sigma_profile": "yes", 
		 "theory": "DFT", 
		 "functional": "B3LYP", 
		 "basiset": "6-31G**", 
		 "properties": { 
			 "R2extent": 4313.4095, 
			 "electric_dipole_moment_norm": 3.63066286785, 
			 "electric_quadrupole_moment_norm": 12.1207332563, 
			 "total_energy": -692.189084434, 
			 "HOMO_LUMO_gap": 0.21606, 
			 "cosmo_polarized_energy": -12.07, 
			 "cosmo_cavitation_energy": 36.54, 
			 "cosmo_dispersion_energy": -25.14, 
			 "cosmo_repulsion_energy": 1.96, 
			 "cosmo_total_nonelectrostatic_energy": 13.36, 
			 "SMD_solvation_energy": 5.62 
		},
		"coords": [
			{
				"x": 3.3301590893,
				"y": 0.6476876685,
				"z": -0.534173668,
				"element": "C" 
			},
			{
				"x": 3.0740537953,
				"y": -0.5724009046,
				"z": -1.4277513888,
				"element": "C" 
			},
			{
				"x": 3.111587421,
				"y": -1.9493574296,
				"z": -0.741644413,
				"element": "C" 
			},
			{
				"x": 1.8748651352,
				"y": -2.3558858209,
				"z": -0.0439756256,
				"element": "N" 
			},
			{
				"x": 1.6080331534,
				"y": -1.8750164536,
				"z": 1.329212337,
				"element": "C" 
			},
			{
				"x": 2.8135429934,
				"y": -1.6974178502,
				"z": 2.2583311561,
				"element": "C" 
			},
			{
				"x": 0.7135013109,
				"y": -0.6100011184,
				"z": 1.3297366996,
				"element": "C" 
			},
			{
				"x": 0.7498908733,
				"y": 0.2098430307,
				"z": 2.2393636574,
				"element": "O" 
			},
			{
				"x": -0.1459979145,
				"y": -0.5673900194,
				"z": 0.2642259049,
				"element": "N" 
			},
			{
				"x": -1.0607183958,
				"y": 0.4769555214,
				"z": -0.0417078246,
				"element": "C" 
			},
			{
				"x": -0.9670834396,
				"y": 1.0809114452,
				"z": -1.3026368827,
				"element": "C" 
			},
			{
				"x": -1.8566738703,
				"y": 2.0817556536,
				"z": -1.6840130229,
				"element": "C" 
			},
			{
				"x": -2.8469314474,
				"y": 2.4946662907,
				"z": -0.7926037776,
				"element": "C" 
			},
			{
				"x": -2.9460838753,
				"y": 1.8840453453,
				"z": 0.4565865803,
				"element": "C" 
			},
			{
				"x": -2.0769016802,
				"y": 0.860178113,
				"z": 0.8579355626,
				"element": "C" 
			},
			{
				"x": -2.2651361265,
				"y": 0.183677324,
				"z": 2.1909535898,
				"element": "C" 
			},
			{
				"x": 4.3026973445,
				"y": 0.567058479,
				"z": -0.0347611985,
				"element": "H" 
			},
			{
				"x": 2.5694581963,
				"y": 0.7832132489,
				"z": 0.2383035927,
				"element": "H" 
			},
			{
				"x": 3.3479533607,
				"y": 1.5631558633,
				"z": -1.1347000921,
				"element": "H" 
			},
			{
				"x": 3.8442628945,
				"y": -0.5875970816,
				"z": -2.2102179348,
				"element": "H" 
			},
			{
				"x": 2.1146282073,
				"y": -0.4702285855,
				"z": -1.9497040019,
				"element": "H" 
			},
			{
				"x": 3.2561280013,
				"y": -2.7029116819,
				"z": -1.5239913842,
				"element": "H" 
			},
			{
				"x": 4.0004177181,
				"y": -2.0057709206,
				"z": -0.0930138716,
				"element": "H" 
			},
			{
				"x": 1.8501672764,
				"y": -3.3692979701,
				"z": -0.0313771124,
				"element": "H" 
			},
			{
				"x": 0.9633314379,
				"y": -2.6451815637,
				"z": 1.7766263791,
				"element": "H" 
			},
			{
				"x": 3.3767403804,
				"y": -2.6329055788,
				"z": 2.3381955095,
				"element": "H" 
			},
			{
				"x": 2.4642331061,
				"y": -1.4075217436,
				"z": 3.2506277146,
				"element": "H" 
			},
			{
				"x": 3.4889140504,
				"y": -0.9118776218,
				"z": 1.9121893353,
				"element": "H" 
			},
			{
				"x": 0.119961431,
				"y": -1.2154481757,
				"z": -0.4729965605,
				"element": "H" 
			},
			{
				"x": -0.1783880066,
				"y": 0.7635100007,
				"z": -1.9797549386,
				"element": "H" 
			},
			{
				"x": -1.7686788752,
				"y": 2.5404092537,
				"z": -2.6645495086,
				"element": "H" 
			},
			{
				"x": -3.5446622305,
				"y": 3.2792158223,
				"z": -1.0706919985,
				"element": "H" 
			},
			{
				"x": -3.731811211,
				"y": 2.1921435608,
				"z": 1.1418356908,
				"element": "H" 
			},
			{
				"x": -1.4738633378,
				"y": 0.4701405414,
				"z": 2.8895694247,
				"element": "H" 
			},
			{
				"x": -2.2164576453,
				"y": -0.9062591655,
				"z": 2.0865953586,
				"element": "H" 
			},
			{
				"x": -3.2361391208,
				"y": 0.4424025229,
				"z": 2.6218767122,
				"element": "H" 
			}
		],
		 "valence_orbital": [ 
			{
				"type": "occ",
				"energy": -0.27891,
				"method": "rhf"
			},
			{
				"type": "occ",
				"energy": -0.25868,
				"method": "rhf"
			},
			{
				"type": "occ",
				"energy": -0.23662,
				"method": "rhf"
			},
			{
				"type": "occ",
				"energy": -0.22894,
				"method": "rhf"
			},
			{
				"type": "occ",
				"energy": -0.21832,
				"method": "rhf"
			},
			{
				"type": "unocc",
				"energy": -0.00226,
				"method": "rhf"
			},
			{
				"type": "unocc",
				"energy": 0.00826,
				"method": "rhf"
			},
			{
				"type": "unocc",
				"energy": 0.03217,
				"method": "rhf"
			},
			{
				"type": "unocc",
				"energy": 0.0683,
				"method": "rhf"
			},
			{
				"type": "unocc",
				"energy": 0.0845,
				"method": "rhf"
			}
		],
		"cosmo_sigma_profile": { 
			"-0.025": 0.0,
			"-0.024": 0.0,
			"-0.023": 0.0,
			"-0.022": 0.0,
			"-0.021": 0.0,
			"-0.02": 0.0,
			"-0.019": 0.0,
			"-0.018": 0.0,
			"-0.017": 0.0,
			"-0.016": 0.0,
			"-0.015": 0.0,
			"-0.014": 0.0,
			"-0.013": 0.0,
			"-0.012": 0.0,
			"-0.011": 0.883398677234,
			"-0.01": 1.67061817344,
			"-0.009": 1.91123325566,
			"-0.008": 2.50887525021,
			"-0.007": 2.8724607347,
			"-0.006": 6.96207639669,
			"-0.005": 13.6936000084,
			"-0.004": 19.5735378448,
			"-0.003": 26.9345409079,
			"-0.002": 34.0392640621,
			"-0.001": 31.101782983,
			"0.0": 33.4598111869,
			"0.001": 31.9855372088,
			"0.002": 17.2559071141,
			"0.003": 11.3305138955,
			"0.004": 10.3419655445,
			"0.005": 10.0755646722,
			"0.006": 11.0166573606,
			"0.007": 2.75378542833,
			"0.008": 2.22293073208,
			"0.009": 1.8127501693,
			"0.01": 1.57622252698,
			"0.011": 1.84317172985,
			"0.012": 1.95494096373,
			"0.013": 2.68260291681,
			"0.014": 2.93131195458,
			"0.015": 0.127433424793,
			"0.016": 0.0,
			"0.017": 0.0,
			"0.018": 0.0,
			"0.019": 0.0,
			"0.02": 0.0,
			"0.021": 0.0,
			"0.022": 0.0,
			"0.023": 0.0,
			"0.024": 0.0,
			"0.025": 0.0
		}
	}
}
