{
	 "smiles": "CC1CCCCN1S(=O)(=O)C1=CC=C(C=C1)C(O)=O", 
	 "Tm": 476.15, 
	 "num_atms": 36, 
	 "gaussian": { 
		 "optdone": 1, 
		 "sigma_profile": "yes", 
		 "theory": "DFT", 
		 "functional": "B3LYP", 
		 "basiset": "6-31G**", 
		 "properties": { 
			 "R2extent": 7235.8239, 
			 "electric_dipole_moment_norm": 4.87875425186, 
			 "electric_quadrupole_moment_norm": 16.6508205858, 
			 "total_energy": -1259.42367715, 
			 "HOMO_LUMO_gap": 0.17335, 
			 "cosmo_polarized_energy": -17.22, 
			 "cosmo_cavitation_energy": 39.1, 
			 "cosmo_dispersion_energy": -27.37, 
			 "cosmo_repulsion_energy": 2.06, 
			 "cosmo_total_nonelectrostatic_energy": 13.79, 
			 "SMD_solvation_energy": 6.12 
		},
		"coords": [
			{
				"x": -2.3805685556,
				"y": 2.0068924315,
				"z": -0.2257354469,
				"element": "C" 
			},
			{
				"x": -1.1358914665,
				"y": 1.3279010329,
				"z": 0.3644598563,
				"element": "C" 
			},
			{
				"x": -1.4435880356,
				"y": 0.3897718003,
				"z": 1.5513129486,
				"element": "C" 
			},
			{
				"x": -2.0979864645,
				"y": -0.9309402627,
				"z": 1.116017522,
				"element": "C" 
			},
			{
				"x": -1.2396556656,
				"y": -1.6367317632,
				"z": 0.0564070756,
				"element": "C" 
			},
			{
				"x": -0.9647657738,
				"y": -0.7032052832,
				"z": -1.1288200331,
				"element": "C" 
			},
			{
				"x": -0.4048315486,
				"y": 0.5874924624,
				"z": -0.6937648119,
				"element": "N" 
			},
			{
				"x": 1.1613253527,
				"y": 1.0014889942,
				"z": -1.0796997794,
				"element": "S" 
			},
			{
				"x": 1.4687847689,
				"y": 0.3543722806,
				"z": -2.3577966658,
				"element": "O" 
			},
			{
				"x": 1.2753123295,
				"y": 2.4497429613,
				"z": -0.8872727512,
				"element": "O" 
			},
			{
				"x": 2.2417995219,
				"y": 0.2388055108,
				"z": 0.1510743869,
				"element": "C" 
			},
			{
				"x": 2.7175454827,
				"y": -1.0588515153,
				"z": -0.0633000836,
				"element": "C" 
			},
			{
				"x": 3.5141425878,
				"y": -1.658559311,
				"z": 0.9069994081,
				"element": "C" 
			},
			{
				"x": 3.8383507774,
				"y": -0.9648863664,
				"z": 2.0811288271,
				"element": "C" 
			},
			{
				"x": 3.3718719137,
				"y": 0.3423529213,
				"z": 2.2759099344,
				"element": "C" 
			},
			{
				"x": 2.5730706268,
				"y": 0.9485995145,
				"z": 1.3083874968,
				"element": "C" 
			},
			{
				"x": 4.6927463599,
				"y": -1.6593264246,
				"z": 3.0842611435,
				"element": "C" 
			},
			{
				"x": 4.9549920912,
				"y": -0.8978420951,
				"z": 4.1741057587,
				"element": "O" 
			},
			{
				"x": 5.1202776942,
				"y": -2.7896110219,
				"z": 2.9630793175,
				"element": "O" 
			},
			{
				"x": -3.1034509551,
				"y": 1.2860711649,
				"z": -0.6193408282,
				"element": "H" 
			},
			{
				"x": -2.0884784636,
				"y": 2.6766395143,
				"z": -1.0382305753,
				"element": "H" 
			},
			{
				"x": -2.8865608725,
				"y": 2.5965652161,
				"z": 0.5459238468,
				"element": "H" 
			},
			{
				"x": -0.4681826262,
				"y": 2.1218635497,
				"z": 0.7051646122,
				"element": "H" 
			},
			{
				"x": -2.0826110606,
				"y": 0.9182190694,
				"z": 2.2684305783,
				"element": "H" 
			},
			{
				"x": -0.5020121974,
				"y": 0.1658652681,
				"z": 2.0685291152,
				"element": "H" 
			},
			{
				"x": -3.0989697721,
				"y": -0.7395034535,
				"z": 0.7069953372,
				"element": "H" 
			},
			{
				"x": -2.2398961282,
				"y": -1.5799327321,
				"z": 1.9872726466,
				"element": "H" 
			},
			{
				"x": -0.2862449112,
				"y": -1.9492446828,
				"z": 0.501109144,
				"element": "H" 
			},
			{
				"x": -1.7384217147,
				"y": -2.5428573933,
				"z": -0.307442639,
				"element": "H" 
			},
			{
				"x": -0.2789417645,
				"y": -1.1445110114,
				"z": -1.8527412789,
				"element": "H" 
			},
			{
				"x": -1.899800823,
				"y": -0.5001065622,
				"z": -1.667808115,
				"element": "H" 
			},
			{
				"x": 2.4840410831,
				"y": -1.5724347647,
				"z": -0.9892354733,
				"element": "H" 
			},
			{
				"x": 3.9032323922,
				"y": -2.6618496599,
				"z": 0.7712612026,
				"element": "H" 
			},
			{
				"x": 3.6423290536,
				"y": 0.8807136828,
				"z": 3.1768948177,
				"element": "H" 
			},
			{
				"x": 2.2292964486,
				"y": 1.9696677905,
				"z": 1.4298033031,
				"element": "H" 
			},
			{
				"x": 5.5140403153,
				"y": -1.4429308622,
				"z": 4.7519602026,
				"element": "H" 
			}
		],
		 "valence_orbital": [ 
			{
				"type": "occ",
				"energy": -0.29998,
				"method": "rhf"
			},
			{
				"type": "occ",
				"energy": -0.28888,
				"method": "rhf"
			},
			{
				"type": "occ",
				"energy": -0.28527,
				"method": "rhf"
			},
			{
				"type": "occ",
				"energy": -0.27846,
				"method": "rhf"
			},
			{
				"type": "occ",
				"energy": -0.24467,
				"method": "rhf"
			},
			{
				"type": "unocc",
				"energy": -0.07132,
				"method": "rhf"
			},
			{
				"type": "unocc",
				"energy": -0.02898,
				"method": "rhf"
			},
			{
				"type": "unocc",
				"energy": 0.02745,
				"method": "rhf"
			},
			{
				"type": "unocc",
				"energy": 0.05132,
				"method": "rhf"
			},
			{
				"type": "unocc",
				"energy": 0.06956,
				"method": "rhf"
			}
		],
		"cosmo_sigma_profile": { 
			"-0.025": 0.0,
			"-0.024": 0.0,
			"-0.023": 0.0,
			"-0.022": 0.0,
			"-0.021": 0.0,
			"-0.02": 0.0,
			"-0.019": 0.155258884712,
			"-0.018": 0.947594477232,
			"-0.017": 1.09436609063,
			"-0.016": 0.759488277127,
			"-0.015": 0.679966591049,
			"-0.014": 0.498990675408,
			"-0.013": 0.399440127587,
			"-0.012": 1.19097010598,
			"-0.011": 1.06509039235,
			"-0.01": 0.259015646921,
			"-0.009": 0.217720856499,
			"-0.008": 1.6424118387,
			"-0.007": 6.34430057766,
			"-0.006": 8.73855842762,
			"-0.005": 12.5972208369,
			"-0.004": 21.8122714936,
			"-0.003": 33.719513485,
			"-0.002": 38.297976222,
			"-0.001": 35.9273429391,
			"0.0": 35.2495113889,
			"0.001": 26.9015362979,
			"0.002": 11.42923443,
			"0.003": 6.42142773476,
			"0.004": 7.59653072715,
			"0.005": 6.23001931293,
			"0.006": 5.19819930677,
			"0.007": 5.31314016829,
			"0.008": 6.11086180405,
			"0.009": 4.7879793115,
			"0.01": 8.05923534937,
			"0.011": 12.8075719037,
			"0.012": 5.64104120544,
			"0.013": 0.0,
			"0.014": 0.0,
			"0.015": 0.0,
			"0.016": 0.0,
			"0.017": 0.0,
			"0.018": 0.0,
			"0.019": 0.0,
			"0.02": 0.0,
			"0.021": 0.0,
			"0.022": 0.0,
			"0.023": 0.0,
			"0.024": 0.0,
			"0.025": 0.0
		}
	}
}
