{
	 "smiles": "CC(=O)OC1CCC2(C)C(C1)CC(=O)C1C3CCC(=O)C3(C)CCC21", 
	 "Tm": 437.15, 
	 "num_atms": 55, 
	 "gaussian": { 
		 "optdone": 1, 
		 "sigma_profile": "yes", 
		 "theory": "DFT", 
		 "functional": "B3LYP", 
		 "basiset": "6-31G**", 
		 "properties": { 
			 "R2extent": 9535.9748, 
			 "electric_dipole_moment_norm": 1.23375384093, 
			 "electric_quadrupole_moment_norm": 15.1882472297, 
			 "total_energy": -1119.24790157, 
			 "HOMO_LUMO_gap": 0.21532, 
			 "cosmo_polarized_energy": -17.73, 
			 "cosmo_cavitation_energy": 49.51, 
			 "cosmo_dispersion_energy": -33.6, 
			 "cosmo_repulsion_energy": 2.51, 
			 "cosmo_total_nonelectrostatic_energy": 18.42, 
			 "SMD_solvation_energy": 9.1 
		},
		"coords": [
			{
				"x": 3.3717037674,
				"y": 1.3192191385,
				"z": -5.0675424658,
				"element": "C" 
			},
			{
				"x": 1.9329779729,
				"y": 1.3580769611,
				"z": -4.6081405531,
				"element": "C" 
			},
			{
				"x": 1.0814545289,
				"y": 2.108817042,
				"z": -5.0340389413,
				"element": "O" 
			},
			{
				"x": 1.7132641339,
				"y": 0.4300357606,
				"z": -3.6462780538,
				"element": "O" 
			},
			{
				"x": 0.3661782777,
				"y": 0.3357804824,
				"z": -3.1141935188,
				"element": "C" 
			},
			{
				"x": 0.1881168222,
				"y": -1.0874025918,
				"z": -2.5980332439,
				"element": "C" 
			},
			{
				"x": -1.1717910565,
				"y": -1.252647556,
				"z": -1.8998110982,
				"element": "C" 
			},
			{
				"x": -1.4627467864,
				"y": -0.2212406347,
				"z": -0.7740772081,
				"element": "C" 
			},
			{
				"x": -2.9465724707,
				"y": -0.3751498724,
				"z": -0.370924883,
				"element": "C" 
			},
			{
				"x": -1.2403748535,
				"y": 1.2051426342,
				"z": -1.3658707798,
				"element": "C" 
			},
			{
				"x": 0.1525468438,
				"y": 1.3701223959,
				"z": -2.0087037665,
				"element": "C" 
			},
			{
				"x": -1.5554344094,
				"y": 2.3065760039,
				"z": -0.3248237245,
				"element": "C" 
			},
			{
				"x": -1.3734356008,
				"y": 1.8728817657,
				"z": 1.1218518211,
				"element": "C" 
			},
			{
				"x": -2.0298802662,
				"y": 2.3752009345,
				"z": 2.0173286759,
				"element": "O" 
			},
			{
				"x": -0.3079606559,
				"y": 0.8055723367,
				"z": 1.3701966635,
				"element": "C" 
			},
			{
				"x": -0.1783067504,
				"y": 0.5186481246,
				"z": 2.8876490567,
				"element": "C" 
			},
			{
				"x": 0.6786094249,
				"y": 1.6191859498,
				"z": 3.5761066092,
				"element": "C" 
			},
			{
				"x": 2.135066002,
				"y": 1.1350148064,
				"z": 3.4449911195,
				"element": "C" 
			},
			{
				"x": 2.043967123,
				"y": -0.3770466192,
				"z": 3.2108157893,
				"element": "C" 
			},
			{
				"x": 2.9858374651,
				"y": -1.1171276342,
				"z": 3.0203276911,
				"element": "O" 
			},
			{
				"x": 0.5635005192,
				"y": -0.802793102,
				"z": 3.2349230696,
				"element": "C" 
			},
			{
				"x": 0.2575327195,
				"y": -1.2119056495,
				"z": 4.6999976032,
				"element": "C" 
			},
			{
				"x": 0.2621076486,
				"y": -1.9935579832,
				"z": 2.2907541393,
				"element": "C" 
			},
			{
				"x": -0.8683840177,
				"y": -1.6835031823,
				"z": 1.3048232689,
				"element": "C" 
			},
			{
				"x": -0.508796467,
				"y": -0.4592436252,
				"z": 0.4474223861,
				"element": "C" 
			},
			{
				"x": 4.0397807965,
				"y": 1.5151260594,
				"z": -4.2235687295,
				"element": "H" 
			},
			{
				"x": 3.5249049595,
				"y": 2.0673581399,
				"z": -5.8445736824,
				"element": "H" 
			},
			{
				"x": 3.6169600364,
				"y": 0.3246186588,
				"z": -5.451342438,
				"element": "H" 
			},
			{
				"x": -0.3320810332,
				"y": 0.5400183827,
				"z": -3.9331666891,
				"element": "H" 
			},
			{
				"x": 0.2685161449,
				"y": -1.7953779395,
				"z": -3.4303667592,
				"element": "H" 
			},
			{
				"x": 1.013564457,
				"y": -1.3188890926,
				"z": -1.9146898923,
				"element": "H" 
			},
			{
				"x": -1.2574702059,
				"y": -2.2720068465,
				"z": -1.5069024088,
				"element": "H" 
			},
			{
				"x": -1.9661537018,
				"y": -1.1556416303,
				"z": -2.6526129185,
				"element": "H" 
			},
			{
				"x": -3.1826079493,
				"y": -1.4141877784,
				"z": -0.1231858158,
				"element": "H" 
			},
			{
				"x": -3.2219841392,
				"y": 0.2357809118,
				"z": 0.4939654411,
				"element": "H" 
			},
			{
				"x": -3.5972234861,
				"y": -0.0811472869,
				"z": -1.2021515196,
				"element": "H" 
			},
			{
				"x": -1.9672200252,
				"y": 1.3191981148,
				"z": -2.1824003369,
				"element": "H" 
			},
			{
				"x": 0.2390213094,
				"y": 2.3736642402,
				"z": -2.4378972865,
				"element": "H" 
			},
			{
				"x": 0.953768512,
				"y": 1.2652711519,
				"z": -1.2663424808,
				"element": "H" 
			},
			{
				"x": -0.9018721969,
				"y": 3.1758728597,
				"z": -0.4840993639,
				"element": "H" 
			},
			{
				"x": -2.5791544106,
				"y": 2.6790845511,
				"z": -0.4163807883,
				"element": "H" 
			},
			{
				"x": 0.6215952615,
				"y": 1.2854428121,
				"z": 1.0262831176,
				"element": "H" 
			},
			{
				"x": -1.1875019416,
				"y": 0.5179695085,
				"z": 3.3082379053,
				"element": "H" 
			},
			{
				"x": 0.3966188872,
				"y": 1.7097024174,
				"z": 4.6290661364,
				"element": "H" 
			},
			{
				"x": 0.5104991191,
				"y": 2.6008234646,
				"z": 3.1272888659,
				"element": "H" 
			},
			{
				"x": 2.7646737873,
				"y": 1.3505220413,
				"z": 4.3141059044,
				"element": "H" 
			},
			{
				"x": 2.6506610388,
				"y": 1.5712130959,
				"z": 2.5805990269,
				"element": "H" 
			},
			{
				"x": -0.8004967095,
				"y": -1.4794913972,
				"z": 4.7949272853,
				"element": "H" 
			},
			{
				"x": 0.4649440661,
				"y": -0.4131549713,
				"z": 5.4184610272,
				"element": "H" 
			},
			{
				"x": 0.8600315396,
				"y": -2.081616151,
				"z": 4.9793789042,
				"element": "H" 
			},
			{
				"x": 1.1743059734,
				"y": -2.2572528486,
				"z": 1.7419664028,
				"element": "H" 
			},
			{
				"x": 0.0016643777,
				"y": -2.8785748531,
				"z": 2.881047389,
				"element": "H" 
			},
			{
				"x": -1.8051107809,
				"y": -1.513377294,
				"z": 1.8494569603,
				"element": "H" 
			},
			{
				"x": -1.0365616487,
				"y": -2.5565049419,
				"z": 0.6640760984,
				"element": "H" 
			},
			{
				"x": 0.4806480476,
				"y": -0.6790992647,
				"z": 0.0315709881,
				"element": "H" 
			}
		],
		 "valence_orbital": [ 
			{
				"type": "occ",
				"energy": -0.2961,
				"method": "rhf"
			},
			{
				"type": "occ",
				"energy": -0.28759,
				"method": "rhf"
			},
			{
				"type": "occ",
				"energy": -0.27034,
				"method": "rhf"
			},
			{
				"type": "occ",
				"energy": -0.24161,
				"method": "rhf"
			},
			{
				"type": "occ",
				"energy": -0.23532,
				"method": "rhf"
			},
			{
				"type": "unocc",
				"energy": -0.02,
				"method": "rhf"
			},
			{
				"type": "unocc",
				"energy": -0.01474,
				"method": "rhf"
			},
			{
				"type": "unocc",
				"energy": 0.01128,
				"method": "rhf"
			},
			{
				"type": "unocc",
				"energy": 0.0597,
				"method": "rhf"
			},
			{
				"type": "unocc",
				"energy": 0.07228,
				"method": "rhf"
			}
		],
		"cosmo_sigma_profile": { 
			"-0.025": 0.0,
			"-0.024": 0.0,
			"-0.023": 0.0,
			"-0.022": 0.0,
			"-0.021": 0.0,
			"-0.02": 0.0,
			"-0.019": 0.0,
			"-0.018": 0.0,
			"-0.017": 0.0,
			"-0.016": 0.0,
			"-0.015": 0.0,
			"-0.014": 0.0,
			"-0.013": 0.0,
			"-0.012": 0.0,
			"-0.011": 0.0,
			"-0.01": 0.0,
			"-0.009": 0.0,
			"-0.008": 0.0,
			"-0.007": 1.22974049991,
			"-0.006": 14.1234910005,
			"-0.005": 21.6594666874,
			"-0.004": 35.6250931492,
			"-0.003": 55.6679814993,
			"-0.002": 59.1140952606,
			"-0.001": 51.1797587724,
			"0.0": 37.6316926207,
			"0.001": 20.8580282737,
			"0.002": 8.01053253827,
			"0.003": 7.46525216746,
			"0.004": 6.02526445187,
			"0.005": 6.7128400738,
			"0.006": 5.70612786824,
			"0.007": 5.75431201353,
			"0.008": 5.49425479828,
			"0.009": 6.13722381068,
			"0.01": 4.92681142956,
			"0.011": 7.68012830752,
			"0.012": 12.8816737291,
			"0.013": 7.33574712244,
			"0.014": 0.642183093457,
			"0.015": 0.0,
			"0.016": 0.0,
			"0.017": 0.0,
			"0.018": 0.0,
			"0.019": 0.0,
			"0.02": 0.0,
			"0.021": 0.0,
			"0.022": 0.0,
			"0.023": 0.0,
			"0.024": 0.0,
			"0.025": 0.0
		}
	}
}
