{
	 "smiles": "C[C@@H](CCC(O)=O)C1CCC2C3C(C[C@H](C(O)=O)[C@]12C)[C@@]1(C)CC[C@H](C[C@H]1CC3=O)C(O)=O", 
	 "Tm": 481.15, 
	 "num_atms": 71, 
	 "gaussian": { 
		 "optdone": 1, 
		 "sigma_profile": "yes", 
		 "theory": "DFT", 
		 "functional": "B3LYP", 
		 "basiset": "6-31G**", 
		 "properties": { 
			 "R2extent": 16263.7381, 
			 "electric_dipole_moment_norm": 2.156266164, 
			 "electric_quadrupole_moment_norm": 31.5254499004, 
			 "total_energy": -1540.28495406, 
			 "HOMO_LUMO_gap": 0.21814, 
			 "cosmo_polarized_energy": -28.16, 
			 "cosmo_cavitation_energy": 62.43, 
			 "cosmo_dispersion_energy": -40.27, 
			 "cosmo_repulsion_energy": 2.97, 
			 "cosmo_total_nonelectrostatic_energy": 25.13, 
			 "SMD_solvation_energy": 12.61 
		},
		"coords": [
			{
				"x": -0.7182288757,
				"y": -1.8094409011,
				"z": 3.6701790602,
				"element": "C" 
			},
			{
				"x": -0.5418461097,
				"y": -1.6907403357,
				"z": 2.1436444627,
				"element": "C" 
			},
			{
				"x": -0.2079422555,
				"y": -3.079465372,
				"z": 1.5396787583,
				"element": "C" 
			},
			{
				"x": -1.1400009791,
				"y": -4.2418041229,
				"z": 1.9591713514,
				"element": "C" 
			},
			{
				"x": -0.8782454822,
				"y": -5.491072196,
				"z": 1.1499660331,
				"element": "C" 
			},
			{
				"x": -1.2772707152,
				"y": -5.3425998534,
				"z": -0.1421203174,
				"element": "O" 
			},
			{
				"x": -0.3692785399,
				"y": -6.5129229668,
				"z": 1.5536366001,
				"element": "O" 
			},
			{
				"x": -1.7661402535,
				"y": -0.9253767807,
				"z": 1.5167235934,
				"element": "C" 
			},
			{
				"x": -2.3612650994,
				"y": -1.5318447759,
				"z": 0.2187739197,
				"element": "C" 
			},
			{
				"x": -1.5952508298,
				"y": -0.8610603708,
				"z": -0.9205263414,
				"element": "C" 
			},
			{
				"x": -1.5361411991,
				"y": 0.6146421262,
				"z": -0.4866746967,
				"element": "C" 
			},
			{
				"x": -0.3943932364,
				"y": 1.4511463286,
				"z": -1.1076793596,
				"element": "C" 
			},
			{
				"x": 0.9781909541,
				"y": 0.991760196,
				"z": -0.5977198105,
				"element": "C" 
			},
			{
				"x": 1.0647444076,
				"y": 1.20853144,
				"z": 0.929671974,
				"element": "C" 
			},
			{
				"x": -0.3005425992,
				"y": 1.4056683294,
				"z": 1.6455961915,
				"element": "C" 
			},
			{
				"x": -0.0368971186,
				"y": 1.3620074341,
				"z": 3.1479219552,
				"element": "C" 
			},
			{
				"x": -1.0707055269,
				"y": 1.8308042627,
				"z": 3.8942977874,
				"element": "O" 
			},
			{
				"x": 0.998500634,
				"y": 1.0084437662,
				"z": 3.6721562528,
				"element": "O" 
			},
			{
				"x": -1.558703149,
				"y": 0.6064504707,
				"z": 1.1065431688,
				"element": "C" 
			},
			{
				"x": -2.8370120671,
				"y": 1.3686862164,
				"z": 1.5349644792,
				"element": "C" 
			},
			{
				"x": 2.1443386526,
				"y": 1.6236948962,
				"z": -1.4199524985,
				"element": "C" 
			},
			{
				"x": 2.0449669363,
				"y": 3.1655888521,
				"z": -1.4334197994,
				"element": "C" 
			},
			{
				"x": 3.5112845071,
				"y": 1.2102933505,
				"z": -0.8020889752,
				"element": "C" 
			},
			{
				"x": 4.6604549761,
				"y": 1.299467808,
				"z": -1.8113474486,
				"element": "C" 
			},
			{
				"x": 4.4866363054,
				"y": 0.2411615213,
				"z": -2.9447250856,
				"element": "C" 
			},
			{
				"x": 2.9985770692,
				"y": -0.0889642583,
				"z": -3.1669085077,
				"element": "C" 
			},
			{
				"x": 2.0619047213,
				"y": 1.1043714315,
				"z": -2.9089585724,
				"element": "C" 
			},
			{
				"x": 0.624138938,
				"y": 0.717666187,
				"z": -3.3547585979,
				"element": "C" 
			},
			{
				"x": -0.4882838547,
				"y": 1.451158226,
				"z": -2.6328387482,
				"element": "C" 
			},
			{
				"x": -1.4158993686,
				"y": 1.9853343073,
				"z": -3.2142628085,
				"element": "O" 
			},
			{
				"x": 5.2637542101,
				"y": -1.0112018449,
				"z": -2.5778086329,
				"element": "C" 
			},
			{
				"x": 6.5772050787,
				"y": -0.8948615918,
				"z": -2.894045264,
				"element": "O" 
			},
			{
				"x": 4.8177127931,
				"y": -1.9979525527,
				"z": -2.0305379003,
				"element": "O" 
			},
			{
				"x": -1.5780299306,
				"y": -2.4418021548,
				"z": 3.9175622295,
				"element": "H" 
			},
			{
				"x": -0.8967979081,
				"y": -0.8384073969,
				"z": 4.1344437835,
				"element": "H" 
			},
			{
				"x": 0.1696296827,
				"y": -2.2438601075,
				"z": 4.1419666355,
				"element": "H" 
			},
			{
				"x": 0.3588874098,
				"y": -1.0974186191,
				"z": 1.9731478928,
				"element": "H" 
			},
			{
				"x": -0.1783440917,
				"y": -3.019184355,
				"z": 0.4481802102,
				"element": "H" 
			},
			{
				"x": 0.8091473408,
				"y": -3.3434792673,
				"z": 1.8544033387,
				"element": "H" 
			},
			{
				"x": -2.1906901717,
				"y": -3.9628911777,
				"z": 1.8254329162,
				"element": "H" 
			},
			{
				"x": -0.9890656957,
				"y": -4.5044965846,
				"z": 3.0071031928,
				"element": "H" 
			},
			{
				"x": -1.0534158996,
				"y": -6.1754629602,
				"z": -0.5903111894,
				"element": "H" 
			},
			{
				"x": -2.548478546,
				"y": -0.9402631012,
				"z": 2.2837781057,
				"element": "H" 
			},
			{
				"x": -3.4206519957,
				"y": -1.2556073179,
				"z": 0.1497056086,
				"element": "H" 
			},
			{
				"x": -2.322467629,
				"y": -2.6204362186,
				"z": 0.1705811038,
				"element": "H" 
			},
			{
				"x": -2.0793565311,
				"y": -0.9850102008,
				"z": -1.8949040062,
				"element": "H" 
			},
			{
				"x": -0.5932153029,
				"y": -1.3004299894,
				"z": -0.9987547541,
				"element": "H" 
			},
			{
				"x": -2.4653914651,
				"y": 1.0851605589,
				"z": -0.8248190747,
				"element": "H" 
			},
			{
				"x": -0.5658759894,
				"y": 2.4950519215,
				"z": -0.8147062982,
				"element": "H" 
			},
			{
				"x": 1.0505233294,
				"y": -0.0899143589,
				"z": -0.7709555061,
				"element": "H" 
			},
			{
				"x": 1.652586123,
				"y": 2.1053217733,
				"z": 1.1529004016,
				"element": "H" 
			},
			{
				"x": 1.6164500252,
				"y": 0.3934263636,
				"z": 1.4000312232,
				"element": "H" 
			},
			{
				"x": -0.5920970481,
				"y": 2.4513136836,
				"z": 1.4770106234,
				"element": "H" 
			},
			{
				"x": -0.7674035113,
				"y": 1.7847654972,
				"z": 4.8172682116,
				"element": "H" 
			},
			{
				"x": -3.7243572376,
				"y": 0.8709424599,
				"z": 1.1308869711,
				"element": "H" 
			},
			{
				"x": -2.93929215,
				"y": 1.4241250933,
				"z": 2.6193927148,
				"element": "H" 
			},
			{
				"x": -2.832513759,
				"y": 2.3926992361,
				"z": 1.1427516568,
				"element": "H" 
			},
			{
				"x": 1.9641428433,
				"y": 3.5785889656,
				"z": -0.4223254477,
				"element": "H" 
			},
			{
				"x": 2.9361308087,
				"y": 3.6055040736,
				"z": -1.8929935999,
				"element": "H" 
			},
			{
				"x": 1.1845067216,
				"y": 3.5212769804,
				"z": -2.0089834885,
				"element": "H" 
			},
			{
				"x": 3.457849986,
				"y": 0.1820295473,
				"z": -0.4230889129,
				"element": "H" 
			},
			{
				"x": 3.7286054416,
				"y": 1.8447413607,
				"z": 0.0640285462,
				"element": "H" 
			},
			{
				"x": 4.687757689,
				"y": 2.2967372363,
				"z": -2.2637520055,
				"element": "H" 
			},
			{
				"x": 5.6272418287,
				"y": 1.1691586238,
				"z": -1.3146421848,
				"element": "H" 
			},
			{
				"x": 4.9371503849,
				"y": 0.6397160091,
				"z": -3.8594853653,
				"element": "H" 
			},
			{
				"x": 2.8503636305,
				"y": -0.4575026388,
				"z": -4.1887346728,
				"element": "H" 
			},
			{
				"x": 2.7241805859,
				"y": -0.9171214168,
				"z": -2.503903778,
				"element": "H" 
			},
			{
				"x": 2.384865201,
				"y": 1.9316230493,
				"z": -3.5544903011,
				"element": "H" 
			},
			{
				"x": 0.4910440763,
				"y": 0.8445639434,
				"z": -4.4321919203,
				"element": "H" 
			},
			{
				"x": 0.4679087514,
				"y": -0.349373729,
				"z": -3.134601893,
				"element": "H" 
			},
			{
				"x": 7.0035100788,
				"y": -1.7111540093,
				"z": -2.5820831905,
				"element": "H" 
			}
		],
		 "valence_orbital": [ 
			{
				"type": "occ",
				"energy": -0.28829,
				"method": "rhf"
			},
			{
				"type": "occ",
				"energy": -0.27717,
				"method": "rhf"
			},
			{
				"type": "occ",
				"energy": -0.27595,
				"method": "rhf"
			},
			{
				"type": "occ",
				"energy": -0.26801,
				"method": "rhf"
			},
			{
				"type": "occ",
				"energy": -0.2348,
				"method": "rhf"
			},
			{
				"type": "unocc",
				"energy": -0.01666,
				"method": "rhf"
			},
			{
				"type": "unocc",
				"energy": -0.0006,
				"method": "rhf"
			},
			{
				"type": "unocc",
				"energy": 0.00412,
				"method": "rhf"
			},
			{
				"type": "unocc",
				"energy": 0.01043,
				"method": "rhf"
			},
			{
				"type": "unocc",
				"energy": 0.05666,
				"method": "rhf"
			}
		],
		"cosmo_sigma_profile": { 
			"-0.025": 0.0,
			"-0.024": 0.0,
			"-0.023": 0.0,
			"-0.022": 0.0,
			"-0.021": 0.0,
			"-0.02": 0.0,
			"-0.019": 0.00669822417691,
			"-0.018": 1.14392621148,
			"-0.017": 3.09976860691,
			"-0.016": 2.41541077688,
			"-0.015": 1.83724189421,
			"-0.014": 2.57227666515,
			"-0.013": 1.56939504281,
			"-0.012": 1.65837348558,
			"-0.011": 2.97086014651,
			"-0.01": 2.81779802474,
			"-0.009": 1.31451289606,
			"-0.008": 1.1944826847,
			"-0.007": 2.96402088496,
			"-0.006": 6.99364750438,
			"-0.005": 15.5536266259,
			"-0.004": 38.7292428544,
			"-0.003": 68.354578167,
			"-0.002": 64.7312818243,
			"-0.001": 52.4714419264,
			"0.0": 42.2914328827,
			"0.001": 32.6690682345,
			"0.002": 21.0033326759,
			"0.003": 11.9781738842,
			"0.004": 10.5338132622,
			"0.005": 10.0327667456,
			"0.006": 8.95859720809,
			"0.007": 8.63130761647,
			"0.008": 10.0144117724,
			"0.009": 7.15733774938,
			"0.01": 9.19685820926,
			"0.011": 10.7586679026,
			"0.012": 17.7830224293,
			"0.013": 6.51925563991,
			"0.014": 0.99804229585,
			"0.015": 0.0,
			"0.016": 0.0,
			"0.017": 0.0,
			"0.018": 0.0,
			"0.019": 0.0,
			"0.02": 0.0,
			"0.021": 0.0,
			"0.022": 0.0,
			"0.023": 0.0,
			"0.024": 0.0,
			"0.025": 0.0
		}
	}
}
