{
	 "smiles": "OCC1=CC(=CC(F)=C1)C#N", 
	 "Tm": 333.15, 
	 "num_atms": 17, 
	 "gaussian": { 
		 "optdone": 1, 
		 "sigma_profile": "yes", 
		 "theory": "DFT", 
		 "functional": "B3LYP", 
		 "basiset": "6-31G**", 
		 "properties": { 
			 "R2extent": 2792.9249, 
			 "electric_dipole_moment_norm": 4.36609731225, 
			 "electric_quadrupole_moment_norm": 13.318194241, 
			 "total_energy": -538.248209968, 
			 "HOMO_LUMO_gap": 0.20616, 
			 "cosmo_polarized_energy": -12.45, 
			 "cosmo_cavitation_energy": 23.22, 
			 "cosmo_dispersion_energy": -16.27, 
			 "cosmo_repulsion_energy": 1.3, 
			 "cosmo_total_nonelectrostatic_energy": 8.25, 
			 "SMD_solvation_energy": 6.01 
		},
		"coords": [
			{
				"x": 3.0824660889,
				"y": -3.1025476889,
				"z": -0.0736555867,
				"element": "O" 
			},
			{
				"x": 1.9304403408,
				"y": -3.3267997515,
				"z": 0.7176475577,
				"element": "C" 
			},
			{
				"x": 0.7437971668,
				"y": -2.4575627926,
				"z": 0.3346772922,
				"element": "C" 
			},
			{
				"x": 0.6494000595,
				"y": -1.9219551121,
				"z": -0.9516370187,
				"element": "C" 
			},
			{
				"x": -0.4621467233,
				"y": -1.1421428879,
				"z": -1.3099110127,
				"element": "C" 
			},
			{
				"x": -1.4914323074,
				"y": -0.8940858159,
				"z": -0.3884775019,
				"element": "C" 
			},
			{
				"x": -1.3705505347,
				"y": -1.44085482,
				"z": 0.8814701581,
				"element": "C" 
			},
			{
				"x": -2.3441462002,
				"y": -1.2092042737,
				"z": 1.7814837568,
				"element": "F" 
			},
			{
				"x": -0.2760753258,
				"y": -2.2095759853,
				"z": 1.2604720911,
				"element": "C" 
			},
			{
				"x": -0.5490319718,
				"y": -0.5894824521,
				"z": -2.6317783272,
				"element": "C" 
			},
			{
				"x": -0.6169101212,
				"y": -0.1405384346,
				"z": -3.7024600992,
				"element": "N" 
			},
			{
				"x": 3.3886605915,
				"y": -2.2008316328,
				"z": 0.0926042229,
				"element": "H" 
			},
			{
				"x": 1.6723370666,
				"y": -4.3812443247,
				"z": 0.5634575084,
				"element": "H" 
			},
			{
				"x": 2.1403022376,
				"y": -3.2067203321,
				"z": 1.7917669903,
				"element": "H" 
			},
			{
				"x": 1.4398481035,
				"y": -2.1115052896,
				"z": -1.6683250318,
				"element": "H" 
			},
			{
				"x": -2.3548184035,
				"y": -0.2932568933,
				"z": -0.6475854579,
				"element": "H" 
			},
			{
				"x": -0.2310400673,
				"y": -2.6013915129,
				"z": 2.2722504587,
				"element": "H" 
			}
		],
		 "valence_orbital": [ 
			{
				"type": "occ",
				"energy": -0.34232,
				"method": "rhf"
			},
			{
				"type": "occ",
				"energy": -0.33693,
				"method": "rhf"
			},
			{
				"type": "occ",
				"energy": -0.29941,
				"method": "rhf"
			},
			{
				"type": "occ",
				"energy": -0.27396,
				"method": "rhf"
			},
			{
				"type": "occ",
				"energy": -0.26808,
				"method": "rhf"
			},
			{
				"type": "unocc",
				"energy": -0.06192,
				"method": "rhf"
			},
			{
				"type": "unocc",
				"energy": -0.02723,
				"method": "rhf"
			},
			{
				"type": "unocc",
				"energy": 0.03108,
				"method": "rhf"
			},
			{
				"type": "unocc",
				"energy": 0.06187,
				"method": "rhf"
			},
			{
				"type": "unocc",
				"energy": 0.07019,
				"method": "rhf"
			}
		],
		"cosmo_sigma_profile": { 
			"-0.025": 0.0,
			"-0.024": 0.0,
			"-0.023": 0.0,
			"-0.022": 0.0,
			"-0.021": 0.0,
			"-0.02": 0.0,
			"-0.019": 0.0,
			"-0.018": 0.0,
			"-0.017": 0.081630628127,
			"-0.016": 0.900856549663,
			"-0.015": 0.932357488085,
			"-0.014": 0.652694918287,
			"-0.013": 1.01763362541,
			"-0.012": 1.17168995686,
			"-0.011": 0.78165039879,
			"-0.01": 0.557438607782,
			"-0.009": 2.85831839208,
			"-0.008": 5.05316747537,
			"-0.007": 7.52767450865,
			"-0.006": 10.0507209511,
			"-0.005": 10.9680675968,
			"-0.004": 11.070867391,
			"-0.003": 9.45898924213,
			"-0.002": 11.7226570824,
			"-0.001": 15.6240697456,
			"0.0": 16.3185639374,
			"0.001": 16.368268037,
			"0.002": 8.63569281935,
			"0.003": 8.82207958149,
			"0.004": 10.7725545411,
			"0.005": 3.78203131849,
			"0.006": 3.40115065498,
			"0.007": 3.81878561941,
			"0.008": 4.21933887846,
			"0.009": 5.01820438902,
			"0.01": 3.98854592709,
			"0.011": 3.68498114662,
			"0.012": 3.78158583157,
			"0.013": 3.0350049177,
			"0.014": 0.708812087057,
			"0.015": 0.0,
			"0.016": 0.0,
			"0.017": 0.0,
			"0.018": 0.0,
			"0.019": 0.0,
			"0.02": 0.0,
			"0.021": 0.0,
			"0.022": 0.0,
			"0.023": 0.0,
			"0.024": 0.0,
			"0.025": 0.0
		}
	}
}
