{
	 "smiles": "CCC(C)C(N)C(N)=O", 
	 "Tm": 350.15, 
	 "num_atms": 23, 
	 "gaussian": { 
		 "optdone": 1, 
		 "sigma_profile": "yes", 
		 "theory": "DFT", 
		 "functional": "B3LYP", 
		 "basiset": "6-31G**", 
		 "properties": { 
			 "R2extent": 1585.232, 
			 "electric_dipole_moment_norm": 3.38967323056, 
			 "electric_quadrupole_moment_norm": 7.96135515851, 
			 "total_energy": -421.827859464, 
			 "HOMO_LUMO_gap": 0.26075, 
			 "cosmo_polarized_energy": -12.09, 
			 "cosmo_cavitation_energy": 23.77, 
			 "cosmo_dispersion_energy": -17.38, 
			 "cosmo_repulsion_energy": 1.44, 
			 "cosmo_total_nonelectrostatic_energy": 7.84, 
			 "SMD_solvation_energy": 4.07 
		},
		"coords": [
			{
				"x": 1.842507961,
				"y": -0.7719753216,
				"z": -0.45128025,
				"element": "C" 
			},
			{
				"x": 0.5045987939,
				"y": -1.296596516,
				"z": 0.0883637548,
				"element": "C" 
			},
			{
				"x": -0.6996678825,
				"y": -0.3240543391,
				"z": 0.0974462052,
				"element": "C" 
			},
			{
				"x": -0.4815261673,
				"y": 0.8747073914,
				"z": 1.034834034,
				"element": "C" 
			},
			{
				"x": -1.2265754944,
				"y": 0.0864930238,
				"z": -1.3116419391,
				"element": "C" 
			},
			{
				"x": -1.721609315,
				"y": -1.0404828053,
				"z": -2.1245538093,
				"element": "N" 
			},
			{
				"x": -0.2659429753,
				"y": 0.9704625513,
				"z": -2.1393576999,
				"element": "C" 
			},
			{
				"x": -0.1791776696,
				"y": 0.6243147271,
				"z": -3.4536124515,
				"element": "N" 
			},
			{
				"x": 0.342319391,
				"y": 1.9176271102,
				"z": -1.6543818737,
				"element": "O" 
			},
			{
				"x": 2.1499112633,
				"y": 0.1509728361,
				"z": 0.0468851879,
				"element": "H" 
			},
			{
				"x": 1.8025980615,
				"y": -0.5654689499,
				"z": -1.5241432446,
				"element": "H" 
			},
			{
				"x": 2.627699748,
				"y": -1.5185282825,
				"z": -0.2895438634,
				"element": "H" 
			},
			{
				"x": 0.6480439026,
				"y": -1.6299826231,
				"z": 1.1244742801,
				"element": "H" 
			},
			{
				"x": 0.2305789669,
				"y": -2.2070702278,
				"z": -0.464311514,
				"element": "H" 
			},
			{
				"x": -1.5341556493,
				"y": -0.904699749,
				"z": 0.5220371722,
				"element": "H" 
			},
			{
				"x": -1.3924293454,
				"y": 1.4799008016,
				"z": 1.1072339234,
				"element": "H" 
			},
			{
				"x": -0.2354723274,
				"y": 0.5238702296,
				"z": 2.0436542118,
				"element": "H" 
			},
			{
				"x": 0.3126272595,
				"y": 1.5291681604,
				"z": 0.6769450962,
				"element": "H" 
			},
			{
				"x": -2.0914443418,
				"y": 0.7414214464,
				"z": -1.136858485,
				"element": "H" 
			},
			{
				"x": -1.053653196,
				"y": -1.8079016918,
				"z": -2.098675409,
				"element": "H" 
			},
			{
				"x": -2.5844353355,
				"y": -1.4001346815,
				"z": -1.7252982705,
				"element": "H" 
			},
			{
				"x": 0.3174727733,
				"y": 1.2489303184,
				"z": -4.0703793328,
				"element": "H" 
			},
			{
				"x": -0.8441684214,
				"y": -0.0482734087,
				"z": -3.8109357226,
				"element": "H" 
			}
		],
		 "valence_orbital": [ 
			{
				"type": "occ",
				"energy": -0.31861,
				"method": "rhf"
			},
			{
				"type": "occ",
				"energy": -0.31167,
				"method": "rhf"
			},
			{
				"type": "occ",
				"energy": -0.26414,
				"method": "rhf"
			},
			{
				"type": "occ",
				"energy": -0.25539,
				"method": "rhf"
			},
			{
				"type": "occ",
				"energy": -0.22923,
				"method": "rhf"
			},
			{
				"type": "unocc",
				"energy": 0.03152,
				"method": "rhf"
			},
			{
				"type": "unocc",
				"energy": 0.06796,
				"method": "rhf"
			},
			{
				"type": "unocc",
				"energy": 0.10189,
				"method": "rhf"
			},
			{
				"type": "unocc",
				"energy": 0.10993,
				"method": "rhf"
			},
			{
				"type": "unocc",
				"energy": 0.11469,
				"method": "rhf"
			}
		],
		"cosmo_sigma_profile": { 
			"-0.025": 0.0,
			"-0.024": 0.0,
			"-0.023": 0.0,
			"-0.022": 0.0,
			"-0.021": 0.0,
			"-0.02": 0.0,
			"-0.019": 0.0,
			"-0.018": 0.0,
			"-0.017": 0.0,
			"-0.016": 0.0,
			"-0.015": 0.0,
			"-0.014": 0.0212454445558,
			"-0.013": 0.908731444042,
			"-0.012": 1.09943495084,
			"-0.011": 1.62822512369,
			"-0.01": 2.87198542176,
			"-0.009": 3.69119068625,
			"-0.008": 6.03260250759,
			"-0.007": 5.72353611203,
			"-0.006": 5.30037220516,
			"-0.005": 6.44350644144,
			"-0.004": 7.65457301405,
			"-0.003": 9.22182361105,
			"-0.002": 16.6507320953,
			"-0.001": 19.872220883,
			"0.0": 21.5951267889,
			"0.001": 20.6620072952,
			"0.002": 14.3259877965,
			"0.003": 5.98691776265,
			"0.004": 5.27186027275,
			"0.005": 2.77870532072,
			"0.006": 2.88977298547,
			"0.007": 2.55893029994,
			"0.008": 2.43278895273,
			"0.009": 2.46935259314,
			"0.01": 1.81092640633,
			"0.011": 2.17556996545,
			"0.012": 2.53827274843,
			"0.013": 1.71334797635,
			"0.014": 3.7592282932,
			"0.015": 2.47571458441,
			"0.016": 0.337107391104,
			"0.017": 0.0,
			"0.018": 0.0,
			"0.019": 0.0,
			"0.02": 0.0,
			"0.021": 0.0,
			"0.022": 0.0,
			"0.023": 0.0,
			"0.024": 0.0,
			"0.025": 0.0
		}
	}
}
