{
	 "smiles": "O=C1OC(=O)C2=CC=C3C(=O)OC(=O)C4=CC=C1C2=C34", 
	 "Tm": 723.15, 
	 "num_atms": 24, 
	 "gaussian": { 
		 "optdone": 1, 
		 "sigma_profile": "yes", 
		 "theory": "DFT", 
		 "functional": "B3LYP", 
		 "basiset": "6-31G**", 
		 "properties": { 
			 "R2extent": 5148.2559, 
			 "electric_dipole_moment_norm": 0.0007, 
			 "electric_quadrupole_moment_norm": 36.3744397569, 
			 "total_energy": -987.28901781, 
			 "HOMO_LUMO_gap": 0.13538, 
			 "cosmo_polarized_energy": -19.07, 
			 "cosmo_cavitation_energy": 30.35, 
			 "cosmo_dispersion_energy": -22.76, 
			 "cosmo_repulsion_energy": 1.64, 
			 "cosmo_total_nonelectrostatic_energy": 9.22, 
			 "SMD_solvation_energy": 8.53 
		},
		"coords": [
			{
				"x": -2.0168642927,
				"y": -3.2154392158,
				"z": 0.8257132372,
				"element": "O" 
			},
			{
				"x": -1.0267589397,
				"y": -2.6938862007,
				"z": 0.3842838651,
				"element": "C" 
			},
			{
				"x": -0.1458923838,
				"y": -3.4720475069,
				"z": -0.3540707405,
				"element": "O" 
			},
			{
				"x": 1.0381076709,
				"y": -3.0371167604,
				"z": -0.9333916994,
				"element": "C" 
			},
			{
				"x": 1.6990798438,
				"y": -3.8328968675,
				"z": -1.5474210007,
				"element": "O" 
			},
			{
				"x": 1.3929610032,
				"y": -1.6096581759,
				"z": -0.7449616814,
				"element": "C" 
			},
			{
				"x": 2.5605034504,
				"y": -1.1029019605,
				"z": -1.2946939811,
				"element": "C" 
			},
			{
				"x": 2.8994290878,
				"y": 0.2525696689,
				"z": -1.1166501435,
				"element": "C" 
			},
			{
				"x": 2.0683633633,
				"y": 1.0914311391,
				"z": -0.3901510791,
				"element": "C" 
			},
			{
				"x": 2.4270559859,
				"y": 2.5182212857,
				"z": -0.2039263762,
				"element": "C" 
			},
			{
				"x": 3.4175569965,
				"y": 3.0395884959,
				"z": -0.6446864822,
				"element": "O" 
			},
			{
				"x": 1.5464912106,
				"y": 3.2962405042,
				"z": 0.5349407148,
				"element": "O" 
			},
			{
				"x": 0.3627082315,
				"y": 2.8612073273,
				"z": 1.1146257406,
				"element": "C" 
			},
			{
				"x": -0.2984565992,
				"y": 3.6570760896,
				"z": 1.7283329022,
				"element": "O" 
			},
			{
				"x": 0.0076542918,
				"y": 1.4338431662,
				"z": 0.9258563688,
				"element": "C" 
			},
			{
				"x": -1.1599012412,
				"y": 0.9270929055,
				"z": 1.4755670039,
				"element": "C" 
			},
			{
				"x": -1.4988874258,
				"y": -0.4283498691,
				"z": 1.2974210968,
				"element": "C" 
			},
			{
				"x": -0.6678612735,
				"y": -1.2671926733,
				"z": 0.570854777,
				"element": "C" 
			},
			{
				"x": 0.5293973491,
				"y": -0.7712352208,
				"z": 0.0006177462,
				"element": "C" 
			},
			{
				"x": 0.8711556739,
				"y": 0.5954494338,
				"z": 0.1801725398,
				"element": "C" 
			},
			{
				"x": 3.2035127631,
				"y": -1.7676867098,
				"z": -1.8611205555,
				"element": "H" 
			},
			{
				"x": 3.8103023757,
				"y": 0.6591499885,
				"z": -1.5423689218,
				"element": "H" 
			},
			{
				"x": -1.8028609063,
				"y": 1.5918544212,
				"z": 2.0420769386,
				"element": "H" 
			},
			{
				"x": -2.4097962352,
				"y": -0.834913265,
				"z": 1.7230797303,
				"element": "H" 
			}
		],
		 "valence_orbital": [ 
			{
				"type": "occ",
				"energy": -0.32472,
				"method": "rhf"
			},
			{
				"type": "occ",
				"energy": -0.30935,
				"method": "rhf"
			},
			{
				"type": "occ",
				"energy": -0.30748,
				"method": "rhf"
			},
			{
				"type": "occ",
				"energy": -0.30383,
				"method": "rhf"
			},
			{
				"type": "occ",
				"energy": -0.28232,
				"method": "rhf"
			},
			{
				"type": "unocc",
				"energy": -0.14694,
				"method": "rhf"
			},
			{
				"type": "unocc",
				"energy": -0.09185,
				"method": "rhf"
			},
			{
				"type": "unocc",
				"energy": -0.06911,
				"method": "rhf"
			},
			{
				"type": "unocc",
				"energy": -0.05501,
				"method": "rhf"
			},
			{
				"type": "unocc",
				"energy": -0.01052,
				"method": "rhf"
			}
		],
		"cosmo_sigma_profile": { 
			"-0.025": 0.0,
			"-0.024": 0.0,
			"-0.023": 0.0,
			"-0.022": 0.0,
			"-0.021": 0.0,
			"-0.02": 0.0,
			"-0.019": 0.0,
			"-0.018": 0.0,
			"-0.017": 0.0,
			"-0.016": 0.0,
			"-0.015": 0.0,
			"-0.014": 0.0,
			"-0.013": 0.0,
			"-0.012": 0.688651705305,
			"-0.011": 1.83027528722,
			"-0.01": 2.52859866482,
			"-0.009": 8.66908231653,
			"-0.008": 11.3314587334,
			"-0.007": 11.023944094,
			"-0.006": 12.5593479673,
			"-0.005": 12.2629243479,
			"-0.004": 22.929194427,
			"-0.003": 24.3705333983,
			"-0.002": 22.6190676235,
			"-0.001": 13.1689775646,
			"0.0": 6.03661066665,
			"0.001": 5.71184907118,
			"0.002": 6.08835526968,
			"0.003": 5.48194815587,
			"0.004": 6.52721009415,
			"0.005": 6.11241952834,
			"0.006": 9.33663236482,
			"0.007": 10.8364414611,
			"0.008": 12.8497207135,
			"0.009": 18.6399782654,
			"0.01": 13.4450408913,
			"0.011": 2.88988222926,
			"0.012": 0.0,
			"0.013": 0.0,
			"0.014": 0.0,
			"0.015": 0.0,
			"0.016": 0.0,
			"0.017": 0.0,
			"0.018": 0.0,
			"0.019": 0.0,
			"0.02": 0.0,
			"0.021": 0.0,
			"0.022": 0.0,
			"0.023": 0.0,
			"0.024": 0.0,
			"0.025": 0.0
		}
	}
}
