{
	 "smiles": "CN1C(S)=NN=C1CO", 
	 "Tm": 463.15, 
	 "num_atms": 16, 
	 "gaussian": { 
		 "optdone": 1, 
		 "sigma_profile": "yes", 
		 "theory": "DFT", 
		 "functional": "B3LYP", 
		 "basiset": "6-31G**", 
		 "properties": { 
			 "R2extent": 3242.3458, 
			 "electric_dipole_moment_norm": 3.36881602496, 
			 "electric_quadrupole_moment_norm": 15.1166130588, 
			 "total_energy": -794.270213006, 
			 "HOMO_LUMO_gap": 0.23456, 
			 "cosmo_polarized_energy": -16.62, 
			 "cosmo_cavitation_energy": 21.59, 
			 "cosmo_dispersion_energy": -16.51, 
			 "cosmo_repulsion_energy": 1.32, 
			 "cosmo_total_nonelectrostatic_energy": 6.4, 
			 "SMD_solvation_energy": 1.58 
		},
		"coords": [
			{
				"x": -1.0460075342,
				"y": -0.5327247836,
				"z": -1.6571897499,
				"element": "C" 
			},
			{
				"x": 0.1493205802,
				"y": -0.0126177668,
				"z": -2.3103678138,
				"element": "N" 
			},
			{
				"x": 0.3171117168,
				"y": 0.3306472364,
				"z": -3.6254627541,
				"element": "C" 
			},
			{
				"x": -0.9766922285,
				"y": 0.1776679734,
				"z": -4.8195351484,
				"element": "S" 
			},
			{
				"x": 1.5322404752,
				"y": 0.7786254895,
				"z": -3.8522586248,
				"element": "N" 
			},
			{
				"x": 2.2013601752,
				"y": 0.7365392728,
				"z": -2.6451001046,
				"element": "N" 
			},
			{
				"x": 1.3775079794,
				"y": 0.2572927512,
				"z": -1.7420976841,
				"element": "C" 
			},
			{
				"x": 1.7105304735,
				"y": 0.0453626245,
				"z": -0.2990012408,
				"element": "C" 
			},
			{
				"x": 0.8499974739,
				"y": 0.7617198512,
				"z": 0.5871311803,
				"element": "O" 
			},
			{
				"x": -1.1347018147,
				"y": -1.6143698319,
				"z": -1.7998386491,
				"element": "H" 
			},
			{
				"x": -0.9832037859,
				"y": -0.3001426178,
				"z": -0.5940127851,
				"element": "H" 
			},
			{
				"x": -1.9309832475,
				"y": -0.045442642,
				"z": -2.074238426,
				"element": "H" 
			},
			{
				"x": -0.251748374,
				"y": 0.7826850332,
				"z": -5.7790909495,
				"element": "H" 
			},
			{
				"x": 1.5980890294,
				"y": -1.0078754704,
				"z": -0.0197897518,
				"element": "H" 
			},
			{
				"x": 2.7656762459,
				"y": 0.3154628716,
				"z": -0.1710260707,
				"element": "H" 
			},
			{
				"x": 0.9686028353,
				"y": 1.7044700085,
				"z": 0.4075785723,
				"element": "H" 
			}
		],
		 "valence_orbital": [ 
			{
				"type": "occ",
				"energy": -0.30975,
				"method": "rhf"
			},
			{
				"type": "occ",
				"energy": -0.2946,
				"method": "rhf"
			},
			{
				"type": "occ",
				"energy": -0.28907,
				"method": "rhf"
			},
			{
				"type": "occ",
				"energy": -0.25693,
				"method": "rhf"
			},
			{
				"type": "occ",
				"energy": -0.23287,
				"method": "rhf"
			},
			{
				"type": "unocc",
				"energy": 0.00169,
				"method": "rhf"
			},
			{
				"type": "unocc",
				"energy": 0.00494,
				"method": "rhf"
			},
			{
				"type": "unocc",
				"energy": 0.03768,
				"method": "rhf"
			},
			{
				"type": "unocc",
				"energy": 0.05944,
				"method": "rhf"
			},
			{
				"type": "unocc",
				"energy": 0.08029,
				"method": "rhf"
			}
		],
		"cosmo_sigma_profile": { 
			"-0.025": 0.0,
			"-0.024": 0.0,
			"-0.023": 0.0,
			"-0.022": 0.0,
			"-0.021": 0.0,
			"-0.02": 0.0,
			"-0.019": 0.0,
			"-0.018": 0.0,
			"-0.017": 0.168009988888,
			"-0.016": 1.12339756703,
			"-0.015": 0.852413133269,
			"-0.014": 1.05167536064,
			"-0.013": 0.495028110685,
			"-0.012": 2.55276288905,
			"-0.011": 2.89251888639,
			"-0.01": 1.84868664516,
			"-0.009": 1.36861520387,
			"-0.008": 2.68602337081,
			"-0.007": 8.13530676811,
			"-0.006": 13.2261169746,
			"-0.005": 14.3392862302,
			"-0.004": 17.0142046823,
			"-0.003": 10.9887428567,
			"-0.002": 9.42280230973,
			"-0.001": 7.19369947634,
			"0.0": 8.09562172907,
			"0.001": 7.65640845201,
			"0.002": 7.53596735063,
			"0.003": 6.44344531889,
			"0.004": 5.63925168993,
			"0.005": 5.530660295,
			"0.006": 4.99560683367,
			"0.007": 3.17928615992,
			"0.008": 2.43773956718,
			"0.009": 3.29141588497,
			"0.01": 3.20778466543,
			"0.011": 3.18567231154,
			"0.012": 3.13169259879,
			"0.013": 5.09582082036,
			"0.014": 3.15846084072,
			"0.015": 2.67097098871,
			"0.016": 2.33954259075,
			"0.017": 0.817606781685,
			"0.018": 0.0,
			"0.019": 0.0,
			"0.02": 0.0,
			"0.021": 0.0,
			"0.022": 0.0,
			"0.023": 0.0,
			"0.024": 0.0,
			"0.025": 0.0
		}
	}
}
