{
	 "smiles": "CC(C)(CCCC(C)(C)C(O)=O)C(O)=O", 
	 "Tm": 443.15, 
	 "num_atms": 35, 
	 "gaussian": { 
		 "optdone": 1, 
		 "sigma_profile": "yes", 
		 "theory": "DFT", 
		 "functional": "B3LYP", 
		 "basiset": "6-31G**", 
		 "properties": { 
			 "R2extent": 5596.4571, 
			 "electric_dipole_moment_norm": 3.59642548373, 
			 "electric_quadrupole_moment_norm": 28.6640977917, 
			 "total_energy": -732.16642685, 
			 "HOMO_LUMO_gap": 0.26663, 
			 "cosmo_polarized_energy": -19.38, 
			 "cosmo_cavitation_energy": 36.16, 
			 "cosmo_dispersion_energy": -24.28, 
			 "cosmo_repulsion_energy": 1.93, 
			 "cosmo_total_nonelectrostatic_energy": 13.81, 
			 "SMD_solvation_energy": 8.06 
		},
		"coords": [
			{
				"x": 2.2788943245,
				"y": 0.1297126183,
				"z": -2.2482672214,
				"element": "C" 
			},
			{
				"x": 0.9685139758,
				"y": -0.5806539317,
				"z": -2.6232736361,
				"element": "C" 
			},
			{
				"x": 1.1132458072,
				"y": -1.2393540917,
				"z": -4.0156985081,
				"element": "C" 
			},
			{
				"x": 0.5908212374,
				"y": -1.6788234803,
				"z": -1.5899051693,
				"element": "C" 
			},
			{
				"x": 0.3099848497,
				"y": -1.1886186337,
				"z": -0.1610209882,
				"element": "C" 
			},
			{
				"x": -0.0854095752,
				"y": -2.3509728893,
				"z": 0.762370802,
				"element": "C" 
			},
			{
				"x": -0.3986693192,
				"y": -1.9790794791,
				"z": 2.2445683368,
				"element": "C" 
			},
			{
				"x": -1.5925731077,
				"y": -1.0148468673,
				"z": 2.3372650268,
				"element": "C" 
			},
			{
				"x": 0.8311429387,
				"y": -1.353001954,
				"z": 2.9437664149,
				"element": "C" 
			},
			{
				"x": -0.7924950098,
				"y": -3.289515035,
				"z": 2.9603263921,
				"element": "C" 
			},
			{
				"x": 0.2004318603,
				"y": -4.2075221912,
				"z": 3.130231388,
				"element": "O" 
			},
			{
				"x": -1.9049846369,
				"y": -3.5481005875,
				"z": 3.3477356296,
				"element": "O" 
			},
			{
				"x": -0.1527016188,
				"y": 0.4578186126,
				"z": -2.6967612821,
				"element": "C" 
			},
			{
				"x": -1.3530024395,
				"y": -0.1017055171,
				"z": -3.0012196524,
				"element": "O" 
			},
			{
				"x": -0.0341372323,
				"y": 1.6504482536,
				"z": -2.5164446386,
				"element": "O" 
			},
			{
				"x": 2.1945455747,
				"y": 0.6712839464,
				"z": -1.3037172563,
				"element": "H" 
			},
			{
				"x": 3.0878866839,
				"y": -0.6032457324,
				"z": -2.1615760325,
				"element": "H" 
			},
			{
				"x": 2.5562048387,
				"y": 0.8598062521,
				"z": -3.0129967995,
				"element": "H" 
			},
			{
				"x": 0.1906254884,
				"y": -1.7415896159,
				"z": -4.316791814,
				"element": "H" 
			},
			{
				"x": 1.3653192637,
				"y": -0.4958637355,
				"z": -4.7789221849,
				"element": "H" 
			},
			{
				"x": 1.9188021201,
				"y": -1.9807057214,
				"z": -3.9913913722,
				"element": "H" 
			},
			{
				"x": 1.4136106217,
				"y": -2.406357097,
				"z": -1.5711225747,
				"element": "H" 
			},
			{
				"x": -0.2902322918,
				"y": -2.2144771673,
				"z": -1.9609372098,
				"element": "H" 
			},
			{
				"x": 1.1941835822,
				"y": -0.679219384,
				"z": 0.2374417936,
				"element": "H" 
			},
			{
				"x": -0.4957125394,
				"y": -0.4458086313,
				"z": -0.1834198758,
				"element": "H" 
			},
			{
				"x": -0.9685964424,
				"y": -2.8521843145,
				"z": 0.3454140398,
				"element": "H" 
			},
			{
				"x": 0.7204463319,
				"y": -3.0986026127,
				"z": 0.7410324292,
				"element": "H" 
			},
			{
				"x": -2.4738298391,
				"y": -1.4354674605,
				"z": 1.8475223099,
				"element": "H" 
			},
			{
				"x": -1.3528190519,
				"y": -0.0551666928,
				"z": 1.8714143918,
				"element": "H" 
			},
			{
				"x": -1.857971955,
				"y": -0.8306180256,
				"z": 3.3814813748,
				"element": "H" 
			},
			{
				"x": 0.6546053629,
				"y": -1.2347153311,
				"z": 4.0173507208,
				"element": "H" 
			},
			{
				"x": 1.7452786501,
				"y": -1.9470294797,
				"z": 2.8171829386,
				"element": "H" 
			},
			{
				"x": 1.0410628159,
				"y": -0.3620374514,
				"z": 2.5327525355,
				"element": "H" 
			},
			{
				"x": 1.0388324286,
				"y": -3.8629580765,
				"z": 2.7933131841,
				"element": "H" 
			},
			{
				"x": -1.9888036971,
				"y": 0.6327715046,
				"z": -3.0327034924,
				"element": "H" 
			}
		],
		 "valence_orbital": [ 
			{
				"type": "occ",
				"energy": -0.3244,
				"method": "rhf"
			},
			{
				"type": "occ",
				"energy": -0.32145,
				"method": "rhf"
			},
			{
				"type": "occ",
				"energy": -0.31077,
				"method": "rhf"
			},
			{
				"type": "occ",
				"energy": -0.27431,
				"method": "rhf"
			},
			{
				"type": "occ",
				"energy": -0.26244,
				"method": "rhf"
			},
			{
				"type": "unocc",
				"energy": 0.00419,
				"method": "rhf"
			},
			{
				"type": "unocc",
				"energy": 0.01255,
				"method": "rhf"
			},
			{
				"type": "unocc",
				"energy": 0.04156,
				"method": "rhf"
			},
			{
				"type": "unocc",
				"energy": 0.06469,
				"method": "rhf"
			},
			{
				"type": "unocc",
				"energy": 0.08695,
				"method": "rhf"
			}
		],
		"cosmo_sigma_profile": { 
			"-0.025": 0.0,
			"-0.024": 0.0,
			"-0.023": 0.0,
			"-0.022": 0.0,
			"-0.021": 0.0,
			"-0.02": 0.0,
			"-0.019": 0.0,
			"-0.018": 0.596235522869,
			"-0.017": 1.46231754879,
			"-0.016": 1.68130984841,
			"-0.015": 2.22069130703,
			"-0.014": 1.75559657025,
			"-0.013": 0.938945960672,
			"-0.012": 1.20974332972,
			"-0.011": 2.40754163203,
			"-0.01": 2.03643954574,
			"-0.009": 1.56057849377,
			"-0.008": 1.87448419212,
			"-0.007": 1.31810209019,
			"-0.006": 2.82884447633,
			"-0.005": 4.81174491888,
			"-0.004": 20.3029170239,
			"-0.003": 42.3190456662,
			"-0.002": 35.3776844523,
			"-0.001": 32.947507035,
			"0.0": 29.2878819728,
			"0.001": 19.5397407432,
			"0.002": 6.29448516994,
			"0.003": 6.09503406732,
			"0.004": 5.51685060549,
			"0.005": 5.59280831211,
			"0.006": 4.71914627165,
			"0.007": 4.82847806602,
			"0.008": 5.26813496254,
			"0.009": 5.11600156264,
			"0.01": 5.96139216304,
			"0.011": 8.90632618785,
			"0.012": 10.6195059846,
			"0.013": 3.42294462926,
			"0.014": 0.227061719344,
			"0.015": 0.0,
			"0.016": 0.0,
			"0.017": 0.0,
			"0.018": 0.0,
			"0.019": 0.0,
			"0.02": 0.0,
			"0.021": 0.0,
			"0.022": 0.0,
			"0.023": 0.0,
			"0.024": 0.0,
			"0.025": 0.0
		}
	}
}
