{
	 "smiles": "COC1=CC=C(C=C1)C1CC2=CC=CC=C2C(O)O1", 
	 "Tm": 387.15, 
	 "num_atms": 35, 
	 "gaussian": { 
		 "optdone": 1, 
		 "sigma_profile": "yes", 
		 "theory": "DFT", 
		 "functional": "B3LYP", 
		 "basiset": "6-31G**", 
		 "properties": { 
			 "R2extent": 6010.3946, 
			 "electric_dipole_moment_norm": 1.19013556371, 
			 "electric_quadrupole_moment_norm": 7.90951081863, 
			 "total_energy": -844.99765398, 
			 "HOMO_LUMO_gap": 0.20405, 
			 "cosmo_polarized_energy": -12.98, 
			 "cosmo_cavitation_energy": 37.48, 
			 "cosmo_dispersion_energy": -26.54, 
			 "cosmo_repulsion_energy": 2.05, 
			 "cosmo_total_nonelectrostatic_energy": 12.99, 
			 "SMD_solvation_energy": 6.57 
		},
		"coords": [
			{
				"x": 2.5281467098,
				"y": 0.8253683121,
				"z": 4.7864916588,
				"element": "C" 
			},
			{
				"x": 2.7062638464,
				"y": 1.647307292,
				"z": 3.645382857,
				"element": "O" 
			},
			{
				"x": 1.7288086755,
				"y": 1.6437373121,
				"z": 2.6899758304,
				"element": "C" 
			},
			{
				"x": 0.5541340969,
				"y": 0.8871396968,
				"z": 2.7517443416,
				"element": "C" 
			},
			{
				"x": -0.3781341302,
				"y": 0.966050655,
				"z": 1.7121827052,
				"element": "C" 
			},
			{
				"x": -0.1634073086,
				"y": 1.7860336207,
				"z": 0.6049976513,
				"element": "C" 
			},
			{
				"x": 1.0154078109,
				"y": 2.5471665217,
				"z": 0.5645974848,
				"element": "C" 
			},
			{
				"x": 1.9534989385,
				"y": 2.4799692044,
				"z": 1.5859572128,
				"element": "C" 
			},
			{
				"x": -1.1392718204,
				"y": 1.8523117003,
				"z": -0.5589121641,
				"element": "C" 
			},
			{
				"x": -0.7004772716,
				"y": 0.9569054544,
				"z": -1.750142158,
				"element": "C" 
			},
			{
				"x": -1.0868878657,
				"y": -0.4789530436,
				"z": -1.5157851956,
				"element": "C" 
			},
			{
				"x": -0.2543281705,
				"y": -1.5736743181,
				"z": -1.7508868146,
				"element": "C" 
			},
			{
				"x": -0.7176040789,
				"y": -2.8714801586,
				"z": -1.5176159952,
				"element": "C" 
			},
			{
				"x": -2.0106709352,
				"y": -3.0801982244,
				"z": -1.0347253051,
				"element": "C" 
			},
			{
				"x": -2.8425190357,
				"y": -1.9866300713,
				"z": -0.781792823,
				"element": "C" 
			},
			{
				"x": -2.3827734383,
				"y": -0.6941313587,
				"z": -1.0263172607,
				"element": "C" 
			},
			{
				"x": -3.2092608559,
				"y": 0.5376141366,
				"z": -0.7537927178,
				"element": "C" 
			},
			{
				"x": -3.7204078168,
				"y": 1.0084541523,
				"z": -1.9874725713,
				"element": "O" 
			},
			{
				"x": -2.4631190987,
				"y": 1.5389675642,
				"z": -0.0828814189,
				"element": "O" 
			},
			{
				"x": 3.4112071827,
				"y": 0.9770907411,
				"z": 5.4095158974,
				"element": "H" 
			},
			{
				"x": 1.6330769084,
				"y": 1.1085520975,
				"z": 5.3558356993,
				"element": "H" 
			},
			{
				"x": 2.4567274794,
				"y": -0.2362909874,
				"z": 4.5158185074,
				"element": "H" 
			},
			{
				"x": 0.3506265988,
				"y": 0.2402132891,
				"z": 3.5970442415,
				"element": "H" 
			},
			{
				"x": -1.2940154409,
				"y": 0.389144076,
				"z": 1.771751324,
				"element": "H" 
			},
			{
				"x": 1.2006915286,
				"y": 3.2085484076,
				"z": -0.2795708465,
				"element": "H" 
			},
			{
				"x": 2.8634089654,
				"y": 3.070741539,
				"z": 1.558768406,
				"element": "H" 
			},
			{
				"x": -1.1673299267,
				"y": 2.8889031102,
				"z": -0.9205723357,
				"element": "H" 
			},
			{
				"x": -1.2062801587,
				"y": 1.3164823004,
				"z": -2.6530507996,
				"element": "H" 
			},
			{
				"x": 0.3771568465,
				"y": 1.0663550999,
				"z": -1.9007499626,
				"element": "H" 
			},
			{
				"x": 0.7564178551,
				"y": -1.4127464479,
				"z": -2.1173460884,
				"element": "H" 
			},
			{
				"x": -0.0654929047,
				"y": -3.7194146309,
				"z": -1.7073772303,
				"element": "H" 
			},
			{
				"x": -2.3680015842,
				"y": -4.0891090777,
				"z": -0.850160788,
				"element": "H" 
			},
			{
				"x": -3.8475472875,
				"y": -2.1399312355,
				"z": -0.3960767168,
				"element": "H" 
			},
			{
				"x": -4.0286664039,
				"y": 0.3145468504,
				"z": -0.0565294958,
				"element": "H" 
			},
			{
				"x": -4.1918779097,
				"y": 1.8315564203,
				"z": -1.7934051296,
				"element": "H" 
			}
		],
		 "valence_orbital": [ 
			{
				"type": "occ",
				"energy": -0.26733,
				"method": "rhf"
			},
			{
				"type": "occ",
				"energy": -0.24711,
				"method": "rhf"
			},
			{
				"type": "occ",
				"energy": -0.24506,
				"method": "rhf"
			},
			{
				"type": "occ",
				"energy": -0.23673,
				"method": "rhf"
			},
			{
				"type": "occ",
				"energy": -0.20922,
				"method": "rhf"
			},
			{
				"type": "unocc",
				"energy": -0.00517,
				"method": "rhf"
			},
			{
				"type": "unocc",
				"energy": -0.00177,
				"method": "rhf"
			},
			{
				"type": "unocc",
				"energy": 0.00701,
				"method": "rhf"
			},
			{
				"type": "unocc",
				"energy": 0.01588,
				"method": "rhf"
			},
			{
				"type": "unocc",
				"energy": 0.08535,
				"method": "rhf"
			}
		],
		"cosmo_sigma_profile": { 
			"-0.025": 0.0,
			"-0.024": 0.0,
			"-0.023": 0.0,
			"-0.022": 0.0,
			"-0.021": 0.0,
			"-0.02": 0.0,
			"-0.019": 0.0,
			"-0.018": 0.0,
			"-0.017": 0.0,
			"-0.016": 0.452636584761,
			"-0.015": 0.815636316596,
			"-0.014": 0.969899650384,
			"-0.013": 0.989631212857,
			"-0.012": 0.51264930007,
			"-0.011": 1.0106702524,
			"-0.01": 0.341175717,
			"-0.009": 1.27976064914,
			"-0.008": 0.37618153388,
			"-0.007": 0.972641952084,
			"-0.006": 13.9777498741,
			"-0.005": 32.4240406088,
			"-0.004": 30.2363887765,
			"-0.003": 30.1888379449,
			"-0.002": 20.3349957384,
			"-0.001": 19.5799574228,
			"0.0": 14.4024020666,
			"0.001": 15.5107876099,
			"0.002": 13.3022336944,
			"0.003": 16.7978592138,
			"0.004": 19.302774234,
			"0.005": 23.1159594613,
			"0.006": 16.7833863876,
			"0.007": 4.94994861751,
			"0.008": 3.43562450395,
			"0.009": 3.61723707516,
			"0.01": 4.17720658269,
			"0.011": 2.10801696136,
			"0.012": 2.60838375885,
			"0.013": 1.82573811508,
			"0.014": 0.261059700155,
			"0.015": 0.0,
			"0.016": 0.0,
			"0.017": 0.0,
			"0.018": 0.0,
			"0.019": 0.0,
			"0.02": 0.0,
			"0.021": 0.0,
			"0.022": 0.0,
			"0.023": 0.0,
			"0.024": 0.0,
			"0.025": 0.0
		}
	}
}
