{
	 "smiles": "NC1=NC(=NS1)C1=CC(Cl)=CC=C1", 
	 "Tm": 423.15, 
	 "num_atms": 19, 
	 "gaussian": { 
		 "optdone": 1, 
		 "sigma_profile": "yes", 
		 "theory": "DFT", 
		 "functional": "B3LYP", 
		 "basiset": "6-31G**", 
		 "properties": { 
			 "R2extent": 4572.3269, 
			 "electric_dipole_moment_norm": 3.68868589744, 
			 "electric_quadrupole_moment_norm": 23.9532202762, 
			 "total_energy": -1331.10729961, 
			 "HOMO_LUMO_gap": 0.1807, 
			 "cosmo_polarized_energy": -13.02, 
			 "cosmo_cavitation_energy": 27.48, 
			 "cosmo_dispersion_energy": -21.3, 
			 "cosmo_repulsion_energy": 1.65, 
			 "cosmo_total_nonelectrostatic_energy": 7.83, 
			 "SMD_solvation_energy": 1.68 
		},
		"coords": [
			{
				"x": -1.7598852041,
				"y": 2.0563729501,
				"z": 3.4194207889,
				"element": "N" 
			},
			{
				"x": -2.091649653,
				"y": 1.215374787,
				"z": 2.4023688534,
				"element": "C" 
			},
			{
				"x": -1.4160774145,
				"y": 1.112178673,
				"z": 1.2868168344,
				"element": "N" 
			},
			{
				"x": -2.0510273746,
				"y": 0.2166876417,
				"z": 0.4543357162,
				"element": "C" 
			},
			{
				"x": -3.1580560807,
				"y": -0.3783758857,
				"z": 0.8502239335,
				"element": "N" 
			},
			{
				"x": -3.5229781057,
				"y": 0.1857443629,
				"z": 2.396323856,
				"element": "S" 
			},
			{
				"x": -1.4788366999,
				"y": -0.0744775802,
				"z": -0.8769317635,
				"element": "C" 
			},
			{
				"x": -0.3006444297,
				"y": 0.5695737432,
				"z": -1.2801672425,
				"element": "C" 
			},
			{
				"x": 0.2314349498,
				"y": 0.2894743532,
				"z": -2.5353505147,
				"element": "C" 
			},
			{
				"x": 1.7115684818,
				"y": 1.0998126671,
				"z": -3.0385209068,
				"element": "Cl" 
			},
			{
				"x": -0.3784414166,
				"y": -0.6159387733,
				"z": -3.4023261579,
				"element": "C" 
			},
			{
				"x": -1.5524473448,
				"y": -1.2518774703,
				"z": -2.9901877609,
				"element": "C" 
			},
			{
				"x": -2.1031325709,
				"y": -0.9881140019,
				"z": -1.7395760933,
				"element": "C" 
			},
			{
				"x": -2.1197917645,
				"y": 1.879028449,
				"z": 4.3438850079,
				"element": "H" 
			},
			{
				"x": -0.8326812778,
				"y": 2.4542754735,
				"z": 3.3700880084,
				"element": "H" 
			},
			{
				"x": 0.1814335763,
				"y": 1.2751458351,
				"z": -0.615322515,
				"element": "H" 
			},
			{
				"x": 0.0561524683,
				"y": -0.8166838372,
				"z": -4.3752242899,
				"element": "H" 
			},
			{
				"x": -2.0372387994,
				"y": -1.959154822,
				"z": -3.6564881282,
				"element": "H" 
			},
			{
				"x": -3.0138013402,
				"y": -1.4792465652,
				"z": -1.4160676261,
				"element": "H" 
			}
		],
		 "valence_orbital": [ 
			{
				"type": "occ",
				"energy": -0.29735,
				"method": "rhf"
			},
			{
				"type": "occ",
				"energy": -0.28046,
				"method": "rhf"
			},
			{
				"type": "occ",
				"energy": -0.2623,
				"method": "rhf"
			},
			{
				"type": "occ",
				"energy": -0.24716,
				"method": "rhf"
			},
			{
				"type": "occ",
				"energy": -0.22771,
				"method": "rhf"
			},
			{
				"type": "unocc",
				"energy": -0.04701,
				"method": "rhf"
			},
			{
				"type": "unocc",
				"energy": -0.01111,
				"method": "rhf"
			},
			{
				"type": "unocc",
				"energy": -0.00954,
				"method": "rhf"
			},
			{
				"type": "unocc",
				"energy": 0.00372,
				"method": "rhf"
			},
			{
				"type": "unocc",
				"energy": 0.03573,
				"method": "rhf"
			}
		],
		"cosmo_sigma_profile": { 
			"-0.025": 0.0,
			"-0.024": 0.0,
			"-0.023": 0.0,
			"-0.022": 0.0,
			"-0.021": 0.0,
			"-0.02": 0.0,
			"-0.019": 0.0,
			"-0.018": 0.0,
			"-0.017": 0.0,
			"-0.016": 0.925645564639,
			"-0.015": 2.55582831035,
			"-0.014": 2.97776305792,
			"-0.013": 2.55921974534,
			"-0.012": 2.81963860155,
			"-0.011": 2.52764718012,
			"-0.01": 1.90466986113,
			"-0.009": 1.69156827369,
			"-0.008": 1.99313186945,
			"-0.007": 4.48465503761,
			"-0.006": 6.45695588852,
			"-0.005": 9.19382540921,
			"-0.004": 8.6055993015,
			"-0.003": 7.68028783158,
			"-0.002": 9.37606389864,
			"-0.001": 15.060430326,
			"0.0": 18.3437647562,
			"0.001": 23.6727057421,
			"0.002": 27.7478498442,
			"0.003": 27.9514217765,
			"0.004": 17.4341778818,
			"0.005": 10.9129950766,
			"0.006": 4.64639921541,
			"0.007": 3.77297258266,
			"0.008": 2.92040108303,
			"0.009": 2.12587102937,
			"0.01": 3.04465538866,
			"0.011": 1.10015159721,
			"0.012": 1.19612133756,
			"0.013": 0.196884952499,
			"0.014": 0.0,
			"0.015": 0.0,
			"0.016": 0.0,
			"0.017": 0.0,
			"0.018": 0.0,
			"0.019": 0.0,
			"0.02": 0.0,
			"0.021": 0.0,
			"0.022": 0.0,
			"0.023": 0.0,
			"0.024": 0.0,
			"0.025": 0.0
		}
	}
}
