{
	 "smiles": "CC(OC1=CN=CC=C1)C(O)=O", 
	 "Tm": 400.15, 
	 "num_atms": 21, 
	 "gaussian": { 
		 "optdone": 1, 
		 "sigma_profile": "yes", 
		 "theory": "DFT", 
		 "functional": "B3LYP", 
		 "basiset": "6-31G**", 
		 "properties": { 
			 "R2extent": 2241.6992, 
			 "electric_dipole_moment_norm": 4.44812429458, 
			 "electric_quadrupole_moment_norm": 16.0508444638, 
			 "total_energy": -590.682762299, 
			 "HOMO_LUMO_gap": 0.2118, 
			 "cosmo_polarized_energy": -20.26, 
			 "cosmo_cavitation_energy": 25.56, 
			 "cosmo_dispersion_energy": -18.31, 
			 "cosmo_repulsion_energy": 1.47, 
			 "cosmo_total_nonelectrostatic_energy": 8.72, 
			 "SMD_solvation_energy": 4.31 
		},
		"coords": [
			{
				"x": 1.7692295718,
				"y": -0.0903794669,
				"z": 2.4645950955,
				"element": "C" 
			},
			{
				"x": 0.7213090289,
				"y": -0.2745770371,
				"z": 1.3637657285,
				"element": "C" 
			},
			{
				"x": 0.8815558422,
				"y": 0.8085902056,
				"z": 0.4707623981,
				"element": "O" 
			},
			{
				"x": -0.0722329079,
				"y": 1.0441811939,
				"z": -0.4831093045,
				"element": "C" 
			},
			{
				"x": -1.2351349884,
				"y": 0.2876161548,
				"z": -0.6752814003,
				"element": "C" 
			},
			{
				"x": -2.1522376012,
				"y": 0.5857217615,
				"z": -1.6039963345,
				"element": "N" 
			},
			{
				"x": -1.9394493251,
				"y": 1.6476014806,
				"z": -2.3843910553,
				"element": "C" 
			},
			{
				"x": -0.8038655097,
				"y": 2.4566057195,
				"z": -2.2755513061,
				"element": "C" 
			},
			{
				"x": 0.1449066066,
				"y": 2.1524252751,
				"z": -1.3084372221,
				"element": "C" 
			},
			{
				"x": 0.9421627172,
				"y": -1.6231620119,
				"z": 0.6482562582,
				"element": "C" 
			},
			{
				"x": 0.4566537324,
				"y": -2.7056362799,
				"z": 1.3138362022,
				"element": "O" 
			},
			{
				"x": 1.5337624699,
				"y": -1.7473413066,
				"z": -0.3889600193,
				"element": "O" 
			},
			{
				"x": 1.7140712341,
				"y": -0.899104693,
				"z": 3.1990669848,
				"element": "H" 
			},
			{
				"x": 2.7685012868,
				"y": -0.0871023138,
				"z": 2.0223568269,
				"element": "H" 
			},
			{
				"x": 1.6055649273,
				"y": 0.8615455965,
				"z": 2.9747793766,
				"element": "H" 
			},
			{
				"x": -0.2888328653,
				"y": -0.2550351072,
				"z": 1.8033807982,
				"element": "H" 
			},
			{
				"x": -1.4437386695,
				"y": -0.5952930778,
				"z": -0.0766840264,
				"element": "H" 
			},
			{
				"x": -2.7034493085,
				"y": 1.8615195069,
				"z": -3.1288008635,
				"element": "H" 
			},
			{
				"x": -0.6690462403,
				"y": 3.3078590565,
				"z": -2.9356746894,
				"element": "H" 
			},
			{
				"x": 1.0451435844,
				"y": 2.7432502832,
				"z": -1.1740206412,
				"element": "H" 
			},
			{
				"x": -0.0272735855,
				"y": -2.4354849397,
				"z": 2.1078071932,
				"element": "H" 
			}
		],
		 "valence_orbital": [ 
			{
				"type": "occ",
				"energy": -0.32869,
				"method": "rhf"
			},
			{
				"type": "occ",
				"energy": -0.28512,
				"method": "rhf"
			},
			{
				"type": "occ",
				"energy": -0.27887,
				"method": "rhf"
			},
			{
				"type": "occ",
				"energy": -0.25354,
				"method": "rhf"
			},
			{
				"type": "occ",
				"energy": -0.2379,
				"method": "rhf"
			},
			{
				"type": "unocc",
				"energy": -0.0261,
				"method": "rhf"
			},
			{
				"type": "unocc",
				"energy": -0.00478,
				"method": "rhf"
			},
			{
				"type": "unocc",
				"energy": -0.00099,
				"method": "rhf"
			},
			{
				"type": "unocc",
				"energy": 0.0338,
				"method": "rhf"
			},
			{
				"type": "unocc",
				"energy": 0.09024,
				"method": "rhf"
			}
		],
		"cosmo_sigma_profile": { 
			"-0.025": 0.0,
			"-0.024": 0.0,
			"-0.023": 0.0,
			"-0.022": 0.0,
			"-0.021": 0.0,
			"-0.02": 0.236923592188,
			"-0.019": 1.10354823943,
			"-0.018": 1.42172563279,
			"-0.017": 1.29134752401,
			"-0.016": 1.35886273747,
			"-0.015": 1.10765572972,
			"-0.014": 1.47960079791,
			"-0.013": 1.42944494193,
			"-0.012": 1.35024788511,
			"-0.011": 1.60397607665,
			"-0.01": 1.4471074176,
			"-0.009": 1.84153535416,
			"-0.008": 3.42898049878,
			"-0.007": 7.34028412833,
			"-0.006": 11.5647373564,
			"-0.005": 13.5861228398,
			"-0.004": 13.6164481747,
			"-0.003": 13.2961845999,
			"-0.002": 11.0297908993,
			"-0.001": 10.2540001503,
			"0.0": 8.85519964295,
			"0.001": 10.448913594,
			"0.002": 15.0919230333,
			"0.003": 12.1658873514,
			"0.004": 6.76884341878,
			"0.005": 6.04322971547,
			"0.006": 4.71171227494,
			"0.007": 5.52179590399,
			"0.008": 5.69017096127,
			"0.009": 6.41584218176,
			"0.01": 6.22641157986,
			"0.011": 7.40478502406,
			"0.012": 4.43392355478,
			"0.013": 0.721676278459,
			"0.014": 1.04499124414,
			"0.015": 0.977117990564,
			"0.016": 0.691070810275,
			"0.017": 0.176903487533,
			"0.018": 0.0,
			"0.019": 0.0,
			"0.02": 0.0,
			"0.021": 0.0,
			"0.022": 0.0,
			"0.023": 0.0,
			"0.024": 0.0,
			"0.025": 0.0
		}
	}
}
