{
	 "smiles": "CCC1=C(Cl)C=C2C(CCl)=CC(=O)OC2=C1", 
	 "Tm": 444.15, 
	 "num_atms": 26, 
	 "gaussian": { 
		 "optdone": 1, 
		 "sigma_profile": "yes", 
		 "theory": "DFT", 
		 "functional": "B3LYP", 
		 "basiset": "6-31G**", 
		 "properties": { 
			 "R2extent": 6463.16, 
			 "electric_dipole_moment_norm": 4.22653149876, 
			 "electric_quadrupole_moment_norm": 20.769023419, 
			 "total_energy": -1534.15232518, 
			 "HOMO_LUMO_gap": 0.16361, 
			 "cosmo_polarized_energy": -12.74, 
			 "cosmo_cavitation_energy": 33.3, 
			 "cosmo_dispersion_energy": -24.44, 
			 "cosmo_repulsion_energy": 1.9, 
			 "cosmo_total_nonelectrostatic_energy": 10.76, 
			 "SMD_solvation_energy": 6.05 
		},
		"coords": [
			{
				"x": 0.9473540437,
				"y": 3.5938112778,
				"z": -0.045573304,
				"element": "C" 
			},
			{
				"x": 1.8188892542,
				"y": 2.5612477314,
				"z": 0.694160199,
				"element": "C" 
			},
			{
				"x": 1.4735650779,
				"y": 1.1344882041,
				"z": 0.3335421602,
				"element": "C" 
			},
			{
				"x": 0.4143388383,
				"y": 0.42340849,
				"z": 0.9345509488,
				"element": "C" 
			},
			{
				"x": -0.5552119189,
				"y": 1.1756484157,
				"z": 2.1993222847,
				"element": "Cl" 
			},
			{
				"x": 0.0985357906,
				"y": -0.8775383454,
				"z": 0.5703968395,
				"element": "C" 
			},
			{
				"x": 0.8325192756,
				"y": -1.5406078554,
				"z": -0.4296420837,
				"element": "C" 
			},
			{
				"x": 0.5785616933,
				"y": -2.9037332756,
				"z": -0.8804373575,
				"element": "C" 
			},
			{
				"x": -0.5572730711,
				"y": -3.6498250057,
				"z": -0.2233249367,
				"element": "C" 
			},
			{
				"x": -0.825116799,
				"y": -5.3277331777,
				"z": -0.8223309631,
				"element": "Cl" 
			},
			{
				"x": 1.3605255794,
				"y": -3.4286947025,
				"z": -1.8517378995,
				"element": "C" 
			},
			{
				"x": 2.4541970751,
				"y": -2.6898332188,
				"z": -2.4737667299,
				"element": "C" 
			},
			{
				"x": 3.183199217,
				"y": -3.1037080514,
				"z": -3.3421758324,
				"element": "O" 
			},
			{
				"x": 2.6616467142,
				"y": -1.3900748276,
				"z": -2.0110167851,
				"element": "O" 
			},
			{
				"x": 1.8899251165,
				"y": -0.8361258346,
				"z": -1.0352473233,
				"element": "C" 
			},
			{
				"x": 2.1991768124,
				"y": 0.4698969826,
				"z": -0.656748519,
				"element": "C" 
			},
			{
				"x": -0.1107153228,
				"y": 3.4665124379,
				"z": 0.1993923378,
				"element": "H" 
			},
			{
				"x": 1.2404305494,
				"y": 4.6098207638,
				"z": 0.2363297797,
				"element": "H" 
			},
			{
				"x": 1.0590776359,
				"y": 3.4958470937,
				"z": -1.129889868,
				"element": "H" 
			},
			{
				"x": 1.7129107062,
				"y": 2.7031774852,
				"z": 1.774083668,
				"element": "H" 
			},
			{
				"x": 2.8723771871,
				"y": 2.7356355103,
				"z": 0.4513357788,
				"element": "H" 
			},
			{
				"x": -0.7237226991,
				"y": -1.3727382423,
				"z": 1.0727053517,
				"element": "H" 
			},
			{
				"x": -0.3833340881,
				"y": -3.7318225705,
				"z": 0.8524604199,
				"element": "H" 
			},
			{
				"x": -1.49842023,
				"y": -3.1155320375,
				"z": -0.3751477802,
				"element": "H" 
			},
			{
				"x": 1.2139714297,
				"y": -4.4348663311,
				"z": -2.2217752344,
				"element": "H" 
			},
			{
				"x": 3.0281921324,
				"y": 0.9641390836,
				"z": -1.1529651512,
				"element": "H" 
			}
		],
		 "valence_orbital": [ 
			{
				"type": "occ",
				"energy": -0.3171,
				"method": "rhf"
			},
			{
				"type": "occ",
				"energy": -0.30641,
				"method": "rhf"
			},
			{
				"type": "occ",
				"energy": -0.28138,
				"method": "rhf"
			},
			{
				"type": "occ",
				"energy": -0.26733,
				"method": "rhf"
			},
			{
				"type": "occ",
				"energy": -0.24252,
				"method": "rhf"
			},
			{
				"type": "unocc",
				"energy": -0.07891,
				"method": "rhf"
			},
			{
				"type": "unocc",
				"energy": -0.02898,
				"method": "rhf"
			},
			{
				"type": "unocc",
				"energy": -0.01281,
				"method": "rhf"
			},
			{
				"type": "unocc",
				"energy": 0.00257,
				"method": "rhf"
			},
			{
				"type": "unocc",
				"energy": 0.01711,
				"method": "rhf"
			}
		],
		"cosmo_sigma_profile": { 
			"-0.025": 0.0,
			"-0.024": 0.0,
			"-0.023": 0.0,
			"-0.022": 0.0,
			"-0.021": 0.0,
			"-0.02": 0.0,
			"-0.019": 0.0,
			"-0.018": 0.0,
			"-0.017": 0.0,
			"-0.016": 0.0,
			"-0.015": 0.0,
			"-0.014": 0.0,
			"-0.013": 0.0,
			"-0.012": 0.0,
			"-0.011": 0.0451890353868,
			"-0.01": 3.53011700048,
			"-0.009": 7.06013221599,
			"-0.008": 5.42713639525,
			"-0.007": 6.14837957041,
			"-0.006": 7.68596739111,
			"-0.005": 9.63081534978,
			"-0.004": 11.7832218352,
			"-0.003": 18.5050752585,
			"-0.002": 25.4203893435,
			"-0.001": 30.9888743558,
			"0.0": 32.6521209762,
			"0.001": 30.9516143422,
			"0.002": 16.9408643181,
			"0.003": 12.6092185961,
			"0.004": 12.4700276149,
			"0.005": 12.1536249512,
			"0.006": 5.50236797792,
			"0.007": 1.51820527066,
			"0.008": 1.8055024911,
			"0.009": 3.13418288569,
			"0.01": 2.59408518841,
			"0.011": 4.34902913225,
			"0.012": 5.90561121478,
			"0.013": 1.38359550725,
			"0.014": 0.0,
			"0.015": 0.0,
			"0.016": 0.0,
			"0.017": 0.0,
			"0.018": 0.0,
			"0.019": 0.0,
			"0.02": 0.0,
			"0.021": 0.0,
			"0.022": 0.0,
			"0.023": 0.0,
			"0.024": 0.0,
			"0.025": 0.0
		}
	}
}
