{
	 "smiles": "CC1=C(C)C2=C(N=CN=C2N)N1CC1=CC=CO1", 
	 "Tm": 454.15, 
	 "num_atms": 32, 
	 "gaussian": { 
		 "optdone": 1, 
		 "sigma_profile": "yes", 
		 "theory": "DFT", 
		 "functional": "B3LYP", 
		 "basiset": "6-31G**", 
		 "properties": { 
			 "R2extent": 4872.7613, 
			 "electric_dipole_moment_norm": 4.07220952064, 
			 "electric_quadrupole_moment_norm": 13.7971225812, 
			 "total_energy": -798.053890704, 
			 "HOMO_LUMO_gap": 0.18726, 
			 "cosmo_polarized_energy": -15.78, 
			 "cosmo_cavitation_energy": 35.36, 
			 "cosmo_dispersion_energy": -25.09, 
			 "cosmo_repulsion_energy": 1.93, 
			 "cosmo_total_nonelectrostatic_energy": 12.19, 
			 "SMD_solvation_energy": 3.92 
		},
		"coords": [
			{
				"x": -1.0658587455,
				"y": 2.6959838765,
				"z": 0.120367305,
				"element": "C" 
			},
			{
				"x": -0.6381108791,
				"y": 1.3162384848,
				"z": 0.5054705617,
				"element": "C" 
			},
			{
				"x": -0.7213307576,
				"y": 0.6688838,
				"z": 1.7206934719,
				"element": "C" 
			},
			{
				"x": -1.3033766729,
				"y": 1.2052509947,
				"z": 2.996580037,
				"element": "C" 
			},
			{
				"x": -0.1321811359,
				"y": -0.6326839411,
				"z": 1.5289825691,
				"element": "C" 
			},
			{
				"x": 0.2854401451,
				"y": -0.714909607,
				"z": 0.1852501585,
				"element": "C" 
			},
			{
				"x": 0.8887129944,
				"y": -1.7588647882,
				"z": -0.400572486,
				"element": "N" 
			},
			{
				"x": 1.0704482377,
				"y": -2.777163374,
				"z": 0.4384605856,
				"element": "C" 
			},
			{
				"x": 0.7329745737,
				"y": -2.8532414273,
				"z": 1.7361223658,
				"element": "N" 
			},
			{
				"x": 0.1304985654,
				"y": -1.7906615227,
				"z": 2.2944657188,
				"element": "C" 
			},
			{
				"x": -0.2388184922,
				"y": -1.9180758527,
				"z": 3.611422482,
				"element": "N" 
			},
			{
				"x": -0.0232181562,
				"y": 0.4730660452,
				"z": -0.430006035,
				"element": "N" 
			},
			{
				"x": 0.2212914006,
				"y": 0.7309549126,
				"z": -1.8457523524,
				"element": "C" 
			},
			{
				"x": -1.008760127,
				"y": 0.7370106967,
				"z": -2.6969903032,
				"element": "C" 
			},
			{
				"x": -1.5702833332,
				"y": 1.6730057322,
				"z": -3.5175194269,
				"element": "C" 
			},
			{
				"x": -2.7267236832,
				"y": 1.060189533,
				"z": -4.1050558191,
				"element": "C" 
			},
			{
				"x": -2.7818934516,
				"y": -0.199764002,
				"z": -3.5940803123,
				"element": "C" 
			},
			{
				"x": -1.7422466673,
				"y": -0.4145469493,
				"z": -2.7391433204,
				"element": "O" 
			},
			{
				"x": -1.7882310874,
				"y": 2.684934717,
				"z": -0.7031608032,
				"element": "H" 
			},
			{
				"x": -0.2150791967,
				"y": 3.3109220163,
				"z": -0.2013179068,
				"element": "H" 
			},
			{
				"x": -1.5293203543,
				"y": 3.2021049195,
				"z": 0.9691252222,
				"element": "H" 
			},
			{
				"x": -2.0733166272,
				"y": 0.5357952852,
				"z": 3.3990724743,
				"element": "H" 
			},
			{
				"x": -0.5395700829,
				"y": 1.3351790822,
				"z": 3.7758603922,
				"element": "H" 
			},
			{
				"x": -1.7723896836,
				"y": 2.181704457,
				"z": 2.8507774739,
				"element": "H" 
			},
			{
				"x": 1.5576854364,
				"y": -3.6595681533,
				"z": 0.0275451661,
				"element": "H" 
			},
			{
				"x": -0.3734648774,
				"y": -1.0820087053,
				"z": 4.1569056513,
				"element": "H" 
			},
			{
				"x": 0.17792695,
				"y": -2.704028613,
				"z": 4.0895972688,
				"element": "H" 
			},
			{
				"x": 0.7321540371,
				"y": 1.6910906565,
				"z": -1.9690708488,
				"element": "H" 
			},
			{
				"x": 0.903190248,
				"y": -0.0616273265,
				"z": -2.1696259828,
				"element": "H" 
			},
			{
				"x": -1.2027615052,
				"y": 2.6752777432,
				"z": -3.6876970988,
				"element": "H" 
			},
			{
				"x": -3.4188962265,
				"y": 1.5022737013,
				"z": -4.8070324535,
				"element": "H" 
			},
			{
				"x": -3.4604908456,
				"y": -1.0283223913,
				"z": -3.724673755,
				"element": "H" 
			}
		],
		 "valence_orbital": [ 
			{
				"type": "occ",
				"energy": -0.24998,
				"method": "rhf"
			},
			{
				"type": "occ",
				"energy": -0.24144,
				"method": "rhf"
			},
			{
				"type": "occ",
				"energy": -0.23589,
				"method": "rhf"
			},
			{
				"type": "occ",
				"energy": -0.22376,
				"method": "rhf"
			},
			{
				"type": "occ",
				"energy": -0.18979,
				"method": "rhf"
			},
			{
				"type": "unocc",
				"energy": -0.00253,
				"method": "rhf"
			},
			{
				"type": "unocc",
				"energy": 0.00764,
				"method": "rhf"
			},
			{
				"type": "unocc",
				"energy": 0.02461,
				"method": "rhf"
			},
			{
				"type": "unocc",
				"energy": 0.06195,
				"method": "rhf"
			},
			{
				"type": "unocc",
				"energy": 0.06859,
				"method": "rhf"
			}
		],
		"cosmo_sigma_profile": { 
			"-0.025": 0.0,
			"-0.024": 0.0,
			"-0.023": 0.0,
			"-0.022": 0.0,
			"-0.021": 0.0,
			"-0.02": 0.0,
			"-0.019": 0.0,
			"-0.018": 0.0,
			"-0.017": 0.0,
			"-0.016": 0.0,
			"-0.015": 0.0,
			"-0.014": 0.0,
			"-0.013": 0.715695151804,
			"-0.012": 1.86028937738,
			"-0.011": 2.26538067618,
			"-0.01": 2.59010422431,
			"-0.009": 2.99273057949,
			"-0.008": 4.48951431933,
			"-0.007": 9.27260281667,
			"-0.006": 14.8236981378,
			"-0.005": 16.677058637,
			"-0.004": 19.4974029668,
			"-0.003": 19.0737012556,
			"-0.002": 19.2890194761,
			"-0.001": 22.1045758691,
			"0.0": 20.2896803858,
			"0.001": 17.7574059887,
			"0.002": 20.7700438775,
			"0.003": 19.7554505284,
			"0.004": 16.9502327514,
			"0.005": 15.6090965427,
			"0.006": 8.78308985696,
			"0.007": 5.31224663426,
			"0.008": 5.4496283555,
			"0.009": 3.41734740614,
			"0.01": 2.46117831329,
			"0.011": 2.63545997067,
			"0.012": 2.41846450073,
			"0.013": 1.15439486714,
			"0.014": 1.8369407509,
			"0.015": 0.891215176907,
			"0.016": 0.616803875571,
			"0.017": 0.0510725299224,
			"0.018": 0.0,
			"0.019": 0.0,
			"0.02": 0.0,
			"0.021": 0.0,
			"0.022": 0.0,
			"0.023": 0.0,
			"0.024": 0.0,
			"0.025": 0.0
		}
	}
}
