{
	 "smiles": "BrC(C#N)C1=CC=CC=C1", 
	 "Tm": 302.15, 
	 "num_atms": 16, 
	 "gaussian": { 
		 "optdone": 1, 
		 "sigma_profile": "yes", 
		 "theory": "DFT", 
		 "functional": "B3LYP", 
		 "basiset": "6-31G**", 
		 "properties": { 
			 "R2extent": 3342.5432, 
			 "electric_dipole_moment_norm": 4.12711285404, 
			 "electric_quadrupole_moment_norm": 13.1163745181, 
			 "total_energy": -2934.59848517, 
			 "HOMO_LUMO_gap": 0.19228, 
			 "cosmo_polarized_energy": -9.41, 
			 "cosmo_cavitation_energy": 23.55, 
			 "cosmo_dispersion_energy": -16.8, 
			 "cosmo_repulsion_energy": 1.38, 
			 "cosmo_total_nonelectrostatic_energy": 8.12, 
			 "SMD_solvation_energy": 4.11 
		},
		"coords": [
			{
				"x": -2.8127262696,
				"y": -2.3685599939,
				"z": 1.4510642329,
				"element": "Br" 
			},
			{
				"x": -2.0926900132,
				"y": -0.4824006931,
				"z": 1.267021749,
				"element": "C" 
			},
			{
				"x": -1.6557096418,
				"y": -0.057743933,
				"z": 2.5904222121,
				"element": "C" 
			},
			{
				"x": -1.2985588128,
				"y": 0.3064966064,
				"z": 3.6333382013,
				"element": "N" 
			},
			{
				"x": -1.0303024603,
				"y": -0.4055399925,
				"z": 0.2051511627,
				"element": "C" 
			},
			{
				"x": 0.3182425753,
				"y": -0.6416555603,
				"z": 0.5017681438,
				"element": "C" 
			},
			{
				"x": 1.277421589,
				"y": -0.565704929,
				"z": -0.5063357976,
				"element": "C" 
			},
			{
				"x": 0.899014954,
				"y": -0.2563414197,
				"z": -1.8148009335,
				"element": "C" 
			},
			{
				"x": -0.4444558896,
				"y": -0.020574467,
				"z": -2.1141750835,
				"element": "C" 
			},
			{
				"x": -1.4059747214,
				"y": -0.0945592482,
				"z": -1.1080688961,
				"element": "C" 
			},
			{
				"x": -2.9802182145,
				"y": 0.0824890656,
				"z": 0.9818016121,
				"element": "H" 
			},
			{
				"x": 0.614289851,
				"y": -0.8773642407,
				"z": 1.5195533731,
				"element": "H" 
			},
			{
				"x": 2.3214270121,
				"y": -0.7460890885,
				"z": -0.2690444,
				"element": "H" 
			},
			{
				"x": 1.6489839118,
				"y": -0.196453726,
				"z": -2.5978655085,
				"element": "H" 
			},
			{
				"x": -0.7433682875,
				"y": 0.2240232066,
				"z": -3.1289196432,
				"element": "H" 
			},
			{
				"x": -2.4520755824,
				"y": 0.0847784133,
				"z": -1.3422104245,
				"element": "H" 
			}
		],
		 "valence_orbital": [ 
			{
				"type": "occ",
				"energy": -0.33802,
				"method": "rhf"
			},
			{
				"type": "occ",
				"energy": -0.29464,
				"method": "rhf"
			},
			{
				"type": "occ",
				"energy": -0.29181,
				"method": "rhf"
			},
			{
				"type": "occ",
				"energy": -0.27123,
				"method": "rhf"
			},
			{
				"type": "occ",
				"energy": -0.26529,
				"method": "rhf"
			},
			{
				"type": "unocc",
				"energy": -0.07301,
				"method": "rhf"
			},
			{
				"type": "unocc",
				"energy": -0.02282,
				"method": "rhf"
			},
			{
				"type": "unocc",
				"energy": -0.0073,
				"method": "rhf"
			},
			{
				"type": "unocc",
				"energy": 0.01644,
				"method": "rhf"
			},
			{
				"type": "unocc",
				"energy": 0.05806,
				"method": "rhf"
			}
		],
		"cosmo_sigma_profile": { 
			"-0.025": 0.0,
			"-0.024": 0.0,
			"-0.023": 0.0,
			"-0.022": 0.0,
			"-0.021": 0.0,
			"-0.02": 0.0,
			"-0.019": 0.0,
			"-0.018": 0.0,
			"-0.017": 0.0,
			"-0.016": 0.0,
			"-0.015": 0.0,
			"-0.014": 0.0,
			"-0.013": 0.0,
			"-0.012": 1.27066918945,
			"-0.011": 3.11058178098,
			"-0.01": 2.3566516292,
			"-0.009": 1.95664306105,
			"-0.008": 2.01288307321,
			"-0.007": 6.05419577215,
			"-0.006": 11.9213784918,
			"-0.005": 13.32447152,
			"-0.004": 13.0402203663,
			"-0.003": 9.60591083729,
			"-0.002": 10.6224285835,
			"-0.001": 9.98450715553,
			"0.0": 11.2076278101,
			"0.001": 12.5222721439,
			"0.002": 15.0974941923,
			"0.003": 18.3566187264,
			"0.004": 23.6283138343,
			"0.005": 8.48254457536,
			"0.006": 3.13934006418,
			"0.007": 2.99771108496,
			"0.008": 2.86120319927,
			"0.009": 3.33899725323,
			"0.01": 2.16918590708,
			"0.011": 2.6085748288,
			"0.012": 1.51755137352,
			"0.013": 0.0206976530186,
			"0.014": 0.0,
			"0.015": 0.0,
			"0.016": 0.0,
			"0.017": 0.0,
			"0.018": 0.0,
			"0.019": 0.0,
			"0.02": 0.0,
			"0.021": 0.0,
			"0.022": 0.0,
			"0.023": 0.0,
			"0.024": 0.0,
			"0.025": 0.0
		}
	}
}
