{
	 "smiles": "OC(=O)C1=CC(=CN1)S(=O)(=O)N1CCOCC1", 
	 "Tm": 538.15, 
	 "num_atms": 29, 
	 "gaussian": { 
		 "optdone": 1, 
		 "sigma_profile": "yes", 
		 "theory": "DFT", 
		 "functional": "B3LYP", 
		 "basiset": "6-31G**", 
		 "properties": { 
			 "R2extent": 7125.8064, 
			 "electric_dipole_moment_norm": 2.63573773544, 
			 "electric_quadrupole_moment_norm": 17.3398487361, 
			 "total_energy": -1233.90238881, 
			 "HOMO_LUMO_gap": 0.19584, 
			 "cosmo_polarized_energy": -25.68, 
			 "cosmo_cavitation_energy": 33.98, 
			 "cosmo_dispersion_energy": -24.91, 
			 "cosmo_repulsion_energy": 1.9, 
			 "cosmo_total_nonelectrostatic_energy": 10.97, 
			 "SMD_solvation_energy": 5.2 
		},
		"coords": [
			{
				"x": 1.6871461281,
				"y": -5.3877217288,
				"z": 2.1939214532,
				"element": "O" 
			},
			{
				"x": 2.3572269183,
				"y": -4.5600420071,
				"z": 1.3599434081,
				"element": "C" 
			},
			{
				"x": 3.5705223624,
				"y": -4.5348436838,
				"z": 1.3481046199,
				"element": "O" 
			},
			{
				"x": 1.5569988331,
				"y": -3.6976190781,
				"z": 0.4777245921,
				"element": "C" 
			},
			{
				"x": 0.2017164744,
				"y": -3.4730424555,
				"z": 0.2869497104,
				"element": "C" 
			},
			{
				"x": 0.0949616036,
				"y": -2.4975889645,
				"z": -0.7341859675,
				"element": "C" 
			},
			{
				"x": 1.3782568027,
				"y": -2.1551692099,
				"z": -1.1457103953,
				"element": "C" 
			},
			{
				"x": 2.2413102494,
				"y": -2.8839693009,
				"z": -0.4015945329,
				"element": "N" 
			},
			{
				"x": -1.4115127407,
				"y": -1.874725341,
				"z": -1.4122646788,
				"element": "S" 
			},
			{
				"x": -2.4831342984,
				"y": -2.7151999026,
				"z": -0.8598642409,
				"element": "O" 
			},
			{
				"x": -1.2503904427,
				"y": -1.7134840224,
				"z": -2.8608703798,
				"element": "O" 
			},
			{
				"x": -1.4802816179,
				"y": -0.3094201831,
				"z": -0.7674719728,
				"element": "N" 
			},
			{
				"x": -2.0337098307,
				"y": 0.7592970683,
				"z": -1.6352779731,
				"element": "C" 
			},
			{
				"x": -3.3483358467,
				"y": 1.2874417158,
				"z": -1.0713904319,
				"element": "C" 
			},
			{
				"x": -3.2035951345,
				"y": 1.8106182547,
				"z": 0.2501055927,
				"element": "O" 
			},
			{
				"x": -2.1505237626,
				"y": 1.2257123842,
				"z": 1.0066575973,
				"element": "C" 
			},
			{
				"x": -1.9078080517,
				"y": -0.2369678201,
				"z": 0.6469641869,
				"element": "C" 
			},
			{
				"x": 0.7318987507,
				"y": -5.3155318481,
				"z": 2.0567639089,
				"element": "H" 
			},
			{
				"x": -0.6360969839,
				"y": -3.9390032175,
				"z": 0.7864026692,
				"element": "H" 
			},
			{
				"x": 1.7036917316,
				"y": -1.4646337027,
				"z": -1.908470295,
				"element": "H" 
			},
			{
				"x": 3.2523731797,
				"y": -2.8862052957,
				"z": -0.4434558377,
				"element": "H" 
			},
			{
				"x": -1.3000102744,
				"y": 1.5720606507,
				"z": -1.6957191222,
				"element": "H" 
			},
			{
				"x": -2.1740214398,
				"y": 0.3670458299,
				"z": -2.6437371067,
				"element": "H" 
			},
			{
				"x": -3.7217583656,
				"y": 2.1051335438,
				"z": -1.6973457535,
				"element": "H" 
			},
			{
				"x": -4.1016880728,
				"y": 0.4855289862,
				"z": -1.0797315995,
				"element": "H" 
			},
			{
				"x": -1.217170246,
				"y": 1.7951503895,
				"z": 0.8753366209,
				"element": "H" 
			},
			{
				"x": -2.4385573999,
				"y": 1.2977883466,
				"z": 2.0602993892,
				"element": "H" 
			},
			{
				"x": -2.8221650267,
				"y": -0.8183662848,
				"z": 0.818883587,
				"element": "H" 
			},
			{
				"x": -1.1170434991,
				"y": -0.6495431232,
				"z": 1.284032952,
				"element": "H" 
			}
		],
		 "valence_orbital": [ 
			{
				"type": "occ",
				"energy": -0.29632,
				"method": "rhf"
			},
			{
				"type": "occ",
				"energy": -0.29158,
				"method": "rhf"
			},
			{
				"type": "occ",
				"energy": -0.26798,
				"method": "rhf"
			},
			{
				"type": "occ",
				"energy": -0.25981,
				"method": "rhf"
			},
			{
				"type": "occ",
				"energy": -0.24807,
				"method": "rhf"
			},
			{
				"type": "unocc",
				"energy": -0.05223,
				"method": "rhf"
			},
			{
				"type": "unocc",
				"energy": -0.0109,
				"method": "rhf"
			},
			{
				"type": "unocc",
				"energy": 0.03909,
				"method": "rhf"
			},
			{
				"type": "unocc",
				"energy": 0.05637,
				"method": "rhf"
			},
			{
				"type": "unocc",
				"energy": 0.06627,
				"method": "rhf"
			}
		],
		"cosmo_sigma_profile": { 
			"-0.025": 0.0,
			"-0.024": 0.0,
			"-0.023": 0.0,
			"-0.022": 0.0,
			"-0.021": 0.0,
			"-0.02": 0.111395751079,
			"-0.019": 0.900062575526,
			"-0.018": 0.682812196171,
			"-0.017": 1.64514049472,
			"-0.016": 2.50569137305,
			"-0.015": 1.99666650432,
			"-0.014": 1.75805801118,
			"-0.013": 1.69770554263,
			"-0.012": 2.78429539662,
			"-0.011": 2.82537114651,
			"-0.01": 5.07628305954,
			"-0.009": 2.64842035683,
			"-0.008": 3.23941870161,
			"-0.007": 3.8001810881,
			"-0.006": 10.6425561416,
			"-0.005": 22.6401791432,
			"-0.004": 26.5262426408,
			"-0.003": 23.0327865801,
			"-0.002": 14.8375899982,
			"-0.001": 12.0363877276,
			"0.0": 13.6067915225,
			"0.001": 14.3817914298,
			"0.002": 12.213450694,
			"0.003": 8.10061441382,
			"0.004": 6.629446916,
			"0.005": 5.92050950151,
			"0.006": 5.77261314726,
			"0.007": 6.90932210785,
			"0.008": 7.95917100991,
			"0.009": 8.17800457549,
			"0.01": 13.125062213,
			"0.011": 13.1512985693,
			"0.012": 8.31066673156,
			"0.013": 3.16892740666,
			"0.014": 0.2793233001,
			"0.015": 0.0,
			"0.016": 0.0,
			"0.017": 0.0,
			"0.018": 0.0,
			"0.019": 0.0,
			"0.02": 0.0,
			"0.021": 0.0,
			"0.022": 0.0,
			"0.023": 0.0,
			"0.024": 0.0,
			"0.025": 0.0
		}
	}
}
