{
	 "smiles": "CC1=NN=C(Br)S1", 
	 "Tm": 380.15, 
	 "num_atms": 10, 
	 "gaussian": { 
		 "optdone": 1, 
		 "sigma_profile": "yes", 
		 "theory": "DFT", 
		 "functional": "B3LYP", 
		 "basiset": "6-31G**", 
		 "properties": { 
			 "R2extent": 2664.2465, 
			 "electric_dipole_moment_norm": 3.37814356711, 
			 "electric_quadrupole_moment_norm": 6.0306145773, 
			 "total_energy": -3195.18151611, 
			 "HOMO_LUMO_gap": 0.21989, 
			 "cosmo_polarized_energy": -8.16, 
			 "cosmo_cavitation_energy": 18.54, 
			 "cosmo_dispersion_energy": -14.94, 
			 "cosmo_repulsion_energy": 1.21, 
			 "cosmo_total_nonelectrostatic_energy": 4.82, 
			 "SMD_solvation_energy": 0.09 
		},
		"coords": [
			{
				"x": 0.8504345594,
				"y": -0.3552144778,
				"z": -1.5171716271,
				"element": "C" 
			},
			{
				"x": 0.3301710595,
				"y": -0.2255027558,
				"z": -0.1217366541,
				"element": "C" 
			},
			{
				"x": -0.3829158752,
				"y": -1.1442681487,
				"z": 0.4668691492,
				"element": "N" 
			},
			{
				"x": -0.7570056839,
				"y": -0.8217475782,
				"z": 1.7475478961,
				"element": "N" 
			},
			{
				"x": -0.3169315927,
				"y": 0.3408266691,
				"z": 2.1044219261,
				"element": "C" 
			},
			{
				"x": -0.6451681298,
				"y": 1.0954050055,
				"z": 3.7961544915,
				"element": "Br" 
			},
			{
				"x": 0.6196575663,
				"y": 1.1857518697,
				"z": 0.8900548411,
				"element": "S" 
			},
			{
				"x": 0.5277344973,
				"y": -1.3200566525,
				"z": -1.9129492587,
				"element": "H" 
			},
			{
				"x": 1.9438645196,
				"y": -0.3090290575,
				"z": -1.5417916223,
				"element": "H" 
			},
			{
				"x": 0.4649590795,
				"y": 0.4403351263,
				"z": -2.1627991417,
				"element": "H" 
			}
		],
		 "valence_orbital": [ 
			{
				"type": "occ",
				"energy": -0.32185,
				"method": "rhf"
			},
			{
				"type": "occ",
				"energy": -0.30866,
				"method": "rhf"
			},
			{
				"type": "occ",
				"energy": -0.3071,
				"method": "rhf"
			},
			{
				"type": "occ",
				"energy": -0.27699,
				"method": "rhf"
			},
			{
				"type": "occ",
				"energy": -0.27006,
				"method": "rhf"
			},
			{
				"type": "unocc",
				"energy": -0.05017,
				"method": "rhf"
			},
			{
				"type": "unocc",
				"energy": -0.026,
				"method": "rhf"
			},
			{
				"type": "unocc",
				"energy": -0.00281,
				"method": "rhf"
			},
			{
				"type": "unocc",
				"energy": 0.01638,
				"method": "rhf"
			},
			{
				"type": "unocc",
				"energy": 0.09066,
				"method": "rhf"
			}
		],
		"cosmo_sigma_profile": { 
			"-0.025": 0.0,
			"-0.024": 0.0,
			"-0.023": 0.0,
			"-0.022": 0.0,
			"-0.021": 0.0,
			"-0.02": 0.0,
			"-0.019": 0.0,
			"-0.018": 0.0,
			"-0.017": 0.0,
			"-0.016": 0.0,
			"-0.015": 0.0,
			"-0.014": 0.0,
			"-0.013": 0.0,
			"-0.012": 0.0,
			"-0.011": 0.0,
			"-0.01": 0.0,
			"-0.009": 0.0,
			"-0.008": 0.144067302937,
			"-0.007": 6.71589881743,
			"-0.006": 9.57079064268,
			"-0.005": 8.24984006119,
			"-0.004": 10.7421288062,
			"-0.003": 18.8775118271,
			"-0.002": 16.673561891,
			"-0.001": 14.7201178058,
			"0.0": 11.1113108624,
			"0.001": 11.5193989155,
			"0.002": 12.487579156,
			"0.003": 7.40405455737,
			"0.004": 2.8462489224,
			"0.005": 2.37430317235,
			"0.006": 2.11031427955,
			"0.007": 2.5825743697,
			"0.008": 2.39922341624,
			"0.009": 2.52169124868,
			"0.01": 3.37735046758,
			"0.011": 2.46420753691,
			"0.012": 2.94758276885,
			"0.013": 2.07771302864,
			"0.014": 0.94409084952,
			"0.015": 0.0,
			"0.016": 0.0,
			"0.017": 0.0,
			"0.018": 0.0,
			"0.019": 0.0,
			"0.02": 0.0,
			"0.021": 0.0,
			"0.022": 0.0,
			"0.023": 0.0,
			"0.024": 0.0,
			"0.025": 0.0
		}
	}
}
