{
	 "smiles": "OC(=O)C1=C(ON=C1)C1=CC=CS1", 
	 "Tm": 472.15, 
	 "num_atms": 18, 
	 "gaussian": { 
		 "optdone": 1, 
		 "sigma_profile": "yes", 
		 "theory": "DFT", 
		 "functional": "B3LYP", 
		 "basiset": "6-31G**", 
		 "properties": { 
			 "R2extent": 2966.3888, 
			 "electric_dipole_moment_norm": 4.34924366873, 
			 "electric_quadrupole_moment_norm": 6.44993251748, 
			 "total_energy": -986.421103618, 
			 "HOMO_LUMO_gap": 0.15875, 
			 "cosmo_polarized_energy": -12.03, 
			 "cosmo_cavitation_energy": 25.07, 
			 "cosmo_dispersion_energy": -19.25, 
			 "cosmo_repulsion_energy": 1.45, 
			 "cosmo_total_nonelectrostatic_energy": 7.28, 
			 "SMD_solvation_energy": 5.48 
		},
		"coords": [
			{
				"x": -0.870389004,
				"y": -2.4865176809,
				"z": 0.7730605395,
				"element": "O" 
			},
			{
				"x": -1.6090031809,
				"y": -1.5731325098,
				"z": 0.0917060483,
				"element": "C" 
			},
			{
				"x": -2.6857391395,
				"y": -1.8603051014,
				"z": -0.3960006745,
				"element": "O" 
			},
			{
				"x": -1.0127445787,
				"y": -0.2401882201,
				"z": -0.0051748796,
				"element": "C" 
			},
			{
				"x": 0.1612170671,
				"y": 0.3589722119,
				"z": 0.4381044682,
				"element": "C" 
			},
			{
				"x": 0.1524447506,
				"y": 1.6483987895,
				"z": 0.0300594903,
				"element": "O" 
			},
			{
				"x": -1.0205575242,
				"y": 1.9350099995,
				"z": -0.6897208493,
				"element": "N" 
			},
			{
				"x": -1.684452043,
				"y": 0.8131377535,
				"z": -0.6953917284,
				"element": "C" 
			},
			{
				"x": 1.3375372984,
				"y": -0.016116323,
				"z": 1.1873747893,
				"element": "C" 
			},
			{
				"x": 1.6935927348,
				"y": -1.2242653582,
				"z": 1.7557011631,
				"element": "C" 
			},
			{
				"x": 2.9489166086,
				"y": -1.1779284605,
				"z": 2.4156464764,
				"element": "C" 
			},
			{
				"x": 3.5398671497,
				"y": 0.0576345204,
				"z": 2.3471350897,
				"element": "C" 
			},
			{
				"x": 2.5785808015,
				"y": 1.1945523592,
				"z": 1.4758041238,
				"element": "S" 
			},
			{
				"x": -1.3906570182,
				"y": -3.3072748301,
				"z": 0.7506430856,
				"element": "H" 
			},
			{
				"x": -2.6442143242,
				"y": 0.7469266706,
				"z": -1.1902345757,
				"element": "H" 
			},
			{
				"x": 1.0673231839,
				"y": -2.1016383691,
				"z": 1.6931866505,
				"element": "H" 
			},
			{
				"x": 3.3943565247,
				"y": -2.0272466659,
				"z": 2.9201448129,
				"element": "H" 
			},
			{
				"x": 4.4902206936,
				"y": 0.3660812144,
				"z": 2.7613559697,
				"element": "H" 
			}
		],
		 "valence_orbital": [ 
			{
				"type": "occ",
				"energy": -0.31587,
				"method": "rhf"
			},
			{
				"type": "occ",
				"energy": -0.30155,
				"method": "rhf"
			},
			{
				"type": "occ",
				"energy": -0.28979,
				"method": "rhf"
			},
			{
				"type": "occ",
				"energy": -0.26871,
				"method": "rhf"
			},
			{
				"type": "occ",
				"energy": -0.23601,
				"method": "rhf"
			},
			{
				"type": "unocc",
				"energy": -0.07726,
				"method": "rhf"
			},
			{
				"type": "unocc",
				"energy": -0.01445,
				"method": "rhf"
			},
			{
				"type": "unocc",
				"energy": 0.00814,
				"method": "rhf"
			},
			{
				"type": "unocc",
				"energy": 0.017,
				"method": "rhf"
			},
			{
				"type": "unocc",
				"energy": 0.05459,
				"method": "rhf"
			}
		],
		"cosmo_sigma_profile": { 
			"-0.025": 0.0,
			"-0.024": 0.0,
			"-0.023": 0.0,
			"-0.022": 0.0,
			"-0.021": 0.0,
			"-0.02": 0.0,
			"-0.019": 0.288029534365,
			"-0.018": 0.904885031032,
			"-0.017": 1.1650155738,
			"-0.016": 0.319834161017,
			"-0.015": 0.860218520203,
			"-0.014": 0.552385992309,
			"-0.013": 0.604281189745,
			"-0.012": 0.931556754908,
			"-0.011": 1.34542067821,
			"-0.01": 2.1087541058,
			"-0.009": 4.01075879995,
			"-0.008": 4.3234370241,
			"-0.007": 5.63816062728,
			"-0.006": 6.80773571576,
			"-0.005": 7.27202675031,
			"-0.004": 8.37707573935,
			"-0.003": 10.6598212718,
			"-0.002": 18.0464457556,
			"-0.001": 18.7678403843,
			"0.0": 14.0877048497,
			"0.001": 18.3589083792,
			"0.002": 21.4274720806,
			"0.003": 17.6619755785,
			"0.004": 7.75885677978,
			"0.005": 3.97598734788,
			"0.006": 5.25252566664,
			"0.007": 3.44113666466,
			"0.008": 2.57084132064,
			"0.009": 3.21638505819,
			"0.01": 3.75958343798,
			"0.011": 5.78822220068,
			"0.012": 4.03424034269,
			"0.013": 0.752849778981,
			"0.014": 0.00913480911718,
			"0.015": 0.0,
			"0.016": 0.0,
			"0.017": 0.0,
			"0.018": 0.0,
			"0.019": 0.0,
			"0.02": 0.0,
			"0.021": 0.0,
			"0.022": 0.0,
			"0.023": 0.0,
			"0.024": 0.0,
			"0.025": 0.0
		}
	}
}
