{
	 "smiles": "CCOC(=O)C1=CC2=C(N1)C=C(Br)C=C2F", 
	 "Tm": 468.15, 
	 "num_atms": 25, 
	 "gaussian": { 
		 "optdone": 1, 
		 "sigma_profile": "yes", 
		 "theory": "DFT", 
		 "functional": "B3LYP", 
		 "basiset": "6-31G**", 
		 "properties": { 
			 "R2extent": 10201.9821, 
			 "electric_dipole_moment_norm": 2.54565724519, 
			 "electric_quadrupole_moment_norm": 6.70783623757, 
			 "total_energy": -3301.05882887, 
			 "HOMO_LUMO_gap": 0.16324, 
			 "cosmo_polarized_energy": -9.14, 
			 "cosmo_cavitation_energy": 33.01, 
			 "cosmo_dispersion_energy": -24.33, 
			 "cosmo_repulsion_energy": 1.89, 
			 "cosmo_total_nonelectrostatic_energy": 10.56, 
			 "SMD_solvation_energy": 5.68 
		},
		"coords": [
			{
				"x": 1.1672249529,
				"y": -2.3773089172,
				"z": 2.9438426102,
				"element": "C" 
			},
			{
				"x": 0.6941584626,
				"y": -0.9808723679,
				"z": 3.3174822538,
				"element": "C" 
			},
			{
				"x": 0.6637900387,
				"y": -0.1082361371,
				"z": 2.1602609179,
				"element": "O" 
			},
			{
				"x": -0.4530979904,
				"y": -0.1458626842,
				"z": 1.4104596304,
				"element": "C" 
			},
			{
				"x": -1.4273275993,
				"y": -0.8459021861,
				"z": 1.6381282515,
				"element": "O" 
			},
			{
				"x": -0.3854451259,
				"y": 0.7659536918,
				"z": 0.2640437362,
				"element": "C" 
			},
			{
				"x": 0.5879096007,
				"y": 1.6327952657,
				"z": -0.1839532339,
				"element": "C" 
			},
			{
				"x": 0.0674142105,
				"y": 2.24765275,
				"z": -1.3603635966,
				"element": "C" 
			},
			{
				"x": -1.2369548276,
				"y": 1.7167570189,
				"z": -1.5881665569,
				"element": "C" 
			},
			{
				"x": -1.4801255129,
				"y": 0.8194010196,
				"z": -0.5831755247,
				"element": "N" 
			},
			{
				"x": -2.037822413,
				"y": 2.10977811,
				"z": -2.6716549506,
				"element": "C" 
			},
			{
				"x": -1.4956974815,
				"y": 3.0542343775,
				"z": -3.5274925768,
				"element": "C" 
			},
			{
				"x": -2.5246552676,
				"y": 3.640144304,
				"z": -5.0270010088,
				"element": "Br" 
			},
			{
				"x": -0.2111907721,
				"y": 3.6114909881,
				"z": -3.3485013242,
				"element": "C" 
			},
			{
				"x": 0.5469250613,
				"y": 3.2005116809,
				"z": -2.2714244107,
				"element": "C" 
			},
			{
				"x": 1.7748996725,
				"y": 3.7192036988,
				"z": -2.081897398,
				"element": "F" 
			},
			{
				"x": 2.1455399815,
				"y": -2.3402185582,
				"z": 2.4559864767,
				"element": "H" 
			},
			{
				"x": 1.2557442018,
				"y": -2.9912990582,
				"z": 3.8462361942,
				"element": "H" 
			},
			{
				"x": 0.4529806458,
				"y": -2.8584075744,
				"z": 2.2712408049,
				"element": "H" 
			},
			{
				"x": 1.3883056567,
				"y": -0.4911393998,
				"z": 4.0040648507,
				"element": "H" 
			},
			{
				"x": -0.3025114564,
				"y": -1.0064445315,
				"z": 3.7640046342,
				"element": "H" 
			},
			{
				"x": 1.5487638568,
				"y": 1.8005770549,
				"z": 0.2768375158,
				"element": "H" 
			},
			{
				"x": -2.3070410663,
				"y": 0.2606052387,
				"z": -0.4334205452,
				"element": "H" 
			},
			{
				"x": -3.0272388454,
				"y": 1.701245407,
				"z": -2.8366431972,
				"element": "H" 
			},
			{
				"x": 0.1799520167,
				"y": 4.3480408086,
				"z": -4.0382935528,
				"element": "H" 
			}
		],
		 "valence_orbital": [ 
			{
				"type": "occ",
				"energy": -0.29041,
				"method": "rhf"
			},
			{
				"type": "occ",
				"energy": -0.2878,
				"method": "rhf"
			},
			{
				"type": "occ",
				"energy": -0.28493,
				"method": "rhf"
			},
			{
				"type": "occ",
				"energy": -0.24159,
				"method": "rhf"
			},
			{
				"type": "occ",
				"energy": -0.22016,
				"method": "rhf"
			},
			{
				"type": "unocc",
				"energy": -0.05692,
				"method": "rhf"
			},
			{
				"type": "unocc",
				"energy": 0.00189,
				"method": "rhf"
			},
			{
				"type": "unocc",
				"energy": 0.00314,
				"method": "rhf"
			},
			{
				"type": "unocc",
				"energy": 0.01116,
				"method": "rhf"
			},
			{
				"type": "unocc",
				"energy": 0.08581,
				"method": "rhf"
			}
		],
		"cosmo_sigma_profile": { 
			"-0.025": 0.0,
			"-0.024": 0.0,
			"-0.023": 0.0,
			"-0.022": 0.0,
			"-0.021": 0.0,
			"-0.02": 0.0,
			"-0.019": 0.0,
			"-0.018": 0.0,
			"-0.017": 0.0,
			"-0.016": 0.296195810356,
			"-0.015": 1.49201095177,
			"-0.014": 0.414673782053,
			"-0.013": 1.15494489246,
			"-0.012": 1.11037107485,
			"-0.011": 0.8816582089,
			"-0.01": 1.19919509543,
			"-0.009": 1.38745587371,
			"-0.008": 3.66287418624,
			"-0.007": 4.93782183461,
			"-0.006": 5.9901326964,
			"-0.005": 10.8045473935,
			"-0.004": 16.8687276951,
			"-0.003": 19.3377539229,
			"-0.002": 20.239721629,
			"-0.001": 19.3795659491,
			"0.0": 26.1233635011,
			"0.001": 29.6626359216,
			"0.002": 32.3120645496,
			"0.003": 24.8093499964,
			"0.004": 22.9433774685,
			"0.005": 7.10037433868,
			"0.006": 3.58172299844,
			"0.007": 1.94914734692,
			"0.008": 1.27022684836,
			"0.009": 1.57048472515,
			"0.01": 1.98439063255,
			"0.011": 2.89336166823,
			"0.012": 2.15865869313,
			"0.013": 0.0,
			"0.014": 0.0,
			"0.015": 0.0,
			"0.016": 0.0,
			"0.017": 0.0,
			"0.018": 0.0,
			"0.019": 0.0,
			"0.02": 0.0,
			"0.021": 0.0,
			"0.022": 0.0,
			"0.023": 0.0,
			"0.024": 0.0,
			"0.025": 0.0
		}
	}
}
