{
	 "smiles": "CO[C@@]12C(=O)CCC3=CC=CC(OC4=CC=C5C=CC=CC5=C14)=C23", 
	 "Tm": 427.5, 
	 "num_atms": 40, 
	 "gaussian": { 
		 "optdone": 1, 
		 "sigma_profile": "yes", 
		 "theory": "DFT", 
		 "functional": "B3LYP", 
		 "basiset": "6-31G**", 
		 "properties": { 
			 "R2extent": 7026.0341, 
			 "electric_dipole_moment_norm": 1.8847857491, 
			 "electric_quadrupole_moment_norm": 21.220696694, 
			 "total_energy": -1035.53174638, 
			 "HOMO_LUMO_gap": 0.16582, 
			 "cosmo_polarized_energy": -12.77, 
			 "cosmo_cavitation_energy": 40.27, 
			 "cosmo_dispersion_energy": -29.13, 
			 "cosmo_repulsion_energy": 2.13, 
			 "cosmo_total_nonelectrostatic_energy": 13.28, 
			 "SMD_solvation_energy": 7.2 
		},
		"coords": [
			{
				"x": 0.8252521594,
				"y": -1.3774305597,
				"z": 1.4781437786,
				"element": "C" 
			},
			{
				"x": -0.5021055712,
				"y": -1.2791593152,
				"z": 0.9863474218,
				"element": "O" 
			},
			{
				"x": -0.9117898462,
				"y": -0.1508740522,
				"z": 0.1747011182,
				"element": "C" 
			},
			{
				"x": -0.9439954033,
				"y": 1.1720281329,
				"z": 0.9950944282,
				"element": "C" 
			},
			{
				"x": -0.5913497178,
				"y": 2.2387177474,
				"z": 0.5361748557,
				"element": "O" 
			},
			{
				"x": -1.5899094867,
				"y": 1.0664030572,
				"z": 2.3716904345,
				"element": "C" 
			},
			{
				"x": -2.6761759285,
				"y": -0.0281749089,
				"z": 2.4587691829,
				"element": "C" 
			},
			{
				"x": -3.2638071074,
				"y": -0.3500689463,
				"z": 1.1030964769,
				"element": "C" 
			},
			{
				"x": -4.6199652316,
				"y": -0.6319214501,
				"z": 0.9418316567,
				"element": "C" 
			},
			{
				"x": -5.1248588931,
				"y": -1.0022815332,
				"z": -0.3091875155,
				"element": "C" 
			},
			{
				"x": -4.2802681032,
				"y": -1.0971443056,
				"z": -1.407632174,
				"element": "C" 
			},
			{
				"x": -2.9230967869,
				"y": -0.804742235,
				"z": -1.2426659077,
				"element": "C" 
			},
			{
				"x": -2.1345705542,
				"y": -0.9300990869,
				"z": -2.3478164227,
				"element": "O" 
			},
			{
				"x": -0.8233450086,
				"y": -0.5277907135,
				"z": -2.3027013483,
				"element": "C" 
			},
			{
				"x": -0.2003140947,
				"y": -0.6217379935,
				"z": -3.5711676939,
				"element": "C" 
			},
			{
				"x": 1.0984312643,
				"y": -0.2305781386,
				"z": -3.7180493355,
				"element": "C" 
			},
			{
				"x": 1.8214012351,
				"y": 0.2973782663,
				"z": -2.6152954434,
				"element": "C" 
			},
			{
				"x": 3.1625345724,
				"y": 0.7279850977,
				"z": -2.7927817997,
				"element": "C" 
			},
			{
				"x": 3.8837072896,
				"y": 1.2648181409,
				"z": -1.7530361224,
				"element": "C" 
			},
			{
				"x": 3.2678752207,
				"y": 1.3935746567,
				"z": -0.4899312573,
				"element": "C" 
			},
			{
				"x": 1.9695933503,
				"y": 0.9777067372,
				"z": -0.2873315522,
				"element": "C" 
			},
			{
				"x": 1.1870836845,
				"y": 0.4008944482,
				"z": -1.3286833879,
				"element": "C" 
			},
			{
				"x": -0.177033746,
				"y": -0.0630854644,
				"z": -1.164862485,
				"element": "C" 
			},
			{
				"x": -2.4012645662,
				"y": -0.4196824229,
				"z": -0.0114271568,
				"element": "C" 
			},
			{
				"x": 1.1008794976,
				"y": -0.5363649512,
				"z": 2.1305150057,
				"element": "H" 
			},
			{
				"x": 0.8476995705,
				"y": -2.2942987775,
				"z": 2.0733558432,
				"element": "H" 
			},
			{
				"x": 1.5657253813,
				"y": -1.4573944879,
				"z": 0.676055893,
				"element": "H" 
			},
			{
				"x": -0.7975748216,
				"y": 0.8837372573,
				"z": 3.1087798817,
				"element": "H" 
			},
			{
				"x": -1.996489732,
				"y": 2.0581128336,
				"z": 2.5877339332,
				"element": "H" 
			},
			{
				"x": -2.2403058163,
				"y": -0.9472170588,
				"z": 2.8631346134,
				"element": "H" 
			},
			{
				"x": -3.4665944213,
				"y": 0.2845078204,
				"z": 3.1480088607,
				"element": "H" 
			},
			{
				"x": -5.2837529118,
				"y": -0.5714263758,
				"z": 1.799620458,
				"element": "H" 
			},
			{
				"x": -6.1825826414,
				"y": -1.2198209489,
				"z": -0.4244583121,
				"element": "H" 
			},
			{
				"x": -4.639178713,
				"y": -1.389651556,
				"z": -2.388366277,
				"element": "H" 
			},
			{
				"x": -0.7882857369,
				"y": -1.0077531839,
				"z": -4.3966237575,
				"element": "H" 
			},
			{
				"x": 1.5905684891,
				"y": -0.304136648,
				"z": -4.6838804079,
				"element": "H" 
			},
			{
				"x": 3.6064348464,
				"y": 0.6271125911,
				"z": -3.7799510758,
				"element": "H" 
			},
			{
				"x": 4.9077719851,
				"y": 1.5943515159,
				"z": -1.900278229,
				"element": "H" 
			},
			{
				"x": 3.8184524661,
				"y": 1.8348025134,
				"z": 0.3360615346,
				"element": "H" 
			},
			{
				"x": 1.5385038274,
				"y": 1.1264042978,
				"z": 0.6895122845,
				"element": "H" 
			}
		],
		 "valence_orbital": [ 
			{
				"type": "occ",
				"energy": -0.25493,
				"method": "rhf"
			},
			{
				"type": "occ",
				"energy": -0.24958,
				"method": "rhf"
			},
			{
				"type": "occ",
				"energy": -0.23423,
				"method": "rhf"
			},
			{
				"type": "occ",
				"energy": -0.22455,
				"method": "rhf"
			},
			{
				"type": "occ",
				"energy": -0.20659,
				"method": "rhf"
			},
			{
				"type": "unocc",
				"energy": -0.04077,
				"method": "rhf"
			},
			{
				"type": "unocc",
				"energy": -0.03546,
				"method": "rhf"
			},
			{
				"type": "unocc",
				"energy": -0.00757,
				"method": "rhf"
			},
			{
				"type": "unocc",
				"energy": -0.00499,
				"method": "rhf"
			},
			{
				"type": "unocc",
				"energy": 0.01592,
				"method": "rhf"
			}
		],
		"cosmo_sigma_profile": { 
			"-0.025": 0.0,
			"-0.024": 0.0,
			"-0.023": 0.0,
			"-0.022": 0.0,
			"-0.021": 0.0,
			"-0.02": 0.0,
			"-0.019": 0.0,
			"-0.018": 0.0,
			"-0.017": 0.0,
			"-0.016": 0.0,
			"-0.015": 0.0,
			"-0.014": 0.0,
			"-0.013": 0.0,
			"-0.012": 0.0,
			"-0.011": 0.0,
			"-0.01": 0.0302254207678,
			"-0.009": 0.646655290064,
			"-0.008": 0.979859417914,
			"-0.007": 6.28614113778,
			"-0.006": 17.9628374802,
			"-0.005": 26.4794661793,
			"-0.004": 30.3358639514,
			"-0.003": 27.3286392395,
			"-0.002": 28.0682339737,
			"-0.001": 22.7487518347,
			"0.0": 18.362588579,
			"0.001": 22.0344719821,
			"0.002": 24.8391396994,
			"0.003": 26.670312662,
			"0.004": 24.5553295394,
			"0.005": 15.8355683121,
			"0.006": 6.17901951882,
			"0.007": 3.20040389805,
			"0.008": 3.52678618783,
			"0.009": 3.49116905681,
			"0.01": 3.41267358068,
			"0.011": 4.85328741231,
			"0.012": 3.57312597592,
			"0.013": 0.224505108448,
			"0.014": 0.0,
			"0.015": 0.0,
			"0.016": 0.0,
			"0.017": 0.0,
			"0.018": 0.0,
			"0.019": 0.0,
			"0.02": 0.0,
			"0.021": 0.0,
			"0.022": 0.0,
			"0.023": 0.0,
			"0.024": 0.0,
			"0.025": 0.0
		}
	}
}
