{
	 "smiles": "FC1=C(C=CC(Cl)=C1)C(=O)CC#N", 
	 "Tm": 353.15, 
	 "num_atms": 18, 
	 "gaussian": { 
		 "optdone": 1, 
		 "sigma_profile": "yes", 
		 "theory": "DFT", 
		 "functional": "B3LYP", 
		 "basiset": "6-31G**", 
		 "properties": { 
			 "R2extent": 3684.8668, 
			 "electric_dipole_moment_norm": 5.37059300357, 
			 "electric_quadrupole_moment_norm": 24.3574749209, 
			 "total_energy": -1035.94764183, 
			 "HOMO_LUMO_gap": 0.19079, 
			 "cosmo_polarized_energy": -14.22, 
			 "cosmo_cavitation_energy": 26.43, 
			 "cosmo_dispersion_energy": -18.83, 
			 "cosmo_repulsion_energy": 1.47, 
			 "cosmo_total_nonelectrostatic_energy": 9.07, 
			 "SMD_solvation_energy": 6.64 
		},
		"coords": [
			{
				"x": -1.5641690673,
				"y": 1.6154383964,
				"z": -1.0743396852,
				"element": "F" 
			},
			{
				"x": -1.1045494368,
				"y": 0.4072795884,
				"z": -0.6790043685,
				"element": "C" 
			},
			{
				"x": -0.4123028627,
				"y": 0.2773174872,
				"z": 0.5314123306,
				"element": "C" 
			},
			{
				"x": 0.0326999916,
				"y": -1.0144369765,
				"z": 0.869472028,
				"element": "C" 
			},
			{
				"x": -0.1979981694,
				"y": -2.1108537805,
				"z": 0.0511286233,
				"element": "C" 
			},
			{
				"x": -0.8950331744,
				"y": -1.9237642384,
				"z": -1.1472870095,
				"element": "C" 
			},
			{
				"x": -1.1973109928,
				"y": -3.2895838751,
				"z": -2.1940104793,
				"element": "Cl" 
			},
			{
				"x": -1.3556507022,
				"y": -0.664945028,
				"z": -1.5258226831,
				"element": "C" 
			},
			{
				"x": -0.1017979237,
				"y": 1.3807010442,
				"z": 1.4970257799,
				"element": "C" 
			},
			{
				"x": 0.5096081522,
				"y": 1.1479872691,
				"z": 2.5220575285,
				"element": "O" 
			},
			{
				"x": -0.5680900745,
				"y": 2.809182145,
				"z": 1.1707737486,
				"element": "C" 
			},
			{
				"x": -0.1924330579,
				"y": 3.7725309928,
				"z": 2.2037725602,
				"element": "C" 
			},
			{
				"x": 0.0854595006,
				"y": 4.5694662408,
				"z": 2.9986043351,
				"element": "N" 
			},
			{
				"x": 0.5698474766,
				"y": -1.1236822255,
				"z": 1.8054210154,
				"element": "H" 
			},
			{
				"x": 0.1525078577,
				"y": -3.097948177,
				"z": 0.3285587395,
				"element": "H" 
			},
			{
				"x": -1.8963862395,
				"y": -0.5060904728,
				"z": -2.4506015304,
				"element": "H" 
			},
			{
				"x": -0.1506978721,
				"y": 3.1204632969,
				"z": 0.2065264356,
				"element": "H" 
			},
			{
				"x": -1.6555034055,
				"y": 2.8185383132,
				"z": 1.0353126312,
				"element": "H" 
			}
		],
		 "valence_orbital": [ 
			{
				"type": "occ",
				"energy": -0.33088,
				"method": "rhf"
			},
			{
				"type": "occ",
				"energy": -0.32793,
				"method": "rhf"
			},
			{
				"type": "occ",
				"energy": -0.28998,
				"method": "rhf"
			},
			{
				"type": "occ",
				"energy": -0.28508,
				"method": "rhf"
			},
			{
				"type": "occ",
				"energy": -0.27863,
				"method": "rhf"
			},
			{
				"type": "unocc",
				"energy": -0.08784,
				"method": "rhf"
			},
			{
				"type": "unocc",
				"energy": -0.03938,
				"method": "rhf"
			},
			{
				"type": "unocc",
				"energy": 0.00186,
				"method": "rhf"
			},
			{
				"type": "unocc",
				"energy": 0.00226,
				"method": "rhf"
			},
			{
				"type": "unocc",
				"energy": 0.02835,
				"method": "rhf"
			}
		],
		"cosmo_sigma_profile": { 
			"-0.025": 0.0,
			"-0.024": 0.0,
			"-0.023": 0.0,
			"-0.022": 0.0,
			"-0.021": 0.0,
			"-0.02": 0.0,
			"-0.019": 0.0,
			"-0.018": 0.0,
			"-0.017": 0.0,
			"-0.016": 0.0,
			"-0.015": 0.0,
			"-0.014": 0.0,
			"-0.013": 0.0,
			"-0.012": 0.0,
			"-0.011": 1.95223885199,
			"-0.01": 5.74440629204,
			"-0.009": 6.37663290947,
			"-0.008": 6.89161895059,
			"-0.007": 9.80809956127,
			"-0.006": 9.15094523647,
			"-0.005": 8.11326855865,
			"-0.004": 8.58868840191,
			"-0.003": 9.46311619971,
			"-0.002": 15.0755767679,
			"-0.001": 20.6187229216,
			"0.0": 22.6993686978,
			"0.001": 15.074870418,
			"0.002": 12.1706786318,
			"0.003": 16.8941822501,
			"0.004": 7.69586595024,
			"0.005": 3.83367733845,
			"0.006": 3.79151043856,
			"0.007": 4.75555257575,
			"0.008": 6.55747051555,
			"0.009": 6.41389649363,
			"0.01": 6.87881647418,
			"0.011": 4.46117073808,
			"0.012": 2.24550591597,
			"0.013": 1.26938350233,
			"0.014": 0.00976101391697,
			"0.015": 0.0,
			"0.016": 0.0,
			"0.017": 0.0,
			"0.018": 0.0,
			"0.019": 0.0,
			"0.02": 0.0,
			"0.021": 0.0,
			"0.022": 0.0,
			"0.023": 0.0,
			"0.024": 0.0,
			"0.025": 0.0
		}
	}
}
