{
	 "smiles": "CN1N=C(C)C(Br)=C1C", 
	 "Tm": 308.15, 
	 "num_atms": 18, 
	 "gaussian": { 
		 "optdone": 1, 
		 "sigma_profile": "yes", 
		 "theory": "DFT", 
		 "functional": "B3LYP", 
		 "basiset": "6-31G**", 
		 "properties": { 
			 "R2extent": 2832.7912, 
			 "electric_dipole_moment_norm": 2.71541401816, 
			 "electric_quadrupole_moment_norm": 7.8928421763, 
			 "total_energy": -2914.96250004, 
			 "HOMO_LUMO_gap": 0.2416, 
			 "cosmo_polarized_energy": -7.01, 
			 "cosmo_cavitation_energy": 23.55, 
			 "cosmo_dispersion_energy": -17.52, 
			 "cosmo_repulsion_energy": 1.44, 
			 "cosmo_total_nonelectrostatic_energy": 7.47, 
			 "SMD_solvation_energy": 2.3 
		},
		"coords": [
			{
				"x": 2.1366726764,
				"y": 0.8394337785,
				"z": -1.3470337856,
				"element": "C" 
			},
			{
				"x": 1.3405466876,
				"y": 0.4819294857,
				"z": -0.1894768135,
				"element": "N" 
			},
			{
				"x": 0.8282371682,
				"y": -0.771913747,
				"z": -0.0945429867,
				"element": "N" 
			},
			{
				"x": 0.1560903555,
				"y": -0.8013635992,
				"z": 1.05644217,
				"element": "C" 
			},
			{
				"x": -0.5563019379,
				"y": -2.0337972637,
				"z": 1.512798469,
				"element": "C" 
			},
			{
				"x": 0.2491710236,
				"y": 0.4573022109,
				"z": 1.6940255928,
				"element": "C" 
			},
			{
				"x": -0.5219225118,
				"y": 0.946624134,
				"z": 3.347278045,
				"element": "Br" 
			},
			{
				"x": 1.016733454,
				"y": 1.2699100602,
				"z": 0.8747739551,
				"element": "C" 
			},
			{
				"x": 1.452097887,
				"y": 2.6897400777,
				"z": 1.0192160977,
				"element": "C" 
			},
			{
				"x": 1.6792816729,
				"y": 1.6652294424,
				"z": -1.9021006984,
				"element": "H" 
			},
			{
				"x": 2.1820480734,
				"y": -0.0421636332,
				"z": -1.9853810483,
				"element": "H" 
			},
			{
				"x": 3.1520035574,
				"y": 1.1277284368,
				"z": -1.0551009244,
				"element": "H" 
			},
			{
				"x": -0.1733993912,
				"y": -2.3800972288,
				"z": 2.47897499,
				"element": "H" 
			},
			{
				"x": -0.4207799121,
				"y": -2.829378166,
				"z": 0.7773114602,
				"element": "H" 
			},
			{
				"x": -1.629097618,
				"y": -1.8503278871,
				"z": 1.6374602279,
				"element": "H" 
			},
			{
				"x": 1.0629195214,
				"y": 3.0954587708,
				"z": 1.9550095864,
				"element": "H" 
			},
			{
				"x": 1.0817709794,
				"y": 3.3155658759,
				"z": 0.1985935034,
				"element": "H" 
			},
			{
				"x": 2.5445283141,
				"y": 2.7817192522,
				"z": 1.0383521594,
				"element": "H" 
			}
		],
		 "valence_orbital": [ 
			{
				"type": "occ",
				"energy": -0.31435,
				"method": "rhf"
			},
			{
				"type": "occ",
				"energy": -0.29647,
				"method": "rhf"
			},
			{
				"type": "occ",
				"energy": -0.27398,
				"method": "rhf"
			},
			{
				"type": "occ",
				"energy": -0.23789,
				"method": "rhf"
			},
			{
				"type": "occ",
				"energy": -0.22239,
				"method": "rhf"
			},
			{
				"type": "unocc",
				"energy": 0.01921,
				"method": "rhf"
			},
			{
				"type": "unocc",
				"energy": 0.02622,
				"method": "rhf"
			},
			{
				"type": "unocc",
				"energy": 0.06681,
				"method": "rhf"
			},
			{
				"type": "unocc",
				"energy": 0.08312,
				"method": "rhf"
			},
			{
				"type": "unocc",
				"energy": 0.11808,
				"method": "rhf"
			}
		],
		"cosmo_sigma_profile": { 
			"-0.025": 0.0,
			"-0.024": 0.0,
			"-0.023": 0.0,
			"-0.022": 0.0,
			"-0.021": 0.0,
			"-0.02": 0.0,
			"-0.019": 0.0,
			"-0.018": 0.0,
			"-0.017": 0.0,
			"-0.016": 0.0,
			"-0.015": 0.0,
			"-0.014": 0.0,
			"-0.013": 0.0,
			"-0.012": 0.0,
			"-0.011": 0.0,
			"-0.01": 0.0,
			"-0.009": 0.0,
			"-0.008": 0.0,
			"-0.007": 0.578742505519,
			"-0.006": 10.3550436968,
			"-0.005": 13.0160983852,
			"-0.004": 17.9900500039,
			"-0.003": 20.6916153714,
			"-0.002": 17.9412856765,
			"-0.001": 17.6903390303,
			"0.0": 17.1296568238,
			"0.001": 10.4932960097,
			"0.002": 10.3451144814,
			"0.003": 13.6421823844,
			"0.004": 15.7563133492,
			"0.005": 10.5724125803,
			"0.006": 2.699995294,
			"0.007": 1.54877414214,
			"0.008": 1.17528615366,
			"0.009": 1.1474982832,
			"0.01": 1.49253705223,
			"0.011": 1.14480239127,
			"0.012": 1.23978770333,
			"0.013": 1.09084201347,
			"0.014": 0.747700342542,
			"0.015": 0.736500566591,
			"0.016": 0.299518918038,
			"0.017": 0.0,
			"0.018": 0.0,
			"0.019": 0.0,
			"0.02": 0.0,
			"0.021": 0.0,
			"0.022": 0.0,
			"0.023": 0.0,
			"0.024": 0.0,
			"0.025": 0.0
		}
	}
}
