{
	 "smiles": "CC1=C(C(=NN1)C(F)(F)C(F)(F)C(F)(F)F)[N+]([O-])=O", 
	 "Tm": 370.65, 
	 "num_atms": 23, 
	 "gaussian": { 
		 "optdone": 1, 
		 "sigma_profile": "yes", 
		 "theory": "DFT", 
		 "functional": "B3LYP", 
		 "basiset": "6-31G**", 
		 "properties": { 
			 "R2extent": 4590.0117, 
			 "electric_dipole_moment_norm": 6.42058033047, 
			 "electric_quadrupole_moment_norm": 23.066121614, 
			 "total_energy": -1282.5990823, 
			 "HOMO_LUMO_gap": 0.20258, 
			 "cosmo_polarized_energy": -15.95, 
			 "cosmo_cavitation_energy": 31.13, 
			 "cosmo_dispersion_energy": -21.36, 
			 "cosmo_repulsion_energy": 1.52, 
			 "cosmo_total_nonelectrostatic_energy": 11.3, 
			 "SMD_solvation_energy": 8.72 
		},
		"coords": [
			{
				"x": 0.1406712093,
				"y": -2.9882592778,
				"z": -3.5210626108,
				"element": "C" 
			},
			{
				"x": 0.1988235252,
				"y": -2.2805740387,
				"z": -2.2099083631,
				"element": "C" 
			},
			{
				"x": 0.4760736693,
				"y": -0.9616347264,
				"z": -1.8499779174,
				"element": "C" 
			},
			{
				"x": 0.3843134919,
				"y": -0.9104907925,
				"z": -0.4286246059,
				"element": "C" 
			},
			{
				"x": 0.0661598807,
				"y": -2.102511098,
				"z": 0.0544609516,
				"element": "N" 
			},
			{
				"x": -0.0382439735,
				"y": -2.8969022402,
				"z": -1.0313085867,
				"element": "N" 
			},
			{
				"x": 0.5730833784,
				"y": 0.2195583894,
				"z": 0.557445458,
				"element": "C" 
			},
			{
				"x": 0.7969908768,
				"y": -0.3002966002,
				"z": 1.7911517739,
				"element": "F" 
			},
			{
				"x": 1.6491866911,
				"y": 0.9788497058,
				"z": 0.228186232,
				"element": "F" 
			},
			{
				"x": -0.680264019,
				"y": 1.1344054542,
				"z": 0.6794344187,
				"element": "C" 
			},
			{
				"x": -1.1689312428,
				"y": 1.41533968,
				"z": -0.5515009269,
				"element": "F" 
			},
			{
				"x": -1.6239554855,
				"y": 0.445909582,
				"z": 1.3656878482,
				"element": "F" 
			},
			{
				"x": -0.444636371,
				"y": 2.4790974178,
				"z": 1.40881846,
				"element": "C" 
			},
			{
				"x": 0.1682508301,
				"y": 2.2753557951,
				"z": 2.5835226664,
				"element": "F" 
			},
			{
				"x": -1.6285012705,
				"y": 3.065207484,
				"z": 1.6393789735,
				"element": "F" 
			},
			{
				"x": 0.3003506232,
				"y": 3.2975072378,
				"z": 0.6609532463,
				"element": "F" 
			},
			{
				"x": 0.7801642723,
				"y": 0.0771552045,
				"z": -2.7927705397,
				"element": "N" 
			},
			{
				"x": 0.8621385373,
				"y": -0.2577217479,
				"z": -3.9814880996,
				"element": "O" 
			},
			{
				"x": 0.9349758155,
				"y": 1.2203214812,
				"z": -2.3730708798,
				"element": "O" 
			},
			{
				"x": -0.1505305491,
				"y": -4.0334215647,
				"z": -3.3821951501,
				"element": "H" 
			},
			{
				"x": -0.5746022929,
				"y": -2.5019990312,
				"z": -4.1884536375,
				"element": "H" 
			},
			{
				"x": 1.1114147008,
				"y": -2.9499324555,
				"z": -4.021371515,
				"element": "H" 
			},
			{
				"x": -0.2746322974,
				"y": -3.8698638588,
				"z": -0.8966071962,
				"element": "H" 
			}
		],
		 "valence_orbital": [ 
			{
				"type": "occ",
				"energy": -0.31402,
				"method": "rhf"
			},
			{
				"type": "occ",
				"energy": -0.31241,
				"method": "rhf"
			},
			{
				"type": "occ",
				"energy": -0.31088,
				"method": "rhf"
			},
			{
				"type": "occ",
				"energy": -0.29568,
				"method": "rhf"
			},
			{
				"type": "occ",
				"energy": -0.29105,
				"method": "rhf"
			},
			{
				"type": "unocc",
				"energy": -0.08847,
				"method": "rhf"
			},
			{
				"type": "unocc",
				"energy": -0.02913,
				"method": "rhf"
			},
			{
				"type": "unocc",
				"energy": 0.02809,
				"method": "rhf"
			},
			{
				"type": "unocc",
				"energy": 0.04222,
				"method": "rhf"
			},
			{
				"type": "unocc",
				"energy": 0.05466,
				"method": "rhf"
			}
		],
		"cosmo_sigma_profile": { 
			"-0.025": 0.0,
			"-0.024": 0.0,
			"-0.023": 0.0,
			"-0.022": 0.0,
			"-0.021": 0.0,
			"-0.02": 0.0,
			"-0.019": 0.635302709434,
			"-0.018": 1.81528729254,
			"-0.017": 1.19765051947,
			"-0.016": 1.0909564445,
			"-0.015": 1.37669309348,
			"-0.014": 1.67750167005,
			"-0.013": 0.949292902816,
			"-0.012": 0.885726534452,
			"-0.011": 1.63784209893,
			"-0.01": 1.42658595071,
			"-0.009": 0.718726404738,
			"-0.008": 1.38742041999,
			"-0.007": 2.56134806129,
			"-0.006": 8.04054924676,
			"-0.005": 9.46365739816,
			"-0.004": 13.0905220702,
			"-0.003": 17.824088501,
			"-0.002": 15.1478318542,
			"-0.001": 13.836418531,
			"0.0": 19.2057102642,
			"0.001": 42.0990458274,
			"0.002": 35.4048588116,
			"0.003": 13.2620429369,
			"0.004": 7.98602684385,
			"0.005": 5.69190673785,
			"0.006": 5.66595425708,
			"0.007": 7.44790081648,
			"0.008": 6.43590829124,
			"0.009": 5.54772612414,
			"0.01": 3.70900876542,
			"0.011": 1.64966642876,
			"0.012": 0.607665902701,
			"0.013": 0.0847921178068,
			"0.014": 0.0,
			"0.015": 0.0,
			"0.016": 0.0,
			"0.017": 0.0,
			"0.018": 0.0,
			"0.019": 0.0,
			"0.02": 0.0,
			"0.021": 0.0,
			"0.022": 0.0,
			"0.023": 0.0,
			"0.024": 0.0,
			"0.025": 0.0
		}
	}
}
