{
	 "smiles": "[O-][N+](=O)C1=CC=C(C=C1)C1=CSC(=N1)C(=C/C1=CC=C(Cl)C=C1Cl)C#N", 
	 "Tm": 483.15, 
	 "num_atms": 35, 
	 "gaussian": { 
		 "optdone": 1, 
		 "sigma_profile": "yes", 
		 "theory": "DFT", 
		 "functional": "B3LYP", 
		 "basiset": "6-31G**", 
		 "properties": { 
			 "R2extent": 14647.2791, 
			 "electric_dipole_moment_norm": 1.90463637737, 
			 "electric_quadrupole_moment_norm": 53.2859078806, 
			 "total_energy": -2324.47694364, 
			 "HOMO_LUMO_gap": 0.13222, 
			 "cosmo_polarized_energy": -16.65, 
			 "cosmo_cavitation_energy": 48.23, 
			 "cosmo_dispersion_energy": -33.11, 
			 "cosmo_repulsion_energy": 2.44, 
			 "cosmo_total_nonelectrostatic_energy": 17.56, 
			 "SMD_solvation_energy": 10.25 
		},
		"coords": [
			{
				"x": 1.2948306731,
				"y": 5.2371684051,
				"z": -1.5977999797,
				"element": "O" 
			},
			{
				"x": 2.3197821146,
				"y": 4.5565246794,
				"z": -1.5633571462,
				"element": "N" 
			},
			{
				"x": 3.4368570818,
				"y": 4.9521222885,
				"z": -1.8971873048,
				"element": "O" 
			},
			{
				"x": 2.2018026617,
				"y": 3.1710023651,
				"z": -1.0888634458,
				"element": "C" 
			},
			{
				"x": 3.3453375695,
				"y": 2.3752504612,
				"z": -1.0314436566,
				"element": "C" 
			},
			{
				"x": 3.2283993336,
				"y": 1.0671780398,
				"z": -0.579522639,
				"element": "C" 
			},
			{
				"x": 1.9815490118,
				"y": 0.5456036767,
				"z": -0.1882484734,
				"element": "C" 
			},
			{
				"x": 0.8484202529,
				"y": 1.3766353434,
				"z": -0.2554340884,
				"element": "C" 
			},
			{
				"x": 0.9524325837,
				"y": 2.6878663092,
				"z": -0.7047782756,
				"element": "C" 
			},
			{
				"x": 1.8406882607,
				"y": -0.8441750312,
				"z": 0.2842558133,
				"element": "C" 
			},
			{
				"x": 2.80345247,
				"y": -1.8298070102,
				"z": 0.2305120913,
				"element": "C" 
			},
			{
				"x": 2.2118744203,
				"y": -3.3070614327,
				"z": 0.8784442356,
				"element": "S" 
			},
			{
				"x": 0.6659317299,
				"y": -2.5049499838,
				"z": 1.1957765394,
				"element": "C" 
			},
			{
				"x": 0.6459117319,
				"y": -1.2523388897,
				"z": 0.8317577699,
				"element": "N" 
			},
			{
				"x": -0.4514551159,
				"y": -3.2671360076,
				"z": 1.7703659689,
				"element": "C" 
			},
			{
				"x": -1.7160070619,
				"y": -2.8556062033,
				"z": 2.0854351471,
				"element": "C" 
			},
			{
				"x": -2.3379078947,
				"y": -1.5344600705,
				"z": 2.1201626627,
				"element": "C" 
			},
			{
				"x": -1.6562684933,
				"y": -0.3733894404,
				"z": 2.5367994934,
				"element": "C" 
			},
			{
				"x": -2.2974363905,
				"y": 0.8512205344,
				"z": 2.6678185143,
				"element": "C" 
			},
			{
				"x": -3.6587230258,
				"y": 0.941600219,
				"z": 2.3701258793,
				"element": "C" 
			},
			{
				"x": -4.478858375,
				"y": 2.4787493739,
				"z": 2.5161812711,
				"element": "Cl" 
			},
			{
				"x": -4.3804546583,
				"y": -0.1775222299,
				"z": 1.9606278302,
				"element": "C" 
			},
			{
				"x": -3.7191754996,
				"y": -1.3981386468,
				"z": 1.8526440275,
				"element": "C" 
			},
			{
				"x": -4.6677234123,
				"y": -2.7805896647,
				"z": 1.3339671902,
				"element": "Cl" 
			},
			{
				"x": -0.1874515718,
				"y": -4.6696278854,
				"z": 1.9613569942,
				"element": "C" 
			},
			{
				"x": 0.0419818095,
				"y": -5.7992897815,
				"z": 2.1204469211,
				"element": "N" 
			},
			{
				"x": 4.2984586772,
				"y": 2.7906694222,
				"z": -1.333317388,
				"element": "H" 
			},
			{
				"x": 4.1210982833,
				"y": 0.4533904246,
				"z": -0.5208069768,
				"element": "H" 
			},
			{
				"x": -0.1128146878,
				"y": 0.9783713051,
				"z": 0.046961867,
				"element": "H" 
			},
			{
				"x": 0.0889332772,
				"y": 3.3384330761,
				"z": -0.7654452458,
				"element": "H" 
			},
			{
				"x": 3.8070205898,
				"y": -1.7703464639,
				"z": -0.1642852187,
				"element": "H" 
			},
			{
				"x": -2.386325757,
				"y": -3.6628050997,
				"z": 2.3677228909,
				"element": "H" 
			},
			{
				"x": -0.6029760398,
				"y": -0.4440557453,
				"z": 2.7699531173,
				"element": "H" 
			},
			{
				"x": -1.7531002449,
				"y": 1.7266066196,
				"z": 3.0026357399,
				"element": "H" 
			},
			{
				"x": -5.4358843037,
				"y": -0.1040929565,
				"z": 1.7303378746,
				"element": "H" 
			}
		],
		 "valence_orbital": [ 
			{
				"type": "occ",
				"energy": -0.2937,
				"method": "rhf"
			},
			{
				"type": "occ",
				"energy": -0.28546,
				"method": "rhf"
			},
			{
				"type": "occ",
				"energy": -0.27955,
				"method": "rhf"
			},
			{
				"type": "occ",
				"energy": -0.26733,
				"method": "rhf"
			},
			{
				"type": "occ",
				"energy": -0.24184,
				"method": "rhf"
			},
			{
				"type": "unocc",
				"energy": -0.10962,
				"method": "rhf"
			},
			{
				"type": "unocc",
				"energy": -0.099,
				"method": "rhf"
			},
			{
				"type": "unocc",
				"energy": -0.04842,
				"method": "rhf"
			},
			{
				"type": "unocc",
				"energy": -0.0419,
				"method": "rhf"
			},
			{
				"type": "unocc",
				"energy": -0.0326,
				"method": "rhf"
			}
		],
		"cosmo_sigma_profile": { 
			"-0.025": 0.0,
			"-0.024": 0.0,
			"-0.023": 0.0,
			"-0.022": 0.0,
			"-0.021": 0.0,
			"-0.02": 0.0,
			"-0.019": 0.0,
			"-0.018": 0.0,
			"-0.017": 0.0,
			"-0.016": 0.0,
			"-0.015": 0.0,
			"-0.014": 0.0,
			"-0.013": 0.0,
			"-0.012": 0.0611386119494,
			"-0.011": 1.81521353171,
			"-0.01": 2.67244505481,
			"-0.009": 3.70182820605,
			"-0.008": 8.70225873337,
			"-0.007": 12.0160521507,
			"-0.006": 14.6673006691,
			"-0.005": 16.4968582399,
			"-0.004": 18.569271085,
			"-0.003": 23.8256855474,
			"-0.002": 32.2928863306,
			"-0.001": 39.6529800845,
			"0.0": 57.0450695882,
			"0.001": 49.2325632967,
			"0.002": 27.4638082403,
			"0.003": 21.1980056121,
			"0.004": 15.3658868708,
			"0.005": 7.39303881505,
			"0.006": 6.37532947951,
			"0.007": 9.73277741048,
			"0.008": 11.6644564463,
			"0.009": 7.48488477493,
			"0.01": 5.77478897978,
			"0.011": 2.78663127836,
			"0.012": 2.05038897774,
			"0.013": 0.213637726526,
			"0.014": 0.0,
			"0.015": 0.0,
			"0.016": 0.0,
			"0.017": 0.0,
			"0.018": 0.0,
			"0.019": 0.0,
			"0.02": 0.0,
			"0.021": 0.0,
			"0.022": 0.0,
			"0.023": 0.0,
			"0.024": 0.0,
			"0.025": 0.0
		}
	}
}
