{
	 "smiles": "O=C1NC=NC2=C1SC(=N2)N1CCOCC1", 
	 "Tm": 671.15, 
	 "num_atms": 26, 
	 "gaussian": { 
		 "optdone": 1, 
		 "sigma_profile": "yes", 
		 "theory": "DFT", 
		 "functional": "B3LYP", 
		 "basiset": "6-31G**", 
		 "properties": { 
			 "R2extent": 6438.6657, 
			 "electric_dipole_moment_norm": 1.50112752623, 
			 "electric_quadrupole_moment_norm": 22.5555234617, 
			 "total_energy": -1116.62936837, 
			 "HOMO_LUMO_gap": 0.16951, 
			 "cosmo_polarized_energy": -20.62, 
			 "cosmo_cavitation_energy": 30.69, 
			 "cosmo_dispersion_energy": -23.92, 
			 "cosmo_repulsion_energy": 1.8, 
			 "cosmo_total_nonelectrostatic_energy": 8.57, 
			 "SMD_solvation_energy": 2.01 
		},
		"coords": [
			{
				"x": 1.9886364063,
				"y": 3.0257479481,
				"z": 4.2347753648,
				"element": "O" 
			},
			{
				"x": 1.059217365,
				"y": 3.2444141454,
				"z": 3.4679470678,
				"element": "C" 
			},
			{
				"x": 0.5800898413,
				"y": 4.5664628129,
				"z": 3.2535949214,
				"element": "N" 
			},
			{
				"x": -0.4491407557,
				"y": 4.8927299902,
				"z": 2.4185183942,
				"element": "C" 
			},
			{
				"x": -1.1295842386,
				"y": 4.0464010738,
				"z": 1.7072940596,
				"element": "N" 
			},
			{
				"x": -0.7456138845,
				"y": 2.7332199494,
				"z": 1.8402903338,
				"element": "C" 
			},
			{
				"x": 0.2957077325,
				"y": 2.3280253863,
				"z": 2.6744640737,
				"element": "C" 
			},
			{
				"x": 0.4992670231,
				"y": 0.5963973737,
				"z": 2.6003904775,
				"element": "S" 
			},
			{
				"x": -0.8457057826,
				"y": 0.5747750809,
				"z": 1.4206536458,
				"element": "C" 
			},
			{
				"x": -1.3826167744,
				"y": 1.7412792078,
				"z": 1.147271276,
				"element": "N" 
			},
			{
				"x": -1.2486237259,
				"y": -0.5861786752,
				"z": 0.8398085524,
				"element": "N" 
			},
			{
				"x": -0.7985449317,
				"y": -1.8937076766,
				"z": 1.3124080899,
				"element": "C" 
			},
			{
				"x": -0.8113092521,
				"y": -2.8896635853,
				"z": 0.150149196,
				"element": "C" 
			},
			{
				"x": -2.0789775284,
				"y": -2.9319489717,
				"z": -0.4830562161,
				"element": "O" 
			},
			{
				"x": -2.4163623317,
				"y": -1.6589430017,
				"z": -1.0213093779,
				"element": "C" 
			},
			{
				"x": -2.5021180482,
				"y": -0.5994297898,
				"z": 0.0732759029,
				"element": "C" 
			},
			{
				"x": 1.0629800835,
				"y": 5.2869188975,
				"z": 3.7771209774,
				"element": "H" 
			},
			{
				"x": -0.694124214,
				"y": 5.9514438118,
				"z": 2.3668014156,
				"element": "H" 
			},
			{
				"x": 0.2188501681,
				"y": -1.8140662345,
				"z": 1.706117975,
				"element": "H" 
			},
			{
				"x": -1.4530778411,
				"y": -2.2542752053,
				"z": 2.1204355102,
				"element": "H" 
			},
			{
				"x": -0.0293894986,
				"y": -2.6136513,
				"z": -0.5758695103,
				"element": "H" 
			},
			{
				"x": -0.605999495,
				"y": -3.8980899672,
				"z": 0.5196783103,
				"element": "H" 
			},
			{
				"x": -3.386666535,
				"y": -1.7722338057,
				"z": -1.5122737567,
				"element": "H" 
			},
			{
				"x": -1.6724124469,
				"y": -1.3569835617,
				"z": -1.7758604865,
				"element": "H" 
			},
			{
				"x": -3.3428823466,
				"y": -0.8264450303,
				"z": 0.7454616801,
				"element": "H" 
			},
			{
				"x": -2.6571989889,
				"y": 0.3953011272,
				"z": -0.3454878769,
				"element": "H" 
			}
		],
		 "valence_orbital": [ 
			{
				"type": "occ",
				"energy": -0.27931,
				"method": "rhf"
			},
			{
				"type": "occ",
				"energy": -0.27395,
				"method": "rhf"
			},
			{
				"type": "occ",
				"energy": -0.25795,
				"method": "rhf"
			},
			{
				"type": "occ",
				"energy": -0.25201,
				"method": "rhf"
			},
			{
				"type": "occ",
				"energy": -0.21147,
				"method": "rhf"
			},
			{
				"type": "unocc",
				"energy": -0.04196,
				"method": "rhf"
			},
			{
				"type": "unocc",
				"energy": -0.00752,
				"method": "rhf"
			},
			{
				"type": "unocc",
				"energy": 0.00795,
				"method": "rhf"
			},
			{
				"type": "unocc",
				"energy": 0.03584,
				"method": "rhf"
			},
			{
				"type": "unocc",
				"energy": 0.06402,
				"method": "rhf"
			}
		],
		"cosmo_sigma_profile": { 
			"-0.025": 0.0,
			"-0.024": 0.0,
			"-0.023": 0.0,
			"-0.022": 0.0,
			"-0.021": 0.0,
			"-0.02": 0.0,
			"-0.019": 0.0,
			"-0.018": 0.0,
			"-0.017": 0.929061477818,
			"-0.016": 1.72429022275,
			"-0.015": 1.34293395915,
			"-0.014": 1.21673371423,
			"-0.013": 1.09988548831,
			"-0.012": 1.28119781252,
			"-0.011": 1.84320097545,
			"-0.01": 2.77595911324,
			"-0.009": 2.3053813334,
			"-0.008": 2.65875696558,
			"-0.007": 4.43111737229,
			"-0.006": 14.0536168001,
			"-0.005": 26.5383740832,
			"-0.004": 22.8010066991,
			"-0.003": 17.7115168348,
			"-0.002": 15.6988429763,
			"-0.001": 15.3103747991,
			"0.0": 15.815890997,
			"0.001": 14.2960940027,
			"0.002": 12.7543804566,
			"0.003": 8.36125398001,
			"0.004": 6.81656179198,
			"0.005": 5.44933125671,
			"0.006": 4.7313218992,
			"0.007": 4.99825461686,
			"0.008": 4.14520739096,
			"0.009": 4.63134755447,
			"0.01": 3.19847261799,
			"0.011": 5.43323395772,
			"0.012": 5.86215613902,
			"0.013": 10.0368723663,
			"0.014": 4.72735883382,
			"0.015": 1.03078837455,
			"0.016": 0.273580277867,
			"0.017": 0.0,
			"0.018": 0.0,
			"0.019": 0.0,
			"0.02": 0.0,
			"0.021": 0.0,
			"0.022": 0.0,
			"0.023": 0.0,
			"0.024": 0.0,
			"0.025": 0.0
		}
	}
}
