{
	 "smiles": "OC(=O)C1=C(C=NC(Cl)=C1)[N+]([O-])=O", 
	 "Tm": 452.15, 
	 "num_atms": 16, 
	 "gaussian": { 
		 "optdone": 1, 
		 "sigma_profile": "yes", 
		 "theory": "DFT", 
		 "functional": "B3LYP", 
		 "basiset": "6-31G**", 
		 "properties": { 
			 "R2extent": 3412.2421, 
			 "electric_dipole_moment_norm": 2.28684926045, 
			 "electric_quadrupole_moment_norm": 9.29721838993, 
			 "total_energy": -1100.92412527, 
			 "HOMO_LUMO_gap": 0.1583, 
			 "cosmo_polarized_energy": -12.94, 
			 "cosmo_cavitation_energy": 23.87, 
			 "cosmo_dispersion_energy": -18.06, 
			 "cosmo_repulsion_energy": 1.41, 
			 "cosmo_total_nonelectrostatic_energy": 7.21, 
			 "SMD_solvation_energy": 5.74 
		},
		"coords": [
			{
				"x": -1.2284914565,
				"y": 2.1704246328,
				"z": -2.2762683926,
				"element": "O" 
			},
			{
				"x": -2.0674874615,
				"y": 1.53053965,
				"z": -1.4773885634,
				"element": "C" 
			},
			{
				"x": -3.2382514331,
				"y": 1.8262260789,
				"z": -1.400778794,
				"element": "O" 
			},
			{
				"x": -1.5376674505,
				"y": 0.4028184249,
				"z": -0.568915472,
				"element": "C" 
			},
			{
				"x": -0.4273635974,
				"y": -0.4641047523,
				"z": -0.6922490629,
				"element": "C" 
			},
			{
				"x": -0.2205214532,
				"y": -1.4756134531,
				"z": 0.2560040448,
				"element": "C" 
			},
			{
				"x": -1.0067696728,
				"y": -1.6647052594,
				"z": 1.3116112707,
				"element": "N" 
			},
			{
				"x": -2.0516644753,
				"y": -0.8572145324,
				"z": 1.4301061967,
				"element": "C" 
			},
			{
				"x": -3.0916515751,
				"y": -1.1144833277,
				"z": 2.8049754895,
				"element": "Cl" 
			},
			{
				"x": -2.3666185498,
				"y": 0.1609955754,
				"z": 0.5288304474,
				"element": "C" 
			},
			{
				"x": 0.5896415286,
				"y": -0.4210458319,
				"z": -1.7509984578,
				"element": "N" 
			},
			{
				"x": 1.1530339016,
				"y": -1.4669115458,
				"z": -2.0349151857,
				"element": "O" 
			},
			{
				"x": 0.8767032973,
				"y": 0.6684458791,
				"z": -2.2762627465,
				"element": "O" 
			},
			{
				"x": -0.3290710201,
				"y": 1.7685033195,
				"z": -2.2420055868,
				"element": "H" 
			},
			{
				"x": 0.6282098838,
				"y": -2.141955883,
				"z": 0.144749762,
				"element": "H" 
			},
			{
				"x": -3.2571304662,
				"y": 0.764581025,
				"z": 0.6456050507,
				"element": "H" 
			}
		],
		 "valence_orbital": [ 
			{
				"type": "occ",
				"energy": -0.34327,
				"method": "rhf"
			},
			{
				"type": "occ",
				"energy": -0.32921,
				"method": "rhf"
			},
			{
				"type": "occ",
				"energy": -0.31771,
				"method": "rhf"
			},
			{
				"type": "occ",
				"energy": -0.3063,
				"method": "rhf"
			},
			{
				"type": "occ",
				"energy": -0.29791,
				"method": "rhf"
			},
			{
				"type": "unocc",
				"energy": -0.13961,
				"method": "rhf"
			},
			{
				"type": "unocc",
				"energy": -0.09614,
				"method": "rhf"
			},
			{
				"type": "unocc",
				"energy": -0.05589,
				"method": "rhf"
			},
			{
				"type": "unocc",
				"energy": 0.00279,
				"method": "rhf"
			},
			{
				"type": "unocc",
				"energy": 0.01253,
				"method": "rhf"
			}
		],
		"cosmo_sigma_profile": { 
			"-0.025": 0.0,
			"-0.024": 0.0,
			"-0.023": 0.0,
			"-0.022": 0.0,
			"-0.021": 0.0,
			"-0.02": 0.0,
			"-0.019": 0.0,
			"-0.018": 0.0,
			"-0.017": 0.0,
			"-0.016": 0.0208235582254,
			"-0.015": 0.354697818715,
			"-0.014": 0.679569494267,
			"-0.013": 0.801353990335,
			"-0.012": 1.05962722149,
			"-0.011": 1.43360705075,
			"-0.01": 2.96887061201,
			"-0.009": 5.22680284863,
			"-0.008": 7.1075047003,
			"-0.007": 7.39583334203,
			"-0.006": 10.6806490965,
			"-0.005": 10.4004420515,
			"-0.004": 14.8129705121,
			"-0.003": 13.0528300989,
			"-0.002": 9.86040468798,
			"-0.001": 8.71135410844,
			"0.0": 8.76214011465,
			"0.001": 10.0634903108,
			"0.002": 13.9323448121,
			"0.003": 12.7783162565,
			"0.004": 7.35849619147,
			"0.005": 10.2104804279,
			"0.006": 8.48124496794,
			"0.007": 6.88830137074,
			"0.008": 5.23598480396,
			"0.009": 5.68882207492,
			"0.01": 5.89516643302,
			"0.011": 4.2478986261,
			"0.012": 1.93365583456,
			"0.013": 0.0309671553279,
			"0.014": 0.0,
			"0.015": 0.0,
			"0.016": 0.0,
			"0.017": 0.0,
			"0.018": 0.0,
			"0.019": 0.0,
			"0.02": 0.0,
			"0.021": 0.0,
			"0.022": 0.0,
			"0.023": 0.0,
			"0.024": 0.0,
			"0.025": 0.0
		}
	}
}
