{
	 "smiles": "COC1=NC(O)=C(F)C=N1", 
	 "Tm": 469.15, 
	 "num_atms": 15, 
	 "gaussian": { 
		 "optdone": 1, 
		 "sigma_profile": "yes", 
		 "theory": "DFT", 
		 "functional": "B3LYP", 
		 "basiset": "6-31G**", 
		 "properties": { 
			 "R2extent": 1980.9164, 
			 "electric_dipole_moment_norm": 1.81618760595, 
			 "electric_quadrupole_moment_norm": 10.5964963011, 
			 "total_energy": -553.315647377, 
			 "HOMO_LUMO_gap": 0.20643, 
			 "cosmo_polarized_energy": -11.55, 
			 "cosmo_cavitation_energy": 20.27, 
			 "cosmo_dispersion_energy": -15.34, 
			 "cosmo_repulsion_energy": 1.23, 
			 "cosmo_total_nonelectrostatic_energy": 6.16, 
			 "SMD_solvation_energy": 2.93 
		},
		"coords": [
			{
				"x": 0.33072482,
				"y": -1.4089344133,
				"z": -2.2386940125,
				"element": "C" 
			},
			{
				"x": -0.2383668638,
				"y": -0.1277314433,
				"z": -2.5271762648,
				"element": "O" 
			},
			{
				"x": -0.1958898204,
				"y": 0.8015415603,
				"z": -1.5624512678,
				"element": "C" 
			},
			{
				"x": 0.3719310946,
				"y": 0.4812289842,
				"z": -0.3919468369,
				"element": "N" 
			},
			{
				"x": 0.3913415167,
				"y": 1.4300752297,
				"z": 0.5330535387,
				"element": "C" 
			},
			{
				"x": 0.9561006897,
				"y": 1.1325659418,
				"z": 1.7163835761,
				"element": "O" 
			},
			{
				"x": -0.1582213403,
				"y": 2.6910928491,
				"z": 0.2772224525,
				"element": "C" 
			},
			{
				"x": -0.1162918506,
				"y": 3.633913653,
				"z": 1.2546134096,
				"element": "F" 
			},
			{
				"x": -0.7200610932,
				"y": 2.918137591,
				"z": -0.9634713126,
				"element": "C" 
			},
			{
				"x": -0.7477071815,
				"y": 1.9714341405,
				"z": -1.9076512441,
				"element": "N" 
			},
			{
				"x": -0.1762875225,
				"y": -1.8841827746,
				"z": -1.3943861837,
				"element": "H" 
			},
			{
				"x": 1.3952685697,
				"y": -1.323322779,
				"z": -2.003746326,
				"element": "H" 
			},
			{
				"x": 0.1880867528,
				"y": -1.9957525552,
				"z": -3.146672358,
				"element": "H" 
			},
			{
				"x": 0.8955315368,
				"y": 1.9168756319,
				"z": 2.2831147117,
				"element": "H" 
			},
			{
				"x": -1.157459308,
				"y": 3.8858583839,
				"z": -1.2001918823,
				"element": "H" 
			}
		],
		 "valence_orbital": [ 
			{
				"type": "occ",
				"energy": -0.33492,
				"method": "rhf"
			},
			{
				"type": "occ",
				"energy": -0.32915,
				"method": "rhf"
			},
			{
				"type": "occ",
				"energy": -0.30016,
				"method": "rhf"
			},
			{
				"type": "occ",
				"energy": -0.26273,
				"method": "rhf"
			},
			{
				"type": "occ",
				"energy": -0.2425,
				"method": "rhf"
			},
			{
				"type": "unocc",
				"energy": -0.03607,
				"method": "rhf"
			},
			{
				"type": "unocc",
				"energy": -0.00449,
				"method": "rhf"
			},
			{
				"type": "unocc",
				"energy": 0.05789,
				"method": "rhf"
			},
			{
				"type": "unocc",
				"energy": 0.10553,
				"method": "rhf"
			},
			{
				"type": "unocc",
				"energy": 0.11991,
				"method": "rhf"
			}
		],
		"cosmo_sigma_profile": { 
			"-0.025": 0.0,
			"-0.024": 0.0,
			"-0.023": 0.0,
			"-0.022": 0.0,
			"-0.021": 0.0,
			"-0.02": 0.0,
			"-0.019": 0.066672301669,
			"-0.018": 0.612656954338,
			"-0.017": 0.795423099985,
			"-0.016": 0.655485021697,
			"-0.015": 0.900076996714,
			"-0.014": 0.395551839104,
			"-0.013": 0.948755426294,
			"-0.012": 1.57424651837,
			"-0.011": 0.838501335992,
			"-0.01": 1.13227760021,
			"-0.009": 2.41159007288,
			"-0.008": 2.50523626595,
			"-0.007": 3.20135171933,
			"-0.006": 6.80375192497,
			"-0.005": 10.0256550783,
			"-0.004": 13.5377052866,
			"-0.003": 16.4493206092,
			"-0.002": 14.0857771692,
			"-0.001": 10.712363705,
			"0.0": 7.79838335908,
			"0.001": 6.42389158511,
			"0.002": 8.51731928186,
			"0.003": 10.3192830783,
			"0.004": 4.87887769348,
			"0.005": 4.09338757607,
			"0.006": 4.90863864561,
			"0.007": 4.02176149169,
			"0.008": 3.53634686595,
			"0.009": 5.54880100884,
			"0.01": 5.67870756694,
			"0.011": 2.8641120491,
			"0.012": 2.40976594294,
			"0.013": 1.57818849745,
			"0.014": 1.05902748181,
			"0.015": 1.13403060827,
			"0.016": 0.164917829552,
			"0.017": 0.0,
			"0.018": 0.0,
			"0.019": 0.0,
			"0.02": 0.0,
			"0.021": 0.0,
			"0.022": 0.0,
			"0.023": 0.0,
			"0.024": 0.0,
			"0.025": 0.0
		}
	}
}
