{
	 "smiles": "NC1=CC(=NO1)C1=CC=C(OC(F)F)C=C1", 
	 "Tm": 362.15, 
	 "num_atms": 24, 
	 "gaussian": { 
		 "optdone": 1, 
		 "sigma_profile": "yes", 
		 "theory": "DFT", 
		 "functional": "B3LYP", 
		 "basiset": "6-31G**", 
		 "properties": { 
			 "R2extent": 6425.6245, 
			 "electric_dipole_moment_norm": 4.49512492151, 
			 "electric_quadrupole_moment_norm": 15.8558917116, 
			 "total_energy": -845.462378802, 
			 "HOMO_LUMO_gap": 0.18669, 
			 "cosmo_polarized_energy": -16.04, 
			 "cosmo_cavitation_energy": 30.3, 
			 "cosmo_dispersion_energy": -22.31, 
			 "cosmo_repulsion_energy": 1.69, 
			 "cosmo_total_nonelectrostatic_energy": 9.68, 
			 "SMD_solvation_energy": 6.54 
		},
		"coords": [
			{
				"x": -0.6042967224,
				"y": 1.2231199158,
				"z": 4.3500692706,
				"element": "N" 
			},
			{
				"x": -0.5313225693,
				"y": 1.1692800798,
				"z": 2.9796002427,
				"element": "C" 
			},
			{
				"x": -0.1976607803,
				"y": 0.1831148372,
				"z": 2.0897110509,
				"element": "C" 
			},
			{
				"x": -0.2652791242,
				"y": 0.8410490435,
				"z": 0.8254888768,
				"element": "C" 
			},
			{
				"x": -0.6064987531,
				"y": 2.1117517229,
				"z": 0.943340413,
				"element": "N" 
			},
			{
				"x": -0.7807034895,
				"y": 2.3194454071,
				"z": 2.3300179463,
				"element": "O" 
			},
			{
				"x": -0.0121531017,
				"y": 0.2733348645,
				"z": -0.5108220432,
				"element": "C" 
			},
			{
				"x": 0.5543656491,
				"y": -1.0020836878,
				"z": -0.6605855162,
				"element": "C" 
			},
			{
				"x": 0.8010050196,
				"y": -1.5318885214,
				"z": -1.9225497905,
				"element": "C" 
			},
			{
				"x": 0.4742887613,
				"y": -0.7882850452,
				"z": -3.0573514547,
				"element": "C" 
			},
			{
				"x": 0.7351201135,
				"y": -1.3951504538,
				"z": -4.2761040821,
				"element": "O" 
			},
			{
				"x": 1.0084556991,
				"y": -0.5915282119,
				"z": -5.3550646289,
				"element": "C" 
			},
			{
				"x": 1.5938825418,
				"y": -1.3710786819,
				"z": -6.2808325653,
				"element": "F" 
			},
			{
				"x": -0.1433734931,
				"y": -0.1024015306,
				"z": -5.9010091883,
				"element": "F" 
			},
			{
				"x": -0.1066857131,
				"y": 0.4778178464,
				"z": -2.9359146495,
				"element": "C" 
			},
			{
				"x": -0.3373304635,
				"y": 1.0004513264,
				"z": -1.6659377978,
				"element": "C" 
			},
			{
				"x": -0.7828234665,
				"y": 0.3408177047,
				"z": 4.8071531617,
				"element": "H" 
			},
			{
				"x": -1.163567016,
				"y": 1.9846327004,
				"z": 4.7106645627,
				"element": "H" 
			},
			{
				"x": 0.043402843,
				"y": -0.8450229864,
				"z": 2.3057236806,
				"element": "H" 
			},
			{
				"x": 0.8232121574,
				"y": -1.5833923921,
				"z": 0.2155573729,
				"element": "H" 
			},
			{
				"x": 1.2498271481,
				"y": -2.5114929696,
				"z": -2.0464908738,
				"element": "H" 
			},
			{
				"x": 1.6567966779,
				"y": 0.2560601518,
				"z": -5.1022838195,
				"element": "H" 
			},
			{
				"x": -0.4048973218,
				"y": 1.0338083986,
				"z": -3.8165641073,
				"element": "H" 
			},
			{
				"x": -0.7887645962,
				"y": 1.9807404815,
				"z": -1.5595160611,
				"element": "H" 
			}
		],
		 "valence_orbital": [ 
			{
				"type": "occ",
				"energy": -0.3011,
				"method": "rhf"
			},
			{
				"type": "occ",
				"energy": -0.29777,
				"method": "rhf"
			},
			{
				"type": "occ",
				"energy": -0.26417,
				"method": "rhf"
			},
			{
				"type": "occ",
				"energy": -0.23436,
				"method": "rhf"
			},
			{
				"type": "occ",
				"energy": -0.21984,
				"method": "rhf"
			},
			{
				"type": "unocc",
				"energy": -0.03315,
				"method": "rhf"
			},
			{
				"type": "unocc",
				"energy": -0.01403,
				"method": "rhf"
			},
			{
				"type": "unocc",
				"energy": 0.02907,
				"method": "rhf"
			},
			{
				"type": "unocc",
				"energy": 0.05794,
				"method": "rhf"
			},
			{
				"type": "unocc",
				"energy": 0.08556,
				"method": "rhf"
			}
		],
		"cosmo_sigma_profile": { 
			"-0.025": 0.0,
			"-0.024": 0.0,
			"-0.023": 0.0,
			"-0.022": 0.0,
			"-0.021": 0.0,
			"-0.02": 0.0,
			"-0.019": 0.0,
			"-0.018": 0.0,
			"-0.017": 0.0,
			"-0.016": 0.0,
			"-0.015": 0.850675554118,
			"-0.014": 2.72911104341,
			"-0.013": 2.89038070886,
			"-0.012": 2.25041448667,
			"-0.011": 3.38293280146,
			"-0.01": 4.66639298675,
			"-0.009": 4.98774963437,
			"-0.008": 6.81401335481,
			"-0.007": 9.435742677,
			"-0.006": 10.7489080152,
			"-0.005": 9.86513157057,
			"-0.004": 8.81059108951,
			"-0.003": 8.27115011523,
			"-0.002": 9.92241355157,
			"-0.001": 8.10100677794,
			"0.0": 10.5729825004,
			"0.001": 16.7828165079,
			"0.002": 23.7000616592,
			"0.003": 39.5462670929,
			"0.004": 24.6317015798,
			"0.005": 5.93070246333,
			"0.006": 4.05395233444,
			"0.007": 5.73043906375,
			"0.008": 5.5653901233,
			"0.009": 3.62390797142,
			"0.01": 3.0894813841,
			"0.011": 2.17156125318,
			"0.012": 1.3888368426,
			"0.013": 1.63111582354,
			"0.014": 0.93694517131,
			"0.015": 0.136724946423,
			"0.016": 0.0,
			"0.017": 0.0,
			"0.018": 0.0,
			"0.019": 0.0,
			"0.02": 0.0,
			"0.021": 0.0,
			"0.022": 0.0,
			"0.023": 0.0,
			"0.024": 0.0,
			"0.025": 0.0
		}
	}
}
