{
	 "smiles": "CCOC1=CC(NC(=O)C2=CC=CC=C2)=C(OCC)C=C1N", 
	 "Tm": 372.15, 
	 "num_atms": 42, 
	 "gaussian": { 
		 "optdone": 1, 
		 "sigma_profile": "yes", 
		 "theory": "DFT", 
		 "functional": "B3LYP", 
		 "basiset": "6-31G**", 
		 "properties": { 
			 "R2extent": 8317.765, 
			 "electric_dipole_moment_norm": 4.82555529447, 
			 "electric_quadrupole_moment_norm": 13.5954194198, 
			 "total_energy": -995.039276981, 
			 "HOMO_LUMO_gap": 0.17278, 
			 "cosmo_polarized_energy": -18.0, 
			 "cosmo_cavitation_energy": 45.66, 
			 "cosmo_dispersion_energy": -30.23, 
			 "cosmo_repulsion_energy": 2.38, 
			 "cosmo_total_nonelectrostatic_energy": 17.81, 
			 "SMD_solvation_energy": 8.48 
		},
		"coords": [
			{
				"x": -2.6303443814,
				"y": 4.9747818864,
				"z": -3.6564395137,
				"element": "C" 
			},
			{
				"x": -1.7115004356,
				"y": 3.8199639399,
				"z": -3.3019483354,
				"element": "C" 
			},
			{
				"x": -2.0701861641,
				"y": 3.3537854115,
				"z": -1.9875672608,
				"element": "O" 
			},
			{
				"x": -1.319639713,
				"y": 2.2817515264,
				"z": -1.5351660456,
				"element": "C" 
			},
			{
				"x": -0.1063066141,
				"y": 2.4780118858,
				"z": -0.8862519244,
				"element": "C" 
			},
			{
				"x": 0.6310917932,
				"y": 1.3961576228,
				"z": -0.3913000437,
				"element": "C" 
			},
			{
				"x": 1.8906425437,
				"y": 1.6165999342,
				"z": 0.243531653,
				"element": "N" 
			},
			{
				"x": 2.3431102933,
				"y": 1.0100819943,
				"z": 1.4091670122,
				"element": "C" 
			},
			{
				"x": 3.5380061514,
				"y": 0.7607607095,
				"z": 1.540283481,
				"element": "O" 
			},
			{
				"x": 1.3682520333,
				"y": 0.7570302599,
				"z": 2.5195909458,
				"element": "C" 
			},
			{
				"x": 1.713124518,
				"y": -0.2199523839,
				"z": 3.4640441645,
				"element": "C" 
			},
			{
				"x": 0.8849885573,
				"y": -0.4715254008,
				"z": 4.5544299233,
				"element": "C" 
			},
			{
				"x": -0.2891557976,
				"y": 0.2670818294,
				"z": 4.7253630319,
				"element": "C" 
			},
			{
				"x": -0.6267218677,
				"y": 1.2584720462,
				"z": 3.8026337719,
				"element": "C" 
			},
			{
				"x": 0.1955894221,
				"y": 1.5026591169,
				"z": 2.702070299,
				"element": "C" 
			},
			{
				"x": 0.119137847,
				"y": 0.097409324,
				"z": -0.5700181809,
				"element": "C" 
			},
			{
				"x": 0.8087945909,
				"y": -0.9895958647,
				"z": -0.0840358504,
				"element": "O" 
			},
			{
				"x": 1.8079846336,
				"y": -1.5189254394,
				"z": -0.9746335357,
				"element": "C" 
			},
			{
				"x": 2.5980962628,
				"y": -2.5704081523,
				"z": -0.2184268383,
				"element": "C" 
			},
			{
				"x": -1.1126845224,
				"y": -0.0982994118,
				"z": -1.1944277319,
				"element": "C" 
			},
			{
				"x": -1.8526383482,
				"y": 0.9841178043,
				"z": -1.6896672481,
				"element": "C" 
			},
			{
				"x": -3.0625807818,
				"y": 0.8230984182,
				"z": -2.358904324,
				"element": "N" 
			},
			{
				"x": -3.6753431551,
				"y": 4.6507024646,
				"z": -3.6704095686,
				"element": "H" 
			},
			{
				"x": -2.3784669333,
				"y": 5.3678317675,
				"z": -4.6463365828,
				"element": "H" 
			},
			{
				"x": -2.5321259173,
				"y": 5.7829159931,
				"z": -2.9259989065,
				"element": "H" 
			},
			{
				"x": -1.8091823364,
				"y": 2.9973525942,
				"z": -4.0234825806,
				"element": "H" 
			},
			{
				"x": -0.6606519043,
				"y": 4.1407344159,
				"z": -3.2995784222,
				"element": "H" 
			},
			{
				"x": 0.2612062276,
				"y": 3.4896443695,
				"z": -0.7439119553,
				"element": "H" 
			},
			{
				"x": 2.6742239942,
				"y": 1.8045980334,
				"z": -0.3737444257,
				"element": "H" 
			},
			{
				"x": 2.6407796701,
				"y": -0.7648725315,
				"z": 3.327024823,
				"element": "H" 
			},
			{
				"x": 1.1562878776,
				"y": -1.2378256903,
				"z": 5.2749968942,
				"element": "H" 
			},
			{
				"x": -0.9339861115,
				"y": 0.0755081782,
				"z": 5.5786191236,
				"element": "H" 
			},
			{
				"x": -1.5295685799,
				"y": 1.8466091232,
				"z": 3.9404735048,
				"element": "H" 
			},
			{
				"x": -0.0690957539,
				"y": 2.2811453813,
				"z": 1.9961304919,
				"element": "H" 
			},
			{
				"x": 2.4677258041,
				"y": -0.7095604034,
				"z": -1.3146949129,
				"element": "H" 
			},
			{
				"x": 1.3135859048,
				"y": -1.9440713398,
				"z": -1.859944543,
				"element": "H" 
			},
			{
				"x": 1.9342022002,
				"y": -3.3535775719,
				"z": 0.1591060549,
				"element": "H" 
			},
			{
				"x": 3.1220480202,
				"y": -2.1149742732,
				"z": 0.6258153814,
				"element": "H" 
			},
			{
				"x": 3.3386551798,
				"y": -3.0311870519,
				"z": -0.8798838892,
				"element": "H" 
			},
			{
				"x": -1.4868962258,
				"y": -1.1131680607,
				"z": -1.2921869855,
				"element": "H" 
			},
			{
				"x": -3.5765032892,
				"y": -0.0143292506,
				"z": -2.1228279359,
				"element": "H" 
			},
			{
				"x": -3.6361546926,
				"y": 1.6567667961,
				"z": -2.3377930153,
				"element": "H" 
			}
		],
		 "valence_orbital": [ 
			{
				"type": "occ",
				"energy": -0.24801,
				"method": "rhf"
			},
			{
				"type": "occ",
				"energy": -0.24588,
				"method": "rhf"
			},
			{
				"type": "occ",
				"energy": -0.23985,
				"method": "rhf"
			},
			{
				"type": "occ",
				"energy": -0.23496,
				"method": "rhf"
			},
			{
				"type": "occ",
				"energy": -0.20036,
				"method": "rhf"
			},
			{
				"type": "unocc",
				"energy": -0.02758,
				"method": "rhf"
			},
			{
				"type": "unocc",
				"energy": -0.0041,
				"method": "rhf"
			},
			{
				"type": "unocc",
				"energy": 0.00614,
				"method": "rhf"
			},
			{
				"type": "unocc",
				"energy": 0.01173,
				"method": "rhf"
			},
			{
				"type": "unocc",
				"energy": 0.0649,
				"method": "rhf"
			}
		],
		"cosmo_sigma_profile": { 
			"-0.025": 0.0,
			"-0.024": 0.0,
			"-0.023": 0.0,
			"-0.022": 0.0,
			"-0.021": 0.0,
			"-0.02": 0.0,
			"-0.019": 0.0,
			"-0.018": 0.0,
			"-0.017": 0.0,
			"-0.016": 0.0,
			"-0.015": 0.0,
			"-0.014": 0.0239454014141,
			"-0.013": 1.12095677006,
			"-0.012": 2.68050884854,
			"-0.011": 2.56945578181,
			"-0.01": 2.33498484375,
			"-0.009": 4.07096067101,
			"-0.008": 4.28400397778,
			"-0.007": 4.27167034257,
			"-0.006": 11.0253407612,
			"-0.005": 15.9003189002,
			"-0.004": 32.2092994394,
			"-0.003": 38.681895661,
			"-0.002": 35.6731640812,
			"-0.001": 29.9984845512,
			"0.0": 30.4059238898,
			"0.001": 24.0829966229,
			"0.002": 18.577204453,
			"0.003": 20.9499115578,
			"0.004": 25.0463585798,
			"0.005": 16.0762290391,
			"0.006": 6.84610261965,
			"0.007": 5.51346589176,
			"0.008": 4.52316752447,
			"0.009": 3.60152568465,
			"0.01": 4.08878723859,
			"0.011": 4.42632432849,
			"0.012": 3.60615811913,
			"0.013": 4.45262585401,
			"0.014": 3.16140668135,
			"0.015": 0.0314109412796,
			"0.016": 0.0,
			"0.017": 0.0,
			"0.018": 0.0,
			"0.019": 0.0,
			"0.02": 0.0,
			"0.021": 0.0,
			"0.022": 0.0,
			"0.023": 0.0,
			"0.024": 0.0,
			"0.025": 0.0
		}
	}
}
