{
	 "smiles": "NNC(=O)C1=C(Cl)C=CC(Cl)=C1", 
	 "Tm": 452.65, 
	 "num_atms": 18, 
	 "gaussian": { 
		 "optdone": 1, 
		 "sigma_profile": "yes", 
		 "theory": "DFT", 
		 "functional": "B3LYP", 
		 "basiset": "6-31G**", 
		 "properties": { 
			 "R2extent": 3187.3461, 
			 "electric_dipole_moment_norm": 4.30542755368, 
			 "electric_quadrupole_moment_norm": 12.2266872316, 
			 "total_energy": -1375.44292158, 
			 "HOMO_LUMO_gap": 0.2079, 
			 "cosmo_polarized_energy": -14.98, 
			 "cosmo_cavitation_energy": 26.33, 
			 "cosmo_dispersion_energy": -19.34, 
			 "cosmo_repulsion_energy": 1.59, 
			 "cosmo_total_nonelectrostatic_energy": 8.58, 
			 "SMD_solvation_energy": 5.36 
		},
		"coords": [
			{
				"x": 1.8423298796,
				"y": 1.8602268562,
				"z": -1.4096506154,
				"element": "N" 
			},
			{
				"x": 0.8381727038,
				"y": 2.1628852333,
				"z": -0.4878287712,
				"element": "N" 
			},
			{
				"x": 0.0213956975,
				"y": 1.214593705,
				"z": 0.0662268767,
				"element": "C" 
			},
			{
				"x": -0.7270608221,
				"y": 1.4872179997,
				"z": 0.9944213409,
				"element": "O" 
			},
			{
				"x": 0.1054179438,
				"y": -0.1894409913,
				"z": -0.4846481071,
				"element": "C" 
			},
			{
				"x": -0.192837341,
				"y": -0.5578265736,
				"z": -1.8023766811,
				"element": "C" 
			},
			{
				"x": -0.6726907423,
				"y": 0.6395366173,
				"z": -2.997663383,
				"element": "Cl" 
			},
			{
				"x": -0.166807526,
				"y": -1.8947262971,
				"z": -2.1989785543,
				"element": "C" 
			},
			{
				"x": 0.15978919,
				"y": -2.8901354154,
				"z": -1.2806989008,
				"element": "C" 
			},
			{
				"x": 0.4359763659,
				"y": -2.5311458048,
				"z": 0.037735634,
				"element": "C" 
			},
			{
				"x": 0.8300438368,
				"y": -3.7767525826,
				"z": 1.2101780695,
				"element": "Cl" 
			},
			{
				"x": 0.3937142252,
				"y": -1.2003335748,
				"z": 0.4405820821,
				"element": "C" 
			},
			{
				"x": 1.6822138687,
				"y": 2.353707709,
				"z": -2.2832639361,
				"element": "H" 
			},
			{
				"x": 2.7533278797,
				"y": 2.1108944429,
				"z": -1.035191139,
				"element": "H" 
			},
			{
				"x": 0.7409050147,
				"y": 3.0927701046,
				"z": -0.0909064565,
				"element": "H" 
			},
			{
				"x": -0.4075936921,
				"y": -2.1548480116,
				"z": -3.2235870323,
				"element": "H" 
			},
			{
				"x": 0.1881187835,
				"y": -3.9306131982,
				"z": -1.5838139054,
				"element": "H" 
			},
			{
				"x": 0.5797847344,
				"y": -0.9320102187,
				"z": 1.4740634791,
				"element": "H" 
			}
		],
		 "valence_orbital": [ 
			{
				"type": "occ",
				"energy": -0.28924,
				"method": "rhf"
			},
			{
				"type": "occ",
				"energy": -0.2817,
				"method": "rhf"
			},
			{
				"type": "occ",
				"energy": -0.26691,
				"method": "rhf"
			},
			{
				"type": "occ",
				"energy": -0.2541,
				"method": "rhf"
			},
			{
				"type": "occ",
				"energy": -0.24477,
				"method": "rhf"
			},
			{
				"type": "unocc",
				"energy": -0.03687,
				"method": "rhf"
			},
			{
				"type": "unocc",
				"energy": -0.02374,
				"method": "rhf"
			},
			{
				"type": "unocc",
				"energy": 0.01286,
				"method": "rhf"
			},
			{
				"type": "unocc",
				"energy": 0.03019,
				"method": "rhf"
			},
			{
				"type": "unocc",
				"energy": 0.03699,
				"method": "rhf"
			}
		],
		"cosmo_sigma_profile": { 
			"-0.025": 0.0,
			"-0.024": 0.0,
			"-0.023": 0.0,
			"-0.022": 0.0,
			"-0.021": 0.0,
			"-0.02": 0.0,
			"-0.019": 0.0,
			"-0.018": 0.0,
			"-0.017": 0.0,
			"-0.016": 0.0,
			"-0.015": 0.0210366264181,
			"-0.014": 0.904782673365,
			"-0.013": 1.62311174105,
			"-0.012": 3.04144492855,
			"-0.011": 4.50506746094,
			"-0.01": 5.08435787145,
			"-0.009": 4.51162561635,
			"-0.008": 7.7213941514,
			"-0.007": 8.18758943399,
			"-0.006": 6.63963589361,
			"-0.005": 6.04129063599,
			"-0.004": 6.95469674619,
			"-0.003": 7.95056691543,
			"-0.002": 10.3319352693,
			"-0.001": 13.3905877117,
			"0.0": 17.116739881,
			"0.001": 24.5135564237,
			"0.002": 18.5012202816,
			"0.003": 16.5701871699,
			"0.004": 19.2770199796,
			"0.005": 6.15094988046,
			"0.006": 2.47154068533,
			"0.007": 2.75255984905,
			"0.008": 2.208798687,
			"0.009": 1.14261935241,
			"0.01": 1.82989066781,
			"0.011": 3.36636441108,
			"0.012": 3.0597440602,
			"0.013": 6.20117982352,
			"0.014": 2.19851768529,
			"0.015": 0.0219609023818,
			"0.016": 0.0,
			"0.017": 0.0,
			"0.018": 0.0,
			"0.019": 0.0,
			"0.02": 0.0,
			"0.021": 0.0,
			"0.022": 0.0,
			"0.023": 0.0,
			"0.024": 0.0,
			"0.025": 0.0
		}
	}
}
