{
	 "smiles": "BrC1=NN2C=C(N=C2S1)C1=CN=CC=C1", 
	 "Tm": 504.15, 
	 "num_atms": 20, 
	 "gaussian": { 
		 "optdone": 1, 
		 "sigma_profile": "yes", 
		 "theory": "DFT", 
		 "functional": "B3LYP", 
		 "basiset": "6-31G**", 
		 "properties": { 
			 "R2extent": 9942.1954, 
			 "electric_dipole_moment_norm": 3.54312273143, 
			 "electric_quadrupole_moment_norm": 11.9144135177, 
			 "total_energy": -3534.50788295, 
			 "HOMO_LUMO_gap": 0.16532, 
			 "cosmo_polarized_energy": -11.17, 
			 "cosmo_cavitation_energy": 29.64, 
			 "cosmo_dispersion_energy": -23.22, 
			 "cosmo_repulsion_energy": 1.73, 
			 "cosmo_total_nonelectrostatic_energy": 8.15, 
			 "SMD_solvation_energy": -0.11 
		},
		"coords": [
			{
				"x": -5.3605250493,
				"y": 0.5481042665,
				"z": 4.0425561749,
				"element": "Br" 
			},
			{
				"x": -3.8232322471,
				"y": 0.2284019997,
				"z": 3.0195214653,
				"element": "C" 
			},
			{
				"x": -3.3874944268,
				"y": -0.9660811683,
				"z": 2.7902932298,
				"element": "N" 
			},
			{
				"x": -2.2656961589,
				"y": -0.8636723352,
				"z": 2.0247651316,
				"element": "N" 
			},
			{
				"x": -1.39047082,
				"y": -1.7807708801,
				"z": 1.4822193919,
				"element": "C" 
			},
			{
				"x": -0.4570452945,
				"y": -1.0097733255,
				"z": 0.8071129505,
				"element": "C" 
			},
			{
				"x": -0.7431479395,
				"y": 0.3499139464,
				"z": 0.9260544579,
				"element": "N" 
			},
			{
				"x": -1.822534625,
				"y": 0.3884335327,
				"z": 1.6553890925,
				"element": "C" 
			},
			{
				"x": -2.9144458442,
				"y": 1.5873956852,
				"z": 2.3289572421,
				"element": "S" 
			},
			{
				"x": 0.7095192995,
				"y": -1.4611191733,
				"z": 0.041192074,
				"element": "C" 
			},
			{
				"x": 1.5549221154,
				"y": -0.52663213,
				"z": -0.5839429091,
				"element": "C" 
			},
			{
				"x": 2.6352538501,
				"y": -0.8540299133,
				"z": -1.2984293582,
				"element": "N" 
			},
			{
				"x": 2.9256801857,
				"y": -2.1549525376,
				"z": -1.4232420306,
				"element": "C" 
			},
			{
				"x": 2.158920527,
				"y": -3.1695711572,
				"z": -0.846954112,
				"element": "C" 
			},
			{
				"x": 1.0365623441,
				"y": -2.8169700055,
				"z": -0.1053524775,
				"element": "C" 
			},
			{
				"x": -1.5169488133,
				"y": -2.8405106886,
				"z": 1.6262433729,
				"element": "H" 
			},
			{
				"x": 1.330568822,
				"y": 0.5323181373,
				"z": -0.4905341638,
				"element": "H" 
			},
			{
				"x": 3.8101755669,
				"y": -2.3974409711,
				"z": -2.0096471619,
				"element": "H" 
			},
			{
				"x": 2.4370454851,
				"y": -4.2107391747,
				"z": -0.9778144627,
				"element": "H" 
			},
			{
				"x": 0.423193023,
				"y": -3.5876041076,
				"z": 0.3534120924,
				"element": "H" 
			}
		],
		 "valence_orbital": [ 
			{
				"type": "occ",
				"energy": -0.29682,
				"method": "rhf"
			},
			{
				"type": "occ",
				"energy": -0.27656,
				"method": "rhf"
			},
			{
				"type": "occ",
				"energy": -0.25852,
				"method": "rhf"
			},
			{
				"type": "occ",
				"energy": -0.2481,
				"method": "rhf"
			},
			{
				"type": "occ",
				"energy": -0.22375,
				"method": "rhf"
			},
			{
				"type": "unocc",
				"energy": -0.05843,
				"method": "rhf"
			},
			{
				"type": "unocc",
				"energy": -0.04273,
				"method": "rhf"
			},
			{
				"type": "unocc",
				"energy": -0.02817,
				"method": "rhf"
			},
			{
				"type": "unocc",
				"energy": -0.01655,
				"method": "rhf"
			},
			{
				"type": "unocc",
				"energy": -0.01347,
				"method": "rhf"
			}
		],
		"cosmo_sigma_profile": { 
			"-0.025": 0.0,
			"-0.024": 0.0,
			"-0.023": 0.0,
			"-0.022": 0.0,
			"-0.021": 0.0,
			"-0.02": 0.0,
			"-0.019": 0.0,
			"-0.018": 0.0,
			"-0.017": 0.0,
			"-0.016": 0.0,
			"-0.015": 0.0,
			"-0.014": 0.0,
			"-0.013": 0.0,
			"-0.012": 0.0,
			"-0.011": 0.342340340709,
			"-0.01": 2.57527383174,
			"-0.009": 2.54027917278,
			"-0.008": 3.62371606789,
			"-0.007": 6.31577382979,
			"-0.006": 10.1166205868,
			"-0.005": 14.3872880075,
			"-0.004": 17.8878178589,
			"-0.003": 16.3674723722,
			"-0.002": 21.1146127984,
			"-0.001": 20.2956360711,
			"0.0": 20.3879712591,
			"0.001": 26.0256874658,
			"0.002": 33.1456619941,
			"0.003": 13.6461152269,
			"0.004": 5.84139096216,
			"0.005": 5.54314549748,
			"0.006": 4.34679605879,
			"0.007": 4.1008633683,
			"0.008": 2.75359118691,
			"0.009": 4.12151030653,
			"0.01": 3.08680128442,
			"0.011": 1.73878375056,
			"0.012": 2.21271534621,
			"0.013": 1.30853534262,
			"0.014": 0.57355763188,
			"0.015": 1.0072684717,
			"0.016": 0.868160591403,
			"0.017": 0.441469372286,
			"0.018": 0.0,
			"0.019": 0.0,
			"0.02": 0.0,
			"0.021": 0.0,
			"0.022": 0.0,
			"0.023": 0.0,
			"0.024": 0.0,
			"0.025": 0.0
		}
	}
}
