{
	 "smiles": "CCOC(=O)C1=C(C=O)C2=C(N1)C=C(Cl)C=C2Cl", 
	 "Tm": 488.15, 
	 "num_atms": 27, 
	 "gaussian": { 
		 "optdone": 1, 
		 "sigma_profile": "yes", 
		 "theory": "DFT", 
		 "functional": "B3LYP", 
		 "basiset": "6-31G**", 
		 "properties": { 
			 "R2extent": 8196.0028, 
			 "electric_dipole_moment_norm": 5.00590900636, 
			 "electric_quadrupole_moment_norm": 11.3212214186, 
			 "total_energy": -1663.51817488, 
			 "HOMO_LUMO_gap": 0.14725, 
			 "cosmo_polarized_energy": -15.02, 
			 "cosmo_cavitation_energy": 35.66, 
			 "cosmo_dispersion_energy": -26.02, 
			 "cosmo_repulsion_energy": 2.01, 
			 "cosmo_total_nonelectrostatic_energy": 11.65, 
			 "SMD_solvation_energy": 7.21 
		},
		"coords": [
			{
				"x": 0.6473377938,
				"y": -0.22058037,
				"z": 4.1482769601,
				"element": "C" 
			},
			{
				"x": 1.5971123915,
				"y": 0.5896415831,
				"z": 3.2811473842,
				"element": "C" 
			},
			{
				"x": 1.3687783949,
				"y": 0.3322100926,
				"z": 1.8669547689,
				"element": "O" 
			},
			{
				"x": 0.4080262749,
				"y": 1.0505183824,
				"z": 1.2718867939,
				"element": "C" 
			},
			{
				"x": -0.2713266105,
				"y": 1.8984929104,
				"z": 1.8286517099,
				"element": "O" 
			},
			{
				"x": 0.2132105743,
				"y": 0.7468131885,
				"z": -0.1646455391,
				"element": "C" 
			},
			{
				"x": 0.7843811417,
				"y": -0.1204768437,
				"z": -1.1025101462,
				"element": "C" 
			},
			{
				"x": 1.9078200847,
				"y": -1.0204125275,
				"z": -0.778383536,
				"element": "C" 
			},
			{
				"x": 2.6066450642,
				"y": -1.6057504973,
				"z": -1.58472031,
				"element": "O" 
			},
			{
				"x": 0.0931954324,
				"y": 0.131552894,
				"z": -2.355252278,
				"element": "C" 
			},
			{
				"x": -0.8578148998,
				"y": 1.1661609309,
				"z": -2.0937253864,
				"element": "C" 
			},
			{
				"x": -0.7520434983,
				"y": 1.5031213355,
				"z": -0.7709236288,
				"element": "N" 
			},
			{
				"x": -1.7299040698,
				"y": 1.7078469526,
				"z": -3.0439047141,
				"element": "C" 
			},
			{
				"x": -1.6479739524,
				"y": 1.1756857569,
				"z": -4.3168594731,
				"element": "C" 
			},
			{
				"x": -2.6975765616,
				"y": 1.7938234765,
				"z": -5.5784732619,
				"element": "Cl" 
			},
			{
				"x": -0.7545623583,
				"y": 0.1377082085,
				"z": -4.6365550482,
				"element": "C" 
			},
			{
				"x": 0.0977256837,
				"y": -0.3877678935,
				"z": -3.6737371912,
				"element": "C" 
			},
			{
				"x": 1.1138251275,
				"y": -1.7136005898,
				"z": -4.1717320531,
				"element": "Cl" 
			},
			{
				"x": 0.7322882398,
				"y": -1.2885727902,
				"z": 3.9285625926,
				"element": "H" 
			},
			{
				"x": -0.3866154292,
				"y": 0.0951262466,
				"z": 3.9899564708,
				"element": "H" 
			},
			{
				"x": 0.8945283343,
				"y": -0.0666350026,
				"z": 5.2037004013,
				"element": "H" 
			},
			{
				"x": 2.637154358,
				"y": 0.2962238058,
				"z": 3.435587743,
				"element": "H" 
			},
			{
				"x": 1.4880741376,
				"y": 1.6612241515,
				"z": 3.4598897662,
				"element": "H" 
			},
			{
				"x": 2.0966525685,
				"y": -1.1168041043,
				"z": 0.3046832176,
				"element": "H" 
			},
			{
				"x": -1.2734904255,
				"y": 2.2043881542,
				"z": -0.2626505939,
				"element": "H" 
			},
			{
				"x": -2.4312770916,
				"y": 2.4961699988,
				"z": -2.7980082822,
				"element": "H" 
			},
			{
				"x": -0.737070705,
				"y": -0.2646074498,
				"z": -5.6413163663,
				"element": "H" 
			}
		],
		 "valence_orbital": [ 
			{
				"type": "occ",
				"energy": -0.30696,
				"method": "rhf"
			},
			{
				"type": "occ",
				"energy": -0.29092,
				"method": "rhf"
			},
			{
				"type": "occ",
				"energy": -0.25325,
				"method": "rhf"
			},
			{
				"type": "occ",
				"energy": -0.24411,
				"method": "rhf"
			},
			{
				"type": "occ",
				"energy": -0.23233,
				"method": "rhf"
			},
			{
				"type": "unocc",
				"energy": -0.08508,
				"method": "rhf"
			},
			{
				"type": "unocc",
				"energy": -0.03126,
				"method": "rhf"
			},
			{
				"type": "unocc",
				"energy": -0.01164,
				"method": "rhf"
			},
			{
				"type": "unocc",
				"energy": 0.0095,
				"method": "rhf"
			},
			{
				"type": "unocc",
				"energy": 0.02339,
				"method": "rhf"
			}
		],
		"cosmo_sigma_profile": { 
			"-0.025": 0.0,
			"-0.024": 0.0,
			"-0.023": 0.0,
			"-0.022": 0.0,
			"-0.021": 0.0,
			"-0.02": 0.0,
			"-0.019": 0.0,
			"-0.018": 0.0,
			"-0.017": 0.320736263659,
			"-0.016": 1.09988796834,
			"-0.015": 0.898215786319,
			"-0.014": 1.04909680079,
			"-0.013": 0.85040689672,
			"-0.012": 1.15921469738,
			"-0.011": 1.18180763235,
			"-0.01": 1.51229246184,
			"-0.009": 2.31308652879,
			"-0.008": 3.025763985,
			"-0.007": 3.58782431326,
			"-0.006": 6.65215256828,
			"-0.005": 13.3930979017,
			"-0.004": 22.1466001317,
			"-0.003": 24.0956236648,
			"-0.002": 23.6686879412,
			"-0.001": 28.13479059,
			"0.0": 31.0831418228,
			"0.001": 33.7646006924,
			"0.002": 18.6268833041,
			"0.003": 14.571926644,
			"0.004": 19.2688722766,
			"0.005": 6.87906194466,
			"0.006": 4.63034542092,
			"0.007": 2.91483650982,
			"0.008": 3.23883248635,
			"0.009": 4.46205806363,
			"0.01": 4.99307416028,
			"0.011": 5.46449797783,
			"0.012": 3.81078960149,
			"0.013": 1.57762757069,
			"0.014": 0.155659973455,
			"0.015": 0.0,
			"0.016": 0.0,
			"0.017": 0.0,
			"0.018": 0.0,
			"0.019": 0.0,
			"0.02": 0.0,
			"0.021": 0.0,
			"0.022": 0.0,
			"0.023": 0.0,
			"0.024": 0.0,
			"0.025": 0.0
		}
	}
}
