{
	 "smiles": "NC1=C(C=CC=C1)C1=C(ON=C1C1=CC=CC=C1)C1=CC=CC=C1", 
	 "Tm": 458.15, 
	 "num_atms": 40, 
	 "gaussian": { 
		 "optdone": 1, 
		 "sigma_profile": "yes", 
		 "theory": "DFT", 
		 "functional": "B3LYP", 
		 "basiset": "6-31G**", 
		 "properties": { 
			 "R2extent": 8017.4575, 
			 "electric_dipole_moment_norm": 2.80674831433, 
			 "electric_quadrupole_moment_norm": 14.2754327724, 
			 "total_energy": -994.574634566, 
			 "HOMO_LUMO_gap": 0.15862, 
			 "cosmo_polarized_energy": -12.82, 
			 "cosmo_cavitation_energy": 43.81, 
			 "cosmo_dispersion_energy": -29.85, 
			 "cosmo_repulsion_energy": 2.27, 
			 "cosmo_total_nonelectrostatic_energy": 16.23, 
			 "SMD_solvation_energy": 6.73 
		},
		"coords": [
			{
				"x": -0.4363897342,
				"y": -2.5753309156,
				"z": 0.1454478041,
				"element": "N" 
			},
			{
				"x": -1.2457176334,
				"y": -1.5687500602,
				"z": 0.6616093886,
				"element": "C" 
			},
			{
				"x": -0.832828189,
				"y": -0.212790883,
				"z": 0.6351701088,
				"element": "C" 
			},
			{
				"x": -1.7131859604,
				"y": 0.776574494,
				"z": 1.0978467272,
				"element": "C" 
			},
			{
				"x": -2.9789337437,
				"y": 0.4605490188,
				"z": 1.5874438201,
				"element": "C" 
			},
			{
				"x": -3.37665483,
				"y": -0.8786848066,
				"z": 1.6175312695,
				"element": "C" 
			},
			{
				"x": -2.5239301424,
				"y": -1.8783908383,
				"z": 1.1619667577,
				"element": "C" 
			},
			{
				"x": 0.510469102,
				"y": 0.16208134,
				"z": 0.1297647839,
				"element": "C" 
			},
			{
				"x": 0.832013094,
				"y": 0.8195527601,
				"z": -1.0377171159,
				"element": "C" 
			},
			{
				"x": 2.1747000981,
				"y": 0.9920441712,
				"z": -1.0972827719,
				"element": "O" 
			},
			{
				"x": 2.7735784714,
				"y": 0.4469538482,
				"z": 0.0296219673,
				"element": "N" 
			},
			{
				"x": 1.7910153024,
				"y": -0.0495665759,
				"z": 0.7580210062,
				"element": "C" 
			},
			{
				"x": 2.1191031752,
				"y": -0.7319637215,
				"z": 2.0286980015,
				"element": "C" 
			},
			{
				"x": 3.3636402582,
				"y": -1.3717158275,
				"z": 2.166113653,
				"element": "C" 
			},
			{
				"x": 3.7038942426,
				"y": -2.0061666096,
				"z": 3.3583385264,
				"element": "C" 
			},
			{
				"x": 2.8081098778,
				"y": -2.0149423171,
				"z": 4.4305954235,
				"element": "C" 
			},
			{
				"x": 1.5721551992,
				"y": -1.3792679874,
				"z": 4.3034761548,
				"element": "C" 
			},
			{
				"x": 1.2268429033,
				"y": -0.7397997117,
				"z": 3.1126646864,
				"element": "C" 
			},
			{
				"x": 0.0674586128,
				"y": 1.3430368929,
				"z": -2.1735656817,
				"element": "C" 
			},
			{
				"x": -1.239757243,
				"y": 0.9004081587,
				"z": -2.4409945422,
				"element": "C" 
			},
			{
				"x": -1.9422992832,
				"y": 1.4076937036,
				"z": -3.5318280697,
				"element": "C" 
			},
			{
				"x": -1.3560196595,
				"y": 2.3570879176,
				"z": -4.3715220801,
				"element": "C" 
			},
			{
				"x": -0.0550871436,
				"y": 2.7962882849,
				"z": -4.1159559141,
				"element": "C" 
			},
			{
				"x": 0.6538856595,
				"y": 2.295260797,
				"z": -3.0272425077,
				"element": "C" 
			},
			{
				"x": -0.6183231986,
				"y": -3.5025425615,
				"z": 0.5023817061,
				"element": "H" 
			},
			{
				"x": 0.5503791151,
				"y": -2.3657681802,
				"z": 0.0948274689,
				"element": "H" 
			},
			{
				"x": -1.3822231834,
				"y": 1.8110115936,
				"z": 1.0719701075,
				"element": "H" 
			},
			{
				"x": -3.6410206537,
				"y": 1.2440074862,
				"z": 1.9416736696,
				"element": "H" 
			},
			{
				"x": -4.3574260312,
				"y": -1.1488768263,
				"z": 1.9991417338,
				"element": "H" 
			},
			{
				"x": -2.8439775089,
				"y": -2.9174528913,
				"z": 1.1803311925,
				"element": "H" 
			},
			{
				"x": 4.0546723143,
				"y": -1.360840456,
				"z": 1.3298913401,
				"element": "H" 
			},
			{
				"x": 4.6684812954,
				"y": -2.4972597635,
				"z": 3.4497859136,
				"element": "H" 
			},
			{
				"x": 3.072994057,
				"y": -2.5127295841,
				"z": 5.3590615485,
				"element": "H" 
			},
			{
				"x": 0.8737160714,
				"y": -1.3745003231,
				"z": 5.135359973,
				"element": "H" 
			},
			{
				"x": 0.2698815412,
				"y": -0.2379832975,
				"z": 3.0282918734,
				"element": "H" 
			},
			{
				"x": -1.6987456337,
				"y": 0.1557399059,
				"z": -1.8019125256,
				"element": "H" 
			},
			{
				"x": -2.9503782702,
				"y": 1.0547394129,
				"z": -3.7287068976,
				"element": "H" 
			},
			{
				"x": -1.9079418051,
				"y": 2.7499998779,
				"z": -5.2204841052,
				"element": "H" 
			},
			{
				"x": 0.4091747555,
				"y": 3.5330685341,
				"z": -4.7650034294,
				"element": "H" 
			},
			{
				"x": 1.6635747007,
				"y": 2.6372259404,
				"z": -2.8285109648,
				"element": "H" 
			}
		],
		 "valence_orbital": [ 
			{
				"type": "occ",
				"energy": -0.25343,
				"method": "rhf"
			},
			{
				"type": "occ",
				"energy": -0.25003,
				"method": "rhf"
			},
			{
				"type": "occ",
				"energy": -0.23913,
				"method": "rhf"
			},
			{
				"type": "occ",
				"energy": -0.22568,
				"method": "rhf"
			},
			{
				"type": "occ",
				"energy": -0.2044,
				"method": "rhf"
			},
			{
				"type": "unocc",
				"energy": -0.04578,
				"method": "rhf"
			},
			{
				"type": "unocc",
				"energy": -0.02453,
				"method": "rhf"
			},
			{
				"type": "unocc",
				"energy": -0.00906,
				"method": "rhf"
			},
			{
				"type": "unocc",
				"energy": -0.00444,
				"method": "rhf"
			},
			{
				"type": "unocc",
				"energy": -0.00021,
				"method": "rhf"
			}
		],
		"cosmo_sigma_profile": { 
			"-0.025": 0.0,
			"-0.024": 0.0,
			"-0.023": 0.0,
			"-0.022": 0.0,
			"-0.021": 0.0,
			"-0.02": 0.0,
			"-0.019": 0.0,
			"-0.018": 0.0,
			"-0.017": 0.0,
			"-0.016": 0.0,
			"-0.015": 0.0,
			"-0.014": 0.0,
			"-0.013": 0.364086066515,
			"-0.012": 1.4822285574,
			"-0.011": 1.47992189745,
			"-0.01": 2.3653351564,
			"-0.009": 2.91368688567,
			"-0.008": 2.59748910793,
			"-0.007": 3.45550710504,
			"-0.006": 16.6001276484,
			"-0.005": 26.4192925966,
			"-0.004": 30.5543312952,
			"-0.003": 24.8486177772,
			"-0.002": 23.3346185709,
			"-0.001": 26.613651659,
			"0.0": 27.0805015506,
			"0.001": 24.1399714995,
			"0.002": 27.3573027616,
			"0.003": 28.4331458619,
			"0.004": 31.87277834,
			"0.005": 23.3635742201,
			"0.006": 8.2660815318,
			"0.007": 4.46405329894,
			"0.008": 3.78760820243,
			"0.009": 1.90367256711,
			"0.01": 2.18449086926,
			"0.011": 1.9559412703,
			"0.012": 1.98968146432,
			"0.013": 1.41741247151,
			"0.014": 0.758669783933,
			"0.015": 0.0,
			"0.016": 0.0,
			"0.017": 0.0,
			"0.018": 0.0,
			"0.019": 0.0,
			"0.02": 0.0,
			"0.021": 0.0,
			"0.022": 0.0,
			"0.023": 0.0,
			"0.024": 0.0,
			"0.025": 0.0
		}
	}
}
