{
	 "smiles": "CC1=C2N=CC=CC2=CC(Cl)=C1", 
	 "Tm": 336.15, 
	 "num_atms": 20, 
	 "gaussian": { 
		 "optdone": 1, 
		 "sigma_profile": "yes", 
		 "theory": "DFT", 
		 "functional": "B3LYP", 
		 "basiset": "6-31G**", 
		 "properties": { 
			 "R2extent": 3443.7494, 
			 "electric_dipole_moment_norm": 1.81983112678, 
			 "electric_quadrupole_moment_norm": 8.56131865602, 
			 "total_energy": -900.844760621, 
			 "HOMO_LUMO_gap": 0.17276, 
			 "cosmo_polarized_energy": -6.19, 
			 "cosmo_cavitation_energy": 25.52, 
			 "cosmo_dispersion_energy": -19.13, 
			 "cosmo_repulsion_energy": 1.51, 
			 "cosmo_total_nonelectrostatic_energy": 7.89, 
			 "SMD_solvation_energy": 2.91 
		},
		"coords": [
			{
				"x": 0.955673204,
				"y": 2.2521948722,
				"z": 3.0197794057,
				"element": "C" 
			},
			{
				"x": -0.111048156,
				"y": 1.5063408385,
				"z": 2.2634683946,
				"element": "C" 
			},
			{
				"x": -0.0092759906,
				"y": 1.367253821,
				"z": 0.8405043973,
				"element": "C" 
			},
			{
				"x": 1.0661619603,
				"y": 1.9240680657,
				"z": 0.2150198261,
				"element": "N" 
			},
			{
				"x": 1.1609282939,
				"y": 1.7968282164,
				"z": -1.0941080677,
				"element": "C" 
			},
			{
				"x": 0.2120512145,
				"y": 1.1153603548,
				"z": -1.8949297047,
				"element": "C" 
			},
			{
				"x": -0.879627751,
				"y": 0.547034042,
				"z": -1.282097298,
				"element": "C" 
			},
			{
				"x": -1.0254274616,
				"y": 0.6573921329,
				"z": 0.1245459085,
				"element": "C" 
			},
			{
				"x": -2.1258397639,
				"y": 0.0959838687,
				"z": 0.8233319782,
				"element": "C" 
			},
			{
				"x": -2.1914219796,
				"y": 0.2482962176,
				"z": 2.1857507337,
				"element": "C" 
			},
			{
				"x": -3.5427650159,
				"y": -0.4361562939,
				"z": 3.0785616697,
				"element": "Cl" 
			},
			{
				"x": -1.1950926592,
				"y": 0.9472646301,
				"z": 2.9089636875,
				"element": "C" 
			},
			{
				"x": 0.7364643837,
				"y": 2.2713717538,
				"z": 4.0903448869,
				"element": "H" 
			},
			{
				"x": 1.9364471208,
				"y": 1.7909322741,
				"z": 2.8682071833,
				"element": "H" 
			},
			{
				"x": 1.0428646425,
				"y": 3.2815376338,
				"z": 2.658524533,
				"element": "H" 
			},
			{
				"x": 2.0320380307,
				"y": 2.253113558,
				"z": -1.5632904914,
				"element": "H" 
			},
			{
				"x": 0.355387184,
				"y": 1.0503090182,
				"z": -2.9688320527,
				"element": "H" 
			},
			{
				"x": -1.6334227594,
				"y": 0.0144033316,
				"z": -1.8563386024,
				"element": "H" 
			},
			{
				"x": -2.897360003,
				"y": -0.4424852903,
				"z": 0.2830876463,
				"element": "H" 
			},
			{
				"x": -1.2960344944,
				"y": 1.0381569549,
				"z": 3.9854059663,
				"element": "H" 
			}
		],
		 "valence_orbital": [ 
			{
				"type": "occ",
				"energy": -0.31375,
				"method": "rhf"
			},
			{
				"type": "occ",
				"energy": -0.3054,
				"method": "rhf"
			},
			{
				"type": "occ",
				"energy": -0.25901,
				"method": "rhf"
			},
			{
				"type": "occ",
				"energy": -0.25287,
				"method": "rhf"
			},
			{
				"type": "occ",
				"energy": -0.23193,
				"method": "rhf"
			},
			{
				"type": "unocc",
				"energy": -0.05917,
				"method": "rhf"
			},
			{
				"type": "unocc",
				"energy": -0.02387,
				"method": "rhf"
			},
			{
				"type": "unocc",
				"energy": 0.0139,
				"method": "rhf"
			},
			{
				"type": "unocc",
				"energy": 0.02879,
				"method": "rhf"
			},
			{
				"type": "unocc",
				"energy": 0.08015,
				"method": "rhf"
			}
		],
		"cosmo_sigma_profile": { 
			"-0.025": 0.0,
			"-0.024": 0.0,
			"-0.023": 0.0,
			"-0.022": 0.0,
			"-0.021": 0.0,
			"-0.02": 0.0,
			"-0.019": 0.0,
			"-0.018": 0.0,
			"-0.017": 0.0,
			"-0.016": 0.0,
			"-0.015": 0.0,
			"-0.014": 0.0,
			"-0.013": 0.0,
			"-0.012": 0.0,
			"-0.011": 0.0,
			"-0.01": 0.0,
			"-0.009": 0.00233055105147,
			"-0.008": 2.34851821139,
			"-0.007": 8.10787549965,
			"-0.006": 10.7810067751,
			"-0.005": 11.3634621429,
			"-0.004": 11.3163761628,
			"-0.003": 10.8344316883,
			"-0.002": 14.7522377484,
			"-0.001": 14.1157500092,
			"0.0": 19.7698802044,
			"0.001": 26.0143211918,
			"0.002": 30.8174163447,
			"0.003": 16.7163488279,
			"0.004": 11.8887387731,
			"0.005": 8.51327796444,
			"0.006": 1.35673046218,
			"0.007": 1.12160914324,
			"0.008": 1.79024946686,
			"0.009": 1.47043896543,
			"0.01": 0.601831524794,
			"0.011": 1.00117650946,
			"0.012": 0.687156454051,
			"0.013": 0.892515021221,
			"0.014": 0.559056979784,
			"0.015": 0.0966223597046,
			"0.016": 0.0,
			"0.017": 0.0,
			"0.018": 0.0,
			"0.019": 0.0,
			"0.02": 0.0,
			"0.021": 0.0,
			"0.022": 0.0,
			"0.023": 0.0,
			"0.024": 0.0,
			"0.025": 0.0
		}
	}
}
