{
	 "smiles": "CS(=O)(=O)CC1=C(N)C=C(Cl)C=C1", 
	 "Tm": 414.15, 
	 "num_atms": 23, 
	 "gaussian": { 
		 "optdone": 1, 
		 "sigma_profile": "yes", 
		 "theory": "DFT", 
		 "functional": "B3LYP", 
		 "basiset": "6-31G**", 
		 "properties": { 
			 "R2extent": 4212.2405, 
			 "electric_dipole_moment_norm": 4.94342908718, 
			 "electric_quadrupole_moment_norm": 23.4005847495, 
			 "total_energy": -1374.40360905, 
			 "HOMO_LUMO_gap": 0.1971, 
			 "cosmo_polarized_energy": -20.61, 
			 "cosmo_cavitation_energy": 29.5, 
			 "cosmo_dispersion_energy": -21.69, 
			 "cosmo_repulsion_energy": 1.67, 
			 "cosmo_total_nonelectrostatic_energy": 9.49, 
			 "SMD_solvation_energy": 4.29 
		},
		"coords": [
			{
				"x": 1.1459444941,
				"y": 0.967360723,
				"z": 3.3574128679,
				"element": "C" 
			},
			{
				"x": 1.4984960242,
				"y": -0.7982529496,
				"z": 3.2109401797,
				"element": "S" 
			},
			{
				"x": 2.885237509,
				"y": -0.9472535119,
				"z": 2.7401132325,
				"element": "O" 
			},
			{
				"x": 1.0542794556,
				"y": -1.4645210764,
				"z": 4.4464843873,
				"element": "O" 
			},
			{
				"x": 0.3827859803,
				"y": -1.3898517303,
				"z": 1.864485863,
				"element": "C" 
			},
			{
				"x": 0.4557023958,
				"y": -0.5950120128,
				"z": 0.5934662259,
				"element": "C" 
			},
			{
				"x": -0.5205864479,
				"y": 0.3759890741,
				"z": 0.2639748021,
				"element": "C" 
			},
			{
				"x": -1.5922003531,
				"y": 0.6551823747,
				"z": 1.1218827017,
				"element": "N" 
			},
			{
				"x": -0.3753669936,
				"y": 1.1206721178,
				"z": -0.9182185336,
				"element": "C" 
			},
			{
				"x": 0.7210450581,
				"y": 0.9086404929,
				"z": -1.7458364272,
				"element": "C" 
			},
			{
				"x": 0.869416247,
				"y": 1.8595889673,
				"z": -3.2159028046,
				"element": "Cl" 
			},
			{
				"x": 1.6925033936,
				"y": -0.0442479817,
				"z": -1.4432675196,
				"element": "C" 
			},
			{
				"x": 1.5398252887,
				"y": -0.7834158269,
				"z": -0.2737003378,
				"element": "C" 
			},
			{
				"x": 1.7269683285,
				"y": 1.3139106676,
				"z": 4.2139623094,
				"element": "H" 
			},
			{
				"x": 1.4663517482,
				"y": 1.4716823364,
				"z": 2.4460854098,
				"element": "H" 
			},
			{
				"x": 0.0788621034,
				"y": 1.1126493323,
				"z": 3.5285330634,
				"element": "H" 
			},
			{
				"x": 0.7311388455,
				"y": -2.4176298869,
				"z": 1.7260291079,
				"element": "H" 
			},
			{
				"x": -0.6076389869,
				"y": -1.4371187037,
				"z": 2.3204541873,
				"element": "H" 
			},
			{
				"x": -1.9876076613,
				"y": -0.144043045,
				"z": 1.5992903603,
				"element": "H" 
			},
			{
				"x": -2.3222944137,
				"y": 1.2120581941,
				"z": 0.6971708889,
				"element": "H" 
			},
			{
				"x": -1.1195223355,
				"y": 1.863791754,
				"z": -1.1862476285,
				"element": "H" 
			},
			{
				"x": 2.5399185762,
				"y": -0.1994390184,
				"z": -2.099837068,
				"element": "H" 
			},
			{
				"x": 2.2942417439,
				"y": -1.5172402907,
				"z": -0.007275268,
				"element": "H" 
			}
		],
		 "valence_orbital": [ 
			{
				"type": "occ",
				"energy": -0.30875,
				"method": "rhf"
			},
			{
				"type": "occ",
				"energy": -0.29266,
				"method": "rhf"
			},
			{
				"type": "occ",
				"energy": -0.29018,
				"method": "rhf"
			},
			{
				"type": "occ",
				"energy": -0.25473,
				"method": "rhf"
			},
			{
				"type": "occ",
				"energy": -0.22945,
				"method": "rhf"
			},
			{
				"type": "unocc",
				"energy": -0.03235,
				"method": "rhf"
			},
			{
				"type": "unocc",
				"energy": -0.01173,
				"method": "rhf"
			},
			{
				"type": "unocc",
				"energy": 0.02298,
				"method": "rhf"
			},
			{
				"type": "unocc",
				"energy": 0.043,
				"method": "rhf"
			},
			{
				"type": "unocc",
				"energy": 0.06624,
				"method": "rhf"
			}
		],
		"cosmo_sigma_profile": { 
			"-0.025": 0.0,
			"-0.024": 0.0,
			"-0.023": 0.0,
			"-0.022": 0.0,
			"-0.021": 0.0,
			"-0.02": 0.0,
			"-0.019": 0.0,
			"-0.018": 0.0,
			"-0.017": 0.0,
			"-0.016": 0.0,
			"-0.015": 0.422887529904,
			"-0.014": 1.4107828835,
			"-0.013": 2.81812878703,
			"-0.012": 2.86186185031,
			"-0.011": 4.2825815269,
			"-0.01": 3.68652466734,
			"-0.009": 5.80521823258,
			"-0.008": 8.33876686649,
			"-0.007": 10.1430617878,
			"-0.006": 12.9077275759,
			"-0.005": 12.3737246496,
			"-0.004": 13.1560736713,
			"-0.003": 12.285474288,
			"-0.002": 10.1251794783,
			"-0.001": 9.17993009322,
			"0.0": 9.88916757387,
			"0.001": 12.8472012614,
			"0.002": 17.1855144578,
			"0.003": 17.224066122,
			"0.004": 19.4616337176,
			"0.005": 10.5711373559,
			"0.006": 3.47405305428,
			"0.007": 3.4520754296,
			"0.008": 2.98809446773,
			"0.009": 3.83096697861,
			"0.01": 3.70216225141,
			"0.011": 7.68278425155,
			"0.012": 11.5109610821,
			"0.013": 2.68857075287,
			"0.014": 0.0,
			"0.015": 0.0,
			"0.016": 0.0,
			"0.017": 0.0,
			"0.018": 0.0,
			"0.019": 0.0,
			"0.02": 0.0,
			"0.021": 0.0,
			"0.022": 0.0,
			"0.023": 0.0,
			"0.024": 0.0,
			"0.025": 0.0
		}
	}
}
