{
	 "smiles": "OC(=O)C1(CCCCC1)C1=CC(Br)=CC=C1", 
	 "Tm": 438.15, 
	 "num_atms": 31, 
	 "gaussian": { 
		 "optdone": 1, 
		 "sigma_profile": "yes", 
		 "theory": "DFT", 
		 "functional": "B3LYP", 
		 "basiset": "6-31G**", 
		 "properties": { 
			 "R2extent": 7263.2885, 
			 "electric_dipole_moment_norm": 2.33205707692, 
			 "electric_quadrupole_moment_norm": 16.4385033814, 
			 "total_energy": -3226.29146252, 
			 "HOMO_LUMO_gap": 0.22022, 
			 "cosmo_polarized_energy": -11.99, 
			 "cosmo_cavitation_energy": 33.9, 
			 "cosmo_dispersion_energy": -24.69, 
			 "cosmo_repulsion_energy": 1.92, 
			 "cosmo_total_nonelectrostatic_energy": 11.14, 
			 "SMD_solvation_energy": 4.62 
		},
		"coords": [
			{
				"x": 1.6191876434,
				"y": 2.6842481239,
				"z": 0.7345057017,
				"element": "O" 
			},
			{
				"x": 1.6256013343,
				"y": 1.4295650026,
				"z": 0.2167322026,
				"element": "C" 
			},
			{
				"x": 2.5444632792,
				"y": 1.0781389337,
				"z": -0.4828709447,
				"element": "O" 
			},
			{
				"x": 0.4243067723,
				"y": 0.5370414879,
				"z": 0.629540037,
				"element": "C" 
			},
			{
				"x": 0.5750432032,
				"y": 0.2441629891,
				"z": 2.1467788737,
				"element": "C" 
			},
			{
				"x": 1.9056905316,
				"y": -0.4598024822,
				"z": 2.4878991086,
				"element": "C" 
			},
			{
				"x": 2.2919999479,
				"y": -1.5484627278,
				"z": 1.4533711917,
				"element": "C" 
			},
			{
				"x": 1.0712907357,
				"y": -1.9895859861,
				"z": 0.6386888034,
				"element": "C" 
			},
			{
				"x": 0.4631880142,
				"y": -0.8172529664,
				"z": -0.1586213967,
				"element": "C" 
			},
			{
				"x": -0.8605356699,
				"y": 1.3068446904,
				"z": 0.2807307725,
				"element": "C" 
			},
			{
				"x": -1.8608425158,
				"y": 1.5790161323,
				"z": 1.2231730047,
				"element": "C" 
			},
			{
				"x": -3.0155625847,
				"y": 2.2634156597,
				"z": 0.8374183574,
				"element": "C" 
			},
			{
				"x": -4.3629037826,
				"y": 2.615275052,
				"z": 2.1488882693,
				"element": "Br" 
			},
			{
				"x": -3.2076562433,
				"y": 2.6936162264,
				"z": -0.4706857997,
				"element": "C" 
			},
			{
				"x": -2.2084688849,
				"y": 2.4264180006,
				"z": -1.4104481835,
				"element": "C" 
			},
			{
				"x": -1.052426269,
				"y": 1.7445358536,
				"z": -1.042451121,
				"element": "C" 
			},
			{
				"x": 0.7716666661,
				"y": 2.8554443475,
				"z": 1.1729311131,
				"element": "H" 
			},
			{
				"x": -0.2646947165,
				"y": -0.3925708624,
				"z": 2.4466248258,
				"element": "H" 
			},
			{
				"x": 0.4877693096,
				"y": 1.1638018036,
				"z": 2.73672299,
				"element": "H" 
			},
			{
				"x": 1.8060521991,
				"y": -0.897599421,
				"z": 3.4874364271,
				"element": "H" 
			},
			{
				"x": 2.7064667529,
				"y": 0.2846002161,
				"z": 2.5596452134,
				"element": "H" 
			},
			{
				"x": 3.0449114184,
				"y": -1.1521226913,
				"z": 0.7655354037,
				"element": "H" 
			},
			{
				"x": 2.7440767034,
				"y": -2.4072289788,
				"z": 1.9609671396,
				"element": "H" 
			},
			{
				"x": 1.3437701785,
				"y": -2.78903985,
				"z": -0.0592550659,
				"element": "H" 
			},
			{
				"x": 0.3157325352,
				"y": -2.4183507146,
				"z": 1.3104384135,
				"element": "H" 
			},
			{
				"x": 1.0458236799,
				"y": -0.6586225304,
				"z": -1.0698965323,
				"element": "H" 
			},
			{
				"x": -0.5554329775,
				"y": -1.0769775783,
				"z": -0.4616259733,
				"element": "H" 
			},
			{
				"x": -1.7620808442,
				"y": 1.2590161086,
				"z": 2.2523532552,
				"element": "H" 
			},
			{
				"x": -4.110418125,
				"y": 3.2247517576,
				"z": -0.7489518995,
				"element": "H" 
			},
			{
				"x": -2.3375601994,
				"y": 2.7582705144,
				"z": -2.4363573715,
				"element": "H" 
			},
			{
				"x": -0.2849580921,
				"y": 1.5508538893,
				"z": -1.786516816,
				"element": "H" 
			}
		],
		 "valence_orbital": [ 
			{
				"type": "occ",
				"energy": -0.30539,
				"method": "rhf"
			},
			{
				"type": "occ",
				"energy": -0.29529,
				"method": "rhf"
			},
			{
				"type": "occ",
				"energy": -0.27971,
				"method": "rhf"
			},
			{
				"type": "occ",
				"energy": -0.26457,
				"method": "rhf"
			},
			{
				"type": "occ",
				"energy": -0.25027,
				"method": "rhf"
			},
			{
				"type": "unocc",
				"energy": -0.03005,
				"method": "rhf"
			},
			{
				"type": "unocc",
				"energy": -0.0273,
				"method": "rhf"
			},
			{
				"type": "unocc",
				"energy": -0.00339,
				"method": "rhf"
			},
			{
				"type": "unocc",
				"energy": 0.01017,
				"method": "rhf"
			},
			{
				"type": "unocc",
				"energy": 0.05949,
				"method": "rhf"
			}
		],
		"cosmo_sigma_profile": { 
			"-0.025": 0.0,
			"-0.024": 0.0,
			"-0.023": 0.0,
			"-0.022": 0.0,
			"-0.021": 0.0,
			"-0.02": 0.0,
			"-0.019": 0.0,
			"-0.018": 0.0,
			"-0.017": 0.0,
			"-0.016": 0.228629535532,
			"-0.015": 0.919399499057,
			"-0.014": 0.997975257384,
			"-0.013": 0.759519657041,
			"-0.012": 1.05125492714,
			"-0.011": 1.12120742463,
			"-0.01": 0.969547270603,
			"-0.009": 0.861338921566,
			"-0.008": 0.935290455591,
			"-0.007": 5.81638818461,
			"-0.006": 10.2444029986,
			"-0.005": 11.9202479517,
			"-0.004": 14.2960540537,
			"-0.003": 21.2245999996,
			"-0.002": 29.1898009244,
			"-0.001": 29.5483100506,
			"0.0": 30.1172269551,
			"0.001": 24.1511462659,
			"0.002": 18.7949358047,
			"0.003": 17.645523992,
			"0.004": 15.5517127852,
			"0.005": 8.09300653403,
			"0.006": 2.37323738829,
			"0.007": 2.94690819691,
			"0.008": 2.51651632121,
			"0.009": 3.25846791995,
			"0.01": 4.44538811209,
			"0.011": 4.82985232302,
			"0.012": 3.69380701392,
			"0.013": 1.17426287795,
			"0.014": 0.0,
			"0.015": 0.0,
			"0.016": 0.0,
			"0.017": 0.0,
			"0.018": 0.0,
			"0.019": 0.0,
			"0.02": 0.0,
			"0.021": 0.0,
			"0.022": 0.0,
			"0.023": 0.0,
			"0.024": 0.0,
			"0.025": 0.0
		}
	}
}
