{
	 "smiles": "OC(C(O)=O)C(F)(F)F", 
	 "Tm": 342.15, 
	 "num_atms": 12, 
	 "gaussian": { 
		 "optdone": 1, 
		 "sigma_profile": "yes", 
		 "theory": "DFT", 
		 "functional": "B3LYP", 
		 "basiset": "6-31G**", 
		 "properties": { 
			 "R2extent": 1209.8892, 
			 "electric_dipole_moment_norm": 2.23095512057, 
			 "electric_quadrupole_moment_norm": 10.4049075315, 
			 "total_energy": -641.320160317, 
			 "HOMO_LUMO_gap": 0.26321, 
			 "cosmo_polarized_energy": -10.86, 
			 "cosmo_cavitation_energy": 18.23, 
			 "cosmo_dispersion_energy": -12.91, 
			 "cosmo_repulsion_energy": 1.03, 
			 "cosmo_total_nonelectrostatic_energy": 6.35, 
			 "SMD_solvation_energy": 5.68 
		},
		"coords": [
			{
				"x": 1.0026717256,
				"y": 0.754124066,
				"z": 0.1779082085,
				"element": "O" 
			},
			{
				"x": -0.0706937548,
				"y": -0.1274182578,
				"z": -0.0054280422,
				"element": "C" 
			},
			{
				"x": -0.3310154956,
				"y": -1.0369951643,
				"z": 1.2025372163,
				"element": "C" 
			},
			{
				"x": -0.0438753015,
				"y": -0.3941430128,
				"z": 2.3563572849,
				"element": "O" 
			},
			{
				"x": -0.7419069047,
				"y": -2.1686664305,
				"z": 1.1407519413,
				"element": "O" 
			},
			{
				"x": -1.3505423009,
				"y": 0.6474762756,
				"z": -0.3632143636,
				"element": "C" 
			},
			{
				"x": -1.2000226453,
				"y": 1.3068083316,
				"z": -1.5211389835,
				"element": "F" 
			},
			{
				"x": -2.4080894909,
				"y": -0.1752124736,
				"z": -0.4779509095,
				"element": "F" 
			},
			{
				"x": -1.6294398297,
				"y": 1.5569688019,
				"z": 0.5984765854,
				"element": "F" 
			},
			{
				"x": 0.8445254831,
				"y": 1.2404434419,
				"z": 1.0001936278,
				"element": "H" 
			},
			{
				"x": 0.1624346069,
				"y": -0.7762062799,
				"z": -0.8526288428,
				"element": "H" 
			},
			{
				"x": -0.2319460922,
				"y": -1.0124792981,
				"z": 3.0824362774,
				"element": "H" 
			}
		],
		 "valence_orbital": [ 
			{
				"type": "occ",
				"energy": -0.41128,
				"method": "rhf"
			},
			{
				"type": "occ",
				"energy": -0.37601,
				"method": "rhf"
			},
			{
				"type": "occ",
				"energy": -0.34673,
				"method": "rhf"
			},
			{
				"type": "occ",
				"energy": -0.3288,
				"method": "rhf"
			},
			{
				"type": "occ",
				"energy": -0.28643,
				"method": "rhf"
			},
			{
				"type": "unocc",
				"energy": -0.02322,
				"method": "rhf"
			},
			{
				"type": "unocc",
				"energy": 0.04601,
				"method": "rhf"
			},
			{
				"type": "unocc",
				"energy": 0.08842,
				"method": "rhf"
			},
			{
				"type": "unocc",
				"energy": 0.10939,
				"method": "rhf"
			},
			{
				"type": "unocc",
				"energy": 0.14412,
				"method": "rhf"
			}
		],
		"cosmo_sigma_profile": { 
			"-0.025": 0.0,
			"-0.024": 0.0,
			"-0.023": 0.0,
			"-0.022": 0.0,
			"-0.021": 0.0,
			"-0.02": 0.173218971706,
			"-0.019": 1.02077422731,
			"-0.018": 1.03068095636,
			"-0.017": 0.924099143894,
			"-0.016": 1.26080339528,
			"-0.015": 0.976465553243,
			"-0.014": 1.29947899379,
			"-0.013": 1.24285130473,
			"-0.012": 1.83759305737,
			"-0.011": 1.24720100635,
			"-0.01": 3.39106703776,
			"-0.009": 3.71726195982,
			"-0.008": 2.47447036003,
			"-0.007": 3.43979387388,
			"-0.006": 2.94878576591,
			"-0.005": 3.40909012692,
			"-0.004": 4.95363930724,
			"-0.003": 4.6956782802,
			"-0.002": 4.89552582631,
			"-0.001": 6.2071726385,
			"0.0": 7.45541786291,
			"0.001": 11.7005446383,
			"0.002": 29.5515891451,
			"0.003": 12.8249812564,
			"0.004": 5.36209558633,
			"0.005": 3.68163762518,
			"0.006": 2.91312435312,
			"0.007": 2.58378950417,
			"0.008": 2.43489719606,
			"0.009": 4.06316314537,
			"0.01": 5.91497158082,
			"0.011": 4.59267539193,
			"0.012": 0.446927166627,
			"0.013": 0.0,
			"0.014": 0.0,
			"0.015": 0.0,
			"0.016": 0.0,
			"0.017": 0.0,
			"0.018": 0.0,
			"0.019": 0.0,
			"0.02": 0.0,
			"0.021": 0.0,
			"0.022": 0.0,
			"0.023": 0.0,
			"0.024": 0.0,
			"0.025": 0.0
		}
	}
}
