{
	 "smiles": "COC(=O)C1=C(OC)C(OC)=CC=C1C=O", 
	 "Tm": 356.15, 
	 "num_atms": 28, 
	 "gaussian": { 
		 "optdone": 1, 
		 "sigma_profile": "yes", 
		 "theory": "DFT", 
		 "functional": "B3LYP", 
		 "basiset": "6-31G**", 
		 "properties": { 
			 "R2extent": 3817.9981, 
			 "electric_dipole_moment_norm": 3.38545094338, 
			 "electric_quadrupole_moment_norm": 13.8244279903, 
			 "total_energy": -802.47977254, 
			 "HOMO_LUMO_gap": 0.17989, 
			 "cosmo_polarized_energy": -11.77, 
			 "cosmo_cavitation_energy": 32.5, 
			 "cosmo_dispersion_energy": -22.57, 
			 "cosmo_repulsion_energy": 1.78, 
			 "cosmo_total_nonelectrostatic_energy": 11.71, 
			 "SMD_solvation_energy": 9.53 
		},
		"coords": [
			{
				"x": -1.6904526617,
				"y": -3.1229886793,
				"z": -0.7796317253,
				"element": "C" 
			},
			{
				"x": -0.9193773577,
				"y": -1.9064011176,
				"z": -0.8152667288,
				"element": "O" 
			},
			{
				"x": -0.341559851,
				"y": -1.5579614266,
				"z": 0.3526859498,
				"element": "C" 
			},
			{
				"x": -0.4446983521,
				"y": -2.2039821105,
				"z": 1.3733292937,
				"element": "O" 
			},
			{
				"x": 0.4308216035,
				"y": -0.2728614449,
				"z": 0.231995463,
				"element": "C" 
			},
			{
				"x": 0.0483606625,
				"y": 0.7826089946,
				"z": 1.0707584893,
				"element": "C" 
			},
			{
				"x": -1.0495157759,
				"y": 0.6465515891,
				"z": 1.8830571267,
				"element": "O" 
			},
			{
				"x": -0.7425330318,
				"y": 0.3774383288,
				"z": 3.2636306924,
				"element": "C" 
			},
			{
				"x": 0.7532352303,
				"y": 2.0030552689,
				"z": 1.0302036637,
				"element": "C" 
			},
			{
				"x": 0.4261836343,
				"y": 3.0443638629,
				"z": 1.8545327089,
				"element": "O" 
			},
			{
				"x": -0.8541367331,
				"y": 3.6550824289,
				"z": 1.6279932852,
				"element": "C" 
			},
			{
				"x": 1.8510155732,
				"y": 2.1446757523,
				"z": 0.1755167786,
				"element": "C" 
			},
			{
				"x": 2.2345430965,
				"y": 1.0953933334,
				"z": -0.6480390481,
				"element": "C" 
			},
			{
				"x": 1.5264652843,
				"y": -0.1144635792,
				"z": -0.6439911218,
				"element": "C" 
			},
			{
				"x": 2.0048592684,
				"y": -1.2072759831,
				"z": -1.5288279198,
				"element": "C" 
			},
			{
				"x": 2.9450722744,
				"y": -1.0879087597,
				"z": -2.2935551229,
				"element": "O" 
			},
			{
				"x": -2.504845883,
				"y": -3.0349647819,
				"z": -0.0569725276,
				"element": "H" 
			},
			{
				"x": -2.0817437575,
				"y": -3.2493830135,
				"z": -1.7884612893,
				"element": "H" 
			},
			{
				"x": -1.0591529642,
				"y": -3.9701872117,
				"z": -0.5010414479,
				"element": "H" 
			},
			{
				"x": -0.2512779664,
				"y": -0.5954371497,
				"z": 3.3527734305,
				"element": "H" 
			},
			{
				"x": -1.7009685437,
				"y": 0.3544367706,
				"z": 3.7852528077,
				"element": "H" 
			},
			{
				"x": -0.1135010926,
				"y": 1.1692328505,
				"z": 3.6832806507,
				"element": "H" 
			},
			{
				"x": -0.8931829763,
				"y": 4.0996959283,
				"z": 0.6261884222,
				"element": "H" 
			},
			{
				"x": -0.9454235223,
				"y": 4.4440287731,
				"z": 2.3763506503,
				"element": "H" 
			},
			{
				"x": -1.6660479824,
				"y": 2.9331780247,
				"z": 1.7435036446,
				"element": "H" 
			},
			{
				"x": 2.3837538172,
				"y": 3.090132075,
				"z": 0.1778665433,
				"element": "H" 
			},
			{
				"x": 3.083798581,
				"y": 1.1839016488,
				"z": -1.3171224079,
				"element": "H" 
			},
			{
				"x": 1.456809426,
				"y": -2.1656603721,
				"z": -1.4573102613,
				"element": "H" 
			}
		],
		 "valence_orbital": [ 
			{
				"type": "occ",
				"energy": -0.29184,
				"method": "rhf"
			},
			{
				"type": "occ",
				"energy": -0.27538,
				"method": "rhf"
			},
			{
				"type": "occ",
				"energy": -0.26125,
				"method": "rhf"
			},
			{
				"type": "occ",
				"energy": -0.25336,
				"method": "rhf"
			},
			{
				"type": "occ",
				"energy": -0.24555,
				"method": "rhf"
			},
			{
				"type": "unocc",
				"energy": -0.06566,
				"method": "rhf"
			},
			{
				"type": "unocc",
				"energy": -0.03187,
				"method": "rhf"
			},
			{
				"type": "unocc",
				"energy": 0.01274,
				"method": "rhf"
			},
			{
				"type": "unocc",
				"energy": 0.03763,
				"method": "rhf"
			},
			{
				"type": "unocc",
				"energy": 0.07889,
				"method": "rhf"
			}
		],
		"cosmo_sigma_profile": { 
			"-0.025": 0.0,
			"-0.024": 0.0,
			"-0.023": 0.0,
			"-0.022": 0.0,
			"-0.021": 0.0,
			"-0.02": 0.0,
			"-0.019": 0.0,
			"-0.018": 0.0,
			"-0.017": 0.0,
			"-0.016": 0.0,
			"-0.015": 0.0,
			"-0.014": 0.0,
			"-0.013": 0.0,
			"-0.012": 0.0,
			"-0.011": 0.0,
			"-0.01": 0.0,
			"-0.009": 0.0,
			"-0.008": 1.30121549068,
			"-0.007": 5.9099764213,
			"-0.006": 16.3284054265,
			"-0.005": 20.2312788198,
			"-0.004": 26.0562334821,
			"-0.003": 29.2538592356,
			"-0.002": 24.2757841279,
			"-0.001": 16.8393505647,
			"0.0": 19.8696622806,
			"0.001": 19.4436685059,
			"0.002": 14.5531289563,
			"0.003": 8.98696134825,
			"0.004": 7.35538684357,
			"0.005": 6.32895513007,
			"0.006": 5.69575129748,
			"0.007": 6.48191154345,
			"0.008": 6.95493556008,
			"0.009": 5.62917913883,
			"0.01": 6.49591525352,
			"0.011": 7.86143863187,
			"0.012": 2.55580357138,
			"0.013": 0.405519913241,
			"0.014": 0.0,
			"0.015": 0.0,
			"0.016": 0.0,
			"0.017": 0.0,
			"0.018": 0.0,
			"0.019": 0.0,
			"0.02": 0.0,
			"0.021": 0.0,
			"0.022": 0.0,
			"0.023": 0.0,
			"0.024": 0.0,
			"0.025": 0.0
		}
	}
}
