{
	 "smiles": "O=C(CC#N)C1=CC2=C(O1)C=CC=C2", 
	 "Tm": 420.15, 
	 "num_atms": 21, 
	 "gaussian": { 
		 "optdone": 1, 
		 "sigma_profile": "yes", 
		 "theory": "DFT", 
		 "functional": "B3LYP", 
		 "basiset": "6-31G**", 
		 "properties": { 
			 "R2extent": 3063.8353, 
			 "electric_dipole_moment_norm": 4.50090839942, 
			 "electric_quadrupole_moment_norm": 17.730830577, 
			 "total_energy": -628.554141568, 
			 "HOMO_LUMO_gap": 0.15865, 
			 "cosmo_polarized_energy": -12.98, 
			 "cosmo_cavitation_energy": 27.53, 
			 "cosmo_dispersion_energy": -19.21, 
			 "cosmo_repulsion_energy": 1.51, 
			 "cosmo_total_nonelectrostatic_energy": 9.83, 
			 "SMD_solvation_energy": 6.95 
		},
		"coords": [
			{
				"x": -0.5547821602,
				"y": -2.2911652146,
				"z": 2.3911600615,
				"element": "O" 
			},
			{
				"x": -0.1501865534,
				"y": -1.1747667799,
				"z": 2.1184445829,
				"element": "C" 
			},
			{
				"x": 0.1407122446,
				"y": -0.1438192536,
				"z": 3.23240688,
				"element": "C" 
			},
			{
				"x": 1.5634010001,
				"y": 0.1786755738,
				"z": 3.3460339374,
				"element": "C" 
			},
			{
				"x": 2.6951903675,
				"y": 0.4187153938,
				"z": 3.4366250667,
				"element": "N" 
			},
			{
				"x": 0.057600967,
				"y": -0.7479751315,
				"z": 0.7350381464,
				"element": "C" 
			},
			{
				"x": -0.0797042122,
				"y": -1.4427619766,
				"z": -0.434779195,
				"element": "C" 
			},
			{
				"x": 0.2537003625,
				"y": -0.5304978305,
				"z": -1.4873780344,
				"element": "C" 
			},
			{
				"x": 0.5745817957,
				"y": 0.6853170328,
				"z": -0.8452753067,
				"element": "C" 
			},
			{
				"x": 0.4530280025,
				"y": 0.5563160368,
				"z": 0.5073120875,
				"element": "O" 
			},
			{
				"x": 0.957320735,
				"y": 1.8377567417,
				"z": -1.5246765102,
				"element": "C" 
			},
			{
				"x": 1.0131679282,
				"y": 1.7428300114,
				"z": -2.9121148282,
				"element": "C" 
			},
			{
				"x": 0.6978774337,
				"y": 0.542823787,
				"z": -3.5860212404,
				"element": "C" 
			},
			{
				"x": 0.318505189,
				"y": -0.5974388604,
				"z": -2.8916023624,
				"element": "C" 
			},
			{
				"x": -0.2154279068,
				"y": -0.5783622872,
				"z": 4.1700367545,
				"element": "H" 
			},
			{
				"x": -0.4133955688,
				"y": 0.7811167684,
				"z": 3.0346712137,
				"element": "H" 
			},
			{
				"x": -0.3786725347,
				"y": -2.4780164012,
				"z": -0.5101333626,
				"element": "H" 
			},
			{
				"x": 1.2007428728,
				"y": 2.7518236169,
				"z": -0.9950290348,
				"element": "H" 
			},
			{
				"x": 1.3083448454,
				"y": 2.6127514076,
				"z": -3.4907169791,
				"element": "H" 
			},
			{
				"x": 0.7563267424,
				"y": 0.5163399777,
				"z": -4.6696950636,
				"element": "H" 
			},
			{
				"x": 0.0787684496,
				"y": -1.5175626122,
				"z": -3.4152068133,
				"element": "H" 
			}
		],
		 "valence_orbital": [ 
			{
				"type": "occ",
				"energy": -0.32786,
				"method": "rhf"
			},
			{
				"type": "occ",
				"energy": -0.31437,
				"method": "rhf"
			},
			{
				"type": "occ",
				"energy": -0.27598,
				"method": "rhf"
			},
			{
				"type": "occ",
				"energy": -0.25881,
				"method": "rhf"
			},
			{
				"type": "occ",
				"energy": -0.24442,
				"method": "rhf"
			},
			{
				"type": "unocc",
				"energy": -0.08577,
				"method": "rhf"
			},
			{
				"type": "unocc",
				"energy": -0.01307,
				"method": "rhf"
			},
			{
				"type": "unocc",
				"energy": -0.00135,
				"method": "rhf"
			},
			{
				"type": "unocc",
				"energy": 0.03288,
				"method": "rhf"
			},
			{
				"type": "unocc",
				"energy": 0.03436,
				"method": "rhf"
			}
		],
		"cosmo_sigma_profile": { 
			"-0.025": 0.0,
			"-0.024": 0.0,
			"-0.023": 0.0,
			"-0.022": 0.0,
			"-0.021": 0.0,
			"-0.02": 0.0,
			"-0.019": 0.0,
			"-0.018": 0.0,
			"-0.017": 0.0,
			"-0.016": 0.0,
			"-0.015": 0.0,
			"-0.014": 0.0,
			"-0.013": 0.0,
			"-0.012": 0.0,
			"-0.011": 0.158201808308,
			"-0.01": 3.418530611,
			"-0.009": 5.4524170727,
			"-0.008": 6.58569521823,
			"-0.007": 10.8977260315,
			"-0.006": 14.8782013798,
			"-0.005": 14.4923794202,
			"-0.004": 14.0695142493,
			"-0.003": 9.98177156354,
			"-0.002": 10.8585312161,
			"-0.001": 14.9543496313,
			"0.0": 16.5828325197,
			"0.001": 16.3094365651,
			"0.002": 15.5356894147,
			"0.003": 15.0144881486,
			"0.004": 12.6887924644,
			"0.005": 5.10166758856,
			"0.006": 4.06486899526,
			"0.007": 3.88087615795,
			"0.008": 5.73942047736,
			"0.009": 5.49710894079,
			"0.01": 6.75172253839,
			"0.011": 6.16595238766,
			"0.012": 2.72805706917,
			"0.013": 1.10359183028,
			"0.014": 0.0,
			"0.015": 0.0,
			"0.016": 0.0,
			"0.017": 0.0,
			"0.018": 0.0,
			"0.019": 0.0,
			"0.02": 0.0,
			"0.021": 0.0,
			"0.022": 0.0,
			"0.023": 0.0,
			"0.024": 0.0,
			"0.025": 0.0
		}
	}
}
