{
	 "smiles": "CC(C)(C)OC(=O)N1CCCCC1(C)C(O)=O", 
	 "Tm": 366.15, 
	 "num_atms": 38, 
	 "gaussian": { 
		 "optdone": 1, 
		 "sigma_profile": "yes", 
		 "theory": "DFT", 
		 "functional": "B3LYP", 
		 "basiset": "6-31G**", 
		 "properties": { 
			 "R2extent": 4246.0945, 
			 "electric_dipole_moment_norm": 2.99584208362, 
			 "electric_quadrupole_moment_norm": 10.3885864053, 
			 "total_energy": -825.637428256, 
			 "HOMO_LUMO_gap": 0.24113, 
			 "cosmo_polarized_energy": -13.26, 
			 "cosmo_cavitation_energy": 37.35, 
			 "cosmo_dispersion_energy": -25.0, 
			 "cosmo_repulsion_energy": 1.91, 
			 "cosmo_total_nonelectrostatic_energy": 14.26, 
			 "SMD_solvation_energy": 7.47 
		},
		"coords": [
			{
				"x": -0.507285415,
				"y": -2.1464872487,
				"z": -3.3199597197,
				"element": "C" 
			},
			{
				"x": -0.599148079,
				"y": -0.6634605569,
				"z": -2.9493748198,
				"element": "C" 
			},
			{
				"x": -2.0320121582,
				"y": -0.1486230437,
				"z": -3.1226582501,
				"element": "C" 
			},
			{
				"x": 0.4200954261,
				"y": 0.1578533369,
				"z": -3.7455949083,
				"element": "C" 
			},
			{
				"x": -0.2398674808,
				"y": -0.6686355778,
				"z": -1.5207030022,
				"element": "O" 
			},
			{
				"x": -0.2720734034,
				"y": 0.4743244056,
				"z": -0.789962942,
				"element": "C" 
			},
			{
				"x": -0.4305057751,
				"y": 1.5953372916,
				"z": -1.2505008395,
				"element": "O" 
			},
			{
				"x": -0.0804179557,
				"y": 0.2094136338,
				"z": 0.5479035145,
				"element": "N" 
			},
			{
				"x": -0.1907738585,
				"y": 1.337173582,
				"z": 1.4824861801,
				"element": "C" 
			},
			{
				"x": -1.3742053714,
				"y": 1.1395748107,
				"z": 2.4330821459,
				"element": "C" 
			},
			{
				"x": -1.2840367048,
				"y": -0.2214457054,
				"z": 3.1740510622,
				"element": "C" 
			},
			{
				"x": -0.1233563658,
				"y": -1.0799288178,
				"z": 2.6474235953,
				"element": "C" 
			},
			{
				"x": -0.0295278584,
				"y": -1.1609566378,
				"z": 1.0938817534,
				"element": "C" 
			},
			{
				"x": 1.2852212549,
				"y": -1.8710155771,
				"z": 0.7194542356,
				"element": "C" 
			},
			{
				"x": -1.2812693563,
				"y": -1.9356041035,
				"z": 0.6352054469,
				"element": "C" 
			},
			{
				"x": -1.0561374182,
				"y": -3.2669109554,
				"z": 0.5318985813,
				"element": "O" 
			},
			{
				"x": -2.379499955,
				"y": -1.4531545917,
				"z": 0.4661919329,
				"element": "O" 
			},
			{
				"x": -1.1929918002,
				"y": -2.7410559456,
				"z": -2.7096700599,
				"element": "H" 
			},
			{
				"x": 0.5078575063,
				"y": -2.5239187824,
				"z": -3.1646078337,
				"element": "H" 
			},
			{
				"x": -0.7694226289,
				"y": -2.2861610199,
				"z": -4.3729094815,
				"element": "H" 
			},
			{
				"x": -2.3453244732,
				"y": -0.2796573043,
				"z": -4.163625488,
				"element": "H" 
			},
			{
				"x": -2.7148798702,
				"y": -0.7129405125,
				"z": -2.4806196045,
				"element": "H" 
			},
			{
				"x": -2.100764372,
				"y": 0.9083577972,
				"z": -2.8645137635,
				"element": "H" 
			},
			{
				"x": 1.4335877071,
				"y": -0.2140063254,
				"z": -3.563615144,
				"element": "H" 
			},
			{
				"x": 0.2108708003,
				"y": 0.0623273084,
				"z": -4.8163153058,
				"element": "H" 
			},
			{
				"x": 0.3741679435,
				"y": 1.2102145951,
				"z": -3.4665544508,
				"element": "H" 
			},
			{
				"x": -0.3148865112,
				"y": 2.232701922,
				"z": 0.875543168,
				"element": "H" 
			},
			{
				"x": 0.7477725203,
				"y": 1.4447080362,
				"z": 2.0421260789,
				"element": "H" 
			},
			{
				"x": -2.2930228129,
				"y": 1.177983431,
				"z": 1.841151875,
				"element": "H" 
			},
			{
				"x": -1.407983726,
				"y": 1.9734871932,
				"z": 3.1430054045,
				"element": "H" 
			},
			{
				"x": -2.2260879648,
				"y": -0.7651035485,
				"z": 3.0616794082,
				"element": "H" 
			},
			{
				"x": -1.1361450946,
				"y": -0.0722686189,
				"z": 4.2492053047,
				"element": "H" 
			},
			{
				"x": 0.8320659416,
				"y": -0.6810485238,
				"z": 3.0062267652,
				"element": "H" 
			},
			{
				"x": -0.1905813956,
				"y": -2.1024339514,
				"z": 3.0329702772,
				"element": "H" 
			},
			{
				"x": 1.3704906576,
				"y": -2.0025098567,
				"z": -0.358337888,
				"element": "H" 
			},
			{
				"x": 1.3461068157,
				"y": -2.8512716032,
				"z": 1.1977178697,
				"element": "H" 
			},
			{
				"x": 2.1241866889,
				"y": -1.2600586694,
				"z": 1.065660061,
				"element": "H" 
			},
			{
				"x": -1.9163154572,
				"y": -3.662699866,
				"z": 0.3113588408,
				"element": "H" 
			}
		],
		 "valence_orbital": [ 
			{
				"type": "occ",
				"energy": -0.31461,
				"method": "rhf"
			},
			{
				"type": "occ",
				"energy": -0.28237,
				"method": "rhf"
			},
			{
				"type": "occ",
				"energy": -0.27485,
				"method": "rhf"
			},
			{
				"type": "occ",
				"energy": -0.25624,
				"method": "rhf"
			},
			{
				"type": "occ",
				"energy": -0.23398,
				"method": "rhf"
			},
			{
				"type": "unocc",
				"energy": 0.00715,
				"method": "rhf"
			},
			{
				"type": "unocc",
				"energy": 0.05394,
				"method": "rhf"
			},
			{
				"type": "unocc",
				"energy": 0.06354,
				"method": "rhf"
			},
			{
				"type": "unocc",
				"energy": 0.08794,
				"method": "rhf"
			},
			{
				"type": "unocc",
				"energy": 0.09161,
				"method": "rhf"
			}
		],
		"cosmo_sigma_profile": { 
			"-0.025": 0.0,
			"-0.024": 0.0,
			"-0.023": 0.0,
			"-0.022": 0.0,
			"-0.021": 0.0,
			"-0.02": 0.0,
			"-0.019": 0.000225358545295,
			"-0.018": 0.652200335743,
			"-0.017": 1.06304443569,
			"-0.016": 0.660347048166,
			"-0.015": 0.691741300195,
			"-0.014": 0.819397301309,
			"-0.013": 0.346487263435,
			"-0.012": 0.622147580129,
			"-0.011": 1.07357978833,
			"-0.01": 0.915156627852,
			"-0.009": 0.431711699657,
			"-0.008": 0.386675274354,
			"-0.007": 0.866227961758,
			"-0.006": 1.27518661145,
			"-0.005": 6.26665048209,
			"-0.004": 23.6245639784,
			"-0.003": 32.7141732332,
			"-0.002": 38.9327008653,
			"-0.001": 36.8117427397,
			"0.0": 39.4930688482,
			"0.001": 30.0460139008,
			"0.002": 12.851314418,
			"0.003": 8.81325755158,
			"0.004": 9.13245586734,
			"0.005": 7.42888182094,
			"0.006": 5.41212310058,
			"0.007": 5.86030813619,
			"0.008": 5.16877461126,
			"0.009": 2.22620821997,
			"0.01": 2.58565405502,
			"0.011": 4.56701695818,
			"0.012": 3.67969859663,
			"0.013": 2.8837737083,
			"0.014": 0.506981249731,
			"0.015": 0.0,
			"0.016": 0.0,
			"0.017": 0.0,
			"0.018": 0.0,
			"0.019": 0.0,
			"0.02": 0.0,
			"0.021": 0.0,
			"0.022": 0.0,
			"0.023": 0.0,
			"0.024": 0.0,
			"0.025": 0.0
		}
	}
}
