{
	 "smiles": "CCN1C=C(C(O)=O)C(=O)C2=C1C=C(N1CCNCC1)C(F)=C2", 
	 "Tm": 501.15, 
	 "num_atms": 41, 
	 "gaussian": { 
		 "optdone": 1, 
		 "sigma_profile": "yes", 
		 "theory": "DFT", 
		 "functional": "B3LYP", 
		 "basiset": "6-31G**", 
		 "properties": { 
			 "R2extent": 9802.9977, 
			 "electric_dipole_moment_norm": 11.4127871924, 
			 "electric_quadrupole_moment_norm": 36.7566435932, 
			 "total_energy": -1110.33706166, 
			 "HOMO_LUMO_gap": 0.15849, 
			 "cosmo_polarized_energy": -24.84, 
			 "cosmo_cavitation_energy": 42.23, 
			 "cosmo_dispersion_energy": -30.55, 
			 "cosmo_repulsion_energy": 2.26, 
			 "cosmo_total_nonelectrostatic_energy": 13.94, 
			 "SMD_solvation_energy": 5.17 
		},
		"coords": [
			{
				"x": -2.4892193824,
				"y": -1.2847584172,
				"z": -2.4384119443,
				"element": "C" 
			},
			{
				"x": -1.5468256112,
				"y": -0.7900572228,
				"z": -1.3472585753,
				"element": "C" 
			},
			{
				"x": -0.1826085718,
				"y": -1.3610466219,
				"z": -1.3735996554,
				"element": "N" 
			},
			{
				"x": 0.2004431261,
				"y": -2.2358779314,
				"z": -2.3354736217,
				"element": "C" 
			},
			{
				"x": 1.4424875724,
				"y": -2.8070053663,
				"z": -2.415095886,
				"element": "C" 
			},
			{
				"x": 1.688641741,
				"y": -3.7553802466,
				"z": -3.5492408125,
				"element": "C" 
			},
			{
				"x": 2.9114863019,
				"y": -4.2889233076,
				"z": -3.5864142786,
				"element": "O" 
			},
			{
				"x": 0.8313653427,
				"y": -4.0165982242,
				"z": -4.374116949,
				"element": "O" 
			},
			{
				"x": 2.4547799509,
				"y": -2.4884434759,
				"z": -1.4328220108,
				"element": "C" 
			},
			{
				"x": 3.6082989331,
				"y": -2.9794582589,
				"z": -1.4534227827,
				"element": "O" 
			},
			{
				"x": 2.0357811734,
				"y": -1.5386504669,
				"z": -0.4018824009,
				"element": "C" 
			},
			{
				"x": 0.7344288339,
				"y": -0.986810786,
				"z": -0.3765787839,
				"element": "C" 
			},
			{
				"x": 0.38471161,
				"y": -0.0617459185,
				"z": 0.6243253939,
				"element": "C" 
			},
			{
				"x": 1.2836847481,
				"y": 0.3200788817,
				"z": 1.6348163117,
				"element": "C" 
			},
			{
				"x": 0.9346966841,
				"y": 1.1734287895,
				"z": 2.6729471571,
				"element": "N" 
			},
			{
				"x": -0.4648635354,
				"y": 1.507135858,
				"z": 2.941208686,
				"element": "C" 
			},
			{
				"x": -0.8706390394,
				"y": 2.8475103578,
				"z": 2.3129423687,
				"element": "C" 
			},
			{
				"x": 0.0321087866,
				"y": 3.8798010591,
				"z": 2.8208347479,
				"element": "N" 
			},
			{
				"x": 1.4277416767,
				"y": 3.5894237446,
				"z": 2.4888224077,
				"element": "C" 
			},
			{
				"x": 1.8338195124,
				"y": 2.2518079889,
				"z": 3.1204564195,
				"element": "C" 
			},
			{
				"x": 2.5722752318,
				"y": -0.2848949321,
				"z": 1.5890827517,
				"element": "C" 
			},
			{
				"x": 3.4607848789,
				"y": -0.0056639833,
				"z": 2.5737456556,
				"element": "F" 
			},
			{
				"x": 2.9421867073,
				"y": -1.1625556641,
				"z": 0.6057587877,
				"element": "C" 
			},
			{
				"x": -2.1380287986,
				"y": -1.0281392419,
				"z": -3.4414050263,
				"element": "H" 
			},
			{
				"x": -3.4566666254,
				"y": -0.7960912798,
				"z": -2.2920932073,
				"element": "H" 
			},
			{
				"x": -2.6522466868,
				"y": -2.3646799348,
				"z": -2.3882425964,
				"element": "H" 
			},
			{
				"x": -1.9789510265,
				"y": -1.0169855946,
				"z": -0.3661167747,
				"element": "H" 
			},
			{
				"x": -1.4539520157,
				"y": 0.3001267107,
				"z": -1.4159591159,
				"element": "H" 
			},
			{
				"x": -0.5247889744,
				"y": -2.5026645352,
				"z": -3.0920767664,
				"element": "H" 
			},
			{
				"x": 3.4306358827,
				"y": -3.9261956798,
				"z": -2.8134979656,
				"element": "H" 
			},
			{
				"x": -0.5899078577,
				"y": 0.4004137153,
				"z": 0.6095302765,
				"element": "H" 
			},
			{
				"x": -0.573407184,
				"y": 1.5971856321,
				"z": 4.029564632,
				"element": "H" 
			},
			{
				"x": -1.1113266798,
				"y": 0.6913350966,
				"z": 2.6119728487,
				"element": "H" 
			},
			{
				"x": -1.8975499142,
				"y": 3.0946108824,
				"z": 2.605074844,
				"element": "H" 
			},
			{
				"x": -0.8471415871,
				"y": 2.7565902124,
				"z": 1.2097431403,
				"element": "H" 
			},
			{
				"x": -0.2342864156,
				"y": 4.7905882035,
				"z": 2.4591328851,
				"element": "H" 
			},
			{
				"x": 1.6111486769,
				"y": 3.5339568514,
				"z": 1.398567708,
				"element": "H" 
			},
			{
				"x": 2.0616450909,
				"y": 4.386686791,
				"z": 2.8925474075,
				"element": "H" 
			},
			{
				"x": 2.8628538504,
				"y": 2.0077171086,
				"z": 2.8711980588,
				"element": "H" 
			},
			{
				"x": 1.753330006,
				"y": 2.3317662755,
				"z": 4.2113996967,
				"element": "H" 
			},
			{
				"x": 3.9311735877,
				"y": -1.6066370695,
				"z": 0.6085369687,
				"element": "H" 
			}
		],
		 "valence_orbital": [ 
			{
				"type": "occ",
				"energy": -0.25591,
				"method": "rhf"
			},
			{
				"type": "occ",
				"energy": -0.24717,
				"method": "rhf"
			},
			{
				"type": "occ",
				"energy": -0.24608,
				"method": "rhf"
			},
			{
				"type": "occ",
				"energy": -0.22869,
				"method": "rhf"
			},
			{
				"type": "occ",
				"energy": -0.21511,
				"method": "rhf"
			},
			{
				"type": "unocc",
				"energy": -0.05662,
				"method": "rhf"
			},
			{
				"type": "unocc",
				"energy": -0.03711,
				"method": "rhf"
			},
			{
				"type": "unocc",
				"energy": 0.00104,
				"method": "rhf"
			},
			{
				"type": "unocc",
				"energy": 0.0407,
				"method": "rhf"
			},
			{
				"type": "unocc",
				"energy": 0.05471,
				"method": "rhf"
			}
		],
		"cosmo_sigma_profile": { 
			"-0.025": 0.0,
			"-0.024": 0.0,
			"-0.023": 0.0,
			"-0.022": 0.0,
			"-0.021": 0.0,
			"-0.02": 0.0,
			"-0.019": 0.0,
			"-0.018": 0.0,
			"-0.017": 0.0,
			"-0.016": 0.0,
			"-0.015": 0.0,
			"-0.014": 0.0,
			"-0.013": 0.0,
			"-0.012": 0.0,
			"-0.011": 0.142606012284,
			"-0.01": 1.43661310043,
			"-0.009": 1.9080304441,
			"-0.008": 4.34986202591,
			"-0.007": 10.2689095138,
			"-0.006": 15.5918795716,
			"-0.005": 24.9653195634,
			"-0.004": 31.2491386894,
			"-0.003": 33.2150864374,
			"-0.002": 38.7039805461,
			"-0.001": 31.1803860243,
			"0.0": 22.7272611127,
			"0.001": 20.6803542604,
			"0.002": 18.4899028586,
			"0.003": 11.3116913005,
			"0.004": 11.8401120164,
			"0.005": 6.9604698305,
			"0.006": 4.98522832147,
			"0.007": 4.1608186476,
			"0.008": 4.12102057322,
			"0.009": 4.80161885555,
			"0.01": 4.90623351099,
			"0.011": 6.16635631551,
			"0.012": 8.36454134584,
			"0.013": 7.07425798663,
			"0.014": 2.72456766504,
			"0.015": 0.897502765231,
			"0.016": 0.537181936479,
			"0.017": 0.257316713248,
			"0.018": 0.220874736368,
			"0.019": 0.0,
			"0.02": 0.0,
			"0.021": 0.0,
			"0.022": 0.0,
			"0.023": 0.0,
			"0.024": 0.0,
			"0.025": 0.0
		}
	}
}
