{
	 "smiles": "CCCC1=C(NC(N)=S)C=CC=C1", 
	 "Tm": 390.15, 
	 "num_atms": 27, 
	 "gaussian": { 
		 "optdone": 1, 
		 "sigma_profile": "yes", 
		 "theory": "DFT", 
		 "functional": "B3LYP", 
		 "basiset": "6-31G**", 
		 "properties": { 
			 "R2extent": 3654.6783, 
			 "electric_dipole_moment_norm": 5.69852671925, 
			 "electric_quadrupole_moment_norm": 22.2970487552, 
			 "total_energy": -897.223262273, 
			 "HOMO_LUMO_gap": 0.17514, 
			 "cosmo_polarized_energy": -16.6, 
			 "cosmo_cavitation_energy": 31.19, 
			 "cosmo_dispersion_energy": -21.95, 
			 "cosmo_repulsion_energy": 1.71, 
			 "cosmo_total_nonelectrostatic_energy": 10.95, 
			 "SMD_solvation_energy": 4.09 
		},
		"coords": [
			{
				"x": -0.2151370242,
				"y": 2.8048540551,
				"z": -2.2046994386,
				"element": "C" 
			},
			{
				"x": 1.0306289407,
				"y": 2.6646316829,
				"z": -1.3257745021,
				"element": "C" 
			},
			{
				"x": 1.2377359856,
				"y": 1.2511070914,
				"z": -0.733691387,
				"element": "C" 
			},
			{
				"x": 0.1716978699,
				"y": 0.840869189,
				"z": 0.2646076328,
				"element": "C" 
			},
			{
				"x": -0.8970513044,
				"y": -0.02329274,
				"z": -0.0554837666,
				"element": "C" 
			},
			{
				"x": -0.9790176607,
				"y": -0.6080793555,
				"z": -1.351375581,
				"element": "N" 
			},
			{
				"x": -2.0270330775,
				"y": -0.5888448079,
				"z": -2.2298698063,
				"element": "C" 
			},
			{
				"x": -3.1574415924,
				"y": 0.0433568838,
				"z": -1.8248085604,
				"element": "N" 
			},
			{
				"x": -1.9022920585,
				"y": -1.3282675672,
				"z": -3.7375224674,
				"element": "S" 
			},
			{
				"x": -1.8606397735,
				"y": -0.3513176355,
				"z": 0.9122088196,
				"element": "C" 
			},
			{
				"x": -1.7962893423,
				"y": 0.1978392159,
				"z": 2.1905158956,
				"element": "C" 
			},
			{
				"x": -0.7445509021,
				"y": 1.0528605841,
				"z": 2.5226930666,
				"element": "C" 
			},
			{
				"x": 0.2258108924,
				"y": 1.3533952553,
				"z": 1.5687726638,
				"element": "C" 
			},
			{
				"x": -0.2991476199,
				"y": 3.8217708182,
				"z": -2.6012757789,
				"element": "H" 
			},
			{
				"x": -0.184173961,
				"y": 2.1154169858,
				"z": -3.0551342328,
				"element": "H" 
			},
			{
				"x": -1.1295606456,
				"y": 2.5942105664,
				"z": -1.6404347272,
				"element": "H" 
			},
			{
				"x": 1.9217416783,
				"y": 2.9175950862,
				"z": -1.9135742234,
				"element": "H" 
			},
			{
				"x": 0.9874107798,
				"y": 3.3903592145,
				"z": -0.5035018545,
				"element": "H" 
			},
			{
				"x": 2.2103518346,
				"y": 1.2255769553,
				"z": -0.2280680007,
				"element": "H" 
			},
			{
				"x": 1.3028252552,
				"y": 0.5350442548,
				"z": -1.559094318,
				"element": "H" 
			},
			{
				"x": -0.1513370091,
				"y": -1.0354271901,
				"z": -1.7420938669,
				"element": "H" 
			},
			{
				"x": -3.1643484849,
				"y": 0.6381053572,
				"z": -1.0085203912,
				"element": "H" 
			},
			{
				"x": -3.8761327739,
				"y": 0.1611251235,
				"z": -2.5203564382,
				"element": "H" 
			},
			{
				"x": -2.6457265856,
				"y": -1.0549728639,
				"z": 0.6545925904,
				"element": "H" 
			},
			{
				"x": -2.5491190851,
				"y": -0.0629915231,
				"z": 2.9283004172,
				"element": "H" 
			},
			{
				"x": -0.6738862895,
				"y": 1.4741238262,
				"z": 3.5210119979,
				"element": "H" 
			},
			{
				"x": 1.0502819536,
				"y": 2.0112515377,
				"z": 1.8333762573,
				"element": "H" 
			}
		],
		 "valence_orbital": [ 
			{
				"type": "occ",
				"energy": -0.29747,
				"method": "rhf"
			},
			{
				"type": "occ",
				"energy": -0.26036,
				"method": "rhf"
			},
			{
				"type": "occ",
				"energy": -0.24864,
				"method": "rhf"
			},
			{
				"type": "occ",
				"energy": -0.2064,
				"method": "rhf"
			},
			{
				"type": "occ",
				"energy": -0.20143,
				"method": "rhf"
			},
			{
				"type": "unocc",
				"energy": -0.02629,
				"method": "rhf"
			},
			{
				"type": "unocc",
				"energy": -0.02085,
				"method": "rhf"
			},
			{
				"type": "unocc",
				"energy": 0.01499,
				"method": "rhf"
			},
			{
				"type": "unocc",
				"energy": 0.06636,
				"method": "rhf"
			},
			{
				"type": "unocc",
				"energy": 0.08147,
				"method": "rhf"
			}
		],
		"cosmo_sigma_profile": { 
			"-0.025": 0.0,
			"-0.024": 0.0,
			"-0.023": 0.0,
			"-0.022": 0.0,
			"-0.021": 0.0,
			"-0.02": 0.0,
			"-0.019": 0.0,
			"-0.018": 0.0,
			"-0.017": 0.0,
			"-0.016": 0.0,
			"-0.015": 0.238702261189,
			"-0.014": 2.50721257481,
			"-0.013": 2.34308958703,
			"-0.012": 2.82498754421,
			"-0.011": 3.19240855543,
			"-0.01": 2.50092488617,
			"-0.009": 2.71794249746,
			"-0.008": 2.56566227741,
			"-0.007": 2.6645068215,
			"-0.006": 8.12738960084,
			"-0.005": 11.9433863367,
			"-0.004": 17.8253072002,
			"-0.003": 17.7164768064,
			"-0.002": 21.6857802799,
			"-0.001": 23.2362550372,
			"0.0": 23.4426814815,
			"0.001": 22.0447568766,
			"0.002": 14.8902372978,
			"0.003": 10.1759732999,
			"0.004": 10.9487497569,
			"0.005": 9.63832459752,
			"0.006": 3.82919032965,
			"0.007": 3.07063415843,
			"0.008": 3.78510354461,
			"0.009": 2.99297045449,
			"0.01": 4.79366154391,
			"0.011": 6.66613442088,
			"0.012": 7.36821544588,
			"0.013": 2.62808786755,
			"0.014": 0.0,
			"0.015": 0.0,
			"0.016": 0.0,
			"0.017": 0.0,
			"0.018": 0.0,
			"0.019": 0.0,
			"0.02": 0.0,
			"0.021": 0.0,
			"0.022": 0.0,
			"0.023": 0.0,
			"0.024": 0.0,
			"0.025": 0.0
		}
	}
}
