{
	 "smiles": "NS(=O)(=O)C1=C(F)C=CC(=C1)C(O)=O", 
	 "Tm": 510.15, 
	 "num_atms": 20, 
	 "gaussian": { 
		 "optdone": 1, 
		 "sigma_profile": "yes", 
		 "theory": "DFT", 
		 "functional": "B3LYP", 
		 "basiset": "6-31G**", 
		 "properties": { 
			 "R2extent": 4743.3311, 
			 "electric_dipole_moment_norm": 3.68411023044, 
			 "electric_quadrupole_moment_norm": 24.7900429673, 
			 "total_energy": -1123.96275809, 
			 "HOMO_LUMO_gap": 0.20962, 
			 "cosmo_polarized_energy": -22.57, 
			 "cosmo_cavitation_energy": 27.11, 
			 "cosmo_dispersion_energy": -20.31, 
			 "cosmo_repulsion_energy": 1.53, 
			 "cosmo_total_nonelectrostatic_energy": 8.33, 
			 "SMD_solvation_energy": 5.94 
		},
		"coords": [
			{
				"x": -0.0377247596,
				"y": 2.2798302476,
				"z": 0.7360621998,
				"element": "N" 
			},
			{
				"x": 0.2425369628,
				"y": 0.6786816092,
				"z": 0.2965862971,
				"element": "S" 
			},
			{
				"x": 0.1371547957,
				"y": 0.5652388241,
				"z": -1.1570371726,
				"element": "O" 
			},
			{
				"x": 1.4315745088,
				"y": 0.2304765007,
				"z": 1.0269283209,
				"element": "O" 
			},
			{
				"x": -1.1524817223,
				"y": -0.1833363436,
				"z": 1.0232149687,
				"element": "C" 
			},
			{
				"x": -2.4647146283,
				"y": 0.1396759598,
				"z": 0.6769613741,
				"element": "C" 
			},
			{
				"x": -2.6906552497,
				"y": 1.1454240347,
				"z": -0.1791414525,
				"element": "F" 
			},
			{
				"x": -3.5442328952,
				"y": -0.5480193493,
				"z": 1.2200043632,
				"element": "C" 
			},
			{
				"x": -3.2995854873,
				"y": -1.583787779,
				"z": 2.1155046024,
				"element": "C" 
			},
			{
				"x": -1.9879771979,
				"y": -1.9416140411,
				"z": 2.4618159256,
				"element": "C" 
			},
			{
				"x": -0.9159631933,
				"y": -1.2243299616,
				"z": 1.9183510001,
				"element": "C" 
			},
			{
				"x": -1.8137883833,
				"y": -3.0626823753,
				"z": 3.4451302156,
				"element": "C" 
			},
			{
				"x": -0.5873436741,
				"y": -3.6365770715,
				"z": 3.5208495406,
				"element": "O" 
			},
			{
				"x": -2.7126631096,
				"y": -3.4543712407,
				"z": 4.151248447,
				"element": "O" 
			},
			{
				"x": 0.7667283769,
				"y": 2.6386613795,
				"z": 1.2429771445,
				"element": "H" 
			},
			{
				"x": -0.2606282773,
				"y": 2.8388832921,
				"z": -0.0826317619,
				"element": "H" 
			},
			{
				"x": -4.5507414507,
				"y": -0.2608090178,
				"z": 0.9366650259,
				"element": "H" 
			},
			{
				"x": -4.1180518442,
				"y": -2.1337641037,
				"z": 2.566593782,
				"element": "H" 
			},
			{
				"x": 0.1171194029,
				"y": -1.4177449803,
				"z": 2.1915665456,
				"element": "H" 
			},
			{
				"x": -0.0172621742,
				"y": -3.3382355839,
				"z": 2.7988506338,
				"element": "H" 
			}
		],
		 "valence_orbital": [ 
			{
				"type": "occ",
				"energy": -0.32559,
				"method": "rhf"
			},
			{
				"type": "occ",
				"energy": -0.31546,
				"method": "rhf"
			},
			{
				"type": "occ",
				"energy": -0.29553,
				"method": "rhf"
			},
			{
				"type": "occ",
				"energy": -0.28916,
				"method": "rhf"
			},
			{
				"type": "occ",
				"energy": -0.27903,
				"method": "rhf"
			},
			{
				"type": "unocc",
				"energy": -0.06941,
				"method": "rhf"
			},
			{
				"type": "unocc",
				"energy": -0.05809,
				"method": "rhf"
			},
			{
				"type": "unocc",
				"energy": 0.02509,
				"method": "rhf"
			},
			{
				"type": "unocc",
				"energy": 0.03011,
				"method": "rhf"
			},
			{
				"type": "unocc",
				"energy": 0.05012,
				"method": "rhf"
			}
		],
		"cosmo_sigma_profile": { 
			"-0.025": 0.0,
			"-0.024": 0.0,
			"-0.023": 0.0,
			"-0.022": 0.0,
			"-0.021": 0.0,
			"-0.02": 0.145057263036,
			"-0.019": 1.29237714428,
			"-0.018": 0.827025429678,
			"-0.017": 1.05577840739,
			"-0.016": 1.35824440318,
			"-0.015": 3.19430368931,
			"-0.014": 3.51848441996,
			"-0.013": 3.66162649483,
			"-0.012": 3.66045081483,
			"-0.011": 2.5353559147,
			"-0.01": 2.94025013875,
			"-0.009": 3.86328730481,
			"-0.008": 6.06440377248,
			"-0.007": 6.96241253875,
			"-0.006": 6.74170293997,
			"-0.005": 7.63422091471,
			"-0.004": 7.7707078552,
			"-0.003": 10.9339901175,
			"-0.002": 16.0953503718,
			"-0.001": 16.1985305083,
			"0.0": 12.9855856305,
			"0.001": 8.90674435861,
			"0.002": 9.52194585049,
			"0.003": 8.93581701305,
			"0.004": 6.19798596992,
			"0.005": 6.22907780897,
			"0.006": 6.20829256565,
			"0.007": 6.09808600847,
			"0.008": 5.85799415301,
			"0.009": 9.72647128462,
			"0.01": 15.8810455535,
			"0.011": 10.7771940414,
			"0.012": 3.04138235513,
			"0.013": 0.675680831332,
			"0.014": 0.0,
			"0.015": 0.0,
			"0.016": 0.0,
			"0.017": 0.0,
			"0.018": 0.0,
			"0.019": 0.0,
			"0.02": 0.0,
			"0.021": 0.0,
			"0.022": 0.0,
			"0.023": 0.0,
			"0.024": 0.0,
			"0.025": 0.0
		}
	}
}
