{
	 "smiles": "COC(=O)C1=CC2=CC=C(Br)C=C2C=C1", 
	 "Tm": 397.15, 
	 "num_atms": 24, 
	 "gaussian": { 
		 "optdone": 1, 
		 "sigma_profile": "yes", 
		 "theory": "DFT", 
		 "functional": "B3LYP", 
		 "basiset": "6-31G**", 
		 "properties": { 
			 "R2extent": 9047.9775, 
			 "electric_dipole_moment_norm": 2.00502124926, 
			 "electric_quadrupole_moment_norm": 11.3674379994, 
			 "total_energy": -3184.57737574, 
			 "HOMO_LUMO_gap": 0.16418, 
			 "cosmo_polarized_energy": -8.42, 
			 "cosmo_cavitation_energy": 31.1, 
			 "cosmo_dispersion_energy": -23.27, 
			 "cosmo_repulsion_energy": 1.8, 
			 "cosmo_total_nonelectrostatic_energy": 9.62, 
			 "SMD_solvation_energy": 5.44 
		},
		"coords": [
			{
				"x": -1.8147250633,
				"y": 0.2870409321,
				"z": 3.5188848045,
				"element": "C" 
			},
			{
				"x": -1.2244907053,
				"y": -0.1493131523,
				"z": 2.2849077357,
				"element": "O" 
			},
			{
				"x": 0.1283293618,
				"y": -0.1467175539,
				"z": 2.2618872464,
				"element": "C" 
			},
			{
				"x": 0.8073734628,
				"y": 0.1975929853,
				"z": 3.2101242035,
				"element": "O" 
			},
			{
				"x": 0.6813852709,
				"y": -0.6082827746,
				"z": 0.9579653926,
				"element": "C" 
			},
			{
				"x": -0.1268917226,
				"y": -0.9915113868,
				"z": -0.0960540433,
				"element": "C" 
			},
			{
				"x": 0.4383712333,
				"y": -1.4247660731,
				"z": -1.3212398444,
				"element": "C" 
			},
			{
				"x": -0.3661414866,
				"y": -1.8248668427,
				"z": -2.4227315525,
				"element": "C" 
			},
			{
				"x": 0.2007721655,
				"y": -2.2424791996,
				"z": -3.6042116326,
				"element": "C" 
			},
			{
				"x": 1.6108422305,
				"y": -2.2728859339,
				"z": -3.7211359455,
				"element": "C" 
			},
			{
				"x": 2.3751160538,
				"y": -2.8566468523,
				"z": -5.3719097824,
				"element": "Br" 
			},
			{
				"x": 2.4314095363,
				"y": -1.8957947734,
				"z": -2.684462396,
				"element": "C" 
			},
			{
				"x": 1.8645891953,
				"y": -1.4618105205,
				"z": -1.4571662893,
				"element": "C" 
			},
			{
				"x": 2.6701770711,
				"y": -1.06139945,
				"z": -0.3548867873,
				"element": "C" 
			},
			{
				"x": 2.0960323889,
				"y": -0.6458668898,
				"z": 0.820845259,
				"element": "C" 
			},
			{
				"x": -1.5042499875,
				"y": -0.3588890743,
				"z": 4.3440085685,
				"element": "H" 
			},
			{
				"x": -2.8923278638,
				"y": 0.2244340485,
				"z": 3.3677606187,
				"element": "H" 
			},
			{
				"x": -1.5175912267,
				"y": 1.3139526623,
				"z": 3.746077383,
				"element": "H" 
			},
			{
				"x": -1.2058394929,
				"y": -0.9618310807,
				"z": 0.011445446,
				"element": "H" 
			},
			{
				"x": -1.4476725009,
				"y": -1.7972947091,
				"z": -2.3211838355,
				"element": "H" 
			},
			{
				"x": -0.4142320632,
				"y": -2.5471409593,
				"z": -4.4429389227,
				"element": "H" 
			},
			{
				"x": 3.5099263546,
				"y": -1.9266940018,
				"z": -2.7953585189,
				"element": "H" 
			},
			{
				"x": 3.7513631879,
				"y": -1.0896857514,
				"z": -0.4584410289,
				"element": "H" 
			},
			{
				"x": 2.6994746002,
				"y": -0.3383436486,
				"z": 1.6677139213,
				"element": "H" 
			}
		],
		 "valence_orbital": [ 
			{
				"type": "occ",
				"energy": -0.29258,
				"method": "rhf"
			},
			{
				"type": "occ",
				"energy": -0.29175,
				"method": "rhf"
			},
			{
				"type": "occ",
				"energy": -0.27697,
				"method": "rhf"
			},
			{
				"type": "occ",
				"energy": -0.25097,
				"method": "rhf"
			},
			{
				"type": "occ",
				"energy": -0.22983,
				"method": "rhf"
			},
			{
				"type": "unocc",
				"energy": -0.06565,
				"method": "rhf"
			},
			{
				"type": "unocc",
				"energy": -0.03832,
				"method": "rhf"
			},
			{
				"type": "unocc",
				"energy": 0.00267,
				"method": "rhf"
			},
			{
				"type": "unocc",
				"energy": 0.0089,
				"method": "rhf"
			},
			{
				"type": "unocc",
				"energy": 0.03439,
				"method": "rhf"
			}
		],
		"cosmo_sigma_profile": { 
			"-0.025": 0.0,
			"-0.024": 0.0,
			"-0.023": 0.0,
			"-0.022": 0.0,
			"-0.021": 0.0,
			"-0.02": 0.0,
			"-0.019": 0.0,
			"-0.018": 0.0,
			"-0.017": 0.0,
			"-0.016": 0.0,
			"-0.015": 0.0,
			"-0.014": 0.0,
			"-0.013": 0.0,
			"-0.012": 0.0,
			"-0.011": 0.0,
			"-0.01": 0.0,
			"-0.009": 0.0,
			"-0.008": 2.19639901938,
			"-0.007": 10.9298988448,
			"-0.006": 11.5507587306,
			"-0.005": 18.1692112732,
			"-0.004": 17.2687718769,
			"-0.003": 18.2042831706,
			"-0.002": 15.4723716034,
			"-0.001": 14.7848138873,
			"0.0": 18.2453469794,
			"0.001": 25.6921326599,
			"0.002": 39.4132139417,
			"0.003": 21.9417554684,
			"0.004": 15.8346674624,
			"0.005": 6.96035013928,
			"0.006": 2.67676225564,
			"0.007": 1.91204661087,
			"0.008": 1.3482497915,
			"0.009": 1.15014455367,
			"0.01": 2.03638486121,
			"0.011": 3.21556629886,
			"0.012": 3.85700287561,
			"0.013": 0.155376201454,
			"0.014": 0.0,
			"0.015": 0.0,
			"0.016": 0.0,
			"0.017": 0.0,
			"0.018": 0.0,
			"0.019": 0.0,
			"0.02": 0.0,
			"0.021": 0.0,
			"0.022": 0.0,
			"0.023": 0.0,
			"0.024": 0.0,
			"0.025": 0.0
		}
	}
}
