{
	 "smiles": "NC1=CC=C(OC(F)(F)F)C=C1[N+]([O-])=O", 
	 "Tm": 336.15, 
	 "num_atms": 20, 
	 "gaussian": { 
		 "optdone": 1, 
		 "sigma_profile": "yes", 
		 "theory": "DFT", 
		 "functional": "B3LYP", 
		 "basiset": "6-31G**", 
		 "properties": { 
			 "R2extent": 4245.6987, 
			 "electric_dipole_moment_norm": 5.06470941516, 
			 "electric_quadrupole_moment_norm": 8.83024831021, 
			 "total_energy": -904.360742817, 
			 "HOMO_LUMO_gap": 0.14156, 
			 "cosmo_polarized_energy": -11.74, 
			 "cosmo_cavitation_energy": 26.86, 
			 "cosmo_dispersion_energy": -19.44, 
			 "cosmo_repulsion_energy": 1.46, 
			 "cosmo_total_nonelectrostatic_energy": 8.89, 
			 "SMD_solvation_energy": 8.1 
		},
		"coords": [
			{
				"x": 1.4616129614,
				"y": -1.9013271363,
				"z": -0.3359174814,
				"element": "N" 
			},
			{
				"x": 0.5961162672,
				"y": -1.0512635054,
				"z": 0.2661201164,
				"element": "C" 
			},
			{
				"x": 1.0451032634,
				"y": -0.2332903128,
				"z": 1.3378998969,
				"element": "C" 
			},
			{
				"x": 0.2052448256,
				"y": 0.6469548151,
				"z": 1.987486704,
				"element": "C" 
			},
			{
				"x": -1.1368053195,
				"y": 0.7515205504,
				"z": 1.5923691477,
				"element": "C" 
			},
			{
				"x": -2.0022905451,
				"y": 1.5947592004,
				"z": 2.3046766467,
				"element": "O" 
			},
			{
				"x": -2.0946210824,
				"y": 2.8795653204,
				"z": 1.8713590916,
				"element": "C" 
			},
			{
				"x": -0.9062465936,
				"y": 3.5167944286,
				"z": 1.9123841215,
				"element": "F" 
			},
			{
				"x": -2.9470825842,
				"y": 3.5157892099,
				"z": 2.671689292,
				"element": "F" 
			},
			{
				"x": -2.5438945827,
				"y": 2.960992014,
				"z": 0.6055448271,
				"element": "F" 
			},
			{
				"x": -1.6252681903,
				"y": -0.0177555619,
				"z": 0.560763187,
				"element": "C" 
			},
			{
				"x": -0.7734519911,
				"y": -0.9159263127,
				"z": -0.1015750603,
				"element": "C" 
			},
			{
				"x": -1.3601347369,
				"y": -1.6943881411,
				"z": -1.1756363289,
				"element": "N" 
			},
			{
				"x": -0.6386230776,
				"y": -2.4985784544,
				"z": -1.7951919833,
				"element": "O" 
			},
			{
				"x": -2.5516273729,
				"y": -1.5307673037,
				"z": -1.4353393817,
				"element": "O" 
			},
			{
				"x": 2.4197791096,
				"y": -1.9393467258,
				"z": -0.0321344815,
				"element": "H" 
			},
			{
				"x": 1.1264888563,
				"y": -2.4691527177,
				"z": -1.1005662211,
				"element": "H" 
			},
			{
				"x": 2.0836248353,
				"y": -0.3149432689,
				"z": 1.6450099972,
				"element": "H" 
			},
			{
				"x": 0.5693429571,
				"y": 1.2593134311,
				"z": 2.8050235623,
				"element": "H" 
			},
			{
				"x": -2.6585669996,
				"y": 0.0500504711,
				"z": 0.2486343476,
				"element": "H" 
			}
		],
		 "valence_orbital": [ 
			{
				"type": "occ",
				"energy": -0.31236,
				"method": "rhf"
			},
			{
				"type": "occ",
				"energy": -0.31114,
				"method": "rhf"
			},
			{
				"type": "occ",
				"energy": -0.29401,
				"method": "rhf"
			},
			{
				"type": "occ",
				"energy": -0.29031,
				"method": "rhf"
			},
			{
				"type": "occ",
				"energy": -0.23351,
				"method": "rhf"
			},
			{
				"type": "unocc",
				"energy": -0.09195,
				"method": "rhf"
			},
			{
				"type": "unocc",
				"energy": -0.01954,
				"method": "rhf"
			},
			{
				"type": "unocc",
				"energy": -0.00258,
				"method": "rhf"
			},
			{
				"type": "unocc",
				"energy": 0.0654,
				"method": "rhf"
			},
			{
				"type": "unocc",
				"energy": 0.0765,
				"method": "rhf"
			}
		],
		"cosmo_sigma_profile": { 
			"-0.025": 0.0,
			"-0.024": 0.0,
			"-0.023": 0.0,
			"-0.022": 0.0,
			"-0.021": 0.0,
			"-0.02": 0.0,
			"-0.019": 0.0,
			"-0.018": 0.0,
			"-0.017": 0.0,
			"-0.016": 0.0135474179894,
			"-0.015": 1.09420600973,
			"-0.014": 1.44413104428,
			"-0.013": 2.08143366531,
			"-0.012": 0.957828082209,
			"-0.011": 1.75262616889,
			"-0.01": 2.93431381939,
			"-0.009": 3.14888043332,
			"-0.008": 4.50149476595,
			"-0.007": 5.29090006241,
			"-0.006": 5.74704638263,
			"-0.005": 7.74714719356,
			"-0.004": 6.79506449619,
			"-0.003": 8.2803161388,
			"-0.002": 11.6897631949,
			"-0.001": 16.8709094561,
			"0.0": 23.7156301575,
			"0.001": 30.0115684781,
			"0.002": 36.997385704,
			"0.003": 9.27498772083,
			"0.004": 4.74440329735,
			"0.005": 3.99007542251,
			"0.006": 5.06326406712,
			"0.007": 4.74635985464,
			"0.008": 6.7526099292,
			"0.009": 4.44505767673,
			"0.01": 3.8827286792,
			"0.011": 1.77580211303,
			"0.012": 0.0,
			"0.013": 0.0,
			"0.014": 0.0,
			"0.015": 0.0,
			"0.016": 0.0,
			"0.017": 0.0,
			"0.018": 0.0,
			"0.019": 0.0,
			"0.02": 0.0,
			"0.021": 0.0,
			"0.022": 0.0,
			"0.023": 0.0,
			"0.024": 0.0,
			"0.025": 0.0
		}
	}
}
