{
	 "smiles": "NC1=CC=C(C=C1)N1CCN(CC1)S(=O)(=O)C(F)F", 
	 "Tm": 384.15, 
	 "num_atms": 34, 
	 "gaussian": { 
		 "optdone": 1, 
		 "sigma_profile": "yes", 
		 "theory": "DFT", 
		 "functional": "B3LYP", 
		 "basiset": "6-31G**", 
		 "properties": { 
			 "R2extent": 9300.2432, 
			 "electric_dipole_moment_norm": 4.09331694106, 
			 "electric_quadrupole_moment_norm": 12.1784081374, 
			 "total_energy": -1340.6753346, 
			 "HOMO_LUMO_gap": 0.1749, 
			 "cosmo_polarized_energy": -18.01, 
			 "cosmo_cavitation_energy": 37.56, 
			 "cosmo_dispersion_energy": -27.64, 
			 "cosmo_repulsion_energy": 2.03, 
			 "cosmo_total_nonelectrostatic_energy": 11.94, 
			 "SMD_solvation_energy": 4.16 
		},
		"coords": [
			{
				"x": 2.8681786928,
				"y": 2.26748461,
				"z": 4.3900153631,
				"element": "N" 
			},
			{
				"x": 2.0727513058,
				"y": 1.5292150946,
				"z": 3.4959406902,
				"element": "C" 
			},
			{
				"x": 1.7502483353,
				"y": 0.1876279773,
				"z": 3.7487716189,
				"element": "C" 
			},
			{
				"x": 1.0104139444,
				"y": -0.5624559606,
				"z": 2.8397886023,
				"element": "C" 
			},
			{
				"x": 0.5685482931,
				"y": -0.0106211308,
				"z": 1.6209820888,
				"element": "C" 
			},
			{
				"x": 0.8999523247,
				"y": 1.3337776539,
				"z": 1.3678484401,
				"element": "C" 
			},
			{
				"x": 1.6277065009,
				"y": 2.0848192882,
				"z": 2.2889455632,
				"element": "C" 
			},
			{
				"x": -0.1874310197,
				"y": -0.7762162089,
				"z": 0.719864968,
				"element": "N" 
			},
			{
				"x": -0.8118533788,
				"y": -0.1448224515,
				"z": -0.430494063,
				"element": "C" 
			},
			{
				"x": -1.9404330994,
				"y": -1.0151321479,
				"z": -0.9805784102,
				"element": "C" 
			},
			{
				"x": -1.3901504568,
				"y": -2.3317534438,
				"z": -1.3767193519,
				"element": "N" 
			},
			{
				"x": -0.1065140621,
				"y": -2.737917329,
				"z": -0.7730026887,
				"element": "C" 
			},
			{
				"x": -0.003670858,
				"y": -2.2272038599,
				"z": 0.6640187401,
				"element": "C" 
			},
			{
				"x": -2.3908051127,
				"y": -3.4511669223,
				"z": -2.0558412389,
				"element": "S" 
			},
			{
				"x": -1.5770089029,
				"y": -4.5475766158,
				"z": -2.5791757417,
				"element": "O" 
			},
			{
				"x": -3.3885359966,
				"y": -2.7484056664,
				"z": -2.8593211741,
				"element": "O" 
			},
			{
				"x": -3.3331612622,
				"y": -4.2024703059,
				"z": -0.6414609501,
				"element": "C" 
			},
			{
				"x": -2.4367085148,
				"y": -4.6564642205,
				"z": 0.2689046412,
				"element": "F" 
			},
			{
				"x": -4.0945147085,
				"y": -3.2471831698,
				"z": -0.0611286011,
				"element": "F" 
			},
			{
				"x": 2.7231641132,
				"y": 3.2675899243,
				"z": 4.3377202291,
				"element": "H" 
			},
			{
				"x": 2.8073595427,
				"y": 1.951458693,
				"z": 5.3494780466,
				"element": "H" 
			},
			{
				"x": 2.0754468659,
				"y": -0.2760658463,
				"z": 4.6773616143,
				"element": "H" 
			},
			{
				"x": 0.7523477665,
				"y": -1.584036,
				"z": 3.0982781224,
				"element": "H" 
			},
			{
				"x": 0.6072730643,
				"y": 1.8068796523,
				"z": 0.4372565055,
				"element": "H" 
			},
			{
				"x": 1.8697883163,
				"y": 3.1187621943,
				"z": 2.0536245967,
				"element": "H" 
			},
			{
				"x": -0.0969142561,
				"y": 0.090673676,
				"z": -1.2387931034,
				"element": "H" 
			},
			{
				"x": -1.2585055622,
				"y": 0.8038054565,
				"z": -0.1156435937,
				"element": "H" 
			},
			{
				"x": -2.7119383278,
				"y": -1.1322643958,
				"z": -0.211920506,
				"element": "H" 
			},
			{
				"x": -2.3899544956,
				"y": -0.5411059615,
				"z": -1.8556400517,
				"element": "H" 
			},
			{
				"x": 0.7143959506,
				"y": -2.3347926622,
				"z": -1.3773838402,
				"element": "H" 
			},
			{
				"x": -0.0271833549,
				"y": -3.8247630345,
				"z": -0.7990968911,
				"element": "H" 
			},
			{
				"x": -0.7425067495,
				"y": -2.757763361,
				"z": 1.2834374901,
				"element": "H" 
			},
			{
				"x": 0.9908326297,
				"y": -2.485569022,
				"z": 1.0461810775,
				"element": "H" 
			},
			{
				"x": -3.9575175276,
				"y": -5.0253445039,
				"z": -1.0042181923,
				"element": "H" 
			}
		],
		 "valence_orbital": [ 
			{
				"type": "occ",
				"energy": -0.30577,
				"method": "rhf"
			},
			{
				"type": "occ",
				"energy": -0.26549,
				"method": "rhf"
			},
			{
				"type": "occ",
				"energy": -0.24655,
				"method": "rhf"
			},
			{
				"type": "occ",
				"energy": -0.24493,
				"method": "rhf"
			},
			{
				"type": "occ",
				"energy": -0.17329,
				"method": "rhf"
			},
			{
				"type": "unocc",
				"energy": 0.00161,
				"method": "rhf"
			},
			{
				"type": "unocc",
				"energy": 0.02963,
				"method": "rhf"
			},
			{
				"type": "unocc",
				"energy": 0.04016,
				"method": "rhf"
			},
			{
				"type": "unocc",
				"energy": 0.05691,
				"method": "rhf"
			},
			{
				"type": "unocc",
				"energy": 0.06727,
				"method": "rhf"
			}
		],
		"cosmo_sigma_profile": { 
			"-0.025": 0.0,
			"-0.024": 0.0,
			"-0.023": 0.0,
			"-0.022": 0.0,
			"-0.021": 0.0,
			"-0.02": 0.0,
			"-0.019": 0.0,
			"-0.018": 0.0,
			"-0.017": 0.0,
			"-0.016": 0.0,
			"-0.015": 0.0,
			"-0.014": 0.00880190150934,
			"-0.013": 0.924687067424,
			"-0.012": 4.16755033107,
			"-0.011": 4.58183193732,
			"-0.01": 4.31256505107,
			"-0.009": 3.74730544411,
			"-0.008": 3.42543643678,
			"-0.007": 5.26646826954,
			"-0.006": 13.7541202437,
			"-0.005": 27.2928834552,
			"-0.004": 27.4597885862,
			"-0.003": 25.2764830903,
			"-0.002": 17.1543761227,
			"-0.001": 13.3115654252,
			"0.0": 13.9544601083,
			"0.001": 14.265146063,
			"0.002": 20.4561234216,
			"0.003": 17.7030053528,
			"0.004": 8.77998562421,
			"0.005": 11.0081350246,
			"0.006": 10.5392296681,
			"0.007": 13.9499775012,
			"0.008": 8.52747442175,
			"0.009": 8.05263383156,
			"0.01": 10.4123835355,
			"0.011": 4.80970859568,
			"0.012": 0.563738016954,
			"0.013": 0.828905581895,
			"0.014": 0.782573740712,
			"0.015": 0.675804760584,
			"0.016": 0.481526116457,
			"0.017": 0.0215005310667,
			"0.018": 0.0,
			"0.019": 0.0,
			"0.02": 0.0,
			"0.021": 0.0,
			"0.022": 0.0,
			"0.023": 0.0,
			"0.024": 0.0,
			"0.025": 0.0
		}
	}
}
