{
	 "smiles": "NC(=S)NC1=CN=C(Cl)C=C1", 
	 "Tm": 456.15, 
	 "num_atms": 17, 
	 "gaussian": { 
		 "optdone": 1, 
		 "sigma_profile": "yes", 
		 "theory": "DFT", 
		 "functional": "B3LYP", 
		 "basiset": "6-31G**", 
		 "properties": { 
			 "R2extent": 3776.157, 
			 "electric_dipole_moment_norm": 7.32497972352, 
			 "electric_quadrupole_moment_norm": 11.3082238035, 
			 "total_energy": -1254.89277413, 
			 "HOMO_LUMO_gap": 0.17243, 
			 "cosmo_polarized_energy": -24.08, 
			 "cosmo_cavitation_energy": 25.32, 
			 "cosmo_dispersion_energy": -19.38, 
			 "cosmo_repulsion_energy": 1.53, 
			 "cosmo_total_nonelectrostatic_energy": 7.47, 
			 "SMD_solvation_energy": 1.86 
		},
		"coords": [
			{
				"x": -1.2788090959,
				"y": 1.8483834255,
				"z": 1.8538009067,
				"element": "N" 
			},
			{
				"x": -0.4558809352,
				"y": 0.8258159569,
				"z": 1.458693759,
				"element": "C" 
			},
			{
				"x": -0.2785268065,
				"y": -0.5613090242,
				"z": 2.370040073,
				"element": "S" 
			},
			{
				"x": 0.2089990984,
				"y": 1.12052473,
				"z": 0.2877966951,
				"element": "N" 
			},
			{
				"x": 1.1264673094,
				"y": 0.3234874532,
				"z": -0.4300484116,
				"element": "C" 
			},
			{
				"x": 0.9329963064,
				"y": -1.0459119232,
				"z": -0.662628976,
				"element": "C" 
			},
			{
				"x": 1.780046023,
				"y": -1.7796146529,
				"z": -1.3916830324,
				"element": "N" 
			},
			{
				"x": 2.8338472184,
				"y": -1.1835679943,
				"z": -1.9178558505,
				"element": "C" 
			},
			{
				"x": 3.9198965596,
				"y": -2.1834663074,
				"z": -2.8796394289,
				"element": "Cl" 
			},
			{
				"x": 3.1260709648,
				"y": 0.1735214689,
				"z": -1.769947438,
				"element": "C" 
			},
			{
				"x": 2.2486825542,
				"y": 0.9324008579,
				"z": -1.0048104196,
				"element": "C" 
			},
			{
				"x": -1.8567897748,
				"y": 1.6436555294,
				"z": 2.6550178662,
				"element": "H" 
			},
			{
				"x": -1.6836451264,
				"y": 2.4632067293,
				"z": 1.159736502,
				"element": "H" 
			},
			{
				"x": 0.2333141907,
				"y": 2.1027031801,
				"z": 0.0429430621,
				"element": "H" 
			},
			{
				"x": 0.0762807194,
				"y": -1.5610365009,
				"z": -0.2453354263,
				"element": "H" 
			},
			{
				"x": 4.0046726693,
				"y": 0.6107089428,
				"z": -2.2284739976,
				"element": "H" 
			},
			{
				"x": 2.4381781252,
				"y": 1.991398129,
				"z": -0.8479058831,
				"element": "H" 
			}
		],
		 "valence_orbital": [ 
			{
				"type": "occ",
				"energy": -0.29799,
				"method": "rhf"
			},
			{
				"type": "occ",
				"energy": -0.27634,
				"method": "rhf"
			},
			{
				"type": "occ",
				"energy": -0.25297,
				"method": "rhf"
			},
			{
				"type": "occ",
				"energy": -0.22753,
				"method": "rhf"
			},
			{
				"type": "occ",
				"energy": -0.21756,
				"method": "rhf"
			},
			{
				"type": "unocc",
				"energy": -0.04513,
				"method": "rhf"
			},
			{
				"type": "unocc",
				"energy": -0.03768,
				"method": "rhf"
			},
			{
				"type": "unocc",
				"energy": -0.00289,
				"method": "rhf"
			},
			{
				"type": "unocc",
				"energy": 0.03067,
				"method": "rhf"
			},
			{
				"type": "unocc",
				"energy": 0.04473,
				"method": "rhf"
			}
		],
		"cosmo_sigma_profile": { 
			"-0.025": 0.0,
			"-0.024": 0.0,
			"-0.023": 0.0,
			"-0.022": 0.0,
			"-0.021": 0.0,
			"-0.02": 0.0,
			"-0.019": 0.0,
			"-0.018": 0.297263522346,
			"-0.017": 2.15078634735,
			"-0.016": 2.30495497218,
			"-0.015": 2.97883813129,
			"-0.014": 3.26198437551,
			"-0.013": 3.40249338443,
			"-0.012": 3.59521145339,
			"-0.011": 3.19914540351,
			"-0.01": 2.87931677435,
			"-0.009": 4.24548137531,
			"-0.008": 5.36835768717,
			"-0.007": 5.88883476121,
			"-0.006": 5.17189246186,
			"-0.005": 5.81323532523,
			"-0.004": 5.82433948685,
			"-0.003": 5.19997269715,
			"-0.002": 7.93763848913,
			"-0.001": 12.728270939,
			"0.0": 19.7820481938,
			"0.001": 14.4113068472,
			"0.002": 10.0127782831,
			"0.003": 10.0345570761,
			"0.004": 15.5995155384,
			"0.005": 12.129660066,
			"0.006": 7.82220785064,
			"0.007": 6.50556735026,
			"0.008": 7.41347045592,
			"0.009": 6.46312020982,
			"0.01": 6.71903452316,
			"0.011": 5.00678702147,
			"0.012": 1.74094903177,
			"0.013": 1.14959843753,
			"0.014": 0.563041324335,
			"0.015": 0.153405974275,
			"0.016": 0.0,
			"0.017": 0.0,
			"0.018": 0.0,
			"0.019": 0.0,
			"0.02": 0.0,
			"0.021": 0.0,
			"0.022": 0.0,
			"0.023": 0.0,
			"0.024": 0.0,
			"0.025": 0.0
		}
	}
}
