{
	 "smiles": "NN1C=NC2=C1C=CC=C2", 
	 "Tm": 421.15, 
	 "num_atms": 17, 
	 "gaussian": { 
		 "optdone": 1, 
		 "sigma_profile": "yes", 
		 "theory": "DFT", 
		 "functional": "B3LYP", 
		 "basiset": "6-31G**", 
		 "properties": { 
			 "R2extent": 1430.3207, 
			 "electric_dipole_moment_norm": 3.76454423403, 
			 "electric_quadrupole_moment_norm": 8.1807428593, 
			 "total_energy": -435.187858223, 
			 "HOMO_LUMO_gap": 0.20858, 
			 "cosmo_polarized_energy": -13.41, 
			 "cosmo_cavitation_energy": 21.04, 
			 "cosmo_dispersion_energy": -15.79, 
			 "cosmo_repulsion_energy": 1.26, 
			 "cosmo_total_nonelectrostatic_energy": 6.51, 
			 "SMD_solvation_energy": 2.53 
		},
		"coords": [
			{
				"x": -1.3207819228,
				"y": -1.1808711345,
				"z": -2.5251015795,
				"element": "N" 
			},
			{
				"x": -0.6561512844,
				"y": -1.0469136296,
				"z": -1.3022413718,
				"element": "N" 
			},
			{
				"x": -0.9808630329,
				"y": -1.7611539745,
				"z": -0.1695723866,
				"element": "C" 
			},
			{
				"x": -0.2289634916,
				"y": -1.4773394751,
				"z": 0.8615075871,
				"element": "N" 
			},
			{
				"x": 0.6580951239,
				"y": -0.5115024321,
				"z": 0.395334541,
				"element": "C" 
			},
			{
				"x": 0.4090326735,
				"y": -0.2223403071,
				"z": -0.9682001064,
				"element": "C" 
			},
			{
				"x": 1.1494541409,
				"y": 0.7104903404,
				"z": -1.6948483045,
				"element": "C" 
			},
			{
				"x": 2.1710805271,
				"y": 1.3646474204,
				"z": -1.0092983833,
				"element": "C" 
			},
			{
				"x": 2.4365749968,
				"y": 1.0924302661,
				"z": 0.3481647828,
				"element": "C" 
			},
			{
				"x": 1.6906941975,
				"y": 0.1592736356,
				"z": 1.0625077918,
				"element": "C" 
			},
			{
				"x": -0.6509345955,
				"y": -1.4642901616,
				"z": -3.2378754987,
				"element": "H" 
			},
			{
				"x": -1.7088039209,
				"y": -0.2781986143,
				"z": -2.7928549451,
				"element": "H" 
			},
			{
				"x": -1.793213325,
				"y": -2.4756983984,
				"z": -0.1955941016,
				"element": "H" 
			},
			{
				"x": 0.943679114,
				"y": 0.9191552125,
				"z": -2.7408487948,
				"element": "H" 
			},
			{
				"x": 2.7759460683,
				"y": 2.0999301164,
				"z": -1.5316770158,
				"element": "H" 
			},
			{
				"x": 3.2427394406,
				"y": 1.625757999,
				"z": 0.8432164362,
				"element": "H" 
			},
			{
				"x": 1.8921152905,
				"y": -0.0529768631,
				"z": 2.1075813492,
				"element": "H" 
			}
		],
		 "valence_orbital": [ 
			{
				"type": "occ",
				"energy": -0.30353,
				"method": "rhf"
			},
			{
				"type": "occ",
				"energy": -0.29876,
				"method": "rhf"
			},
			{
				"type": "occ",
				"energy": -0.26341,
				"method": "rhf"
			},
			{
				"type": "occ",
				"energy": -0.22818,
				"method": "rhf"
			},
			{
				"type": "occ",
				"energy": -0.2238,
				"method": "rhf"
			},
			{
				"type": "unocc",
				"energy": -0.01522,
				"method": "rhf"
			},
			{
				"type": "unocc",
				"energy": 0.01964,
				"method": "rhf"
			},
			{
				"type": "unocc",
				"energy": 0.05478,
				"method": "rhf"
			},
			{
				"type": "unocc",
				"energy": 0.05707,
				"method": "rhf"
			},
			{
				"type": "unocc",
				"energy": 0.10303,
				"method": "rhf"
			}
		],
		"cosmo_sigma_profile": { 
			"-0.025": 0.0,
			"-0.024": 0.0,
			"-0.023": 0.0,
			"-0.022": 0.0,
			"-0.021": 0.0,
			"-0.02": 0.0,
			"-0.019": 0.0,
			"-0.018": 0.0,
			"-0.017": 0.0,
			"-0.016": 0.0,
			"-0.015": 0.0,
			"-0.014": 0.00711157473336,
			"-0.013": 2.0774427831,
			"-0.012": 3.46205771315,
			"-0.011": 3.4262696682,
			"-0.01": 3.04705034952,
			"-0.009": 4.4948486267,
			"-0.008": 4.62115981659,
			"-0.007": 4.65617198405,
			"-0.006": 6.59440454482,
			"-0.005": 10.0773935175,
			"-0.004": 9.9086264624,
			"-0.003": 10.7048404191,
			"-0.002": 8.35215657865,
			"-0.001": 8.82827135959,
			"0.0": 9.59034448475,
			"0.001": 8.92545692428,
			"0.002": 8.24962848704,
			"0.003": 9.14387044847,
			"0.004": 11.1195336549,
			"0.005": 12.1294328899,
			"0.006": 9.83643716899,
			"0.007": 2.68878120587,
			"0.008": 1.96936567433,
			"0.009": 2.01476068985,
			"0.01": 2.29412608002,
			"0.011": 1.58551182224,
			"0.012": 1.59413611408,
			"0.013": 1.58796334667,
			"0.014": 1.62844884105,
			"0.015": 1.36886806775,
			"0.016": 0.972211945402,
			"0.017": 1.07972984565,
			"0.018": 0.335395546673,
			"0.019": 0.0,
			"0.02": 0.0,
			"0.021": 0.0,
			"0.022": 0.0,
			"0.023": 0.0,
			"0.024": 0.0,
			"0.025": 0.0
		}
	}
}
