{
	 "smiles": "O=C=NC1=CC=C(C=C1)C1=NC=CC=N1", 
	 "Tm": 359.65, 
	 "num_atms": 22, 
	 "gaussian": { 
		 "optdone": 1, 
		 "sigma_profile": "yes", 
		 "theory": "DFT", 
		 "functional": "B3LYP", 
		 "basiset": "6-31G**", 
		 "properties": { 
			 "R2extent": 5465.6807, 
			 "electric_dipole_moment_norm": 4.00908018129, 
			 "electric_quadrupole_moment_norm": 8.00917095959, 
			 "total_energy": -662.869616844, 
			 "HOMO_LUMO_gap": 0.16844, 
			 "cosmo_polarized_energy": -8.4, 
			 "cosmo_cavitation_energy": 28.55, 
			 "cosmo_dispersion_energy": -20.85, 
			 "cosmo_repulsion_energy": 1.61, 
			 "cosmo_total_nonelectrostatic_energy": 9.31, 
			 "SMD_solvation_energy": 5.24 
		},
		"coords": [
			{
				"x": 2.5327736388,
				"y": -6.577797009,
				"z": 2.4516801318,
				"element": "O" 
			},
			{
				"x": 2.1961809654,
				"y": -5.7725940015,
				"z": 1.6597838896,
				"element": "C" 
			},
			{
				"x": 1.8762749526,
				"y": -5.0484472529,
				"z": 0.7447821336,
				"element": "N" 
			},
			{
				"x": 1.4215614326,
				"y": -3.7493258992,
				"z": 0.5112979395,
				"element": "C" 
			},
			{
				"x": 1.205169677,
				"y": -2.839235419,
				"z": 1.5585599451,
				"element": "C" 
			},
			{
				"x": 0.7521470046,
				"y": -1.5568279192,
				"z": 1.2781892608,
				"element": "C" 
			},
			{
				"x": 0.5058116254,
				"y": -1.1543798304,
				"z": -0.0448604335,
				"element": "C" 
			},
			{
				"x": 0.7256090554,
				"y": -2.0726494389,
				"z": -1.0837191632,
				"element": "C" 
			},
			{
				"x": 1.1788545813,
				"y": -3.3578278057,
				"z": -0.8119062592,
				"element": "C" 
			},
			{
				"x": 0.0224811464,
				"y": 0.215792184,
				"z": -0.3375694974,
				"element": "C" 
			},
			{
				"x": -0.1663747245,
				"y": 1.0445050434,
				"z": 0.7072451647,
				"element": "N" 
			},
			{
				"x": -0.6013641679,
				"y": 2.2747959946,
				"z": 0.4309241056,
				"element": "C" 
			},
			{
				"x": -0.8559288207,
				"y": 2.7068861001,
				"z": -0.8695325825,
				"element": "C" 
			},
			{
				"x": -0.6285238127,
				"y": 1.7720180645,
				"z": -1.8780687541,
				"element": "C" 
			},
			{
				"x": -0.1938929552,
				"y": 0.5360892028,
				"z": -1.6277542875,
				"element": "N" 
			},
			{
				"x": 1.3937103734,
				"y": -3.1441186041,
				"z": 2.5836789739,
				"element": "H" 
			},
			{
				"x": 0.582186909,
				"y": -0.8472355101,
				"z": 2.0796987729,
				"element": "H" 
			},
			{
				"x": 0.5352800689,
				"y": -1.7612331332,
				"z": -2.1041689933,
				"element": "H" 
			},
			{
				"x": 1.3500110439,
				"y": -4.0703083603,
				"z": -1.6116364656,
				"element": "H" 
			},
			{
				"x": -0.7510261362,
				"y": 2.9373500307,
				"z": 1.282303914,
				"element": "H" 
			},
			{
				"x": -1.2093455249,
				"y": 3.7091750879,
				"z": -1.0836097668,
				"element": "H" 
			},
			{
				"x": -0.8004963326,
				"y": 2.0214684756,
				"z": -2.9242180285,
				"element": "H" 
			}
		],
		 "valence_orbital": [ 
			{
				"type": "occ",
				"energy": -0.30795,
				"method": "rhf"
			},
			{
				"type": "occ",
				"energy": -0.29125,
				"method": "rhf"
			},
			{
				"type": "occ",
				"energy": -0.26179,
				"method": "rhf"
			},
			{
				"type": "occ",
				"energy": -0.25347,
				"method": "rhf"
			},
			{
				"type": "occ",
				"energy": -0.22947,
				"method": "rhf"
			},
			{
				"type": "unocc",
				"energy": -0.06103,
				"method": "rhf"
			},
			{
				"type": "unocc",
				"energy": -0.04546,
				"method": "rhf"
			},
			{
				"type": "unocc",
				"energy": -0.00818,
				"method": "rhf"
			},
			{
				"type": "unocc",
				"energy": 0.00817,
				"method": "rhf"
			},
			{
				"type": "unocc",
				"energy": 0.0119,
				"method": "rhf"
			}
		],
		"cosmo_sigma_profile": { 
			"-0.025": 0.0,
			"-0.024": 0.0,
			"-0.023": 0.0,
			"-0.022": 0.0,
			"-0.021": 0.0,
			"-0.02": 0.0,
			"-0.019": 0.0,
			"-0.018": 0.0,
			"-0.017": 0.0,
			"-0.016": 0.0,
			"-0.015": 0.0,
			"-0.014": 0.0,
			"-0.013": 0.0,
			"-0.012": 0.0,
			"-0.011": 0.0,
			"-0.01": 0.0,
			"-0.009": 0.0747135458908,
			"-0.008": 6.04478049743,
			"-0.007": 11.530135437,
			"-0.006": 12.3095762184,
			"-0.005": 13.3833959387,
			"-0.004": 13.2237081717,
			"-0.003": 13.5681873076,
			"-0.002": 14.5159945879,
			"-0.001": 17.0522098031,
			"0.0": 22.7548985443,
			"0.001": 19.6432403914,
			"0.002": 21.1717665315,
			"0.003": 21.2105120072,
			"0.004": 12.8316796507,
			"0.005": 6.32952588845,
			"0.006": 5.87501106498,
			"0.007": 11.1282909735,
			"0.008": 4.20898772691,
			"0.009": 1.4094156608,
			"0.01": 2.46487202873,
			"0.011": 1.59690351019,
			"0.012": 0.00592968970362,
			"0.013": 0.0,
			"0.014": 0.0,
			"0.015": 0.0,
			"0.016": 0.0,
			"0.017": 0.0,
			"0.018": 0.0,
			"0.019": 0.0,
			"0.02": 0.0,
			"0.021": 0.0,
			"0.022": 0.0,
			"0.023": 0.0,
			"0.024": 0.0,
			"0.025": 0.0
		}
	}
}
