{
	 "smiles": "O=C1NC(=CS1)C1=CC2=C(OCCO2)C=C1", 
	 "Tm": 503.15, 
	 "num_atms": 25, 
	 "gaussian": { 
		 "optdone": 1, 
		 "sigma_profile": "yes", 
		 "theory": "DFT", 
		 "functional": "B3LYP", 
		 "basiset": "6-31G**", 
		 "properties": { 
			 "R2extent": 6285.9005, 
			 "electric_dipole_moment_norm": 6.53612691202, 
			 "electric_quadrupole_moment_norm": 26.5764984388, 
			 "total_energy": -1103.19453573, 
			 "HOMO_LUMO_gap": 0.16888, 
			 "cosmo_polarized_energy": -15.01, 
			 "cosmo_cavitation_energy": 30.83, 
			 "cosmo_dispersion_energy": -23.84, 
			 "cosmo_repulsion_energy": 1.79, 
			 "cosmo_total_nonelectrostatic_energy": 8.78, 
			 "SMD_solvation_energy": 6.19 
		},
		"coords": [
			{
				"x": -3.4942262299,
				"y": 4.8317018877,
				"z": -0.7500810317,
				"element": "O" 
			},
			{
				"x": -3.3895880025,
				"y": 3.7479029299,
				"z": -0.2201510601,
				"element": "C" 
			},
			{
				"x": -2.4435733761,
				"y": 2.7775041047,
				"z": -0.4901840998,
				"element": "N" 
			},
			{
				"x": -2.4727800509,
				"y": 1.6061072449,
				"z": 0.273512961,
				"element": "C" 
			},
			{
				"x": -3.4875102319,
				"y": 1.6087617161,
				"z": 1.1710820233,
				"element": "C" 
			},
			{
				"x": -4.4404528235,
				"y": 3.0824489813,
				"z": 1.1061053107,
				"element": "S" 
			},
			{
				"x": -1.4872313612,
				"y": 0.5441270163,
				"z": 0.0290025232,
				"element": "C" 
			},
			{
				"x": -0.9491975267,
				"y": 0.3444667797,
				"z": -1.25148891,
				"element": "C" 
			},
			{
				"x": -0.0204490042,
				"y": -0.6673622085,
				"z": -1.4855137351,
				"element": "C" 
			},
			{
				"x": 0.3912276284,
				"y": -1.5009607959,
				"z": -0.4309768177,
				"element": "C" 
			},
			{
				"x": 1.3148822469,
				"y": -2.4974143822,
				"z": -0.6114481527,
				"element": "O" 
			},
			{
				"x": 2.049285108,
				"y": -2.3934076368,
				"z": -1.8330265095,
				"element": "C" 
			},
			{
				"x": 1.1092144255,
				"y": -2.0760876646,
				"z": -2.9843890703,
				"element": "C" 
			},
			{
				"x": 0.4632010528,
				"y": -0.8213159826,
				"z": -2.7602591164,
				"element": "O" 
			},
			{
				"x": -0.1520968319,
				"y": -1.3152065148,
				"z": 0.8418472499,
				"element": "C" 
			},
			{
				"x": -1.0771552447,
				"y": -0.3042062359,
				"z": 1.0732272696,
				"element": "C" 
			},
			{
				"x": -1.6925129996,
				"y": 3.0040856425,
				"z": -1.1268113714,
				"element": "H" 
			},
			{
				"x": -3.7616158515,
				"y": 0.7983427004,
				"z": 1.8293184204,
				"element": "H" 
			},
			{
				"x": -1.2682426235,
				"y": 0.9382176806,
				"z": -2.1023433247,
				"element": "H" 
			},
			{
				"x": 2.8105799283,
				"y": -1.6067527993,
				"z": -1.7433856486,
				"element": "H" 
			},
			{
				"x": 2.5461447467,
				"y": -3.3557182543,
				"z": -1.9783167613,
				"element": "H" 
			},
			{
				"x": 0.3568051193,
				"y": -2.8700152451,
				"z": -3.0841762591,
				"element": "H" 
			},
			{
				"x": 1.653425097,
				"y": -1.979835338,
				"z": -3.9269864593,
				"element": "H" 
			},
			{
				"x": 0.1855527568,
				"y": -1.9636403961,
				"z": 1.6437245066,
				"element": "H" 
			},
			{
				"x": -1.4608859517,
				"y": -0.14644323,
				"z": 2.0755180631,
				"element": "H" 
			}
		],
		 "valence_orbital": [ 
			{
				"type": "occ",
				"energy": -0.29419,
				"method": "rhf"
			},
			{
				"type": "occ",
				"energy": -0.26588,
				"method": "rhf"
			},
			{
				"type": "occ",
				"energy": -0.25284,
				"method": "rhf"
			},
			{
				"type": "occ",
				"energy": -0.23423,
				"method": "rhf"
			},
			{
				"type": "occ",
				"energy": -0.20042,
				"method": "rhf"
			},
			{
				"type": "unocc",
				"energy": -0.03154,
				"method": "rhf"
			},
			{
				"type": "unocc",
				"energy": -0.01175,
				"method": "rhf"
			},
			{
				"type": "unocc",
				"energy": 0.0174,
				"method": "rhf"
			},
			{
				"type": "unocc",
				"energy": 0.02325,
				"method": "rhf"
			},
			{
				"type": "unocc",
				"energy": 0.05731,
				"method": "rhf"
			}
		],
		"cosmo_sigma_profile": { 
			"-0.025": 0.0,
			"-0.024": 0.0,
			"-0.023": 0.0,
			"-0.022": 0.0,
			"-0.021": 0.0,
			"-0.02": 0.0,
			"-0.019": 0.0,
			"-0.018": 0.0,
			"-0.017": 0.0346622820562,
			"-0.016": 0.758083708479,
			"-0.015": 1.03836447429,
			"-0.014": 1.10520682356,
			"-0.013": 1.0971245948,
			"-0.012": 0.78185278481,
			"-0.011": 1.38429754862,
			"-0.01": 1.3712789777,
			"-0.009": 1.85736261497,
			"-0.008": 4.60648998104,
			"-0.007": 11.7998728706,
			"-0.006": 19.620287336,
			"-0.005": 16.8547817907,
			"-0.004": 14.0032644445,
			"-0.003": 11.6168371567,
			"-0.002": 10.1003354714,
			"-0.001": 13.4647849691,
			"0.0": 15.138954756,
			"0.001": 19.7965386633,
			"0.002": 19.4731430797,
			"0.003": 23.3159994682,
			"0.004": 19.4362144686,
			"0.005": 8.75327424331,
			"0.006": 4.24507740228,
			"0.007": 2.4074420427,
			"0.008": 4.29001517328,
			"0.009": 4.14713203335,
			"0.01": 4.85115350335,
			"0.011": 2.55850588795,
			"0.012": 6.57539278844,
			"0.013": 2.61306938412,
			"0.014": 0.0,
			"0.015": 0.0,
			"0.016": 0.0,
			"0.017": 0.0,
			"0.018": 0.0,
			"0.019": 0.0,
			"0.02": 0.0,
			"0.021": 0.0,
			"0.022": 0.0,
			"0.023": 0.0,
			"0.024": 0.0,
			"0.025": 0.0
		}
	}
}
