{
	 "smiles": "CC1=CC=CC(Cl)=C1C#N", 
	 "Tm": 354.15, 
	 "num_atms": 16, 
	 "gaussian": { 
		 "optdone": 1, 
		 "sigma_profile": "yes", 
		 "theory": "DFT", 
		 "functional": "B3LYP", 
		 "basiset": "6-31G**", 
		 "properties": { 
			 "R2extent": 2067.4782, 
			 "electric_dipole_moment_norm": 5.03096925453, 
			 "electric_quadrupole_moment_norm": 9.70477674962, 
			 "total_energy": -823.399863212, 
			 "HOMO_LUMO_gap": 0.20227, 
			 "cosmo_polarized_energy": -8.72, 
			 "cosmo_cavitation_energy": 22.71, 
			 "cosmo_dispersion_energy": -16.23, 
			 "cosmo_repulsion_energy": 1.31, 
			 "cosmo_total_nonelectrostatic_energy": 7.79, 
			 "SMD_solvation_energy": 4.83 
		},
		"coords": [
			{
				"x": 1.1874359158,
				"y": -0.363547747,
				"z": -1.3480980972,
				"element": "C" 
			},
			{
				"x": 0.675286294,
				"y": 0.0846314199,
				"z": -0.0025305291,
				"element": "C" 
			},
			{
				"x": 1.0042931616,
				"y": 1.3379848008,
				"z": 0.5176704758,
				"element": "C" 
			},
			{
				"x": 0.5293526038,
				"y": 1.7507031375,
				"z": 1.7630138697,
				"element": "C" 
			},
			{
				"x": -0.2897148974,
				"y": 0.917991,
				"z": 2.5230542592,
				"element": "C" 
			},
			{
				"x": -0.6294123582,
				"y": -0.335710779,
				"z": 2.0221803846,
				"element": "C" 
			},
			{
				"x": -1.6565371293,
				"y": -1.3806014594,
				"z": 2.9747123455,
				"element": "Cl" 
			},
			{
				"x": -0.1572293581,
				"y": -0.764707374,
				"z": 0.7673194859,
				"element": "C" 
			},
			{
				"x": -0.5054530557,
				"y": -2.0539189878,
				"z": 0.250294914,
				"element": "C" 
			},
			{
				"x": -0.7589155892,
				"y": -3.0900112116,
				"z": -0.2140073842,
				"element": "N" 
			},
			{
				"x": 0.3622672754,
				"y": -0.5873656672,
				"z": -2.0325913919,
				"element": "H" 
			},
			{
				"x": 1.7815376719,
				"y": -1.2795908505,
				"z": -1.2618198882,
				"element": "H" 
			},
			{
				"x": 1.8113305611,
				"y": 0.4088466694,
				"z": -1.8032071683,
				"element": "H" 
			},
			{
				"x": 1.64161547,
				"y": 1.9982919245,
				"z": -0.0626177377,
				"element": "H" 
			},
			{
				"x": 0.7982401972,
				"y": 2.7298773755,
				"z": 2.1476218117,
				"element": "H" 
			},
			{
				"x": -0.6639967627,
				"y": 1.2288277489,
				"z": 3.4915046504,
				"element": "H" 
			}
		],
		 "valence_orbital": [ 
			{
				"type": "occ",
				"energy": -0.34431,
				"method": "rhf"
			},
			{
				"type": "occ",
				"energy": -0.33628,
				"method": "rhf"
			},
			{
				"type": "occ",
				"energy": -0.32264,
				"method": "rhf"
			},
			{
				"type": "occ",
				"energy": -0.26964,
				"method": "rhf"
			},
			{
				"type": "occ",
				"energy": -0.26285,
				"method": "rhf"
			},
			{
				"type": "unocc",
				"energy": -0.06058,
				"method": "rhf"
			},
			{
				"type": "unocc",
				"energy": -0.0294,
				"method": "rhf"
			},
			{
				"type": "unocc",
				"energy": 0.01589,
				"method": "rhf"
			},
			{
				"type": "unocc",
				"energy": 0.03251,
				"method": "rhf"
			},
			{
				"type": "unocc",
				"energy": 0.06996,
				"method": "rhf"
			}
		],
		"cosmo_sigma_profile": { 
			"-0.025": 0.0,
			"-0.024": 0.0,
			"-0.023": 0.0,
			"-0.022": 0.0,
			"-0.021": 0.0,
			"-0.02": 0.0,
			"-0.019": 0.0,
			"-0.018": 0.0,
			"-0.017": 0.0,
			"-0.016": 0.0,
			"-0.015": 0.0,
			"-0.014": 0.0,
			"-0.013": 0.0,
			"-0.012": 0.0,
			"-0.011": 0.0,
			"-0.01": 0.0,
			"-0.009": 0.0245821612302,
			"-0.008": 2.60207009103,
			"-0.007": 6.9691689232,
			"-0.006": 10.7242353099,
			"-0.005": 11.3735130052,
			"-0.004": 10.8683263953,
			"-0.003": 12.1581075068,
			"-0.002": 16.651722319,
			"-0.001": 20.0612779346,
			"0.0": 17.554432042,
			"0.001": 17.0473811841,
			"0.002": 14.9936975023,
			"0.003": 12.3188187722,
			"0.004": 7.88503530759,
			"0.005": 2.73523546176,
			"0.006": 2.32122666631,
			"0.007": 3.30658930597,
			"0.008": 3.08565249246,
			"0.009": 3.29445560095,
			"0.01": 3.04006792627,
			"0.011": 2.70392433503,
			"0.012": 2.39190079564,
			"0.013": 0.994432828094,
			"0.014": 0.0,
			"0.015": 0.0,
			"0.016": 0.0,
			"0.017": 0.0,
			"0.018": 0.0,
			"0.019": 0.0,
			"0.02": 0.0,
			"0.021": 0.0,
			"0.022": 0.0,
			"0.023": 0.0,
			"0.024": 0.0,
			"0.025": 0.0
		}
	}
}
