{
	 "smiles": "CCCCCCCC#C", 
	 "Tm": 223.15, 
	 "num_atms": 25, 
	 "gaussian": { 
		 "optdone": 1, 
		 "sigma_profile": "yes", 
		 "theory": "DFT", 
		 "functional": "B3LYP", 
		 "basiset": "6-31G**", 
		 "properties": { 
			 "R2extent": 2489.9164, 
			 "electric_dipole_moment_norm": 0.674082205669, 
			 "electric_quadrupole_moment_norm": 4.08159277366, 
			 "total_energy": -352.546401916, 
			 "HOMO_LUMO_gap": 0.31187, 
			 "cosmo_polarized_energy": -3.66, 
			 "cosmo_cavitation_energy": 27.34, 
			 "cosmo_dispersion_energy": -18.77, 
			 "cosmo_repulsion_energy": 1.58, 
			 "cosmo_total_nonelectrostatic_energy": 10.15, 
			 "SMD_solvation_energy": 5.41 
		},
		"coords": [
			{
				"x": -1.6802646781,
				"y": 1.9060316355,
				"z": -0.2426651137,
				"element": "C" 
			},
			{
				"x": -0.4006472009,
				"y": 2.3199346986,
				"z": 0.4931690366,
				"element": "C" 
			},
			{
				"x": 0.2543780633,
				"y": 1.2353223994,
				"z": 1.3675775974,
				"element": "C" 
			},
			{
				"x": 0.7795804808,
				"y": -0.0116697735,
				"z": 0.6214182506,
				"element": "C" 
			},
			{
				"x": -0.2167248476,
				"y": -1.1765909979,
				"z": 0.5143902343,
				"element": "C" 
			},
			{
				"x": 0.3626477096,
				"y": -2.388483992,
				"z": -0.2235033669,
				"element": "C" 
			},
			{
				"x": -0.6078541171,
				"y": -3.5879113231,
				"z": -0.3101955657,
				"element": "C" 
			},
			{
				"x": -0.9578735537,
				"y": -4.1574252659,
				"z": 0.9924746448,
				"element": "C" 
			},
			{
				"x": -1.234380122,
				"y": -4.6218220827,
				"z": 2.0731799764,
				"element": "C" 
			},
			{
				"x": -2.4328816784,
				"y": 1.5180977969,
				"z": 0.453541175,
				"element": "H" 
			},
			{
				"x": -1.4887627304,
				"y": 1.1307055667,
				"z": -0.9912679458,
				"element": "H" 
			},
			{
				"x": -2.1224370314,
				"y": 2.7605735114,
				"z": -0.7662090557,
				"element": "H" 
			},
			{
				"x": 0.3369226945,
				"y": 2.6749840647,
				"z": -0.2399938074,
				"element": "H" 
			},
			{
				"x": -0.6261298579,
				"y": 3.1831585659,
				"z": 1.1330899992,
				"element": "H" 
			},
			{
				"x": -0.4517194453,
				"y": 0.9201207158,
				"z": 2.1489187786,
				"element": "H" 
			},
			{
				"x": 1.0924397193,
				"y": 1.705583438,
				"z": 1.8971204449,
				"element": "H" 
			},
			{
				"x": 1.1183252278,
				"y": 0.2802209528,
				"z": -0.3834470784,
				"element": "H" 
			},
			{
				"x": 1.674370981,
				"y": -0.3836321483,
				"z": 1.1379917564,
				"element": "H" 
			},
			{
				"x": -1.133129682,
				"y": -0.8511576115,
				"z": 0.0065985106,
				"element": "H" 
			},
			{
				"x": -0.5202384833,
				"y": -1.4839637662,
				"z": 1.5233086637,
				"element": "H" 
			},
			{
				"x": 1.286801035,
				"y": -2.7152821014,
				"z": 0.2694972135,
				"element": "H" 
			},
			{
				"x": 0.6378140491,
				"y": -2.1021145769,
				"z": -1.2469625372,
				"element": "H" 
			},
			{
				"x": -1.5269147152,
				"y": -3.2761689584,
				"z": -0.8254219987,
				"element": "H" 
			},
			{
				"x": -0.1608139384,
				"y": -4.3729039167,
				"z": -0.9338981555,
				"element": "H" 
			},
			{
				"x": -1.4816078788,
				"y": -5.0353068312,
				"z": 3.0230883429,
				"element": "H" 
			}
		],
		 "valence_orbital": [ 
			{
				"type": "occ",
				"energy": -0.31747,
				"method": "rhf"
			},
			{
				"type": "occ",
				"energy": -0.30917,
				"method": "rhf"
			},
			{
				"type": "occ",
				"energy": -0.30451,
				"method": "rhf"
			},
			{
				"type": "occ",
				"energy": -0.25794,
				"method": "rhf"
			},
			{
				"type": "occ",
				"energy": -0.25676,
				"method": "rhf"
			},
			{
				"type": "unocc",
				"energy": 0.05511,
				"method": "rhf"
			},
			{
				"type": "unocc",
				"energy": 0.06207,
				"method": "rhf"
			},
			{
				"type": "unocc",
				"energy": 0.08871,
				"method": "rhf"
			},
			{
				"type": "unocc",
				"energy": 0.10836,
				"method": "rhf"
			},
			{
				"type": "unocc",
				"energy": 0.11986,
				"method": "rhf"
			}
		],
		"cosmo_sigma_profile": { 
			"-0.025": 0.0,
			"-0.024": 0.0,
			"-0.023": 0.0,
			"-0.022": 0.0,
			"-0.021": 0.0,
			"-0.02": 0.0,
			"-0.019": 0.0,
			"-0.018": 0.0,
			"-0.017": 0.0,
			"-0.016": 0.0,
			"-0.015": 0.0,
			"-0.014": 0.0,
			"-0.013": 0.0,
			"-0.012": 0.0113833739126,
			"-0.011": 0.802083693753,
			"-0.01": 1.25826270694,
			"-0.009": 0.854826450513,
			"-0.008": 0.826655819959,
			"-0.007": 1.70027876174,
			"-0.006": 0.976177531593,
			"-0.005": 4.19728760197,
			"-0.004": 6.03795139646,
			"-0.003": 11.8001405269,
			"-0.002": 31.1508309937,
			"-0.001": 38.1861327872,
			"0.0": 36.4958054707,
			"0.001": 32.5862372157,
			"0.002": 15.2874121507,
			"0.003": 3.88377721444,
			"0.004": 4.61845384423,
			"0.005": 5.07258495278,
			"0.006": 5.51673517632,
			"0.007": 6.68997928236,
			"0.008": 4.57359838929,
			"0.009": 0.0,
			"0.01": 0.0,
			"0.011": 0.0,
			"0.012": 0.0,
			"0.013": 0.0,
			"0.014": 0.0,
			"0.015": 0.0,
			"0.016": 0.0,
			"0.017": 0.0,
			"0.018": 0.0,
			"0.019": 0.0,
			"0.02": 0.0,
			"0.021": 0.0,
			"0.022": 0.0,
			"0.023": 0.0,
			"0.024": 0.0,
			"0.025": 0.0
		}
	}
}
