{
	 "smiles": "NC1=C(F)C=C(Br)C=C1F", 
	 "Tm": 340.65, 
	 "num_atms": 14, 
	 "gaussian": { 
		 "optdone": 1, 
		 "sigma_profile": "yes", 
		 "theory": "DFT", 
		 "functional": "B3LYP", 
		 "basiset": "6-31G**", 
		 "properties": { 
			 "R2extent": 2620.2003, 
			 "electric_dipole_moment_norm": 2.18830103505, 
			 "electric_quadrupole_moment_norm": 8.06358695123, 
			 "total_energy": -3056.87086537, 
			 "HOMO_LUMO_gap": 0.20464, 
			 "cosmo_polarized_energy": -6.3, 
			 "cosmo_cavitation_energy": 21.63, 
			 "cosmo_dispersion_energy": -16.41, 
			 "cosmo_repulsion_energy": 1.29, 
			 "cosmo_total_nonelectrostatic_energy": 6.52, 
			 "SMD_solvation_energy": 3.44 
		},
		"coords": [
			{
				"x": 3.5918397716,
				"y": -1.0615505807,
				"z": 0.2587267549,
				"element": "N" 
			},
			{
				"x": 2.2253510753,
				"y": -0.8685168108,
				"z": 0.385723415,
				"element": "C" 
			},
			{
				"x": 1.5484788305,
				"y": -1.0861876086,
				"z": 1.5922503086,
				"element": "C" 
			},
			{
				"x": 2.2796172059,
				"y": -1.5757925144,
				"z": 2.6226593629,
				"element": "F" 
			},
			{
				"x": 0.1948843294,
				"y": -0.8413234228,
				"z": 1.7663914588,
				"element": "C" 
			},
			{
				"x": -0.5320541346,
				"y": -0.3518606139,
				"z": 0.6816331491,
				"element": "C" 
			},
			{
				"x": -2.396103419,
				"y": 0.0005784727,
				"z": 0.8825699087,
				"element": "Br" 
			},
			{
				"x": 0.0814183656,
				"y": -0.1207827214,
				"z": -0.5492049299,
				"element": "C" 
			},
			{
				"x": 1.4378251653,
				"y": -0.3835463545,
				"z": -0.6658526378,
				"element": "C" 
			},
			{
				"x": 2.0602640456,
				"y": -0.1832001973,
				"z": -1.8526266762,
				"element": "F" 
			},
			{
				"x": 3.9902700707,
				"y": -1.705710679,
				"z": 0.9268876175,
				"element": "H" 
			},
			{
				"x": 3.9111796034,
				"y": -1.2028362948,
				"z": -0.6890027548,
				"element": "H" 
			},
			{
				"x": -0.2661759979,
				"y": -1.0332703467,
				"z": 2.7268831189,
				"element": "H" 
			},
			{
				"x": -0.4685949118,
				"y": 0.2520996721,
				"z": -1.4038380957,
				"element": "H" 
			}
		],
		 "valence_orbital": [ 
			{
				"type": "occ",
				"energy": -0.35089,
				"method": "rhf"
			},
			{
				"type": "occ",
				"energy": -0.29026,
				"method": "rhf"
			},
			{
				"type": "occ",
				"energy": -0.28829,
				"method": "rhf"
			},
			{
				"type": "occ",
				"energy": -0.25781,
				"method": "rhf"
			},
			{
				"type": "occ",
				"energy": -0.21433,
				"method": "rhf"
			},
			{
				"type": "unocc",
				"energy": -0.00969,
				"method": "rhf"
			},
			{
				"type": "unocc",
				"energy": -0.0075,
				"method": "rhf"
			},
			{
				"type": "unocc",
				"energy": -0.00156,
				"method": "rhf"
			},
			{
				"type": "unocc",
				"energy": 0.06856,
				"method": "rhf"
			},
			{
				"type": "unocc",
				"energy": 0.12525,
				"method": "rhf"
			}
		],
		"cosmo_sigma_profile": { 
			"-0.025": 0.0,
			"-0.024": 0.0,
			"-0.023": 0.0,
			"-0.022": 0.0,
			"-0.021": 0.0,
			"-0.02": 0.0,
			"-0.019": 0.0,
			"-0.018": 0.0,
			"-0.017": 0.0,
			"-0.016": 0.0,
			"-0.015": 0.0,
			"-0.014": 0.0352780857403,
			"-0.013": 1.22348393026,
			"-0.012": 2.29269723807,
			"-0.011": 1.83379752232,
			"-0.01": 2.31135012552,
			"-0.009": 2.4111677928,
			"-0.008": 4.97496095003,
			"-0.007": 4.1562240348,
			"-0.006": 5.46853057186,
			"-0.005": 4.95681140139,
			"-0.004": 6.07553502712,
			"-0.003": 7.06587923198,
			"-0.002": 7.08375684223,
			"-0.001": 9.41917239727,
			"0.0": 18.5631813013,
			"0.001": 21.0704404914,
			"0.002": 21.6460119272,
			"0.003": 22.0806449142,
			"0.004": 23.1495220665,
			"0.005": 6.30442530632,
			"0.006": 1.00039824521,
			"0.007": 0.441757555356,
			"0.008": 0.756919240555,
			"0.009": 0.729881610093,
			"0.01": 0.710336005095,
			"0.011": 0.54194883392,
			"0.012": 0.576912522783,
			"0.013": 0.319564025598,
			"0.014": 0.0,
			"0.015": 0.0,
			"0.016": 0.0,
			"0.017": 0.0,
			"0.018": 0.0,
			"0.019": 0.0,
			"0.02": 0.0,
			"0.021": 0.0,
			"0.022": 0.0,
			"0.023": 0.0,
			"0.024": 0.0,
			"0.025": 0.0
		}
	}
}
