{
	 "smiles": "OC(=O)CC1=CC=C(Cl)C=C1", 
	 "Tm": 378.15, 
	 "num_atms": 18, 
	 "gaussian": { 
		 "optdone": 1, 
		 "sigma_profile": "yes", 
		 "theory": "DFT", 
		 "functional": "B3LYP", 
		 "basiset": "6-31G**", 
		 "properties": { 
			 "R2extent": 2759.5684, 
			 "electric_dipole_moment_norm": 2.97086013639, 
			 "electric_quadrupole_moment_norm": 6.25696985689, 
			 "total_energy": -919.72758864, 
			 "HOMO_LUMO_gap": 0.22688, 
			 "cosmo_polarized_energy": -11.76, 
			 "cosmo_cavitation_energy": 24.85, 
			 "cosmo_dispersion_energy": -18.01, 
			 "cosmo_repulsion_energy": 1.47, 
			 "cosmo_total_nonelectrostatic_energy": 8.32, 
			 "SMD_solvation_energy": 5.17 
		},
		"coords": [
			{
				"x": 1.0288338835,
				"y": -4.0779817388,
				"z": 0.9563872953,
				"element": "O" 
			},
			{
				"x": 0.5417935636,
				"y": -2.8137037448,
				"z": 0.8844060925,
				"element": "C" 
			},
			{
				"x": -0.0261505537,
				"y": -2.276646234,
				"z": 1.8058948866,
				"element": "O" 
			},
			{
				"x": 0.8187301774,
				"y": -2.2149292557,
				"z": -0.4880756772,
				"element": "C" 
			},
			{
				"x": 0.3070017721,
				"y": -0.8050924711,
				"z": -0.6533078335,
				"element": "C" 
			},
			{
				"x": -0.9873100374,
				"y": -0.5644171079,
				"z": -1.1276708536,
				"element": "C" 
			},
			{
				"x": -1.4721607641,
				"y": 0.7342660982,
				"z": -1.2776472703,
				"element": "C" 
			},
			{
				"x": -0.6458105352,
				"y": 1.8072198657,
				"z": -0.9476096937,
				"element": "C" 
			},
			{
				"x": -1.2427048334,
				"y": 3.4503495505,
				"z": -1.1390491599,
				"element": "Cl" 
			},
			{
				"x": 0.6480664623,
				"y": 1.5982343873,
				"z": -0.4730408606,
				"element": "C" 
			},
			{
				"x": 1.1137427078,
				"y": 0.2917380216,
				"z": -0.330328109,
				"element": "C" 
			},
			{
				"x": 0.8195503548,
				"y": -4.3968949448,
				"z": 1.8503873412,
				"element": "H" 
			},
			{
				"x": 0.3758220001,
				"y": -2.8895918642,
				"z": -1.2299542299,
				"element": "H" 
			},
			{
				"x": 1.9015076287,
				"y": -2.2679797813,
				"z": -0.6508861322,
				"element": "H" 
			},
			{
				"x": -1.6310971837,
				"y": -1.4014659963,
				"z": -1.3848913188,
				"element": "H" 
			},
			{
				"x": -2.4756875018,
				"y": 0.9132821372,
				"z": -1.6472491696,
				"element": "H" 
			},
			{
				"x": 1.2793362942,
				"y": 2.4434085993,
				"z": -0.2222462863,
				"element": "H" 
			},
			{
				"x": 2.1225365649,
				"y": 0.1281044791,
				"z": 0.0395809791,
				"element": "H" 
			}
		],
		 "valence_orbital": [ 
			{
				"type": "occ",
				"energy": -0.32501,
				"method": "rhf"
			},
			{
				"type": "occ",
				"energy": -0.31124,
				"method": "rhf"
			},
			{
				"type": "occ",
				"energy": -0.28171,
				"method": "rhf"
			},
			{
				"type": "occ",
				"energy": -0.26393,
				"method": "rhf"
			},
			{
				"type": "occ",
				"energy": -0.24375,
				"method": "rhf"
			},
			{
				"type": "unocc",
				"energy": -0.01687,
				"method": "rhf"
			},
			{
				"type": "unocc",
				"energy": -0.01569,
				"method": "rhf"
			},
			{
				"type": "unocc",
				"energy": 0.00708,
				"method": "rhf"
			},
			{
				"type": "unocc",
				"energy": 0.0296,
				"method": "rhf"
			},
			{
				"type": "unocc",
				"energy": 0.0745,
				"method": "rhf"
			}
		],
		"cosmo_sigma_profile": { 
			"-0.025": 0.0,
			"-0.024": 0.0,
			"-0.023": 0.0,
			"-0.022": 0.0,
			"-0.021": 0.0,
			"-0.02": 0.0,
			"-0.019": 0.0473019199145,
			"-0.018": 0.580736218986,
			"-0.017": 1.0322018055,
			"-0.016": 0.775347924144,
			"-0.015": 1.19344254357,
			"-0.014": 0.460188583365,
			"-0.013": 0.281583519392,
			"-0.012": 0.617593778458,
			"-0.011": 1.06985740706,
			"-0.01": 0.863856264679,
			"-0.009": 0.508484248235,
			"-0.008": 1.3785502705,
			"-0.007": 13.845624523,
			"-0.006": 14.6028034087,
			"-0.005": 12.0199779535,
			"-0.004": 10.0970634017,
			"-0.003": 10.6836982289,
			"-0.002": 10.2857170031,
			"-0.001": 9.24609879351,
			"0.0": 11.4064298792,
			"0.001": 12.2132441304,
			"0.002": 15.3969180824,
			"0.003": 16.3659927801,
			"0.004": 18.9342744812,
			"0.005": 11.4047194141,
			"0.006": 3.22359418728,
			"0.007": 3.20195210833,
			"0.008": 3.1110086027,
			"0.009": 3.72205571821,
			"0.01": 3.16592392263,
			"0.011": 4.4286521635,
			"0.012": 3.96090893387,
			"0.013": 0.324589743951,
			"0.014": 0.0,
			"0.015": 0.0,
			"0.016": 0.0,
			"0.017": 0.0,
			"0.018": 0.0,
			"0.019": 0.0,
			"0.02": 0.0,
			"0.021": 0.0,
			"0.022": 0.0,
			"0.023": 0.0,
			"0.024": 0.0,
			"0.025": 0.0
		}
	}
}
