{
	 "smiles": "CC(OC1=CC(Br)=CC=C1)C(=O)NN", 
	 "Tm": 387.15, 
	 "num_atms": 25, 
	 "gaussian": { 
		 "optdone": 1, 
		 "sigma_profile": "yes", 
		 "theory": "DFT", 
		 "functional": "B3LYP", 
		 "basiset": "6-31G**", 
		 "properties": { 
			 "R2extent": 7717.7499, 
			 "electric_dipole_moment_norm": 0.719198609565, 
			 "electric_quadrupole_moment_norm": 14.6108992653, 
			 "total_energy": -3180.91928877, 
			 "HOMO_LUMO_gap": 0.21425, 
			 "cosmo_polarized_energy": -13.73, 
			 "cosmo_cavitation_energy": 31.72, 
			 "cosmo_dispersion_energy": -22.69, 
			 "cosmo_repulsion_energy": 1.84, 
			 "cosmo_total_nonelectrostatic_energy": 10.87, 
			 "SMD_solvation_energy": 5.48 
		},
		"coords": [
			{
				"x": 1.3982241954,
				"y": 1.2653570264,
				"z": 1.3269309348,
				"element": "C" 
			},
			{
				"x": 0.91961251,
				"y": 0.0373714823,
				"z": 0.5560374614,
				"element": "C" 
			},
			{
				"x": 0.9128325141,
				"y": 0.3896475041,
				"z": -0.8338974685,
				"element": "O" 
			},
			{
				"x": 0.9669042906,
				"y": -0.6077204066,
				"z": -1.7754565158,
				"element": "C" 
			},
			{
				"x": 1.1688557116,
				"y": -0.1663879373,
				"z": -3.090888601,
				"element": "C" 
			},
			{
				"x": 1.2304945958,
				"y": -1.1019698101,
				"z": -4.1149706351,
				"element": "C" 
			},
			{
				"x": 1.5078784324,
				"y": -0.4951656272,
				"z": -5.9071268539,
				"element": "Br" 
			},
			{
				"x": 1.1003977882,
				"y": -2.4701554996,
				"z": -3.8705459937,
				"element": "C" 
			},
			{
				"x": 0.8990023806,
				"y": -2.8874490583,
				"z": -2.5568775189,
				"element": "C" 
			},
			{
				"x": 0.8269909882,
				"y": -1.9733419494,
				"z": -1.5020671264,
				"element": "C" 
			},
			{
				"x": -0.4635710385,
				"y": -0.4056740839,
				"z": 1.0582750474,
				"element": "C" 
			},
			{
				"x": -0.5855405699,
				"y": -1.0795186,
				"z": 2.0751540958,
				"element": "O" 
			},
			{
				"x": -1.5168595253,
				"y": 0.054472844,
				"z": 0.3343041169,
				"element": "N" 
			},
			{
				"x": -2.8509983551,
				"y": -0.2011944265,
				"z": 0.7006355608,
				"element": "N" 
			},
			{
				"x": 2.412439959,
				"y": 1.531013742,
				"z": 1.0187552301,
				"element": "H" 
			},
			{
				"x": 0.7400056173,
				"y": 2.118056287,
				"z": 1.1369798631,
				"element": "H" 
			},
			{
				"x": 1.393597716,
				"y": 1.0474788865,
				"z": 2.3976017091,
				"element": "H" 
			},
			{
				"x": 1.604307657,
				"y": -0.7990382489,
				"z": 0.7320785083,
				"element": "H" 
			},
			{
				"x": 1.278958187,
				"y": 0.8937901316,
				"z": -3.2835384983,
				"element": "H" 
			},
			{
				"x": 1.1533389325,
				"y": -3.1828528386,
				"z": -4.6844943376,
				"element": "H" 
			},
			{
				"x": 0.7898940082,
				"y": -3.9470655422,
				"z": -2.3454989597,
				"element": "H" 
			},
			{
				"x": 0.6519718099,
				"y": -2.332198236,
				"z": -0.4950240266,
				"element": "H" 
			},
			{
				"x": -1.3750498668,
				"y": 0.6117311846,
				"z": -0.4947524616,
				"element": "H" 
			},
			{
				"x": -2.9942051246,
				"y": -1.2107074989,
				"z": 0.6620370731,
				"element": "H" 
			},
			{
				"x": -2.9439828137,
				"y": 0.0455206748,
				"z": 1.6858493963,
				"element": "H" 
			}
		],
		 "valence_orbital": [ 
			{
				"type": "occ",
				"energy": -0.28672,
				"method": "rhf"
			},
			{
				"type": "occ",
				"energy": -0.26759,
				"method": "rhf"
			},
			{
				"type": "occ",
				"energy": -0.26393,
				"method": "rhf"
			},
			{
				"type": "occ",
				"energy": -0.24989,
				"method": "rhf"
			},
			{
				"type": "occ",
				"energy": -0.23478,
				"method": "rhf"
			},
			{
				"type": "unocc",
				"energy": -0.02053,
				"method": "rhf"
			},
			{
				"type": "unocc",
				"energy": -0.00676,
				"method": "rhf"
			},
			{
				"type": "unocc",
				"energy": 0.00399,
				"method": "rhf"
			},
			{
				"type": "unocc",
				"energy": 0.01394,
				"method": "rhf"
			},
			{
				"type": "unocc",
				"energy": 0.07849,
				"method": "rhf"
			}
		],
		"cosmo_sigma_profile": { 
			"-0.025": 0.029916296138,
			"-0.024": 0.0929370189285,
			"-0.023": 0.123543948348,
			"-0.022": 0.160528691586,
			"-0.021": 0.0,
			"-0.02": 0.0,
			"-0.019": 0.0681811645434,
			"-0.018": 0.0218904854566,
			"-0.017": 0.13637440089,
			"-0.016": 0.36970810711,
			"-0.015": 0.0442765132912,
			"-0.014": 0.184761858124,
			"-0.013": 0.563314095924,
			"-0.012": 1.33823055863,
			"-0.011": 2.06433756693,
			"-0.01": 3.29628192267,
			"-0.009": 3.50093475622,
			"-0.008": 2.32302746692,
			"-0.007": 9.50228297846,
			"-0.006": 11.8345680194,
			"-0.005": 16.222821212,
			"-0.004": 17.7059958721,
			"-0.003": 16.488419027,
			"-0.002": 17.7122914926,
			"-0.001": 18.0784281253,
			"0.0": 16.8975870271,
			"0.001": 16.626117892,
			"0.002": 20.4468483024,
			"0.003": 20.8578168595,
			"0.004": 20.937366181,
			"0.005": 8.74572977353,
			"0.006": 3.3544550984,
			"0.007": 2.77345517284,
			"0.008": 2.72649219319,
			"0.009": 2.14331582369,
			"0.01": 1.97380000899,
			"0.011": 1.05615607464,
			"0.012": 2.03328157383,
			"0.013": 3.74796485921,
			"0.014": 5.91757214853,
			"0.015": 1.5224777546,
			"0.016": 0.54239916924,
			"0.017": 0.235739940747,
			"0.018": 0.0,
			"0.019": 0.0,
			"0.02": 0.0,
			"0.021": 0.0,
			"0.022": 3.40572915322,
			"0.023": -3.34055549722,
			"0.024": 0.681145346001,
			"0.025": -0.668097916001
		}
	}
}
