{
	 "smiles": "CC1=C(C=O)N2C=CSC2=N1", 
	 "Tm": 368.15, 
	 "num_atms": 17, 
	 "gaussian": { 
		 "optdone": 1, 
		 "sigma_profile": "yes", 
		 "theory": "DFT", 
		 "functional": "B3LYP", 
		 "basiset": "6-31G**", 
		 "properties": { 
			 "R2extent": 2841.5284, 
			 "electric_dipole_moment_norm": 4.461096131, 
			 "electric_quadrupole_moment_norm": 17.2914390309, 
			 "total_energy": -853.246080372, 
			 "HOMO_LUMO_gap": 0.17739, 
			 "cosmo_polarized_energy": -13.13, 
			 "cosmo_cavitation_energy": 23.38, 
			 "cosmo_dispersion_energy": -17.72, 
			 "cosmo_repulsion_energy": 1.35, 
			 "cosmo_total_nonelectrostatic_energy": 7.0, 
			 "SMD_solvation_energy": 3.54 
		},
		"coords": [
			{
				"x": 0.1500648328,
				"y": -1.7870246773,
				"z": -0.1890509348,
				"element": "C" 
			},
			{
				"x": -0.5407247139,
				"y": -0.6612591785,
				"z": 0.5085400194,
				"element": "C" 
			},
			{
				"x": -0.5451960997,
				"y": 0.687853946,
				"z": 0.1228473529,
				"element": "C" 
			},
			{
				"x": 0.076064999,
				"y": 1.3569081624,
				"z": -0.9934842354,
				"element": "C" 
			},
			{
				"x": 0.7568422146,
				"y": 0.7945975353,
				"z": -1.8409843325,
				"element": "O" 
			},
			{
				"x": -1.327196039,
				"y": 1.326272002,
				"z": 1.0973465919,
				"element": "N" 
			},
			{
				"x": -1.7903100236,
				"y": 2.5972426317,
				"z": 1.4146997999,
				"element": "C" 
			},
			{
				"x": -2.5461095494,
				"y": 2.5970135102,
				"z": 2.5360205725,
				"element": "C" 
			},
			{
				"x": -2.7109994172,
				"y": 0.994173263,
				"z": 3.2469353156,
				"element": "S" 
			},
			{
				"x": -1.720020475,
				"y": 0.3412028214,
				"z": 1.9666459154,
				"element": "C" 
			},
			{
				"x": -1.269577032,
				"y": -0.8609620895,
				"z": 1.6479748467,
				"element": "N" 
			},
			{
				"x": 1.2275550639,
				"y": -1.6057160739,
				"z": -0.2538773028,
				"element": "H" 
			},
			{
				"x": -0.2058003648,
				"y": -1.8870065467,
				"z": -1.2193133096,
				"element": "H" 
			},
			{
				"x": -0.0316191705,
				"y": -2.717323602,
				"z": 0.3516859996,
				"element": "H" 
			},
			{
				"x": -0.1037675146,
				"y": 2.455253515,
				"z": -1.0467524448,
				"element": "H" 
			},
			{
				"x": -1.5387082721,
				"y": 3.4454543665,
				"z": 0.7946800865,
				"element": "H" 
			},
			{
				"x": -3.0242984385,
				"y": 3.4476204142,
				"z": 2.9979860595,
				"element": "H" 
			}
		],
		 "valence_orbital": [ 
			{
				"type": "occ",
				"energy": -0.33237,
				"method": "rhf"
			},
			{
				"type": "occ",
				"energy": -0.29313,
				"method": "rhf"
			},
			{
				"type": "occ",
				"energy": -0.25143,
				"method": "rhf"
			},
			{
				"type": "occ",
				"energy": -0.24799,
				"method": "rhf"
			},
			{
				"type": "occ",
				"energy": -0.23154,
				"method": "rhf"
			},
			{
				"type": "unocc",
				"energy": -0.05415,
				"method": "rhf"
			},
			{
				"type": "unocc",
				"energy": -0.01762,
				"method": "rhf"
			},
			{
				"type": "unocc",
				"energy": -0.00446,
				"method": "rhf"
			},
			{
				"type": "unocc",
				"energy": 0.03733,
				"method": "rhf"
			},
			{
				"type": "unocc",
				"energy": 0.06627,
				"method": "rhf"
			}
		],
		"cosmo_sigma_profile": { 
			"-0.025": 0.0,
			"-0.024": 0.0,
			"-0.023": 0.0,
			"-0.022": 0.0,
			"-0.021": 0.0,
			"-0.02": 0.0,
			"-0.019": 0.0,
			"-0.018": 0.0,
			"-0.017": 0.0,
			"-0.016": 0.0,
			"-0.015": 0.0,
			"-0.014": 0.0,
			"-0.013": 0.0,
			"-0.012": 1.64835106528e-05,
			"-0.011": 1.35830709999,
			"-0.01": 6.29221574948,
			"-0.009": 5.14549640541,
			"-0.008": 5.15930753303,
			"-0.007": 5.06678730505,
			"-0.006": 5.92495875026,
			"-0.005": 6.66060781023,
			"-0.004": 9.63971828953,
			"-0.003": 12.5512156679,
			"-0.002": 16.8882529076,
			"-0.001": 20.3907773849,
			"0.0": 21.2326671031,
			"0.001": 18.7148353135,
			"0.002": 11.1726333278,
			"0.003": 7.12260337415,
			"0.004": 4.372690207,
			"0.005": 3.65003614117,
			"0.006": 2.89411953348,
			"0.007": 2.43745166746,
			"0.008": 2.90837137275,
			"0.009": 3.03202626559,
			"0.01": 3.03492079507,
			"0.011": 3.61440987341,
			"0.012": 5.10511781123,
			"0.013": 3.11763482202,
			"0.014": 1.31470173997,
			"0.015": 1.29144759906,
			"0.016": 0.371480235309,
			"0.017": 0.0,
			"0.018": 0.0,
			"0.019": 0.0,
			"0.02": 0.0,
			"0.021": 0.0,
			"0.022": 0.0,
			"0.023": 0.0,
			"0.024": 0.0,
			"0.0": 0.0
		}
	}
}
