{
	 "smiles": "CCOC(=O)[C@H](CCC1=CC=CC=C1)N[C@@H](C)C(=O)N1[C@H]2CCCC[C@@H]2C[C@H]1C(O)=O", 
	 "Tm": 394.15, 
	 "num_atms": 65, 
	 "gaussian": { 
		 "optdone": 1, 
		 "sigma_profile": "yes", 
		 "theory": "DFT", 
		 "functional": "B3LYP", 
		 "basiset": "6-31G**", 
		 "properties": { 
			 "R2extent": 15317.391, 
			 "electric_dipole_moment_norm": 0.957997045924, 
			 "electric_quadrupole_moment_norm": 17.6016019223, 
			 "total_energy": -1420.71553366, 
			 "HOMO_LUMO_gap": 0.21953, 
			 "cosmo_polarized_energy": -21.03, 
			 "cosmo_cavitation_energy": 61.91, 
			 "cosmo_dispersion_energy": -39.05, 
			 "cosmo_repulsion_energy": 2.96, 
			 "cosmo_total_nonelectrostatic_energy": 25.83, 
			 "SMD_solvation_energy": 10.4 
		},
		"coords": [
			{
				"x": 3.796454287,
				"y": -1.5929828516,
				"z": -0.1097866582,
				"element": "C" 
			},
			{
				"x": 2.7119653817,
				"y": -2.5780450466,
				"z": -0.5180596746,
				"element": "C" 
			},
			{
				"x": 1.7805607931,
				"y": -1.9276552243,
				"z": -1.4217907751,
				"element": "O" 
			},
			{
				"x": 0.6087447065,
				"y": -1.5020609646,
				"z": -0.9107447956,
				"element": "C" 
			},
			{
				"x": 0.2407172729,
				"y": -1.7283437427,
				"z": 0.2227452659,
				"element": "O" 
			},
			{
				"x": -0.2355776268,
				"y": -0.7466822673,
				"z": -1.9548001639,
				"element": "C" 
			},
			{
				"x": 0.5543559552,
				"y": -0.2678063914,
				"z": -3.1987616731,
				"element": "C" 
			},
			{
				"x": 0.8068016147,
				"y": -1.3524276617,
				"z": -4.2726496316,
				"element": "C" 
			},
			{
				"x": -0.4589986459,
				"y": -1.902768421,
				"z": -4.8983929939,
				"element": "C" 
			},
			{
				"x": -1.1885301444,
				"y": -1.141968833,
				"z": -5.8252714365,
				"element": "C" 
			},
			{
				"x": -2.365248378,
				"y": -1.6319644018,
				"z": -6.3909926354,
				"element": "C" 
			},
			{
				"x": -2.8386301171,
				"y": -2.8986063385,
				"z": -6.039075101,
				"element": "C" 
			},
			{
				"x": -2.123609145,
				"y": -3.668665548,
				"z": -5.1216941241,
				"element": "C" 
			},
			{
				"x": -0.9445348003,
				"y": -3.1733519776,
				"z": -4.559185947,
				"element": "C" 
			},
			{
				"x": -1.0304555793,
				"y": 0.2890135125,
				"z": -1.2798788929,
				"element": "N" 
			},
			{
				"x": -0.3313048619,
				"y": 1.5197510405,
				"z": -0.8721948639,
				"element": "C" 
			},
			{
				"x": -1.3438796244,
				"y": 2.6657758697,
				"z": -0.7502843326,
				"element": "C" 
			},
			{
				"x": 0.5312253264,
				"y": 1.2935368824,
				"z": 0.3940104631,
				"element": "C" 
			},
			{
				"x": 1.7587732666,
				"y": 1.3441230618,
				"z": 0.2732440171,
				"element": "O" 
			},
			{
				"x": -0.0474897117,
				"y": 1.0701352052,
				"z": 1.61078478,
				"element": "N" 
			},
			{
				"x": 0.8303804006,
				"y": 0.6702780816,
				"z": 2.7332989891,
				"element": "C" 
			},
			{
				"x": 1.7553251399,
				"y": 1.7449457717,
				"z": 3.3242556156,
				"element": "C" 
			},
			{
				"x": 2.1059971454,
				"y": 1.384449214,
				"z": 4.7971417526,
				"element": "C" 
			},
			{
				"x": 2.0322588969,
				"y": -0.1320690294,
				"z": 5.0697693049,
				"element": "C" 
			},
			{
				"x": 0.6096031387,
				"y": -0.7114724454,
				"z": 4.814433018,
				"element": "C" 
			},
			{
				"x": -0.1442745492,
				"y": 0.1598823032,
				"z": 3.7994479317,
				"element": "C" 
			},
			{
				"x": -1.2798026854,
				"y": -0.4418165355,
				"z": 2.9674561772,
				"element": "C" 
			},
			{
				"x": -1.4258766235,
				"y": 0.5961596719,
				"z": 1.8200333404,
				"element": "C" 
			},
			{
				"x": -2.4150426834,
				"y": 1.6816869621,
				"z": 2.2306573642,
				"element": "C" 
			},
			{
				"x": -1.8408048011,
				"y": 2.7886537881,
				"z": 2.7597338043,
				"element": "O" 
			},
			{
				"x": -3.6180302256,
				"y": 1.5611417417,
				"z": 2.1304266103,
				"element": "O" 
			},
			{
				"x": 4.4975954451,
				"y": -2.0773120103,
				"z": 0.5785733792,
				"element": "H" 
			},
			{
				"x": 4.3571146217,
				"y": -1.2474282506,
				"z": -0.98331803,
				"element": "H" 
			},
			{
				"x": 3.3592064768,
				"y": -0.7197381877,
				"z": 0.381748274,
				"element": "H" 
			},
			{
				"x": 2.1565257998,
				"y": -2.9537390733,
				"z": 0.3428541506,
				"element": "H" 
			},
			{
				"x": 3.1188083921,
				"y": -3.4201400775,
				"z": -1.0844505952,
				"element": "H" 
			},
			{
				"x": -0.9697451782,
				"y": -1.4918998161,
				"z": -2.2915653123,
				"element": "H" 
			},
			{
				"x": -0.0292724325,
				"y": 0.5396159231,
				"z": -3.6593146678,
				"element": "H" 
			},
			{
				"x": 1.5122828141,
				"y": 0.1631742265,
				"z": -2.8946117875,
				"element": "H" 
			},
			{
				"x": 1.4314677302,
				"y": -0.9055024913,
				"z": -5.0558937062,
				"element": "H" 
			},
			{
				"x": 1.3901888249,
				"y": -2.1657143107,
				"z": -3.8336547651,
				"element": "H" 
			},
			{
				"x": -0.8233707298,
				"y": -0.1582289233,
				"z": -6.1126504488,
				"element": "H" 
			},
			{
				"x": -2.9108663055,
				"y": -1.0281207958,
				"z": -7.1109886021,
				"element": "H" 
			},
			{
				"x": -3.7539846829,
				"y": -3.2822771191,
				"z": -6.4803226769,
				"element": "H" 
			},
			{
				"x": -2.4796774947,
				"y": -4.6570582734,
				"z": -4.8446636016,
				"element": "H" 
			},
			{
				"x": -0.3876165528,
				"y": -3.7837321969,
				"z": -3.8520187607,
				"element": "H" 
			},
			{
				"x": -1.8096147549,
				"y": 0.5353946788,
				"z": -1.8827888442,
				"element": "H" 
			},
			{
				"x": 0.4250389692,
				"y": 1.8255315493,
				"z": -1.60707558,
				"element": "H" 
			},
			{
				"x": -0.894206113,
				"y": 3.5375877544,
				"z": -0.2684859576,
				"element": "H" 
			},
			{
				"x": -1.678086339,
				"y": 2.9679315791,
				"z": -1.7493675491,
				"element": "H" 
			},
			{
				"x": -2.2307056374,
				"y": 2.3724424828,
				"z": -0.1839172015,
				"element": "H" 
			},
			{
				"x": 1.441923671,
				"y": -0.1687161654,
				"z": 2.3739293373,
				"element": "H" 
			},
			{
				"x": 1.2482710828,
				"y": 2.7153005606,
				"z": 3.2858773976,
				"element": "H" 
			},
			{
				"x": 2.6545067151,
				"y": 1.8268094986,
				"z": 2.709358715,
				"element": "H" 
			},
			{
				"x": 1.4165099703,
				"y": 1.8980788596,
				"z": 5.4791046511,
				"element": "H" 
			},
			{
				"x": 3.1061910791,
				"y": 1.7570618622,
				"z": 5.0437294647,
				"element": "H" 
			},
			{
				"x": 2.755548963,
				"y": -0.6415526648,
				"z": 4.4209441074,
				"element": "H" 
			},
			{
				"x": 2.3463018686,
				"y": -0.3439952786,
				"z": 6.0977315415,
				"element": "H" 
			},
			{
				"x": 0.0428954531,
				"y": -0.7621669556,
				"z": 5.7514482233,
				"element": "H" 
			},
			{
				"x": 0.690998837,
				"y": -1.7401902357,
				"z": 4.4415597713,
				"element": "H" 
			},
			{
				"x": -0.5432580842,
				"y": 1.037388259,
				"z": 4.3260231777,
				"element": "H" 
			},
			{
				"x": -2.2170491631,
				"y": -0.5870018303,
				"z": 3.511474535,
				"element": "H" 
			},
			{
				"x": -0.9763376985,
				"y": -1.3944316669,
				"z": 2.5233922306,
				"element": "H" 
			},
			{
				"x": -1.8097112586,
				"y": 0.131545623,
				"z": 0.910818376,
				"element": "H" 
			},
			{
				"x": -2.5786474112,
				"y": 3.372038041,
				"z": 3.0072460189,
				"element": "H" 
			}
		],
		 "valence_orbital": [ 
			{
				"type": "occ",
				"energy": -0.25094,
				"method": "rhf"
			},
			{
				"type": "occ",
				"energy": -0.24715,
				"method": "rhf"
			},
			{
				"type": "occ",
				"energy": -0.24068,
				"method": "rhf"
			},
			{
				"type": "occ",
				"energy": -0.22949,
				"method": "rhf"
			},
			{
				"type": "occ",
				"energy": -0.22498,
				"method": "rhf"
			},
			{
				"type": "unocc",
				"energy": -0.00545,
				"method": "rhf"
			},
			{
				"type": "unocc",
				"energy": -0.0023,
				"method": "rhf"
			},
			{
				"type": "unocc",
				"energy": 0.00594,
				"method": "rhf"
			},
			{
				"type": "unocc",
				"energy": 0.00866,
				"method": "rhf"
			},
			{
				"type": "unocc",
				"energy": 0.02907,
				"method": "rhf"
			}
		],
		"cosmo_sigma_profile": { 
			"-0.025": 0.0,
			"-0.024": 0.0,
			"-0.023": 0.0,
			"-0.022": 0.0,
			"-0.021": 0.0,
			"-0.02": 0.0,
			"-0.019": 0.000205622582553,
			"-0.018": 0.733389578061,
			"-0.017": 0.985642832496,
			"-0.016": 0.790219247548,
			"-0.015": 0.874376356707,
			"-0.014": 0.902158600955,
			"-0.013": 0.732582552496,
			"-0.012": 0.365952923106,
			"-0.011": 1.48639211273,
			"-0.01": 2.00479069316,
			"-0.009": 2.21703730204,
			"-0.008": 2.15867410883,
			"-0.007": 3.17257784812,
			"-0.006": 5.89765994567,
			"-0.005": 20.959337063,
			"-0.004": 37.1289599444,
			"-0.003": 53.1372924985,
			"-0.002": 61.9693611948,
			"-0.001": 60.9350748831,
			"0.0": 50.9755647149,
			"0.001": 37.0564020396,
			"0.002": 20.8968773389,
			"0.003": 20.0590199735,
			"0.004": 19.6343348021,
			"0.005": 18.1358067445,
			"0.006": 17.663389862,
			"0.007": 7.54921077198,
			"0.008": 6.4238791773,
			"0.009": 5.11212534709,
			"0.01": 4.85853887437,
			"0.011": 6.38387078275,
			"0.012": 6.24656787171,
			"0.013": 2.39214896263,
			"0.014": 1.45893431191,
			"0.015": 0.55678669838,
			"0.016": 0.0,
			"0.017": 0.0,
			"0.018": 0.0,
			"0.019": 0.0,
			"0.02": 0.0,
			"0.021": 0.0,
			"0.022": 0.0,
			"0.023": 0.0,
			"0.024": 0.0,
			"0.025": 0.0
		}
	}
}
