{
	 "smiles": "COC(=O)C(O)C1=CC(Cl)=CC(Cl)=C1", 
	 "Tm": 354.15, 
	 "num_atms": 22, 
	 "gaussian": { 
		 "optdone": 1, 
		 "sigma_profile": "yes", 
		 "theory": "DFT", 
		 "functional": "B3LYP", 
		 "basiset": "6-31G**", 
		 "properties": { 
			 "R2extent": 4955.8724, 
			 "electric_dipole_moment_norm": 3.35979306803, 
			 "electric_quadrupole_moment_norm": 9.24849154349, 
			 "total_energy": -1493.83277552, 
			 "HOMO_LUMO_gap": 0.2203, 
			 "cosmo_polarized_energy": -9.82, 
			 "cosmo_cavitation_energy": 30.48, 
			 "cosmo_dispersion_energy": -22.08, 
			 "cosmo_repulsion_energy": 1.78, 
			 "cosmo_total_nonelectrostatic_energy": 10.18, 
			 "SMD_solvation_energy": 6.1 
		},
		"coords": [
			{
				"x": -1.9639319439,
				"y": -3.1308768505,
				"z": 0.7837380971,
				"element": "C" 
			},
			{
				"x": -0.9125845403,
				"y": -2.1790122642,
				"z": 1.0437259038,
				"element": "O" 
			},
			{
				"x": 0.2617317239,
				"y": -2.4205208456,
				"z": 0.4274717826,
				"element": "C" 
			},
			{
				"x": 0.4669041356,
				"y": -3.3600827823,
				"z": -0.3068833019,
				"element": "O" 
			},
			{
				"x": 1.2843689259,
				"y": -1.3227694683,
				"z": 0.7468932802,
				"element": "C" 
			},
			{
				"x": 1.0456846531,
				"y": -0.7074659848,
				"z": 1.9920067442,
				"element": "O" 
			},
			{
				"x": 1.3479272634,
				"y": -0.3225876849,
				"z": -0.419427814,
				"element": "C" 
			},
			{
				"x": 1.2649231049,
				"y": 1.0445340551,
				"z": -0.1502254646,
				"element": "C" 
			},
			{
				"x": 1.3459730471,
				"y": 1.950662803,
				"z": -1.2065911562,
				"element": "C" 
			},
			{
				"x": 1.2382923854,
				"y": 3.6714155256,
				"z": -0.8700159925,
				"element": "Cl" 
			},
			{
				"x": 1.5119358686,
				"y": 1.5324099216,
				"z": -2.5247088657,
				"element": "C" 
			},
			{
				"x": 1.5984420384,
				"y": 0.1604762311,
				"z": -2.7636690817,
				"element": "C" 
			},
			{
				"x": 1.81111387,
				"y": -0.397299589,
				"z": -4.4153325618,
				"element": "Cl" 
			},
			{
				"x": 1.5194054159,
				"y": -0.7735261193,
				"z": -1.7342341452,
				"element": "C" 
			},
			{
				"x": -2.8229545466,
				"y": -2.7837458134,
				"z": 1.3563922363,
				"element": "H" 
			},
			{
				"x": -2.1938741043,
				"y": -3.1564412832,
				"z": -0.2835830149,
				"element": "H" 
			},
			{
				"x": -1.6588930302,
				"y": -4.1276957809,
				"z": 1.1089554611,
				"element": "H" 
			},
			{
				"x": 2.2539390923,
				"y": -1.8275468847,
				"z": 0.8220559209,
				"element": "H" 
			},
			{
				"x": 0.086472211,
				"y": -0.6213297858,
				"z": 2.091192244,
				"element": "H" 
			},
			{
				"x": 1.1544562572,
				"y": 1.3877718103,
				"z": 0.8703509894,
				"element": "H" 
			},
			{
				"x": 1.5745242281,
				"y": 2.2465475359,
				"z": -3.3360762204,
				"element": "H" 
			},
			{
				"x": 1.5830439446,
				"y": -1.8337167456,
				"z": -1.9504350408,
				"element": "H" 
			}
		],
		 "valence_orbital": [ 
			{
				"type": "occ",
				"energy": -0.31632,
				"method": "rhf"
			},
			{
				"type": "occ",
				"energy": -0.31069,
				"method": "rhf"
			},
			{
				"type": "occ",
				"energy": -0.28153,
				"method": "rhf"
			},
			{
				"type": "occ",
				"energy": -0.26125,
				"method": "rhf"
			},
			{
				"type": "occ",
				"energy": -0.25298,
				"method": "rhf"
			},
			{
				"type": "unocc",
				"energy": -0.03268,
				"method": "rhf"
			},
			{
				"type": "unocc",
				"energy": -0.02638,
				"method": "rhf"
			},
			{
				"type": "unocc",
				"energy": -0.0062,
				"method": "rhf"
			},
			{
				"type": "unocc",
				"energy": 0.0085,
				"method": "rhf"
			},
			{
				"type": "unocc",
				"energy": 0.04858,
				"method": "rhf"
			}
		],
		"cosmo_sigma_profile": { 
			"-0.025": 0.0,
			"-0.024": 0.0,
			"-0.023": 0.0,
			"-0.022": 0.0,
			"-0.021": 0.0,
			"-0.02": 0.0,
			"-0.019": 0.0,
			"-0.018": 0.0,
			"-0.017": 0.0,
			"-0.016": 0.0,
			"-0.015": 0.0,
			"-0.014": 0.355791160735,
			"-0.013": 0.602387272471,
			"-0.012": 0.650336046502,
			"-0.011": 0.728073064264,
			"-0.01": 1.08613014912,
			"-0.009": 1.04186439227,
			"-0.008": 3.93392013937,
			"-0.007": 7.87314723286,
			"-0.006": 11.2489611816,
			"-0.005": 15.6172249734,
			"-0.004": 18.0604582005,
			"-0.003": 15.4472793382,
			"-0.002": 15.3368989884,
			"-0.001": 14.8354145298,
			"0.0": 21.3055626674,
			"0.001": 30.9293957233,
			"0.002": 23.3949345732,
			"0.003": 15.7870285196,
			"0.004": 22.6587947972,
			"0.005": 6.61598494569,
			"0.006": 2.12826355,
			"0.007": 2.02120857193,
			"0.008": 2.82341999455,
			"0.009": 2.03610281368,
			"0.01": 3.8384822053,
			"0.011": 4.81377218188,
			"0.012": 2.30999290126,
			"0.013": 0.464136550511,
			"0.014": 0.0,
			"0.015": 0.0,
			"0.016": 0.0,
			"0.017": 0.0,
			"0.018": 0.0,
			"0.019": 0.0,
			"0.02": 0.0,
			"0.021": 0.0,
			"0.022": 0.0,
			"0.023": 0.0,
			"0.024": 0.0,
			"0.025": 0.0
		}
	}
}
