{
	 "smiles": "OC(=O)C1CC1(Cl)Cl", 
	 "Tm": 348.15, 
	 "num_atms": 12, 
	 "gaussian": { 
		 "optdone": 1, 
		 "sigma_profile": "yes", 
		 "theory": "DFT", 
		 "functional": "B3LYP", 
		 "basiset": "6-31G**", 
		 "properties": { 
			 "R2extent": 1722.3262, 
			 "electric_dipole_moment_norm": 3.48563760164, 
			 "electric_quadrupole_moment_norm": 10.0453666548, 
			 "total_energy": -1225.63043823, 
			 "HOMO_LUMO_gap": 0.23882, 
			 "cosmo_polarized_energy": -11.55, 
			 "cosmo_cavitation_energy": 19.66, 
			 "cosmo_dispersion_energy": -14.77, 
			 "cosmo_repulsion_energy": 1.23, 
			 "cosmo_total_nonelectrostatic_energy": 6.11, 
			 "SMD_solvation_energy": 3.83 
		},
		"coords": [
			{
				"x": -1.1744024585,
				"y": -0.3530285296,
				"z": 0.7783776206,
				"element": "O" 
			},
			{
				"x": -1.1651582934,
				"y": 0.9657128858,
				"z": 0.4963221073,
				"element": "C" 
			},
			{
				"x": -2.0534363184,
				"y": 1.6878585173,
				"z": 0.8761337604,
				"element": "O" 
			},
			{
				"x": 0.0206970221,
				"y": 1.5533612151,
				"z": -0.2377417176,
				"element": "C" 
			},
			{
				"x": 1.4604839811,
				"y": 1.2800644181,
				"z": 0.218082638,
				"element": "C" 
			},
			{
				"x": 1.0181976059,
				"y": 0.8596965673,
				"z": -1.1375987106,
				"element": "C" 
			},
			{
				"x": 1.5972040382,
				"y": 1.7699993173,
				"z": -2.5449763809,
				"element": "Cl" 
			},
			{
				"x": 0.8891675128,
				"y": -0.8911669409,
				"z": -1.4978060638,
				"element": "Cl" 
			},
			{
				"x": -0.4978125202,
				"y": -0.8328977412,
				"z": 0.272469671,
				"element": "H" 
			},
			{
				"x": -0.1954272029,
				"y": 2.5745639022,
				"z": -0.5310818149,
				"element": "H" 
			},
			{
				"x": 1.6029699265,
				"y": 0.496762878,
				"z": 0.956753554,
				"element": "H" 
			},
			{
				"x": 2.1405167066,
				"y": 2.1210735105,
				"z": 0.3009653365,
				"element": "H" 
			}
		],
		 "valence_orbital": [ 
			{
				"type": "occ",
				"energy": -0.34375,
				"method": "rhf"
			},
			{
				"type": "occ",
				"energy": -0.33327,
				"method": "rhf"
			},
			{
				"type": "occ",
				"energy": -0.32365,
				"method": "rhf"
			},
			{
				"type": "occ",
				"energy": -0.31356,
				"method": "rhf"
			},
			{
				"type": "occ",
				"energy": -0.27847,
				"method": "rhf"
			},
			{
				"type": "unocc",
				"energy": -0.03965,
				"method": "rhf"
			},
			{
				"type": "unocc",
				"energy": -0.01462,
				"method": "rhf"
			},
			{
				"type": "unocc",
				"energy": -0.00697,
				"method": "rhf"
			},
			{
				"type": "unocc",
				"energy": 0.07384,
				"method": "rhf"
			},
			{
				"type": "unocc",
				"energy": 0.10431,
				"method": "rhf"
			}
		],
		"cosmo_sigma_profile": { 
			"-0.025": 0.0,
			"-0.024": 0.0,
			"-0.023": 0.0,
			"-0.022": 0.0,
			"-0.021": 0.0,
			"-0.02": 0.0,
			"-0.019": 0.0,
			"-0.018": 0.0,
			"-0.017": 0.0,
			"-0.016": 0.0,
			"-0.015": 0.00817358443248,
			"-0.014": 0.38124684262,
			"-0.013": 0.631857711188,
			"-0.012": 1.46655736147,
			"-0.011": 1.47605473295,
			"-0.01": 1.62146262211,
			"-0.009": 3.84709084221,
			"-0.008": 6.39186118687,
			"-0.007": 7.25431318488,
			"-0.006": 7.00829354606,
			"-0.005": 8.08671595877,
			"-0.004": 9.48093044609,
			"-0.003": 10.0487271008,
			"-0.002": 10.4982711386,
			"-0.001": 10.2310402634,
			"0.0": 8.6816481716,
			"0.001": 9.04947528654,
			"0.002": 13.5580861891,
			"0.003": 16.2334248051,
			"0.004": 6.69647424036,
			"0.005": 2.3340837874,
			"0.006": 1.45421101298,
			"0.007": 2.65298894585,
			"0.008": 3.43559671385,
			"0.009": 3.48701604999,
			"0.01": 5.02743369734,
			"0.011": 5.32410761082,
			"0.012": 4.28590538449,
			"0.013": 0.632002547135,
			"0.014": 0.0,
			"0.015": 0.0,
			"0.016": 0.0,
			"0.017": 0.0,
			"0.018": 0.0,
			"0.019": 0.0,
			"0.02": 0.0,
			"0.021": 0.0,
			"0.022": 0.0,
			"0.023": 0.0,
			"0.024": 0.0,
			"0.0": 0.0
		}
	}
}
