{
	 "smiles": "CN(N)C1=CC=C(Cl)C=C1[N+]([O-])=O", 
	 "Tm": 364.15, 
	 "num_atms": 21, 
	 "gaussian": { 
		 "optdone": 1, 
		 "sigma_profile": "yes", 
		 "theory": "DFT", 
		 "functional": "B3LYP", 
		 "basiset": "6-31G**", 
		 "properties": { 
			 "R2extent": 3143.5024, 
			 "electric_dipole_moment_norm": 5.51487379547, 
			 "electric_quadrupole_moment_norm": 8.99118822014, 
			 "total_energy": -1046.31017308, 
			 "HOMO_LUMO_gap": 0.1354, 
			 "cosmo_polarized_energy": -13.02, 
			 "cosmo_cavitation_energy": 26.96, 
			 "cosmo_dispersion_energy": -19.87, 
			 "cosmo_repulsion_energy": 1.58, 
			 "cosmo_total_nonelectrostatic_energy": 8.67, 
			 "SMD_solvation_energy": 7.11 
		},
		"coords": [
			{
				"x": 0.1191214133,
				"y": -1.2808597271,
				"z": -2.1401983067,
				"element": "C" 
			},
			{
				"x": 0.4810902421,
				"y": -1.4529625666,
				"z": -0.7427493242,
				"element": "N" 
			},
			{
				"x": 1.3980370976,
				"y": -2.4721976173,
				"z": -0.4332380815,
				"element": "N" 
			},
			{
				"x": 0.2119975879,
				"y": -0.5340103104,
				"z": 0.254332943,
				"element": "C" 
			},
			{
				"x": 1.1074394757,
				"y": -0.3879783787,
				"z": 1.342439571,
				"element": "C" 
			},
			{
				"x": 0.9526140432,
				"y": 0.6061992941,
				"z": 2.2914079076,
				"element": "C" 
			},
			{
				"x": -0.1105782959,
				"y": 1.514289692,
				"z": 2.1935027688,
				"element": "C" 
			},
			{
				"x": -0.2797129625,
				"y": 2.7959287563,
				"z": 3.3809808507,
				"element": "Cl" 
			},
			{
				"x": -1.0401515557,
				"y": 1.3798226518,
				"z": 1.1810967915,
				"element": "C" 
			},
			{
				"x": -0.9069849355,
				"y": 0.3398094201,
				"z": 0.2485808332,
				"element": "C" 
			},
			{
				"x": -2.0696174521,
				"y": 0.1397534951,
				"z": -0.6181978115,
				"element": "N" 
			},
			{
				"x": -2.7552565848,
				"y": 1.1255360722,
				"z": -0.8993974821,
				"element": "O" 
			},
			{
				"x": -2.3398857077,
				"y": -1.0129315656,
				"z": -0.9689331521,
				"element": "O" 
			},
			{
				"x": -0.7003774168,
				"y": -1.93886453,
				"z": -2.4481554532,
				"element": "H" 
			},
			{
				"x": 1.0036817106,
				"y": -1.4913863288,
				"z": -2.755014243,
				"element": "H" 
			},
			{
				"x": -0.1799888636,
				"y": -0.2485404718,
				"z": -2.3338450357,
				"element": "H" 
			},
			{
				"x": 0.947478862,
				"y": -3.3750053032,
				"z": -0.5744859586,
				"element": "H" 
			},
			{
				"x": 2.1991797729,
				"y": -2.4175337885,
				"z": -1.0622514444,
				"element": "H" 
			},
			{
				"x": 1.9403982122,
				"y": -1.0756419255,
				"z": 1.4021477263,
				"element": "H" 
			},
			{
				"x": 1.6679534422,
				"y": 0.6971372914,
				"z": 3.1017405686,
				"element": "H" 
			},
			{
				"x": -1.8999380849,
				"y": 2.0324358406,
				"z": 1.1066363321,
				"element": "H" 
			}
		],
		 "valence_orbital": [ 
			{
				"type": "occ",
				"energy": -0.29519,
				"method": "rhf"
			},
			{
				"type": "occ",
				"energy": -0.29199,
				"method": "rhf"
			},
			{
				"type": "occ",
				"energy": -0.28596,
				"method": "rhf"
			},
			{
				"type": "occ",
				"energy": -0.27067,
				"method": "rhf"
			},
			{
				"type": "occ",
				"energy": -0.21562,
				"method": "rhf"
			},
			{
				"type": "unocc",
				"energy": -0.08022,
				"method": "rhf"
			},
			{
				"type": "unocc",
				"energy": -0.01714,
				"method": "rhf"
			},
			{
				"type": "unocc",
				"energy": -0.00462,
				"method": "rhf"
			},
			{
				"type": "unocc",
				"energy": 0.02851,
				"method": "rhf"
			},
			{
				"type": "unocc",
				"energy": 0.05459,
				"method": "rhf"
			}
		],
		"cosmo_sigma_profile": { 
			"-0.025": 0.0,
			"-0.024": 0.0,
			"-0.023": 0.0,
			"-0.022": 0.0,
			"-0.021": 0.0,
			"-0.02": 0.0,
			"-0.019": 0.0,
			"-0.018": 0.0,
			"-0.017": 0.0,
			"-0.016": 0.0,
			"-0.015": 0.0,
			"-0.014": 0.0,
			"-0.013": 0.0172288585044,
			"-0.012": 2.28199440487,
			"-0.011": 4.22873979442,
			"-0.01": 3.85007196832,
			"-0.009": 3.29256597544,
			"-0.008": 4.33055519782,
			"-0.007": 7.15953376643,
			"-0.006": 9.10773036854,
			"-0.005": 10.6301131409,
			"-0.004": 13.167836852,
			"-0.003": 12.3398851404,
			"-0.002": 14.0679558499,
			"-0.001": 12.8645950193,
			"0.0": 13.4382402238,
			"0.001": 17.9193161732,
			"0.002": 20.5618433996,
			"0.003": 13.1334026276,
			"0.004": 12.8349355041,
			"0.005": 8.9528648743,
			"0.006": 4.54186331631,
			"0.007": 5.06206487894,
			"0.008": 9.70277933712,
			"0.009": 6.52295473242,
			"0.01": 4.89891958764,
			"0.011": 1.91891206617,
			"0.012": 0.0,
			"0.013": 0.0,
			"0.014": 0.0,
			"0.015": 0.0,
			"0.016": 0.0,
			"0.017": 0.0,
			"0.018": 0.0,
			"0.019": 0.0,
			"0.02": 0.0,
			"0.021": 0.0,
			"0.022": 0.0,
			"0.023": 0.0,
			"0.024": 0.0,
			"0.025": 0.0
		}
	}
}
