{
	 "smiles": "OC(=O)C1=C(SCC(=O)C2=CC=C(C=C2)C2=CC=CC=C2)C=CC=C1", 
	 "Tm": 463.15, 
	 "num_atms": 41, 
	 "gaussian": { 
		 "optdone": 1, 
		 "sigma_profile": "yes", 
		 "theory": "DFT", 
		 "functional": "B3LYP", 
		 "basiset": "6-31G**", 
		 "properties": { 
			 "R2extent": 11067.477, 
			 "electric_dipole_moment_norm": 3.82741754973, 
			 "electric_quadrupole_moment_norm": 21.7081902198, 
			 "total_energy": -1433.75146091, 
			 "HOMO_LUMO_gap": 0.1601, 
			 "cosmo_polarized_energy": -17.98, 
			 "cosmo_cavitation_energy": 46.84, 
			 "cosmo_dispersion_energy": -31.96, 
			 "cosmo_repulsion_energy": 2.36, 
			 "cosmo_total_nonelectrostatic_energy": 17.24, 
			 "SMD_solvation_energy": 8.66 
		},
		"coords": [
			{
				"x": -0.9886181379,
				"y": 4.2279955759,
				"z": 2.4431954483,
				"element": "O" 
			},
			{
				"x": -1.8015610626,
				"y": 3.1622016632,
				"z": 2.3325306793,
				"element": "C" 
			},
			{
				"x": -2.0984260731,
				"y": 2.5191739466,
				"z": 3.3167399506,
				"element": "O" 
			},
			{
				"x": -2.3444614859,
				"y": 2.7980187666,
				"z": 0.9654447642,
				"element": "C" 
			},
			{
				"x": -1.8117993362,
				"y": 3.1728511717,
				"z": -0.2895986364,
				"element": "C" 
			},
			{
				"x": -0.3749409922,
				"y": 4.2437350538,
				"z": -0.5044831122,
				"element": "S" 
			},
			{
				"x": 1.0296189117,
				"y": 3.1564882449,
				"z": 0.0119402438,
				"element": "C" 
			},
			{
				"x": 1.2349210519,
				"y": 1.9606868096,
				"z": -0.9260613748,
				"element": "C" 
			},
			{
				"x": 1.6173608241,
				"y": 2.1709933058,
				"z": -2.0672567695,
				"element": "O" 
			},
			{
				"x": 0.9878335985,
				"y": 0.5747031017,
				"z": -0.4338391484,
				"element": "C" 
			},
			{
				"x": 1.2977823546,
				"y": -0.4854479388,
				"z": -1.3053774638,
				"element": "C" 
			},
			{
				"x": 1.0981197946,
				"y": -1.8032250823,
				"z": -0.9230671539,
				"element": "C" 
			},
			{
				"x": 0.5726837318,
				"y": -2.1192323801,
				"z": 0.3455584861,
				"element": "C" 
			},
			{
				"x": 0.2589519316,
				"y": -1.0575404145,
				"z": 1.2109783947,
				"element": "C" 
			},
			{
				"x": 0.4662537775,
				"y": 0.2657951215,
				"z": 0.833154126,
				"element": "C" 
			},
			{
				"x": 0.3566668876,
				"y": -3.5285182828,
				"z": 0.7546039379,
				"element": "C" 
			},
			{
				"x": 0.5769252108,
				"y": -3.936520658,
				"z": 2.0817463747,
				"element": "C" 
			},
			{
				"x": 0.3743114827,
				"y": -5.2610687173,
				"z": 2.4652740179,
				"element": "C" 
			},
			{
				"x": -0.0549714628,
				"y": -6.2057987324,
				"z": 1.5310480878,
				"element": "C" 
			},
			{
				"x": -0.2788385773,
				"y": -5.815010155,
				"z": 0.2094227773,
				"element": "C" 
			},
			{
				"x": -0.0739537568,
				"y": -4.4910706433,
				"z": -0.1751231676,
				"element": "C" 
			},
			{
				"x": -2.4358480015,
				"y": 2.7396149532,
				"z": -1.4667584626,
				"element": "C" 
			},
			{
				"x": -3.5820683978,
				"y": 1.9472869928,
				"z": -1.4179722796,
				"element": "C" 
			},
			{
				"x": -4.1047465387,
				"y": 1.562275102,
				"z": -0.1836940258,
				"element": "C" 
			},
			{
				"x": -3.4819592969,
				"y": 1.9765429204,
				"z": 0.9897659803,
				"element": "C" 
			},
			{
				"x": -0.8221228207,
				"y": 4.6315819029,
				"z": 1.562455126,
				"element": "H" 
			},
			{
				"x": 0.9208709746,
				"y": 2.8993258646,
				"z": 1.064759496,
				"element": "H" 
			},
			{
				"x": 1.9025278852,
				"y": 3.8057118282,
				"z": -0.0987367911,
				"element": "H" 
			},
			{
				"x": 1.7072246019,
				"y": -0.2426436135,
				"z": -2.2800418268,
				"element": "H" 
			},
			{
				"x": 1.3746937186,
				"y": -2.6048177178,
				"z": -1.6009946146,
				"element": "H" 
			},
			{
				"x": -0.1778473874,
				"y": -1.267761635,
				"z": 2.1819462709,
				"element": "H" 
			},
			{
				"x": 0.1929194956,
				"y": 1.0455674979,
				"z": 1.5347435343,
				"element": "H" 
			},
			{
				"x": 0.9356090279,
				"y": -3.2159388373,
				"z": 2.8105460448,
				"element": "H" 
			},
			{
				"x": 0.5594347618,
				"y": -5.5569848997,
				"z": 3.4938605512,
				"element": "H" 
			},
			{
				"x": -0.2135729029,
				"y": -7.2376599832,
				"z": 1.8303726021,
				"element": "H" 
			},
			{
				"x": -0.6211521335,
				"y": -6.5406966654,
				"z": -0.5227887523,
				"element": "H" 
			},
			{
				"x": -0.2760761996,
				"y": -4.192722233,
				"z": -1.1994856767,
				"element": "H" 
			},
			{
				"x": -2.0073050769,
				"y": 3.0263578401,
				"z": -2.4212411313,
				"element": "H" 
			},
			{
				"x": -4.0543162468,
				"y": 1.6258316677,
				"z": -2.3414517165,
				"element": "H" 
			},
			{
				"x": -4.991579753,
				"y": 0.9379472046,
				"z": -0.133500017,
				"element": "H" 
			},
			{
				"x": -3.8612443823,
				"y": 1.6774720537,
				"z": 1.9603852269,
				"element": "H" 
			}
		],
		 "valence_orbital": [ 
			{
				"type": "occ",
				"energy": -0.2675,
				"method": "rhf"
			},
			{
				"type": "occ",
				"energy": -0.26533,
				"method": "rhf"
			},
			{
				"type": "occ",
				"energy": -0.25953,
				"method": "rhf"
			},
			{
				"type": "occ",
				"energy": -0.25034,
				"method": "rhf"
			},
			{
				"type": "occ",
				"energy": -0.23688,
				"method": "rhf"
			},
			{
				"type": "unocc",
				"energy": -0.07678,
				"method": "rhf"
			},
			{
				"type": "unocc",
				"energy": -0.06103,
				"method": "rhf"
			},
			{
				"type": "unocc",
				"energy": -0.0313,
				"method": "rhf"
			},
			{
				"type": "unocc",
				"energy": -0.01816,
				"method": "rhf"
			},
			{
				"type": "unocc",
				"energy": -0.014,
				"method": "rhf"
			}
		],
		"cosmo_sigma_profile": { 
			"-0.025": 0.166036873251,
			"-0.024": 0.0865879629437,
			"-0.023": 0.0407810540326,
			"-0.022": 0.0831702777057,
			"-0.021": 0.018176775153,
			"-0.02": 0.00458442493718,
			"-0.019": 0.00271010197644,
			"-0.018": 0.0,
			"-0.017": 0.00964216365733,
			"-0.016": 0.0362915909626,
			"-0.015": 0.00164489538003,
			"-0.014": 0.0894395503584,
			"-0.013": 0.0584600480083,
			"-0.012": 0.0974511711398,
			"-0.011": 0.297028600071,
			"-0.01": 0.885478089072,
			"-0.009": 3.0156775184,
			"-0.008": 4.44688665728,
			"-0.007": 12.1946614485,
			"-0.006": 27.5800940071,
			"-0.005": 33.23474785,
			"-0.004": 28.6124126187,
			"-0.003": 24.9341811555,
			"-0.002": 21.4368431349,
			"-0.001": 24.3890884067,
			"0.0": 23.5660374939,
			"0.001": 29.6677848816,
			"0.002": 35.076596086,
			"0.003": 32.4869756162,
			"0.004": 16.4818817876,
			"0.005": 14.5371466911,
			"0.006": 5.96980034753,
			"0.007": 4.3136912947,
			"0.008": 4.81615897141,
			"0.009": 4.76063000605,
			"0.01": 6.48904793247,
			"0.011": 8.13871495298,
			"0.012": 7.99689227268,
			"0.013": 2.22107361302,
			"0.014": 0.107908649198,
			"0.015": 0.0,
			"0.016": 0.0,
			"0.017": 0.0,
			"0.018": 0.0,
			"0.019": 0.0,
			"0.02": 0.0,
			"0.021": 0.0,
			"0.022": 0.0,
			"0.023": 0.0,
			"0.024": 0.0,
			"0.025": 0.0
		}
	}
}
