{
	 "smiles": "CCN(CC)C(=O)C1=C(Cl)C=C(N)C=C1", 
	 "Tm": 428.15, 
	 "num_atms": 30, 
	 "gaussian": { 
		 "optdone": 1, 
		 "sigma_profile": "yes", 
		 "theory": "DFT", 
		 "functional": "B3LYP", 
		 "basiset": "6-31G**", 
		 "properties": { 
			 "R2extent": 5018.3409, 
			 "electric_dipole_moment_norm": 3.82942581205, 
			 "electric_quadrupole_moment_norm": 23.9936935779, 
			 "total_energy": -1073.1515035, 
			 "HOMO_LUMO_gap": 0.19889, 
			 "cosmo_polarized_energy": -15.9, 
			 "cosmo_cavitation_energy": 34.2, 
			 "cosmo_dispersion_energy": -23.63, 
			 "cosmo_repulsion_energy": 1.88, 
			 "cosmo_total_nonelectrostatic_energy": 12.45, 
			 "SMD_solvation_energy": 5.93 
		},
		"coords": [
			{
				"x": -1.9553417127,
				"y": -0.5987714797,
				"z": 0.5625421426,
				"element": "C" 
			},
			{
				"x": -0.6916820139,
				"y": -0.3200160934,
				"z": 1.3838377681,
				"element": "C" 
			},
			{
				"x": 0.287078863,
				"y": -1.4064004287,
				"z": 1.3505843051,
				"element": "N" 
			},
			{
				"x": -0.0621806793,
				"y": -2.6790507842,
				"z": 1.9988120283,
				"element": "C" 
			},
			{
				"x": -0.4650914773,
				"y": -3.7929083184,
				"z": 1.0268352952,
				"element": "C" 
			},
			{
				"x": 1.5306880499,
				"y": -1.3252898924,
				"z": 0.783080042,
				"element": "C" 
			},
			{
				"x": 2.2780763623,
				"y": -2.3006981832,
				"z": 0.7183758285,
				"element": "O" 
			},
			{
				"x": 1.9800402089,
				"y": -0.01175769,
				"z": 0.1832794234,
				"element": "C" 
			},
			{
				"x": 2.3698803456,
				"y": 1.1116218808,
				"z": 0.9217199876,
				"element": "C" 
			},
			{
				"x": 2.2331195874,
				"y": 1.1102936874,
				"z": 2.6807576723,
				"element": "Cl" 
			},
			{
				"x": 2.8951721965,
				"y": 2.2526242142,
				"z": 0.3219205022,
				"element": "C" 
			},
			{
				"x": 3.0529448654,
				"y": 2.3039553823,
				"z": -1.0724142115,
				"element": "C" 
			},
			{
				"x": 3.5189330939,
				"y": 3.4607082939,
				"z": -1.6894734144,
				"element": "N" 
			},
			{
				"x": 2.6839408413,
				"y": 1.1780338187,
				"z": -1.8307912686,
				"element": "C" 
			},
			{
				"x": 2.1753385564,
				"y": 0.0486019408,
				"z": -1.2052078804,
				"element": "C" 
			},
			{
				"x": -2.5027876184,
				"y": -1.4690298567,
				"z": 0.936545594,
				"element": "H" 
			},
			{
				"x": -2.6283794694,
				"y": 0.2637479097,
				"z": 0.6136984149,
				"element": "H" 
			},
			{
				"x": -1.7056129415,
				"y": -0.777673762,
				"z": -0.4878534357,
				"element": "H" 
			},
			{
				"x": -0.2107162597,
				"y": 0.5825089401,
				"z": 1.0078723584,
				"element": "H" 
			},
			{
				"x": -0.9624934175,
				"y": -0.1233472877,
				"z": 2.4295898225,
				"element": "H" 
			},
			{
				"x": -0.8734413047,
				"y": -2.469835106,
				"z": 2.7042583585,
				"element": "H" 
			},
			{
				"x": 0.8081839185,
				"y": -3.005726636,
				"z": 2.57512786,
				"element": "H" 
			},
			{
				"x": 0.364695973,
				"y": -4.0111744109,
				"z": 0.3518187478,
				"element": "H" 
			},
			{
				"x": -1.3414467765,
				"y": -3.5177209652,
				"z": 0.432591127,
				"element": "H" 
			},
			{
				"x": -0.7049229251,
				"y": -4.7051322891,
				"z": 1.5841460587,
				"element": "H" 
			},
			{
				"x": 3.1855802728,
				"y": 3.0968459455,
				"z": 0.938682137,
				"element": "H" 
			},
			{
				"x": 3.9300191802,
				"y": 3.3309495587,
				"z": -2.6032242614,
				"element": "H" 
			},
			{
				"x": 4.0661195663,
				"y": 4.0788973523,
				"z": -1.1070389668,
				"element": "H" 
			},
			{
				"x": 2.8070269236,
				"y": 1.1923972915,
				"z": -2.9103398699,
				"element": "H" 
			},
			{
				"x": 1.924657791,
				"y": -0.8251530324,
				"z": -1.7990321652,
				"element": "H" 
			}
		],
		 "valence_orbital": [ 
			{
				"type": "occ",
				"energy": -0.3063,
				"method": "rhf"
			},
			{
				"type": "occ",
				"energy": -0.24966,
				"method": "rhf"
			},
			{
				"type": "occ",
				"energy": -0.24383,
				"method": "rhf"
			},
			{
				"type": "occ",
				"energy": -0.23015,
				"method": "rhf"
			},
			{
				"type": "occ",
				"energy": -0.21039,
				"method": "rhf"
			},
			{
				"type": "unocc",
				"energy": -0.0115,
				"method": "rhf"
			},
			{
				"type": "unocc",
				"energy": -0.00453,
				"method": "rhf"
			},
			{
				"type": "unocc",
				"energy": 0.02996,
				"method": "rhf"
			},
			{
				"type": "unocc",
				"energy": 0.04062,
				"method": "rhf"
			},
			{
				"type": "unocc",
				"energy": 0.07207,
				"method": "rhf"
			}
		],
		"cosmo_sigma_profile": { 
			"-0.025": 0.0,
			"-0.024": 0.0,
			"-0.023": 0.0,
			"-0.022": 0.0,
			"-0.021": 0.0,
			"-0.02": 0.0,
			"-0.019": 0.0,
			"-0.018": 0.0,
			"-0.017": 0.0,
			"-0.016": 0.0,
			"-0.015": 0.0,
			"-0.014": 0.0150824758797,
			"-0.013": 1.68271129052,
			"-0.012": 3.39022293287,
			"-0.011": 3.1293571459,
			"-0.01": 3.75634331547,
			"-0.009": 3.00683895558,
			"-0.008": 2.92255402949,
			"-0.007": 4.56223493692,
			"-0.006": 5.90110360854,
			"-0.005": 9.95267913785,
			"-0.004": 18.5442742775,
			"-0.003": 23.6110198661,
			"-0.002": 27.8005167754,
			"-0.001": 24.9654540517,
			"0.0": 23.600721359,
			"0.001": 21.3671054131,
			"0.002": 18.3655757768,
			"0.003": 17.2037500579,
			"0.004": 20.6099219895,
			"0.005": 9.83185191606,
			"0.006": 3.20527403002,
			"0.007": 2.77142349407,
			"0.008": 2.21079909975,
			"0.009": 2.25664090651,
			"0.01": 2.34348375461,
			"0.011": 2.46579018211,
			"0.012": 2.51056423748,
			"0.013": 2.84840390855,
			"0.014": 4.44156368835,
			"0.015": 1.73601099622,
			"0.016": 0.110656130182,
			"0.017": 0.0,
			"0.018": 0.0,
			"0.019": 0.0,
			"0.02": 0.0,
			"0.021": 0.0,
			"0.022": 0.0,
			"0.023": 0.0,
			"0.024": 0.0,
			"0.025": 0.0
		}
	}
}
