{
	 "smiles": "CC1=CC(C)=C(C=C1C)N(=O)=O", 
	 "Tm": 344.15, 
	 "num_atms": 23, 
	 "gaussian": { 
		 "optdone": 1, 
		 "sigma_profile": "yes", 
		 "theory": "DFT", 
		 "functional": "B3LYP", 
		 "basiset": "6-31G**", 
		 "properties": { 
			 "R2extent": 2476.0146, 
			 "electric_dipole_moment_norm": 5.14415649937, 
			 "electric_quadrupole_moment_norm": 13.7485109721, 
			 "total_energy": -554.707107657, 
			 "HOMO_LUMO_gap": 0.17383, 
			 "cosmo_polarized_energy": -8.06, 
			 "cosmo_cavitation_energy": 26.34, 
			 "cosmo_dispersion_energy": -19.24, 
			 "cosmo_repulsion_energy": 1.52, 
			 "cosmo_total_nonelectrostatic_energy": 8.62, 
			 "SMD_solvation_energy": 6.67 
		},
		"coords": [
			{
				"x": 2.6529450928,
				"y": -1.6030018409,
				"z": -0.0270100322,
				"element": "C" 
			},
			{
				"x": 1.2339649965,
				"y": -1.1151450562,
				"z": -0.1771476207,
				"element": "C" 
			},
			{
				"x": 0.9820905647,
				"y": 0.1712857417,
				"z": -0.6595759937,
				"element": "C" 
			},
			{
				"x": -0.3025083392,
				"y": 0.7070756918,
				"z": -0.8315545971,
				"element": "C" 
			},
			{
				"x": -0.4331654783,
				"y": 2.1135378992,
				"z": -1.3626223559,
				"element": "C" 
			},
			{
				"x": -1.3646272071,
				"y": -0.147230075,
				"z": -0.480700077,
				"element": "C" 
			},
			{
				"x": -1.1429136118,
				"y": -1.4395806156,
				"z": 0.0049737597,
				"element": "C" 
			},
			{
				"x": 0.1430217665,
				"y": -1.9446148875,
				"z": 0.1649609692,
				"element": "C" 
			},
			{
				"x": 0.3540591999,
				"y": -3.3433268459,
				"z": 0.6909818295,
				"element": "C" 
			},
			{
				"x": -2.7719693919,
				"y": 0.2651124976,
				"z": -0.6026961345,
				"element": "N" 
			},
			{
				"x": -3.0190634473,
				"y": 1.3945425663,
				"z": -1.030755769,
				"element": "O" 
			},
			{
				"x": -3.6405702847,
				"y": -0.5432962157,
				"z": -0.2692160967,
				"element": "O" 
			},
			{
				"x": 3.3710777351,
				"y": -0.8393094411,
				"z": -0.3347552911,
				"element": "H" 
			},
			{
				"x": 2.8336941122,
				"y": -2.4995909882,
				"z": -0.6318990463,
				"element": "H" 
			},
			{
				"x": 2.8743772952,
				"y": -1.8755076566,
				"z": 1.0118037984,
				"element": "H" 
			},
			{
				"x": 1.8297561722,
				"y": 0.8002413692,
				"z": -0.9193160858,
				"element": "H" 
			},
			{
				"x": -1.0037639062,
				"y": 2.1414807188,
				"z": -2.2942098646,
				"element": "H" 
			},
			{
				"x": 0.5612110293,
				"y": 2.5306071363,
				"z": -1.5433497305,
				"element": "H" 
			},
			{
				"x": -0.967164087,
				"y": 2.7611314163,
				"z": -0.6628577792,
				"element": "H" 
			},
			{
				"x": -2.0077201186,
				"y": -2.041352886,
				"z": 0.2551669315,
				"element": "H" 
			},
			{
				"x": -0.6001908042,
				"y": -3.8323467403,
				"z": 0.900363375,
				"element": "H" 
			},
			{
				"x": 0.9405111957,
				"y": -3.3419318104,
				"z": 1.6175795738,
				"element": "H" 
			},
			{
				"x": 0.8997475162,
				"y": -3.9666799778,
				"z": -0.0274637627,
				"element": "H" 
			}
		],
		 "valence_orbital": [ 
			{
				"type": "occ",
				"energy": -0.29957,
				"method": "rhf"
			},
			{
				"type": "occ",
				"energy": -0.29646,
				"method": "rhf"
			},
			{
				"type": "occ",
				"energy": -0.27843,
				"method": "rhf"
			},
			{
				"type": "occ",
				"energy": -0.26521,
				"method": "rhf"
			},
			{
				"type": "occ",
				"energy": -0.25274,
				"method": "rhf"
			},
			{
				"type": "unocc",
				"energy": -0.07891,
				"method": "rhf"
			},
			{
				"type": "unocc",
				"energy": -0.01392,
				"method": "rhf"
			},
			{
				"type": "unocc",
				"energy": 0.0067,
				"method": "rhf"
			},
			{
				"type": "unocc",
				"energy": 0.08047,
				"method": "rhf"
			},
			{
				"type": "unocc",
				"energy": 0.09785,
				"method": "rhf"
			}
		],
		"cosmo_sigma_profile": { 
			"-0.025": 0.0,
			"-0.024": 0.0,
			"-0.023": 0.0,
			"-0.022": 0.0,
			"-0.021": 0.0,
			"-0.02": 0.0,
			"-0.019": 0.0,
			"-0.018": 0.0,
			"-0.017": 0.0,
			"-0.016": 0.0,
			"-0.015": 0.0,
			"-0.014": 0.0,
			"-0.013": 0.0,
			"-0.012": 0.0,
			"-0.011": 0.0,
			"-0.01": 0.0,
			"-0.009": 0.0,
			"-0.008": 0.0,
			"-0.007": 0.201307383645,
			"-0.006": 5.41002630945,
			"-0.005": 14.3861347625,
			"-0.004": 21.3811171525,
			"-0.003": 21.2909579364,
			"-0.002": 22.0434449462,
			"-0.001": 24.8031209228,
			"0.0": 28.1566342078,
			"0.001": 13.8309085997,
			"0.002": 11.5741493047,
			"0.003": 11.9938623773,
			"0.004": 3.59275443354,
			"0.005": 3.18497040437,
			"0.006": 2.82860580426,
			"0.007": 4.70792048212,
			"0.008": 7.29997492417,
			"0.009": 5.44200400982,
			"0.01": 4.07910387448,
			"0.011": 1.88550575028,
			"0.012": 0.0,
			"0.013": 0.0,
			"0.014": 0.0,
			"0.015": 0.0,
			"0.016": 0.0,
			"0.017": 0.0,
			"0.018": 0.0,
			"0.019": 0.0,
			"0.02": 0.0,
			"0.021": 0.0,
			"0.022": 0.0,
			"0.023": 0.0,
			"0.024": 0.0,
			"0.025": 0.0
		}
	}
}
