{
	 "smiles": "C(CN=CC1=CC2=C(OCO2)C=C1)N=CC1=CC2=C(OCO2)C=C1", 
	 "Tm": 451.15, 
	 "num_atms": 40, 
	 "gaussian": { 
		 "optdone": 1, 
		 "sigma_profile": "yes", 
		 "theory": "DFT", 
		 "functional": "B3LYP", 
		 "basiset": "6-31G**", 
		 "properties": { 
			 "R2extent": 12180.4482, 
			 "electric_dipole_moment_norm": 2.07523580588, 
			 "electric_quadrupole_moment_norm": 7.12083034133, 
			 "total_energy": -1105.87999813, 
			 "HOMO_LUMO_gap": 0.16611, 
			 "cosmo_polarized_energy": -13.81, 
			 "cosmo_cavitation_energy": 45.81, 
			 "cosmo_dispersion_energy": -32.46, 
			 "cosmo_repulsion_energy": 2.52, 
			 "cosmo_total_nonelectrostatic_energy": 15.87, 
			 "SMD_solvation_energy": 4.97 
		},
		"coords": [
			{
				"x": -0.7363495679,
				"y": 0.6059424154,
				"z": 2.9731855441,
				"element": "C" 
			},
			{
				"x": -2.121701404,
				"y": 0.0844391913,
				"z": 2.5516237629,
				"element": "C" 
			},
			{
				"x": -2.4198847512,
				"y": 0.4642112862,
				"z": 1.1845366803,
				"element": "N" 
			},
			{
				"x": -2.5810132424,
				"y": -0.4635844428,
				"z": 0.324670839,
				"element": "C" 
			},
			{
				"x": -2.8757971549,
				"y": -0.2037693494,
				"z": -1.0939789676,
				"element": "C" 
			},
			{
				"x": -3.0328627245,
				"y": -1.3055932329,
				"z": -1.9672100007,
				"element": "C" 
			},
			{
				"x": -3.3091634197,
				"y": -1.0299339879,
				"z": -3.2891575918,
				"element": "C" 
			},
			{
				"x": -3.432024186,
				"y": 0.27515396,
				"z": -3.7591764138,
				"element": "C" 
			},
			{
				"x": -3.7066183691,
				"y": 0.2620252579,
				"z": -5.10256283,
				"element": "O" 
			},
			{
				"x": -3.7625192936,
				"y": -1.1194455319,
				"z": -5.4846706877,
				"element": "C" 
			},
			{
				"x": -3.5025403972,
				"y": -1.9155464902,
				"z": -4.3236299052,
				"element": "O" 
			},
			{
				"x": -3.2833878268,
				"y": 1.3701888353,
				"z": -2.9248309194,
				"element": "C" 
			},
			{
				"x": -3.0020235821,
				"y": 1.1076490025,
				"z": -1.5780621725,
				"element": "C" 
			},
			{
				"x": 0.3165158073,
				"y": -0.1345021537,
				"z": 2.3057657665,
				"element": "N" 
			},
			{
				"x": 1.0929484321,
				"y": 0.5011751024,
				"z": 1.5183789434,
				"element": "C" 
			},
			{
				"x": 2.1864985303,
				"y": -0.1464276678,
				"z": 0.7791996165,
				"element": "C" 
			},
			{
				"x": 2.422039567,
				"y": -1.5363302529,
				"z": 0.9221401702,
				"element": "C" 
			},
			{
				"x": 3.4626074923,
				"y": -2.0691023525,
				"z": 0.1997592198,
				"element": "C" 
			},
			{
				"x": 4.2620517899,
				"y": -1.2903111318,
				"z": -0.6417568049,
				"element": "C" 
			},
			{
				"x": 5.2164782103,
				"y": -2.0750837767,
				"z": -1.2331970156,
				"element": "O" 
			},
			{
				"x": 5.0077999595,
				"y": -3.4039921244,
				"z": -0.7341373773,
				"element": "C" 
			},
			{
				"x": 3.8935351815,
				"y": -3.374513117,
				"z": 0.1615318627,
				"element": "O" 
			},
			{
				"x": 4.0529120435,
				"y": 0.0656718699,
				"z": -0.7980190313,
				"element": "C" 
			},
			{
				"x": 2.9925888186,
				"y": 0.6265865053,
				"z": -0.0660804852,
				"element": "C" 
			},
			{
				"x": -0.6886933741,
				"y": 1.690329596,
				"z": 2.7790049307,
				"element": "H" 
			},
			{
				"x": -0.6327865436,
				"y": 0.4482872719,
				"z": 4.0548929328,
				"element": "H" 
			},
			{
				"x": -2.8699181743,
				"y": 0.5496078797,
				"z": 3.2069507415,
				"element": "H" 
			},
			{
				"x": -2.1563623526,
				"y": -1.0059819329,
				"z": 2.7119920834,
				"element": "H" 
			},
			{
				"x": -2.5117153182,
				"y": -1.5284309178,
				"z": 0.6032875219,
				"element": "H" 
			},
			{
				"x": -2.9377381287,
				"y": -2.3261978984,
				"z": -1.6111773862,
				"element": "H" 
			},
			{
				"x": -4.7628546796,
				"y": -1.3497398404,
				"z": -5.8722351499,
				"element": "H" 
			},
			{
				"x": -2.9974976043,
				"y": -1.3178764361,
				"z": -6.2454834928,
				"element": "H" 
			},
			{
				"x": -3.3821622315,
				"y": 2.3815215349,
				"z": -3.3029156596,
				"element": "H" 
			},
			{
				"x": -2.8754633819,
				"y": 1.9228266145,
				"z": -0.8744674933,
				"element": "H" 
			},
			{
				"x": 0.9880652429,
				"y": 1.5856830378,
				"z": 1.3500571171,
				"element": "H" 
			},
			{
				"x": 1.7959734812,
				"y": -2.1287642441,
				"z": 1.577993038,
				"element": "H" 
			},
			{
				"x": 4.7891444498,
				"y": -4.0765690006,
				"z": -1.5727056075,
				"element": "H" 
			},
			{
				"x": 5.9049489319,
				"y": -3.7349427091,
				"z": -0.1961844943,
				"element": "H" 
			},
			{
				"x": 4.6776725727,
				"y": 0.661689246,
				"z": -1.4531984657,
				"element": "H" 
			},
			{
				"x": 2.7910971976,
				"y": 1.6900499842,
				"z": -0.1594328185,
				"element": "H" 
			}
		],
		 "valence_orbital": [ 
			{
				"type": "occ",
				"energy": -0.24569,
				"method": "rhf"
			},
			{
				"type": "occ",
				"energy": -0.24406,
				"method": "rhf"
			},
			{
				"type": "occ",
				"energy": -0.24164,
				"method": "rhf"
			},
			{
				"type": "occ",
				"energy": -0.20609,
				"method": "rhf"
			},
			{
				"type": "occ",
				"energy": -0.20288,
				"method": "rhf"
			},
			{
				"type": "unocc",
				"energy": -0.03677,
				"method": "rhf"
			},
			{
				"type": "unocc",
				"energy": -0.03132,
				"method": "rhf"
			},
			{
				"type": "unocc",
				"energy": 0.0017,
				"method": "rhf"
			},
			{
				"type": "unocc",
				"energy": 0.00377,
				"method": "rhf"
			},
			{
				"type": "unocc",
				"energy": 0.06209,
				"method": "rhf"
			}
		],
		"cosmo_sigma_profile": { 
			"-0.025": 0.0,
			"-0.024": 0.0,
			"-0.023": 0.0,
			"-0.022": 0.0,
			"-0.021": 0.0,
			"-0.02": 0.0,
			"-0.019": 0.0,
			"-0.018": 0.0,
			"-0.017": 0.0,
			"-0.016": 0.0,
			"-0.015": 0.0,
			"-0.014": 0.0,
			"-0.013": 0.0,
			"-0.012": 0.0,
			"-0.011": 0.0,
			"-0.01": 0.0,
			"-0.009": 0.0,
			"-0.008": 6.62840077436,
			"-0.007": 22.2983317878,
			"-0.006": 24.2567109608,
			"-0.005": 21.7148090626,
			"-0.004": 26.7743859671,
			"-0.003": 24.8227977303,
			"-0.002": 23.4473994669,
			"-0.001": 23.3852912747,
			"0.0": 21.675780923,
			"0.001": 21.2127812286,
			"0.002": 31.8733853524,
			"0.003": 32.155961898,
			"0.004": 29.5846699796,
			"0.005": 12.5699205266,
			"0.006": 9.02003090529,
			"0.007": 9.95891525764,
			"0.008": 8.56629785712,
			"0.009": 8.92134712734,
			"0.01": 3.77891348348,
			"0.011": 1.97751612122,
			"0.012": 0.717782309907,
			"0.013": 0.816776764658,
			"0.014": 0.149102296729,
			"0.015": 0.0,
			"0.016": 0.0,
			"0.017": 0.0,
			"0.018": 0.0,
			"0.019": 0.0,
			"0.02": 0.0,
			"0.021": 0.0,
			"0.022": 0.0,
			"0.023": 0.0,
			"0.024": 0.0,
			"0.025": 0.0
		}
	}
}
