{
	 "smiles": "COC1=CC=C(Cl)N=N1", 
	 "Tm": 364.15, 
	 "num_atms": 14, 
	 "gaussian": { 
		 "optdone": 1, 
		 "sigma_profile": "yes", 
		 "theory": "DFT", 
		 "functional": "B3LYP", 
		 "basiset": "6-31G**", 
		 "properties": { 
			 "R2extent": 1706.46, 
			 "electric_dipole_moment_norm": 3.56307742969, 
			 "electric_quadrupole_moment_norm": 5.35384742498, 
			 "total_energy": -838.413060954, 
			 "HOMO_LUMO_gap": 0.18769, 
			 "cosmo_polarized_energy": -9.52, 
			 "cosmo_cavitation_energy": 20.49, 
			 "cosmo_dispersion_energy": -15.65, 
			 "cosmo_repulsion_energy": 1.29, 
			 "cosmo_total_nonelectrostatic_energy": 6.14, 
			 "SMD_solvation_energy": 2.8 
		},
		"coords": [
			{
				"x": 2.3340662421,
				"y": 0.8474869551,
				"z": -2.308311279,
				"element": "C" 
			},
			{
				"x": 2.1421212207,
				"y": -0.4308519824,
				"z": -1.6822400424,
				"element": "O" 
			},
			{
				"x": 1.0993207709,
				"y": -0.5543891386,
				"z": -0.8453172304,
				"element": "C" 
			},
			{
				"x": 0.9122050749,
				"y": -1.8128309815,
				"z": -0.2302689057,
				"element": "C" 
			},
			{
				"x": -0.156143351,
				"y": -1.930411785,
				"z": 0.6238183189,
				"element": "C" 
			},
			{
				"x": -0.9545573933,
				"y": -0.7818134434,
				"z": 0.7971811837,
				"element": "C" 
			},
			{
				"x": -2.3363734106,
				"y": -0.860699395,
				"z": 1.8742990339,
				"element": "Cl" 
			},
			{
				"x": -0.7391279919,
				"y": 0.3703875749,
				"z": 0.2006460522,
				"element": "N" 
			},
			{
				"x": 0.3045209818,
				"y": 0.4890201604,
				"z": -0.6351183539,
				"element": "N" 
			},
			{
				"x": 2.4940015252,
				"y": 1.627806771,
				"z": -1.5597996963,
				"element": "H" 
			},
			{
				"x": 1.4663388131,
				"y": 1.1182087664,
				"z": -2.9153531856,
				"element": "H" 
			},
			{
				"x": 3.2187732963,
				"y": 0.7274730252,
				"z": -2.9338867904,
				"element": "H" 
			},
			{
				"x": 1.5938066164,
				"y": -2.6296670541,
				"z": -0.4397814492,
				"element": "H" 
			},
			{
				"x": -0.3858523946,
				"y": -2.8526194728,
				"z": 1.1447323441,
				"element": "H" 
			}
		],
		 "valence_orbital": [ 
			{
				"type": "occ",
				"energy": -0.33458,
				"method": "rhf"
			},
			{
				"type": "occ",
				"energy": -0.31922,
				"method": "rhf"
			},
			{
				"type": "occ",
				"energy": -0.31165,
				"method": "rhf"
			},
			{
				"type": "occ",
				"energy": -0.25458,
				"method": "rhf"
			},
			{
				"type": "occ",
				"energy": -0.2494,
				"method": "rhf"
			},
			{
				"type": "unocc",
				"energy": -0.06171,
				"method": "rhf"
			},
			{
				"type": "unocc",
				"energy": -0.02227,
				"method": "rhf"
			},
			{
				"type": "unocc",
				"energy": 0.02613,
				"method": "rhf"
			},
			{
				"type": "unocc",
				"energy": 0.09583,
				"method": "rhf"
			},
			{
				"type": "unocc",
				"energy": 0.114,
				"method": "rhf"
			}
		],
		"cosmo_sigma_profile": { 
			"-0.025": 0.0,
			"-0.024": 0.0,
			"-0.023": 0.0,
			"-0.022": 0.0,
			"-0.021": 0.0,
			"-0.02": 0.0,
			"-0.019": 0.0,
			"-0.018": 0.0,
			"-0.017": 0.0,
			"-0.016": 0.0,
			"-0.015": 0.0,
			"-0.014": 0.0,
			"-0.013": 0.0,
			"-0.012": 0.0,
			"-0.011": 0.0,
			"-0.01": 1.11064706444,
			"-0.009": 4.47474119055,
			"-0.008": 3.56970348045,
			"-0.007": 4.89779473844,
			"-0.006": 6.59254522144,
			"-0.005": 9.50517542021,
			"-0.004": 11.5290841399,
			"-0.003": 17.3822819295,
			"-0.002": 18.4561132424,
			"-0.001": 13.6967254575,
			"0.0": 9.32205043087,
			"0.001": 8.36943218573,
			"0.002": 7.74448443084,
			"0.003": 10.6092462368,
			"0.004": 10.8476888443,
			"0.005": 4.82603842458,
			"0.006": 3.7416181603,
			"0.007": 3.51725597907,
			"0.008": 3.74649529024,
			"0.009": 2.4351228179,
			"0.01": 1.80275784047,
			"0.011": 2.37235204039,
			"0.012": 2.92242123243,
			"0.013": 2.00527912934,
			"0.014": 1.28278304717,
			"0.015": 0.194117048711,
			"0.016": 0.0,
			"0.017": 0.0,
			"0.018": 0.0,
			"0.019": 0.0,
			"0.02": 0.0,
			"0.021": 0.0,
			"0.022": 0.0,
			"0.023": 0.0,
			"0.024": 0.0,
			"0.025": 0.0
		}
	}
}
