{
	 "smiles": "ClCC1=C2C=CC=CC2=CC2=CC=CC=C12", 
	 "Tm": 413.15, 
	 "num_atms": 27, 
	 "gaussian": { 
		 "optdone": 1, 
		 "sigma_profile": "yes", 
		 "theory": "DFT", 
		 "functional": "B3LYP", 
		 "basiset": "6-31G**", 
		 "properties": { 
			 "R2extent": 4076.7958, 
			 "electric_dipole_moment_norm": 2.53923649352, 
			 "electric_quadrupole_moment_norm": 13.1392619641, 
			 "total_energy": -1038.43727211, 
			 "HOMO_LUMO_gap": 0.12618, 
			 "cosmo_polarized_energy": -8.34, 
			 "cosmo_cavitation_energy": 31.47, 
			 "cosmo_dispersion_energy": -23.22, 
			 "cosmo_repulsion_energy": 1.75, 
			 "cosmo_total_nonelectrostatic_energy": 10.0, 
			 "SMD_solvation_energy": 4.32 
		},
		"coords": [
			{
				"x": 2.7681079213,
				"y": 0.9316695282,
				"z": 1.7969230736,
				"element": "Cl" 
			},
			{
				"x": 1.8526839366,
				"y": -0.3697861598,
				"z": 0.8584183276,
				"element": "C" 
			},
			{
				"x": 0.4621981457,
				"y": 0.0344843439,
				"z": 0.4783800349,
				"element": "C" 
			},
			{
				"x": 0.2298469505,
				"y": 0.6780797481,
				"z": -0.7626978969,
				"element": "C" 
			},
			{
				"x": 1.2819239152,
				"y": 1.0720721677,
				"z": -1.6517453677,
				"element": "C" 
			},
			{
				"x": 1.013747541,
				"y": 1.6784029905,
				"z": -2.8519762399,
				"element": "C" 
			},
			{
				"x": -0.3260857825,
				"y": 1.9366574008,
				"z": -3.2574468343,
				"element": "C" 
			},
			{
				"x": -1.363383921,
				"y": 1.5919788537,
				"z": -2.4342360365,
				"element": "C" 
			},
			{
				"x": -1.1261506946,
				"y": 0.9673299929,
				"z": -1.169888611,
				"element": "C" 
			},
			{
				"x": -2.1842960977,
				"y": 0.6328591169,
				"z": -0.3200745309,
				"element": "C" 
			},
			{
				"x": -1.9681017839,
				"y": 0.0448912609,
				"z": 0.9294308666,
				"element": "C" 
			},
			{
				"x": -3.0606278284,
				"y": -0.2675234198,
				"z": 1.7976734234,
				"element": "C" 
			},
			{
				"x": -2.8472250581,
				"y": -0.8254336586,
				"z": 3.0287898553,
				"element": "C" 
			},
			{
				"x": -1.5182913396,
				"y": -1.0955448821,
				"z": 3.4614774834,
				"element": "C" 
			},
			{
				"x": -0.444935299,
				"y": -0.8197346532,
				"z": 2.6540518737,
				"element": "C" 
			},
			{
				"x": -0.6177499766,
				"y": -0.2505272484,
				"z": 1.3507250159,
				"element": "C" 
			},
			{
				"x": 2.4728590977,
				"y": -0.579969585,
				"z": -0.009572316,
				"element": "H" 
			},
			{
				"x": 1.8659433464,
				"y": -1.2445548883,
				"z": 1.50401633,
				"element": "H" 
			},
			{
				"x": 2.3150780645,
				"y": 0.9201940828,
				"z": -1.3614327802,
				"element": "H" 
			},
			{
				"x": 1.8335165354,
				"y": 1.9739831704,
				"z": -3.5002886748,
				"element": "H" 
			},
			{
				"x": -0.5165784687,
				"y": 2.4137014198,
				"z": -4.2141461369,
				"element": "H" 
			},
			{
				"x": -2.3919074006,
				"y": 1.7921359589,
				"z": -2.723128368,
				"element": "H" 
			},
			{
				"x": -3.2034483676,
				"y": 0.8445973501,
				"z": -0.6357721745,
				"element": "H" 
			},
			{
				"x": -4.0680315924,
				"y": -0.0442780832,
				"z": 1.4560814121,
				"element": "H" 
			},
			{
				"x": -3.6834286131,
				"y": -1.055837419,
				"z": 3.6820951638,
				"element": "H" 
			},
			{
				"x": -1.3543325787,
				"y": -1.5183994426,
				"z": 4.4483963145,
				"element": "H" 
			},
			{
				"x": 0.5542693485,
				"y": -1.0087479452,
				"z": 3.0290467929,
				"element": "H" 
			}
		],
		 "valence_orbital": [ 
			{
				"type": "occ",
				"energy": -0.29096,
				"method": "rhf"
			},
			{
				"type": "occ",
				"energy": -0.28652,
				"method": "rhf"
			},
			{
				"type": "occ",
				"energy": -0.25945,
				"method": "rhf"
			},
			{
				"type": "occ",
				"energy": -0.24503,
				"method": "rhf"
			},
			{
				"type": "occ",
				"energy": -0.20014,
				"method": "rhf"
			},
			{
				"type": "unocc",
				"energy": -0.07396,
				"method": "rhf"
			},
			{
				"type": "unocc",
				"energy": -0.01837,
				"method": "rhf"
			},
			{
				"type": "unocc",
				"energy": 0.00067,
				"method": "rhf"
			},
			{
				"type": "unocc",
				"energy": 0.00531,
				"method": "rhf"
			},
			{
				"type": "unocc",
				"energy": 0.05422,
				"method": "rhf"
			}
		],
		"cosmo_sigma_profile": { 
			"-0.025": 0.0,
			"-0.024": 0.0,
			"-0.023": 0.0,
			"-0.022": 0.0,
			"-0.021": 0.0,
			"-0.02": 0.0,
			"-0.019": 0.0,
			"-0.018": 0.0,
			"-0.017": 0.0,
			"-0.016": 0.0,
			"-0.015": 0.0,
			"-0.014": 0.0,
			"-0.013": 0.0,
			"-0.012": 0.0,
			"-0.011": 0.0,
			"-0.01": 0.0,
			"-0.009": 0.594817345555,
			"-0.008": 3.315415141,
			"-0.007": 6.57952449584,
			"-0.006": 20.0648764629,
			"-0.005": 19.5428339127,
			"-0.004": 20.8435263117,
			"-0.003": 15.9163430256,
			"-0.002": 12.4529870186,
			"-0.001": 13.0035724561,
			"0.0": 10.6073557482,
			"0.001": 16.1033261138,
			"0.002": 18.6263893355,
			"0.003": 36.0373184533,
			"0.004": 28.4598367303,
			"0.005": 18.080263052,
			"0.006": 7.83427350546,
			"0.007": 7.02338840296,
			"0.008": 0.0301677165976,
			"0.009": 0.0,
			"0.01": 0.0,
			"0.011": 0.0,
			"0.012": 0.0,
			"0.013": 0.0,
			"0.014": 0.0,
			"0.015": 0.0,
			"0.016": 0.0,
			"0.017": 0.0,
			"0.018": 0.0,
			"0.019": 0.0,
			"0.02": 0.0,
			"0.021": 0.0,
			"0.022": 0.0,
			"0.023": 0.0,
			"0.024": 0.0,
			"0.025": 0.0
		}
	}
}
