{
	 "smiles": "O[C@@]12CCCC(=O)[C@H]1[C@H](C1=CC(=CC=C1)[N+]([O-])=O)C1=C(CCCC1=O)O2", 
	 "Tm": 492.0, 
	 "num_atms": 45, 
	 "gaussian": { 
		 "optdone": 1, 
		 "sigma_profile": "yes", 
		 "theory": "DFT", 
		 "functional": "B3LYP", 
		 "basiset": "6-31G**", 
		 "properties": { 
			 "R2extent": 9675.9865, 
			 "electric_dipole_moment_norm": 11.4865858857, 
			 "electric_quadrupole_moment_norm": 31.2217560648, 
			 "total_energy": -1241.47691778, 
			 "HOMO_LUMO_gap": 0.16015, 
			 "cosmo_polarized_energy": -27.83, 
			 "cosmo_cavitation_energy": 46.3, 
			 "cosmo_dispersion_energy": -31.54, 
			 "cosmo_repulsion_energy": 2.4, 
			 "cosmo_total_nonelectrostatic_energy": 17.16, 
			 "SMD_solvation_energy": 10.1 
		},
		"coords": [
			{
				"x": 2.5556244381,
				"y": -0.1384256069,
				"z": -1.7720010189,
				"element": "O" 
			},
			{
				"x": 1.7849912536,
				"y": 0.9334119194,
				"z": -1.2903459333,
				"element": "C" 
			},
			{
				"x": 2.1496598875,
				"y": 2.2544102058,
				"z": -1.9706132766,
				"element": "C" 
			},
			{
				"x": 1.9078363319,
				"y": 2.1656747047,
				"z": -3.4844938844,
				"element": "C" 
			},
			{
				"x": 0.466372835,
				"y": 1.7211731264,
				"z": -3.8116007263,
				"element": "C" 
			},
			{
				"x": 0.0733216805,
				"y": 0.4684909316,
				"z": -3.039300053,
				"element": "C" 
			},
			{
				"x": -0.3879144264,
				"y": -0.518401818,
				"z": -3.5731476077,
				"element": "O" 
			},
			{
				"x": 0.3131121952,
				"y": 0.5562565384,
				"z": -1.5253790536,
				"element": "C" 
			},
			{
				"x": -0.0963865462,
				"y": -0.7123633982,
				"z": -0.746629419,
				"element": "C" 
			},
			{
				"x": -1.6184706618,
				"y": -0.7596550612,
				"z": -0.5976054982,
				"element": "C" 
			},
			{
				"x": -2.3811020525,
				"y": -1.6322615605,
				"z": -1.3781749242,
				"element": "C" 
			},
			{
				"x": -3.7668331717,
				"y": -1.6272593712,
				"z": -1.2474873779,
				"element": "C" 
			},
			{
				"x": -4.4360670499,
				"y": -0.7796045095,
				"z": -0.3662840356,
				"element": "C" 
			},
			{
				"x": -3.673070449,
				"y": 0.0903444539,
				"z": 0.4068958854,
				"element": "C" 
			},
			{
				"x": -2.2810271659,
				"y": 0.0989555423,
				"z": 0.2900994801,
				"element": "C" 
			},
			{
				"x": -4.5603817624,
				"y": -2.5543527278,
				"z": -2.0730599077,
				"element": "N" 
			},
			{
				"x": -3.9562109019,
				"y": -3.3052664368,
				"z": -2.8365940825,
				"element": "O" 
			},
			{
				"x": -5.7858166821,
				"y": -2.5210547778,
				"z": -1.9500876881,
				"element": "O" 
			},
			{
				"x": 0.6130566828,
				"y": -0.7523501536,
				"z": 0.5965216679,
				"element": "C" 
			},
			{
				"x": 1.5635357896,
				"y": 0.1483421661,
				"z": 0.9497665777,
				"element": "C" 
			},
			{
				"x": 2.2418058528,
				"y": 0.1959891552,
				"z": 2.2895586176,
				"element": "C" 
			},
			{
				"x": 1.4406943527,
				"y": -0.5631693247,
				"z": 3.3507973295,
				"element": "C" 
			},
			{
				"x": 1.0556162968,
				"y": -1.9504119425,
				"z": 2.831617022,
				"element": "C" 
			},
			{
				"x": 0.3295326072,
				"y": -1.8961126062,
				"z": 1.4893011573,
				"element": "C" 
			},
			{
				"x": -0.419281686,
				"y": -2.801054396,
				"z": 1.1435874012,
				"element": "O" 
			},
			{
				"x": 2.0376329022,
				"y": 1.1176656394,
				"z": 0.11510278,
				"element": "O" 
			},
			{
				"x": 3.4896832171,
				"y": 0.0762662341,
				"z": -1.6354890082,
				"element": "H" 
			},
			{
				"x": 3.1994485881,
				"y": 2.4863170787,
				"z": -1.7521509782,
				"element": "H" 
			},
			{
				"x": 1.550459306,
				"y": 3.0559506079,
				"z": -1.5239245062,
				"element": "H" 
			},
			{
				"x": 2.6078105946,
				"y": 1.4434256003,
				"z": -3.9173602571,
				"element": "H" 
			},
			{
				"x": 2.1134408963,
				"y": 3.133495902,
				"z": -3.952352395,
				"element": "H" 
			},
			{
				"x": -0.2338793264,
				"y": 2.5202557847,
				"z": -3.5273133463,
				"element": "H" 
			},
			{
				"x": 0.3350045603,
				"y": 1.524977586,
				"z": -4.8781483976,
				"element": "H" 
			},
			{
				"x": -0.2709990298,
				"y": 1.4111733267,
				"z": -1.1590840831,
				"element": "H" 
			},
			{
				"x": 0.2062584759,
				"y": -1.585693857,
				"z": -1.3318402368,
				"element": "H" 
			},
			{
				"x": -1.9136102991,
				"y": -2.3028767023,
				"z": -2.0866330535,
				"element": "H" 
			},
			{
				"x": -5.5158167068,
				"y": -0.817214396,
				"z": -0.3018960685,
				"element": "H" 
			},
			{
				"x": -4.1630225905,
				"y": 0.7610177723,
				"z": 1.1061985992,
				"element": "H" 
			},
			{
				"x": -1.6985680207,
				"y": 0.7737296807,
				"z": 0.9124501199,
				"element": "H" 
			},
			{
				"x": 2.3872391099,
				"y": 1.2472458026,
				"z": 2.5637274895,
				"element": "H" 
			},
			{
				"x": 3.2498970541,
				"y": -0.2329407247,
				"z": 2.186470721,
				"element": "H" 
			},
			{
				"x": 0.5321882592,
				"y": 0.0033645605,
				"z": 3.5895998227,
				"element": "H" 
			},
			{
				"x": 2.0195585275,
				"y": -0.6412094619,
				"z": 4.2766263384,
				"element": "H" 
			},
			{
				"x": 0.4173664689,
				"y": -2.497072595,
				"z": 3.5310505133,
				"element": "H" 
			},
			{
				"x": 1.9590103648,
				"y": -2.5612828916,
				"z": 2.6878252948,
				"element": "H" 
			}
		],
		 "valence_orbital": [ 
			{
				"type": "occ",
				"energy": -0.26569,
				"method": "rhf"
			},
			{
				"type": "occ",
				"energy": -0.26418,
				"method": "rhf"
			},
			{
				"type": "occ",
				"energy": -0.25369,
				"method": "rhf"
			},
			{
				"type": "occ",
				"energy": -0.24539,
				"method": "rhf"
			},
			{
				"type": "occ",
				"energy": -0.23267,
				"method": "rhf"
			},
			{
				"type": "unocc",
				"energy": -0.07252,
				"method": "rhf"
			},
			{
				"type": "unocc",
				"energy": -0.041,
				"method": "rhf"
			},
			{
				"type": "unocc",
				"energy": -0.02884,
				"method": "rhf"
			},
			{
				"type": "unocc",
				"energy": -0.0095,
				"method": "rhf"
			},
			{
				"type": "unocc",
				"energy": 0.01443,
				"method": "rhf"
			}
		],
		"cosmo_sigma_profile": { 
			"-0.025": 0.0,
			"-0.024": 0.0,
			"-0.023": 0.0,
			"-0.022": 0.0,
			"-0.021": 0.0,
			"-0.02": 0.0,
			"-0.019": 0.0,
			"-0.018": 0.0340668992546,
			"-0.017": 0.616990012646,
			"-0.016": 0.924411497479,
			"-0.015": 0.902660829437,
			"-0.014": 0.772595135903,
			"-0.013": 1.032421873,
			"-0.012": 0.83127016417,
			"-0.011": 0.789972718145,
			"-0.01": 1.03216936629,
			"-0.009": 1.6448338383,
			"-0.008": 3.74722973798,
			"-0.007": 9.14997830064,
			"-0.006": 16.1105795241,
			"-0.005": 28.1035803036,
			"-0.004": 33.7430545017,
			"-0.003": 42.0251057204,
			"-0.002": 38.5915938598,
			"-0.001": 28.5470291798,
			"0.0": 17.8388360959,
			"0.001": 15.5207512177,
			"0.002": 17.3111935588,
			"0.003": 13.5725582706,
			"0.004": 10.4085901376,
			"0.005": 8.77988156511,
			"0.006": 10.7339782081,
			"0.007": 12.9134222133,
			"0.008": 14.5290307338,
			"0.009": 9.99228726207,
			"0.01": 9.32674418448,
			"0.011": 4.6832338574,
			"0.012": 4.42166338547,
			"0.013": 3.48806262454,
			"0.014": 1.60138396496,
			"0.015": 0.305718204486,
			"0.016": 0.0,
			"0.017": 0.0,
			"0.018": 0.0,
			"0.019": 0.0,
			"0.02": 0.0,
			"0.021": 0.0,
			"0.022": 0.0,
			"0.023": 0.0,
			"0.024": 0.0,
			"0.025": 0.0
		}
	}
}
