{
	 "smiles": "CC1(C)OC(=O)OC1=C", 
	 "Tm": 301.15, 
	 "num_atms": 17, 
	 "gaussian": { 
		 "optdone": 1, 
		 "sigma_profile": "yes", 
		 "theory": "DFT", 
		 "functional": "B3LYP", 
		 "basiset": "6-31G**", 
		 "properties": { 
			 "R2extent": 1716.1041, 
			 "electric_dipole_moment_norm": 4.94495082685, 
			 "electric_quadrupole_moment_norm": 11.4707987167, 
			 "total_energy": -459.130427983, 
			 "HOMO_LUMO_gap": 0.25603, 
			 "cosmo_polarized_energy": -9.76, 
			 "cosmo_cavitation_energy": 20.98, 
			 "cosmo_dispersion_energy": -14.95, 
			 "cosmo_repulsion_energy": 1.23, 
			 "cosmo_total_nonelectrostatic_energy": 7.26, 
			 "SMD_solvation_energy": 6.47 
		},
		"coords": [
			{
				"x": -0.7109100178,
				"y": 1.4607916143,
				"z": 0.1150425154,
				"element": "C" 
			},
			{
				"x": -0.8099756429,
				"y": -0.0260327043,
				"z": -0.2289961175,
				"element": "C" 
			},
			{
				"x": 0.4609055443,
				"y": -0.5647013406,
				"z": -0.8874210664,
				"element": "C" 
			},
			{
				"x": -1.0245876603,
				"y": -0.7628505142,
				"z": 1.0090319886,
				"element": "O" 
			},
			{
				"x": -2.19932252,
				"y": -1.4277539064,
				"z": 0.9805844854,
				"element": "C" 
			},
			{
				"x": -2.6395046326,
				"y": -2.1146643379,
				"z": 1.8524930628,
				"element": "O" 
			},
			{
				"x": -2.8359350592,
				"y": -1.2029468606,
				"z": -0.2187769847,
				"element": "O" 
			},
			{
				"x": -2.070941886,
				"y": -0.3690826934,
				"z": -1.009847724,
				"element": "C" 
			},
			{
				"x": -2.456259807,
				"y": 0.0085188665,
				"z": -2.2235903014,
				"element": "C" 
			},
			{
				"x": -0.5830441617,
				"y": 2.0498373028,
				"z": -0.7976165167,
				"element": "H" 
			},
			{
				"x": 0.1465951528,
				"y": 1.6388615265,
				"z": 0.7697934994,
				"element": "H" 
			},
			{
				"x": -1.6176507727,
				"y": 1.8004937842,
				"z": 0.6214672564,
				"element": "H" 
			},
			{
				"x": 1.3228980816,
				"y": -0.3939186684,
				"z": -0.2366350076,
				"element": "H" 
			},
			{
				"x": 0.6349560932,
				"y": -0.0561442474,
				"z": -1.8399677153,
				"element": "H" 
			},
			{
				"x": 0.371003267,
				"y": -1.6366830716,
				"z": -1.0793005139,
				"element": "H" 
			},
			{
				"x": -3.396609673,
				"y": -0.3284185547,
				"z": -2.6418568689,
				"element": "H" 
			},
			{
				"x": -1.8312163058,
				"y": 0.6638938052,
				"z": -2.8175039916,
				"element": "H" 
			}
		],
		 "valence_orbital": [ 
			{
				"type": "occ",
				"energy": -0.38132,
				"method": "rhf"
			},
			{
				"type": "occ",
				"energy": -0.35999,
				"method": "rhf"
			},
			{
				"type": "occ",
				"energy": -0.31044,
				"method": "rhf"
			},
			{
				"type": "occ",
				"energy": -0.2998,
				"method": "rhf"
			},
			{
				"type": "occ",
				"energy": -0.25717,
				"method": "rhf"
			},
			{
				"type": "unocc",
				"energy": -0.00114,
				"method": "rhf"
			},
			{
				"type": "unocc",
				"energy": 0.03845,
				"method": "rhf"
			},
			{
				"type": "unocc",
				"energy": 0.06689,
				"method": "rhf"
			},
			{
				"type": "unocc",
				"energy": 0.08274,
				"method": "rhf"
			},
			{
				"type": "unocc",
				"energy": 0.11446,
				"method": "rhf"
			}
		],
		"cosmo_sigma_profile": { 
			"-0.025": 0.0,
			"-0.024": 0.0,
			"-0.023": 0.0,
			"-0.022": 0.0,
			"-0.021": 0.0,
			"-0.02": 0.0,
			"-0.019": 0.0,
			"-0.018": 0.0,
			"-0.017": 0.0,
			"-0.016": 0.0,
			"-0.015": 0.0,
			"-0.014": 0.0,
			"-0.013": 0.0,
			"-0.012": 0.0,
			"-0.011": 0.0,
			"-0.01": 0.0,
			"-0.009": 0.236790767848,
			"-0.008": 1.88292908511,
			"-0.007": 6.30847380354,
			"-0.006": 9.67846405734,
			"-0.005": 16.1654431805,
			"-0.004": 13.7801495518,
			"-0.003": 14.1759964277,
			"-0.002": 15.6551734136,
			"-0.001": 17.7652611748,
			"0.0": 8.97702703819,
			"0.001": 7.02036974034,
			"0.002": 7.41059357836,
			"0.003": 6.52456760883,
			"0.004": 6.42367961712,
			"0.005": 4.51271790506,
			"0.006": 4.54250249043,
			"0.007": 5.3908660975,
			"0.008": 4.70712967037,
			"0.009": 3.04782980143,
			"0.01": 4.56910030914,
			"0.011": 6.26074875716,
			"0.012": 0.899068511868,
			"0.013": 0.0,
			"0.014": 0.0,
			"0.015": 0.0,
			"0.016": 0.0,
			"0.017": 0.0,
			"0.018": 0.0,
			"0.019": 0.0,
			"0.02": 0.0,
			"0.021": 0.0,
			"0.022": 0.0,
			"0.023": 0.0,
			"0.024": 0.0,
			"0.025": 0.0
		}
	}
}
