{
	 "smiles": "CC1CCN(CC1)S(=O)(=O)C1=CC=C(S1)C(O)=O", 
	 "Tm": 481.15, 
	 "num_atms": 33, 
	 "gaussian": { 
		 "optdone": 1, 
		 "sigma_profile": "yes", 
		 "theory": "DFT", 
		 "functional": "B3LYP", 
		 "basiset": "6-31G**", 
		 "properties": { 
			 "R2extent": 6551.2759, 
			 "electric_dipole_moment_norm": 4.2401210136, 
			 "electric_quadrupole_moment_norm": 24.2105063741, 
			 "total_energy": -1580.14854736, 
			 "HOMO_LUMO_gap": 0.16857, 
			 "cosmo_polarized_energy": -19.33, 
			 "cosmo_cavitation_energy": 38.2, 
			 "cosmo_dispersion_energy": -27.16, 
			 "cosmo_repulsion_energy": 2.02, 
			 "cosmo_total_nonelectrostatic_energy": 13.06, 
			 "SMD_solvation_energy": 5.78 
		},
		"coords": [
			{
				"x": -2.2465828022,
				"y": 0.4863397229,
				"z": 2.6241699171,
				"element": "C" 
			},
			{
				"x": -2.7823919181,
				"y": 1.0479872994,
				"z": 1.2979194127,
				"element": "C" 
			},
			{
				"x": -2.3329798064,
				"y": 0.1911067132,
				"z": 0.0769166111,
				"element": "C" 
			},
			{
				"x": -1.2110527057,
				"y": 0.857668527,
				"z": -0.7385517861,
				"element": "C" 
			},
			{
				"x": -0.2737136109,
				"y": 1.5260873671,
				"z": 0.185310551,
				"element": "N" 
			},
			{
				"x": -0.8420226041,
				"y": 2.6874156939,
				"z": 0.9280338785,
				"element": "C" 
			},
			{
				"x": -2.3639371225,
				"y": 2.5123994206,
				"z": 1.0740006458,
				"element": "C" 
			},
			{
				"x": 1.2895870238,
				"y": 1.7570627636,
				"z": -0.3884183637,
				"element": "S" 
			},
			{
				"x": 1.3093849803,
				"y": 2.0886663175,
				"z": -1.8179392093,
				"element": "O" 
			},
			{
				"x": 1.9617367098,
				"y": 2.611316701,
				"z": 0.5915192449,
				"element": "O" 
			},
			{
				"x": 1.9641726404,
				"y": 0.110189867,
				"z": -0.2753243789,
				"element": "C" 
			},
			{
				"x": 2.4076630019,
				"y": -0.6366160476,
				"z": -1.3397414572,
				"element": "C" 
			},
			{
				"x": 2.9472156277,
				"y": -1.8849067373,
				"z": -0.9352116127,
				"element": "C" 
			},
			{
				"x": 2.9221498964,
				"y": -2.0652417927,
				"z": 0.4282296336,
				"element": "C" 
			},
			{
				"x": 2.2043635424,
				"y": -0.6960269431,
				"z": 1.2428623744,
				"element": "S" 
			},
			{
				"x": 3.4268373999,
				"y": -3.2805042368,
				"z": 1.1206504434,
				"element": "C" 
			},
			{
				"x": 3.6111826135,
				"y": -3.2035482393,
				"z": 2.463446527,
				"element": "O" 
			},
			{
				"x": 3.6614008722,
				"y": -4.3050850765,
				"z": 0.5263562853,
				"element": "O" 
			},
			{
				"x": -1.1531177151,
				"y": 0.4372724809,
				"z": 2.6267864839,
				"element": "H" 
			},
			{
				"x": -2.5625542218,
				"y": 1.1037562843,
				"z": 3.4726145729,
				"element": "H" 
			},
			{
				"x": -2.6222628294,
				"y": -0.52847132,
				"z": 2.7933678274,
				"element": "H" 
			},
			{
				"x": -3.8776542315,
				"y": 1.0250726273,
				"z": 1.3500231185,
				"element": "H" 
			},
			{
				"x": -1.9908923896,
				"y": -0.78925971,
				"z": 0.4251720145,
				"element": "H" 
			},
			{
				"x": -3.1767989766,
				"y": 0.0091204623,
				"z": -0.5982226529,
				"element": "H" 
			},
			{
				"x": -1.6125145526,
				"y": 1.5748259324,
				"z": -1.4672384641,
				"element": "H" 
			},
			{
				"x": -0.6613909348,
				"y": 0.1046641135,
				"z": -1.3083692232,
				"element": "H" 
			},
			{
				"x": -0.6296344534,
				"y": 3.6350669637,
				"z": 0.4180369001,
				"element": "H" 
			},
			{
				"x": -0.3526453963,
				"y": 2.7261518414,
				"z": 1.903103403,
				"element": "H" 
			},
			{
				"x": -2.7011313588,
				"y": 3.1428978358,
				"z": 1.9041851421,
				"element": "H" 
			},
			{
				"x": -2.8642584897,
				"y": 2.8932166912,
				"z": 0.1758898337,
				"element": "H" 
			},
			{
				"x": 2.3445107752,
				"y": -0.2810279034,
				"z": -2.360666517,
				"element": "H" 
			},
			{
				"x": 3.3514910631,
				"y": -2.635359918,
				"z": -1.6032515452,
				"element": "H" 
			},
			{
				"x": 3.5556399729,
				"y": -2.2906377013,
				"z": 2.7815403892,
				"element": "H" 
			}
		],
		 "valence_orbital": [ 
			{
				"type": "occ",
				"energy": -0.3107,
				"method": "rhf"
			},
			{
				"type": "occ",
				"energy": -0.29189,
				"method": "rhf"
			},
			{
				"type": "occ",
				"energy": -0.28999,
				"method": "rhf"
			},
			{
				"type": "occ",
				"energy": -0.27789,
				"method": "rhf"
			},
			{
				"type": "occ",
				"energy": -0.25452,
				"method": "rhf"
			},
			{
				"type": "unocc",
				"energy": -0.08595,
				"method": "rhf"
			},
			{
				"type": "unocc",
				"energy": -0.01966,
				"method": "rhf"
			},
			{
				"type": "unocc",
				"energy": -0.00254,
				"method": "rhf"
			},
			{
				"type": "unocc",
				"energy": 0.0299,
				"method": "rhf"
			},
			{
				"type": "unocc",
				"energy": 0.04808,
				"method": "rhf"
			}
		],
		"cosmo_sigma_profile": { 
			"-0.025": 0.0,
			"-0.024": 0.0,
			"-0.023": 0.0,
			"-0.022": 0.0,
			"-0.021": 0.0,
			"-0.02": 0.0,
			"-0.019": 0.218199694199,
			"-0.018": 1.13282241053,
			"-0.017": 0.915516023533,
			"-0.016": 1.19354986239,
			"-0.015": 0.778824205101,
			"-0.014": 1.50587608921,
			"-0.013": 0.981465211582,
			"-0.012": 0.870441871468,
			"-0.011": 0.635325923554,
			"-0.01": 0.72713085165,
			"-0.009": 2.98078977517,
			"-0.008": 4.11860698003,
			"-0.007": 4.81553523088,
			"-0.006": 5.16097925014,
			"-0.005": 12.5578579188,
			"-0.004": 23.4353329454,
			"-0.003": 32.9293768204,
			"-0.002": 39.1330494437,
			"-0.001": 36.0599437246,
			"0.0": 28.8200661762,
			"0.001": 20.6039038045,
			"0.002": 11.705803194,
			"0.003": 6.54701736923,
			"0.004": 4.36787460085,
			"0.005": 4.8679812964,
			"0.006": 5.45366377624,
			"0.007": 5.41212281612,
			"0.008": 6.91936578202,
			"0.009": 8.38745101532,
			"0.01": 14.2897886969,
			"0.011": 12.5157019193,
			"0.012": 2.73413319093,
			"0.013": 0.144468818499,
			"0.014": 0.0,
			"0.015": 0.0,
			"0.016": 0.0,
			"0.017": 0.0,
			"0.018": 0.0,
			"0.019": 0.0,
			"0.02": 0.0,
			"0.021": 0.0,
			"0.022": 0.0,
			"0.023": 0.0,
			"0.024": 0.0,
			"0.025": 0.0
		}
	}
}
