{
	 "smiles": "CNNCC1=CC=C(C=C1)C(=O)NC(C)C", 
	 "Tm": 496.15, 
	 "num_atms": 35, 
	 "gaussian": { 
		 "optdone": 1, 
		 "sigma_profile": "yes", 
		 "theory": "DFT", 
		 "functional": "B3LYP", 
		 "basiset": "6-31G**", 
		 "properties": { 
			 "R2extent": 5877.6293, 
			 "electric_dipole_moment_norm": 3.65670541608, 
			 "electric_quadrupole_moment_norm": 13.7352233892, 
			 "total_energy": -708.176775793, 
			 "HOMO_LUMO_gap": 0.17069, 
			 "cosmo_polarized_energy": -15.59, 
			 "cosmo_cavitation_energy": 37.34, 
			 "cosmo_dispersion_energy": -26.06, 
			 "cosmo_repulsion_energy": 2.09, 
			 "cosmo_total_nonelectrostatic_energy": 13.36, 
			 "SMD_solvation_energy": 5.2 
		},
		"coords": [
			{
				"x": 2.388300414,
				"y": -5.8755366468,
				"z": 1.3140286301,
				"element": "C" 
			},
			{
				"x": 1.0567984949,
				"y": -5.2759836411,
				"z": 1.4105378252,
				"element": "N" 
			},
			{
				"x": 1.1751062519,
				"y": -3.8427917677,
				"z": 1.1008132387,
				"element": "N" 
			},
			{
				"x": -0.1442029018,
				"y": -3.2216889038,
				"z": 1.2837019071,
				"element": "C" 
			},
			{
				"x": -0.0606398055,
				"y": -1.7183322886,
				"z": 1.1292337233,
				"element": "C" 
			},
			{
				"x": -0.7730482276,
				"y": -0.8720443962,
				"z": 1.9895490553,
				"element": "C" 
			},
			{
				"x": -0.7118724629,
				"y": 0.5115105608,
				"z": 1.843721049,
				"element": "C" 
			},
			{
				"x": 0.0425192959,
				"y": 1.0835302991,
				"z": 0.8108081901,
				"element": "C" 
			},
			{
				"x": 0.7769211219,
				"y": 0.2423371401,
				"z": -0.0356886346,
				"element": "C" 
			},
			{
				"x": 0.7274945704,
				"y": -1.1422361083,
				"z": 0.1238155562,
				"element": "C" 
			},
			{
				"x": 0.1521028613,
				"y": 2.5804496044,
				"z": 0.7538547527,
				"element": "C" 
			},
			{
				"x": 0.3983792426,
				"y": 3.2165219497,
				"z": 1.7753733049,
				"element": "O" 
			},
			{
				"x": 0.0405236654,
				"y": 3.2308986825,
				"z": -0.46102083,
				"element": "N" 
			},
			{
				"x": -0.8556711667,
				"y": 2.9489245635,
				"z": -1.6117000016,
				"element": "C" 
			},
			{
				"x": -0.2241644327,
				"y": 2.0561904439,
				"z": -2.6888783825,
				"element": "C" 
			},
			{
				"x": -2.243933043,
				"y": 2.4469978751,
				"z": -1.1886473584,
				"element": "C" 
			},
			{
				"x": 2.284712748,
				"y": -6.9624893961,
				"z": 1.3785164517,
				"element": "H" 
			},
			{
				"x": 2.9968752055,
				"y": -5.5508969907,
				"z": 2.166393162,
				"element": "H" 
			},
			{
				"x": 2.926213983,
				"y": -5.6133635719,
				"z": 0.3898036086,
				"element": "H" 
			},
			{
				"x": 0.5145102005,
				"y": -5.6423670804,
				"z": 0.6263734827,
				"element": "H" 
			},
			{
				"x": 1.769607643,
				"y": -3.4777356548,
				"z": 1.8475553983,
				"element": "H" 
			},
			{
				"x": -0.807061433,
				"y": -3.6335858489,
				"z": 0.5072907134,
				"element": "H" 
			},
			{
				"x": -0.6006985178,
				"y": -3.4840462244,
				"z": 2.2510489255,
				"element": "H" 
			},
			{
				"x": -1.3700357368,
				"y": -1.3021862298,
				"z": 2.7898844064,
				"element": "H" 
			},
			{
				"x": -1.2377159812,
				"y": 1.1633224584,
				"z": 2.5340357271,
				"element": "H" 
			},
			{
				"x": 1.4146193368,
				"y": 0.674250973,
				"z": -0.7994843351,
				"element": "H" 
			},
			{
				"x": 1.3159193329,
				"y": -1.7907285072,
				"z": -0.5172812582,
				"element": "H" 
			},
			{
				"x": 0.1876883412,
				"y": 4.2207776929,
				"z": -0.3001566364,
				"element": "H" 
			},
			{
				"x": -0.9921689388,
				"y": 3.9366447313,
				"z": -2.0674187073,
				"element": "H" 
			},
			{
				"x": -0.173617831,
				"y": 1.0122882663,
				"z": -2.3714619982,
				"element": "H" 
			},
			{
				"x": 0.7868655847,
				"y": 2.3967148542,
				"z": -2.931044572,
				"element": "H" 
			},
			{
				"x": -0.8277386656,
				"y": 2.0981811461,
				"z": -3.6019353296,
				"element": "H" 
			},
			{
				"x": -2.7019382192,
				"y": 3.1270055817,
				"z": -0.4638094467,
				"element": "H" 
			},
			{
				"x": -2.1896472637,
				"y": 1.4518978873,
				"z": -0.7394502443,
				"element": "H" 
			},
			{
				"x": -2.9011036669,
				"y": 2.3858685464,
				"z": -2.0623613733,
				"element": "H" 
			}
		],
		 "valence_orbital": [ 
			{
				"type": "occ",
				"energy": -0.25817,
				"method": "rhf"
			},
			{
				"type": "occ",
				"energy": -0.25222,
				"method": "rhf"
			},
			{
				"type": "occ",
				"energy": -0.24771,
				"method": "rhf"
			},
			{
				"type": "occ",
				"energy": -0.23123,
				"method": "rhf"
			},
			{
				"type": "occ",
				"energy": -0.1957,
				"method": "rhf"
			},
			{
				"type": "unocc",
				"energy": -0.02501,
				"method": "rhf"
			},
			{
				"type": "unocc",
				"energy": -0.00495,
				"method": "rhf"
			},
			{
				"type": "unocc",
				"energy": 0.04384,
				"method": "rhf"
			},
			{
				"type": "unocc",
				"energy": 0.07268,
				"method": "rhf"
			},
			{
				"type": "unocc",
				"energy": 0.08426,
				"method": "rhf"
			}
		],
		"cosmo_sigma_profile": { 
			"-0.025": 0.0,
			"-0.024": 0.0,
			"-0.023": 0.0,
			"-0.022": 0.0,
			"-0.021": 0.0,
			"-0.02": 0.0,
			"-0.019": 0.0,
			"-0.018": 0.0,
			"-0.017": 0.0,
			"-0.016": 0.0,
			"-0.015": 0.0,
			"-0.014": 0.0,
			"-0.013": 0.309274921565,
			"-0.012": 1.109911466,
			"-0.011": 1.01303994612,
			"-0.01": 4.04312313468,
			"-0.009": 3.70199950361,
			"-0.008": 3.1172199431,
			"-0.007": 3.48780534176,
			"-0.006": 7.20188372281,
			"-0.005": 16.0182376519,
			"-0.004": 23.1462519256,
			"-0.003": 31.0114959754,
			"-0.002": 30.374413693,
			"-0.001": 34.9117499357,
			"0.0": 31.7362199944,
			"0.001": 20.7704466461,
			"0.002": 11.5467832789,
			"0.003": 12.0857791399,
			"0.004": 12.1647584132,
			"0.005": 7.76646369369,
			"0.006": 5.26435632216,
			"0.007": 3.04642830125,
			"0.008": 2.7759406425,
			"0.009": 2.38241976723,
			"0.01": 2.9711907062,
			"0.011": 2.71289087279,
			"0.012": 3.42263136229,
			"0.013": 4.82316496044,
			"0.014": 5.97310504554,
			"0.015": 1.64610910835,
			"0.016": 0.282448155842,
			"0.017": 0.503653694115,
			"0.018": 0.36016501783,
			"0.019": 0.0,
			"0.02": 0.0,
			"0.021": 0.0,
			"0.022": 0.0,
			"0.023": 0.0,
			"0.024": 0.0,
			"0.025": 0.0
		}
	}
}
