{
	 "smiles": "FC(F)(F)OC1=C(CNC(=O)CCl)C=CC=C1", 
	 "Tm": 340.15, 
	 "num_atms": 26, 
	 "gaussian": { 
		 "optdone": 1, 
		 "sigma_profile": "yes", 
		 "theory": "DFT", 
		 "functional": "B3LYP", 
		 "basiset": "6-31G**", 
		 "properties": { 
			 "R2extent": 5460.2289, 
			 "electric_dipole_moment_norm": 1.60557456694, 
			 "electric_quadrupole_moment_norm": 11.8856744268, 
			 "total_energy": -1351.42479959, 
			 "HOMO_LUMO_gap": 0.23373, 
			 "cosmo_polarized_energy": -9.62, 
			 "cosmo_cavitation_energy": 33.24, 
			 "cosmo_dispersion_energy": -23.13, 
			 "cosmo_repulsion_energy": 1.76, 
			 "cosmo_total_nonelectrostatic_energy": 11.87, 
			 "SMD_solvation_energy": 6.54 
		},
		"coords": [
			{
				"x": 2.6564261672,
				"y": -1.1576576707,
				"z": -3.4016748658,
				"element": "F" 
			},
			{
				"x": 2.7017764206,
				"y": -0.1628412865,
				"z": -2.4967018493,
				"element": "C" 
			},
			{
				"x": 3.7486797723,
				"y": 0.6137055985,
				"z": -2.7681736635,
				"element": "F" 
			},
			{
				"x": 1.5727753526,
				"y": 0.5695891995,
				"z": -2.6689328838,
				"element": "F" 
			},
			{
				"x": 2.8342419175,
				"y": -0.6095619205,
				"z": -1.2266400256,
				"element": "O" 
			},
			{
				"x": 1.8070789737,
				"y": -1.4274624606,
				"z": -0.7061451115,
				"element": "C" 
			},
			{
				"x": 0.8846560004,
				"y": -0.8626050991,
				"z": 0.1794912757,
				"element": "C" 
			},
			{
				"x": 0.8966908611,
				"y": 0.615138297,
				"z": 0.5239430522,
				"element": "C" 
			},
			{
				"x": -0.0962557117,
				"y": 1.3885866473,
				"z": -0.2188187138,
				"element": "N" 
			},
			{
				"x": -1.3278442759,
				"y": 1.6210359264,
				"z": 0.2869560806,
				"element": "C" 
			},
			{
				"x": -1.7090324741,
				"y": 1.2578015261,
				"z": 1.3960801744,
				"element": "O" 
			},
			{
				"x": -2.3230237858,
				"y": 2.4134427659,
				"z": -0.5632548886,
				"element": "C" 
			},
			{
				"x": -1.7653307471,
				"y": 2.9277810803,
				"z": -2.2122791422,
				"element": "Cl" 
			},
			{
				"x": -0.0777462603,
				"y": -1.7147719638,
				"z": 0.7406723045,
				"element": "C" 
			},
			{
				"x": -0.108061851,
				"y": -3.0721132369,
				"z": 0.4250652407,
				"element": "C" 
			},
			{
				"x": 0.8337014532,
				"y": -3.6082513998,
				"z": -0.4564588546,
				"element": "C" 
			},
			{
				"x": 1.8031518374,
				"y": -2.7834423643,
				"z": -1.0245513057,
				"element": "C" 
			},
			{
				"x": 1.8813701636,
				"y": 1.0436769216,
				"z": 0.3297912154,
				"element": "H" 
			},
			{
				"x": 0.6632826421,
				"y": 0.7442885907,
				"z": 1.5826508369,
				"element": "H" 
			},
			{
				"x": 0.1003209718,
				"y": 1.6367056205,
				"z": -1.1784635295,
				"element": "H" 
			},
			{
				"x": -2.594673281,
				"y": 3.3172151943,
				"z": -0.0172189906,
				"element": "H" 
			},
			{
				"x": -3.2162282963,
				"y": 1.8039334766,
				"z": -0.700913305,
				"element": "H" 
			},
			{
				"x": -0.8069507249,
				"y": -1.2887860565,
				"z": 1.4234727712,
				"element": "H" 
			},
			{
				"x": -0.8611524488,
				"y": -3.7134204367,
				"z": 0.8727987833,
				"element": "H" 
			},
			{
				"x": 0.820136103,
				"y": -4.6665760012,
				"z": -0.6981400678,
				"element": "H" 
			},
			{
				"x": 2.5528112205,
				"y": -3.1738109482,
				"z": -1.7029545374,
				"element": "H" 
			}
		],
		 "valence_orbital": [ 
			{
				"type": "occ",
				"energy": -0.31113,
				"method": "rhf"
			},
			{
				"type": "occ",
				"energy": -0.27551,
				"method": "rhf"
			},
			{
				"type": "occ",
				"energy": -0.26488,
				"method": "rhf"
			},
			{
				"type": "occ",
				"energy": -0.26164,
				"method": "rhf"
			},
			{
				"type": "occ",
				"energy": -0.25804,
				"method": "rhf"
			},
			{
				"type": "unocc",
				"energy": -0.02431,
				"method": "rhf"
			},
			{
				"type": "unocc",
				"energy": -0.01818,
				"method": "rhf"
			},
			{
				"type": "unocc",
				"energy": 0.01299,
				"method": "rhf"
			},
			{
				"type": "unocc",
				"energy": 0.01597,
				"method": "rhf"
			},
			{
				"type": "unocc",
				"energy": 0.08128,
				"method": "rhf"
			}
		],
		"cosmo_sigma_profile": { 
			"-0.025": 0.0,
			"-0.024": 0.0,
			"-0.023": 0.0,
			"-0.022": 0.0,
			"-0.021": 0.0,
			"-0.02": 0.0,
			"-0.019": 0.0,
			"-0.018": 0.0,
			"-0.017": 0.0,
			"-0.016": 0.0,
			"-0.015": 0.0,
			"-0.014": 0.0,
			"-0.013": 0.0,
			"-0.012": 0.0,
			"-0.011": 0.0,
			"-0.01": 0.0802894893349,
			"-0.009": 3.10069443243,
			"-0.008": 5.46838521594,
			"-0.007": 7.50599727957,
			"-0.006": 13.9977938158,
			"-0.005": 16.5439901227,
			"-0.004": 17.3432392498,
			"-0.003": 16.1163579836,
			"-0.002": 15.8956280159,
			"-0.001": 19.9094575693,
			"0.0": 20.2015929231,
			"0.001": 31.5002351834,
			"0.002": 38.0852465153,
			"0.003": 18.4487642402,
			"0.004": 14.5781949411,
			"0.005": 9.62733156236,
			"0.006": 5.44355507657,
			"0.007": 2.05682237558,
			"0.008": 0.853519720982,
			"0.009": 0.872114068929,
			"0.01": 1.36301929608,
			"0.011": 1.94065714367,
			"0.012": 1.96584311707,
			"0.013": 3.92064210804,
			"0.014": 1.29063276333,
			"0.015": 0.0,
			"0.016": 0.0,
			"0.017": 0.0,
			"0.018": 0.0,
			"0.019": 0.0,
			"0.02": 0.0,
			"0.021": 0.0,
			"0.022": 0.0,
			"0.023": 0.0,
			"0.024": 0.0,
			"0.025": 0.0
		}
	}
}
