{
	 "smiles": "NC(=S)C1=CC(F)=CC=C1", 
	 "Tm": 383.15, 
	 "num_atms": 16, 
	 "gaussian": { 
		 "optdone": 1, 
		 "sigma_profile": "yes", 
		 "theory": "DFT", 
		 "functional": "B3LYP", 
		 "basiset": "6-31G**", 
		 "properties": { 
			 "R2extent": 2721.7424, 
			 "electric_dipole_moment_norm": 3.44340812858, 
			 "electric_quadrupole_moment_norm": 19.8495647673, 
			 "total_energy": -823.141926016, 
			 "HOMO_LUMO_gap": 0.1452, 
			 "cosmo_polarized_energy": -14.13, 
			 "cosmo_cavitation_energy": 22.49, 
			 "cosmo_dispersion_energy": -16.98, 
			 "cosmo_repulsion_energy": 1.31, 
			 "cosmo_total_nonelectrostatic_energy": 6.82, 
			 "SMD_solvation_energy": 3.54 
		},
		"coords": [
			{
				"x": 0.3817010767,
				"y": -4.2165453783,
				"z": -0.043785049,
				"element": "N" 
			},
			{
				"x": -0.5368987773,
				"y": -3.3036764675,
				"z": 0.3478349764,
				"element": "C" 
			},
			{
				"x": -1.9577108662,
				"y": -3.7570003496,
				"z": 1.0933770281,
				"element": "S" 
			},
			{
				"x": -0.1620392186,
				"y": -1.8829450175,
				"z": 0.0898566654,
				"element": "C" 
			},
			{
				"x": 1.1868153403,
				"y": -1.487571579,
				"z": 0.0984904208,
				"element": "C" 
			},
			{
				"x": 1.5042382107,
				"y": -0.1580830539,
				"z": -0.1468539319,
				"element": "C" 
			},
			{
				"x": 2.801035719,
				"y": 0.2122165893,
				"z": -0.1179062577,
				"element": "F" 
			},
			{
				"x": 0.5333417812,
				"y": 0.7998327087,
				"z": -0.4132741045,
				"element": "C" 
			},
			{
				"x": -0.8048559727,
				"y": 0.3999771867,
				"z": -0.4188574578,
				"element": "C" 
			},
			{
				"x": -1.1548841788,
				"y": -0.9238746711,
				"z": -0.1630975364,
				"element": "C" 
			},
			{
				"x": 1.1313806352,
				"y": -3.9695978612,
				"z": -0.6730219158,
				"element": "H" 
			},
			{
				"x": 0.1651325765,
				"y": -5.1939255765,
				"z": 0.0874992909,
				"element": "H" 
			},
			{
				"x": 1.9865281395,
				"y": -2.1790705777,
				"z": 0.3404088652,
				"element": "H" 
			},
			{
				"x": 0.8285368694,
				"y": 1.8264078157,
				"z": -0.6006764282,
				"element": "H" 
			},
			{
				"x": -1.5804003041,
				"y": 1.1316101047,
				"z": -0.6231916793,
				"element": "H" 
			},
			{
				"x": -2.1929210308,
				"y": -1.2350538728,
				"z": -0.155102886,
				"element": "H" 
			}
		],
		 "valence_orbital": [ 
			{
				"type": "occ",
				"energy": -0.35486,
				"method": "rhf"
			},
			{
				"type": "occ",
				"energy": -0.27558,
				"method": "rhf"
			},
			{
				"type": "occ",
				"energy": -0.25973,
				"method": "rhf"
			},
			{
				"type": "occ",
				"energy": -0.23431,
				"method": "rhf"
			},
			{
				"type": "occ",
				"energy": -0.21184,
				"method": "rhf"
			},
			{
				"type": "unocc",
				"energy": -0.06664,
				"method": "rhf"
			},
			{
				"type": "unocc",
				"energy": -0.01517,
				"method": "rhf"
			},
			{
				"type": "unocc",
				"energy": 0.0145,
				"method": "rhf"
			},
			{
				"type": "unocc",
				"energy": 0.0665,
				"method": "rhf"
			},
			{
				"type": "unocc",
				"energy": 0.08773,
				"method": "rhf"
			}
		],
		"cosmo_sigma_profile": { 
			"-0.025": 0.0,
			"-0.024": 0.0,
			"-0.023": 0.0,
			"-0.022": 0.0,
			"-0.021": 0.0,
			"-0.02": 0.0,
			"-0.019": 0.0,
			"-0.018": 0.0,
			"-0.017": 0.0,
			"-0.016": 0.344766309083,
			"-0.015": 2.21330008538,
			"-0.014": 2.38097920848,
			"-0.013": 2.48855129622,
			"-0.012": 2.98786177783,
			"-0.011": 1.84539297274,
			"-0.01": 2.70656372526,
			"-0.009": 1.99802593617,
			"-0.008": 3.82841347102,
			"-0.007": 6.11565892885,
			"-0.006": 7.22940055152,
			"-0.005": 8.22516919375,
			"-0.004": 7.13972037737,
			"-0.003": 6.4275545936,
			"-0.002": 8.20499418154,
			"-0.001": 9.99302805441,
			"0.0": 14.6287246841,
			"0.001": 13.1840215708,
			"0.002": 14.5824633103,
			"0.003": 15.4055509272,
			"0.004": 14.5962038313,
			"0.005": 6.87243245742,
			"0.006": 3.4243441957,
			"0.007": 5.37384547562,
			"0.008": 6.56349648875,
			"0.009": 5.84815870259,
			"0.01": 4.08464525418,
			"0.011": 3.46109291555,
			"0.012": 0.962451781273,
			"0.013": 0.0,
			"0.014": 0.0,
			"0.015": 0.0,
			"0.016": 0.0,
			"0.017": 0.0,
			"0.018": 0.0,
			"0.019": 0.0,
			"0.02": 0.0,
			"0.021": 0.0,
			"0.022": 0.0,
			"0.023": 0.0,
			"0.024": 0.0,
			"0.025": 0.0
		}
	}
}
