{
	 "smiles": "COC1=CC(OC)=C(C=CC(O)=O)C=C1OC", 
	 "Tm": 439.15, 
	 "num_atms": 31, 
	 "gaussian": { 
		 "optdone": 1, 
		 "sigma_profile": "yes", 
		 "theory": "DFT", 
		 "functional": "B3LYP", 
		 "basiset": "6-31G**", 
		 "properties": { 
			 "R2extent": 5957.6505, 
			 "electric_dipole_moment_norm": 3.80079960666, 
			 "electric_quadrupole_moment_norm": 11.1072187023, 
			 "total_energy": -841.791309888, 
			 "HOMO_LUMO_gap": 0.1513, 
			 "cosmo_polarized_energy": -14.54, 
			 "cosmo_cavitation_energy": 35.77, 
			 "cosmo_dispersion_energy": -25.3, 
			 "cosmo_repulsion_energy": 2.0, 
			 "cosmo_total_nonelectrostatic_energy": 12.46, 
			 "SMD_solvation_energy": 9.72 
		},
		"coords": [
			{
				"x": 1.384464913,
				"y": -3.7298920358,
				"z": -0.7232964751,
				"element": "C" 
			},
			{
				"x": 0.2393279122,
				"y": -3.0297074442,
				"z": -0.2145325808,
				"element": "O" 
			},
			{
				"x": 0.2549937689,
				"y": -1.6680018163,
				"z": -0.3786860223,
				"element": "C" 
			},
			{
				"x": -0.7508531349,
				"y": -1.0925912775,
				"z": -1.1574094721,
				"element": "C" 
			},
			{
				"x": -0.809895624,
				"y": 0.2929441833,
				"z": -1.3347391556,
				"element": "C" 
			},
			{
				"x": -1.7639803471,
				"y": 0.9096295021,
				"z": -2.0846984084,
				"element": "O" 
			},
			{
				"x": -2.7737553169,
				"y": 0.1204640941,
				"z": -2.6955759963,
				"element": "C" 
			},
			{
				"x": 0.1636806643,
				"y": 1.1361406122,
				"z": -0.7364964765,
				"element": "C" 
			},
			{
				"x": 0.0948085404,
				"y": 2.5772535681,
				"z": -0.9446207313,
				"element": "C" 
			},
			{
				"x": 0.9706304494,
				"y": 3.5073711362,
				"z": -0.5133544669,
				"element": "C" 
			},
			{
				"x": 0.7372388195,
				"y": 4.929012743,
				"z": -0.8114663385,
				"element": "C" 
			},
			{
				"x": 1.7252069828,
				"y": 5.7141372003,
				"z": -0.298790102,
				"element": "O" 
			},
			{
				"x": -0.1999117171,
				"y": 5.3986385975,
				"z": -1.4317081459,
				"element": "O" 
			},
			{
				"x": 1.1517385896,
				"y": 0.526922349,
				"z": 0.056113581,
				"element": "C" 
			},
			{
				"x": 1.2100088105,
				"y": -0.8464985847,
				"z": 0.2512970195,
				"element": "C" 
			},
			{
				"x": 2.2141610271,
				"y": -1.3776816394,
				"z": 1.0348545896,
				"element": "O" 
			},
			{
				"x": 1.772844936,
				"y": -1.8621331418,
				"z": 2.3086730593,
				"element": "C" 
			},
			{
				"x": 2.3070356914,
				"y": -3.3855654474,
				"z": -0.2488838713,
				"element": "H" 
			},
			{
				"x": 1.4604120152,
				"y": -3.6008706506,
				"z": -1.8099538511,
				"element": "H" 
			},
			{
				"x": 1.217987221,
				"y": -4.7844924827,
				"z": -0.4961652535,
				"element": "H" 
			},
			{
				"x": -1.4689508681,
				"y": -1.7602085025,
				"z": -1.6157772427,
				"element": "H" 
			},
			{
				"x": -3.424654856,
				"y": 0.8221183581,
				"z": -3.218601609,
				"element": "H" 
			},
			{
				"x": -3.3594284897,
				"y": -0.4318796585,
				"z": -1.9502799555,
				"element": "H" 
			},
			{
				"x": -2.3495347707,
				"y": -0.587496515,
				"z": -3.418517531,
				"element": "H" 
			},
			{
				"x": -0.7565605355,
				"y": 2.9393273371,
				"z": -1.5133368599,
				"element": "H" 
			},
			{
				"x": 1.8657526947,
				"y": 3.2702945783,
				"z": 0.0518956059,
				"element": "H" 
			},
			{
				"x": 1.4875719306,
				"y": 6.6234396414,
				"z": -0.5437914029,
				"element": "H" 
			},
			{
				"x": 1.9026348553,
				"y": 1.1323275975,
				"z": 0.5523297693,
				"element": "H" 
			},
			{
				"x": 1.3360777068,
				"y": -1.0503264072,
				"z": 2.9036854405,
				"element": "H" 
			},
			{
				"x": 2.6605453787,
				"y": -2.2447646898,
				"z": 2.8166466118,
				"element": "H" 
			},
			{
				"x": 1.0371027525,
				"y": -2.6657112048,
				"z": 2.1967862717,
				"element": "H" 
			}
		],
		 "valence_orbital": [ 
			{
				"type": "occ",
				"energy": -0.28097,
				"method": "rhf"
			},
			{
				"type": "occ",
				"energy": -0.26952,
				"method": "rhf"
			},
			{
				"type": "occ",
				"energy": -0.26129,
				"method": "rhf"
			},
			{
				"type": "occ",
				"energy": -0.23999,
				"method": "rhf"
			},
			{
				"type": "occ",
				"energy": -0.21044,
				"method": "rhf"
			},
			{
				"type": "unocc",
				"energy": -0.05914,
				"method": "rhf"
			},
			{
				"type": "unocc",
				"energy": 0.00342,
				"method": "rhf"
			},
			{
				"type": "unocc",
				"energy": 0.02649,
				"method": "rhf"
			},
			{
				"type": "unocc",
				"energy": 0.08055,
				"method": "rhf"
			},
			{
				"type": "unocc",
				"energy": 0.09421,
				"method": "rhf"
			}
		],
		"cosmo_sigma_profile": { 
			"-0.025": 0.0,
			"-0.024": 0.0,
			"-0.023": 0.0,
			"-0.022": 0.0,
			"-0.021": 0.0,
			"-0.02": 0.0,
			"-0.019": 0.0,
			"-0.018": 0.332447578447,
			"-0.017": 0.932466526979,
			"-0.016": 1.00157654164,
			"-0.015": 0.200900710783,
			"-0.014": 1.05267195576,
			"-0.013": 0.447447544378,
			"-0.012": 0.897543877889,
			"-0.011": 0.58414545249,
			"-0.01": 1.05958367,
			"-0.009": 0.834940337434,
			"-0.008": 2.3839026138,
			"-0.007": 5.10620717902,
			"-0.006": 13.1765677465,
			"-0.005": 19.6613125513,
			"-0.004": 22.8738643685,
			"-0.003": 28.9624992529,
			"-0.002": 21.7453180547,
			"-0.001": 20.6630513014,
			"0.0": 18.5547970135,
			"0.001": 19.7855147415,
			"0.002": 25.1718090255,
			"0.003": 22.2138718767,
			"0.004": 10.4549608064,
			"0.005": 6.99342904346,
			"0.006": 6.74840251856,
			"0.007": 5.47935591445,
			"0.008": 4.27980143825,
			"0.009": 4.9034893512,
			"0.01": 4.57756209322,
			"0.011": 4.24673966143,
			"0.012": 5.89388498884,
			"0.013": 2.66381884614,
			"0.014": 0.0,
			"0.015": 0.0,
			"0.016": 0.0,
			"0.017": 0.0,
			"0.018": 0.0,
			"0.019": 0.0,
			"0.02": 0.0,
			"0.021": 0.0,
			"0.022": 0.0,
			"0.023": 0.0,
			"0.024": 0.0,
			"0.025": 0.0
		}
	}
}
