{
	 "smiles": "O=C(OCC1=CC=CC=C1)N1CCC(=O)CC1", 
	 "Tm": 313.15, 
	 "num_atms": 32, 
	 "gaussian": { 
		 "optdone": 1, 
		 "sigma_profile": "yes", 
		 "theory": "DFT", 
		 "functional": "B3LYP", 
		 "basiset": "6-31G**", 
		 "properties": { 
			 "R2extent": 6086.519, 
			 "electric_dipole_moment_norm": 2.53325372792, 
			 "electric_quadrupole_moment_norm": 18.7032782806, 
			 "total_energy": -784.862326956, 
			 "HOMO_LUMO_gap": 0.21778, 
			 "cosmo_polarized_energy": -15.06, 
			 "cosmo_cavitation_energy": 35.62, 
			 "cosmo_dispersion_energy": -25.34, 
			 "cosmo_repulsion_energy": 2.0, 
			 "cosmo_total_nonelectrostatic_energy": 12.28, 
			 "SMD_solvation_energy": 6.58 
		},
		"coords": [
			{
				"x": 1.9749030384,
				"y": -0.5578883264,
				"z": -1.3171265891,
				"element": "O" 
			},
			{
				"x": 1.235101657,
				"y": -0.1511228792,
				"z": -0.4341962641,
				"element": "C" 
			},
			{
				"x": -0.0853411528,
				"y": -0.4692595852,
				"z": -0.3449245778,
				"element": "O" 
			},
			{
				"x": -0.5722310691,
				"y": -1.3278182662,
				"z": -1.4060923405,
				"element": "C" 
			},
			{
				"x": -2.0356120796,
				"y": -1.5793559321,
				"z": -1.1611212103,
				"element": "C" 
			},
			{
				"x": -3.0062080523,
				"y": -0.7444327242,
				"z": -1.7279318196,
				"element": "C" 
			},
			{
				"x": -4.3626665724,
				"y": -0.9659006218,
				"z": -1.4875390586,
				"element": "C" 
			},
			{
				"x": -4.7630061138,
				"y": -2.0279542663,
				"z": -0.6742626752,
				"element": "C" 
			},
			{
				"x": -3.8028280633,
				"y": -2.866615029,
				"z": -0.1039960484,
				"element": "C" 
			},
			{
				"x": -2.4477842776,
				"y": -2.6420836267,
				"z": -0.3474676731,
				"element": "C" 
			},
			{
				"x": 1.6089565136,
				"y": 0.6762060861,
				"z": 0.5893947863,
				"element": "N" 
			},
			{
				"x": 3.0192762181,
				"y": 1.0601810367,
				"z": 0.6890886688,
				"element": "C" 
			},
			{
				"x": 3.4883529652,
				"y": 1.0265327443,
				"z": 2.1466075639,
				"element": "C" 
			},
			{
				"x": 2.625061127,
				"y": 1.902785399,
				"z": 3.0484009427,
				"element": "C" 
			},
			{
				"x": 3.0032464199,
				"y": 2.3082550869,
				"z": 4.1285803041,
				"element": "O" 
			},
			{
				"x": 1.2508243736,
				"y": 2.2338434126,
				"z": 2.4775932173,
				"element": "C" 
			},
			{
				"x": 0.6645064844,
				"y": 1.0930829444,
				"z": 1.6363757724,
				"element": "C" 
			},
			{
				"x": 0.0066685058,
				"y": -2.2557939778,
				"z": -1.4010522669,
				"element": "H" 
			},
			{
				"x": -0.3998489774,
				"y": -0.8344706775,
				"z": -2.3669325724,
				"element": "H" 
			},
			{
				"x": -2.6954413092,
				"y": 0.0813873008,
				"z": -2.3630749463,
				"element": "H" 
			},
			{
				"x": -5.1059171989,
				"y": -0.3134029172,
				"z": -1.9367332424,
				"element": "H" 
			},
			{
				"x": -5.8187849669,
				"y": -2.2041464861,
				"z": -0.4891221861,
				"element": "H" 
			},
			{
				"x": -4.1096958494,
				"y": -3.6966164538,
				"z": 0.5259848027,
				"element": "H" 
			},
			{
				"x": -1.7010496441,
				"y": -3.2968321032,
				"z": 0.0947806807,
				"element": "H" 
			},
			{
				"x": 3.5890983052,
				"y": 0.3671810345,
				"z": 0.0695401119,
				"element": "H" 
			},
			{
				"x": 3.1739524978,
				"y": 2.0653293303,
				"z": 0.2705336793,
				"element": "H" 
			},
			{
				"x": 4.5319995425,
				"y": 1.3411425643,
				"z": 2.2416182983,
				"element": "H" 
			},
			{
				"x": 3.4291800235,
				"y": -0.0009298114,
				"z": 2.5321758985,
				"element": "H" 
			},
			{
				"x": 1.3662043722,
				"y": 3.1304831919,
				"z": 1.8518741144,
				"element": "H" 
			},
			{
				"x": 0.579002006,
				"y": 2.49884068,
				"z": 3.2975986659,
				"element": "H" 
			},
			{
				"x": -0.2715108089,
				"y": 1.4127536452,
				"z": 1.172475683,
				"element": "H" 
			},
			{
				"x": 0.4172920855,
				"y": 0.242319227,
				"z": 2.2860502807,
				"element": "H" 
			}
		],
		 "valence_orbital": [ 
			{
				"type": "occ",
				"energy": -0.27385,
				"method": "rhf"
			},
			{
				"type": "occ",
				"energy": -0.25611,
				"method": "rhf"
			},
			{
				"type": "occ",
				"energy": -0.25289,
				"method": "rhf"
			},
			{
				"type": "occ",
				"energy": -0.24808,
				"method": "rhf"
			},
			{
				"type": "occ",
				"energy": -0.24046,
				"method": "rhf"
			},
			{
				"type": "unocc",
				"energy": -0.02268,
				"method": "rhf"
			},
			{
				"type": "unocc",
				"energy": -0.01459,
				"method": "rhf"
			},
			{
				"type": "unocc",
				"energy": -0.00719,
				"method": "rhf"
			},
			{
				"type": "unocc",
				"energy": 0.05138,
				"method": "rhf"
			},
			{
				"type": "unocc",
				"energy": 0.07504,
				"method": "rhf"
			}
		],
		"cosmo_sigma_profile": { 
			"-0.025": 0.0,
			"-0.024": 0.0,
			"-0.023": 0.0,
			"-0.022": 0.0,
			"-0.021": 0.0,
			"-0.02": 0.0,
			"-0.019": 0.0,
			"-0.018": 0.0,
			"-0.017": 0.0,
			"-0.016": 0.0,
			"-0.015": 0.0,
			"-0.014": 0.0,
			"-0.013": 0.0,
			"-0.012": 0.0,
			"-0.011": 0.0,
			"-0.01": 0.0,
			"-0.009": 0.000250504977697,
			"-0.008": 0.876325901643,
			"-0.007": 5.8227648017,
			"-0.006": 22.0150324277,
			"-0.005": 34.1879047426,
			"-0.004": 34.4367808645,
			"-0.003": 26.9251984941,
			"-0.002": 18.3141022316,
			"-0.001": 17.8421364198,
			"0.0": 13.5715298626,
			"0.001": 11.7504433587,
			"0.002": 11.7313123208,
			"0.003": 11.7627341752,
			"0.004": 12.144377386,
			"0.005": 16.0232117618,
			"0.006": 9.70938696143,
			"0.007": 4.19927865217,
			"0.008": 2.66836960938,
			"0.009": 3.19637592995,
			"0.01": 3.77233213666,
			"0.011": 5.01668904272,
			"0.012": 6.3890609348,
			"0.013": 7.00226158987,
			"0.014": 2.06282945838,
			"0.015": 0.0,
			"0.016": 0.0,
			"0.017": 0.0,
			"0.018": 0.0,
			"0.019": 0.0,
			"0.02": 0.0,
			"0.021": 0.0,
			"0.022": 0.0,
			"0.023": 0.0,
			"0.024": 0.0,
			"0.025": 0.0
		}
	}
}
