{
	 "smiles": "COC(=O)C1=C(CC(O)=O)C2=C(S1)N=CNC2=O", 
	 "Tm": 290.15, 
	 "num_atms": 26, 
	 "gaussian": { 
		 "optdone": 1, 
		 "sigma_profile": "yes", 
		 "theory": "DFT", 
		 "functional": "B3LYP", 
		 "basiset": "6-31G**", 
		 "properties": { 
			 "R2extent": 4878.7855, 
			 "electric_dipole_moment_norm": 7.19840155243, 
			 "electric_quadrupole_moment_norm": 31.4552290635, 
			 "total_energy": -1269.7338929, 
			 "HOMO_LUMO_gap": 0.15533, 
			 "cosmo_polarized_energy": -24.72, 
			 "cosmo_cavitation_energy": 32.63, 
			 "cosmo_dispersion_energy": -24.28, 
			 "cosmo_repulsion_energy": 1.81, 
			 "cosmo_total_nonelectrostatic_energy": 10.17, 
			 "SMD_solvation_energy": 6.94 
		},
		"coords": [
			{
				"x": 1.5936772229,
				"y": -3.2917682626,
				"z": -3.025065215,
				"element": "C" 
			},
			{
				"x": 1.4696754508,
				"y": -2.0479631864,
				"z": -2.3134523681,
				"element": "O" 
			},
			{
				"x": 0.8849203155,
				"y": -2.1312100838,
				"z": -1.0965022866,
				"element": "C" 
			},
			{
				"x": 0.4884173574,
				"y": -3.1719353761,
				"z": -0.6127058985,
				"element": "O" 
			},
			{
				"x": 0.8294496636,
				"y": -0.8010520211,
				"z": -0.4534866932,
				"element": "C" 
			},
			{
				"x": 0.1889396046,
				"y": -0.4547345718,
				"z": 0.7201310685,
				"element": "C" 
			},
			{
				"x": -0.6538991152,
				"y": -1.3870556434,
				"z": 1.5560321757,
				"element": "C" 
			},
			{
				"x": -2.1649577763,
				"y": -1.1835273069,
				"z": 1.2984663895,
				"element": "C" 
			},
			{
				"x": -2.746264121,
				"y": -0.1886957078,
				"z": 1.9872417806,
				"element": "O" 
			},
			{
				"x": -2.7861370965,
				"y": -1.8695154701,
				"z": 0.5243849043,
				"element": "O" 
			},
			{
				"x": 0.4259082733,
				"y": 0.9263207532,
				"z": 1.0385283942,
				"element": "C" 
			},
			{
				"x": 1.2427615316,
				"y": 1.5822368964,
				"z": 0.1073011087,
				"element": "C" 
			},
			{
				"x": 1.7114116138,
				"y": 0.5335228837,
				"z": -1.1872068608,
				"element": "S" 
			},
			{
				"x": 1.6614955587,
				"y": 2.8784287735,
				"z": 0.1667469096,
				"element": "N" 
			},
			{
				"x": 1.2495222352,
				"y": 3.5329828459,
				"z": 1.2095745802,
				"element": "C" 
			},
			{
				"x": 0.4518463111,
				"y": 2.998176525,
				"z": 2.1821038959,
				"element": "N" 
			},
			{
				"x": -0.0396224664,
				"y": 1.6836084622,
				"z": 2.1789830648,
				"element": "C" 
			},
			{
				"x": -0.7797705396,
				"y": 1.3144170079,
				"z": 3.0982781749,
				"element": "O" 
			},
			{
				"x": 2.0708248163,
				"y": -3.0396794189,
				"z": -3.9714087853,
				"element": "H" 
			},
			{
				"x": 2.2071126975,
				"y": -3.99668743,
				"z": -2.4587579743,
				"element": "H" 
			},
			{
				"x": 0.6086599543,
				"y": -3.732808147,
				"z": -3.1936638102,
				"element": "H" 
			},
			{
				"x": -0.4353338666,
				"y": -1.214644479,
				"z": 2.6142274367,
				"element": "H" 
			},
			{
				"x": -0.4249912305,
				"y": -2.4164782532,
				"z": 1.29017487,
				"element": "H" 
			},
			{
				"x": -2.0857166881,
				"y": 0.2888932593,
				"z": 2.5383508522,
				"element": "H" 
			},
			{
				"x": 1.5386167537,
				"y": 4.5714493687,
				"z": 1.3468072622,
				"element": "H" 
			},
			{
				"x": 0.15035354,
				"y": 3.5665185823,
				"z": 2.9657170239,
				"element": "H" 
			}
		],
		 "valence_orbital": [ 
			{
				"type": "occ",
				"energy": -0.29264,
				"method": "rhf"
			},
			{
				"type": "occ",
				"energy": -0.28657,
				"method": "rhf"
			},
			{
				"type": "occ",
				"energy": -0.28463,
				"method": "rhf"
			},
			{
				"type": "occ",
				"energy": -0.26158,
				"method": "rhf"
			},
			{
				"type": "occ",
				"energy": -0.2409,
				"method": "rhf"
			},
			{
				"type": "unocc",
				"energy": -0.08557,
				"method": "rhf"
			},
			{
				"type": "unocc",
				"energy": -0.05342,
				"method": "rhf"
			},
			{
				"type": "unocc",
				"energy": -0.02468,
				"method": "rhf"
			},
			{
				"type": "unocc",
				"energy": 0.00385,
				"method": "rhf"
			},
			{
				"type": "unocc",
				"energy": 0.03093,
				"method": "rhf"
			}
		],
		"cosmo_sigma_profile": { 
			"-0.025": 0.0,
			"-0.024": 0.0,
			"-0.023": 0.0,
			"-0.022": 0.0,
			"-0.021": 0.0,
			"-0.02": 0.0,
			"-0.019": 0.150264639274,
			"-0.018": 1.38463840668,
			"-0.017": 1.6195826197,
			"-0.016": 1.39958075324,
			"-0.015": 0.977357295093,
			"-0.014": 1.24767868463,
			"-0.013": 1.60253239908,
			"-0.012": 1.8129601547,
			"-0.011": 3.2656373383,
			"-0.01": 1.95389594363,
			"-0.009": 2.50509172968,
			"-0.008": 2.83245052955,
			"-0.007": 6.14172776148,
			"-0.006": 13.1070755041,
			"-0.005": 16.8031242936,
			"-0.004": 23.6896649513,
			"-0.003": 21.1048603797,
			"-0.002": 19.973868302,
			"-0.001": 19.7799302295,
			"0.0": 14.8670000897,
			"0.001": 14.4872890323,
			"0.002": 13.2729985121,
			"0.003": 8.81173769174,
			"0.004": 7.73865281612,
			"0.005": 7.17819670094,
			"0.006": 5.93901539784,
			"0.007": 6.35255132944,
			"0.008": 5.85495879112,
			"0.009": 7.0966535691,
			"0.01": 9.36322222021,
			"0.011": 11.21197252,
			"0.012": 7.31428534319,
			"0.013": 3.40106276928,
			"0.014": 0.14770680563,
			"0.015": 0.0,
			"0.016": 0.0,
			"0.017": 0.0,
			"0.018": 0.0,
			"0.019": 0.0,
			"0.02": 0.0,
			"0.021": 0.0,
			"0.022": 0.0,
			"0.023": 0.0,
			"0.024": 0.0,
			"0.025": 0.0
		}
	}
}
