{
	 "smiles": "OC1=C(C=C(Cl)C=C1[N+]([O-])=O)[N+]([O-])=O", 
	 "Tm": 354.15, 
	 "num_atms": 17, 
	 "gaussian": { 
		 "optdone": 1, 
		 "sigma_profile": "yes", 
		 "theory": "DFT", 
		 "functional": "B3LYP", 
		 "basiset": "6-31G**", 
		 "properties": { 
			 "R2extent": 3557.3664, 
			 "electric_dipole_moment_norm": 2.57144541066, 
			 "electric_quadrupole_moment_norm": 13.6720348401, 
			 "total_energy": -1176.04436001, 
			 "HOMO_LUMO_gap": 0.14162, 
			 "cosmo_polarized_energy": -12.33, 
			 "cosmo_cavitation_energy": 25.21, 
			 "cosmo_dispersion_energy": -19.0, 
			 "cosmo_repulsion_energy": 1.49, 
			 "cosmo_total_nonelectrostatic_energy": 7.7, 
			 "SMD_solvation_energy": 8.82 
		},
		"coords": [
			{
				"x": -1.0540424412,
				"y": -0.0171618763,
				"z": -1.8752871101,
				"element": "O" 
			},
			{
				"x": -0.2186490905,
				"y": 0.4406201741,
				"z": -0.9599830378,
				"element": "C" 
			},
			{
				"x": 0.6544286142,
				"y": 1.5237297342,
				"z": -1.2364958879,
				"element": "C" 
			},
			{
				"x": 1.5733640664,
				"y": 1.989288994,
				"z": -0.3062810466,
				"element": "C" 
			},
			{
				"x": 1.6442638594,
				"y": 1.4114830318,
				"z": 0.9626388826,
				"element": "C" 
			},
			{
				"x": 2.7891467638,
				"y": 2.0225845654,
				"z": 2.1310924033,
				"element": "Cl" 
			},
			{
				"x": 0.8107368918,
				"y": 0.3555917703,
				"z": 1.2916131512,
				"element": "C" 
			},
			{
				"x": -0.0960989468,
				"y": -0.1225395628,
				"z": 0.3416191372,
				"element": "C" 
			},
			{
				"x": -0.932316536,
				"y": -1.2459528624,
				"z": 0.7342176516,
				"element": "N" 
			},
			{
				"x": -1.7338473495,
				"y": -1.7061545853,
				"z": -0.1100051162,
				"element": "O" 
			},
			{
				"x": -0.8247302535,
				"y": -1.6988237846,
				"z": 1.8640409929,
				"element": "O" 
			},
			{
				"x": 0.6263758523,
				"y": 2.2171516836,
				"z": -2.5376272509,
				"element": "N" 
			},
			{
				"x": -0.4125352399,
				"y": 2.1847390964,
				"z": -3.184501015,
				"element": "O" 
			},
			{
				"x": 1.6557120997,
				"y": 2.8070811896,
				"z": -2.8683306161,
				"element": "O" 
			},
			{
				"x": -1.5288899306,
				"y": -0.7824260866,
				"z": -1.4592860778,
				"element": "H" 
			},
			{
				"x": 2.227311552,
				"y": 2.8035465846,
				"z": -0.5922630667,
				"element": "H" 
			},
			{
				"x": 0.8442700884,
				"y": -0.1164580659,
				"z": 2.2649380064,
				"element": "H" 
			}
		],
		 "valence_orbital": [ 
			{
				"type": "occ",
				"energy": -0.33111,
				"method": "rhf"
			},
			{
				"type": "occ",
				"energy": -0.32451,
				"method": "rhf"
			},
			{
				"type": "occ",
				"energy": -0.31961,
				"method": "rhf"
			},
			{
				"type": "occ",
				"energy": -0.3033,
				"method": "rhf"
			},
			{
				"type": "occ",
				"energy": -0.2744,
				"method": "rhf"
			},
			{
				"type": "unocc",
				"energy": -0.13278,
				"method": "rhf"
			},
			{
				"type": "unocc",
				"energy": -0.1013,
				"method": "rhf"
			},
			{
				"type": "unocc",
				"energy": -0.04252,
				"method": "rhf"
			},
			{
				"type": "unocc",
				"energy": -0.0275,
				"method": "rhf"
			},
			{
				"type": "unocc",
				"energy": -0.00737,
				"method": "rhf"
			}
		],
		"cosmo_sigma_profile": { 
			"-0.025": 0.0,
			"-0.024": 0.0,
			"-0.023": 0.0,
			"-0.022": 0.0,
			"-0.021": 0.0,
			"-0.02": 0.0,
			"-0.019": 0.0,
			"-0.018": 0.0,
			"-0.017": 0.0,
			"-0.016": 0.0,
			"-0.015": 0.0,
			"-0.014": 0.0,
			"-0.013": 0.0,
			"-0.012": 0.190191052218,
			"-0.011": 0.875425131956,
			"-0.01": 3.1288652737,
			"-0.009": 6.20583358489,
			"-0.008": 7.78442095262,
			"-0.007": 8.78953991443,
			"-0.006": 8.99788788042,
			"-0.005": 13.3466474177,
			"-0.004": 13.4078799009,
			"-0.003": 16.8030281688,
			"-0.002": 12.7669061322,
			"-0.001": 10.3216023793,
			"0.0": 9.10856947341,
			"0.001": 8.10698042978,
			"0.002": 11.2430782719,
			"0.003": 13.1002610784,
			"0.004": 9.52950828368,
			"0.005": 8.0407203227,
			"0.006": 11.1130396378,
			"0.007": 14.6231398008,
			"0.008": 9.93305724815,
			"0.009": 5.76114288482,
			"0.01": 2.20160834587,
			"0.011": 0.862382511354,
			"0.012": 0.0742220400838,
			"0.013": 0.0,
			"0.014": 0.0,
			"0.015": 0.0,
			"0.016": 0.0,
			"0.017": 0.0,
			"0.018": 0.0,
			"0.019": 0.0,
			"0.02": 0.0,
			"0.021": 0.0,
			"0.022": 0.0,
			"0.023": 0.0,
			"0.024": 0.0,
			"0.025": 0.0
		}
	}
}
