{
	 "smiles": "OC(=O)CCOC1=C(Cl)C=CC=C1", 
	 "Tm": 389.15, 
	 "num_atms": 22, 
	 "gaussian": { 
		 "optdone": 1, 
		 "sigma_profile": "yes", 
		 "theory": "DFT", 
		 "functional": "B3LYP", 
		 "basiset": "6-31G**", 
		 "properties": { 
			 "R2extent": 3725.4951, 
			 "electric_dipole_moment_norm": 3.18459695566, 
			 "electric_quadrupole_moment_norm": 16.6755786125, 
			 "total_energy": -1034.23461345, 
			 "HOMO_LUMO_gap": 0.2273, 
			 "cosmo_polarized_energy": -17.53, 
			 "cosmo_cavitation_energy": 28.05, 
			 "cosmo_dispersion_energy": -19.87, 
			 "cosmo_repulsion_energy": 1.59, 
			 "cosmo_total_nonelectrostatic_energy": 9.77, 
			 "SMD_solvation_energy": 5.52 
		},
		"coords": [
			{
				"x": -2.0517279819,
				"y": -0.7927182488,
				"z": -0.340723797,
				"element": "O" 
			},
			{
				"x": -1.4490605855,
				"y": 0.3107668397,
				"z": 0.1839042832,
				"element": "C" 
			},
			{
				"x": -1.5769192185,
				"y": 1.3788633867,
				"z": -0.3587428439,
				"element": "O" 
			},
			{
				"x": -0.6240959435,
				"y": 0.0782986843,
				"z": 1.4439862027,
				"element": "C" 
			},
			{
				"x": 0.612542062,
				"y": -0.8010036331,
				"z": 1.2140477989,
				"element": "C" 
			},
			{
				"x": 1.5236346837,
				"y": -0.1318774251,
				"z": 0.3363751649,
				"element": "O" 
			},
			{
				"x": 1.7736646431,
				"y": -0.6932290667,
				"z": -0.8914393083,
				"element": "C" 
			},
			{
				"x": 2.5714967109,
				"y": -1.8392169677,
				"z": -1.0383842481,
				"element": "C" 
			},
			{
				"x": 3.243970719,
				"y": -2.6262701204,
				"z": 0.3817933817,
				"element": "Cl" 
			},
			{
				"x": 2.8579650823,
				"y": -2.3513617604,
				"z": -2.3035763728,
				"element": "C" 
			},
			{
				"x": 2.3536835555,
				"y": -1.7138932849,
				"z": -3.4372397568,
				"element": "C" 
			},
			{
				"x": 1.5675771747,
				"y": -0.5680750515,
				"z": -3.3032271654,
				"element": "C" 
			},
			{
				"x": 1.2773314864,
				"y": -0.0630212036,
				"z": -2.03695376,
				"element": "C" 
			},
			{
				"x": -1.8780661543,
				"y": -1.5714816206,
				"z": 0.2065155236,
				"element": "H" 
			},
			{
				"x": -1.2528732879,
				"y": -0.3914526894,
				"z": 2.2128984094,
				"element": "H" 
			},
			{
				"x": -0.3099338063,
				"y": 1.0562177151,
				"z": 1.8123407,
				"element": "H" 
			},
			{
				"x": 0.3414638472,
				"y": -1.78274629,
				"z": 0.8066866031,
				"element": "H" 
			},
			{
				"x": 1.1234537853,
				"y": -0.9697622236,
				"z": 2.1671094741,
				"element": "H" 
			},
			{
				"x": 3.4786754136,
				"y": -3.2365339772,
				"z": -2.3902376305,
				"element": "H" 
			},
			{
				"x": 2.5811477321,
				"y": -2.1130406788,
				"z": -4.4207728143,
				"element": "H" 
			},
			{
				"x": 1.1730904899,
				"y": -0.0688970219,
				"z": -4.1827184954,
				"element": "H" 
			},
			{
				"x": 0.6600795923,
				"y": 0.8193346381,
				"z": -1.9040413492,
				"element": "H" 
			}
		],
		 "valence_orbital": [ 
			{
				"type": "occ",
				"energy": -0.31771,
				"method": "rhf"
			},
			{
				"type": "occ",
				"energy": -0.29778,
				"method": "rhf"
			},
			{
				"type": "occ",
				"energy": -0.27343,
				"method": "rhf"
			},
			{
				"type": "occ",
				"energy": -0.2563,
				"method": "rhf"
			},
			{
				"type": "occ",
				"energy": -0.24407,
				"method": "rhf"
			},
			{
				"type": "unocc",
				"energy": -0.01677,
				"method": "rhf"
			},
			{
				"type": "unocc",
				"energy": -0.01168,
				"method": "rhf"
			},
			{
				"type": "unocc",
				"energy": 0.00067,
				"method": "rhf"
			},
			{
				"type": "unocc",
				"energy": 0.0232,
				"method": "rhf"
			},
			{
				"type": "unocc",
				"energy": 0.04086,
				"method": "rhf"
			}
		],
		"cosmo_sigma_profile": { 
			"-0.025": 0.0,
			"-0.024": 0.0,
			"-0.023": 0.0,
			"-0.022": 0.0,
			"-0.021": 0.0,
			"-0.02": 0.0,
			"-0.019": 0.84646869577,
			"-0.018": 0.991673920926,
			"-0.017": 1.6415243345,
			"-0.016": 1.16613962565,
			"-0.015": 1.24602259382,
			"-0.014": 0.997901597204,
			"-0.013": 0.678728517973,
			"-0.012": 1.281657865,
			"-0.011": 1.69757746596,
			"-0.01": 1.50661701602,
			"-0.009": 1.83683671663,
			"-0.008": 3.11502074393,
			"-0.007": 7.54091660361,
			"-0.006": 13.6228795841,
			"-0.005": 15.9812451315,
			"-0.004": 14.2479019836,
			"-0.003": 11.2508546589,
			"-0.002": 11.1745932016,
			"-0.001": 8.90660115437,
			"0.0": 10.6577004622,
			"0.001": 15.0149407489,
			"0.002": 19.7634835897,
			"0.003": 18.436180614,
			"0.004": 18.2538307671,
			"0.005": 9.4824459834,
			"0.006": 4.60674945795,
			"0.007": 3.84545350609,
			"0.008": 3.43611052937,
			"0.009": 4.31156721008,
			"0.01": 5.07482212463,
			"0.011": 6.43817119523,
			"0.012": 4.35045817833,
			"0.013": 1.74305793092,
			"0.014": 0.0,
			"0.015": 0.0,
			"0.016": 0.0,
			"0.017": 0.0,
			"0.018": 0.0,
			"0.019": 0.0,
			"0.02": 0.0,
			"0.021": 0.0,
			"0.022": 0.0,
			"0.023": 0.0,
			"0.024": 0.0,
			"0.025": 0.0
		}
	}
}
