{
	 "smiles": "NC1=CC=C(C=C1)N1CCC(O)CC1", 
	 "Tm": 445.15, 
	 "num_atms": 30, 
	 "gaussian": { 
		 "optdone": 1, 
		 "sigma_profile": "yes", 
		 "theory": "DFT", 
		 "functional": "B3LYP", 
		 "basiset": "6-31G**", 
		 "properties": { 
			 "R2extent": 4665.4188, 
			 "electric_dipole_moment_norm": 1.4577176064, 
			 "electric_quadrupole_moment_norm": 9.74432035598, 
			 "total_energy": -613.525818545, 
			 "HOMO_LUMO_gap": 0.1724, 
			 "cosmo_polarized_energy": -13.93, 
			 "cosmo_cavitation_energy": 30.97, 
			 "cosmo_dispersion_energy": -23.03, 
			 "cosmo_repulsion_energy": 1.81, 
			 "cosmo_total_nonelectrostatic_energy": 9.74, 
			 "SMD_solvation_energy": 3.62 
		},
		"coords": [
			{
				"x": -6.1582292173,
				"y": 0.1492798928,
				"z": 1.2151225298,
				"element": "N" 
			},
			{
				"x": -4.7540661237,
				"y": 0.0557807009,
				"z": 1.144065273,
				"element": "C" 
			},
			{
				"x": -4.0765532163,
				"y": -1.0824300648,
				"z": 1.6007327465,
				"element": "C" 
			},
			{
				"x": -2.695533387,
				"y": -1.2092963927,
				"z": 1.4669746983,
				"element": "C" 
			},
			{
				"x": -1.918306307,
				"y": -0.1906469181,
				"z": 0.8792609576,
				"element": "C" 
			},
			{
				"x": -2.6052262221,
				"y": 0.9567043474,
				"z": 0.4307672671,
				"element": "C" 
			},
			{
				"x": -3.9871901561,
				"y": 1.0701065652,
				"z": 0.5536916825,
				"element": "C" 
			},
			{
				"x": -0.5301337734,
				"y": -0.2988759972,
				"z": 0.7577846551,
				"element": "N" 
			},
			{
				"x": 0.2008928644,
				"y": -1.3333733277,
				"z": 1.476242991,
				"element": "C" 
			},
			{
				"x": 1.6707744853,
				"y": -0.9303912033,
				"z": 1.631069171,
				"element": "C" 
			},
			{
				"x": 2.385434791,
				"y": -0.7371478555,
				"z": 0.274195889,
				"element": "C" 
			},
			{
				"x": 3.1521390124,
				"y": -1.8752313328,
				"z": -0.1146867727,
				"element": "O" 
			},
			{
				"x": 1.3675786364,
				"y": -0.3512101632,
				"z": -0.8167105744,
				"element": "C" 
			},
			{
				"x": 0.1895783559,
				"y": 0.4590133713,
				"z": -0.2644863273,
				"element": "C" 
			},
			{
				"x": -6.4984425958,
				"y": 1.1023156605,
				"z": 1.2451763534,
				"element": "H" 
			},
			{
				"x": -6.5609441349,
				"y": -0.3872720086,
				"z": 1.9732035183,
				"element": "H" 
			},
			{
				"x": -4.6401260905,
				"y": -1.8953495938,
				"z": 2.0536290159,
				"element": "H" 
			},
			{
				"x": -2.2271361214,
				"y": -2.1246300855,
				"z": 1.8107787867,
				"element": "H" 
			},
			{
				"x": -2.0540644291,
				"y": 1.7873108906,
				"z": 0.0033702655,
				"element": "H" 
			},
			{
				"x": -4.478024131,
				"y": 1.971119485,
				"z": 0.1919565324,
				"element": "H" 
			},
			{
				"x": -0.2464915557,
				"y": -1.4547332784,
				"z": 2.4685974451,
				"element": "H" 
			},
			{
				"x": 0.1271048478,
				"y": -2.3219217656,
				"z": 0.982658822,
				"element": "H" 
			},
			{
				"x": 2.2167507864,
				"y": -1.6832164099,
				"z": 2.2089136186,
				"element": "H" 
			},
			{
				"x": 1.7076991784,
				"y": 0.0045406238,
				"z": 2.2024138655,
				"element": "H" 
			},
			{
				"x": 3.1300717697,
				"y": 0.0588591659,
				"z": 0.3815885761,
				"element": "H" 
			},
			{
				"x": 2.53658091,
				"y": -2.6044139262,
				"z": -0.2719419508,
				"element": "H" 
			},
			{
				"x": 1.8607380635,
				"y": 0.1973835227,
				"z": -1.6253371403,
				"element": "H" 
			},
			{
				"x": 0.9694430281,
				"y": -1.273801817,
				"z": -1.2611828371,
				"element": "H" 
			},
			{
				"x": -0.4994489884,
				"y": 0.6873645755,
				"z": -1.0843792407,
				"element": "H" 
			},
			{
				"x": 0.5506297203,
				"y": 1.4285633388,
				"z": 0.1209301832,
				"element": "H" 
			}
		],
		 "valence_orbital": [ 
			{
				"type": "occ",
				"energy": -0.30455,
				"method": "rhf"
			},
			{
				"type": "occ",
				"energy": -0.26264,
				"method": "rhf"
			},
			{
				"type": "occ",
				"energy": -0.23622,
				"method": "rhf"
			},
			{
				"type": "occ",
				"energy": -0.2361,
				"method": "rhf"
			},
			{
				"type": "occ",
				"energy": -0.16191,
				"method": "rhf"
			},
			{
				"type": "unocc",
				"energy": 0.01049,
				"method": "rhf"
			},
			{
				"type": "unocc",
				"energy": 0.03966,
				"method": "rhf"
			},
			{
				"type": "unocc",
				"energy": 0.06513,
				"method": "rhf"
			},
			{
				"type": "unocc",
				"energy": 0.08994,
				"method": "rhf"
			},
			{
				"type": "unocc",
				"energy": 0.09266,
				"method": "rhf"
			}
		],
		"cosmo_sigma_profile": { 
			"-0.025": 0.0,
			"-0.024": 0.0,
			"-0.023": 0.0,
			"-0.022": 0.0,
			"-0.021": 0.0,
			"-0.02": 0.0,
			"-0.019": 0.0,
			"-0.018": 0.0,
			"-0.017": 0.0,
			"-0.016": 0.0,
			"-0.015": 0.0445810689634,
			"-0.014": 0.667504602788,
			"-0.013": 0.844132505231,
			"-0.012": 1.57559117018,
			"-0.011": 3.45642598798,
			"-0.01": 4.45536031411,
			"-0.009": 3.48422207473,
			"-0.008": 4.99775305967,
			"-0.007": 4.32929246081,
			"-0.006": 4.08964047625,
			"-0.005": 8.18580725728,
			"-0.004": 18.4540760554,
			"-0.003": 32.6761639559,
			"-0.002": 31.7289358119,
			"-0.001": 19.4484279471,
			"0.0": 14.9265996397,
			"0.001": 9.02338408762,
			"0.002": 8.25594150258,
			"0.003": 7.46347014178,
			"0.004": 7.08838659972,
			"0.005": 8.71760709705,
			"0.006": 9.65769207918,
			"0.007": 10.4099422334,
			"0.008": 9.59677803769,
			"0.009": 3.63027308464,
			"0.01": 2.26478660956,
			"0.011": 1.36486743491,
			"0.012": 2.20293036939,
			"0.013": 2.38541880509,
			"0.014": 2.98212275397,
			"0.015": 1.78516460572,
			"0.016": 0.92954860407,
			"0.017": 0.0911002625589,
			"0.018": 0.0,
			"0.019": 0.0,
			"0.02": 0.0,
			"0.021": 0.0,
			"0.022": 0.0,
			"0.023": 0.0,
			"0.024": 0.0,
			"0.025": 0.0
		}
	}
}
