{
	 "smiles": "CC1CCC=CC1", 
	 "Tm": 158.15, 
	 "num_atms": 19, 
	 "gaussian": { 
		 "optdone": 1, 
		 "sigma_profile": "yes", 
		 "theory": "DFT", 
		 "functional": "B3LYP", 
		 "basiset": "6-31G**", 
		 "properties": { 
			 "R2extent": 974.4269, 
			 "electric_dipole_moment_norm": 0.221376602196, 
			 "electric_quadrupole_moment_norm": 1.58943422638, 
			 "total_energy": -273.973159955, 
			 "HOMO_LUMO_gap": 0.26718, 
			 "cosmo_polarized_energy": -1.24, 
			 "cosmo_cavitation_energy": 19.64, 
			 "cosmo_dispersion_energy": -14.92, 
			 "cosmo_repulsion_energy": 1.26, 
			 "cosmo_total_nonelectrostatic_energy": 5.98, 
			 "SMD_solvation_energy": 2.92 
		},
		"coords": [
			{
				"x": 2.2190195631,
				"y": 0.7654674591,
				"z": -1.2230608179,
				"element": "C" 
			},
			{
				"x": 1.5991209362,
				"y": 1.5162765367,
				"z": -0.0338099105,
				"element": "C" 
			},
			{
				"x": 1.1805877901,
				"y": 0.5635496305,
				"z": 1.1043124963,
				"element": "C" 
			},
			{
				"x": 0.0537968083,
				"y": -0.3934872886,
				"z": 0.6799902636,
				"element": "C" 
			},
			{
				"x": -1.0267362146,
				"y": 0.3145900447,
				"z": -0.097991957,
				"element": "C" 
			},
			{
				"x": -0.8809818665,
				"y": 1.5433927249,
				"z": -0.604385114,
				"element": "C" 
			},
			{
				"x": 0.381227816,
				"y": 2.3614352342,
				"z": -0.4668084774,
				"element": "C" 
			},
			{
				"x": 3.0546411517,
				"y": 0.1341113128,
				"z": -0.9002777639,
				"element": "H" 
			},
			{
				"x": 2.6023224405,
				"y": 1.4686629382,
				"z": -1.9705921768,
				"element": "H" 
			},
			{
				"x": 1.4850000547,
				"y": 0.1245052626,
				"z": -1.7218973583,
				"element": "H" 
			},
			{
				"x": 2.3632853651,
				"y": 2.1987181715,
				"z": 0.3616834473,
				"element": "H" 
			},
			{
				"x": 2.0472262554,
				"y": -0.007728419,
				"z": 1.4585860704,
				"element": "H" 
			},
			{
				"x": 0.8321203333,
				"y": 1.165732782,
				"z": 1.9534555601,
				"element": "H" 
			},
			{
				"x": -0.3807309983,
				"y": -0.8734565183,
				"z": 1.5669934617,
				"element": "H" 
			},
			{
				"x": 0.4579237531,
				"y": -1.2195156974,
				"z": 0.0751457756,
				"element": "H" 
			},
			{
				"x": -1.9631870581,
				"y": -0.2206971,
				"z": -0.2487227506,
				"element": "H" 
			},
			{
				"x": -1.70810138,
				"y": 2.0001856281,
				"z": -1.1460923616,
				"element": "H" 
			},
			{
				"x": 0.5967068285,
				"y": 2.8698083486,
				"z": -1.4166761556,
				"element": "H" 
			},
			{
				"x": 0.2092584215,
				"y": 3.1683489494,
				"z": 0.2619477687,
				"element": "H" 
			}
		],
		 "valence_orbital": [ 
			{
				"type": "occ",
				"energy": -0.34834,
				"method": "rhf"
			},
			{
				"type": "occ",
				"energy": -0.31517,
				"method": "rhf"
			},
			{
				"type": "occ",
				"energy": -0.30308,
				"method": "rhf"
			},
			{
				"type": "occ",
				"energy": -0.29481,
				"method": "rhf"
			},
			{
				"type": "occ",
				"energy": -0.23368,
				"method": "rhf"
			},
			{
				"type": "unocc",
				"energy": 0.0335,
				"method": "rhf"
			},
			{
				"type": "unocc",
				"energy": 0.08391,
				"method": "rhf"
			},
			{
				"type": "unocc",
				"energy": 0.12354,
				"method": "rhf"
			},
			{
				"type": "unocc",
				"energy": 0.13376,
				"method": "rhf"
			},
			{
				"type": "unocc",
				"energy": 0.14119,
				"method": "rhf"
			}
		],
		"cosmo_sigma_profile": { 
			"-0.025": 0.0,
			"-0.024": 0.0,
			"-0.023": 0.0,
			"-0.022": 0.0,
			"-0.021": 0.0,
			"-0.02": 0.0,
			"-0.019": 0.0,
			"-0.018": 0.0,
			"-0.017": 0.0,
			"-0.016": 0.0,
			"-0.015": 0.0,
			"-0.014": 0.0,
			"-0.013": 0.0,
			"-0.012": 0.0,
			"-0.011": 0.0,
			"-0.01": 0.0,
			"-0.009": 0.0,
			"-0.008": 0.0,
			"-0.007": 0.0,
			"-0.006": 0.0,
			"-0.005": 0.0118552339927,
			"-0.004": 2.51351952447,
			"-0.003": 8.83567891566,
			"-0.002": 25.0400446229,
			"-0.001": 32.0517697062,
			"0.0": 33.1262263192,
			"0.001": 23.0962733064,
			"0.002": 11.6899600938,
			"0.003": 4.33840458575,
			"0.004": 2.98538886733,
			"0.005": 3.37510685759,
			"0.006": 1.93530590174,
			"0.007": 2.08782937454,
			"0.008": 0.614825468503,
			"0.009": 0.0,
			"0.01": 0.0,
			"0.011": 0.0,
			"0.012": 0.0,
			"0.013": 0.0,
			"0.014": 0.0,
			"0.015": 0.0,
			"0.016": 0.0,
			"0.017": 0.0,
			"0.018": 0.0,
			"0.019": 0.0,
			"0.02": 0.0,
			"0.021": 0.0,
			"0.022": 0.0,
			"0.023": 0.0,
			"0.024": 0.0,
			"0.025": 0.0
		}
	}
}
