{
	 "smiles": "CN(C(C(=O)NC(C)(C)C)C1=CC=C(C)C=C1)C(=O)CCCC1=CC=C2C=CC3=C4C(C=CC1=C24)=CC=C3", 
	 "Tm": 414.15, 
	 "num_atms": 74, 
	 "gaussian": { 
		 "optdone": 1, 
		 "sigma_profile": "yes", 
		 "theory": "DFT", 
		 "functional": "B3LYP", 
		 "basiset": "6-31G**", 
		 "properties": { 
			 "R2extent": 25585.6681, 
			 "electric_dipole_moment_norm": 4.36312547608, 
			 "electric_quadrupole_moment_norm": 30.1371824753, 
			 "total_energy": -1577.37248803, 
			 "HOMO_LUMO_gap": 0.13885, 
			 "cosmo_polarized_energy": -21.86, 
			 "cosmo_cavitation_energy": 73.2, 
			 "cosmo_dispersion_energy": -47.26, 
			 "cosmo_repulsion_energy": 3.54, 
			 "cosmo_total_nonelectrostatic_energy": 29.47, 
			 "SMD_solvation_energy": 11.99 
		},
		"coords": [
			{
				"x": -0.9421604973,
				"y": -1.5320128457,
				"z": -0.819880017,
				"element": "C" 
			},
			{
				"x": -1.4540360241,
				"y": -0.1931777677,
				"z": -1.1126317524,
				"element": "N" 
			},
			{
				"x": -2.2741685225,
				"y": -0.0486195828,
				"z": -2.3365302506,
				"element": "C" 
			},
			{
				"x": -1.4289625274,
				"y": -0.142685523,
				"z": -3.6304654299,
				"element": "C" 
			},
			{
				"x": -1.9431622796,
				"y": -0.4474790715,
				"z": -4.7031257551,
				"element": "O" 
			},
			{
				"x": -0.1228691297,
				"y": 0.2059943204,
				"z": -3.4798771202,
				"element": "N" 
			},
			{
				"x": 0.8590468766,
				"y": 0.3690612315,
				"z": -4.5772147609,
				"element": "C" 
			},
			{
				"x": 1.049085481,
				"y": -0.9720704382,
				"z": -5.3098175424,
				"element": "C" 
			},
			{
				"x": 2.1786229089,
				"y": 0.797962042,
				"z": -3.9173142116,
				"element": "C" 
			},
			{
				"x": 0.3798905194,
				"y": 1.4565469016,
				"z": -5.557583728,
				"element": "C" 
			},
			{
				"x": -3.4981740402,
				"y": -0.9549392319,
				"z": -2.3093029152,
				"element": "C" 
			},
			{
				"x": -4.6104286791,
				"y": -0.5403535857,
				"z": -1.5634124545,
				"element": "C" 
			},
			{
				"x": -5.7334824665,
				"y": -1.355899566,
				"z": -1.4374299804,
				"element": "C" 
			},
			{
				"x": -5.7863775262,
				"y": -2.612312753,
				"z": -2.0551265376,
				"element": "C" 
			},
			{
				"x": -7.0182464392,
				"y": -3.4806258493,
				"z": -1.9522422954,
				"element": "C" 
			},
			{
				"x": -4.6723240127,
				"y": -3.0225687003,
				"z": -2.7979505741,
				"element": "C" 
			},
			{
				"x": -3.5455778409,
				"y": -2.2103966575,
				"z": -2.9266582274,
				"element": "C" 
			},
			{
				"x": -1.5618967143,
				"y": 0.7979056496,
				"z": -0.148835089,
				"element": "C" 
			},
			{
				"x": -2.1726397617,
				"y": 1.8417251909,
				"z": -0.3629319021,
				"element": "O" 
			},
			{
				"x": -0.8603767212,
				"y": 0.5530466448,
				"z": 1.1861962189,
				"element": "C" 
			},
			{
				"x": -1.0015153074,
				"y": 1.7416813307,
				"z": 2.1392793148,
				"element": "C" 
			},
			{
				"x": -0.2696986265,
				"y": 1.5461656108,
				"z": 3.4865752895,
				"element": "C" 
			},
			{
				"x": 1.2402979926,
				"y": 1.4511101121,
				"z": 3.3617782851,
				"element": "C" 
			},
			{
				"x": 1.9569604592,
				"y": 2.6442914353,
				"z": 3.193699274,
				"element": "C" 
			},
			{
				"x": 3.3370601296,
				"y": 2.6651014455,
				"z": 3.0381851869,
				"element": "C" 
			},
			{
				"x": 4.0750891543,
				"y": 1.4723844051,
				"z": 3.0455259913,
				"element": "C" 
			},
			{
				"x": 5.5028253611,
				"y": 1.4579119892,
				"z": 2.886242022,
				"element": "C" 
			},
			{
				"x": 6.2044364371,
				"y": 0.2919383677,
				"z": 2.8960466276,
				"element": "C" 
			},
			{
				"x": 5.5411348218,
				"y": -0.9709186887,
				"z": 3.0673139315,
				"element": "C" 
			},
			{
				"x": 4.1203086616,
				"y": -0.9860944727,
				"z": 3.2299126677,
				"element": "C" 
			},
			{
				"x": 3.4472258966,
				"y": -2.2336124533,
				"z": 3.4015260089,
				"element": "C" 
			},
			{
				"x": 2.0218000101,
				"y": -2.2186238388,
				"z": 3.5655079671,
				"element": "C" 
			},
			{
				"x": 1.3151779649,
				"y": -1.054534225,
				"z": 3.5558723091,
				"element": "C" 
			},
			{
				"x": 1.9537782456,
				"y": 0.2259903784,
				"z": 3.3799763741,
				"element": "C" 
			},
			{
				"x": 3.3800438792,
				"y": 0.2371406146,
				"z": 3.2197007535,
				"element": "C" 
			},
			{
				"x": 4.1919365187,
				"y": -3.4241628903,
				"z": 3.4078045614,
				"element": "C" 
			},
			{
				"x": 5.576026416,
				"y": -3.3980980246,
				"z": 3.2483243735,
				"element": "C" 
			},
			{
				"x": 6.2443345735,
				"y": -2.1868530962,
				"z": 3.0798257569,
				"element": "C" 
			},
			{
				"x": -0.1220540959,
				"y": -1.4852497518,
				"z": -0.1039628345,
				"element": "H" 
			},
			{
				"x": -1.7221754401,
				"y": -2.1957772172,
				"z": -0.4282060177,
				"element": "H" 
			},
			{
				"x": -0.5522241234,
				"y": -1.9703644129,
				"z": -1.7416790584,
				"element": "H" 
			},
			{
				"x": -2.6235798878,
				"y": 0.9881829738,
				"z": -2.3007865853,
				"element": "H" 
			},
			{
				"x": 0.1545670543,
				"y": 0.4962429529,
				"z": -2.5525932437,
				"element": "H" 
			},
			{
				"x": 0.1055436047,
				"y": -1.3037346017,
				"z": -5.7457866683,
				"element": "H" 
			},
			{
				"x": 1.4062889078,
				"y": -1.7415019099,
				"z": -4.6170803705,
				"element": "H" 
			},
			{
				"x": 1.7889244961,
				"y": -0.8619656347,
				"z": -6.1096098172,
				"element": "H" 
			},
			{
				"x": 2.0649213281,
				"y": 1.7496038719,
				"z": -3.3852873528,
				"element": "H" 
			},
			{
				"x": 2.9538949209,
				"y": 0.9308486258,
				"z": -4.6769668023,
				"element": "H" 
			},
			{
				"x": 2.5296537828,
				"y": 0.0417022365,
				"z": -3.2061918621,
				"element": "H" 
			},
			{
				"x": -0.5790215356,
				"y": 1.1757819333,
				"z": -5.9966655204,
				"element": "H" 
			},
			{
				"x": 0.2620133338,
				"y": 2.4153551659,
				"z": -5.0419886043,
				"element": "H" 
			},
			{
				"x": 1.1106354892,
				"y": 1.5882512088,
				"z": -6.3625513445,
				"element": "H" 
			},
			{
				"x": -4.589117655,
				"y": 0.4299784667,
				"z": -1.0740560782,
				"element": "H" 
			},
			{
				"x": -6.5836989168,
				"y": -1.0089907087,
				"z": -0.8546764806,
				"element": "H" 
			},
			{
				"x": -6.7673743744,
				"y": -4.543141991,
				"z": -2.0278935048,
				"element": "H" 
			},
			{
				"x": -7.5428520032,
				"y": -3.3222616107,
				"z": -1.0048786848,
				"element": "H" 
			},
			{
				"x": -7.7290667516,
				"y": -3.2570237773,
				"z": -2.7578362484,
				"element": "H" 
			},
			{
				"x": -4.6870224241,
				"y": -3.9923370155,
				"z": -3.2900569806,
				"element": "H" 
			},
			{
				"x": -2.7134373879,
				"y": -2.5445238201,
				"z": -3.5358282218,
				"element": "H" 
			},
			{
				"x": -1.2751945165,
				"y": -0.3549910394,
				"z": 1.6440719261,
				"element": "H" 
			},
			{
				"x": 0.20019886,
				"y": 0.3379146041,
				"z": 1.0078509812,
				"element": "H" 
			},
			{
				"x": -0.6252158778,
				"y": 2.6424259999,
				"z": 1.643729298,
				"element": "H" 
			},
			{
				"x": -2.0636851562,
				"y": 1.9263161128,
				"z": 2.3298618197,
				"element": "H" 
			},
			{
				"x": -0.5059975094,
				"y": 2.4083520385,
				"z": 4.1213639496,
				"element": "H" 
			},
			{
				"x": -0.6819845716,
				"y": 0.6754311729,
				"z": 4.0056850493,
				"element": "H" 
			},
			{
				"x": 1.4092806527,
				"y": 3.5837567624,
				"z": 3.1893826578,
				"element": "H" 
			},
			{
				"x": 3.8568534294,
				"y": 3.611490329,
				"z": 2.9135505899,
				"element": "H" 
			},
			{
				"x": 6.0146010622,
				"y": 2.4080577602,
				"z": 2.7565877018,
				"element": "H" 
			},
			{
				"x": 7.2844322724,
				"y": 0.296345044,
				"z": 2.7742295673,
				"element": "H" 
			},
			{
				"x": 1.5083397167,
				"y": -3.1667348407,
				"z": 3.7044937509,
				"element": "H" 
			},
			{
				"x": 0.2402972354,
				"y": -1.0935377252,
				"z": 3.6889596377,
				"element": "H" 
			},
			{
				"x": 3.6746593871,
				"y": -4.3708358661,
				"z": 3.5400828655,
				"element": "H" 
			},
			{
				"x": 6.1378945723,
				"y": -4.3276346577,
				"z": 3.25584855,
				"element": "H" 
			},
			{
				"x": 7.3240169296,
				"y": -2.1726490864,
				"z": 2.9561215664,
				"element": "H" 
			}
		],
		 "valence_orbital": [ 
			{
				"type": "occ",
				"energy": -0.24118,
				"method": "rhf"
			},
			{
				"type": "occ",
				"energy": -0.23624,
				"method": "rhf"
			},
			{
				"type": "occ",
				"energy": -0.23243,
				"method": "rhf"
			},
			{
				"type": "occ",
				"energy": -0.22342,
				"method": "rhf"
			},
			{
				"type": "occ",
				"energy": -0.19893,
				"method": "rhf"
			},
			{
				"type": "unocc",
				"energy": -0.06008,
				"method": "rhf"
			},
			{
				"type": "unocc",
				"energy": -0.02869,
				"method": "rhf"
			},
			{
				"type": "unocc",
				"energy": -0.00818,
				"method": "rhf"
			},
			{
				"type": "unocc",
				"energy": -0.00125,
				"method": "rhf"
			},
			{
				"type": "unocc",
				"energy": 0.0055,
				"method": "rhf"
			}
		],
		"cosmo_sigma_profile": { 
			"-0.025": 0.0,
			"-0.024": 0.0,
			"-0.023": 0.0,
			"-0.022": 0.0,
			"-0.021": 0.0,
			"-0.02": 0.0,
			"-0.019": 0.0,
			"-0.018": 0.0,
			"-0.017": 0.0,
			"-0.016": 0.0,
			"-0.015": 0.0,
			"-0.014": 0.0,
			"-0.013": 0.0,
			"-0.012": 0.0,
			"-0.011": 0.0087959782734,
			"-0.01": 0.820942701515,
			"-0.009": 1.10096860118,
			"-0.008": 1.6766021428,
			"-0.007": 3.30833278493,
			"-0.006": 21.0510383274,
			"-0.005": 38.2446763095,
			"-0.004": 54.5273960594,
			"-0.003": 64.1272375701,
			"-0.002": 57.548716816,
			"-0.001": 49.9826988923,
			"0.0": 54.6890884389,
			"0.001": 46.5986457239,
			"0.002": 29.4799170693,
			"0.003": 40.2718222963,
			"0.004": 46.4478583767,
			"0.005": 25.1663712,
			"0.006": 10.1525196649,
			"0.007": 5.05818867159,
			"0.008": 4.09137806504,
			"0.009": 2.43977382318,
			"0.01": 2.81640317761,
			"0.011": 3.1468231304,
			"0.012": 4.00894121117,
			"0.013": 5.50977094054,
			"0.014": 4.7479182427,
			"0.015": 0.636607794352,
			"0.016": 0.0,
			"0.017": 0.0,
			"0.018": 0.0,
			"0.019": 0.0,
			"0.02": 0.0,
			"0.021": 0.0,
			"0.022": 0.0,
			"0.023": 0.0,
			"0.024": 0.0,
			"0.025": 0.0
		}
	}
}
