{
	 "smiles": "CCOC1=C(OCC)C=C(CO)C=C1", 
	 "Tm": 311.15, 
	 "num_atms": 30, 
	 "gaussian": { 
		 "optdone": 1, 
		 "sigma_profile": "yes", 
		 "theory": "DFT", 
		 "functional": "B3LYP", 
		 "basiset": "6-31G**", 
		 "properties": { 
			 "R2extent": 4093.6568, 
			 "electric_dipole_moment_norm": 1.93569377227, 
			 "electric_quadrupole_moment_norm": 9.99638748049, 
			 "total_energy": -654.460388675, 
			 "HOMO_LUMO_gap": 0.223, 
			 "cosmo_polarized_energy": -9.52, 
			 "cosmo_cavitation_energy": 32.97, 
			 "cosmo_dispersion_energy": -23.03, 
			 "cosmo_repulsion_energy": 1.87, 
			 "cosmo_total_nonelectrostatic_energy": 11.81, 
			 "SMD_solvation_energy": 6.25 
		},
		"coords": [
			{
				"x": -2.9717360511,
				"y": -0.877064725,
				"z": 2.5200982441,
				"element": "C" 
			},
			{
				"x": -2.1525213626,
				"y": -1.3934629351,
				"z": 1.3513301713,
				"element": "C" 
			},
			{
				"x": -1.5130716363,
				"y": -0.2615178628,
				"z": 0.7292994212,
				"element": "O" 
			},
			{
				"x": -0.7348842773,
				"y": -0.5617580353,
				"z": -0.3667475976,
				"element": "C" 
			},
			{
				"x": 0.503480461,
				"y": -1.2187309153,
				"z": -0.2316713792,
				"element": "C" 
			},
			{
				"x": 0.9646808549,
				"y": -1.6381101502,
				"z": 0.9965499518,
				"element": "O" 
			},
			{
				"x": 1.3803015336,
				"y": -0.5841975061,
				"z": 1.8873054882,
				"element": "C" 
			},
			{
				"x": 1.859824342,
				"y": -1.2296177292,
				"z": 3.1746757255,
				"element": "C" 
			},
			{
				"x": 1.2713469386,
				"y": -1.4822009157,
				"z": -1.3663292104,
				"element": "C" 
			},
			{
				"x": 0.8350245975,
				"y": -1.1031031401,
				"z": -2.6406867963,
				"element": "C" 
			},
			{
				"x": 1.6629298549,
				"y": -1.4314149653,
				"z": -3.8687671216,
				"element": "C" 
			},
			{
				"x": 1.5224458293,
				"y": -0.4872964437,
				"z": -4.9212255779,
				"element": "O" 
			},
			{
				"x": -0.3849076473,
				"y": -0.4286294719,
				"z": -2.7633067141,
				"element": "C" 
			},
			{
				"x": -1.1612863571,
				"y": -0.1645069708,
				"z": -1.6349724513,
				"element": "C" 
			},
			{
				"x": -2.3300065619,
				"y": -0.388206328,
				"z": 3.2591638556,
				"element": "H" 
			},
			{
				"x": -3.7162740885,
				"y": -0.1515123412,
				"z": 2.179836307,
				"element": "H" 
			},
			{
				"x": -3.4926948653,
				"y": -1.7057944393,
				"z": 3.0099634511,
				"element": "H" 
			},
			{
				"x": -1.3926426476,
				"y": -2.1108005122,
				"z": 1.6814105806,
				"element": "H" 
			},
			{
				"x": -2.7951486268,
				"y": -1.8914300966,
				"z": 0.6118208573,
				"element": "H" 
			},
			{
				"x": 2.1891458229,
				"y": -0.0125110305,
				"z": 1.4107512701,
				"element": "H" 
			},
			{
				"x": 0.5418087904,
				"y": 0.0971476255,
				"z": 2.0695259951,
				"element": "H" 
			},
			{
				"x": 2.6863586157,
				"y": -1.9185458209,
				"z": 2.9777636121,
				"element": "H" 
			},
			{
				"x": 2.2061758966,
				"y": -0.4622476173,
				"z": 3.8742366078,
				"element": "H" 
			},
			{
				"x": 1.0517852161,
				"y": -1.7918899116,
				"z": 3.652021888,
				"element": "H" 
			},
			{
				"x": 2.2226589031,
				"y": -1.9897827999,
				"z": -1.2286274522,
				"element": "H" 
			},
			{
				"x": 1.3371204166,
				"y": -2.3863032299,
				"z": -4.2991307873,
				"element": "H" 
			},
			{
				"x": 2.717850187,
				"y": -1.560166457,
				"z": -3.5780471456,
				"element": "H" 
			},
			{
				"x": 1.7557132632,
				"y": 0.3797266587,
				"z": -4.5629404906,
				"element": "H" 
			},
			{
				"x": -0.7216514309,
				"y": -0.1187851586,
				"z": -3.7474105274,
				"element": "H" 
			},
			{
				"x": -2.1129259708,
				"y": 0.3521132252,
				"z": -1.7154901754,
				"element": "H" 
			}
		],
		 "valence_orbital": [ 
			{
				"type": "occ",
				"energy": -0.29232,
				"method": "rhf"
			},
			{
				"type": "occ",
				"energy": -0.27265,
				"method": "rhf"
			},
			{
				"type": "occ",
				"energy": -0.25875,
				"method": "rhf"
			},
			{
				"type": "occ",
				"energy": -0.24123,
				"method": "rhf"
			},
			{
				"type": "occ",
				"energy": -0.22357,
				"method": "rhf"
			},
			{
				"type": "unocc",
				"energy": -0.00057,
				"method": "rhf"
			},
			{
				"type": "unocc",
				"energy": 0.00258,
				"method": "rhf"
			},
			{
				"type": "unocc",
				"energy": 0.08316,
				"method": "rhf"
			},
			{
				"type": "unocc",
				"energy": 0.08817,
				"method": "rhf"
			},
			{
				"type": "unocc",
				"energy": 0.10298,
				"method": "rhf"
			}
		],
		"cosmo_sigma_profile": { 
			"-0.025": 0.0,
			"-0.024": 0.0,
			"-0.023": 0.0,
			"-0.022": 0.0,
			"-0.021": 0.0,
			"-0.02": 0.0,
			"-0.019": 0.0,
			"-0.018": 0.0,
			"-0.017": 0.0,
			"-0.016": 0.0605980361267,
			"-0.015": 0.979561017111,
			"-0.014": 0.898381550652,
			"-0.013": 0.35859869804,
			"-0.012": 1.21787681098,
			"-0.011": 0.507382519245,
			"-0.01": 0.992341082097,
			"-0.009": 0.480057829412,
			"-0.008": 1.38157457903,
			"-0.007": 0.790976573008,
			"-0.006": 3.27372290512,
			"-0.005": 9.64646960234,
			"-0.004": 21.7599269666,
			"-0.003": 33.5299896682,
			"-0.002": 32.2610847664,
			"-0.001": 30.183039446,
			"0.0": 27.4131504669,
			"0.001": 19.2077775926,
			"0.002": 11.3639299337,
			"0.003": 12.0683282437,
			"0.004": 12.7386307746,
			"0.005": 9.99577432612,
			"0.006": 4.85000172741,
			"0.007": 3.26523465995,
			"0.008": 3.81281165774,
			"0.009": 2.86900267753,
			"0.01": 3.01774376197,
			"0.011": 3.01706782222,
			"0.012": 2.37426101218,
			"0.013": 1.9659876489,
			"0.014": 1.91925340314,
			"0.015": 0.123598155794,
			"0.016": 0.0,
			"0.017": 0.0,
			"0.018": 0.0,
			"0.019": 0.0,
			"0.02": 0.0,
			"0.021": 0.0,
			"0.022": 0.0,
			"0.023": 0.0,
			"0.024": 0.0,
			"0.025": 0.0
		}
	}
}
