{
	 "smiles": "OC(=O)C1=CC(C=C)=CC=C1", 
	 "Tm": 368.65, 
	 "num_atms": 19, 
	 "gaussian": { 
		 "optdone": 1, 
		 "sigma_profile": "yes", 
		 "theory": "DFT", 
		 "functional": "B3LYP", 
		 "basiset": "6-31G**", 
		 "properties": { 
			 "R2extent": 2497.8339, 
			 "electric_dipole_moment_norm": 4.71844290524, 
			 "electric_quadrupole_moment_norm": 17.1345722263, 
			 "total_energy": -498.216672406, 
			 "HOMO_LUMO_gap": 0.18161, 
			 "cosmo_polarized_energy": -13.95, 
			 "cosmo_cavitation_energy": 23.73, 
			 "cosmo_dispersion_energy": -17.28, 
			 "cosmo_repulsion_energy": 1.37, 
			 "cosmo_total_nonelectrostatic_energy": 7.81, 
			 "SMD_solvation_energy": 5.9 
		},
		"coords": [
			{
				"x": 3.5409934629,
				"y": -1.6568232594,
				"z": 1.7832307417,
				"element": "O" 
			},
			{
				"x": 2.7156212764,
				"y": -1.4602209023,
				"z": 0.7197316058,
				"element": "C" 
			},
			{
				"x": 3.1333105371,
				"y": -1.6117382235,
				"z": -0.4040561735,
				"element": "O" 
			},
			{
				"x": 1.3030769563,
				"y": -1.0594697873,
				"z": 1.028348563,
				"element": "C" 
			},
			{
				"x": 0.3422618017,
				"y": -1.2620897599,
				"z": 0.0312952584,
				"element": "C" 
			},
			{
				"x": -1.0023119278,
				"y": -0.9197594019,
				"z": 0.2277924596,
				"element": "C" 
			},
			{
				"x": -1.9663430141,
				"y": -1.176379701,
				"z": -0.8557435005,
				"element": "C" 
			},
			{
				"x": -3.2883167558,
				"y": -0.9696733438,
				"z": -0.8306362931,
				"element": "C" 
			},
			{
				"x": -1.3622391693,
				"y": -0.3388717029,
				"z": 1.459643542,
				"element": "C" 
			},
			{
				"x": -0.4105895585,
				"y": -0.1120250749,
				"z": 2.4483402027,
				"element": "C" 
			},
			{
				"x": 0.9231786534,
				"y": -0.4710478505,
				"z": 2.2413055814,
				"element": "C" 
			},
			{
				"x": 3.030102343,
				"y": -1.6613336953,
				"z": 2.6043985895,
				"element": "H" 
			},
			{
				"x": 0.6672130611,
				"y": -1.6979385657,
				"z": -0.9083248012,
				"element": "H" 
			},
			{
				"x": -1.5250130579,
				"y": -1.5825711202,
				"z": -1.7647079513,
				"element": "H" 
			},
			{
				"x": -3.8087682493,
				"y": -0.5742621393,
				"z": 0.0367697115,
				"element": "H" 
			},
			{
				"x": -3.9024794944,
				"y": -1.1968635689,
				"z": -1.6955866819,
				"element": "H" 
			},
			{
				"x": -2.3930072685,
				"y": -0.0515614877,
				"z": 1.6413531054,
				"element": "H" 
			},
			{
				"x": -0.7045413352,
				"y": 0.3550709721,
				"z": 3.3834984352,
				"element": "H" 
			},
			{
				"x": 1.6575517388,
				"y": -0.2469413874,
				"z": 3.0111476056,
				"element": "H" 
			}
		],
		 "valence_orbital": [ 
			{
				"type": "occ",
				"energy": -0.31949,
				"method": "rhf"
			},
			{
				"type": "occ",
				"energy": -0.31257,
				"method": "rhf"
			},
			{
				"type": "occ",
				"energy": -0.27781,
				"method": "rhf"
			},
			{
				"type": "occ",
				"energy": -0.26574,
				"method": "rhf"
			},
			{
				"type": "occ",
				"energy": -0.24135,
				"method": "rhf"
			},
			{
				"type": "unocc",
				"energy": -0.05974,
				"method": "rhf"
			},
			{
				"type": "unocc",
				"energy": -0.03621,
				"method": "rhf"
			},
			{
				"type": "unocc",
				"energy": 0.01829,
				"method": "rhf"
			},
			{
				"type": "unocc",
				"energy": 0.05995,
				"method": "rhf"
			},
			{
				"type": "unocc",
				"energy": 0.07322,
				"method": "rhf"
			}
		],
		"cosmo_sigma_profile": { 
			"-0.025": 0.0,
			"-0.024": 0.0,
			"-0.023": 0.0,
			"-0.022": 0.0,
			"-0.021": 0.0,
			"-0.02": 0.0,
			"-0.019": 0.115725972449,
			"-0.018": 0.972330241691,
			"-0.017": 1.04771980281,
			"-0.016": 0.903133183028,
			"-0.015": 0.784939978231,
			"-0.014": 0.649480319082,
			"-0.013": 1.02425202877,
			"-0.012": 1.57811297008,
			"-0.011": 1.22955907407,
			"-0.01": 0.876019666069,
			"-0.009": 1.04321619733,
			"-0.008": 2.94409330927,
			"-0.007": 6.04320429989,
			"-0.006": 12.014366527,
			"-0.005": 13.218348628,
			"-0.004": 9.66293277266,
			"-0.003": 12.8253139996,
			"-0.002": 10.6888294781,
			"-0.001": 10.9329830393,
			"0.0": 10.2652067279,
			"0.001": 13.0184498176,
			"0.002": 14.9868137732,
			"0.003": 19.8912443187,
			"0.004": 8.69222733258,
			"0.005": 5.63521134421,
			"0.006": 3.79256972196,
			"0.007": 2.71552796735,
			"0.008": 3.0503162937,
			"0.009": 3.34394880362,
			"0.01": 4.07331542038,
			"0.011": 5.81503502863,
			"0.012": 4.76092077856,
			"0.013": 1.64350387103,
			"0.014": 0.0795055531441,
			"0.015": 0.0,
			"0.016": 0.0,
			"0.017": 0.0,
			"0.018": 0.0,
			"0.019": 0.0,
			"0.02": 0.0,
			"0.021": 0.0,
			"0.022": 0.0,
			"0.023": 0.0,
			"0.024": 0.0,
			"0.025": 0.0
		}
	}
}
