{
	 "smiles": "NC1=CC=C(NC2=CC=C(C=C2[N+]([O-])=O)[N+]([O-])=O)C=C1", 
	 "Tm": 461.15, 
	 "num_atms": 30, 
	 "gaussian": { 
		 "optdone": 1, 
		 "sigma_profile": "yes", 
		 "theory": "DFT", 
		 "functional": "B3LYP", 
		 "basiset": "6-31G**", 
		 "properties": { 
			 "R2extent": 7209.6446, 
			 "electric_dipole_moment_norm": 8.97788158365, 
			 "electric_quadrupole_moment_norm": 17.1732415516, 
			 "total_energy": -982.997963408, 
			 "HOMO_LUMO_gap": 0.11497, 
			 "cosmo_polarized_energy": -24.15, 
			 "cosmo_cavitation_energy": 36.12, 
			 "cosmo_dispersion_energy": -25.54, 
			 "cosmo_repulsion_energy": 1.95, 
			 "cosmo_total_nonelectrostatic_energy": 12.53, 
			 "SMD_solvation_energy": 10.37 
		},
		"coords": [
			{
				"x": 4.4799270415,
				"y": 1.6566520376,
				"z": -1.3376447123,
				"element": "N" 
			},
			{
				"x": 3.2397379823,
				"y": 1.030031739,
				"z": -1.2760640112,
				"element": "C" 
			},
			{
				"x": 2.4452597032,
				"y": 0.8849013511,
				"z": -2.4276135541,
				"element": "C" 
			},
			{
				"x": 1.1769956719,
				"y": 0.3225818951,
				"z": -2.3501037929,
				"element": "C" 
			},
			{
				"x": 0.6701742014,
				"y": -0.1306559481,
				"z": -1.1277374008,
				"element": "C" 
			},
			{
				"x": -0.5958038031,
				"y": -0.7793070144,
				"z": -1.1075524883,
				"element": "N" 
			},
			{
				"x": -1.5328450493,
				"y": -0.8302892142,
				"z": -0.1116675083,
				"element": "C" 
			},
			{
				"x": -2.3535551194,
				"y": -1.9896039763,
				"z": -0.0405697919,
				"element": "C" 
			},
			{
				"x": -3.2841459665,
				"y": -2.1767290191,
				"z": 0.9582208112,
				"element": "C" 
			},
			{
				"x": -3.4211873233,
				"y": -1.2034087209,
				"z": 1.9573870942,
				"element": "C" 
			},
			{
				"x": -2.6678412589,
				"y": -0.0406246952,
				"z": 1.9216405192,
				"element": "C" 
			},
			{
				"x": -1.7642905988,
				"y": 0.1624691698,
				"z": 0.88241427,
				"element": "C" 
			},
			{
				"x": -1.169152251,
				"y": 1.4996724216,
				"z": 0.8146405219,
				"element": "N" 
			},
			{
				"x": -0.9561362976,
				"y": 1.9669711649,
				"z": -0.3026733815,
				"element": "O" 
			},
			{
				"x": -0.9613008498,
				"y": 2.0861739001,
				"z": 1.8780508407,
				"element": "O" 
			},
			{
				"x": -4.3796089391,
				"y": -1.4056735979,
				"z": 3.0366465319,
				"element": "N" 
			},
			{
				"x": -4.4677924415,
				"y": -0.5307195072,
				"z": 3.8995692849,
				"element": "O" 
			},
			{
				"x": -5.0439745431,
				"y": -2.4449946986,
				"z": 3.018682719,
				"element": "O" 
			},
			{
				"x": 1.463020648,
				"y": -0.0111172453,
				"z": 0.019952573,
				"element": "C" 
			},
			{
				"x": 2.7222751624,
				"y": 0.5720828517,
				"z": -0.0508194533,
				"element": "C" 
			},
			{
				"x": 5.1191220503,
				"y": 1.4500395877,
				"z": -0.5835776505,
				"element": "H" 
			},
			{
				"x": 4.9312372942,
				"y": 1.6600003065,
				"z": -2.2409923297,
				"element": "H" 
			},
			{
				"x": 2.8196380279,
				"y": 1.2354964534,
				"z": -3.3857633201,
				"element": "H" 
			},
			{
				"x": 0.5664440534,
				"y": 0.2427181594,
				"z": -3.2451413383,
				"element": "H" 
			},
			{
				"x": -0.7061569507,
				"y": -1.5001308303,
				"z": -1.8078139336,
				"element": "H" 
			},
			{
				"x": -2.210324126,
				"y": -2.7640466683,
				"z": -0.7892821467,
				"element": "H" 
			},
			{
				"x": -3.8940519749,
				"y": -3.0704179051,
				"z": 1.0017467852,
				"element": "H" 
			},
			{
				"x": -2.7985702986,
				"y": 0.7246763855,
				"z": 2.6750520616,
				"element": "H" 
			},
			{
				"x": 1.1007339643,
				"y": -0.3809951006,
				"z": 0.9744874571,
				"element": "H" 
			},
			{
				"x": 3.3184719907,
				"y": 0.6678467182,
				"z": 0.8527253439,
				"element": "H" 
			}
		],
		 "valence_orbital": [ 
			{
				"type": "occ",
				"energy": -0.28636,
				"method": "rhf"
			},
			{
				"type": "occ",
				"energy": -0.28088,
				"method": "rhf"
			},
			{
				"type": "occ",
				"energy": -0.26422,
				"method": "rhf"
			},
			{
				"type": "occ",
				"energy": -0.25285,
				"method": "rhf"
			},
			{
				"type": "occ",
				"energy": -0.20309,
				"method": "rhf"
			},
			{
				"type": "unocc",
				"energy": -0.08812,
				"method": "rhf"
			},
			{
				"type": "unocc",
				"energy": -0.08264,
				"method": "rhf"
			},
			{
				"type": "unocc",
				"energy": -0.02553,
				"method": "rhf"
			},
			{
				"type": "unocc",
				"energy": -0.01502,
				"method": "rhf"
			},
			{
				"type": "unocc",
				"energy": -0.00286,
				"method": "rhf"
			}
		],
		"cosmo_sigma_profile": { 
			"-0.025": 0.0,
			"-0.024": 0.0,
			"-0.023": 0.0,
			"-0.022": 0.0,
			"-0.021": 0.0,
			"-0.02": 0.0,
			"-0.019": 0.0,
			"-0.018": 0.0,
			"-0.017": 0.0,
			"-0.016": 0.768747291604,
			"-0.015": 1.70660626671,
			"-0.014": 1.32737475668,
			"-0.013": 2.67129259537,
			"-0.012": 4.26301519174,
			"-0.011": 3.95001648192,
			"-0.01": 4.53318308302,
			"-0.009": 5.43562197261,
			"-0.008": 6.96146049556,
			"-0.007": 10.8063962192,
			"-0.006": 15.4172334098,
			"-0.005": 15.1839408074,
			"-0.004": 15.3472295021,
			"-0.003": 15.5615630046,
			"-0.002": 17.3220180189,
			"-0.001": 21.563291838,
			"0.0": 16.723781921,
			"0.001": 13.9822739179,
			"0.002": 9.636471946,
			"0.003": 10.7425006871,
			"0.004": 10.5990169449,
			"0.005": 15.5037184588,
			"0.006": 10.865140349,
			"0.007": 14.6151144971,
			"0.008": 21.3338911621,
			"0.009": 11.7915429701,
			"0.01": 6.72598609341,
			"0.011": 2.03901241455,
			"0.012": 0.690180251766,
			"0.013": 0.574510144422,
			"0.014": 0.297896489641,
			"0.015": 0.0,
			"0.016": 0.0,
			"0.017": 0.0,
			"0.018": 0.0,
			"0.019": 0.0,
			"0.02": 0.0,
			"0.021": 0.0,
			"0.022": 0.0,
			"0.023": 0.0,
			"0.024": 0.0,
			"0.025": 0.0
		}
	}
}
