{
	 "smiles": "COC1=C(Cl)C=C(C=C1Cl)C(O)=O", 
	 "Tm": 426.15, 
	 "num_atms": 19, 
	 "gaussian": { 
		 "optdone": 1, 
		 "sigma_profile": "yes", 
		 "theory": "DFT", 
		 "functional": "B3LYP", 
		 "basiset": "6-31G**", 
		 "properties": { 
			 "R2extent": 4736.1988, 
			 "electric_dipole_moment_norm": 4.34694495134, 
			 "electric_quadrupole_moment_norm": 16.9965671202, 
			 "total_energy": -1454.50809568, 
			 "HOMO_LUMO_gap": 0.20054, 
			 "cosmo_polarized_energy": -14.92, 
			 "cosmo_cavitation_energy": 27.53, 
			 "cosmo_dispersion_energy": -20.14, 
			 "cosmo_repulsion_energy": 1.6, 
			 "cosmo_total_nonelectrostatic_energy": 8.99, 
			 "SMD_solvation_energy": 6.24 
		},
		"coords": [
			{
				"x": -1.0832222488,
				"y": -1.7112099271,
				"z": -0.055198865,
				"element": "C" 
			},
			{
				"x": -0.1034254916,
				"y": -1.0364807776,
				"z": 0.7524664095,
				"element": "O" 
			},
			{
				"x": 0.9031712052,
				"y": -0.4289131919,
				"z": 0.0767041219,
				"element": "C" 
			},
			{
				"x": 0.8076827565,
				"y": 0.918575831,
				"z": -0.3226251949,
				"element": "C" 
			},
			{
				"x": -0.6702571655,
				"y": 1.7924211396,
				"z": 0.0017325159,
				"element": "Cl" 
			},
			{
				"x": 1.8635284524,
				"y": 1.5678618565,
				"z": -0.9497673444,
				"element": "C" 
			},
			{
				"x": 3.047940935,
				"y": 0.8724978865,
				"z": -1.216926447,
				"element": "C" 
			},
			{
				"x": 3.1748772953,
				"y": -0.462945019,
				"z": -0.8181067534,
				"element": "C" 
			},
			{
				"x": 2.1114707206,
				"y": -1.0990561613,
				"z": -0.182866257,
				"element": "C" 
			},
			{
				"x": 2.2888740098,
				"y": -2.7611607801,
				"z": 0.3294543605,
				"element": "Cl" 
			},
			{
				"x": 4.1537335897,
				"y": 1.6317825699,
				"z": -1.8922410264,
				"element": "C" 
			},
			{
				"x": 5.1192689815,
				"y": 0.8964077636,
				"z": -2.5017866849,
				"element": "O" 
			},
			{
				"x": 4.2065390574,
				"y": 2.8379291245,
				"z": -1.9081351679,
				"element": "O" 
			},
			{
				"x": -0.6220440568,
				"y": -2.5171440464,
				"z": -0.6357139035,
				"element": "H" 
			},
			{
				"x": -1.8056676906,
				"y": -2.1324104396,
				"z": 0.6444413595,
				"element": "H" 
			},
			{
				"x": -1.5885315597,
				"y": -1.0079878691,
				"z": -0.7251771543,
				"element": "H" 
			},
			{
				"x": 1.7859275691,
				"y": 2.6098607362,
				"z": -1.2359638918,
				"element": "H" 
			},
			{
				"x": 4.1001297273,
				"y": -1.0143835241,
				"z": -0.950617468,
				"element": "H" 
			},
			{
				"x": 4.8544039132,
				"y": -0.0316451715,
				"z": -2.5631726086,
				"element": "H" 
			}
		],
		 "valence_orbital": [ 
			{
				"type": "occ",
				"energy": -0.32553,
				"method": "rhf"
			},
			{
				"type": "occ",
				"energy": -0.30309,
				"method": "rhf"
			},
			{
				"type": "occ",
				"energy": -0.28744,
				"method": "rhf"
			},
			{
				"type": "occ",
				"energy": -0.27101,
				"method": "rhf"
			},
			{
				"type": "occ",
				"energy": -0.26824,
				"method": "rhf"
			},
			{
				"type": "unocc",
				"energy": -0.0677,
				"method": "rhf"
			},
			{
				"type": "unocc",
				"energy": -0.04491,
				"method": "rhf"
			},
			{
				"type": "unocc",
				"energy": -0.00803,
				"method": "rhf"
			},
			{
				"type": "unocc",
				"energy": 0.0286,
				"method": "rhf"
			},
			{
				"type": "unocc",
				"energy": 0.03732,
				"method": "rhf"
			}
		],
		"cosmo_sigma_profile": { 
			"-0.025": 0.0,
			"-0.024": 0.0,
			"-0.023": 0.0,
			"-0.022": 0.0,
			"-0.021": 0.0,
			"-0.02": 0.229417144598,
			"-0.019": 0.791315057186,
			"-0.018": 1.06765789104,
			"-0.017": 0.902183094359,
			"-0.016": 1.0598475445,
			"-0.015": 0.910534100175,
			"-0.014": 1.71002748168,
			"-0.013": 0.656084980271,
			"-0.012": 1.6178496608,
			"-0.011": 0.941110150961,
			"-0.01": 1.42005850903,
			"-0.009": 1.34528295624,
			"-0.008": 2.2816999653,
			"-0.007": 4.13369566265,
			"-0.006": 5.97765955425,
			"-0.005": 12.265251278,
			"-0.004": 15.8427868218,
			"-0.003": 16.3947380704,
			"-0.002": 14.808439605,
			"-0.001": 21.8384002853,
			"0.0": 22.090140838,
			"0.001": 12.7579795577,
			"0.002": 15.4505419462,
			"0.003": 15.8601136035,
			"0.004": 13.5128673881,
			"0.005": 5.28577352507,
			"0.006": 4.0485348038,
			"0.007": 4.988313755,
			"0.008": 4.68230591691,
			"0.009": 4.90073659352,
			"0.01": 6.83726458723,
			"0.011": 5.31721981319,
			"0.012": 2.71901927108,
			"0.013": 0.540730513215,
			"0.014": 0.0,
			"0.015": 0.0,
			"0.016": 0.0,
			"0.017": 0.0,
			"0.018": 0.0,
			"0.019": 0.0,
			"0.02": 0.0,
			"0.021": 0.0,
			"0.022": 0.0,
			"0.023": 0.0,
			"0.024": 0.0,
			"0.025": 0.0
		}
	}
}
