{
	 "smiles": "CCOC(=O)NC1=CC2=NC3=C(C=CC4=C3COCN4C(=O)OCC)C=C2C=C1", 
	 "Tm": 447.15, 
	 "num_atms": 50, 
	 "gaussian": { 
		 "optdone": 1, 
		 "sigma_profile": "yes", 
		 "theory": "DFT", 
		 "functional": "B3LYP", 
		 "basiset": "6-31G**", 
		 "properties": { 
			 "R2extent": 21538.8642, 
			 "electric_dipole_moment_norm": 2.51425553395, 
			 "electric_quadrupole_moment_norm": 36.5260236959, 
			 "total_energy": -1353.32227463, 
			 "HOMO_LUMO_gap": 0.12917, 
			 "cosmo_polarized_energy": -18.64, 
			 "cosmo_cavitation_energy": 53.31, 
			 "cosmo_dispersion_energy": -38.63, 
			 "cosmo_repulsion_energy": 2.88, 
			 "cosmo_total_nonelectrostatic_energy": 17.56, 
			 "SMD_solvation_energy": 9.32 
		},
		"coords": [
			{
				"x": -8.3053831224,
				"y": -0.1738706816,
				"z": 4.1423446677,
				"element": "C" 
			},
			{
				"x": -7.2589929656,
				"y": 0.8729543021,
				"z": 4.4891463577,
				"element": "C" 
			},
			{
				"x": -5.9918038114,
				"y": 0.5920147522,
				"z": 3.8413809158,
				"element": "O" 
			},
			{
				"x": -5.1925412846,
				"y": -0.2869538691,
				"z": 4.4817672236,
				"element": "C" 
			},
			{
				"x": -5.4602115624,
				"y": -0.8274123231,
				"z": 5.5399956565,
				"element": "O" 
			},
			{
				"x": -4.0035498912,
				"y": -0.5330033493,
				"z": 3.8261196408,
				"element": "N" 
			},
			{
				"x": -3.4094872994,
				"y": -0.0532216468,
				"z": 2.6448349455,
				"element": "C" 
			},
			{
				"x": -2.1078562706,
				"y": -0.4414231815,
				"z": 2.3921714163,
				"element": "C" 
			},
			{
				"x": -1.4225872181,
				"y": -0.0267681737,
				"z": 1.2182986824,
				"element": "C" 
			},
			{
				"x": -0.1543758688,
				"y": -0.4395987644,
				"z": 1.0307946668,
				"element": "N" 
			},
			{
				"x": 0.4923645976,
				"y": -0.0448934935,
				"z": -0.0786272525,
				"element": "C" 
			},
			{
				"x": -0.1072350297,
				"y": 0.8047635913,
				"z": -1.0783267272,
				"element": "C" 
			},
			{
				"x": 0.6641840335,
				"y": 1.1692235655,
				"z": -2.2223468605,
				"element": "C" 
			},
			{
				"x": 1.9456102015,
				"y": 0.7250438531,
				"z": -2.3812795722,
				"element": "C" 
			},
			{
				"x": 2.5480697435,
				"y": -0.1137538338,
				"z": -1.3859176761,
				"element": "C" 
			},
			{
				"x": 1.8442784881,
				"y": -0.4889762108,
				"z": -0.2559503644,
				"element": "C" 
			},
			{
				"x": 2.45764664,
				"y": -1.3591218503,
				"z": 0.8159807635,
				"element": "C" 
			},
			{
				"x": 3.8430883905,
				"y": -1.6092092755,
				"z": 0.5881454776,
				"element": "O" 
			},
			{
				"x": 4.0975277521,
				"y": -1.8648417958,
				"z": -0.7667446431,
				"element": "C" 
			},
			{
				"x": 3.8438623373,
				"y": -0.6650203157,
				"z": -1.5737543263,
				"element": "N" 
			},
			{
				"x": 4.8560595186,
				"y": 0.0258265928,
				"z": -2.2196778894,
				"element": "C" 
			},
			{
				"x": 4.7406129495,
				"y": 1.1217014554,
				"z": -2.7379328314,
				"element": "O" 
			},
			{
				"x": 6.002894673,
				"y": -0.698389226,
				"z": -2.2352068233,
				"element": "O" 
			},
			{
				"x": 7.1422441365,
				"y": -0.058964547,
				"z": -2.8579360667,
				"element": "C" 
			},
			{
				"x": 7.8638716144,
				"y": 0.8626617431,
				"z": -1.8872352636,
				"element": "C" 
			},
			{
				"x": -1.4222632616,
				"y": 1.224151248,
				"z": -0.8678790308,
				"element": "C" 
			},
			{
				"x": -2.1135705956,
				"y": 0.822018722,
				"z": 0.2785263645,
				"element": "C" 
			},
			{
				"x": -3.4563602757,
				"y": 1.2019173279,
				"z": 0.5686015859,
				"element": "C" 
			},
			{
				"x": -4.0949138525,
				"y": 0.7848286195,
				"z": 1.7054626805,
				"element": "C" 
			},
			{
				"x": -8.0156966867,
				"y": -1.1491385608,
				"z": 4.5402795766,
				"element": "H" 
			},
			{
				"x": -8.4353439944,
				"y": -0.2540982576,
				"z": 3.0589788282,
				"element": "H" 
			},
			{
				"x": -9.2678072241,
				"y": 0.1056430983,
				"z": 4.5838323901,
				"element": "H" 
			},
			{
				"x": -7.0948766929,
				"y": 0.9277004889,
				"z": 5.5671287242,
				"element": "H" 
			},
			{
				"x": -7.5351465386,
				"y": 1.8603032681,
				"z": 4.1118747024,
				"element": "H" 
			},
			{
				"x": -3.4353630499,
				"y": -1.1714169003,
				"z": 4.3658918492,
				"element": "H" 
			},
			{
				"x": -1.5641435619,
				"y": -1.0764258605,
				"z": 3.0856721712,
				"element": "H" 
			},
			{
				"x": 0.2110575376,
				"y": 1.803994583,
				"z": -2.9791739194,
				"element": "H" 
			},
			{
				"x": 2.5271149352,
				"y": 1.0059630834,
				"z": -3.2471424454,
				"element": "H" 
			},
			{
				"x": 2.3857866579,
				"y": -0.8687452825,
				"z": 1.7900276819,
				"element": "H" 
			},
			{
				"x": 1.9019979086,
				"y": -2.3068336544,
				"z": 0.8965406492,
				"element": "H" 
			},
			{
				"x": 3.446408355,
				"y": -2.6683146621,
				"z": -1.1433905252,
				"element": "H" 
			},
			{
				"x": 5.1396688617,
				"y": -2.1499053985,
				"z": -0.865671079,
				"element": "H" 
			},
			{
				"x": 6.7998872113,
				"y": 0.4855534171,
				"z": -3.7404989211,
				"element": "H" 
			},
			{
				"x": 7.7770868778,
				"y": -0.8924754539,
				"z": -3.1680629204,
				"element": "H" 
			},
			{
				"x": 7.2187238322,
				"y": 1.6963924051,
				"z": -1.6001097218,
				"element": "H" 
			},
			{
				"x": 8.1676493801,
				"y": 0.3210879068,
				"z": -0.9865702593,
				"element": "H" 
			},
			{
				"x": 8.7620185861,
				"y": 1.2709884029,
				"z": -2.3626653388,
				"element": "H" 
			},
			{
				"x": -1.9098014122,
				"y": 1.8665499267,
				"z": -1.598590309,
				"element": "H" 
			},
			{
				"x": -3.9823733684,
				"y": 1.8377719046,
				"z": -0.1390140286,
				"element": "H" 
			},
			{
				"x": -5.1137303809,
				"y": 1.0813223107,
				"z": 1.9034071773,
				"element": "H" 
			}
		],
		 "valence_orbital": [ 
			{
				"type": "occ",
				"energy": -0.2595,
				"method": "rhf"
			},
			{
				"type": "occ",
				"energy": -0.25396,
				"method": "rhf"
			},
			{
				"type": "occ",
				"energy": -0.25022,
				"method": "rhf"
			},
			{
				"type": "occ",
				"energy": -0.21975,
				"method": "rhf"
			},
			{
				"type": "occ",
				"energy": -0.20304,
				"method": "rhf"
			},
			{
				"type": "unocc",
				"energy": -0.07387,
				"method": "rhf"
			},
			{
				"type": "unocc",
				"energy": -0.02032,
				"method": "rhf"
			},
			{
				"type": "unocc",
				"energy": -0.00063,
				"method": "rhf"
			},
			{
				"type": "unocc",
				"energy": 0.02903,
				"method": "rhf"
			},
			{
				"type": "unocc",
				"energy": 0.03211,
				"method": "rhf"
			}
		],
		"cosmo_sigma_profile": { 
			"-0.025": 0.0,
			"-0.024": 0.0,
			"-0.023": 0.0,
			"-0.022": 0.0,
			"-0.021": 0.0,
			"-0.02": 0.0,
			"-0.019": 0.0,
			"-0.018": 0.0,
			"-0.017": 0.0,
			"-0.016": 0.00447402187968,
			"-0.015": 0.732915399836,
			"-0.014": 0.962404772598,
			"-0.013": 1.15398191319,
			"-0.012": 1.13170488296,
			"-0.011": 1.32881758245,
			"-0.01": 1.04146202743,
			"-0.009": 0.810867603584,
			"-0.008": 1.60542159257,
			"-0.007": 9.17621802731,
			"-0.006": 18.0488522616,
			"-0.005": 25.1476875207,
			"-0.004": 36.1972830882,
			"-0.003": 36.5345273717,
			"-0.002": 35.9053229913,
			"-0.001": 36.5094156849,
			"0.0": 40.5193285666,
			"0.001": 37.1159137606,
			"0.002": 39.0054737879,
			"0.003": 27.0031905839,
			"0.004": 18.1606736105,
			"0.005": 8.47011043769,
			"0.006": 6.25212644536,
			"0.007": 6.44525984013,
			"0.008": 5.68217765568,
			"0.009": 4.66898096106,
			"0.01": 5.69544461515,
			"0.011": 6.4749779992,
			"0.012": 8.52285102311,
			"0.013": 3.77388773921,
			"0.014": 0.0092477326691,
			"0.015": 0.0,
			"0.016": 0.0,
			"0.017": 0.0,
			"0.018": 0.0,
			"0.019": 0.0,
			"0.02": 0.0,
			"0.021": 0.0,
			"0.022": 0.0,
			"0.023": 0.0,
			"0.024": 0.0,
			"0.025": 0.0
		}
	}
}
