{
	 "smiles": "OCCNC(=O)C=CC1=CC=CC=C1", 
	 "Tm": 374.15, 
	 "num_atms": 27, 
	 "gaussian": { 
		 "optdone": 1, 
		 "sigma_profile": "yes", 
		 "theory": "DFT", 
		 "functional": "B3LYP", 
		 "basiset": "6-31G**", 
		 "properties": { 
			 "R2extent": 4439.3789, 
			 "electric_dipole_moment_norm": 3.36470629625, 
			 "electric_quadrupole_moment_norm": 15.1937389957, 
			 "total_energy": -632.193433587, 
			 "HOMO_LUMO_gap": 0.17155, 
			 "cosmo_polarized_energy": -16.98, 
			 "cosmo_cavitation_energy": 31.51, 
			 "cosmo_dispersion_energy": -22.52, 
			 "cosmo_repulsion_energy": 1.81, 
			 "cosmo_total_nonelectrostatic_energy": 10.8, 
			 "SMD_solvation_energy": 5.59 
		},
		"coords": [
			{
				"x": 1.7795175216,
				"y": -0.6335915629,
				"z": -4.4016888242,
				"element": "O" 
			},
			{
				"x": 1.5188375761,
				"y": -1.5424717301,
				"z": -3.3434824023,
				"element": "C" 
			},
			{
				"x": 2.4759563644,
				"y": -1.1838356861,
				"z": -2.2035626816,
				"element": "C" 
			},
			{
				"x": 2.3394170249,
				"y": -2.0510900232,
				"z": -1.0461606213,
				"element": "N" 
			},
			{
				"x": 1.4118248566,
				"y": -2.0079788748,
				"z": -0.02855058,
				"element": "C" 
			},
			{
				"x": 1.3809112087,
				"y": -2.9038377815,
				"z": 0.8142011823,
				"element": "O" 
			},
			{
				"x": 0.4846383395,
				"y": -0.8440835441,
				"z": 0.0061475324,
				"element": "C" 
			},
			{
				"x": -0.4446896602,
				"y": -0.7735256454,
				"z": 0.9763463942,
				"element": "C" 
			},
			{
				"x": -1.4443908001,
				"y": 0.273877904,
				"z": 1.19269291,
				"element": "C" 
			},
			{
				"x": -2.344878792,
				"y": 0.1311950482,
				"z": 2.2643963771,
				"element": "C" 
			},
			{
				"x": -3.3194724053,
				"y": 1.0940779879,
				"z": 2.5201731383,
				"element": "C" 
			},
			{
				"x": -3.4135392405,
				"y": 2.2242817709,
				"z": 1.7072459106,
				"element": "C" 
			},
			{
				"x": -2.5254379731,
				"y": 2.3833766321,
				"z": 0.6380469408,
				"element": "C" 
			},
			{
				"x": -1.5532296851,
				"y": 1.4218549955,
				"z": 0.3832668174,
				"element": "C" 
			},
			{
				"x": 1.1957037604,
				"y": -0.8480387892,
				"z": -5.1390634984,
				"element": "H" 
			},
			{
				"x": 0.4803546435,
				"y": -1.4703595333,
				"z": -2.9833036577,
				"element": "H" 
			},
			{
				"x": 1.6896779342,
				"y": -2.5885125298,
				"z": -3.6441862328,
				"element": "H" 
			},
			{
				"x": 2.3260779044,
				"y": -0.1375434317,
				"z": -1.9224860462,
				"element": "H" 
			},
			{
				"x": 3.504094968,
				"y": -1.2572087518,
				"z": -2.5710061008,
				"element": "H" 
			},
			{
				"x": 2.9021414049,
				"y": -2.8907315027,
				"z": -1.0137952269,
				"element": "H" 
			},
			{
				"x": 0.570701769,
				"y": -0.0724327412,
				"z": -0.7514341909,
				"element": "H" 
			},
			{
				"x": -0.4512172383,
				"y": -1.6001307921,
				"z": 1.6852106822,
				"element": "H" 
			},
			{
				"x": -2.2726117128,
				"y": -0.7482777139,
				"z": 2.8988056417,
				"element": "H" 
			},
			{
				"x": -4.0038294671,
				"y": 0.9622534111,
				"z": 3.353233306,
				"element": "H" 
			},
			{
				"x": -4.1710145551,
				"y": 2.9775708144,
				"z": 1.9033318123,
				"element": "H" 
			},
			{
				"x": -2.5927702586,
				"y": 3.2621365262,
				"z": 0.0029895101,
				"element": "H" 
			},
			{
				"x": -0.8707734881,
				"y": 1.5638255436,
				"z": -0.4491680924,
				"element": "H" 
			}
		],
		 "valence_orbital": [ 
			{
				"type": "occ",
				"energy": -0.27871,
				"method": "rhf"
			},
			{
				"type": "occ",
				"energy": -0.25691,
				"method": "rhf"
			},
			{
				"type": "occ",
				"energy": -0.24549,
				"method": "rhf"
			},
			{
				"type": "occ",
				"energy": -0.24218,
				"method": "rhf"
			},
			{
				"type": "occ",
				"energy": -0.22866,
				"method": "rhf"
			},
			{
				"type": "unocc",
				"energy": -0.05711,
				"method": "rhf"
			},
			{
				"type": "unocc",
				"energy": -0.00584,
				"method": "rhf"
			},
			{
				"type": "unocc",
				"energy": 0.02923,
				"method": "rhf"
			},
			{
				"type": "unocc",
				"energy": 0.06579,
				"method": "rhf"
			},
			{
				"type": "unocc",
				"energy": 0.08113,
				"method": "rhf"
			}
		],
		"cosmo_sigma_profile": { 
			"-0.025": 0.0,
			"-0.024": 0.0,
			"-0.023": 0.0,
			"-0.022": 0.0,
			"-0.021": 0.0,
			"-0.02": 0.0,
			"-0.019": 0.0,
			"-0.018": 0.0,
			"-0.017": 0.0,
			"-0.016": 0.62839645388,
			"-0.015": 1.33360869153,
			"-0.014": 0.83016103742,
			"-0.013": 1.88073075359,
			"-0.012": 2.37439007997,
			"-0.011": 1.67498140308,
			"-0.01": 1.74672129149,
			"-0.009": 1.66795841311,
			"-0.008": 4.24604253713,
			"-0.007": 6.17871078226,
			"-0.006": 15.8532195683,
			"-0.005": 17.2558062499,
			"-0.004": 21.9538321287,
			"-0.003": 19.5833211619,
			"-0.002": 17.3608986259,
			"-0.001": 13.6993440212,
			"0.0": 12.0891755353,
			"0.001": 13.0843010294,
			"0.002": 14.2936708298,
			"0.003": 18.8074980581,
			"0.004": 17.0346990558,
			"0.005": 12.3384799023,
			"0.006": 4.01853475323,
			"0.007": 2.09665462221,
			"0.008": 2.86083055353,
			"0.009": 2.90307862701,
			"0.01": 2.12103398911,
			"0.011": 2.59455886438,
			"0.012": 3.4563479335,
			"0.013": 3.87023051691,
			"0.014": 6.92600725789,
			"0.015": 2.76595127131,
			"0.016": 0.0127332138722,
			"0.017": 0.0,
			"0.018": 0.0,
			"0.019": 0.0,
			"0.02": 0.0,
			"0.021": 0.0,
			"0.022": 0.0,
			"0.023": 0.0,
			"0.024": 0.0,
			"0.025": 0.0
		}
	}
}
