{
	 "smiles": "CCC1=NC2=C(S1)C(O)CCC2", 
	 "Tm": 349.15, 
	 "num_atms": 25, 
	 "gaussian": { 
		 "optdone": 1, 
		 "sigma_profile": "yes", 
		 "theory": "DFT", 
		 "functional": "B3LYP", 
		 "basiset": "6-31G**", 
		 "properties": { 
			 "R2extent": 3538.4391, 
			 "electric_dipole_moment_norm": 1.3594630006, 
			 "electric_quadrupole_moment_norm": 7.65633844602, 
			 "total_energy": -878.962687649, 
			 "HOMO_LUMO_gap": 0.20568, 
			 "cosmo_polarized_energy": -8.59, 
			 "cosmo_cavitation_energy": 28.3, 
			 "cosmo_dispersion_energy": -21.35, 
			 "cosmo_repulsion_energy": 1.69, 
			 "cosmo_total_nonelectrostatic_energy": 8.65, 
			 "SMD_solvation_energy": 2.02 
		},
		"coords": [
			{
				"x": -1.2758325077,
				"y": 3.0420283201,
				"z": -0.5545761273,
				"element": "C" 
			},
			{
				"x": -1.4979553698,
				"y": 1.8566697073,
				"z": -1.5117257481,
				"element": "C" 
			},
			{
				"x": -0.3872314781,
				"y": 0.8457895854,
				"z": -1.4523304217,
				"element": "C" 
			},
			{
				"x": 0.7077355766,
				"y": 0.9164333041,
				"z": -2.1516787292,
				"element": "N" 
			},
			{
				"x": 1.5693327952,
				"y": -0.1216100176,
				"z": -1.8613714885,
				"element": "C" 
			},
			{
				"x": 1.1415054503,
				"y": -1.0078529493,
				"z": -0.9090789255,
				"element": "C" 
			},
			{
				"x": -0.43993263,
				"y": -0.5275248587,
				"z": -0.3406885664,
				"element": "S" 
			},
			{
				"x": 1.8920820273,
				"y": -2.2298810751,
				"z": -0.4510493459,
				"element": "C" 
			},
			{
				"x": 1.402066538,
				"y": -3.433165923,
				"z": -1.0591004098,
				"element": "O" 
			},
			{
				"x": 3.3667022571,
				"y": -2.0967621139,
				"z": -0.859829865,
				"element": "C" 
			},
			{
				"x": 3.5065702483,
				"y": -1.645255407,
				"z": -2.3214381372,
				"element": "C" 
			},
			{
				"x": 2.9048778115,
				"y": -0.2467182712,
				"z": -2.5426546844,
				"element": "C" 
			},
			{
				"x": -2.0886995834,
				"y": 3.7688199289,
				"z": -0.6501093307,
				"element": "H" 
			},
			{
				"x": -0.3332023091,
				"y": 3.5468724331,
				"z": -0.7836490162,
				"element": "H" 
			},
			{
				"x": -1.2385052425,
				"y": 2.7082011344,
				"z": 0.4871226585,
				"element": "H" 
			},
			{
				"x": -2.4552411507,
				"y": 1.3722796041,
				"z": -1.2898523057,
				"element": "H" 
			},
			{
				"x": -1.5469824448,
				"y": 2.2200782591,
				"z": -2.5432072463,
				"element": "H" 
			},
			{
				"x": 1.824870558,
				"y": -2.3211582285,
				"z": 0.6442561203,
				"element": "H" 
			},
			{
				"x": 0.436706862,
				"y": -3.4053746933,
				"z": -1.0485871733,
				"element": "H" 
			},
			{
				"x": 3.84609053,
				"y": -3.0687891538,
				"z": -0.7063615765,
				"element": "H" 
			},
			{
				"x": 3.855029364,
				"y": -1.3777479036,
				"z": -0.1899404201,
				"element": "H" 
			},
			{
				"x": 2.9857716282,
				"y": -2.3719621242,
				"z": -2.9545766515,
				"element": "H" 
			},
			{
				"x": 4.5598849944,
				"y": -1.6507272705,
				"z": -2.6209851605,
				"element": "H" 
			},
			{
				"x": 3.5796298867,
				"y": 0.5270876716,
				"z": -2.1481148658,
				"element": "H" 
			},
			{
				"x": 2.7898261884,
				"y": -0.0312299584,
				"z": -3.6107725831,
				"element": "H" 
			}
		],
		 "valence_orbital": [ 
			{
				"type": "occ",
				"energy": -0.31435,
				"method": "rhf"
			},
			{
				"type": "occ",
				"energy": -0.27697,
				"method": "rhf"
			},
			{
				"type": "occ",
				"energy": -0.27478,
				"method": "rhf"
			},
			{
				"type": "occ",
				"energy": -0.26199,
				"method": "rhf"
			},
			{
				"type": "occ",
				"energy": -0.22869,
				"method": "rhf"
			},
			{
				"type": "unocc",
				"energy": -0.02301,
				"method": "rhf"
			},
			{
				"type": "unocc",
				"energy": 0.01265,
				"method": "rhf"
			},
			{
				"type": "unocc",
				"energy": 0.04496,
				"method": "rhf"
			},
			{
				"type": "unocc",
				"energy": 0.08896,
				"method": "rhf"
			},
			{
				"type": "unocc",
				"energy": 0.09685,
				"method": "rhf"
			}
		],
		"cosmo_sigma_profile": { 
			"-0.025": 0.0,
			"-0.024": 0.0,
			"-0.023": 0.0,
			"-0.022": 0.0,
			"-0.021": 0.0,
			"-0.02": 0.0,
			"-0.019": 0.0,
			"-0.018": 0.0,
			"-0.017": 0.0,
			"-0.016": 0.0,
			"-0.015": 0.198040825468,
			"-0.014": 0.660072906857,
			"-0.013": 0.656845837044,
			"-0.012": 1.22868872908,
			"-0.011": 0.81198506372,
			"-0.01": 1.54003136903,
			"-0.009": 0.468046961009,
			"-0.008": 1.10427801532,
			"-0.007": 1.34204337973,
			"-0.006": 1.74683504405,
			"-0.005": 7.05015403622,
			"-0.004": 15.7181190615,
			"-0.003": 26.5466817242,
			"-0.002": 30.3864909672,
			"-0.001": 31.2300393601,
			"0.0": 25.9329161818,
			"0.001": 16.7719753844,
			"0.002": 13.8438902504,
			"0.003": 11.5269235786,
			"0.004": 7.11535073198,
			"0.005": 3.96850329621,
			"0.006": 3.33977434992,
			"0.007": 2.57900060491,
			"0.008": 3.36134902819,
			"0.009": 2.31407039593,
			"0.01": 2.02579831843,
			"0.011": 1.79074697954,
			"0.012": 2.40836300075,
			"0.013": 2.29826908645,
			"0.014": 2.0981583589,
			"0.015": 0.70619103691,
			"0.016": 0.492686856927,
			"0.017": 0.00776322622707,
			"0.018": 0.0,
			"0.019": 0.0,
			"0.02": 0.0,
			"0.021": 0.0,
			"0.022": 0.0,
			"0.023": 0.0,
			"0.024": 0.0,
			"0.025": 0.0
		}
	}
}
