{
	 "smiles": "OC1=CC(F)=CC=C1", 
	 "Tm": 284.95, 
	 "num_atms": 13, 
	 "gaussian": { 
		 "optdone": 1, 
		 "sigma_profile": "yes", 
		 "theory": "DFT", 
		 "functional": "B3LYP", 
		 "basiset": "6-31G**", 
		 "properties": { 
			 "R2extent": 1341.328, 
			 "electric_dipole_moment_norm": 2.63732174374, 
			 "electric_quadrupole_moment_norm": 8.00785704355, 
			 "total_energy": -406.703869137, 
			 "HOMO_LUMO_gap": 0.22354, 
			 "cosmo_polarized_energy": -7.83, 
			 "cosmo_cavitation_energy": 17.59, 
			 "cosmo_dispersion_energy": -13.17, 
			 "cosmo_repulsion_energy": 1.07, 
			 "cosmo_total_nonelectrostatic_energy": 5.49, 
			 "SMD_solvation_energy": 4.0 
		},
		"coords": [
			{
				"x": -0.7268010251,
				"y": -0.7553179863,
				"z": -2.2758904975,
				"element": "O" 
			},
			{
				"x": -1.1763859295,
				"y": -0.8047066519,
				"z": -0.9885518957,
				"element": "C" 
			},
			{
				"x": -0.2188583118,
				"y": -0.6723562121,
				"z": 0.0228923399,
				"element": "C" 
			},
			{
				"x": -0.6449514814,
				"y": -0.7184287268,
				"z": 1.3425363818,
				"element": "C" 
			},
			{
				"x": 0.2786328703,
				"y": -0.590741892,
				"z": 2.3177893671,
				"element": "F" 
			},
			{
				"x": -1.9793410427,
				"y": -0.8900744892,
				"z": 1.7005773677,
				"element": "C" 
			},
			{
				"x": -2.9155630247,
				"y": -1.019756277,
				"z": 0.6751560673,
				"element": "C" 
			},
			{
				"x": -2.5278818329,
				"y": -0.9788400595,
				"z": -0.664792322,
				"element": "C" 
			},
			{
				"x": -1.4760378336,
				"y": -0.8574832151,
				"z": -2.876863833,
				"element": "H" 
			},
			{
				"x": 0.8280177261,
				"y": -0.5374299045,
				"z": -0.2208901585,
				"element": "H" 
			},
			{
				"x": -2.2597536627,
				"y": -0.9191169378,
				"z": 2.7468754506,
				"element": "H" 
			},
			{
				"x": -3.964373683,
				"y": -1.154932264,
				"z": 0.9219454402,
				"element": "H" 
			},
			{
				"x": -3.2681027691,
				"y": -1.081215384,
				"z": -1.4546837079,
				"element": "H" 
			}
		],
		 "valence_orbital": [ 
			{
				"type": "occ",
				"energy": -0.36962,
				"method": "rhf"
			},
			{
				"type": "occ",
				"energy": -0.34964,
				"method": "rhf"
			},
			{
				"type": "occ",
				"energy": -0.33131,
				"method": "rhf"
			},
			{
				"type": "occ",
				"energy": -0.2492,
				"method": "rhf"
			},
			{
				"type": "occ",
				"energy": -0.22779,
				"method": "rhf"
			},
			{
				"type": "unocc",
				"energy": -0.00425,
				"method": "rhf"
			},
			{
				"type": "unocc",
				"energy": 0.01093,
				"method": "rhf"
			},
			{
				"type": "unocc",
				"energy": 0.06565,
				"method": "rhf"
			},
			{
				"type": "unocc",
				"energy": 0.08696,
				"method": "rhf"
			},
			{
				"type": "unocc",
				"energy": 0.14497,
				"method": "rhf"
			}
		],
		"cosmo_sigma_profile": { 
			"-0.025": 0.0,
			"-0.024": 0.0,
			"-0.023": 0.0,
			"-0.022": 0.0,
			"-0.021": 0.0,
			"-0.02": 0.0,
			"-0.019": 0.0,
			"-0.018": 0.55727636515,
			"-0.017": 1.02408760641,
			"-0.016": 1.31176066089,
			"-0.015": 0.96664828176,
			"-0.014": 1.39870267936,
			"-0.013": 0.703750788534,
			"-0.012": 0.431355482832,
			"-0.011": 1.04679499558,
			"-0.01": 1.29759355055,
			"-0.009": 1.24723330018,
			"-0.008": 1.08370097557,
			"-0.007": 3.81329750669,
			"-0.006": 7.1765096761,
			"-0.005": 6.19927263347,
			"-0.004": 8.87342724729,
			"-0.003": 5.72329969305,
			"-0.002": 5.99792936905,
			"-0.001": 5.19717106153,
			"0.0": 6.51722993801,
			"0.001": 10.0031317969,
			"0.002": 12.1771824804,
			"0.003": 15.4644276587,
			"0.004": 20.5743399649,
			"0.005": 12.6112018831,
			"0.006": 1.8721945359,
			"0.007": 0.756436935793,
			"0.008": 1.05865497312,
			"0.009": 2.18527334749,
			"0.01": 1.70293357346,
			"0.011": 1.55465852344,
			"0.012": 0.331492919784,
			"0.013": 0.0,
			"0.014": 0.0,
			"0.015": 0.0,
			"0.016": 0.0,
			"0.017": 0.0,
			"0.018": 0.0,
			"0.019": 0.0,
			"0.02": 0.0,
			"0.021": 0.0,
			"0.022": 0.0,
			"0.023": 0.0,
			"0.024": 0.0,
			"0.025": 0.0
		}
	}
}
