{
	 "smiles": "C(OC1=CC(OCC2CO2)=CC=C1)C1CO1", 
	 "Tm": 315.65, 
	 "num_atms": 30, 
	 "gaussian": { 
		 "optdone": 1, 
		 "sigma_profile": "yes", 
		 "theory": "DFT", 
		 "functional": "B3LYP", 
		 "basiset": "6-31G**", 
		 "properties": { 
			 "R2extent": 4896.4426, 
			 "electric_dipole_moment_norm": 1.69742029563, 
			 "electric_quadrupole_moment_norm": 5.79457394206, 
			 "total_energy": -766.484729665, 
			 "HOMO_LUMO_gap": 0.21575, 
			 "cosmo_polarized_energy": -13.37, 
			 "cosmo_cavitation_energy": 34.16, 
			 "cosmo_dispersion_energy": -23.92, 
			 "cosmo_repulsion_energy": 1.9, 
			 "cosmo_total_nonelectrostatic_energy": 12.14, 
			 "SMD_solvation_energy": 6.08 
		},
		"coords": [
			{
				"x": 1.3185869349,
				"y": -1.5232422145,
				"z": -0.2243064979,
				"element": "C" 
			},
			{
				"x": 0.275860977,
				"y": -2.1431992376,
				"z": -0.9630980736,
				"element": "O" 
			},
			{
				"x": -0.754080218,
				"y": -1.3722815724,
				"z": -1.4305431003,
				"element": "C" 
			},
			{
				"x": -0.8758051591,
				"y": -0.0005522446,
				"z": -1.168413188,
				"element": "C" 
			},
			{
				"x": -1.972295593,
				"y": 0.6979645484,
				"z": -1.6929552507,
				"element": "C" 
			},
			{
				"x": -2.1872029628,
				"y": 2.0387678583,
				"z": -1.5129526515,
				"element": "O" 
			},
			{
				"x": -1.2145372885,
				"y": 2.8502585177,
				"z": -0.8650934654,
				"element": "C" 
			},
			{
				"x": -1.3082803001,
				"y": 2.7824442855,
				"z": 0.6496312588,
				"element": "C" 
			},
			{
				"x": -0.2008737871,
				"y": 2.3415801614,
				"z": 1.5118179344,
				"element": "C" 
			},
			{
				"x": -0.483685668,
				"y": 3.733479201,
				"z": 1.3308116277,
				"element": "O" 
			},
			{
				"x": -2.938240801,
				"y": 0.0362859048,
				"z": -2.4585126621,
				"element": "C" 
			},
			{
				"x": -2.7985092127,
				"y": -1.3289017355,
				"z": -2.6984695433,
				"element": "C" 
			},
			{
				"x": -1.7142084379,
				"y": -2.0432570491,
				"z": -2.1952963805,
				"element": "C" 
			},
			{
				"x": 2.3472482399,
				"y": -2.5856759167,
				"z": 0.0777309298,
				"element": "C" 
			},
			{
				"x": 2.343960022,
				"y": -3.3092851871,
				"z": 1.3549796665,
				"element": "C" 
			},
			{
				"x": 3.2734063381,
				"y": -2.2429339943,
				"z": 1.1115413336,
				"element": "O" 
			},
			{
				"x": 0.9454342248,
				"y": -1.0965163324,
				"z": 0.7173742134,
				"element": "H" 
			},
			{
				"x": 1.777963488,
				"y": -0.7126021089,
				"z": -0.8085792109,
				"element": "H" 
			},
			{
				"x": -0.1470460604,
				"y": 0.5082079821,
				"z": -0.5554688881,
				"element": "H" 
			},
			{
				"x": -1.4519518665,
				"y": 3.8725366541,
				"z": -1.1748054432,
				"element": "H" 
			},
			{
				"x": -0.1989460273,
				"y": 2.6214155918,
				"z": -1.2127809414,
				"element": "H" 
			},
			{
				"x": -2.3294324826,
				"y": 2.7024535783,
				"z": 1.0278325588,
				"element": "H" 
			},
			{
				"x": 0.7323204856,
				"y": 1.997980579,
				"z": 1.0630395283,
				"element": "H" 
			},
			{
				"x": -0.4109618092,
				"y": 1.9431111472,
				"z": 2.5044187845,
				"element": "H" 
			},
			{
				"x": -3.7733997104,
				"y": 0.6043290228,
				"z": -2.8524587615,
				"element": "H" 
			},
			{
				"x": -3.5466286934,
				"y": -1.84454066,
				"z": -3.2936235961,
				"element": "H" 
			},
			{
				"x": -1.5925023537,
				"y": -3.1050931684,
				"z": -2.3772267036,
				"element": "H" 
			},
			{
				"x": 2.78475393,
				"y": -3.0688669083,
				"z": -0.7971677635,
				"element": "H" 
			},
			{
				"x": 1.567879562,
				"y": -3.0961873308,
				"z": 2.0901036103,
				"element": "H" 
			},
			{
				"x": 2.7801742296,
				"y": -4.3058793717,
				"z": 1.4104706755,
				"element": "H" 
			}
		],
		 "valence_orbital": [ 
			{
				"type": "occ",
				"energy": -0.30178,
				"method": "rhf"
			},
			{
				"type": "occ",
				"energy": -0.27994,
				"method": "rhf"
			},
			{
				"type": "occ",
				"energy": -0.27734,
				"method": "rhf"
			},
			{
				"type": "occ",
				"energy": -0.24114,
				"method": "rhf"
			},
			{
				"type": "occ",
				"energy": -0.21222,
				"method": "rhf"
			},
			{
				"type": "unocc",
				"energy": 0.00353,
				"method": "rhf"
			},
			{
				"type": "unocc",
				"energy": 0.01269,
				"method": "rhf"
			},
			{
				"type": "unocc",
				"energy": 0.06405,
				"method": "rhf"
			},
			{
				"type": "unocc",
				"energy": 0.0785,
				"method": "rhf"
			},
			{
				"type": "unocc",
				"energy": 0.08202,
				"method": "rhf"
			}
		],
		"cosmo_sigma_profile": { 
			"-0.025": 0.0,
			"-0.024": 0.0,
			"-0.023": 0.0,
			"-0.022": 0.0,
			"-0.021": 0.0,
			"-0.02": 0.0,
			"-0.019": 0.0,
			"-0.018": 0.0,
			"-0.017": 0.0,
			"-0.016": 0.0,
			"-0.015": 0.0,
			"-0.014": 0.0,
			"-0.013": 0.0,
			"-0.012": 0.0,
			"-0.011": 0.0,
			"-0.01": 0.0887577817515,
			"-0.009": 1.08813841562,
			"-0.008": 2.41326479372,
			"-0.007": 9.15667038685,
			"-0.006": 26.5022663545,
			"-0.005": 28.3229623167,
			"-0.004": 25.6587738571,
			"-0.003": 21.503365675,
			"-0.002": 15.4632830028,
			"-0.001": 13.9512612732,
			"0.0": 13.9163291419,
			"0.001": 9.63446467897,
			"0.002": 11.6931551304,
			"0.003": 14.5150085369,
			"0.004": 16.39298047,
			"0.005": 15.273102406,
			"0.006": 11.1942202536,
			"0.007": 6.40219282629,
			"0.008": 5.05893739888,
			"0.009": 5.89354863076,
			"0.01": 5.51019743985,
			"0.011": 7.11888729689,
			"0.012": 3.78871257641,
			"0.013": 0.21269130996,
			"0.014": 0.0,
			"0.015": 0.0,
			"0.016": 0.0,
			"0.017": 0.0,
			"0.018": 0.0,
			"0.019": 0.0,
			"0.02": 0.0,
			"0.021": 0.0,
			"0.022": 0.0,
			"0.023": 0.0,
			"0.024": 0.0,
			"0.025": 0.0
		}
	}
}
