{
	 "smiles": "CCOC(=O)C1CC(=O)NN1C1=C(Cl)C=CC=N1", 
	 "Tm": 409.15, 
	 "num_atms": 30, 
	 "gaussian": { 
		 "optdone": 1, 
		 "sigma_profile": "yes", 
		 "theory": "DFT", 
		 "functional": "B3LYP", 
		 "basiset": "6-31G**", 
		 "properties": { 
			 "R2extent": 5593.452, 
			 "electric_dipole_moment_norm": 5.11305856411, 
			 "electric_quadrupole_moment_norm": 28.9960053918, 
			 "total_energy": -1276.49795479, 
			 "HOMO_LUMO_gap": 0.1725, 
			 "cosmo_polarized_energy": -16.74, 
			 "cosmo_cavitation_energy": 36.0, 
			 "cosmo_dispersion_energy": -25.02, 
			 "cosmo_repulsion_energy": 1.98, 
			 "cosmo_total_nonelectrostatic_energy": 12.95, 
			 "SMD_solvation_energy": 6.52 
		},
		"coords": [
			{
				"x": -2.4646495992,
				"y": 1.3126660257,
				"z": 2.173182712,
				"element": "C" 
			},
			{
				"x": -2.5951306373,
				"y": 0.4960259261,
				"z": 0.9026174892,
				"element": "C" 
			},
			{
				"x": -1.2674020642,
				"y": 0.0337867965,
				"z": 0.5469669277,
				"element": "O" 
			},
			{
				"x": -1.1921837852,
				"y": -0.7253567941,
				"z": -0.5490038365,
				"element": "C" 
			},
			{
				"x": -2.1382858465,
				"y": -1.031807058,
				"z": -1.2444643072,
				"element": "O" 
			},
			{
				"x": 0.2455180259,
				"y": -1.1406294247,
				"z": -0.9025381738,
				"element": "C" 
			},
			{
				"x": 0.2861628174,
				"y": -2.5715552458,
				"z": -1.4689728749,
				"element": "C" 
			},
			{
				"x": 0.7130401315,
				"y": -3.4143529919,
				"z": -0.2686625792,
				"element": "C" 
			},
			{
				"x": 0.7493007742,
				"y": -4.6229427412,
				"z": -0.1674888707,
				"element": "O" 
			},
			{
				"x": 1.0133090163,
				"y": -2.5166273097,
				"z": 0.7471624607,
				"element": "N" 
			},
			{
				"x": 1.1377684517,
				"y": -1.1808453553,
				"z": 0.2771070545,
				"element": "N" 
			},
			{
				"x": 2.452478806,
				"y": -0.6853939769,
				"z": 0.2344396491,
				"element": "C" 
			},
			{
				"x": 2.7672595052,
				"y": 0.6416456958,
				"z": -0.1526671316,
				"element": "C" 
			},
			{
				"x": 1.5410265495,
				"y": 1.8116396612,
				"z": -0.6196402071,
				"element": "Cl" 
			},
			{
				"x": 4.0894794879,
				"y": 1.0609540262,
				"z": -0.1144717605,
				"element": "C" 
			},
			{
				"x": 5.0784094799,
				"y": 0.1886135746,
				"z": 0.3465592853,
				"element": "C" 
			},
			{
				"x": 4.6745461081,
				"y": -1.0712209849,
				"z": 0.7700382059,
				"element": "C" 
			},
			{
				"x": 3.4078924733,
				"y": -1.4943860759,
				"z": 0.7103527444,
				"element": "N" 
			},
			{
				"x": -1.8043951865,
				"y": 2.1708892305,
				"z": 2.0202241925,
				"element": "H" 
			},
			{
				"x": -2.0583434441,
				"y": 0.7057717941,
				"z": 2.9870312628,
				"element": "H" 
			},
			{
				"x": -3.4488028713,
				"y": 1.683125796,
				"z": 2.476530804,
				"element": "H" 
			},
			{
				"x": -2.9949717778,
				"y": 1.0836088469,
				"z": 0.0702893722,
				"element": "H" 
			},
			{
				"x": -3.2437932254,
				"y": -0.3753123757,
				"z": 1.033750479,
				"element": "H" 
			},
			{
				"x": 0.6148369407,
				"y": -0.4041309029,
				"z": -1.6155340305,
				"element": "H" 
			},
			{
				"x": 1.0373770724,
				"y": -2.6831935189,
				"z": -2.2574437603,
				"element": "H" 
			},
			{
				"x": -0.6800337383,
				"y": -2.8872427767,
				"z": -1.8631751198,
				"element": "H" 
			},
			{
				"x": 1.6880593448,
				"y": -2.7735651531,
				"z": 1.4567448122,
				"element": "H" 
			},
			{
				"x": 4.3323131088,
				"y": 2.0721205621,
				"z": -0.4232482291,
				"element": "H" 
			},
			{
				"x": 6.1178110109,
				"y": 0.4929933817,
				"z": 0.3949546316,
				"element": "H" 
			},
			{
				"x": 5.3913030712,
				"y": -1.7819786315,
				"z": 1.1754587982,
				"element": "H" 
			}
		],
		 "valence_orbital": [ 
			{
				"type": "occ",
				"energy": -0.28672,
				"method": "rhf"
			},
			{
				"type": "occ",
				"energy": -0.27872,
				"method": "rhf"
			},
			{
				"type": "occ",
				"energy": -0.27477,
				"method": "rhf"
			},
			{
				"type": "occ",
				"energy": -0.25682,
				"method": "rhf"
			},
			{
				"type": "occ",
				"energy": -0.21569,
				"method": "rhf"
			},
			{
				"type": "unocc",
				"energy": -0.04319,
				"method": "rhf"
			},
			{
				"type": "unocc",
				"energy": -0.02545,
				"method": "rhf"
			},
			{
				"type": "unocc",
				"energy": -0.00108,
				"method": "rhf"
			},
			{
				"type": "unocc",
				"energy": 0.01232,
				"method": "rhf"
			},
			{
				"type": "unocc",
				"energy": 0.02122,
				"method": "rhf"
			}
		],
		"cosmo_sigma_profile": { 
			"-0.025": 0.0,
			"-0.024": 0.0,
			"-0.023": 0.0,
			"-0.022": 0.0,
			"-0.021": 0.0,
			"-0.02": 0.0,
			"-0.019": 0.0,
			"-0.018": 0.0,
			"-0.017": 0.0,
			"-0.016": 0.0,
			"-0.015": 0.0,
			"-0.014": 0.222756338799,
			"-0.013": 0.491520588066,
			"-0.012": 0.628741911585,
			"-0.011": 0.640015718736,
			"-0.01": 0.736799442005,
			"-0.009": 2.98539376879,
			"-0.008": 7.41964177259,
			"-0.007": 12.1100604837,
			"-0.006": 14.448108956,
			"-0.005": 19.281946351,
			"-0.004": 24.3007566511,
			"-0.003": 24.0422193338,
			"-0.002": 19.2977253082,
			"-0.001": 21.229093947,
			"0.0": 25.775182234,
			"0.001": 19.6915913776,
			"0.002": 16.8095969216,
			"0.003": 13.9078737428,
			"0.004": 11.537882753,
			"0.005": 6.7066646847,
			"0.006": 6.18400182011,
			"0.007": 6.63611226392,
			"0.008": 4.30030837731,
			"0.009": 4.33050621574,
			"0.01": 5.38022598895,
			"0.011": 6.69883646558,
			"0.012": 7.50851692287,
			"0.013": 4.6012019534,
			"0.014": 0.597874503012,
			"0.015": 0.0,
			"0.016": 0.0,
			"0.017": 0.0,
			"0.018": 0.0,
			"0.019": 0.0,
			"0.02": 0.0,
			"0.021": 0.0,
			"0.022": 0.0,
			"0.023": 0.0,
			"0.024": 0.0,
			"0.025": 0.0
		}
	}
}
