{
	 "smiles": "CC1=NC(Cl)=CC(Cl)=N1", 
	 "Tm": 318.15, 
	 "num_atms": 13, 
	 "gaussian": { 
		 "optdone": 1, 
		 "sigma_profile": "yes", 
		 "theory": "DFT", 
		 "functional": "B3LYP", 
		 "basiset": "6-31G**", 
		 "properties": { 
			 "R2extent": 1917.0716, 
			 "electric_dipole_moment_norm": 0.149137889217, 
			 "electric_quadrupole_moment_norm": 7.69397909732, 
			 "total_energy": -1222.83404056, 
			 "HOMO_LUMO_gap": 0.22356, 
			 "cosmo_polarized_energy": -5.66, 
			 "cosmo_cavitation_energy": 21.4, 
			 "cosmo_dispersion_energy": -16.34, 
			 "cosmo_repulsion_energy": 1.37, 
			 "cosmo_total_nonelectrostatic_energy": 6.43, 
			 "SMD_solvation_energy": 0.54 
		},
		"coords": [
			{
				"x": 2.3629194343,
				"y": 1.9331681587,
				"z": 0.3490300815,
				"element": "C" 
			},
			{
				"x": 1.084054177,
				"y": 1.1464730343,
				"z": 0.3366229834,
				"element": "C" 
			},
			{
				"x": 1.166868769,
				"y": -0.1669826499,
				"z": 0.0657577674,
				"element": "N" 
			},
			{
				"x": 0.0318210418,
				"y": -0.844673368,
				"z": 0.0847407052,
				"element": "C" 
			},
			{
				"x": 0.1196960654,
				"y": -2.5584391058,
				"z": -0.2671107015,
				"element": "Cl" 
			},
			{
				"x": -1.2110314509,
				"y": -0.2789452918,
				"z": 0.3627059803,
				"element": "C" 
			},
			{
				"x": -1.1627582356,
				"y": 1.0886538841,
				"z": 0.6260494365,
				"element": "C" 
			},
			{
				"x": -2.6545995673,
				"y": 1.9314965906,
				"z": 0.9901142576,
				"element": "Cl" 
			},
			{
				"x": -0.0522244708,
				"y": 1.8060144415,
				"z": 0.6181789291,
				"element": "N" 
			},
			{
				"x": 2.1712763679,
				"y": 2.9740912338,
				"z": 0.0837963284,
				"element": "H" 
			},
			{
				"x": 3.0894748265,
				"y": 1.4879865383,
				"z": -0.3325355013,
				"element": "H" 
			},
			{
				"x": 2.7949101721,
				"y": 1.9176890054,
				"z": 1.3569636085,
				"element": "H" 
			},
			{
				"x": -2.1296071295,
				"y": -0.8486324712,
				"z": 0.3702861249,
				"element": "H" 
			}
		],
		 "valence_orbital": [ 
			{
				"type": "occ",
				"energy": -0.33022,
				"method": "rhf"
			},
			{
				"type": "occ",
				"energy": -0.32942,
				"method": "rhf"
			},
			{
				"type": "occ",
				"energy": -0.30615,
				"method": "rhf"
			},
			{
				"type": "occ",
				"energy": -0.28688,
				"method": "rhf"
			},
			{
				"type": "occ",
				"energy": -0.28206,
				"method": "rhf"
			},
			{
				"type": "unocc",
				"energy": -0.0585,
				"method": "rhf"
			},
			{
				"type": "unocc",
				"energy": -0.05205,
				"method": "rhf"
			},
			{
				"type": "unocc",
				"energy": 8e-05,
				"method": "rhf"
			},
			{
				"type": "unocc",
				"energy": 0.04155,
				"method": "rhf"
			},
			{
				"type": "unocc",
				"energy": 0.09759,
				"method": "rhf"
			}
		],
		"cosmo_sigma_profile": { 
			"-0.025": 0.0,
			"-0.024": 0.0,
			"-0.023": 0.0,
			"-0.022": 0.0,
			"-0.021": 0.0,
			"-0.02": 0.0,
			"-0.019": 0.0,
			"-0.018": 0.0,
			"-0.017": 0.0,
			"-0.016": 0.0,
			"-0.015": 0.0,
			"-0.014": 0.0,
			"-0.013": 0.0,
			"-0.012": 0.0,
			"-0.011": 0.0592641852531,
			"-0.01": 1.0987891603,
			"-0.009": 2.04076065813,
			"-0.008": 0.887764476206,
			"-0.007": 2.25763055632,
			"-0.006": 4.59538402886,
			"-0.005": 9.36304194681,
			"-0.004": 11.8916448539,
			"-0.003": 20.5672980384,
			"-0.002": 21.6165887972,
			"-0.001": 16.1564119749,
			"0.0": 10.7832669907,
			"0.001": 12.3290358104,
			"0.002": 13.5102402149,
			"0.003": 20.7635163953,
			"0.004": 8.90274203646,
			"0.005": 4.91523277295,
			"0.006": 2.9365465948,
			"0.007": 2.49952509796,
			"0.008": 2.24231249981,
			"0.009": 1.84480547071,
			"0.01": 1.77246205232,
			"0.011": 1.78123425915,
			"0.012": 1.49352176621,
			"0.013": 0.54162786609,
			"0.014": 0.0,
			"0.015": 0.0,
			"0.016": 0.0,
			"0.017": 0.0,
			"0.018": 0.0,
			"0.019": 0.0,
			"0.02": 0.0,
			"0.021": 0.0,
			"0.022": 0.0,
			"0.023": 0.0,
			"0.024": 0.0,
			"0.025": 0.0
		}
	}
}
