{
	 "smiles": "CC1=C(NC(=O)C=C)C=CC=C1", 
	 "Tm": 382.15, 
	 "num_atms": 23, 
	 "gaussian": { 
		 "optdone": 1, 
		 "sigma_profile": "yes", 
		 "theory": "DFT", 
		 "functional": "B3LYP", 
		 "basiset": "6-31G**", 
		 "properties": { 
			 "R2extent": 2543.1879, 
			 "electric_dipole_moment_norm": 3.40299135761, 
			 "electric_quadrupole_moment_norm": 11.6205993146, 
			 "total_energy": -517.664033685, 
			 "HOMO_LUMO_gap": 0.20151, 
			 "cosmo_polarized_energy": -10.47, 
			 "cosmo_cavitation_energy": 26.87, 
			 "cosmo_dispersion_energy": -18.86, 
			 "cosmo_repulsion_energy": 1.51, 
			 "cosmo_total_nonelectrostatic_energy": 9.52, 
			 "SMD_solvation_energy": 6.37 
		},
		"coords": [
			{
				"x": -0.7150281935,
				"y": -0.9511028814,
				"z": 1.9878955266,
				"element": "C" 
			},
			{
				"x": -0.4542271326,
				"y": -0.5694164689,
				"z": 0.5511318211,
				"element": "C" 
			},
			{
				"x": 0.7216637471,
				"y": 0.1098381423,
				"z": 0.1692553984,
				"element": "C" 
			},
			{
				"x": 1.7164094185,
				"y": 0.4504908184,
				"z": 1.1375214793,
				"element": "N" 
			},
			{
				"x": 1.6809567375,
				"y": 1.4227073329,
				"z": 2.1189866706,
				"element": "C" 
			},
			{
				"x": 2.6285418024,
				"y": 1.5670972306,
				"z": 2.8838032653,
				"element": "O" 
			},
			{
				"x": 0.4583847011,
				"y": 2.2804565277,
				"z": 2.1714889025,
				"element": "C" 
			},
			{
				"x": 0.3175312255,
				"y": 3.1817164009,
				"z": 3.145712697,
				"element": "C" 
			},
			{
				"x": 0.9613239455,
				"y": 0.4134533188,
				"z": -1.1763851887,
				"element": "C" 
			},
			{
				"x": 0.0385206905,
				"y": 0.0622077075,
				"z": -2.1597073887,
				"element": "C" 
			},
			{
				"x": -1.1395589147,
				"y": -0.5890156611,
				"z": -1.7930256908,
				"element": "C" 
			},
			{
				"x": -1.3755449121,
				"y": -0.8961401184,
				"z": -0.4531566458,
				"element": "C" 
			},
			{
				"x": -1.5374185836,
				"y": -1.66805915,
				"z": 2.0539724509,
				"element": "H" 
			},
			{
				"x": -0.9810615208,
				"y": -0.0813988956,
				"z": 2.5996148218,
				"element": "H" 
			},
			{
				"x": 0.1725936048,
				"y": -1.3975539952,
				"z": 2.4465280966,
				"element": "H" 
			},
			{
				"x": 2.6130165496,
				"y": -0.0181798216,
				"z": 1.0865854611,
				"element": "H" 
			},
			{
				"x": -0.2933959424,
				"y": 2.161770657,
				"z": 1.396974052,
				"element": "H" 
			},
			{
				"x": -0.5517758196,
				"y": 3.8287812728,
				"z": 3.2054877298,
				"element": "H" 
			},
			{
				"x": 1.0887757967,
				"y": 3.2842036671,
				"z": 3.9033185412,
				"element": "H" 
			},
			{
				"x": 1.8782599276,
				"y": 0.9338840451,
				"z": -1.437557321,
				"element": "H" 
			},
			{
				"x": 0.2354068828,
				"y": 0.3021612198,
				"z": -3.2002678021,
				"element": "H" 
			},
			{
				"x": -1.8704260889,
				"y": -0.8645064183,
				"z": -2.5477639414,
				"element": "H" 
			},
			{
				"x": -2.2877479213,
				"y": -1.4178949305,
				"z": -0.1753129356,
				"element": "H" 
			}
		],
		 "valence_orbital": [ 
			{
				"type": "occ",
				"energy": -0.27785,
				"method": "rhf"
			},
			{
				"type": "occ",
				"energy": -0.27042,
				"method": "rhf"
			},
			{
				"type": "occ",
				"energy": -0.25345,
				"method": "rhf"
			},
			{
				"type": "occ",
				"energy": -0.24951,
				"method": "rhf"
			},
			{
				"type": "occ",
				"energy": -0.23791,
				"method": "rhf"
			},
			{
				"type": "unocc",
				"energy": -0.0364,
				"method": "rhf"
			},
			{
				"type": "unocc",
				"energy": -0.01174,
				"method": "rhf"
			},
			{
				"type": "unocc",
				"energy": -0.00816,
				"method": "rhf"
			},
			{
				"type": "unocc",
				"energy": 0.09057,
				"method": "rhf"
			},
			{
				"type": "unocc",
				"energy": 0.09567,
				"method": "rhf"
			}
		],
		"cosmo_sigma_profile": { 
			"-0.025": 0.0,
			"-0.024": 0.0,
			"-0.023": 0.0,
			"-0.022": 0.0,
			"-0.021": 0.0,
			"-0.02": 0.0,
			"-0.019": 0.0,
			"-0.018": 0.0,
			"-0.017": 0.0,
			"-0.016": 0.0,
			"-0.015": 0.0,
			"-0.014": 0.413726168501,
			"-0.013": 1.44979510476,
			"-0.012": 0.676289463036,
			"-0.011": 0.796283150137,
			"-0.01": 0.435118619069,
			"-0.009": 1.35478344102,
			"-0.008": 0.695937488131,
			"-0.007": 2.29863419926,
			"-0.006": 9.52338440515,
			"-0.005": 15.3173096345,
			"-0.004": 18.5268179191,
			"-0.003": 19.6860923372,
			"-0.002": 18.2757642283,
			"-0.001": 22.4995986968,
			"0.0": 19.6105822997,
			"0.001": 15.4846895878,
			"0.002": 11.7685908122,
			"0.003": 12.474623494,
			"0.004": 10.6909047841,
			"0.005": 9.67059595864,
			"0.006": 3.46323864637,
			"0.007": 1.11183941788,
			"0.008": 1.89390735909,
			"0.009": 1.45864909347,
			"0.01": 1.26159611736,
			"0.011": 1.64155743644,
			"0.012": 1.82839073899,
			"0.013": 3.91101147717,
			"0.014": 5.02295290955,
			"0.015": 0.453213781283,
			"0.016": 0.0,
			"0.017": 0.0,
			"0.018": 0.0,
			"0.019": 0.0,
			"0.02": 0.0,
			"0.021": 0.0,
			"0.022": 0.0,
			"0.023": 0.0,
			"0.024": 0.0,
			"0.025": 0.0
		}
	}
}
