{
	 "smiles": "COC(=O)C1=NC(SC)=NC(C)=C1", 
	 "Tm": 390.15, 
	 "num_atms": 23, 
	 "gaussian": { 
		 "optdone": 1, 
		 "sigma_profile": "yes", 
		 "theory": "DFT", 
		 "functional": "B3LYP", 
		 "basiset": "6-31G**", 
		 "properties": { 
			 "R2extent": 4301.7784, 
			 "electric_dipole_moment_norm": 1.71565046265, 
			 "electric_quadrupole_moment_norm": 14.2262414165, 
			 "total_energy": -969.0291762, 
			 "HOMO_LUMO_gap": 0.15834, 
			 "cosmo_polarized_energy": -11.12, 
			 "cosmo_cavitation_energy": 29.59, 
			 "cosmo_dispersion_energy": -21.69, 
			 "cosmo_repulsion_energy": 1.71, 
			 "cosmo_total_nonelectrostatic_energy": 9.6, 
			 "SMD_solvation_energy": 4.84 
		},
		"coords": [
			{
				"x": 1.2979015398,
				"y": 0.8043398123,
				"z": 4.0713203971,
				"element": "C" 
			},
			{
				"x": 1.0007855645,
				"y": 1.2382549116,
				"z": 2.7334577784,
				"element": "O" 
			},
			{
				"x": 0.0169573284,
				"y": 0.562812026,
				"z": 2.1248417822,
				"element": "C" 
			},
			{
				"x": -0.6006173328,
				"y": -0.3529218619,
				"z": 2.6322986996,
				"element": "O" 
			},
			{
				"x": -0.2564244003,
				"y": 1.0547533022,
				"z": 0.7258589672,
				"element": "C" 
			},
			{
				"x": 0.471748636,
				"y": 2.0721978442,
				"z": 0.2407234737,
				"element": "N" 
			},
			{
				"x": 0.1714462883,
				"y": 2.449921006,
				"z": -1.0022603734,
				"element": "C" 
			},
			{
				"x": 1.0673212602,
				"y": 3.7846931802,
				"z": -1.7472803895,
				"element": "S" 
			},
			{
				"x": 2.2210207414,
				"y": 4.2334757205,
				"z": -0.407412387,
				"element": "C" 
			},
			{
				"x": -0.772017663,
				"y": 1.9213799889,
				"z": -1.8021906128,
				"element": "N" 
			},
			{
				"x": -1.4894675062,
				"y": 0.9092710642,
				"z": -1.30664223,
				"element": "C" 
			},
			{
				"x": -2.5482413106,
				"y": 0.3089761261,
				"z": -2.1919615231,
				"element": "C" 
			},
			{
				"x": -1.2572894154,
				"y": 0.4293979205,
				"z": -0.0061134849,
				"element": "C" 
			},
			{
				"x": 0.4205342092,
				"y": 0.9129127916,
				"z": 4.7138432767,
				"element": "H" 
			},
			{
				"x": 1.6095495099,
				"y": -0.2431631485,
				"z": 4.0748299999,
				"element": "H" 
			},
			{
				"x": 2.1076296819,
				"y": 1.4478748197,
				"z": 4.4137241437,
				"element": "H" 
			},
			{
				"x": 2.8681084547,
				"y": 3.3928590624,
				"z": -0.1557134411,
				"element": "H" 
			},
			{
				"x": 1.6766640256,
				"y": 4.5498711387,
				"z": 0.482690133,
				"element": "H" 
			},
			{
				"x": 2.8175571077,
				"y": 5.062002577,
				"z": -0.7956411241,
				"element": "H" 
			},
			{
				"x": -2.3561682993,
				"y": -0.7566621362,
				"z": -2.3589213998,
				"element": "H" 
			},
			{
				"x": -2.5642284292,
				"y": 0.8238841704,
				"z": -3.1531886562,
				"element": "H" 
			},
			{
				"x": -3.53612381,
				"y": 0.3897966321,
				"z": -1.7251566495,
				"element": "H" 
			},
			{
				"x": -1.8211461807,
				"y": -0.388826948,
				"z": 0.4245936198,
				"element": "H" 
			}
		],
		 "valence_orbital": [ 
			{
				"type": "occ",
				"energy": -0.306,
				"method": "rhf"
			},
			{
				"type": "occ",
				"energy": -0.29921,
				"method": "rhf"
			},
			{
				"type": "occ",
				"energy": -0.28781,
				"method": "rhf"
			},
			{
				"type": "occ",
				"energy": -0.25736,
				"method": "rhf"
			},
			{
				"type": "occ",
				"energy": -0.22844,
				"method": "rhf"
			},
			{
				"type": "unocc",
				"energy": -0.0701,
				"method": "rhf"
			},
			{
				"type": "unocc",
				"energy": -0.0303,
				"method": "rhf"
			},
			{
				"type": "unocc",
				"energy": 0.03973,
				"method": "rhf"
			},
			{
				"type": "unocc",
				"energy": 0.0409,
				"method": "rhf"
			},
			{
				"type": "unocc",
				"energy": 0.09249,
				"method": "rhf"
			}
		],
		"cosmo_sigma_profile": { 
			"-0.025": 0.0,
			"-0.024": 0.0,
			"-0.023": 0.0,
			"-0.022": 0.0,
			"-0.021": 0.0,
			"-0.02": 0.0,
			"-0.019": 0.0,
			"-0.018": 0.0,
			"-0.017": 0.0,
			"-0.016": 0.0,
			"-0.015": 0.0,
			"-0.014": 0.0,
			"-0.013": 0.0,
			"-0.012": 0.0,
			"-0.011": 0.0,
			"-0.01": 0.0,
			"-0.009": 0.0,
			"-0.008": 0.421158435686,
			"-0.007": 4.87576354331,
			"-0.006": 14.3955372664,
			"-0.005": 22.0128320643,
			"-0.004": 23.731219572,
			"-0.003": 23.7263544833,
			"-0.002": 26.69672747,
			"-0.001": 22.9297599657,
			"0.0": 14.4719130796,
			"0.001": 9.43551170206,
			"0.002": 7.96085219684,
			"0.003": 7.53679862856,
			"0.004": 11.1475136698,
			"0.005": 8.89795721244,
			"0.006": 7.65196219869,
			"0.007": 7.77918609526,
			"0.008": 5.22716467963,
			"0.009": 3.50770541141,
			"0.01": 4.72520014361,
			"0.011": 6.45785173002,
			"0.012": 2.5523500668,
			"0.013": 1.13884712387,
			"0.014": 0.32835607775,
			"0.015": 0.0,
			"0.016": 0.0,
			"0.017": 0.0,
			"0.018": 0.0,
			"0.019": 0.0,
			"0.02": 0.0,
			"0.021": 0.0,
			"0.022": 0.0,
			"0.023": 0.0,
			"0.024": 0.0,
			"0.025": 0.0
		}
	}
}
