{
	 "smiles": "OC1=C(Cl)C=C(Cl)C(Cl)=C1Cl", 
	 "Tm": 343.15, 
	 "num_atms": 13, 
	 "gaussian": { 
		 "optdone": 1, 
		 "sigma_profile": "yes", 
		 "theory": "DFT", 
		 "functional": "B3LYP", 
		 "basiset": "6-31G**", 
		 "properties": { 
			 "R2extent": 4908.6696, 
			 "electric_dipole_moment_norm": 2.4123991067, 
			 "electric_quadrupole_moment_norm": 4.3717464405, 
			 "total_energy": -2145.81950297, 
			 "HOMO_LUMO_gap": 0.19995, 
			 "cosmo_polarized_energy": -6.54, 
			 "cosmo_cavitation_energy": 24.53, 
			 "cosmo_dispersion_energy": -19.04, 
			 "cosmo_repulsion_energy": 1.53, 
			 "cosmo_total_nonelectrostatic_energy": 7.02, 
			 "SMD_solvation_energy": 3.59 
		},
		"coords": [
			{
				"x": 2.0187237587,
				"y": 0.2655893872,
				"z": -1.7177895827,
				"element": "O" 
			},
			{
				"x": 0.9552943104,
				"y": 0.9159386993,
				"z": -1.208434757,
				"element": "C" 
			},
			{
				"x": 0.3212585053,
				"y": 0.5431050076,
				"z": -0.0141564587,
				"element": "C" 
			},
			{
				"x": 0.9491675638,
				"y": -0.8446659873,
				"z": 0.8603673655,
				"element": "Cl" 
			},
			{
				"x": -0.7735449582,
				"y": 1.2378369147,
				"z": 0.480797805,
				"element": "C" 
			},
			{
				"x": -1.2647167641,
				"y": 2.3366420914,
				"z": -0.2187937644,
				"element": "C" 
			},
			{
				"x": -2.6424584485,
				"y": 3.1848175872,
				"z": 0.4346530754,
				"element": "Cl" 
			},
			{
				"x": -0.657560962,
				"y": 2.7420617162,
				"z": -1.4191261819,
				"element": "C" 
			},
			{
				"x": -1.2654417516,
				"y": 4.1103235121,
				"z": -2.294716917,
				"element": "Cl" 
			},
			{
				"x": 0.4496047288,
				"y": 2.028273158,
				"z": -1.9065344409,
				"element": "C" 
			},
			{
				"x": 1.2402686475,
				"y": 2.4826194131,
				"z": -3.38345154,
				"element": "Cl" 
			},
			{
				"x": 2.2479628991,
				"y": -0.470736131,
				"z": -1.1295657863,
				"element": "H" 
			},
			{
				"x": -1.2444575291,
				"y": 0.9286946314,
				"z": 1.4055511829,
				"element": "H" 
			}
		],
		 "valence_orbital": [ 
			{
				"type": "occ",
				"energy": -0.33321,
				"method": "rhf"
			},
			{
				"type": "occ",
				"energy": -0.31905,
				"method": "rhf"
			},
			{
				"type": "occ",
				"energy": -0.31161,
				"method": "rhf"
			},
			{
				"type": "occ",
				"energy": -0.26341,
				"method": "rhf"
			},
			{
				"type": "occ",
				"energy": -0.24598,
				"method": "rhf"
			},
			{
				"type": "unocc",
				"energy": -0.04603,
				"method": "rhf"
			},
			{
				"type": "unocc",
				"energy": -0.03528,
				"method": "rhf"
			},
			{
				"type": "unocc",
				"energy": -0.03045,
				"method": "rhf"
			},
			{
				"type": "unocc",
				"energy": 0.01289,
				"method": "rhf"
			},
			{
				"type": "unocc",
				"energy": 0.03956,
				"method": "rhf"
			}
		],
		"cosmo_sigma_profile": { 
			"-0.025": 0.0,
			"-0.024": 0.0,
			"-0.023": 0.0,
			"-0.022": 0.0,
			"-0.021": 0.0,
			"-0.02": 0.0,
			"-0.019": 0.0,
			"-0.018": 0.0,
			"-0.017": 0.166194112317,
			"-0.016": 0.776557899584,
			"-0.015": 0.802519682596,
			"-0.014": 0.073091128503,
			"-0.013": 0.628045642319,
			"-0.012": 1.44876678877,
			"-0.011": 1.0252976641,
			"-0.01": 1.66762548974,
			"-0.009": 2.14893341834,
			"-0.008": 2.34472385199,
			"-0.007": 2.86142873325,
			"-0.006": 2.92235028522,
			"-0.005": 3.6467618867,
			"-0.004": 6.19113242068,
			"-0.003": 11.0561963765,
			"-0.002": 18.0554320287,
			"-0.001": 29.4628348653,
			"0.0": 24.891981362,
			"0.001": 16.604378163,
			"0.002": 20.4219944036,
			"0.003": 29.0646902974,
			"0.004": 18.7897392498,
			"0.005": 3.56758000492,
			"0.006": 2.30650077066,
			"0.007": 1.24419031986,
			"0.008": 2.03949334057,
			"0.009": 2.24551894865,
			"0.01": 0.273974296851,
			"0.011": 0.0,
			"0.012": 0.0,
			"0.013": 0.0,
			"0.014": 0.0,
			"0.015": 0.0,
			"0.016": 0.0,
			"0.017": 0.0,
			"0.018": 0.0,
			"0.019": 0.0,
			"0.02": 0.0,
			"0.021": 0.0,
			"0.022": 0.0,
			"0.023": 0.0,
			"0.024": 0.0,
			"0.025": 0.0
		}
	}
}
