{
	 "smiles": "C(N1CCOCC1)C1=CC=CC=C1", 
	 "Tm": 467.15, 
	 "num_atms": 28, 
	 "gaussian": { 
		 "optdone": 1, 
		 "sigma_profile": "yes", 
		 "theory": "DFT", 
		 "functional": "B3LYP", 
		 "basiset": "6-31G**", 
		 "properties": { 
			 "R2extent": 3127.2106, 
			 "electric_dipole_moment_norm": 0.989576272957, 
			 "electric_quadrupole_moment_norm": 7.4929006326, 
			 "total_energy": -558.161372304, 
			 "HOMO_LUMO_gap": 0.19946, 
			 "cosmo_polarized_energy": -7.22, 
			 "cosmo_cavitation_energy": 29.15, 
			 "cosmo_dispersion_energy": -21.32, 
			 "cosmo_repulsion_energy": 1.69, 
			 "cosmo_total_nonelectrostatic_energy": 9.52, 
			 "SMD_solvation_energy": 3.24 
		},
		"coords": [
			{
				"x": 0.7044908167,
				"y": -0.1933398648,
				"z": 1.2175325588,
				"element": "C" 
			},
			{
				"x": -0.7380917905,
				"y": -0.3171076079,
				"z": 1.4421681649,
				"element": "N" 
			},
			{
				"x": -1.570858768,
				"y": 0.2329815237,
				"z": 0.3618263554,
				"element": "C" 
			},
			{
				"x": -1.7136772242,
				"y": 1.7569906761,
				"z": 0.4393961551,
				"element": "C" 
			},
			{
				"x": -2.2096502188,
				"y": 2.1582425194,
				"z": 1.7139911558,
				"element": "O" 
			},
			{
				"x": -1.3543553399,
				"y": 1.7189860452,
				"z": 2.7640848329,
				"element": "C" 
			},
			{
				"x": -1.2046374926,
				"y": 0.193391805,
				"z": 2.7363814039,
				"element": "C" 
			},
			{
				"x": 1.2008299056,
				"y": -1.0997512922,
				"z": 0.103038101,
				"element": "C" 
			},
			{
				"x": 0.7385214343,
				"y": -2.418754035,
				"z": -0.0034170015,
				"element": "C" 
			},
			{
				"x": 1.2306361507,
				"y": -3.264951364,
				"z": -0.9963723349,
				"element": "C" 
			},
			{
				"x": 2.1950026234,
				"y": -2.8064343154,
				"z": -1.8981932422,
				"element": "C" 
			},
			{
				"x": 2.6590662149,
				"y": -1.4943042394,
				"z": -1.8022241933,
				"element": "C" 
			},
			{
				"x": 2.1604138777,
				"y": -0.6474553764,
				"z": -0.8093925563,
				"element": "C" 
			},
			{
				"x": 1.1950491971,
				"y": -0.4861227477,
				"z": 2.1558067385,
				"element": "H" 
			},
			{
				"x": 1.043982421,
				"y": 0.8371351957,
				"z": 1.0102857482,
				"element": "H" 
			},
			{
				"x": -2.5704611868,
				"y": -0.2131155289,
				"z": 0.4460889899,
				"element": "H" 
			},
			{
				"x": -1.1525366362,
				"y": -0.0691899461,
				"z": -0.6035523806,
				"element": "H" 
			},
			{
				"x": -0.747105299,
				"y": 2.2505725137,
				"z": 0.2403204043,
				"element": "H" 
			},
			{
				"x": -2.4336974721,
				"y": 2.119071625,
				"z": -0.3014372451,
				"element": "H" 
			},
			{
				"x": -0.3684157131,
				"y": 2.2080087622,
				"z": 2.6794115721,
				"element": "H" 
			},
			{
				"x": -1.8158459429,
				"y": 2.0504869814,
				"z": 3.7000399321,
				"element": "H" 
			},
			{
				"x": -2.1893708661,
				"y": -0.2499897921,
				"z": 2.9365666879,
				"element": "H" 
			},
			{
				"x": -0.5218867311,
				"y": -0.141784521,
				"z": 3.5258895872,
				"element": "H" 
			},
			{
				"x": -0.019523339,
				"y": -2.7628645301,
				"z": 0.6935305177,
				"element": "H" 
			},
			{
				"x": 0.8621724148,
				"y": -4.2848022492,
				"z": -1.0675274758,
				"element": "H" 
			},
			{
				"x": 2.5776544648,
				"y": -3.4663677784,
				"z": -2.671679101,
				"element": "H" 
			},
			{
				"x": 3.4033485206,
				"y": -1.1260092563,
				"z": -2.5029143119,
				"element": "H" 
			},
			{
				"x": 2.5213459788,
				"y": 0.3765767974,
				"z": -0.7423490632,
				"element": "H" 
			}
		],
		 "valence_orbital": [ 
			{
				"type": "occ",
				"energy": -0.30806,
				"method": "rhf"
			},
			{
				"type": "occ",
				"energy": -0.2683,
				"method": "rhf"
			},
			{
				"type": "occ",
				"energy": -0.24633,
				"method": "rhf"
			},
			{
				"type": "occ",
				"energy": -0.24,
				"method": "rhf"
			},
			{
				"type": "occ",
				"energy": -0.20016,
				"method": "rhf"
			},
			{
				"type": "unocc",
				"energy": -0.0007,
				"method": "rhf"
			},
			{
				"type": "unocc",
				"energy": 0.00251,
				"method": "rhf"
			},
			{
				"type": "unocc",
				"energy": 0.08128,
				"method": "rhf"
			},
			{
				"type": "unocc",
				"energy": 0.1004,
				"method": "rhf"
			},
			{
				"type": "unocc",
				"energy": 0.10875,
				"method": "rhf"
			}
		],
		"cosmo_sigma_profile": { 
			"-0.025": 0.0,
			"-0.024": 0.0,
			"-0.023": 0.0,
			"-0.022": 0.0,
			"-0.021": 0.0,
			"-0.02": 0.0,
			"-0.019": 0.0,
			"-0.018": 0.0,
			"-0.017": 0.0,
			"-0.016": 0.0,
			"-0.015": 0.0,
			"-0.014": 0.0,
			"-0.013": 0.0,
			"-0.012": 0.0,
			"-0.011": 0.0,
			"-0.01": 0.0,
			"-0.009": 0.0,
			"-0.008": 0.0,
			"-0.007": 0.0,
			"-0.006": 1.15474566693,
			"-0.005": 13.7243695905,
			"-0.004": 27.7308576111,
			"-0.003": 40.5191221399,
			"-0.002": 29.3434384345,
			"-0.001": 19.9272232896,
			"0.0": 14.1855542959,
			"0.001": 12.4562408831,
			"0.002": 10.5364066235,
			"0.003": 9.89084159899,
			"0.004": 11.2370301645,
			"0.005": 10.4861682258,
			"0.006": 10.6620744604,
			"0.007": 4.44237474534,
			"0.008": 2.12671938436,
			"0.009": 1.87333267311,
			"0.01": 1.89782274612,
			"0.011": 1.78274487394,
			"0.012": 1.29948090558,
			"0.013": 1.96907355301,
			"0.014": 1.28188707984,
			"0.015": 0.0,
			"0.016": 0.0,
			"0.017": 0.0,
			"0.018": 0.0,
			"0.019": 0.0,
			"0.02": 0.0,
			"0.021": 0.0,
			"0.022": 0.0,
			"0.023": 0.0,
			"0.024": 0.0,
			"0.025": 0.0
		}
	}
}
