{
	 "smiles": "OC1CCOC2=C1C=CC=C2", 
	 "Tm": 316.15, 
	 "num_atms": 21, 
	 "gaussian": { 
		 "optdone": 1, 
		 "sigma_profile": "yes", 
		 "theory": "DFT", 
		 "functional": "B3LYP", 
		 "basiset": "6-31G**", 
		 "properties": { 
			 "R2extent": 2805.4912, 
			 "electric_dipole_moment_norm": 0.842282054896, 
			 "electric_quadrupole_moment_norm": 4.97093785819, 
			 "total_energy": -499.422536489, 
			 "HOMO_LUMO_gap": 0.20904, 
			 "cosmo_polarized_energy": -7.92, 
			 "cosmo_cavitation_energy": 23.25, 
			 "cosmo_dispersion_energy": -17.75, 
			 "cosmo_repulsion_energy": 1.42, 
			 "cosmo_total_nonelectrostatic_energy": 6.93, 
			 "SMD_solvation_energy": 3.86 
		},
		"coords": [
			{
				"x": 1.6095304971,
				"y": -3.2505553758,
				"z": -0.8308251305,
				"element": "O" 
			},
			{
				"x": 1.3338777592,
				"y": -2.2879848043,
				"z": 0.1985417599,
				"element": "C" 
			},
			{
				"x": 2.4511932576,
				"y": -2.4303774324,
				"z": 1.2315999562,
				"element": "C" 
			},
			{
				"x": 3.7328664498,
				"y": -1.8446902176,
				"z": 0.654858595,
				"element": "C" 
			},
			{
				"x": 3.59678381,
				"y": -0.4439666783,
				"z": 0.3665407215,
				"element": "O" 
			},
			{
				"x": 2.4396735857,
				"y": -0.048078255,
				"z": -0.236618435,
				"element": "C" 
			},
			{
				"x": 1.3043129082,
				"y": -0.873058704,
				"z": -0.3394405151,
				"element": "C" 
			},
			{
				"x": 0.1542153917,
				"y": -0.3537657907,
				"z": -0.9492993722,
				"element": "C" 
			},
			{
				"x": 0.1199128601,
				"y": 0.9429675717,
				"z": -1.4564537724,
				"element": "C" 
			},
			{
				"x": 1.2570622588,
				"y": 1.7499076672,
				"z": -1.3404506644,
				"element": "C" 
			},
			{
				"x": 2.4088520277,
				"y": 1.2629527964,
				"z": -0.7313180671,
				"element": "C" 
			},
			{
				"x": 1.1855749393,
				"y": -2.940443002,
				"z": -1.641378273,
				"element": "H" 
			},
			{
				"x": 0.3608430219,
				"y": -2.5155583557,
				"z": 0.6604988729,
				"element": "H" 
			},
			{
				"x": 2.1770766188,
				"y": -1.9072689569,
				"z": 2.1547555387,
				"element": "H" 
			},
			{
				"x": 2.5985775245,
				"y": -3.4889713352,
				"z": 1.4673775338,
				"element": "H" 
			},
			{
				"x": 4.5699822811,
				"y": -1.9134423932,
				"z": 1.3529742662,
				"element": "H" 
			},
			{
				"x": 3.9924541329,
				"y": -2.3763589425,
				"z": -0.2690407873,
				"element": "H" 
			},
			{
				"x": -0.7327050381,
				"y": -0.9824087075,
				"z": -1.0091802072,
				"element": "H" 
			},
			{
				"x": -0.7814683413,
				"y": 1.3253868152,
				"z": -1.9249436743,
				"element": "H" 
			},
			{
				"x": 1.2451390788,
				"y": 2.7661884942,
				"z": -1.7241559444,
				"element": "H" 
			},
			{
				"x": 3.2989449763,
				"y": 1.8749256063,
				"z": -0.6272424015,
				"element": "H" 
			}
		],
		 "valence_orbital": [ 
			{
				"type": "occ",
				"energy": -0.31779,
				"method": "rhf"
			},
			{
				"type": "occ",
				"energy": -0.31078,
				"method": "rhf"
			},
			{
				"type": "occ",
				"energy": -0.2705,
				"method": "rhf"
			},
			{
				"type": "occ",
				"energy": -0.24934,
				"method": "rhf"
			},
			{
				"type": "occ",
				"energy": -0.21647,
				"method": "rhf"
			},
			{
				"type": "unocc",
				"energy": -0.00743,
				"method": "rhf"
			},
			{
				"type": "unocc",
				"energy": 0.00906,
				"method": "rhf"
			},
			{
				"type": "unocc",
				"energy": 0.08792,
				"method": "rhf"
			},
			{
				"type": "unocc",
				"energy": 0.09805,
				"method": "rhf"
			},
			{
				"type": "unocc",
				"energy": 0.1163,
				"method": "rhf"
			}
		],
		"cosmo_sigma_profile": { 
			"-0.025": 0.0,
			"-0.024": 0.0,
			"-0.023": 0.0,
			"-0.022": 0.0,
			"-0.021": 0.0,
			"-0.02": 0.0,
			"-0.019": 0.0,
			"-0.018": 0.0,
			"-0.017": 0.0,
			"-0.016": 0.0,
			"-0.015": 0.201230104831,
			"-0.014": 0.421978653169,
			"-0.013": 0.85256153893,
			"-0.012": 0.920916332342,
			"-0.011": 0.562530001821,
			"-0.01": 0.934520416658,
			"-0.009": 1.21203359389,
			"-0.008": 0.6744828218,
			"-0.007": 1.26460507229,
			"-0.006": 7.00122713499,
			"-0.005": 13.3514939874,
			"-0.004": 20.6169161712,
			"-0.003": 20.9999964558,
			"-0.002": 16.1091515818,
			"-0.001": 14.185283974,
			"0.0": 8.76379422401,
			"0.001": 8.73455214628,
			"0.002": 9.52653347046,
			"0.003": 9.89349000093,
			"0.004": 11.5230027849,
			"0.005": 10.0870440498,
			"0.006": 9.29866687557,
			"0.007": 2.52788183264,
			"0.008": 2.68917819504,
			"0.009": 2.53908474945,
			"0.01": 2.89753148601,
			"0.011": 1.50087744398,
			"0.012": 1.05192957672,
			"0.013": 1.46264289651,
			"0.014": 1.34772384109,
			"0.015": 0.228359041825,
			"0.016": 0.0,
			"0.017": 0.0,
			"0.018": 0.0,
			"0.019": 0.0,
			"0.02": 0.0,
			"0.021": 0.0,
			"0.022": 0.0,
			"0.023": 0.0,
			"0.024": 0.0,
			"0.025": 0.0
		}
	}
}
