{
	 "smiles": "CC(C)(C)OC(=O)N1CCC2(C1)NC(=O)NC2=O", 
	 "Tm": 488.15, 
	 "num_atms": 35, 
	 "gaussian": { 
		 "optdone": 1, 
		 "sigma_profile": "yes", 
		 "theory": "DFT", 
		 "functional": "B3LYP", 
		 "basiset": "6-31G**", 
		 "properties": { 
			 "R2extent": 6037.2763, 
			 "electric_dipole_moment_norm": 1.08051096246, 
			 "electric_quadrupole_moment_norm": 18.3688087583, 
			 "total_energy": -894.643163728, 
			 "HOMO_LUMO_gap": 0.22497, 
			 "cosmo_polarized_energy": -20.47, 
			 "cosmo_cavitation_energy": 37.55, 
			 "cosmo_dispersion_energy": -25.97, 
			 "cosmo_repulsion_energy": 2.04, 
			 "cosmo_total_nonelectrostatic_energy": 13.62, 
			 "SMD_solvation_energy": 7.82 
		},
		"coords": [
			{
				"x": -2.9315180426,
				"y": 4.1951973721,
				"z": -1.1959926273,
				"element": "C" 
			},
			{
				"x": -3.0632067841,
				"y": 2.7175551303,
				"z": -1.5793389409,
				"element": "C" 
			},
			{
				"x": -4.3701167305,
				"y": 2.1301175762,
				"z": -1.0406747548,
				"element": "C" 
			},
			{
				"x": -2.948684966,
				"y": 2.4967838501,
				"z": -3.091307813,
				"element": "C" 
			},
			{
				"x": -2.0418915931,
				"y": 1.9229743296,
				"z": -0.8754092057,
				"element": "O" 
			},
			{
				"x": -0.7217039505,
				"y": 2.1432900441,
				"z": -1.0897858449,
				"element": "C" 
			},
			{
				"x": -0.2322366367,
				"y": 2.9773973315,
				"z": -1.8376604461,
				"element": "O" 
			},
			{
				"x": 0.030322947,
				"y": 1.2799071484,
				"z": -0.3437673461,
				"element": "N" 
			},
			{
				"x": 1.4944006694,
				"y": 1.3751758124,
				"z": -0.3426402124,
				"element": "C" 
			},
			{
				"x": 1.9040077304,
				"y": 0.4398657772,
				"z": 0.8055588293,
				"element": "C" 
			},
			{
				"x": 0.7495454138,
				"y": -0.5855572443,
				"z": 0.887420523,
				"element": "C" 
			},
			{
				"x": -0.4857782381,
				"y": 0.2986078568,
				"z": 0.6098695506,
				"element": "C" 
			},
			{
				"x": 0.8898548657,
				"y": -1.7095714202,
				"z": -0.0306072336,
				"element": "N" 
			},
			{
				"x": 0.8262527537,
				"y": -2.9342914999,
				"z": 0.585243143,
				"element": "C" 
			},
			{
				"x": 0.8472226645,
				"y": -4.0389276662,
				"z": 0.0866824098,
				"element": "O" 
			},
			{
				"x": 0.7346205297,
				"y": -2.6495155425,
				"z": 1.9680194017,
				"element": "N" 
			},
			{
				"x": 0.6757670753,
				"y": -1.3036955226,
				"z": 2.2466527738,
				"element": "C" 
			},
			{
				"x": 0.5846057239,
				"y": -0.772488699,
				"z": 3.333888804,
				"element": "O" 
			},
			{
				"x": -1.9905795543,
				"y": 4.6099116793,
				"z": -1.5580903277,
				"element": "H" 
			},
			{
				"x": -3.7601470438,
				"y": 4.7626542964,
				"z": -1.6319355668,
				"element": "H" 
			},
			{
				"x": -2.9764822699,
				"y": 4.3108506694,
				"z": -0.1083790338,
				"element": "H" 
			},
			{
				"x": -5.2254288792,
				"y": 2.6435755654,
				"z": -1.4896396703,
				"element": "H" 
			},
			{
				"x": -4.4428703734,
				"y": 1.0647041998,
				"z": -1.2783189498,
				"element": "H" 
			},
			{
				"x": -4.427559951,
				"y": 2.2463818324,
				"z": 0.0454932033,
				"element": "H" 
			},
			{
				"x": -2.0078766186,
				"y": 2.8933865415,
				"z": -3.473616554,
				"element": "H" 
			},
			{
				"x": -3.0064751664,
				"y": 1.4288015218,
				"z": -3.3250946445,
				"element": "H" 
			},
			{
				"x": -3.7777765616,
				"y": 2.9997477956,
				"z": -3.5995151731,
				"element": "H" 
			},
			{
				"x": 1.9023210376,
				"y": 1.0493996377,
				"z": -1.3080870132,
				"element": "H" 
			},
			{
				"x": 1.8190991825,
				"y": 2.4078805879,
				"z": -0.1878916623,
				"element": "H" 
			},
			{
				"x": 1.9369504864,
				"y": 0.981564159,
				"z": 1.755841044,
				"element": "H" 
			},
			{
				"x": 2.8688614294,
				"y": -0.0452925777,
				"z": 0.644806386,
				"element": "H" 
			},
			{
				"x": -0.8191781865,
				"y": 0.7664294835,
				"z": 1.5454224381,
				"element": "H" 
			},
			{
				"x": -1.3172818814,
				"y": -0.2706047573,
				"z": 0.1895399835,
				"element": "H" 
			},
			{
				"x": 0.8121091435,
				"y": -1.6425811056,
				"z": -1.0336927522,
				"element": "H" 
			},
			{
				"x": 0.7016517751,
				"y": -3.3791341631,
				"z": 2.6655072826,
				"element": "H" 
			}
		],
		 "valence_orbital": [ 
			{
				"type": "occ",
				"energy": -0.29149,
				"method": "rhf"
			},
			{
				"type": "occ",
				"energy": -0.27973,
				"method": "rhf"
			},
			{
				"type": "occ",
				"energy": -0.27121,
				"method": "rhf"
			},
			{
				"type": "occ",
				"energy": -0.26451,
				"method": "rhf"
			},
			{
				"type": "occ",
				"energy": -0.24574,
				"method": "rhf"
			},
			{
				"type": "unocc",
				"energy": -0.02077,
				"method": "rhf"
			},
			{
				"type": "unocc",
				"energy": 0.04215,
				"method": "rhf"
			},
			{
				"type": "unocc",
				"energy": 0.0527,
				"method": "rhf"
			},
			{
				"type": "unocc",
				"energy": 0.06073,
				"method": "rhf"
			},
			{
				"type": "unocc",
				"energy": 0.08269,
				"method": "rhf"
			}
		],
		"cosmo_sigma_profile": { 
			"-0.025": 0.0,
			"-0.024": 0.0,
			"-0.023": 0.0,
			"-0.022": 0.0,
			"-0.021": 0.0,
			"-0.02": 0.0,
			"-0.019": 0.0,
			"-0.018": 0.0,
			"-0.017": 0.531250844055,
			"-0.016": 1.28407240716,
			"-0.015": 2.36723283035,
			"-0.014": 2.20680752354,
			"-0.013": 0.941546708477,
			"-0.012": 1.87694426733,
			"-0.011": 2.30176173754,
			"-0.01": 2.34498281796,
			"-0.009": 1.77703621415,
			"-0.008": 2.54910314873,
			"-0.007": 4.55910642915,
			"-0.006": 7.62623615159,
			"-0.005": 17.9441998462,
			"-0.004": 27.6929972028,
			"-0.003": 28.9542862956,
			"-0.002": 28.388829787,
			"-0.001": 24.3732532027,
			"0.0": 30.5523771295,
			"0.001": 21.8868681249,
			"0.002": 11.3982141141,
			"0.003": 7.62550879083,
			"0.004": 6.04619503846,
			"0.005": 6.07369745061,
			"0.006": 4.74522904963,
			"0.007": 5.36113364943,
			"0.008": 3.11358826673,
			"0.009": 3.90436100117,
			"0.01": 5.13722012274,
			"0.011": 7.5283892326,
			"0.012": 11.147370217,
			"0.013": 8.60038839882,
			"0.014": 2.63569470919,
			"0.015": 0.0,
			"0.016": 0.0,
			"0.017": 0.0,
			"0.018": 0.0,
			"0.019": 0.0,
			"0.02": 0.0,
			"0.021": 0.0,
			"0.022": 0.0,
			"0.023": 0.0,
			"0.024": 0.0,
			"0.025": 0.0
		}
	}
}
