{
	 "smiles": "CC1=NN(C2=C1C(=CC(C)=N2)C(O)=O)C1=CC=CC=C1", 
	 "Tm": 469.15, 
	 "num_atms": 33, 
	 "gaussian": { 
		 "optdone": 1, 
		 "sigma_profile": "yes", 
		 "theory": "DFT", 
		 "functional": "B3LYP", 
		 "basiset": "6-31G**", 
		 "properties": { 
			 "R2extent": 6933.52, 
			 "electric_dipole_moment_norm": 2.71361085272, 
			 "electric_quadrupole_moment_norm": 16.1685027937, 
			 "total_energy": -894.144095349, 
			 "HOMO_LUMO_gap": 0.14434, 
			 "cosmo_polarized_energy": -14.61, 
			 "cosmo_cavitation_energy": 37.06, 
			 "cosmo_dispersion_energy": -26.84, 
			 "cosmo_repulsion_energy": 2.03, 
			 "cosmo_total_nonelectrostatic_energy": 12.25, 
			 "SMD_solvation_energy": 5.78 
		},
		"coords": [
			{
				"x": -0.119940348,
				"y": 1.6035794023,
				"z": 3.9766735392,
				"element": "C" 
			},
			{
				"x": -0.5333114138,
				"y": 1.0369697623,
				"z": 2.6499080959,
				"element": "C" 
			},
			{
				"x": -1.8213645426,
				"y": 0.9259817626,
				"z": 2.3794849077,
				"element": "N" 
			},
			{
				"x": -1.9585462862,
				"y": 0.425824363,
				"z": 1.1166423757,
				"element": "N" 
			},
			{
				"x": -0.720092355,
				"y": 0.2223857552,
				"z": 0.5485786518,
				"element": "C" 
			},
			{
				"x": 0.2452596139,
				"y": 0.5927571685,
				"z": 1.5253987871,
				"element": "C" 
			},
			{
				"x": 1.600721808,
				"y": 0.493892588,
				"z": 1.132942665,
				"element": "C" 
			},
			{
				"x": 1.8616253122,
				"y": 0.0853812128,
				"z": -0.1678426847,
				"element": "C" 
			},
			{
				"x": 0.8118796635,
				"y": -0.2692333861,
				"z": -1.0484691741,
				"element": "C" 
			},
			{
				"x": 1.1207432695,
				"y": -0.7529915504,
				"z": -2.44199604,
				"element": "C" 
			},
			{
				"x": -0.4731803581,
				"y": -0.2098871237,
				"z": -0.6928416453,
				"element": "N" 
			},
			{
				"x": 2.7873715463,
				"y": 0.7899014263,
				"z": 2.0083402773,
				"element": "C" 
			},
			{
				"x": 2.665297518,
				"y": 0.449549224,
				"z": 3.3162758351,
				"element": "O" 
			},
			{
				"x": 3.8138294843,
				"y": 1.2684428007,
				"z": 1.5925841938,
				"element": "O" 
			},
			{
				"x": -3.2691677238,
				"y": 0.2426968008,
				"z": 0.5850046164,
				"element": "C" 
			},
			{
				"x": -4.3615165693,
				"y": 0.7533246676,
				"z": 1.3000971581,
				"element": "C" 
			},
			{
				"x": -5.6513021221,
				"y": 0.5759832715,
				"z": 0.8061100184,
				"element": "C" 
			},
			{
				"x": -5.8674690319,
				"y": -0.1017984447,
				"z": -0.3954651489,
				"element": "C" 
			},
			{
				"x": -4.7739240978,
				"y": -0.6048242462,
				"z": -1.0998573214,
				"element": "C" 
			},
			{
				"x": -3.4740410134,
				"y": -0.4423232524,
				"z": -0.6198324259,
				"element": "C" 
			},
			{
				"x": 0.2572959978,
				"y": 0.8388935159,
				"z": 4.667238441,
				"element": "H" 
			},
			{
				"x": -0.9923626768,
				"y": 2.0604157685,
				"z": 4.4477027281,
				"element": "H" 
			},
			{
				"x": 0.6619619805,
				"y": 2.3602773628,
				"z": 3.8700575233,
				"element": "H" 
			},
			{
				"x": 2.8922409883,
				"y": 0.0284584434,
				"z": -0.5002320601,
				"element": "H" 
			},
			{
				"x": 1.8350419552,
				"y": -0.0902147413,
				"z": -2.9411032579,
				"element": "H" 
			},
			{
				"x": 0.2045370894,
				"y": -0.8018371633,
				"z": -3.0321633791,
				"element": "H" 
			},
			{
				"x": 1.5701522179,
				"y": -1.7529633895,
				"z": -2.4165607674,
				"element": "H" 
			},
			{
				"x": 1.8302933514,
				"y": -0.0179922199,
				"z": 3.4599327691,
				"element": "H" 
			},
			{
				"x": -4.1867397418,
				"y": 1.2764574188,
				"z": 2.2310732148,
				"element": "H" 
			},
			{
				"x": -6.4917431864,
				"y": 0.9748831531,
				"z": 1.3667429505,
				"element": "H" 
			},
			{
				"x": -6.8752508169,
				"y": -0.2352157575,
				"z": -0.776955467,
				"element": "H" 
			},
			{
				"x": -4.925842219,
				"y": -1.1351833402,
				"z": -2.0355458307,
				"element": "H" 
			},
			{
				"x": -2.6274572934,
				"y": -0.8265912524,
				"z": -1.1713235458,
				"element": "H" 
			}
		],
		 "valence_orbital": [ 
			{
				"type": "occ",
				"energy": -0.28066,
				"method": "rhf"
			},
			{
				"type": "occ",
				"energy": -0.27361,
				"method": "rhf"
			},
			{
				"type": "occ",
				"energy": -0.26129,
				"method": "rhf"
			},
			{
				"type": "occ",
				"energy": -0.25256,
				"method": "rhf"
			},
			{
				"type": "occ",
				"energy": -0.22162,
				"method": "rhf"
			},
			{
				"type": "unocc",
				"energy": -0.07728,
				"method": "rhf"
			},
			{
				"type": "unocc",
				"energy": -0.03292,
				"method": "rhf"
			},
			{
				"type": "unocc",
				"energy": -0.00474,
				"method": "rhf"
			},
			{
				"type": "unocc",
				"energy": 0.00949,
				"method": "rhf"
			},
			{
				"type": "unocc",
				"energy": 0.01904,
				"method": "rhf"
			}
		],
		"cosmo_sigma_profile": { 
			"-0.025": 0.0,
			"-0.024": 0.0,
			"-0.023": 0.0,
			"-0.022": 0.0,
			"-0.021": 0.0,
			"-0.02": 0.0,
			"-0.019": 0.0675059931604,
			"-0.018": 0.711916171979,
			"-0.017": 0.723098402672,
			"-0.016": 0.920499367913,
			"-0.015": 0.562686446098,
			"-0.014": 1.14998720711,
			"-0.013": 0.804799943444,
			"-0.012": 1.18104047723,
			"-0.011": 1.0289736166,
			"-0.01": 0.561111699052,
			"-0.009": 0.924602523186,
			"-0.008": 1.67459191768,
			"-0.007": 4.46123388044,
			"-0.006": 10.355058863,
			"-0.005": 21.0409647004,
			"-0.004": 23.1001441992,
			"-0.003": 22.8882863151,
			"-0.002": 24.8393453563,
			"-0.001": 34.1281157315,
			"0.0": 24.7284123001,
			"0.001": 17.1055896719,
			"0.002": 17.3683127347,
			"0.003": 14.996999679,
			"0.004": 18.0477983626,
			"0.005": 17.537771643,
			"0.006": 6.64533133695,
			"0.007": 4.9044776228,
			"0.008": 5.76100183103,
			"0.009": 5.18665296183,
			"0.01": 5.65296885224,
			"0.011": 5.4684411898,
			"0.012": 2.46298949391,
			"0.013": 0.165711437987,
			"0.014": 0.0,
			"0.015": 0.0,
			"0.016": 0.0,
			"0.017": 0.0,
			"0.018": 0.0,
			"0.019": 0.0,
			"0.02": 0.0,
			"0.021": 0.0,
			"0.022": 0.0,
			"0.023": 0.0,
			"0.024": 0.0,
			"0.025": 0.0
		}
	}
}
