{
	 "smiles": "NCCCC(O)=O", 
	 "Tm": 473.15, 
	 "num_atms": 16, 
	 "gaussian": { 
		 "optdone": 1, 
		 "sigma_profile": "yes", 
		 "theory": "DFT", 
		 "functional": "B3LYP", 
		 "basiset": "6-31G**", 
		 "properties": { 
			 "R2extent": 1570.3842, 
			 "electric_dipole_moment_norm": 2.41391869996, 
			 "electric_quadrupole_moment_norm": 7.45201908344, 
			 "total_energy": -363.062515494, 
			 "HOMO_LUMO_gap": 0.24927, 
			 "cosmo_polarized_energy": -12.13, 
			 "cosmo_cavitation_energy": 19.45, 
			 "cosmo_dispersion_energy": -14.37, 
			 "cosmo_repulsion_energy": 1.26, 
			 "cosmo_total_nonelectrostatic_energy": 6.34, 
			 "SMD_solvation_energy": 3.33 
		},
		"coords": [
			{
				"x": 0.7453882304,
				"y": 0.3549647818,
				"z": 1.0763226673,
				"element": "N" 
			},
			{
				"x": 0.396926547,
				"y": 0.9812613764,
				"z": -0.2056915563,
				"element": "C" 
			},
			{
				"x": -0.9400409308,
				"y": 0.461513805,
				"z": -0.7427495306,
				"element": "C" 
			},
			{
				"x": -0.925066374,
				"y": -1.0376972581,
				"z": -1.0459787406,
				"element": "C" 
			},
			{
				"x": -2.2063837868,
				"y": -1.5265983067,
				"z": -1.6852942886,
				"element": "C" 
			},
			{
				"x": -2.2008497003,
				"y": -2.8754384564,
				"z": -1.8383213161,
				"element": "O" 
			},
			{
				"x": -3.1382317005,
				"y": -0.8382714618,
				"z": -2.038672058,
				"element": "O" 
			},
			{
				"x": 1.0965099298,
				"y": -0.5872241396,
				"z": 0.9239177422,
				"element": "H" 
			},
			{
				"x": 1.5066199086,
				"y": 0.8661031611,
				"z": 1.5151473075,
				"element": "H" 
			},
			{
				"x": 1.1719279079,
				"y": 0.8600708793,
				"z": -0.9854162476,
				"element": "H" 
			},
			{
				"x": 0.3009770531,
				"y": 2.0588224395,
				"z": -0.031555516,
				"element": "H" 
			},
			{
				"x": -1.2015035488,
				"y": 1.0083810042,
				"z": -1.6551397652,
				"element": "H" 
			},
			{
				"x": -1.7248483244,
				"y": 0.6725386043,
				"z": -0.0092007082,
				"element": "H" 
			},
			{
				"x": -0.7629511875,
				"y": -1.6287433611,
				"z": -0.1369669117,
				"element": "H" 
			},
			{
				"x": -0.1028037571,
				"y": -1.2998307205,
				"z": -1.7269743549,
				"element": "H" 
			},
			{
				"x": -3.0473702669,
				"y": -3.0998523473,
				"z": -2.2599267232,
				"element": "H" 
			}
		],
		 "valence_orbital": [ 
			{
				"type": "occ",
				"energy": -0.34293,
				"method": "rhf"
			},
			{
				"type": "occ",
				"energy": -0.33985,
				"method": "rhf"
			},
			{
				"type": "occ",
				"energy": -0.31596,
				"method": "rhf"
			},
			{
				"type": "occ",
				"energy": -0.27281,
				"method": "rhf"
			},
			{
				"type": "occ",
				"energy": -0.23635,
				"method": "rhf"
			},
			{
				"type": "unocc",
				"energy": 0.01292,
				"method": "rhf"
			},
			{
				"type": "unocc",
				"energy": 0.07188,
				"method": "rhf"
			},
			{
				"type": "unocc",
				"energy": 0.08443,
				"method": "rhf"
			},
			{
				"type": "unocc",
				"energy": 0.11961,
				"method": "rhf"
			},
			{
				"type": "unocc",
				"energy": 0.12421,
				"method": "rhf"
			}
		],
		"cosmo_sigma_profile": { 
			"-0.025": 0.0,
			"-0.024": 0.0,
			"-0.023": 0.0,
			"-0.022": 0.0,
			"-0.021": 0.0,
			"-0.02": 0.0,
			"-0.019": 0.0,
			"-0.018": 0.520855833033,
			"-0.017": 0.917745992632,
			"-0.016": 0.706551722726,
			"-0.015": 1.09126188703,
			"-0.014": 0.61312776544,
			"-0.013": 0.399556395973,
			"-0.012": 0.319812675769,
			"-0.011": 1.32474313172,
			"-0.01": 1.32553403599,
			"-0.009": 2.95693617022,
			"-0.008": 3.57078677389,
			"-0.007": 4.60300028455,
			"-0.006": 7.30390516834,
			"-0.005": 8.84422028523,
			"-0.004": 8.7682342463,
			"-0.003": 13.1440942692,
			"-0.002": 16.2357893717,
			"-0.001": 14.0481076362,
			"0.0": 10.8224198057,
			"0.001": 4.79034435941,
			"0.002": 5.40248027252,
			"0.003": 3.96617697241,
			"0.004": 2.31426936576,
			"0.005": 3.50361721735,
			"0.006": 3.11836275066,
			"0.007": 3.58470395307,
			"0.008": 3.93555053512,
			"0.009": 3.35266210326,
			"0.01": 4.28941917532,
			"0.011": 4.30191153048,
			"0.012": 5.71335297217,
			"0.013": 1.11266924761,
			"0.014": 0.576139624163,
			"0.015": 0.675234194087,
			"0.016": 0.276685154212,
			"0.017": 0.656819022221,
			"0.018": 0.727908426816,
			"0.019": 0.363673352687,
			"0.02": 0.356825724346,
			"0.021": 0.00101441675451,
			"0.022": 0.0,
			"0.023": 0.0,
			"0.024": 0.0,
			"0.025": 0.0
		}
	}
}
