{
	 "smiles": "CC(C)(C)C1=CC(=CC(=C1O)C(C)(C)C)C#N", 
	 "Tm": 418.15, 
	 "num_atms": 38, 
	 "gaussian": { 
		 "optdone": 1, 
		 "sigma_profile": "yes", 
		 "theory": "DFT", 
		 "functional": "B3LYP", 
		 "basiset": "6-31G**", 
		 "properties": { 
			 "R2extent": 4979.4357, 
			 "electric_dipole_moment_norm": 5.8363754934, 
			 "electric_quadrupole_moment_norm": 23.3036600482, 
			 "total_energy": -714.232289472, 
			 "HOMO_LUMO_gap": 0.19657, 
			 "cosmo_polarized_energy": -11.15, 
			 "cosmo_cavitation_energy": 37.92, 
			 "cosmo_dispersion_energy": -25.81, 
			 "cosmo_repulsion_energy": 1.98, 
			 "cosmo_total_nonelectrostatic_energy": 14.09, 
			 "SMD_solvation_energy": 8.29 
		},
		"coords": [
			{
				"x": 0.1845273651,
				"y": 0.4569893132,
				"z": -2.5956042676,
				"element": "C" 
			},
			{
				"x": 0.5792903594,
				"y": -0.6611842927,
				"z": -1.5921656513,
				"element": "C" 
			},
			{
				"x": 0.3916044158,
				"y": -1.9964344689,
				"z": -2.3440907654,
				"element": "C" 
			},
			{
				"x": 2.0868737615,
				"y": -0.5817734219,
				"z": -1.2261649343,
				"element": "C" 
			},
			{
				"x": -0.2999815184,
				"y": -0.5904919503,
				"z": -0.3176328049,
				"element": "C" 
			},
			{
				"x": -1.1321483262,
				"y": -1.65602839,
				"z": 0.0297424434,
				"element": "C" 
			},
			{
				"x": -1.9343701218,
				"y": -1.6134765216,
				"z": 1.1750543448,
				"element": "C" 
			},
			{
				"x": -1.9107995728,
				"y": -0.4807314346,
				"z": 1.9998685455,
				"element": "C" 
			},
			{
				"x": -1.1031678803,
				"y": 0.6179648627,
				"z": 1.7115628841,
				"element": "C" 
			},
			{
				"x": -0.3026656688,
				"y": 0.5390328113,
				"z": 0.5421754078,
				"element": "C" 
			},
			{
				"x": 0.4808415167,
				"y": 1.6308358863,
				"z": 0.2832653197,
				"element": "O" 
			},
			{
				"x": -1.0900916133,
				"y": 1.8598884692,
				"z": 2.6334135907,
				"element": "C" 
			},
			{
				"x": -2.0487776099,
				"y": 1.6885960812,
				"z": 3.8305943908,
				"element": "C" 
			},
			{
				"x": -1.5544495509,
				"y": 3.1143974116,
				"z": 1.8519004538,
				"element": "C" 
			},
			{
				"x": 0.329093928,
				"y": 2.0842902881,
				"z": 3.2127432974,
				"element": "C" 
			},
			{
				"x": -2.7762880181,
				"y": -2.7251099412,
				"z": 1.5014896697,
				"element": "C" 
			},
			{
				"x": -3.4600508715,
				"y": -3.6296076145,
				"z": 1.7653576802,
				"element": "N" 
			},
			{
				"x": -0.8580287259,
				"y": 0.334515286,
				"z": -2.9042043838,
				"element": "H" 
			},
			{
				"x": 0.2745998257,
				"y": 1.4752248566,
				"z": -2.204088385,
				"element": "H" 
			},
			{
				"x": 0.8131477017,
				"y": 0.3973763241,
				"z": -3.4902560617,
				"element": "H" 
			},
			{
				"x": -0.6404165964,
				"y": -2.1371389823,
				"z": -2.6791445487,
				"element": "H" 
			},
			{
				"x": 1.0291980657,
				"y": -2.0008283451,
				"z": -3.2335259996,
				"element": "H" 
			},
			{
				"x": 0.6773956041,
				"y": -2.8563228087,
				"z": -1.7308516666,
				"element": "H" 
			},
			{
				"x": 2.6966201998,
				"y": -0.6324939033,
				"z": -2.1343063797,
				"element": "H" 
			},
			{
				"x": 2.3802372971,
				"y": 0.3264116309,
				"z": -0.6901075995,
				"element": "H" 
			},
			{
				"x": 2.3629460556,
				"y": -1.4236316289,
				"z": -0.5841140316,
				"element": "H" 
			},
			{
				"x": -1.1723049131,
				"y": -2.5434702602,
				"z": -0.5867018827,
				"element": "H" 
			},
			{
				"x": -2.5420247996,
				"y": -0.4774699784,
				"z": 2.8778923169,
				"element": "H" 
			},
			{
				"x": 0.9858134953,
				"y": 1.4891815912,
				"z": -0.5236334684,
				"element": "H" 
			},
			{
				"x": -3.0890113327,
				"y": 1.559993342,
				"z": 3.5136725232,
				"element": "H" 
			},
			{
				"x": -1.7724743669,
				"y": 0.8398339193,
				"z": 4.4648872304,
				"element": "H" 
			},
			{
				"x": -2.0059719093,
				"y": 2.5880876844,
				"z": 4.4523793063,
				"element": "H" 
			},
			{
				"x": -0.8973237341,
				"y": 3.3388811215,
				"z": 1.0116860636,
				"element": "H" 
			},
			{
				"x": -2.5711144269,
				"y": 2.975768184,
				"z": 1.4683677664,
				"element": "H" 
			},
			{
				"x": -1.5647387759,
				"y": 3.9828692793,
				"z": 2.5200674606,
				"element": "H" 
			},
			{
				"x": 0.6500519527,
				"y": 1.2141025631,
				"z": 3.7955571747,
				"element": "H" 
			},
			{
				"x": 0.3215355163,
				"y": 2.9512354453,
				"z": 3.8829270179,
				"element": "H" 
			},
			{
				"x": 1.0660232724,
				"y": 2.2652175912,
				"z": 2.4301879429,
				"element": "H" 
			}
		],
		 "valence_orbital": [ 
			{
				"type": "occ",
				"energy": -0.31726,
				"method": "rhf"
			},
			{
				"type": "occ",
				"energy": -0.31413,
				"method": "rhf"
			},
			{
				"type": "occ",
				"energy": -0.31331,
				"method": "rhf"
			},
			{
				"type": "occ",
				"energy": -0.25871,
				"method": "rhf"
			},
			{
				"type": "occ",
				"energy": -0.22993,
				"method": "rhf"
			},
			{
				"type": "unocc",
				"energy": -0.03336,
				"method": "rhf"
			},
			{
				"type": "unocc",
				"energy": -0.01451,
				"method": "rhf"
			},
			{
				"type": "unocc",
				"energy": 0.0474,
				"method": "rhf"
			},
			{
				"type": "unocc",
				"energy": 0.04963,
				"method": "rhf"
			},
			{
				"type": "unocc",
				"energy": 0.08265,
				"method": "rhf"
			}
		],
		"cosmo_sigma_profile": { 
			"-0.025": 0.0,
			"-0.024": 0.0,
			"-0.023": 0.0,
			"-0.022": 0.0,
			"-0.021": 0.0,
			"-0.02": 0.0,
			"-0.019": 0.0,
			"-0.018": 0.0,
			"-0.017": 0.0,
			"-0.016": 0.0143646289011,
			"-0.015": 0.430819511581,
			"-0.014": 0.865561441721,
			"-0.013": 0.459057242966,
			"-0.012": 0.402408198628,
			"-0.011": 1.04516613667,
			"-0.01": 0.741737242138,
			"-0.009": 0.453143563745,
			"-0.008": 0.998065484933,
			"-0.007": 1.78618957807,
			"-0.006": 4.75366571583,
			"-0.005": 7.06778142016,
			"-0.004": 16.9241033811,
			"-0.003": 35.0913467552,
			"-0.002": 35.9424409811,
			"-0.001": 36.1063171295,
			"0.0": 41.3007194729,
			"0.001": 36.5711073696,
			"0.002": 25.4142518658,
			"0.003": 16.1352885167,
			"0.004": 6.02401009355,
			"0.005": 3.29169841185,
			"0.006": 3.30540438544,
			"0.007": 2.60786443655,
			"0.008": 3.14773831336,
			"0.009": 3.51478193262,
			"0.01": 3.55040923994,
			"0.011": 3.27974452761,
			"0.012": 2.59148008847,
			"0.013": 2.43933307709,
			"0.014": 0.773993125384,
			"0.015": 0.0,
			"0.016": 0.0,
			"0.017": 0.0,
			"0.018": 0.0,
			"0.019": 0.0,
			"0.02": 0.0,
			"0.021": 0.0,
			"0.022": 0.0,
			"0.023": 0.0,
			"0.024": 0.0,
			"0.025": 0.0
		}
	}
}
