{
	 "smiles": "NC1=CC2=C(C=C1)N=C(S2)N1C=CN=C1", 
	 "Tm": 476.15, 
	 "num_atms": 23, 
	 "gaussian": { 
		 "optdone": 1, 
		 "sigma_profile": "yes", 
		 "theory": "DFT", 
		 "functional": "B3LYP", 
		 "basiset": "6-31G**", 
		 "properties": { 
			 "R2extent": 4806.0895, 
			 "electric_dipole_moment_norm": 5.8056793866, 
			 "electric_quadrupole_moment_norm": 19.5544101949, 
			 "total_energy": -1003.07318466, 
			 "HOMO_LUMO_gap": 0.15977, 
			 "cosmo_polarized_energy": -14.91, 
			 "cosmo_cavitation_energy": 29.32, 
			 "cosmo_dispersion_energy": -22.45, 
			 "cosmo_repulsion_energy": 1.66, 
			 "cosmo_total_nonelectrostatic_energy": 8.54, 
			 "SMD_solvation_energy": 2.26 
		},
		"coords": [
			{
				"x": -3.5239174687,
				"y": -4.7342261036,
				"z": 0.1372987289,
				"element": "N" 
			},
			{
				"x": -3.0649234496,
				"y": -3.4321867225,
				"z": 0.3353374687,
				"element": "C" 
			},
			{
				"x": -1.6909433025,
				"y": -3.1476865842,
				"z": 0.2934240804,
				"element": "C" 
			},
			{
				"x": -1.2830162585,
				"y": -1.8244370992,
				"z": 0.4363189238,
				"element": "C" 
			},
			{
				"x": -2.2011824313,
				"y": -0.7648554814,
				"z": 0.6246373912,
				"element": "C" 
			},
			{
				"x": -3.5697704099,
				"y": -1.0635605438,
				"z": 0.6650157984,
				"element": "C" 
			},
			{
				"x": -3.989137306,
				"y": -2.3771211074,
				"z": 0.5217087812,
				"element": "C" 
			},
			{
				"x": -1.6444109365,
				"y": 0.4979020025,
				"z": 0.756699922,
				"element": "N" 
			},
			{
				"x": -0.3590180644,
				"y": 0.4396580133,
				"z": 0.6767484541,
				"element": "C" 
			},
			{
				"x": 0.352771423,
				"y": -1.1763781452,
				"z": 0.4277720921,
				"element": "S" 
			},
			{
				"x": 0.4619247415,
				"y": 1.5620633626,
				"z": 0.7755410316,
				"element": "N" 
			},
			{
				"x": 1.8507380527,
				"y": 1.6269565168,
				"z": 0.7051116233,
				"element": "C" 
			},
			{
				"x": 2.1602743378,
				"y": 2.9487900052,
				"z": 0.8596758676,
				"element": "C" 
			},
			{
				"x": 1.0158870524,
				"y": 3.7091529941,
				"z": 1.0235726046,
				"element": "N" 
			},
			{
				"x": 0.0214685859,
				"y": 2.8616936902,
				"z": 0.9695800565,
				"element": "C" 
			},
			{
				"x": -4.4386327671,
				"y": -4.9323726049,
				"z": 0.5181538218,
				"element": "H" 
			},
			{
				"x": -2.8600531495,
				"y": -5.4669356113,
				"z": 0.3458562737,
				"element": "H" 
			},
			{
				"x": -0.971308342,
				"y": -3.9474046633,
				"z": 0.1458488123,
				"element": "H" 
			},
			{
				"x": -4.2854119498,
				"y": -0.2611158334,
				"z": 0.8100621028,
				"element": "H" 
			},
			{
				"x": -5.050717295,
				"y": -2.6082032648,
				"z": 0.5467996235,
				"element": "H" 
			},
			{
				"x": 2.4601164628,
				"y": 0.7496208943,
				"z": 0.5558814329,
				"element": "H" 
			},
			{
				"x": 3.141848935,
				"y": 3.4014225264,
				"z": 0.8627635632,
				"element": "H" 
			},
			{
				"x": -1.0316864605,
				"y": 3.0809237596,
				"z": 1.0576915454,
				"element": "H" 
			}
		],
		 "valence_orbital": [ 
			{
				"type": "occ",
				"energy": -0.27658,
				"method": "rhf"
			},
			{
				"type": "occ",
				"energy": -0.26915,
				"method": "rhf"
			},
			{
				"type": "occ",
				"energy": -0.24263,
				"method": "rhf"
			},
			{
				"type": "occ",
				"energy": -0.23694,
				"method": "rhf"
			},
			{
				"type": "occ",
				"energy": -0.20232,
				"method": "rhf"
			},
			{
				"type": "unocc",
				"energy": -0.04255,
				"method": "rhf"
			},
			{
				"type": "unocc",
				"energy": -0.01247,
				"method": "rhf"
			},
			{
				"type": "unocc",
				"energy": -0.00352,
				"method": "rhf"
			},
			{
				"type": "unocc",
				"energy": 0.02232,
				"method": "rhf"
			},
			{
				"type": "unocc",
				"energy": 0.06228,
				"method": "rhf"
			}
		],
		"cosmo_sigma_profile": { 
			"-0.025": 0.0,
			"-0.024": 0.0,
			"-0.023": 0.0,
			"-0.022": 0.0,
			"-0.021": 0.0,
			"-0.02": 0.0,
			"-0.019": 0.0,
			"-0.018": 0.0,
			"-0.017": 0.0,
			"-0.016": 0.0,
			"-0.015": 0.0,
			"-0.014": 0.0,
			"-0.013": 1.11603143214,
			"-0.012": 3.17916046178,
			"-0.011": 2.69105992372,
			"-0.01": 3.812808903,
			"-0.009": 5.9407020967,
			"-0.008": 6.55992307622,
			"-0.007": 10.0238140981,
			"-0.006": 11.5681296148,
			"-0.005": 10.2658671681,
			"-0.004": 11.9721624435,
			"-0.003": 10.9836312101,
			"-0.002": 12.0351314557,
			"-0.001": 18.4661646934,
			"0.0": 15.2445180761,
			"0.001": 16.3331548604,
			"0.002": 17.7111774155,
			"0.003": 18.8283634839,
			"0.004": 20.7183089268,
			"0.005": 11.7730484795,
			"0.006": 5.08961924492,
			"0.007": 3.85679743461,
			"0.008": 3.15448656561,
			"0.009": 3.96456022138,
			"0.01": 2.90078579533,
			"0.011": 1.67062569941,
			"0.012": 2.57855759428,
			"0.013": 1.71168694619,
			"0.014": 1.19023207688,
			"0.015": 1.33393579827,
			"0.016": 0.992443079219,
			"0.017": 0.771900684789,
			"0.018": 0.0171736515885,
			"0.019": 0.0,
			"0.02": 0.0,
			"0.021": 0.0,
			"0.022": 0.0,
			"0.023": 0.0,
			"0.024": 0.0,
			"0.025": 0.0
		}
	}
}
