{
	 "smiles": "CCNC1=C(C=C(C=C1)C(=O)OCC)[N+]([O-])=O", 
	 "Tm": 366.15, 
	 "num_atms": 31, 
	 "gaussian": { 
		 "optdone": 1, 
		 "sigma_profile": "yes", 
		 "theory": "DFT", 
		 "functional": "B3LYP", 
		 "basiset": "6-31G**", 
		 "properties": { 
			 "R2extent": 5835.4162, 
			 "electric_dipole_moment_norm": 6.36685715483, 
			 "electric_quadrupole_moment_norm": 17.6356454279, 
			 "total_energy": -837.940339249, 
			 "HOMO_LUMO_gap": 0.13908, 
			 "cosmo_polarized_energy": -13.69, 
			 "cosmo_cavitation_energy": 35.17, 
			 "cosmo_dispersion_energy": -25.43, 
			 "cosmo_repulsion_energy": 2.0, 
			 "cosmo_total_nonelectrostatic_energy": 11.75, 
			 "SMD_solvation_energy": 8.56 
		},
		"coords": [
			{
				"x": 2.9652498539,
				"y": -4.4294842284,
				"z": -1.2583845845,
				"element": "C" 
			},
			{
				"x": 1.4575811587,
				"y": -4.4457906446,
				"z": -1.5413947561,
				"element": "C" 
			},
			{
				"x": 0.6625960656,
				"y": -3.7489838291,
				"z": -0.5405727935,
				"element": "N" 
			},
			{
				"x": 0.4714682995,
				"y": -2.4117153196,
				"z": -0.4672905155,
				"element": "C" 
			},
			{
				"x": -0.2975597788,
				"y": -1.7928187771,
				"z": 0.5751796513,
				"element": "C" 
			},
			{
				"x": -0.4951385255,
				"y": -0.411047674,
				"z": 0.6106096495,
				"element": "C" 
			},
			{
				"x": 0.048275395,
				"y": 0.4181949152,
				"z": -0.3613134803,
				"element": "C" 
			},
			{
				"x": 0.8115952817,
				"y": -0.1675963318,
				"z": -1.3931656249,
				"element": "C" 
			},
			{
				"x": 1.0183100292,
				"y": -1.5292069183,
				"z": -1.4426315768,
				"element": "C" 
			},
			{
				"x": -0.1999236324,
				"y": 1.8773644507,
				"z": -0.2612595389,
				"element": "C" 
			},
			{
				"x": -0.8531997417,
				"y": 2.4040883166,
				"z": 0.6200609404,
				"element": "O" 
			},
			{
				"x": 0.3925175202,
				"y": 2.5632405594,
				"z": -1.2693504832,
				"element": "O" 
			},
			{
				"x": 0.2068513455,
				"y": 3.9983496844,
				"z": -1.2661451268,
				"element": "C" 
			},
			{
				"x": -1.0939784289,
				"y": 4.3909461958,
				"z": -1.9505463805,
				"element": "C" 
			},
			{
				"x": -0.9109101112,
				"y": -2.5598806501,
				"z": 1.6447065195,
				"element": "N" 
			},
			{
				"x": -0.7592558515,
				"y": -3.7993016754,
				"z": 1.6629570695,
				"element": "O" 
			},
			{
				"x": -1.5606136887,
				"y": -1.9644572894,
				"z": 2.5016232069,
				"element": "O" 
			},
			{
				"x": 3.5031930571,
				"y": -4.9815747756,
				"z": -2.0359846909,
				"element": "H" 
			},
			{
				"x": 3.1825643694,
				"y": -4.8968204493,
				"z": -0.2934085572,
				"element": "H" 
			},
			{
				"x": 3.3549976604,
				"y": -3.4077114679,
				"z": -1.2329223796,
				"element": "H" 
			},
			{
				"x": 1.0963558961,
				"y": -5.4785071071,
				"z": -1.5621492448,
				"element": "H" 
			},
			{
				"x": 1.2470224171,
				"y": -4.0286609557,
				"z": -2.5327046364,
				"element": "H" 
			},
			{
				"x": 0.249784243,
				"y": -4.2706022042,
				"z": 0.2253377129,
				"element": "H" 
			},
			{
				"x": -1.0830200024,
				"y": 0.0144200807,
				"z": 1.4137283332,
				"element": "H" 
			},
			{
				"x": 1.2442619614,
				"y": 0.4684137683,
				"z": -2.1571440179,
				"element": "H" 
			},
			{
				"x": 1.6161457814,
				"y": -1.9427635082,
				"z": -2.2449981156,
				"element": "H" 
			},
			{
				"x": 0.230460859,
				"y": 4.3533063707,
				"z": -0.2332493587,
				"element": "H" 
			},
			{
				"x": 1.0757863576,
				"y": 4.3853739447,
				"z": -1.8040901946,
				"element": "H" 
			},
			{
				"x": -1.1334260135,
				"y": 3.9963492366,
				"z": -2.9702371934,
				"element": "H" 
			},
			{
				"x": -1.1721566142,
				"y": 5.4821427696,
				"z": -2.0009839208,
				"element": "H" 
			},
			{
				"x": -1.9513351629,
				"y": 4.0115335132,
				"z": -1.389575912,
				"element": "H" 
			}
		],
		 "valence_orbital": [ 
			{
				"type": "occ",
				"energy": -0.29794,
				"method": "rhf"
			},
			{
				"type": "occ",
				"energy": -0.28712,
				"method": "rhf"
			},
			{
				"type": "occ",
				"energy": -0.27975,
				"method": "rhf"
			},
			{
				"type": "occ",
				"energy": -0.27265,
				"method": "rhf"
			},
			{
				"type": "occ",
				"energy": -0.22371,
				"method": "rhf"
			},
			{
				"type": "unocc",
				"energy": -0.08463,
				"method": "rhf"
			},
			{
				"type": "unocc",
				"energy": -0.04085,
				"method": "rhf"
			},
			{
				"type": "unocc",
				"energy": -0.0018,
				"method": "rhf"
			},
			{
				"type": "unocc",
				"energy": 0.0616,
				"method": "rhf"
			},
			{
				"type": "unocc",
				"energy": 0.07564,
				"method": "rhf"
			}
		],
		"cosmo_sigma_profile": { 
			"-0.025": 0.0,
			"-0.024": 0.0,
			"-0.023": 0.0,
			"-0.022": 0.0,
			"-0.021": 0.0,
			"-0.02": 0.0,
			"-0.019": 0.0,
			"-0.018": 0.0,
			"-0.017": 0.0,
			"-0.016": 0.0,
			"-0.015": 0.0,
			"-0.014": 0.0,
			"-0.013": 0.0,
			"-0.012": 0.0,
			"-0.011": 0.295454872084,
			"-0.01": 0.713469524255,
			"-0.009": 0.948644382632,
			"-0.008": 2.17146831426,
			"-0.007": 4.86174327014,
			"-0.006": 9.3617183616,
			"-0.005": 14.2216732634,
			"-0.004": 24.4220485351,
			"-0.003": 31.939824156,
			"-0.002": 28.3397873466,
			"-0.001": 28.2102826183,
			"0.0": 36.6051273198,
			"0.001": 23.9505724194,
			"0.002": 12.5901670334,
			"0.003": 9.35418816,
			"0.004": 5.26889430199,
			"0.005": 6.71805751292,
			"0.006": 5.15173414587,
			"0.007": 6.00987719023,
			"0.008": 7.73126932637,
			"0.009": 5.63980268822,
			"0.01": 5.74764694496,
			"0.011": 4.01699634518,
			"0.012": 4.12606834422,
			"0.013": 0.491780874167,
			"0.014": 0.0,
			"0.015": 0.0,
			"0.016": 0.0,
			"0.017": 0.0,
			"0.018": 0.0,
			"0.019": 0.0,
			"0.02": 0.0,
			"0.021": 0.0,
			"0.022": 0.0,
			"0.023": 0.0,
			"0.024": 0.0,
			"0.025": 0.0
		}
	}
}
