{
	 "smiles": "NC1=CC=C(CO)C=N1", 
	 "Tm": 393.15, 
	 "num_atms": 17, 
	 "gaussian": { 
		 "optdone": 1, 
		 "sigma_profile": "yes", 
		 "theory": "DFT", 
		 "functional": "B3LYP", 
		 "basiset": "6-31G**", 
		 "properties": { 
			 "R2extent": 1351.726, 
			 "electric_dipole_moment_norm": 2.34819963802, 
			 "electric_quadrupole_moment_norm": 8.01727511066, 
			 "total_energy": -418.181136432, 
			 "HOMO_LUMO_gap": 0.19591, 
			 "cosmo_polarized_energy": -12.51, 
			 "cosmo_cavitation_energy": 20.89, 
			 "cosmo_dispersion_energy": -15.69, 
			 "cosmo_repulsion_energy": 1.31, 
			 "cosmo_total_nonelectrostatic_energy": 6.52, 
			 "SMD_solvation_energy": 2.29 
		},
		"coords": [
			{
				"x": 0.0232903146,
				"y": -1.6568618101,
				"z": 2.7014021905,
				"element": "N" 
			},
			{
				"x": 0.0522198394,
				"y": -0.9171059142,
				"z": 1.5342421564,
				"element": "C" 
			},
			{
				"x": -0.7217518156,
				"y": 0.2559842459,
				"z": 1.3893573912,
				"element": "C" 
			},
			{
				"x": -0.60547438,
				"y": 0.9817030094,
				"z": 0.217096964,
				"element": "C" 
			},
			{
				"x": 0.2706368084,
				"y": 0.5500095431,
				"z": -0.7936534063,
				"element": "C" 
			},
			{
				"x": 0.4317655709,
				"y": 1.327185639,
				"z": -2.078296907,
				"element": "C" 
			},
			{
				"x": -0.8105941219,
				"y": 1.7251153169,
				"z": -2.6532343527,
				"element": "O" 
			},
			{
				"x": 0.9727829573,
				"y": -0.6289503418,
				"z": -0.5468563906,
				"element": "C" 
			},
			{
				"x": 0.8792745698,
				"y": -1.3549946534,
				"z": 0.5740675148,
				"element": "N" 
			},
			{
				"x": 0.4266178988,
				"y": -2.5789987562,
				"z": 2.6137054043,
				"element": "H" 
			},
			{
				"x": -0.8130551356,
				"y": -1.6079921526,
				"z": 3.2632853586,
				"element": "H" 
			},
			{
				"x": -1.3861667446,
				"y": 0.5776500209,
				"z": 2.1862437719,
				"element": "H" 
			},
			{
				"x": -1.1949402758,
				"y": 1.8817207222,
				"z": 0.0648502787,
				"element": "H" 
			},
			{
				"x": 1.0396762323,
				"y": 0.7433617242,
				"z": -2.7878388712,
				"element": "H" 
			},
			{
				"x": 0.9687682968,
				"y": 2.2663504914,
				"z": -1.8996281072,
				"element": "H" 
			},
			{
				"x": -1.3401078604,
				"y": 0.9248839065,
				"z": -2.7701810294,
				"element": "H" 
			},
			{
				"x": 1.6529578454,
				"y": -1.0215609911,
				"z": -1.3037619661,
				"element": "H" 
			}
		],
		 "valence_orbital": [ 
			{
				"type": "occ",
				"energy": -0.31394,
				"method": "rhf"
			},
			{
				"type": "occ",
				"energy": -0.28015,
				"method": "rhf"
			},
			{
				"type": "occ",
				"energy": -0.26939,
				"method": "rhf"
			},
			{
				"type": "occ",
				"energy": -0.25227,
				"method": "rhf"
			},
			{
				"type": "occ",
				"energy": -0.21113,
				"method": "rhf"
			},
			{
				"type": "unocc",
				"energy": -0.01522,
				"method": "rhf"
			},
			{
				"type": "unocc",
				"energy": 0.00586,
				"method": "rhf"
			},
			{
				"type": "unocc",
				"energy": 0.08525,
				"method": "rhf"
			},
			{
				"type": "unocc",
				"energy": 0.09204,
				"method": "rhf"
			},
			{
				"type": "unocc",
				"energy": 0.11606,
				"method": "rhf"
			}
		],
		"cosmo_sigma_profile": { 
			"-0.025": 0.0,
			"-0.024": 0.0,
			"-0.023": 0.0,
			"-0.022": 0.0,
			"-0.021": 0.0,
			"-0.02": 0.0,
			"-0.019": 0.0,
			"-0.018": 0.0,
			"-0.017": 0.0,
			"-0.016": 0.0406049266792,
			"-0.015": 0.668351844399,
			"-0.014": 1.20350801127,
			"-0.013": 2.05565224983,
			"-0.012": 2.93502405947,
			"-0.011": 2.40387662919,
			"-0.01": 4.09329288488,
			"-0.009": 3.43780280817,
			"-0.008": 3.50915578102,
			"-0.007": 3.29426817375,
			"-0.006": 6.18047205685,
			"-0.005": 11.1851574171,
			"-0.004": 11.4694483329,
			"-0.003": 10.6321913931,
			"-0.002": 10.6366093831,
			"-0.001": 9.00119266046,
			"0.0": 7.98634892258,
			"0.001": 8.46553867491,
			"0.002": 7.18104322025,
			"0.003": 10.889273489,
			"0.004": 11.5474895764,
			"0.005": 5.24254814001,
			"0.006": 3.88642871903,
			"0.007": 4.09094706546,
			"0.008": 2.83304928984,
			"0.009": 3.89094666614,
			"0.01": 2.90948873916,
			"0.011": 2.1659483149,
			"0.012": 3.59708027256,
			"0.013": 2.52605212051,
			"0.014": 2.92580026188,
			"0.015": 1.42301132431,
			"0.016": 0.522918642643,
			"0.017": 0.0246496113463,
			"0.018": 0.0,
			"0.019": 0.0,
			"0.02": 0.0,
			"0.021": 0.0,
			"0.022": 0.0,
			"0.023": 0.0,
			"0.024": 0.0,
			"0.025": 0.0
		}
	}
}
