{
	 "smiles": "NC1=C2C(=O)C3=C(C=CC=C3)C(=O)C2=C(Br)C=C1C(O)=O", 
	 "Tm": 587.15, 
	 "num_atms": 29, 
	 "gaussian": { 
		 "optdone": 1, 
		 "sigma_profile": "yes", 
		 "theory": "DFT", 
		 "functional": "B3LYP", 
		 "basiset": "6-31G**", 
		 "properties": { 
			 "R2extent": 8343.7987, 
			 "electric_dipole_moment_norm": 4.05437235833, 
			 "electric_quadrupole_moment_norm": 18.0356376034, 
			 "total_energy": -3503.50443105, 
			 "HOMO_LUMO_gap": 0.10782, 
			 "cosmo_polarized_energy": -14.89, 
			 "cosmo_cavitation_energy": 35.53, 
			 "cosmo_dispersion_energy": -27.31, 
			 "cosmo_repulsion_energy": 2.0, 
			 "cosmo_total_nonelectrostatic_energy": 10.22, 
			 "SMD_solvation_energy": 6.25 
		},
		"coords": [
			{
				"x": -3.0578333902,
				"y": 1.3088848259,
				"z": -1.5822748831,
				"element": "N" 
			},
			{
				"x": -1.8061609287,
				"y": 0.8865432245,
				"z": -1.8288096896,
				"element": "C" 
			},
			{
				"x": -1.0496373374,
				"y": 0.1919267477,
				"z": -0.8134452117,
				"element": "C" 
			},
			{
				"x": -1.6778233194,
				"y": -0.0451452912,
				"z": 0.5030049216,
				"element": "C" 
			},
			{
				"x": -2.8321331068,
				"y": 0.3276866783,
				"z": 0.7754568552,
				"element": "O" 
			},
			{
				"x": -0.9120264351,
				"y": -0.7572824408,
				"z": 1.5569829136,
				"element": "C" 
			},
			{
				"x": 0.3925076749,
				"y": -1.2061163641,
				"z": 1.3192308967,
				"element": "C" 
			},
			{
				"x": 1.0977342597,
				"y": -1.8764249725,
				"z": 2.3275047065,
				"element": "C" 
			},
			{
				"x": 0.5006012868,
				"y": -2.0952771743,
				"z": 3.5646406065,
				"element": "C" 
			},
			{
				"x": -0.8049387226,
				"y": -1.6462905723,
				"z": 3.8032860342,
				"element": "C" 
			},
			{
				"x": -1.5092266363,
				"y": -0.9803508811,
				"z": 2.8051952108,
				"element": "C" 
			},
			{
				"x": 1.0508494164,
				"y": -0.9839996027,
				"z": 0.0064159979,
				"element": "C" 
			},
			{
				"x": 2.1912431137,
				"y": -1.3886063159,
				"z": -0.1731104305,
				"element": "O" 
			},
			{
				"x": 0.2813809686,
				"y": -0.2597124261,
				"z": -1.0704976709,
				"element": "C" 
			},
			{
				"x": 0.8516416837,
				"y": -0.0193144341,
				"z": -2.3298233375,
				"element": "C" 
			},
			{
				"x": 2.603497046,
				"y": -0.5282474506,
				"z": -2.8923126043,
				"element": "Br" 
			},
			{
				"x": 0.1186292953,
				"y": 0.6515924441,
				"z": -3.3074440722,
				"element": "C" 
			},
			{
				"x": -1.1752921746,
				"y": 1.1060459919,
				"z": -3.0993161094,
				"element": "C" 
			},
			{
				"x": -1.7759212787,
				"y": 1.796021571,
				"z": -4.2726522127,
				"element": "C" 
			},
			{
				"x": -3.0491116419,
				"y": 2.251680526,
				"z": -4.0870112362,
				"element": "O" 
			},
			{
				"x": -1.2121750565,
				"y": 1.9637423855,
				"z": -5.3349135854,
				"element": "O" 
			},
			{
				"x": -3.5697236539,
				"y": 1.791751262,
				"z": -2.3024500569,
				"element": "H" 
			},
			{
				"x": -3.4322634274,
				"y": 1.1142927448,
				"z": -0.6571988,
				"element": "H" 
			},
			{
				"x": 2.106354784,
				"y": -2.2124523833,
				"z": 2.1141574946,
				"element": "H" 
			},
			{
				"x": 1.0475421374,
				"y": -2.6147905531,
				"z": 4.3458718785,
				"element": "H" 
			},
			{
				"x": -1.269454194,
				"y": -1.818090708,
				"z": 4.769833143,
				"element": "H" 
			},
			{
				"x": -2.5202123073,
				"y": -0.6235023459,
				"z": 2.9652506385,
				"element": "H" 
			},
			{
				"x": 0.563484535,
				"y": 0.8345065305,
				"z": -4.2778278713,
				"element": "H" 
			},
			{
				"x": -3.3018325907,
				"y": 2.6721289841,
				"z": -4.9260435259,
				"element": "H" 
			}
		],
		 "valence_orbital": [ 
			{
				"type": "occ",
				"energy": -0.27248,
				"method": "rhf"
			},
			{
				"type": "occ",
				"energy": -0.27245,
				"method": "rhf"
			},
			{
				"type": "occ",
				"energy": -0.26924,
				"method": "rhf"
			},
			{
				"type": "occ",
				"energy": -0.24593,
				"method": "rhf"
			},
			{
				"type": "occ",
				"energy": -0.22118,
				"method": "rhf"
			},
			{
				"type": "unocc",
				"energy": -0.11336,
				"method": "rhf"
			},
			{
				"type": "unocc",
				"energy": -0.05997,
				"method": "rhf"
			},
			{
				"type": "unocc",
				"energy": -0.04773,
				"method": "rhf"
			},
			{
				"type": "unocc",
				"energy": -0.0128,
				"method": "rhf"
			},
			{
				"type": "unocc",
				"energy": 0.00632,
				"method": "rhf"
			}
		],
		"cosmo_sigma_profile": { 
			"-0.025": 0.0,
			"-0.024": 0.0,
			"-0.023": 0.0,
			"-0.022": 0.0,
			"-0.021": 0.0,
			"-0.02": 0.0,
			"-0.019": 0.664600149909,
			"-0.018": 0.779466400906,
			"-0.017": 1.04056421268,
			"-0.016": 0.889480548454,
			"-0.015": 0.705419258521,
			"-0.014": 0.610289310022,
			"-0.013": 0.255886460438,
			"-0.012": 0.891876599539,
			"-0.011": 1.39365718953,
			"-0.01": 1.16987327445,
			"-0.009": 1.53774148944,
			"-0.008": 2.70892857497,
			"-0.007": 7.21422364802,
			"-0.006": 11.0422235904,
			"-0.005": 14.5995540014,
			"-0.004": 17.3660729244,
			"-0.003": 19.1566023734,
			"-0.002": 22.1531511701,
			"-0.001": 31.1638066512,
			"0.0": 30.0235268755,
			"0.001": 26.4796090359,
			"0.002": 25.0857472715,
			"0.003": 15.3184480674,
			"0.004": 13.3096690334,
			"0.005": 7.58990960545,
			"0.006": 4.87659923237,
			"0.007": 4.81477461303,
			"0.008": 5.30589941811,
			"0.009": 5.55056485893,
			"0.01": 7.27383653534,
			"0.011": 8.43286393297,
			"0.012": 1.06253402432,
			"0.013": 0.0,
			"0.014": 0.0,
			"0.015": 0.0,
			"0.016": 0.0,
			"0.017": 0.0,
			"0.018": 0.0,
			"0.019": 0.0,
			"0.02": 0.0,
			"0.021": 0.0,
			"0.022": 0.0,
			"0.023": 0.0,
			"0.024": 0.0,
			"0.025": 0.0
		}
	}
}
