{
	 "smiles": "ClC1=C(Cl)C=C(C=C1)C(=O)CC#N", 
	 "Tm": 388.65, 
	 "num_atms": 18, 
	 "gaussian": { 
		 "optdone": 1, 
		 "sigma_profile": "yes", 
		 "theory": "DFT", 
		 "functional": "B3LYP", 
		 "basiset": "6-31G**", 
		 "properties": { 
			 "R2extent": 3515.0343, 
			 "electric_dipole_moment_norm": 3.15683163314, 
			 "electric_quadrupole_moment_norm": 15.2760270336, 
			 "total_energy": -1396.30254893, 
			 "HOMO_LUMO_gap": 0.1777, 
			 "cosmo_polarized_energy": -12.83, 
			 "cosmo_cavitation_energy": 27.74, 
			 "cosmo_dispersion_energy": -19.54, 
			 "cosmo_repulsion_energy": 1.55, 
			 "cosmo_total_nonelectrostatic_energy": 9.76, 
			 "SMD_solvation_energy": 6.11 
		},
		"coords": [
			{
				"x": -0.0335746576,
				"y": 2.7284845878,
				"z": -2.3959468298,
				"element": "Cl" 
			},
			{
				"x": -0.403715925,
				"y": 1.6066147671,
				"z": -1.1192197268,
				"element": "C" 
			},
			{
				"x": 0.6087186254,
				"y": 1.0222074441,
				"z": -0.3432831054,
				"element": "C" 
			},
			{
				"x": 2.2912030574,
				"y": 1.3887352894,
				"z": -0.6155629442,
				"element": "Cl" 
			},
			{
				"x": 0.2730187057,
				"y": 0.1265436592,
				"z": 0.6721350017,
				"element": "C" 
			},
			{
				"x": -1.0672856618,
				"y": -0.1909668198,
				"z": 0.925169233,
				"element": "C" 
			},
			{
				"x": -2.0730726112,
				"y": 0.3993337341,
				"z": 0.1430051132,
				"element": "C" 
			},
			{
				"x": -1.7439174722,
				"y": 1.2875223629,
				"z": -0.869616328,
				"element": "C" 
			},
			{
				"x": -1.4900934831,
				"y": -1.1215903252,
				"z": 2.0116270686,
				"element": "C" 
			},
			{
				"x": -2.6633047562,
				"y": -1.3451863912,
				"z": 2.2419399801,
				"element": "O" 
			},
			{
				"x": -0.4192083168,
				"y": -1.7928601675,
				"z": 2.9070170616,
				"element": "C" 
			},
			{
				"x": 0.47123106,
				"y": -2.6999139837,
				"z": 2.1836662801,
				"element": "C" 
			},
			{
				"x": 1.1711790224,
				"y": -3.4169818413,
				"z": 1.5978062715,
				"element": "N" 
			},
			{
				"x": 1.0789581029,
				"y": -0.3190877331,
				"z": 1.2425898191,
				"element": "H" 
			},
			{
				"x": -3.1072410276,
				"y": 0.1472565074,
				"z": 0.3485906378,
				"element": "H" 
			},
			{
				"x": -2.5147462257,
				"y": 1.7464529056,
				"z": -1.4784453995,
				"element": "H" 
			},
			{
				"x": 0.1833007138,
				"y": -1.024450768,
				"z": 3.4070807749,
				"element": "H" 
			},
			{
				"x": -0.9637491504,
				"y": -2.3495132278,
				"z": 3.6738470921,
				"element": "H" 
			}
		],
		 "valence_orbital": [ 
			{
				"type": "occ",
				"energy": -0.34033,
				"method": "rhf"
			},
			{
				"type": "occ",
				"energy": -0.32518,
				"method": "rhf"
			},
			{
				"type": "occ",
				"energy": -0.28539,
				"method": "rhf"
			},
			{
				"type": "occ",
				"energy": -0.28427,
				"method": "rhf"
			},
			{
				"type": "occ",
				"energy": -0.26986,
				"method": "rhf"
			},
			{
				"type": "unocc",
				"energy": -0.09216,
				"method": "rhf"
			},
			{
				"type": "unocc",
				"energy": -0.04386,
				"method": "rhf"
			},
			{
				"type": "unocc",
				"energy": -0.01245,
				"method": "rhf"
			},
			{
				"type": "unocc",
				"energy": -0.00247,
				"method": "rhf"
			},
			{
				"type": "unocc",
				"energy": 0.01996,
				"method": "rhf"
			}
		],
		"cosmo_sigma_profile": { 
			"-0.025": 0.0,
			"-0.024": 0.0,
			"-0.023": 0.0,
			"-0.022": 0.0,
			"-0.021": 0.0,
			"-0.02": 0.0,
			"-0.019": 0.0,
			"-0.018": 0.0,
			"-0.017": 0.0,
			"-0.016": 0.0,
			"-0.015": 0.0,
			"-0.014": 0.0,
			"-0.013": 0.087754665708,
			"-0.012": 0.862715008496,
			"-0.011": 3.49278523578,
			"-0.01": 4.14554355872,
			"-0.009": 5.67905215343,
			"-0.008": 7.24936612659,
			"-0.007": 8.82174911428,
			"-0.006": 8.52111567542,
			"-0.005": 8.83245417867,
			"-0.004": 7.76758505594,
			"-0.003": 9.39247039245,
			"-0.002": 14.0350897732,
			"-0.001": 26.0248853789,
			"0.0": 23.9662947225,
			"0.001": 17.0881262274,
			"0.002": 14.1693286344,
			"0.003": 19.0616449707,
			"0.004": 12.0442137204,
			"0.005": 5.63891052052,
			"0.006": 3.66862582308,
			"0.007": 3.77309494392,
			"0.008": 5.58417417894,
			"0.009": 5.29561409142,
			"0.01": 6.9284278254,
			"0.011": 3.54474191382,
			"0.012": 2.36573312655,
			"0.013": 0.900998286398,
			"0.014": 0.0,
			"0.015": 0.0,
			"0.016": 0.0,
			"0.017": 0.0,
			"0.018": 0.0,
			"0.019": 0.0,
			"0.02": 0.0,
			"0.021": 0.0,
			"0.022": 0.0,
			"0.023": 0.0,
			"0.024": 0.0,
			"0.025": 0.0
		}
	}
}
