{
	 "smiles": "CC(N)=NS(=O)(=O)C1=C(Br)C=CC(Br)=C1", 
	 "Tm": 456.15, 
	 "num_atms": 23, 
	 "gaussian": { 
		 "optdone": 1, 
		 "sigma_profile": "yes", 
		 "theory": "DFT", 
		 "functional": "B3LYP", 
		 "basiset": "6-31G**", 
		 "properties": { 
			 "R2extent": 7346.0508, 
			 "electric_dipole_moment_norm": 5.1093558821, 
			 "electric_quadrupole_moment_norm": 32.1859116172, 
			 "total_energy": -6110.54485944, 
			 "HOMO_LUMO_gap": 0.19745, 
			 "cosmo_polarized_energy": -21.94, 
			 "cosmo_cavitation_energy": 33.31, 
			 "cosmo_dispersion_energy": -25.14, 
			 "cosmo_repulsion_energy": 1.94, 
			 "cosmo_total_nonelectrostatic_energy": 10.11, 
			 "SMD_solvation_energy": 2.81 
		},
		"coords": [
			{
				"x": -3.8626903647,
				"y": 0.6901785469,
				"z": 0.0929006904,
				"element": "C" 
			},
			{
				"x": -2.8337900997,
				"y": -0.3716528492,
				"z": 0.4014367916,
				"element": "C" 
			},
			{
				"x": -3.2723876848,
				"y": -1.4375045968,
				"z": 1.10661798,
				"element": "N" 
			},
			{
				"x": -1.5756320311,
				"y": -0.3607797171,
				"z": 0.0570688042,
				"element": "N" 
			},
			{
				"x": -0.9962636431,
				"y": 0.9393764893,
				"z": -0.8145956537,
				"element": "S" 
			},
			{
				"x": -1.0221841792,
				"y": 2.1595107525,
				"z": 0.006148822,
				"element": "O" 
			},
			{
				"x": -1.604101257,
				"y": 0.9711780539,
				"z": -2.1534660026,
				"element": "O" 
			},
			{
				"x": 0.7341083895,
				"y": 0.4290662053,
				"z": -1.0001421886,
				"element": "C" 
			},
			{
				"x": 1.6433444353,
				"y": 1.2437139322,
				"z": -1.6921510282,
				"element": "C" 
			},
			{
				"x": 1.1596860994,
				"y": 2.9082309151,
				"z": -2.4753755204,
				"element": "Br" 
			},
			{
				"x": 2.9724168413,
				"y": 0.8396633708,
				"z": -1.8280744954,
				"element": "C" 
			},
			{
				"x": 3.4096466647,
				"y": -0.3656858659,
				"z": -1.2841154998,
				"element": "C" 
			},
			{
				"x": 2.4999141066,
				"y": -1.1664358549,
				"z": -0.5996878081,
				"element": "C" 
			},
			{
				"x": 3.0784135006,
				"y": -2.8222551236,
				"z": 0.1537589349,
				"element": "Br" 
			},
			{
				"x": 1.1708610576,
				"y": -0.7811889409,
				"z": -0.4534038763,
				"element": "C" 
			},
			{
				"x": -4.844967854,
				"y": 0.4369530078,
				"z": 0.4972613503,
				"element": "H" 
			},
			{
				"x": -3.5300455987,
				"y": 1.6448138429,
				"z": 0.5083536119,
				"element": "H" 
			},
			{
				"x": -3.933786306,
				"y": 0.8180708938,
				"z": -0.9902308862,
				"element": "H" 
			},
			{
				"x": -2.6238132837,
				"y": -2.174617546,
				"z": 1.3384420915,
				"element": "H" 
			},
			{
				"x": -4.2294633913,
				"y": -1.5130495686,
				"z": 1.4056544331,
				"element": "H" 
			},
			{
				"x": 3.666367726,
				"y": 1.4764918556,
				"z": -2.3643831623,
				"element": "H" 
			},
			{
				"x": 4.4432257048,
				"y": -0.6728924786,
				"z": -1.3936333596,
				"element": "H" 
			},
			{
				"x": 0.4637411676,
				"y": -1.4015853244,
				"z": 0.0776159713,
				"element": "H" 
			}
		],
		 "valence_orbital": [ 
			{
				"type": "occ",
				"energy": -0.29087,
				"method": "rhf"
			},
			{
				"type": "occ",
				"energy": -0.27111,
				"method": "rhf"
			},
			{
				"type": "occ",
				"energy": -0.2692,
				"method": "rhf"
			},
			{
				"type": "occ",
				"energy": -0.2574,
				"method": "rhf"
			},
			{
				"type": "occ",
				"energy": -0.24124,
				"method": "rhf"
			},
			{
				"type": "unocc",
				"energy": -0.04379,
				"method": "rhf"
			},
			{
				"type": "unocc",
				"energy": -0.02932,
				"method": "rhf"
			},
			{
				"type": "unocc",
				"energy": -0.01077,
				"method": "rhf"
			},
			{
				"type": "unocc",
				"energy": -0.01014,
				"method": "rhf"
			},
			{
				"type": "unocc",
				"energy": 0.00877,
				"method": "rhf"
			}
		],
		"cosmo_sigma_profile": { 
			"-0.025": 0.0,
			"-0.024": 0.0,
			"-0.023": 0.0,
			"-0.022": 0.0,
			"-0.021": 0.0,
			"-0.02": 0.0,
			"-0.019": 0.0,
			"-0.018": 0.0,
			"-0.017": 0.0,
			"-0.016": 0.847172623751,
			"-0.015": 2.49594445492,
			"-0.014": 2.59294705987,
			"-0.013": 2.65036365254,
			"-0.012": 2.94652531124,
			"-0.011": 2.5200641328,
			"-0.01": 2.22892674395,
			"-0.009": 3.12202050848,
			"-0.008": 7.02025541407,
			"-0.007": 5.6551978359,
			"-0.006": 6.91606761885,
			"-0.005": 13.2365948027,
			"-0.004": 14.4845475958,
			"-0.003": 16.9814571264,
			"-0.002": 15.5118736541,
			"-0.001": 17.3108530687,
			"0.0": 32.9838735612,
			"0.001": 23.3117697833,
			"0.002": 16.2536721147,
			"0.003": 20.9318398627,
			"0.004": 16.8185032975,
			"0.005": 5.19024318137,
			"0.006": 5.11414500267,
			"0.007": 4.91818685958,
			"0.008": 3.80246431694,
			"0.009": 4.1890776459,
			"0.01": 6.41905722592,
			"0.011": 11.3524509695,
			"0.012": 4.9399490711,
			"0.013": 0.177890825539,
			"0.014": 0.0,
			"0.015": 0.0,
			"0.016": 0.0,
			"0.017": 0.0,
			"0.018": 0.0,
			"0.019": 0.0,
			"0.02": 0.0,
			"0.021": 0.0,
			"0.022": 0.0,
			"0.023": 0.0,
			"0.024": 0.0,
			"0.025": 0.0
		}
	}
}
