{
	 "smiles": "N#CC1=CN2C=CC=CC2=C1", 
	 "Tm": 342.15, 
	 "num_atms": 17, 
	 "gaussian": { 
		 "optdone": 1, 
		 "sigma_profile": "yes", 
		 "theory": "DFT", 
		 "functional": "B3LYP", 
		 "basiset": "6-31G**", 
		 "properties": { 
			 "R2extent": 1984.8966, 
			 "electric_dipole_moment_norm": 6.01658390534, 
			 "electric_quadrupole_moment_norm": 14.5359311191, 
			 "total_energy": -456.044612055, 
			 "HOMO_LUMO_gap": 0.16104, 
			 "cosmo_polarized_energy": -11.2, 
			 "cosmo_cavitation_energy": 22.45, 
			 "cosmo_dispersion_energy": -16.2, 
			 "cosmo_repulsion_energy": 1.28, 
			 "cosmo_total_nonelectrostatic_energy": 7.53, 
			 "SMD_solvation_energy": 5.95 
		},
		"coords": [
			{
				"x": -1.1284457777,
				"y": 0.1349527825,
				"z": -3.5239367619,
				"element": "N" 
			},
			{
				"x": -0.6035588415,
				"y": 0.0082380671,
				"z": -2.4928666794,
				"element": "C" 
			},
			{
				"x": 0.0355682558,
				"y": -0.1516846398,
				"z": -1.2319148972,
				"element": "C" 
			},
			{
				"x": 0.8828210888,
				"y": 0.78656535,
				"z": -0.6432008926,
				"element": "C" 
			},
			{
				"x": 1.2953255512,
				"y": 0.2745904928,
				"z": 0.5555350915,
				"element": "N" 
			},
			{
				"x": 2.1389689462,
				"y": 0.831921388,
				"z": 1.4966648816,
				"element": "C" 
			},
			{
				"x": 2.4254418076,
				"y": 0.1478497231,
				"z": 2.6384182096,
				"element": "C" 
			},
			{
				"x": 1.8597885921,
				"y": -1.144095825,
				"z": 2.8718869048,
				"element": "C" 
			},
			{
				"x": 1.0225810764,
				"y": -1.7022195065,
				"z": 1.942670613,
				"element": "C" 
			},
			{
				"x": 0.7133213303,
				"y": -1.0029091017,
				"z": 0.7469525923,
				"element": "C" 
			},
			{
				"x": -0.0730654057,
				"y": -1.2711469904,
				"z": -0.3669054213,
				"element": "C" 
			},
			{
				"x": 1.2063577858,
				"y": 1.7545296439,
				"z": -0.9923196323,
				"element": "H" 
			},
			{
				"x": 2.5332643629,
				"y": 1.8123618467,
				"z": 1.2587499325,
				"element": "H" 
			},
			{
				"x": 3.0892110862,
				"y": 0.5990787287,
				"z": 3.3669298292,
				"element": "H" 
			},
			{
				"x": 2.098338172,
				"y": -1.6755465987,
				"z": 3.7867367074,
				"element": "H" 
			},
			{
				"x": 0.5792955203,
				"y": -2.680757776,
				"z": 2.093715536,
				"element": "H" 
			},
			{
				"x": -0.6558135505,
				"y": -2.1629275847,
				"z": -0.5399160133,
				"element": "H" 
			}
		],
		 "valence_orbital": [ 
			{
				"type": "occ",
				"energy": -0.33207,
				"method": "rhf"
			},
			{
				"type": "occ",
				"energy": -0.32084,
				"method": "rhf"
			},
			{
				"type": "occ",
				"energy": -0.31362,
				"method": "rhf"
			},
			{
				"type": "occ",
				"energy": -0.24758,
				"method": "rhf"
			},
			{
				"type": "occ",
				"energy": -0.20957,
				"method": "rhf"
			},
			{
				"type": "unocc",
				"energy": -0.04853,
				"method": "rhf"
			},
			{
				"type": "unocc",
				"energy": -0.01485,
				"method": "rhf"
			},
			{
				"type": "unocc",
				"energy": 0.02089,
				"method": "rhf"
			},
			{
				"type": "unocc",
				"energy": 0.04071,
				"method": "rhf"
			},
			{
				"type": "unocc",
				"energy": 0.07773,
				"method": "rhf"
			}
		],
		"cosmo_sigma_profile": { 
			"-0.025": 0.0,
			"-0.024": 0.0,
			"-0.023": 0.0,
			"-0.022": 0.0,
			"-0.021": 0.0,
			"-0.02": 0.0,
			"-0.019": 0.0,
			"-0.018": 0.0,
			"-0.017": 0.0,
			"-0.016": 0.0,
			"-0.015": 0.0,
			"-0.014": 0.0,
			"-0.013": 0.0,
			"-0.012": 0.0,
			"-0.011": 0.328993126106,
			"-0.01": 2.52915881097,
			"-0.009": 4.56764312911,
			"-0.008": 4.41224228652,
			"-0.007": 9.35904604934,
			"-0.006": 11.7555910821,
			"-0.005": 11.7223887329,
			"-0.004": 10.3179987468,
			"-0.003": 7.88218758169,
			"-0.002": 8.03750234475,
			"-0.001": 9.44344217397,
			"0.0": 14.8966475435,
			"0.001": 15.9063591712,
			"0.002": 15.3147078246,
			"0.003": 16.5982380878,
			"0.004": 12.2465289788,
			"0.005": 3.3914001789,
			"0.006": 3.05222166678,
			"0.007": 2.28625928252,
			"0.008": 3.31369061728,
			"0.009": 3.43251076502,
			"0.01": 3.46323860645,
			"0.011": 3.02214705285,
			"0.012": 2.70484144354,
			"0.013": 2.20470978128,
			"0.014": 0.414863278231,
			"0.015": 0.0,
			"0.016": 0.0,
			"0.017": 0.0,
			"0.018": 0.0,
			"0.019": 0.0,
			"0.02": 0.0,
			"0.021": 0.0,
			"0.022": 0.0,
			"0.023": 0.0,
			"0.024": 0.0,
			"0.025": 0.0
		}
	}
}
