{
	 "smiles": "O=C1CCC(=O)N1C1=CC=CC=C1", 
	 "Tm": 429.15, 
	 "num_atms": 22, 
	 "gaussian": { 
		 "optdone": 1, 
		 "sigma_profile": "yes", 
		 "theory": "DFT", 
		 "functional": "B3LYP", 
		 "basiset": "6-31G**", 
		 "properties": { 
			 "R2extent": 2590.4267, 
			 "electric_dipole_moment_norm": 1.50127541111, 
			 "electric_quadrupole_moment_norm": 16.940091645, 
			 "total_energy": -591.717651081, 
			 "HOMO_LUMO_gap": 0.21841, 
			 "cosmo_polarized_energy": -12.72, 
			 "cosmo_cavitation_energy": 25.89, 
			 "cosmo_dispersion_energy": -19.19, 
			 "cosmo_repulsion_energy": 1.52, 
			 "cosmo_total_nonelectrostatic_energy": 8.22, 
			 "SMD_solvation_energy": 5.66 
		},
		"coords": [
			{
				"x": 0.3934054975,
				"y": 1.3505238396,
				"z": -1.7338901942,
				"element": "O" 
			},
			{
				"x": -0.390711394,
				"y": 1.1446796226,
				"z": -0.8345263143,
				"element": "C" 
			},
			{
				"x": -1.3019148741,
				"y": 2.1721916071,
				"z": -0.1729682884,
				"element": "C" 
			},
			{
				"x": -2.0556272702,
				"y": 1.4078604408,
				"z": 0.9191836236,
				"element": "C" 
			},
			{
				"x": -1.5785282943,
				"y": -0.0357710775,
				"z": 0.8094386627,
				"element": "C" 
			},
			{
				"x": -1.9529447204,
				"y": -0.9711469126,
				"z": 1.4809681094,
				"element": "O" 
			},
			{
				"x": -0.6154676136,
				"y": -0.1023806659,
				"z": -0.2174395386,
				"element": "N" 
			},
			{
				"x": 0.0620069357,
				"y": -1.3076215649,
				"z": -0.5933720464,
				"element": "C" 
			},
			{
				"x": 1.4347030298,
				"y": -1.2789909874,
				"z": -0.8624054727,
				"element": "C" 
			},
			{
				"x": 2.0867060406,
				"y": -2.4545181335,
				"z": -1.2324451455,
				"element": "C" 
			},
			{
				"x": 1.3819480809,
				"y": -3.6555799569,
				"z": -1.3257029903,
				"element": "C" 
			},
			{
				"x": 0.0137627591,
				"y": -3.6764840123,
				"z": -1.0508284916,
				"element": "C" 
			},
			{
				"x": -0.6528164999,
				"y": -2.5064993377,
				"z": -0.6892661459,
				"element": "C" 
			},
			{
				"x": -0.6850152313,
				"y": 2.9912293613,
				"z": 0.2070831949,
				"element": "H" 
			},
			{
				"x": -1.955904708,
				"y": 2.5960446101,
				"z": -0.9405701129,
				"element": "H" 
			},
			{
				"x": -1.8402112146,
				"y": 1.764806471,
				"z": 1.9304953898,
				"element": "H" 
			},
			{
				"x": -3.1425419178,
				"y": 1.4254730593,
				"z": 0.8003352516,
				"element": "H" 
			},
			{
				"x": 1.9790254736,
				"y": -0.3455805456,
				"z": -0.7983060597,
				"element": "H" 
			},
			{
				"x": 3.1511983183,
				"y": -2.4280118406,
				"z": -1.4455455878,
				"element": "H" 
			},
			{
				"x": 1.8954651697,
				"y": -4.569068331,
				"z": -1.6106261408,
				"element": "H" 
			},
			{
				"x": -0.5428771789,
				"y": -4.6063774432,
				"z": -1.1194569193,
				"element": "H" 
			},
			{
				"x": -1.7121603879,
				"y": -2.5237782028,
				"z": -0.4675547836,
				"element": "H" 
			}
		],
		 "valence_orbital": [ 
			{
				"type": "occ",
				"energy": -0.30202,
				"method": "rhf"
			},
			{
				"type": "occ",
				"energy": -0.28716,
				"method": "rhf"
			},
			{
				"type": "occ",
				"energy": -0.26132,
				"method": "rhf"
			},
			{
				"type": "occ",
				"energy": -0.252,
				"method": "rhf"
			},
			{
				"type": "occ",
				"energy": -0.24061,
				"method": "rhf"
			},
			{
				"type": "unocc",
				"energy": -0.0222,
				"method": "rhf"
			},
			{
				"type": "unocc",
				"energy": -0.01866,
				"method": "rhf"
			},
			{
				"type": "unocc",
				"energy": -0.00262,
				"method": "rhf"
			},
			{
				"type": "unocc",
				"energy": 0.03391,
				"method": "rhf"
			},
			{
				"type": "unocc",
				"energy": 0.08125,
				"method": "rhf"
			}
		],
		"cosmo_sigma_profile": { 
			"-0.025": 0.0,
			"-0.024": 0.0,
			"-0.023": 0.0,
			"-0.022": 0.0,
			"-0.021": 0.0,
			"-0.02": 0.0,
			"-0.019": 0.0,
			"-0.018": 0.0,
			"-0.017": 0.0,
			"-0.016": 0.0,
			"-0.015": 0.0,
			"-0.014": 0.0,
			"-0.013": 0.0,
			"-0.012": 0.0,
			"-0.011": 0.0,
			"-0.01": 0.0,
			"-0.009": 0.0290829167903,
			"-0.008": 2.10609653529,
			"-0.007": 15.1498348289,
			"-0.006": 19.4666520925,
			"-0.005": 19.9461592306,
			"-0.004": 19.6267396282,
			"-0.003": 16.6348214311,
			"-0.002": 12.2512582982,
			"-0.001": 8.56981963033,
			"0.0": 6.59347743758,
			"0.001": 9.4445486137,
			"0.002": 9.2613942356,
			"0.003": 8.75346115035,
			"0.004": 11.2553604748,
			"0.005": 13.2581492607,
			"0.006": 3.78078096335,
			"0.007": 2.68480197904,
			"0.008": 4.14157532666,
			"0.009": 3.32350438546,
			"0.01": 4.89304435833,
			"0.011": 7.82991455877,
			"0.012": 6.96545942741,
			"0.013": 1.0214234685,
			"0.014": 0.0,
			"0.015": 0.0,
			"0.016": 0.0,
			"0.017": 0.0,
			"0.018": 0.0,
			"0.019": 0.0,
			"0.02": 0.0,
			"0.021": 0.0,
			"0.022": 0.0,
			"0.023": 0.0,
			"0.024": 0.0,
			"0.025": 0.0
		}
	}
}
