{
	 "smiles": "CN(C(C)=O)C1=C(N)C=CC=C1", 
	 "Tm": 420.15, 
	 "num_atms": 24, 
	 "gaussian": { 
		 "optdone": 1, 
		 "sigma_profile": "yes", 
		 "theory": "DFT", 
		 "functional": "B3LYP", 
		 "basiset": "6-31G**", 
		 "properties": { 
			 "R2extent": 2435.6651, 
			 "electric_dipole_moment_norm": 3.740231299, 
			 "electric_quadrupole_moment_norm": 8.14422411222, 
			 "total_energy": -534.93494963, 
			 "HOMO_LUMO_gap": 0.20081, 
			 "cosmo_polarized_energy": -12.37, 
			 "cosmo_cavitation_energy": 26.95, 
			 "cosmo_dispersion_energy": -18.99, 
			 "cosmo_repulsion_energy": 1.52, 
			 "cosmo_total_nonelectrostatic_energy": 9.48, 
			 "SMD_solvation_energy": 6.26 
		},
		"coords": [
			{
				"x": 1.8680990614,
				"y": 0.5843547281,
				"z": -0.0403496105,
				"element": "C" 
			},
			{
				"x": 0.4365874922,
				"y": 0.2749338327,
				"z": -0.0519155771,
				"element": "N" 
			},
			{
				"x": 0.0339159297,
				"y": -1.0312161447,
				"z": 0.2009778319,
				"element": "C" 
			},
			{
				"x": -1.4551433511,
				"y": -1.3105697745,
				"z": 0.0869238394,
				"element": "C" 
			},
			{
				"x": 0.8362196326,
				"y": -1.9002471215,
				"z": 0.5187158672,
				"element": "O" 
			},
			{
				"x": -0.4521461454,
				"y": 1.2927204789,
				"z": -0.5354338341,
				"element": "C" 
			},
			{
				"x": -1.199800635,
				"y": 2.0594086288,
				"z": 0.3872383293,
				"element": "C" 
			},
			{
				"x": -1.1686778402,
				"y": 1.7527022432,
				"z": 1.7434941561,
				"element": "N" 
			},
			{
				"x": -2.0215188323,
				"y": 3.0880572198,
				"z": -0.1064616537,
				"element": "C" 
			},
			{
				"x": -2.0939542471,
				"y": 3.3495062883,
				"z": -1.4711524243,
				"element": "C" 
			},
			{
				"x": -1.3532175283,
				"y": 2.5918316003,
				"z": -2.382394704,
				"element": "C" 
			},
			{
				"x": -0.5367670396,
				"y": 1.5690201546,
				"z": -1.9028451981,
				"element": "C" 
			},
			{
				"x": 2.0504341615,
				"y": 1.5043877465,
				"z": 0.5244256348,
				"element": "H" 
			},
			{
				"x": 2.2538929511,
				"y": 0.7238633596,
				"z": -1.0573358645,
				"element": "H" 
			},
			{
				"x": 2.3879078057,
				"y": -0.2517432643,
				"z": 0.4265656272,
				"element": "H" 
			},
			{
				"x": -2.024957574,
				"y": -0.6880709521,
				"z": 0.7837308086,
				"element": "H" 
			},
			{
				"x": -1.8247217479,
				"y": -1.0991900019,
				"z": -0.9207090056,
				"element": "H" 
			},
			{
				"x": -1.6134361744,
				"y": -2.3629325942,
				"z": 0.3215986106,
				"element": "H" 
			},
			{
				"x": -0.3586770143,
				"y": 1.225603633,
				"z": 2.040764584,
				"element": "H" 
			},
			{
				"x": -1.4088359421,
				"y": 2.5074871497,
				"z": 2.370120962,
				"element": "H" 
			},
			{
				"x": -2.6063047684,
				"y": 3.6789729461,
				"z": 0.5942238995,
				"element": "H" 
			},
			{
				"x": -2.7349130876,
				"y": 4.1522267106,
				"z": -1.8247522663,
				"element": "H" 
			},
			{
				"x": -1.4113281394,
				"y": 2.7939462288,
				"z": -3.4469527319,
				"element": "H" 
			},
			{
				"x": 0.052143033,
				"y": 0.9652469043,
				"z": -2.5880772807,
				"element": "H" 
			}
		],
		 "valence_orbital": [ 
			{
				"type": "occ",
				"energy": -0.31628,
				"method": "rhf"
			},
			{
				"type": "occ",
				"energy": -0.26163,
				"method": "rhf"
			},
			{
				"type": "occ",
				"energy": -0.24431,
				"method": "rhf"
			},
			{
				"type": "occ",
				"energy": -0.23503,
				"method": "rhf"
			},
			{
				"type": "occ",
				"energy": -0.21016,
				"method": "rhf"
			},
			{
				"type": "unocc",
				"energy": -0.00935,
				"method": "rhf"
			},
			{
				"type": "unocc",
				"energy": 0.00859,
				"method": "rhf"
			},
			{
				"type": "unocc",
				"energy": 0.03354,
				"method": "rhf"
			},
			{
				"type": "unocc",
				"energy": 0.07349,
				"method": "rhf"
			},
			{
				"type": "unocc",
				"energy": 0.09302,
				"method": "rhf"
			}
		],
		"cosmo_sigma_profile": { 
			"-0.025": 0.0,
			"-0.024": 0.0,
			"-0.023": 0.0,
			"-0.022": 0.0,
			"-0.021": 0.0,
			"-0.02": 0.0,
			"-0.019": 0.0,
			"-0.018": 0.0,
			"-0.017": 0.0,
			"-0.016": 0.0,
			"-0.015": 0.0,
			"-0.014": 0.0,
			"-0.013": 0.437223595125,
			"-0.012": 1.59341602454,
			"-0.011": 1.9685575557,
			"-0.01": 2.84370771837,
			"-0.009": 2.81669794,
			"-0.008": 2.45207480875,
			"-0.007": 2.4812788985,
			"-0.006": 6.07044333779,
			"-0.005": 14.8888102826,
			"-0.004": 18.9846455879,
			"-0.003": 20.2407466578,
			"-0.002": 21.6413783176,
			"-0.001": 23.7632672608,
			"0.0": 13.2688257932,
			"0.001": 10.0695231834,
			"0.002": 8.71494216725,
			"0.003": 9.74117856317,
			"0.004": 9.00894497533,
			"0.005": 9.20690999551,
			"0.006": 9.19719878002,
			"0.007": 3.79303951524,
			"0.008": 2.24097036383,
			"0.009": 1.69911652577,
			"0.01": 2.48187166618,
			"0.011": 2.15760083313,
			"0.012": 1.68636490877,
			"0.013": 3.78119254237,
			"0.014": 4.31200805838,
			"0.015": 1.21504830697,
			"0.016": 0.0,
			"0.017": 0.0,
			"0.018": 0.0,
			"0.019": 0.0,
			"0.02": 0.0,
			"0.021": 0.0,
			"0.022": 0.0,
			"0.023": 0.0,
			"0.024": 0.0,
			"0.025": 0.0
		}
	}
}
