{
	 "smiles": "NC1=CC(Cl)=C(SC2=NN=CS2)C=C1", 
	 "Tm": 386.15, 
	 "num_atms": 20, 
	 "gaussian": { 
		 "optdone": 1, 
		 "sigma_profile": "yes", 
		 "theory": "DFT", 
		 "functional": "B3LYP", 
		 "basiset": "6-31G**", 
		 "properties": { 
			 "R2extent": 4996.086, 
			 "electric_dipole_moment_norm": 2.80650268306, 
			 "electric_quadrupole_moment_norm": 21.9911441692, 
			 "total_energy": -1729.24233722, 
			 "HOMO_LUMO_gap": 0.18677, 
			 "cosmo_polarized_energy": -16.97, 
			 "cosmo_cavitation_energy": 30.34, 
			 "cosmo_dispersion_energy": -22.7, 
			 "cosmo_repulsion_energy": 1.71, 
			 "cosmo_total_nonelectrostatic_energy": 9.35, 
			 "SMD_solvation_energy": 2.96 
		},
		"coords": [
			{
				"x": 0.4977964622,
				"y": 0.4339669806,
				"z": -3.5472138386,
				"element": "N" 
			},
			{
				"x": -0.0909753732,
				"y": 0.0700198809,
				"z": -2.347792092,
				"element": "C" 
			},
			{
				"x": 0.6526507826,
				"y": -0.6148176422,
				"z": -1.3699862456,
				"element": "C" 
			},
			{
				"x": 0.0511677861,
				"y": -1.0240874827,
				"z": -0.1860299318,
				"element": "C" 
			},
			{
				"x": 1.0506775174,
				"y": -1.8663046804,
				"z": 0.9796966011,
				"element": "Cl" 
			},
			{
				"x": -1.3065100975,
				"y": -0.7635459598,
				"z": 0.0713292985,
				"element": "C" 
			},
			{
				"x": -2.1500432323,
				"y": -1.3278375477,
				"z": 1.536405966,
				"element": "S" 
			},
			{
				"x": -1.7368944582,
				"y": -0.0638996459,
				"z": 2.7058021692,
				"element": "C" 
			},
			{
				"x": -1.0843051046,
				"y": 1.0341439649,
				"z": 2.450354487,
				"element": "N" 
			},
			{
				"x": -0.9199854586,
				"y": 1.8255839774,
				"z": 3.5603532094,
				"element": "N" 
			},
			{
				"x": -1.4508753388,
				"y": 1.3154495702,
				"z": 4.62806697,
				"element": "C" 
			},
			{
				"x": -2.2237197327,
				"y": -0.2347997368,
				"z": 4.3909078173,
				"element": "S" 
			},
			{
				"x": -2.0361595074,
				"y": -0.0817283175,
				"z": -0.9135830092,
				"element": "C" 
			},
			{
				"x": -1.4521999808,
				"y": 0.3281928891,
				"z": -2.1028046904,
				"element": "C" 
			},
			{
				"x": 0.042019619,
				"y": 1.1707426762,
				"z": -4.0654515728,
				"element": "H" 
			},
			{
				"x": 1.504609052,
				"y": 0.5082035153,
				"z": -3.552530586,
				"element": "H" 
			},
			{
				"x": 1.7032065101,
				"y": -0.8295796178,
				"z": -1.5348466333,
				"element": "H" 
			},
			{
				"x": -1.4261515127,
				"y": 1.7993863239,
				"z": 5.5964748718,
				"element": "H" 
			},
			{
				"x": -3.083995519,
				"y": 0.1305219546,
				"z": -0.7291425316,
				"element": "H" 
			},
			{
				"x": -2.0452124137,
				"y": 0.8527888977,
				"z": -2.8465102591,
				"element": "H" 
			}
		],
		 "valence_orbital": [ 
			{
				"type": "occ",
				"energy": -0.29459,
				"method": "rhf"
			},
			{
				"type": "occ",
				"energy": -0.26416,
				"method": "rhf"
			},
			{
				"type": "occ",
				"energy": -0.25347,
				"method": "rhf"
			},
			{
				"type": "occ",
				"energy": -0.23591,
				"method": "rhf"
			},
			{
				"type": "occ",
				"energy": -0.22075,
				"method": "rhf"
			},
			{
				"type": "unocc",
				"energy": -0.03398,
				"method": "rhf"
			},
			{
				"type": "unocc",
				"energy": -0.02431,
				"method": "rhf"
			},
			{
				"type": "unocc",
				"energy": -0.01556,
				"method": "rhf"
			},
			{
				"type": "unocc",
				"energy": 0.00384,
				"method": "rhf"
			},
			{
				"type": "unocc",
				"energy": 0.01295,
				"method": "rhf"
			}
		],
		"cosmo_sigma_profile": { 
			"-0.025": 0.0,
			"-0.024": 0.0,
			"-0.023": 0.0,
			"-0.022": 0.0,
			"-0.021": 0.0,
			"-0.02": 0.0,
			"-0.019": 0.0,
			"-0.018": 0.0,
			"-0.017": 0.0,
			"-0.016": 0.0,
			"-0.015": 0.0,
			"-0.014": 0.535153166997,
			"-0.013": 3.11962854842,
			"-0.012": 3.39911951654,
			"-0.011": 4.97931770837,
			"-0.01": 6.49416477253,
			"-0.009": 4.05416105147,
			"-0.008": 6.29823443777,
			"-0.007": 7.40169058884,
			"-0.006": 7.42565474713,
			"-0.005": 9.16307776361,
			"-0.004": 8.0792793308,
			"-0.003": 10.5173221276,
			"-0.002": 17.405026625,
			"-0.001": 19.5052051246,
			"0.0": 19.2786122324,
			"0.001": 20.0125672974,
			"0.002": 18.2774294518,
			"0.003": 22.2094829928,
			"0.004": 19.3187780765,
			"0.005": 10.7241417571,
			"0.006": 6.00102426434,
			"0.007": 4.13547587093,
			"0.008": 3.59514360306,
			"0.009": 3.77434917374,
			"0.01": 3.50086434973,
			"0.011": 3.52710415443,
			"0.012": 4.03557937796,
			"0.013": 2.31047409256,
			"0.014": 1.22582432058,
			"0.015": 0.139604997922,
			"0.016": 0.0,
			"0.017": 0.0,
			"0.018": 0.0,
			"0.019": 0.0,
			"0.02": 0.0,
			"0.021": 0.0,
			"0.022": 0.0,
			"0.023": 0.0,
			"0.024": 0.0,
			"0.025": 0.0
		}
	}
}
