{
	 "smiles": "CC(=NO)C1=CC=C(Cl)C=C1Cl", 
	 "Tm": 423.15, 
	 "num_atms": 19, 
	 "gaussian": { 
		 "optdone": 1, 
		 "sigma_profile": "yes", 
		 "theory": "DFT", 
		 "functional": "B3LYP", 
		 "basiset": "6-31G**", 
		 "properties": { 
			 "R2extent": 3047.9628, 
			 "electric_dipole_moment_norm": 1.69070142249, 
			 "electric_quadrupole_moment_norm": 5.95210552326, 
			 "total_energy": -1359.37077133, 
			 "HOMO_LUMO_gap": 0.21487, 
			 "cosmo_polarized_energy": -8.45, 
			 "cosmo_cavitation_energy": 27.21, 
			 "cosmo_dispersion_energy": -19.61, 
			 "cosmo_repulsion_energy": 1.6, 
			 "cosmo_total_nonelectrostatic_energy": 9.2, 
			 "SMD_solvation_energy": 4.35 
		},
		"coords": [
			{
				"x": 2.718355624,
				"y": 0.7692114097,
				"z": 0.679687541,
				"element": "C" 
			},
			{
				"x": 1.6967847957,
				"y": -0.3239666174,
				"z": 0.5060110249,
				"element": "C" 
			},
			{
				"x": 2.1311934697,
				"y": -1.530717938,
				"z": 0.5372697479,
				"element": "N" 
			},
			{
				"x": 1.1060078309,
				"y": -2.4783097356,
				"z": 0.3899225016,
				"element": "O" 
			},
			{
				"x": 0.2520558758,
				"y": 0.044041,
				"z": 0.3879320417,
				"element": "C" 
			},
			{
				"x": -0.6071758922,
				"y": -0.1759552041,
				"z": 1.474919966,
				"element": "C" 
			},
			{
				"x": -1.95013823,
				"y": 0.1870843964,
				"z": 1.4359804874,
				"element": "C" 
			},
			{
				"x": -2.4527432115,
				"y": 0.7798534187,
				"z": 0.2782271347,
				"element": "C" 
			},
			{
				"x": -4.1419781802,
				"y": 1.2489660769,
				"z": 0.2053736393,
				"element": "Cl" 
			},
			{
				"x": -1.6392350962,
				"y": 1.0049769216,
				"z": -0.8290693762,
				"element": "C" 
			},
			{
				"x": -0.296428484,
				"y": 0.6324670939,
				"z": -0.7591204356,
				"element": "C" 
			},
			{
				"x": 0.6979022517,
				"y": 0.8987538051,
				"z": -2.1845622771,
				"element": "Cl" 
			},
			{
				"x": 2.5079590479,
				"y": 1.348498709,
				"z": 1.586595677,
				"element": "H" 
			},
			{
				"x": 2.695557956,
				"y": 1.4648295498,
				"z": -0.164820926,
				"element": "H" 
			},
			{
				"x": 3.7163028818,
				"y": 0.3334563049,
				"z": 0.7580915784,
				"element": "H" 
			},
			{
				"x": 1.5986778394,
				"y": -3.3095674467,
				"z": 0.4128049357,
				"element": "H" 
			},
			{
				"x": -0.2062461419,
				"y": -0.6463350889,
				"z": 2.366827344,
				"element": "H" 
			},
			{
				"x": -2.5986209469,
				"y": 0.0124579815,
				"z": 2.2867034042,
				"element": "H" 
			},
			{
				"x": -2.0376313897,
				"y": 1.4553553631,
				"z": -1.7296740088,
				"element": "H" 
			}
		],
		 "valence_orbital": [ 
			{
				"type": "occ",
				"energy": -0.31854,
				"method": "rhf"
			},
			{
				"type": "occ",
				"energy": -0.27939,
				"method": "rhf"
			},
			{
				"type": "occ",
				"energy": -0.26805,
				"method": "rhf"
			},
			{
				"type": "occ",
				"energy": -0.25882,
				"method": "rhf"
			},
			{
				"type": "occ",
				"energy": -0.24843,
				"method": "rhf"
			},
			{
				"type": "unocc",
				"energy": -0.03356,
				"method": "rhf"
			},
			{
				"type": "unocc",
				"energy": -0.02692,
				"method": "rhf"
			},
			{
				"type": "unocc",
				"energy": 0.00154,
				"method": "rhf"
			},
			{
				"type": "unocc",
				"energy": 0.00681,
				"method": "rhf"
			},
			{
				"type": "unocc",
				"energy": 0.0473,
				"method": "rhf"
			}
		],
		"cosmo_sigma_profile": { 
			"-0.025": 0.0,
			"-0.024": 0.0,
			"-0.023": 0.0,
			"-0.022": 0.0,
			"-0.021": 0.0,
			"-0.02": 0.0,
			"-0.019": 0.0,
			"-0.018": 0.163246254669,
			"-0.017": 0.740280962537,
			"-0.016": 1.021504783,
			"-0.015": 1.10695546605,
			"-0.014": 1.10187786099,
			"-0.013": 0.0733942237591,
			"-0.012": 0.429529681252,
			"-0.011": 0.608439231927,
			"-0.01": 0.926704975035,
			"-0.009": 1.34638750636,
			"-0.008": 4.29893646179,
			"-0.007": 5.47573164508,
			"-0.006": 6.77272559559,
			"-0.005": 8.29696604115,
			"-0.004": 10.7582243769,
			"-0.003": 13.4587094059,
			"-0.002": 16.2696697048,
			"-0.001": 19.1647076285,
			"0.0": 21.7764970394,
			"0.001": 24.1707735193,
			"0.002": 20.5862689446,
			"0.003": 18.4293829094,
			"0.004": 20.1255354465,
			"0.005": 6.00869088285,
			"0.006": 3.88239827104,
			"0.007": 3.59732409363,
			"0.008": 3.06647412015,
			"0.009": 2.76689632688,
			"0.01": 2.28969841014,
			"0.011": 1.51782548166,
			"0.012": 0.922186279075,
			"0.013": 0.480042954183,
			"0.014": 0.0,
			"0.015": 0.0,
			"0.016": 0.0,
			"0.017": 0.0,
			"0.018": 0.0,
			"0.019": 0.0,
			"0.02": 0.0,
			"0.021": 0.0,
			"0.022": 0.0,
			"0.023": 0.0,
			"0.024": 0.0,
			"0.025": 0.0
		}
	}
}
