{
	 "smiles": "CN(C)C(=O)C(C(F)(F)F)C(F)(F)F", 
	 "Tm": 327.15, 
	 "num_atms": 21, 
	 "gaussian": { 
		 "optdone": 1, 
		 "sigma_profile": "yes", 
		 "theory": "DFT", 
		 "functional": "B3LYP", 
		 "basiset": "6-31G**", 
		 "properties": { 
			 "R2extent": 2928.3558, 
			 "electric_dipole_moment_norm": 2.855595374, 
			 "electric_quadrupole_moment_norm": 8.92439831417, 
			 "total_energy": -961.885328668, 
			 "HOMO_LUMO_gap": 0.2542, 
			 "cosmo_polarized_energy": -7.63, 
			 "cosmo_cavitation_energy": 26.31, 
			 "cosmo_dispersion_energy": -17.99, 
			 "cosmo_repulsion_energy": 1.31, 
			 "cosmo_total_nonelectrostatic_energy": 9.63, 
			 "SMD_solvation_energy": 7.21 
		},
		"coords": [
			{
				"x": -1.8245264305,
				"y": -3.1746650047,
				"z": -0.4175042765,
				"element": "C" 
			},
			{
				"x": -1.229605094,
				"y": -1.8748058058,
				"z": -0.1132543544,
				"element": "N" 
			},
			{
				"x": -0.5094542286,
				"y": -1.2677205539,
				"z": -1.2243766702,
				"element": "C" 
			},
			{
				"x": -1.5717199228,
				"y": -1.2888521309,
				"z": 1.0705507959,
				"element": "C" 
			},
			{
				"x": -2.3081177362,
				"y": -1.8265474944,
				"z": 1.889867789,
				"element": "O" 
			},
			{
				"x": -1.0003229969,
				"y": 0.1003473835,
				"z": 1.4882294872,
				"element": "C" 
			},
			{
				"x": -1.342630895,
				"y": 1.3068686216,
				"z": 0.6010559871,
				"element": "C" 
			},
			{
				"x": -0.3480948424,
				"y": 1.6697352379,
				"z": -0.2405887834,
				"element": "F" 
			},
			{
				"x": -1.6173969663,
				"y": 2.3807805657,
				"z": 1.3618911733,
				"element": "F" 
			},
			{
				"x": -2.4321291337,
				"y": 1.0451650614,
				"z": -0.1500376985,
				"element": "F" 
			},
			{
				"x": 0.4666128393,
				"y": 0.0637479647,
				"z": 1.9204491338,
				"element": "C" 
			},
			{
				"x": 0.8293846917,
				"y": 1.2461722078,
				"z": 2.4561583242,
				"element": "F" 
			},
			{
				"x": 1.3251399577,
				"y": -0.2025342612,
				"z": 0.9141895159,
				"element": "F" 
			},
			{
				"x": 0.6388423757,
				"y": -0.8875437271,
				"z": 2.8547321102,
				"element": "F" 
			},
			{
				"x": -2.5887673868,
				"y": -3.075917593,
				"z": -1.1989540516,
				"element": "H" 
			},
			{
				"x": -2.2830588586,
				"y": -3.5733749772,
				"z": 0.4844618957,
				"element": "H" 
			},
			{
				"x": -1.046716234,
				"y": -3.8569449705,
				"z": -0.776356929,
				"element": "H" 
			},
			{
				"x": 0.0140750322,
				"y": -0.3678821448,
				"z": -0.9268427738,
				"element": "H" 
			},
			{
				"x": -1.1984928077,
				"y": -1.0236760425,
				"z": -2.0431166906,
				"element": "H" 
			},
			{
				"x": 0.2329297709,
				"y": -1.9789346056,
				"z": -1.6017862927,
				"element": "H" 
			},
			{
				"x": -1.5498511339,
				"y": 0.2806822687,
				"z": 2.4137323083,
				"element": "H" 
			}
		],
		 "valence_orbital": [ 
			{
				"type": "occ",
				"energy": -0.39821,
				"method": "rhf"
			},
			{
				"type": "occ",
				"energy": -0.38936,
				"method": "rhf"
			},
			{
				"type": "occ",
				"energy": -0.37351,
				"method": "rhf"
			},
			{
				"type": "occ",
				"energy": -0.26965,
				"method": "rhf"
			},
			{
				"type": "occ",
				"energy": -0.25611,
				"method": "rhf"
			},
			{
				"type": "unocc",
				"energy": -0.00191,
				"method": "rhf"
			},
			{
				"type": "unocc",
				"energy": 0.0713,
				"method": "rhf"
			},
			{
				"type": "unocc",
				"energy": 0.08792,
				"method": "rhf"
			},
			{
				"type": "unocc",
				"energy": 0.091,
				"method": "rhf"
			},
			{
				"type": "unocc",
				"energy": 0.12665,
				"method": "rhf"
			}
		],
		"cosmo_sigma_profile": { 
			"-0.025": 0.0,
			"-0.024": 0.0,
			"-0.023": 0.0,
			"-0.022": 0.0,
			"-0.021": 0.0,
			"-0.02": 0.0,
			"-0.019": 0.0,
			"-0.018": 0.0,
			"-0.017": 0.0,
			"-0.016": 0.0,
			"-0.015": 0.0,
			"-0.014": 0.0,
			"-0.013": 0.0,
			"-0.012": 0.0148194857167,
			"-0.011": 0.76547172581,
			"-0.01": 1.25700533602,
			"-0.009": 1.89686989247,
			"-0.008": 1.14726249646,
			"-0.007": 1.40201783767,
			"-0.006": 7.13785714584,
			"-0.005": 12.4590427428,
			"-0.004": 13.8249656133,
			"-0.003": 16.8163623927,
			"-0.002": 15.6969036304,
			"-0.001": 14.9927753001,
			"0.0": 18.1438059405,
			"0.001": 36.3665588328,
			"0.002": 43.904075962,
			"0.003": 3.60732275248,
			"0.004": 2.13736253288,
			"0.005": 1.47356351425,
			"0.006": 1.39170257307,
			"0.007": 1.74908229244,
			"0.008": 1.13251669485,
			"0.009": 1.20971014238,
			"0.01": 1.56500084657,
			"0.011": 1.85629295554,
			"0.012": 4.05235695894,
			"0.013": 2.85417611846,
			"0.014": 0.0244342065103,
			"0.015": 0.0,
			"0.016": 0.0,
			"0.017": 0.0,
			"0.018": 0.0,
			"0.019": 0.0,
			"0.02": 0.0,
			"0.021": 0.0,
			"0.022": 0.0,
			"0.023": 0.0,
			"0.024": 0.0,
			"0.025": 0.0
		}
	}
}
