{
	 "smiles": "OC1=NC2=CC=CC=C2S1", 
	 "Tm": 411.15, 
	 "num_atms": 15, 
	 "gaussian": { 
		 "optdone": 1, 
		 "sigma_profile": "yes", 
		 "theory": "DFT", 
		 "functional": "B3LYP", 
		 "basiset": "6-31G**", 
		 "properties": { 
			 "R2extent": 1869.332, 
			 "electric_dipole_moment_norm": 2.34869425213, 
			 "electric_quadrupole_moment_norm": 15.9719662678, 
			 "total_energy": -797.917838347, 
			 "HOMO_LUMO_gap": 0.20702, 
			 "cosmo_polarized_energy": -11.84, 
			 "cosmo_cavitation_energy": 20.92, 
			 "cosmo_dispersion_energy": -16.57, 
			 "cosmo_repulsion_energy": 1.28, 
			 "cosmo_total_nonelectrostatic_energy": 5.63, 
			 "SMD_solvation_energy": 1.91 
		},
		"coords": [
			{
				"x": -1.3910717428,
				"y": 2.0362023121,
				"z": -3.3300323752,
				"element": "O" 
			},
			{
				"x": -0.8075466675,
				"y": 1.5358715044,
				"z": -2.2287298906,
				"element": "C" 
			},
			{
				"x": -1.3739694686,
				"y": 1.5700336793,
				"z": -1.0782134816,
				"element": "N" 
			},
			{
				"x": -0.5584521881,
				"y": 0.9883309183,
				"z": -0.1167514161,
				"element": "C" 
			},
			{
				"x": -0.8805430626,
				"y": 0.8647705904,
				"z": 1.2405349558,
				"element": "C" 
			},
			{
				"x": 0.0293209552,
				"y": 0.258743834,
				"z": 2.1020219302,
				"element": "C" 
			},
			{
				"x": 1.2582370246,
				"y": -0.2272339349,
				"z": 1.6305463361,
				"element": "C" 
			},
			{
				"x": 1.6009450773,
				"y": -0.1153993113,
				"z": 0.2829149108,
				"element": "C" 
			},
			{
				"x": 0.6872957141,
				"y": 0.4918942342,
				"z": -0.5760161221,
				"element": "C" 
			},
			{
				"x": 0.81743217,
				"y": 0.7831455951,
				"z": -2.3106986193,
				"element": "S" 
			},
			{
				"x": -0.8185840611,
				"y": 1.9217032605,
				"z": -4.0998443801,
				"element": "H" 
			},
			{
				"x": -1.8336977655,
				"y": 1.2443170894,
				"z": 1.5932937148,
				"element": "H" 
			},
			{
				"x": -0.2150688695,
				"y": 0.1601894303,
				"z": 3.1554351346,
				"element": "H" 
			},
			{
				"x": 1.953286375,
				"y": -0.6965528377,
				"z": 2.3200114548,
				"element": "H" 
			},
			{
				"x": 2.5516165092,
				"y": -0.4914163638,
				"z": -0.081372152,
				"element": "H" 
			}
		],
		 "valence_orbital": [ 
			{
				"type": "occ",
				"energy": -0.32152,
				"method": "rhf"
			},
			{
				"type": "occ",
				"energy": -0.3055,
				"method": "rhf"
			},
			{
				"type": "occ",
				"energy": -0.28297,
				"method": "rhf"
			},
			{
				"type": "occ",
				"energy": -0.23805,
				"method": "rhf"
			},
			{
				"type": "occ",
				"energy": -0.22779,
				"method": "rhf"
			},
			{
				"type": "unocc",
				"energy": -0.02077,
				"method": "rhf"
			},
			{
				"type": "unocc",
				"energy": -0.0167,
				"method": "rhf"
			},
			{
				"type": "unocc",
				"energy": -0.00654,
				"method": "rhf"
			},
			{
				"type": "unocc",
				"energy": 0.04215,
				"method": "rhf"
			},
			{
				"type": "unocc",
				"energy": 0.0635,
				"method": "rhf"
			}
		],
		"cosmo_sigma_profile": { 
			"-0.025": 0.0,
			"-0.024": 0.0,
			"-0.023": 0.0,
			"-0.022": 0.0,
			"-0.021": 0.234102887415,
			"-0.02": 0.97209768452,
			"-0.019": 1.48918670196,
			"-0.018": 0.833272987486,
			"-0.017": 1.02729219362,
			"-0.016": 0.647472131765,
			"-0.015": 1.14589040584,
			"-0.014": 0.656137009656,
			"-0.013": 0.985642702948,
			"-0.012": 1.0103322928,
			"-0.011": 0.667030571492,
			"-0.01": 0.709899995053,
			"-0.009": 0.687839089639,
			"-0.008": 1.19333494055,
			"-0.007": 3.86532897643,
			"-0.006": 8.09927890205,
			"-0.005": 9.84457384914,
			"-0.004": 9.69410026639,
			"-0.003": 8.27820024591,
			"-0.002": 9.93939393232,
			"-0.001": 10.5592435401,
			"0.0": 9.70324550156,
			"0.001": 12.1361006958,
			"0.002": 14.8835230373,
			"0.003": 15.1842841026,
			"0.004": 14.9469557075,
			"0.005": 10.2171815182,
			"0.006": 3.76935737177,
			"0.007": 2.64421889078,
			"0.008": 2.93235401403,
			"0.009": 4.10210359905,
			"0.01": 2.24510524553,
			"0.011": 1.80116015639,
			"0.012": 0.998114780966,
			"0.013": 1.22778611847,
			"0.014": 0.921729841634,
			"0.015": 0.579421652699,
			"0.016": 0.000651455655996,
			"0.017": 0.0,
			"0.018": 0.0,
			"0.019": 0.0,
			"0.02": 0.0,
			"0.021": 0.0,
			"0.022": 0.0,
			"0.023": 0.0,
			"0.024": 0.0,
			"0.025": 0.0
		}
	}
}
