{
	 "smiles": "COC1=CC(Cl)=C(C=O)C=C1", 
	 "Tm": 334.15, 
	 "num_atms": 18, 
	 "gaussian": { 
		 "optdone": 1, 
		 "sigma_profile": "yes", 
		 "theory": "DFT", 
		 "functional": "B3LYP", 
		 "basiset": "6-31G**", 
		 "properties": { 
			 "R2extent": 2490.696, 
			 "electric_dipole_moment_norm": 4.97405909092, 
			 "electric_quadrupole_moment_norm": 17.3610090188, 
			 "total_energy": -919.684185086, 
			 "HOMO_LUMO_gap": 0.18277, 
			 "cosmo_polarized_energy": -11.12, 
			 "cosmo_cavitation_energy": 24.22, 
			 "cosmo_dispersion_energy": -17.96, 
			 "cosmo_repulsion_energy": 1.43, 
			 "cosmo_total_nonelectrostatic_energy": 7.69, 
			 "SMD_solvation_energy": 5.81 
		},
		"coords": [
			{
				"x": -2.0322836435,
				"y": -0.1271288075,
				"z": -2.9548247298,
				"element": "C" 
			},
			{
				"x": -0.7010778244,
				"y": 0.1354115924,
				"z": -2.5231229917,
				"element": "O" 
			},
			{
				"x": -0.4464345713,
				"y": 0.2072382084,
				"z": -1.19483587,
				"element": "C" 
			},
			{
				"x": -1.4162635439,
				"y": 0.0383563927,
				"z": -0.1971867517,
				"element": "C" 
			},
			{
				"x": -1.0531157794,
				"y": 0.1313102614,
				"z": 1.1463871561,
				"element": "C" 
			},
			{
				"x": -2.3304351438,
				"y": -0.0934795017,
				"z": 2.3188095596,
				"element": "Cl" 
			},
			{
				"x": 0.2750691224,
				"y": 0.3928882505,
				"z": 1.5313026014,
				"element": "C" 
			},
			{
				"x": 0.7778040858,
				"y": 0.5131953159,
				"z": 2.9181441919,
				"element": "C" 
			},
			{
				"x": 0.1404455063,
				"y": 0.4089923479,
				"z": 3.9463665299,
				"element": "O" 
			},
			{
				"x": 1.2216454381,
				"y": 0.5567579951,
				"z": 0.4994401211,
				"element": "C" 
			},
			{
				"x": 0.8871288908,
				"y": 0.4693944923,
				"z": -0.8384331802,
				"element": "C" 
			},
			{
				"x": -1.9945995833,
				"y": -0.138611049,
				"z": -4.0444715527,
				"element": "H" 
			},
			{
				"x": -2.3861495383,
				"y": -1.1001223528,
				"z": -2.5936779459,
				"element": "H" 
			},
			{
				"x": -2.7229794257,
				"y": 0.6575678736,
				"z": -2.6238396305,
				"element": "H" 
			},
			{
				"x": -2.4499874423,
				"y": -0.1642975781,
				"z": -0.4433826288,
				"element": "H" 
			},
			{
				"x": 1.8718117967,
				"y": 0.724354887,
				"z": 2.9515564798,
				"element": "H" 
			},
			{
				"x": 2.2526088136,
				"y": 0.7595012865,
				"z": 0.780060934,
				"element": "H" 
			},
			{
				"x": 1.6239128422,
				"y": 0.5972703853,
				"z": -1.6234922926,
				"element": "H" 
			}
		],
		 "valence_orbital": [ 
			{
				"type": "occ",
				"energy": -0.32104,
				"method": "rhf"
			},
			{
				"type": "occ",
				"energy": -0.31464,
				"method": "rhf"
			},
			{
				"type": "occ",
				"energy": -0.26349,
				"method": "rhf"
			},
			{
				"type": "occ",
				"energy": -0.24617,
				"method": "rhf"
			},
			{
				"type": "occ",
				"energy": -0.24244,
				"method": "rhf"
			},
			{
				"type": "unocc",
				"energy": -0.05967,
				"method": "rhf"
			},
			{
				"type": "unocc",
				"energy": -0.02407,
				"method": "rhf"
			},
			{
				"type": "unocc",
				"energy": 0.02947,
				"method": "rhf"
			},
			{
				"type": "unocc",
				"energy": 0.04254,
				"method": "rhf"
			},
			{
				"type": "unocc",
				"energy": 0.08827,
				"method": "rhf"
			}
		],
		"cosmo_sigma_profile": { 
			"-0.025": 0.0,
			"-0.024": 0.0,
			"-0.023": 0.0,
			"-0.022": 0.0,
			"-0.021": 0.0,
			"-0.02": 0.0,
			"-0.019": 0.0,
			"-0.018": 0.0,
			"-0.017": 0.0,
			"-0.016": 0.0,
			"-0.015": 0.0,
			"-0.014": 0.0,
			"-0.013": 0.0,
			"-0.012": 0.0,
			"-0.011": 0.0,
			"-0.01": 0.0,
			"-0.009": 0.15113049586,
			"-0.008": 4.71031316125,
			"-0.007": 10.2714688814,
			"-0.006": 14.9470916012,
			"-0.005": 15.0553412267,
			"-0.004": 13.6993357437,
			"-0.003": 11.7757960008,
			"-0.002": 10.7042458058,
			"-0.001": 11.0908305178,
			"0.0": 13.739559182,
			"0.001": 21.3383198546,
			"0.002": 16.832170947,
			"0.003": 10.779621744,
			"0.004": 9.56894677123,
			"0.005": 5.35576699031,
			"0.006": 3.24065313336,
			"0.007": 3.54974498467,
			"0.008": 3.30055087776,
			"0.009": 2.92641682732,
			"0.01": 3.19407299205,
			"0.011": 4.24457532925,
			"0.012": 4.63848156397,
			"0.013": 1.06941995989,
			"0.014": 0.0,
			"0.015": 0.0,
			"0.016": 0.0,
			"0.017": 0.0,
			"0.018": 0.0,
			"0.019": 0.0,
			"0.02": 0.0,
			"0.021": 0.0,
			"0.022": 0.0,
			"0.023": 0.0,
			"0.024": 0.0,
			"0.025": 0.0
		}
	}
}
