{
	 "smiles": "S=C1C=C(OC(=C1)C1=CC=CC=C1)C1=CC=CC=C1", 
	 "Tm": 443.15, 
	 "num_atms": 31, 
	 "gaussian": { 
		 "optdone": 1, 
		 "sigma_profile": "yes", 
		 "theory": "DFT", 
		 "functional": "B3LYP", 
		 "basiset": "6-31G**", 
		 "properties": { 
			 "R2extent": 7809.1905, 
			 "electric_dipole_moment_norm": 6.53038931152, 
			 "electric_quadrupole_moment_norm": 30.1104887883, 
			 "total_energy": -1128.44228505, 
			 "HOMO_LUMO_gap": 0.11393, 
			 "cosmo_polarized_energy": -15.99, 
			 "cosmo_cavitation_energy": 37.49, 
			 "cosmo_dispersion_energy": -27.35, 
			 "cosmo_repulsion_energy": 2.01, 
			 "cosmo_total_nonelectrostatic_energy": 12.15, 
			 "SMD_solvation_energy": 5.33 
		},
		"coords": [
			{
				"x": -2.1264841765,
				"y": 4.1290998916,
				"z": -2.2870092214,
				"element": "S" 
			},
			{
				"x": -1.7948087604,
				"y": 2.6065034677,
				"z": -1.6748029682,
				"element": "C" 
			},
			{
				"x": -0.8343149251,
				"y": 2.3755680804,
				"z": -0.6255533104,
				"element": "C" 
			},
			{
				"x": -0.5722260001,
				"y": 1.128105039,
				"z": -0.1499215074,
				"element": "C" 
			},
			{
				"x": -1.2294950023,
				"y": 0.0371343646,
				"z": -0.6478043102,
				"element": "O" 
			},
			{
				"x": -2.1626790831,
				"y": 0.1839024973,
				"z": -1.6366022112,
				"element": "C" 
			},
			{
				"x": -2.4552281263,
				"y": 1.4133302748,
				"z": -2.1406155808,
				"element": "C" 
			},
			{
				"x": -2.771029185,
				"y": -1.0937585762,
				"z": -2.043215601,
				"element": "C" 
			},
			{
				"x": -3.4164061089,
				"y": -1.2143930777,
				"z": -3.2870383682,
				"element": "C" 
			},
			{
				"x": -4.0082404167,
				"y": -2.4168404233,
				"z": -3.6627221517,
				"element": "C" 
			},
			{
				"x": -3.9615430928,
				"y": -3.5221734643,
				"z": -2.8096150843,
				"element": "C" 
			},
			{
				"x": -3.3140080628,
				"y": -3.4160652711,
				"z": -1.577620778,
				"element": "C" 
			},
			{
				"x": -2.721082825,
				"y": -2.2144521179,
				"z": -1.1964461988,
				"element": "C" 
			},
			{
				"x": 0.388743209,
				"y": 0.7822643402,
				"z": 0.9106190267,
				"element": "C" 
			},
			{
				"x": 0.2784442256,
				"y": -0.4308307645,
				"z": 1.6118124989,
				"element": "C" 
			},
			{
				"x": 1.1790396009,
				"y": -0.7454730631,
				"z": 2.627027652,
				"element": "C" 
			},
			{
				"x": 2.2062870873,
				"y": 0.1402761537,
				"z": 2.9565743614,
				"element": "C" 
			},
			{
				"x": 2.3304080444,
				"y": 1.3442777062,
				"z": 2.2589430779,
				"element": "C" 
			},
			{
				"x": 1.4338244151,
				"y": 1.6628350717,
				"z": 1.2430817976,
				"element": "C" 
			},
			{
				"x": -0.3277437945,
				"y": 3.2304387824,
				"z": -0.1971724374,
				"element": "H" 
			},
			{
				"x": -3.2193769575,
				"y": 1.5138473463,
				"z": -2.9001501271,
				"element": "H" 
			},
			{
				"x": -3.4358327088,
				"y": -0.3735028327,
				"z": -3.9720875366,
				"element": "H" 
			},
			{
				"x": -4.4982880336,
				"y": -2.4937322326,
				"z": -4.6286166167,
				"element": "H" 
			},
			{
				"x": -4.4217282618,
				"y": -4.4600216927,
				"z": -3.1060224047,
				"element": "H" 
			},
			{
				"x": -3.2715396789,
				"y": -4.2707406385,
				"z": -0.9089802984,
				"element": "H" 
			},
			{
				"x": -2.2254843746,
				"y": -2.1372017487,
				"z": -0.2359224709,
				"element": "H" 
			},
			{
				"x": -0.5205713903,
				"y": -1.1200908512,
				"z": 1.3654311203,
				"element": "H" 
			},
			{
				"x": 1.0761253363,
				"y": -1.6842753694,
				"z": 3.1631348457,
				"element": "H" 
			},
			{
				"x": 2.908544133,
				"y": -0.1072285769,
				"z": 3.7469960333,
				"element": "H" 
			},
			{
				"x": 3.1341929525,
				"y": 2.033558579,
				"z": 2.4994274793,
				"element": "H" 
			},
			{
				"x": 1.560101961,
				"y": 2.588039106,
				"z": 0.6909712903,
				"element": "H" 
			}
		],
		 "valence_orbital": [ 
			{
				"type": "occ",
				"energy": -0.26874,
				"method": "rhf"
			},
			{
				"type": "occ",
				"energy": -0.2687,
				"method": "rhf"
			},
			{
				"type": "occ",
				"energy": -0.24325,
				"method": "rhf"
			},
			{
				"type": "occ",
				"energy": -0.21092,
				"method": "rhf"
			},
			{
				"type": "occ",
				"energy": -0.19504,
				"method": "rhf"
			},
			{
				"type": "unocc",
				"energy": -0.08111,
				"method": "rhf"
			},
			{
				"type": "unocc",
				"energy": -0.0569,
				"method": "rhf"
			},
			{
				"type": "unocc",
				"energy": -0.01883,
				"method": "rhf"
			},
			{
				"type": "unocc",
				"energy": -0.01789,
				"method": "rhf"
			},
			{
				"type": "unocc",
				"energy": -0.00474,
				"method": "rhf"
			}
		],
		"cosmo_sigma_profile": { 
			"-0.025": 0.0,
			"-0.024": 0.0,
			"-0.023": 0.0,
			"-0.022": 0.0,
			"-0.021": 0.0,
			"-0.02": 0.0,
			"-0.019": 0.0,
			"-0.018": 0.0,
			"-0.017": 0.0,
			"-0.016": 0.0,
			"-0.015": 0.0,
			"-0.014": 0.0,
			"-0.013": 0.0,
			"-0.012": 0.0,
			"-0.011": 0.0,
			"-0.01": 0.0515822466355,
			"-0.009": 2.55342477887,
			"-0.008": 3.51139340798,
			"-0.007": 11.2598663905,
			"-0.006": 22.0055806229,
			"-0.005": 24.2463099616,
			"-0.004": 24.0646662668,
			"-0.003": 19.8838585878,
			"-0.002": 20.484785166,
			"-0.001": 21.012031749,
			"0.0": 22.5509713623,
			"0.001": 21.9740095742,
			"0.002": 22.98539332,
			"0.003": 22.9666398488,
			"0.004": 25.3231219378,
			"0.005": 5.07282848566,
			"0.006": 4.2931249394,
			"0.007": 3.63507846939,
			"0.008": 4.83660614414,
			"0.009": 7.47978697006,
			"0.01": 5.12614262217,
			"0.011": 3.77852036668,
			"0.012": 3.41588176853,
			"0.013": 2.53263697293,
			"0.014": 0.473508846852,
			"0.015": 0.0,
			"0.016": 0.0,
			"0.017": 0.0,
			"0.018": 0.0,
			"0.019": 0.0,
			"0.02": 0.0,
			"0.021": 0.0,
			"0.022": 0.0,
			"0.023": 0.0,
			"0.024": 0.0,
			"0.025": 0.0
		}
	}
}
