{
	 "smiles": "OC(=O)C1CCOC2=C1C=CC=C2", 
	 "Tm": 361.15, 
	 "num_atms": 23, 
	 "gaussian": { 
		 "optdone": 1, 
		 "sigma_profile": "yes", 
		 "theory": "DFT", 
		 "functional": "B3LYP", 
		 "basiset": "6-31G**", 
		 "properties": { 
			 "R2extent": 2359.7877, 
			 "electric_dipole_moment_norm": 4.26882390595, 
			 "electric_quadrupole_moment_norm": 17.6164696858, 
			 "total_energy": -612.762199853, 
			 "HOMO_LUMO_gap": 0.21193, 
			 "cosmo_polarized_energy": -18.31, 
			 "cosmo_cavitation_energy": 26.02, 
			 "cosmo_dispersion_energy": -19.32, 
			 "cosmo_repulsion_energy": 1.52, 
			 "cosmo_total_nonelectrostatic_energy": 8.23, 
			 "SMD_solvation_energy": 5.31 
		},
		"coords": [
			{
				"x": 2.6331261705,
				"y": 2.3133605019,
				"z": 0.3750686782,
				"element": "O" 
			},
			{
				"x": 1.3665333504,
				"y": 1.886520393,
				"z": 0.6463030782,
				"element": "C" 
			},
			{
				"x": 0.5879166578,
				"y": 2.6278484701,
				"z": 1.1861931184,
				"element": "O" 
			},
			{
				"x": 1.0571366195,
				"y": 0.4682071249,
				"z": 0.1459181321,
				"element": "C" 
			},
			{
				"x": 0.8180424846,
				"y": 0.526758027,
				"z": -1.3819962792,
				"element": "C" 
			},
			{
				"x": 0.2934311486,
				"y": -0.8189422837,
				"z": -1.863622043,
				"element": "C" 
			},
			{
				"x": -0.9545447603,
				"y": -1.1421169646,
				"z": -1.2573073536,
				"element": "O" 
			},
			{
				"x": -1.0430232347,
				"y": -0.953565217,
				"z": 0.0992629204,
				"element": "C" 
			},
			{
				"x": -0.1258354782,
				"y": -0.1861786016,
				"z": 0.83772014,
				"element": "C" 
			},
			{
				"x": -0.3253874792,
				"y": -0.0743107194,
				"z": 2.2211090466,
				"element": "C" 
			},
			{
				"x": -1.4020709787,
				"y": -0.6878584174,
				"z": 2.8538908645,
				"element": "C" 
			},
			{
				"x": -2.3135000083,
				"y": -1.4318652405,
				"z": 2.0981677337,
				"element": "C" 
			},
			{
				"x": -2.1346039242,
				"y": -1.5663387034,
				"z": 0.7267246342,
				"element": "C" 
			},
			{
				"x": 3.1515021411,
				"y": 1.6001507644,
				"z": -0.0234399787,
				"element": "H" 
			},
			{
				"x": 1.954153368,
				"y": -0.1465488614,
				"z": 0.3253635029,
				"element": "H" 
			},
			{
				"x": 0.0771886398,
				"y": 1.3022368948,
				"z": -1.6054196444,
				"element": "H" 
			},
			{
				"x": 1.7385351881,
				"y": 0.7837966463,
				"z": -1.9175355029,
				"element": "H" 
			},
			{
				"x": 1.0235373434,
				"y": -1.6142881174,
				"z": -1.6477862399,
				"element": "H" 
			},
			{
				"x": 0.1047430396,
				"y": -0.8115003814,
				"z": -2.9400483128,
				"element": "H" 
			},
			{
				"x": 0.36534344,
				"y": 0.526240032,
				"z": 2.8041100317,
				"element": "H" 
			},
			{
				"x": -1.5350265945,
				"y": -0.5792872049,
				"z": 3.9256104771,
				"element": "H" 
			},
			{
				"x": -3.1613022142,
				"y": -1.9114442688,
				"z": 2.5788085238,
				"element": "H" 
			},
			{
				"x": -2.8203949194,
				"y": -2.1432738729,
				"z": 0.1150044729,
				"element": "H" 
			}
		],
		 "valence_orbital": [ 
			{
				"type": "occ",
				"energy": -0.31974,
				"method": "rhf"
			},
			{
				"type": "occ",
				"energy": -0.31367,
				"method": "rhf"
			},
			{
				"type": "occ",
				"energy": -0.27239,
				"method": "rhf"
			},
			{
				"type": "occ",
				"energy": -0.2466,
				"method": "rhf"
			},
			{
				"type": "occ",
				"energy": -0.21968,
				"method": "rhf"
			},
			{
				"type": "unocc",
				"energy": -0.00775,
				"method": "rhf"
			},
			{
				"type": "unocc",
				"energy": 0.00116,
				"method": "rhf"
			},
			{
				"type": "unocc",
				"energy": 0.0125,
				"method": "rhf"
			},
			{
				"type": "unocc",
				"energy": 0.04395,
				"method": "rhf"
			},
			{
				"type": "unocc",
				"energy": 0.09634,
				"method": "rhf"
			}
		],
		"cosmo_sigma_profile": { 
			"-0.025": 0.0,
			"-0.024": 0.0,
			"-0.023": 0.0,
			"-0.022": 0.0,
			"-0.021": 0.0,
			"-0.02": 0.00851986897795,
			"-0.019": 0.599321692409,
			"-0.018": 1.05882978644,
			"-0.017": 1.41145986932,
			"-0.016": 1.08634236041,
			"-0.015": 1.06575023896,
			"-0.014": 1.27834460849,
			"-0.013": 0.819146723832,
			"-0.012": 1.30576852065,
			"-0.011": 1.50710657678,
			"-0.01": 1.00388527051,
			"-0.009": 1.48303306867,
			"-0.008": 2.42620363491,
			"-0.007": 4.05267532858,
			"-0.006": 12.1730377953,
			"-0.005": 20.2008214271,
			"-0.004": 18.6259843071,
			"-0.003": 16.9673296296,
			"-0.002": 10.8897688985,
			"-0.001": 8.44950541423,
			"0.0": 7.56391931076,
			"0.001": 8.08226189159,
			"0.002": 7.82535372218,
			"0.003": 9.47679216653,
			"0.004": 11.1762251623,
			"0.005": 12.7842359658,
			"0.006": 8.77247260466,
			"0.007": 4.15188306051,
			"0.008": 4.96916724615,
			"0.009": 5.07890783388,
			"0.01": 6.14886376538,
			"0.011": 6.78774324935,
			"0.012": 4.99467641257,
			"0.013": 1.71146327151,
			"0.014": 0.0,
			"0.015": 0.0,
			"0.016": 0.0,
			"0.017": 0.0,
			"0.018": 0.0,
			"0.019": 0.0,
			"0.02": 0.0,
			"0.021": 0.0,
			"0.022": 0.0,
			"0.023": 0.0,
			"0.024": 0.0,
			"0.025": 0.0
		}
	}
}
