{
	 "smiles": "CC1(C)C2CCC1(C)C1=C2C(Br)=CC(=O)O1", 
	 "Tm": 378.15, 
	 "num_atms": 31, 
	 "gaussian": { 
		 "optdone": 1, 
		 "sigma_profile": "yes", 
		 "theory": "DFT", 
		 "functional": "B3LYP", 
		 "basiset": "6-31G**", 
		 "properties": { 
			 "R2extent": 5023.2503, 
			 "electric_dipole_moment_norm": 4.95987813661, 
			 "electric_quadrupole_moment_norm": 12.2054111193, 
			 "total_energy": -3226.26272531, 
			 "HOMO_LUMO_gap": 0.16224, 
			 "cosmo_polarized_energy": -9.41, 
			 "cosmo_cavitation_energy": 33.67, 
			 "cosmo_dispersion_energy": -23.8, 
			 "cosmo_repulsion_energy": 1.83, 
			 "cosmo_total_nonelectrostatic_energy": 11.7, 
			 "SMD_solvation_energy": 5.64 
		},
		"coords": [
			{
				"x": 1.0753819063,
				"y": -0.1758811028,
				"z": 2.525933247,
				"element": "C" 
			},
			{
				"x": 1.0655509687,
				"y": -0.9808467282,
				"z": 1.2147360088,
				"element": "C" 
			},
			{
				"x": 2.1861369564,
				"y": -2.0293072052,
				"z": 1.3156514546,
				"element": "C" 
			},
			{
				"x": -0.3415565736,
				"y": -1.575983679,
				"z": 0.8455401531,
				"element": "C" 
			},
			{
				"x": -0.0712134287,
				"y": -2.2035092453,
				"z": -0.5613396103,
				"element": "C" 
			},
			{
				"x": 0.908189173,
				"y": -1.1796800518,
				"z": -1.212013497,
				"element": "C" 
			},
			{
				"x": 1.1258027078,
				"y": -0.0874771627,
				"z": -0.095053252,
				"element": "C" 
			},
			{
				"x": 2.3108174637,
				"y": 0.838934002,
				"z": -0.312594428,
				"element": "C" 
			},
			{
				"x": -0.2350270042,
				"y": 0.5637164576,
				"z": 0.0092475917,
				"element": "C" 
			},
			{
				"x": -1.1226407979,
				"y": -0.3055358409,
				"z": 0.5708558909,
				"element": "C" 
			},
			{
				"x": -2.4778012742,
				"y": 0.09941742,
				"z": 0.6186494369,
				"element": "C" 
			},
			{
				"x": -3.7863426242,
				"y": -1.0811293658,
				"z": 1.3448752098,
				"element": "Br" 
			},
			{
				"x": -2.8474758241,
				"y": 1.3308267348,
				"z": 0.1545685693,
				"element": "C" 
			},
			{
				"x": -1.8862741688,
				"y": 2.2477003247,
				"z": -0.4256110005,
				"element": "C" 
			},
			{
				"x": -2.0885631475,
				"y": 3.3533588858,
				"z": -0.8632253279,
				"element": "O" 
			},
			{
				"x": -0.5346536439,
				"y": 1.7656372575,
				"z": -0.4814411287,
				"element": "O" 
			},
			{
				"x": 2.0477576921,
				"y": 0.3056064619,
				"z": 2.6751872701,
				"element": "H" 
			},
			{
				"x": 0.3079692522,
				"y": 0.5998922283,
				"z": 2.5605037499,
				"element": "H" 
			},
			{
				"x": 0.9108340065,
				"y": -0.84417514,
				"z": 3.3782011737,
				"element": "H" 
			},
			{
				"x": 1.9924456115,
				"y": -2.6980451853,
				"z": 2.1616901998,
				"element": "H" 
			},
			{
				"x": 2.3012538928,
				"y": -2.6502854065,
				"z": 0.4263451837,
				"element": "H" 
			},
			{
				"x": 3.1481899008,
				"y": -1.5411950909,
				"z": 1.5044438991,
				"element": "H" 
			},
			{
				"x": -0.7878747139,
				"y": -2.2547643586,
				"z": 1.5750033535,
				"element": "H" 
			},
			{
				"x": 0.3802870032,
				"y": -3.195629267,
				"z": -0.472986785,
				"element": "H" 
			},
			{
				"x": -0.9984143754,
				"y": -2.3189533064,
				"z": -1.1277990611,
				"element": "H" 
			},
			{
				"x": 0.5114629593,
				"y": -0.7293968401,
				"z": -2.1262076469,
				"element": "H" 
			},
			{
				"x": 1.8670510929,
				"y": -1.6384576889,
				"z": -1.4712405153,
				"element": "H" 
			},
			{
				"x": 2.4121874759,
				"y": 1.5615868754,
				"z": 0.5028309595,
				"element": "H" 
			},
			{
				"x": 3.2412880276,
				"y": 0.2669449911,
				"z": -0.3814735992,
				"element": "H" 
			},
			{
				"x": 2.1951467827,
				"y": 1.4064462087,
				"z": -1.2411180482,
				"element": "H" 
			},
			{
				"x": -3.8698152971,
				"y": 1.6817848178,
				"z": 0.1921405487,
				"element": "H" 
			}
		],
		 "valence_orbital": [ 
			{
				"type": "occ",
				"energy": -0.30841,
				"method": "rhf"
			},
			{
				"type": "occ",
				"energy": -0.30137,
				"method": "rhf"
			},
			{
				"type": "occ",
				"energy": -0.28269,
				"method": "rhf"
			},
			{
				"type": "occ",
				"energy": -0.27301,
				"method": "rhf"
			},
			{
				"type": "occ",
				"energy": -0.2232,
				"method": "rhf"
			},
			{
				"type": "unocc",
				"energy": -0.06096,
				"method": "rhf"
			},
			{
				"type": "unocc",
				"energy": -0.0053,
				"method": "rhf"
			},
			{
				"type": "unocc",
				"energy": 0.00755,
				"method": "rhf"
			},
			{
				"type": "unocc",
				"energy": 0.06271,
				"method": "rhf"
			},
			{
				"type": "unocc",
				"energy": 0.09316,
				"method": "rhf"
			}
		],
		"cosmo_sigma_profile": { 
			"-0.025": 0.0,
			"-0.024": 0.0,
			"-0.023": 0.0,
			"-0.022": 0.0,
			"-0.021": 0.0,
			"-0.02": 0.0,
			"-0.019": 0.0,
			"-0.018": 0.0,
			"-0.017": 0.0,
			"-0.016": 0.0,
			"-0.015": 0.0,
			"-0.014": 0.0,
			"-0.013": 0.0,
			"-0.012": 0.0,
			"-0.011": 0.0,
			"-0.01": 0.0,
			"-0.009": 0.0766925498882,
			"-0.008": 0.946752515807,
			"-0.007": 1.45301147491,
			"-0.006": 1.59269067978,
			"-0.005": 4.59933891692,
			"-0.004": 18.9521698332,
			"-0.003": 41.7295602913,
			"-0.002": 39.5245894974,
			"-0.001": 35.115090448,
			"0.0": 39.262061975,
			"0.001": 28.5661042399,
			"0.002": 10.9562531223,
			"0.003": 12.9380480783,
			"0.004": 5.69972382394,
			"0.005": 2.05992132374,
			"0.006": 2.53561581511,
			"0.007": 2.15603650542,
			"0.008": 1.52910735532,
			"0.009": 2.2286554583,
			"0.01": 2.48921257857,
			"0.011": 3.44620290945,
			"0.012": 6.46875719415,
			"0.013": 3.03895740661,
			"0.014": 0.065857124654,
			"0.015": 0.0,
			"0.016": 0.0,
			"0.017": 0.0,
			"0.018": 0.0,
			"0.019": 0.0,
			"0.02": 0.0,
			"0.021": 0.0,
			"0.022": 0.0,
			"0.023": 0.0,
			"0.024": 0.0,
			"0.025": 0.0
		}
	}
}
