{
	 "smiles": "CC(=CC1=CC(Br)=CS1)[N+]([O-])=O", 
	 "Tm": 362.15, 
	 "num_atms": 18, 
	 "gaussian": { 
		 "optdone": 1, 
		 "sigma_profile": "yes", 
		 "theory": "DFT", 
		 "functional": "B3LYP", 
		 "basiset": "6-31G**", 
		 "properties": { 
			 "R2extent": 6124.557, 
			 "electric_dipole_moment_norm": 4.45382197781, 
			 "electric_quadrupole_moment_norm": 3.22946219207, 
			 "total_energy": -3445.01702175, 
			 "HOMO_LUMO_gap": 0.13786, 
			 "cosmo_polarized_energy": -9.82, 
			 "cosmo_cavitation_energy": 26.95, 
			 "cosmo_dispersion_energy": -20.79, 
			 "cosmo_repulsion_energy": 1.61, 
			 "cosmo_total_nonelectrostatic_energy": 7.77, 
			 "SMD_solvation_energy": 5.58 
		},
		"coords": [
			{
				"x": 1.9315749903,
				"y": -0.7944270283,
				"z": -1.7075893773,
				"element": "C" 
			},
			{
				"x": 0.7642548561,
				"y": -0.3032563047,
				"z": -0.8992500122,
				"element": "C" 
			},
			{
				"x": -0.4980270324,
				"y": -0.770994662,
				"z": -1.0837052811,
				"element": "C" 
			},
			{
				"x": -1.8171455034,
				"y": -0.5570115776,
				"z": -0.5309909725,
				"element": "C" 
			},
			{
				"x": -2.3685582213,
				"y": 0.2449078352,
				"z": 0.4545427119,
				"element": "C" 
			},
			{
				"x": -3.764999747,
				"y": 0.0501759437,
				"z": 0.5936079536,
				"element": "C" 
			},
			{
				"x": -4.8055452343,
				"y": 1.003318792,
				"z": 1.8599601621,
				"element": "Br" 
			},
			{
				"x": -4.3000491022,
				"y": -0.8801496426,
				"z": -0.2593648836,
				"element": "C" 
			},
			{
				"x": -3.0810753553,
				"y": -1.5500645504,
				"z": -1.2702041466,
				"element": "S" 
			},
			{
				"x": 1.1255739236,
				"y": 0.7070871671,
				"z": 0.0827687138,
				"element": "N" 
			},
			{
				"x": 2.3165819797,
				"y": 1.0285392732,
				"z": 0.1325674402,
				"element": "O" 
			},
			{
				"x": 0.2528511515,
				"y": 1.1923317821,
				"z": 0.809497976,
				"element": "O" 
			},
			{
				"x": 2.700495935,
				"y": -1.231059753,
				"z": -1.0632493095,
				"element": "H" 
			},
			{
				"x": 2.4082109528,
				"y": 0.0275555051,
				"z": -2.2500394733,
				"element": "H" 
			},
			{
				"x": 1.6022601995,
				"y": -1.5480399663,
				"z": -2.4257113746,
				"element": "H" 
			},
			{
				"x": -0.5148795194,
				"y": -1.5203129892,
				"z": -1.8738143345,
				"element": "H" 
			},
			{
				"x": -1.7965545413,
				"y": 0.9379318289,
				"z": 1.0469077083,
				"element": "H" 
			},
			{
				"x": -5.3298697321,
				"y": -1.1960316533,
				"z": -0.3393335008,
				"element": "H" 
			}
		],
		 "valence_orbital": [ 
			{
				"type": "occ",
				"energy": -0.30415,
				"method": "rhf"
			},
			{
				"type": "occ",
				"energy": -0.29755,
				"method": "rhf"
			},
			{
				"type": "occ",
				"energy": -0.2851,
				"method": "rhf"
			},
			{
				"type": "occ",
				"energy": -0.26479,
				"method": "rhf"
			},
			{
				"type": "occ",
				"energy": -0.24092,
				"method": "rhf"
			},
			{
				"type": "unocc",
				"energy": -0.10306,
				"method": "rhf"
			},
			{
				"type": "unocc",
				"energy": -0.03754,
				"method": "rhf"
			},
			{
				"type": "unocc",
				"energy": -0.01607,
				"method": "rhf"
			},
			{
				"type": "unocc",
				"energy": 0.00786,
				"method": "rhf"
			},
			{
				"type": "unocc",
				"energy": 0.01513,
				"method": "rhf"
			}
		],
		"cosmo_sigma_profile": { 
			"-0.025": 0.0,
			"-0.024": 0.0,
			"-0.023": 0.0,
			"-0.022": 0.0,
			"-0.021": 0.0,
			"-0.02": 0.0,
			"-0.019": 0.0,
			"-0.018": 0.0,
			"-0.017": 0.0,
			"-0.016": 0.0,
			"-0.015": 0.0,
			"-0.014": 0.0,
			"-0.013": 0.0,
			"-0.012": 0.0,
			"-0.011": 0.454017865988,
			"-0.01": 3.36752311759,
			"-0.009": 4.38610401374,
			"-0.008": 4.56996655319,
			"-0.007": 3.86033311034,
			"-0.006": 5.38220733751,
			"-0.005": 12.3185089337,
			"-0.004": 13.2055390467,
			"-0.003": 13.8919495606,
			"-0.002": 16.9834063508,
			"-0.001": 20.3079187468,
			"0.0": 22.6257039584,
			"0.001": 26.4209007925,
			"0.002": 20.2694456274,
			"0.003": 12.4609823209,
			"0.004": 12.9317918349,
			"0.005": 5.23861430769,
			"0.006": 2.45242377482,
			"0.007": 2.78434739715,
			"0.008": 6.50759779325,
			"0.009": 5.4408359272,
			"0.01": 3.89747446969,
			"0.011": 2.20061638608,
			"0.012": 0.0320007579382,
			"0.013": 0.0,
			"0.014": 0.0,
			"0.015": 0.0,
			"0.016": 0.0,
			"0.017": 0.0,
			"0.018": 0.0,
			"0.019": 0.0,
			"0.02": 0.0,
			"0.021": 0.0,
			"0.022": 0.0,
			"0.023": 0.0,
			"0.024": 0.0,
			"0.025": 0.0
		}
	}
}
