{
	 "smiles": "ClCC1=NC2=C(C=CC=C2)N=C1", 
	 "Tm": 324.15, 
	 "num_atms": 19, 
	 "gaussian": { 
		 "optdone": 1, 
		 "sigma_profile": "yes", 
		 "theory": "DFT", 
		 "functional": "B3LYP", 
		 "basiset": "6-31G**", 
		 "properties": { 
			 "R2extent": 2840.8352, 
			 "electric_dipole_moment_norm": 2.53145841167, 
			 "electric_quadrupole_moment_norm": 12.3098546283, 
			 "total_energy": -916.874780667, 
			 "HOMO_LUMO_gap": 0.17362, 
			 "cosmo_polarized_energy": -8.33, 
			 "cosmo_cavitation_energy": 25.18, 
			 "cosmo_dispersion_energy": -18.91, 
			 "cosmo_repulsion_energy": 1.5, 
			 "cosmo_total_nonelectrostatic_energy": 7.77, 
			 "SMD_solvation_energy": 0.79 
		},
		"coords": [
			{
				"x": 1.7508921358,
				"y": 2.6625212997,
				"z": -2.7981898653,
				"element": "Cl" 
			},
			{
				"x": 0.1710390885,
				"y": 2.4527563284,
				"z": -1.906748583,
				"element": "C" 
			},
			{
				"x": 0.1861690154,
				"y": 1.2330278824,
				"z": -1.0285719903,
				"element": "C" 
			},
			{
				"x": -0.5918098309,
				"y": 0.2285212748,
				"z": -1.3764747217,
				"element": "N" 
			},
			{
				"x": -0.5846931326,
				"y": -0.8686441719,
				"z": -0.5644499655,
				"element": "C" 
			},
			{
				"x": 0.2331411291,
				"y": -0.9117542711,
				"z": 0.6073901451,
				"element": "C" 
			},
			{
				"x": 0.2148625469,
				"y": -2.0671114463,
				"z": 1.4276619207,
				"element": "C" 
			},
			{
				"x": -0.5867746767,
				"y": -3.1358033605,
				"z": 1.0902887842,
				"element": "C" 
			},
			{
				"x": -1.3980119035,
				"y": -3.0930945202,
				"z": -0.072191585,
				"element": "C" 
			},
			{
				"x": -1.4007356079,
				"y": -1.9822469716,
				"z": -0.8869452323,
				"element": "C" 
			},
			{
				"x": 1.0292729726,
				"y": 0.1457239406,
				"z": 0.9475688669,
				"element": "N" 
			},
			{
				"x": 1.0014702921,
				"y": 1.1833022749,
				"z": 0.1438355008,
				"element": "C" 
			},
			{
				"x": 0.0328257094,
				"y": 3.3712084206,
				"z": -1.3336886085,
				"element": "H" 
			},
			{
				"x": -0.609842449,
				"y": 2.3534303432,
				"z": -2.6584978383,
				"element": "H" 
			},
			{
				"x": 0.8448269055,
				"y": -2.0746816649,
				"z": 2.3111678311,
				"element": "H" 
			},
			{
				"x": -0.6008967064,
				"y": -4.0221862772,
				"z": 1.7175293015,
				"element": "H" 
			},
			{
				"x": -2.0216323242,
				"y": -3.9473378576,
				"z": -0.3185033431,
				"element": "H" 
			},
			{
				"x": -2.0116484172,
				"y": -1.9249867045,
				"z": -1.7819660517,
				"element": "H" 
			},
			{
				"x": 1.6357452531,
				"y": 2.0315554814,
				"z": 0.3976854344,
				"element": "H" 
			}
		],
		 "valence_orbital": [ 
			{
				"type": "occ",
				"energy": -0.3066,
				"method": "rhf"
			},
			{
				"type": "occ",
				"energy": -0.29976,
				"method": "rhf"
			},
			{
				"type": "occ",
				"energy": -0.26335,
				"method": "rhf"
			},
			{
				"type": "occ",
				"energy": -0.25442,
				"method": "rhf"
			},
			{
				"type": "occ",
				"energy": -0.25176,
				"method": "rhf"
			},
			{
				"type": "unocc",
				"energy": -0.07814,
				"method": "rhf"
			},
			{
				"type": "unocc",
				"energy": -0.04034,
				"method": "rhf"
			},
			{
				"type": "unocc",
				"energy": 0.00232,
				"method": "rhf"
			},
			{
				"type": "unocc",
				"energy": 0.02186,
				"method": "rhf"
			},
			{
				"type": "unocc",
				"energy": 0.07429,
				"method": "rhf"
			}
		],
		"cosmo_sigma_profile": { 
			"-0.025": 0.0,
			"-0.024": 0.0,
			"-0.023": 0.0,
			"-0.022": 0.0,
			"-0.021": 0.0,
			"-0.02": 0.0,
			"-0.019": 0.0,
			"-0.018": 0.0,
			"-0.017": 0.0,
			"-0.016": 0.0,
			"-0.015": 0.0,
			"-0.014": 0.0,
			"-0.013": 0.0,
			"-0.012": 0.0,
			"-0.011": 0.0,
			"-0.01": 0.0,
			"-0.009": 1.49623350911,
			"-0.008": 5.82001350285,
			"-0.007": 9.15151300853,
			"-0.006": 13.7716818676,
			"-0.005": 14.026067893,
			"-0.004": 12.3225169676,
			"-0.003": 11.7624172522,
			"-0.002": 10.5899918528,
			"-0.001": 11.3578930211,
			"0.0": 15.3093590318,
			"0.001": 18.6906871073,
			"0.002": 20.041237808,
			"0.003": 17.2930182758,
			"0.004": 9.44512656644,
			"0.005": 9.83476878604,
			"0.006": 11.0889201327,
			"0.007": 2.95274027187,
			"0.008": 1.40493546413,
			"0.009": 1.70689448631,
			"0.01": 1.58125275898,
			"0.011": 1.4326661194,
			"0.012": 1.66554912393,
			"0.013": 1.18031849321,
			"0.014": 0.694809577433,
			"0.015": 0.252117881976,
			"0.016": 0.0,
			"0.017": 0.0,
			"0.018": 0.0,
			"0.019": 0.0,
			"0.02": 0.0,
			"0.021": 0.0,
			"0.022": 0.0,
			"0.023": 0.0,
			"0.024": 0.0,
			"0.025": 0.0
		}
	}
}
