{
	 "smiles": "CCN(CC)C1=C(C=C(C(N)=C1[N+]([O-])=O)C(F)(F)F)[N+]([O-])=O", 
	 "Tm": 371.65, 
	 "num_atms": 35, 
	 "gaussian": { 
		 "optdone": 1, 
		 "sigma_profile": "yes", 
		 "theory": "DFT", 
		 "functional": "B3LYP", 
		 "basiset": "6-31G**", 
		 "properties": { 
			 "R2extent": 7484.854, 
			 "electric_dipole_moment_norm": 2.28321555925, 
			 "electric_quadrupole_moment_norm": 17.885722504, 
			 "total_energy": -1246.21973584, 
			 "HOMO_LUMO_gap": 0.12858, 
			 "cosmo_polarized_energy": -13.88, 
			 "cosmo_cavitation_energy": 38.51, 
			 "cosmo_dispersion_energy": -26.55, 
			 "cosmo_repulsion_energy": 1.94, 
			 "cosmo_total_nonelectrostatic_energy": 13.9, 
			 "SMD_solvation_energy": 11.67 
		},
		"coords": [
			{
				"x": -0.1181972663,
				"y": -1.7487805693,
				"z": 2.9122837511,
				"element": "C" 
			},
			{
				"x": 0.5485613274,
				"y": -0.5758989769,
				"z": 2.1917177688,
				"element": "C" 
			},
			{
				"x": 0.5754635898,
				"y": -0.6540772165,
				"z": 0.7155719616,
				"element": "N" 
			},
			{
				"x": 1.3170694455,
				"y": -1.7946872913,
				"z": 0.1602043946,
				"element": "C" 
			},
			{
				"x": 0.9414542149,
				"y": -2.1474520835,
				"z": -1.2805752593,
				"element": "C" 
			},
			{
				"x": 0.3136584704,
				"y": 0.4920095313,
				"z": -0.0077633602,
				"element": "C" 
			},
			{
				"x": -0.9023404113,
				"y": 1.2115468354,
				"z": 0.1352456016,
				"element": "C" 
			},
			{
				"x": -1.1641384191,
				"y": 2.3557011842,
				"z": -0.6149561388,
				"element": "C" 
			},
			{
				"x": -0.3063141383,
				"y": 2.7961051162,
				"z": -1.6043663941,
				"element": "C" 
			},
			{
				"x": 0.9208484509,
				"y": 2.1116952611,
				"z": -1.8390389491,
				"element": "C" 
			},
			{
				"x": 1.7598837749,
				"y": 2.5113770385,
				"z": -2.8173789891,
				"element": "N" 
			},
			{
				"x": 1.236506867,
				"y": 1.0373789008,
				"z": -0.9472834679,
				"element": "C" 
			},
			{
				"x": 2.6326521062,
				"y": 0.6447377524,
				"z": -0.8621965984,
				"element": "N" 
			},
			{
				"x": 3.1209323655,
				"y": 0.4392648229,
				"z": 0.248714837,
				"element": "O" 
			},
			{
				"x": 3.2977982424,
				"y": 0.5749305731,
				"z": -1.913121109,
				"element": "O" 
			},
			{
				"x": -0.7193371221,
				"y": 3.934497751,
				"z": -2.4902608369,
				"element": "C" 
			},
			{
				"x": -1.8327771537,
				"y": 4.5440979039,
				"z": -2.0518536532,
				"element": "F" 
			},
			{
				"x": -0.947433231,
				"y": 3.5305613295,
				"z": -3.7624906147,
				"element": "F" 
			},
			{
				"x": 0.2539425861,
				"y": 4.8901297333,
				"z": -2.576787999,
				"element": "F" 
			},
			{
				"x": -2.0314391866,
				"y": 0.7371035676,
				"z": 0.937966228,
				"element": "N" 
			},
			{
				"x": -2.7642697395,
				"y": 1.5971371394,
				"z": 1.4336358474,
				"element": "O" 
			},
			{
				"x": -2.2230945125,
				"y": -0.4749546191,
				"z": 1.0320978735,
				"element": "O" 
			},
			{
				"x": -0.1268553577,
				"y": -1.5368347071,
				"z": 3.9864643004,
				"element": "H" 
			},
			{
				"x": -1.1468172835,
				"y": -1.8850084698,
				"z": 2.5765421436,
				"element": "H" 
			},
			{
				"x": 0.4269487705,
				"y": -2.6875300845,
				"z": 2.778640485,
				"element": "H" 
			},
			{
				"x": 0.0474670543,
				"y": 0.3545135703,
				"z": 2.4668110891,
				"element": "H" 
			},
			{
				"x": 1.5907298506,
				"y": -0.4709548152,
				"z": 2.5302164626,
				"element": "H" 
			},
			{
				"x": 2.4032241156,
				"y": -1.6640143333,
				"z": 0.2663192396,
				"element": "H" 
			},
			{
				"x": 1.0456432123,
				"y": -2.6448830983,
				"z": 0.7901640078,
				"element": "H" 
			},
			{
				"x": 1.2839884292,
				"y": -1.4102865188,
				"z": -2.0100019498,
				"element": "H" 
			},
			{
				"x": -0.1429118733,
				"y": -2.2550019146,
				"z": -1.3774182286,
				"element": "H" 
			},
			{
				"x": 1.4072547926,
				"y": -3.1020640823,
				"z": -1.5427273128,
				"element": "H" 
			},
			{
				"x": -2.1072498034,
				"y": 2.8616725354,
				"z": -0.454830414,
				"element": "H" 
			},
			{
				"x": 2.6119442147,
				"y": 1.9872516855,
				"z": -2.962152732,
				"element": "H" 
			},
			{
				"x": 1.6271036178,
				"y": 3.4069165488,
				"z": -3.2579919844,
				"element": "H" 
			}
		],
		 "valence_orbital": [ 
			{
				"type": "occ",
				"energy": -0.30948,
				"method": "rhf"
			},
			{
				"type": "occ",
				"energy": -0.29827,
				"method": "rhf"
			},
			{
				"type": "occ",
				"energy": -0.29106,
				"method": "rhf"
			},
			{
				"type": "occ",
				"energy": -0.2533,
				"method": "rhf"
			},
			{
				"type": "occ",
				"energy": -0.22911,
				"method": "rhf"
			},
			{
				"type": "unocc",
				"energy": -0.10053,
				"method": "rhf"
			},
			{
				"type": "unocc",
				"energy": -0.08593,
				"method": "rhf"
			},
			{
				"type": "unocc",
				"energy": -0.03865,
				"method": "rhf"
			},
			{
				"type": "unocc",
				"energy": -0.01591,
				"method": "rhf"
			},
			{
				"type": "unocc",
				"energy": 0.07231,
				"method": "rhf"
			}
		],
		"cosmo_sigma_profile": { 
			"-0.025": 0.0,
			"-0.024": 0.0,
			"-0.023": 0.0,
			"-0.022": 0.0,
			"-0.021": 0.0,
			"-0.02": 0.0,
			"-0.019": 0.0,
			"-0.018": 0.0,
			"-0.017": 0.0,
			"-0.016": 0.0,
			"-0.015": 0.0798387157752,
			"-0.014": 0.8244949772,
			"-0.013": 0.915613935396,
			"-0.012": 1.62136716027,
			"-0.011": 1.7497438478,
			"-0.01": 1.73859593593,
			"-0.009": 1.22335439973,
			"-0.008": 2.32119645832,
			"-0.007": 5.99445785731,
			"-0.006": 8.80270830821,
			"-0.005": 11.0484845999,
			"-0.004": 21.5334644909,
			"-0.003": 31.1409774319,
			"-0.002": 35.3097953462,
			"-0.001": 28.8178433793,
			"0.0": 25.8971703343,
			"0.001": 23.7479438776,
			"0.002": 30.618544122,
			"0.003": 14.1413249825,
			"0.004": 5.47232663386,
			"0.005": 6.72525271788,
			"0.006": 8.41795728554,
			"0.007": 11.265192906,
			"0.008": 12.2249669035,
			"0.009": 8.13137986518,
			"0.01": 3.9590077743,
			"0.011": 0.358911391239,
			"0.012": 0.0742788032425,
			"0.013": 0.61393832828,
			"0.014": 0.108930608564,
			"0.015": 0.175894295935,
			"0.016": 0.0664323909789,
			"0.017": 0.0,
			"0.018": 0.0,
			"0.019": 0.0175530577026,
			"0.02": 0.182946433297,
			"0.021": 0.156580443833,
			"0.022": 0.0373000841674,
			"0.023": 0.217237453767,
			"0.024": 0.200396596233,
			"0.025": 0.0
		}
	}
}
