{
	 "smiles": "CN(C)C(=O)COC1CCN(CC1)C(=O)OC(C)(C)C", 
	 "Tm": 331.15, 
	 "num_atms": 46, 
	 "gaussian": { 
		 "optdone": 1, 
		 "sigma_profile": "yes", 
		 "theory": "DFT", 
		 "functional": "B3LYP", 
		 "basiset": "6-31G**", 
		 "properties": { 
			 "R2extent": 11428.7959, 
			 "electric_dipole_moment_norm": 5.00879993911, 
			 "electric_quadrupole_moment_norm": 28.4181765819, 
			 "total_energy": -959.587213722, 
			 "HOMO_LUMO_gap": 0.2556, 
			 "cosmo_polarized_energy": -21.12, 
			 "cosmo_cavitation_energy": 46.07, 
			 "cosmo_dispersion_energy": -32.14, 
			 "cosmo_repulsion_energy": 2.51, 
			 "cosmo_total_nonelectrostatic_energy": 16.44, 
			 "SMD_solvation_energy": 8.44 
		},
		"coords": [
			{
				"x": -0.3280716343,
				"y": -5.1106436165,
				"z": 3.7253797109,
				"element": "C" 
			},
			{
				"x": 0.3733276737,
				"y": -3.9652916083,
				"z": 4.2785324774,
				"element": "N" 
			},
			{
				"x": 0.5893331889,
				"y": -3.9956665058,
				"z": 5.7179460541,
				"element": "C" 
			},
			{
				"x": 0.7260946828,
				"y": -2.830231196,
				"z": 3.5810020117,
				"element": "C" 
			},
			{
				"x": 1.2595962816,
				"y": -1.8692018692,
				"z": 4.1127039881,
				"element": "O" 
			},
			{
				"x": 0.4185676003,
				"y": -2.8377412969,
				"z": 2.0732781298,
				"element": "C" 
			},
			{
				"x": 0.8571349822,
				"y": -1.6233902709,
				"z": 1.5292453174,
				"element": "O" 
			},
			{
				"x": 0.6789162899,
				"y": -1.5070776175,
				"z": 0.1177119209,
				"element": "C" 
			},
			{
				"x": -0.7740853989,
				"y": -1.1313986135,
				"z": -0.2655125399,
				"element": "C" 
			},
			{
				"x": -0.9528991126,
				"y": 0.3811391539,
				"z": -0.410064704,
				"element": "C" 
			},
			{
				"x": -0.0770288884,
				"y": 0.8838793599,
				"z": -1.4737875309,
				"element": "N" 
			},
			{
				"x": 1.2465620343,
				"y": 0.2667163627,
				"z": -1.6339647764,
				"element": "C" 
			},
			{
				"x": 1.6653257617,
				"y": -0.4172216894,
				"z": -0.3315356996,
				"element": "C" 
			},
			{
				"x": -0.5768730121,
				"y": 1.803801287,
				"z": -2.354401215,
				"element": "C" 
			},
			{
				"x": -1.6910338987,
				"y": 2.3047188595,
				"z": -2.2659546972,
				"element": "O" 
			},
			{
				"x": 0.333240206,
				"y": 2.0732106002,
				"z": -3.327205875,
				"element": "O" 
			},
			{
				"x": 0.0485083675,
				"y": 3.0697794952,
				"z": -4.3683005026,
				"element": "C" 
			},
			{
				"x": 1.3324616614,
				"y": 3.0546223704,
				"z": -5.2029192856,
				"element": "C" 
			},
			{
				"x": -0.1699687302,
				"y": 4.4486946494,
				"z": -3.7356835978,
				"element": "C" 
			},
			{
				"x": -1.1506264209,
				"y": 2.622039633,
				"z": -5.2116882095,
				"element": "C" 
			},
			{
				"x": -0.3306242376,
				"y": -5.0952413188,
				"z": 2.6366053596,
				"element": "H" 
			},
			{
				"x": 0.1644520078,
				"y": -6.0381240106,
				"z": 4.0424176783,
				"element": "H" 
			},
			{
				"x": -1.3709321661,
				"y": -5.150355859,
				"z": 4.0715749588,
				"element": "H" 
			},
			{
				"x": 1.117504211,
				"y": -3.0875779888,
				"z": 6.0036883863,
				"element": "H" 
			},
			{
				"x": 1.18607934,
				"y": -4.873072186,
				"z": 5.996175512,
				"element": "H" 
			},
			{
				"x": -0.3668413084,
				"y": -4.044560934,
				"z": 6.2558668151,
				"element": "H" 
			},
			{
				"x": -0.6634660476,
				"y": -2.9908660455,
				"z": 1.9234255968,
				"element": "H" 
			},
			{
				"x": 0.9296454582,
				"y": -3.6901732694,
				"z": 1.5915747813,
				"element": "H" 
			},
			{
				"x": 0.9386664213,
				"y": -2.4672164786,
				"z": -0.3577234936,
				"element": "H" 
			},
			{
				"x": -1.0410768102,
				"y": -1.6110195491,
				"z": -1.2150610561,
				"element": "H" 
			},
			{
				"x": -1.4684579113,
				"y": -1.5134178944,
				"z": 0.490184655,
				"element": "H" 
			},
			{
				"x": -1.9763804767,
				"y": 0.6429581749,
				"z": -0.6797595218,
				"element": "H" 
			},
			{
				"x": -0.7277579125,
				"y": 0.8770331254,
				"z": 0.5440697827,
				"element": "H" 
			},
			{
				"x": 1.2376865175,
				"y": -0.4569109389,
				"z": -2.4633679622,
				"element": "H" 
			},
			{
				"x": 1.9708161906,
				"y": 1.0387723768,
				"z": -1.9015134503,
				"element": "H" 
			},
			{
				"x": 1.7168808597,
				"y": 0.325582564,
				"z": 0.4715777258,
				"element": "H" 
			},
			{
				"x": 2.6701063768,
				"y": -0.83607217,
				"z": -0.4399282303,
				"element": "H" 
			},
			{
				"x": 1.2504988361,
				"y": 3.762972158,
				"z": -6.0327467396,
				"element": "H" 
			},
			{
				"x": 2.1946047221,
				"y": 3.3363888898,
				"z": -4.5911711859,
				"element": "H" 
			},
			{
				"x": 1.513275312,
				"y": 2.057460441,
				"z": -5.6150340807,
				"element": "H" 
			},
			{
				"x": -1.0719801487,
				"y": 4.4577196651,
				"z": -3.1237744692,
				"element": "H" 
			},
			{
				"x": 0.6867409838,
				"y": 4.7186918243,
				"z": -3.109821921,
				"element": "H" 
			},
			{
				"x": -0.2663532034,
				"y": 5.203633505,
				"z": -4.5229705299,
				"element": "H" 
			},
			{
				"x": -0.9758453339,
				"y": 1.6199766563,
				"z": -5.6167040892,
				"element": "H" 
			},
			{
				"x": -2.0618140241,
				"y": 2.6084047863,
				"z": -4.6137251411,
				"element": "H" 
			},
			{
				"x": -1.2864092905,
				"y": 3.3092769888,
				"z": -6.0533403577,
				"element": "H" 
			}
		],
		 "valence_orbital": [ 
			{
				"type": "occ",
				"energy": -0.26135,
				"method": "rhf"
			},
			{
				"type": "occ",
				"energy": -0.25086,
				"method": "rhf"
			},
			{
				"type": "occ",
				"energy": -0.24562,
				"method": "rhf"
			},
			{
				"type": "occ",
				"energy": -0.23747,
				"method": "rhf"
			},
			{
				"type": "occ",
				"energy": -0.22692,
				"method": "rhf"
			},
			{
				"type": "unocc",
				"energy": 0.02868,
				"method": "rhf"
			},
			{
				"type": "unocc",
				"energy": 0.06184,
				"method": "rhf"
			},
			{
				"type": "unocc",
				"energy": 0.07084,
				"method": "rhf"
			},
			{
				"type": "unocc",
				"energy": 0.08095,
				"method": "rhf"
			},
			{
				"type": "unocc",
				"energy": 0.08855,
				"method": "rhf"
			}
		],
		"cosmo_sigma_profile": { 
			"-0.025": 0.0,
			"-0.024": 0.0,
			"-0.023": 0.0,
			"-0.022": 0.0,
			"-0.021": 0.0,
			"-0.02": 0.0,
			"-0.019": 0.0,
			"-0.018": 0.0,
			"-0.017": 0.0,
			"-0.016": 0.0,
			"-0.015": 0.0,
			"-0.014": 0.0,
			"-0.013": 0.0,
			"-0.012": 0.0,
			"-0.011": 0.0,
			"-0.01": 0.0,
			"-0.009": 0.0,
			"-0.008": 0.522872256173,
			"-0.007": 3.16165778363,
			"-0.006": 8.25108285422,
			"-0.005": 17.5084096372,
			"-0.004": 47.0854980405,
			"-0.003": 54.1356402164,
			"-0.002": 47.5140480737,
			"-0.001": 36.1045259492,
			"0.0": 33.2939545518,
			"0.001": 28.9282445871,
			"0.002": 12.6314069199,
			"0.003": 8.74659901999,
			"0.004": 6.21753865575,
			"0.005": 6.83964979434,
			"0.006": 5.85342886566,
			"0.007": 4.771766189,
			"0.008": 4.29286488991,
			"0.009": 1.94805336596,
			"0.01": 3.9445906604,
			"0.011": 3.32958047679,
			"0.012": 3.95424430738,
			"0.013": 5.44458741154,
			"0.014": 6.77685447489,
			"0.015": 2.0785467648,
			"0.016": 1.42491501778,
			"0.017": 1.31025835906,
			"0.018": 1.19578806976,
			"0.019": 0.134946264162,
			"0.02": 0.0,
			"0.021": 0.0,
			"0.022": 0.0,
			"0.023": 0.0,
			"0.024": 0.0,
			"0.025": 0.0
		}
	}
}
