{
	 "smiles": "FC(F)(F)C1=CC(Cl)=C(C=C1)S(Cl)(=O)=O", 
	 "Tm": 310.15, 
	 "num_atms": 18, 
	 "gaussian": { 
		 "optdone": 1, 
		 "sigma_profile": "yes", 
		 "theory": "DFT", 
		 "functional": "B3LYP", 
		 "basiset": "6-31G**", 
		 "properties": { 
			 "R2extent": 5806.3218, 
			 "electric_dipole_moment_norm": 3.18337062561, 
			 "electric_quadrupole_moment_norm": 14.7560833455, 
			 "total_energy": -2037.01676761, 
			 "HOMO_LUMO_gap": 0.18785, 
			 "cosmo_polarized_energy": -8.67, 
			 "cosmo_cavitation_energy": 29.41, 
			 "cosmo_dispersion_energy": -21.57, 
			 "cosmo_repulsion_energy": 1.57, 
			 "cosmo_total_nonelectrostatic_energy": 9.41, 
			 "SMD_solvation_energy": 4.73 
		},
		"coords": [
			{
				"x": 3.965862074,
				"y": 1.5888719823,
				"z": 0.8408694295,
				"element": "F" 
			},
			{
				"x": 3.4724498967,
				"y": 0.3969234106,
				"z": 0.4495378126,
				"element": "C" 
			},
			{
				"x": 4.2059278599,
				"y": -0.5693616774,
				"z": 1.036676774,
				"element": "F" 
			},
			{
				"x": 3.666839873,
				"y": 0.2992119861,
				"z": -0.8820207991,
				"element": "F" 
			},
			{
				"x": 2.0059589978,
				"y": 0.2707919343,
				"z": 0.7912225139,
				"element": "C" 
			},
			{
				"x": 1.4800770906,
				"y": -0.9801862341,
				"z": 1.1097210605,
				"element": "C" 
			},
			{
				"x": 0.1173060269,
				"y": -1.1209406837,
				"z": 1.3762082827,
				"element": "C" 
			},
			{
				"x": -0.470822665,
				"y": -2.7036292868,
				"z": 1.7902611051,
				"element": "Cl" 
			},
			{
				"x": -0.7092319054,
				"y": 0.0124880042,
				"z": 1.3183358623,
				"element": "C" 
			},
			{
				"x": -0.1743228718,
				"y": 1.2663470517,
				"z": 1.0063038249,
				"element": "C" 
			},
			{
				"x": 1.1841641572,
				"y": 1.397940883,
				"z": 0.7400424217,
				"element": "C" 
			},
			{
				"x": -2.4939780974,
				"y": -0.0295457313,
				"z": 1.5789970726,
				"element": "S" 
			},
			{
				"x": -2.6029028772,
				"y": -0.4043612687,
				"z": 3.6608926229,
				"element": "Cl" 
			},
			{
				"x": -3.0807258337,
				"y": -1.1734335527,
				"z": 0.8995539448,
				"element": "O" 
			},
			{
				"x": -3.0017084139,
				"y": 1.3221921682,
				"z": 1.3830648882,
				"element": "O" 
			},
			{
				"x": 2.1235135086,
				"y": -1.8499706657,
				"z": 1.1621552034,
				"element": "H" 
			},
			{
				"x": -0.8336961501,
				"y": 2.1254010544,
				"z": 0.9761220468,
				"element": "H" 
			},
			{
				"x": 1.6018893298,
				"y": 2.3695606255,
				"z": 0.5032559332,
				"element": "H" 
			}
		],
		 "valence_orbital": [ 
			{
				"type": "occ",
				"energy": -0.34678,
				"method": "rhf"
			},
			{
				"type": "occ",
				"energy": -0.33367,
				"method": "rhf"
			},
			{
				"type": "occ",
				"energy": -0.32427,
				"method": "rhf"
			},
			{
				"type": "occ",
				"energy": -0.31327,
				"method": "rhf"
			},
			{
				"type": "occ",
				"energy": -0.29142,
				"method": "rhf"
			},
			{
				"type": "unocc",
				"energy": -0.10357,
				"method": "rhf"
			},
			{
				"type": "unocc",
				"energy": -0.07247,
				"method": "rhf"
			},
			{
				"type": "unocc",
				"energy": -0.06029,
				"method": "rhf"
			},
			{
				"type": "unocc",
				"energy": -0.00551,
				"method": "rhf"
			},
			{
				"type": "unocc",
				"energy": 0.0408,
				"method": "rhf"
			}
		],
		"cosmo_sigma_profile": { 
			"-0.025": 0.0,
			"-0.024": 0.0,
			"-0.023": 0.0,
			"-0.022": 0.0,
			"-0.021": 0.0,
			"-0.02": 0.0,
			"-0.019": 0.0,
			"-0.018": 0.0,
			"-0.017": 0.0,
			"-0.016": 0.0,
			"-0.015": 0.0,
			"-0.014": 0.0,
			"-0.013": 0.0,
			"-0.012": 0.0,
			"-0.011": 0.0,
			"-0.01": 0.743320254089,
			"-0.009": 4.7157760753,
			"-0.008": 5.56768060039,
			"-0.007": 5.19943978666,
			"-0.006": 7.07496633236,
			"-0.005": 7.88465045757,
			"-0.004": 11.4672237488,
			"-0.003": 18.1764158683,
			"-0.002": 25.7683356716,
			"-0.001": 19.4122520355,
			"0.0": 16.4810854307,
			"0.001": 20.222494844,
			"0.002": 45.9609885968,
			"0.003": 23.2187112012,
			"0.004": 4.01052999571,
			"0.005": 3.51064981267,
			"0.006": 4.19565128129,
			"0.007": 8.66798417923,
			"0.008": 8.87844684458,
			"0.009": 1.07479070235,
			"0.01": 0.0,
			"0.011": 0.0,
			"0.012": 0.0,
			"0.013": 0.0,
			"0.014": 0.0,
			"0.015": 0.0,
			"0.016": 0.0,
			"0.017": 0.0,
			"0.018": 0.0,
			"0.019": 0.0,
			"0.02": 0.0,
			"0.021": 0.0,
			"0.022": 0.0,
			"0.023": 0.0,
			"0.024": 0.0,
			"0.025": 0.0
		}
	}
}
