{
	 "smiles": "CCC#N", 
	 "Tm": 180.65, 
	 "num_atms": 9, 
	 "gaussian": { 
		 "optdone": 1, 
		 "sigma_profile": "yes", 
		 "theory": "DFT", 
		 "functional": "B3LYP", 
		 "basiset": "6-31G**", 
		 "properties": { 
			 "R2extent": 403.4524, 
			 "electric_dipole_moment_norm": 3.91478608483, 
			 "electric_quadrupole_moment_norm": 7.05330832234, 
			 "total_energy": -172.071371944, 
			 "HOMO_LUMO_gap": 0.35425, 
			 "cosmo_polarized_energy": -8.1, 
			 "cosmo_cavitation_energy": 13.14, 
			 "cosmo_dispersion_energy": -9.25, 
			 "cosmo_repulsion_energy": 0.87, 
			 "cosmo_total_nonelectrostatic_energy": 4.76, 
			 "SMD_solvation_energy": 4.13 
		},
		"coords": [
			{
				"x": 1.0780648889,
				"y": 0.3213379393,
				"z": 1.1136280998,
				"element": "C" 
			},
			{
				"x": 0.7137285209,
				"y": 0.9128269243,
				"z": -0.2597772891,
				"element": "C" 
			},
			{
				"x": -0.7210096979,
				"y": 1.1838710969,
				"z": -0.3965852692,
				"element": "C" 
			},
			{
				"x": -1.8590388434,
				"y": 1.392158512,
				"z": -0.4904964167,
				"element": "N" 
			},
			{
				"x": 0.8061530932,
				"y": 1.0078331502,
				"z": 1.9193724537,
				"element": "H" 
			},
			{
				"x": 0.5588232504,
				"y": -0.6255557235,
				"z": 1.2816111004,
				"element": "H" 
			},
			{
				"x": 2.1549337121,
				"y": 0.1386739724,
				"z": 1.1638366454,
				"element": "H" 
			},
			{
				"x": 1.2551005416,
				"y": 1.8506094831,
				"z": -0.4301085018,
				"element": "H" 
			},
			{
				"x": 1.0096445343,
				"y": 0.2286446454,
				"z": -1.0634808224,
				"element": "H" 
			}
		],
		 "valence_orbital": [ 
			{
				"type": "occ",
				"energy": -0.39986,
				"method": "rhf"
			},
			{
				"type": "occ",
				"energy": -0.3897,
				"method": "rhf"
			},
			{
				"type": "occ",
				"energy": -0.35287,
				"method": "rhf"
			},
			{
				"type": "occ",
				"energy": -0.3222,
				"method": "rhf"
			},
			{
				"type": "occ",
				"energy": -0.32098,
				"method": "rhf"
			},
			{
				"type": "unocc",
				"energy": 0.03327,
				"method": "rhf"
			},
			{
				"type": "unocc",
				"energy": 0.04049,
				"method": "rhf"
			},
			{
				"type": "unocc",
				"energy": 0.0884,
				"method": "rhf"
			},
			{
				"type": "unocc",
				"energy": 0.13146,
				"method": "rhf"
			},
			{
				"type": "unocc",
				"energy": 0.13383,
				"method": "rhf"
			}
		],
		"cosmo_sigma_profile": { 
			"-0.025": 0.0,
			"-0.024": 0.0,
			"-0.023": 0.0,
			"-0.022": 0.0,
			"-0.021": 0.0,
			"-0.02": 0.0,
			"-0.019": 0.0,
			"-0.018": 0.0,
			"-0.017": 0.0,
			"-0.016": 0.0,
			"-0.015": 0.0,
			"-0.014": 0.0,
			"-0.013": 0.0,
			"-0.012": 0.0,
			"-0.011": 0.0,
			"-0.01": 0.0,
			"-0.009": 0.0,
			"-0.008": 2.7894154902,
			"-0.007": 5.57899997666,
			"-0.006": 5.27399309646,
			"-0.005": 11.7427022661,
			"-0.004": 14.6614748302,
			"-0.003": 8.80483369559,
			"-0.002": 7.93020658774,
			"-0.001": 8.64261756784,
			"0.0": 5.67519900215,
			"0.001": 1.77874063211,
			"0.002": 2.01276899728,
			"0.003": 1.53370330599,
			"0.004": 1.9587262751,
			"0.005": 1.80948331225,
			"0.006": 2.86385752182,
			"0.007": 2.97790397135,
			"0.008": 2.42416090889,
			"0.009": 3.95876133716,
			"0.01": 3.15615715536,
			"0.011": 3.2561769752,
			"0.012": 2.64485950747,
			"0.013": 2.35326774154,
			"0.014": 0.731738514594,
			"0.015": 0.0,
			"0.016": 0.0,
			"0.017": 0.0,
			"0.018": 0.0,
			"0.019": 0.0,
			"0.02": 0.0,
			"0.021": 0.0,
			"0.022": 0.0,
			"0.023": 0.0,
			"0.024": 0.0,
			"0.025": 0.0
		}
	}
}
