{
	 "smiles": "O=C(NC1=CC=CC=C1)C=CC1=CC=C(C=CC(=O)NC2=CC=CC=C2)C=C1", 
	 "Tm": 566.15, 
	 "num_atms": 48, 
	 "gaussian": { 
		 "optdone": 1, 
		 "sigma_profile": "yes", 
		 "theory": "DFT", 
		 "functional": "B3LYP", 
		 "basiset": "6-31G**", 
		 "properties": { 
			 "R2extent": 20324.847, 
			 "electric_dipole_moment_norm": 4.83476947227, 
			 "electric_quadrupole_moment_norm": 19.8809287348, 
			 "total_energy": -1186.56233054, 
			 "HOMO_LUMO_gap": 0.13225, 
			 "cosmo_polarized_energy": -21.84, 
			 "cosmo_cavitation_energy": 53.37, 
			 "cosmo_dispersion_energy": -37.46, 
			 "cosmo_repulsion_energy": 2.79, 
			 "cosmo_total_nonelectrostatic_energy": 18.7, 
			 "SMD_solvation_energy": 9.84 
		},
		"coords": [
			{
				"x": 4.3589802584,
				"y": 1.2909925486,
				"z": 4.265833315,
				"element": "O" 
			},
			{
				"x": 3.9258791949,
				"y": 0.7736265705,
				"z": 3.2410063588,
				"element": "C" 
			},
			{
				"x": 3.4156936779,
				"y": 1.4747111573,
				"z": 2.1713864821,
				"element": "N" 
			},
			{
				"x": 3.2056594758,
				"y": 2.8619050717,
				"z": 2.037382843,
				"element": "C" 
			},
			{
				"x": 2.6169417107,
				"y": 3.3085356714,
				"z": 0.8422804739,
				"element": "C" 
			},
			{
				"x": 2.379811841,
				"y": 4.6644563511,
				"z": 0.6367387221,
				"element": "C" 
			},
			{
				"x": 2.7244416801,
				"y": 5.5963854657,
				"z": 1.6180169097,
				"element": "C" 
			},
			{
				"x": 3.3085998281,
				"y": 5.1500943211,
				"z": 2.80423822,
				"element": "C" 
			},
			{
				"x": 3.5542192577,
				"y": 3.7950263799,
				"z": 3.0274666335,
				"element": "C" 
			},
			{
				"x": 4.0003930512,
				"y": -0.7113814477,
				"z": 3.0611544709,
				"element": "C" 
			},
			{
				"x": 3.1258762438,
				"y": -1.5734375271,
				"z": 2.5070574448,
				"element": "C" 
			},
			{
				"x": 1.7829614103,
				"y": -1.3431734562,
				"z": 1.9461137595,
				"element": "C" 
			},
			{
				"x": 1.3397878135,
				"y": -2.1563214864,
				"z": 0.8851862104,
				"element": "C" 
			},
			{
				"x": 0.0816124899,
				"y": -2.0025708635,
				"z": 0.316538496,
				"element": "C" 
			},
			{
				"x": -0.8094196813,
				"y": -1.0278211854,
				"z": 0.8117336008,
				"element": "C" 
			},
			{
				"x": -2.1632573208,
				"y": -0.7626995241,
				"z": 0.3203282122,
				"element": "C" 
			},
			{
				"x": -2.9610324369,
				"y": -1.2424536036,
				"z": -0.6654224715,
				"element": "C" 
			},
			{
				"x": -2.7366127604,
				"y": -2.2906832261,
				"z": -1.6907929718,
				"element": "C" 
			},
			{
				"x": -1.7084643406,
				"y": -2.9525971123,
				"z": -1.8315988844,
				"element": "O" 
			},
			{
				"x": -3.841365754,
				"y": -2.456404187,
				"z": -2.5080936974,
				"element": "N" 
			},
			{
				"x": -4.0278798435,
				"y": -3.3404180207,
				"z": -3.5892536721,
				"element": "C" 
			},
			{
				"x": -5.269970815,
				"y": -3.2907761927,
				"z": -4.2456197521,
				"element": "C" 
			},
			{
				"x": -5.5353114138,
				"y": -4.1303534183,
				"z": -5.3228463855,
				"element": "C" 
			},
			{
				"x": -4.5671133603,
				"y": -5.0343758395,
				"z": -5.7649685856,
				"element": "C" 
			},
			{
				"x": -3.3346859352,
				"y": -5.0826566098,
				"z": -5.1126584108,
				"element": "C" 
			},
			{
				"x": -3.0514068513,
				"y": -4.2482893375,
				"z": -4.0309378896,
				"element": "C" 
			},
			{
				"x": -0.3744055424,
				"y": -0.2344398594,
				"z": 1.8971011468,
				"element": "C" 
			},
			{
				"x": 0.887484322,
				"y": -0.3834725892,
				"z": 2.4548299035,
				"element": "C" 
			},
			{
				"x": 3.1104255239,
				"y": 0.915294482,
				"z": 1.3873506855,
				"element": "H" 
			},
			{
				"x": 2.3448181626,
				"y": 2.5871985566,
				"z": 0.0748722625,
				"element": "H" 
			},
			{
				"x": 1.9243708904,
				"y": 4.9909925736,
				"z": -0.2938270436,
				"element": "H" 
			},
			{
				"x": 2.5407997697,
				"y": 6.6545696486,
				"z": 1.4588529126,
				"element": "H" 
			},
			{
				"x": 3.5820901968,
				"y": 5.8649480206,
				"z": 3.575362601,
				"element": "H" 
			},
			{
				"x": 4.0080993989,
				"y": 3.4488700386,
				"z": 3.9449393791,
				"element": "H" 
			},
			{
				"x": 4.9072215319,
				"y": -1.1178706132,
				"z": 3.5011714389,
				"element": "H" 
			},
			{
				"x": 3.4481241263,
				"y": -2.6137675631,
				"z": 2.4641067585,
				"element": "H" 
			},
			{
				"x": 2.0061408889,
				"y": -2.9204808447,
				"z": 0.492813807,
				"element": "H" 
			},
			{
				"x": -0.2323199103,
				"y": -2.6284284507,
				"z": -0.5084267928,
				"element": "H" 
			},
			{
				"x": -2.6449560576,
				"y": 0.0244593211,
				"z": 0.90074538,
				"element": "H" 
			},
			{
				"x": -3.9412267833,
				"y": -0.770712301,
				"z": -0.715160564,
				"element": "H" 
			},
			{
				"x": -4.6354178914,
				"y": -1.8652407564,
				"z": -2.3108508246,
				"element": "H" 
			},
			{
				"x": -6.0296420782,
				"y": -2.5890758709,
				"z": -3.9068788717,
				"element": "H" 
			},
			{
				"x": -6.5014862172,
				"y": -4.0762093053,
				"z": -5.8161417553,
				"element": "H" 
			},
			{
				"x": -4.7716741014,
				"y": -5.6906061585,
				"z": -6.6052746423,
				"element": "H" 
			},
			{
				"x": -2.5727864075,
				"y": -5.7814519363,
				"z": -5.4465829026,
				"element": "H" 
			},
			{
				"x": -2.0968205079,
				"y": -4.2874921901,
				"z": -3.5275264648,
				"element": "H" 
			},
			{
				"x": -1.0494676157,
				"y": 0.5080135695,
				"z": 2.3149884246,
				"element": "H" 
			},
			{
				"x": 1.1724908813,
				"y": 0.2269817289,
				"z": 3.3046657299,
				"element": "H" 
			}
		],
		 "valence_orbital": [ 
			{
				"type": "occ",
				"energy": -0.2533,
				"method": "rhf"
			},
			{
				"type": "occ",
				"energy": -0.24836,
				"method": "rhf"
			},
			{
				"type": "occ",
				"energy": -0.23613,
				"method": "rhf"
			},
			{
				"type": "occ",
				"energy": -0.22064,
				"method": "rhf"
			},
			{
				"type": "occ",
				"energy": -0.21426,
				"method": "rhf"
			},
			{
				"type": "unocc",
				"energy": -0.08201,
				"method": "rhf"
			},
			{
				"type": "unocc",
				"energy": -0.03943,
				"method": "rhf"
			},
			{
				"type": "unocc",
				"energy": -0.01132,
				"method": "rhf"
			},
			{
				"type": "unocc",
				"energy": -0.00372,
				"method": "rhf"
			},
			{
				"type": "unocc",
				"energy": -0.00326,
				"method": "rhf"
			}
		],
		"cosmo_sigma_profile": { 
			"-0.025": 0.0,
			"-0.024": 0.0,
			"-0.023": 0.0,
			"-0.022": 0.0,
			"-0.021": 0.0,
			"-0.02": 0.0,
			"-0.019": 0.0,
			"-0.018": 0.0,
			"-0.017": 0.0,
			"-0.016": 0.216358685657,
			"-0.015": 1.46540964697,
			"-0.014": 1.47945276941,
			"-0.013": 2.62446806806,
			"-0.012": 1.7612272861,
			"-0.011": 2.76875969105,
			"-0.01": 2.67845601231,
			"-0.009": 2.88182531506,
			"-0.008": 3.78480853291,
			"-0.007": 11.6212490413,
			"-0.006": 25.9411362959,
			"-0.005": 27.778007055,
			"-0.004": 29.6253806923,
			"-0.003": 28.5666265195,
			"-0.002": 23.7661859927,
			"-0.001": 25.765799019,
			"0.0": 25.4729488857,
			"0.001": 29.8928069274,
			"0.002": 34.2578110584,
			"0.003": 42.4068739659,
			"0.004": 35.6908395546,
			"0.005": 24.3935511824,
			"0.006": 17.6682856467,
			"0.007": 5.23742196947,
			"0.008": 2.78623770034,
			"0.009": 2.72572061255,
			"0.01": 4.22314528891,
			"0.011": 4.23807425381,
			"0.012": 2.79613311117,
			"0.013": 3.01124767417,
			"0.014": 1.44930552201,
			"0.015": 0.070501388388,
			"0.016": 0.0,
			"0.017": 0.0,
			"0.018": 0.0,
			"0.019": 0.0,
			"0.02": 0.0,
			"0.021": 0.0,
			"0.022": 0.0,
			"0.023": 0.0,
			"0.024": 0.0,
			"0.025": 0.0
		}
	}
}
