{
	 "smiles": "FC(F)(F)C(I)(C(F)(F)F)C(F)(F)F", 
	 "Tm": 333.15, 
	 "num_atms": 14, 
	 "gaussian": { 
		 "optdone": 1, 
		 "sigma_profile": "no", 
		 "theory": "DFT", 
		 "functional": "B3LYP", 
		 "basiset": "6-31G**", 
		 "properties": { 
			 "R2extent": 2305.5261, 
			 "electric_dipole_moment_norm": 0.897593961655, 
			 "electric_quadrupole_moment_norm": 4.78266154249, 
			 "total_energy": -1062.36209351, 
			 "HOMO_LUMO_gap": 0.19862, 
			 "cosmo_polarized_energy": -70569.04, 
			 "cosmo_cavitation_energy": 23.92, 
			 "cosmo_dispersion_energy": -17.85, 
			 "cosmo_repulsion_energy": 1.2, 
			 "cosmo_total_nonelectrostatic_energy": 7.27, 
			 "SMD_solvation_energy": 6.42 
		},
		"coords": [
			{
				"x": -1.1139191802,
				"y": 0.898358737,
				"z": 0.9598769388,
				"element": "F" 
			},
			{
				"x": -1.0305470648,
				"y": 0.0453964669,
				"z": -0.0692784754,
				"element": "C" 
			},
			{
				"x": -1.0752073137,
				"y": -1.2025325979,
				"z": 0.4240522226,
				"element": "F" 
			},
			{
				"x": -2.1084729908,
				"y": 0.2207320974,
				"z": -0.8445095475,
				"element": "F" 
			},
			{
				"x": 0.2853049894,
				"y": 0.263283904,
				"z": -0.876446874,
				"element": "C" 
			},
			{
				"x": 0.2904348829,
				"y": 2.3066967213,
				"z": -1.6494065453,
				"element": "I" 
			},
			{
				"x": 0.3544466874,
				"y": -0.7203015486,
				"z": -2.0840989184,
				"element": "C" 
			},
			{
				"x": 1.4692488207,
				"y": -0.5287035858,
				"z": -2.8011708565,
				"element": "F" 
			},
			{
				"x": -0.6972835031,
				"y": -0.5619591166,
				"z": -2.8980215639,
				"element": "F" 
			},
			{
				"x": 0.3546498174,
				"y": -1.991621591,
				"z": -1.6523025135,
				"element": "F" 
			},
			{
				"x": 1.5286271274,
				"y": 0.0828616866,
				"z": 0.046615534,
				"element": "C" 
			},
			{
				"x": 1.4946246299,
				"y": 0.9375919827,
				"z": 1.0771116899,
				"element": "F" 
			},
			{
				"x": 2.666684882,
				"y": 0.2890093016,
				"z": -0.6286780664,
				"element": "F" 
			},
			{
				"x": 1.5640082156,
				"y": -1.1634124575,
				"z": 0.5448569757,
				"element": "F" 
			}
		],
		 "valence_orbital": [ 
			{
				"type": "occ",
				"energy": -0.40685,
				"method": "rhf"
			},
			{
				"type": "occ",
				"energy": -0.40685,
				"method": "rhf"
			},
			{
				"type": "occ",
				"energy": -0.3997,
				"method": "rhf"
			},
			{
				"type": "occ",
				"energy": -0.29653,
				"method": "rhf"
			},
			{
				"type": "occ",
				"energy": -0.29653,
				"method": "rhf"
			},
			{
				"type": "unocc",
				"energy": -0.09791,
				"method": "rhf"
			},
			{
				"type": "unocc",
				"energy": 0.04367,
				"method": "rhf"
			},
			{
				"type": "unocc",
				"energy": 0.04367,
				"method": "rhf"
			},
			{
				"type": "unocc",
				"energy": 0.04776,
				"method": "rhf"
			},
			{
				"type": "unocc",
				"energy": 0.07216,
				"method": "rhf"
			}
		],
		"cosmo_sigma_profile": { 
			"0.0": 0.0,
			"0.0": 0.0,
			"0.0": 0.0,
			"0.0": 0.0,
			"0.0": 0.0,
			"0.0": 0.0,
			"0.0": 0.0,
			"0.0": 0.0,
			"0.0": 0.0,
			"0.0": 0.0,
			"0.0": 0.0,
			"0.0": 0.0,
			"0.0": 0.0,
			"0.0": 0.0,
			"0.0": 0.0,
			"0.0": 0.0,
			"0.0": 0.0,
			"0.0": 0.0,
			"0.0": 0.0,
			"0.0": 0.0,
			"0.0": 0.0,
			"0.0": 0.0,
			"0.0": 0.0,
			"0.0": 0.0,
			"0.0": 0.0,
			"0.0": 0.0,
			"0.0": 0.0,
			"0.0": 0.0,
			"0.0": 0.0,
			"0.0": 0.0,
			"0.0": 0.0,
			"0.0": 0.0,
			"0.0": 0.0,
			"0.0": 0.0,
			"0.0": 0.0,
			"0.0": 0.0,
			"0.0": 0.0,
			"0.0": 0.0,
			"0.0": 0.0,
			"0.0": 0.0,
			"0.0": 0.0,
			"0.0": 0.0,
			"0.0": 0.0,
			"0.0": 0.0,
			"0.0": 0.0,
			"0.0": 0.0,
			"0.0": 0.0,
			"0.0": 0.0,
			"0.0": 0.0,
			"0.0": 0.0,
			"0.0": 0.0
		}
	}
}
