{
	 "smiles": "CC1=C(C=CC2=CN=C(C3CC3)N12)C(O)=O", 
	 "Tm": 478.15, 
	 "num_atms": 28, 
	 "gaussian": { 
		 "optdone": 1, 
		 "sigma_profile": "yes", 
		 "theory": "DFT", 
		 "functional": "B3LYP", 
		 "basiset": "6-31G**", 
		 "properties": { 
			 "R2extent": 4590.4313, 
			 "electric_dipole_moment_norm": 2.29909704232, 
			 "electric_quadrupole_moment_norm": 29.2126071615, 
			 "total_energy": -724.429847644, 
			 "HOMO_LUMO_gap": 0.14459, 
			 "cosmo_polarized_energy": -16.45, 
			 "cosmo_cavitation_energy": 30.82, 
			 "cosmo_dispersion_energy": -22.65, 
			 "cosmo_repulsion_energy": 1.73, 
			 "cosmo_total_nonelectrostatic_energy": 9.9, 
			 "SMD_solvation_energy": 4.63 
		},
		"coords": [
			{
				"x": -0.2027133822,
				"y": -0.6046377871,
				"z": 2.4070142677,
				"element": "C" 
			},
			{
				"x": 0.121286631,
				"y": 0.6900884031,
				"z": 1.7181237431,
				"element": "C" 
			},
			{
				"x": 0.9212603971,
				"y": 1.6760981901,
				"z": 2.2632117155,
				"element": "C" 
			},
			{
				"x": 1.1683938563,
				"y": 2.9119812433,
				"z": 1.563392028,
				"element": "C" 
			},
			{
				"x": 0.5926817379,
				"y": 3.1478452214,
				"z": 0.3524996023,
				"element": "C" 
			},
			{
				"x": -0.2501372315,
				"y": 2.1663670677,
				"z": -0.2165407458,
				"element": "C" 
			},
			{
				"x": -0.9867806049,
				"y": 2.068202034,
				"z": -1.3794076682,
				"element": "C" 
			},
			{
				"x": -1.5993813366,
				"y": 0.8581331608,
				"z": -1.4521418991,
				"element": "N" 
			},
			{
				"x": -1.2831860409,
				"y": 0.1742024088,
				"z": -0.3629844985,
				"element": "C" 
			},
			{
				"x": -1.7918018938,
				"y": -1.1963830278,
				"z": -0.1061555923,
				"element": "C" 
			},
			{
				"x": -2.8331599171,
				"y": -1.7505814515,
				"z": -1.0449960011,
				"element": "C" 
			},
			{
				"x": -3.2290750622,
				"y": -1.4054691858,
				"z": 0.3630302136,
				"element": "C" 
			},
			{
				"x": -0.4492547536,
				"y": 0.9325560057,
				"z": 0.4651226922,
				"element": "N" 
			},
			{
				"x": 1.5680234989,
				"y": 1.4894577012,
				"z": 3.603125093,
				"element": "C" 
			},
			{
				"x": 1.6985145453,
				"y": 2.6271873154,
				"z": 4.3421775577,
				"element": "O" 
			},
			{
				"x": 1.9860883054,
				"y": 0.4451994415,
				"z": 4.0484166214,
				"element": "O" 
			},
			{
				"x": 0.120519917,
				"y": -0.5736254002,
				"z": 3.443344496,
				"element": "H" 
			},
			{
				"x": 0.3279056312,
				"y": -1.438904081,
				"z": 1.9354463478,
				"element": "H" 
			},
			{
				"x": -1.2728084314,
				"y": -0.8132306491,
				"z": 2.3560740277,
				"element": "H" 
			},
			{
				"x": 1.8605014041,
				"y": 3.6329833516,
				"z": 1.9862330955,
				"element": "H" 
			},
			{
				"x": 0.7710605379,
				"y": 4.0651866865,
				"z": -0.1981950362,
				"element": "H" 
			},
			{
				"x": -1.0839880635,
				"y": 2.8098418781,
				"z": -2.1601352297,
				"element": "H" 
			},
			{
				"x": -1.0663054467,
				"y": -1.9108796298,
				"z": 0.2651639834,
				"element": "H" 
			},
			{
				"x": -2.7478552323,
				"y": -2.7987356759,
				"z": -1.3137595983,
				"element": "H" 
			},
			{
				"x": -3.1616507974,
				"y": -1.0943870785,
				"z": -1.8423175875,
				"element": "H" 
			},
			{
				"x": -3.8334198216,
				"y": -0.516127064,
				"z": 0.5127908843,
				"element": "H" 
			},
			{
				"x": -3.4198760058,
				"y": -2.2090471381,
				"z": 1.0689326002,
				"element": "H" 
			},
			{
				"x": 1.1935575596,
				"y": 3.3457780595,
				"z": 3.9356348873,
				"element": "H" 
			}
		],
		 "valence_orbital": [ 
			{
				"type": "occ",
				"energy": -0.3036,
				"method": "rhf"
			},
			{
				"type": "occ",
				"energy": -0.28104,
				"method": "rhf"
			},
			{
				"type": "occ",
				"energy": -0.27474,
				"method": "rhf"
			},
			{
				"type": "occ",
				"energy": -0.26431,
				"method": "rhf"
			},
			{
				"type": "occ",
				"energy": -0.20021,
				"method": "rhf"
			},
			{
				"type": "unocc",
				"energy": -0.05562,
				"method": "rhf"
			},
			{
				"type": "unocc",
				"energy": -0.03016,
				"method": "rhf"
			},
			{
				"type": "unocc",
				"energy": 0.02953,
				"method": "rhf"
			},
			{
				"type": "unocc",
				"energy": 0.06373,
				"method": "rhf"
			},
			{
				"type": "unocc",
				"energy": 0.07086,
				"method": "rhf"
			}
		],
		"cosmo_sigma_profile": { 
			"-0.025": 0.0,
			"-0.024": 0.0,
			"-0.023": 0.0,
			"-0.022": 0.0,
			"-0.021": 0.0,
			"-0.02": 0.0,
			"-0.019": 0.0067284055923,
			"-0.018": 0.518793521426,
			"-0.017": 0.946078305103,
			"-0.016": 0.712775985172,
			"-0.015": 0.772416918984,
			"-0.014": 1.04151129112,
			"-0.013": 1.4260983211,
			"-0.012": 1.07891194836,
			"-0.011": 0.782361183007,
			"-0.01": 0.874001186407,
			"-0.009": 1.12561428489,
			"-0.008": 3.84965167916,
			"-0.007": 8.68578188821,
			"-0.006": 10.5987350848,
			"-0.005": 14.8332743784,
			"-0.004": 18.6509556986,
			"-0.003": 19.0998212475,
			"-0.002": 22.8410912565,
			"-0.001": 20.9985214464,
			"0.0": 17.9254222206,
			"0.001": 14.4275698268,
			"0.002": 14.3736796673,
			"0.003": 13.3165633697,
			"0.004": 9.10122697358,
			"0.005": 6.84414309395,
			"0.006": 4.88429384601,
			"0.007": 4.8082333259,
			"0.008": 4.31391686578,
			"0.009": 5.41035725212,
			"0.01": 6.16871193525,
			"0.011": 6.55294892996,
			"0.012": 4.90747205522,
			"0.013": 2.49200282466,
			"0.014": 1.1233422746,
			"0.015": 0.518173465538,
			"0.016": 0.0373414203117,
			"0.017": 0.0,
			"0.018": 0.0,
			"0.019": 0.0,
			"0.02": 0.0,
			"0.021": 0.0,
			"0.022": 0.0,
			"0.023": 0.0,
			"0.024": 0.0,
			"0.025": 0.0
		}
	}
}
