{
	 "smiles": "CC1=C(SC2=C1C=CC(F)=C2)S(Cl)(=O)=O", 
	 "Tm": 412.15, 
	 "num_atms": 21, 
	 "gaussian": { 
		 "optdone": 1, 
		 "sigma_profile": "yes", 
		 "theory": "DFT", 
		 "functional": "B3LYP", 
		 "basiset": "6-31G**", 
		 "properties": { 
			 "R2extent": 5877.7146, 
			 "electric_dipole_moment_norm": 5.19739003539, 
			 "electric_quadrupole_moment_norm": 17.1591973755, 
			 "total_energy": -1853.35428941, 
			 "HOMO_LUMO_gap": 0.15035, 
			 "cosmo_polarized_energy": -9.6, 
			 "cosmo_cavitation_energy": 30.64, 
			 "cosmo_dispersion_energy": -23.02, 
			 "cosmo_repulsion_energy": 1.67, 
			 "cosmo_total_nonelectrostatic_energy": 9.28, 
			 "SMD_solvation_energy": 3.9 
		},
		"coords": [
			{
				"x": -3.2546178553,
				"y": -0.6292599724,
				"z": 1.4745321507,
				"element": "C" 
			},
			{
				"x": -1.8015217776,
				"y": -0.270636302,
				"z": 1.3579870174,
				"element": "C" 
			},
			{
				"x": -0.8096689194,
				"y": -0.9920974227,
				"z": 0.7436021597,
				"element": "C" 
			},
			{
				"x": 0.8029284022,
				"y": -0.2864589271,
				"z": 0.839089905,
				"element": "S" 
			},
			{
				"x": 0.1430206082,
				"y": 1.0633365588,
				"z": 1.7327789073,
				"element": "C" 
			},
			{
				"x": -1.2553306104,
				"y": 0.9377864895,
				"z": 1.9302135838,
				"element": "C" 
			},
			{
				"x": -1.9395697771,
				"y": 1.9531882899,
				"z": 2.6295548382,
				"element": "C" 
			},
			{
				"x": -1.2438093657,
				"y": 3.0495933135,
				"z": 3.1090227327,
				"element": "C" 
			},
			{
				"x": 0.1396577251,
				"y": 3.1353845575,
				"z": 2.8881052171,
				"element": "C" 
			},
			{
				"x": 0.7931628324,
				"y": 4.2102449054,
				"z": 3.3637153263,
				"element": "F" 
			},
			{
				"x": 0.8586389373,
				"y": 2.1684744469,
				"z": 2.2067616007,
				"element": "C" 
			},
			{
				"x": -0.9545318835,
				"y": -2.5446344511,
				"z": -0.074600984,
				"element": "S" 
			},
			{
				"x": -1.0135615069,
				"y": -3.9144326621,
				"z": 1.5641234376,
				"element": "Cl" 
			},
			{
				"x": 0.297010479,
				"y": -2.8023350444,
				"z": -0.7748879902,
				"element": "O" 
			},
			{
				"x": -2.2518065053,
				"y": -2.6634953263,
				"z": -0.7287927021,
				"element": "O" 
			},
			{
				"x": -3.4958584233,
				"y": -1.5563749933,
				"z": 0.9584618617,
				"element": "H" 
			},
			{
				"x": -3.5324537285,
				"y": -0.7296798547,
				"z": 2.5298220828,
				"element": "H" 
			},
			{
				"x": -3.8736150548,
				"y": 0.1678647353,
				"z": 1.0478770432,
				"element": "H" 
			},
			{
				"x": -3.0096376965,
				"y": 1.8764935722,
				"z": 2.7927447229,
				"element": "H" 
			},
			{
				"x": -1.7385757362,
				"y": 3.8471976155,
				"z": 3.6515083217,
				"element": "H" 
			},
			{
				"x": 1.9268398565,
				"y": 2.2826404714,
				"z": 2.0626807674,
				"element": "H" 
			}
		],
		 "valence_orbital": [ 
			{
				"type": "occ",
				"energy": -0.33031,
				"method": "rhf"
			},
			{
				"type": "occ",
				"energy": -0.31571,
				"method": "rhf"
			},
			{
				"type": "occ",
				"energy": -0.30946,
				"method": "rhf"
			},
			{
				"type": "occ",
				"energy": -0.26617,
				"method": "rhf"
			},
			{
				"type": "occ",
				"energy": -0.24859,
				"method": "rhf"
			},
			{
				"type": "unocc",
				"energy": -0.09824,
				"method": "rhf"
			},
			{
				"type": "unocc",
				"energy": -0.05503,
				"method": "rhf"
			},
			{
				"type": "unocc",
				"energy": -0.03627,
				"method": "rhf"
			},
			{
				"type": "unocc",
				"energy": -0.01067,
				"method": "rhf"
			},
			{
				"type": "unocc",
				"energy": 0.00848,
				"method": "rhf"
			}
		],
		"cosmo_sigma_profile": { 
			"-0.025": 0.0,
			"-0.024": 0.0,
			"-0.023": 0.0,
			"-0.022": 0.0,
			"-0.021": 0.0,
			"-0.02": 0.0,
			"-0.019": 0.0,
			"-0.018": 0.0,
			"-0.017": 0.0,
			"-0.016": 0.0,
			"-0.015": 0.0,
			"-0.014": 0.0,
			"-0.013": 0.0,
			"-0.012": 0.0,
			"-0.011": 0.0,
			"-0.01": 0.430116241758,
			"-0.009": 2.59025687475,
			"-0.008": 4.34921844127,
			"-0.007": 8.19665707105,
			"-0.006": 12.5810333858,
			"-0.005": 10.5546586408,
			"-0.004": 11.8581269705,
			"-0.003": 12.8764949481,
			"-0.002": 18.8567959362,
			"-0.001": 25.6341394442,
			"0.0": 27.1704963832,
			"0.001": 27.4630540268,
			"0.002": 21.2911110992,
			"0.003": 25.2979802715,
			"0.004": 16.7116237088,
			"0.005": 3.42144781467,
			"0.006": 3.80878178509,
			"0.007": 7.30517791669,
			"0.008": 8.65441685604,
			"0.009": 2.4851421846,
			"0.01": 0.0,
			"0.011": 0.0,
			"0.012": 0.0,
			"0.013": 0.0,
			"0.014": 0.0,
			"0.015": 0.0,
			"0.016": 0.0,
			"0.017": 0.0,
			"0.018": 0.0,
			"0.019": 0.0,
			"0.02": 0.0,
			"0.021": 0.0,
			"0.022": 0.0,
			"0.023": 0.0,
			"0.024": 0.0,
			"0.025": 0.0
		}
	}
}
