{
	 "smiles": "CC(=O)N(NC1=CC=CC=C1)C1=CC=C(C=C1)N=NC1=CC=CC=C1", 
	 "Tm": 459.15, 
	 "num_atms": 43, 
	 "gaussian": { 
		 "optdone": 1, 
		 "sigma_profile": "yes", 
		 "theory": "DFT", 
		 "functional": "B3LYP", 
		 "basiset": "6-31G**", 
		 "properties": { 
			 "R2extent": 11734.5499, 
			 "electric_dipole_moment_norm": 2.05631906571, 
			 "electric_quadrupole_moment_norm": 30.5773129153, 
			 "total_energy": -1067.12121689, 
			 "HOMO_LUMO_gap": 0.13267, 
			 "cosmo_polarized_energy": -18.19, 
			 "cosmo_cavitation_energy": 47.54, 
			 "cosmo_dispersion_energy": -32.34, 
			 "cosmo_repulsion_energy": 2.47, 
			 "cosmo_total_nonelectrostatic_energy": 17.67, 
			 "SMD_solvation_energy": 6.9 
		},
		"coords": [
			{
				"x": 3.3478413614,
				"y": -1.0254073459,
				"z": -1.768988966,
				"element": "C" 
			},
			{
				"x": 3.2992145937,
				"y": -0.2651600599,
				"z": -0.4563091948,
				"element": "C" 
			},
			{
				"x": 4.2651073249,
				"y": 0.3495824481,
				"z": -0.033977488,
				"element": "O" 
			},
			{
				"x": 2.1298470214,
				"y": -0.3401389181,
				"z": 0.3134594864,
				"element": "N" 
			},
			{
				"x": 2.2053133416,
				"y": 0.1854936483,
				"z": 1.6168897161,
				"element": "N" 
			},
			{
				"x": 2.8749038124,
				"y": -0.6034104383,
				"z": 2.58916756,
				"element": "C" 
			},
			{
				"x": 3.3577282312,
				"y": 0.0365257871,
				"z": 3.7403780546,
				"element": "C" 
			},
			{
				"x": 3.944346841,
				"y": -0.7058702675,
				"z": 4.7611728368,
				"element": "C" 
			},
			{
				"x": 4.0608588809,
				"y": -2.0944692878,
				"z": 4.6542930693,
				"element": "C" 
			},
			{
				"x": 3.5827429806,
				"y": -2.7279709244,
				"z": 3.5077826969,
				"element": "C" 
			},
			{
				"x": 2.9914935943,
				"y": -1.9941635913,
				"z": 2.4776663712,
				"element": "C" 
			},
			{
				"x": 0.814090692,
				"y": -0.6160433324,
				"z": -0.158966393,
				"element": "C" 
			},
			{
				"x": -0.0790580292,
				"y": -1.3156220432,
				"z": 0.6674765715,
				"element": "C" 
			},
			{
				"x": -1.3618291597,
				"y": -1.6038530806,
				"z": 0.2210779521,
				"element": "C" 
			},
			{
				"x": -1.8010788592,
				"y": -1.153227795,
				"z": -1.0327365094,
				"element": "C" 
			},
			{
				"x": -0.9117640193,
				"y": -0.4522538237,
				"z": -1.8581448722,
				"element": "C" 
			},
			{
				"x": 0.3817946169,
				"y": -0.1813864137,
				"z": -1.419603076,
				"element": "C" 
			},
			{
				"x": -3.0888779545,
				"y": -1.6135247624,
				"z": -1.4606869998,
				"element": "N" 
			},
			{
				"x": -3.9219852474,
				"y": -0.908640499,
				"z": -2.0698900451,
				"element": "N" 
			},
			{
				"x": -3.7983310454,
				"y": 0.5097240234,
				"z": -2.2442044268,
				"element": "C" 
			},
			{
				"x": -3.5466770036,
				"y": 1.3882747013,
				"z": -1.179444216,
				"element": "C" 
			},
			{
				"x": -3.5983453551,
				"y": 2.7640096788,
				"z": -1.3950871407,
				"element": "C" 
			},
			{
				"x": -3.8808719591,
				"y": 3.2721276308,
				"z": -2.6659796739,
				"element": "C" 
			},
			{
				"x": -4.1453822979,
				"y": 2.3950687801,
				"z": -3.7211975261,
				"element": "C" 
			},
			{
				"x": -4.1338516744,
				"y": 1.0183991074,
				"z": -3.5064120726,
				"element": "C" 
			},
			{
				"x": 2.5512115468,
				"y": -1.7604118971,
				"z": -1.885346718,
				"element": "H" 
			},
			{
				"x": 3.3116708475,
				"y": -0.3263105736,
				"z": -2.6100858155,
				"element": "H" 
			},
			{
				"x": 4.320325312,
				"y": -1.5220262382,
				"z": -1.8052825625,
				"element": "H" 
			},
			{
				"x": 2.5965564265,
				"y": 1.1228459951,
				"z": 1.57104515,
				"element": "H" 
			},
			{
				"x": 3.2697946952,
				"y": 1.1164126061,
				"z": 3.8308294716,
				"element": "H" 
			},
			{
				"x": 4.3170034804,
				"y": -0.1938581412,
				"z": 5.6439009258,
				"element": "H" 
			},
			{
				"x": 4.5207224477,
				"y": -2.6707077784,
				"z": 5.4509726298,
				"element": "H" 
			},
			{
				"x": 3.670644803,
				"y": -3.8060534048,
				"z": 3.4052002684,
				"element": "H" 
			},
			{
				"x": 2.6326839265,
				"y": -2.4971552568,
				"z": 1.5862696995,
				"element": "H" 
			},
			{
				"x": 0.2455670592,
				"y": -1.6421022023,
				"z": 1.6487917165,
				"element": "H" 
			},
			{
				"x": -2.0443321163,
				"y": -2.1818723937,
				"z": 0.8362931971,
				"element": "H" 
			},
			{
				"x": -1.2301285829,
				"y": -0.1100898713,
				"z": -2.8362840902,
				"element": "H" 
			},
			{
				"x": 1.047624456,
				"y": 0.3928250141,
				"z": -2.0541805134,
				"element": "H" 
			},
			{
				"x": -3.3290663574,
				"y": 0.9943351098,
				"z": -0.1926424322,
				"element": "H" 
			},
			{
				"x": -3.4150704657,
				"y": 3.4423227393,
				"z": -0.5667523981,
				"element": "H" 
			},
			{
				"x": -3.911700074,
				"y": 4.3453293486,
				"z": -2.8283483114,
				"element": "H" 
			},
			{
				"x": -4.3822227089,
				"y": 2.7841054853,
				"z": -4.707185285,
				"element": "H" 
			},
			{
				"x": -4.376315383,
				"y": 0.322148237,
				"z": -4.3033306467,
				"element": "H" 
			}
		],
		 "valence_orbital": [ 
			{
				"type": "occ",
				"energy": -0.25939,
				"method": "rhf"
			},
			{
				"type": "occ",
				"energy": -0.2489,
				"method": "rhf"
			},
			{
				"type": "occ",
				"energy": -0.24461,
				"method": "rhf"
			},
			{
				"type": "occ",
				"energy": -0.21539,
				"method": "rhf"
			},
			{
				"type": "occ",
				"energy": -0.21052,
				"method": "rhf"
			},
			{
				"type": "unocc",
				"energy": -0.07785,
				"method": "rhf"
			},
			{
				"type": "unocc",
				"energy": -0.02271,
				"method": "rhf"
			},
			{
				"type": "unocc",
				"energy": -0.01938,
				"method": "rhf"
			},
			{
				"type": "unocc",
				"energy": -0.00908,
				"method": "rhf"
			},
			{
				"type": "unocc",
				"energy": -0.00131,
				"method": "rhf"
			}
		],
		"cosmo_sigma_profile": { 
			"-0.025": 0.0,
			"-0.024": 0.0,
			"-0.023": 0.0,
			"-0.022": 0.0,
			"-0.021": 0.0,
			"-0.02": 0.0,
			"-0.019": 0.0,
			"-0.018": 0.0,
			"-0.017": 0.0,
			"-0.016": 0.0,
			"-0.015": 0.0,
			"-0.014": 0.0,
			"-0.013": 0.304004955501,
			"-0.012": 0.864705484483,
			"-0.011": 1.03400806915,
			"-0.01": 1.56497615766,
			"-0.009": 1.17216081011,
			"-0.008": 3.65297311762,
			"-0.007": 8.40047560403,
			"-0.006": 25.1823042644,
			"-0.005": 32.5935444275,
			"-0.004": 37.245047104,
			"-0.003": 34.7085843897,
			"-0.002": 28.6578821908,
			"-0.001": 23.8463112278,
			"0.0": 19.3309714352,
			"0.001": 19.4597637355,
			"0.002": 23.5897725046,
			"0.003": 28.3810230403,
			"0.004": 24.2854134856,
			"0.005": 16.433748813,
			"0.006": 13.0621926339,
			"0.007": 6.40834144965,
			"0.008": 4.40994165166,
			"0.009": 3.97587681333,
			"0.01": 4.75414577543,
			"0.011": 4.11918976131,
			"0.012": 6.35266128442,
			"0.013": 5.18978775587,
			"0.014": 1.62865959255,
			"0.015": 0.010799319904,
			"0.016": 0.0,
			"0.017": 0.0,
			"0.018": 0.0,
			"0.019": 0.0,
			"0.02": 0.0,
			"0.021": 0.0,
			"0.022": 0.0,
			"0.023": 0.0,
			"0.024": 0.0,
			"0.025": 0.0
		}
	}
}
