{
	 "smiles": "CC(=O)NCC1=CC=CC=C1", 
	 "Tm": 334.15, 
	 "num_atms": 22, 
	 "gaussian": { 
		 "optdone": 1, 
		 "sigma_profile": "yes", 
		 "theory": "DFT", 
		 "functional": "B3LYP", 
		 "basiset": "6-31G**", 
		 "properties": { 
			 "R2extent": 2333.7492, 
			 "electric_dipole_moment_norm": 3.3632086257, 
			 "electric_quadrupole_moment_norm": 7.77262792433, 
			 "total_energy": -479.584606631, 
			 "HOMO_LUMO_gap": 0.23359, 
			 "cosmo_polarized_energy": -12.12, 
			 "cosmo_cavitation_energy": 25.68, 
			 "cosmo_dispersion_energy": -18.56, 
			 "cosmo_repulsion_energy": 1.51, 
			 "cosmo_total_nonelectrostatic_energy": 8.64, 
			 "SMD_solvation_energy": 4.6 
		},
		"coords": [
			{
				"x": -1.5759502744,
				"y": -2.5811494061,
				"z": -0.7651079241,
				"element": "C" 
			},
			{
				"x": -1.3716896817,
				"y": -1.075385345,
				"z": -0.8404444773,
				"element": "C" 
			},
			{
				"x": -2.1626317023,
				"y": -0.2895811258,
				"z": -0.3295017924,
				"element": "O" 
			},
			{
				"x": -0.2573493993,
				"y": -0.6672354183,
				"z": -1.5227658354,
				"element": "N" 
			},
			{
				"x": 0.1222992242,
				"y": 0.7410667994,
				"z": -1.6140713082,
				"element": "C" 
			},
			{
				"x": 1.165123516,
				"y": 1.1587393247,
				"z": -0.5934940162,
				"element": "C" 
			},
			{
				"x": 0.8279341898,
				"y": 1.2314268028,
				"z": 0.766779205,
				"element": "C" 
			},
			{
				"x": 1.7839417124,
				"y": 1.6005698456,
				"z": 1.7116012015,
				"element": "C" 
			},
			{
				"x": 3.0889192096,
				"y": 1.9044045574,
				"z": 1.3118127907,
				"element": "C" 
			},
			{
				"x": 3.4315133614,
				"y": 1.8380621654,
				"z": -0.0385452159,
				"element": "C" 
			},
			{
				"x": 2.4724855807,
				"y": 1.466031822,
				"z": -0.9843849992,
				"element": "C" 
			},
			{
				"x": -2.5842354047,
				"y": -2.8135665915,
				"z": -1.1165837932,
				"element": "H" 
			},
			{
				"x": -0.8520425094,
				"y": -3.1565133291,
				"z": -1.3489010245,
				"element": "H" 
			},
			{
				"x": -1.5161703117,
				"y": -2.8928672372,
				"z": 0.2818080466,
				"element": "H" 
			},
			{
				"x": 0.4226071798,
				"y": -1.3601876167,
				"z": -1.7980899694,
				"element": "H" 
			},
			{
				"x": -0.8019323613,
				"y": 1.3055229397,
				"z": -1.4681469588,
				"element": "H" 
			},
			{
				"x": 0.4869963729,
				"y": 0.9396363585,
				"z": -2.6276974624,
				"element": "H" 
			},
			{
				"x": -0.1890947486,
				"y": 1.0001506639,
				"z": 1.0713336552,
				"element": "H" 
			},
			{
				"x": 1.5105026899,
				"y": 1.6575800056,
				"z": 2.7616078065,
				"element": "H" 
			},
			{
				"x": 3.8317260497,
				"y": 2.1946471151,
				"z": 2.0494686105,
				"element": "H" 
			},
			{
				"x": 4.4425055959,
				"y": 2.0758610731,
				"z": -0.3576207504,
				"element": "H" 
			},
			{
				"x": 2.742641711,
				"y": 1.4190865964,
				"z": -2.0372557887,
				"element": "H" 
			}
		],
		 "valence_orbital": [ 
			{
				"type": "occ",
				"energy": -0.33612,
				"method": "rhf"
			},
			{
				"type": "occ",
				"energy": -0.26007,
				"method": "rhf"
			},
			{
				"type": "occ",
				"energy": -0.24947,
				"method": "rhf"
			},
			{
				"type": "occ",
				"energy": -0.2438,
				"method": "rhf"
			},
			{
				"type": "occ",
				"energy": -0.2386,
				"method": "rhf"
			},
			{
				"type": "unocc",
				"energy": -0.00501,
				"method": "rhf"
			},
			{
				"type": "unocc",
				"energy": 0.00051,
				"method": "rhf"
			},
			{
				"type": "unocc",
				"energy": 0.0324,
				"method": "rhf"
			},
			{
				"type": "unocc",
				"energy": 0.07597,
				"method": "rhf"
			},
			{
				"type": "unocc",
				"energy": 0.09777,
				"method": "rhf"
			}
		],
		"cosmo_sigma_profile": { 
			"-0.025": 0.0,
			"-0.024": 0.0,
			"-0.023": 0.0,
			"-0.022": 0.0,
			"-0.021": 0.0,
			"-0.02": 0.0,
			"-0.019": 0.0,
			"-0.018": 0.0,
			"-0.017": 0.0,
			"-0.016": 0.0,
			"-0.015": 0.0,
			"-0.014": 0.732664121684,
			"-0.013": 1.59003472324,
			"-0.012": 1.01353288338,
			"-0.011": 1.10964305613,
			"-0.01": 1.66666563732,
			"-0.009": 1.40624590292,
			"-0.008": 1.77103317084,
			"-0.007": 1.41032665364,
			"-0.006": 7.37225051834,
			"-0.005": 18.2494673351,
			"-0.004": 17.9178001686,
			"-0.003": 20.1178848487,
			"-0.002": 17.4172852999,
			"-0.001": 18.8049219731,
			"0.0": 12.2066667361,
			"0.001": 11.4502796127,
			"0.002": 9.52804114495,
			"0.003": 10.1064887007,
			"0.004": 10.7536996676,
			"0.005": 10.4048833011,
			"0.006": 9.91556986893,
			"0.007": 2.46442797573,
			"0.008": 1.96343154672,
			"0.009": 1.08069535842,
			"0.01": 1.05617994788,
			"0.011": 1.20302017851,
			"0.012": 1.87794608145,
			"0.013": 2.11843543511,
			"0.014": 4.38790293443,
			"0.015": 2.06958870057,
			"0.016": 0.252625430223,
			"0.017": 0.0,
			"0.018": 0.0,
			"0.019": 0.0,
			"0.02": 0.0,
			"0.021": 0.0,
			"0.022": 0.0,
			"0.023": 0.0,
			"0.024": 0.0,
			"0.025": 0.0
		}
	}
}
