{
	 "smiles": "CCCC=CC(O)=O", 
	 "Tm": 307.95, 
	 "num_atms": 18, 
	 "gaussian": { 
		 "optdone": 1, 
		 "sigma_profile": "yes", 
		 "theory": "DFT", 
		 "functional": "B3LYP", 
		 "basiset": "6-31G**", 
		 "properties": { 
			 "R2extent": 2102.144, 
			 "electric_dipole_moment_norm": 5.28705569197, 
			 "electric_quadrupole_moment_norm": 20.2227768951, 
			 "total_energy": -385.109382635, 
			 "HOMO_LUMO_gap": 0.21937, 
			 "cosmo_polarized_energy": -13.61, 
			 "cosmo_cavitation_energy": 21.97, 
			 "cosmo_dispersion_energy": -15.9, 
			 "cosmo_repulsion_energy": 1.37, 
			 "cosmo_total_nonelectrostatic_energy": 7.44, 
			 "SMD_solvation_energy": 5.14 
		},
		"coords": [
			{
				"x": -2.4307797447,
				"y": -0.7285415162,
				"z": -1.8689361392,
				"element": "C" 
			},
			{
				"x": -0.961232803,
				"y": -0.4369168803,
				"z": -1.5519718909,
				"element": "C" 
			},
			{
				"x": -0.7915896724,
				"y": 0.5108366633,
				"z": -0.3471464574,
				"element": "C" 
			},
			{
				"x": 0.6463369548,
				"y": 0.7638604586,
				"z": -0.0008567812,
				"element": "C" 
			},
			{
				"x": 1.2499756278,
				"y": 1.9595868156,
				"z": -0.029804526,
				"element": "C" 
			},
			{
				"x": 2.6935491552,
				"y": 2.2081897795,
				"z": 0.2366586749,
				"element": "C" 
			},
			{
				"x": 3.3647259499,
				"y": 1.2778827232,
				"z": 0.9730586439,
				"element": "O" 
			},
			{
				"x": 3.2730490395,
				"y": 3.1826973779,
				"z": -0.1823324501,
				"element": "O" 
			},
			{
				"x": -2.9758780408,
				"y": 0.191963313,
				"z": -2.1056190696,
				"element": "H" 
			},
			{
				"x": -2.9342549667,
				"y": -1.2028618394,
				"z": -1.0189327007,
				"element": "H" 
			},
			{
				"x": -2.52367488,
				"y": -1.3998825947,
				"z": -2.7281948402,
				"element": "H" 
			},
			{
				"x": -0.4330486636,
				"y": -1.377926253,
				"z": -1.349032072,
				"element": "H" 
			},
			{
				"x": -0.4707866893,
				"y": 0.0076128937,
				"z": -2.4263318318,
				"element": "H" 
			},
			{
				"x": -1.2981872055,
				"y": 1.4624551041,
				"z": -0.546817672,
				"element": "H" 
			},
			{
				"x": -1.2936159292,
				"y": 0.0622690786,
				"z": 0.5232113007,
				"element": "H" 
			},
			{
				"x": 1.2273060692,
				"y": -0.1272437803,
				"z": 0.2499221677,
				"element": "H" 
			},
			{
				"x": 0.7068526621,
				"y": 2.8474300524,
				"z": -0.3423508081,
				"element": "H" 
			},
			{
				"x": 2.736553137,
				"y": 0.658288604,
				"z": 1.3690764519,
				"element": "H" 
			}
		],
		 "valence_orbital": [ 
			{
				"type": "occ",
				"energy": -0.35781,
				"method": "rhf"
			},
			{
				"type": "occ",
				"energy": -0.34592,
				"method": "rhf"
			},
			{
				"type": "occ",
				"energy": -0.31361,
				"method": "rhf"
			},
			{
				"type": "occ",
				"energy": -0.28246,
				"method": "rhf"
			},
			{
				"type": "occ",
				"energy": -0.26546,
				"method": "rhf"
			},
			{
				"type": "unocc",
				"energy": -0.04609,
				"method": "rhf"
			},
			{
				"type": "unocc",
				"energy": 0.05976,
				"method": "rhf"
			},
			{
				"type": "unocc",
				"energy": 0.07491,
				"method": "rhf"
			},
			{
				"type": "unocc",
				"energy": 0.08357,
				"method": "rhf"
			},
			{
				"type": "unocc",
				"energy": 0.10653,
				"method": "rhf"
			}
		],
		"cosmo_sigma_profile": { 
			"-0.025": 0.0,
			"-0.024": 0.0,
			"-0.023": 0.0,
			"-0.022": 0.0,
			"-0.021": 0.0,
			"-0.02": 0.0,
			"-0.019": 0.00620956498405,
			"-0.018": 0.597615157733,
			"-0.017": 0.863567953199,
			"-0.016": 1.12978504303,
			"-0.015": 0.855821481613,
			"-0.014": 1.10988059469,
			"-0.013": 0.560802784471,
			"-0.012": 1.19104113495,
			"-0.011": 1.39007077685,
			"-0.01": 1.13141618399,
			"-0.009": 1.24637797744,
			"-0.008": 1.12603613786,
			"-0.007": 2.07388557737,
			"-0.006": 4.39573061211,
			"-0.005": 5.74074699492,
			"-0.004": 10.1110392999,
			"-0.003": 18.3323652617,
			"-0.002": 20.7510329504,
			"-0.001": 20.8187502993,
			"0.0": 18.8547119536,
			"0.001": 15.1324799329,
			"0.002": 7.36487976696,
			"0.003": 3.34912557021,
			"0.004": 2.3029964197,
			"0.005": 1.74435054535,
			"0.006": 1.90091402621,
			"0.007": 2.23357824245,
			"0.008": 2.87355164654,
			"0.009": 2.8488921098,
			"0.01": 4.10461914747,
			"0.011": 5.63626753479,
			"0.012": 5.85801651117,
			"0.013": 3.82466593303,
			"0.014": 0.590485393256,
			"0.015": 0.0,
			"0.016": 0.0,
			"0.017": 0.0,
			"0.018": 0.0,
			"0.019": 0.0,
			"0.02": 0.0,
			"0.021": 0.0,
			"0.022": 0.0,
			"0.023": 0.0,
			"0.024": 0.0,
			"0.025": 0.0
		}
	}
}
