{
	 "smiles": "CC1=C2NC=C(CC#N)C2=CC=C1", 
	 "Tm": 383.15, 
	 "num_atms": 23, 
	 "gaussian": { 
		 "optdone": 1, 
		 "sigma_profile": "yes", 
		 "theory": "DFT", 
		 "functional": "B3LYP", 
		 "basiset": "6-31G**", 
		 "properties": { 
			 "R2extent": 2522.3372, 
			 "electric_dipole_moment_norm": 5.55217627782, 
			 "electric_quadrupole_moment_norm": 18.1625446133, 
			 "total_energy": -534.694994981, 
			 "HOMO_LUMO_gap": 0.19468, 
			 "cosmo_polarized_energy": -15.38, 
			 "cosmo_cavitation_energy": 27.72, 
			 "cosmo_dispersion_energy": -19.45, 
			 "cosmo_repulsion_energy": 1.54, 
			 "cosmo_total_nonelectrostatic_energy": 9.81, 
			 "SMD_solvation_energy": 5.92 
		},
		"coords": [
			{
				"x": -0.1351591442,
				"y": 3.6955241836,
				"z": 0.9982555653,
				"element": "C" 
			},
			{
				"x": -0.670722718,
				"y": 2.2968383528,
				"z": 0.8257613047,
				"element": "C" 
			},
			{
				"x": 0.1886118655,
				"y": 1.204199576,
				"z": 0.6204004239,
				"element": "C" 
			},
			{
				"x": 1.5690627826,
				"y": 1.1736454334,
				"z": 0.5431742226,
				"element": "N" 
			},
			{
				"x": 1.9852749604,
				"y": -0.1250408903,
				"z": 0.3340469583,
				"element": "C" 
			},
			{
				"x": 0.8943149934,
				"y": -0.9551394297,
				"z": 0.2751954892,
				"element": "C" 
			},
			{
				"x": 0.9273194512,
				"y": -2.4487450446,
				"z": 0.0834017396,
				"element": "C" 
			},
			{
				"x": 0.3539769705,
				"y": -2.8927416236,
				"z": -1.1979693442,
				"element": "C" 
			},
			{
				"x": -0.1021242564,
				"y": -3.2429424532,
				"z": -2.2061688805,
				"element": "N" 
			},
			{
				"x": -0.2724530639,
				"y": -0.1277001195,
				"z": 0.4523547885,
				"element": "C" 
			},
			{
				"x": -1.6556636349,
				"y": -0.3809365097,
				"z": 0.4865132209,
				"element": "C" 
			},
			{
				"x": -2.5181059118,
				"y": 0.6864890685,
				"z": 0.6896801994,
				"element": "C" 
			},
			{
				"x": -2.0309234467,
				"y": 1.999810286,
				"z": 0.8565980943,
				"element": "C" 
			},
			{
				"x": 0.5360873573,
				"y": 3.7699249822,
				"z": 1.8639446157,
				"element": "H" 
			},
			{
				"x": -0.9473430643,
				"y": 4.4107608214,
				"z": 1.150088341,
				"element": "H" 
			},
			{
				"x": 0.4331075137,
				"y": 4.0238355201,
				"z": 0.1181347436,
				"element": "H" 
			},
			{
				"x": 2.1772749299,
				"y": 1.9714494891,
				"z": 0.6228634006,
				"element": "H" 
			},
			{
				"x": 3.0365315292,
				"y": -0.3613182282,
				"z": 0.2444095585,
				"element": "H" 
			},
			{
				"x": 1.9590342174,
				"y": -2.8145831285,
				"z": 0.1353411868,
				"element": "H" 
			},
			{
				"x": 0.3770707893,
				"y": -2.9584009403,
				"z": 0.8856961257,
				"element": "H" 
			},
			{
				"x": -2.0413933619,
				"y": -1.3864708517,
				"z": 0.3463993121,
				"element": "H" 
			},
			{
				"x": -3.5899986086,
				"y": 0.5145996229,
				"z": 0.7173904993,
				"element": "H" 
			},
			{
				"x": -2.7384801494,
				"y": 2.8103418833,
				"z": 1.0118884346,
				"element": "H" 
			}
		],
		 "valence_orbital": [ 
			{
				"type": "occ",
				"energy": -0.31673,
				"method": "rhf"
			},
			{
				"type": "occ",
				"energy": -0.3153,
				"method": "rhf"
			},
			{
				"type": "occ",
				"energy": -0.27206,
				"method": "rhf"
			},
			{
				"type": "occ",
				"energy": -0.22467,
				"method": "rhf"
			},
			{
				"type": "occ",
				"energy": -0.20829,
				"method": "rhf"
			},
			{
				"type": "unocc",
				"energy": -0.01361,
				"method": "rhf"
			},
			{
				"type": "unocc",
				"energy": 0.02196,
				"method": "rhf"
			},
			{
				"type": "unocc",
				"energy": 0.03763,
				"method": "rhf"
			},
			{
				"type": "unocc",
				"energy": 0.04688,
				"method": "rhf"
			},
			{
				"type": "unocc",
				"energy": 0.06267,
				"method": "rhf"
			}
		],
		"cosmo_sigma_profile": { 
			"-0.025": 0.0,
			"-0.024": 0.0,
			"-0.023": 0.0,
			"-0.022": 0.0,
			"-0.021": 0.0,
			"-0.02": 0.0,
			"-0.019": 0.0,
			"-0.018": 0.0,
			"-0.017": 0.0,
			"-0.016": 0.164560377318,
			"-0.015": 0.935641722202,
			"-0.014": 1.32819069589,
			"-0.013": 1.10126754879,
			"-0.012": 1.29905882489,
			"-0.011": 0.768532672062,
			"-0.01": 1.20507670441,
			"-0.009": 3.76399732941,
			"-0.008": 9.251872371,
			"-0.007": 8.12999912502,
			"-0.006": 8.35261906048,
			"-0.005": 13.8314420612,
			"-0.004": 16.4838769784,
			"-0.003": 14.9627751292,
			"-0.002": 14.8792546396,
			"-0.001": 11.9622755973,
			"0.0": 13.9730529459,
			"0.001": 11.5689996433,
			"0.002": 9.3822526352,
			"0.003": 10.7465822167,
			"0.004": 14.1153644822,
			"0.005": 14.3892604541,
			"0.006": 10.5995677222,
			"0.007": 9.38424001324,
			"0.008": 3.60697339108,
			"0.009": 3.9615987828,
			"0.01": 3.09744272949,
			"0.011": 3.17812840844,
			"0.012": 2.60540194743,
			"0.013": 2.15452421488,
			"0.014": 0.59928380997,
			"0.015": 0.0,
			"0.016": 0.0,
			"0.017": 0.0,
			"0.018": 0.0,
			"0.019": 0.0,
			"0.02": 0.0,
			"0.021": 0.0,
			"0.022": 0.0,
			"0.023": 0.0,
			"0.024": 0.0,
			"0.025": 0.0
		}
	}
}
