{
	 "smiles": "CCCCCCCCCCCCCCCCCCCC1=CC=CC=C1", 
	 "Tm": 313.15, 
	 "num_atms": 69, 
	 "gaussian": { 
		 "optdone": 1, 
		 "sigma_profile": "yes", 
		 "theory": "DFT", 
		 "functional": "B3LYP", 
		 "basiset": "6-31G**", 
		 "properties": { 
			 "R2extent": 21403.1243, 
			 "electric_dipole_moment_norm": 0.368405455986, 
			 "electric_quadrupole_moment_norm": 4.97591079, 
			 "total_energy": -979.242548243, 
			 "HOMO_LUMO_gap": 0.23718, 
			 "cosmo_polarized_energy": -3.82, 
			 "cosmo_cavitation_energy": 66.34, 
			 "cosmo_dispersion_energy": -42.56, 
			 "cosmo_repulsion_energy": 3.35, 
			 "cosmo_total_nonelectrostatic_energy": 27.13, 
			 "SMD_solvation_energy": 8.24 
		},
		"coords": [
			{
				"x": 5.9843611693,
				"y": 7.1359941189,
				"z": -2.9344549742,
				"element": "C" 
			},
			{
				"x": 5.4606151463,
				"y": 6.7529008061,
				"z": -1.545215011,
				"element": "C" 
			},
			{
				"x": 3.927409459,
				"y": 6.7779224211,
				"z": -1.415372421,
				"element": "C" 
			},
			{
				"x": 3.1622847615,
				"y": 5.7942077299,
				"z": -2.3208066033,
				"element": "C" 
			},
			{
				"x": 3.4798471858,
				"y": 4.3029266912,
				"z": -2.1120499367,
				"element": "C" 
			},
			{
				"x": 3.123615103,
				"y": 3.7584446491,
				"z": -0.7217080114,
				"element": "C" 
			},
			{
				"x": 3.368412056,
				"y": 2.2500260523,
				"z": -0.57981143,
				"element": "C" 
			},
			{
				"x": 3.0068569369,
				"y": 1.7054235657,
				"z": 0.8090855925,
				"element": "C" 
			},
			{
				"x": 3.3274777268,
				"y": 0.2153755496,
				"z": 1.0209491158,
				"element": "C" 
			},
			{
				"x": 2.5785073625,
				"y": -0.7707415534,
				"z": 0.1042256735,
				"element": "C" 
			},
			{
				"x": 1.0428069456,
				"y": -0.742105405,
				"z": 0.1971268962,
				"element": "C" 
			},
			{
				"x": 0.4742725266,
				"y": -1.1185859071,
				"z": 1.572630626,
				"element": "C" 
			},
			{
				"x": -1.0595752993,
				"y": -1.1773919283,
				"z": 1.5936976133,
				"element": "C" 
			},
			{
				"x": -1.6285029912,
				"y": -1.5726199577,
				"z": 2.9633143531,
				"element": "C" 
			},
			{
				"x": -3.1611133188,
				"y": -1.5277584276,
				"z": 3.1061971015,
				"element": "C" 
			},
			{
				"x": -3.9613481123,
				"y": -2.5242575026,
				"z": 2.237674257,
				"element": "C" 
			},
			{
				"x": -4.3672929683,
				"y": -2.0012025103,
				"z": 0.8497028382,
				"element": "C" 
			},
			{
				"x": -5.2577490247,
				"y": -2.9614767222,
				"z": 0.0446581938,
				"element": "C" 
			},
			{
				"x": -4.5851628563,
				"y": -4.2812883156,
				"z": -0.3985976542,
				"element": "C" 
			},
			{
				"x": -3.3955068124,
				"y": -4.0960436062,
				"z": -1.3198519016,
				"element": "C" 
			},
			{
				"x": -2.0939377239,
				"y": -4.3958702217,
				"z": -0.8964527445,
				"element": "C" 
			},
			{
				"x": -0.9985562913,
				"y": -4.2169520834,
				"z": -1.7458150751,
				"element": "C" 
			},
			{
				"x": -1.1884734696,
				"y": -3.7320720896,
				"z": -3.040138749,
				"element": "C" 
			},
			{
				"x": -2.4809445425,
				"y": -3.4326168444,
				"z": -3.4783522456,
				"element": "C" 
			},
			{
				"x": -3.5700233732,
				"y": -3.6146285798,
				"z": -2.6266226262,
				"element": "C" 
			},
			{
				"x": 7.0790082288,
				"y": 7.1634209812,
				"z": -2.9496327167,
				"element": "H" 
			},
			{
				"x": 5.6645957556,
				"y": 6.4243959856,
				"z": -3.7028049952,
				"element": "H" 
			},
			{
				"x": 5.6233221809,
				"y": 8.1274237025,
				"z": -3.2327056888,
				"element": "H" 
			},
			{
				"x": 5.8795908441,
				"y": 7.4448912148,
				"z": -0.8033048355,
				"element": "H" 
			},
			{
				"x": 5.8417779017,
				"y": 5.7599806132,
				"z": -1.2733428753,
				"element": "H" 
			},
			{
				"x": 3.5734429944,
				"y": 7.7943973734,
				"z": -1.6366803908,
				"element": "H" 
			},
			{
				"x": 3.6598064972,
				"y": 6.591712266,
				"z": -0.3675272524,
				"element": "H" 
			},
			{
				"x": 2.0858485676,
				"y": 5.9496969425,
				"z": -2.1649763056,
				"element": "H" 
			},
			{
				"x": 3.3489508274,
				"y": 6.0488378057,
				"z": -3.3718570192,
				"element": "H" 
			},
			{
				"x": 4.5436406664,
				"y": 4.1149945796,
				"z": -2.3119304241,
				"element": "H" 
			},
			{
				"x": 2.9304426571,
				"y": 3.7249030538,
				"z": -2.8677399385,
				"element": "H" 
			},
			{
				"x": 2.0666670634,
				"y": 3.9759896964,
				"z": -0.5088307248,
				"element": "H" 
			},
			{
				"x": 3.7015883557,
				"y": 4.287126589,
				"z": 0.0480800245,
				"element": "H" 
			},
			{
				"x": 2.7928714502,
				"y": 1.7213954937,
				"z": -1.3513815112,
				"element": "H" 
			},
			{
				"x": 4.4261210689,
				"y": 2.0327139895,
				"z": -0.789333239,
				"element": "H" 
			},
			{
				"x": 1.9413327583,
				"y": 1.8897663104,
				"z": 1.002621858,
				"element": "H" 
			},
			{
				"x": 3.5501445129,
				"y": 2.2857527552,
				"z": 1.5675068702,
				"element": "H" 
			},
			{
				"x": 4.4065896013,
				"y": 0.064135275,
				"z": 0.8794142924,
				"element": "H" 
			},
			{
				"x": 3.1273289363,
				"y": -0.0402256034,
				"z": 2.0692062006,
				"element": "H" 
			},
			{
				"x": 2.8701254483,
				"y": -0.5898599484,
				"z": -0.9381904623,
				"element": "H" 
			},
			{
				"x": 2.9265017341,
				"y": -1.7866457551,
				"z": 0.3374370106,
				"element": "H" 
			},
			{
				"x": 0.637863568,
				"y": -1.4358795209,
				"z": -0.5519552279,
				"element": "H" 
			},
			{
				"x": 0.6693285971,
				"y": 0.2510506207,
				"z": -0.087742689,
				"element": "H" 
			},
			{
				"x": 0.8788296192,
				"y": -2.0958427443,
				"z": 1.8753439851,
				"element": "H" 
			},
			{
				"x": 0.8166648637,
				"y": -0.402209609,
				"z": 2.3315642668,
				"element": "H" 
			},
			{
				"x": -1.3937928913,
				"y": -1.8886741858,
				"z": 0.8287327881,
				"element": "H" 
			},
			{
				"x": -1.4636085074,
				"y": -0.1977528388,
				"z": 1.2997771403,
				"element": "H" 
			},
			{
				"x": -1.2787273839,
				"y": -2.5839488227,
				"z": 3.2176600609,
				"element": "H" 
			},
			{
				"x": -1.1969238093,
				"y": -0.9083248809,
				"z": 3.7253461978,
				"element": "H" 
			},
			{
				"x": -3.3945628883,
				"y": -1.7229235737,
				"z": 4.1605804342,
				"element": "H" 
			},
			{
				"x": -3.5168507358,
				"y": -0.5065506565,
				"z": 2.9076741655,
				"element": "H" 
			},
			{
				"x": -4.88100001,
				"y": -2.797966175,
				"z": 2.7731556349,
				"element": "H" 
			},
			{
				"x": -3.3860823184,
				"y": -3.4551246332,
				"z": 2.1417434409,
				"element": "H" 
			},
			{
				"x": -3.479909808,
				"y": -1.7525177015,
				"z": 0.258066647,
				"element": "H" 
			},
			{
				"x": -4.9146066869,
				"y": -1.058394003,
				"z": 0.9848514533,
				"element": "H" 
			},
			{
				"x": -5.6212314058,
				"y": -2.4382595346,
				"z": -0.8490151492,
				"element": "H" 
			},
			{
				"x": -6.1499219775,
				"y": -3.2116701928,
				"z": 0.6351423255,
				"element": "H" 
			},
			{
				"x": -5.3419203355,
				"y": -4.8932817171,
				"z": -0.9065441395,
				"element": "H" 
			},
			{
				"x": -4.2744521881,
				"y": -4.8534308771,
				"z": 0.4826712015,
				"element": "H" 
			},
			{
				"x": -1.9371140803,
				"y": -4.7819749029,
				"z": 0.1079209099,
				"element": "H" 
			},
			{
				"x": 0.0006673409,
				"y": -4.4621802478,
				"z": -1.3963497312,
				"element": "H" 
			},
			{
				"x": -0.339696162,
				"y": -3.5941478677,
				"z": -3.7037776762,
				"element": "H" 
			},
			{
				"x": -2.6408197737,
				"y": -3.0616354071,
				"z": -4.4871129994,
				"element": "H" 
			},
			{
				"x": -4.5722106727,
				"y": -3.385673778,
				"z": -2.9819737934,
				"element": "H" 
			}
		],
		 "valence_orbital": [ 
			{
				"type": "occ",
				"energy": -0.29763,
				"method": "rhf"
			},
			{
				"type": "occ",
				"energy": -0.29195,
				"method": "rhf"
			},
			{
				"type": "occ",
				"energy": -0.28854,
				"method": "rhf"
			},
			{
				"type": "occ",
				"energy": -0.24586,
				"method": "rhf"
			},
			{
				"type": "occ",
				"energy": -0.23719,
				"method": "rhf"
			},
			{
				"type": "unocc",
				"energy": -1e-05,
				"method": "rhf"
			},
			{
				"type": "unocc",
				"energy": 0.00346,
				"method": "rhf"
			},
			{
				"type": "unocc",
				"energy": 0.07567,
				"method": "rhf"
			},
			{
				"type": "unocc",
				"energy": 0.07962,
				"method": "rhf"
			},
			{
				"type": "unocc",
				"energy": 0.08561,
				"method": "rhf"
			}
		],
		"cosmo_sigma_profile": { 
			"-0.025": 0.0,
			"-0.024": 0.0,
			"-0.023": 0.0,
			"-0.022": 0.0,
			"-0.021": 0.0,
			"-0.02": 0.0,
			"-0.019": 0.0,
			"-0.018": 0.0,
			"-0.017": 0.0,
			"-0.016": 0.0,
			"-0.015": 0.0,
			"-0.014": 0.0,
			"-0.013": 0.0,
			"-0.012": 0.0,
			"-0.011": 0.0,
			"-0.01": 0.0,
			"-0.009": 0.0,
			"-0.008": 0.0,
			"-0.007": 0.0,
			"-0.006": 0.647791000913,
			"-0.005": 7.84354177585,
			"-0.004": 12.6899413103,
			"-0.003": 20.0242494238,
			"-0.002": 50.5114108899,
			"-0.001": 107.503859003,
			"0.0": 118.558091893,
			"0.001": 108.307089892,
			"0.002": 49.9814145627,
			"0.003": 9.46893734659,
			"0.004": 7.28132369388,
			"0.005": 6.90961127637,
			"0.006": 7.21565114821,
			"0.007": 2.80423659546,
			"0.008": 0.0,
			"0.009": 0.0,
			"0.01": 0.0,
			"0.011": 0.0,
			"0.012": 0.0,
			"0.013": 0.0,
			"0.014": 0.0,
			"0.015": 0.0,
			"0.016": 0.0,
			"0.017": 0.0,
			"0.018": 0.0,
			"0.019": 0.0,
			"0.02": 0.0,
			"0.021": 0.0,
			"0.022": 0.0,
			"0.023": 0.0,
			"0.024": 0.0,
			"0.025": 0.0
		}
	}
}
