{
	 "smiles": "ClC1=C(Cl)C=C2OCOC2=C1", 
	 "Tm": 345.15, 
	 "num_atms": 15, 
	 "gaussian": { 
		 "optdone": 1, 
		 "sigma_profile": "yes", 
		 "theory": "DFT", 
		 "functional": "B3LYP", 
		 "basiset": "6-31G**", 
		 "properties": { 
			 "R2extent": 2818.1516, 
			 "electric_dipole_moment_norm": 3.41679564212, 
			 "electric_quadrupole_moment_norm": 4.56141738717, 
			 "total_energy": -1339.95256581, 
			 "HOMO_LUMO_gap": 0.19643, 
			 "cosmo_polarized_energy": -6.23, 
			 "cosmo_cavitation_energy": 22.87, 
			 "cosmo_dispersion_energy": -17.91, 
			 "cosmo_repulsion_energy": 1.43, 
			 "cosmo_total_nonelectrostatic_energy": 6.39, 
			 "SMD_solvation_energy": 4.14 
		},
		"coords": [
			{
				"x": 1.3027178062,
				"y": -1.6027404314,
				"z": -2.2722971494,
				"element": "Cl" 
			},
			{
				"x": 0.5857643427,
				"y": -1.2086907237,
				"z": -0.7274110736,
				"element": "C" 
			},
			{
				"x": 0.9174310804,
				"y": -1.9180026788,
				"z": 0.431791564,
				"element": "C" 
			},
			{
				"x": 2.0660694726,
				"y": -3.2353130736,
				"z": 0.395715575,
				"element": "Cl" 
			},
			{
				"x": 0.3342891169,
				"y": -1.5931335757,
				"z": 1.673058176,
				"element": "C" 
			},
			{
				"x": -0.5694111624,
				"y": -0.5531409406,
				"z": 1.6890889809,
				"element": "C" 
			},
			{
				"x": -1.2644113872,
				"y": -0.0499596914,
				"z": 2.7566498525,
				"element": "O" 
			},
			{
				"x": -2.0659891713,
				"y": 1.0220370376,
				"z": 2.2403327874,
				"element": "C" 
			},
			{
				"x": -1.8151535003,
				"y": 1.1279073774,
				"z": 0.831735292,
				"element": "O" 
			},
			{
				"x": -0.8997803593,
				"y": 0.153443938,
				"z": 0.5343743391,
				"element": "C" 
			},
			{
				"x": -0.3414322954,
				"y": -0.1479605885,
				"z": -0.688701659,
				"element": "C" 
			},
			{
				"x": 0.5929804454,
				"y": -2.1438751323,
				"z": 2.5683178531,
				"element": "H" 
			},
			{
				"x": -3.126173913,
				"y": 0.7976333393,
				"z": 2.4063522231,
				"element": "H" 
			},
			{
				"x": -1.7825921913,
				"y": 1.959563746,
				"z": 2.7329220518,
				"element": "H" 
			},
			{
				"x": -0.5960082839,
				"y": 0.3990313978,
				"z": -1.5874288128,
				"element": "H" 
			}
		],
		 "valence_orbital": [ 
			{
				"type": "occ",
				"energy": -0.32833,
				"method": "rhf"
			},
			{
				"type": "occ",
				"energy": -0.30855,
				"method": "rhf"
			},
			{
				"type": "occ",
				"energy": -0.29714,
				"method": "rhf"
			},
			{
				"type": "occ",
				"energy": -0.25955,
				"method": "rhf"
			},
			{
				"type": "occ",
				"energy": -0.21874,
				"method": "rhf"
			},
			{
				"type": "unocc",
				"energy": -0.02231,
				"method": "rhf"
			},
			{
				"type": "unocc",
				"energy": -0.01111,
				"method": "rhf"
			},
			{
				"type": "unocc",
				"energy": 0.00075,
				"method": "rhf"
			},
			{
				"type": "unocc",
				"energy": 0.05333,
				"method": "rhf"
			},
			{
				"type": "unocc",
				"energy": 0.09821,
				"method": "rhf"
			}
		],
		"cosmo_sigma_profile": { 
			"-0.025": 0.0,
			"-0.024": 0.0,
			"-0.023": 0.0,
			"-0.022": 0.0,
			"-0.021": 0.0,
			"-0.02": 0.0,
			"-0.019": 0.0,
			"-0.018": 0.0,
			"-0.017": 0.0,
			"-0.016": 0.0,
			"-0.015": 0.0,
			"-0.014": 0.0,
			"-0.013": 0.0,
			"-0.012": 0.0,
			"-0.011": 0.0,
			"-0.01": 0.0,
			"-0.009": 1.81372561027,
			"-0.008": 9.69670042564,
			"-0.007": 9.05596418469,
			"-0.006": 9.18128187497,
			"-0.005": 5.52581905528,
			"-0.004": 6.28416615096,
			"-0.003": 8.23724151861,
			"-0.002": 8.82448489338,
			"-0.001": 11.1741537539,
			"0.0": 17.1426744679,
			"0.001": 28.2417737327,
			"0.002": 19.3486108768,
			"0.003": 14.9232692123,
			"0.004": 18.7969329928,
			"0.005": 8.50152473872,
			"0.006": 4.28996187707,
			"0.007": 2.5630133862,
			"0.008": 3.02072720189,
			"0.009": 2.14792132468,
			"0.01": 0.01061243518,
			"0.011": 0.0,
			"0.012": 0.0,
			"0.013": 0.0,
			"0.014": 0.0,
			"0.015": 0.0,
			"0.016": 0.0,
			"0.017": 0.0,
			"0.018": 0.0,
			"0.019": 0.0,
			"0.02": 0.0,
			"0.021": 0.0,
			"0.022": 0.0,
			"0.023": 0.0,
			"0.024": 0.0,
			"0.025": 0.0
		}
	}
}
