{
	 "smiles": "COC1=CC=C(C(C)=O)C(O)=C1", 
	 "Tm": 323.95, 
	 "num_atms": 22, 
	 "gaussian": { 
		 "optdone": 1, 
		 "sigma_profile": "yes", 
		 "theory": "DFT", 
		 "functional": "B3LYP", 
		 "basiset": "6-31G**", 
		 "properties": { 
			 "R2extent": 2634.5939, 
			 "electric_dipole_moment_norm": 2.77139285017, 
			 "electric_quadrupole_moment_norm": 15.4571936858, 
			 "total_energy": -574.662098878, 
			 "HOMO_LUMO_gap": 0.1694, 
			 "cosmo_polarized_energy": -9.27, 
			 "cosmo_cavitation_energy": 25.52, 
			 "cosmo_dispersion_energy": -19.18, 
			 "cosmo_repulsion_energy": 1.51, 
			 "cosmo_total_nonelectrostatic_energy": 7.85, 
			 "SMD_solvation_energy": 6.11 
		},
		"coords": [
			{
				"x": -1.3427172894,
				"y": 0.2306659121,
				"z": -3.209388445,
				"element": "C" 
			},
			{
				"x": -0.5802302833,
				"y": -0.6109494725,
				"z": -2.3524192539,
				"element": "O" 
			},
			{
				"x": -0.1964867114,
				"y": -0.1299043619,
				"z": -1.1445201784,
				"element": "C" 
			},
			{
				"x": 0.5572864268,
				"y": -1.0270993671,
				"z": -0.3526685,
				"element": "C" 
			},
			{
				"x": 0.9918082482,
				"y": -0.6266405988,
				"z": 0.8915149597,
				"element": "C" 
			},
			{
				"x": 0.7072506492,
				"y": 0.6600848553,
				"z": 1.4063832807,
				"element": "C" 
			},
			{
				"x": 1.1580379246,
				"y": 1.1053389068,
				"z": 2.7227178503,
				"element": "C" 
			},
			{
				"x": 1.9689370555,
				"y": 0.1790224291,
				"z": 3.6079838688,
				"element": "C" 
			},
			{
				"x": 0.8891168389,
				"y": 2.2461542972,
				"z": 3.144754068,
				"element": "O" 
			},
			{
				"x": -0.0537481592,
				"y": 1.5486421074,
				"z": 0.5921144867,
				"element": "C" 
			},
			{
				"x": -0.3680704748,
				"y": 2.7817804852,
				"z": 0.9993734878,
				"element": "O" 
			},
			{
				"x": -0.4995995955,
				"y": 1.1462898219,
				"z": -0.6772439748,
				"element": "C" 
			},
			{
				"x": -2.2965915637,
				"y": 0.5130501674,
				"z": -2.7480463485,
				"element": "H" 
			},
			{
				"x": -0.7880589808,
				"y": 1.13811619,
				"z": -3.4764986326,
				"element": "H" 
			},
			{
				"x": -1.5347757633,
				"y": -0.3546467046,
				"z": -4.1093991046,
				"element": "H" 
			},
			{
				"x": 0.7750623693,
				"y": -2.012758586,
				"z": -0.7474517398,
				"element": "H" 
			},
			{
				"x": 1.5695587957,
				"y": -1.321590469,
				"z": 1.4922065002,
				"element": "H" 
			},
			{
				"x": 2.9015614392,
				"y": -0.1185083308,
				"z": 3.1171212191,
				"element": "H" 
			},
			{
				"x": 2.200574631,
				"y": 0.7020933423,
				"z": 4.5361385176,
				"element": "H" 
			},
			{
				"x": 1.4113308073,
				"y": -0.7353184608,
				"z": 3.8367105901,
				"element": "H" 
			},
			{
				"x": 0.0315693929,
				"y": 2.8770530593,
				"z": 1.9094084894,
				"element": "H" 
			},
			{
				"x": -1.0736157574,
				"y": 1.8587247777,
				"z": -1.255191141,
				"element": "H" 
			}
		],
		 "valence_orbital": [ 
			{
				"type": "occ",
				"energy": -0.34141,
				"method": "rhf"
			},
			{
				"type": "occ",
				"energy": -0.31102,
				"method": "rhf"
			},
			{
				"type": "occ",
				"energy": -0.25802,
				"method": "rhf"
			},
			{
				"type": "occ",
				"energy": -0.24175,
				"method": "rhf"
			},
			{
				"type": "occ",
				"energy": -0.22112,
				"method": "rhf"
			},
			{
				"type": "unocc",
				"energy": -0.05172,
				"method": "rhf"
			},
			{
				"type": "unocc",
				"energy": 0.00429,
				"method": "rhf"
			},
			{
				"type": "unocc",
				"energy": 0.04617,
				"method": "rhf"
			},
			{
				"type": "unocc",
				"energy": 0.08917,
				"method": "rhf"
			},
			{
				"type": "unocc",
				"energy": 0.09835,
				"method": "rhf"
			}
		],
		"cosmo_sigma_profile": { 
			"-0.025": 0.0,
			"-0.024": 0.0,
			"-0.023": 0.0,
			"-0.022": 0.0,
			"-0.021": 0.0,
			"-0.02": 0.0,
			"-0.019": 0.0,
			"-0.018": 0.0,
			"-0.017": 0.0,
			"-0.016": 0.0,
			"-0.015": 0.0,
			"-0.014": 0.0,
			"-0.013": 0.0,
			"-0.012": 0.0,
			"-0.011": 0.0,
			"-0.01": 0.0,
			"-0.009": 0.0,
			"-0.008": 0.0,
			"-0.007": 3.79712279755,
			"-0.006": 18.8011455517,
			"-0.005": 19.1260332105,
			"-0.004": 18.7613566364,
			"-0.003": 16.5254036467,
			"-0.002": 14.357695727,
			"-0.001": 16.1369757805,
			"0.0": 11.0849943472,
			"0.001": 10.1865593096,
			"0.002": 13.0816881227,
			"0.003": 17.4192800357,
			"0.004": 10.7790054287,
			"0.005": 5.89003037754,
			"0.006": 3.4933749937,
			"0.007": 4.70151917661,
			"0.008": 4.39179094527,
			"0.009": 4.20924597033,
			"0.01": 3.17493160277,
			"0.011": 3.86856638489,
			"0.012": 2.18824464448,
			"0.013": 0.945100726372,
			"0.014": 0.028269512911,
			"0.015": 0.0,
			"0.016": 0.0,
			"0.017": 0.0,
			"0.018": 0.0,
			"0.019": 0.0,
			"0.02": 0.0,
			"0.021": 0.0,
			"0.022": 0.0,
			"0.023": 0.0,
			"0.024": 0.0,
			"0.025": 0.0
		}
	}
}
