{
	 "smiles": "CC(NC(=O)CCCCN1C(=O)C2=CC=CC=C2C1=O)[P+]([O-])(OC1=CC=CC=C1)OC1=CC=CC=C1", 
	 "Tm": 417.15, 
	 "num_atms": 63, 
	 "gaussian": { 
		 "optdone": 1, 
		 "sigma_profile": "yes", 
		 "theory": "DFT", 
		 "functional": "B3LYP", 
		 "basiset": "6-31G**", 
		 "properties": { 
			 "R2extent": 18594.486, 
			 "electric_dipole_moment_norm": 3.29059686987, 
			 "electric_quadrupole_moment_norm": 32.5154210557, 
			 "total_energy": -1947.46522916, 
			 "HOMO_LUMO_gap": 0.14503, 
			 "cosmo_polarized_energy": -22.43, 
			 "cosmo_cavitation_energy": 67.93, 
			 "cosmo_dispersion_energy": -40.91, 
			 "cosmo_repulsion_energy": 3.03, 
			 "cosmo_total_nonelectrostatic_energy": 30.05, 
			 "SMD_solvation_energy": 13.19 
		},
		"coords": [
			{
				"x": 2.4209592399,
				"y": 1.785994226,
				"z": -0.7297614102,
				"element": "C" 
			},
			{
				"x": 0.9242163217,
				"y": 1.7222950714,
				"z": -1.0757706082,
				"element": "C" 
			},
			{
				"x": 0.0877851855,
				"y": 1.4259447086,
				"z": 0.0744980713,
				"element": "N" 
			},
			{
				"x": -0.6156266273,
				"y": 2.4164285891,
				"z": 0.7237267688,
				"element": "C" 
			},
			{
				"x": -0.6236680419,
				"y": 3.5784200617,
				"z": 0.3361805795,
				"element": "O" 
			},
			{
				"x": -1.3733297932,
				"y": 1.9290743757,
				"z": 1.9558039054,
				"element": "C" 
			},
			{
				"x": -0.4405041807,
				"y": 1.495820841,
				"z": 3.1165786112,
				"element": "C" 
			},
			{
				"x": -1.0094917755,
				"y": 0.3250279705,
				"z": 3.9421858504,
				"element": "C" 
			},
			{
				"x": 0.0464900029,
				"y": -0.5639739309,
				"z": 4.6132434874,
				"element": "C" 
			},
			{
				"x": 1.055924944,
				"y": -1.1208075461,
				"z": 3.6987474016,
				"element": "N" 
			},
			{
				"x": 2.3501321907,
				"y": -1.4515219537,
				"z": 4.1681677878,
				"element": "C" 
			},
			{
				"x": 2.7263108746,
				"y": -1.3039265611,
				"z": 5.3128215797,
				"element": "O" 
			},
			{
				"x": 3.0964090952,
				"y": -1.9745872594,
				"z": 2.98921586,
				"element": "C" 
			},
			{
				"x": 4.4045274815,
				"y": -2.4214387021,
				"z": 2.8765212261,
				"element": "C" 
			},
			{
				"x": 4.8374145736,
				"y": -2.8211482211,
				"z": 1.6042012573,
				"element": "C" 
			},
			{
				"x": 3.9840963609,
				"y": -2.7582811732,
				"z": 0.4949275242,
				"element": "C" 
			},
			{
				"x": 2.6617110223,
				"y": -2.305331275,
				"z": 0.615433147,
				"element": "C" 
			},
			{
				"x": 2.2445429315,
				"y": -1.9268673412,
				"z": 1.8848575924,
				"element": "C" 
			},
			{
				"x": 0.9227089479,
				"y": -1.4047343246,
				"z": 2.3349161929,
				"element": "C" 
			},
			{
				"x": -0.0766898515,
				"y": -1.2296465588,
				"z": 1.6525056162,
				"element": "O" 
			},
			{
				"x": 0.5901846178,
				"y": 0.4656208824,
				"z": -2.3755433201,
				"element": "P" 
			},
			{
				"x": 0.94476525,
				"y": -0.9247471807,
				"z": -1.9780542588,
				"element": "O" 
			},
			{
				"x": 1.3035601184,
				"y": 1.0594143602,
				"z": -3.709488872,
				"element": "O" 
			},
			{
				"x": 2.5075898028,
				"y": 0.6361176239,
				"z": -4.2719670643,
				"element": "C" 
			},
			{
				"x": 2.8342285011,
				"y": -0.7132328793,
				"z": -4.4174279949,
				"element": "C" 
			},
			{
				"x": 4.0373701915,
				"y": -1.0466573468,
				"z": -5.0427186836,
				"element": "C" 
			},
			{
				"x": 4.8943210497,
				"y": -0.05493048,
				"z": -5.5234472415,
				"element": "C" 
			},
			{
				"x": 4.5451419588,
				"y": 1.2890592029,
				"z": -5.376173242,
				"element": "C" 
			},
			{
				"x": 3.3503979747,
				"y": 1.6410101459,
				"z": -4.7482477873,
				"element": "C" 
			},
			{
				"x": -0.9330511467,
				"y": 0.7238341223,
				"z": -2.8728140929,
				"element": "O" 
			},
			{
				"x": -2.075936256,
				"y": 0.312459124,
				"z": -2.178131079,
				"element": "C" 
			},
			{
				"x": -3.0636882472,
				"y": 1.2741658233,
				"z": -1.9700298632,
				"element": "C" 
			},
			{
				"x": -4.2495085252,
				"y": 0.9013390428,
				"z": -1.336884179,
				"element": "C" 
			},
			{
				"x": -4.4403074333,
				"y": -0.4170009902,
				"z": -0.9155444588,
				"element": "C" 
			},
			{
				"x": -3.4389079575,
				"y": -1.3650282988,
				"z": -1.1342358619,
				"element": "C" 
			},
			{
				"x": -2.2491258255,
				"y": -1.0113525194,
				"z": -1.7739032721,
				"element": "C" 
			},
			{
				"x": 2.7736784703,
				"y": 0.8295740445,
				"z": -0.3333559092,
				"element": "H" 
			},
			{
				"x": 3.0230468307,
				"y": 2.0381195667,
				"z": -1.6080751435,
				"element": "H" 
			},
			{
				"x": 2.5760796646,
				"y": 2.559233012,
				"z": 0.0277413606,
				"element": "H" 
			},
			{
				"x": 0.5883991583,
				"y": 2.6918017373,
				"z": -1.4565692596,
				"element": "H" 
			},
			{
				"x": 0.0670798321,
				"y": 0.4780154531,
				"z": 0.4397706858,
				"element": "H" 
			},
			{
				"x": -2.0451811743,
				"y": 2.7341691757,
				"z": 2.2599825961,
				"element": "H" 
			},
			{
				"x": -1.9889355841,
				"y": 1.0757114446,
				"z": 1.648763885,
				"element": "H" 
			},
			{
				"x": -0.2301328135,
				"y": 2.3546345101,
				"z": 3.7636777288,
				"element": "H" 
			},
			{
				"x": 0.5252779612,
				"y": 1.2004172563,
				"z": 2.6976135897,
				"element": "H" 
			},
			{
				"x": -1.6302134211,
				"y": -0.3009301217,
				"z": 3.2984353876,
				"element": "H" 
			},
			{
				"x": -1.6592841897,
				"y": 0.6987526177,
				"z": 4.7428095948,
				"element": "H" 
			},
			{
				"x": 0.6137673502,
				"y": -0.0135946467,
				"z": 5.3697173841,
				"element": "H" 
			},
			{
				"x": -0.4525164153,
				"y": -1.3916834154,
				"z": 5.1317476782,
				"element": "H" 
			},
			{
				"x": 5.0614098571,
				"y": -2.4532783661,
				"z": 3.7397084949,
				"element": "H" 
			},
			{
				"x": 5.8546822789,
				"y": -3.1780277393,
				"z": 1.4731782731,
				"element": "H" 
			},
			{
				"x": 4.3558717059,
				"y": -3.0616510616,
				"z": -0.4791381182,
				"element": "H" 
			},
			{
				"x": 2.0016900491,
				"y": -2.2236976522,
				"z": -0.2437160394,
				"element": "H" 
			},
			{
				"x": 2.164883682,
				"y": -1.474946043,
				"z": -4.0380761946,
				"element": "H" 
			},
			{
				"x": 4.2994170054,
				"y": -2.0944052388,
				"z": -5.1589764409,
				"element": "H" 
			},
			{
				"x": 5.8246242151,
				"y": -0.32695425,
				"z": -6.0126217037,
				"element": "H" 
			},
			{
				"x": 5.2012602471,
				"y": 2.0691928624,
				"z": -5.7508044631,
				"element": "H" 
			},
			{
				"x": 3.0552390659,
				"y": 2.6783741789,
				"z": -4.6304463931,
				"element": "H" 
			},
			{
				"x": -2.8898938275,
				"y": 2.2933516182,
				"z": -2.2977216284,
				"element": "H" 
			},
			{
				"x": -5.0229049125,
				"y": 1.6457067279,
				"z": -1.1719123606,
				"element": "H" 
			},
			{
				"x": -5.3642781836,
				"y": -0.703430486,
				"z": -0.4223509754,
				"element": "H" 
			},
			{
				"x": -3.5803922762,
				"y": -2.3917277122,
				"z": -0.8097108062,
				"element": "H" 
			},
			{
				"x": -1.4624275516,
				"y": -1.7356391016,
				"z": -1.9475603925,
				"element": "H" 
			}
		],
		 "valence_orbital": [ 
			{
				"type": "occ",
				"energy": -0.25587,
				"method": "rhf"
			},
			{
				"type": "occ",
				"energy": -0.25289,
				"method": "rhf"
			},
			{
				"type": "occ",
				"energy": -0.24338,
				"method": "rhf"
			},
			{
				"type": "occ",
				"energy": -0.24098,
				"method": "rhf"
			},
			{
				"type": "occ",
				"energy": -0.23279,
				"method": "rhf"
			},
			{
				"type": "unocc",
				"energy": -0.08776,
				"method": "rhf"
			},
			{
				"type": "unocc",
				"energy": -0.04246,
				"method": "rhf"
			},
			{
				"type": "unocc",
				"energy": -0.0098,
				"method": "rhf"
			},
			{
				"type": "unocc",
				"energy": -0.00492,
				"method": "rhf"
			},
			{
				"type": "unocc",
				"energy": -0.00316,
				"method": "rhf"
			}
		],
		"cosmo_sigma_profile": { 
			"-0.025": 0.0,
			"-0.024": 0.0,
			"-0.023": 0.0,
			"-0.022": 0.0,
			"-0.021": 0.0,
			"-0.02": 0.0,
			"-0.019": 0.0,
			"-0.018": 0.0,
			"-0.017": 0.0,
			"-0.016": 0.0,
			"-0.015": 0.0,
			"-0.014": 0.0,
			"-0.013": 0.0,
			"-0.012": 0.0,
			"-0.011": 0.0,
			"-0.01": 0.0,
			"-0.009": 0.000426442053889,
			"-0.008": 0.973120342838,
			"-0.007": 9.34876023451,
			"-0.006": 27.5927505959,
			"-0.005": 38.1042158749,
			"-0.004": 49.6421014355,
			"-0.003": 52.8512759928,
			"-0.002": 53.5511792361,
			"-0.001": 54.0459080415,
			"0.0": 39.7444711265,
			"0.001": 36.4951401257,
			"0.002": 39.3315489622,
			"0.003": 30.2850085952,
			"0.004": 28.499933171,
			"0.005": 20.9562422938,
			"0.006": 8.4494043103,
			"0.007": 7.3977805916,
			"0.008": 11.1296370496,
			"0.009": 7.08630424533,
			"0.01": 5.55469613484,
			"0.011": 6.90610265002,
			"0.012": 3.16980770785,
			"0.013": 3.78238528605,
			"0.014": 3.48751117465,
			"0.015": 0.856587377062,
			"0.016": 0.0,
			"0.017": 0.0,
			"0.018": 0.0,
			"0.019": 0.0,
			"0.02": 0.0,
			"0.021": 0.0,
			"0.022": 0.0,
			"0.023": 0.0,
			"0.024": 0.0,
			"0.025": 0.0
		}
	}
}
