{
	 "smiles": "NC1=CC(Cl)=CC=C1", 
	 "Tm": 262.95, 
	 "num_atms": 14, 
	 "gaussian": { 
		 "optdone": 1, 
		 "sigma_profile": "yes", 
		 "theory": "DFT", 
		 "functional": "B3LYP", 
		 "basiset": "6-31G**", 
		 "properties": { 
			 "R2extent": 1485.244, 
			 "electric_dipole_moment_norm": 3.16375367878, 
			 "electric_quadrupole_moment_norm": 7.71680509732, 
			 "total_energy": -747.202362126, 
			 "HOMO_LUMO_gap": 0.20455, 
			 "cosmo_polarized_energy": -8.43, 
			 "cosmo_cavitation_energy": 19.6, 
			 "cosmo_dispersion_energy": -14.94, 
			 "cosmo_repulsion_energy": 1.25, 
			 "cosmo_total_nonelectrostatic_energy": 5.91, 
			 "SMD_solvation_energy": 3.09 
		},
		"coords": [
			{
				"x": -1.5984160848,
				"y": -1.4217920773,
				"z": -0.0037618978,
				"element": "N" 
			},
			{
				"x": -0.3691708415,
				"y": -0.7800323353,
				"z": 0.1356739519,
				"element": "C" 
			},
			{
				"x": -0.1677045479,
				"y": 0.1497286714,
				"z": 1.1708441841,
				"element": "C" 
			},
			{
				"x": 1.0465177542,
				"y": 0.8224821529,
				"z": 1.259958377,
				"element": "C" 
			},
			{
				"x": 1.2737745752,
				"y": 1.9800094334,
				"z": 2.5699814717,
				"element": "Cl" 
			},
			{
				"x": 2.0843617091,
				"y": 0.6092268562,
				"z": 0.3546954857,
				"element": "C" 
			},
			{
				"x": 1.8728730387,
				"y": -0.3165382477,
				"z": -0.6695087538,
				"element": "C" 
			},
			{
				"x": 0.6693032703,
				"y": -1.0054999821,
				"z": -0.7855409358,
				"element": "C" 
			},
			{
				"x": -2.1540007349,
				"y": -1.4871848527,
				"z": 0.83770335,
				"element": "H" 
			},
			{
				"x": -1.5760274897,
				"y": -2.2936118288,
				"z": -0.5140006213,
				"element": "H" 
			},
			{
				"x": -0.9530624655,
				"y": 0.3470793945,
				"z": 1.8931657944,
				"element": "H" 
			},
			{
				"x": 3.0200270958,
				"y": 1.1467119646,
				"z": 0.4497551549,
				"element": "H" 
			},
			{
				"x": 2.6649120108,
				"y": -0.504060867,
				"z": -1.3888952934,
				"element": "H" 
			},
			{
				"x": 0.5237127102,
				"y": -1.7185182821,
				"z": -1.5926702675,
				"element": "H" 
			}
		],
		 "valence_orbital": [ 
			{
				"type": "occ",
				"energy": -0.34737,
				"method": "rhf"
			},
			{
				"type": "occ",
				"energy": -0.3056,
				"method": "rhf"
			},
			{
				"type": "occ",
				"energy": -0.30105,
				"method": "rhf"
			},
			{
				"type": "occ",
				"energy": -0.24373,
				"method": "rhf"
			},
			{
				"type": "occ",
				"energy": -0.21043,
				"method": "rhf"
			},
			{
				"type": "unocc",
				"energy": -0.00588,
				"method": "rhf"
			},
			{
				"type": "unocc",
				"energy": 0.00898,
				"method": "rhf"
			},
			{
				"type": "unocc",
				"energy": 0.03564,
				"method": "rhf"
			},
			{
				"type": "unocc",
				"energy": 0.07531,
				"method": "rhf"
			},
			{
				"type": "unocc",
				"energy": 0.10962,
				"method": "rhf"
			}
		],
		"cosmo_sigma_profile": { 
			"-0.025": 0.0,
			"-0.024": 0.0,
			"-0.023": 0.0,
			"-0.022": 0.0,
			"-0.021": 0.0,
			"-0.02": 0.0,
			"-0.019": 0.0,
			"-0.018": 0.0,
			"-0.017": 0.0,
			"-0.016": 0.0,
			"-0.015": 0.0,
			"-0.014": 0.0,
			"-0.013": 0.914165604307,
			"-0.012": 2.89641224543,
			"-0.011": 3.3695207009,
			"-0.01": 2.96658383854,
			"-0.009": 2.95686941922,
			"-0.008": 3.60789654211,
			"-0.007": 3.52269860689,
			"-0.006": 7.82304541023,
			"-0.005": 7.87202269219,
			"-0.004": 7.3390387104,
			"-0.003": 7.20895563136,
			"-0.002": 7.24441087681,
			"-0.001": 7.07556269943,
			"0.0": 7.3593647291,
			"0.001": 9.4421362676,
			"0.002": 10.7263570939,
			"0.003": 15.6096183344,
			"0.004": 16.5307969917,
			"0.005": 22.4020137314,
			"0.006": 5.91463530588,
			"0.007": 0.586914989112,
			"0.008": 1.11423982571,
			"0.009": 0.915283121139,
			"0.01": 0.536656187007,
			"0.011": 0.825438364726,
			"0.012": 0.792563897475,
			"0.013": 0.4179990031,
			"0.014": 0.441215859645,
			"0.015": 0.0516126652556,
			"0.016": 0.0,
			"0.017": 0.0,
			"0.018": 0.0,
			"0.019": 0.0,
			"0.02": 0.0,
			"0.021": 0.0,
			"0.022": 0.0,
			"0.023": 0.0,
			"0.024": 0.0,
			"0.025": 0.0
		}
	}
}
