{
	 "smiles": "CCC(C)(N)P(O)(O)=O", 
	 "Tm": 543.15, 
	 "num_atms": 21, 
	 "gaussian": { 
		 "optdone": 1, 
		 "sigma_profile": "yes", 
		 "theory": "DFT", 
		 "functional": "B3LYP", 
		 "basiset": "6-31G**", 
		 "properties": { 
			 "R2extent": 1719.9584, 
			 "electric_dipole_moment_norm": 3.7450879736, 
			 "electric_quadrupole_moment_norm": 12.7350982858, 
			 "total_energy": -781.513072365, 
			 "HOMO_LUMO_gap": 0.315, 
			 "cosmo_polarized_energy": -16.62, 
			 "cosmo_cavitation_energy": 24.03, 
			 "cosmo_dispersion_energy": -17.77, 
			 "cosmo_repulsion_energy": 1.43, 
			 "cosmo_total_nonelectrostatic_energy": 7.69, 
			 "SMD_solvation_energy": 5.99 
		},
		"coords": [
			{
				"x": -0.965706679,
				"y": -0.1851448903,
				"z": -2.0512163382,
				"element": "C" 
			},
			{
				"x": -0.6602800073,
				"y": 0.3095941508,
				"z": -0.6332728016,
				"element": "C" 
			},
			{
				"x": 0.8287329729,
				"y": 0.4894108884,
				"z": -0.2502412478,
				"element": "C" 
			},
			{
				"x": 1.6068944149,
				"y": 1.3287793475,
				"z": -1.2732379277,
				"element": "C" 
			},
			{
				"x": 0.8460099624,
				"y": 1.0827574527,
				"z": 1.1165861476,
				"element": "N" 
			},
			{
				"x": 1.7139789351,
				"y": -1.1137919523,
				"z": 0.0842968596,
				"element": "P" 
			},
			{
				"x": 1.3156392674,
				"y": -2.1800760865,
				"z": -1.0756229745,
				"element": "O" 
			},
			{
				"x": 0.8792658673,
				"y": -1.6794417898,
				"z": 1.3464805683,
				"element": "O" 
			},
			{
				"x": 3.1841679331,
				"y": -0.943262306,
				"z": 0.2416032998,
				"element": "O" 
			},
			{
				"x": -0.6013035091,
				"y": 0.5116867409,
				"z": -2.8123479155,
				"element": "H" 
			},
			{
				"x": -2.0486963879,
				"y": -0.2733062088,
				"z": -2.1828898022,
				"element": "H" 
			},
			{
				"x": -0.5215818605,
				"y": -1.1641538676,
				"z": -2.2407389636,
				"element": "H" 
			},
			{
				"x": -1.1322771124,
				"y": 1.2950807787,
				"z": -0.4990602134,
				"element": "H" 
			},
			{
				"x": -1.1281869832,
				"y": -0.3543789151,
				"z": 0.1013143789,
				"element": "H" 
			},
			{
				"x": 1.1235515322,
				"y": 2.3045253906,
				"z": -1.4036852479,
				"element": "H" 
			},
			{
				"x": 1.6501169506,
				"y": 0.8400198199,
				"z": -2.2511426601,
				"element": "H" 
			},
			{
				"x": 2.6351973737,
				"y": 1.4844220892,
				"z": -0.9363839621,
				"element": "H" 
			},
			{
				"x": 1.7822858049,
				"y": 1.4178472817,
				"z": 1.3371787925,
				"element": "H" 
			},
			{
				"x": 0.2225551884,
				"y": 1.8869247209,
				"z": 1.1536295911,
				"element": "H" 
			},
			{
				"x": 2.1276080642,
				"y": -2.5790990823,
				"z": -1.4207633064,
				"element": "H" 
			},
			{
				"x": 0.6580282723,
				"y": -0.8859935625,
				"z": 1.8784137232,
				"element": "H" 
			}
		],
		 "valence_orbital": [ 
			{
				"type": "occ",
				"energy": -0.3394,
				"method": "rhf"
			},
			{
				"type": "occ",
				"energy": -0.31454,
				"method": "rhf"
			},
			{
				"type": "occ",
				"energy": -0.284,
				"method": "rhf"
			},
			{
				"type": "occ",
				"energy": -0.28008,
				"method": "rhf"
			},
			{
				"type": "occ",
				"energy": -0.26518,
				"method": "rhf"
			},
			{
				"type": "unocc",
				"energy": 0.04982,
				"method": "rhf"
			},
			{
				"type": "unocc",
				"energy": 0.06017,
				"method": "rhf"
			},
			{
				"type": "unocc",
				"energy": 0.08746,
				"method": "rhf"
			},
			{
				"type": "unocc",
				"energy": 0.10364,
				"method": "rhf"
			},
			{
				"type": "unocc",
				"energy": 0.11424,
				"method": "rhf"
			}
		],
		"cosmo_sigma_profile": { 
			"-0.025": 0.0,
			"-0.024": 0.0,
			"-0.023": 0.0,
			"-0.022": 0.0,
			"-0.021": 0.0,
			"-0.02": 0.0,
			"-0.019": 0.396885903493,
			"-0.018": 0.715016748444,
			"-0.017": 0.940921600476,
			"-0.016": 0.796602305186,
			"-0.015": 1.30655500284,
			"-0.014": 0.392380465884,
			"-0.013": 0.182114877558,
			"-0.012": 0.707418727841,
			"-0.011": 2.71266147146,
			"-0.01": 3.91320620596,
			"-0.009": 4.35339768885,
			"-0.008": 4.69510893739,
			"-0.007": 3.97665692457,
			"-0.006": 4.27328142085,
			"-0.005": 5.1440620588,
			"-0.004": 10.6403328681,
			"-0.003": 17.6132686314,
			"-0.002": 17.5059459403,
			"-0.001": 17.4373839756,
			"0.0": 17.1430567254,
			"0.001": 13.5067768341,
			"0.002": 7.0296509825,
			"0.003": 3.81249532447,
			"0.004": 4.76895854039,
			"0.005": 3.3937807991,
			"0.006": 3.94154667837,
			"0.007": 3.17775678007,
			"0.008": 3.42961657946,
			"0.009": 3.71556126361,
			"0.01": 3.71091646448,
			"0.011": 4.69134827937,
			"0.012": 2.19232170223,
			"0.013": 0.90119953347,
			"0.014": 2.8812383957,
			"0.015": 5.57840965989,
			"0.016": 1.64701462049,
			"0.017": 0.0,
			"0.018": 0.0,
			"0.019": 0.0,
			"0.02": 0.0,
			"0.021": 0.0,
			"0.022": 0.0,
			"0.023": 0.0,
			"0.024": 0.0,
			"0.025": 0.0
		}
	}
}
