{
	 "smiles": "ClCC(=O)C(C#N)C1=NC(=CS1)C1=CC=CC=C1", 
	 "Tm": 489.15, 
	 "num_atms": 27, 
	 "gaussian": { 
		 "optdone": 1, 
		 "sigma_profile": "yes", 
		 "theory": "DFT", 
		 "functional": "B3LYP", 
		 "basiset": "6-31G**", 
		 "properties": { 
			 "R2extent": 6791.1225, 
			 "electric_dipole_moment_norm": 4.24816636915, 
			 "electric_quadrupole_moment_norm": 15.5059485556, 
			 "total_energy": -1543.87567057, 
			 "HOMO_LUMO_gap": 0.16643, 
			 "cosmo_polarized_energy": -15.92, 
			 "cosmo_cavitation_energy": 36.91, 
			 "cosmo_dispersion_energy": -25.51, 
			 "cosmo_repulsion_energy": 1.96, 
			 "cosmo_total_nonelectrostatic_energy": 13.36, 
			 "SMD_solvation_energy": 6.89 
		},
		"coords": [
			{
				"x": -4.6143751246,
				"y": -0.1543468513,
				"z": -1.924900602,
				"element": "Cl" 
			},
			{
				"x": -2.9562975203,
				"y": 0.2543944089,
				"z": -2.4486462131,
				"element": "C" 
			},
			{
				"x": -2.2025685527,
				"y": -0.9313037193,
				"z": -3.0246120688,
				"element": "C" 
			},
			{
				"x": -2.6542650816,
				"y": -2.0307854782,
				"z": -3.2120083696,
				"element": "O" 
			},
			{
				"x": -0.6837229221,
				"y": -0.6659094224,
				"z": -3.3347756034,
				"element": "C" 
			},
			{
				"x": -0.4488967433,
				"y": 0.6396367316,
				"z": -3.9606581813,
				"element": "C" 
			},
			{
				"x": -0.2951901491,
				"y": 1.6699450628,
				"z": -4.472311132,
				"element": "N" 
			},
			{
				"x": 0.1074190739,
				"y": -0.8180702283,
				"z": -2.0495326078,
				"element": "C" 
			},
			{
				"x": 0.0335285286,
				"y": 0.0210671794,
				"z": -1.0605182086,
				"element": "N" 
			},
			{
				"x": 0.8101900371,
				"y": -0.3754704943,
				"z": 0.0138766652,
				"element": "C" 
			},
			{
				"x": 1.4829161458,
				"y": -1.5581981706,
				"z": -0.192525633,
				"element": "C" 
			},
			{
				"x": 1.1368173391,
				"y": -2.1998504423,
				"z": -1.7582319486,
				"element": "S" 
			},
			{
				"x": 0.8610563088,
				"y": 0.4667348273,
				"z": 1.2244741626,
				"element": "C" 
			},
			{
				"x": 1.3527555265,
				"y": -0.0317302606,
				"z": 2.4421236481,
				"element": "C" 
			},
			{
				"x": 1.4083087478,
				"y": 0.7825503982,
				"z": 3.5706683438,
				"element": "C" 
			},
			{
				"x": 0.9682406442,
				"y": 2.106740096,
				"z": 3.5046974836,
				"element": "C" 
			},
			{
				"x": 0.4701829904,
				"y": 2.6086250287,
				"z": 2.3009830274,
				"element": "C" 
			},
			{
				"x": 0.4152654821,
				"y": 1.7972099091,
				"z": 1.1692823498,
				"element": "C" 
			},
			{
				"x": -2.3937678619,
				"y": 0.6474862033,
				"z": -1.5968626683,
				"element": "H" 
			},
			{
				"x": -3.0143667457,
				"y": 1.0436228273,
				"z": -3.2035106826,
				"element": "H" 
			},
			{
				"x": -0.3989276081,
				"y": -1.4506249175,
				"z": -4.0419881867,
				"element": "H" 
			},
			{
				"x": 2.1698692625,
				"y": -2.0660909915,
				"z": 0.4679334793,
				"element": "H" 
			},
			{
				"x": 1.675880785,
				"y": -1.0659979965,
				"z": 2.515637604,
				"element": "H" 
			},
			{
				"x": 1.7876039353,
				"y": 0.3800322262,
				"z": 4.5053871052,
				"element": "H" 
			},
			{
				"x": 1.0093789471,
				"y": 2.7398415568,
				"z": 4.3860945188,
				"element": "H" 
			},
			{
				"x": 0.1246196416,
				"y": 3.6365471019,
				"z": 2.2409371768,
				"element": "H" 
			},
			{
				"x": 0.0335449136,
				"y": 2.185445415,
				"z": 0.231586541,
				"element": "H" 
			}
		],
		 "valence_orbital": [ 
			{
				"type": "occ",
				"energy": -0.30447,
				"method": "rhf"
			},
			{
				"type": "occ",
				"energy": -0.29981,
				"method": "rhf"
			},
			{
				"type": "occ",
				"energy": -0.28136,
				"method": "rhf"
			},
			{
				"type": "occ",
				"energy": -0.2613,
				"method": "rhf"
			},
			{
				"type": "occ",
				"energy": -0.23695,
				"method": "rhf"
			},
			{
				"type": "unocc",
				"energy": -0.07052,
				"method": "rhf"
			},
			{
				"type": "unocc",
				"energy": -0.04924,
				"method": "rhf"
			},
			{
				"type": "unocc",
				"energy": -0.0304,
				"method": "rhf"
			},
			{
				"type": "unocc",
				"energy": -0.01881,
				"method": "rhf"
			},
			{
				"type": "unocc",
				"energy": -0.00993,
				"method": "rhf"
			}
		],
		"cosmo_sigma_profile": { 
			"-0.025": 0.0,
			"-0.024": 0.0,
			"-0.023": 0.0,
			"-0.022": 0.0,
			"-0.021": 0.0,
			"-0.02": 0.0,
			"-0.019": 0.0,
			"-0.018": 0.0,
			"-0.017": 0.0,
			"-0.016": 0.0,
			"-0.015": 0.0,
			"-0.014": 0.0,
			"-0.013": 0.0849071482575,
			"-0.012": 2.70640185065,
			"-0.011": 3.40233731891,
			"-0.01": 5.85710700569,
			"-0.009": 7.08990126705,
			"-0.008": 6.53035364085,
			"-0.007": 7.40620568946,
			"-0.006": 13.8963065389,
			"-0.005": 16.6935156181,
			"-0.004": 18.5500108231,
			"-0.003": 16.1306347012,
			"-0.002": 17.6698689021,
			"-0.001": 18.6515745966,
			"0.0": 22.4225338494,
			"0.001": 22.3303097647,
			"0.002": 21.4236647508,
			"0.003": 18.0813144546,
			"0.004": 21.3038100066,
			"0.005": 23.7544267537,
			"0.006": 9.28989070462,
			"0.007": 5.65270300299,
			"0.008": 6.34525264723,
			"0.009": 7.38893764954,
			"0.01": 5.32413209671,
			"0.011": 2.89294782929,
			"0.012": 1.52856502295,
			"0.013": 0.061586240982,
			"0.014": 0.0,
			"0.015": 0.0,
			"0.016": 0.0,
			"0.017": 0.0,
			"0.018": 0.0,
			"0.019": 0.0,
			"0.02": 0.0,
			"0.021": 0.0,
			"0.022": 0.0,
			"0.023": 0.0,
			"0.024": 0.0,
			"0.025": 0.0
		}
	}
}
