{
	 "smiles": "N1C=CC=N1", 
	 "Tm": 341.15, 
	 "num_atms": 9, 
	 "gaussian": { 
		 "optdone": 1, 
		 "sigma_profile": "yes", 
		 "theory": "DFT", 
		 "functional": "B3LYP", 
		 "basiset": "6-31G**", 
		 "properties": { 
			 "R2extent": 828.6907, 
			 "electric_dipole_moment_norm": 2.27406723515, 
			 "electric_quadrupole_moment_norm": 4.77131386937, 
			 "total_energy": -226.201892769, 
			 "HOMO_LUMO_gap": 0.26681, 
			 "cosmo_polarized_energy": -8.78, 
			 "cosmo_cavitation_energy": 12.72, 
			 "cosmo_dispersion_energy": -9.86, 
			 "cosmo_repulsion_energy": 0.87, 
			 "cosmo_total_nonelectrostatic_energy": 3.73, 
			 "SMD_solvation_energy": 2.07 
		},
		"coords": [
			{
				"x": -0.8148037926,
				"y": 0.294106244,
				"z": 0.7227070082,
				"element": "N" 
			},
			{
				"x": -2.11428094,
				"y": 0.3307271041,
				"z": 0.32571563,
				"element": "C" 
			},
			{
				"x": -2.8133268744,
				"y": -0.4480484734,
				"z": 1.2275096139,
				"element": "C" 
			},
			{
				"x": -1.8297112934,
				"y": -0.9089888592,
				"z": 2.133143986,
				"element": "C" 
			},
			{
				"x": -0.6139984205,
				"y": -0.4573724326,
				"z": 1.8257772505,
				"element": "N" 
			},
			{
				"x": -0.0256657557,
				"y": 0.7513899375,
				"z": 0.2940517893,
				"element": "H" 
			},
			{
				"x": -2.4304754742,
				"y": 0.8914503957,
				"z": -0.5416739707,
				"element": "H" 
			},
			{
				"x": -3.8733947574,
				"y": -0.652172745,
				"z": 1.2305100467,
				"element": "H" 
			},
			{
				"x": -1.9573426918,
				"y": -1.550291171,
				"z": 2.9949586461,
				"element": "H" 
			}
		],
		 "valence_orbital": [ 
			{
				"type": "occ",
				"energy": -0.42438,
				"method": "rhf"
			},
			{
				"type": "occ",
				"energy": -0.3941,
				"method": "rhf"
			},
			{
				"type": "occ",
				"energy": -0.28407,
				"method": "rhf"
			},
			{
				"type": "occ",
				"energy": -0.2541,
				"method": "rhf"
			},
			{
				"type": "occ",
				"energy": -0.24356,
				"method": "rhf"
			},
			{
				"type": "unocc",
				"energy": 0.02325,
				"method": "rhf"
			},
			{
				"type": "unocc",
				"energy": 0.07603,
				"method": "rhf"
			},
			{
				"type": "unocc",
				"energy": 0.08036,
				"method": "rhf"
			},
			{
				"type": "unocc",
				"energy": 0.13445,
				"method": "rhf"
			},
			{
				"type": "unocc",
				"energy": 0.15767,
				"method": "rhf"
			}
		],
		"cosmo_sigma_profile": { 
			"-0.025": 0.0,
			"-0.024": 0.0,
			"-0.023": 0.0,
			"-0.022": 0.0,
			"-0.021": 0.0,
			"-0.02": 0.0,
			"-0.019": 0.0,
			"-0.018": 0.0,
			"-0.017": 0.32894567386,
			"-0.016": 1.61720505218,
			"-0.015": 1.3897813251,
			"-0.014": 1.30331404372,
			"-0.013": 0.39407766365,
			"-0.012": 0.768192226509,
			"-0.011": 1.52340038065,
			"-0.01": 1.35303467607,
			"-0.009": 2.00997492726,
			"-0.008": 3.05776374463,
			"-0.007": 3.60150595453,
			"-0.006": 5.27577063696,
			"-0.005": 4.99315815604,
			"-0.004": 4.71847975232,
			"-0.003": 6.00585508915,
			"-0.002": 5.21871038043,
			"-0.001": 5.12530050037,
			"0.0": 4.66613101462,
			"0.001": 4.22947329418,
			"0.002": 4.23098164849,
			"0.003": 5.19186378525,
			"0.004": 5.5825177232,
			"0.005": 7.60799944245,
			"0.006": 7.26743430014,
			"0.007": 2.46705261399,
			"0.008": 1.61589324255,
			"0.009": 1.75522219017,
			"0.01": 1.04341204378,
			"0.011": 1.48429516157,
			"0.012": 1.16207105047,
			"0.013": 1.8502016496,
			"0.014": 0.854327019751,
			"0.015": 0.952361754797,
			"0.016": 1.20973733516,
			"0.017": 0.155987500424,
			"0.018": 0.0,
			"0.019": 0.0,
			"0.02": 0.0,
			"0.021": 0.0,
			"0.022": 0.0,
			"0.023": 0.0,
			"0.024": 0.0,
			"0.025": 0.0
		}
	}
}
