{
	 "smiles": "OC(=O)CCC1=NN=C(O1)C1=C(Br)C=CC(F)=C1", 
	 "Tm": 427.15, 
	 "num_atms": 26, 
	 "gaussian": { 
		 "optdone": 1, 
		 "sigma_profile": "yes", 
		 "theory": "DFT", 
		 "functional": "B3LYP", 
		 "basiset": "6-31G**", 
		 "properties": { 
			 "R2extent": 9423.9383, 
			 "electric_dipole_moment_norm": 2.17430044382, 
			 "electric_quadrupole_moment_norm": 26.9102062324, 
			 "total_energy": -3430.38417901, 
			 "HOMO_LUMO_gap": 0.18068, 
			 "cosmo_polarized_energy": -20.08, 
			 "cosmo_cavitation_energy": 35.1, 
			 "cosmo_dispersion_energy": -25.53, 
			 "cosmo_repulsion_energy": 1.95, 
			 "cosmo_total_nonelectrostatic_energy": 11.52, 
			 "SMD_solvation_energy": 5.1 
		},
		"coords": [
			{
				"x": 5.776946126,
				"y": -1.9245048547,
				"z": 1.0304858258,
				"element": "O" 
			},
			{
				"x": 4.497316392,
				"y": -1.8903866549,
				"z": 1.4843902678,
				"element": "C" 
			},
			{
				"x": 4.2591920535,
				"y": -2.0953864759,
				"z": 2.6483806694,
				"element": "O" 
			},
			{
				"x": 3.4430395386,
				"y": -1.5822076306,
				"z": 0.4308595763,
				"element": "C" 
			},
			{
				"x": 2.0358977671,
				"y": -1.5659300901,
				"z": 1.0288209571,
				"element": "C" 
			},
			{
				"x": 1.0052391251,
				"y": -1.2650302599,
				"z": -0.0018054079,
				"element": "C" 
			},
			{
				"x": 1.158430127,
				"y": -1.0355613998,
				"z": -1.2694929228,
				"element": "N" 
			},
			{
				"x": -0.1116549895,
				"y": -0.8149698352,
				"z": -1.7874667127,
				"element": "N" 
			},
			{
				"x": -0.9460108466,
				"y": -0.9260993186,
				"z": -0.7923558275,
				"element": "C" 
			},
			{
				"x": -0.3029640094,
				"y": -1.211134881,
				"z": 0.3753264467,
				"element": "O" 
			},
			{
				"x": -2.3974654927,
				"y": -0.7417853998,
				"z": -0.8691166523,
				"element": "C" 
			},
			{
				"x": -3.3421263986,
				"y": -1.0667910278,
				"z": 0.1238579974,
				"element": "C" 
			},
			{
				"x": -2.8881917814,
				"y": -1.8563277161,
				"z": 1.8019249719,
				"element": "Br" 
			},
			{
				"x": -4.703878759,
				"y": -0.8355703513,
				"z": -0.0927796514,
				"element": "C" 
			},
			{
				"x": -5.1560024166,
				"y": -0.2874950295,
				"z": -1.2880643547,
				"element": "C" 
			},
			{
				"x": -4.218713321,
				"y": 0.0236221778,
				"z": -2.2682832671,
				"element": "C" 
			},
			{
				"x": -4.6388608966,
				"y": 0.5535629697,
				"z": -3.4312565619,
				"element": "F" 
			},
			{
				"x": -2.8664723477,
				"y": -0.1902668072,
				"z": -2.078385518,
				"element": "C" 
			},
			{
				"x": 5.8049219085,
				"y": -1.7416020176,
				"z": 0.0802315905,
				"element": "H" 
			},
			{
				"x": 3.5077861054,
				"y": -2.3242652267,
				"z": -0.3743951359,
				"element": "H" 
			},
			{
				"x": 3.6709744025,
				"y": -0.6168152031,
				"z": -0.03755651,
				"element": "H" 
			},
			{
				"x": 1.9769973087,
				"y": -0.8271368254,
				"z": 1.8357328499,
				"element": "H" 
			},
			{
				"x": 1.814720744,
				"y": -2.5302676253,
				"z": 1.4995525789,
				"element": "H" 
			},
			{
				"x": -5.4108591054,
				"y": -1.0940624174,
				"z": 0.6864519626,
				"element": "H" 
			},
			{
				"x": -6.2100212397,
				"y": -0.103963292,
				"z": -1.4638128478,
				"element": "H" 
			},
			{
				"x": -2.1572399941,
				"y": 0.0635751923,
				"z": -2.856844324,
				"element": "H" 
			}
		],
		 "valence_orbital": [ 
			{
				"type": "occ",
				"energy": -0.29493,
				"method": "rhf"
			},
			{
				"type": "occ",
				"energy": -0.28883,
				"method": "rhf"
			},
			{
				"type": "occ",
				"energy": -0.28155,
				"method": "rhf"
			},
			{
				"type": "occ",
				"energy": -0.26348,
				"method": "rhf"
			},
			{
				"type": "occ",
				"energy": -0.24899,
				"method": "rhf"
			},
			{
				"type": "unocc",
				"energy": -0.06831,
				"method": "rhf"
			},
			{
				"type": "unocc",
				"energy": -0.02793,
				"method": "rhf"
			},
			{
				"type": "unocc",
				"energy": -0.00791,
				"method": "rhf"
			},
			{
				"type": "unocc",
				"energy": -0.00076,
				"method": "rhf"
			},
			{
				"type": "unocc",
				"energy": 0.00567,
				"method": "rhf"
			}
		],
		"cosmo_sigma_profile": { 
			"-0.025": 0.0,
			"-0.024": 0.0,
			"-0.023": 0.0,
			"-0.022": 0.0,
			"-0.021": 0.0,
			"-0.02": 0.0286928322595,
			"-0.019": 1.03527231116,
			"-0.018": 0.903404662999,
			"-0.017": 1.11949157082,
			"-0.016": 1.47670544924,
			"-0.015": 0.845235114656,
			"-0.014": 1.53854799334,
			"-0.013": 1.01819728469,
			"-0.012": 1.02892999386,
			"-0.011": 0.74689518165,
			"-0.01": 2.01683078047,
			"-0.009": 3.0335635978,
			"-0.008": 7.13236122298,
			"-0.007": 14.7275037443,
			"-0.006": 16.3058428526,
			"-0.005": 13.4488931652,
			"-0.004": 14.9162599864,
			"-0.003": 13.3685808339,
			"-0.002": 15.5770468719,
			"-0.001": 20.5630762993,
			"0.0": 27.0761881355,
			"0.001": 21.0214648238,
			"0.002": 14.678654123,
			"0.003": 17.4270768488,
			"0.004": 20.5131907402,
			"0.005": 6.45385300851,
			"0.006": 5.09895951711,
			"0.007": 4.53192777486,
			"0.008": 4.97713026899,
			"0.009": 4.97912485764,
			"0.01": 8.01501711722,
			"0.011": 8.07981817015,
			"0.012": 7.11986440602,
			"0.013": 3.01989677699,
			"0.014": 0.782227493486,
			"0.015": 0.148376847325,
			"0.016": 0.0,
			"0.017": 0.0,
			"0.018": 0.0,
			"0.019": 0.0,
			"0.02": 0.0,
			"0.021": 0.0,
			"0.022": 0.0,
			"0.023": 0.0,
			"0.024": 0.0,
			"0.025": 0.0
		}
	}
}
