{
	 "smiles": "CC(=O)C1=CC=C(C=C1)S(=O)(=O)N1CCOCC1", 
	 "Tm": 435.15, 
	 "num_atms": 33, 
	 "gaussian": { 
		 "optdone": 1, 
		 "sigma_profile": "yes", 
		 "theory": "DFT", 
		 "functional": "B3LYP", 
		 "basiset": "6-31G**", 
		 "properties": { 
			 "R2extent": 6587.4596, 
			 "electric_dipole_moment_norm": 4.25608031174, 
			 "electric_quadrupole_moment_norm": 14.9328462397, 
			 "total_energy": -1220.06697593, 
			 "HOMO_LUMO_gap": 0.17302, 
			 "cosmo_polarized_energy": -17.95, 
			 "cosmo_cavitation_energy": 36.98, 
			 "cosmo_dispersion_energy": -26.67, 
			 "cosmo_repulsion_energy": 2.01, 
			 "cosmo_total_nonelectrostatic_energy": 12.32, 
			 "SMD_solvation_energy": 5.13 
		},
		"coords": [
			{
				"x": 3.8567962267,
				"y": -1.9357432123,
				"z": -4.1553275994,
				"element": "C" 
			},
			{
				"x": 2.974955002,
				"y": -0.7029989356,
				"z": -4.2311776855,
				"element": "C" 
			},
			{
				"x": 2.7277144976,
				"y": -0.174010533,
				"z": -5.30275752,
				"element": "O" 
			},
			{
				"x": 2.4047632005,
				"y": -0.1359721942,
				"z": -2.9583343577,
				"element": "C" 
			},
			{
				"x": 1.6139051455,
				"y": 1.0181955981,
				"z": -3.0508516964,
				"element": "C" 
			},
			{
				"x": 1.0586932032,
				"y": 1.590614538,
				"z": -1.9094090057,
				"element": "C" 
			},
			{
				"x": 1.2952026493,
				"y": 0.9922646307,
				"z": -0.6700427418,
				"element": "C" 
			},
			{
				"x": 2.0866148259,
				"y": -0.1521965577,
				"z": -0.5511270788,
				"element": "C" 
			},
			{
				"x": 2.6387604274,
				"y": -0.7130905019,
				"z": -1.6995508822,
				"element": "C" 
			},
			{
				"x": 0.6129952158,
				"y": 1.7406549005,
				"z": 0.8164801979,
				"element": "S" 
			},
			{
				"x": 0.0169034762,
				"y": 3.0256617636,
				"z": 0.4263698479,
				"element": "O" 
			},
			{
				"x": 1.6187962065,
				"y": 1.6710605648,
				"z": 1.880948947,
				"element": "O" 
			},
			{
				"x": -0.5877812274,
				"y": 0.6067720571,
				"z": 1.2331095892,
				"element": "N" 
			},
			{
				"x": -1.8207968166,
				"y": 0.6881323254,
				"z": 0.4261072678,
				"element": "C" 
			},
			{
				"x": -2.681926754,
				"y": -0.5332947487,
				"z": 0.7511210484,
				"element": "C" 
			},
			{
				"x": -2.9678992706,
				"y": -0.6135711814,
				"z": 2.1382816936,
				"element": "O" 
			},
			{
				"x": -1.7731191172,
				"y": -0.6993287021,
				"z": 2.9022269768,
				"element": "C" 
			},
			{
				"x": -0.8796977863,
				"y": 0.5193209137,
				"z": 2.6806833612,
				"element": "C" 
			},
			{
				"x": 3.3153807105,
				"y": -2.7804762825,
				"z": -3.7150201474,
				"element": "H" 
			},
			{
				"x": 4.7376309301,
				"y": -1.7506647013,
				"z": -3.5305483628,
				"element": "H" 
			},
			{
				"x": 4.1770156133,
				"y": -2.1980214685,
				"z": -5.1638078855,
				"element": "H" 
			},
			{
				"x": 1.4522457747,
				"y": 1.4523075459,
				"z": -4.0315928501,
				"element": "H" 
			},
			{
				"x": 0.460089195,
				"y": 2.4933621774,
				"z": -1.9621941062,
				"element": "H" 
			},
			{
				"x": 2.2713310944,
				"y": -0.5855061957,
				"z": 0.4255627835,
				"element": "H" 
			},
			{
				"x": 3.2554945563,
				"y": -1.6007757093,
				"z": -1.6080071441,
				"element": "H" 
			},
			{
				"x": -2.3745660363,
				"y": 1.6122573541,
				"z": 0.6408393573,
				"element": "H" 
			},
			{
				"x": -1.5586499367,
				"y": 0.680700132,
				"z": -0.6363596805,
				"element": "H" 
			},
			{
				"x": -2.1650319315,
				"y": -1.4456253191,
				"z": 0.4121780017,
				"element": "H" 
			},
			{
				"x": -3.6434040009,
				"y": -0.4615745466,
				"z": 0.2349543504,
				"element": "H" 
			},
			{
				"x": -1.2173848692,
				"y": -1.6147035289,
				"z": 2.6426497356,
				"element": "H" 
			},
			{
				"x": -2.075366024,
				"y": -0.7563753748,
				"z": 3.9516608981,
				"element": "H" 
			},
			{
				"x": -1.3955209699,
				"y": 1.4226597018,
				"z": 3.0385888584,
				"element": "H" 
			},
			{
				"x": 0.0614567896,
				"y": 0.4146654908,
				"z": 3.2229458296,
				"element": "H" 
			}
		],
		 "valence_orbital": [ 
			{
				"type": "occ",
				"energy": -0.2893,
				"method": "rhf"
			},
			{
				"type": "occ",
				"energy": -0.28264,
				"method": "rhf"
			},
			{
				"type": "occ",
				"energy": -0.27315,
				"method": "rhf"
			},
			{
				"type": "occ",
				"energy": -0.26359,
				"method": "rhf"
			},
			{
				"type": "occ",
				"energy": -0.25413,
				"method": "rhf"
			},
			{
				"type": "unocc",
				"energy": -0.08111,
				"method": "rhf"
			},
			{
				"type": "unocc",
				"energy": -0.03159,
				"method": "rhf"
			},
			{
				"type": "unocc",
				"energy": 0.00583,
				"method": "rhf"
			},
			{
				"type": "unocc",
				"energy": 0.04989,
				"method": "rhf"
			},
			{
				"type": "unocc",
				"energy": 0.07417,
				"method": "rhf"
			}
		],
		"cosmo_sigma_profile": { 
			"-0.025": 0.0,
			"-0.024": 0.0,
			"-0.023": 0.0,
			"-0.022": 0.0,
			"-0.021": 0.0,
			"-0.02": 0.0,
			"-0.019": 0.0,
			"-0.018": 0.0,
			"-0.017": 0.0,
			"-0.016": 0.0,
			"-0.015": 0.0,
			"-0.014": 0.0,
			"-0.013": 0.0,
			"-0.012": 0.0,
			"-0.011": 0.0,
			"-0.01": 0.0,
			"-0.009": 0.01058745952,
			"-0.008": 2.61664614086,
			"-0.007": 11.4479507334,
			"-0.006": 22.0448125119,
			"-0.005": 29.4232991191,
			"-0.004": 33.5197091633,
			"-0.003": 24.504811462,
			"-0.002": 21.8150277603,
			"-0.001": 19.3220064724,
			"0.0": 17.5756423424,
			"0.001": 21.9882360948,
			"0.002": 12.5745863427,
			"0.003": 7.33416975157,
			"0.004": 6.83047890095,
			"0.005": 6.32708832954,
			"0.006": 5.84477870427,
			"0.007": 4.95113264213,
			"0.008": 5.58293188159,
			"0.009": 7.30887279055,
			"0.01": 11.8432749812,
			"0.011": 11.9545222314,
			"0.012": 5.88820106851,
			"0.013": 1.82615410063,
			"0.014": 0.0,
			"0.015": 0.0,
			"0.016": 0.0,
			"0.017": 0.0,
			"0.018": 0.0,
			"0.019": 0.0,
			"0.02": 0.0,
			"0.021": 0.0,
			"0.022": 0.0,
			"0.023": 0.0,
			"0.024": 0.0,
			"0.025": 0.0
		}
	}
}
