{
	 "smiles": "OC(=O)CN1CC2=C(C1)C=CC=C2", 
	 "Tm": 483.15, 
	 "num_atms": 24, 
	 "gaussian": { 
		 "optdone": 1, 
		 "sigma_profile": "yes", 
		 "theory": "DFT", 
		 "functional": "B3LYP", 
		 "basiset": "6-31G**", 
		 "properties": { 
			 "R2extent": 3244.4719, 
			 "electric_dipole_moment_norm": 5.58728911459, 
			 "electric_quadrupole_moment_norm": 27.6800299079, 
			 "total_energy": -592.892633358, 
			 "HOMO_LUMO_gap": 0.22818, 
			 "cosmo_polarized_energy": -13.53, 
			 "cosmo_cavitation_energy": 27.05, 
			 "cosmo_dispersion_energy": -19.85, 
			 "cosmo_repulsion_energy": 1.58, 
			 "cosmo_total_nonelectrostatic_energy": 8.78, 
			 "SMD_solvation_energy": 4.62 
		},
		"coords": [
			{
				"x": 3.6508787191,
				"y": -0.1957498804,
				"z": 2.5749348683,
				"element": "O" 
			},
			{
				"x": 2.482270234,
				"y": -0.1145728965,
				"z": 3.232704213,
				"element": "C" 
			},
			{
				"x": 2.3954493672,
				"y": 0.0845197813,
				"z": 4.4201345517,
				"element": "O" 
			},
			{
				"x": 1.2630310098,
				"y": -0.3444098551,
				"z": 2.3250344959,
				"element": "C" 
			},
			{
				"x": 1.6300775996,
				"y": -0.1632493932,
				"z": 0.9134274112,
				"element": "N" 
			},
			{
				"x": 1.5322323968,
				"y": 1.2680980126,
				"z": 0.4998276849,
				"element": "C" 
			},
			{
				"x": 0.1993060418,
				"y": 1.3731619359,
				"z": -0.2098352017,
				"element": "C" 
			},
			{
				"x": -0.2471628456,
				"y": 0.0875327583,
				"z": -0.5289376235,
				"element": "C" 
			},
			{
				"x": 0.7735177396,
				"y": -0.9190278231,
				"z": -0.0405242876,
				"element": "C" 
			},
			{
				"x": -1.4436373797,
				"y": -0.1012665441,
				"z": -1.2153449364,
				"element": "C" 
			},
			{
				"x": -2.1965927706,
				"y": 1.0224911902,
				"z": -1.5721643922,
				"element": "C" 
			},
			{
				"x": -1.7507919543,
				"y": 2.3087609304,
				"z": -1.251903348,
				"element": "C" 
			},
			{
				"x": -0.5438878712,
				"y": 2.4943666142,
				"z": -0.5693998369,
				"element": "C" 
			},
			{
				"x": 3.3931755227,
				"y": -0.3470003373,
				"z": 1.6346390084,
				"element": "H" 
			},
			{
				"x": 0.948905326,
				"y": -1.3817991914,
				"z": 2.4844256221,
				"element": "H" 
			},
			{
				"x": 0.4435076286,
				"y": 0.2999075186,
				"z": 2.6705474992,
				"element": "H" 
			},
			{
				"x": 2.3589345928,
				"y": 1.5114883723,
				"z": -0.1819220982,
				"element": "H" 
			},
			{
				"x": 1.6290131132,
				"y": 1.92482916,
				"z": 1.3699850944,
				"element": "H" 
			},
			{
				"x": 0.3385959479,
				"y": -1.797352402,
				"z": 0.4454954823,
				"element": "H" 
			},
			{
				"x": 1.3913067685,
				"y": -1.2824846402,
				"z": -0.8740379294,
				"element": "H" 
			},
			{
				"x": -1.7947169091,
				"y": -1.0988567314,
				"z": -1.4661017588,
				"element": "H" 
			},
			{
				"x": -3.1382107185,
				"y": 0.89478449,
				"z": -2.0982175866,
				"element": "H" 
			},
			{
				"x": -2.3492969923,
				"y": 3.1709324237,
				"z": -1.5313026074,
				"element": "H" 
			},
			{
				"x": -0.2017045662,
				"y": 3.4958965071,
				"z": -0.3224643249,
				"element": "H" 
			}
		],
		 "valence_orbital": [ 
			{
				"type": "occ",
				"energy": -0.30008,
				"method": "rhf"
			},
			{
				"type": "occ",
				"energy": -0.27075,
				"method": "rhf"
			},
			{
				"type": "occ",
				"energy": -0.26091,
				"method": "rhf"
			},
			{
				"type": "occ",
				"energy": -0.25148,
				"method": "rhf"
			},
			{
				"type": "occ",
				"energy": -0.24696,
				"method": "rhf"
			},
			{
				"type": "unocc",
				"energy": -0.01878,
				"method": "rhf"
			},
			{
				"type": "unocc",
				"energy": -0.01085,
				"method": "rhf"
			},
			{
				"type": "unocc",
				"energy": 0.01864,
				"method": "rhf"
			},
			{
				"type": "unocc",
				"energy": 0.07648,
				"method": "rhf"
			},
			{
				"type": "unocc",
				"energy": 0.08714,
				"method": "rhf"
			}
		],
		"cosmo_sigma_profile": { 
			"-0.025": 0.0,
			"-0.024": 0.0,
			"-0.023": 0.0,
			"-0.022": 0.0,
			"-0.021": 0.0,
			"-0.02": 0.0,
			"-0.019": 0.0,
			"-0.018": 0.0,
			"-0.017": 0.0,
			"-0.016": 0.0,
			"-0.015": 0.0,
			"-0.014": 0.0,
			"-0.013": 0.0,
			"-0.012": 0.0,
			"-0.011": 0.118016284347,
			"-0.01": 0.430527631691,
			"-0.009": 0.738994944698,
			"-0.008": 4.51836263681,
			"-0.007": 6.74101395839,
			"-0.006": 11.8959187094,
			"-0.005": 23.5734354889,
			"-0.004": 23.9932881141,
			"-0.003": 25.0167472947,
			"-0.002": 14.0131273444,
			"-0.001": 11.4548942813,
			"0.0": 8.83842958219,
			"0.001": 9.87815368745,
			"0.002": 8.18282565746,
			"0.003": 8.61269293835,
			"0.004": 8.87488870118,
			"0.005": 9.71660794981,
			"0.006": 8.89135974782,
			"0.007": 2.79489534005,
			"0.008": 2.75283210978,
			"0.009": 3.34997789211,
			"0.01": 4.11428903175,
			"0.011": 5.69186070636,
			"0.012": 5.63400438716,
			"0.013": 3.9981968201,
			"0.014": 0.610713523688,
			"0.015": 0.0,
			"0.016": 0.0,
			"0.017": 0.0,
			"0.018": 0.0,
			"0.019": 0.0,
			"0.02": 0.0,
			"0.021": 0.0,
			"0.022": 0.0,
			"0.023": 0.0,
			"0.024": 0.0,
			"0.025": 0.0
		}
	}
}
