{
	 "smiles": "ClCC1=CN(N=C1C1=CC=CC=C1)C1=CC=CC=C1", 
	 "Tm": 361.15, 
	 "num_atms": 32, 
	 "gaussian": { 
		 "optdone": 1, 
		 "sigma_profile": "yes", 
		 "theory": "DFT", 
		 "functional": "B3LYP", 
		 "basiset": "6-31G**", 
		 "properties": { 
			 "R2extent": 7179.8188, 
			 "electric_dipole_moment_norm": 2.94797933846, 
			 "electric_quadrupole_moment_norm": 12.4995417152, 
			 "total_energy": -1187.22750769, 
			 "HOMO_LUMO_gap": 0.18085, 
			 "cosmo_polarized_energy": -11.34, 
			 "cosmo_cavitation_energy": 37.79, 
			 "cosmo_dispersion_energy": -27.23, 
			 "cosmo_repulsion_energy": 2.08, 
			 "cosmo_total_nonelectrostatic_energy": 12.64, 
			 "SMD_solvation_energy": 5.41 
		},
		"coords": [
			{
				"x": 2.9978478886,
				"y": 1.7800337202,
				"z": -0.7465881888,
				"element": "Cl" 
			},
			{
				"x": 2.3820685357,
				"y": 0.505787232,
				"z": 0.4496221393,
				"element": "C" 
			},
			{
				"x": 0.9816051845,
				"y": 0.0902706101,
				"z": 0.2046384449,
				"element": "C" 
			},
			{
				"x": -0.1445865633,
				"y": 0.6691629699,
				"z": 0.7572952124,
				"element": "C" 
			},
			{
				"x": -1.2186028637,
				"y": -0.0593679274,
				"z": 0.3479672859,
				"element": "N" 
			},
			{
				"x": -0.8491766454,
				"y": -1.0980433351,
				"z": -0.4431085084,
				"element": "N" 
			},
			{
				"x": 0.4787451395,
				"y": -1.0199672666,
				"z": -0.5485332732,
				"element": "C" 
			},
			{
				"x": 1.2145948515,
				"y": -2.0316220769,
				"z": -1.3290836399,
				"element": "C" 
			},
			{
				"x": 2.3981495866,
				"y": -1.7136274018,
				"z": -2.0156967656,
				"element": "C" 
			},
			{
				"x": 3.0766620658,
				"y": -2.6912809071,
				"z": -2.7447511184,
				"element": "C" 
			},
			{
				"x": 2.5827662459,
				"y": -3.9946752372,
				"z": -2.8063806112,
				"element": "C" 
			},
			{
				"x": 1.3987795193,
				"y": -4.3166206989,
				"z": -2.1371151012,
				"element": "C" 
			},
			{
				"x": 0.7213165472,
				"y": -3.3460079448,
				"z": -1.4040325173,
				"element": "C" 
			},
			{
				"x": -2.5888983611,
				"y": 0.1490928844,
				"z": 0.6600108151,
				"element": "C" 
			},
			{
				"x": -3.0342566506,
				"y": 1.4076517355,
				"z": 1.0794219731,
				"element": "C" 
			},
			{
				"x": -4.378168182,
				"y": 1.5887511525,
				"z": 1.4041068085,
				"element": "C" 
			},
			{
				"x": -5.2816015614,
				"y": 0.5305291264,
				"z": 1.2965437856,
				"element": "C" 
			},
			{
				"x": -4.8304032406,
				"y": -0.7169441808,
				"z": 0.8591690169,
				"element": "C" 
			},
			{
				"x": -3.4884131537,
				"y": -0.9162878102,
				"z": 0.5432412165,
				"element": "C" 
			},
			{
				"x": 3.0780669906,
				"y": -0.3264898268,
				"z": 0.3545565622,
				"element": "H" 
			},
			{
				"x": 2.5038335173,
				"y": 0.9722534622,
				"z": 1.4266864375,
				"element": "H" 
			},
			{
				"x": -0.2416312336,
				"y": 1.5123275534,
				"z": 1.4239368699,
				"element": "H" 
			},
			{
				"x": 2.7713340717,
				"y": -0.6946598159,
				"z": -2.0111670131,
				"element": "H" 
			},
			{
				"x": 3.9878414678,
				"y": -2.4278131631,
				"z": -3.2742133511,
				"element": "H" 
			},
			{
				"x": 3.1127998501,
				"y": -4.7536619756,
				"z": -3.374657974,
				"element": "H" 
			},
			{
				"x": 1.0056310714,
				"y": -5.3283729732,
				"z": -2.1827485107,
				"element": "H" 
			},
			{
				"x": -0.195274841,
				"y": -3.5916291095,
				"z": -0.8783187746,
				"element": "H" 
			},
			{
				"x": -2.3482107824,
				"y": 2.2462874595,
				"z": 1.1300317889,
				"element": "H" 
			},
			{
				"x": -4.7190079531,
				"y": 2.5674440377,
				"z": 1.728376677,
				"element": "H" 
			},
			{
				"x": -6.3281170106,
				"y": 0.6782778371,
				"z": 1.5445905288,
				"element": "H" 
			},
			{
				"x": -5.5260156048,
				"y": -1.5458242324,
				"z": 0.7672079491,
				"element": "H" 
			},
			{
				"x": -3.1229778861,
				"y": -1.8773738973,
				"z": 0.2038918356,
				"element": "H" 
			}
		],
		 "valence_orbital": [ 
			{
				"type": "occ",
				"energy": -0.26559,
				"method": "rhf"
			},
			{
				"type": "occ",
				"energy": -0.26247,
				"method": "rhf"
			},
			{
				"type": "occ",
				"energy": -0.24911,
				"method": "rhf"
			},
			{
				"type": "occ",
				"energy": -0.24683,
				"method": "rhf"
			},
			{
				"type": "occ",
				"energy": -0.21906,
				"method": "rhf"
			},
			{
				"type": "unocc",
				"energy": -0.03821,
				"method": "rhf"
			},
			{
				"type": "unocc",
				"energy": -0.02153,
				"method": "rhf"
			},
			{
				"type": "unocc",
				"energy": -0.01209,
				"method": "rhf"
			},
			{
				"type": "unocc",
				"energy": -6e-05,
				"method": "rhf"
			},
			{
				"type": "unocc",
				"energy": 0.01437,
				"method": "rhf"
			}
		],
		"cosmo_sigma_profile": { 
			"-0.025": 0.0,
			"-0.024": 0.0,
			"-0.023": 0.0,
			"-0.022": 0.0,
			"-0.021": 0.0,
			"-0.02": 0.0,
			"-0.019": 0.0,
			"-0.018": 0.0,
			"-0.017": 0.0,
			"-0.016": 0.0,
			"-0.015": 0.0,
			"-0.014": 0.0,
			"-0.013": 0.0,
			"-0.012": 0.0,
			"-0.011": 0.136310951566,
			"-0.01": 2.1494808746,
			"-0.009": 2.58304822739,
			"-0.008": 5.56317439865,
			"-0.007": 6.66255963529,
			"-0.006": 15.7957945377,
			"-0.005": 23.8472250497,
			"-0.004": 24.9033832002,
			"-0.003": 18.7400062276,
			"-0.002": 17.0894851597,
			"-0.001": 17.6685541647,
			"0.0": 19.9842118117,
			"0.001": 21.9789608859,
			"0.002": 26.5277153096,
			"0.003": 24.4289192911,
			"0.004": 28.9245790459,
			"0.005": 24.9065727118,
			"0.006": 11.88311195,
			"0.007": 7.71815520138,
			"0.008": 0.939824594541,
			"0.009": 1.16843683487,
			"0.01": 1.17473884733,
			"0.011": 0.511422141173,
			"0.012": 0.637553508575,
			"0.013": 0.245335150114,
			"0.014": 0.0,
			"0.015": 0.0,
			"0.016": 0.0,
			"0.017": 0.0,
			"0.018": 0.0,
			"0.019": 0.0,
			"0.02": 0.0,
			"0.021": 0.0,
			"0.022": 0.0,
			"0.023": 0.0,
			"0.024": 0.0,
			"0.025": 0.0
		}
	}
}
