{
	 "smiles": "CNCCOC(=O)C=C1CCC2C(C(O)CC3C2(C)CCCC3(C)C(=O)OC)C1C", 
	 "Tm": 388.15, 
	 "num_atms": 69, 
	 "gaussian": { 
		 "optdone": 1, 
		 "sigma_profile": "yes", 
		 "theory": "DFT", 
		 "functional": "B3LYP", 
		 "basiset": "6-31G**", 
		 "properties": { 
			 "R2extent": 18936.8571, 
			 "electric_dipole_moment_norm": 2.30999401081, 
			 "electric_quadrupole_moment_norm": 19.637673712, 
			 "total_energy": -1368.93746614, 
			 "HOMO_LUMO_gap": 0.18782, 
			 "cosmo_polarized_energy": -19.08, 
			 "cosmo_cavitation_energy": 61.72, 
			 "cosmo_dispersion_energy": -41.46, 
			 "cosmo_repulsion_energy": 3.12, 
			 "cosmo_total_nonelectrostatic_energy": 23.38, 
			 "SMD_solvation_energy": 9.65 
		},
		"coords": [
			{
				"x": 7.930438024,
				"y": 1.663231874,
				"z": -3.3381339011,
				"element": "C" 
			},
			{
				"x": 6.5970958396,
				"y": 1.7261021985,
				"z": -3.9212264536,
				"element": "N" 
			},
			{
				"x": 5.9883624974,
				"y": 0.4155454384,
				"z": -4.098448727,
				"element": "C" 
			},
			{
				"x": 4.5986951636,
				"y": 0.4991313646,
				"z": -4.720942674,
				"element": "C" 
			},
			{
				"x": 3.6721687764,
				"y": 1.2579688647,
				"z": -3.9268105452,
				"element": "O" 
			},
			{
				"x": 3.0715951371,
				"y": 0.5950403952,
				"z": -2.9014988367,
				"element": "C" 
			},
			{
				"x": 3.2865459693,
				"y": -0.5837091801,
				"z": -2.6661519974,
				"element": "O" 
			},
			{
				"x": 2.1766779906,
				"y": 1.5175488808,
				"z": -2.1774020128,
				"element": "C" 
			},
			{
				"x": 1.3459224376,
				"y": 1.2052915724,
				"z": -1.1613612014,
				"element": "C" 
			},
			{
				"x": 0.5251988081,
				"y": 2.2907076864,
				"z": -0.5044122999,
				"element": "C" 
			},
			{
				"x": -0.9719804038,
				"y": 1.9299177442,
				"z": -0.4195084841,
				"element": "C" 
			},
			{
				"x": -1.1850143782,
				"y": 0.5606768014,
				"z": 0.2563984296,
				"element": "C" 
			},
			{
				"x": -0.3886488006,
				"y": -0.4988802126,
				"z": -0.5432930473,
				"element": "C" 
			},
			{
				"x": -0.6672875146,
				"y": -1.9460453291,
				"z": -0.0791939241,
				"element": "C" 
			},
			{
				"x": -1.4501079402,
				"y": -2.5750187185,
				"z": -1.1077438479,
				"element": "O" 
			},
			{
				"x": -1.3811345681,
				"y": -1.9770573082,
				"z": 1.2731689312,
				"element": "C" 
			},
			{
				"x": -2.7411445184,
				"y": -1.2463209142,
				"z": 1.2343702317,
				"element": "C" 
			},
			{
				"x": -2.6827114626,
				"y": 0.1607462409,
				"z": 0.4854000537,
				"element": "C" 
			},
			{
				"x": -3.4447145459,
				"y": 0.0282109692,
				"z": -0.8550348891,
				"element": "C" 
			},
			{
				"x": -3.3672100304,
				"y": 1.2656443846,
				"z": 1.331545186,
				"element": "C" 
			},
			{
				"x": -4.7644151295,
				"y": 0.902511474,
				"z": 1.8713583093,
				"element": "C" 
			},
			{
				"x": -4.8688277781,
				"y": -0.5560761726,
				"z": 2.3721946095,
				"element": "C" 
			},
			{
				"x": -3.493195741,
				"y": -1.2286628664,
				"z": 2.6047193899,
				"element": "C" 
			},
			{
				"x": -3.7422042528,
				"y": -2.674196354,
				"z": 3.1094178479,
				"element": "C" 
			},
			{
				"x": -2.7224720096,
				"y": -0.5119135532,
				"z": 3.7235832747,
				"element": "C" 
			},
			{
				"x": -1.5562793913,
				"y": -0.1687454943,
				"z": 3.7103086227,
				"element": "O" 
			},
			{
				"x": -3.5063233775,
				"y": -0.3272650885,
				"z": 4.8135456469,
				"element": "O" 
			},
			{
				"x": -2.8634095415,
				"y": 0.2863890905,
				"z": 5.9421522509,
				"element": "C" 
			},
			{
				"x": 1.1388578122,
				"y": -0.1855478434,
				"z": -0.5917854549,
				"element": "C" 
			},
			{
				"x": 1.8702034895,
				"y": -0.3175819114,
				"z": 0.7641261654,
				"element": "C" 
			},
			{
				"x": 7.8631465538,
				"y": 1.2728055315,
				"z": -2.316159936,
				"element": "H" 
			},
			{
				"x": 8.6435174552,
				"y": 1.0213294578,
				"z": -3.8894494548,
				"element": "H" 
			},
			{
				"x": 8.3543401663,
				"y": 2.6704300186,
				"z": -3.2798365851,
				"element": "H" 
			},
			{
				"x": 6.6415468129,
				"y": 2.2034836039,
				"z": -4.8186056461,
				"element": "H" 
			},
			{
				"x": 5.9052963848,
				"y": -0.0672666266,
				"z": -3.1185740515,
				"element": "H" 
			},
			{
				"x": 6.5891283533,
				"y": -0.268410013,
				"z": -4.7335053313,
				"element": "H" 
			},
			{
				"x": 4.207469245,
				"y": -0.5100458319,
				"z": -4.8747349959,
				"element": "H" 
			},
			{
				"x": 4.6323814215,
				"y": 1.0230515797,
				"z": -5.6818576574,
				"element": "H" 
			},
			{
				"x": 2.2285276908,
				"y": 2.5465263556,
				"z": -2.5221145184,
				"element": "H" 
			},
			{
				"x": 0.9011503659,
				"y": 2.44063561,
				"z": 0.5182845941,
				"element": "H" 
			},
			{
				"x": 0.6612860097,
				"y": 3.2421458826,
				"z": -1.0291636235,
				"element": "H" 
			},
			{
				"x": -1.3898816242,
				"y": 1.9172508763,
				"z": -1.433928211,
				"element": "H" 
			},
			{
				"x": -1.4863857194,
				"y": 2.7265993051,
				"z": 0.1262645096,
				"element": "H" 
			},
			{
				"x": -0.7502737433,
				"y": 0.6311867951,
				"z": 1.26239375,
				"element": "H" 
			},
			{
				"x": -0.7314071144,
				"y": -0.4593047048,
				"z": -1.5845387579,
				"element": "H" 
			},
			{
				"x": 0.2846258334,
				"y": -2.4904856684,
				"z": 0.0125875829,
				"element": "H" 
			},
			{
				"x": -1.6183034774,
				"y": -3.4862015287,
				"z": -0.8325568807,
				"element": "H" 
			},
			{
				"x": -1.536158834,
				"y": -3.0243171338,
				"z": 1.5644481001,
				"element": "H" 
			},
			{
				"x": -0.7268564845,
				"y": -1.5395434708,
				"z": 2.0305031197,
				"element": "H" 
			},
			{
				"x": -3.3861471251,
				"y": -1.8773707011,
				"z": 0.6109825922,
				"element": "H" 
			},
			{
				"x": -3.4157698234,
				"y": 0.9601412657,
				"z": -1.429563457,
				"element": "H" 
			},
			{
				"x": -4.4999100533,
				"y": -0.2049662109,
				"z": -0.6741333561,
				"element": "H" 
			},
			{
				"x": -3.0342237959,
				"y": -0.7759082598,
				"z": -1.4693334536,
				"element": "H" 
			},
			{
				"x": -3.4594854949,
				"y": 2.1768509233,
				"z": 0.7313930481,
				"element": "H" 
			},
			{
				"x": -2.7102733221,
				"y": 1.5254992474,
				"z": 2.1681835691,
				"element": "H" 
			},
			{
				"x": -5.5221525533,
				"y": 1.0723764888,
				"z": 1.098868515,
				"element": "H" 
			},
			{
				"x": -5.0084633594,
				"y": 1.5947455582,
				"z": 2.6852883809,
				"element": "H" 
			},
			{
				"x": -5.3863255781,
				"y": -1.1717192486,
				"z": 1.6263515033,
				"element": "H" 
			},
			{
				"x": -5.4659767068,
				"y": -0.6077578829,
				"z": 3.2862549539,
				"element": "H" 
			},
			{
				"x": -4.2360904919,
				"y": -3.2592583842,
				"z": 2.3262892637,
				"element": "H" 
			},
			{
				"x": -4.3897789181,
				"y": -2.6646191992,
				"z": 3.989828055,
				"element": "H" 
			},
			{
				"x": -2.8141240837,
				"y": -3.1851550981,
				"z": 3.3802511338,
				"element": "H" 
			},
			{
				"x": -2.4946894786,
				"y": 1.2817750778,
				"z": 5.6821190009,
				"element": "H" 
			},
			{
				"x": -2.0212663757,
				"y": -0.32045779,
				"z": 6.2841112184,
				"element": "H" 
			},
			{
				"x": -3.627932203,
				"y": 0.3517977539,
				"z": 6.7163819037,
				"element": "H" 
			},
			{
				"x": 1.5987543237,
				"y": -0.905729959,
				"z": -1.2703471374,
				"element": "H" 
			},
			{
				"x": 2.9398804692,
				"y": -0.1364518578,
				"z": 0.6234888342,
				"element": "H" 
			},
			{
				"x": 1.7602944175,
				"y": -1.3273455752,
				"z": 1.1713735257,
				"element": "H" 
			},
			{
				"x": 1.5045502962,
				"y": 0.3843397799,
				"z": 1.5191152465,
				"element": "H" 
			}
		],
		 "valence_orbital": [ 
			{
				"type": "occ",
				"energy": -0.2636,
				"method": "rhf"
			},
			{
				"type": "occ",
				"energy": -0.25613,
				"method": "rhf"
			},
			{
				"type": "occ",
				"energy": -0.24776,
				"method": "rhf"
			},
			{
				"type": "occ",
				"energy": -0.24266,
				"method": "rhf"
			},
			{
				"type": "occ",
				"energy": -0.21457,
				"method": "rhf"
			},
			{
				"type": "unocc",
				"energy": -0.02675,
				"method": "rhf"
			},
			{
				"type": "unocc",
				"energy": 0.00757,
				"method": "rhf"
			},
			{
				"type": "unocc",
				"energy": 0.07001,
				"method": "rhf"
			},
			{
				"type": "unocc",
				"energy": 0.0817,
				"method": "rhf"
			},
			{
				"type": "unocc",
				"energy": 0.08985,
				"method": "rhf"
			}
		],
		"cosmo_sigma_profile": { 
			"-0.025": 0.0,
			"-0.024": 0.0,
			"-0.023": 0.0,
			"-0.022": 0.0,
			"-0.021": 0.0,
			"-0.02": 0.0,
			"-0.019": 0.0,
			"-0.018": 0.0,
			"-0.017": 0.0,
			"-0.016": 0.0,
			"-0.015": 0.432477611667,
			"-0.014": 0.786800646245,
			"-0.013": 0.944841959681,
			"-0.012": 1.25171133186,
			"-0.011": 0.652230584965,
			"-0.01": 1.70286038613,
			"-0.009": 2.5532497243,
			"-0.008": 3.17600745234,
			"-0.007": 3.25547007901,
			"-0.006": 7.71029953655,
			"-0.005": 14.5765222142,
			"-0.004": 27.7622774862,
			"-0.003": 56.3522972603,
			"-0.002": 67.3154763863,
			"-0.001": 67.636029756,
			"0.0": 60.5164383781,
			"0.001": 44.0101005958,
			"0.002": 24.9279727336,
			"0.003": 14.9064312512,
			"0.004": 12.6077182638,
			"0.005": 9.49741589683,
			"0.006": 8.46588826476,
			"0.007": 7.20784523814,
			"0.008": 6.97883608935,
			"0.009": 6.43001600452,
			"0.01": 4.47762269974,
			"0.011": 5.54076161483,
			"0.012": 6.46975448617,
			"0.013": 3.29777750657,
			"0.014": 1.56353947805,
			"0.015": 1.14881296195,
			"0.016": 0.511233199257,
			"0.017": 0.525930134257,
			"0.018": 0.38996693281,
			"0.019": 0.0567865194519,
			"0.02": 0.0,
			"0.021": 0.0,
			"0.022": 0.0,
			"0.023": 0.0,
			"0.024": 0.0,
			"0.025": 0.0
		}
	}
}
