{
	 "smiles": "CCC1=CC=CC(CC)=C1NC(=O)CN(CC(O)=O)CC(O)=O", 
	 "Tm": 461.15, 
	 "num_atms": 45, 
	 "gaussian": { 
		 "optdone": 1, 
		 "sigma_profile": "yes", 
		 "theory": "DFT", 
		 "functional": "B3LYP", 
		 "basiset": "6-31G**", 
		 "properties": { 
			 "R2extent": 7610.425, 
			 "electric_dipole_moment_norm": 2.71897947032, 
			 "electric_quadrupole_moment_norm": 19.401476699, 
			 "total_energy": -1108.61291745, 
			 "HOMO_LUMO_gap": 0.22574, 
			 "cosmo_polarized_energy": -28.9, 
			 "cosmo_cavitation_energy": 46.87, 
			 "cosmo_dispersion_energy": -29.89, 
			 "cosmo_repulsion_energy": 2.31, 
			 "cosmo_total_nonelectrostatic_energy": 19.29, 
			 "SMD_solvation_energy": 10.18 
		},
		"coords": [
			{
				"x": -1.2690519929,
				"y": -2.2012477592,
				"z": -3.1885138944,
				"element": "C" 
			},
			{
				"x": -1.361774058,
				"y": -2.8554052904,
				"z": -1.7983918112,
				"element": "C" 
			},
			{
				"x": -1.9737493924,
				"y": -1.9615386491,
				"z": -0.7352471418,
				"element": "C" 
			},
			{
				"x": -3.3264550669,
				"y": -1.6107867529,
				"z": -0.8374208803,
				"element": "C" 
			},
			{
				"x": -3.9429125882,
				"y": -0.8312132911,
				"z": 0.1361720972,
				"element": "C" 
			},
			{
				"x": -3.2158125339,
				"y": -0.4003344649,
				"z": 1.2432241695,
				"element": "C" 
			},
			{
				"x": -1.861928756,
				"y": -0.7197768386,
				"z": 1.3877641654,
				"element": "C" 
			},
			{
				"x": -1.1143190606,
				"y": -0.2470925419,
				"z": 2.6197878158,
				"element": "C" 
			},
			{
				"x": -0.5132594347,
				"y": 1.16462582,
				"z": 2.4888742118,
				"element": "C" 
			},
			{
				"x": -1.2459220246,
				"y": -1.4861419469,
				"z": 0.3749555253,
				"element": "C" 
			},
			{
				"x": 0.1372080401,
				"y": -1.8490633572,
				"z": 0.5315276934,
				"element": "N" 
			},
			{
				"x": 1.2673693557,
				"y": -1.2321202004,
				"z": 0.0634183078,
				"element": "C" 
			},
			{
				"x": 2.3753184041,
				"y": -1.6067525334,
				"z": 0.4433329223,
				"element": "O" 
			},
			{
				"x": 1.0883422964,
				"y": -0.1342225954,
				"z": -0.990843891,
				"element": "C" 
			},
			{
				"x": 1.7503444331,
				"y": 1.1271228044,
				"z": -0.6231806087,
				"element": "N" 
			},
			{
				"x": 3.2058785385,
				"y": 1.0107890117,
				"z": -0.5802124925,
				"element": "C" 
			},
			{
				"x": 3.8768282043,
				"y": 2.1386628855,
				"z": 0.1785270441,
				"element": "C" 
			},
			{
				"x": 5.1896913909,
				"y": 1.8642808649,
				"z": 0.3571982917,
				"element": "O" 
			},
			{
				"x": 3.3673182967,
				"y": 3.167642327,
				"z": 0.5680526653,
				"element": "O" 
			},
			{
				"x": 1.3407665306,
				"y": 2.228771485,
				"z": -1.4816587101,
				"element": "C" 
			},
			{
				"x": -0.116414233,
				"y": 2.6626566125,
				"z": -1.3348051555,
				"element": "C" 
			},
			{
				"x": -0.4273174456,
				"y": 3.7737153385,
				"z": -2.056131082,
				"element": "O" 
			},
			{
				"x": -0.9664024426,
				"y": 2.1116590826,
				"z": -0.684055814,
				"element": "O" 
			},
			{
				"x": -0.6299739662,
				"y": -1.3132646108,
				"z": -3.1711830664,
				"element": "H" 
			},
			{
				"x": -0.8512748186,
				"y": -2.9033317991,
				"z": -3.9175778957,
				"element": "H" 
			},
			{
				"x": -2.254009657,
				"y": -1.8891417397,
				"z": -3.5496068448,
				"element": "H" 
			},
			{
				"x": -1.9752142137,
				"y": -3.7620208837,
				"z": -1.8803861631,
				"element": "H" 
			},
			{
				"x": -0.3686778624,
				"y": -3.1830049152,
				"z": -1.480902088,
				"element": "H" 
			},
			{
				"x": -3.9030691685,
				"y": -1.9713660448,
				"z": -1.6855069103,
				"element": "H" 
			},
			{
				"x": -4.9939280642,
				"y": -0.5732457682,
				"z": 0.0416337411,
				"element": "H" 
			},
			{
				"x": -3.7021144082,
				"y": 0.1913999071,
				"z": 2.0143728579,
				"element": "H" 
			},
			{
				"x": -0.3158852589,
				"y": -0.9528368966,
				"z": 2.8714319654,
				"element": "H" 
			},
			{
				"x": -1.8136429443,
				"y": -0.2593921804,
				"z": 3.4644702682,
				"element": "H" 
			},
			{
				"x": -0.0427159033,
				"y": 1.4609411047,
				"z": 3.4326163127,
				"element": "H" 
			},
			{
				"x": -1.2879297423,
				"y": 1.8971893026,
				"z": 2.2447437928,
				"element": "H" 
			},
			{
				"x": 0.2390373906,
				"y": 1.2144807196,
				"z": 1.6980578624,
				"element": "H" 
			},
			{
				"x": 0.3618767622,
				"y": -2.5647202936,
				"z": 1.2149092455,
				"element": "H" 
			},
			{
				"x": 0.0307033117,
				"y": 0.0809223854,
				"z": -1.1258663036,
				"element": "H" 
			},
			{
				"x": 1.485472969,
				"y": -0.5439254161,
				"z": -1.9403320344,
				"element": "H" 
			},
			{
				"x": 3.6666036,
				"y": 0.9736097111,
				"z": -1.5879582485,
				"element": "H" 
			},
			{
				"x": 3.4628569716,
				"y": 0.0688480552,
				"z": -0.0910777735,
				"element": "H" 
			},
			{
				"x": 5.5642497087,
				"y": 2.6261271164,
				"z": 0.8304229126,
				"element": "H" 
			},
			{
				"x": 1.5131432973,
				"y": 2.0170058607,
				"z": -2.5591222547,
				"element": "H" 
			},
			{
				"x": 1.9550160289,
				"y": 3.0948608083,
				"z": -1.2179106554,
				"element": "H" 
			},
			{
				"x": 0.3599295068,
				"y": 4.1276355663,
				"z": -2.4950021484,
				"element": "H" 
			}
		],
		 "valence_orbital": [ 
			{
				"type": "occ",
				"energy": -0.26309,
				"method": "rhf"
			},
			{
				"type": "occ",
				"energy": -0.2572,
				"method": "rhf"
			},
			{
				"type": "occ",
				"energy": -0.24064,
				"method": "rhf"
			},
			{
				"type": "occ",
				"energy": -0.23513,
				"method": "rhf"
			},
			{
				"type": "occ",
				"energy": -0.23104,
				"method": "rhf"
			},
			{
				"type": "unocc",
				"energy": -0.0053,
				"method": "rhf"
			},
			{
				"type": "unocc",
				"energy": -0.00277,
				"method": "rhf"
			},
			{
				"type": "unocc",
				"energy": 0.0041,
				"method": "rhf"
			},
			{
				"type": "unocc",
				"energy": 0.00914,
				"method": "rhf"
			},
			{
				"type": "unocc",
				"energy": 0.01689,
				"method": "rhf"
			}
		],
		"cosmo_sigma_profile": { 
			"-0.025": 0.0,
			"-0.024": 0.0,
			"-0.023": 0.0,
			"-0.022": 0.0,
			"-0.021": 0.0,
			"-0.02": 0.00942701225669,
			"-0.019": 1.18168163938,
			"-0.018": 1.86911262375,
			"-0.017": 2.30997031178,
			"-0.016": 1.88450632065,
			"-0.015": 2.18989563841,
			"-0.014": 1.92533968465,
			"-0.013": 2.717006884,
			"-0.012": 2.23493345855,
			"-0.011": 3.33903964283,
			"-0.01": 2.66788239613,
			"-0.009": 2.94039385007,
			"-0.008": 3.73207160002,
			"-0.007": 5.57319501474,
			"-0.006": 15.2245912909,
			"-0.005": 18.9688895517,
			"-0.004": 24.6012249629,
			"-0.003": 30.116347023,
			"-0.002": 29.645111328,
			"-0.001": 31.7644423686,
			"0.0": 28.9336384105,
			"0.001": 25.743411231,
			"0.002": 16.5148143459,
			"0.003": 14.4272342222,
			"0.004": 13.2405269096,
			"0.005": 12.1484082173,
			"0.006": 10.3335426133,
			"0.007": 11.257764066,
			"0.008": 8.6490995702,
			"0.009": 11.4512024101,
			"0.01": 10.1118211794,
			"0.011": 9.03791924543,
			"0.012": 5.56493733657,
			"0.013": 4.17298806143,
			"0.014": 1.3086607419,
			"0.015": 0.0,
			"0.016": 0.0,
			"0.017": 0.0,
			"0.018": 0.0,
			"0.019": 0.0,
			"0.02": 0.0,
			"0.021": 0.0,
			"0.022": 0.0,
			"0.023": 0.0,
			"0.024": 0.0,
			"0.025": 0.0
		}
	}
}
