{
	 "smiles": "OCCN1N=CC=C1C1CCNCC1", 
	 "Tm": 400.15, 
	 "num_atms": 31, 
	 "gaussian": { 
		 "optdone": 1, 
		 "sigma_profile": "yes", 
		 "theory": "DFT", 
		 "functional": "B3LYP", 
		 "basiset": "6-31G**", 
		 "properties": { 
			 "R2extent": 3430.3365, 
			 "electric_dipole_moment_norm": 3.11226705152, 
			 "electric_quadrupole_moment_norm": 19.0393067203, 
			 "total_energy": -630.742490982, 
			 "HOMO_LUMO_gap": 0.24623, 
			 "cosmo_polarized_energy": -18.64, 
			 "cosmo_cavitation_energy": 31.99, 
			 "cosmo_dispersion_energy": -22.6, 
			 "cosmo_repulsion_energy": 1.81, 
			 "cosmo_total_nonelectrostatic_energy": 11.2, 
			 "SMD_solvation_energy": 1.44 
		},
		"coords": [
			{
				"x": 0.7352603895,
				"y": 0.8430933481,
				"z": 3.7599752868,
				"element": "O" 
			},
			{
				"x": -0.2957145915,
				"y": 0.7246414368,
				"z": 2.8004754823,
				"element": "C" 
			},
			{
				"x": -0.4467142891,
				"y": -0.7499653927,
				"z": 2.4273395191,
				"element": "C" 
			},
			{
				"x": 0.6756476404,
				"y": -1.2998971169,
				"z": 1.683679813,
				"element": "N" 
			},
			{
				"x": 1.6470291323,
				"y": -1.9570533742,
				"z": 2.3647089776,
				"element": "N" 
			},
			{
				"x": 2.5464737052,
				"y": -2.279958506,
				"z": 1.4404261182,
				"element": "C" 
			},
			{
				"x": 2.1659711484,
				"y": -1.8336957543,
				"z": 0.1573294314,
				"element": "C" 
			},
			{
				"x": 0.9470808107,
				"y": -1.1986246093,
				"z": 0.342768148,
				"element": "C" 
			},
			{
				"x": 0.0074620842,
				"y": -0.5767670661,
				"z": -0.6553729692,
				"element": "C" 
			},
			{
				"x": 0.7425824966,
				"y": 0.0471004573,
				"z": -1.8553191791,
				"element": "C" 
			},
			{
				"x": -0.253588306,
				"y": 0.834443815,
				"z": -2.7504553179,
				"element": "C" 
			},
			{
				"x": -1.6395011068,
				"y": 0.3419007077,
				"z": -2.700651909,
				"element": "N" 
			},
			{
				"x": -1.6926682027,
				"y": -1.1075682547,
				"z": -2.5086197527,
				"element": "C" 
			},
			{
				"x": -1.0438148588,
				"y": -1.5969371051,
				"z": -1.1826638543,
				"element": "C" 
			},
			{
				"x": 0.9350822852,
				"y": 1.7791847396,
				"z": 3.8797989722,
				"element": "H" 
			},
			{
				"x": -0.0813293867,
				"y": 1.3144775178,
				"z": 1.8953778845,
				"element": "H" 
			},
			{
				"x": -1.266456164,
				"y": 1.0702765156,
				"z": 3.196390401,
				"element": "H" 
			},
			{
				"x": -0.5289191653,
				"y": -1.3420146136,
				"z": 3.3410506298,
				"element": "H" 
			},
			{
				"x": -1.3650448584,
				"y": -0.8824433062,
				"z": 1.8463629072,
				"element": "H" 
			},
			{
				"x": 3.4355102772,
				"y": -2.8258887207,
				"z": 1.7280205595,
				"element": "H" 
			},
			{
				"x": 2.6961049564,
				"y": -1.9615505297,
				"z": -0.7747829005,
				"element": "H" 
			},
			{
				"x": -0.536763028,
				"y": 0.2366499746,
				"z": -0.1558853255,
				"element": "H" 
			},
			{
				"x": 1.2160860378,
				"y": -0.7553798211,
				"z": -2.4343821054,
				"element": "H" 
			},
			{
				"x": 1.5517778515,
				"y": 0.7018972435,
				"z": -1.515720288,
				"element": "H" 
			},
			{
				"x": 0.0934325153,
				"y": 0.8029809026,
				"z": -3.7918429999,
				"element": "H" 
			},
			{
				"x": -0.2671797815,
				"y": 1.8907144107,
				"z": -2.4597767215,
				"element": "H" 
			},
			{
				"x": -2.1350081829,
				"y": 0.7975573388,
				"z": -1.9388966007,
				"element": "H" 
			},
			{
				"x": -1.1786197586,
				"y": -1.5647913677,
				"z": -3.3631721897,
				"element": "H" 
			},
			{
				"x": -2.7361551701,
				"y": -1.4347395584,
				"z": -2.5683771484,
				"element": "H" 
			},
			{
				"x": -1.8109092881,
				"y": -1.7605853606,
				"z": -0.4154700938,
				"element": "H" 
			},
			{
				"x": -0.5532151926,
				"y": -2.5644579506,
				"z": -1.3392147749,
				"element": "H" 
			}
		],
		 "valence_orbital": [ 
			{
				"type": "occ",
				"energy": -0.27438,
				"method": "rhf"
			},
			{
				"type": "occ",
				"energy": -0.26843,
				"method": "rhf"
			},
			{
				"type": "occ",
				"energy": -0.2347,
				"method": "rhf"
			},
			{
				"type": "occ",
				"energy": -0.22478,
				"method": "rhf"
			},
			{
				"type": "occ",
				"energy": -0.21864,
				"method": "rhf"
			},
			{
				"type": "unocc",
				"energy": 0.02759,
				"method": "rhf"
			},
			{
				"type": "unocc",
				"energy": 0.05619,
				"method": "rhf"
			},
			{
				"type": "unocc",
				"energy": 0.07195,
				"method": "rhf"
			},
			{
				"type": "unocc",
				"energy": 0.08235,
				"method": "rhf"
			},
			{
				"type": "unocc",
				"energy": 0.09373,
				"method": "rhf"
			}
		],
		"cosmo_sigma_profile": { 
			"-0.025": 0.0,
			"-0.024": 0.0,
			"-0.023": 0.0,
			"-0.022": 0.0,
			"-0.021": 0.0,
			"-0.02": 0.0,
			"-0.019": 0.0,
			"-0.018": 0.0,
			"-0.017": 0.0122010615729,
			"-0.016": 0.654496874768,
			"-0.015": 1.15226558866,
			"-0.014": 1.15722914766,
			"-0.013": 0.651724296827,
			"-0.012": 1.0376862323,
			"-0.011": 0.946593412464,
			"-0.01": 1.11372339643,
			"-0.009": 1.90948292393,
			"-0.008": 2.45994597571,
			"-0.007": 4.49500691851,
			"-0.006": 11.8183414285,
			"-0.005": 15.9864184642,
			"-0.004": 20.524531675,
			"-0.003": 30.7238169911,
			"-0.002": 31.7268260072,
			"-0.001": 20.9542374176,
			"0.0": 19.4421136028,
			"0.001": 11.014501014,
			"0.002": 7.16104097872,
			"0.003": 6.95254129989,
			"0.004": 5.40304995274,
			"0.005": 7.24359672071,
			"0.006": 7.48482608727,
			"0.007": 6.02211898274,
			"0.008": 3.47702295765,
			"0.009": 3.10048429286,
			"0.01": 3.40040567486,
			"0.011": 3.22461055364,
			"0.012": 2.91698407578,
			"0.013": 3.15180990048,
			"0.014": 3.64217565961,
			"0.015": 3.24683094627,
			"0.016": 2.93360358458,
			"0.017": 0.678396119448,
			"0.018": 0.494098187543,
			"0.019": 0.296777760884,
			"0.02": 0.0,
			"0.021": 0.0,
			"0.022": 0.0,
			"0.023": 0.0,
			"0.024": 0.0,
			"0.025": 0.0
		}
	}
}
