{
	 "smiles": "CCC1=CC=C(C=C1)C1=CC=C(O1)C(O)=O", 
	 "Tm": 444.15, 
	 "num_atms": 28, 
	 "gaussian": { 
		 "optdone": 1, 
		 "sigma_profile": "yes", 
		 "theory": "DFT", 
		 "functional": "B3LYP", 
		 "basiset": "6-31G**", 
		 "properties": { 
			 "R2extent": 5665.664, 
			 "electric_dipole_moment_norm": 6.34858244414, 
			 "electric_quadrupole_moment_norm": 19.8620884436, 
			 "total_energy": -728.294736121, 
			 "HOMO_LUMO_gap": 0.15823, 
			 "cosmo_polarized_energy": -13.69, 
			 "cosmo_cavitation_energy": 33.02, 
			 "cosmo_dispersion_energy": -23.66, 
			 "cosmo_repulsion_energy": 1.84, 
			 "cosmo_total_nonelectrostatic_energy": 11.19, 
			 "SMD_solvation_energy": 7.13 
		},
		"coords": [
			{
				"x": 2.0080550663,
				"y": 2.5825738621,
				"z": 4.1353944383,
				"element": "C" 
			},
			{
				"x": 0.5358391657,
				"y": 2.6898513363,
				"z": 3.6962733053,
				"element": "C" 
			},
			{
				"x": 0.3026684336,
				"y": 2.1716891783,
				"z": 2.294215333,
				"element": "C" 
			},
			{
				"x": -0.0158017153,
				"y": 0.8267034998,
				"z": 2.0621047037,
				"element": "C" 
			},
			{
				"x": -0.1940518419,
				"y": 0.3361111447,
				"z": 0.7721884615,
				"element": "C" 
			},
			{
				"x": -0.0587373779,
				"y": 1.1842776062,
				"z": -0.3403118694,
				"element": "C" 
			},
			{
				"x": 0.2587879436,
				"y": 2.5355353288,
				"z": -0.1130643214,
				"element": "C" 
			},
			{
				"x": 0.434519273,
				"y": 3.0141116713,
				"z": 1.1801616146,
				"element": "C" 
			},
			{
				"x": -0.2452825372,
				"y": 0.6898600658,
				"z": -1.6978611775,
				"element": "C" 
			},
			{
				"x": -0.1797103752,
				"y": 1.2846906763,
				"z": -2.9390011227,
				"element": "C" 
			},
			{
				"x": -0.4587191589,
				"y": 0.2784470876,
				"z": -3.9014147092,
				"element": "C" 
			},
			{
				"x": -0.6799598654,
				"y": -0.8766178864,
				"z": -3.2034440966,
				"element": "C" 
			},
			{
				"x": -0.5517570933,
				"y": -0.6352970068,
				"z": -1.855130623,
				"element": "O" 
			},
			{
				"x": -1.0098458192,
				"y": -2.2382261043,
				"z": -3.6439387371,
				"element": "C" 
			},
			{
				"x": -1.1609256491,
				"y": -3.1545368259,
				"z": -2.6540666963,
				"element": "O" 
			},
			{
				"x": -1.1407630197,
				"y": -2.5355491315,
				"z": -4.8095541286,
				"element": "O" 
			},
			{
				"x": 2.3482161452,
				"y": 1.5421901197,
				"z": 4.1171934878,
				"element": "H" 
			},
			{
				"x": 2.6596800336,
				"y": 3.156049251,
				"z": 3.468290925,
				"element": "H" 
			},
			{
				"x": 2.1405958251,
				"y": 2.9660081619,
				"z": 5.1523024122,
				"element": "H" 
			},
			{
				"x": 0.2170933644,
				"y": 3.7372887162,
				"z": 3.7561082028,
				"element": "H" 
			},
			{
				"x": -0.0923273328,
				"y": 2.1318724161,
				"z": 4.4006400348,
				"element": "H" 
			},
			{
				"x": -0.1304192229,
				"y": 0.1521514771,
				"z": 2.9071175749,
				"element": "H" 
			},
			{
				"x": -0.4440082324,
				"y": -0.7084771535,
				"z": 0.6225095875,
				"element": "H" 
			},
			{
				"x": 0.364311421,
				"y": 3.2160685048,
				"z": -0.9523807305,
				"element": "H" 
			},
			{
				"x": 0.6748811187,
				"y": 4.0637843686,
				"z": 1.3303034732,
				"element": "H" 
			},
			{
				"x": 0.0425336178,
				"y": 2.3227274491,
				"z": -3.1369887122,
				"element": "H" 
			},
			{
				"x": -0.4959941954,
				"y": 0.3753050194,
				"z": -4.9761520047,
				"element": "H" 
			},
			{
				"x": -1.0181779717,
				"y": -2.7301928327,
				"z": -1.7938946256,
				"element": "H" 
			}
		],
		 "valence_orbital": [ 
			{
				"type": "occ",
				"energy": -0.30176,
				"method": "rhf"
			},
			{
				"type": "occ",
				"energy": -0.2838,
				"method": "rhf"
			},
			{
				"type": "occ",
				"energy": -0.27332,
				"method": "rhf"
			},
			{
				"type": "occ",
				"energy": -0.26522,
				"method": "rhf"
			},
			{
				"type": "occ",
				"energy": -0.22096,
				"method": "rhf"
			},
			{
				"type": "unocc",
				"energy": -0.06273,
				"method": "rhf"
			},
			{
				"type": "unocc",
				"energy": -0.01709,
				"method": "rhf"
			},
			{
				"type": "unocc",
				"energy": -0.00986,
				"method": "rhf"
			},
			{
				"type": "unocc",
				"energy": 0.05729,
				"method": "rhf"
			},
			{
				"type": "unocc",
				"energy": 0.06396,
				"method": "rhf"
			}
		],
		"cosmo_sigma_profile": { 
			"-0.025": 0.0,
			"-0.024": 0.0,
			"-0.023": 0.0,
			"-0.022": 0.0,
			"-0.021": 0.0,
			"-0.02": 0.0,
			"-0.019": 0.0,
			"-0.018": 0.0,
			"-0.017": 0.0327400995933,
			"-0.016": 0.611670159345,
			"-0.015": 0.470589842416,
			"-0.014": 0.696503362682,
			"-0.013": 0.449909755646,
			"-0.012": 1.01940904911,
			"-0.011": 1.16783532497,
			"-0.01": 1.02039127928,
			"-0.009": 2.09551568826,
			"-0.008": 4.94474377382,
			"-0.007": 6.10881352991,
			"-0.006": 9.58130352672,
			"-0.005": 12.8347765784,
			"-0.004": 16.3272938805,
			"-0.003": 22.0619655691,
			"-0.002": 21.455120847,
			"-0.001": 22.6190440173,
			"0.0": 29.6304457396,
			"0.001": 27.2187487914,
			"0.002": 18.8881018993,
			"0.003": 14.198281805,
			"0.004": 11.7334685206,
			"0.005": 9.49110811201,
			"0.006": 2.40994033568,
			"0.007": 2.2494411245,
			"0.008": 3.0881996642,
			"0.009": 3.29443863972,
			"0.01": 5.05578504329,
			"0.011": 4.55221166426,
			"0.012": 6.02174157646,
			"0.013": 1.93550077877,
			"0.014": 0.104830481059,
			"0.015": 0.0,
			"0.016": 0.0,
			"0.017": 0.0,
			"0.018": 0.0,
			"0.019": 0.0,
			"0.02": 0.0,
			"0.021": 0.0,
			"0.022": 0.0,
			"0.023": 0.0,
			"0.024": 0.0,
			"0.025": 0.0
		}
	}
}
