{
	 "smiles": "CC1=CC=C(S1)C=C1CCCC(=C/C2=CC=C(C)S2)C1=O", 
	 "Tm": 439.0, 
	 "num_atms": 39, 
	 "gaussian": { 
		 "optdone": 1, 
		 "sigma_profile": "yes", 
		 "theory": "DFT", 
		 "functional": "B3LYP", 
		 "basiset": "6-31G**", 
		 "properties": { 
			 "R2extent": 12748.8949, 
			 "electric_dipole_moment_norm": 2.00450108007, 
			 "electric_quadrupole_moment_norm": 23.7553089426, 
			 "total_energy": -1568.33420996, 
			 "HOMO_LUMO_gap": 0.12334, 
			 "cosmo_polarized_energy": -10.85, 
			 "cosmo_cavitation_energy": 44.61, 
			 "cosmo_dispersion_energy": -33.43, 
			 "cosmo_repulsion_energy": 2.45, 
			 "cosmo_total_nonelectrostatic_energy": 13.64, 
			 "SMD_solvation_energy": 6.73 
		},
		"coords": [
			{
				"x": -6.1427575065,
				"y": 2.2016645564,
				"z": -2.9904645247,
				"element": "C" 
			},
			{
				"x": -4.8493882653,
				"y": 1.7694484991,
				"z": -2.3684332765,
				"element": "C" 
			},
			{
				"x": -3.7087466099,
				"y": 1.3316920792,
				"z": -3.000170487,
				"element": "C" 
			},
			{
				"x": -2.6460591208,
				"y": 0.9945575145,
				"z": -2.1244232815,
				"element": "C" 
			},
			{
				"x": -2.9573878678,
				"y": 1.1652150506,
				"z": -0.7860514038,
				"element": "C" 
			},
			{
				"x": -4.6182039463,
				"y": 1.7708118552,
				"z": -0.6471471993,
				"element": "S" 
			},
			{
				"x": -2.261551601,
				"y": 0.9813873616,
				"z": 0.4661074172,
				"element": "C" 
			},
			{
				"x": -1.0642276279,
				"y": 0.4482908638,
				"z": 0.8567667423,
				"element": "C" 
			},
			{
				"x": -0.7347714702,
				"y": 0.4621444129,
				"z": 2.3403204715,
				"element": "C" 
			},
			{
				"x": -0.1522518516,
				"y": -0.8798317804,
				"z": 2.7893923302,
				"element": "C" 
			},
			{
				"x": 1.1693620163,
				"y": -1.1397324884,
				"z": 2.061636318,
				"element": "C" 
			},
			{
				"x": 1.0787424532,
				"y": -0.934151974,
				"z": 0.5658789873,
				"element": "C" 
			},
			{
				"x": 1.990652486,
				"y": -1.424031888,
				"z": -0.3159519384,
				"element": "C" 
			},
			{
				"x": 3.2008805904,
				"y": -2.1679038951,
				"z": -0.0671500294,
				"element": "C" 
			},
			{
				"x": 3.9362054117,
				"y": -2.4244848329,
				"z": 1.078491095,
				"element": "C" 
			},
			{
				"x": 5.1025443469,
				"y": -3.1996612815,
				"z": 0.846547095,
				"element": "C" 
			},
			{
				"x": 5.2882119092,
				"y": -3.5512504208,
				"z": -0.4690480139,
				"element": "C" 
			},
			{
				"x": 6.3980042083,
				"y": -4.3668390731,
				"z": -1.0606536583,
				"element": "C" 
			},
			{
				"x": 4.0040942958,
				"y": -2.9096620925,
				"z": -1.4515676401,
				"element": "S" 
			},
			{
				"x": -0.0631427661,
				"y": -0.1682408485,
				"z": -0.0475041361,
				"element": "C" 
			},
			{
				"x": -0.143745606,
				"y": -0.0700827362,
				"z": -1.2770923091,
				"element": "O" 
			},
			{
				"x": -6.9815096578,
				"y": 1.5753907479,
				"z": -2.6653633531,
				"element": "H" 
			},
			{
				"x": -6.391867867,
				"y": 3.2384176404,
				"z": -2.7366417306,
				"element": "H" 
			},
			{
				"x": -6.0718560484,
				"y": 2.129606006,
				"z": -4.0791581868,
				"element": "H" 
			},
			{
				"x": -3.6365252263,
				"y": 1.2585430374,
				"z": -4.0805683236,
				"element": "H" 
			},
			{
				"x": -1.6744070759,
				"y": 0.6427405254,
				"z": -2.4340452012,
				"element": "H" 
			},
			{
				"x": -2.8540141917,
				"y": 1.3447761263,
				"z": 1.307147773,
				"element": "H" 
			},
			{
				"x": -1.6296767929,
				"y": 0.7128465374,
				"z": 2.9195332746,
				"element": "H" 
			},
			{
				"x": 0.0027785516,
				"y": 1.2516467585,
				"z": 2.5551450444,
				"element": "H" 
			},
			{
				"x": 0.0127905554,
				"y": -0.8863475888,
				"z": 3.8727418385,
				"element": "H" 
			},
			{
				"x": -0.868804986,
				"y": -1.6805917162,
				"z": 2.5676102081,
				"element": "H" 
			},
			{
				"x": 1.5204781966,
				"y": -2.1581615112,
				"z": 2.2673858407,
				"element": "H" 
			},
			{
				"x": 1.9357969607,
				"y": -0.4659583503,
				"z": 2.4771069453,
				"element": "H" 
			},
			{
				"x": 1.7597116244,
				"y": -1.2243681099,
				"z": -1.3605292063,
				"element": "H" 
			},
			{
				"x": 3.6691672085,
				"y": -2.0433949878,
				"z": 2.0542995243,
				"element": "H" 
			},
			{
				"x": 5.794592954,
				"y": -3.4898876933,
				"z": 1.6302890371,
				"element": "H" 
			},
			{
				"x": 6.0251533292,
				"y": -5.2865830886,
				"z": -1.5258274033,
				"element": "H" 
			},
			{
				"x": 7.1072877807,
				"y": -4.650191534,
				"z": -0.2782434932,
				"element": "H" 
			},
			{
				"x": 6.9477412066,
				"y": -3.8117216813,
				"z": -1.8291651462,
				"element": "H" 
			}
		],
		 "valence_orbital": [ 
			{
				"type": "occ",
				"energy": -0.25263,
				"method": "rhf"
			},
			{
				"type": "occ",
				"energy": -0.24463,
				"method": "rhf"
			},
			{
				"type": "occ",
				"energy": -0.2338,
				"method": "rhf"
			},
			{
				"type": "occ",
				"energy": -0.21038,
				"method": "rhf"
			},
			{
				"type": "occ",
				"energy": -0.20036,
				"method": "rhf"
			},
			{
				"type": "unocc",
				"energy": -0.07702,
				"method": "rhf"
			},
			{
				"type": "unocc",
				"energy": -0.03555,
				"method": "rhf"
			},
			{
				"type": "unocc",
				"energy": 0.01026,
				"method": "rhf"
			},
			{
				"type": "unocc",
				"energy": 0.02331,
				"method": "rhf"
			},
			{
				"type": "unocc",
				"energy": 0.0244,
				"method": "rhf"
			}
		],
		"cosmo_sigma_profile": { 
			"-0.025": 0.0,
			"-0.024": 0.0,
			"-0.023": 0.0,
			"-0.022": 0.0,
			"-0.021": 0.0,
			"-0.02": 0.0,
			"-0.019": 0.0,
			"-0.018": 0.0,
			"-0.017": 0.0,
			"-0.016": 0.0,
			"-0.015": 0.0,
			"-0.014": 0.0,
			"-0.013": 0.0,
			"-0.012": 0.0,
			"-0.011": 0.0,
			"-0.01": 0.0,
			"-0.009": 0.0,
			"-0.008": 0.0,
			"-0.007": 1.90238707261,
			"-0.006": 10.378513481,
			"-0.005": 24.6123986215,
			"-0.004": 28.5737219723,
			"-0.003": 40.9360210611,
			"-0.002": 36.4648742569,
			"-0.001": 41.5613174794,
			"0.0": 27.4335820903,
			"0.001": 20.7151930963,
			"0.002": 23.6399155482,
			"0.003": 29.7860004941,
			"0.004": 36.1839692357,
			"0.005": 19.4582647341,
			"0.006": 4.24003428694,
			"0.007": 3.09452877339,
			"0.008": 2.49643144925,
			"0.009": 1.55550490711,
			"0.01": 1.99694812983,
			"0.011": 2.26653496649,
			"0.012": 1.55481277051,
			"0.013": 0.0327436000009,
			"0.014": 0.0,
			"0.015": 0.0,
			"0.016": 0.0,
			"0.017": 0.0,
			"0.018": 0.0,
			"0.019": 0.0,
			"0.02": 0.0,
			"0.021": 0.0,
			"0.022": 0.0,
			"0.023": 0.0,
			"0.024": 0.0,
			"0.025": 0.0
		}
	}
}
