{
	 "smiles": "CCN1C(C)=NC2=C1C=CC=C2", 
	 "Tm": 324.15, 
	 "num_atms": 24, 
	 "gaussian": { 
		 "optdone": 1, 
		 "sigma_profile": "yes", 
		 "theory": "DFT", 
		 "functional": "B3LYP", 
		 "basiset": "6-31G**", 
		 "properties": { 
			 "R2extent": 2997.1171, 
			 "electric_dipole_moment_norm": 3.84877947796, 
			 "electric_quadrupole_moment_norm": 11.5747038252, 
			 "total_energy": -497.825358897, 
			 "HOMO_LUMO_gap": 0.20608, 
			 "cosmo_polarized_energy": -10.75, 
			 "cosmo_cavitation_energy": 26.84, 
			 "cosmo_dispersion_energy": -19.39, 
			 "cosmo_repulsion_energy": 1.53, 
			 "cosmo_total_nonelectrostatic_energy": 8.98, 
			 "SMD_solvation_energy": 2.47 
		},
		"coords": [
			{
				"x": -0.5402387925,
				"y": -0.9941139024,
				"z": -1.8843638668,
				"element": "C" 
			},
			{
				"x": -1.9019931743,
				"y": -0.6813858181,
				"z": -1.2554340933,
				"element": "C" 
			},
			{
				"x": -1.8742247595,
				"y": 0.4746150623,
				"z": -0.3688942076,
				"element": "N" 
			},
			{
				"x": -2.1944890127,
				"y": 1.7896069479,
				"z": -0.6761050765,
				"element": "C" 
			},
			{
				"x": -2.7112341227,
				"y": 2.2011255427,
				"z": -2.017052942,
				"element": "C" 
			},
			{
				"x": -2.0082143535,
				"y": 2.615863221,
				"z": 0.3274683239,
				"element": "N" 
			},
			{
				"x": -1.5322568856,
				"y": 1.8274096134,
				"z": 1.3643901803,
				"element": "C" 
			},
			{
				"x": -1.4349850807,
				"y": 0.478319213,
				"z": 0.9482582393,
				"element": "C" 
			},
			{
				"x": -0.9846798755,
				"y": -0.5366294507,
				"z": 1.7958100322,
				"element": "C" 
			},
			{
				"x": -0.6303421246,
				"y": -0.1629578543,
				"z": 3.0911890705,
				"element": "C" 
			},
			{
				"x": -0.7214634094,
				"y": 1.175387774,
				"z": 3.5216744947,
				"element": "C" 
			},
			{
				"x": -1.1710444018,
				"y": 2.1807340615,
				"z": 2.6701142286,
				"element": "C" 
			},
			{
				"x": -0.1913937049,
				"y": -0.1591175694,
				"z": -2.4993917989,
				"element": "H" 
			},
			{
				"x": 0.2117934051,
				"y": -1.1825438178,
				"z": -1.1130702274,
				"element": "H" 
			},
			{
				"x": -0.6114255227,
				"y": -1.8825809565,
				"z": -2.5200810954,
				"element": "H" 
			},
			{
				"x": -2.6481808685,
				"y": -0.4939688279,
				"z": -2.0323888694,
				"element": "H" 
			},
			{
				"x": -2.2605886555,
				"y": -1.5390274099,
				"z": -0.6757277172,
				"element": "H" 
			},
			{
				"x": -3.6610942819,
				"y": 1.7092821402,
				"z": -2.2585470856,
				"element": "H" 
			},
			{
				"x": -2.8755058368,
				"y": 3.2788684771,
				"z": -2.0002847247,
				"element": "H" 
			},
			{
				"x": -2.0040670477,
				"y": 1.9680091747,
				"z": -2.8215329515,
				"element": "H" 
			},
			{
				"x": -0.9100617046,
				"y": -1.5703150794,
				"z": 1.4710465339,
				"element": "H" 
			},
			{
				"x": -0.274817147,
				"y": -0.921012148,
				"z": 3.7830360701,
				"element": "H" 
			},
			{
				"x": -0.434228076,
				"y": 1.4234123338,
				"z": 4.5393219183,
				"element": "H" 
			},
			{
				"x": -1.2452645665,
				"y": 3.2134192729,
				"z": 2.9958655647,
				"element": "H" 
			}
		],
		 "valence_orbital": [ 
			{
				"type": "occ",
				"energy": -0.32261,
				"method": "rhf"
			},
			{
				"type": "occ",
				"energy": -0.2871,
				"method": "rhf"
			},
			{
				"type": "occ",
				"energy": -0.25957,
				"method": "rhf"
			},
			{
				"type": "occ",
				"energy": -0.21653,
				"method": "rhf"
			},
			{
				"type": "occ",
				"energy": -0.21311,
				"method": "rhf"
			},
			{
				"type": "unocc",
				"energy": -0.00703,
				"method": "rhf"
			},
			{
				"type": "unocc",
				"energy": 0.02795,
				"method": "rhf"
			},
			{
				"type": "unocc",
				"energy": 0.05906,
				"method": "rhf"
			},
			{
				"type": "unocc",
				"energy": 0.07422,
				"method": "rhf"
			},
			{
				"type": "unocc",
				"energy": 0.10131,
				"method": "rhf"
			}
		],
		"cosmo_sigma_profile": { 
			"-0.025": 0.0,
			"-0.024": 0.0,
			"-0.023": 0.0,
			"-0.022": 0.0,
			"-0.021": 0.0,
			"-0.02": 0.0,
			"-0.019": 0.0,
			"-0.018": 0.0,
			"-0.017": 0.0,
			"-0.016": 0.0,
			"-0.015": 0.0,
			"-0.014": 0.0,
			"-0.013": 0.0,
			"-0.012": 0.0,
			"-0.011": 0.0,
			"-0.01": 0.0,
			"-0.009": 0.0,
			"-0.008": 0.0,
			"-0.007": 0.877690771279,
			"-0.006": 9.83142631425,
			"-0.005": 20.9000830847,
			"-0.004": 23.619187697,
			"-0.003": 25.0212319232,
			"-0.002": 20.8340939809,
			"-0.001": 19.5417746679,
			"0.0": 16.1580677629,
			"0.001": 10.5936734753,
			"0.002": 8.34631769807,
			"0.003": 8.30323927302,
			"0.004": 9.31889270101,
			"0.005": 10.9637459861,
			"0.006": 10.487395335,
			"0.007": 5.53371122724,
			"0.008": 2.05743947268,
			"0.009": 1.08227635373,
			"0.01": 1.20354355379,
			"0.011": 1.08299645999,
			"0.012": 0.809140379474,
			"0.013": 1.62916632064,
			"0.014": 0.930201118013,
			"0.015": 0.965575131706,
			"0.016": 0.956375921906,
			"0.017": 0.799742359212,
			"0.018": 0.80326074956,
			"0.019": 0.0259955605081,
			"0.02": 0.0,
			"0.021": 0.0,
			"0.022": 0.0,
			"0.023": 0.0,
			"0.024": 0.0,
			"0.025": 0.0
		}
	}
}
