{
	 "smiles": "CN1C=C(C=C1C(O)=O)C#N", 
	 "Tm": 513.15, 
	 "num_atms": 17, 
	 "gaussian": { 
		 "optdone": 1, 
		 "sigma_profile": "yes", 
		 "theory": "DFT", 
		 "functional": "B3LYP", 
		 "basiset": "6-31G**", 
		 "properties": { 
			 "R2extent": 1928.8982, 
			 "electric_dipole_moment_norm": 2.45114198691, 
			 "electric_quadrupole_moment_norm": 33.9148433486, 
			 "total_energy": -530.295327757, 
			 "HOMO_LUMO_gap": 0.20377, 
			 "cosmo_polarized_energy": -19.48, 
			 "cosmo_cavitation_energy": 22.99, 
			 "cosmo_dispersion_energy": -16.28, 
			 "cosmo_repulsion_energy": 1.3, 
			 "cosmo_total_nonelectrostatic_energy": 8.01, 
			 "SMD_solvation_energy": 7.01 
		},
		"coords": [
			{
				"x": 0.3972752523,
				"y": 1.590820833,
				"z": 1.9871250751,
				"element": "C" 
			},
			{
				"x": 0.0505438808,
				"y": 0.4828809144,
				"z": 1.0947113139,
				"element": "N" 
			},
			{
				"x": 0.1345623229,
				"y": -0.824492094,
				"z": 1.4399410978,
				"element": "C" 
			},
			{
				"x": -0.2678025742,
				"y": -1.6063010807,
				"z": 0.3577402307,
				"element": "C" 
			},
			{
				"x": -0.6133450831,
				"y": -0.710691426,
				"z": -0.6865655466,
				"element": "C" 
			},
			{
				"x": -0.4144087635,
				"y": 0.578013135,
				"z": -0.212510349,
				"element": "C" 
			},
			{
				"x": -0.5879745374,
				"y": 1.8786145293,
				"z": -0.8819326634,
				"element": "C" 
			},
			{
				"x": -1.2241380254,
				"y": 1.8488668147,
				"z": -2.0800656694,
				"element": "O" 
			},
			{
				"x": -0.1952470585,
				"y": 2.9330972288,
				"z": -0.4299108829,
				"element": "O" 
			},
			{
				"x": -0.3127834236,
				"y": -3.0255695101,
				"z": 0.3242122514,
				"element": "C" 
			},
			{
				"x": -0.3532387352,
				"y": -4.1883228623,
				"z": 0.2911187022,
				"element": "N" 
			},
			{
				"x": 0.6716793885,
				"y": 1.1675566234,
				"z": 2.9543484145,
				"element": "H" 
			},
			{
				"x": 1.2288709769,
				"y": 2.1633226436,
				"z": 1.5766444132,
				"element": "H" 
			},
			{
				"x": -0.4527813441,
				"y": 2.2634600042,
				"z": 2.1053773092,
				"element": "H" 
			},
			{
				"x": 0.4686591527,
				"y": -1.1287846555,
				"z": 2.4206368555,
				"element": "H" 
			},
			{
				"x": -0.9388253428,
				"y": -1.0043420651,
				"z": -1.675103913,
				"element": "H" 
			},
			{
				"x": -1.5849460862,
				"y": 0.9693709674,
				"z": -2.2580666394,
				"element": "H" 
			}
		],
		 "valence_orbital": [ 
			{
				"type": "occ",
				"energy": -0.33399,
				"method": "rhf"
			},
			{
				"type": "occ",
				"energy": -0.32968,
				"method": "rhf"
			},
			{
				"type": "occ",
				"energy": -0.29034,
				"method": "rhf"
			},
			{
				"type": "occ",
				"energy": -0.27803,
				"method": "rhf"
			},
			{
				"type": "occ",
				"energy": -0.2559,
				"method": "rhf"
			},
			{
				"type": "unocc",
				"energy": -0.05213,
				"method": "rhf"
			},
			{
				"type": "unocc",
				"energy": -0.02314,
				"method": "rhf"
			},
			{
				"type": "unocc",
				"energy": 0.02575,
				"method": "rhf"
			},
			{
				"type": "unocc",
				"energy": 0.04597,
				"method": "rhf"
			},
			{
				"type": "unocc",
				"energy": 0.07602,
				"method": "rhf"
			}
		],
		"cosmo_sigma_profile": { 
			"-0.025": 0.0,
			"-0.024": 0.0,
			"-0.023": 0.0,
			"-0.022": 0.0,
			"-0.021": 0.0,
			"-0.02": 0.0,
			"-0.019": 0.0633570745352,
			"-0.018": 1.02006691161,
			"-0.017": 1.51860592526,
			"-0.016": 1.30480753349,
			"-0.015": 0.910611998108,
			"-0.014": 0.895530020471,
			"-0.013": 1.28025143388,
			"-0.012": 1.38775889203,
			"-0.011": 2.41154958244,
			"-0.01": 5.25878678917,
			"-0.009": 4.20808367075,
			"-0.008": 4.53376921526,
			"-0.007": 5.42210311144,
			"-0.006": 8.84666632579,
			"-0.005": 9.35013925714,
			"-0.004": 12.7255635094,
			"-0.003": 13.9183521912,
			"-0.002": 9.39427837917,
			"-0.001": 9.5120111033,
			"0.0": 11.6478641451,
			"0.001": 11.2514068506,
			"0.002": 7.76492727132,
			"0.003": 3.89009424323,
			"0.004": 5.0935761965,
			"0.005": 4.1359027877,
			"0.006": 4.97973391741,
			"0.007": 4.78983094594,
			"0.008": 6.5561380086,
			"0.009": 6.43919096912,
			"0.01": 7.98961464772,
			"0.011": 7.05277726633,
			"0.012": 5.80941672666,
			"0.013": 3.71617085078,
			"0.014": 0.258632361453,
			"0.015": 0.0,
			"0.016": 0.0,
			"0.017": 0.0,
			"0.018": 0.0,
			"0.019": 0.0,
			"0.02": 0.0,
			"0.021": 0.0,
			"0.022": 0.0,
			"0.023": 0.0,
			"0.024": 0.0,
			"0.025": 0.0
		}
	}
}
