{
	 "smiles": "NC(=O)C1=C(N)C2=C(S1)N=C(C=C2C1=CC=CC=C1)C1CC1", 
	 "Tm": 459.15, 
	 "num_atms": 37, 
	 "gaussian": { 
		 "optdone": 1, 
		 "sigma_profile": "yes", 
		 "theory": "DFT", 
		 "functional": "B3LYP", 
		 "basiset": "6-31G**", 
		 "properties": { 
			 "R2extent": 8268.6344, 
			 "electric_dipole_moment_norm": 2.96900992925, 
			 "electric_quadrupole_moment_norm": 16.1969489704, 
			 "total_energy": -1294.5276593, 
			 "HOMO_LUMO_gap": 0.13547, 
			 "cosmo_polarized_energy": -15.4, 
			 "cosmo_cavitation_energy": 41.7, 
			 "cosmo_dispersion_energy": -30.49, 
			 "cosmo_repulsion_energy": 2.29, 
			 "cosmo_total_nonelectrostatic_energy": 13.51, 
			 "SMD_solvation_energy": 5.31 
		},
		"coords": [
			{
				"x": -5.080207872,
				"y": -0.7318115913,
				"z": -1.2833578936,
				"element": "N" 
			},
			{
				"x": -4.2577883309,
				"y": 0.3229778852,
				"z": -0.9610891544,
				"element": "C" 
			},
			{
				"x": -4.6779251161,
				"y": 1.4892158681,
				"z": -1.0343405995,
				"element": "O" 
			},
			{
				"x": -2.9079151337,
				"y": 0.0117275471,
				"z": -0.5014363384,
				"element": "C" 
			},
			{
				"x": -1.9601133287,
				"y": 0.9776184607,
				"z": -0.1790408554,
				"element": "C" 
			},
			{
				"x": -2.1917266051,
				"y": 2.3141780468,
				"z": -0.3077258372,
				"element": "N" 
			},
			{
				"x": -0.7086772272,
				"y": 0.3893750565,
				"z": 0.2771886603,
				"element": "C" 
			},
			{
				"x": -0.7797180728,
				"y": -1.0275227702,
				"z": 0.3196171766,
				"element": "C" 
			},
			{
				"x": -2.3272430972,
				"y": -1.6419533193,
				"z": -0.2302897469,
				"element": "S" 
			},
			{
				"x": 0.1717864351,
				"y": -1.8546985398,
				"z": 0.7360569269,
				"element": "N" 
			},
			{
				"x": 1.3097246003,
				"y": -1.2969071768,
				"z": 1.1719826599,
				"element": "C" 
			},
			{
				"x": 1.4998062272,
				"y": 0.0982228225,
				"z": 1.1709905713,
				"element": "C" 
			},
			{
				"x": 0.5100898509,
				"y": 0.9681969178,
				"z": 0.7110034445,
				"element": "C" 
			},
			{
				"x": 0.8089225206,
				"y": 2.4293446631,
				"z": 0.6885584619,
				"element": "C" 
			},
			{
				"x": 0.7857792576,
				"y": 3.1579112286,
				"z": -0.5131246903,
				"element": "C" 
			},
			{
				"x": 1.1324487296,
				"y": 4.5092033884,
				"z": -0.5283325921,
				"element": "C" 
			},
			{
				"x": 1.5053275599,
				"y": 5.1540621205,
				"z": 0.6529843815,
				"element": "C" 
			},
			{
				"x": 1.5337241889,
				"y": 4.4392614807,
				"z": 1.8518229002,
				"element": "C" 
			},
			{
				"x": 1.1933981462,
				"y": 3.0864039022,
				"z": 1.8689935282,
				"element": "C" 
			},
			{
				"x": 2.3810776949,
				"y": -2.2071230215,
				"z": 1.6505401585,
				"element": "C" 
			},
			{
				"x": 2.0093577862,
				"y": -3.4927533181,
				"z": 2.3723707369,
				"element": "C" 
			},
			{
				"x": 2.5700484064,
				"y": -3.5623042567,
				"z": 0.9876519198,
				"element": "C" 
			},
			{
				"x": -5.9521056387,
				"y": -0.4756346733,
				"z": -1.7227150612,
				"element": "H" 
			},
			{
				"x": -4.6968669058,
				"y": -1.6341981713,
				"z": -1.5207941837,
				"element": "H" 
			},
			{
				"x": -3.1642662491,
				"y": 2.550260649,
				"z": -0.4890711722,
				"element": "H" 
			},
			{
				"x": -1.6015509724,
				"y": 2.9627043503,
				"z": 0.1857590179,
				"element": "H" 
			},
			{
				"x": 2.448843478,
				"y": 0.5059744412,
				"z": 1.5035358737,
				"element": "H" 
			},
			{
				"x": 0.4992325636,
				"y": 2.6601044728,
				"z": -1.4338596677,
				"element": "H" 
			},
			{
				"x": 1.114984884,
				"y": 5.05673314,
				"z": -1.4661549061,
				"element": "H" 
			},
			{
				"x": 1.7724237391,
				"y": 6.2066570509,
				"z": 0.6386976176,
				"element": "H" 
			},
			{
				"x": 1.8194856407,
				"y": 4.9341351151,
				"z": 2.7755041185,
				"element": "H" 
			},
			{
				"x": 1.2121641249,
				"y": 2.5321025999,
				"z": 2.8028292616,
				"element": "H" 
			},
			{
				"x": 3.2809438538,
				"y": -1.7018181075,
				"z": 1.9892582603,
				"element": "H" 
			},
			{
				"x": 0.9473377923,
				"y": -3.681059244,
				"z": 2.4909357374,
				"element": "H" 
			},
			{
				"x": 2.6331673914,
				"y": -3.7935887415,
				"z": 3.2086305365,
				"element": "H" 
			},
			{
				"x": 1.8821736369,
				"y": -3.7967178366,
				"z": 0.1818851926,
				"element": "H" 
			},
			{
				"x": 3.588556041,
				"y": -3.9120804398,
				"z": 0.8489355561,
				"element": "H" 
			}
		],
		 "valence_orbital": [ 
			{
				"type": "occ",
				"energy": -0.26235,
				"method": "rhf"
			},
			{
				"type": "occ",
				"energy": -0.25511,
				"method": "rhf"
			},
			{
				"type": "occ",
				"energy": -0.24671,
				"method": "rhf"
			},
			{
				"type": "occ",
				"energy": -0.23352,
				"method": "rhf"
			},
			{
				"type": "occ",
				"energy": -0.1911,
				"method": "rhf"
			},
			{
				"type": "unocc",
				"energy": -0.05563,
				"method": "rhf"
			},
			{
				"type": "unocc",
				"energy": -0.02416,
				"method": "rhf"
			},
			{
				"type": "unocc",
				"energy": -0.01467,
				"method": "rhf"
			},
			{
				"type": "unocc",
				"energy": -0.00304,
				"method": "rhf"
			},
			{
				"type": "unocc",
				"energy": 0.01996,
				"method": "rhf"
			}
		],
		"cosmo_sigma_profile": { 
			"-0.025": 0.0,
			"-0.024": 0.0,
			"-0.023": 0.0,
			"-0.022": 0.0,
			"-0.021": 0.0,
			"-0.02": 0.0,
			"-0.019": 0.0,
			"-0.018": 0.0,
			"-0.017": 0.0,
			"-0.016": 0.0,
			"-0.015": 0.0,
			"-0.014": 0.779664458484,
			"-0.013": 1.78869914031,
			"-0.012": 2.18419219563,
			"-0.011": 2.60740496481,
			"-0.01": 2.86928532303,
			"-0.009": 3.09114954229,
			"-0.008": 4.10274698297,
			"-0.007": 4.16659311975,
			"-0.006": 15.4823497324,
			"-0.005": 21.8284900039,
			"-0.004": 23.9788211593,
			"-0.003": 22.7856427047,
			"-0.002": 19.776318231,
			"-0.001": 19.8308344609,
			"0.0": 25.3902008727,
			"0.001": 32.5859776785,
			"0.002": 32.5896979247,
			"0.003": 31.2078818288,
			"0.004": 23.1888494978,
			"0.005": 15.1239990921,
			"0.006": 7.45547380601,
			"0.007": 4.45935377126,
			"0.008": 3.46879627543,
			"0.009": 3.00916381991,
			"0.01": 2.21468772439,
			"0.011": 2.14909737261,
			"0.012": 1.90820414728,
			"0.013": 2.24824974695,
			"0.014": 2.39801748858,
			"0.015": 0.539506848405,
			"0.016": 0.0,
			"0.017": 0.0,
			"0.018": 0.0,
			"0.019": 0.0,
			"0.02": 0.0,
			"0.021": 0.0,
			"0.022": 0.0,
			"0.023": 0.0,
			"0.024": 0.0,
			"0.025": 0.0
		}
	}
}
