{
	 "smiles": "COC1=CC=C(C=C1F)C(O)=O", 
	 "Tm": 484.15, 
	 "num_atms": 19, 
	 "gaussian": { 
		 "optdone": 1, 
		 "sigma_profile": "yes", 
		 "theory": "DFT", 
		 "functional": "B3LYP", 
		 "basiset": "6-31G**", 
		 "properties": { 
			 "R2extent": 2464.6324, 
			 "electric_dipole_moment_norm": 5.04001950988, 
			 "electric_quadrupole_moment_norm": 13.9319381448, 
			 "total_energy": -634.564569593, 
			 "HOMO_LUMO_gap": 0.19208, 
			 "cosmo_polarized_energy": -14.17, 
			 "cosmo_cavitation_energy": 24.07, 
			 "cosmo_dispersion_energy": -17.87, 
			 "cosmo_repulsion_energy": 1.4, 
			 "cosmo_total_nonelectrostatic_energy": 7.6, 
			 "SMD_solvation_energy": 6.59 
		},
		"coords": [
			{
				"x": -1.1563315515,
				"y": 3.4804070763,
				"z": -1.1990824883,
				"element": "C" 
			},
			{
				"x": 0.1325902959,
				"y": 2.8703347974,
				"z": -1.0648454794,
				"element": "O" 
			},
			{
				"x": 0.2722305423,
				"y": 1.5700571843,
				"z": -0.7185793572,
				"element": "C" 
			},
			{
				"x": 1.5847098408,
				"y": 1.1521862531,
				"z": -0.4440362699,
				"element": "C" 
			},
			{
				"x": 1.8671425792,
				"y": -0.1613903494,
				"z": -0.0939727274,
				"element": "C" 
			},
			{
				"x": 0.839308498,
				"y": -1.1123685336,
				"z": -0.0005852168,
				"element": "C" 
			},
			{
				"x": -0.4753102371,
				"y": -0.7035681031,
				"z": -0.2523249319,
				"element": "C" 
			},
			{
				"x": -0.7462306036,
				"y": 0.6038251073,
				"z": -0.6141310055,
				"element": "C" 
			},
			{
				"x": -2.0340952053,
				"y": 0.9390701136,
				"z": -0.8718876945,
				"element": "F" 
			},
			{
				"x": 1.0538245245,
				"y": -2.5399790746,
				"z": 0.3876281589,
				"element": "C" 
			},
			{
				"x": 2.3240194544,
				"y": -3.0190809967,
				"z": 0.2867897064,
				"element": "O" 
			},
			{
				"x": 0.166699675,
				"y": -3.2642385697,
				"z": 0.7757778877,
				"element": "O" 
			},
			{
				"x": -0.9491904693,
				"y": 4.5348331779,
				"z": -1.3863463757,
				"element": "H" 
			},
			{
				"x": -1.7153307212,
				"y": 3.0592895736,
				"z": -2.0380024915,
				"element": "H" 
			},
			{
				"x": -1.7440249531,
				"y": 3.3784513007,
				"z": -0.2826270628,
				"element": "H" 
			},
			{
				"x": 2.3685983335,
				"y": 1.8993032949,
				"z": -0.5061981567,
				"element": "H" 
			},
			{
				"x": 2.8947585312,
				"y": -0.420008858,
				"z": 0.1479025182,
				"element": "H" 
			},
			{
				"x": -1.2882075643,
				"y": -1.4160283508,
				"z": -0.1696361096,
				"element": "H" 
			},
			{
				"x": 2.8814390306,
				"y": -2.3919950434,
				"z": -0.193742904,
				"element": "H" 
			}
		],
		 "valence_orbital": [ 
			{
				"type": "occ",
				"energy": -0.33853,
				"method": "rhf"
			},
			{
				"type": "occ",
				"energy": -0.31299,
				"method": "rhf"
			},
			{
				"type": "occ",
				"energy": -0.27435,
				"method": "rhf"
			},
			{
				"type": "occ",
				"energy": -0.26828,
				"method": "rhf"
			},
			{
				"type": "occ",
				"energy": -0.24002,
				"method": "rhf"
			},
			{
				"type": "unocc",
				"energy": -0.04794,
				"method": "rhf"
			},
			{
				"type": "unocc",
				"energy": -0.02179,
				"method": "rhf"
			},
			{
				"type": "unocc",
				"energy": 0.04999,
				"method": "rhf"
			},
			{
				"type": "unocc",
				"energy": 0.05825,
				"method": "rhf"
			},
			{
				"type": "unocc",
				"energy": 0.07599,
				"method": "rhf"
			}
		],
		"cosmo_sigma_profile": { 
			"-0.025": 0.0,
			"-0.024": 0.0,
			"-0.023": 0.0,
			"-0.022": 0.0,
			"-0.021": 0.0,
			"-0.02": 0.0,
			"-0.019": 0.20485174901,
			"-0.018": 0.774641215925,
			"-0.017": 1.10666299106,
			"-0.016": 0.993485598776,
			"-0.015": 0.964205328585,
			"-0.014": 0.956605876197,
			"-0.013": 0.82507951219,
			"-0.012": 1.28931222374,
			"-0.011": 1.34714489686,
			"-0.01": 1.40828359048,
			"-0.009": 1.16320416623,
			"-0.008": 2.13184632144,
			"-0.007": 4.79934599788,
			"-0.006": 9.343500861,
			"-0.005": 12.1401624342,
			"-0.004": 13.8600438835,
			"-0.003": 14.0165671748,
			"-0.002": 11.2715089922,
			"-0.001": 12.0639981509,
			"0.0": 15.2745295583,
			"0.001": 14.7950779363,
			"0.002": 14.992945021,
			"0.003": 11.619190348,
			"0.004": 9.39789314615,
			"0.005": 3.72090402933,
			"0.006": 3.74051215181,
			"0.007": 3.3149974598,
			"0.008": 3.93899799267,
			"0.009": 4.60612989676,
			"0.01": 4.20304267543,
			"0.011": 5.42291896659,
			"0.012": 5.18061161064,
			"0.013": 1.72793878804,
			"0.014": 0.127508303181,
			"0.015": 0.0,
			"0.016": 0.0,
			"0.017": 0.0,
			"0.018": 0.0,
			"0.019": 0.0,
			"0.02": 0.0,
			"0.021": 0.0,
			"0.022": 0.0,
			"0.023": 0.0,
			"0.024": 0.0,
			"0.025": 0.0
		}
	}
}
