{
	 "smiles": "CC(C)C(C(C)C)C1=CC=CC=C1", 
	 "Tm": 248.65, 
	 "num_atms": 33, 
	 "gaussian": { 
		 "optdone": 1, 
		 "sigma_profile": "yes", 
		 "theory": "DFT", 
		 "functional": "B3LYP", 
		 "basiset": "6-31G**", 
		 "properties": { 
			 "R2extent": 3082.1186, 
			 "electric_dipole_moment_norm": 0.193821722209, 
			 "electric_quadrupole_moment_norm": 4.69098153695, 
			 "total_energy": -507.455350885, 
			 "HOMO_LUMO_gap": 0.23608, 
			 "cosmo_polarized_energy": -3.16, 
			 "cosmo_cavitation_energy": 32.65, 
			 "cosmo_dispersion_energy": -22.29, 
			 "cosmo_repulsion_energy": 1.76, 
			 "cosmo_total_nonelectrostatic_energy": 12.12, 
			 "SMD_solvation_energy": 5.63 
		},
		"coords": [
			{
				"x": 0.515984221,
				"y": 2.8229870168,
				"z": -0.9263315773,
				"element": "C" 
			},
			{
				"x": 1.0620508272,
				"y": 1.5188291976,
				"z": -0.3198317734,
				"element": "C" 
			},
			{
				"x": 2.3196903694,
				"y": 1.0935886227,
				"z": -1.0945379031,
				"element": "C" 
			},
			{
				"x": -0.0545189247,
				"y": 0.4270188329,
				"z": -0.2313815844,
				"element": "C" 
			},
			{
				"x": 0.480447574,
				"y": -0.9785420813,
				"z": 0.2412758983,
				"element": "C" 
			},
			{
				"x": -0.5064845791,
				"y": -1.7817851271,
				"z": 1.1072918051,
				"element": "C" 
			},
			{
				"x": 0.8766855727,
				"y": -1.8514061617,
				"z": -0.9651258339,
				"element": "C" 
			},
			{
				"x": -1.2255288937,
				"y": 0.9439243735,
				"z": 0.600742587,
				"element": "C" 
			},
			{
				"x": -1.0595926112,
				"y": 1.3744153649,
				"z": 1.9278219206,
				"element": "C" 
			},
			{
				"x": -2.1395936596,
				"y": 1.8438081151,
				"z": 2.6751820073,
				"element": "C" 
			},
			{
				"x": -3.4168188422,
				"y": 1.8957321575,
				"z": 2.1116968844,
				"element": "C" 
			},
			{
				"x": -3.5996702145,
				"y": 1.4730823717,
				"z": 0.795427984,
				"element": "C" 
			},
			{
				"x": -2.5136324488,
				"y": 1.003783965,
				"z": 0.05253199,
				"element": "C" 
			},
			{
				"x": 0.1892557228,
				"y": 2.6613748397,
				"z": -1.9613258305,
				"element": "H" 
			},
			{
				"x": -0.3361521368,
				"y": 3.2131328733,
				"z": -0.3649335468,
				"element": "H" 
			},
			{
				"x": 1.2922348392,
				"y": 3.5956604369,
				"z": -0.9435339388,
				"element": "H" 
			},
			{
				"x": 1.3795465356,
				"y": 1.7353198684,
				"z": 0.7105655819,
				"element": "H" 
			},
			{
				"x": 2.8158698258,
				"y": 0.2249272176,
				"z": -0.6542511121,
				"element": "H" 
			},
			{
				"x": 3.0453645646,
				"y": 1.914397578,
				"z": -1.1005464564,
				"element": "H" 
			},
			{
				"x": 2.0853960479,
				"y": 0.8597676245,
				"z": -2.1399527107,
				"element": "H" 
			},
			{
				"x": -0.4421140347,
				"y": 0.2858003889,
				"z": -1.2509956411,
				"element": "H" 
			},
			{
				"x": 1.3789455938,
				"y": -0.8047177637,
				"z": 0.8510552678,
				"element": "H" 
			},
			{
				"x": -0.0758190354,
				"y": -2.7599491374,
				"z": 1.3489561079,
				"element": "H" 
			},
			{
				"x": -1.4492819606,
				"y": -1.9566138981,
				"z": 0.576509329,
				"element": "H" 
			},
			{
				"x": -0.7479407643,
				"y": -1.2796514458,
				"z": 2.046228108,
				"element": "H" 
			},
			{
				"x": -0.0155612476,
				"y": -2.1215790879,
				"z": -1.5433982883,
				"element": "H" 
			},
			{
				"x": 1.3463620707,
				"y": -2.7838143477,
				"z": -0.632666123,
				"element": "H" 
			},
			{
				"x": 1.5701033345,
				"y": -1.3530196721,
				"z": -1.6448797199,
				"element": "H" 
			},
			{
				"x": -0.0750043244,
				"y": 1.3387502335,
				"z": 2.3868554606,
				"element": "H" 
			},
			{
				"x": -1.983664396,
				"y": 2.1695227863,
				"z": 3.7001421417,
				"element": "H" 
			},
			{
				"x": -4.2579154322,
				"y": 2.2626161954,
				"z": 2.6929624005,
				"element": "H" 
			},
			{
				"x": -4.5868152142,
				"y": 1.5094058641,
				"z": 0.3426055228,
				"element": "H" 
			},
			{
				"x": -2.6676283791,
				"y": 0.6806327987,
				"z": -0.974358957,
				"element": "H" 
			}
		],
		 "valence_orbital": [ 
			{
				"type": "occ",
				"energy": -0.31026,
				"method": "rhf"
			},
			{
				"type": "occ",
				"energy": -0.30336,
				"method": "rhf"
			},
			{
				"type": "occ",
				"energy": -0.29903,
				"method": "rhf"
			},
			{
				"type": "occ",
				"energy": -0.24466,
				"method": "rhf"
			},
			{
				"type": "occ",
				"energy": -0.23501,
				"method": "rhf"
			},
			{
				"type": "unocc",
				"energy": 0.00107,
				"method": "rhf"
			},
			{
				"type": "unocc",
				"energy": 0.00537,
				"method": "rhf"
			},
			{
				"type": "unocc",
				"energy": 0.08633,
				"method": "rhf"
			},
			{
				"type": "unocc",
				"energy": 0.09886,
				"method": "rhf"
			},
			{
				"type": "unocc",
				"energy": 0.10436,
				"method": "rhf"
			}
		],
		"cosmo_sigma_profile": { 
			"-0.025": 0.0,
			"-0.024": 0.0,
			"-0.023": 0.0,
			"-0.022": 0.0,
			"-0.021": 0.0,
			"-0.02": 0.0,
			"-0.019": 0.0,
			"-0.018": 0.0,
			"-0.017": 0.0,
			"-0.016": 0.0,
			"-0.015": 0.0,
			"-0.014": 0.0,
			"-0.013": 0.0,
			"-0.012": 0.0,
			"-0.011": 0.0,
			"-0.01": 0.0,
			"-0.009": 0.0,
			"-0.008": 0.0,
			"-0.007": 0.0,
			"-0.006": 0.777876931307,
			"-0.005": 7.77421205695,
			"-0.004": 11.6936128573,
			"-0.003": 16.8360910381,
			"-0.002": 35.2302270364,
			"-0.001": 45.3936496891,
			"0.0": 34.5532910838,
			"0.001": 35.1127464674,
			"0.002": 30.232351313,
			"0.003": 11.1532791168,
			"0.004": 7.79930577921,
			"0.005": 7.57868675428,
			"0.006": 6.60805804272,
			"0.007": 2.68950465766,
			"0.008": 0.0116391768835,
			"0.009": 0.0,
			"0.01": 0.0,
			"0.011": 0.0,
			"0.012": 0.0,
			"0.013": 0.0,
			"0.014": 0.0,
			"0.015": 0.0,
			"0.016": 0.0,
			"0.017": 0.0,
			"0.018": 0.0,
			"0.019": 0.0,
			"0.02": 0.0,
			"0.021": 0.0,
			"0.022": 0.0,
			"0.023": 0.0,
			"0.024": 0.0,
			"0.025": 0.0
		}
	}
}
