{
	 "smiles": "COC1=CC=C(NC(=O)C(Cl)C2=CC=CC=C2)C=C1", 
	 "Tm": 427.15, 
	 "num_atms": 33, 
	 "gaussian": { 
		 "optdone": 1, 
		 "sigma_profile": "yes", 
		 "theory": "DFT", 
		 "functional": "B3LYP", 
		 "basiset": "6-31G**", 
		 "properties": { 
			 "R2extent": 6370.2291, 
			 "electric_dipole_moment_norm": 4.37860924724, 
			 "electric_quadrupole_moment_norm": 5.53072318327, 
			 "total_energy": -1245.419622, 
			 "HOMO_LUMO_gap": 0.20275, 
			 "cosmo_polarized_energy": -13.09, 
			 "cosmo_cavitation_energy": 38.21, 
			 "cosmo_dispersion_energy": -26.24, 
			 "cosmo_repulsion_energy": 2.04, 
			 "cosmo_total_nonelectrostatic_energy": 14.01, 
			 "SMD_solvation_energy": 7.41 
		},
		"coords": [
			{
				"x": -0.0647763029,
				"y": 3.0250929076,
				"z": -4.8723786215,
				"element": "C" 
			},
			{
				"x": 0.3553621334,
				"y": 1.6863389532,
				"z": -5.0854327846,
				"element": "O" 
			},
			{
				"x": 0.6233323992,
				"y": 0.9120090176,
				"z": -3.9962296553,
				"element": "C" 
			},
			{
				"x": 0.5243002326,
				"y": 1.3423330988,
				"z": -2.6682261751,
				"element": "C" 
			},
			{
				"x": 0.834389114,
				"y": 0.4609542982,
				"z": -1.6290404282,
				"element": "C" 
			},
			{
				"x": 1.2139019332,
				"y": -0.8533209293,
				"z": -1.8990341825,
				"element": "C" 
			},
			{
				"x": 1.5841737023,
				"y": -1.7494709122,
				"z": -0.8465945784,
				"element": "N" 
			},
			{
				"x": 0.8639800423,
				"y": -2.2928837783,
				"z": 0.1801602295,
				"element": "C" 
			},
			{
				"x": 1.4188259304,
				"y": -2.9134341096,
				"z": 1.0806121816,
				"element": "O" 
			},
			{
				"x": -0.6682293264,
				"y": -2.134124128,
				"z": 0.26611772,
				"element": "C" 
			},
			{
				"x": -1.5012023796,
				"y": -2.543555076,
				"z": -1.301097076,
				"element": "Cl" 
			},
			{
				"x": -1.0976868448,
				"y": -0.8040528524,
				"z": 0.8786620753,
				"element": "C" 
			},
			{
				"x": -2.0744298534,
				"y": 0.0265359524,
				"z": 0.3231252216,
				"element": "C" 
			},
			{
				"x": -2.4373550702,
				"y": 1.2133473426,
				"z": 0.9646934725,
				"element": "C" 
			},
			{
				"x": -1.8302324961,
				"y": 1.583708508,
				"z": 2.1641579896,
				"element": "C" 
			},
			{
				"x": -0.8564196133,
				"y": 0.7544920524,
				"z": 2.7256394314,
				"element": "C" 
			},
			{
				"x": -0.4938547344,
				"y": -0.4328487138,
				"z": 2.0914465219,
				"element": "C" 
			},
			{
				"x": 1.3165302399,
				"y": -1.276211814,
				"z": -3.2323158363,
				"element": "C" 
			},
			{
				"x": 1.0298641106,
				"y": -0.4039013683,
				"z": -4.2714750522,
				"element": "C" 
			},
			{
				"x": -0.2294148082,
				"y": 3.4503811078,
				"z": -5.8634419613,
				"element": "H" 
			},
			{
				"x": 0.7021392031,
				"y": 3.6122388083,
				"z": -4.3509780496,
				"element": "H" 
			},
			{
				"x": -1.0005542621,
				"y": 3.0692725877,
				"z": -4.3005535175,
				"element": "H" 
			},
			{
				"x": 0.2231273726,
				"y": 2.3548861236,
				"z": -2.4285716806,
				"element": "H" 
			},
			{
				"x": 0.7803957688,
				"y": 0.8021893774,
				"z": -0.6012785223,
				"element": "H" 
			},
			{
				"x": 2.5667316401,
				"y": -1.986494907,
				"z": -0.7644667007,
				"element": "H" 
			},
			{
				"x": -0.9616238772,
				"y": -2.9423445042,
				"z": 0.9362148264,
				"element": "H" 
			},
			{
				"x": -2.5486541036,
				"y": -0.2514558322,
				"z": -0.6106836071,
				"element": "H" 
			},
			{
				"x": -3.1995471963,
				"y": 1.8476149568,
				"z": 0.5208380037,
				"element": "H" 
			},
			{
				"x": -2.1150353486,
				"y": 2.5069506851,
				"z": 2.6603835717,
				"element": "H" 
			},
			{
				"x": -0.3795270671,
				"y": 1.028190481,
				"z": 3.6624467267,
				"element": "H" 
			},
			{
				"x": 0.2591330595,
				"y": -1.0787427687,
				"z": 2.5333644865,
				"element": "H" 
			},
			{
				"x": 1.612358027,
				"y": -2.2990900257,
				"z": -3.4440906054,
				"element": "H" 
			},
			{
				"x": 1.1021983752,
				"y": -0.7182045387,
				"z": -5.3072734236,
				"element": "H" 
			}
		],
		 "valence_orbital": [ 
			{
				"type": "occ",
				"energy": -0.26259,
				"method": "rhf"
			},
			{
				"type": "occ",
				"energy": -0.25815,
				"method": "rhf"
			},
			{
				"type": "occ",
				"energy": -0.25339,
				"method": "rhf"
			},
			{
				"type": "occ",
				"energy": -0.24765,
				"method": "rhf"
			},
			{
				"type": "occ",
				"energy": -0.22058,
				"method": "rhf"
			},
			{
				"type": "unocc",
				"energy": -0.01783,
				"method": "rhf"
			},
			{
				"type": "unocc",
				"energy": -0.01446,
				"method": "rhf"
			},
			{
				"type": "unocc",
				"energy": -0.0059,
				"method": "rhf"
			},
			{
				"type": "unocc",
				"energy": -0.00207,
				"method": "rhf"
			},
			{
				"type": "unocc",
				"energy": 0.00689,
				"method": "rhf"
			}
		],
		"cosmo_sigma_profile": { 
			"-0.025": 0.0,
			"-0.024": 0.0,
			"-0.023": 0.0,
			"-0.022": 0.0,
			"-0.021": 0.0,
			"-0.02": 0.0,
			"-0.019": 0.0,
			"-0.018": 0.0,
			"-0.017": 0.0,
			"-0.016": 0.0,
			"-0.015": 0.225377323699,
			"-0.014": 0.970379647074,
			"-0.013": 1.07667013334,
			"-0.012": 0.599338490276,
			"-0.011": 0.51868229477,
			"-0.01": 1.35694159469,
			"-0.009": 1.04979435549,
			"-0.008": 2.70125443182,
			"-0.007": 4.06357786647,
			"-0.006": 16.555258257,
			"-0.005": 26.0879206577,
			"-0.004": 27.896841562,
			"-0.003": 25.5126591795,
			"-0.002": 19.0674170946,
			"-0.001": 19.165916928,
			"0.0": 19.3122107328,
			"0.001": 21.1244553295,
			"0.002": 21.2232500104,
			"0.003": 26.1512429149,
			"0.004": 25.876590777,
			"0.005": 18.183199139,
			"0.006": 7.2212940793,
			"0.007": 2.65301690829,
			"0.008": 2.31240405326,
			"0.009": 2.59907625191,
			"0.01": 2.77295425525,
			"0.011": 1.87862965138,
			"0.012": 3.30672175962,
			"0.013": 4.32566188768,
			"0.014": 0.581994766455,
			"0.015": 0.0,
			"0.016": 0.0,
			"0.017": 0.0,
			"0.018": 0.0,
			"0.019": 0.0,
			"0.02": 0.0,
			"0.021": 0.0,
			"0.022": 0.0,
			"0.023": 0.0,
			"0.024": 0.0,
			"0.025": 0.0
		}
	}
}
