{
	 "smiles": "OC(=O)CCCN1C=CC2=C1C=CC(Cl)=C2", 
	 "Tm": 353.15, 
	 "num_atms": 28, 
	 "gaussian": { 
		 "optdone": 1, 
		 "sigma_profile": "yes", 
		 "theory": "DFT", 
		 "functional": "B3LYP", 
		 "basiset": "6-31G**", 
		 "properties": { 
			 "R2extent": 4970.5714, 
			 "electric_dipole_moment_norm": 5.4801783429, 
			 "electric_quadrupole_moment_norm": 13.3586547586, 
			 "total_energy": -1129.92368826, 
			 "HOMO_LUMO_gap": 0.19009, 
			 "cosmo_polarized_energy": -16.0, 
			 "cosmo_cavitation_energy": 33.4, 
			 "cosmo_dispersion_energy": -23.14, 
			 "cosmo_repulsion_energy": 1.81, 
			 "cosmo_total_nonelectrostatic_energy": 12.08, 
			 "SMD_solvation_energy": 5.96 
		},
		"coords": [
			{
				"x": -0.5968323669,
				"y": 0.0793667179,
				"z": -2.7667841721,
				"element": "O" 
			},
			{
				"x": 0.1307231774,
				"y": -0.6098292226,
				"z": -1.8568338958,
				"element": "C" 
			},
			{
				"x": 1.1546595217,
				"y": -0.181628768,
				"z": -1.3732840933,
				"element": "O" 
			},
			{
				"x": -0.4613818604,
				"y": -1.9782803034,
				"z": -1.5750829868,
				"element": "C" 
			},
			{
				"x": -0.259903774,
				"y": -2.4269952901,
				"z": -0.1212353572,
				"element": "C" 
			},
			{
				"x": -1.2881622942,
				"y": -1.847429223,
				"z": 0.8654089585,
				"element": "C" 
			},
			{
				"x": -1.2900209224,
				"y": -0.3960548515,
				"z": 0.9726013251,
				"element": "N" 
			},
			{
				"x": -2.1887605097,
				"y": 0.4612684568,
				"z": 0.3568373101,
				"element": "C" 
			},
			{
				"x": -1.9015399029,
				"y": 1.762585975,
				"z": 0.6740397608,
				"element": "C" 
			},
			{
				"x": -0.7613583404,
				"y": 1.7351061766,
				"z": 1.5444023144,
				"element": "C" 
			},
			{
				"x": -0.4012684483,
				"y": 0.367836878,
				"z": 1.7099818788,
				"element": "C" 
			},
			{
				"x": 0.6742571499,
				"y": -0.0205770251,
				"z": 2.5162615301,
				"element": "C" 
			},
			{
				"x": 1.3952628903,
				"y": 0.9730007792,
				"z": 3.1667910547,
				"element": "C" 
			},
			{
				"x": 1.0407215053,
				"y": 2.325852499,
				"z": 3.0039343342,
				"element": "C" 
			},
			{
				"x": 1.9909371832,
				"y": 3.5488114614,
				"z": 3.8517661457,
				"element": "Cl" 
			},
			{
				"x": -0.0199934331,
				"y": 2.7279225728,
				"z": 2.2076921373,
				"element": "C" 
			},
			{
				"x": -0.1351792777,
				"y": 0.9257112106,
				"z": -2.8948407096,
				"element": "H" 
			},
			{
				"x": 0.0597074784,
				"y": -2.6735747285,
				"z": -2.2457282715,
				"element": "H" 
			},
			{
				"x": -1.5151144521,
				"y": -1.9936521562,
				"z": -1.8700188574,
				"element": "H" 
			},
			{
				"x": 0.7539835191,
				"y": -2.1555841088,
				"z": 0.1885337924,
				"element": "H" 
			},
			{
				"x": -0.3366623141,
				"y": -3.5190266586,
				"z": -0.0645717652,
				"element": "H" 
			},
			{
				"x": -1.112217488,
				"y": -2.2661406807,
				"z": 1.8628858362,
				"element": "H" 
			},
			{
				"x": -2.2979269652,
				"y": -2.1516552774,
				"z": 0.5693179491,
				"element": "H" 
			},
			{
				"x": -2.9766689965,
				"y": 0.0583731671,
				"z": -0.2643241285,
				"element": "H" 
			},
			{
				"x": -2.4453677957,
				"y": 2.634086697,
				"z": 0.3389250788,
				"element": "H" 
			},
			{
				"x": 0.9523013652,
				"y": -1.0627693417,
				"z": 2.6365225202,
				"element": "H" 
			},
			{
				"x": 2.2364193465,
				"y": 0.7152003327,
				"z": 3.7998896422,
				"element": "H" 
			},
			{
				"x": -0.2669139954,
				"y": 3.7789747115,
				"z": 2.1053126689,
				"element": "H" 
			}
		],
		 "valence_orbital": [ 
			{
				"type": "occ",
				"energy": -0.29726,
				"method": "rhf"
			},
			{
				"type": "occ",
				"energy": -0.27943,
				"method": "rhf"
			},
			{
				"type": "occ",
				"energy": -0.27381,
				"method": "rhf"
			},
			{
				"type": "occ",
				"energy": -0.21584,
				"method": "rhf"
			},
			{
				"type": "occ",
				"energy": -0.20472,
				"method": "rhf"
			},
			{
				"type": "unocc",
				"energy": -0.01463,
				"method": "rhf"
			},
			{
				"type": "unocc",
				"energy": 0.00581,
				"method": "rhf"
			},
			{
				"type": "unocc",
				"energy": 0.02225,
				"method": "rhf"
			},
			{
				"type": "unocc",
				"energy": 0.04288,
				"method": "rhf"
			},
			{
				"type": "unocc",
				"energy": 0.063,
				"method": "rhf"
			}
		],
		"cosmo_sigma_profile": { 
			"-0.025": 0.0,
			"-0.024": 0.0,
			"-0.023": 0.0,
			"-0.022": 0.0,
			"-0.021": 0.0,
			"-0.02": 0.0,
			"-0.019": 0.0,
			"-0.018": 0.294300086945,
			"-0.017": 1.52228864259,
			"-0.016": 0.232209375513,
			"-0.015": 0.964138806616,
			"-0.014": 0.695062053238,
			"-0.013": 0.775087174246,
			"-0.012": 0.170851535181,
			"-0.011": 0.780171380498,
			"-0.01": 0.882267072651,
			"-0.009": 0.882846389324,
			"-0.008": 3.59124970214,
			"-0.007": 9.33814681551,
			"-0.006": 18.3883657172,
			"-0.005": 19.8764393301,
			"-0.004": 21.8277434449,
			"-0.003": 20.3690237302,
			"-0.002": 15.2866421964,
			"-0.001": 13.6978181166,
			"0.0": 11.8072638465,
			"0.001": 11.1425646105,
			"0.002": 13.6315223602,
			"0.003": 18.3095107196,
			"0.004": 21.5886754904,
			"0.005": 27.1788016649,
			"0.006": 12.4433293041,
			"0.007": 3.94528002197,
			"0.008": 3.63369514507,
			"0.009": 3.96338207107,
			"0.01": 2.90610553428,
			"0.011": 2.02018217308,
			"0.012": 4.41195484547,
			"0.013": 0.52072054399,
			"0.014": 0.0,
			"0.015": 0.0,
			"0.016": 0.0,
			"0.017": 0.0,
			"0.018": 0.0,
			"0.019": 0.0,
			"0.02": 0.0,
			"0.021": 0.0,
			"0.022": 0.0,
			"0.023": 0.0,
			"0.024": 0.0,
			"0.025": 0.0
		}
	}
}
