{
	 "smiles": "CSCC(O)=O", 
	 "Tm": 287.15, 
	 "num_atms": 12, 
	 "gaussian": { 
		 "optdone": 1, 
		 "sigma_profile": "yes", 
		 "theory": "DFT", 
		 "functional": "B3LYP", 
		 "basiset": "6-31G**", 
		 "properties": { 
			 "R2extent": 1281.554, 
			 "electric_dipole_moment_norm": 0.6006401252, 
			 "electric_quadrupole_moment_norm": 7.48955466767, 
			 "total_energy": -666.582552827, 
			 "HOMO_LUMO_gap": 0.21694, 
			 "cosmo_polarized_energy": -9.37, 
			 "cosmo_cavitation_energy": 17.47, 
			 "cosmo_dispersion_energy": -13.37, 
			 "cosmo_repulsion_energy": 1.12, 
			 "cosmo_total_nonelectrostatic_energy": 5.22, 
			 "SMD_solvation_energy": 4.4 
		},
		"coords": [
			{
				"x": -1.3527006077,
				"y": -0.1139668169,
				"z": -0.5310380273,
				"element": "C" 
			},
			{
				"x": -1.5695738706,
				"y": -1.4532673731,
				"z": 0.6943631334,
				"element": "S" 
			},
			{
				"x": 0.0644212051,
				"y": -1.3909638839,
				"z": 1.5373540534,
				"element": "C" 
			},
			{
				"x": 1.1589434855,
				"y": -1.9013530503,
				"z": 0.6287899287,
				"element": "C" 
			},
			{
				"x": 1.4500720993,
				"y": -3.2001439849,
				"z": 0.8625492742,
				"element": "O" 
			},
			{
				"x": 1.7047999891,
				"y": -1.2473603812,
				"z": -0.2354792808,
				"element": "O" 
			},
			{
				"x": -0.4715322522,
				"y": -0.2938102938,
				"z": -1.148696699,
				"element": "H" 
			},
			{
				"x": -1.2702824663,
				"y": 0.8577908412,
				"z": -0.0373364156,
				"element": "H" 
			},
			{
				"x": -2.2477908971,
				"y": -0.1229760441,
				"z": -1.1568441728,
				"element": "H" 
			},
			{
				"x": -0.0293609514,
				"y": -2.0165017536,
				"z": 2.4262517514,
				"element": "H" 
			},
			{
				"x": 0.2887673635,
				"y": -0.3623502459,
				"z": 1.8287286072,
				"element": "H" 
			},
			{
				"x": 2.1200369028,
				"y": -3.4521970136,
				"z": 0.2045578471,
				"element": "H" 
			}
		],
		 "valence_orbital": [ 
			{
				"type": "occ",
				"energy": -0.37114,
				"method": "rhf"
			},
			{
				"type": "occ",
				"energy": -0.33034,
				"method": "rhf"
			},
			{
				"type": "occ",
				"energy": -0.31956,
				"method": "rhf"
			},
			{
				"type": "occ",
				"energy": -0.28478,
				"method": "rhf"
			},
			{
				"type": "occ",
				"energy": -0.23013,
				"method": "rhf"
			},
			{
				"type": "unocc",
				"energy": -0.01319,
				"method": "rhf"
			},
			{
				"type": "unocc",
				"energy": 0.04311,
				"method": "rhf"
			},
			{
				"type": "unocc",
				"energy": 0.06928,
				"method": "rhf"
			},
			{
				"type": "unocc",
				"energy": 0.08745,
				"method": "rhf"
			},
			{
				"type": "unocc",
				"energy": 0.10881,
				"method": "rhf"
			}
		],
		"cosmo_sigma_profile": { 
			"-0.025": 0.0,
			"-0.024": 0.0,
			"-0.023": 0.0,
			"-0.022": 0.0,
			"-0.021": 0.0,
			"-0.02": 0.0,
			"-0.019": 0.0512071911953,
			"-0.018": 0.811683194665,
			"-0.017": 1.13744921153,
			"-0.016": 0.622084925821,
			"-0.015": 0.933457949403,
			"-0.014": 0.62090120848,
			"-0.013": 0.613971550579,
			"-0.012": 0.80030589243,
			"-0.011": 0.822599498176,
			"-0.01": 0.743151277084,
			"-0.009": 0.356324216365,
			"-0.008": 2.28329673891,
			"-0.007": 5.70436251815,
			"-0.006": 8.43141512255,
			"-0.005": 10.6512965179,
			"-0.004": 8.98046223606,
			"-0.003": 8.95707754104,
			"-0.002": 9.77906595506,
			"-0.001": 10.2850548552,
			"0.0": 6.99230035733,
			"0.001": 5.89498407809,
			"0.002": 5.33570545023,
			"0.003": 4.78121007325,
			"0.004": 5.69890732063,
			"0.005": 7.64246167598,
			"0.006": 5.62998987977,
			"0.007": 4.94229084426,
			"0.008": 4.57284137494,
			"0.009": 5.4063132373,
			"0.01": 3.42919455053,
			"0.011": 3.61624865699,
			"0.012": 2.96421125771,
			"0.013": 0.0950231724375,
			"0.014": 0.0,
			"0.015": 0.0,
			"0.016": 0.0,
			"0.017": 0.0,
			"0.018": 0.0,
			"0.019": 0.0,
			"0.02": 0.0,
			"0.021": 0.0,
			"0.022": 0.0,
			"0.023": 0.0,
			"0.024": 0.0,
			"0.025": 0.0
		}
	}
}
