{
	 "smiles": "CC(=O)NCCO", 
	 "Tm": 289.15, 
	 "num_atms": 16, 
	 "gaussian": { 
		 "optdone": 1, 
		 "sigma_profile": "yes", 
		 "theory": "DFT", 
		 "functional": "B3LYP", 
		 "basiset": "6-31G**", 
		 "properties": { 
			 "R2extent": 1145.724, 
			 "electric_dipole_moment_norm": 4.21245383476, 
			 "electric_quadrupole_moment_norm": 9.23625368588, 
			 "total_energy": -363.055947264, 
			 "HOMO_LUMO_gap": 0.27376, 
			 "cosmo_polarized_energy": -15.64, 
			 "cosmo_cavitation_energy": 19.42, 
			 "cosmo_dispersion_energy": -14.23, 
			 "cosmo_repulsion_energy": 1.25, 
			 "cosmo_total_nonelectrostatic_energy": 6.44, 
			 "SMD_solvation_energy": 4.28 
		},
		"coords": [
			{
				"x": 0.892015438,
				"y": 2.3758692751,
				"z": -0.7564868975,
				"element": "C" 
			},
			{
				"x": -0.2771198832,
				"y": 1.6486274487,
				"z": -0.107900387,
				"element": "C" 
			},
			{
				"x": -0.6540408398,
				"y": 1.9072528179,
				"z": 1.0253150354,
				"element": "O" 
			},
			{
				"x": -0.8693869307,
				"y": 0.6815808334,
				"z": -0.8908019946,
				"element": "N" 
			},
			{
				"x": -2.0918489604,
				"y": -0.0097014101,
				"z": -0.4937997591,
				"element": "C" 
			},
			{
				"x": -1.9363230214,
				"y": -1.5254356674,
				"z": -0.6256856297,
				"element": "C" 
			},
			{
				"x": -0.9223295735,
				"y": -2.0402645755,
				"z": 0.2129967192,
				"element": "O" 
			},
			{
				"x": 0.5851997021,
				"y": 3.3998794773,
				"z": -0.9918477624,
				"element": "H" 
			},
			{
				"x": 1.7080458062,
				"y": 2.4382251553,
				"z": -0.0334591299,
				"element": "H" 
			},
			{
				"x": 1.2560283501,
				"y": 1.8993096595,
				"z": -1.6712971693,
				"element": "H" 
			},
			{
				"x": -0.5917276,
				"y": 0.6257625929,
				"z": -1.8607329825,
				"element": "H" 
			},
			{
				"x": -2.2724354128,
				"y": 0.2645605052,
				"z": 0.5476018325,
				"element": "H" 
			},
			{
				"x": -2.9444440305,
				"y": 0.3348805743,
				"z": -1.0956739942,
				"element": "H" 
			},
			{
				"x": -1.7557600158,
				"y": -1.7865495302,
				"z": -1.6846853882,
				"element": "H" 
			},
			{
				"x": -2.8721345179,
				"y": -2.01223995,
				"z": -0.3311153215,
				"element": "H" 
			},
			{
				"x": -0.1505385105,
				"y": -1.4678572064,
				"z": 0.0991728289,
				"element": "H" 
			}
		],
		 "valence_orbital": [ 
			{
				"type": "occ",
				"energy": -0.36348,
				"method": "rhf"
			},
			{
				"type": "occ",
				"energy": -0.33099,
				"method": "rhf"
			},
			{
				"type": "occ",
				"energy": -0.27562,
				"method": "rhf"
			},
			{
				"type": "occ",
				"energy": -0.25586,
				"method": "rhf"
			},
			{
				"type": "occ",
				"energy": -0.25095,
				"method": "rhf"
			},
			{
				"type": "unocc",
				"energy": 0.02281,
				"method": "rhf"
			},
			{
				"type": "unocc",
				"energy": 0.06305,
				"method": "rhf"
			},
			{
				"type": "unocc",
				"energy": 0.10227,
				"method": "rhf"
			},
			{
				"type": "unocc",
				"energy": 0.11225,
				"method": "rhf"
			},
			{
				"type": "unocc",
				"energy": 0.12893,
				"method": "rhf"
			}
		],
		"cosmo_sigma_profile": { 
			"-0.025": 0.0,
			"-0.024": 0.0,
			"-0.023": 0.0,
			"-0.022": 0.0,
			"-0.021": 0.0,
			"-0.02": 0.0,
			"-0.019": 0.0,
			"-0.018": 0.0,
			"-0.017": 0.0,
			"-0.016": 0.0,
			"-0.015": 0.0652447377329,
			"-0.014": 0.887736144114,
			"-0.013": 1.47428431705,
			"-0.012": 2.02651251717,
			"-0.011": 1.95104745715,
			"-0.01": 1.97381220925,
			"-0.009": 3.31301529718,
			"-0.008": 2.58762633209,
			"-0.007": 3.06684942968,
			"-0.006": 5.73553063396,
			"-0.005": 13.313378489,
			"-0.004": 15.6775002841,
			"-0.003": 17.184120997,
			"-0.002": 14.4788788289,
			"-0.001": 12.2492848459,
			"0.0": 6.16358319435,
			"0.001": 3.8837154913,
			"0.002": 2.99571578094,
			"0.003": 3.07252424238,
			"0.004": 2.66708061865,
			"0.005": 3.17578473734,
			"0.006": 1.87002449374,
			"0.007": 2.37862460424,
			"0.008": 3.19550224843,
			"0.009": 2.77120442149,
			"0.01": 1.8625573894,
			"0.011": 2.7091107703,
			"0.012": 3.39655261458,
			"0.013": 4.3980303991,
			"0.014": 8.2087034365,
			"0.015": 2.47750797311,
			"0.016": 0.0817290427429,
			"0.017": 0.0,
			"0.018": 0.0,
			"0.019": 0.0,
			"0.02": 0.0,
			"0.021": 0.0,
			"0.022": 0.0,
			"0.023": 0.0,
			"0.024": 0.0,
			"0.025": 0.0
		}
	}
}
