{
	 "smiles": "CC(=O)C1=NN2C(S1)=NN=C2C(F)(F)F", 
	 "Tm": 473.15, 
	 "num_atms": 18, 
	 "gaussian": { 
		 "optdone": 1, 
		 "sigma_profile": "yes", 
		 "theory": "DFT", 
		 "functional": "B3LYP", 
		 "basiset": "6-31G**", 
		 "properties": { 
			 "R2extent": 4410.6759, 
			 "electric_dipole_moment_norm": 4.29703488699, 
			 "electric_quadrupole_moment_norm": 15.9245608285, 
			 "total_energy": -1222.30403176, 
			 "HOMO_LUMO_gap": 0.16133, 
			 "cosmo_polarized_energy": -12.5, 
			 "cosmo_cavitation_energy": 27.56, 
			 "cosmo_dispersion_energy": -19.82, 
			 "cosmo_repulsion_energy": 1.46, 
			 "cosmo_total_nonelectrostatic_energy": 9.19, 
			 "SMD_solvation_energy": 3.8 
		},
		"coords": [
			{
				"x": 0.7930904377,
				"y": 2.3282536383,
				"z": -0.0207319968,
				"element": "C" 
			},
			{
				"x": -0.4185614983,
				"y": 1.7652004192,
				"z": 0.6758264855,
				"element": "C" 
			},
			{
				"x": -1.2561290003,
				"y": 2.434232824,
				"z": 1.2521880991,
				"element": "O" 
			},
			{
				"x": -0.6000708582,
				"y": 0.2789313406,
				"z": 0.6542475471,
				"element": "C" 
			},
			{
				"x": 0.222785169,
				"y": -0.5426773064,
				"z": 0.073351645,
				"element": "N" 
			},
			{
				"x": -0.248698174,
				"y": -1.8014513558,
				"z": 0.2505679689,
				"element": "N" 
			},
			{
				"x": -1.4211742062,
				"y": -1.9789198419,
				"z": 0.957631442,
				"element": "C" 
			},
			{
				"x": -2.0205803051,
				"y": -0.4182148651,
				"z": 1.4671326236,
				"element": "S" 
			},
			{
				"x": -1.7386876683,
				"y": -3.2474650408,
				"z": 1.0402137074,
				"element": "N" 
			},
			{
				"x": -0.7414688811,
				"y": -3.9311514477,
				"z": 0.3636757366,
				"element": "N" 
			},
			{
				"x": 0.1370536096,
				"y": -3.0720709791,
				"z": -0.1005781419,
				"element": "C" 
			},
			{
				"x": 1.3710446031,
				"y": -3.3823120993,
				"z": -0.8905075261,
				"element": "C" 
			},
			{
				"x": 2.4707285293,
				"y": -2.9308954874,
				"z": -0.2514237088,
				"element": "F" 
			},
			{
				"x": 1.4938448482,
				"y": -4.6966720353,
				"z": -1.080026178,
				"element": "F" 
			},
			{
				"x": 1.3314857772,
				"y": -2.7718185634,
				"z": -2.0935151092,
				"element": "F" 
			},
			{
				"x": 0.7889697457,
				"y": 2.045650135,
				"z": -1.0783538458,
				"element": "H" 
			},
			{
				"x": 1.7081686743,
				"y": 1.9131326862,
				"z": 0.4136915985,
				"element": "H" 
			},
			{
				"x": 0.7868991977,
				"y": 3.4136479789,
				"z": 0.0795096529,
				"element": "H" 
			}
		],
		 "valence_orbital": [ 
			{
				"type": "occ",
				"energy": -0.34376,
				"method": "rhf"
			},
			{
				"type": "occ",
				"energy": -0.31176,
				"method": "rhf"
			},
			{
				"type": "occ",
				"energy": -0.3022,
				"method": "rhf"
			},
			{
				"type": "occ",
				"energy": -0.28939,
				"method": "rhf"
			},
			{
				"type": "occ",
				"energy": -0.27796,
				"method": "rhf"
			},
			{
				"type": "unocc",
				"energy": -0.11663,
				"method": "rhf"
			},
			{
				"type": "unocc",
				"energy": -0.02868,
				"method": "rhf"
			},
			{
				"type": "unocc",
				"energy": -0.02545,
				"method": "rhf"
			},
			{
				"type": "unocc",
				"energy": 0.00222,
				"method": "rhf"
			},
			{
				"type": "unocc",
				"energy": 0.01376,
				"method": "rhf"
			}
		],
		"cosmo_sigma_profile": { 
			"-0.025": 0.0,
			"-0.024": 0.0,
			"-0.023": 0.0,
			"-0.022": 0.0,
			"-0.021": 0.0,
			"-0.02": 0.0,
			"-0.019": 0.0,
			"-0.018": 0.0,
			"-0.017": 0.0,
			"-0.016": 0.0,
			"-0.015": 0.0,
			"-0.014": 0.0,
			"-0.013": 0.0,
			"-0.012": 0.0,
			"-0.011": 0.0,
			"-0.01": 0.149256566381,
			"-0.009": 1.73706866158,
			"-0.008": 6.88178616406,
			"-0.007": 11.4278151123,
			"-0.006": 12.8297879337,
			"-0.005": 13.4100059923,
			"-0.004": 15.0845009176,
			"-0.003": 18.328199784,
			"-0.002": 16.5119671101,
			"-0.001": 13.6362247452,
			"0.0": 14.187720898,
			"0.001": 22.9207093274,
			"0.002": 28.3961774771,
			"0.003": 7.59042062647,
			"0.004": 3.91509248806,
			"0.005": 4.01946957455,
			"0.006": 4.26515282729,
			"0.007": 4.64551086684,
			"0.008": 4.29583739436,
			"0.009": 5.92475035036,
			"0.01": 4.6521866043,
			"0.011": 4.42984255473,
			"0.012": 2.75105661601,
			"0.013": 2.22024012518,
			"0.014": 1.04221463795,
			"0.015": 0.124883648221,
			"0.016": 0.0,
			"0.017": 0.0,
			"0.018": 0.0,
			"0.019": 0.0,
			"0.02": 0.0,
			"0.021": 0.0,
			"0.022": 0.0,
			"0.023": 0.0,
			"0.024": 0.0,
			"0.025": 0.0
		}
	}
}
