{
	 "smiles": "C[Si]1(C)N[Si](C)(C)N[Si](C)(C)N1", 
	 "Tm": 263.15, 
	 "num_atms": 33, 
	 "gaussian": { 
		 "optdone": 1, 
		 "sigma_profile": "yes", 
		 "theory": "DFT", 
		 "functional": "B3LYP", 
		 "basiset": "6-31G**", 
		 "properties": { 
			 "R2extent": 3350.1062, 
			 "electric_dipole_moment_norm": 0.533558366067, 
			 "electric_quadrupole_moment_norm": 5.62165498941, 
			 "total_energy": -1274.30248929, 
			 "HOMO_LUMO_gap": 0.27859, 
			 "cosmo_polarized_energy": -6.19, 
			 "cosmo_cavitation_energy": 37.93, 
			 "cosmo_dispersion_energy": -20.18, 
			 "cosmo_repulsion_energy": 1.92, 
			 "cosmo_total_nonelectrostatic_energy": 19.67, 
			 "SMD_solvation_energy": 10.0 
		},
		"coords": [
			{
				"x": -0.5994630862,
				"y": -0.8416636266,
				"z": 2.4544106174,
				"element": "C" 
			},
			{
				"x": 0.4605074093,
				"y": -1.3694087227,
				"z": 0.9877976839,
				"element": "Si" 
			},
			{
				"x": 1.5419799397,
				"y": -2.8394664418,
				"z": 1.4704785096,
				"element": "C" 
			},
			{
				"x": -0.5575340567,
				"y": -1.8391009893,
				"z": -0.3606210694,
				"element": "N" 
			},
			{
				"x": -1.2817905747,
				"y": -0.7348121116,
				"z": -1.5001450396,
				"element": "Si" 
			},
			{
				"x": -3.156084015,
				"y": -0.578188838,
				"z": -1.3246236644,
				"element": "C" 
			},
			{
				"x": -0.9027923188,
				"y": -1.3291802629,
				"z": -3.2535097637,
				"element": "C" 
			},
			{
				"x": -0.5913478877,
				"y": 0.8241501444,
				"z": -1.1087362367,
				"element": "N" 
			},
			{
				"x": 1.0145835926,
				"y": 1.2579789553,
				"z": -0.5670533759,
				"element": "Si" 
			},
			{
				"x": 0.8799247455,
				"y": 2.9265818822,
				"z": 0.3079232969,
				"element": "C" 
			},
			{
				"x": 2.2795535364,
				"y": 1.424374989,
				"z": -1.9610983679,
				"element": "C" 
			},
			{
				"x": 1.4981726606,
				"y": -0.0493142623,
				"z": 0.4817904628,
				"element": "N" 
			},
			{
				"x": -1.2597283141,
				"y": -1.6517308993,
				"z": 2.7840872459,
				"element": "H" 
			},
			{
				"x": 0.0185410501,
				"y": -0.5358278709,
				"z": 3.3060954908,
				"element": "H" 
			},
			{
				"x": -1.2322934486,
				"y": 0.0103253197,
				"z": 2.1827838204,
				"element": "H" 
			},
			{
				"x": 2.2004665656,
				"y": -2.5872993916,
				"z": 2.3095150775,
				"element": "H" 
			},
			{
				"x": 0.9308145466,
				"y": -3.6924036958,
				"z": 1.7870002395,
				"element": "H" 
			},
			{
				"x": 2.1717328464,
				"y": -3.1690220588,
				"z": 0.637094105,
				"element": "H" 
			},
			{
				"x": -0.5350170166,
				"y": -2.8198689407,
				"z": -0.614814497,
				"element": "H" 
			},
			{
				"x": -3.5713658725,
				"y": 0.1589973247,
				"z": -2.0228223997,
				"element": "H" 
			},
			{
				"x": -3.4349302463,
				"y": -0.2788603204,
				"z": -0.3090179689,
				"element": "H" 
			},
			{
				"x": -3.6482067061,
				"y": -1.5347953123,
				"z": -1.5343289019,
				"element": "H" 
			},
			{
				"x": -1.2926029275,
				"y": -2.3392849643,
				"z": -3.4310262677,
				"element": "H" 
			},
			{
				"x": 0.1764983052,
				"y": -1.3525415986,
				"z": -3.4373247001,
				"element": "H" 
			},
			{
				"x": -1.3554607577,
				"y": -0.6693260168,
				"z": -4.0023340979,
				"element": "H" 
			},
			{
				"x": -1.2396054036,
				"y": 1.6012286875,
				"z": -1.1725790263,
				"element": "H" 
			},
			{
				"x": 0.1891871538,
				"y": 2.8742640404,
				"z": 1.1558323282,
				"element": "H" 
			},
			{
				"x": 0.5290848952,
				"y": 3.7153665119,
				"z": -0.3688991743,
				"element": "H" 
			},
			{
				"x": 1.8552426295,
				"y": 3.2431336028,
				"z": 0.6949739851,
				"element": "H" 
			},
			{
				"x": 3.2863678959,
				"y": 1.6217236623,
				"z": -1.5723115404,
				"element": "H" 
			},
			{
				"x": 2.0223796214,
				"y": 2.2507057091,
				"z": -2.6334687933,
				"element": "H" 
			},
			{
				"x": 2.3283191679,
				"y": 0.5088907574,
				"z": -2.5600326154,
				"element": "H" 
			},
			{
				"x": 2.4921660707,
				"y": -0.1856252619,
				"z": 0.6249646375,
				"element": "H" 
			}
		],
		 "valence_orbital": [ 
			{
				"type": "occ",
				"energy": -0.29735,
				"method": "rhf"
			},
			{
				"type": "occ",
				"energy": -0.29565,
				"method": "rhf"
			},
			{
				"type": "occ",
				"energy": -0.24463,
				"method": "rhf"
			},
			{
				"type": "occ",
				"energy": -0.22978,
				"method": "rhf"
			},
			{
				"type": "occ",
				"energy": -0.22299,
				"method": "rhf"
			},
			{
				"type": "unocc",
				"energy": 0.0556,
				"method": "rhf"
			},
			{
				"type": "unocc",
				"energy": 0.07534,
				"method": "rhf"
			},
			{
				"type": "unocc",
				"energy": 0.07924,
				"method": "rhf"
			},
			{
				"type": "unocc",
				"energy": 0.09092,
				"method": "rhf"
			},
			{
				"type": "unocc",
				"energy": 0.10097,
				"method": "rhf"
			}
		],
		"cosmo_sigma_profile": { 
			"-0.025": 0.0,
			"-0.024": 0.0,
			"-0.023": 0.0,
			"-0.022": 0.0,
			"-0.021": 0.0,
			"-0.02": 0.0,
			"-0.019": 0.0,
			"-0.018": 0.0,
			"-0.017": 0.0,
			"-0.016": 0.0,
			"-0.015": 0.0,
			"-0.014": 0.0,
			"-0.013": 0.0,
			"-0.012": 0.0,
			"-0.011": 0.420712051196,
			"-0.01": 2.1794990502,
			"-0.009": 2.74440886134,
			"-0.008": 2.45335420906,
			"-0.007": 3.24581467998,
			"-0.006": 2.72150265776,
			"-0.005": 3.81961784482,
			"-0.004": 7.96424989816,
			"-0.003": 30.4395860292,
			"-0.002": 33.8213381238,
			"-0.001": 35.0497385349,
			"0.0": 36.2629792268,
			"0.001": 33.6561873604,
			"0.002": 37.552486897,
			"0.003": 20.8083263475,
			"0.004": 8.28878525447,
			"0.005": 4.60184137333,
			"0.006": 3.63384056223,
			"0.007": 3.22685262952,
			"0.008": 3.18489038456,
			"0.009": 2.21843196566,
			"0.01": 1.10408422371,
			"0.011": 1.00730396876,
			"0.012": 0.846531996739,
			"0.013": 0.178236828861,
			"0.014": 0.0,
			"0.015": 0.0,
			"0.016": 0.0,
			"0.017": 0.0,
			"0.018": 0.0,
			"0.019": 0.0,
			"0.02": 0.0,
			"0.021": 0.0,
			"0.022": 0.0,
			"0.023": 0.0,
			"0.024": 0.0,
			"0.025": 0.0
		}
	}
}
