{
	 "smiles": "FC(F)(F)CCl", 
	 "Tm": 167.15, 
	 "num_atms": 8, 
	 "gaussian": { 
		 "optdone": 1, 
		 "sigma_profile": "yes", 
		 "theory": "DFT", 
		 "functional": "B3LYP", 
		 "basiset": "6-31G**", 
		 "properties": { 
			 "R2extent": 779.1935, 
			 "electric_dipole_moment_norm": 1.83922637541, 
			 "electric_quadrupole_moment_norm": 4.04247369688, 
			 "total_energy": -837.135202721, 
			 "HOMO_LUMO_gap": 0.31996, 
			 "cosmo_polarized_energy": -4.42, 
			 "cosmo_cavitation_energy": 15.02, 
			 "cosmo_dispersion_energy": -10.95, 
			 "cosmo_repulsion_energy": 0.91, 
			 "cosmo_total_nonelectrostatic_energy": 4.98, 
			 "SMD_solvation_energy": 3.68 
		},
		"coords": [
			{
				"x": 2.2745083203,
				"y": 0.8070642902,
				"z": 0.5975520917,
				"element": "F" 
			},
			{
				"x": 1.0656979965,
				"y": 0.216959954,
				"z": 0.7281505005,
				"element": "C" 
			},
			{
				"x": 0.8322615306,
				"y": 0.0350640645,
				"z": 2.0376809064,
				"element": "F" 
			},
			{
				"x": 1.1273772429,
				"y": -0.9890876136,
				"z": 0.1415484236,
				"element": "F" 
			},
			{
				"x": 0.0254835795,
				"y": 1.1168125842,
				"z": 0.0802251303,
				"element": "C" 
			},
			{
				"x": -1.6278666107,
				"y": 0.4350216012,
				"z": 0.1914277074,
				"element": "Cl" 
			},
			{
				"x": 0.0347667974,
				"y": 2.0835272496,
				"z": 0.5833497378,
				"element": "H" 
			},
			{
				"x": 0.2767711436,
				"y": 1.2428378699,
				"z": -0.9727344977,
				"element": "H" 
			}
		],
		 "valence_orbital": [ 
			{
				"type": "occ",
				"energy": -0.42015,
				"method": "rhf"
			},
			{
				"type": "occ",
				"energy": -0.41053,
				"method": "rhf"
			},
			{
				"type": "occ",
				"energy": -0.40317,
				"method": "rhf"
			},
			{
				"type": "occ",
				"energy": -0.32098,
				"method": "rhf"
			},
			{
				"type": "occ",
				"energy": -0.31812,
				"method": "rhf"
			},
			{
				"type": "unocc",
				"energy": 0.00184,
				"method": "rhf"
			},
			{
				"type": "unocc",
				"energy": 0.08949,
				"method": "rhf"
			},
			{
				"type": "unocc",
				"energy": 0.10208,
				"method": "rhf"
			},
			{
				"type": "unocc",
				"energy": 0.17243,
				"method": "rhf"
			},
			{
				"type": "unocc",
				"energy": 0.18895,
				"method": "rhf"
			}
		],
		"cosmo_sigma_profile": { 
			"-0.025": 0.0,
			"-0.024": 0.0,
			"-0.023": 0.0,
			"-0.022": 0.0,
			"-0.021": 0.0,
			"-0.02": 0.0,
			"-0.019": 0.0,
			"-0.018": 0.0,
			"-0.017": 0.0,
			"-0.016": 0.0,
			"-0.015": 0.0,
			"-0.014": 0.0,
			"-0.013": 0.0,
			"-0.012": 0.0,
			"-0.011": 0.859189105808,
			"-0.01": 4.69003582756,
			"-0.009": 4.15521850213,
			"-0.008": 3.63214703464,
			"-0.007": 3.38230538509,
			"-0.006": 3.31167558114,
			"-0.005": 3.09819958136,
			"-0.004": 2.20802197705,
			"-0.003": 2.01774140466,
			"-0.002": 4.61728006259,
			"-0.001": 4.71977696849,
			"0.0": 6.84943303962,
			"0.001": 10.3391301061,
			"0.002": 30.252910481,
			"0.003": 21.6931410521,
			"0.004": 8.69991480461,
			"0.005": 7.5044850555,
			"0.006": 0.0716661115691,
			"0.007": 0.0,
			"0.008": 0.0,
			"0.009": 0.0,
			"0.01": 0.0,
			"0.011": 0.0,
			"0.012": 0.0,
			"0.013": 0.0,
			"0.014": 0.0,
			"0.015": 0.0,
			"0.016": 0.0,
			"0.017": 0.0,
			"0.018": 0.0,
			"0.019": 0.0,
			"0.02": 0.0,
			"0.021": 0.0,
			"0.022": 0.0,
			"0.023": 0.0,
			"0.024": 0.0,
			"0.025": 0.0
		}
	}
}
