{
	 "smiles": "CCCCCCCCCCCC(=O)C1=CC=C(O)C=C1", 
	 "Tm": 345.15, 
	 "num_atms": 48, 
	 "gaussian": { 
		 "optdone": 1, 
		 "sigma_profile": "yes", 
		 "theory": "DFT", 
		 "functional": "B3LYP", 
		 "basiset": "6-31G**", 
		 "properties": { 
			 "R2extent": 13657.0396, 
			 "electric_dipole_moment_norm": 4.01537944782, 
			 "electric_quadrupole_moment_norm": 25.5467333027, 
			 "total_energy": -853.275509017, 
			 "HOMO_LUMO_gap": 0.18778, 
			 "cosmo_polarized_energy": -13.12, 
			 "cosmo_cavitation_energy": 49.35, 
			 "cosmo_dispersion_energy": -34.54, 
			 "cosmo_repulsion_energy": 2.75, 
			 "cosmo_total_nonelectrostatic_energy": 17.56, 
			 "SMD_solvation_energy": 7.74 
		},
		"coords": [
			{
				"x": -4.4205988502,
				"y": -4.4519125711,
				"z": -2.1974037051,
				"element": "C" 
			},
			{
				"x": -3.331044114,
				"y": -4.4947748554,
				"z": -3.2756835512,
				"element": "C" 
			},
			{
				"x": -1.9043945127,
				"y": -4.6819304337,
				"z": -2.7332761179,
				"element": "C" 
			},
			{
				"x": -1.37946255,
				"y": -3.5133859245,
				"z": -1.8868390771,
				"element": "C" 
			},
			{
				"x": 0.0710508663,
				"y": -3.7152083363,
				"z": -1.4246704273,
				"element": "C" 
			},
			{
				"x": 0.618767918,
				"y": -2.6059642777,
				"z": -0.5113296191,
				"element": "C" 
			},
			{
				"x": 0.7697023193,
				"y": -1.2337592205,
				"z": -1.1830281417,
				"element": "C" 
			},
			{
				"x": 1.3904253239,
				"y": -0.1726809995,
				"z": -0.2640716142,
				"element": "C" 
			},
			{
				"x": 1.5387793719,
				"y": 1.1978610694,
				"z": -0.939660222,
				"element": "C" 
			},
			{
				"x": 2.2143122477,
				"y": 2.2755312874,
				"z": -0.0736383593,
				"element": "C" 
			},
			{
				"x": 1.4064936752,
				"y": 2.7300184599,
				"z": 1.1491247357,
				"element": "C" 
			},
			{
				"x": 0.1953523967,
				"y": 3.5959737768,
				"z": 0.8032360232,
				"element": "C" 
			},
			{
				"x": -0.0098775794,
				"y": 3.9566359301,
				"z": -0.3490240793,
				"element": "O" 
			},
			{
				"x": -0.7266689515,
				"y": 4.0155867218,
				"z": 1.9021361742,
				"element": "C" 
			},
			{
				"x": -1.8419147272,
				"y": 4.807247319,
				"z": 1.5697140776,
				"element": "C" 
			},
			{
				"x": -2.7359599134,
				"y": 5.2352099378,
				"z": 2.5378697029,
				"element": "C" 
			},
			{
				"x": -2.5289904081,
				"y": 4.8773480546,
				"z": 3.8784903806,
				"element": "C" 
			},
			{
				"x": -3.4348056961,
				"y": 5.3223647561,
				"z": 4.7911562008,
				"element": "O" 
			},
			{
				"x": -1.4241536915,
				"y": 4.0923094101,
				"z": 4.2308139521,
				"element": "C" 
			},
			{
				"x": -0.5346697283,
				"y": 3.6673285954,
				"z": 3.2475733038,
				"element": "C" 
			},
			{
				"x": -5.4161738711,
				"y": -4.3695462309,
				"z": -2.6460424862,
				"element": "H" 
			},
			{
				"x": -4.2946629614,
				"y": -3.5992913867,
				"z": -1.5223160414,
				"element": "H" 
			},
			{
				"x": -4.4063463419,
				"y": -5.3624146032,
				"z": -1.586581547,
				"element": "H" 
			},
			{
				"x": -3.5520208804,
				"y": -5.3147468996,
				"z": -3.9711401244,
				"element": "H" 
			},
			{
				"x": -3.3716445809,
				"y": -3.5731354784,
				"z": -3.8725776917,
				"element": "H" 
			},
			{
				"x": -1.2225212146,
				"y": -4.8358607028,
				"z": -3.5809585906,
				"element": "H" 
			},
			{
				"x": -1.8619571826,
				"y": -5.6070978551,
				"z": -2.1399822305,
				"element": "H" 
			},
			{
				"x": -1.4617216165,
				"y": -2.5871666478,
				"z": -2.4712485524,
				"element": "H" 
			},
			{
				"x": -2.0168437435,
				"y": -3.3742052402,
				"z": -1.0031513633,
				"element": "H" 
			},
			{
				"x": 0.721877146,
				"y": -3.8127404935,
				"z": -2.3056895412,
				"element": "H" 
			},
			{
				"x": 0.1393061799,
				"y": -4.6742140379,
				"z": -0.8928157945,
				"element": "H" 
			},
			{
				"x": -0.0322545796,
				"y": -2.5087720691,
				"z": 0.3697518145,
				"element": "H" 
			},
			{
				"x": 1.5996272679,
				"y": -2.9189800825,
				"z": -0.1276779067,
				"element": "H" 
			},
			{
				"x": -0.2083227053,
				"y": -0.8752543079,
				"z": -1.529510466,
				"element": "H" 
			},
			{
				"x": 1.3906862122,
				"y": -1.3395502486,
				"z": -2.0845025766,
				"element": "H" 
			},
			{
				"x": 2.3769068755,
				"y": -0.5204305751,
				"z": 0.0766557354,
				"element": "H" 
			},
			{
				"x": 0.7720102795,
				"y": -0.0855864762,
				"z": 0.6403157912,
				"element": "H" 
			},
			{
				"x": 0.5578100782,
				"y": 1.5629739302,
				"z": -1.2646228853,
				"element": "H" 
			},
			{
				"x": 2.133745125,
				"y": 1.0729423582,
				"z": -1.854421388,
				"element": "H" 
			},
			{
				"x": 2.4140939863,
				"y": 3.1537293832,
				"z": -0.6958525178,
				"element": "H" 
			},
			{
				"x": 3.186507999,
				"y": 1.9016955034,
				"z": 0.2734227498,
				"element": "H" 
			},
			{
				"x": 1.0735621386,
				"y": 1.8717147119,
				"z": 1.7458438005,
				"element": "H" 
			},
			{
				"x": 2.0454139395,
				"y": 3.3191955674,
				"z": 1.8225383297,
				"element": "H" 
			},
			{
				"x": -1.982001134,
				"y": 5.0743695924,
				"z": 0.5276367208,
				"element": "H" 
			},
			{
				"x": -3.5978605392,
				"y": 5.8443643067,
				"z": 2.2864625035,
				"element": "H" 
			},
			{
				"x": -3.18336347,
				"y": 5.0124114639,
				"z": 5.6712334664,
				"element": "H" 
			},
			{
				"x": -1.2629123947,
				"y": 3.8158899089,
				"z": 5.2706840341,
				"element": "H" 
			},
			{
				"x": 0.3152165913,
				"y": 3.0613079094,
				"z": 3.5433571211,
				"element": "H" 
			}
		],
		 "valence_orbital": [ 
			{
				"type": "occ",
				"energy": -0.30003,
				"method": "rhf"
			},
			{
				"type": "occ",
				"energy": -0.29347,
				"method": "rhf"
			},
			{
				"type": "occ",
				"energy": -0.26274,
				"method": "rhf"
			},
			{
				"type": "occ",
				"energy": -0.24158,
				"method": "rhf"
			},
			{
				"type": "occ",
				"energy": -0.23296,
				"method": "rhf"
			},
			{
				"type": "unocc",
				"energy": -0.04518,
				"method": "rhf"
			},
			{
				"type": "unocc",
				"energy": -0.01116,
				"method": "rhf"
			},
			{
				"type": "unocc",
				"energy": 0.05013,
				"method": "rhf"
			},
			{
				"type": "unocc",
				"energy": 0.06014,
				"method": "rhf"
			},
			{
				"type": "unocc",
				"energy": 0.08586,
				"method": "rhf"
			}
		],
		"cosmo_sigma_profile": { 
			"-0.025": 0.0,
			"-0.024": 0.0,
			"-0.023": 0.0,
			"-0.022": 0.0,
			"-0.021": 0.0,
			"-0.02": 0.0,
			"-0.019": 0.0201846969693,
			"-0.018": 1.03634456376,
			"-0.017": 0.913321152404,
			"-0.016": 1.33916005227,
			"-0.015": 0.980330351058,
			"-0.014": 1.27992032016,
			"-0.013": 0.781177959104,
			"-0.012": 0.613309093967,
			"-0.011": 1.04595578315,
			"-0.01": 1.56337101122,
			"-0.009": 0.620845421289,
			"-0.008": 1.25161111216,
			"-0.007": 3.18118117224,
			"-0.006": 7.85823155064,
			"-0.005": 12.257743022,
			"-0.004": 12.0658225467,
			"-0.003": 12.2451986428,
			"-0.002": 35.6460191426,
			"-0.001": 65.8828444447,
			"0.0": 68.1924933489,
			"0.001": 58.6728984784,
			"0.002": 33.1605176309,
			"0.003": 15.9794753237,
			"0.004": 15.7960637991,
			"0.005": 4.85550957883,
			"0.006": 3.27720918923,
			"0.007": 2.97762060936,
			"0.008": 3.15161278093,
			"0.009": 3.56514532553,
			"0.01": 3.51223671003,
			"0.011": 3.41608071239,
			"0.012": 3.31226863693,
			"0.013": 2.22120257785,
			"0.014": 0.0606528409493,
			"0.015": 0.0,
			"0.016": 0.0,
			"0.017": 0.0,
			"0.018": 0.0,
			"0.019": 0.0,
			"0.02": 0.0,
			"0.021": 0.0,
			"0.022": 0.0,
			"0.023": 0.0,
			"0.024": 0.0,
			"0.025": 0.0
		}
	}
}
