{
	 "smiles": "CS(=O)(=O)CCCI", 
	 "Tm": 333.15, 
	 "num_atms": 17, 
	 "gaussian": { 
		 "optdone": 1, 
		 "sigma_profile": "yes", 
		 "theory": "DFT", 
		 "functional": "B3LYP", 
		 "basiset": "6-31G**", 
		 "properties": { 
			 "R2extent": 1963.2441, 
			 "electric_dipole_moment_norm": 3.9859855657, 
			 "electric_quadrupole_moment_norm": 14.9473206693, 
			 "total_energy": -717.819423165, 
			 "HOMO_LUMO_gap": 0.21508, 
			 "cosmo_polarized_energy": -17.05, 
			 "cosmo_cavitation_energy": 24.28, 
			 "cosmo_dispersion_energy": -19.63, 
			 "cosmo_repulsion_energy": 1.56, 
			 "cosmo_total_nonelectrostatic_energy": 6.2, 
			 "SMD_solvation_energy": 2.78 
		},
		"coords": [
			{
				"x": -3.3690833377,
				"y": -0.5976707543,
				"z": -1.1462121823,
				"element": "C" 
			},
			{
				"x": -2.3186302981,
				"y": -0.702887145,
				"z": 0.3230107619,
				"element": "S" 
			},
			{
				"x": -3.1393690918,
				"y": -0.3443131313,
				"z": 1.4887382593,
				"element": "O" 
			},
			{
				"x": -1.6131358997,
				"y": -1.995773864,
				"z": 0.2725311087,
				"element": "O" 
			},
			{
				"x": -1.1011104459,
				"y": 0.6381653161,
				"z": 0.1053594194,
				"element": "C" 
			},
			{
				"x": -0.0454859159,
				"y": 0.4233453172,
				"z": -0.991765205,
				"element": "C" 
			},
			{
				"x": 1.0240796885,
				"y": -0.5907121884,
				"z": -0.5956709421,
				"element": "C" 
			},
			{
				"x": 2.5260675561,
				"y": -0.8202178677,
				"z": -2.1628949109,
				"element": "I" 
			},
			{
				"x": -2.7731860102,
				"y": -0.7597631346,
				"z": -2.045385263,
				"element": "H" 
			},
			{
				"x": -4.1034870804,
				"y": -1.3979796888,
				"z": -1.0383498475,
				"element": "H" 
			},
			{
				"x": -3.8701202429,
				"y": 0.3711934918,
				"z": -1.166912795,
				"element": "H" 
			},
			{
				"x": -0.6503927129,
				"y": 0.7298380823,
				"z": 1.0992079953,
				"element": "H" 
			},
			{
				"x": -1.6879198687,
				"y": 1.5445633614,
				"z": -0.0722691871,
				"element": "H" 
			},
			{
				"x": -0.5224280966,
				"y": 0.1197068858,
				"z": -1.9296515792,
				"element": "H" 
			},
			{
				"x": 0.4223182364,
				"y": 1.393664285,
				"z": -1.1893535447,
				"element": "H" 
			},
			{
				"x": 0.6135270472,
				"y": -1.5841574407,
				"z": -0.4341486426,
				"element": "H" 
			},
			{
				"x": 1.5835564725,
				"y": -0.2729015248,
				"z": 0.2842665548,
				"element": "H" 
			}
		],
		 "valence_orbital": [ 
			{
				"type": "occ",
				"energy": -0.32001,
				"method": "rhf"
			},
			{
				"type": "occ",
				"energy": -0.30352,
				"method": "rhf"
			},
			{
				"type": "occ",
				"energy": -0.29251,
				"method": "rhf"
			},
			{
				"type": "occ",
				"energy": -0.26437,
				"method": "rhf"
			},
			{
				"type": "occ",
				"energy": -0.26225,
				"method": "rhf"
			},
			{
				"type": "unocc",
				"energy": -0.04717,
				"method": "rhf"
			},
			{
				"type": "unocc",
				"energy": 0.03156,
				"method": "rhf"
			},
			{
				"type": "unocc",
				"energy": 0.03755,
				"method": "rhf"
			},
			{
				"type": "unocc",
				"energy": 0.04782,
				"method": "rhf"
			},
			{
				"type": "unocc",
				"energy": 0.05415,
				"method": "rhf"
			}
		],
		"cosmo_sigma_profile": { 
			"-0.025": 0.0,
			"-0.024": 0.0,
			"-0.023": 0.0,
			"-0.022": 0.0,
			"-0.021": 0.0,
			"-0.02": 0.0,
			"-0.019": 0.0,
			"-0.018": 0.0,
			"-0.017": 0.0,
			"-0.016": 0.0,
			"-0.015": 0.0,
			"-0.014": 0.0,
			"-0.013": 0.0,
			"-0.012": 0.012979086861,
			"-0.011": 0.509622058134,
			"-0.01": 1.37649447798,
			"-0.009": 5.75650737241,
			"-0.008": 12.7893407858,
			"-0.007": 12.6428778458,
			"-0.006": 13.6494013964,
			"-0.005": 15.4697306101,
			"-0.004": 14.6836071451,
			"-0.003": 12.416606986,
			"-0.002": 9.83838013179,
			"-0.001": 7.30161647672,
			"0.0": 5.82662112915,
			"0.001": 7.09765707009,
			"0.002": 6.26355276494,
			"0.003": 6.73892467661,
			"0.004": 9.26908314918,
			"0.005": 10.1087442242,
			"0.006": 12.9888000886,
			"0.007": 2.11727764042,
			"0.008": 2.37179759345,
			"0.009": 3.7073969981,
			"0.01": 3.38942168835,
			"0.011": 6.15555125639,
			"0.012": 10.4036157004,
			"0.013": 3.23844765612,
			"0.014": 0.0,
			"0.015": 0.0,
			"0.016": 0.0,
			"0.017": 0.0,
			"0.018": 0.0,
			"0.019": 0.0,
			"0.02": 0.0,
			"0.021": 0.0,
			"0.022": 0.0,
			"0.023": 0.0,
			"0.024": 0.0,
			"0.025": 0.0
		}
	}
}
