{
	 "smiles": "N(NC1=CC=CC=C1N=NC1=CC=CC=C1)C1=CC=CC=C1", 
	 "Tm": 372.15, 
	 "num_atms": 38, 
	 "gaussian": { 
		 "optdone": 1, 
		 "sigma_profile": "yes", 
		 "theory": "DFT", 
		 "functional": "B3LYP", 
		 "basiset": "6-31G**", 
		 "properties": { 
			 "R2extent": 7499.2903, 
			 "electric_dipole_moment_norm": 2.05875265391, 
			 "electric_quadrupole_moment_norm": 13.0013808478, 
			 "total_energy": -914.485675567, 
			 "HOMO_LUMO_gap": 0.12455, 
			 "cosmo_polarized_energy": -15.16, 
			 "cosmo_cavitation_energy": 42.56, 
			 "cosmo_dispersion_energy": -29.07, 
			 "cosmo_repulsion_energy": 2.21, 
			 "cosmo_total_nonelectrostatic_energy": 15.7, 
			 "SMD_solvation_energy": 6.5 
		},
		"coords": [
			{
				"x": -1.7918753063,
				"y": 1.5678543083,
				"z": 0.9891703247,
				"element": "N" 
			},
			{
				"x": -2.6724735313,
				"y": 0.5195419959,
				"z": 1.2670790223,
				"element": "N" 
			},
			{
				"x": -2.3276905983,
				"y": -0.3855728236,
				"z": 2.2868757575,
				"element": "C" 
			},
			{
				"x": -3.2986818016,
				"y": -0.7256679549,
				"z": 3.2416517829,
				"element": "C" 
			},
			{
				"x": -3.0298146483,
				"y": -1.6547430815,
				"z": 4.2423440664,
				"element": "C" 
			},
			{
				"x": -1.766189616,
				"y": -2.2484467777,
				"z": 4.3267790809,
				"element": "C" 
			},
			{
				"x": -0.7941814638,
				"y": -1.9195375174,
				"z": 3.3904460951,
				"element": "C" 
			},
			{
				"x": -1.057042667,
				"y": -1.0076292117,
				"z": 2.3543834817,
				"element": "C" 
			},
			{
				"x": -0.1379056001,
				"y": -0.7513066244,
				"z": 1.309253422,
				"element": "N" 
			},
			{
				"x": 1.0545781451,
				"y": -1.0608667461,
				"z": 1.5784274228,
				"element": "N" 
			},
			{
				"x": 1.9774922575,
				"y": -0.8757031453,
				"z": 0.5173834679,
				"element": "C" 
			},
			{
				"x": 3.2951483211,
				"y": -1.2626659678,
				"z": 0.7992717172,
				"element": "C" 
			},
			{
				"x": 4.2899852141,
				"y": -1.1252064501,
				"z": -0.1672069031,
				"element": "C" 
			},
			{
				"x": 3.972543153,
				"y": -0.5942767205,
				"z": -1.4189282715,
				"element": "C" 
			},
			{
				"x": 2.657440548,
				"y": -0.2020889827,
				"z": -1.7002018611,
				"element": "C" 
			},
			{
				"x": 1.6586772798,
				"y": -0.3397700581,
				"z": -0.7426977893,
				"element": "C" 
			},
			{
				"x": -1.6206608579,
				"y": 1.9461254415,
				"z": -0.3495346989,
				"element": "C" 
			},
			{
				"x": -1.1120808672,
				"y": 3.2245437177,
				"z": -0.6348528886,
				"element": "C" 
			},
			{
				"x": -0.8825650661,
				"y": 3.6110824858,
				"z": -1.9527399843,
				"element": "C" 
			},
			{
				"x": -1.1601827313,
				"y": 2.7397824676,
				"z": -3.0091012699,
				"element": "C" 
			},
			{
				"x": -1.6700729737,
				"y": 1.4716654026,
				"z": -2.7231516259,
				"element": "C" 
			},
			{
				"x": -1.9023383806,
				"y": 1.0684937077,
				"z": -1.4079924874,
				"element": "C" 
			},
			{
				"x": -1.8490408665,
				"y": 2.344990643,
				"z": 1.6414304194,
				"element": "H" 
			},
			{
				"x": -3.6425616682,
				"y": 0.8203690974,
				"z": 1.3349291002,
				"element": "H" 
			},
			{
				"x": -4.2724807417,
				"y": -0.2428260184,
				"z": 3.1967784875,
				"element": "H" 
			},
			{
				"x": -3.8026748843,
				"y": -1.903988925,
				"z": 4.9636984396,
				"element": "H" 
			},
			{
				"x": -1.5490967975,
				"y": -2.9695007798,
				"z": 5.1088363582,
				"element": "H" 
			},
			{
				"x": 0.1870101047,
				"y": -2.3799848581,
				"z": 3.4102617233,
				"element": "H" 
			},
			{
				"x": 3.5105010619,
				"y": -1.6689561263,
				"z": 1.7826139269,
				"element": "H" 
			},
			{
				"x": 5.3087796359,
				"y": -1.4288732266,
				"z": 0.0553199074,
				"element": "H" 
			},
			{
				"x": 4.7453820246,
				"y": -0.4825213784,
				"z": -2.1742701699,
				"element": "H" 
			},
			{
				"x": 2.4129831606,
				"y": 0.2164126248,
				"z": -2.6724966241,
				"element": "H" 
			},
			{
				"x": 0.6383452607,
				"y": -0.0361678596,
				"z": -0.9454669132,
				"element": "H" 
			},
			{
				"x": -0.8923436591,
				"y": 3.9103172986,
				"z": 0.1805924064,
				"element": "H" 
			},
			{
				"x": -0.4883592631,
				"y": 4.6035384092,
				"z": -2.1536046689,
				"element": "H" 
			},
			{
				"x": -0.9856709282,
				"y": 3.0459818373,
				"z": -4.0358724768,
				"element": "H" 
			},
			{
				"x": -1.8936995414,
				"y": 0.7819210835,
				"z": -3.5327698597,
				"element": "H" 
			},
			{
				"x": -2.2919817075,
				"y": 0.0829807134,
				"z": -1.1833379172,
				"element": "H" 
			}
		],
		 "valence_orbital": [ 
			{
				"type": "occ",
				"energy": -0.24296,
				"method": "rhf"
			},
			{
				"type": "occ",
				"energy": -0.23296,
				"method": "rhf"
			},
			{
				"type": "occ",
				"energy": -0.21637,
				"method": "rhf"
			},
			{
				"type": "occ",
				"energy": -0.21267,
				"method": "rhf"
			},
			{
				"type": "occ",
				"energy": -0.19621,
				"method": "rhf"
			},
			{
				"type": "unocc",
				"energy": -0.07166,
				"method": "rhf"
			},
			{
				"type": "unocc",
				"energy": 0.00178,
				"method": "rhf"
			},
			{
				"type": "unocc",
				"energy": 0.00366,
				"method": "rhf"
			},
			{
				"type": "unocc",
				"energy": 0.00627,
				"method": "rhf"
			},
			{
				"type": "unocc",
				"energy": 0.0131,
				"method": "rhf"
			}
		],
		"cosmo_sigma_profile": { 
			"-0.025": 0.0,
			"-0.024": 0.0,
			"-0.023": 0.0,
			"-0.022": 0.0,
			"-0.021": 0.0,
			"-0.02": 0.0,
			"-0.019": 0.0,
			"-0.018": 0.0,
			"-0.017": 0.0,
			"-0.016": 0.0,
			"-0.015": 0.0,
			"-0.014": 0.0,
			"-0.013": 1.8715670537,
			"-0.012": 3.74982711353,
			"-0.011": 4.25401514711,
			"-0.01": 3.48466088297,
			"-0.009": 2.57899812655,
			"-0.008": 2.51468193979,
			"-0.007": 3.78668246701,
			"-0.006": 14.5420433065,
			"-0.005": 23.0159719269,
			"-0.004": 25.5379952236,
			"-0.003": 23.6618019223,
			"-0.002": 20.4601450011,
			"-0.001": 18.285235509,
			"0.0": 19.4404091962,
			"0.001": 20.6598075957,
			"0.002": 28.0371501928,
			"0.003": 35.4834581912,
			"0.004": 36.3793687654,
			"0.005": 26.4525463468,
			"0.006": 12.0591260948,
			"0.007": 7.20961096474,
			"0.008": 3.25166617913,
			"0.009": 2.73780354298,
			"0.01": 1.44250524475,
			"0.011": 0.490944844491,
			"0.012": 0.0237918009891,
			"0.013": 0.0,
			"0.014": 0.0,
			"0.015": 0.0,
			"0.016": 0.0,
			"0.017": 0.0,
			"0.018": 0.0,
			"0.019": 0.0,
			"0.02": 0.0,
			"0.021": 0.0,
			"0.022": 0.0,
			"0.023": 0.0,
			"0.024": 0.0,
			"0.025": 0.0
		}
	}
}
