{
	 "smiles": "OC(=O)CNC(=O)CC1CCCC1", 
	 "Tm": 372.15, 
	 "num_atms": 28, 
	 "gaussian": { 
		 "optdone": 1, 
		 "sigma_profile": "yes", 
		 "theory": "DFT", 
		 "functional": "B3LYP", 
		 "basiset": "6-31G**", 
		 "properties": { 
			 "R2extent": 3430.6468, 
			 "electric_dipole_moment_norm": 5.83130971566, 
			 "electric_quadrupole_moment_norm": 17.0911904053, 
			 "total_energy": -632.443517231, 
			 "HOMO_LUMO_gap": 0.23788, 
			 "cosmo_polarized_energy": -24.38, 
			 "cosmo_cavitation_energy": 30.42, 
			 "cosmo_dispersion_energy": -21.42, 
			 "cosmo_repulsion_energy": 1.75, 
			 "cosmo_total_nonelectrostatic_energy": 10.75, 
			 "SMD_solvation_energy": 5.54 
		},
		"coords": [
			{
				"x": -0.7085281974,
				"y": 3.6173086664,
				"z": 1.634095531,
				"element": "O" 
			},
			{
				"x": -0.3442389795,
				"y": 2.3335417752,
				"z": 1.891159124,
				"element": "C" 
			},
			{
				"x": -0.6797450598,
				"y": 1.7868550242,
				"z": 2.9072457528,
				"element": "O" 
			},
			{
				"x": 0.4833070218,
				"y": 1.6649436997,
				"z": 0.7778286684,
				"element": "C" 
			},
			{
				"x": 0.9976699184,
				"y": 0.3653905662,
				"z": 1.1154842503,
				"element": "N" 
			},
			{
				"x": 0.2729866956,
				"y": -0.810349768,
				"z": 1.235601312,
				"element": "C" 
			},
			{
				"x": 0.7817017396,
				"y": -1.7846164938,
				"z": 1.7686990831,
				"element": "O" 
			},
			{
				"x": -1.1083470852,
				"y": -0.8621129985,
				"z": 0.597676783,
				"element": "C" 
			},
			{
				"x": -1.053338602,
				"y": -1.173841326,
				"z": -0.9098756381,
				"element": "C" 
			},
			{
				"x": -0.4097016555,
				"y": -2.5260784493,
				"z": -1.271017884,
				"element": "C" 
			},
			{
				"x": -0.8403346865,
				"y": -2.7722189995,
				"z": -2.7331527421,
				"element": "C" 
			},
			{
				"x": -2.1899806519,
				"y": -2.010429435,
				"z": -2.9121053275,
				"element": "C" 
			},
			{
				"x": -2.4420169176,
				"y": -1.2803439315,
				"z": -1.5703856154,
				"element": "C" 
			},
			{
				"x": -0.3533323651,
				"y": 3.9127713979,
				"z": 0.7828911694,
				"element": "H" 
			},
			{
				"x": 1.3243233083,
				"y": 2.320535761,
				"z": 0.5187155954,
				"element": "H" 
			},
			{
				"x": -0.1434000255,
				"y": 1.6090916476,
				"z": -0.1206844636,
				"element": "H" 
			},
			{
				"x": 1.8504683199,
				"y": 0.3376164188,
				"z": 1.6602933174,
				"element": "H" 
			},
			{
				"x": -1.6439168483,
				"y": -1.6639653808,
				"z": 1.113528501,
				"element": "H" 
			},
			{
				"x": -1.6644564165,
				"y": 0.0645975332,
				"z": 0.7755961448,
				"element": "H" 
			},
			{
				"x": -0.4873518246,
				"y": -0.3790583558,
				"z": -1.4216730523,
				"element": "H" 
			},
			{
				"x": 0.674910583,
				"y": -2.5389490959,
				"z": -1.1327225165,
				"element": "H" 
			},
			{
				"x": -0.821271356,
				"y": -3.3005350089,
				"z": -0.6114615368,
				"element": "H" 
			},
			{
				"x": -0.9311859951,
				"y": -3.8391922651,
				"z": -2.9573464252,
				"element": "H" 
			},
			{
				"x": -0.087499009,
				"y": -2.371744895,
				"z": -3.42118346,
				"element": "H" 
			},
			{
				"x": -3.0150268204,
				"y": -2.6849532771,
				"z": -3.1600710774,
				"element": "H" 
			},
			{
				"x": -2.1177840596,
				"y": -1.2917602132,
				"z": -3.7353469305,
				"element": "H" 
			},
			{
				"x": -2.9316024577,
				"y": -0.3084843878,
				"z": -1.6967009903,
				"element": "H" 
			},
			{
				"x": -3.0930085734,
				"y": -1.8847182091,
				"z": -0.9252875732,
				"element": "H" 
			}
		],
		 "valence_orbital": [ 
			{
				"type": "occ",
				"energy": -0.32018,
				"method": "rhf"
			},
			{
				"type": "occ",
				"energy": -0.3152,
				"method": "rhf"
			},
			{
				"type": "occ",
				"energy": -0.29327,
				"method": "rhf"
			},
			{
				"type": "occ",
				"energy": -0.25858,
				"method": "rhf"
			},
			{
				"type": "occ",
				"energy": -0.24396,
				"method": "rhf"
			},
			{
				"type": "unocc",
				"energy": -0.00608,
				"method": "rhf"
			},
			{
				"type": "unocc",
				"energy": 0.01987,
				"method": "rhf"
			},
			{
				"type": "unocc",
				"energy": 0.0364,
				"method": "rhf"
			},
			{
				"type": "unocc",
				"energy": 0.06694,
				"method": "rhf"
			},
			{
				"type": "unocc",
				"energy": 0.08269,
				"method": "rhf"
			}
		],
		"cosmo_sigma_profile": { 
			"-0.025": 0.0,
			"-0.024": 0.0,
			"-0.023": 0.0,
			"-0.022": 0.0,
			"-0.021": 0.0,
			"-0.02": 0.343446301323,
			"-0.019": 1.61652888371,
			"-0.018": 0.980921337627,
			"-0.017": 1.66394127918,
			"-0.016": 0.934997607902,
			"-0.015": 0.584270978972,
			"-0.014": 2.49673094394,
			"-0.013": 2.21309034615,
			"-0.012": 2.67390754246,
			"-0.011": 2.91928460269,
			"-0.01": 4.24120770276,
			"-0.009": 4.86397728615,
			"-0.008": 4.3808470313,
			"-0.007": 4.52025778275,
			"-0.006": 4.84670413204,
			"-0.005": 3.91016642304,
			"-0.004": 6.1172545731,
			"-0.003": 13.3603266846,
			"-0.002": 26.4815974723,
			"-0.001": 31.214579494,
			"0.0": 24.4168787166,
			"0.001": 18.719848961,
			"0.002": 10.8010823305,
			"0.003": 3.82040501197,
			"0.004": 5.83377939581,
			"0.005": 4.24172967209,
			"0.006": 4.46030995331,
			"0.007": 4.30372584714,
			"0.008": 5.13598657335,
			"0.009": 5.38839027558,
			"0.01": 6.96936164626,
			"0.011": 6.42404432349,
			"0.012": 4.8951294232,
			"0.013": 4.34552634485,
			"0.014": 4.96049131114,
			"0.015": 1.04439868673,
			"0.016": 0.0,
			"0.017": 0.0,
			"0.018": 0.0,
			"0.019": 0.0,
			"0.02": 0.0,
			"0.021": 0.0,
			"0.022": 0.0,
			"0.023": 0.0,
			"0.024": 0.0,
			"0.025": 0.0
		}
	}
}
