{
	 "smiles": "CC1=C(C)C=C(C=C1)C1=CSC2=C1C(Cl)=NC=N2", 
	 "Tm": 453.15, 
	 "num_atms": 29, 
	 "gaussian": { 
		 "optdone": 1, 
		 "sigma_profile": "yes", 
		 "theory": "DFT", 
		 "functional": "B3LYP", 
		 "basiset": "6-31G**", 
		 "properties": { 
			 "R2extent": 6883.6188, 
			 "electric_dipole_moment_norm": 3.41199048211, 
			 "electric_quadrupole_moment_norm": 5.44323272514, 
			 "total_energy": -1508.01127059, 
			 "HOMO_LUMO_gap": 0.17033, 
			 "cosmo_polarized_energy": -8.32, 
			 "cosmo_cavitation_energy": 36.16, 
			 "cosmo_dispersion_energy": -26.18, 
			 "cosmo_repulsion_energy": 1.96, 
			 "cosmo_total_nonelectrostatic_energy": 11.94, 
			 "SMD_solvation_energy": 2.5 
		},
		"coords": [
			{
				"x": -0.9656479881,
				"y": 3.7074303601,
				"z": -0.9242879627,
				"element": "C" 
			},
			{
				"x": -0.2107865865,
				"y": 2.41976191,
				"z": -0.6988606683,
				"element": "C" 
			},
			{
				"x": -0.045840556,
				"y": 1.8934579629,
				"z": 0.602322638,
				"element": "C" 
			},
			{
				"x": -0.6144216064,
				"y": 2.6100946016,
				"z": 1.8040245114,
				"element": "C" 
			},
			{
				"x": 0.6559455308,
				"y": 0.6981410347,
				"z": 0.7693979223,
				"element": "C" 
			},
			{
				"x": 1.201174387,
				"y": -0.0014836974,
				"z": -0.3175074826,
				"element": "C" 
			},
			{
				"x": 1.03879632,
				"y": 0.5312873419,
				"z": -1.6009159751,
				"element": "C" 
			},
			{
				"x": 0.3394371021,
				"y": 1.7245551239,
				"z": -1.779658462,
				"element": "C" 
			},
			{
				"x": 2.0082365889,
				"y": -1.2327996296,
				"z": -0.1139564271,
				"element": "C" 
			},
			{
				"x": 3.3219227188,
				"y": -1.2828916631,
				"z": -0.489046069,
				"element": "C" 
			},
			{
				"x": 4.1434091331,
				"y": -2.7794231282,
				"z": -0.1310033686,
				"element": "S" 
			},
			{
				"x": 2.6741547084,
				"y": -3.4225103252,
				"z": 0.5684525774,
				"element": "C" 
			},
			{
				"x": 1.6028486623,
				"y": -2.4887257202,
				"z": 0.493397645,
				"element": "C" 
			},
			{
				"x": 0.3885829322,
				"y": -3.0241607369,
				"z": 0.9729250459,
				"element": "C" 
			},
			{
				"x": -1.1120338253,
				"y": -2.1223849167,
				"z": 0.8723143769,
				"element": "Cl" 
			},
			{
				"x": 0.2905983903,
				"y": -4.2310633418,
				"z": 1.4930012402,
				"element": "N" 
			},
			{
				"x": 1.4025410815,
				"y": -4.9853288996,
				"z": 1.5363611589,
				"element": "C" 
			},
			{
				"x": 2.6048891261,
				"y": -4.6511101328,
				"z": 1.0787854027,
				"element": "N" 
			},
			{
				"x": -0.9949750025,
				"y": 3.9667276286,
				"z": -1.985749488,
				"element": "H" 
			},
			{
				"x": -2.0008470157,
				"y": 3.6374387784,
				"z": -0.5686244838,
				"element": "H" 
			},
			{
				"x": -0.5057576941,
				"y": 4.5462169863,
				"z": -0.3875745333,
				"element": "H" 
			},
			{
				"x": -0.2063608121,
				"y": 3.6233851798,
				"z": 1.9026627988,
				"element": "H" 
			},
			{
				"x": -0.3928199043,
				"y": 2.0694423371,
				"z": 2.727623789,
				"element": "H" 
			},
			{
				"x": -1.7037627891,
				"y": 2.7152337837,
				"z": 1.7325801154,
				"element": "H" 
			},
			{
				"x": 0.7876386918,
				"y": 0.3024892111,
				"z": 1.7727546878,
				"element": "H" 
			},
			{
				"x": 1.4465698034,
				"y": 0.0041070145,
				"z": -2.4583548117,
				"element": "H" 
			},
			{
				"x": 0.2143677405,
				"y": 2.1227931519,
				"z": -2.7835070712,
				"element": "H" 
			},
			{
				"x": 3.8762282573,
				"y": -0.473879308,
				"z": -0.9455566712,
				"element": "H" 
			},
			{
				"x": 1.2976126056,
				"y": -5.971700907,
				"z": 1.9802995651,
				"element": "H" 
			}
		],
		 "valence_orbital": [ 
			{
				"type": "occ",
				"energy": -0.27811,
				"method": "rhf"
			},
			{
				"type": "occ",
				"energy": -0.27093,
				"method": "rhf"
			},
			{
				"type": "occ",
				"energy": -0.25511,
				"method": "rhf"
			},
			{
				"type": "occ",
				"energy": -0.2458,
				"method": "rhf"
			},
			{
				"type": "occ",
				"energy": -0.22907,
				"method": "rhf"
			},
			{
				"type": "unocc",
				"energy": -0.05874,
				"method": "rhf"
			},
			{
				"type": "unocc",
				"energy": -0.04081,
				"method": "rhf"
			},
			{
				"type": "unocc",
				"energy": -0.0179,
				"method": "rhf"
			},
			{
				"type": "unocc",
				"energy": -0.00204,
				"method": "rhf"
			},
			{
				"type": "unocc",
				"energy": 0.00753,
				"method": "rhf"
			}
		],
		"cosmo_sigma_profile": { 
			"-0.025": 0.0,
			"-0.024": 0.0,
			"-0.023": 0.0,
			"-0.022": 0.0,
			"-0.021": 0.0,
			"-0.02": 0.0,
			"-0.019": 0.0,
			"-0.018": 0.0,
			"-0.017": 0.0,
			"-0.016": 0.0,
			"-0.015": 0.0,
			"-0.014": 0.0,
			"-0.013": 0.0,
			"-0.012": 0.0,
			"-0.011": 0.0,
			"-0.01": 0.577687148916,
			"-0.009": 2.68936767395,
			"-0.008": 3.8487459679,
			"-0.007": 2.9468472165,
			"-0.006": 4.69780286666,
			"-0.005": 11.4396388985,
			"-0.004": 23.834361099,
			"-0.003": 27.3064883278,
			"-0.002": 30.15846165,
			"-0.001": 31.7353007891,
			"0.0": 37.3027700775,
			"0.001": 27.4379336543,
			"0.002": 22.5977458803,
			"0.003": 17.9761203461,
			"0.004": 15.1324236643,
			"0.005": 11.2937881217,
			"0.006": 8.91861923698,
			"0.007": 2.32605254042,
			"0.008": 2.41307671984,
			"0.009": 2.09216759777,
			"0.01": 2.15585509916,
			"0.011": 1.93963189184,
			"0.012": 1.28351763803,
			"0.013": 1.67785564101,
			"0.014": 0.235806328363,
			"0.015": 0.0,
			"0.016": 0.0,
			"0.017": 0.0,
			"0.018": 0.0,
			"0.019": 0.0,
			"0.02": 0.0,
			"0.021": 0.0,
			"0.022": 0.0,
			"0.023": 0.0,
			"0.024": 0.0,
			"0.025": 0.0
		}
	}
}
