{
	 "smiles": "O=C1N2C(C=CC3=CC=CC=C23)=CC2=CC=CC=C12", 
	 "Tm": 398.15, 
	 "num_atms": 30, 
	 "gaussian": { 
		 "optdone": 1, 
		 "sigma_profile": "yes", 
		 "theory": "DFT", 
		 "functional": "B3LYP", 
		 "basiset": "6-31G**", 
		 "properties": { 
			 "R2extent": 5770.7316, 
			 "electric_dipole_moment_norm": 2.90724409192, 
			 "electric_quadrupole_moment_norm": 17.1482970539, 
			 "total_energy": -784.439890626, 
			 "HOMO_LUMO_gap": 0.13085, 
			 "cosmo_polarized_energy": -9.63, 
			 "cosmo_cavitation_energy": 33.03, 
			 "cosmo_dispersion_energy": -25.03, 
			 "cosmo_repulsion_energy": 1.81, 
			 "cosmo_total_nonelectrostatic_energy": 9.81, 
			 "SMD_solvation_energy": 5.45 
		},
		"coords": [
			{
				"x": 0.8584725738,
				"y": 1.1161604017,
				"z": -2.2642395723,
				"element": "O" 
			},
			{
				"x": 0.8107561558,
				"y": 0.5647710798,
				"z": -1.1675845548,
				"element": "C" 
			},
			{
				"x": 0.753400824,
				"y": -0.8639488991,
				"z": -1.0321680618,
				"element": "N" 
			},
			{
				"x": 0.6995240545,
				"y": -1.4331420421,
				"z": 0.2671631795,
				"element": "C" 
			},
			{
				"x": 0.641722369,
				"y": -2.8648513715,
				"z": 0.4018038472,
				"element": "C" 
			},
			{
				"x": 0.6369286978,
				"y": -3.6838158026,
				"z": -0.6659428629,
				"element": "C" 
			},
			{
				"x": 0.6908594377,
				"y": -3.134838008,
				"z": -1.9949395821,
				"element": "C" 
			},
			{
				"x": 0.6854370495,
				"y": -4.0002242332,
				"z": -3.1027798531,
				"element": "C" 
			},
			{
				"x": 0.7364080687,
				"y": -3.5150916937,
				"z": -4.3994997714,
				"element": "C" 
			},
			{
				"x": 0.7940278171,
				"y": -2.1342680304,
				"z": -4.5894228138,
				"element": "C" 
			},
			{
				"x": 0.8009314718,
				"y": -1.2492212,
				"z": -3.5130332294,
				"element": "C" 
			},
			{
				"x": 0.749522471,
				"y": -1.7251337919,
				"z": -2.1880161441,
				"element": "C" 
			},
			{
				"x": 0.7007708779,
				"y": -0.6596406042,
				"z": 1.3994258194,
				"element": "C" 
			},
			{
				"x": 0.7555695896,
				"y": 0.7569376326,
				"z": 1.3453147577,
				"element": "C" 
			},
			{
				"x": 0.7582172526,
				"y": 1.5831610877,
				"z": 2.4943867843,
				"element": "C" 
			},
			{
				"x": 0.8130979037,
				"y": 2.9584272021,
				"z": 2.3642078961,
				"element": "C" 
			},
			{
				"x": 0.8670350459,
				"y": 3.5546674597,
				"z": 1.0881508883,
				"element": "C" 
			},
			{
				"x": 0.8653349102,
				"y": 2.7610287651,
				"z": -0.0463077776,
				"element": "C" 
			},
			{
				"x": 0.8098175697,
				"y": 1.3586730531,
				"z": 0.0687492132,
				"element": "C" 
			},
			{
				"x": 0.6019533575,
				"y": -3.2507474781,
				"z": 1.4145522418,
				"element": "H" 
			},
			{
				"x": 0.5929093994,
				"y": -4.7623345791,
				"z": -0.5480053261,
				"element": "H" 
			},
			{
				"x": 0.6398663808,
				"y": -5.0694661251,
				"z": -2.9139362252,
				"element": "H" 
			},
			{
				"x": 0.7315302916,
				"y": -4.195203978,
				"z": -5.2456220776,
				"element": "H" 
			},
			{
				"x": 0.8348828674,
				"y": -1.7233486351,
				"z": -5.5939432596,
				"element": "H" 
			},
			{
				"x": 0.8459437113,
				"y": -0.1911183149,
				"z": -3.6960078032,
				"element": "H" 
			},
			{
				"x": 0.657835898,
				"y": -1.1656979499,
				"z": 2.3573834277,
				"element": "H" 
			},
			{
				"x": 0.7165527447,
				"y": 1.1214948309,
				"z": 3.4771955272,
				"element": "H" 
			},
			{
				"x": 0.8146689144,
				"y": 3.5847446431,
				"z": 3.2520581909,
				"element": "H" 
			},
			{
				"x": 0.9098776074,
				"y": 4.6356558048,
				"z": 0.9969149685,
				"element": "H" 
			},
			{
				"x": 0.9061446869,
				"y": 3.1902707765,
				"z": -1.0408578269,
				"element": "H" 
			}
		],
		 "valence_orbital": [ 
			{
				"type": "occ",
				"energy": -0.25662,
				"method": "rhf"
			},
			{
				"type": "occ",
				"energy": -0.25439,
				"method": "rhf"
			},
			{
				"type": "occ",
				"energy": -0.25178,
				"method": "rhf"
			},
			{
				"type": "occ",
				"energy": -0.24114,
				"method": "rhf"
			},
			{
				"type": "occ",
				"energy": -0.18949,
				"method": "rhf"
			},
			{
				"type": "unocc",
				"energy": -0.05864,
				"method": "rhf"
			},
			{
				"type": "unocc",
				"energy": -0.04312,
				"method": "rhf"
			},
			{
				"type": "unocc",
				"energy": -0.01126,
				"method": "rhf"
			},
			{
				"type": "unocc",
				"energy": 0.00367,
				"method": "rhf"
			},
			{
				"type": "unocc",
				"energy": 0.03862,
				"method": "rhf"
			}
		],
		"cosmo_sigma_profile": { 
			"-0.025": 0.0,
			"-0.024": 0.0,
			"-0.023": 0.0,
			"-0.022": 0.0,
			"-0.021": 0.0,
			"-0.02": 0.0,
			"-0.019": 0.0,
			"-0.018": 0.0,
			"-0.017": 0.0,
			"-0.016": 0.0,
			"-0.015": 0.0,
			"-0.014": 0.0,
			"-0.013": 0.0,
			"-0.012": 0.0,
			"-0.011": 0.0,
			"-0.01": 0.0,
			"-0.009": 0.0,
			"-0.008": 2.08660813479,
			"-0.007": 8.83241068225,
			"-0.006": 17.9099657458,
			"-0.005": 18.9523271333,
			"-0.004": 18.8934865857,
			"-0.003": 15.246849264,
			"-0.002": 18.5843428518,
			"-0.001": 18.2604977058,
			"0.0": 18.3109132102,
			"0.001": 21.5359029724,
			"0.002": 26.3976501811,
			"0.003": 31.7588741893,
			"0.004": 25.5828869056,
			"0.005": 10.5593757073,
			"0.006": 2.19232380719,
			"0.007": 2.09702674401,
			"0.008": 0.996898397508,
			"0.009": 1.92574893472,
			"0.01": 1.38482225365,
			"0.011": 2.19762345373,
			"0.012": 2.32928860563,
			"0.013": 0.952647470232,
			"0.014": 0.0,
			"0.015": 0.0,
			"0.016": 0.0,
			"0.017": 0.0,
			"0.018": 0.0,
			"0.019": 0.0,
			"0.02": 0.0,
			"0.021": 0.0,
			"0.022": 0.0,
			"0.023": 0.0,
			"0.024": 0.0,
			"0.025": 0.0
		}
	}
}
